/*--------------------------------*- C++ -*----------------------------------*\
  =========                 |
  \\      /  F ield         | OpenFOAM: The Open Source CFD Toolbox
   \\    /   O peration     | Website:  https://openfoam.org
    \\  /    A nd           | Version:  11
     \\/     M anipulation  |
\*---------------------------------------------------------------------------*/
FoamFile
{
    format      ascii;
    class       volScalarField;
    location    "384";
    object      nut;
}
// * * * * * * * * * * * * * * * * * * * * * * * * * * * * * * * * * * * * * //

dimensions      [0 2 -1 0 0 0 0];

internalField   nonuniform List<scalar> 
10000
(
0.000977115
0.000936697
0.000899631
0.000865596
0.000834305
0.000805499
0.000778946
0.000754437
0.000731784
0.000710818
0.000691386
0.000673352
0.000656592
0.000640994
0.000626457
0.00061289
0.000600211
0.000588345
0.000577224
0.000566787
0.00055698
0.00054775
0.000539053
0.000530846
0.000523091
0.000515755
0.000508804
0.000502212
0.00049595
0.000489996
0.000484327
0.000478924
0.000473768
0.000468843
0.000464134
0.000459627
0.000455311
0.000451174
0.000447207
0.000443403
0.000439753
0.000436253
0.000432897
0.000429683
0.000426609
0.000423674
0.000420879
0.000418226
0.000415721
0.000413367
0.000411173
0.000409147
0.000407301
0.000405647
0.0004042
0.000402976
0.000401994
0.000401274
0.000400837
0.000400705
0.000400903
0.000401454
0.000402383
0.000403714
0.000405469
0.00040767
0.000410335
0.000413479
0.000417114
0.000421248
0.000425882
0.000431014
0.000436635
0.000442732
0.000449285
0.000456269
0.000463654
0.000471401
0.000479471
0.000487819
0.000496397
0.000505155
0.000514041
0.000523002
0.000531981
0.000540921
0.000549758
0.000558441
0.000566914
0.000575114
0.000582978
0.000590441
0.000597434
0.000603883
0.000609709
0.000614826
0.000619142
0.000622553
0.000624947
0.000626195
0.000977115
0.000936697
0.000899631
0.000865597
0.000834306
0.000805499
0.000778946
0.000754437
0.000731784
0.000710818
0.000691387
0.000673353
0.000656593
0.000640995
0.000626458
0.000612891
0.000600212
0.000588345
0.000577225
0.000566788
0.00055698
0.000547751
0.000539053
0.000530847
0.000523092
0.000515756
0.000508806
0.000502213
0.000495951
0.000489997
0.000484329
0.000478925
0.000473769
0.000468844
0.000464135
0.000459629
0.000455313
0.000451176
0.000447209
0.000443405
0.000439755
0.000436255
0.0004329
0.000429686
0.000426612
0.000423677
0.000420882
0.000418229
0.000415724
0.00041337
0.000411176
0.00040915
0.000407304
0.00040565
0.000404203
0.000402979
0.000401996
0.000401275
0.000400837
0.000400705
0.000400902
0.000401452
0.00040238
0.000403709
0.000405463
0.000407662
0.000410325
0.000413467
0.0004171
0.000421231
0.000425864
0.000430994
0.000436614
0.000442709
0.00044926
0.000456242
0.000463623
0.000471367
0.000479434
0.000487779
0.000496354
0.000505111
0.000513997
0.000522957
0.000531936
0.000540876
0.000549713
0.000558397
0.000566871
0.000575072
0.000582937
0.000590401
0.000597395
0.000603845
0.000609672
0.000614791
0.000619108
0.00062252
0.000624915
0.000626163
0.000977115
0.000936698
0.000899632
0.000865597
0.000834306
0.0008055
0.000778947
0.000754438
0.000731785
0.000710819
0.000691388
0.000673354
0.000656594
0.000640996
0.000626459
0.000612892
0.000600213
0.000588347
0.000577226
0.00056679
0.000556982
0.000547752
0.000539055
0.000530848
0.000523094
0.000515758
0.000508808
0.000502215
0.000495954
0.00049
0.000484331
0.000478928
0.000473772
0.000468847
0.000464138
0.000459632
0.000455316
0.000451179
0.000447213
0.000443409
0.000439759
0.000436259
0.000432904
0.00042969
0.000426616
0.000423681
0.000420886
0.000418234
0.000415728
0.000413374
0.00041118
0.000409154
0.000407307
0.000405652
0.000404204
0.000402979
0.000401996
0.000401273
0.000400833
0.000400699
0.000400893
0.000401441
0.000402366
0.000403692
0.000405442
0.000407637
0.000410296
0.000413434
0.000417062
0.000421189
0.000425816
0.000430942
0.000436557
0.000442647
0.000449194
0.000456171
0.000463547
0.000471286
0.000479349
0.00048769
0.000496264
0.000505019
0.000513903
0.000522862
0.000531841
0.000540782
0.00054962
0.000558305
0.000566781
0.000574985
0.000582852
0.000590319
0.000597316
0.000603769
0.000609599
0.000614721
0.00061904
0.000622454
0.00062485
0.000626099
0.000977115
0.000936698
0.000899632
0.000865598
0.000834307
0.000805501
0.000778948
0.000754439
0.000731786
0.00071082
0.000691389
0.000673355
0.000656595
0.000640998
0.000626461
0.000612894
0.000600215
0.000588349
0.000577228
0.000566792
0.000556984
0.000547755
0.000539058
0.000530851
0.000523097
0.000515761
0.000508811
0.000502218
0.000495957
0.000490003
0.000484335
0.000478932
0.000473776
0.000468852
0.000464143
0.000459636
0.000455321
0.000451184
0.000447218
0.000443414
0.000439765
0.000436265
0.00043291
0.000429696
0.000426622
0.000423687
0.000420892
0.000418239
0.000415733
0.000413379
0.000411184
0.000409158
0.00040731
0.000405654
0.000404205
0.000402979
0.000401993
0.000401269
0.000400826
0.000400689
0.00040088
0.000401423
0.000402344
0.000403665
0.00040541
0.000407599
0.000410251
0.000413382
0.000417004
0.000421124
0.000425744
0.000430862
0.000436469
0.000442553
0.000449092
0.000456062
0.000463431
0.000471164
0.000479222
0.000487559
0.000496128
0.000504881
0.000513763
0.000522721
0.0005317
0.000540642
0.000549482
0.000558169
0.000566648
0.000574855
0.000582727
0.000590198
0.000597199
0.000603657
0.000609491
0.000614617
0.00061894
0.000622357
0.000624756
0.000626006
0.000977115
0.000936698
0.000899633
0.000865598
0.000834308
0.000805502
0.000778949
0.00075444
0.000731788
0.000710822
0.000691391
0.000673357
0.000656598
0.000641
0.000626463
0.000612896
0.000600217
0.000588352
0.000577231
0.000566795
0.000556987
0.000547758
0.000539061
0.000530855
0.000523101
0.000515765
0.000508815
0.000502223
0.000495962
0.000490008
0.00048434
0.000478937
0.000473782
0.000468857
0.000464149
0.000459643
0.000455327
0.000451191
0.000447225
0.000443421
0.000439772
0.000436272
0.000432917
0.000429704
0.00042663
0.000423695
0.0004209
0.000418247
0.000415741
0.000413386
0.000411191
0.000409163
0.000407315
0.000405658
0.000404207
0.000402978
0.00040199
0.000401263
0.000400817
0.000400676
0.000400862
0.000401401
0.000402315
0.00040363
0.000405368
0.000407549
0.000410193
0.000413316
0.000416928
0.000421038
0.000425649
0.000430757
0.000436355
0.000442429
0.000448958
0.000455919
0.00046328
0.000471006
0.000479056
0.000487388
0.000495953
0.000504701
0.000513582
0.000522539
0.000531518
0.000540461
0.000549302
0.000557993
0.000566475
0.000574687
0.000582564
0.00059004
0.000597047
0.00060351
0.00060935
0.000614481
0.000618808
0.00062223
0.000624631
0.000625883
0.000977115
0.000936698
0.000899633
0.000865599
0.000834309
0.000805503
0.000778951
0.000754442
0.000731789
0.000710824
0.000691393
0.00067336
0.0006566
0.000641002
0.000626466
0.000612899
0.000600221
0.000588355
0.000577235
0.000566799
0.000556991
0.000547762
0.000539065
0.000530859
0.000523105
0.000515769
0.00050882
0.000502228
0.000495967
0.000490014
0.000484346
0.000478943
0.000473788
0.000468864
0.000464156
0.00045965
0.000455335
0.000451199
0.000447234
0.00044343
0.000439781
0.000436282
0.000432927
0.000429713
0.000426639
0.000423705
0.00042091
0.000418257
0.00041575
0.000413395
0.000411199
0.00040917
0.00040732
0.000405662
0.000404209
0.000402978
0.000401987
0.000401256
0.000400806
0.00040066
0.000400841
0.000401373
0.000402281
0.000403588
0.000405317
0.000407489
0.000410123
0.000413235
0.000416836
0.000420935
0.000425533
0.00043063
0.000436216
0.000442278
0.000448796
0.000455746
0.000463097
0.000470813
0.000478856
0.00048718
0.00049574
0.000504484
0.000513362
0.000522317
0.000531296
0.00054024
0.000549084
0.000557778
0.000566265
0.000574482
0.000582364
0.000589847
0.000596861
0.000603331
0.000609177
0.000614314
0.000618648
0.000622074
0.000624479
0.000625732
0.000977115
0.000936699
0.000899634
0.0008656
0.00083431
0.000805505
0.000778952
0.000754444
0.000731791
0.000710826
0.000691396
0.000673362
0.000656603
0.000641005
0.000626469
0.000612903
0.000600224
0.000588359
0.000577239
0.000566803
0.000556996
0.000547767
0.00053907
0.000530864
0.000523111
0.000515775
0.000508826
0.000502234
0.000495974
0.000490021
0.000484353
0.000478951
0.000473796
0.000468872
0.000464164
0.000459659
0.000455344
0.000451209
0.000447244
0.00044344
0.000439792
0.000436293
0.000432938
0.000429725
0.000426651
0.000423716
0.000420921
0.000418268
0.000415761
0.000413405
0.000411208
0.000409179
0.000407328
0.000405667
0.000404212
0.000402978
0.000401984
0.000401248
0.000400794
0.000400642
0.000400817
0.000401342
0.000402241
0.000403539
0.000405258
0.00040742
0.000410042
0.000413142
0.00041673
0.000420815
0.0004254
0.000430482
0.000436054
0.000442103
0.000448608
0.000455545
0.000462884
0.00047059
0.000478623
0.00048694
0.000495492
0.000504232
0.000513106
0.00052206
0.000531038
0.000539983
0.00054883
0.000557528
0.00056602
0.000574242
0.000582132
0.000589622
0.000596643
0.000603121
0.000608975
0.000614119
0.000618459
0.000621891
0.000624299
0.000625553
0.000977115
0.000936699
0.000899634
0.000865601
0.000834311
0.000805506
0.000778954
0.000754446
0.000731794
0.000710829
0.000691398
0.000673365
0.000656606
0.000641009
0.000626473
0.000612907
0.000600228
0.000588363
0.000577243
0.000566808
0.000557001
0.000547772
0.000539076
0.00053087
0.000523117
0.000515781
0.000508833
0.000502241
0.000495981
0.000490028
0.000484361
0.000478959
0.000473805
0.000468882
0.000464174
0.00045967
0.000455355
0.00045122
0.000447255
0.000443453
0.000439805
0.000436306
0.000432951
0.000429739
0.000426665
0.00042373
0.000420935
0.000418282
0.000415774
0.000413418
0.00041122
0.000409189
0.000407336
0.000405673
0.000404216
0.000402979
0.00040198
0.000401241
0.000400781
0.000400623
0.00040079
0.000401307
0.000402198
0.000403485
0.000405193
0.000407343
0.000409952
0.000413037
0.000416611
0.000420681
0.00042525
0.000430317
0.000435873
0.000441906
0.000448396
0.00045532
0.000462645
0.000470339
0.000478361
0.000486669
0.000495214
0.000503948
0.000512818
0.000521769
0.000530747
0.000539693
0.000548543
0.000557245
0.000565742
0.000573971
0.000581868
0.000589366
0.000596396
0.000602882
0.000608745
0.000613897
0.000618244
0.000621681
0.000624093
0.000625349
0.000977115
0.000936699
0.000899635
0.000865602
0.000834312
0.000805507
0.000778955
0.000754448
0.000731796
0.000710831
0.000691401
0.000673368
0.000656609
0.000641012
0.000626477
0.000612911
0.000600233
0.000588368
0.000577248
0.000566813
0.000557006
0.000547778
0.000539082
0.000530876
0.000523124
0.000515789
0.00050884
0.000502249
0.00049599
0.000490037
0.00048437
0.000478969
0.000473815
0.000468893
0.000464186
0.000459681
0.000455367
0.000451233
0.000447269
0.000443466
0.000439819
0.00043632
0.000432967
0.000429754
0.000426681
0.000423746
0.000420951
0.000418297
0.000415789
0.000413432
0.000411233
0.000409201
0.000407346
0.000405681
0.000404221
0.00040298
0.000401978
0.000401233
0.000400767
0.000400602
0.000400762
0.00040127
0.00040215
0.000403427
0.000405122
0.000407258
0.000409853
0.000412923
0.000416481
0.000420534
0.000425086
0.000430135
0.000435674
0.00044169
0.000448164
0.000455072
0.000462383
0.000470063
0.000478074
0.000486371
0.000494907
0.000503635
0.0005125
0.000521449
0.000530426
0.000539373
0.000548225
0.000556931
0.000565435
0.000573671
0.000581576
0.000589083
0.000596121
0.000602617
0.000608489
0.000613649
0.000618004
0.000621447
0.000623863
0.000625121
0.000977115
0.0009367
0.000899635
0.000865602
0.000834313
0.000805509
0.000778957
0.00075445
0.000731798
0.000710834
0.000691404
0.000673372
0.000656613
0.000641016
0.000626481
0.000612915
0.000600237
0.000588373
0.000577254
0.000566819
0.000557012
0.000547784
0.000539089
0.000530884
0.000523131
0.000515797
0.000508849
0.000502258
0.000495999
0.000490047
0.000484381
0.00047898
0.000473827
0.000468904
0.000464198
0.000459694
0.000455381
0.000451247
0.000447284
0.000443482
0.000439835
0.000436337
0.000432983
0.000429771
0.000426698
0.000423764
0.000420968
0.000418315
0.000415806
0.000413449
0.000411248
0.000409215
0.000407358
0.000405691
0.000404227
0.000402983
0.000401976
0.000401225
0.000400753
0.000400581
0.000400732
0.00040123
0.0004021
0.000403364
0.000405047
0.000407168
0.000409747
0.000412801
0.000416341
0.000420376
0.000424909
0.00042994
0.00043546
0.000441458
0.000447913
0.000454804
0.000462099
0.000469765
0.000477762
0.000486048
0.000494576
0.000503295
0.000512155
0.000521101
0.000530077
0.000539025
0.00054788
0.000556591
0.0005651
0.000573343
0.000581257
0.000588773
0.000595821
0.000602327
0.000608208
0.000613378
0.00061774
0.00062119
0.00062361
0.00062487
0.000977116
0.0009367
0.000899636
0.000865603
0.000834314
0.00080551
0.000778959
0.000754452
0.000731801
0.000710836
0.000691407
0.000673375
0.000656617
0.00064102
0.000626485
0.00061292
0.000600243
0.000588378
0.000577259
0.000566825
0.000557019
0.000547791
0.000539096
0.000530891
0.000523139
0.000515805
0.000508858
0.000502268
0.000496009
0.000490058
0.000484392
0.000478992
0.000473839
0.000468918
0.000464212
0.000459709
0.000455396
0.000451263
0.0004473
0.000443499
0.000439852
0.000436355
0.000433002
0.00042979
0.000426717
0.000423783
0.000420988
0.000418334
0.000415825
0.000413467
0.000411265
0.00040923
0.000407372
0.000405702
0.000404234
0.000402986
0.000401974
0.000401218
0.000400739
0.000400559
0.000400701
0.000401189
0.000402047
0.000403299
0.000404967
0.000407073
0.000409635
0.000412671
0.000416193
0.000420208
0.000424722
0.000429732
0.000435233
0.00044121
0.000447647
0.000454519
0.000461797
0.000469447
0.00047743
0.000485704
0.000494221
0.000502933
0.000511787
0.000520729
0.000529704
0.000538653
0.00054751
0.000556225
0.000564741
0.000572992
0.000580914
0.000588439
0.000595498
0.000602014
0.000607905
0.000613084
0.000617455
0.000620912
0.000623337
0.000624599
0.000977116
0.0009367
0.000899636
0.000865604
0.000834315
0.000805511
0.00077896
0.000754454
0.000731803
0.000710839
0.00069141
0.000673378
0.00065662
0.000641025
0.00062649
0.000612925
0.000600248
0.000588384
0.000577265
0.000566831
0.000557026
0.000547799
0.000539104
0.0005309
0.000523148
0.000515815
0.000508867
0.000502278
0.00049602
0.000490069
0.000484404
0.000479005
0.000473853
0.000468932
0.000464227
0.000459724
0.000455412
0.00045128
0.000447318
0.000443517
0.000439871
0.000436375
0.000433022
0.000429811
0.000426738
0.000423804
0.000421009
0.000418355
0.000415846
0.000413487
0.000411284
0.000409247
0.000407387
0.000405714
0.000404243
0.000402991
0.000401974
0.000401212
0.000400726
0.000400537
0.00040067
0.000401147
0.000401993
0.000403231
0.000404884
0.000406973
0.000409519
0.000412536
0.000416037
0.000420033
0.000424525
0.000429514
0.000434993
0.00044095
0.000447366
0.000454219
0.000461479
0.000469112
0.00047708
0.000485341
0.000493847
0.00050255
0.000511398
0.000520336
0.000529308
0.000538258
0.000547118
0.000555837
0.000564359
0.000572618
0.000580549
0.000588084
0.000595153
0.00060168
0.000607582
0.00061277
0.00061715
0.000620614
0.000623044
0.000624309
0.000977116
0.0009367
0.000899637
0.000865604
0.000834316
0.000805513
0.000778962
0.000754456
0.000731805
0.000710842
0.000691413
0.000673382
0.000656624
0.000641029
0.000626494
0.00061293
0.000600253
0.00058839
0.000577272
0.000566838
0.000557033
0.000547806
0.000539112
0.000530908
0.000523157
0.000515824
0.000508878
0.000502289
0.000496031
0.000490081
0.000484417
0.000479018
0.000473867
0.000468947
0.000464242
0.000459741
0.00045543
0.000451298
0.000447336
0.000443537
0.000439892
0.000436396
0.000433044
0.000429833
0.000426761
0.000423827
0.000421032
0.000418378
0.000415868
0.000413508
0.000411305
0.000409266
0.000407403
0.000405728
0.000404254
0.000402997
0.000401975
0.000401206
0.000400713
0.000400516
0.000400638
0.000401104
0.000401937
0.000403161
0.000404798
0.000406871
0.000409398
0.000412395
0.000415877
0.00041985
0.000424321
0.000429288
0.000434744
0.000440679
0.000447074
0.000453906
0.000461147
0.000468762
0.000476715
0.000484961
0.000493456
0.000502149
0.00051099
0.000519923
0.000528894
0.000537843
0.000546706
0.00055543
0.000563958
0.000572224
0.000580164
0.00058771
0.00059479
0.000601327
0.000607239
0.000612438
0.000616827
0.000620298
0.000622734
0.000624001
0.000977116
0.000936701
0.000899637
0.000865605
0.000834317
0.000805514
0.000778964
0.000754458
0.000731808
0.000710845
0.000691416
0.000673385
0.000656628
0.000641033
0.000626499
0.000612935
0.000600259
0.000588396
0.000577278
0.000566845
0.000557041
0.000547814
0.000539121
0.000530918
0.000523167
0.000515835
0.000508889
0.000502301
0.000496044
0.000490094
0.000484431
0.000479033
0.000473882
0.000468963
0.000464259
0.000459758
0.000455448
0.000451317
0.000447357
0.000443558
0.000439914
0.000436418
0.000433067
0.000429857
0.000426785
0.000423852
0.000421057
0.000418403
0.000415892
0.000413532
0.000411327
0.000409287
0.000407422
0.000405743
0.000404265
0.000403004
0.000401976
0.000401202
0.0004007
0.000400494
0.000400606
0.00040106
0.00040188
0.00040309
0.000404711
0.000406766
0.000409274
0.000412251
0.000415711
0.000419663
0.00042411
0.000429054
0.000434487
0.000440399
0.000446772
0.000453582
0.000460803
0.0004684
0.000476336
0.000484568
0.00049305
0.000501733
0.000510567
0.000519495
0.000528463
0.000537412
0.000546276
0.000555005
0.000563539
0.000571813
0.000579762
0.000587318
0.000594409
0.000600957
0.00060688
0.000612089
0.000616487
0.000619966
0.000622407
0.000623678
0.000977116
0.000936701
0.000899638
0.000865606
0.000834318
0.000805515
0.000778965
0.000754459
0.00073181
0.000710847
0.000691419
0.000673389
0.000656632
0.000641037
0.000626504
0.00061294
0.000600265
0.000588402
0.000577285
0.000566852
0.000557048
0.000547823
0.00053913
0.000530927
0.000523177
0.000515845
0.0005089
0.000502313
0.000496057
0.000490108
0.000484445
0.000479048
0.000473898
0.000468979
0.000464277
0.000459777
0.000455468
0.000451338
0.000447378
0.00044358
0.000439937
0.000436442
0.000433092
0.000429882
0.000426811
0.000423878
0.000421083
0.000418429
0.000415918
0.000413557
0.000411351
0.000409309
0.000407441
0.00040576
0.000404278
0.000403012
0.000401979
0.000401198
0.000400689
0.000400473
0.000400575
0.000401017
0.000401823
0.000403017
0.000404622
0.000406659
0.000409147
0.000412104
0.000415542
0.000419471
0.000423895
0.000428815
0.000434224
0.000440112
0.000446461
0.00045325
0.00046045
0.000468028
0.000475946
0.000484162
0.000492632
0.000501305
0.00051013
0.000519053
0.000528017
0.000536966
0.000545832
0.000554565
0.000563105
0.000571387
0.000579345
0.000586911
0.000594012
0.000600572
0.000606506
0.000611726
0.000616133
0.000619619
0.000622067
0.00062334
0.000977116
0.000936701
0.000899638
0.000865606
0.000834319
0.000805516
0.000778967
0.000754461
0.000731812
0.00071085
0.000691422
0.000673392
0.000656636
0.000641042
0.000626509
0.000612946
0.000600271
0.000588408
0.000577292
0.00056686
0.000557056
0.000547831
0.000539139
0.000530937
0.000523188
0.000515857
0.000508912
0.000502325
0.00049607
0.000490122
0.00048446
0.000479064
0.000473915
0.000468997
0.000464295
0.000459796
0.000455488
0.000451359
0.0004474
0.000443603
0.000439961
0.000436467
0.000433117
0.000429909
0.000426838
0.000423905
0.000421111
0.000418456
0.000415945
0.000413583
0.000411376
0.000409332
0.000407463
0.000405778
0.000404293
0.000403022
0.000401983
0.000401195
0.000400678
0.000400453
0.000400544
0.000400974
0.000401766
0.000402945
0.000404533
0.000406551
0.00040902
0.000411955
0.00041537
0.000419276
0.000423676
0.000428571
0.000433956
0.000439819
0.000446145
0.000452911
0.000460089
0.000467647
0.000475547
0.000483748
0.000492204
0.000500866
0.000509682
0.000518599
0.00052756
0.000536508
0.000545376
0.000554112
0.000562658
0.000570948
0.000578915
0.000586491
0.000593603
0.000600174
0.000606119
0.000611349
0.000615765
0.00061926
0.000621713
0.000622989
0.000977116
0.000936701
0.000899638
0.000865607
0.000834319
0.000805517
0.000778968
0.000754463
0.000731814
0.000710852
0.000691425
0.000673396
0.00065664
0.000641046
0.000626514
0.000612951
0.000600276
0.000588415
0.000577299
0.000566867
0.000557065
0.00054784
0.000539148
0.000530947
0.000523198
0.000515868
0.000508924
0.000502338
0.000496084
0.000490137
0.000484475
0.00047908
0.000473932
0.000469015
0.000464315
0.000459817
0.000455509
0.000451381
0.000447423
0.000443627
0.000439986
0.000436493
0.000433144
0.000429936
0.000426866
0.000423934
0.00042114
0.000418485
0.000415974
0.000413611
0.000411403
0.000409357
0.000407485
0.000405798
0.000404309
0.000403033
0.000401989
0.000401193
0.000400668
0.000400434
0.000400514
0.000400931
0.00040171
0.000402873
0.000404443
0.000406443
0.000408891
0.000411804
0.000415197
0.000419078
0.000423454
0.000428324
0.000433684
0.000439523
0.000445824
0.000452566
0.000459723
0.00046726
0.000475142
0.000483326
0.000491768
0.000500418
0.000509225
0.000518136
0.000527094
0.00053604
0.00054491
0.000553649
0.000562201
0.000570498
0.000578474
0.00058606
0.000593183
0.000599764
0.000605721
0.000610961
0.000615387
0.00061889
0.000621348
0.000622628
0.000977116
0.000936701
0.000899639
0.000865607
0.00083432
0.000805518
0.000778969
0.000754465
0.000731816
0.000710855
0.000691428
0.000673399
0.000656644
0.00064105
0.000626518
0.000612956
0.000600282
0.000588421
0.000577306
0.000566875
0.000557073
0.000547849
0.000539158
0.000530957
0.000523209
0.00051588
0.000508937
0.000502351
0.000496098
0.000490152
0.000484491
0.000479097
0.00047395
0.000469034
0.000464334
0.000459837
0.000455531
0.000451404
0.000447447
0.000443652
0.000440012
0.00043652
0.000433172
0.000429965
0.000426896
0.000423964
0.00042117
0.000418515
0.000416003
0.00041364
0.00041143
0.000409384
0.000407509
0.000405819
0.000404326
0.000403046
0.000401995
0.000401193
0.000400659
0.000400416
0.000400484
0.000400889
0.000401654
0.000402801
0.000404354
0.000406334
0.000408762
0.000411653
0.000415023
0.00041888
0.000423231
0.000428076
0.00043341
0.000439223
0.0004455
0.000452219
0.000459352
0.000466869
0.000474732
0.000482899
0.000491326
0.000499964
0.000508762
0.000517666
0.00052662
0.000535565
0.000544435
0.000553178
0.000561735
0.000570039
0.000578024
0.000585619
0.000592753
0.000599345
0.000605313
0.000610564
0.000614999
0.00061851
0.000620974
0.000622257
0.000977116
0.000936701
0.000899639
0.000865608
0.000834321
0.000805519
0.000778971
0.000754466
0.000731818
0.000710857
0.000691431
0.000673402
0.000656647
0.000641055
0.000626523
0.000612962
0.000600288
0.000588428
0.000577313
0.000566882
0.000557081
0.000547858
0.000539167
0.000530967
0.00052322
0.000515891
0.000508949
0.000502365
0.000496112
0.000490167
0.000484507
0.000479114
0.000473968
0.000469053
0.000464355
0.000459859
0.000455553
0.000451428
0.000447472
0.000443678
0.000440039
0.000436548
0.000433201
0.000429994
0.000426926
0.000423994
0.000421201
0.000418546
0.000416034
0.00041367
0.000411459
0.000409411
0.000407534
0.000405841
0.000404344
0.000403059
0.000402003
0.000401193
0.000400652
0.000400398
0.000400456
0.000400848
0.000401598
0.00040273
0.000404265
0.000406226
0.000408633
0.000411503
0.000414849
0.000418682
0.000423007
0.000427827
0.000433135
0.000438923
0.000445174
0.000451869
0.00045898
0.000466475
0.000474318
0.000482468
0.000490881
0.000499506
0.000508295
0.000517191
0.00052614
0.000535084
0.000543955
0.000552701
0.000561263
0.000569573
0.000577566
0.000585172
0.000592315
0.000598919
0.000604897
0.000610159
0.000614603
0.000618122
0.000620593
0.000621878
0.000977116
0.000936702
0.000899639
0.000865608
0.000834322
0.00080552
0.000778972
0.000754468
0.00073182
0.000710859
0.000691434
0.000673405
0.000656651
0.000641059
0.000626528
0.000612967
0.000600294
0.000588434
0.00057732
0.00056689
0.000557089
0.000547867
0.000539177
0.000530978
0.000523231
0.000515903
0.000508962
0.000502378
0.000496127
0.000490182
0.000484524
0.000479131
0.000473986
0.000469073
0.000464375
0.000459881
0.000455576
0.000451452
0.000447497
0.000443704
0.000440066
0.000436576
0.00043323
0.000430025
0.000426957
0.000424026
0.000421232
0.000418578
0.000416066
0.000413701
0.000411489
0.000409439
0.00040756
0.000405864
0.000404363
0.000403073
0.000402011
0.000401195
0.000400645
0.000400382
0.000400429
0.000400808
0.000401544
0.000402659
0.000404177
0.000406119
0.000408506
0.000411353
0.000414676
0.000418484
0.000422784
0.000427578
0.00043286
0.000438622
0.000444849
0.000451519
0.000458606
0.00046608
0.000473904
0.000482036
0.000490433
0.000499046
0.000507824
0.000516714
0.000525658
0.000534599
0.000543471
0.000552219
0.000560786
0.000569103
0.000577104
0.000584719
0.000591873
0.000598487
0.000604476
0.000609747
0.000614202
0.000617728
0.000620205
0.000621493
0.000977116
0.000936702
0.00089964
0.000865609
0.000834322
0.000805521
0.000778973
0.000754469
0.000731822
0.000710862
0.000691436
0.000673408
0.000656655
0.000641063
0.000626532
0.000612972
0.000600299
0.00058844
0.000577327
0.000566898
0.000557097
0.000547876
0.000539186
0.000530988
0.000523243
0.000515915
0.000508975
0.000502392
0.000496141
0.000490198
0.000484541
0.000479149
0.000474005
0.000469093
0.000464396
0.000459903
0.0004556
0.000451476
0.000447523
0.000443731
0.000440094
0.000436605
0.00043326
0.000430056
0.000426988
0.000424058
0.000421265
0.000418611
0.000416099
0.000413733
0.00041152
0.000409468
0.000407587
0.000405888
0.000404383
0.000403089
0.000402021
0.000401198
0.00040064
0.000400367
0.000400403
0.00040077
0.000401491
0.000402591
0.000404091
0.000406014
0.000408379
0.000411204
0.000414504
0.000418288
0.000422563
0.00042733
0.000432587
0.000438323
0.000444524
0.000451169
0.000458234
0.000465686
0.000473489
0.000481604
0.000489986
0.000498586
0.000507353
0.000516235
0.000525174
0.000534113
0.000542984
0.000551735
0.000560306
0.000568629
0.000576638
0.000584262
0.000591426
0.00059805
0.00060405
0.000609332
0.000613795
0.00061733
0.000619812
0.000621104
0.000977116
0.000936702
0.00089964
0.000865609
0.000834323
0.000805522
0.000778974
0.000754471
0.000731824
0.000710864
0.000691439
0.000673411
0.000656658
0.000641067
0.000626537
0.000612977
0.000600305
0.000588446
0.000577333
0.000566905
0.000557106
0.000547884
0.000539196
0.000530999
0.000523254
0.000515927
0.000508988
0.000502406
0.000496156
0.000490214
0.000484557
0.000479167
0.000474024
0.000469113
0.000464418
0.000459925
0.000455623
0.000451501
0.000447549
0.000443758
0.000440122
0.000436635
0.000433291
0.000430087
0.000427021
0.000424091
0.000421298
0.000418644
0.000416132
0.000413765
0.000411552
0.000409498
0.000407615
0.000405913
0.000404404
0.000403105
0.000402032
0.000401202
0.000400635
0.000400353
0.000400378
0.000400732
0.000401439
0.000402523
0.000404006
0.00040591
0.000408255
0.000411058
0.000414334
0.000418093
0.000422343
0.000427085
0.000432315
0.000438025
0.000444201
0.000450822
0.000457863
0.000465293
0.000473077
0.000481174
0.000489539
0.000498126
0.000506883
0.000515757
0.000524691
0.000533627
0.000542498
0.00055125
0.000559825
0.000568155
0.000576171
0.000583804
0.000590977
0.000597612
0.000603622
0.000608914
0.000613386
0.000616928
0.000619416
0.000620711
0.000977116
0.000936702
0.00089964
0.00086561
0.000834323
0.000805523
0.000778975
0.000754472
0.000731825
0.000710866
0.000691441
0.000673414
0.000656661
0.00064107
0.000626541
0.000612982
0.00060031
0.000588452
0.00057734
0.000566912
0.000557114
0.000547893
0.000539206
0.000531009
0.000523265
0.00051594
0.000509001
0.00050242
0.000496171
0.00049023
0.000484574
0.000479185
0.000474043
0.000469133
0.000464439
0.000459948
0.000455647
0.000451526
0.000447575
0.000443786
0.000440151
0.000436665
0.000433322
0.000430119
0.000427053
0.000424124
0.000421332
0.000418678
0.000416165
0.000413799
0.000411584
0.000409529
0.000407643
0.000405938
0.000404426
0.000403123
0.000402043
0.000401207
0.000400632
0.000400341
0.000400354
0.000400696
0.000401389
0.000402457
0.000403923
0.000405808
0.000408132
0.000410913
0.000414166
0.000417901
0.000422126
0.000426842
0.000432047
0.000437731
0.000443882
0.000450478
0.000457496
0.000464904
0.000472668
0.000480746
0.000489096
0.00049767
0.000506416
0.000515281
0.000524209
0.000533142
0.000542013
0.000550767
0.000559346
0.000567681
0.000575704
0.000583345
0.000590528
0.000597173
0.000603193
0.000608494
0.000612976
0.000616525
0.000619019
0.000620317
0.000977116
0.000936702
0.00089964
0.00086561
0.000834324
0.000805524
0.000778976
0.000754473
0.000731827
0.000710868
0.000691444
0.000673417
0.000656665
0.000641074
0.000626545
0.000612987
0.000600316
0.000588458
0.000577347
0.00056692
0.000557122
0.000547902
0.000539215
0.000531019
0.000523276
0.000515951
0.000509014
0.000502434
0.000496186
0.000490246
0.000484591
0.000479203
0.000474062
0.000469153
0.000464461
0.000459971
0.000455671
0.000451551
0.000447602
0.000443814
0.00044018
0.000436695
0.000433353
0.000430151
0.000427086
0.000424158
0.000421366
0.000418712
0.000416199
0.000413832
0.000411616
0.00040956
0.000407672
0.000405964
0.000404449
0.000403141
0.000402056
0.000401212
0.00040063
0.000400329
0.000400332
0.000400662
0.000401341
0.000402394
0.000403842
0.000405708
0.000408012
0.000410772
0.000414002
0.000417713
0.000421913
0.000426604
0.000431783
0.000437442
0.000443567
0.000450139
0.000457133
0.00046452
0.000472263
0.000480324
0.000488658
0.000497218
0.000505953
0.000514809
0.000523732
0.000532661
0.000541531
0.000550286
0.000558868
0.000567209
0.000575239
0.000582888
0.00059008
0.000596735
0.000602764
0.000608075
0.000612565
0.000616123
0.000618622
0.000619923
0.000977116
0.000936702
0.000899641
0.000865611
0.000834325
0.000805524
0.000778977
0.000754475
0.000731829
0.00071087
0.000691446
0.00067342
0.000656668
0.000641078
0.000626549
0.000612991
0.000600321
0.000588464
0.000577353
0.000566927
0.000557129
0.000547911
0.000539224
0.000531029
0.000523287
0.000515963
0.000509026
0.000502448
0.000496201
0.000490261
0.000484608
0.000479221
0.000474082
0.000469174
0.000464482
0.000459993
0.000455695
0.000451576
0.000447628
0.000443841
0.000440209
0.000436724
0.000433384
0.000430183
0.000427119
0.000424191
0.0004214
0.000418746
0.000416233
0.000413866
0.000411649
0.000409591
0.000407702
0.000405991
0.000404472
0.000403159
0.000402069
0.000401219
0.000400628
0.000400319
0.000400311
0.000400629
0.000401294
0.000402332
0.000403764
0.000405611