/*--------------------------------*- C++ -*----------------------------------*\
  =========                 |
  \\      /  F ield         | OpenFOAM: The Open Source CFD Toolbox
   \\    /   O peration     | Website:  https://openfoam.org
    \\  /    A nd           | Version:  11
     \\/     M anipulation  |
\*---------------------------------------------------------------------------*/
FoamFile
{
    format      ascii;
    class       volScalarField;
    location    "384";
    object      omega;
}
// * * * * * * * * * * * * * * * * * * * * * * * * * * * * * * * * * * * * * //

dimensions      [0 0 -1 0 0 0 0];

internalField   nonuniform List<scalar> 
10000
(
0.961693
0.892187
0.829088
0.77173
0.719524
0.671944
0.62852
0.588836
0.55252
0.51924
0.488699
0.460634
0.434808
0.411008
0.389047
0.368752
0.349973
0.332573
0.316428
0.301428
0.287473
0.274473
0.262349
0.251025
0.240436
0.230523
0.22123
0.212509
0.204314
0.196606
0.189347
0.182502
0.176042
0.169938
0.164164
0.158696
0.153513
0.148595
0.143924
0.139482
0.135253
0.131225
0.127382
0.123713
0.120206
0.116851
0.113636
0.110554
0.107595
0.104752
0.102015
0.0993789
0.0968361
0.0943804
0.0920059
0.089707
0.0874787
0.0853163
0.0832154
0.0811722
0.0791831
0.0772454
0.0753564
0.0735142
0.0717173
0.0699645
0.0682554
0.0665898
0.0649679
0.0633904
0.0618581
0.060372
0.0589332
0.0575432
0.0562032
0.0549144
0.0536777
0.0524938
0.0513629
0.0502854
0.0492609
0.0482893
0.04737
0.0465023
0.0456855
0.0449185
0.0442005
0.0435304
0.0429073
0.0423305
0.0417994
0.0413136
0.0408731
0.0404783
0.04013
0.0398297
0.0395797
0.0393833
0.0392451
0.0391716
0.961693
0.892187
0.829088
0.771731
0.719525
0.671944
0.62852
0.588836
0.55252
0.51924
0.4887
0.460634
0.434808
0.411009
0.389047
0.368753
0.349974
0.332573
0.316428
0.301428
0.287473
0.274474
0.262349
0.251025
0.240437
0.230523
0.221231
0.212509
0.204315
0.196607
0.189347
0.182503
0.176042
0.169938
0.164164
0.158697
0.153514
0.148596
0.143924
0.139482
0.135254
0.131226
0.127383
0.123714
0.120207
0.116852
0.113638
0.110556
0.107597
0.104753
0.102017
0.0993806
0.096838
0.0943824
0.0920081
0.0897094
0.0874814
0.0853191
0.0832184
0.0811754
0.0791867
0.0772492
0.0753605
0.0735185
0.0717218
0.0699692
0.0682603
0.0665949
0.0649732
0.0633959
0.0618637
0.0603778
0.0589392
0.0575494
0.0562095
0.0549207
0.0536839
0.0524997
0.0513686
0.0502908
0.0492661
0.0482942
0.0473746
0.0465067
0.0456897
0.0449225
0.0442042
0.0435339
0.0429106
0.0423336
0.0418023
0.0413164
0.0408757
0.0404807
0.0401323
0.0398318
0.0395817
0.0393852
0.0392471
0.0391735
0.961693
0.892187
0.829088
0.771731
0.719525
0.671944
0.628521
0.588837
0.55252
0.51924
0.4887
0.460635
0.434809
0.411009
0.389048
0.368753
0.349974
0.332574
0.316429
0.301429
0.287474
0.274475
0.26235
0.251026
0.240437
0.230524
0.221231
0.21251
0.204316
0.196607
0.189348
0.182504
0.176043
0.169939
0.164165
0.158698
0.153515
0.148597
0.143926
0.139484
0.135256
0.131227
0.127384
0.123716
0.120209
0.116854
0.11364
0.110558
0.107599
0.104755
0.102019
0.0993834
0.0968409
0.0943856
0.0920116
0.0897132
0.0874854
0.0853235
0.0832232
0.0811805
0.0791922
0.0772551
0.0753668
0.0735252
0.0717289
0.0699768
0.0682683
0.0666032
0.0649819
0.0634048
0.0618729
0.0603872
0.0589489
0.0575593
0.0562195
0.0549307
0.0536937
0.0525094
0.0513781
0.0502999
0.0492749
0.0483027
0.0473828
0.0465145
0.0456971
0.0449295
0.0442109
0.0435402
0.0429166
0.0423393
0.0418077
0.0413214
0.0408805
0.0404852
0.0401365
0.0398359
0.0395856
0.039389
0.0392508
0.0391771
0.961693
0.892187
0.829088
0.771731
0.719525
0.671945
0.628521
0.588837
0.552521
0.519241
0.488701
0.460636
0.43481
0.41101
0.389049
0.368754
0.349975
0.332575
0.31643
0.30143
0.287475
0.274476
0.262351
0.251027
0.240439
0.230525
0.221233
0.212511
0.204317
0.196609
0.189349
0.182505
0.176045
0.169941
0.164167
0.158699
0.153517
0.148599
0.143927
0.139485
0.135257
0.131229
0.127387
0.123718
0.120211
0.116856
0.113642
0.11056
0.107602
0.104759
0.102023
0.0993872
0.096845
0.0943901
0.0920163
0.0897184
0.087491
0.0853296
0.0832297
0.0811876
0.0791998
0.0772632
0.0753755
0.0735346
0.0717388
0.0699873
0.0682793
0.0666147
0.0649938
0.0634172
0.0618857
0.0604003
0.0589623
0.0575728
0.0562331
0.0549443
0.0537073
0.0525228
0.0513912
0.0503127
0.0492872
0.0483146
0.0473943
0.0465255
0.0457076
0.0449396
0.0442204
0.0435492
0.0429251
0.0423474
0.0418153
0.0413286
0.0408873
0.0404917
0.0401427
0.0398419
0.0395914
0.0393946
0.0392562
0.0391825
0.961693
0.892187
0.829088
0.771731
0.719526
0.671945
0.628522
0.588838
0.552522
0.519242
0.488702
0.460637
0.434811
0.411011
0.38905
0.368756
0.349977
0.332576
0.316431
0.301431
0.287476
0.274477
0.262352
0.251029
0.24044
0.230527
0.221234
0.212513
0.204319
0.19661
0.189351
0.182507
0.176046
0.169942
0.164169
0.158701
0.153519
0.148601
0.14393
0.139488
0.13526
0.131232
0.127389
0.123721
0.120214
0.116859
0.113646
0.110564
0.107606
0.104763
0.102027
0.0993921
0.0968503
0.0943958
0.0920225
0.089725
0.0874982
0.0853373
0.0832381
0.0811967
0.0792095
0.0772737
0.0753867
0.0735464
0.0717514
0.0700006
0.0682933
0.0666294
0.0650091
0.063433
0.0619019
0.0604169
0.0589792
0.05759
0.0562504
0.0549616
0.0537244
0.0525397
0.0514077
0.0503289
0.049303
0.0483298
0.0474089
0.0465396
0.0457211
0.0449524
0.0442326
0.0435609
0.0429362
0.0423578
0.0418252
0.041338
0.0408962
0.0405002
0.0401508
0.0398496
0.0395988
0.0394018
0.0392633
0.0391895
0.961693
0.892187
0.829088
0.771732
0.719526
0.671946
0.628522
0.588839
0.552523
0.519243
0.488703
0.460638
0.434812
0.411013
0.389051
0.368757
0.349978
0.332578
0.316433
0.301433
0.287478
0.274479
0.262354
0.25103
0.240442
0.230528
0.221236
0.212515
0.204321
0.196612
0.189353
0.182509
0.176049
0.169945
0.164171
0.158704
0.153521
0.148603
0.143932
0.139491
0.135263
0.131235
0.127393
0.123724
0.120218
0.116863
0.11365
0.110569
0.107611
0.104768
0.102033
0.099398
0.0968567
0.0944027
0.09203
0.0897331
0.0875069
0.0853467
0.0832483
0.0812076
0.0792212
0.0772862
0.0754001
0.0735607
0.0717666
0.0700166
0.0683101
0.0666469
0.0650273
0.0634519
0.0619213
0.0604368
0.0589994
0.0576104
0.0562709
0.0549821
0.0537448
0.0525598
0.0514275
0.0503482
0.0493218
0.048348
0.0474265
0.0465565
0.0457372
0.0449678
0.0442474
0.0435748
0.0429494
0.0423704
0.0418372
0.0413494
0.040907
0.0405105
0.0401606
0.039859
0.0396079
0.0394106
0.0392719
0.0391979
0.961693
0.892187
0.829088
0.771732
0.719526
0.671946
0.628523
0.588839
0.552524
0.519244
0.488704
0.460639
0.434813
0.411014
0.389052
0.368758
0.34998
0.332579
0.316434
0.301434
0.28748
0.27448
0.262356
0.251032
0.240444
0.23053
0.221238
0.212517
0.204323
0.196615
0.189355
0.182511
0.176051
0.169947
0.164174
0.158706
0.153524
0.148606
0.143935
0.139494
0.135266
0.131238
0.127397
0.123728
0.120222
0.116868
0.113655
0.110574
0.107616
0.104774
0.102039
0.099405
0.0968642
0.0944108
0.0920387
0.0897425
0.0875171
0.0853577
0.08326
0.0812202
0.0792348
0.0773007
0.0754156
0.0735772
0.071784
0.070035
0.0683294
0.0666671
0.0650483
0.0634736
0.0619437
0.0604596
0.0590226
0.0576339
0.0562945
0.0550057
0.0537682
0.0525829
0.0514502
0.0503704
0.0493434
0.048369
0.0474467
0.0465759
0.0457559
0.0449857
0.0442644
0.043591
0.0429648
0.042385
0.041851
0.0413626
0.0409195
0.0405224
0.040172
0.0398699
0.0396184
0.0394209
0.0392819
0.0392078
0.961693
0.892187
0.829088
0.771732
0.719527
0.671947
0.628523
0.58884
0.552524
0.519245
0.488705
0.46064
0.434814
0.411015
0.389054
0.36876
0.349981
0.332581
0.316436
0.301436
0.287482
0.274482
0.262358
0.251034
0.240446
0.230533
0.22124
0.212519
0.204325
0.196617
0.189358
0.182514
0.176054
0.16995
0.164177
0.158709
0.153527
0.14861
0.143939
0.139498
0.13527
0.131243
0.127401
0.123733
0.120227
0.116873
0.11366
0.11058
0.107623
0.104781
0.102047
0.0994129
0.0968727
0.0944199
0.0920486
0.0897531
0.0875285
0.08537
0.0832733
0.0812344
0.07925
0.0773171
0.075433
0.0735957
0.0718036
0.0700556
0.0683511
0.0666897
0.0650718
0.0634978
0.0619686
0.0604851
0.0590486
0.0576601
0.0563208
0.055032
0.0537944
0.0526087
0.0514756
0.0503952
0.0493675
0.0483924
0.0474693
0.0465977
0.0457768
0.0450057
0.0442834
0.0436092
0.0429821
0.0424015
0.0418667
0.0413774
0.0409337
0.0405359
0.0401849
0.0398823
0.0396304
0.0394325
0.0392932
0.0392189
0.961693
0.892187
0.829088
0.771732
0.719527
0.671947
0.628524
0.588841
0.552525
0.519246
0.488706
0.460642
0.434816
0.411017
0.389055
0.368761
0.349983
0.332583
0.316438
0.301438
0.287484
0.274485
0.26236
0.251037
0.240448
0.230535
0.221243
0.212522
0.204328
0.19662
0.189361
0.182517
0.176057
0.169953
0.16418
0.158713
0.153531
0.148614
0.143943
0.139502
0.135275
0.131247
0.127406
0.123738
0.120233
0.116879
0.113667
0.110587
0.10763
0.104789
0.102055
0.0994217
0.0968822
0.0944301
0.0920595
0.0897649
0.0875412
0.0853836
0.0832879
0.0812501
0.0792669
0.077335
0.0754521
0.073616
0.0718251
0.0700782
0.0683748
0.0667145
0.0650976
0.0635245
0.0619959
0.0605131
0.0590769
0.0576887
0.0563496
0.0550607
0.0538229
0.052637
0.0515034
0.0504224
0.049394
0.048418
0.0474941
0.0466216
0.0457997
0.0450276
0.0443044
0.0436292
0.0430012
0.0424196
0.0418839
0.0413938
0.0409493
0.0405508
0.0401992
0.039896
0.0396436
0.0394453
0.0393058
0.0392313
0.961693
0.892187
0.829088
0.771732
0.719527
0.671947
0.628524
0.588841
0.552526
0.519247
0.488707
0.460643
0.434817
0.411018
0.389057
0.368763
0.349985
0.332585
0.31644
0.30144
0.287486
0.274487
0.262362
0.251039
0.240451
0.230538
0.221245
0.212525
0.204331
0.196623
0.189364
0.18252
0.17606
0.169957
0.164184
0.158717
0.153535
0.148618
0.143947
0.139507
0.13528
0.131252
0.127411
0.123744
0.120239
0.116885
0.113674
0.110594
0.107638
0.104797
0.102064
0.0994313
0.0968925
0.0944412
0.0920714
0.0897777
0.087555
0.0853984
0.0833038
0.0812672
0.0792851
0.0773545
0.0754728
0.073638
0.0718483
0.0701027
0.0684005
0.0667413
0.0651253
0.0635531
0.0620254
0.0605431
0.0591075
0.0577196
0.0563806
0.0550917
0.0538537
0.0526674
0.0515332
0.0504516
0.0494225
0.0484457
0.0475209
0.0466474
0.0458245
0.0450514
0.0443271
0.0436509
0.0430218
0.0424393
0.0419026
0.0414116
0.0409663
0.040567
0.0402147
0.0399109
0.039658
0.0394593
0.0393194
0.0392448
0.961693
0.892187
0.829088
0.771732
0.719527
0.671947
0.628525
0.588842
0.552526
0.519247
0.488708
0.460644
0.434818
0.411019
0.389058
0.368765
0.349986
0.332586
0.316442
0.301442
0.287488
0.274489
0.262365
0.251041
0.240453
0.23054
0.221248
0.212528
0.204334
0.196626
0.189367
0.182523
0.176064
0.169961
0.164187
0.158721
0.153539
0.148622
0.143952
0.139511
0.135285
0.131258
0.127417
0.12375
0.120245
0.116892
0.113681
0.110602
0.107646
0.104806
0.102074
0.0994417
0.0969037
0.0944531
0.0920843
0.0897915
0.0875698
0.0854144
0.0833209
0.0812855
0.0793046
0.0773753
0.075495
0.0736615
0.0718731
0.0701288
0.0684278
0.0667698
0.0651549
0.0635836
0.0620567
0.0605751
0.05914
0.0577524
0.0564136
0.0551246
0.0538864
0.0526997
0.051565
0.0504827
0.0494528
0.0484752
0.0475494
0.0466748
0.0458509
0.0450767
0.0443514
0.043674
0.0430439
0.0424603
0.0419226
0.0414307
0.0409845
0.0405844
0.0402313
0.0399269
0.0396734
0.0394742
0.0393341
0.0392592
0.961693
0.892187
0.829088
0.771732
0.719527
0.671948
0.628525
0.588842
0.552527
0.519248
0.488709
0.460645
0.434819
0.411021
0.38906
0.368766
0.349988
0.332588
0.316444
0.301444
0.28749
0.274491
0.262367
0.251044
0.240456
0.230543
0.221251
0.212531
0.204337
0.196629
0.189371
0.182527
0.176068
0.169964
0.164192
0.158725
0.153544
0.148627
0.143957
0.139517
0.13529
0.131264
0.127423
0.123757
0.120252
0.1169
0.113689
0.11061
0.107655
0.104816
0.102084
0.0994527
0.0969155
0.0944659
0.0920979
0.0898062
0.0875855
0.0854312
0.083339
0.0813048
0.0793253
0.0773974
0.0755184
0.0736863
0.0718993
0.0701563
0.0684566
0.0667998
0.0651861
0.0636158
0.0620897
0.0606088
0.0591741
0.0577869
0.0564482
0.0551592
0.0539208
0.0527337
0.0515985
0.0505155
0.0494848
0.0485062
0.0475794
0.0467038
0.0458787
0.0451034
0.0443769
0.0436985
0.0430672
0.0424825
0.0419438
0.0414509
0.0410037
0.0406028
0.0402489
0.0399438
0.0396897
0.0394901
0.0393496
0.0392746
0.961693
0.892187
0.829088
0.771732
0.719527
0.671948
0.628525
0.588842
0.552527
0.519249
0.488709
0.460646
0.43482
0.411022
0.389061
0.368768
0.34999
0.33259
0.316446
0.301446
0.287492
0.274494
0.262369
0.251046
0.240459
0.230546
0.221254
0.212534
0.20434
0.196633
0.189374
0.182531
0.176072
0.169969
0.164196
0.15873
0.153548
0.148632
0.143962
0.139522
0.135296
0.13127
0.12743
0.123764
0.12026
0.116908
0.113697
0.110619
0.107665
0.104826
0.102095
0.0994644
0.096928
0.0944793
0.0921123
0.0898216
0.0876021
0.085449
0.083358
0.0813251
0.079347
0.0774204
0.0755429
0.0737122
0.0719267
0.0701851
0.0684867
0.0668312
0.0652186
0.0636493
0.0621241
0.0606439
0.0592098
0.0578229
0.0564844
0.0551953
0.0539566
0.0527691
0.0516334
0.0505497
0.0495181
0.0485386
0.0476108
0.0467341
0.0459079
0.0451313
0.0444037
0.043724
0.0430916
0.0425058
0.041966
0.041472
0.0410239
0.0406221
0.0402674
0.0399616
0.0397069
0.0395068
0.039366
0.0392907
0.961693
0.892187
0.829088
0.771732
0.719527
0.671948
0.628525
0.588843
0.552528
0.519249
0.48871
0.460646
0.434821
0.411023
0.389062
0.368769
0.349991
0.332592
0.316448
0.301448
0.287494
0.274496
0.262372
0.251049
0.240461
0.230549
0.221257
0.212537
0.204343
0.196636
0.189378
0.182535
0.176076
0.169973
0.1642
0.158734
0.153553
0.148637
0.143968
0.139528
0.135302
0.131276
0.127437
0.123771
0.120268
0.116916
0.113706
0.110629
0.107675
0.104837
0.102106
0.0994766
0.0969411
0.0944933
0.0921274
0.0898378
0.0876194
0.0854675
0.0833778
0.0813463
0.0793695
0.0774444
0.0755684
0.0737392
0.0719551
0.0702149
0.0685179
0.0668637
0.0652522
0.063684
0.0621597
0.0606803
0.0592467
0.0578601
0.0565218
0.0552326
0.0539938
0.0528058
0.0516695
0.0505851
0.0495527
0.0485722
0.0476433
0.0467655
0.0459381
0.0451603
0.0444315
0.0437506
0.043117
0.04253
0.0419891
0.041494
0.0410449
0.0406421
0.0402867
0.0399801
0.0397248
0.0395242
0.039383
0.0393075
0.961693
0.892187
0.829088
0.771732
0.719527
0.671948
0.628525
0.588843
0.552528
0.51925
0.488711
0.460647
0.434822
0.411024
0.389063
0.36877
0.349993
0.332593
0.316449
0.30145
0.287496
0.274498
0.262374
0.251052
0.240464
0.230552
0.22126
0.21254
0.204347
0.19664
0.189382
0.182539
0.17608
0.169977
0.164205
0.158739
0.153558
0.148643
0.143974
0.139534
0.135309
0.131283
0.127444
0.123779
0.120276
0.116925
0.113715
0.110638
0.107685
0.104848
0.102118
0.0994893
0.0969547
0.0945079
0.092143
0.0898545
0.0876373
0.0854866
0.0833982
0.0813682
0.0793928
0.0774692
0.0755946
0.0737669
0.0719844
0.0702457
0.06855
0.0668971
0.0652869
0.0637197
0.0621963
0.0607176
0.0592846
0.0578984
0.0565602
0.055271
0.0540319
0.0528436
0.0517067
0.0506215
0.0495882
0.0486067
0.0476767
0.0467978
0.0459692
0.0451902
0.0444601
0.043778
0.0431431
0.0425549
0.0420129
0.0415168
0.0410666
0.0406629
0.0403066
0.0399992
0.0397433
0.0395422
0.0394006
0.0393249
0.961693
0.892187
0.829088
0.771732
0.719527
0.671948
0.628526
0.588843
0.552529
0.51925
0.488711
0.460648
0.434823
0.411025
0.389065
0.368772
0.349994
0.332595
0.316451
0.301452
0.287499
0.2745
0.262377
0.251054
0.240467
0.230555
0.221263
0.212543
0.20435
0.196643
0.189385
0.182543
0.176084
0.169982
0.16421
0.158744
0.153564
0.148648
0.143979
0.13954
0.135315
0.13129
0.127451
0.123786
0.120284
0.116933
0.113725
0.110648
0.107696
0.104859
0.10213
0.0995024
0.0969687
0.0945229
0.092159
0.0898717
0.0876557
0.0855063
0.0834193
0.0813906
0.0794168
0.0774946
0.0756216
0.0737954
0.0720143
0.0702771
0.0685829
0.0669313
0.0653223
0.0637562
0.0622338
0.0607558
0.0593233
0.0579375
0.0565995
0.0553103
0.0540709
0.0528822
0.0517446
0.0506587
0.0496246
0.0486421
0.047711
0.0468309
0.046001
0.0452208
0.0444894
0.043806
0.04317
0.0425806
0.0420373
0.0415401
0.0410889
0.0406842
0.040327
0.0400189
0.0397623
0.0395606
0.0394187
0.0393428
0.961693
0.892187
0.829088
0.771732
0.719527
0.671948
0.628526
0.588843
0.552529
0.51925
0.488712
0.460648
0.434824
0.411026
0.389066
0.368773
0.349996
0.332596
0.316453
0.301454
0.287501
0.274503
0.262379
0.251057
0.24047
0.230557
0.221266
0.212547
0.204354
0.196647
0.189389
0.182547
0.176088
0.169986
0.164215
0.158749
0.153569
0.148654
0.143985
0.139547
0.135322
0.131297
0.127459
0.123794
0.120293
0.116943
0.113734
0.110659
0.107707
0.104871
0.102143
0.0995159
0.0969831
0.0945383
0.0921755
0.0898893
0.0876746
0.0855265
0.0834408
0.0814136
0.0794412
0.0775206
0.075649
0.0738244
0.0720449
0.0703092
0.0686164
0.0669661
0.0653583
0.0637934
0.0622718
0.0607946
0.0593627
0.0579773
0.0566394
0.0553502
0.0541106
0.0529214
0.0517833
0.0506966
0.0496616
0.0486781
0.0477459
0.0468646
0.0460335
0.045252
0.0445193
0.0438347
0.0431973
0.0426067
0.0420623
0.0415639
0.0411117
0.040706
0.0403479
0.040039
0.0397817
0.0395795
0.0394371
0.039361
0.961693
0.892187
0.829088
0.771732
0.719527
0.671948
0.628526
0.588843
0.552529
0.519251
0.488712
0.460649
0.434824
0.411027
0.389067
0.368774
0.349997
0.332598
0.316454
0.301456
0.287503
0.274505
0.262381
0.251059
0.240472
0.23056
0.221269
0.21255
0.204357
0.196651
0.189393
0.182551
0.176093
0.169991
0.164219
0.158755
0.153575
0.14866
0.143992
0.139553
0.135329
0.131305
0.127467
0.123803
0.120301
0.116952
0.113744
0.110669
0.107718
0.104883
0.102156
0.0995296
0.0969978
0.094554
0.0921923
0.0899073
0.0876937
0.085547
0.0834627
0.0814369
0.079466
0.0775469
0.0756769
0.0738538
0.0720758
0.0703416
0.0686503
0.0670013
0.0653948
0.0638309
0.0623104
0.0608339
0.0594026
0.0580175
0.0566798
0.0553905
0.0541507
0.0529611
0.0518224
0.050735
0.049699
0.0487145
0.0477812
0.0468987
0.0460664
0.0452837
0.0445497
0.0438637
0.0432251
0.0426332
0.0420876
0.0415881
0.0411348
0.0407281
0.0403691
0.0400594
0.0398014
0.0395987
0.0394559
0.0393796
0.961693
0.892187
0.829088
0.771732
0.719527
0.671948
0.628526
0.588844
0.552529
0.519251
0.488713
0.460649
0.434825
0.411028
0.389068
0.368775
0.349998
0.332599
0.316456
0.301458
0.287505
0.274507
0.262384
0.251062
0.240475
0.230563
0.221272
0.212553
0.204361
0.196654
0.189397
0.182555
0.176097
0.169996
0.164224
0.15876
0.15358
0.148666
0.143998
0.13956
0.135336
0.131312
0.127475
0.123811
0.12031
0.116961
0.113754
0.11068
0.10773
0.104895
0.102169
0.0995435
0.0970127
0.0945699
0.0922093
0.0899255
0.0877132
0.0855678
0.0834848
0.0814604
0.079491
0.0775735
0.0757051
0.0738835
0.0721071
0.0703743
0.0686844
0.0670369
0.0654316
0.0638688
0.0623492
0.0608735
0.0594427
0.058058
0.0567205
0.0554312
0.0541911
0.0530011
0.0518618
0.0507736
0.0497368
0.0487513
0.0478169
0.0469332
0.0460996
0.0453156
0.0445803
0.0438931
0.0432532
0.04266
0.0421132
0.0416126
0.0411582
0.0407505
0.0403906
0.0400801
0.0398214
0.0396181
0.0394749
0.0393983
0.961693
0.892187
0.829088
0.771732
0.719527
0.671948
0.628526
0.588844
0.552529
0.519251
0.488713
0.46065
0.434826
0.411028
0.389068
0.368776
0.349999
0.332601
0.316458
0.301459
0.287506
0.274509
0.262386
0.251064
0.240477
0.230566
0.221275
0.212556
0.204364
0.196658
0.189401
0.182559
0.176102
0.17
0.164229
0.158765
0.153586
0.148672
0.144004
0.139566
0.135343
0.13132
0.127482
0.12382
0.120319
0.116971
0.113764
0.110691
0.107741
0.104907
0.102182
0.0995576
0.0970277
0.094586
0.0922265
0.0899438
0.0877328
0.0855887
0.0835071
0.0814842
0.0795163
0.0776002
0.0757333
0.0739134
0.0721384
0.0704072
0.0687187
0.0670725
0.0654685
0.0639068
0.0623881
0.0609132
0.059483
0.0580987
0.0567614
0.055472
0.0542317
0.0530413
0.0519014
0.0508125
0.0497747
0.0487882
0.0478527
0.0469678
0.046133
0.0453477
0.0446111
0.0439226
0.0432814
0.042687
0.042139
0.0416372
0.0411817
0.040773
0.0404122
0.0401009
0.0398415
0.0396376
0.039494
0.0394172
0.961693
0.892187
0.829088
0.771732
0.719527
0.671948
0.628526
0.588844
0.55253
0.519251
0.488713
0.46065
0.434826
0.411029
0.389069
0.368777
0.35
0.332602
0.316459
0.301461
0.287508
0.274511
0.262388
0.251066
0.24048
0.230569
0.221278
0.21256
0.204368
0.196662
0.189405
0.182563
0.176106
0.170005
0.164234
0.15877
0.153591
0.148678
0.14401
0.139573
0.13535
0.131327
0.12749
0.123828
0.120328
0.11698
0.113775
0.110702
0.107753
0.10492
0.102195
0.0995718
0.0970429
0.0946022
0.0922438
0.0899623
0.0877525
0.0856097
0.0835295
0.081508
0.0795415
0.077627
0.0757617
0.0739432
0.0721699
0.0704401
0.0687531
0.0671082
0.0655053
0.0639448
0.062427
0.0609529
0.0595233
0.0581394
0.0568022
0.0555128
0.0542723
0.0530815
0.051941
0.0508513
0.0498127
0.0488252
0.0478885
0.0470025
0.0461665
0.0453799
0.044642
0.0439522
0.0433097
0.0427141
0.0421649
0.0416619
0.0412053
0.0407956
0.0404339
0.0401217
0.0398617
0.0396572
0.0395132
0.0394362
0.961693
0.892187
0.829088
0.771732
0.719527
0.671948
0.628526
0.588844
0.55253
0.519252
0.488714
0.460651
0.434827
0.41103
0.38907
0.368778
0.350001
0.332603
0.31646
0.301463
0.28751
0.274513
0.26239
0.251069
0.240483
0.230571
0.221281
0.212563
0.204371
0.196665
0.189409
0.182567
0.17611
0.17001
0.164239
0.158776
0.153597
0.148683
0.144017
0.13958
0.135357
0.131335
0.127499
0.123837
0.120337
0.11699
0.113785
0.110713
0.107765
0.104932
0.102209
0.099586
0.0970581
0.0946184
0.0922611
0.0899807
0.0877722
0.0856307
0.0835519
0.0815318
0.0795668
0.0776538
0.07579
0.073973
0.0722012
0.0704729
0.0687873
0.0671437
0.0655421
0.0639826
0.0624658
0.0609924
0.0595634
0.0581799
0.0568429
0.0555535
0.0543128
0.0531215
0.0519804
0.05089
0.0498505
0.048862
0.0479243
0.0470371
0.0461998
0.045412
0.0446728
0.0439817
0.043338
0.0427411
0.0421907
0.0416866
0.0412289
0.0408182
0.0404555
0.0401426
0.0398818
0.0396768
0.0395324
0.0394551
0.961693
0.892187
0.829088
0.771732
0.719527
0.671948
0.628526
0.588844
0.55253
0.519252
0.488714
0.460651
0.434827
0.41103
0.389071
0.368779
0.350002
0.332604
0.316462
0.301464
0.287512
0.274515
0.262392
0.251071
0.240485
0.230574
0.221284
0.212566
0.204374
0.196669
0.189412
0.182571
0.176115
0.170014
0.164244
0.158781
0.153602
0.148689
0.144023
0.139587
0.135364
0.131342
0.127507
0.123845
0.120346
0.117
0.113795
0.110724
0.107776
0.104945
0.102222
0.0996002
0.0970732
0.0946345
0.0922784
0.0899991
0.0877918
0.0856516
0.0835741
0.0815554
0.0795919
0.0776804
0.0758181
0.0740027
0.0722323
0.0705055
0.0688212
0.067179
0.0655786
0.0640202
0.0625043
0.0610317
0.0596032
0.05822
0.0568832
0.0555938
0.0543529
0.0531613
0.0520196
0.0509285
0.0498881
0.0488986
0.0479598
0.0470714
0.046233
0.0454439
0.0447035
0.0440111
0.0433661
0.042768
0.0422164
0.0417111
0.0412524
0.0408407
0.0404771
0.0401633
0.0399019
0.0396963
0.0395515
0.039474
0.961693
0.892187
0.829088
0.771732
0.719527
0.671948
0.628526
0.588844
0.55253
0.519252
0.488714
0.460651
0.434828
0.411031
0.389071
0.36878
0.350003
0.332605
0.316463
0.301465
0.287513
0.274516
0.262394
0.251073
0.240487
0.230577
0.221287
0.212569
0.204377
0.196672
0.189416
0.182575
0.176119
0.170019
0.164249
0.158786
0.153608
0.148695
0.144029
0.139593
0.135371
0.13135
0.127515
0.123854
0.120355
0.117009
0.113806
0.110735
0.107788
0.104957
0.102235
0.0996143
0.0970883
0.0946506
0.0922955
0.0900174
0.0878113
0.0856724
0.0835962
0.0815789
0.0796168
0.0777067
0.0758459
0.074032
0.0722631
0.0705377
0.0688548
0.0672139
0.0656147
0.0640573
0.0625423
0.0610705
0.0596426
0.0582598
0.0569232
0.0556338
0.0543926
0.0532006
0.0520584
0.0509666
0.0499254
0.0489349
0.047995
0.0471055
0.0462659
0.0454755
0.0447339
0.0440402
0.043394
0.0427947
0.0422419
0.0417355
0.0412757
0.040863
0.0404985
0.0401839
0.0399218
0.0397156
0.0395704
0.0394927
0.961693
0.892187
0.829088
0.771732
0.719527
0.671948
0.628526
0.588844
0.55253
0.519252
0.488714
0.460652
0.434828
0.411031
0.389072
0.368781
0.350004
0.332606
0.316464
0.301467
0.287515
0.274518
0.262396
0.251075
0.24049
0.230579
0.22129
0.212572
0.204381
0.196676
0.18942
0.182579
0.176123
0.170023
0.164254
0.158791
0.153613
0.148701
0.144035
0.1396
0.135378
0.131357
0.127522
0.123862
0.120364
0.117019
0.113816
0.110745
0.107799
0.10497
0.102248
0.0996283
0.0971032
0.0946665
0.0923125
0.0900355
0.0878306
0.0856929
0.0836181
0.0816021
0.0796414
0.0777328
0.0758734
0.0740609
0.0722934
0.0705695
0.068888
0.0672483
0.0656502
0.064094
0.0625799
0.0611087
0.0596814
0.058299
0.0569626
0.0556732
0.0544318
0.0532394
0.0520967
0.0510041
0.0499621
0.0489707
0.0480298
0.0471392
0.0462983
0.0455068
0.0447639
0.044069
0.0434216
0.0428211
0.0422671
0.0417596
0.0412987
0.0408851
0.0405197
0.0402043
0.0399415
0.0397348
0.0395891
0.0395112
0.961693
0.892187
0.829088
0.771732
0.719527
0.671948
0.628526
0.588844
0.55253
0.519252
0.488714
0.460652
0.434828
0.411032
0.389073
0.368781
0.350005
0.332607
0.316465
0.301468
0.287516
0.27452
0.262398
0.251077
0.240492
0.230582
0.221292
0.212575
0.204384
0.196679
0.189423
0.182583
0.176127
0.170028
0.164258
0.158796
0.153619
0.148707
0.144041
0.139606
0.135385
0.131364
0.12753
0.12387
0.120373
0.117028
0.113826
0.110756
0.107811
0.104982
0.102261
0.0996421
0.0971179
0.0946822
0.0923292
0.0900534
0.0878496
0.0857131
0.0836396
0.0816249
0.0796656
0.0777584
0.0759004
0.0740894
0.0723233
0.0706007
0.0689206
0.0672821
0.0656852
0.06413
0.0626168
0.0611463
0.0597196
0.0583375
0.0570013
0.0557119
0.0544703
0.0532776
0.0521343
0.0510411
0.0499983
0.0490059
0.048064
0.0471723
0.0463303
0.0455376
0.0447935
0.0440974
0.0434487
0.042847
0.042292
0.0417834
0.0413215
0.0409068
0.0405406
0.0402244
0.0399609
0.0397536
0.0396076
0.0395294
0.961693
0.892187
0.829088
0.771732
0.719527
0.671948
0.628526
0.588844
0.55253
0.519252
0.488715
0.460652
0.434829
0.411032
0.389073
0.368782
0.350006
0.332608
0.316466
0.301469
0.287518
0.274521
0.2624
0.251079
0.240494
0.230584
0.221295
0.212577
0.204387
0.196682
0.189427
0.182587
0.176131
0.170032
0.164263
0.158801
0.153624
0.148712
0.144047
0.139613
0.135392
0.131372
0.127538
0.123879
0.120382
0.117038
0.113836
0.110767
0.107822
0.104994
0.102274
0.0996557
0.0971324
0.0946976
0.0923456
0.0900709
0.0878683
0.085733
0.0836607
0.0816474
0.0796894
0.0777835
0.075927
0.0741173
0.0723526
0.0706314
0.0689525
0.0673153
0.0657195
0.0641652
0.0626529
0.0611832
0.059757
0.0583753
0.0570392
0.0557498
0.0545081
0.053315
0.0521712
0.0510774
0.0500337
0.0490405
0.0480976
0.0472048
0.0463617
0.0455678
0.0448225
0.0441253
0.0434754
0.0428726
0.0423164
0.0418067
0.0413438
0.0409282
0.0405611
0.0402441
0.0399799
0.0397721
0.0396257
0.0395473
0.961693
0.892187
0.829088
0.771731
0.719527
0.671948
0.628526
0.588844
0.55253
0.519253
0.488715
0.460653
0.434829
0.411033
0.389074
0.368783
0.350007
0.332609
0.316467
0.301471
0.287519
0.274523
0.262401
0.251081
0.240496
0.230586
0.221297
0.21258
0.20439
0.196685
0.18943
0.182591
0.176135
0.170036
0.164268
0.158806
0.153629
0.148718
0.144053
0.139619
0.135399
0.131379
0.127545
0.123887
0.120391
0.117047
0.113845
0.110777
0.107833
0.105005
0.102286
0.099669
0.0971465
0.0947128
0.0923618
0.0900881
0.0878865
0.0857524
0.0836813
0.0816693
0.0797126
0.0778081
0.0759529
0.0741446
0.0723812
0.0706613
0.0689837
0.0673477
0.065753
0.0641997
0.0626882
0.0612192
0.0597935
0.0584122
0.0570763
0.0557869
0.054545
0.0533516
0.0522073
0.0511128
0.0500684
0.0490743
0.0481305
0.0472366
0.0463924
0.0455974
0.044851
0.0441525
0.0435015
0.0428976
0.0423402
0.0418295
0.0413656
0.0409491
0.0405811
0.0402634
0.0399986
0.0397903
0.0396434
0.0395648
0.961693
0.892187
0.829088
0.771731
0.719527
0.671948
0.628526
0.588844
0.55253
0.519253
0.488715
0.460653
0.434829
0.411033
0.389074
0.368783
0.350007
0.33261
0.316468
0.301472
0.28752
0.274524
0.262403
0.251083
0.240498
0.230588
0.2213
0.212583
0.204392
0.196688
0.189434
0.182594
0.176139
0.17004
0.164272
0.15881
0.153634
0.148723
0.144059
0.139625
0.135405
0.131386
0.127553
0.123894
0.120399
0.117056
0.113855
0.110787
0.107844
0.105017
0.102299
0.099682
0.0971604
0.0947275
0.0923775
0.0901048
0.0879044
0.0857714
0.0837015
0.0816907
0.0797352
0.077832
0.0759781
0.0741712
0.0724091
0.0706905
0.0690141
0.0673792
0.0657856
0.0642332
0.0627226
0.0612542
0.0598291
0.0584481
0.0571124
0.055823
0.054581
0.0533872
0.0522425
0.0511474
0.0501022
0.0491073
0.0481625
0.0472676
0.0464224
0.0456262
0.0448787
0.0441791
0.043527
0.0429219
0.0423636
0.0418518
0.0413869
0.0409695
0.0406007
0.0402823
0.0400168
0.0398079
0.0396607
0.0395819
0.961693
0.892187
0.829088
0.771731
0.719527
0.671948
0.628526
0.588844
0.55253
0.519253
0.488715
0.460653
0.43483
0.411033
0.389075
0.368784
0.350008
0.332611
0.316469
0.301473
0.287521
0.274526
0.262405
0.251085
0.2405
0.23059
0.221302
0.212585
0.204395
0.196691
0.189437
0.182598
0.176143
0.170044
0.164276
0.158815
0.153639
0.148728
0.144065
0.139631
0.135412
0.131392
0.12756
0.123902
0.120407
0.117064
0.113864
0.110797
0.107854
0.105028
0.10231
0.0996946
0.0971739
0.0947419
0.0923928
0.0901211
0.0879217
0.0857898
0.0837211
0.0817114
0.0797572
0.0778553
0.0760026
0.0741969
0.0724362
0.0707187
0.0690435
0.0674098
0.0658172
0.0642658
0.0627559
0.0612882
0.0598636
0.058483
0.0571474
0.0558581
0.0546159
0.0534218
0.0522766
0.0511809
0.0501351
0.0491393
0.0481936
0.0472977
0.0464515
0.0456543
0.0449056
0.044205
0.0435518
0.0429456
0.0423862
0.0418735
0.0414077
0.0409894
0.0406198
0.0403006
0.0400345
0.0398251
0.0396775
0.0395985
0.961693
0.892187
0.829088
0.771731
0.719527
0.671948
0.628526
0.588844
0.55253
0.519253
0.488715
0.460653
0.43483
0.411034
0.389075
0.368784
0.350009
0.332612
0.31647
0.301474
0.287523
0.274527
0.262406
0.251086
0.240502
0.230592
0.221304
0.212588
0.204398
0.196694
0.18944
0.182601
0.176146
0.170048
0.16428
0.158819
0.153644
0.148733
0.14407
0.139637
0.135418
0.131399
0.127567
0.123909
0.120415
0.117073
0.113873
0.110806
0.107864
0.105039
0.102322
0.0997069
0.097187
0.0947558
0.0924076
0.0901369
0.0879385
0.0858077
0.08374
0.0817315
0.0797785
0.0778777
0.0760264
0.0742219
0.0724623
0.0707461
0.069072
0.0674393
0.0658477
0.0642972
0.0627881
0.0613211
0.0598969
0.0585167
0.0571813
0.055892
0.0546496
0.0534553
0.0523096
0.0512134
0.0501668
0.0491703
0.0482237
0.0473269
0.0464796
0.0456814
0.0449317
0.04423
0.0435758
0.0429686
0.0424082
0.0418945
0.0414278
0.0410086
0.0406382
0.0403184
0.0400516
0.0398418
0.0396938
0.0396146
0.961693
0.892187
0.829088
0.771731
0.719527
0.671948
0.628526
0.588844
0.55253
0.519253
0.488715
0.460653
0.43483
0.411034
0.389076
0.368785
0.350009
0.332613
0.316471
0.301475
0.287524
0.274528
0.262407
0.251088
0.240504
0.230594