/*--------------------------------*- C++ -*----------------------------------*\
  =========                 |
  \\      /  F ield         | OpenFOAM: The Open Source CFD Toolbox
   \\    /   O peration     | Website:  https://openfoam.org
    \\  /    A nd           | Version:  11
     \\/     M anipulation  |
\*---------------------------------------------------------------------------*/
FoamFile
{
    format      ascii;
    class       volScalarField;
    location    "592";
    object      omega;
}
// * * * * * * * * * * * * * * * * * * * * * * * * * * * * * * * * * * * * * //

dimensions      [0 0 -1 0 0 0 0];

internalField   nonuniform List<scalar> 
10000
(
0.961692
0.892185
0.829085
0.771728
0.719523
0.671944
0.628523
0.588843
0.552531
0.519256
0.488722
0.460665
0.434847
0.411057
0.389105
0.368822
0.350056
0.332669
0.316538
0.301554
0.287615
0.274634
0.262528
0.251224
0.240657
0.230766
0.221497
0.212801
0.204633
0.196953
0.189723
0.18291
0.176483
0.170414
0.164677
0.159248
0.154107
0.149234
0.144609
0.140217
0.136043
0.132071
0.128289
0.124686
0.121249
0.117969
0.114835
0.11184
0.108975
0.106232
0.103605
0.101086
0.0986693
0.0963497
0.0941216
0.09198
0.0899202
0.0879377
0.0860286
0.084189
0.0824153
0.080704
0.079052
0.0774563
0.075914
0.0744224
0.0729789
0.0715813
0.0702271
0.0689143
0.0676407
0.0664044
0.0652035
0.0640363
0.062901
0.0617961
0.0607199
0.0596711
0.0586482
0.05765
0.0566753
0.0557229
0.0547919
0.0538815
0.0529909
0.0521197
0.0512677
0.0504349
0.0496219
0.0488297
0.04806
0.0473155
0.0465999
0.0459186
0.0452789
0.0446912
0.0441692
0.0437318
0.0434043
0.0432203
0.961692
0.892185
0.829085
0.771728
0.719523
0.671944
0.628523
0.588843
0.552531
0.519256
0.488722
0.460665
0.434847
0.411057
0.389105
0.368823
0.350056
0.332669
0.316538
0.301554
0.287615
0.274634
0.262528
0.251224
0.240657
0.230766
0.221497
0.212801
0.204633
0.196953
0.189723
0.18291
0.176483
0.170414
0.164677
0.159249
0.154108
0.149234
0.144609
0.140218
0.136043
0.132071
0.12829
0.124686
0.121249
0.117969
0.114836
0.11184
0.108975
0.106232
0.103605
0.101086
0.0986696
0.0963501
0.094122
0.0919803
0.0899205
0.0879381
0.086029
0.0841894
0.0824157
0.0807045
0.0790525
0.0774568
0.0759144
0.0744229
0.0729795
0.0715818
0.0702277
0.0689149
0.0676413
0.066405
0.0652042
0.064037
0.0629017
0.0617968
0.0607207
0.0596719
0.0586491
0.0576509
0.0566762
0.0557239
0.0547929
0.0538825
0.052992
0.0521208
0.0512688
0.0504361
0.0496231
0.048831
0.0480613
0.0473168
0.0466012
0.0459199
0.0452802
0.0446925
0.0441705
0.0437331
0.0434056
0.0432215
0.961692
0.892185
0.829085
0.771728
0.719523
0.671944
0.628523
0.588843
0.552531
0.519256
0.488723
0.460665
0.434847
0.411057
0.389105
0.368823
0.350056
0.332669
0.316538
0.301554
0.287616
0.274634
0.262528
0.251224
0.240657
0.230766
0.221497
0.212801
0.204633
0.196953
0.189723
0.18291
0.176483
0.170414
0.164677
0.159249
0.154108
0.149234
0.14461
0.140218
0.136043
0.132072
0.12829
0.124686
0.12125
0.117969
0.114836
0.111841
0.108976
0.106233
0.103605
0.101087
0.0986702
0.0963507
0.0941226
0.091981
0.0899212
0.0879388
0.0860298
0.0841902
0.0824165
0.0807053
0.0790533
0.0774577
0.0759154
0.0744238
0.0729805
0.0715829
0.0702288
0.068916
0.0676425
0.0664063
0.0652055
0.0640383
0.0629031
0.0617982
0.0607222
0.0596734
0.0586507
0.0576526
0.0566779
0.0557257
0.0547948
0.0538845
0.052994
0.0521229
0.051271
0.0504383
0.0496254
0.0488333
0.0480637
0.0473192
0.0466037
0.0459224
0.0452827
0.044695
0.0441729
0.0437355
0.0434081
0.043224
0.961692
0.892185
0.829085
0.771728
0.719523
0.671944
0.628523
0.588843
0.552531
0.519256
0.488723
0.460665
0.434847
0.411057
0.389106
0.368823
0.350056
0.332669
0.316539
0.301554
0.287616
0.274634
0.262528
0.251224
0.240657
0.230766
0.221497
0.212801
0.204634
0.196953
0.189723
0.18291
0.176483
0.170414
0.164677
0.159249
0.154108
0.149235
0.14461
0.140218
0.136044
0.132072
0.128291
0.124687
0.12125
0.11797
0.114837
0.111842
0.108977
0.106234
0.103606
0.101087
0.0986711
0.0963516
0.0941236
0.091982
0.0899222
0.0879399
0.0860309
0.0841913
0.0824177
0.0807065
0.0790546
0.077459
0.0759167
0.0744252
0.0729819
0.0715844
0.0702304
0.0689176
0.0676442
0.066408
0.0652073
0.0640402
0.0629051
0.0618003
0.0607243
0.0596757
0.058653
0.057655
0.0566805
0.0557283
0.0547975
0.0538873
0.0529969
0.0521259
0.0512741
0.0504415
0.0496287
0.0488367
0.0480672
0.0473228
0.0466072
0.045926
0.0452864
0.0446986
0.0441766
0.0437391
0.0434117
0.0432276
0.961692
0.892185
0.829085
0.771728
0.719523
0.671944
0.628523
0.588843
0.552531
0.519257
0.488723
0.460665
0.434847
0.411057
0.389106
0.368823
0.350056
0.332669
0.316539
0.301554
0.287616
0.274634
0.262528
0.251225
0.240657
0.230767
0.221498
0.212802
0.204634
0.196954
0.189724
0.182911
0.176484
0.170415
0.164678
0.15925
0.154109
0.149235
0.144611
0.140219
0.136045
0.132073
0.128291
0.124688
0.121251
0.117971
0.114838
0.111843
0.108978
0.106235
0.103607
0.101089
0.0986722
0.0963528
0.0941248
0.0919833
0.0899236
0.0879413
0.0860323
0.0841928
0.0824192
0.0807081
0.0790563
0.0774607
0.0759185
0.0744271
0.0729838
0.0715864
0.0702324
0.0689198
0.0676464
0.0664103
0.0652097
0.0640427
0.0629077
0.061803
0.0607271
0.0596786
0.058656
0.0576581
0.0566837
0.0557317
0.054801
0.0538909
0.0530007
0.0521299
0.0512782
0.0504457
0.049633
0.0488411
0.0480717
0.0473273
0.0466119
0.0459307
0.0452911
0.0447034
0.0441813
0.0437438
0.0434163
0.0432322
0.961692
0.892185
0.829085
0.771728
0.719523
0.671944
0.628523
0.588843
0.552531
0.519257
0.488723
0.460665
0.434847
0.411057
0.389106
0.368823
0.350057
0.33267
0.316539
0.301555
0.287616
0.274635
0.262529
0.251225
0.240658
0.230767
0.221498
0.212802
0.204634
0.196954
0.189724
0.182912
0.176485
0.170416
0.164679
0.159251
0.15411
0.149236
0.144612
0.14022
0.136045
0.132074
0.128292
0.124689
0.121252
0.117972
0.114839
0.111844
0.108979
0.106236
0.103609
0.10109
0.0986736
0.0963542
0.0941263
0.0919848
0.0899252
0.0879429
0.086034
0.0841946
0.0824211
0.08071
0.0790583
0.0774628
0.0759207
0.0744293
0.0729862
0.0715888
0.0702349
0.0689224
0.0676491
0.0664131
0.0652126
0.0640457
0.0629108
0.0618062
0.0607305
0.0596821
0.0586597
0.0576619
0.0566877
0.0557358
0.0548053
0.0538954
0.0530053
0.0521346
0.0512831
0.0504508
0.0496382
0.0488465
0.0480772
0.0473329
0.0466176
0.0459364
0.0452968
0.0447091
0.044187
0.0437496
0.043422
0.0432379
0.961692
0.892185
0.829085
0.771728
0.719523
0.671944
0.628523
0.588843
0.552531
0.519257
0.488723
0.460665
0.434847
0.411058
0.389106
0.368823
0.350057
0.33267
0.316539
0.301555
0.287617
0.274635
0.262529
0.251226
0.240658
0.230767
0.221499
0.212803
0.204635
0.196955
0.189725
0.182912
0.176485
0.170416
0.164679
0.159251
0.15411
0.149237
0.144613
0.140221
0.136046
0.132075
0.128293
0.12469
0.121253
0.117973
0.11484
0.111845
0.10898
0.106237
0.10361
0.101091
0.0986753
0.0963559
0.0941281
0.0919867
0.0899271
0.0879449
0.0860361
0.0841967
0.0824233
0.0807123
0.0790606
0.0774652
0.0759232
0.0744319
0.0729889
0.0715916
0.0702378
0.0689254
0.0676522
0.0664164
0.065216
0.0640492
0.0629145
0.0618101
0.0607345
0.0596862
0.058664
0.0576664
0.0566923
0.0557406
0.0548103
0.0539006
0.0530107
0.0521402
0.0512888
0.0504567
0.0496443
0.0488527
0.0480835
0.0473394
0.0466241
0.045943
0.0453035
0.0447158
0.0441937
0.0437562
0.0434286
0.0432444
0.961692
0.892185
0.829085
0.771728
0.719523
0.671944
0.628523
0.588843
0.552531
0.519257
0.488723
0.460666
0.434848
0.411058
0.389106
0.368824
0.350057
0.33267
0.31654
0.301555
0.287617
0.274635
0.26253
0.251226
0.240659
0.230768
0.221499
0.212803
0.204636
0.196955
0.189726
0.182913
0.176486
0.170417
0.16468
0.159252
0.154111
0.149238
0.144614
0.140222
0.136048
0.132076
0.128295
0.124691
0.121255
0.117975
0.114842
0.111847
0.108982
0.106239
0.103612
0.101093
0.0986771
0.0963578
0.09413
0.0919887
0.0899292
0.0879471
0.0860384
0.0841991
0.0824258
0.0807149
0.0790633
0.077468
0.0759261
0.0744349
0.072992
0.0715948
0.0702412
0.0689288
0.0676558
0.0664201
0.0652198
0.0640532
0.0629186
0.0618144
0.0607389
0.0596909
0.0586688
0.0576714
0.0566975
0.055746
0.054816
0.0539064
0.0530167
0.0521464
0.0512953
0.0504634
0.0496512
0.0488597
0.0480907
0.0473467
0.0466316
0.0459506
0.0453111
0.0447234
0.0442013
0.0437638
0.0434361
0.0432519
0.961692
0.892185
0.829085
0.771728
0.719523
0.671944
0.628523
0.588843
0.552532
0.519257
0.488723
0.460666
0.434848
0.411058
0.389107
0.368824
0.350057
0.33267
0.31654
0.301556
0.287617
0.274636
0.26253
0.251227
0.240659
0.230768
0.2215
0.212804
0.204636
0.196956
0.189727
0.182914
0.176487
0.170418
0.164681
0.159253
0.154112
0.149239
0.144615
0.140223
0.136049
0.132077
0.128296
0.124693
0.121256
0.117976
0.114843
0.111848
0.108983
0.106241
0.103614
0.101095
0.0986792
0.09636
0.0941323
0.091991
0.0899316
0.0879496
0.0860409
0.0842018
0.0824285
0.0807177
0.0790662
0.077471
0.0759292
0.0744382
0.0729954
0.0715983
0.0702448
0.0689327
0.0676598
0.0664242
0.0652241
0.0640577
0.0629232
0.0618192
0.0607439
0.059696
0.0586742
0.057677
0.0567033
0.0557521
0.0548222
0.0539129
0.0530234
0.0521534
0.0513025
0.0504708
0.0496588
0.0488675
0.0480987
0.0473548
0.0466398
0.0459589
0.0453195
0.0447318
0.0442097
0.0437721
0.0434445
0.0432602
0.961692
0.892185
0.829085
0.771728
0.719523
0.671944
0.628523
0.588843
0.552532
0.519257
0.488723
0.460666
0.434848
0.411058
0.389107
0.368824
0.350058
0.332671
0.31654
0.301556
0.287618
0.274636
0.26253
0.251227
0.24066
0.230769
0.2215
0.212805
0.204637
0.196957
0.189727
0.182915
0.176488
0.170419
0.164682
0.159254
0.154114
0.14924
0.144616
0.140225
0.13605
0.132079
0.128298
0.124694
0.121258
0.117978
0.114845
0.11185
0.108985
0.106243
0.103616
0.101097
0.0986814
0.0963623
0.0941346
0.0919935
0.0899342
0.0879523
0.0860437
0.0842047
0.0824315
0.0807208
0.0790695
0.0774744
0.0759327
0.0744418
0.0729991
0.0716022
0.0702488
0.0689368
0.0676641
0.0664287
0.0652287
0.0640625
0.0629282
0.0618243
0.0607493
0.0597016
0.05868
0.0576831
0.0567096
0.0557586
0.054829
0.0539199
0.0530307
0.0521609
0.0513102
0.0504788
0.049667
0.0488759
0.0481073
0.0473636
0.0466487
0.0459679
0.0453285
0.0447409
0.0442188
0.0437812
0.0434535
0.0432692
0.961692
0.892185
0.829085
0.771728
0.719523
0.671944
0.628523
0.588843
0.552532
0.519257
0.488723
0.460666
0.434848
0.411058
0.389107
0.368824
0.350058
0.332671
0.316541
0.301556
0.287618
0.274637
0.262531
0.251228
0.24066
0.23077
0.221501
0.212805
0.204638
0.196958
0.189728
0.182916
0.176489
0.17042
0.164683
0.159255
0.154115
0.149241
0.144617
0.140226
0.136052
0.13208
0.128299
0.124696
0.12126
0.11798
0.114847
0.111852
0.108987
0.106245
0.103618
0.1011
0.0986838
0.0963648
0.0941372
0.0919962
0.0899369
0.0879551
0.0860467
0.0842078
0.0824347
0.0807242
0.0790729
0.0774779
0.0759364
0.0744456
0.0730031
0.0716063
0.0702531
0.0689412
0.0676687
0.0664335
0.0652337
0.0640676
0.0629336
0.0618299
0.0607551
0.0597077
0.0586862
0.0576895
0.0567163
0.0557656
0.0548362
0.0539274
0.0530385
0.0521689
0.0513185
0.0504873
0.0496758
0.048885
0.0481165
0.047373
0.0466583
0.0459775
0.0453383
0.0447507
0.0442286
0.0437909
0.0434632
0.0432788
0.961692
0.892185
0.829085
0.771728
0.719523
0.671944
0.628523
0.588843
0.552532
0.519257
0.488724
0.460666
0.434848
0.411059
0.389107
0.368825
0.350058
0.332671
0.316541
0.301557
0.287619
0.274637
0.262532
0.251228
0.240661
0.23077
0.221502
0.212806
0.204639
0.196959
0.189729
0.182916
0.17649
0.170421
0.164685
0.159257
0.154116
0.149243
0.144619
0.140227
0.136053
0.132082
0.128301
0.124698
0.121261
0.117982
0.114849
0.111854
0.10899
0.106247
0.10362
0.101102
0.0986863
0.0963674
0.0941399
0.091999
0.0899399
0.0879582
0.0860499
0.084211
0.0824381
0.0807277
0.0790765
0.0774817
0.0759403
0.0744497
0.0730073
0.0716107
0.0702576
0.068946
0.0676736
0.0664385
0.065239
0.0640731
0.0629393
0.0618358
0.0607612
0.059714
0.0586928
0.0576964
0.0567235
0.055773
0.0548439
0.0539354
0.0530467
0.0521775
0.0513273
0.0504964
0.0496851
0.0488945
0.0481263
0.047383
0.0466684
0.0459878
0.0453486
0.044761
0.0442389
0.0438013
0.0434735
0.0432891
0.961692
0.892185
0.829085
0.771728
0.719523
0.671944
0.628523
0.588843
0.552532
0.519257
0.488724
0.460666
0.434848
0.411059
0.389108
0.368825
0.350059
0.332672
0.316541
0.301557
0.287619
0.274638
0.262532
0.251229
0.240662
0.230771
0.221503
0.212807
0.204639
0.19696
0.18973
0.182917
0.176491
0.170422
0.164686
0.159258
0.154117
0.149244
0.14462
0.140229
0.136055
0.132084
0.128303
0.124699
0.121263
0.117984
0.114851
0.111856
0.108992
0.10625
0.103623
0.101105
0.0986889
0.0963701
0.0941428
0.092002
0.0899429
0.0879614
0.0860532
0.0842145
0.0824417
0.0807314
0.0790804
0.0774857
0.0759444
0.074454
0.0730117
0.0716153
0.0702624
0.0689509
0.0676787
0.0664438
0.0652445
0.0640788
0.0629452
0.061842
0.0607676
0.0597207
0.0586998
0.0577036
0.0567309
0.0557807
0.0548519
0.0539437
0.0530553
0.0521864
0.0513365
0.0505059
0.0496949
0.0489045
0.0481365
0.0473934
0.046679
0.0459985
0.0453594
0.0447719
0.0442498
0.0438121
0.0434843
0.0432998
0.961692
0.892185
0.829085
0.771728
0.719523
0.671944
0.628523
0.588843
0.552532
0.519257
0.488724
0.460666
0.434849
0.411059
0.389108
0.368825
0.350059
0.332672
0.316542
0.301558
0.28762
0.274638
0.262533
0.251229
0.240662
0.230772
0.221503
0.212808
0.20464
0.19696
0.189731
0.182919
0.176492
0.170423
0.164687
0.159259
0.154119
0.149246
0.144622
0.14023
0.136056
0.132085
0.128304
0.124701
0.121265
0.117986
0.114853
0.111859
0.108994
0.106252
0.103625
0.101107
0.0986917
0.096373
0.0941458
0.092005
0.0899461
0.0879647
0.0860566
0.084218
0.0824454
0.0807352
0.0790844
0.0774898
0.0759487
0.0744584
0.0730163
0.0716201
0.0702674
0.068956
0.067684
0.0664494
0.0652502
0.0640848
0.0629514
0.0618484
0.0607743
0.0597276
0.058707
0.0577111
0.0567387
0.0557888
0.0548603
0.0539523
0.0530643
0.0521956
0.0513461
0.0505157
0.049705
0.0489149
0.0481472
0.0474043
0.04669
0.0460097
0.0453707
0.0447832
0.0442611
0.0438234
0.0434955
0.043311
0.961692
0.892185
0.829085
0.771728
0.719523
0.671944
0.628523
0.588843
0.552532
0.519257
0.488724
0.460666
0.434849
0.411059
0.389108
0.368825
0.350059
0.332672
0.316542
0.301558
0.28762
0.274639
0.262533
0.25123
0.240663
0.230772
0.221504
0.212809
0.204641
0.196961
0.189732
0.18292
0.176493
0.170425
0.164688
0.159261
0.15412
0.149247
0.144623
0.140232
0.136058
0.132087
0.128306
0.124703
0.121267
0.117988
0.114855
0.111861
0.108997
0.106255
0.103628
0.10111
0.0986945
0.0963759
0.0941488
0.0920082
0.0899494
0.0879681
0.0860602
0.0842217
0.0824492
0.0807392
0.0790885
0.0774941
0.0759531
0.074463
0.0730211
0.071625
0.0702725
0.0689613
0.0676895
0.0664551
0.0652562
0.064091
0.0629578
0.061855
0.0607812
0.0597348
0.0587144
0.0577188
0.0567467
0.0557971
0.0548689
0.0539613
0.0530735
0.0522052
0.051356
0.0505259
0.0497155
0.0489257
0.0481582
0.0474155
0.0467014
0.0460212
0.0453823
0.0447949
0.0442728
0.0438351
0.0435072
0.0433226
0.961692
0.892185
0.829085
0.771728
0.719523
0.671944
0.628523
0.588843
0.552532
0.519257
0.488724
0.460667
0.434849
0.411059
0.389108
0.368826
0.350059
0.332673
0.316543
0.301558
0.287621
0.274639
0.262534
0.251231
0.240664
0.230773
0.221505
0.212809
0.204642
0.196962
0.189733
0.182921
0.176494
0.170426
0.164689
0.159262
0.154122
0.149249
0.144625
0.140234
0.13606
0.132089
0.128308
0.124705
0.121269
0.11799
0.114858
0.111863
0.108999
0.106257
0.103631
0.101113
0.0986974
0.0963789
0.094152
0.0920115
0.0899528
0.0879716
0.0860638
0.0842255
0.0824531
0.0807432
0.0790927
0.0774984
0.0759577
0.0744677
0.073026
0.0716301
0.0702777
0.0689668
0.0676952
0.0664609
0.0652622
0.0640973
0.0629643
0.0618618
0.0607883
0.0597421
0.058722
0.0577267
0.0567549
0.0558056
0.0548777
0.0539704
0.053083
0.052215
0.0513661
0.0505363
0.0497262
0.0489367
0.0481694
0.047427
0.0467131
0.046033
0.0453943
0.0448069
0.0442849
0.0438471
0.0435192
0.0433345
0.961692
0.892185
0.829085
0.771728
0.719523
0.671944
0.628523
0.588843
0.552532
0.519258
0.488724
0.460667
0.434849
0.411059
0.389108
0.368826
0.35006
0.332673
0.316543
0.301559
0.287621
0.27464
0.262534
0.251231
0.240664
0.230774
0.221506
0.21281
0.204643
0.196963
0.189734
0.182922
0.176495
0.170427
0.164691
0.159263
0.154123
0.14925
0.144627
0.140235
0.136062
0.132091
0.12831
0.124707
0.121272
0.117992
0.11486
0.111866
0.109002
0.10626
0.103633
0.101116
0.0987004
0.096382
0.0941551
0.0920148
0.0899563
0.0879752
0.0860675
0.0842293
0.0824571
0.0807474
0.079097
0.0775029
0.0759623
0.0744725
0.0730309
0.0716352
0.0702831
0.0689723
0.0677009
0.0664669
0.0652684
0.0641037
0.062971
0.0618688
0.0607954
0.0597496
0.0587298
0.0577347
0.0567633
0.0558142
0.0548867
0.0539797
0.0530927
0.052225
0.0513764
0.0505469
0.0497371
0.0489479
0.0481809
0.0474387
0.046725
0.0460451
0.0454064
0.0448192
0.0442972
0.0438594
0.0435314
0.0433467
0.961692
0.892185
0.829085
0.771728
0.719523
0.671944
0.628523
0.588843
0.552532
0.519258
0.488724
0.460667
0.434849
0.41106
0.389109
0.368826
0.35006
0.332673
0.316543
0.301559
0.287621
0.27464
0.262535
0.251232
0.240665
0.230775
0.221506
0.212811
0.204644
0.196964
0.189735
0.182923
0.176497
0.170428
0.164692
0.159265
0.154124
0.149252
0.144628
0.140237
0.136063
0.132093
0.128312
0.124709
0.121274
0.117994
0.114862
0.111868
0.109004
0.106262
0.103636
0.101118
0.0987034
0.0963851
0.0941584
0.0920181
0.0899597
0.0879788
0.0860713
0.0842333
0.0824612
0.0807516
0.0791013
0.0775074
0.075967
0.0744773
0.073036
0.0716404
0.0702885
0.0689779
0.0677067
0.066473
0.0652747
0.0641102
0.0629778
0.0618758
0.0608027
0.0597571
0.0587376
0.0577429
0.0567717
0.055823
0.0548958
0.0539892
0.0531024
0.0522351
0.0513868
0.0505577
0.0497482
0.0489593
0.0481925
0.0474506
0.0467371
0.0460574
0.0454188
0.0448316
0.0443096
0.0438719
0.0435438
0.0433591
0.961692
0.892185
0.829085
0.771728
0.719523
0.671944
0.628523
0.588843
0.552532
0.519258
0.488724
0.460667
0.434849
0.41106
0.389109
0.368826
0.35006
0.332674
0.316544
0.30156
0.287622
0.274641
0.262535
0.251232
0.240666
0.230775
0.221507
0.212812
0.204645
0.196965
0.189736
0.182924
0.176498
0.170429
0.164693
0.159266
0.154126
0.149253
0.14463
0.140239
0.136065
0.132095
0.128314
0.124712
0.121276
0.117997
0.114865
0.111871
0.109007
0.106265
0.103639
0.101121
0.0987064
0.0963883
0.0941616
0.0920215
0.0899633
0.0879825
0.0860751
0.0842372
0.0824652
0.0807558
0.0791057
0.077512
0.0759717
0.0744822
0.073041
0.0716457
0.0702939
0.0689836
0.0677126
0.0664791
0.065281
0.0641168
0.0629846
0.0618829
0.0608101
0.0597648
0.0587455
0.0577511
0.0567803
0.0558319
0.054905
0.0539987
0.0531123
0.0522453
0.0513973
0.0505686
0.0497594
0.0489707
0.0482043
0.0474626
0.0467493
0.0460698
0.0454313
0.0448442
0.0443222
0.0438845
0.0435564
0.0433716
0.961692
0.892185
0.829085
0.771728
0.719523
0.671944
0.628523
0.588843
0.552532
0.519258
0.488724
0.460667
0.434849
0.41106
0.389109
0.368827
0.350061
0.332674
0.316544
0.30156
0.287622
0.274641
0.262536
0.251233
0.240666
0.230776
0.221508
0.212813
0.204646
0.196966
0.189737
0.182925
0.176499
0.170431
0.164695
0.159267
0.154127
0.149255
0.144631
0.140241
0.136067
0.132097
0.128316
0.124714
0.121278
0.117999
0.114867
0.111873
0.109009
0.106268
0.103642
0.101124
0.0987094
0.0963914
0.0941649
0.0920249
0.0899668
0.0879861
0.0860789
0.0842411
0.0824693
0.0807601
0.0791101
0.0775165
0.0759764
0.0744872
0.0730461
0.071651
0.0702994
0.0689893
0.0677185
0.0664852
0.0652874
0.0641234
0.0629914
0.06189
0.0608175
0.0597724
0.0587535
0.0577594
0.0567888
0.0558408
0.0549142
0.0540083
0.0531222
0.0522555
0.0514079
0.0505795
0.0497706
0.0489823
0.0482161
0.0474746
0.0467616
0.0460822
0.0454439
0.0448568
0.0443349
0.0438971
0.043569
0.0433842
0.961692
0.892185
0.829085
0.771728
0.719523
0.671944
0.628523
0.588843
0.552532
0.519258
0.488724
0.460667
0.434849
0.41106
0.389109
0.368827
0.350061
0.332674
0.316544
0.30156
0.287623
0.274642
0.262536
0.251234
0.240667
0.230777
0.221509
0.212814
0.204647
0.196967
0.189738
0.182926
0.1765
0.170432
0.164696
0.159269
0.154129
0.149256
0.144633
0.140242
0.136069
0.132098
0.128318
0.124716
0.12128
0.118001
0.114869
0.111876
0.109012
0.106271
0.103645
0.101127
0.0987125
0.0963946
0.0941682
0.0920283
0.0899703
0.0879898
0.0860827
0.0842451
0.0824734
0.0807643
0.0791146
0.0775211
0.0759812
0.0744921
0.0730512
0.0716563
0.0703049
0.068995
0.0677244
0.0664913
0.0652937
0.06413
0.0629983
0.0618971
0.0608248
0.0597801
0.0587614
0.0577676
0.0567974
0.0558497
0.0549234
0.0540178
0.0531321
0.0522657
0.0514185
0.0505904
0.0497818
0.0489938
0.0482279
0.0474867
0.0467739
0.0460947
0.0454565
0.0448695
0.0443477
0.0439099
0.0435817
0.0433968
0.961692
0.892185
0.829085
0.771728
0.719523
0.671944
0.628523
0.588843
0.552532
0.519258
0.488724
0.460667
0.43485
0.41106
0.389109
0.368827
0.350061
0.332675
0.316545
0.301561
0.287623
0.274642
0.262537
0.251234
0.240668
0.230777
0.221509
0.212814
0.204647
0.196968
0.189739
0.182927
0.176501
0.170433
0.164697
0.15927
0.15413
0.149258
0.144635
0.140244
0.136071
0.1321
0.12832
0.124718
0.121282
0.118003
0.114872
0.111878
0.109014
0.106273
0.103647
0.10113
0.0987155
0.0963977
0.0941715
0.0920317
0.0899739
0.0879935
0.0860865
0.084249
0.0824775
0.0807686
0.0791189
0.0775257
0.0759859
0.074497
0.0730563
0.0716615
0.0703104
0.0690007
0.0677303
0.0664974
0.0653001
0.0641365
0.0630051
0.0619042
0.0608322
0.0597877
0.0587694
0.0577758
0.0568059
0.0558585
0.0549326
0.0540273
0.0531419
0.0522759
0.051429
0.0506012
0.049793
0.0490053
0.0482397
0.0474987
0.0467861
0.0461071
0.0454691
0.0448822
0.0443604
0.0439226
0.0435943
0.0434094
0.961692
0.892185
0.829085
0.771728
0.719523
0.671944
0.628523
0.588843
0.552532
0.519258
0.488724
0.460667
0.43485
0.41106
0.389109
0.368827
0.350061
0.332675
0.316545
0.301561
0.287624
0.274643
0.262537
0.251235
0.240668
0.230778
0.22151
0.212815
0.204648
0.196969
0.18974
0.182928
0.176502
0.170434
0.164699
0.159272
0.154132
0.149259
0.144636
0.140246
0.136072
0.132102
0.128322
0.12472
0.121284
0.118006
0.114874
0.11188
0.109017
0.106276
0.10365
0.101133
0.0987185
0.0964008
0.0941747
0.0920351
0.0899774
0.0879971
0.0860902
0.0842529
0.0824816
0.0807728
0.0791233
0.0775302
0.0759906
0.0745018
0.0730614
0.0716668
0.0703158
0.0690063
0.0677362
0.0665035
0.0653064
0.0641431
0.0630119
0.0619112
0.0608395
0.0597953
0.0587772
0.057784
0.0568144
0.0558673
0.0549417
0.0540368
0.0531517
0.0522861
0.0514395
0.050612
0.0498041
0.0490167
0.0482514
0.0475107
0.0467983
0.0461195
0.0454816
0.0448948
0.044373
0.0439352
0.0436069
0.0434219
0.961692
0.892185
0.829085
0.771728
0.719523
0.671944
0.628523
0.588843
0.552532
0.519258
0.488724
0.460667
0.43485
0.41106
0.389109
0.368827
0.350061
0.332675
0.316545
0.301561
0.287624
0.274643
0.262538
0.251235
0.240669
0.230779
0.221511
0.212816
0.204649
0.19697
0.189741
0.182929
0.176503
0.170436
0.1647
0.159273
0.154133
0.149261
0.144638
0.140247
0.136074
0.132104
0.128324
0.124722
0.121287
0.118008
0.114876
0.111883
0.10902
0.106278
0.103653
0.101136
0.0987214
0.0964039
0.0941779
0.0920384
0.0899808
0.0880007
0.086094
0.0842568
0.0824856
0.0807769
0.0791276
0.0775347
0.0759952
0.0745066
0.0730663
0.0716719
0.0703212
0.0690118
0.0677419
0.0665094
0.0653126
0.0641495
0.0630186
0.0619181
0.0608467
0.0598028
0.058785
0.0577921
0.0568228
0.055876
0.0549508
0.0540461
0.0531614
0.0522961
0.0514498
0.0506227
0.0498151
0.049028
0.048263
0.0475226
0.0468104
0.0461317
0.045494
0.0449073
0.0443855
0.0439477
0.0436194
0.0434344
0.961692
0.892185
0.829085
0.771728
0.719523
0.671944
0.628523
0.588843
0.552532
0.519258
0.488724
0.460667
0.43485
0.41106
0.38911
0.368827
0.350062
0.332675
0.316546
0.301562
0.287624
0.274644
0.262538
0.251236
0.240669
0.230779
0.221512
0.212817
0.20465
0.196971
0.189742
0.18293
0.176505
0.170437
0.164701
0.159274
0.154135
0.149262
0.144639
0.140249
0.136076
0.132106
0.128326
0.124724
0.121289
0.11801
0.114879
0.111885
0.109022
0.106281
0.103655
0.101139
0.0987243
0.0964069
0.094181
0.0920417
0.0899842
0.0880042
0.0860976
0.0842606
0.0824895
0.080781
0.0791319
0.0775391
0.0759998
0.0745114
0.0730713
0.071677
0.0703264
0.0690173
0.0677476
0.0665153
0.0653187
0.0641559
0.0630252
0.061925
0.0608538
0.0598101
0.0587927
0.0578
0.056831
0.0558846
0.0549596
0.0540553
0.053171
0.052306
0.0514601
0.0506333
0.049826
0.0490392
0.0482744
0.0475342
0.0468223
0.0461438
0.0455062
0.0449196
0.0443979
0.0439601
0.0436318
0.0434467
0.961692
0.892185
0.829085
0.771728
0.719523
0.671944
0.628523
0.588843
0.552532
0.519258
0.488724
0.460667
0.43485
0.411061
0.38911
0.368828
0.350062
0.332676
0.316546
0.301562
0.287625
0.274644
0.262539
0.251236
0.24067
0.23078
0.221512
0.212817
0.204651
0.196972
0.189743
0.182931
0.176506
0.170438
0.164702
0.159276
0.154136
0.149264
0.144641
0.140251
0.136078
0.132108
0.128328
0.124726
0.121291
0.118012
0.114881
0.111888
0.109024
0.106284
0.103658
0.101141
0.0987272
0.0964099
0.0941841
0.0920449
0.0899875
0.0880077
0.0861012
0.0842643
0.0824934
0.080785
0.079136
0.0775434
0.0760043
0.074516
0.0730761
0.071682
0.0703316
0.0690227
0.0677532
0.0665211
0.0653247
0.0641621
0.0630316
0.0619317
0.0608608
0.0598174
0.0588002
0.0578078
0.0568391
0.055893
0.0549684
0.0540644
0.0531803
0.0523157
0.0514701
0.0506436
0.0498367
0.0490501
0.0482857
0.0475457
0.046834
0.0461557
0.0455183
0.0449317
0.0444101
0.0439723
0.0436439
0.0434588
0.961692
0.892185
0.829085
0.771728
0.719523
0.671944
0.628523
0.588843
0.552532
0.519258
0.488724
0.460667
0.43485
0.411061
0.38911
0.368828
0.350062
0.332676
0.316546
0.301562
0.287625
0.274644
0.262539
0.251237
0.24067
0.230781
0.221513
0.212818
0.204652
0.196972
0.189744
0.182932
0.176507
0.170439
0.164703
0.159277
0.154137
0.149265
0.144642
0.140252
0.136079
0.132109
0.128329
0.124728
0.121293
0.118014
0.114883
0.11189
0.109027
0.106286
0.103661
0.101144
0.09873
0.0964128
0.0941872
0.092048
0.0899908
0.0880111
0.0861047
0.084268
0.0824972
0.080789
0.0791401
0.0775476
0.0760087
0.0745206
0.0730808
0.0716869
0.0703367
0.069028
0.0677586
0.0665268
0.0653306
0.0641682
0.063038
0.0619383
0.0608676
0.0598245
0.0588075
0.0578155
0.0568471
0.0559012
0.0549769
0.0540732
0.0531895
0.0523252
0.0514799
0.0506538
0.0498471
0.0490609
0.0482967
0.047557
0.0468455
0.0461674
0.0455301
0.0449437
0.044422
0.0439842
0.0436558
0.0434707
0.961692
0.892185
0.829085
0.771728
0.719523
0.671944
0.628523
0.588843
0.552532
0.519258
0.488725
0.460667
0.43485
0.411061
0.38911
0.368828
0.350062
0.332676
0.316546
0.301563
0.287625
0.274645
0.26254
0.251237
0.240671
0.230781
0.221514
0.212819
0.204652
0.196973
0.189745
0.182933
0.176508
0.17044
0.164705
0.159278
0.154139
0.149267
0.144644
0.140254
0.136081
0.132111
0.128331
0.124729
0.121295
0.118016
0.114885
0.111892
0.109029
0.106288
0.103663
0.101147
0.0987327
0.0964156
0.0941901
0.0920511
0.089994
0.0880144
0.0861082
0.0842715
0.0825009
0.0807928
0.0791441
0.0775518
0.076013
0.074525
0.0730854
0.0716917
0.0703417
0.0690331
0.067764
0.0665323
0.0653363
0.0641741
0.0630441
0.0619447
0.0608743
0.0598314
0.0588147
0.0578229
0.0568548
0.0559093
0.0549852
0.0540819
0.0531985
0.0523344
0.0514895
0.0506637
0.0498573
0.0490714
0.0483075
0.047568
0.0468567
0.0461788
0.0455416
0.0449553
0.0444337
0.0439959
0.0436675
0.0434823
0.961692
0.892185
0.829085
0.771728
0.719523
0.671944
0.628523
0.588843
0.552532
0.519258
0.488725
0.460667
0.43485
0.411061
0.38911
0.368828
0.350062
0.332676
0.316547
0.301563
0.287626
0.274645
0.26254
0.251238
0.240671
0.230782
0.221514
0.212819
0.204653
0.196974
0.189746
0.182934
0.176509
0.170441
0.164706
0.159279
0.15414
0.149268
0.144645
0.140255
0.136082
0.132113
0.128333
0.124731
0.121296
0.118018
0.114887
0.111894
0.109031
0.106291
0.103666
0.101149
0.0987354
0.0964184
0.094193
0.0920541
0.0899971
0.0880176
0.0861115
0.084275
0.0825045
0.0807965
0.079148
0.0775558
0.0760171
0.0745293
0.0730899
0.0716964
0.0703465
0.0690381
0.0677692
0.0665377
0.0653419
0.0641799
0.0630501
0.0619509
0.0608807
0.0598381
0.0588217
0.0578302
0.0568624
0.0559171
0.0549934
0.0540903
0.0532072
0.0523435
0.0514988
0.0506733
0.0498673
0.0490816
0.048318
0.0475788
0.0468677
0.04619
0.0455529
0.0449667
0.0444451
0.0440073
0.0436789
0.0434936
0.961692
0.892185
0.829085
0.771728
0.719523
0.671944
0.628523
0.588843
0.552532
0.519258
0.488725
0.460668
0.43485
0.411061
0.38911
0.368828
0.350063
0.332676
0.316547
0.301563
0.287626
0.274645
0.262541
0.251238
0.240672
0.230782
0.221515
0.21282
0.204654
0.196975
0.189747
0.182935
0.17651
0.170442
0.164707
0.15928
0.154141
0.149269
0.144647
0.140257
0.136084
0.132114
0.128335
0.124733
0.121298
0.11802
0.114889
0.111896
0.109033
0.106293
0.103668
0.101152
0.0987379
0.0964211
0.0941957
0.092057
0.0900001
0.0880207
0.0861147
0.0842784
0.082508
0.0808001
0.0791517
0.0775597
0.0760212
0.0745335
0.0730942
0.0717008
0.0703511
0.0690429
0.0677742
0.0665429
0.0653473
0.0641855
0.063056
0.061957
0.060887
0.0598446
0.0588285
0.0578372
0.0568696
0.0559247
0.0550012
0.0540985
0.0532156
0.0523522
0.0515079
0.0506826
0.0498769
0.0490915
0.0483281
0.0475892
0.0468783
0.0462008
0.0455638
0.0449777
0.0444562
0.0440184
0.0436899
0.0435046
0.961692
0.892185
0.829085
0.771728
0.719523
0.671944
0.628523
0.588843
0.552532
0.519258
0.488725
0.460668
0.43485
0.411061
0.38911
0.368828
0.350063
0.332677
0.316547
0.301563
0.287626
0.274646
0.262541
0.251239
0.240672
0.230783
0.221515
0.212821
0.204654
0.196976
0.189747
0.182936
0.17651
0.170443
0.164708
0.159281
0.154142
0.14927
0.144648
0.140258
0.136085
0.132116
0.128336
0.124735
0.1213
0.118022
0.114891
0.111898
0.109036
0.106295
0.10367
0.101154
0.0987404
0.0964236
0.0941984
0.0920597
0.090003
0.0880237
0.0861179
0.0842816
0.0825113
0.0808036
0.0791553
0.0775634
0.076025
0.0745376
0.0730984
0.0717052
0.0703556
0.0690476
0.067779
0.0665479
0.0653525
0.064191
0.0630616
0.0619628
0.0608931
0.0598509
0.058835
0.057844
0.0568767
0.055932
0.0550088
0.0541063
0.0532238
0.0523607
0.0515166
0.0506917
0.0498862
0.0491011
0.048338
0.0475993
0.0468886
0.0462112
0.0455744
0.0449884
0.0444669
0.0440291
0.0437006
0.0435153
0.961692
0.892185
0.829084
0.771728
0.719523
0.671944
0.628523
0.588843
0.552532
0.519258
0.488725
0.460668
0.43485
0.411061
0.38911
0.368828
0.350063
0.332677
0.316547
0.301564
0.287627
0.274646
0.262541
0.251239
0.240673
0.230783
0.221516
0.212821
0.204655