/*--------------------------------*- C++ -*----------------------------------*\
  =========                 |
  \\      /  F ield         | OpenFOAM: The Open Source CFD Toolbox
   \\    /   O peration     | Website:  https://openfoam.org
    \\  /    A nd           | Version:  11
     \\/     M anipulation  |
\*---------------------------------------------------------------------------*/
FoamFile
{
    format      ascii;
    class       volScalarField;
    location    "16";
    object      k;
}
// * * * * * * * * * * * * * * * * * * * * * * * * * * * * * * * * * * * * * //

dimensions      [0 2 -2 0 0 0 0];

internalField   nonuniform List<scalar> 
10000
(
0.000943457
0.000849661
0.000771834
0.000707683
0.000655182
0.000612469
0.000577885
0.000549984
0.00052754
0.000509532
0.000495122
0.000483622
0.000474473
0.000467214
0.000461467
0.000456946
0.000453404
0.000450633
0.000448464
0.000446769
0.000445444
0.000444407
0.000443592
0.00044295
0.00044244
0.000442033
0.000441705
0.000441438
0.000441218
0.000441036
0.000440882
0.000440752
0.000440641
0.000440545
0.00044046
0.000440387
0.000440322
0.000440264
0.000440212
0.000440166
0.000440124
0.000440086
0.000440052
0.000440021
0.000439993
0.000439968
0.000439944
0.000439923
0.000439904
0.000439886
0.000439869
0.000439854
0.000439841
0.000439828
0.000439816
0.000439805
0.000439795
0.000439786
0.000439778
0.00043977
0.000439762
0.000439756
0.000439749
0.000439743
0.000439738
0.000439733
0.000439728
0.000439724
0.00043972
0.000439716
0.000439713
0.000439709
0.000439706
0.000439703
0.000439701
0.000439698
0.000439696
0.000439694
0.000439692
0.00043969
0.000439688
0.000439686
0.000439684
0.000439682
0.00043968
0.000439679
0.000439677
0.000439675
0.000439673
0.000439672
0.00043967
0.000439668
0.000439666
0.000439664
0.000439663
0.000439661
0.00043966
0.000439659
0.000439658
0.000439657
0.000943415
0.000849454
0.000771638
0.000707546
0.000655091
0.000612414
0.000577855
0.00054997
0.000527537
0.000509538
0.000495134
0.000483639
0.000474493
0.000467237
0.0004615
0.000456982
0.000453436
0.00045066
0.000448489
0.000446792
0.000445465
0.000444427
0.000443611
0.000442968
0.000442457
0.000442049
0.00044172
0.000441452
0.000441232
0.000441049
0.000440895
0.000440764
0.000440652
0.000440555
0.000440471
0.000440396
0.00044033
0.000440272
0.00044022
0.000440173
0.000440131
0.000440093
0.000440058
0.000440027
0.000439999
0.000439973
0.000439949
0.000439928
0.000439908
0.00043989
0.000439873
0.000439858
0.000439844
0.000439831
0.000439819
0.000439808
0.000439798
0.000439789
0.00043978
0.000439772
0.000439764
0.000439757
0.000439751
0.000439745
0.00043974
0.000439735
0.00043973
0.000439725
0.000439721
0.000439717
0.000439714
0.000439711
0.000439707
0.000439704
0.000439702
0.000439699
0.000439697
0.000439695
0.000439692
0.00043969
0.000439688
0.000439686
0.000439685
0.000439683
0.000439681
0.000439679
0.000439677
0.000439676
0.000439674
0.000439672
0.00043967
0.000439668
0.000439666
0.000439665
0.000439663
0.000439662
0.00043966
0.000439659
0.000439658
0.000439658
0.000943331
0.000849175
0.000771332
0.000707283
0.000654893
0.000612271
0.000577753
0.000549898
0.000527486
0.000509502
0.00049511
0.000483623
0.000474484
0.000467235
0.000461505
0.000456991
0.000453447
0.000450671
0.0004485
0.000446803
0.000445477
0.000444439
0.000443624
0.000442981
0.000442471
0.000442063
0.000441734
0.000441467
0.000441246
0.000441063
0.000440909
0.000440778
0.000440666
0.000440569
0.000440484
0.000440409
0.000440343
0.000440284
0.000440231
0.000440184
0.000440141
0.000440103
0.000440068
0.000440036
0.000440007
0.000439981
0.000439957
0.000439935
0.000439915
0.000439896
0.000439879
0.000439864
0.000439849
0.000439836
0.000439824
0.000439813
0.000439802
0.000439793
0.000439784
0.000439775
0.000439768
0.000439761
0.000439754
0.000439748
0.000439742
0.000439737
0.000439732
0.000439728
0.000439723
0.000439719
0.000439716
0.000439712
0.000439709
0.000439706
0.000439703
0.000439701
0.000439698
0.000439696
0.000439694
0.000439692
0.00043969
0.000439688
0.000439686
0.000439684
0.000439682
0.00043968
0.000439678
0.000439677
0.000439675
0.000439673
0.000439671
0.000439669
0.000439667
0.000439665
0.000439664
0.000439662
0.000439661
0.000439659
0.000439659
0.000439658
0.000943234
0.000848917
0.000771011
0.000706985
0.000654648
0.000612081
0.000577608
0.000549787
0.000527401
0.000509437
0.00049506
0.000483586
0.000474456
0.000467216
0.000461493
0.000456984
0.000453444
0.00045067
0.000448501
0.000446806
0.000445482
0.000444446
0.000443632
0.000442991
0.000442482
0.000442075
0.000441747
0.00044148
0.000441261
0.000441078
0.000440924
0.000440793
0.000440681
0.000440584
0.000440499
0.000440424
0.000440357
0.000440298
0.000440245
0.000440197
0.000440154
0.000440115
0.000440079
0.000440047
0.000440018
0.000439991
0.000439966
0.000439944
0.000439923
0.000439904
0.000439887
0.000439871
0.000439856
0.000439842
0.00043983
0.000439818
0.000439808
0.000439798
0.000439788
0.00043978
0.000439772
0.000439765
0.000439758
0.000439752
0.000439746
0.00043974
0.000439735
0.000439731
0.000439726
0.000439722
0.000439718
0.000439715
0.000439711
0.000439708
0.000439705
0.000439703
0.0004397
0.000439698
0.000439695
0.000439693
0.000439691
0.000439689
0.000439687
0.000439685
0.000439683
0.000439681
0.00043968
0.000439678
0.000439676
0.000439674
0.000439672
0.00043967
0.000439668
0.000439666
0.000439664
0.000439663
0.000439661
0.00043966
0.000439659
0.000439659
0.000943158
0.000848712
0.000770738
0.000706708
0.000654401
0.000611876
0.000577442
0.000549655
0.000527297
0.000509354
0.000494994
0.000483534
0.000474416
0.000467184
0.000461469
0.000456966
0.000453431
0.000450661
0.000448495
0.000446803
0.000445481
0.000444447
0.000443636
0.000442997
0.00044249
0.000442085
0.000441758
0.000441493
0.000441274
0.000441092
0.000440939
0.000440809
0.000440697
0.000440599
0.000440514
0.000440439
0.000440372
0.000440313
0.000440259
0.000440211
0.000440167
0.000440128
0.000440092
0.000440059
0.000440029
0.000440002
0.000439977
0.000439954
0.000439933
0.000439913
0.000439895
0.000439879
0.000439864
0.00043985
0.000439837
0.000439825
0.000439814
0.000439803
0.000439794
0.000439785
0.000439777
0.000439769
0.000439762
0.000439756
0.00043975
0.000439744
0.000439739
0.000439734
0.000439729
0.000439725
0.000439721
0.000439717
0.000439714
0.000439711
0.000439708
0.000439705
0.000439702
0.0004397
0.000439697
0.000439695
0.000439693
0.000439691
0.000439689
0.000439687
0.000439685
0.000439683
0.000439681
0.000439679
0.000439677
0.000439675
0.000439673
0.000439671
0.000439669
0.000439667
0.000439665
0.000439664
0.000439662
0.000439661
0.00043966
0.000439659
0.000943102
0.000848555
0.000770515
0.000706465
0.000654171
0.000611672
0.00057727
0.000549512
0.000527179
0.000509259
0.000494917
0.000483471
0.000474364
0.000467142
0.000461435
0.000456939
0.000453408
0.000450643
0.000448481
0.000446793
0.000445474
0.000444443
0.000443635
0.000442998
0.000442493
0.00044209
0.000441766
0.000441502
0.000441285
0.000441104
0.000440952
0.000440822
0.000440711
0.000440614
0.000440529
0.000440454
0.000440387
0.000440327
0.000440273
0.000440225
0.000440181
0.000440141
0.000440104
0.000440071
0.000440041
0.000440013
0.000439987
0.000439964
0.000439942
0.000439922
0.000439904
0.000439887
0.000439872
0.000439857
0.000439844
0.000439831
0.00043982
0.000439809
0.0004398
0.000439791
0.000439782
0.000439774
0.000439767
0.00043976
0.000439754
0.000439748
0.000439743
0.000439737
0.000439733
0.000439728
0.000439724
0.00043972
0.000439717
0.000439713
0.00043971
0.000439707
0.000439705
0.000439702
0.000439699
0.000439697
0.000439695
0.000439693
0.00043969
0.000439688
0.000439686
0.000439684
0.000439682
0.00043968
0.000439678
0.000439676
0.000439674
0.000439672
0.00043967
0.000439668
0.000439666
0.000439664
0.000439663
0.000439662
0.000439661
0.00043966
0.000943057
0.000848429
0.000770332
0.000706256
0.000653961
0.000611478
0.000577098
0.000549365
0.000527055
0.000509155
0.00049483
0.000483398
0.000474304
0.000467092
0.000461392
0.000456903
0.000453377
0.000450617
0.000448459
0.000446775
0.00044546
0.000444432
0.000443627
0.000442993
0.000442491
0.000442091
0.000441769
0.000441507
0.000441292
0.000441113
0.000440962
0.000440833
0.000440722
0.000440626
0.000440541
0.000440467
0.0004404
0.00044034
0.000440286
0.000440237
0.000440193
0.000440153
0.000440116
0.000440083
0.000440052
0.000440024
0.000439998
0.000439974
0.000439952
0.000439931
0.000439913
0.000439895
0.000439879
0.000439864
0.000439851
0.000439838
0.000439826
0.000439815
0.000439805
0.000439796
0.000439787
0.000439779
0.000439771
0.000439764
0.000439758
0.000439752
0.000439746
0.000439741
0.000439736
0.000439731
0.000439727
0.000439723
0.000439719
0.000439716
0.000439713
0.00043971
0.000439707
0.000439704
0.000439701
0.000439699
0.000439697
0.000439694
0.000439692
0.00043969
0.000439688
0.000439686
0.000439684
0.000439682
0.00043968
0.000439678
0.000439675
0.000439673
0.000439671
0.000439669
0.000439667
0.000439665
0.000439664
0.000439662
0.000439661
0.000439661
0.000943021
0.000848327
0.000770179
0.000706074
0.000653772
0.000611296
0.000576933
0.000549219
0.000526929
0.000509046
0.000494737
0.000483319
0.000474236
0.000467033
0.000461341
0.000456859
0.000453339
0.000450583
0.00044843
0.000446749
0.000445438
0.000444415
0.000443613
0.000442982
0.000442484
0.000442087
0.000441767
0.000441508
0.000441294
0.000441117
0.000440968
0.000440841
0.000440731
0.000440635
0.000440552
0.000440477
0.000440411
0.000440351
0.000440297
0.000440249
0.000440204
0.000440164
0.000440127
0.000440093
0.000440062
0.000440033
0.000440007
0.000439983
0.00043996
0.00043994
0.000439921
0.000439903
0.000439887
0.000439871
0.000439857
0.000439844
0.000439832
0.000439821
0.000439811
0.000439801
0.000439792
0.000439784
0.000439776
0.000439769
0.000439762
0.000439756
0.00043975
0.000439744
0.000439739
0.000439734
0.00043973
0.000439726
0.000439722
0.000439718
0.000439715
0.000439712
0.000439709
0.000439706
0.000439703
0.000439701
0.000439698
0.000439696
0.000439694
0.000439692
0.000439689
0.000439687
0.000439685
0.000439683
0.000439681
0.000439679
0.000439677
0.000439674
0.000439672
0.00043967
0.000439668
0.000439666
0.000439665
0.000439663
0.000439662
0.000439661
0.000942991
0.000848241
0.000770049
0.000705916
0.000653602
0.000611129
0.000576776
0.000549077
0.000526803
0.000508936
0.000494641
0.000483236
0.000474163
0.000466969
0.000461285
0.000456808
0.000453293
0.000450542
0.000448393
0.000446717
0.00044541
0.00044439
0.000443592
0.000442965
0.00044247
0.000442076
0.00044176
0.000441503
0.000441292
0.000441117
0.00044097
0.000440844
0.000440736
0.000440641
0.000440559
0.000440485
0.000440419
0.00044036
0.000440306
0.000440258
0.000440213
0.000440173
0.000440136
0.000440102
0.000440071
0.000440042
0.000440015
0.000439991
0.000439968
0.000439947
0.000439928
0.00043991
0.000439893
0.000439878
0.000439863
0.00043985
0.000439838
0.000439826
0.000439816
0.000439806
0.000439796
0.000439788
0.00043978
0.000439772
0.000439765
0.000439759
0.000439753
0.000439747
0.000439742
0.000439737
0.000439733
0.000439728
0.000439724
0.000439721
0.000439717
0.000439714
0.000439711
0.000439708
0.000439705
0.000439702
0.0004397
0.000439698
0.000439695
0.000439693
0.000439691
0.000439688
0.000439686
0.000439684
0.000439682
0.00043968
0.000439677
0.000439675
0.000439673
0.000439671
0.000439669
0.000439667
0.000439665
0.000439664
0.000439663
0.000439662
0.000942965
0.000848168
0.000769936
0.000705777
0.000653451
0.000610976
0.000576629
0.000548942
0.000526681
0.000508827
0.000494545
0.00048315
0.000474087
0.000466901
0.000461223
0.000456752
0.000453242
0.000450496
0.000448351
0.000446679
0.000445376
0.00044436
0.000443566
0.000442942
0.000442451
0.00044206
0.000441747
0.000441493
0.000441285
0.000441112
0.000440967
0.000440843
0.000440737
0.000440644
0.000440562
0.000440489
0.000440424
0.000440366
0.000440313
0.000440265
0.00044022
0.00044018
0.000440143
0.000440109
0.000440078
0.000440049
0.000440022
0.000439997
0.000439975
0.000439953
0.000439934
0.000439916
0.000439899
0.000439883
0.000439868
0.000439855
0.000439842
0.000439831
0.00043982
0.00043981
0.0004398
0.000439791
0.000439783
0.000439776
0.000439769
0.000439762
0.000439756
0.00043975
0.000439745
0.00043974
0.000439735
0.00043973
0.000439726
0.000439723
0.000439719
0.000439716
0.000439712
0.000439709
0.000439707
0.000439704
0.000439701
0.000439699
0.000439696
0.000439694
0.000439692
0.00043969
0.000439687
0.000439685
0.000439683
0.000439681
0.000439678
0.000439676
0.000439674
0.000439672
0.00043967
0.000439668
0.000439666
0.000439664
0.000439663
0.000439663
0.000942943
0.000848105
0.000769839
0.000705655
0.000653315
0.000610836
0.000576493
0.000548814
0.000526563
0.000508721
0.000494449
0.000483064
0.000474009
0.00046683
0.000461158
0.000456692
0.000453187
0.000450445
0.000448304
0.000446636
0.000445336
0.000444324
0.000443534
0.000442914
0.000442426
0.000442039
0.000441729
0.000441479
0.000441274
0.000441103
0.000440961
0.000440839
0.000440734
0.000440643
0.000440562
0.000440491
0.000440427
0.000440369
0.000440317
0.000440269
0.000440225
0.000440185
0.000440148
0.000440114
0.000440083
0.000440054
0.000440028
0.000440003
0.00043998
0.000439958
0.000439939
0.00043992
0.000439903
0.000439888
0.000439873
0.000439859
0.000439846
0.000439834
0.000439823
0.000439813
0.000439803
0.000439795
0.000439786
0.000439778
0.000439771
0.000439764
0.000439758
0.000439752
0.000439747
0.000439742
0.000439737
0.000439732
0.000439728
0.000439724
0.00043972
0.000439717
0.000439714
0.000439711
0.000439708
0.000439705
0.000439702
0.0004397
0.000439697
0.000439695
0.000439693
0.00043969
0.000439688
0.000439686
0.000439684
0.000439681
0.000439679
0.000439677
0.000439675
0.000439672
0.00043967
0.000439668
0.000439667
0.000439665
0.000439664
0.000439663
0.000942923
0.00084805
0.000769753
0.000705546
0.000653193
0.000610709
0.000576368
0.000548694
0.000526452
0.000508619
0.000494356
0.000482979
0.000473931
0.000466758
0.000461091
0.00045663
0.000453129
0.00045039
0.000448253
0.000446588
0.000445293
0.000444284
0.000443497
0.000442882
0.000442397
0.000442014
0.000441707
0.00044146
0.000441258
0.00044109
0.00044095
0.000440831
0.000440728
0.000440639
0.00044056
0.000440489
0.000440427
0.00044037
0.000440318
0.000440271
0.000440228
0.000440188
0.000440152
0.000440118
0.000440087
0.000440058
0.000440031
0.000440007
0.000439984
0.000439962
0.000439943
0.000439924
0.000439907
0.000439891
0.000439876
0.000439862
0.000439849
0.000439837
0.000439826
0.000439816
0.000439806
0.000439797
0.000439789
0.000439781
0.000439773
0.000439766
0.00043976
0.000439754
0.000439748
0.000439743
0.000439738
0.000439734
0.000439729
0.000439725
0.000439722
0.000439718
0.000439715
0.000439712
0.000439709
0.000439706
0.000439703
0.000439701
0.000439698
0.000439696
0.000439693
0.000439691
0.000439689
0.000439686
0.000439684
0.000439682
0.00043968
0.000439677
0.000439675
0.000439673
0.000439671
0.000439669
0.000439667
0.000439665
0.000439664
0.000439664
0.000942906
0.000848002
0.000769678
0.00070545
0.000653083
0.000610594
0.000576253
0.000548583
0.000526347
0.000508521
0.000494266
0.000482896
0.000473854
0.000466686
0.000461024
0.000456566
0.000453069
0.000450333
0.000448199
0.000446538
0.000445246
0.00044424
0.000443457
0.000442845
0.000442365
0.000441985
0.000441682
0.000441437
0.000441238
0.000441074
0.000440936
0.000440819
0.000440719
0.000440631
0.000440554
0.000440485
0.000440424
0.000440368
0.000440317
0.000440271
0.000440228
0.000440189
0.000440153
0.00044012
0.000440089
0.00044006
0.000440034
0.000440009
0.000439986
0.000439965
0.000439945
0.000439927
0.00043991
0.000439894
0.000439879
0.000439865
0.000439852
0.00043984
0.000439828
0.000439818
0.000439808
0.000439799
0.00043979
0.000439782
0.000439775
0.000439768
0.000439761
0.000439755
0.00043975
0.000439744
0.000439739
0.000439735
0.00043973
0.000439726
0.000439722
0.000439719
0.000439716
0.000439712
0.000439709
0.000439706
0.000439704
0.000439701
0.000439699
0.000439696
0.000439694
0.000439691
0.000439689
0.000439687
0.000439684
0.000439682
0.00043968
0.000439678
0.000439675
0.000439673
0.000439671
0.000439669
0.000439667
0.000439666
0.000439665
0.000439664
0.000942891
0.000847959
0.00076961
0.000705363
0.000652984
0.000610489
0.000576146
0.000548479
0.000526249
0.000508429
0.000494179
0.000482815
0.000473778
0.000466615
0.000460956
0.000456502
0.000453007
0.000450275
0.000448144
0.000446485
0.000445196
0.000444194
0.000443415
0.000442806
0.000442329
0.000441952
0.000441653
0.000441412
0.000441216
0.000441054
0.000440919
0.000440805
0.000440707
0.000440621
0.000440546
0.000440478
0.000440418
0.000440364
0.000440314
0.000440269
0.000440227
0.000440188
0.000440153
0.00044012
0.00044009
0.000440061
0.000440035
0.000440011
0.000439988
0.000439967
0.000439947
0.000439928
0.000439911
0.000439895
0.00043988
0.000439866
0.000439853
0.000439841
0.00043983
0.000439819
0.00043981
0.0004398
0.000439792
0.000439784
0.000439776
0.000439769
0.000439762
0.000439756
0.000439751
0.000439745
0.00043974
0.000439735
0.000439731
0.000439727
0.000439723
0.000439719
0.000439716
0.000439713
0.00043971
0.000439707
0.000439704
0.000439701
0.000439699
0.000439696
0.000439694
0.000439692
0.000439689
0.000439687
0.000439685
0.000439682
0.00043968
0.000439678
0.000439675
0.000439673
0.000439671
0.000439669
0.000439667
0.000439666
0.000439665
0.000439664
0.000942878
0.000847921
0.00076955
0.000705285
0.000652895
0.000610393
0.000576049
0.000548384
0.000526157
0.000508342
0.000494097
0.000482738
0.000473705
0.000466546
0.00046089
0.000456439
0.000452947
0.000450216
0.000448088
0.000446432
0.000445146
0.000444147
0.00044337
0.000442765
0.000442291
0.000441918
0.000441622
0.000441384
0.000441191
0.000441033
0.0004409
0.000440788
0.000440692
0.000440609
0.000440535
0.00044047
0.000440411
0.000440358
0.000440309
0.000440265
0.000440224
0.000440186
0.000440151
0.000440119
0.000440089
0.000440061
0.000440035
0.000440011
0.000439988
0.000439967
0.000439947
0.000439929
0.000439912
0.000439896
0.000439881
0.000439867
0.000439854
0.000439842
0.000439831
0.00043982
0.00043981
0.000439801
0.000439792
0.000439784
0.000439777
0.00043977
0.000439763
0.000439757
0.000439751
0.000439746
0.00043974
0.000439736
0.000439731
0.000439727
0.000439723
0.00043972
0.000439716
0.000439713
0.00043971
0.000439707
0.000439704
0.000439701
0.000439699
0.000439696
0.000439694
0.000439692
0.000439689
0.000439687
0.000439685
0.000439682
0.00043968
0.000439678
0.000439675
0.000439673
0.000439671
0.000439669
0.000439667
0.000439666
0.000439665
0.000439664
0.000942867
0.000847887
0.000769496
0.000705215
0.000652814
0.000610306
0.000575959
0.000548295
0.000526071
0.00050826
0.00049402
0.000482664
0.000473635
0.000466479
0.000460826
0.000456376
0.000452887
0.000450159
0.000448032
0.000446379
0.000445095
0.000444099
0.000443325
0.000442723
0.000442252
0.000441882
0.000441589
0.000441355
0.000441165
0.000441009
0.000440879
0.00044077
0.000440676
0.000440595
0.000440523
0.000440459
0.000440402
0.00044035
0.000440303
0.000440259
0.000440219
0.000440182
0.000440148
0.000440116
0.000440087
0.000440059
0.000440034
0.00044001
0.000439988
0.000439967
0.000439947
0.000439929
0.000439912
0.000439896
0.000439881
0.000439868
0.000439855
0.000439842
0.000439831
0.000439821
0.000439811
0.000439801
0.000439793
0.000439785
0.000439777
0.00043977
0.000439763
0.000439757
0.000439751
0.000439746
0.000439741
0.000439736
0.000439731
0.000439727
0.000439723
0.000439719
0.000439716
0.000439713
0.00043971
0.000439707
0.000439704
0.000439701
0.000439699
0.000439696
0.000439694
0.000439691
0.000439689
0.000439687
0.000439684
0.000439682
0.00043968
0.000439677
0.000439675
0.000439673
0.000439671
0.000439669
0.000439667
0.000439666
0.000439665
0.000439664
0.000942856
0.000847856
0.000769447
0.000705151
0.000652739
0.000610226
0.000575877
0.000548213
0.000525992
0.000508184
0.000493947
0.000482595
0.000473569
0.000466415
0.000460764
0.000456316
0.000452828
0.000450102
0.000447977
0.000446326
0.000445044
0.00044405
0.000443279
0.00044268
0.000442212
0.000441845
0.000441555
0.000441324
0.000441137
0.000440984
0.000440857
0.00044075
0.000440658
0.000440579
0.000440509
0.000440447
0.000440391
0.000440341
0.000440295
0.000440252
0.000440213
0.000440177
0.000440144
0.000440113
0.000440084
0.000440057
0.000440032
0.000440008
0.000439986
0.000439965
0.000439946
0.000439928
0.000439911
0.000439896
0.000439881
0.000439867
0.000439854
0.000439842
0.000439831
0.00043982
0.00043981
0.000439801
0.000439792
0.000439784
0.000439777
0.00043977
0.000439763
0.000439757
0.000439751
0.000439745
0.00043974
0.000439735
0.000439731
0.000439727
0.000439723
0.000439719
0.000439716
0.000439712
0.000439709
0.000439706
0.000439703
0.000439701
0.000439698
0.000439696
0.000439693
0.000439691
0.000439688
0.000439686
0.000439684
0.000439682
0.000439679
0.000439677
0.000439675
0.000439673
0.000439671
0.000439669
0.000439667
0.000439666
0.000439664
0.000439664
0.000942847
0.000847828
0.000769402
0.000705093
0.000652672
0.000610152
0.000575801
0.000548138
0.000525918
0.000508112
0.000493878
0.000482529
0.000473505
0.000466354
0.000460705
0.000456259
0.000452772
0.000450047
0.000447924
0.000446274
0.000444994
0.000444003
0.000443234
0.000442637
0.000442173
0.000441808
0.000441521
0.000441293
0.000441108
0.000440958
0.000440833
0.000440729
0.00044064
0.000440562
0.000440494
0.000440434
0.00044038
0.000440331
0.000440286
0.000440245
0.000440207
0.000440172
0.000440139
0.000440108
0.00044008
0.000440053
0.000440029
0.000440006
0.000439984
0.000439964
0.000439945
0.000439927
0.00043991
0.000439895
0.00043988
0.000439866
0.000439853
0.000439841
0.00043983
0.00043982
0.00043981
0.000439801
0.000439792
0.000439784
0.000439776
0.000439769
0.000439762
0.000439756
0.00043975
0.000439745
0.00043974
0.000439735
0.00043973
0.000439726
0.000439722
0.000439719
0.000439715
0.000439712
0.000439709
0.000439706
0.000439703
0.0004397
0.000439698
0.000439695
0.000439693
0.00043969
0.000439688
0.000439686
0.000439683
0.000439681
0.000439679
0.000439677
0.000439674
0.000439672
0.00043967
0.000439668
0.000439667
0.000439665
0.000439664
0.000439664
0.000942839
0.000847803
0.000769362
0.00070504
0.00065261
0.000610085
0.000575731
0.000548068
0.000525849
0.000508046
0.000493814
0.000482467
0.000473446
0.000466296
0.000460648
0.000456204
0.000452718
0.000449994
0.000447872
0.000446224
0.000444946
0.000443956
0.00044319
0.000442596
0.000442133
0.000441772
0.000441487
0.000441261
0.000441079
0.000440932
0.00044081
0.000440707
0.00044062
0.000440545
0.000440479
0.00044042
0.000440368
0.00044032
0.000440276
0.000440236
0.000440199
0.000440165
0.000440133
0.000440103
0.000440075
0.000440049
0.000440025
0.000440002
0.000439981
0.000439961
0.000439942
0.000439925
0.000439908
0.000439893
0.000439879
0.000439865
0.000439852
0.00043984
0.000439829
0.000439819
0.000439809
0.0004398
0.000439791
0.000439783
0.000439775
0.000439768
0.000439762
0.000439755
0.00043975
0.000439744
0.000439739
0.000439734
0.00043973
0.000439725
0.000439721
0.000439718
0.000439714
0.000439711
0.000439708
0.000439705
0.000439702
0.000439699
0.000439697
0.000439694
0.000439692
0.000439689
0.000439687
0.000439685
0.000439683
0.00043968
0.000439678
0.000439676
0.000439674
0.000439672
0.00043967
0.000439668
0.000439666
0.000439665
0.000439664
0.000439663
0.000942831
0.00084778
0.000769324
0.000704992
0.000652553
0.000610023
0.000575667
0.000548003
0.000525785
0.000507984
0.000493754
0.000482409
0.00047339
0.000466241
0.000460595
0.000456151
0.000452667
0.000449944
0.000447823
0.000446176
0.000444899
0.000443911
0.000443147
0.000442555
0.000442095
0.000441735
0.000441453
0.00044123
0.000441051
0.000440905
0.000440786
0.000440686
0.0004406
0.000440527
0.000440463
0.000440406
0.000440355
0.000440308
0.000440266
0.000440227
0.000440191
0.000440158
0.000440127
0.000440097
0.00044007
0.000440045
0.000440021
0.000439999
0.000439978
0.000439958
0.00043994
0.000439922
0.000439906
0.000439891
0.000439877
0.000439863
0.000439851
0.000439839
0.000439828
0.000439817
0.000439808
0.000439799
0.00043979
0.000439782
0.000439774
0.000439767
0.000439761
0.000439754
0.000439749
0.000439743
0.000439738
0.000439733
0.000439729
0.000439725
0.000439721
0.000439717
0.000439713
0.00043971
0.000439707
0.000439704
0.000439701
0.000439698
0.000439696
0.000439693
0.000439691
0.000439689
0.000439686
0.000439684
0.000439682
0.00043968
0.000439677
0.000439675
0.000439673
0.000439671
0.000439669
0.000439667
0.000439666
0.000439664
0.000439663
0.000439663
0.000942824
0.000847759
0.00076929
0.000704947
0.000652501
0.000609965
0.000575607
0.000547943
0.000525726
0.000507926
0.000493698
0.000482355
0.000473337
0.00046619
0.000460545
0.000456102
0.000452618
0.000449896
0.000447776
0.00044613
0.000444855
0.000443868
0.000443105
0.000442515
0.000442057
0.0004417
0.00044142
0.000441199
0.000441022
0.000440879
0.000440762
0.000440664
0.000440581
0.000440509
0.000440447
0.000440391
0.000440342
0.000440297
0.000440255
0.000440218
0.000440183
0.00044015
0.00044012
0.000440091
0.000440065
0.00044004
0.000440017
0.000439995
0.000439974
0.000439955
0.000439937
0.00043992
0.000439904
0.000439889
0.000439875
0.000439861
0.000439849
0.000439837
0.000439826
0.000439816
0.000439806
0.000439797
0.000439789
0.000439781
0.000439773
0.000439766
0.00043976
0.000439753
0.000439748
0.000439742
0.000439737
0.000439732
0.000439728
0.000439723
0.000439719
0.000439716
0.000439712
0.000439709
0.000439706
0.000439703
0.0004397
0.000439697
0.000439695
0.000439692
0.00043969
0.000439688
0.000439685
0.000439683
0.000439681
0.000439679
0.000439677
0.000439675
0.000439673
0.000439671
0.000439669
0.000439667
0.000439665
0.000439664
0.000439663
0.000439662
0.000942818
0.00084774
0.000769259
0.000704906
0.000652452
0.000609913
0.000575552
0.000547887
0.000525671
0.000507872
0.000493646
0.000482305
0.000473288
0.000466142
0.000460498
0.000456055
0.000452572
0.000449851
0.000447731
0.000446086
0.000444812
0.000443827
0.000443066
0.000442477
0.000442021
0.000441666
0.000441388
0.000441169
0.000440995
0.000440854
0.000440738
0.000440642
0.000440561
0.000440491
0.00044043
0.000440377
0.000440328
0.000440285
0.000440245
0.000440208
0.000440174
0.000440142
0.000440113
0.000440085
0.000440059
0.000440035
0.000440012
0.00043999
0.00043997
0.000439951
0.000439934
0.000439917
0.000439901
0.000439886
0.000439872
0.000439859
0.000439847
0.000439835
0.000439824
0.000439814
0.000439805
0.000439796
0.000439787
0.000439779
0.000439772
0.000439765
0.000439758
0.000439752
0.000439746
0.000439741
0.000439736
0.000439731
0.000439726
0.000439722
0.000439718
0.000439715
0.000439711
0.000439708
0.000439705
0.000439702
0.000439699
0.000439696
0.000439694
0.000439691
0.000439689
0.000439687
0.000439684
0.000439682
0.00043968
0.000439678
0.000439676
0.000439674
0.000439672
0.00043967
0.000439668
0.000439666
0.000439665
0.000439663
0.000439662
0.000439662
0.000942812
0.000847722
0.00076923
0.000704868
0.000652408
0.000609864
0.000575501
0.000547835
0.000525619
0.000507822
0.000493598
0.000482258
0.000473242
0.000466097
0.000460454
0.000456012
0.000452529
0.000449808
0.000447689
0.000446045
0.000444772
0.000443788
0.000443028
0.000442441
0.000441986
0.000441633
0.000441357
0.00044114
0.000440968
0.000440829
0.000440715
0.000440621
0.000440542
0.000440474
0.000440414
0.000440362
0.000440315
0.000440273
0.000440234
0.000440198
0.000440165
0.000440134
0.000440105
0.000440078
0.000440053
0.000440029
0.000440007
0.000439986
0.000439966
0.000439948
0.00043993
0.000439914
0.000439898
0.000439884
0.00043987
0.000439857
0.000439845
0.000439833
0.000439822
0.000439812
0.000439803
0.000439794
0.000439786
0.000439778
0.00043977
0.000439763
0.000439757
0.000439751
0.000439745
0.000439739
0.000439734
0.00043973
0.000439725
0.000439721
0.000439717
0.000439713
0.00043971
0.000439707
0.000439703
0.000439701
0.000439698
0.000439695
0.000439693
0.00043969
0.000439688
0.000439686
0.000439683
0.000439681
0.000439679
0.000439677
0.000439675
0.000439673
0.000439671
0.000439669
0.000439667
0.000439666
0.000439664
0.000439663
0.000439662
0.000439661
0.000942807
0.000847705
0.000769204
0.000704833
0.000652367
0.000609818
0.000575454
0.000547787
0.000525572
0.000507776
0.000493553
0.000482214
0.0004732
0.000466055
0.000460412
0.000455971
0.000452489
0.000449768
0.00044765
0.000446006
0.000444734
0.00044375
0.000442992
0.000442406
0.000441953
0.000441602
0.000441328
0.000441112
0.000440942
0.000440805
0.000440693
0.0004406
0.000440523
0.000440456
0.000440399
0.000440348
0.000440302
0.000440261
0.000440223
0.000440188
0.000440156
0.000440126
0.000440098
0.000440072
0.000440047
0.000440024
0.000440002
0.000439981
0.000439962
0.000439944
0.000439927
0.00043991
0.000439895
0.000439881
0.000439867
0.000439854
0.000439842
0.000439831
0.00043982
0.00043981
0.000439801
0.000439792
0.000439784
0.000439776
0.000439769
0.000439762
0.000439755
0.000439749
0.000439743
0.000439738
0.000439733
0.000439728
0.000439724
0.00043972
0.000439716
0.000439712
0.000439709
0.000439705
0.000439702
0.000439699
0.000439697
0.000439694
0.000439691
0.000439689
0.000439687
0.000439684
0.000439682
0.00043968
0.000439678
0.000439676
0.000439674
0.000439672
0.00043967
0.000439668
0.000439666
0.000439665
0.000439663
0.000439662
0.000439661
0.000439661
0.000942802
0.00084769
0.000769179
0.000704801
0.000652328
0.000609776
0.00057541
0.000547743
0.000525528
0.000507733
0.000493511
0.000482173
0.00047316
0.000466016
0.000460374
0.000455933
0.000452451
0.000449731
0.000447613
0.00044597
0.000444698
0.000443715
0.000442958
0.000442373
0.000441922
0.000441572
0.0004413
0.000441086
0.000440917
0.000440781
0.000440671
0.000440581
0.000440504
0.000440439
0.000440383
0.000440333
0.000440289
0.000440249
0.000440212
0.000440178
0.000440147
0.000440118
0.000440091
0.000440065
0.000440041
0.000440018
0.000439997
0.000439977
0.000439958
0.00043994
0.000439923
0.000439907
0.000439892
0.000439878
0.000439864
0.000439852
0.00043984
0.000439829
0.000439818
0.000439808
0.000439799
0.00043979
0.000439782
0.000439774
0.000439767