/*--------------------------------*- C++ -*----------------------------------*\
  =========                 |
  \\      /  F ield         | OpenFOAM: The Open Source CFD Toolbox
   \\    /   O peration     | Website:  https://openfoam.org
    \\  /    A nd           | Version:  11
     \\/     M anipulation  |
\*---------------------------------------------------------------------------*/
FoamFile
{
    format      ascii;
    class       volVectorField;
    location    "16";
    object      U;
}
// * * * * * * * * * * * * * * * * * * * * * * * * * * * * * * * * * * * * * //

dimensions      [0 1 -1 0 0 0 0];

internalField   nonuniform List<vector> 
10000
(
(0.00524558 -0.000133049 0)
(0.00512737 -0.000784638 0)
(0.00504435 -0.00163594 0)
(0.00490319 -0.00231096 0)
(0.0047033 -0.00288331 0)
(0.00451651 -0.00337641 0)
(0.00433491 -0.00381001 0)
(0.00415889 -0.00419037 0)
(0.00398728 -0.00451852 0)
(0.00381857 -0.00479489 0)
(0.00365182 -0.00502007 0)
(0.00348734 -0.00519615 0)
(0.00332936 -0.00532722 0)
(0.00316256 -0.00541828 0)
(0.00299309 -0.00546568 0)
(0.00283244 -0.00547365 0)
(0.00268456 -0.0054501 0)
(0.00254431 -0.00540114 0)
(0.00240786 -0.00533066 0)
(0.0022771 -0.00524184 0)
(0.00215225 -0.00513802 0)
(0.00203351 -0.00502244 0)
(0.00192099 -0.00489796 0)
(0.00181469 -0.00476711 0)
(0.00171452 -0.00463203 0)
(0.00162032 -0.00449453 0)
(0.0015319 -0.0043561 0)
(0.00144901 -0.00421795 0)
(0.00137139 -0.00408105 0)
(0.00129877 -0.00394615 0)
(0.00123087 -0.00381385 0)
(0.00116741 -0.00368456 0)
(0.00110811 -0.00355859 0)
(0.00105268 -0.00343615 0)
(0.00100088 -0.00331736 0)
(0.000952443 -0.00320229 0)
(0.000907135 -0.00309095 0)
(0.000864731 -0.0029833 0)
(0.000825017 -0.0028793 0)
(0.000787797 -0.00277885 0)
(0.000752886 -0.00268187 0)
(0.000720114 -0.00258825 0)
(0.000689323 -0.00249787 0)
(0.000660367 -0.00241063 0)
(0.000633112 -0.0023264 0)
(0.000607434 -0.00224506 0)
(0.000583221 -0.0021665 0)
(0.000560368 -0.0020906 0)
(0.000538781 -0.00201725 0)
(0.000518371 -0.00194634 0)
(0.00049906 -0.00187777 0)
(0.000480773 -0.00181144 0)
(0.000463443 -0.00174724 0)
(0.000447008 -0.0016851 0)
(0.000431413 -0.00162491 0)
(0.000416605 -0.0015666 0)
(0.000402537 -0.00151009 0)
(0.000389164 -0.00145529 0)
(0.000376448 -0.00140213 0)
(0.00036435 -0.00135054 0)
(0.000352836 -0.00130046 0)
(0.000341876 -0.00125181 0)
(0.00033144 -0.00120455 0)
(0.000321502 -0.00115859 0)
(0.000312036 -0.0011139 0)
(0.00030302 -0.00107041 0)
(0.000294434 -0.00102808 0)
(0.000286256 -0.000986842 0)
(0.000278469 -0.000946664 0)
(0.000271056 -0.000907494 0)
(0.000264001 -0.00086929 0)
(0.000257291 -0.00083201 0)
(0.00025091 -0.000795616 0)
(0.000244847 -0.000760071 0)
(0.00023909 -0.000725343 0)
(0.000233628 -0.0006914 0)
(0.00022845 -0.000658217 0)
(0.000223548 -0.00062577 0)
(0.000218912 -0.000594041 0)
(0.000214533 -0.000563018 0)
(0.000210404 -0.000532695 0)
(0.000206518 -0.000503071 0)
(0.000202867 -0.000474157 0)
(0.000199445 -0.000445971 0)
(0.000196245 -0.000418542 0)
(0.000193262 -0.000391911 0)
(0.000190489 -0.000366134 0)
(0.00018792 -0.000341279 0)
(0.000185551 -0.000317427 0)
(0.000183377 -0.00029468 0)
(0.000181395 -0.00027315 0)
(0.000179602 -0.000252968 0)
(0.000177996 -0.000234283 0)
(0.000176574 -0.000217256 0)
(0.000175332 -0.000202066 0)
(0.000174264 -0.000188909 0)
(0.000173355 -0.000177974 0)
(0.000172592 -0.000169426 0)
(0.000171962 -0.000163497 0)
(0.000171501 -0.000160377 0)
(0.0051443 -0.000221811 0)
(0.00508052 -0.000845105 0)
(0.00503259 -0.00150793 0)
(0.00487944 -0.00213175 0)
(0.00470485 -0.0026842 0)
(0.00452875 -0.00317751 0)
(0.00435233 -0.00361577 0)
(0.00417832 -0.00400002 0)
(0.00400647 -0.00433098 0)
(0.00383626 -0.00460943 0)
(0.00366745 -0.0048368 0)
(0.00350039 -0.00501463 0)
(0.00333594 -0.00514556 0)
(0.00317009 -0.00523229 0)
(0.00301156 -0.00528311 0)
(0.00285567 -0.00530158 0)
(0.00270435 -0.00528819 0)
(0.00256069 -0.0052468 0)
(0.00242306 -0.00518284 0)
(0.00229167 -0.00510057 0)
(0.00216652 -0.00500353 0)
(0.00204763 -0.00489485 0)
(0.00193504 -0.00477731 0)
(0.00182869 -0.00465332 0)
(0.00172846 -0.00452495 0)
(0.00163418 -0.00439395 0)
(0.00154565 -0.00426178 0)
(0.00146262 -0.00412961 0)
(0.00138484 -0.00399839 0)
(0.00131203 -0.00386887 0)
(0.00124391 -0.00374162 0)
(0.00118021 -0.00361707 0)
(0.00112064 -0.00349554 0)
(0.00106494 -0.00337724 0)
(0.00101285 -0.00326231 0)
(0.000964111 -0.00315083 0)
(0.000918497 -0.00304281 0)
(0.000875781 -0.00293825 0)
(0.000835753 -0.0028371 0)
(0.000798219 -0.0027393 0)
(0.000762996 -0.00264477 0)
(0.000729915 -0.00255342 0)
(0.000698819 -0.00246515 0)
(0.000669564 -0.00237986 0)
(0.000642016 -0.00229743 0)
(0.000616053 -0.00221777 0)
(0.000591562 -0.00214076 0)
(0.000568439 -0.00206631 0)
(0.000546591 -0.0019943 0)
(0.000525928 -0.00192465 0)
(0.000506372 -0.00185725 0)
(0.000487849 -0.001792 0)
(0.000470292 -0.00172883 0)
(0.000453638 -0.00166764 0)
(0.000437832 -0.00160835 0)
(0.000422822 -0.00155087 0)
(0.000408559 -0.00149515 0)
(0.000395 -0.00144109 0)
(0.000382104 -0.00138863 0)
(0.000369834 -0.0013377 0)
(0.000358156 -0.00128824 0)
(0.000347038 -0.00124019 0)
(0.000336451 -0.00119348 0)
(0.000326368 -0.00114806 0)
(0.000316764 -0.00110387 0)
(0.000307615 -0.00106086 0)
(0.000298902 -0.00101898 0)
(0.000290603 -0.000978186 0)
(0.0002827 -0.000938424 0)
(0.000275177 -0.000899654 0)
(0.000268017 -0.000861833 0)
(0.000261206 -0.000824921 0)
(0.00025473 -0.000788879 0)
(0.000248576 -0.000753674 0)
(0.000242732 -0.000719273 0)
(0.000237188 -0.000685645 0)
(0.000231933 -0.000652766 0)
(0.000226956 -0.000620613 0)
(0.00022225 -0.000589169 0)
(0.000217806 -0.000558421 0)
(0.000213615 -0.000528365 0)
(0.00020967 -0.000499 0)
(0.000205964 -0.000470338 0)
(0.000202491 -0.000442396 0)
(0.000199243 -0.000415204 0)
(0.000196215 -0.000388805 0)
(0.0001934 -0.000363252 0)
(0.000190793 -0.000338615 0)
(0.000188389 -0.000314977 0)
(0.000186182 -0.000292438 0)
(0.00018417 -0.000271114 0)
(0.000182348 -0.000251135 0)
(0.000180712 -0.000232649 0)
(0.000179261 -0.000215817 0)
(0.000177988 -0.000200814 0)
(0.000176886 -0.000187826 0)
(0.000175942 -0.000177037 0)
(0.000175142 -0.000168637 0)
(0.000174441 -0.000162841 0)
(0.00017388 -0.00015986 0)
(0.00506302 -0.000289199 0)
(0.00502365 -0.000794456 0)
(0.00496153 -0.00138428 0)
(0.00484722 -0.00196322 0)
(0.0047013 -0.00250018 0)
(0.00454242 -0.00298994 0)
(0.00437635 -0.00342806 0)
(0.00420717 -0.00381321 0)
(0.00403678 -0.00414524 0)
(0.00386618 -0.00442486 0)
(0.00369609 -0.00465361 0)
(0.0035273 -0.00483357 0)
(0.00336114 -0.0049676 0)
(0.00319784 -0.00505985 0)
(0.00303878 -0.00511509 0)
(0.00288354 -0.00513683 0)
(0.00273314 -0.00512844 0)
(0.00258867 -0.00509362 0)
(0.00245035 -0.00503644 0)
(0.00231844 -0.00496099 0)
(0.00219295 -0.00487081 0)
(0.00207385 -0.004769 0)
(0.0019611 -0.00465828 0)
(0.0018546 -0.004541 0)
(0.00175421 -0.00441918 0)
(0.00165975 -0.00429452 0)
(0.00157099 -0.00416844 0)
(0.00148769 -0.00404209 0)
(0.00140959 -0.00391641 0)
(0.00133642 -0.00379212 0)
(0.0012679 -0.0036698 0)
(0.00120376 -0.00354988 0)
(0.00114373 -0.00343269 0)
(0.00108753 -0.00331844 0)
(0.00103492 -0.00320729 0)
(0.000985654 -0.00309932 0)
(0.000939494 -0.00299457 0)
(0.000896225 -0.00289304 0)
(0.00085564 -0.00279471 0)
(0.000817548 -0.00269952 0)
(0.000781769 -0.00260741 0)
(0.000748137 -0.0025183 0)
(0.000716496 -0.00243212 0)
(0.000686706 -0.00234875 0)
(0.000658633 -0.00226812 0)
(0.000632157 -0.00219012 0)
(0.000607166 -0.00211467 0)
(0.000583557 -0.00204165 0)
(0.000561235 -0.00197099 0)
(0.000540114 -0.00190258 0)
(0.000520114 -0.00183635 0)
(0.000501162 -0.0017722 0)
(0.00048319 -0.00171005 0)
(0.000466137 -0.00164981 0)
(0.000449946 -0.00159142 0)
(0.000434564 -0.00153479 0)
(0.000419944 -0.00147986 0)
(0.000406041 -0.00142655 0)
(0.000392815 -0.0013748 0)
(0.000380228 -0.00132454 0)
(0.000368246 -0.00127571 0)
(0.000356835 -0.00122825 0)
(0.000345968 -0.00118211 0)
(0.000335616 -0.00113723 0)
(0.000325754 -0.00109355 0)
(0.000316359 -0.00105103 0)
(0.00030741 -0.00100962 0)
(0.000298885 -0.00096927 0)
(0.000290766 -0.000929935 0)
(0.000283037 -0.000891573 0)
(0.00027568 -0.000854143 0)
(0.000268681 -0.000817606 0)
(0.000262025 -0.000781926 0)
(0.000255701 -0.000747069 0)
(0.000249695 -0.000713002 0)
(0.000243996 -0.000679698 0)
(0.000238595 -0.000647132 0)
(0.00023348 -0.000615281 0)
(0.000228642 -0.000584129 0)
(0.000224073 -0.000553665 0)
(0.000219766 -0.000523884 0)
(0.000215711 -0.000494786 0)
(0.000211901 -0.000466383 0)
(0.000208331 -0.000438693 0)
(0.000204992 -0.000411747 0)
(0.000201879 -0.000385586 0)
(0.000198986 -0.000360265 0)
(0.000196306 -0.000335854 0)
(0.000193834 -0.000312437 0)
(0.000191565 -0.000290113 0)
(0.000189493 -0.000268999 0)
(0.000187613 -0.000249227 0)
(0.00018592 -0.000230943 0)
(0.000184409 -0.000214308 0)
(0.000183071 -0.000199494 0)
(0.000181899 -0.000186686 0)
(0.00018088 -0.00017607 0)
(0.000179999 -0.00016784 0)
(0.000179177 -0.000162193 0)
(0.000178471 -0.000159294 0)
(0.00501517 -0.000274139 0)
(0.00498455 -0.000769281 0)
(0.00492864 -0.00130337 0)
(0.00483213 -0.00184183 0)
(0.00470487 -0.00235598 0)
(0.00456001 -0.00283241 0)
(0.0044035 -0.00326323 0)
(0.00424007 -0.00364456 0)
(0.00407275 -0.00397485 0)
(0.00390356 -0.00425413 0)
(0.00373399 -0.00448359 0)
(0.00356542 -0.00466529 0)
(0.00339913 -0.00480207 0)
(0.0032361 -0.00489808 0)
(0.00307712 -0.00495749 0)
(0.00292231 -0.0049838 0)
(0.00277227 -0.00498069 0)
(0.00262776 -0.00495181 0)
(0.00248929 -0.00490096 0)
(0.00235714 -0.00483195 0)
(0.0022314 -0.00474821 0)
(0.00211206 -0.0046528 0)
(0.00199906 -0.00454838 0)
(0.00189228 -0.00443728 0)
(0.00179158 -0.00432147 0)
(0.00169674 -0.00420261 0)
(0.00160756 -0.0040821 0)
(0.00152378 -0.00396106 0)
(0.00144515 -0.00384042 0)
(0.0013714 -0.0037209 0)
(0.00130225 -0.00360308 0)
(0.00123744 -0.00348739 0)
(0.0011767 -0.00337416 0)
(0.00111976 -0.00326361 0)
(0.00106639 -0.00315592 0)
(0.00101635 -0.00305116 0)
(0.000969401 -0.00294941 0)
(0.000925337 -0.00285067 0)
(0.000883955 -0.00275493 0)
(0.000845069 -0.00266214 0)
(0.000808501 -0.00257227 0)
(0.000774089 -0.00248524 0)
(0.00074168 -0.00240098 0)
(0.000711135 -0.00231941 0)
(0.000682324 -0.00224044 0)
(0.000655127 -0.002164 0)
(0.000629432 -0.00208998 0)
(0.000605139 -0.00201831 0)
(0.000582153 -0.0019489 0)
(0.000560387 -0.00188167 0)
(0.000539763 -0.00181653 0)
(0.000520208 -0.0017534 0)
(0.000501653 -0.00169221 0)
(0.000484037 -0.00163288 0)
(0.000467303 -0.00157533 0)
(0.000451399 -0.0015195 0)
(0.000436275 -0.00146532 0)
(0.000421888 -0.00141272 0)
(0.000408195 -0.00136163 0)
(0.00039516 -0.001312 0)
(0.000382747 -0.00126377 0)
(0.000370923 -0.00121688 0)
(0.000359659 -0.00117128 0)
(0.000348926 -0.00112691 0)
(0.000338699 -0.00108372 0)
(0.000328955 -0.00104166 0)
(0.00031967 -0.00100069 0)
(0.000310824 -0.000960765 0)
(0.000302399 -0.000921835 0)
(0.000294376 -0.000883861 0)
(0.000286739 -0.000846803 0)
(0.000279472 -0.000810624 0)
(0.000272562 -0.000775288 0)
(0.000265994 -0.000740762 0)
(0.000259757 -0.000707015 0)
(0.000253838 -0.00067402 0)
(0.000248228 -0.000641751 0)
(0.000242914 -0.000610188 0)
(0.000237889 -0.000579316 0)
(0.000233143 -0.000549123 0)
(0.000228668 -0.000519604 0)
(0.000224455 -0.000490761 0)
(0.000220498 -0.000462606 0)
(0.000216788 -0.000435156 0)
(0.00021332 -0.000408444 0)
(0.000210085 -0.000382511 0)
(0.000207078 -0.000357412 0)
(0.000204293 -0.000333216 0)
(0.000201723 -0.000310009 0)
(0.000199361 -0.000287889 0)
(0.000197202 -0.000266973 0)
(0.000195238 -0.000247392 0)
(0.000193462 -0.000229293 0)
(0.000191866 -0.000212835 0)
(0.000190441 -0.000198189 0)
(0.000189175 -0.000185537 0)
(0.000188054 -0.000175063 0)
(0.000187057 -0.00016696 0)
(0.00018608 -0.000161415 0)
(0.000185173 -0.000158569 0)
(0.00500374 -0.000263333 0)
(0.00497392 -0.000737971 0)
(0.00491854 -0.00123299 0)
(0.00483047 -0.00173712 0)
(0.00471496 -0.00222703 0)
(0.00458067 -0.00268711 0)
(0.0044326 -0.00310737 0)
(0.00427533 -0.00348217 0)
(0.00411225 -0.00380876 0)
(0.00394591 -0.00408643 0)
(0.00377829 -0.00431592 0)
(0.00361108 -0.00449906 0)
(0.00344575 -0.00463861 0)
(0.0032834 -0.00473811 0)
(0.00312478 -0.00480146 0)
(0.00297038 -0.00483234 0)
(0.00282078 -0.00483435 0)
(0.00267656 -0.00481114 0)
(0.00253821 -0.00476638 0)
(0.00240602 -0.00470364 0)
(0.00228013 -0.00462624 0)
(0.00216057 -0.00453714 0)
(0.00204727 -0.00443894 0)
(0.00194013 -0.00433392 0)
(0.00183899 -0.00422401 0)
(0.00174364 -0.00411085 0)
(0.00165388 -0.0039958 0)
(0.00156945 -0.00387997 0)
(0.0014901 -0.00376428 0)
(0.00141557 -0.00364945 0)
(0.0013456 -0.00353605 0)
(0.00127991 -0.00342452 0)
(0.00121826 -0.00331519 0)
(0.00116038 -0.0032083 0)
(0.00110605 -0.00310402 0)
(0.00105502 -0.00300245 0)
(0.00100708 -0.00290367 0)
(0.000962017 -0.0028077 0)
(0.000919639 -0.00271453 0)
(0.000879759 -0.00262415 0)
(0.000842208 -0.0025365 0)
(0.000806825 -0.00245155 0)
(0.000773461 -0.00236922 0)
(0.000741978 -0.00228945 0)
(0.000712248 -0.00221216 0)
(0.000684154 -0.00213727 0)
(0.000657585 -0.00206471 0)
(0.000632441 -0.0019944 0)
(0.000608628 -0.00192626 0)
(0.000586061 -0.00186022 0)
(0.00056466 -0.00179619 0)
(0.000544353 -0.0017341 0)
(0.000525072 -0.00167389 0)
(0.000506754 -0.00161547 0)
(0.000489342 -0.00155879 0)
(0.000472785 -0.00150377 0)
(0.000457031 -0.00145035 0)
(0.000442037 -0.00139847 0)
(0.000427761 -0.00134807 0)
(0.000414165 -0.00129909 0)
(0.000401212 -0.00125147 0)
(0.000388869 -0.00120516 0)
(0.000377107 -0.00116011 0)
(0.000365896 -0.00111627 0)
(0.00035521 -0.00107358 0)
(0.000345025 -0.001032 0)
(0.000335318 -0.000991486 0)
(0.000326069 -0.000951994 0)
(0.000317257 -0.000913481 0)
(0.000308864 -0.000875907 0)
(0.000300873 -0.000839233 0)
(0.000293269 -0.000803423 0)
(0.000286036 -0.000768442 0)
(0.000279162 -0.000734257 0)
(0.000272632 -0.00070084 0)
(0.000266435 -0.000668162 0)
(0.00026056 -0.000636201 0)
(0.000254996 -0.000604936 0)
(0.000249733 -0.000574352 0)
(0.000244762 -0.000544438 0)
(0.000240075 -0.00051519 0)
(0.000235662 -0.00048661 0)
(0.000231517 -0.00045871 0)
(0.00022763 -0.000431509 0)
(0.000223996 -0.000405038 0)
(0.000220607 -0.00037934 0)
(0.000217455 -0.000354468 0)
(0.000214535 -0.000330494 0)
(0.000211838 -0.000307501 0)
(0.000209358 -0.000285589 0)
(0.000207086 -0.000264873 0)
(0.000205014 -0.000245485 0)
(0.000203134 -0.000227569 0)
(0.000201434 -0.000211284 0)
(0.000199902 -0.0001968 0)
(0.000198525 -0.000184292 0)
(0.000197286 -0.000173944 0)
(0.000196161 -0.000165945 0)
(0.000195023 -0.000160472 0)
(0.000193919 -0.00015767 0)
(0.00500035 -0.000246677 0)
(0.004971 -0.00069956 0)
(0.00491723 -0.00116435 0)
(0.00483522 -0.00164015 0)
(0.00472855 -0.00210732 0)
(0.00460307 -0.00255025 0)
(0.00446284 -0.00295825 0)
(0.00431198 -0.0033247 0)
(0.00415393 -0.00364603 0)
(0.00399146 -0.00392089 0)
(0.00382683 -0.00414956 0)
(0.00366191 -0.00433354 0)
(0.00349829 -0.00447531 0)
(0.00333719 -0.00457804 0)
(0.00317948 -0.00464529 0)
(0.00302585 -0.00468064 0)
(0.0028769 -0.00468769 0)
(0.00273319 -0.00467003 0)
(0.00259515 -0.0046312 0)
(0.00246309 -0.00457462 0)
(0.00233717 -0.00450347 0)
(0.00221743 -0.00442061 0)
(0.00210384 -0.00432858 0)
(0.0019963 -0.00422959 0)
(0.00189465 -0.00412553 0)
(0.0017987 -0.00401802 0)
(0.00170825 -0.00390838 0)
(0.00162304 -0.00379773 0)
(0.00154285 -0.00368695 0)
(0.0014674 -0.00357678 0)
(0.00139645 -0.00346777 0)
(0.00132974 -0.00336038 0)
(0.00126702 -0.00325494 0)
(0.00120805 -0.00315169 0)
(0.0011526 -0.00305082 0)
(0.00110043 -0.00295244 0)
(0.00105134 -0.00285664 0)
(0.00100512 -0.00276344 0)
(0.000961591 -0.00267287 0)
(0.000920565 -0.0025849 0)
(0.000881877 -0.00249951 0)
(0.000845371 -0.00241666 0)
(0.000810902 -0.00233629 0)
(0.000778335 -0.00225834 0)
(0.000747543 -0.00218276 0)
(0.000718411 -0.00210946 0)
(0.000690829 -0.00203839 0)
(0.000664699 -0.00196947 0)
(0.000639928 -0.00190263 0)
(0.000616431 -0.00183781 0)
(0.000594128 -0.00177492 0)
(0.000572947 -0.00171391 0)
(0.00055282 -0.0016547 0)
(0.000533684 -0.00159723 0)
(0.000515483 -0.00154144 0)
(0.000498163 -0.00148727 0)
(0.000481675 -0.00143464 0)
(0.000465972 -0.00138351 0)
(0.000451014 -0.00133382 0)
(0.00043676 -0.00128551 0)
(0.000423175 -0.00123853 0)
(0.000410224 -0.00119283 0)
(0.000397877 -0.00114836 0)
(0.000386104 -0.00110506 0)
(0.000374879 -0.00106289 0)
(0.000364177 -0.00102182 0)
(0.000353974 -0.00098178 0)
(0.000344249 -0.000942745 0)
(0.000334982 -0.00090467 0)
(0.000326153 -0.000867515 0)
(0.000317746 -0.000831245 0)
(0.000309743 -0.000795822 0)
(0.00030213 -0.000761214 0)
(0.000294892 -0.000727389 0)
(0.000288017 -0.000694318 0)
(0.000281491 -0.000661976 0)
(0.000275303 -0.000630339 0)
(0.000269442 -0.000599387 0)
(0.000263899 -0.000569107 0)
(0.000258662 -0.000539487 0)
(0.000253723 -0.000510525 0)
(0.000249073 -0.000482223 0)
(0.000244704 -0.000454593 0)
(0.000240608 -0.000427654 0)
(0.000236778 -0.000401437 0)
(0.000233204 -0.000375986 0)
(0.00022988 -0.000351354 0)
(0.000226798 -0.000327612 0)
(0.000223951 -0.000304844 0)
(0.000221328 -0.000283148 0)
(0.000218922 -0.00026264 0)
(0.000216723 -0.00024345 0)
(0.000214719 -0.000225722 0)
(0.000212898 -0.000209612 0)
(0.000211245 -0.000195286 0)
(0.000209746 -0.00018292 0)
(0.000208379 -0.000172692 0)
(0.000207122 -0.000164785 0)
(0.00020583 -0.000159374 0)
(0.000204555 -0.000156606 0)
(0.004998 -0.000229761 0)
(0.00497048 -0.000659554 0)
(0.00491927 -0.00109892 0)
(0.00484286 -0.00154995 0)
(0.00474373 -0.00199572 0)
(0.0046261 -0.00242141 0)
(0.00449332 -0.00281627 0)
(0.00434905 -0.00317324 0)
(0.00419656 -0.0034882 0)
(0.0040387 -0.00375926 0)
(0.00387782 -0.00398628 0)
(0.00371595 -0.00417042 0)
(0.00355472 -0.00431381 0)
(0.00339547 -0.00441929 0)
(0.00323922 -0.00449013 0)
(0.00308677 -0.00452975 0)
(0.00293877 -0.00454167 0)
(0.00279579 -0.00452936 0)
(0.00265826 -0.00449627 0)
(0.00252649 -0.00444566 0)
(0.00240066 -0.00438058 0)
(0.00228084 -0.00430381 0)
(0.002167 -0.00421781 0)
(0.00205906 -0.00412473 0)
(0.00195688 -0.00402642 0)
(0.00186029 -0.00392445 0)
(0.00176909 -0.00382014 0)
(0.00168303 -0.00371458 0)
(0.0016019 -0.00360864 0)
(0.00152545 -0.00350306 0)
(0.00145343 -0.0033984 0)
(0.00138559 -0.0032951 0)
(0.0013217 -0.00319351 0)
(0.00126152 -0.00309388 0)
(0.00120483 -0.0029964 0)
(0.00115141 -0.0029012 0)
(0.00110106 -0.00280836 0)
(0.00105357 -0.00271795 0)
(0.00100877 -0.00262997 0)
(0.000966481 -0.00254443 0)
(0.000926542 -0.00246131 0)
(0.0008888 -0.00238057 0)
(0.000853113 -0.00230218 0)
(0.000819348 -0.00222609 0)
(0.000787383 -0.00215223 0)
(0.000757103 -0.00208055 0)
(0.000728402 -0.002011 0)
(0.00070118 -0.0019435 0)
(0.000675346 -0.00187799 0)
(0.000650816 -0.00181441 0)
(0.000627511 -0.0017527 0)
(0.000605358 -0.00169279 0)
(0.00058429 -0.00163462 0)
(0.000564244 -0.00157813 0)
(0.000545162 -0.00152327 0)
(0.000526991 -0.00146996 0)
(0.000509681 -0.00141816 0)
(0.000493187 -0.00136781 0)
(0.000477464 -0.00131886 0)
(0.000462474 -0.00127125 0)
(0.00044818 -0.00122493 0)
(0.000434547 -0.00117986 0)
(0.000421543 -0.00113599 0)
(0.00040914 -0.00109326 0)
(0.000397308 -0.00105165 0)
(0.000386024 -0.00101109 0)
(0.000375263 -0.000971554 0)
(0.000365002 -0.000932997 0)
(0.000355221 -0.000895381 0)
(0.0003459 -0.000858667 0)
(0.000337022 -0.000822819 0)
(0.00032857 -0.000787803 0)
(0.000320527 -0.000753587 0)
(0.000312879 -0.000720141 0)
(0.000305613 -0.000687435 0)
(0.000298715 -0.000655445 0)
(0.000292173 -0.000624149 0)
(0.000285976 -0.000593528 0)
(0.000280114 -0.000563568 0)
(0.000274575 -0.000534259 0)
(0.000269351 -0.000505598 0)
(0.000264432 -0.000477589 0)
(0.00025981 -0.000450243 0)
(0.000255476 -0.00042358 0)
(0.000251421 -0.000397632 0)
(0.000247638 -0.00037244 0)
(0.000244118 -0.000348061 0)
(0.000240853 -0.000324562 0)
(0.000237833 -0.000302029 0)
(0.000235049 -0.000280559 0)
(0.00023249 -0.000260267 0)
(0.000230146 -0.000241281 0)
(0.000228003 -0.000223744 0)
(0.000226047 -0.000207811 0)
(0.000224263 -0.000193645 0)
(0.000222632 -0.000181419 0)
(0.000221133 -0.000171307 0)
(0.000219742 -0.000163488 0)
(0.0002183 -0.000158135 0)
(0.000216866 -0.000155396 0)
(0.00499661 -0.000213644 0)
(0.00497124 -0.00062082 0)
(0.00492298 -0.00103731 0)
(0.00485177 -0.00146581 0)
(0.00475939 -0.00189133 0)
(0.00464896 -0.00229997 0)
(0.00452331 -0.00268129 0)
(0.00438567 -0.00302805 0)
(0.00423909 -0.00333578 0)
(0.00408634 -0.00360222 0)
(0.00392982 -0.00382684 0)
(0.00377158 -0.00401043 0)
(0.00361334 -0.00415482 0)
(0.00345652 -0.00426254 0)
(0.00330222 -0.00433657 0)
(0.00315135 -0.00438017 0)
(0.00300462 -0.00439669 0)
(0.00286264 -0.00438949 0)
(0.00272583 -0.00436188 0)
(0.00259453 -0.004317 0)
(0.00246893 -0.00425779 0)
(0.00234912 -0.00418692 0)
(0.0022351 -0.00410678 0)
(0.00212681 -0.00401946 0)
(0.00202413 -0.00392675 0)
(0.0019269 -0.00383021 0)
(0.00183492 -0.00373111 0)
(0.00174799 -0.00363053 0)
(0.00166589 -0.00352936 0)
(0.00158838 -0.0034283 0)
(0.00151523 -0.00332791 0)
(0.0014462 -0.00322865 0)
(0.00138108 -0.00313086 0)
(0.00131962 -0.00303482 0)
(0.00126162 -0.0029407 0)
(0.00120687 -0.00284866 0)
(0.00115518 -0.00275879 0)
(0.00110634 -0.00267115 0)
(0.00106019 -0.00258578 0)
(0.00101656 -0.00250267 0)
(0.000975292 -0.00242183 0)
(0.000936232 -0.00234323 0)
(0.000899246 -0.00226684 0)
(0.000864203 -0.00219261 0)
(0.000830984 -0.00212051 0)
(0.000799476 -0.00205048 0)
(0.000769574 -0.00198247 0)
(0.000741181 -0.00191641 0)
(0.000714206 -0.00185227 0)
(0.000688566 -0.00178997 0)
(0.000664182 -0.00172946 0)
(0.000640981 -0.00167069 0)
(0.000618898 -0.00161359 0)
(0.000597868 -0.00155811 0)
(0.000577835 -0.00150419 0)
(0.000558743 -0.00145179 0)
(0.000540544 -0.00140084 0)
(0.00052319 -0.0013513 0)
(0.000506639 -0.00130311 0)
(0.000490849 -0.00125623 0)
(0.000475784 -0.00121061 0)
(0.000461409 -0.0011662 0)
(0.00044769 -0.00112295 0)
(0.000434599 -0.00108083 0)
(0.000422107 -0.00103978 0)
(0.000410188 -0.000999771 0)
(0.000398816 -0.000960758 0)
(0.00038797 -0.000922703 0)
(0.000377628 -0.000885568 0)
(0.000367769 -0.000849317 0)
(0.000358376 -0.000813914 0)
(0.000349431 -0.000779327 0)
(0.000340918 -0.000745523 0)
(0.00033282 -0.000712475 0)
(0.000325125 -0.000680154 0)
(0.000317819 -0.000648536 0)
(0.000310889 -0.0006176 0)
(0.000304323 -0.000587328 0)
(0.00029811 -0.000557706 0)
(0.00029224 -0.000528725 0)
(0.000286702 -0.000500382 0)
(0.000281487 -0.000472682 0)
(0.000276586 -0.000445636 0)
(0.000271989 -0.000419265 0)
(0.000267688 -0.0003936 0)
(0.000263674 -0.000368682 0)
(0.000259937 -0.000344568 0)
(0.000256469 -0.000321326 0)
(0.000253259 -0.000299039 0)
(0.000250296 -0.000277805 0)
(0.00024757 -0.000257738 0)
(0.000245067 -0.000238964 0)
(0.000242773 -0.000221624 0)
(0.000240672 -0.000205872 0)
(0.000238746 -0.000191868 0)
(0.000236977 -0.000179783 0)
(0.000235342 -0.000169787 0)
(0.000233816 -0.000162057 0)
(0.000232229 -0.000156761 0)
(0.000230644 -0.000154051 0)
(0.00499604 -0.000198573 0)
(0.00497272 -0.00058402 0)
(0.00492751 -0.000979575 0)
(0.00486113 -0.00138724 0)
(0.00477488 -0.00179351 0)
(0.00467114 -0.00218546 0)
(0.0045523 -0.00255307 0)
(0.00442122 -0.00288914 0)
(0.0042807 -0.00318901 0)
(0.00413339 -0.00345013 0)
(0.00398164 -0.00367164 0)
(0.00382751 -0.00385404 0)
(0.00367275 -0.00399882 0)
(0.00351882 -0.00410824 0)
(0.00336692 -0.00418502 0)
(0.00321801 -0.00423221 0)
(0.00307288 -0.004253 0)
(0.00293215 -0.00425061 0)
(0.00279629 -0.0042282 0)
(0.00266565 -0.00418878 0)
(0.00254043 -0.0041352 0)
(0.00242076 -0.00407001 0)
(0.00230666 -0.00399553 0)
(0.00219809 -0.00391378 0)
(0.00209496 -0.00382653 0)
(0.00199712 -0.00373526 0)
(0.00190439 -0.00364126 0)
(0.0018166 -0.00354557 0)
(0.00173352 -0.00344905 0)
(0.00165494 -0.00335242 0)
(0.00158065 -0.00325625 0)
(0.00151041 -0.00316097 0)
(0.00144402 -0.00306694 0)
(0.00138126 -0.00297444 0)
(0.00132192 -0.00288367 0)
(0.0012658 -0.00279477 0)
(0.00121272 -0.00270785 0)
(0.00116249 -0.00262298 0)
(0.00111495 -0.00254021 0)
(0.00106993 -0.00245954 0)
(0.00102728 -0.00238099 0)
(0.000986848 -0.00230454 0)
(0.000948509 -0.00223017 0)
(0.000912135 -0.00215784 0)
(0.000877608 -0.00208752 0)
(0.000844817 -0.00201916 0)
(0.000813659 -0.00195272 0)
(0.000784039 -0.00188814 0)
(0.000755868 -0.00182539 0)
(0.000729062 -0.0017644 0)
(0.000703544 -0.00170513 0)
(0.000679242 -0.00164752 0)
(0.000656089 -0.00159152 0)
(0.000634022 -0.00153708 0)
(0.000612983 -0.00148415 0)
(0.000592919 -0.00143268 0)
(0.000573778 -0.00138262 0)
(0.000555514 -0.00133391 0)
(0.000538084 -0.00128652 0)
(0.000521446 -0.0012404 0)
(0.000505562 -0.0011955 0)
(0.000490398 -0.00115178 0)
(0.000475919 -0.00110919 0)
(0.000462096 -0.00106769 0)
(0.0004489 -0.00102724 0)
(0.000436303 -0.000987806 0)
(0.000424281 -0.000949343 0)
(0.00041281 -0.000911815 0)
(0.000401868 -0.000875186 0)
(0.000391434 -0.000839421 0)
(0.000381491 -0.000804486 0)
(0.000372018 -0.00077035 0)
(0.000363001 -0.000736982 0)
(0.000354422 -0.000704353 0)
(0.000346267 -0.000672438 0)
(0.000338523 -0.000641213 0)
(0.000331176 -0.000610657 0)
(0.000324214 -0.000580754 0)
(0.000317625 -0.000551489 0)
(0.000311398 -0.000522855 0)
(0.000305523 -0.000494849 0)
(0.00029999 -0.000467476 0)
(0.000294789 -0.000440748 0)
(0.000289909 -0.000414685 0)
(0.000285343 -0.000389319 0)
(0.000281079 -0.000364692 0)
(0.000277109 -0.000340858 0)
(0.000273422 -0.000317886 0)
(0.000270008 -0.000295858 0)
(0.000266853 -0.000274872 0)
(0.000263947 -0.000255039 0)
(0.000261274 -0.000236486 0)
(0.000258818 -0.000219351 0)
(0.000256563 -0.000203786 0)
(0.00025449 -0.000189949 0)
(0.000252578 -0.000178007 0)
(0.000250805 -0.000168131 0)
(0.000249144 -0.00016049 0)
(0.000247412 -0.000155254 0)
(0.00024568 -0.000152574 0)
(0.0049958 -0.000184577 0)
(0.00497457 -0.000549434 0)
(0.00493238 -0.000925622 0)
(0.00487047 -0.00131382 0)
(0.00478985 -0.00170176 0)
(0.00469231 -0.00207746 0)
(0.00457995 -0.00243139 0)
(0.00445527 -0.00275649 0)
(0.00432084 -0.00304802 0)
(0.00417912 -0.00330324 0)
(0.00403241 -0.00352103 0)
(0.00388272 -0.00370161 0)
(0.0037318 -0.0038462 0)
(0.00358115 -0.00395677 0)
(0.00343201 -0.00403583 0)
(0.00328541 -0.00408619 0)
(0.00314217 -0.00411087 0)
(0.00300295 -0.00411294 0)
(0.00286825 -0.0040954 0)
(0.00273845 -0.00406117 0)
(0.00261378 -0.00401293 0)
(0.00249439 -0.00395318 0)
(0.00238034 -0.00388414 0)
(0.00227159 -0.00380778 0)
(0.00216809 -0.00372579 0)
(0.0020697 -0.00363966 0)
(0.00197628 -0.00355061 0)
(0.00188766 -0.00345968 0)
(0.00180364 -0.00336772 0)
(0.00172402 -0.00327544 0)
(0.0016486 -0.0031834 0)
(0.00157716 -0.00309204 0)
(0.00150951 -0.00300173 0)
(0.00144544 -0.00291273 0)
(0.00138475 -0.00282526 0)
(0.00132726 -0.00273948 0)
(0.00127279 -0.0026555 0)
(0.00122115 -0.0025734 0)
(0.0011722 -0.00249323 0)
(0.00112577 -0.00241501 0)
(0.00108171 -0.00233876 0)
(0.00103989 -0.00226448 0)
(0.00100017 -0.00219214 0)
(0.000962437 -0.00212172 0)
(0.000926571 -0.0020532 0)
(0.000892466 -0.00198654 0)
(0.00086002 -0.0019217 0)
(0.000829139 -0.00185863 0)
(0.000799737 -0.0017973 0)
(0.00077173 -0.00173766 0)
(0.000745042 -0.00167965 0)
(0.000719601 -0.00162324 0)
(0.000695341 -0.00156838 0)
(0.0006722 -0.00151501 0)
(0.000650119 -0.0014631 0)
(0.000629045 -0.00141259 0)
(0.000608926 -0.00136344 0)
(0.000589716 -0.00131561 0)
(0.000571371 -0.00126905 0)
(0.000553849 -0.00122372 0)
(0.000537111 -0.00117957 0)
(0.000521123 -0.00113656 0)
(0.000505851 -0.00109466 0)
(0.000491262 -0.00105381 0)
(0.000477329 -0.00101399 0)
(0.000464023 -0.000975158 0)
(0.000451319 -0.000937271 0)
(0.000439193 -0.000900296 0)
(0.000427621 -0.000864199 0)
(0.000416585 -0.000828945 0)
(0.000406062 -0.000794503 0)
(0.000396036 -0.000760842 0)
(0.000386488 -0.000727932 0)
(0.000377403 -0.000695746 0)
(0.000368765 -0.00066426 0)
(0.000360559 -0.000633449 0)
(0.000352773 -0.000603295 0)
(0.000345393 -0.000573781 0)
(0.000338408 -0.000544894 0)
(0.000331805 -0.000516627 0)
(0.000325574 -0.000488978 0)
(0.000319705 -0.000461951 0)
(0.000314186 -0.000435559 0)
(0.000309008 -0.000409822 0)
(0.000304161 -0.000384772 0)
(0.000299634 -0.000360451 0)
(0.000295417 -0.000336913 0)
(0.000291498 -0.000314226 0)
(0.000287867 -0.000292472 0)
(0.00028451 -0.000271746 0)
(0.000281413 -0.00025216 0)
(0.000278561 -0.000233838 0)
(0.000275937 -0.000216917 0)
(0.000273522 -0.000201546 0)
(0.000271296 -0.000187882 0)
(0.000269239 -0.000176089 0)
(0.000267324 -0.000166335 0)
(0.000265528 -0.000158789 0)
(0.000263652 -0.000153617 0)
(0.000261774 -0.000150969 0)
(0.00499582 -0.000171726 0)
(0.00497657 -0.000517212 0)
(0.00493728 -0.000875275 0)
(0.00487951 -0.00124518 0)
(0.00480404 -0.00161565 0)
(0.00471229 -0.0019756 0)
(0.00460605 -0.00231599 0)
(0.00448753 -0.00262999 0)
(0.00435908 -0.00291285 0)
(0.004223 -0.0031617 0)
(0.00408146 -0.00337524 0)
(0.00393641 -0.00355344 0)
(0.00378959 -0.00369728 0)
(0.00364251 -0.00380848 0)
(0.00349643 -0.00388931 0)
(0.00335241 -0.0039424 0)
(0.00321132 -0.00397057 0)
(0.00307385 -0.00397671 0)
(0.00294053 -0.00396371 0)
(0.00281175 -0.00393433 0)
(0.0026878 -0.00389115 0)
(0.00256885 -0.00383657 0)
(0.00245496 -0.00377274 0)
(0.00234616 -0.00370154 0)
(0.00224239 -0.00362464 0)
(0.00214355 -0.00354347 0)
(0.00204952 -0.00345923 0)
(0.00196013 -0.00337293 0)
(0.00187523 -0.00328542 0)
(0.00179462 -0.00319739 0)
(0.00171811 -0.00310939 0)
(0.00164551 -0.00302189 0)
(0.00157663 -0.00293523 0)
(0.00151128 -0.00284969 0)
(0.00144927 -0.0027655 0)
(0.00139042 -0.00268281 0)
(0.00133457 -0.00260175 0)
(0.00128154 -0.0025224 0)
(0.00123118 -0.00244483 0)
(0.00118334 -0.00236906 0)
(0.00113788 -0.00229512 0)
(0.00109466 -0.00222301 0)
(0.00105356 -0.00215272 0)
(0.00101446 -0.00208425 0)
(0.00097725 -0.00201755 0)
(0.000941818 -0.00195261 0)
(0.000908071 -0.00188939 0)
(0.000875915 -0.00182787 0)
(0.000845264 -0.00176798 0)
(0.000816038 -0.00170971 0)
(0.000788161 -0.00165301 0)
(0.000761562 -0.00159782 0)
(0.000736175 -0.00154412 0)
(0.000711938 -0.00149186 0)
(0.000688792 -0.001441 0)
(0.000666685 -0.00139149 0)
(0.000645565 -0.00134329 0)
(0.000625385 -0.00129636 0)