/*--------------------------------*- C++ -*----------------------------------*\
  =========                 |
  \\      /  F ield         | OpenFOAM: The Open Source CFD Toolbox
   \\    /   O peration     | Website:  https://openfoam.org
    \\  /    A nd           | Version:  11
     \\/     M anipulation  |
\*---------------------------------------------------------------------------*/
FoamFile
{
    format      ascii;
    class       volScalarField;
    location    "562";
    object      k;
}
// * * * * * * * * * * * * * * * * * * * * * * * * * * * * * * * * * * * * * //

dimensions      [0 2 -2 0 0 0 0];

internalField   nonuniform List<scalar> 
10000
(
0.000939687
0.000835718
0.000745889
0.000668032
0.000600338
0.000541297
0.000489642
0.000444312
0.000404411
0.000369186
0.000337997
0.000310302
0.000285641
0.000263621
0.000243906
0.000226208
0.00021028
0.000195909
0.000182911
0.000171127
0.000160419
0.000150666
0.000141765
0.000133622
0.000126159
0.000119305
0.000112998
0.000107183
0.000101813
9.68434e-05
9.22375e-05
8.79614e-05
8.3985e-05
8.02815e-05
7.68269e-05
7.35996e-05
7.05805e-05
6.77522e-05
6.50989e-05
6.26067e-05
6.02627e-05
5.80555e-05
5.59745e-05
5.40102e-05
5.2154e-05
5.03981e-05
4.87351e-05
4.71587e-05
4.56627e-05
4.42416e-05
4.28905e-05
4.16048e-05
4.038e-05
3.92125e-05
3.80985e-05
3.70347e-05
3.60182e-05
3.5046e-05
3.41156e-05
3.32246e-05
3.23707e-05
3.1552e-05
3.07664e-05
3.00124e-05
2.92882e-05
2.85924e-05
2.79236e-05
2.72806e-05
2.66621e-05
2.60672e-05
2.54949e-05
2.49443e-05
2.44146e-05
2.3905e-05
2.3415e-05
2.2944e-05
2.24914e-05
2.20568e-05
2.16397e-05
2.12399e-05
2.08571e-05
2.0491e-05
2.01413e-05
1.98079e-05
1.94907e-05
1.91895e-05
1.89042e-05
1.86348e-05
1.83812e-05
1.81433e-05
1.79213e-05
1.77152e-05
1.75253e-05
1.73519e-05
1.71956e-05
1.70574e-05
1.69388e-05
1.68418e-05
1.67694e-05
1.6727e-05
0.000939687
0.000835718
0.000745889
0.000668032
0.000600338
0.000541297
0.000489642
0.000444312
0.000404411
0.000369186
0.000337997
0.000310302
0.000285642
0.000263622
0.000243906
0.000226209
0.000210281
0.000195909
0.000182912
0.000171127
0.000160419
0.000150667
0.000141765
0.000133623
0.00012616
0.000119306
0.000112998
0.000107184
0.000101813
9.68436e-05
9.22377e-05
8.79616e-05
8.39852e-05
8.02817e-05
7.6827e-05
7.35998e-05
7.05807e-05
6.77524e-05
6.50991e-05
6.26069e-05
6.02629e-05
5.80557e-05
5.59747e-05
5.40104e-05
5.21543e-05
5.03983e-05
4.87354e-05
4.71589e-05
4.56629e-05
4.42419e-05
4.28908e-05
4.1605e-05
4.03803e-05
3.92128e-05
3.80988e-05
3.7035e-05
3.60185e-05
3.50463e-05
3.41159e-05
3.32249e-05
3.23711e-05
3.15523e-05
3.07668e-05
3.00128e-05
2.92886e-05
2.85928e-05
2.7924e-05
2.7281e-05
2.66625e-05
2.60677e-05
2.54953e-05
2.49447e-05
2.4415e-05
2.39055e-05
2.34155e-05
2.29444e-05
2.24918e-05
2.20572e-05
2.16402e-05
2.12404e-05
2.08576e-05
2.04914e-05
2.01418e-05
1.98084e-05
1.94912e-05
1.919e-05
1.89047e-05
1.86352e-05
1.83816e-05
1.81437e-05
1.79217e-05
1.77156e-05
1.75256e-05
1.73522e-05
1.71959e-05
1.70577e-05
1.6939e-05
1.6842e-05
1.67697e-05
1.67272e-05
0.000939687
0.000835718
0.000745889
0.000668032
0.000600338
0.000541297
0.000489642
0.000444312
0.000404412
0.000369186
0.000337997
0.000310303
0.000285642
0.000263622
0.000243907
0.000226209
0.000210281
0.00019591
0.000182912
0.000171128
0.000160419
0.000150667
0.000141765
0.000133623
0.00012616
0.000119306
0.000112999
0.000107184
0.000101813
9.68439e-05
9.2238e-05
8.79619e-05
8.39855e-05
8.0282e-05
7.68274e-05
7.36002e-05
7.05811e-05
6.77528e-05
6.50995e-05
6.26073e-05
6.02634e-05
5.80561e-05
5.59751e-05
5.40109e-05
5.21547e-05
5.03988e-05
4.87359e-05
4.71594e-05
4.56634e-05
4.42424e-05
4.28914e-05
4.16056e-05
4.03809e-05
3.92133e-05
3.80994e-05
3.70356e-05
3.60191e-05
3.50469e-05
3.41166e-05
3.32256e-05
3.23717e-05
3.1553e-05
3.07675e-05
3.00135e-05
2.92893e-05
2.85935e-05
2.79247e-05
2.72817e-05
2.66633e-05
2.60684e-05
2.54961e-05
2.49455e-05
2.44158e-05
2.39063e-05
2.34163e-05
2.29452e-05
2.24926e-05
2.2058e-05
2.1641e-05
2.12412e-05
2.08584e-05
2.04922e-05
2.01425e-05
1.98091e-05
1.94919e-05
1.91907e-05
1.89054e-05
1.86359e-05
1.83822e-05
1.81443e-05
1.79222e-05
1.77161e-05
1.75261e-05
1.73527e-05
1.71964e-05
1.70581e-05
1.69394e-05
1.68424e-05
1.677e-05
1.67276e-05
0.000939687
0.000835718
0.000745889
0.000668032
0.000600339
0.000541297
0.000489642
0.000444312
0.000404412
0.000369187
0.000337998
0.000310303
0.000285642
0.000263622
0.000243907
0.000226209
0.000210281
0.00019591
0.000182912
0.000171128
0.00016042
0.000150667
0.000141766
0.000133623
0.00012616
0.000119306
0.000112999
0.000107184
0.000101814
9.68444e-05
9.22385e-05
8.79624e-05
8.39861e-05
8.02826e-05
7.6828e-05
7.36008e-05
7.05817e-05
6.77533e-05
6.51001e-05
6.26079e-05
6.0264e-05
5.80568e-05
5.59758e-05
5.40116e-05
5.21554e-05
5.03995e-05
4.87366e-05
4.71602e-05
4.56642e-05
4.42432e-05
4.28921e-05
4.16064e-05
4.03817e-05
3.92142e-05
3.81002e-05
3.70365e-05
3.602e-05
3.50478e-05
3.41175e-05
3.32265e-05
3.23727e-05
3.1554e-05
3.07685e-05
3.00145e-05
2.92903e-05
2.85945e-05
2.79258e-05
2.72828e-05
2.66644e-05
2.60695e-05
2.54972e-05
2.49466e-05
2.44169e-05
2.39074e-05
2.34174e-05
2.29464e-05
2.24938e-05
2.20592e-05
2.16421e-05
2.12423e-05
2.08595e-05
2.04933e-05
2.01436e-05
1.98102e-05
1.94929e-05
1.91917e-05
1.89063e-05
1.86368e-05
1.83831e-05
1.81452e-05
1.79231e-05
1.77169e-05
1.75268e-05
1.73533e-05
1.7197e-05
1.70587e-05
1.694e-05
1.68429e-05
1.67705e-05
1.67281e-05
0.000939687
0.000835718
0.000745889
0.000668033
0.000600339
0.000541297
0.000489643
0.000444312
0.000404412
0.000369187
0.000337998
0.000310303
0.000285642
0.000263622
0.000243907
0.00022621
0.000210282
0.000195911
0.000182913
0.000171129
0.00016042
0.000150668
0.000141766
0.000133624
0.000126161
0.000119307
0.000113
0.000107185
0.000101814
9.6845e-05
9.22392e-05
8.79631e-05
8.39867e-05
8.02833e-05
7.68287e-05
7.36015e-05
7.05824e-05
6.77541e-05
6.51009e-05
6.26087e-05
6.02648e-05
5.80576e-05
5.59767e-05
5.40124e-05
5.21563e-05
5.04004e-05
4.87375e-05
4.71611e-05
4.56652e-05
4.42442e-05
4.28931e-05
4.16074e-05
4.03828e-05
3.92153e-05
3.81013e-05
3.70376e-05
3.60211e-05
3.5049e-05
3.41187e-05
3.32277e-05
3.23739e-05
3.15552e-05
3.07698e-05
3.00158e-05
2.92916e-05
2.85959e-05
2.79272e-05
2.72842e-05
2.66658e-05
2.60709e-05
2.54987e-05
2.49481e-05
2.44184e-05
2.39089e-05
2.34189e-05
2.29479e-05
2.24953e-05
2.20606e-05
2.16436e-05
2.12438e-05
2.08609e-05
2.04947e-05
2.0145e-05
1.98116e-05
1.94943e-05
1.9193e-05
1.89076e-05
1.8638e-05
1.83843e-05
1.81463e-05
1.79241e-05
1.77179e-05
1.75278e-05
1.73542e-05
1.71978e-05
1.70595e-05
1.69407e-05
1.68436e-05
1.67712e-05
1.67287e-05
0.000939687
0.000835718
0.00074589
0.000668033
0.000600339
0.000541297
0.000489643
0.000444313
0.000404413
0.000369187
0.000337998
0.000310304
0.000285643
0.000263623
0.000243908
0.00022621
0.000210282
0.000195911
0.000182913
0.000171129
0.000160421
0.000150668
0.000141767
0.000133625
0.000126162
0.000119308
0.000113
0.000107186
0.000101815
9.68458e-05
9.224e-05
8.79639e-05
8.39876e-05
8.02841e-05
7.68295e-05
7.36024e-05
7.05833e-05
6.7755e-05
6.51019e-05
6.26097e-05
6.02658e-05
5.80586e-05
5.59777e-05
5.40135e-05
5.21574e-05
5.04015e-05
4.87387e-05
4.71623e-05
4.56664e-05
4.42454e-05
4.28944e-05
4.16087e-05
4.03841e-05
3.92166e-05
3.81027e-05
3.7039e-05
3.60225e-05
3.50505e-05
3.41201e-05
3.32292e-05
3.23754e-05
3.15568e-05
3.07714e-05
3.00174e-05
2.92933e-05
2.85976e-05
2.79289e-05
2.72859e-05
2.66675e-05
2.60727e-05
2.55004e-05
2.49499e-05
2.44202e-05
2.39107e-05
2.34207e-05
2.29497e-05
2.24971e-05
2.20625e-05
2.16454e-05
2.12456e-05
2.08627e-05
2.04965e-05
2.01467e-05
1.98132e-05
1.94959e-05
1.91946e-05
1.89091e-05
1.86395e-05
1.83857e-05
1.81476e-05
1.79254e-05
1.7719e-05
1.75289e-05
1.73553e-05
1.71988e-05
1.70604e-05
1.69416e-05
1.68444e-05
1.67719e-05
1.67294e-05
0.000939687
0.000835718
0.00074589
0.000668033
0.000600339
0.000541298
0.000489643
0.000444313
0.000404413
0.000369188
0.000337999
0.000310304
0.000285643
0.000263623
0.000243908
0.000226211
0.000210283
0.000195912
0.000182914
0.00017113
0.000160422
0.000150669
0.000141767
0.000133625
0.000126162
0.000119308
0.000113001
0.000107187
0.000101816
9.68467e-05
9.22409e-05
8.79649e-05
8.39886e-05
8.02851e-05
7.68306e-05
7.36034e-05
7.05844e-05
6.77561e-05
6.5103e-05
6.26109e-05
6.0267e-05
5.80598e-05
5.59789e-05
5.40148e-05
5.21587e-05
5.04028e-05
4.874e-05
4.71637e-05
4.56678e-05
4.42469e-05
4.28959e-05
4.16102e-05
4.03856e-05
3.92182e-05
3.81043e-05
3.70406e-05
3.60242e-05
3.50522e-05
3.41219e-05
3.3231e-05
3.23772e-05
3.15586e-05
3.07732e-05
3.00193e-05
2.92952e-05
2.85995e-05
2.79308e-05
2.72879e-05
2.66696e-05
2.60748e-05
2.55025e-05
2.4952e-05
2.44223e-05
2.39128e-05
2.34229e-05
2.29518e-05
2.24992e-05
2.20646e-05
2.16475e-05
2.12477e-05
2.08648e-05
2.04985e-05
2.01487e-05
1.98152e-05
1.94978e-05
1.91964e-05
1.89109e-05
1.86412e-05
1.83873e-05
1.81491e-05
1.79268e-05
1.77204e-05
1.75302e-05
1.73564e-05
1.71999e-05
1.70614e-05
1.69425e-05
1.68453e-05
1.67728e-05
1.67302e-05
0.000939687
0.000835718
0.00074589
0.000668033
0.000600339
0.000541298
0.000489644
0.000444313
0.000404413
0.000369188
0.000337999
0.000310305
0.000285644
0.000263624
0.000243909
0.000226211
0.000210283
0.000195912
0.000182915
0.000171131
0.000160422
0.00015067
0.000141768
0.000133626
0.000126163
0.000119309
0.000113002
0.000107187
0.000101817
9.68477e-05
9.2242e-05
8.7966e-05
8.39897e-05
8.02862e-05
7.68317e-05
7.36046e-05
7.05856e-05
6.77574e-05
6.51043e-05
6.26122e-05
6.02683e-05
5.80612e-05
5.59803e-05
5.40162e-05
5.21602e-05
5.04043e-05
4.87416e-05
4.71652e-05
4.56694e-05
4.42485e-05
4.28975e-05
4.16119e-05
4.03874e-05
3.92199e-05
3.81061e-05
3.70425e-05
3.60261e-05
3.50541e-05
3.41239e-05
3.3233e-05
3.23793e-05
3.15607e-05
3.07753e-05
3.00215e-05
2.92974e-05
2.86018e-05
2.79331e-05
2.72902e-05
2.66719e-05
2.60771e-05
2.55049e-05
2.49544e-05
2.44247e-05
2.39153e-05
2.34253e-05
2.29543e-05
2.25016e-05
2.2067e-05
2.16499e-05
2.12501e-05
2.08671e-05
2.05008e-05
2.0151e-05
1.98174e-05
1.94999e-05
1.91985e-05
1.89129e-05
1.86431e-05
1.83891e-05
1.81509e-05
1.79285e-05
1.77219e-05
1.75316e-05
1.73578e-05
1.72011e-05
1.70626e-05
1.69436e-05
1.68462e-05
1.67737e-05
1.67311e-05
0.000939687
0.000835718
0.00074589
0.000668033
0.00060034
0.000541298
0.000489644
0.000444314
0.000404414
0.000369189
0.000338
0.000310305
0.000285645
0.000263625
0.00024391
0.000226212
0.000210284
0.000195913
0.000182915
0.000171131
0.000160423
0.000150671
0.000141769
0.000133627
0.000126164
0.00011931
0.000113003
0.000107189
0.000101818
9.68488e-05
9.22431e-05
8.79671e-05
8.39909e-05
8.02875e-05
7.6833e-05
7.36059e-05
7.0587e-05
6.77588e-05
6.51057e-05
6.26136e-05
6.02698e-05
5.80627e-05
5.59819e-05
5.40178e-05
5.21618e-05
5.0406e-05
4.87433e-05
4.7167e-05
4.56712e-05
4.42503e-05
4.28994e-05
4.16138e-05
4.03893e-05
3.92219e-05
3.81081e-05
3.70446e-05
3.60282e-05
3.50563e-05
3.41261e-05
3.32353e-05
3.23816e-05
3.15631e-05
3.07777e-05
3.00239e-05
2.92999e-05
2.86043e-05
2.79356e-05
2.72928e-05
2.66745e-05
2.60797e-05
2.55075e-05
2.4957e-05
2.44274e-05
2.39179e-05
2.3428e-05
2.2957e-05
2.25044e-05
2.20697e-05
2.16526e-05
2.12527e-05
2.08697e-05
2.05034e-05
2.01535e-05
1.98199e-05
1.95023e-05
1.92008e-05
1.89151e-05
1.86452e-05
1.83911e-05
1.81528e-05
1.79302e-05
1.77236e-05
1.75332e-05
1.73592e-05
1.72025e-05
1.70638e-05
1.69447e-05
1.68473e-05
1.67747e-05
1.6732e-05
0.000939687
0.000835718
0.00074589
0.000668033
0.00060034
0.000541298
0.000489644
0.000444314
0.000404414
0.000369189
0.000338
0.000310306
0.000285645
0.000263625
0.00024391
0.000226213
0.000210285
0.000195914
0.000182916
0.000171132
0.000160424
0.000150672
0.00014177
0.000133628
0.000126165
0.000119311
0.000113004
0.00010719
0.000101819
9.68501e-05
9.22444e-05
8.79685e-05
8.39922e-05
8.02889e-05
7.68344e-05
7.36074e-05
7.05885e-05
6.77603e-05
6.51072e-05
6.26152e-05
6.02714e-05
5.80644e-05
5.59836e-05
5.40195e-05
5.21636e-05
5.04078e-05
4.87451e-05
4.71689e-05
4.56731e-05
4.42523e-05
4.29015e-05
4.16159e-05
4.03914e-05
3.92241e-05
3.81104e-05
3.70469e-05
3.60306e-05
3.50586e-05
3.41285e-05
3.32377e-05
3.23841e-05
3.15656e-05
3.07803e-05
3.00265e-05
2.93026e-05
2.8607e-05
2.79384e-05
2.72956e-05
2.66773e-05
2.60826e-05
2.55104e-05
2.496e-05
2.44304e-05
2.39209e-05
2.3431e-05
2.29599e-05
2.25073e-05
2.20726e-05
2.16555e-05
2.12556e-05
2.08726e-05
2.05062e-05
2.01562e-05
1.98225e-05
1.95049e-05
1.92033e-05
1.89175e-05
1.86475e-05
1.83933e-05
1.81549e-05
1.79322e-05
1.77254e-05
1.75348e-05
1.73608e-05
1.72039e-05
1.70651e-05
1.69459e-05
1.68484e-05
1.67757e-05
1.6733e-05
0.000939687
0.000835718
0.00074589
0.000668033
0.00060034
0.000541299
0.000489644
0.000444315
0.000404415
0.000369189
0.000338001
0.000310306
0.000285646
0.000263626
0.000243911
0.000226213
0.000210286
0.000195915
0.000182917
0.000171133
0.000160425
0.000150673
0.000141771
0.000133629
0.000126166
0.000119313
0.000113006
0.000107191
0.000101821
9.68514e-05
9.22457e-05
8.79699e-05
8.39937e-05
8.02903e-05
7.68359e-05
7.36089e-05
7.05901e-05
6.77619e-05
6.51089e-05
6.26169e-05
6.02732e-05
5.80662e-05
5.59854e-05
5.40214e-05
5.21655e-05
5.04098e-05
4.87472e-05
4.7171e-05
4.56752e-05
4.42545e-05
4.29037e-05
4.16182e-05
4.03938e-05
3.92265e-05
3.81128e-05
3.70493e-05
3.60331e-05
3.50612e-05
3.41311e-05
3.32404e-05
3.23868e-05
3.15684e-05
3.07831e-05
3.00294e-05
2.93055e-05
2.86099e-05
2.79414e-05
2.72986e-05
2.66804e-05
2.60857e-05
2.55136e-05
2.49631e-05
2.44335e-05
2.39241e-05
2.34342e-05
2.29631e-05
2.25105e-05
2.20758e-05
2.16587e-05
2.12587e-05
2.08756e-05
2.05092e-05
2.01592e-05
1.98254e-05
1.95077e-05
1.9206e-05
1.89201e-05
1.865e-05
1.83957e-05
1.81571e-05
1.79343e-05
1.77274e-05
1.75366e-05
1.73624e-05
1.72054e-05
1.70665e-05
1.69472e-05
1.68496e-05
1.67768e-05
1.67341e-05
0.000939687
0.000835718
0.00074589
0.000668034
0.00060034
0.000541299
0.000489645
0.000444315
0.000404415
0.00036919
0.000338001
0.000310307
0.000285646
0.000263627
0.000243912
0.000226214
0.000210287
0.000195916
0.000182918
0.000171134
0.000160426
0.000150674
0.000141772
0.00013363
0.000126168
0.000119314
0.000113007
0.000107192
0.000101822
9.68528e-05
9.22472e-05
8.79713e-05
8.39952e-05
8.02919e-05
7.68376e-05
7.36106e-05
7.05917e-05
6.77637e-05
6.51107e-05
6.26188e-05
6.02751e-05
5.80681e-05
5.59874e-05
5.40234e-05
5.21676e-05
5.04119e-05
4.87493e-05
4.71732e-05
4.56775e-05
4.42568e-05
4.2906e-05
4.16206e-05
4.03962e-05
3.9229e-05
3.81154e-05
3.7052e-05
3.60358e-05
3.50639e-05
3.41339e-05
3.32432e-05
3.23897e-05
3.15713e-05
3.07861e-05
3.00324e-05
2.93086e-05
2.86131e-05
2.79446e-05
2.73018e-05
2.66837e-05
2.6089e-05
2.55169e-05
2.49665e-05
2.44369e-05
2.39275e-05
2.34376e-05
2.29665e-05
2.25139e-05
2.20792e-05
2.1662e-05
2.1262e-05
2.08789e-05
2.05124e-05
2.01623e-05
1.98285e-05
1.95107e-05
1.92088e-05
1.89228e-05
1.86526e-05
1.83981e-05
1.81594e-05
1.79364e-05
1.77294e-05
1.75385e-05
1.73642e-05
1.7207e-05
1.70679e-05
1.69485e-05
1.68508e-05
1.67779e-05
1.67351e-05
0.000939687
0.000835718
0.00074589
0.000668034
0.00060034
0.000541299
0.000489645
0.000444315
0.000404415
0.00036919
0.000338002
0.000310308
0.000285647
0.000263627
0.000243913
0.000226215
0.000210287
0.000195917
0.000182919
0.000171135
0.000160427
0.000150675
0.000141774
0.000133632
0.000126169
0.000119315
0.000113008
0.000107194
0.000101823
9.68543e-05
9.22487e-05
8.79729e-05
8.39968e-05
8.02936e-05
7.68392e-05
7.36123e-05
7.05935e-05
6.77655e-05
6.51126e-05
6.26207e-05
6.0277e-05
5.80701e-05
5.59895e-05
5.40256e-05
5.21697e-05
5.04141e-05
4.87516e-05
4.71755e-05
4.56799e-05
4.42592e-05
4.29085e-05
4.16231e-05
4.03988e-05
3.92317e-05
3.81181e-05
3.70547e-05
3.60386e-05
3.50668e-05
3.41368e-05
3.32462e-05
3.23928e-05
3.15744e-05
3.07893e-05
3.00357e-05
2.93119e-05
2.86164e-05
2.7948e-05
2.73053e-05
2.66871e-05
2.60925e-05
2.55205e-05
2.497e-05
2.44405e-05
2.39311e-05
2.34412e-05
2.29701e-05
2.25175e-05
2.20828e-05
2.16656e-05
2.12655e-05
2.08823e-05
2.05158e-05
2.01656e-05
1.98317e-05
1.95138e-05
1.92118e-05
1.89257e-05
1.86553e-05
1.84007e-05
1.81618e-05
1.79387e-05
1.77315e-05
1.75405e-05
1.73659e-05
1.72086e-05
1.70694e-05
1.69498e-05
1.6852e-05
1.67791e-05
1.67362e-05
0.000939687
0.000835718
0.00074589
0.000668034
0.00060034
0.000541299
0.000489645
0.000444316
0.000404416
0.000369191
0.000338002
0.000310308
0.000285648
0.000263628
0.000243913
0.000226216
0.000210288
0.000195918
0.00018292
0.000171136
0.000160428
0.000150676
0.000141775
0.000133633
0.00012617
0.000119316
0.00011301
0.000107195
0.000101825
9.68558e-05
9.22503e-05
8.79745e-05
8.39985e-05
8.02953e-05
7.6841e-05
7.36141e-05
7.05954e-05
6.77674e-05
6.51145e-05
6.26227e-05
6.02791e-05
5.80722e-05
5.59916e-05
5.40278e-05
5.2172e-05
5.04165e-05
4.8754e-05
4.71779e-05
4.56824e-05
4.42618e-05
4.29111e-05
4.16258e-05
4.04016e-05
3.92345e-05
3.81209e-05
3.70576e-05
3.60416e-05
3.50699e-05
3.41399e-05
3.32494e-05
3.2396e-05
3.15777e-05
3.07927e-05
3.00391e-05
2.93153e-05
2.86199e-05
2.79515e-05
2.73089e-05
2.66908e-05
2.60962e-05
2.55242e-05
2.49738e-05
2.44443e-05
2.39349e-05
2.34449e-05
2.29739e-05
2.25212e-05
2.20865e-05
2.16693e-05
2.12692e-05
2.08859e-05
2.05193e-05
2.01691e-05
1.9835e-05
1.9517e-05
1.92149e-05
1.89287e-05
1.86582e-05
1.84034e-05
1.81644e-05
1.79411e-05
1.77337e-05
1.75425e-05
1.73678e-05
1.72103e-05
1.70709e-05
1.69512e-05
1.68533e-05
1.67802e-05
1.67373e-05
0.000939687
0.000835718
0.00074589
0.000668034
0.000600341
0.0005413
0.000489646
0.000444316
0.000404416
0.000369191
0.000338003
0.000310309
0.000285648
0.000263629
0.000243914
0.000226217
0.000210289
0.000195919
0.000182921
0.000171137
0.00016043
0.000150677
0.000141776
0.000133634
0.000126172
0.000119318
0.000113011
0.000107197
0.000101826
9.68574e-05
9.22519e-05
8.79762e-05
8.40002e-05
8.02971e-05
7.68428e-05
7.3616e-05
7.05973e-05
6.77694e-05
6.51166e-05
6.26248e-05
6.02812e-05
5.80744e-05
5.59939e-05
5.40301e-05
5.21744e-05
5.04189e-05
4.87564e-05
4.71805e-05
4.5685e-05
4.42644e-05
4.29139e-05
4.16286e-05
4.04044e-05
3.92374e-05
3.81239e-05
3.70607e-05
3.60447e-05
3.5073e-05
3.41432e-05
3.32527e-05
3.23993e-05
3.15811e-05
3.07961e-05
3.00426e-05
2.93189e-05
2.86235e-05
2.79552e-05
2.73126e-05
2.66945e-05
2.61e-05
2.5528e-05
2.49777e-05
2.44482e-05
2.39388e-05
2.34489e-05
2.29778e-05
2.25252e-05
2.20904e-05
2.16731e-05
2.1273e-05
2.08897e-05
2.0523e-05
2.01727e-05
1.98385e-05
1.95204e-05
1.92182e-05
1.89318e-05
1.86611e-05
1.84062e-05
1.8167e-05
1.79435e-05
1.7736e-05
1.75445e-05
1.73697e-05
1.7212e-05
1.70725e-05
1.69526e-05
1.68545e-05
1.67814e-05
1.67384e-05
0.000939687
0.000835718
0.00074589
0.000668034
0.000600341
0.0005413
0.000489646
0.000444316
0.000404417
0.000369192
0.000338003
0.000310309
0.000285649
0.00026363
0.000243915
0.000226218
0.00021029
0.00019592
0.000182922
0.000171138
0.000160431
0.000150679
0.000141777
0.000133635
0.000126173
0.000119319
0.000113012
0.000107198
0.000101828
9.6859e-05
9.22536e-05
8.79779e-05
8.4002e-05
8.02989e-05
7.68447e-05
7.3618e-05
7.05993e-05
6.77714e-05
6.51187e-05
6.26269e-05
6.02834e-05
5.80767e-05
5.59962e-05
5.40325e-05
5.21768e-05
5.04214e-05
4.8759e-05
4.71831e-05
4.56876e-05
4.42672e-05
4.29167e-05
4.16315e-05
4.04073e-05
3.92404e-05
3.81269e-05
3.70638e-05
3.60478e-05
3.50763e-05
3.41465e-05
3.32561e-05
3.24028e-05
3.15846e-05
3.07997e-05
3.00462e-05
2.93226e-05
2.86273e-05
2.7959e-05
2.73165e-05
2.66985e-05
2.6104e-05
2.5532e-05
2.49817e-05
2.44522e-05
2.39428e-05
2.34529e-05
2.29819e-05
2.25292e-05
2.20944e-05
2.16771e-05
2.12769e-05
2.08935e-05
2.05268e-05
2.01763e-05
1.98421e-05
1.95238e-05
1.92215e-05
1.8935e-05
1.86642e-05
1.84091e-05
1.81697e-05
1.7946e-05
1.77383e-05
1.75466e-05
1.73716e-05
1.72137e-05
1.7074e-05
1.6954e-05
1.68558e-05
1.67825e-05
1.67395e-05
0.000939687
0.000835718
0.00074589
0.000668034
0.000600341
0.0005413
0.000489646
0.000444317
0.000404417
0.000369192
0.000338004
0.00031031
0.00028565
0.00026363
0.000243916
0.000226218
0.000210291
0.000195921
0.000182923
0.00017114
0.000160432
0.00015068
0.000141779
0.000133637
0.000126174
0.000119321
0.000113014
0.0001072
0.000101829
9.68606e-05
9.22553e-05
8.79797e-05
8.40038e-05
8.03007e-05
7.68466e-05
7.36199e-05
7.06013e-05
6.77735e-05
6.51208e-05
6.26291e-05
6.02857e-05
5.8079e-05
5.59986e-05
5.40349e-05
5.21793e-05
5.04239e-05
4.87616e-05
4.71858e-05
4.56904e-05
4.427e-05
4.29195e-05
4.16344e-05
4.04103e-05
3.92434e-05
3.81301e-05
3.7067e-05
3.60511e-05
3.50796e-05
3.41499e-05
3.32595e-05
3.24063e-05
3.15883e-05
3.08034e-05
3.005e-05
2.93264e-05
2.86312e-05
2.79629e-05
2.73204e-05
2.67025e-05
2.6108e-05
2.55361e-05
2.49858e-05
2.44563e-05
2.3947e-05
2.34571e-05
2.2986e-05
2.25333e-05
2.20985e-05
2.16811e-05
2.12809e-05
2.08975e-05
2.05306e-05
2.01801e-05
1.98457e-05
1.95274e-05
1.92249e-05
1.89382e-05
1.86673e-05
1.8412e-05
1.81724e-05
1.79485e-05
1.77406e-05
1.75488e-05
1.73735e-05
1.72154e-05
1.70756e-05
1.69554e-05
1.6857e-05
1.67837e-05
1.67406e-05
0.000939687
0.000835718
0.000745891
0.000668034
0.000600341
0.0005413
0.000489646
0.000444317
0.000404417
0.000369193
0.000338004
0.000310311
0.00028565
0.000263631
0.000243917
0.000226219
0.000210292
0.000195922
0.000182924
0.000171141
0.000160433
0.000150681
0.00014178
0.000133638
0.000126176
0.000119322
0.000113015
0.000107201
0.000101831
9.68623e-05
9.2257e-05
8.79815e-05
8.40056e-05
8.03026e-05
7.68486e-05
7.36219e-05
7.06034e-05
6.77756e-05
6.5123e-05
6.26314e-05
6.0288e-05
5.80814e-05
5.6001e-05
5.40374e-05
5.21819e-05
5.04266e-05
4.87643e-05
4.71885e-05
4.56932e-05
4.42729e-05
4.29225e-05
4.16374e-05
4.04134e-05
3.92466e-05
3.81333e-05
3.70703e-05
3.60545e-05
3.5083e-05
3.41534e-05
3.32631e-05
3.241e-05
3.15919e-05
3.08071e-05
3.00538e-05
2.93303e-05
2.86351e-05
2.79669e-05
2.73245e-05
2.67066e-05
2.61121e-05
2.55402e-05
2.499e-05
2.44605e-05
2.39512e-05
2.34613e-05
2.29903e-05
2.25375e-05
2.21027e-05
2.16853e-05
2.1285e-05
2.09015e-05
2.05346e-05
2.0184e-05
1.98495e-05
1.9531e-05
1.92284e-05
1.89415e-05
1.86704e-05
1.84149e-05
1.81751e-05
1.79511e-05
1.7743e-05
1.75509e-05
1.73755e-05
1.72172e-05
1.70771e-05
1.69568e-05
1.68583e-05
1.67848e-05
1.67417e-05
0.000939687
0.000835718
0.000745891
0.000668034
0.000600341
0.0005413
0.000489647
0.000444317
0.000404418
0.000369193
0.000338005
0.000310311
0.000285651
0.000263632
0.000243917
0.00022622
0.000210293
0.000195922
0.000182925
0.000171142
0.000160434
0.000150682
0.000141781
0.000133639
0.000126177
0.000119324
0.000113017
0.000107203
0.000101833
9.6864e-05
9.22588e-05
8.79833e-05
8.40075e-05
8.03046e-05
7.68506e-05
7.3624e-05
7.06055e-05
6.77778e-05
6.51252e-05
6.26336e-05
6.02903e-05
5.80838e-05
5.60035e-05
5.40399e-05
5.21844e-05
5.04292e-05
4.8767e-05
4.71913e-05
4.5696e-05
4.42758e-05
4.29255e-05
4.16405e-05
4.04165e-05
3.92498e-05
3.81366e-05
3.70736e-05
3.60579e-05
3.50865e-05
3.41569e-05
3.32667e-05
3.24137e-05
3.15957e-05
3.0811e-05
3.00577e-05
2.93342e-05
2.86391e-05
2.7971e-05
2.73286e-05
2.67107e-05
2.61163e-05
2.55445e-05
2.49942e-05
2.44648e-05
2.39555e-05
2.34656e-05
2.29946e-05
2.25418e-05
2.21069e-05
2.16895e-05
2.12892e-05
2.09056e-05
2.05386e-05
2.01879e-05
1.98533e-05
1.95346e-05
1.92319e-05
1.89449e-05
1.86736e-05
1.84179e-05
1.81779e-05
1.79537e-05
1.77453e-05
1.75531e-05
1.73774e-05
1.72189e-05
1.70787e-05
1.69581e-05
1.68595e-05
1.67859e-05
1.67428e-05
0.000939687
0.000835718
0.000745891
0.000668034
0.000600341
0.000541301
0.000489647
0.000444318
0.000404418
0.000369194
0.000338005
0.000310312
0.000285652
0.000263632
0.000243918
0.000226221
0.000210294
0.000195923
0.000182926
0.000171143
0.000160435
0.000150683
0.000141782
0.000133641
0.000126178
0.000119325
0.000113019
0.000107204
0.000101834
9.68657e-05
9.22605e-05
8.79851e-05
8.40093e-05
8.03065e-05
7.68525e-05
7.3626e-05
7.06076e-05
6.77799e-05
6.51274e-05
6.26359e-05
6.02927e-05
5.80862e-05
5.60059e-05
5.40424e-05
5.2187e-05
5.04319e-05
4.87697e-05
4.71941e-05
4.56989e-05
4.42787e-05
4.29285e-05
4.16435e-05
4.04197e-05
3.9253e-05
3.81399e-05
3.7077e-05
3.60613e-05
3.509e-05
3.41605e-05
3.32704e-05
3.24174e-05
3.15995e-05
3.08148e-05
3.00616e-05
2.93382e-05
2.86432e-05
2.79751e-05
2.73327e-05
2.67149e-05
2.61206e-05
2.55488e-05
2.49986e-05
2.44692e-05
2.39599e-05
2.347e-05
2.29989e-05
2.25461e-05
2.21112e-05
2.16938e-05
2.12934e-05
2.09097e-05
2.05426e-05
2.01918e-05
1.98571e-05
1.95383e-05
1.92354e-05
1.89482e-05
1.86768e-05
1.84209e-05
1.81807e-05
1.79563e-05
1.77477e-05
1.75552e-05
1.73793e-05
1.72207e-05
1.70802e-05
1.69595e-05
1.68607e-05
1.6787e-05
1.67438e-05
0.000939687
0.000835718
0.000745891
0.000668035
0.000600342
0.000541301
0.000489647
0.000444318
0.000404418
0.000369194
0.000338006
0.000310312
0.000285652
0.000263633
0.000243919
0.000226222
0.000210295
0.000195924
0.000182927
0.000171144
0.000160436
0.000150685
0.000141784
0.000133642
0.00012618
0.000119326
0.00011302
0.000107206
0.000101836
9.68674e-05
9.22623e-05
8.79869e-05
8.40112e-05
8.03084e-05
7.68545e-05
7.36281e-05
7.06097e-05
6.77821e-05
6.51297e-05
6.26382e-05
6.02951e-05
5.80886e-05
5.60084e-05
5.4045e-05
5.21897e-05
5.04346e-05
4.87725e-05
4.71969e-05
4.57018e-05
4.42817e-05
4.29315e-05
4.16466e-05
4.04229e-05
3.92562e-05
3.81432e-05
3.70804e-05
3.60648e-05
3.50936e-05
3.41641e-05
3.32741e-05
3.24211e-05
3.16033e-05
3.08187e-05
3.00655e-05
2.93422e-05
2.86472e-05
2.79792e-05
2.73369e-05
2.67192e-05
2.61249e-05
2.55531e-05
2.50029e-05
2.44735e-05
2.39642e-05
2.34744e-05
2.30033e-05
2.25505e-05
2.21156e-05
2.1698e-05
2.12976e-05
2.09139e-05
2.05467e-05
2.01958e-05
1.98609e-05
1.9542e-05
1.9239e-05
1.89516e-05
1.868e-05
1.84239e-05
1.81835e-05
1.79589e-05
1.77501e-05
1.75574e-05
1.73813e-05
1.72224e-05
1.70817e-05
1.69608e-05
1.68619e-05
1.67881e-05
1.67448e-05
0.000939687
0.000835718
0.000745891
0.000668035
0.000600342
0.000541301
0.000489647
0.000444318
0.000404419
0.000369194
0.000338006
0.000310313
0.000285653
0.000263634
0.00024392
0.000226223
0.000210295
0.000195925
0.000182928
0.000171145
0.000160438
0.000150686
0.000141785
0.000133643
0.000126181
0.000119328
0.000113022
0.000107207
0.000101838
9.68691e-05
9.2264e-05
8.79887e-05
8.40131e-05
8.03103e-05
7.68565e-05
7.36301e-05
7.06118e-05
6.77843e-05
6.51319e-05
6.26405e-05
6.02974e-05
5.8091e-05
5.60109e-05
5.40476e-05
5.21923e-05
5.04373e-05
4.87753e-05
4.71997e-05
4.57047e-05
4.42847e-05
4.29345e-05
4.16498e-05
4.0426e-05
3.92595e-05
3.81465e-05
3.70838e-05
3.60683e-05
3.50971e-05
3.41678e-05
3.32778e-05
3.24249e-05
3.16072e-05
3.08226e-05
3.00695e-05
2.93463e-05
2.86513e-05
2.79834e-05
2.73411e-05
2.67234e-05
2.61292e-05
2.55574e-05
2.50073e-05
2.44779e-05
2.39686e-05
2.34787e-05
2.30077e-05
2.25549e-05
2.21199e-05
2.17023e-05
2.13018e-05
2.0918e-05
2.05507e-05
2.01997e-05
1.98648e-05
1.95457e-05
1.92425e-05
1.8955e-05
1.86832e-05
1.84269e-05
1.81863e-05
1.79615e-05
1.77524e-05
1.75595e-05
1.73832e-05
1.72241e-05
1.70832e-05
1.69621e-05
1.6863e-05
1.67891e-05
1.67458e-05
0.000939687
0.000835718
0.000745891
0.000668035
0.000600342
0.000541301
0.000489648
0.000444318
0.000404419
0.000369195
0.000338007
0.000310313
0.000285653
0.000263634
0.00024392
0.000226223
0.000210296
0.000195926
0.000182929
0.000171146
0.000160439
0.000150687
0.000141786
0.000133645
0.000126183
0.000119329
0.000113023
0.000107209
0.000101839
9.68707e-05
9.22657e-05
8.79905e-05
8.40149e-05
8.03123e-05
7.68585e-05
7.36322e-05
7.06139e-05
6.77865e-05
6.51341e-05
6.26428e-05
6.02998e-05
5.80935e-05
5.60134e-05
5.40501e-05
5.21949e-05
5.04399e-05
4.8778e-05
4.72026e-05
4.57076e-05
4.42876e-05
4.29376e-05
4.16529e-05
4.04292e-05
3.92628e-05
3.81499e-05
3.70872e-05
3.60717e-05
3.51007e-05
3.41714e-05
3.32815e-05
3.24287e-05
3.1611e-05
3.08265e-05
3.00735e-05
2.93503e-05
2.86554e-05
2.79875e-05
2.73453e-05
2.67277e-05
2.61335e-05
2.55617e-05
2.50116e-05
2.44823e-05
2.3973e-05
2.34831e-05
2.30121e-05
2.25592e-05
2.21242e-05
2.17066e-05
2.1306e-05
2.09222e-05
2.05548e-05
2.02037e-05
1.98686e-05
1.95494e-05
1.92461e-05
1.89584e-05
1.86863e-05
1.84299e-05
1.81891e-05
1.7964e-05
1.77548e-05
1.75617e-05
1.73851e-05
1.72258e-05
1.70847e-05
1.69634e-05
1.68642e-05
1.67901e-05
1.67467e-05
0.000939687
0.000835718
0.000745891
0.000668035
0.000600342
0.000541301
0.000489648
0.000444319
0.000404419
0.000369195
0.000338007
0.000310314
0.000285654
0.000263635
0.000243921
0.000226224
0.000210297
0.000195927
0.00018293
0.000171147
0.00016044
0.000150688
0.000141787
0.000133646
0.000126184
0.000119331
0.000113024
0.000107211
0.000101841
9.68724e-05
9.22674e-05
8.79922e-05
8.40168e-05
8.03142e-05
7.68605e-05
7.36342e-05
7.0616e-05
6.77886e-05
6.51363e-05
6.26451e-05
6.03021e-05
5.80959e-05
5.60159e-05
5.40527e-05
5.21975e-05
5.04426e-05
4.87808e-05
4.72054e-05
4.57105e-05
4.42906e-05
4.29406e-05
4.1656e-05
4.04324e-05
3.9266e-05
3.81532e-05
3.70906e-05
3.60752e-05
3.51042e-05
3.4175e-05
3.32851e-05
3.24324e-05
3.16148e-05
3.08304e-05
3.00774e-05
2.93543e-05
2.86595e-05
2.79917e-05
2.73495e-05
2.67319e-05
2.61377e-05
2.55661e-05
2.5016e-05
2.44867e-05
2.39774e-05
2.34875e-05
2.30164e-05
2.25636e-05
2.21285e-05
2.17109e-05
2.13102e-05
2.09263e-05
2.05588e-05
2.02076e-05
1.98724e-05
1.95531e-05
1.92496e-05
1.89617e-05
1.86895e-05
1.84329e-05
1.81919e-05
1.79666e-05
1.77571e-05
1.75637e-05
1.7387e-05
1.72274e-05
1.70861e-05
1.69647e-05
1.68652e-05
1.67911e-05
1.67476e-05
0.000939687
0.000835719
0.000745891
0.000668035
0.000600342
0.000541302
0.000489648
0.000444319
0.00040442
0.000369196
0.000338008
0.000310314
0.000285655
0.000263636
0.000243922
0.000226225
0.000210298
0.000195928
0.000182931
0.000171148
0.000160441
0.000150689
0.000141788
0.000133647
0.000126185
0.000119332
0.000113026
0.000107212
0.000101842
9.6874e-05
9.22691e-05
8.7994e-05
8.40186e-05
8.0316e-05
7.68624e-05
7.36362e-05
7.06181e-05
6.77907e-05
6.51385e-05
6.26473e-05
6.03044e-05
5.80983e-05
5.60183e-05
5.40552e-05
5.22001e-05
5.04453e-05
4.87835e-05
4.72082e-05
4.57133e-05
4.42935e-05
4.29436e-05
4.1659e-05
4.04355e-05
3.92692e-05
3.81564e-05
3.70939e-05
3.60786e-05
3.51077e-05
3.41786e-05
3.32888e-05
3.24361e-05
3.16186e-05
3.08343e-05
3.00814e-05
2.93583e-05
2.86635e-05