/*--------------------------------*- C++ -*----------------------------------*\
  =========                 |
  \\      /  F ield         | OpenFOAM: The Open Source CFD Toolbox
   \\    /   O peration     | Website:  https://openfoam.org
    \\  /    A nd           | Version:  11
     \\/     M anipulation  |
\*---------------------------------------------------------------------------*/
FoamFile
{
    format      ascii;
    class       surfaceScalarField;
    location    "410";
    object      phi;
}
// * * * * * * * * * * * * * * * * * * * * * * * * * * * * * * * * * * * * * //

dimensions      [0 3 -1 0 0 0 0];

internalField   nonuniform List<scalar> 
19800
(
1.99993e-05
-6.74507e-09
1.99982e-05
-2.00493e-08
1.99967e-05
-3.34457e-08
1.9995e-05
-4.71524e-08
1.99929e-05
-6.13216e-08
1.99906e-05
-7.60576e-08
1.99879e-05
-9.14439e-08
1.99848e-05
-1.07552e-07
1.99815e-05
-1.24446e-07
1.99777e-05
-1.42184e-07
1.99735e-05
-1.60823e-07
1.99689e-05
-1.80416e-07
1.99639e-05
-2.01019e-07
1.99583e-05
-2.22683e-07
1.99523e-05
-2.4546e-07
1.99457e-05
-2.69404e-07
1.99385e-05
-2.94568e-07
1.99308e-05
-3.21003e-07
1.99224e-05
-3.48764e-07
1.99133e-05
-3.77903e-07
1.99035e-05
-4.08475e-07
1.9893e-05
-4.40533e-07
1.98817e-05
-4.74132e-07
1.98695e-05
-5.09326e-07
1.98565e-05
-5.46168e-07
1.98426e-05
-5.84713e-07
1.98277e-05
-6.25015e-07
1.98118e-05
-6.67125e-07
1.97948e-05
-7.11095e-07
1.97767e-05
-7.56978e-07
1.97574e-05
-8.04821e-07
1.9737e-05
-8.54674e-07
1.97152e-05
-9.06581e-07
1.96921e-05
-9.60585e-07
1.96676e-05
-1.01673e-06
1.96417e-05
-1.07504e-06
1.96142e-05
-1.13556e-06
1.95851e-05
-1.19832e-06
1.95545e-05
-1.26333e-06
1.95221e-05
-1.33062e-06
1.94879e-05
-1.40019e-06
1.94519e-05
-1.47204e-06
1.9414e-05
-1.54616e-06
1.93741e-05
-1.62255e-06
1.93322e-05
-1.70116e-06
1.92882e-05
-1.78196e-06
1.9242e-05
-1.86489e-06
1.91936e-05
-1.94988e-06
1.9143e-05
-2.03684e-06
1.909e-05
-2.12567e-06
1.90346e-05
-2.21624e-06
1.89768e-05
-2.30841e-06
1.89165e-05
-2.40199e-06
1.88538e-05
-2.4968e-06
1.87885e-05
-2.59261e-06
1.87207e-05
-2.68917e-06
1.86503e-05
-2.78619e-06
1.85774e-05
-2.88337e-06
1.85021e-05
-2.98036e-06
1.84242e-05
-3.07679e-06
1.8344e-05
-3.17226e-06
1.82615e-05
-3.26634e-06
1.81767e-05
-3.35858e-06
1.80898e-05
-3.44851e-06
1.8001e-05
-3.53562e-06
1.79103e-05
-3.61944e-06
1.7818e-05
-3.69946e-06
1.77243e-05
-3.77519e-06
1.76294e-05
-3.84615e-06
1.75336e-05
-3.9119e-06
1.74372e-05
-3.97204e-06
1.73405e-05
-4.02621e-06
1.72438e-05
-4.07415e-06
1.71476e-05
-4.1156e-06
1.70514e-05
-4.15022e-06
1.69546e-05
-4.17768e-06
1.68574e-05
-4.19781e-06
1.67603e-05
-4.21093e-06
1.66641e-05
-4.21749e-06
1.65703e-05
-4.21793e-06
1.64796e-05
-4.21231e-06
1.63923e-05
-4.20063e-06
1.63086e-05
-4.18302e-06
1.62279e-05
-4.15975e-06
1.61497e-05
-4.13159e-06
1.60742e-05
-4.09924e-06
1.60017e-05
-4.06317e-06
1.59324e-05
-4.02386e-06
1.58665e-05
-3.98185e-06
1.58042e-05
-3.93769e-06
1.57457e-05
-3.892e-06
1.56911e-05
-3.84541e-06
1.56407e-05
-3.79861e-06
1.55948e-05
-3.75233e-06
1.55535e-05
-3.7074e-06
1.55172e-05
-3.6648e-06
1.54863e-05
-3.62565e-06
1.54614e-05
-3.59138e-06
1.54434e-05
-3.5643e-06
-3.54894e-06
1.99995e-05
-6.23002e-09
1.99984e-05
-1.89714e-08
1.9997e-05
-3.20047e-08
1.99952e-05
-4.53989e-08
1.99932e-05
-5.92632e-08
1.99908e-05
-7.36884e-08
1.99881e-05
-8.87513e-08
1.99851e-05
-1.04519e-07
1.99817e-05
-1.21054e-07
1.99779e-05
-1.38412e-07
1.99737e-05
-1.56647e-07
1.99691e-05
-1.75814e-07
1.99641e-05
-1.95964e-07
1.99585e-05
-2.17147e-07
1.99525e-05
-2.39417e-07
1.99459e-05
-2.62823e-07
1.99388e-05
-2.87416e-07
1.9931e-05
-3.1325e-07
1.99226e-05
-3.40374e-07
1.99135e-05
-3.68842e-07
1.99038e-05
-3.98705e-07
1.98933e-05
-4.30016e-07
1.9882e-05
-4.62827e-07
1.98698e-05
-4.97191e-07
1.98568e-05
-5.33161e-07
1.98429e-05
-5.70788e-07
1.9828e-05
-6.10125e-07
1.98121e-05
-6.51223e-07
1.97951e-05
-6.94132e-07
1.97771e-05
-7.38902e-07
1.97578e-05
-7.85579e-07
1.97374e-05
-8.34211e-07
1.97156e-05
-8.84842e-07
1.96925e-05
-9.37512e-07
1.96681e-05
-9.92261e-07
1.96422e-05
-1.04912e-06
1.96147e-05
-1.10813e-06
1.95857e-05
-1.16931e-06
1.95551e-05
-1.23268e-06
1.95227e-05
-1.29827e-06
1.94886e-05
-1.36606e-06
1.94526e-05
-1.43608e-06
1.94148e-05
-1.5083e-06
1.93749e-05
-1.58272e-06
1.93331e-05
-1.6593e-06
1.92891e-05
-1.73801e-06
1.9243e-05
-1.81878e-06
1.91947e-05
-1.90155e-06
1.91441e-05
-1.98624e-06
1.90912e-05
-2.07275e-06
1.90359e-05
-2.16094e-06
1.89782e-05
-2.25068e-06
1.8918e-05
-2.34181e-06
1.88553e-05
-2.43413e-06
1.87901e-05
-2.52742e-06
1.87224e-05
-2.62145e-06
1.86522e-05
-2.71595e-06
1.85794e-05
-2.81061e-06
1.85041e-05
-2.90511e-06
1.84264e-05
-2.99909e-06
1.83463e-05
-3.09216e-06
1.82639e-05
-3.18392e-06
1.81793e-05
-3.27394e-06
1.80925e-05
-3.36175e-06
1.80038e-05
-3.4469e-06
1.79133e-05
-3.52891e-06
1.78211e-05
-3.6073e-06
1.77275e-05
-3.6816e-06
1.76327e-05
-3.75136e-06
1.75369e-05
-3.81615e-06
1.74405e-05
-3.87557e-06
1.73435e-05
-3.92928e-06
1.72464e-05
-3.97696e-06
1.7149e-05
-4.01826e-06
1.70516e-05
-4.05283e-06
1.69545e-05
-4.08054e-06
1.68582e-05
-4.10154e-06
1.67632e-05
-4.11594e-06
1.66698e-05
-4.12404e-06
1.6578e-05
-4.12617e-06
1.64882e-05
-4.12245e-06
1.64005e-05
-4.11299e-06
1.63156e-05
-4.09808e-06
1.62337e-05
-4.07782e-06
1.61548e-05
-4.05269e-06
1.60789e-05
-4.02336e-06
1.60061e-05
-3.9904e-06
1.59366e-05
-3.95434e-06
1.58705e-05
-3.91574e-06
1.58079e-05
-3.87516e-06
1.57492e-05
-3.83322e-06
1.56943e-05
-3.79055e-06
1.56435e-05
-3.74786e-06
1.55971e-05
-3.70589e-06
1.55552e-05
-3.66551e-06
1.55181e-05
-3.62771e-06
1.54861e-05
-3.59365e-06
1.54595e-05
-3.56473e-06
1.54381e-05
-3.54296e-06
-3.5316e-06
1.99996e-05
-5.84282e-09
1.99987e-05
-1.80142e-08
1.99973e-05
-3.06298e-08
1.99956e-05
-4.36777e-08
1.99935e-05
-5.72195e-08
1.99912e-05
-7.1325e-08
1.99885e-05
-8.60603e-08
1.99854e-05
-1.01486e-07
1.9982e-05
-1.17661e-07
1.99783e-05
-1.34639e-07
1.99741e-05
-1.52473e-07
1.99695e-05
-1.71213e-07
1.99644e-05
-1.90911e-07
1.99589e-05
-2.11616e-07
1.99529e-05
-2.33378e-07
1.99463e-05
-2.56247e-07
1.99391e-05
-2.80273e-07
1.99314e-05
-3.05506e-07
1.9923e-05
-3.31996e-07
1.9914e-05
-3.59793e-07
1.99042e-05
-3.88949e-07
1.98937e-05
-4.19514e-07
1.98824e-05
-4.5154e-07
1.98703e-05
-4.85077e-07
1.98573e-05
-5.20176e-07
1.98434e-05
-5.56888e-07
1.98286e-05
-5.95264e-07
1.98127e-05
-6.35352e-07
1.97958e-05
-6.77202e-07
1.97777e-05
-7.20861e-07
1.97585e-05
-7.66376e-07
1.97381e-05
-8.13791e-07
1.97164e-05
-8.63148e-07
1.96934e-05
-9.14488e-07
1.9669e-05
-9.67849e-07
1.96431e-05
-1.02326e-06
1.96157e-05
-1.08076e-06
1.95868e-05
-1.14037e-06
1.95562e-05
-1.2021e-06
1.95239e-05
-1.26599e-06
1.94899e-05
-1.33202e-06
1.9454e-05
-1.40021e-06
1.94163e-05
-1.47054e-06
1.93765e-05
-1.54299e-06
1.93348e-05
-1.61755e-06
1.92909e-05
-1.69417e-06
1.92449e-05
-1.77279e-06
1.91968e-05
-1.85336e-06
1.91463e-05
-1.93578e-06
1.90935e-05
-2.01997e-06
1.90384e-05
-2.10579e-06
1.89808e-05
-2.19312e-06
1.89208e-05
-2.2818e-06
1.88583e-05
-2.37163e-06
1.87933e-05
-2.46243e-06
1.87258e-05
-2.55394e-06
1.86557e-05
-2.64592e-06
1.85832e-05
-2.73807e-06
1.85082e-05
-2.83008e-06
1.84307e-05
-2.92162e-06
1.83509e-05
-3.01231e-06
1.82687e-05
-3.10176e-06
1.81843e-05
-3.18956e-06
1.80978e-05
-3.27527e-06
1.80094e-05
-3.35845e-06
1.79191e-05
-3.43864e-06
1.78272e-05
-3.51539e-06
1.77339e-05
-3.58825e-06
1.76393e-05
-3.65678e-06
1.75437e-05
-3.72057e-06
1.74473e-05
-3.77922e-06
1.73504e-05
-3.83237e-06
1.72532e-05
-3.87971e-06
1.71558e-05
-3.9209e-06
1.70587e-05
-3.95567e-06
1.69621e-05
-3.98395e-06
1.68664e-05
-4.00586e-06
1.67719e-05
-4.0215e-06
1.6679e-05
-4.03108e-06
1.65877e-05
-4.03485e-06
1.64982e-05
-4.03298e-06
1.64108e-05
-4.02564e-06
1.63259e-05
-4.0131e-06
1.62436e-05
-3.99552e-06
1.61642e-05
-3.97331e-06
1.60878e-05
-3.947e-06
1.60146e-05
-3.91717e-06
1.59446e-05
-3.88437e-06
1.5878e-05
-3.84915e-06
1.5815e-05
-3.8121e-06
1.57556e-05
-3.77383e-06
1.57e-05
-3.73499e-06
1.56485e-05
-3.69627e-06
1.5601e-05
-3.65843e-06
1.55578e-05
-3.62233e-06
1.5519e-05
-3.58894e-06
1.54847e-05
-3.55936e-06
1.54549e-05
-3.53487e-06
1.5429e-05
-3.51706e-06
-3.50816e-06
1.99997e-05
-5.52799e-09
1.99988e-05
-1.71699e-08
1.99976e-05
-2.93469e-08
1.99959e-05
-4.2019e-08
1.99939e-05
-5.52159e-08
1.99916e-05
-6.89868e-08
1.99889e-05
-8.33848e-08
1.99859e-05
-9.84634e-08
1.99825e-05
-1.14275e-07
1.99787e-05
-1.30871e-07
1.99745e-05
-1.48302e-07
1.99699e-05
-1.66616e-07
1.99649e-05
-1.85863e-07
1.99594e-05
-2.0609e-07
1.99533e-05
-2.27347e-07
1.99468e-05
-2.49681e-07
1.99396e-05
-2.7314e-07
1.99319e-05
-2.97774e-07
1.99235e-05
-3.23631e-07
1.99145e-05
-3.5076e-07
1.99048e-05
-3.79211e-07
1.98943e-05
-4.09033e-07
1.9883e-05
-4.40275e-07
1.98709e-05
-4.72988e-07
1.9858e-05
-5.0722e-07
1.98441e-05
-5.4302e-07
1.98293e-05
-5.80437e-07
1.98134e-05
-6.19519e-07
1.97966e-05
-6.60314e-07
1.97786e-05
-7.02866e-07
1.97594e-05
-7.47222e-07
1.9739e-05
-7.93424e-07
1.97174e-05
-8.41513e-07
1.96944e-05
-8.91528e-07
1.96701e-05
-9.43505e-07
1.96443e-05
-9.97476e-07
1.9617e-05
-1.05347e-06
1.95882e-05
-1.11151e-06
1.95577e-05
-1.17162e-06
1.95255e-05
-1.23381e-06
1.94916e-05
-1.29808e-06
1.94558e-05
-1.36445e-06
1.94182e-05
-1.43289e-06
1.93786e-05
-1.5034e-06
1.9337e-05
-1.57594e-06
1.92933e-05
-1.65048e-06
1.92475e-05
-1.72697e-06
1.91994e-05
-1.80533e-06
1.91492e-05
-1.88551e-06
1.90966e-05
-1.96738e-06
1.90416e-05
-2.05085e-06
1.89843e-05
-2.13579e-06
1.89245e-05
-2.22202e-06
1.88623e-05
-2.30939e-06
1.87975e-05
-2.3977e-06
1.87303e-05
-2.48671e-06
1.86606e-05
-2.57618e-06
1.85884e-05
-2.66585e-06
1.85137e-05
-2.75539e-06
1.84366e-05
-2.8445e-06
1.83571e-05
-2.93282e-06
1.82753e-05
-3.01997e-06
1.81913e-05
-3.10556e-06
1.81052e-05
-3.18918e-06
1.80171e-05
-3.2704e-06
1.79273e-05
-3.34878e-06
1.78358e-05
-3.42389e-06
1.77428e-05
-3.49529e-06
1.76486e-05
-3.56257e-06
1.75534e-05
-3.62532e-06
1.74573e-05
-3.68316e-06
1.73607e-05
-3.73574e-06
1.72637e-05
-3.78274e-06
1.71667e-05
-3.82387e-06
1.70699e-05
-3.85891e-06
1.69738e-05
-3.88781e-06
1.68786e-05
-3.91062e-06
1.67845e-05
-3.92745e-06
1.66919e-05
-3.93845e-06
1.66008e-05
-3.94382e-06
1.65116e-05
-3.94374e-06
1.64244e-05
-3.93843e-06
1.63394e-05
-3.92812e-06
1.62569e-05
-3.91306e-06
1.61772e-05
-3.8936e-06
1.61004e-05
-3.87022e-06
1.60267e-05
-3.84346e-06
1.59562e-05
-3.81384e-06
1.5889e-05
-3.78194e-06
1.58252e-05
-3.74833e-06
1.5765e-05
-3.71361e-06
1.57084e-05
-3.67844e-06
1.56557e-05
-3.6435e-06
1.56068e-05
-3.60954e-06
1.55618e-05
-3.57738e-06
1.55208e-05
-3.54793e-06
1.54837e-05
-3.5222e-06
1.54501e-05
-3.5013e-06
1.54195e-05
-3.48652e-06
-3.47969e-06
1.99997e-05
-5.2621e-09
1.9999e-05
-1.64142e-08
1.99978e-05
-2.81547e-08
1.99962e-05
-4.04357e-08
1.99943e-05
-5.32699e-08
1.9992e-05
-6.66908e-08
1.99893e-05
-8.074e-08
1.99863e-05
-9.54628e-08
1.99829e-05
-1.10906e-07
1.99792e-05
-1.27117e-07
1.9975e-05
-1.44143e-07
1.99704e-05
-1.6203e-07
1.99654e-05
-1.80825e-07
1.99599e-05
-2.00575e-07
1.99539e-05
-2.21326e-07
1.99473e-05
-2.43125e-07
1.99402e-05
-2.6602e-07
1.99325e-05
-2.90056e-07
1.99241e-05
-3.15283e-07
1.99151e-05
-3.41746e-07
1.99054e-05
-3.69495e-07
1.98949e-05
-3.98576e-07
1.98837e-05
-4.29038e-07
1.98716e-05
-4.60929e-07
1.98587e-05
-4.94296e-07
1.98449e-05
-5.29188e-07
1.98301e-05
-5.65651e-07
1.98143e-05
-6.03731e-07
1.97975e-05
-6.43475e-07
1.97795e-05
-6.84926e-07
1.97604e-05
-7.28128e-07
1.97401e-05
-7.73123e-07
1.97186e-05
-8.19949e-07
1.96957e-05
-8.68645e-07
1.96714e-05
-9.19245e-07
1.96457e-05
-9.71779e-07
1.96185e-05
-1.02628e-06
1.95898e-05
-1.08276e-06
1.95594e-05
-1.14125e-06
1.95274e-05
-1.20175e-06
1.94936e-05
-1.26428e-06
1.94579e-05
-1.32883e-06
1.94205e-05
-1.3954e-06
1.9381e-05
-1.46397e-06
1.93396e-05
-1.53451e-06
1.92961e-05
-1.60698e-06
1.92505e-05
-1.68134e-06
1.92027e-05
-1.75753e-06
1.91526e-05
-1.83546e-06
1.91003e-05
-1.91505e-06
1.90456e-05
-1.99618e-06
1.89886e-05
-2.07873e-06
1.89291e-05
-2.16255e-06
1.88672e-05
-2.24747e-06
1.88028e-05
-2.33331e-06
1.87359e-05
-2.41984e-06
1.86666e-05
-2.50683e-06
1.85947e-05
-2.59402e-06
1.85205e-05
-2.68112e-06
1.84438e-05
-2.76782e-06
1.83648e-05
-2.85379e-06
1.82834e-05
-2.93866e-06
1.81999e-05
-3.02206e-06
1.81144e-05
-3.1036e-06
1.80268e-05
-3.18286e-06
1.79375e-05
-3.25943e-06
1.78465e-05
-3.3329e-06
1.7754e-05
-3.40285e-06
1.76603e-05
-3.46887e-06
1.75656e-05
-3.53057e-06
1.747e-05
-3.58758e-06
1.73738e-05
-3.63957e-06
1.72773e-05
-3.68624e-06
1.71808e-05
-3.72732e-06
1.70845e-05
-3.76264e-06
1.69888e-05
-3.79212e-06
1.6894e-05
-3.8158e-06
1.68003e-05
-3.83374e-06
1.67079e-05
-3.84608e-06
1.66171e-05
-3.85299e-06
1.6528e-05
-3.85466e-06
1.64409e-05
-3.85129e-06
1.63559e-05
-3.84313e-06
1.62733e-05
-3.83045e-06
1.61933e-05
-3.81361e-06
1.61161e-05
-3.79303e-06
1.60419e-05
-3.76922e-06
1.59707e-05
-3.74268e-06
1.59028e-05
-3.71398e-06
1.58381e-05
-3.68367e-06
1.57769e-05
-3.65236e-06
1.57191e-05
-3.62068e-06
1.56649e-05
-3.5893e-06
1.56143e-05
-3.55893e-06
1.55673e-05
-3.53035e-06
1.55237e-05
-3.5044e-06
1.54835e-05
-3.48197e-06
1.54462e-05
-3.46398e-06
1.54112e-05
-3.45154e-06
-3.44658e-06
1.99998e-05
-5.02975e-09
1.99991e-05
-1.57288e-08
1.9998e-05
-2.7044e-08
1.99965e-05
-3.89296e-08
1.99946e-05
-5.13903e-08
1.99923e-05
-6.4449e-08
1.99897e-05
-7.81384e-08
1.99868e-05
-9.24965e-08
1.99834e-05
-1.07565e-07
1.99797e-05
-1.23385e-07
1.99756e-05
-1.40002e-07
1.9971e-05
-1.5746e-07
1.9966e-05
-1.75802e-07
1.99605e-05
-1.95074e-07
1.99545e-05
-2.1532e-07
1.99479e-05
-2.36586e-07
1.99408e-05
-2.58917e-07
1.99331e-05
-2.82358e-07
1.99248e-05
-3.06956e-07
1.99158e-05
-3.32756e-07
1.99061e-05
-3.59804e-07
1.98957e-05
-3.88148e-07
1.98845e-05
-4.17833e-07
1.98725e-05
-4.48906e-07
1.98596e-05
-4.81413e-07
1.98458e-05
-5.154e-07
1.98311e-05
-5.50913e-07
1.98153e-05
-5.87996e-07
1.97985e-05
-6.26694e-07
1.97807e-05
-6.67049e-07
1.97616e-05
-7.09103e-07
1.97414e-05
-7.52897e-07
1.97199e-05
-7.98468e-07
1.96971e-05
-8.45852e-07
1.9673e-05
-8.95082e-07
1.96474e-05
-9.46189e-07
1.96203e-05
-9.99198e-07
1.95917e-05
-1.05413e-06
1.95614e-05
-1.11101e-06
1.95295e-05
-1.16984e-06
1.94959e-05
-1.23063e-06
1.94604e-05
-1.29339e-06
1.94231e-05
-1.35809e-06
1.93839e-05
-1.42473e-06
1.93427e-05
-1.49328e-06
1.92994e-05
-1.56371e-06
1.9254e-05
-1.63596e-06
1.92065e-05
-1.70998e-06
1.91567e-05
-1.78569e-06
1.91046e-05
-1.86301e-06
1.90503e-05
-1.94182e-06
1.89936e-05
-2.02201e-06
1.89344e-05
-2.10343e-06
1.88729e-05
-2.18593e-06
1.88089e-05
-2.26932e-06
1.87425e-05
-2.35339e-06
1.86736e-05
-2.43793e-06
1.86022e-05
-2.52267e-06
1.85284e-05
-2.60735e-06
1.84523e-05
-2.69167e-06
1.83738e-05
-2.7753e-06
1.8293e-05
-2.85791e-06
1.82101e-05
-2.93914e-06
1.81251e-05
-3.01861e-06
1.80382e-05
-3.09593e-06
1.79495e-05
-3.1707e-06
1.78591e-05
-3.24253e-06
1.77673e-05
-3.31101e-06
1.76742e-05
-3.37576e-06
1.758e-05
-3.43641e-06
1.7485e-05
-3.49259e-06
1.73894e-05
-3.54399e-06
1.72935e-05
-3.59032e-06
1.71975e-05
-3.63135e-06
1.71018e-05
-3.66691e-06
1.70066e-05
-3.69692e-06
1.69122e-05
-3.7214e-06
1.68188e-05
-3.74038e-06
1.67267e-05
-3.75399e-06
1.66361e-05
-3.76237e-06
1.65472e-05
-3.7657e-06
1.64601e-05
-3.76419e-06
1.6375e-05
-3.75809e-06
1.62923e-05
-3.74769e-06
1.6212e-05
-3.73333e-06
1.61344e-05
-3.71542e-06
1.60596e-05
-3.69442e-06
1.59877e-05
-3.67083e-06
1.59189e-05
-3.64518e-06
1.58533e-05
-3.61802e-06
1.57909e-05
-3.58994e-06
1.57317e-05
-3.56155e-06
1.56759e-05
-3.53348e-06
1.56234e-05
-3.50642e-06
1.55741e-05
-3.48109e-06
1.5528e-05
-3.45823e-06
1.54846e-05
-3.43863e-06
1.54437e-05
-3.42307e-06
1.54046e-05
-3.41243e-06
-3.40885e-06
1.99998e-05
-4.82093e-09
1.99992e-05
-1.5099e-08
1.99981e-05
-2.60042e-08
1.99967e-05
-3.74969e-08
1.99949e-05
-4.95791e-08
1.99927e-05
-6.22677e-08
1.99901e-05
-7.55886e-08
1.99872e-05
-8.9574e-08
1.99839e-05
-1.0426e-07
1.99802e-05
-1.19685e-07
1.99761e-05
-1.3589e-07
1.99716e-05
-1.52915e-07
1.99666e-05
-1.70803e-07
1.99611e-05
-1.89596e-07
1.99551e-05
-2.09337e-07
1.99486e-05
-2.30069e-07
1.99415e-05
-2.51837e-07
1.99338e-05
-2.74684e-07
1.99255e-05
-2.98655e-07
1.99166e-05
-3.23794e-07
1.99069e-05
-3.50145e-07
1.98965e-05
-3.77754e-07
1.98853e-05
-4.06665e-07
1.98734e-05
-4.36924e-07
1.98605e-05
-4.68575e-07
1.98468e-05
-5.01662e-07
1.98321e-05
-5.3623e-07
1.98164e-05
-5.72322e-07
1.97997e-05
-6.09979e-07
1.97819e-05
-6.49245e-07
1.9763e-05
-6.90158e-07
1.97428e-05
-7.32758e-07
1.97214e-05
-7.7708e-07
1.96987e-05
-8.23161e-07
1.96747e-05
-8.7103e-07
1.96492e-05
-9.20718e-07
1.96223e-05
-9.72249e-07
1.95938e-05
-1.02564e-06
1.95637e-05
-1.08092e-06
1.9532e-05
-1.13809e-06
1.94985e-05
-1.19716e-06
1.94632e-05
-1.25813e-06
1.94261e-05
-1.32099e-06
1.93871e-05
-1.38572e-06
1.93461e-05
-1.4523e-06
1.93031e-05
-1.52069e-06
1.9258e-05
-1.59085e-06
1.92107e-05
-1.66272e-06
1.91613e-05
-1.73623e-06
1.91096e-05
-1.8113e-06
1.90556e-05
-1.88782e-06
1.89992e-05
-1.96567e-06
1.89405e-05
-2.04472e-06
1.88794e-05
-2.12482e-06
1.88159e-05
-2.20578e-06
1.87499e-05
-2.28743e-06
1.86815e-05
-2.36953e-06
1.86107e-05
-2.45185e-06
1.85375e-05
-2.53414e-06
1.84619e-05
-2.61609e-06
1.8384e-05
-2.69742e-06
1.83039e-05
-2.7778e-06
1.82216e-05
-2.85687e-06
1.81373e-05
-2.93429e-06
1.80511e-05
-3.00968e-06
1.7963e-05
-3.08266e-06
1.78734e-05
-3.15286e-06
1.77822e-05
-3.21988e-06
1.76898e-05
-3.28336e-06
1.75963e-05
-3.34293e-06
1.7502e-05
-3.39827e-06
1.74071e-05
-3.44907e-06
1.73118e-05
-3.49505e-06
1.72165e-05
-3.536e-06
1.71213e-05
-3.57175e-06
1.70266e-05
-3.60224e-06
1.69327e-05
-3.62743e-06
1.68397e-05
-3.64738e-06
1.67479e-05
-3.66217e-06
1.66574e-05
-3.67193e-06
1.65686e-05
-3.67684e-06
1.64815e-05
-3.67711e-06
1.63964e-05
-3.67299e-06
1.63134e-05
-3.66475e-06
1.62329e-05
-3.65274e-06
1.61548e-05
-3.63735e-06
1.60794e-05
-3.61902e-06
1.60068e-05
-3.59823e-06
1.59371e-05
-3.57547e-06
1.58704e-05
-3.55129e-06
1.58067e-05
-3.52625e-06
1.5746e-05
-3.50092e-06
1.56885e-05
-3.47593e-06
1.5634e-05
-3.45189e-06
1.55824e-05
-3.42949e-06
1.55335e-05
-3.40938e-06
1.54871e-05
-3.39225e-06
1.54428e-05
-3.37875e-06
1.54e-05
-3.36958e-06
-3.36681e-06
1.99998e-05
-4.62933e-09
1.99992e-05
-1.45133e-08
1.99982e-05
-2.50248e-08
1.99969e-05
-3.61314e-08
1.99951e-05
-4.78349e-08
1.9993e-05
-6.01491e-08
1.99905e-05
-7.30955e-08
1.99876e-05
-8.67019e-08
1.99844e-05
-1.01e-07
1.99807e-05
-1.16024e-07
1.99767e-05
-1.31812e-07
1.99721e-05
-1.48402e-07
1.99672e-05
-1.65833e-07
1.99617e-05
-1.84146e-07
1.99558e-05
-2.03381e-07
1.99493e-05
-2.23581e-07
1.99422e-05
-2.44787e-07
1.99346e-05
-2.67041e-07
1.99263e-05
-2.90386e-07
1.99174e-05
-3.14866e-07
1.99078e-05
-3.40523e-07
1.98974e-05
-3.674e-07
1.98863e-05
-3.95542e-07
1.98744e-05
-4.2499e-07
1.98616e-05
-4.55789e-07
1.98479e-05
-4.87982e-07
1.98333e-05
-5.2161e-07
1.98177e-05
-5.56715e-07
1.9801e-05
-5.93339e-07
1.97833e-05
-6.31521e-07
1.97644e-05
-6.71301e-07
1.97444e-05
-7.12714e-07
1.97231e-05
-7.55797e-07
1.97005e-05
-8.00583e-07
1.96766e-05
-8.47102e-07
1.96513e-05
-8.95381e-07
1.96245e-05
-9.45445e-07
1.95961e-05
-9.97314e-07
1.95662e-05
-1.051e-06
1.95347e-05
-1.10653e-06
1.95014e-05
-1.16389e-06
1.94663e-05
-1.22308e-06
1.94295e-05
-1.28411e-06
1.93907e-05
-1.34695e-06
1.935e-05
-1.41157e-06
1.93072e-05
-1.47795e-06
1.92624e-05
-1.54604e-06
1.92155e-05
-1.61579e-06
1.91664e-05
-1.68712e-06
1.9115e-05
-1.75996e-06
1.90614e-05
-1.83421e-06
1.90055e-05
-1.90975e-06
1.89472e-05
-1.98645e-06
1.88866e-05
-2.06418e-06
1.88236e-05
-2.14275e-06
1.87581e-05
-2.22199e-06
1.86903e-05
-2.30169e-06
1.86201e-05
-2.38163e-06
1.85475e-05
-2.46154e-06
1.84725e-05
-2.54117e-06
1.83953e-05
-2.62021e-06
1.83159e-05
-2.69837e-06
1.82343e-05
-2.77532e-06
1.81508e-05
-2.8507e-06
1.80653e-05
-2.92418e-06
1.7978e-05
-2.99538e-06
1.78891e-05
-3.06395e-06
1.77987e-05
-3.12951e-06
1.77071e-05
-3.19171e-06
1.76143e-05
-3.25022e-06
1.75208e-05
-3.3047e-06
1.74266e-05
-3.35487e-06
1.7332e-05
-3.40047e-06
1.72373e-05
-3.4413e-06
1.71427e-05
-3.4772e-06
1.70486e-05
-3.50809e-06
1.69551e-05
-3.53393e-06
1.68625e-05
-3.55475e-06
1.67709e-05
-3.57063e-06
1.66807e-05
-3.58169e-06
1.65919e-05
-3.5881e-06
1.65049e-05
-3.59005e-06
1.64197e-05
-3.58779e-06
1.63365e-05
-3.5816e-06
1.62556e-05
-3.57182e-06
1.61771e-05
-3.55881e-06
1.6101e-05
-3.543e-06
1.60276e-05
-3.52484e-06
1.5957e-05
-3.50481e-06
1.58891e-05
-3.48342e-06
1.58241e-05
-3.46122e-06
1.57619e-05
-3.43874e-06
1.57025e-05
-3.41657e-06
1.5646e-05
-3.39531e-06
1.5592e-05
-3.37554e-06
1.55405e-05
-3.35789e-06
1.54912e-05
-3.34293e-06
1.54436e-05
-3.33121e-06
1.53974e-05
-3.32333e-06
-3.3209e-06
1.99998e-05
-4.45087e-09
1.99993e-05
-1.39632e-08
1.99983e-05
-2.40969e-08
1.9997e-05
-3.4826e-08
1.99954e-05
-4.61538e-08
1.99933e-05
-5.80926e-08
1.99909e-05
-7.06613e-08
1.9988e-05
-8.38842e-08
1.99848e-05
-9.77896e-08
1.99812e-05
-1.12409e-07
1.99772e-05
-1.27777e-07
1.99727e-05
-1.43928e-07
1.99678e-05
-1.609e-07
1.99624e-05
-1.78731e-07
1.99564e-05
-1.9746e-07
1.995e-05
-2.17127e-07
1.9943e-05
-2.37771e-07
1.99354e-05
-2.59434e-07
1.99271e-05
-2.82156e-07
1.99183e-05
-3.05978e-07
1.99087e-05
-3.30943e-07
1.98984e-05
-3.57092e-07
1.98873e-05
-3.84467e-07
1.98754e-05
-4.1311e-07
1.98627e-05
-4.43062e-07
1.98491e-05
-4.74364e-07
1.98345e-05
-5.07058e-07
1.9819e-05
-5.41184e-07
1.98024e-05
-5.76781e-07
1.97848e-05
-6.13887e-07
1.9766e-05
-6.52541e-07
1.97461e-05
-6.92777e-07
1.97249e-05
-7.34629e-07
1.97025e-05
-7.7813e-07
1.96787e-05
-8.23308e-07
1.96535e-05
-8.7019e-07
1.96268e-05
-9.18799e-07
1.95987e-05
-9.69154e-07
1.95689e-05
-1.02127e-06
1.95376e-05
-1.07516e-06
1.95045e-05
-1.13083e-06
1.94697e-05
-1.18827e-06
1.94331e-05
-1.24748e-06
1.93946e-05
-1.30844e-06
1.93541e-05
-1.37113e-06
1.93117e-05
-1.43552e-06
1.92672e-05
-1.50157e-06
1.92206e-05
-1.56921e-06
1.91719e-05
-1.63839e-06
1.9121e-05
-1.70902e-06
1.90678e-05
-1.78102e-06
1.90123e-05
-1.85428e-06
1.89545e-05
-1.92867e-06
1.88944e-05
-2.00405e-06
1.88319e-05
-2.08026e-06
1.87671e-05
-2.15713e-06
1.86998e-05
-2.23446e-06
1.86302e-05
-2.31203e-06
1.85583e-05
-2.3896e-06
1.8484e-05
-2.46693e-06
1.84075e-05
-2.54372e-06
1.83289e-05
-2.61969e-06
1.82481e-05
-2.69452e-06
1.81653e-05
-2.7679e-06
1.80806e-05
-2.83948e-06
1.79941e-05
-2.90891e-06
1.7906e-05
-2.97585e-06
1.78165e-05
-3.03996e-06
1.77256e-05
-3.10088e-06
1.76337e-05
-3.15831e-06
1.75409e-05
-3.21192e-06
1.74475e-05
-3.26144e-06
1.73537e-05
-3.30663e-06
1.72596e-05
-3.34729e-06
1.71657e-05
-3.38328e-06
1.70721e-05
-3.41449e-06
1.69791e-05
-3.44089e-06
1.68869e-05
-3.4625e-06
1.67956e-05
-3.47939e-06
1.67056e-05
-3.49165e-06
1.66169e-05
-3.49945e-06
1.65299e-05
-3.50299e-06
1.64446e-05
-3.50249e-06
1.63612e-05
-3.49823e-06
1.62799e-05
-3.49054e-06
1.62009e-05
-3.47977e-06
1.61242e-05
-3.46632e-06
1.605e-05
-3.45063e-06
1.59783e-05
-3.43315e-06
1.59093e-05
-3.41438e-06
1.58429e-05
-3.39481e-06
1.57791e-05
-3.37497e-06
1.57179e-05
-3.3554e-06
1.56593e-05
-3.33665e-06
1.5603e-05
-3.31928e-06
1.55489e-05
-3.30382e-06
1.54968e-05
-3.2908e-06
1.54463e-05
-3.28067e-06
1.53969e-05
-3.27392e-06
-3.2714e-06
1.99998e-05
-4.28275e-09
1.99993e-05
-1.34423e-08
1.99984e-05
-2.32129e-08
1.99972e-05
-3.35741e-08
1.99956e-05
-4.45311e-08
1.99936e-05
-5.60959e-08
1.99912e-05
-6.82859e-08
1.99884e-05
-8.1123e-08
1.99853e-05
-9.46328e-08
1.99817e-05
-1.08844e-07
1.99777e-05
-1.23789e-07
1.99733e-05
-1.39499e-07
1.99684e-05
-1.5601e-07
1.9963e-05
-1.73358e-07
1.99571e-05
-1.9158e-07
1.99507e-05
-2.10714e-07
1.99437e-05
-2.30797e-07
1.99362e-05
-2.51869e-07
1.9928e-05
-2.73969e-07
1.99192e-05
-2.97137e-07
1.99096e-05
-3.21413e-07
1.98994e-05
-3.46837e-07
1.98883e-05
-3.73449e-07
1.98765e-05
-4.0129e-07
1.98639e-05
-4.304e-07
1.98503e-05
-4.60818e-07
1.98358e-05
-4.92583e-07
1.98204e-05
-5.25736e-07
1.98039e-05
-5.60312e-07
1.97864e-05
-5.96351e-07
1.97677e-05
-6.33886e-07
1.97479e-05
-6.72954e-07
1.97269e-05
-7.13585e-07
1.97046e-05
-7.55811e-07
1.96809e-05
-7.9966e-07
1.96559e-05
-8.45156e-07
1.96294e-05
-8.92323e-07
1.96014e-05
-9.41178e-07
1.95719e-05
-9.91737e-07
1.95407e-05
-1.04401e-06
1.95079e-05
-1.098e-06
1.94733e-05
-1.1537e-06
1.9437e-05
-1.21112e-06
1.93988e-05
-1.27022e-06
1.93586e-05
-1.331e-06
1.93165e-05
-1.39342e-06
1.92724e-05
-1.45744e-06
1.92262e-05
-1.523e-06
1.91778e-05
-1.59005e-06
1.91273e-05
-1.65851e-06
1.90746e-05
-1.72829e-06
1.90196e-05
-1.79929e-06
1.89624e-05
-1.8714e-06
1.89028e-05
-1.94446e-06
1.88409e-05
-2.01835e-06
1.87766e-05
-2.09287e-06
1.871e-05
-2.16786e-06
1.86411e-05
-2.2431e-06
1.85698e-05
-2.31837e-06
1.84963e-05
-2.39341e-06
1.84206e-05
-2.46798e-06
1.83427e-05
-2.54179e-06
1.82627e-05
-2.61454e-06
1.81807e-05
-2.68592e-06
1.80969e-05
-2.75561e-06
1.80112e-05
-2.82329e-06
1.7924e-05
-2.88861e-06
1.78353e-05
-2.95126e-06
1.77453e-05
-3.01091e-06
1.76542e-05
-3.06723e-06
1.75623e-05
-3.11995e-06
1.74696e-05
-3.1688e-06
1.73766e-05
-3.21355e-06
1.72833e-05
-3.25399e-06
1.719e-05
-3.29e-06
1.70969e-05
-3.32146e-06
1.70044e-05
-3.34835e-06
1.69126e-05
-3.37066e-06
1.68216e-05
-3.38845e-06
1.67318e-05
-3.40182e-06
1.66433e-05
-3.41092e-06
1.65562e-05
-3.41593e-06
1.64708e-05
-3.41707e-06
1.63872e-05
-3.41463e-06
1.63055e-05
-3.40889e-06
1.6226e-05
-3.40022e-06
1.61486e-05
-3.38898e-06
1.60736e-05
-3.37559e-06
1.60009e-05
-3.36049e-06
1.59307e-05
-3.34414e-06
1.58629e-05
-3.32701e-06
1.57975e-05
-3.30961e-06
1.57346e-05
-3.29242e-06
1.56739e-05
-3.27597e-06
1.56153e-05
-3.26075e-06
1.55588e-05
-3.24727e-06
1.5504e-05
-3.23599e-06
1.54506e-05
-3.2273e-06
1.53983e-05
-3.22159e-06
-3.21881e-06
1.99998e-05
-4.12303e-09
1.99993e-05
-1.29457e-08
1.99985e-05
-2.23665e-08
1.99973e-05
-3.23696e-08
1.99957e-05
-4.29619e-08
1.99938e-05
-5.41559e-08
1.99915e-05
-6.5968e-08
1.99888e-05
-7.84185e-08
1.99857e-05
-9.15311e-08
1.99821e-05
-1.05332e-07
1.99782e-05
-1.19851e-07
1.99738e-05
-1.35119e-07
1.9969e-05
-1.51168e-07
1.99637e-05
-1.68032e-07
1.99578e-05
-1.85746e-07
1.99515e-05
-2.04346e-07
1.99445e-05
-2.23869e-07
1.9937e-05
-2.44351e-07
1.99289e-05
-2.65831e-07
1.99201e-05
-2.88347e-07
1.99106e-05
-3.11936e-07
1.99004e-05
-3.36639e-07
1.98895e-05
-3.62492e-07
1.98777e-05
-3.89536e-07
1.98651e-05
-4.17808e-07
1.98516e-05
-4.47347e-07
1.98372e-05
-4.78191e-07
1.98219e-05
-5.10377e-07
1.98055e-05
-5.43941e-07
1.97881e-05
-5.78919e-07
1.97695e-05
-6.15346e-07
1.97498e-05
-6.53254e-07
1.97289e-05
-6.92674e-07
1.97068e-05
-7.33636e-07
1.96833e-05
-7.76167e-07
1.96584e-05
-8.20291e-07
1.96321e-05
-8.66028e-07
1.96043e-05
-9.13398e-07
1.9575e-05
-9.62413e-07
1.95441e-05
-1.01308e-06
1.95115e-05
-1.06541e-06
1.94772e-05
-1.1194e-06
1.94411e-05
-1.17503e-06
1.94032e-05
-1.23231e-06
1.93634e-05
-1.29119e-06
1.93216e-05
-1.35167e-06
1.92779e-05
-1.41368e-06
1.92321e-05
-1.47719e-06
1.91842e-05
-1.54214e-06
1.91341e-05
-1.60845e-06
1.90818e-05
-1.67605e-06
1.90274e-05
-1.74482e-06
1.89706e-05
-1.81466e-06
1.89116e-05
-1.88545e-06
1.88503e-05
-1.95703e-06
1.87867e-05
-2.02925e-06
1.87208e-05
-2.10193e-06
1.86525e-05
-2.17487e-06
1.8582e-05
-2.24786e-06
1.85093e-05
-2.32066e-06
1.84343e-05
-2.39303e-06
1.83572e-05
-2.4647e-06
1.82781e-05
-2.53538e-06
1.81969e-05
-2.60479e-06
1.81139e-05
-2.67261e-06
1.80292e-05
-2.73854e-06
1.79429e-05
-2.80226e-06
1.7855e-05
-2.86345e-06
1.77659e-05
-2.9218e-06
1.76757e-05
-2.97702e-06
1.75846e-05
-3.02883e-06
1.74928e-05
-3.07698e-06
1.74005e-05
-3.12123e-06
1.73079e-05
-3.16141e-06
1.72153e-05
-3.19737e-06
1.71228e-05
-3.22902e-06
1.70308e-05
-3.25631e-06
1.69393e-05
-3.27923e-06
1.68487e-05
-3.29783e-06
1.67591e-05
-3.31221e-06
1.66707e-05
-3.32249e-06
1.65836e-05
-3.32887e-06
1.64981e-05
-3.33154e-06
1.64142e-05
-3.33078e-06
1.63322e-05
-3.32687e-06
1.62521e-05
-3.32015e-06
1.61741e-05
-3.31097e-06
1.60983e-05
-3.29972e-06
1.60246e-05
-3.28683e-06
1.59532e-05
-3.27272e-06
1.5884e-05
-3.25784e-06
1.58171e-05
-3.24267e-06
1.57523e-05
-3.22767e-06
1.56897e-05
-3.2133e-06
1.56289e-05
-3.20005e-06
1.557e-05
-3.18835e-06
1.55127e-05
-3.17863e-06
1.54566e-05
-3.17125e-06
1.54016e-05
-3.16653e-06
-3.16376e-06
1.99998e-05
-3.97028e-09
1.99994e-05
-1.24697e-08
1.99986e-05
-2.15527e-08
1.99974e-05
-3.12071e-08
1.99959e-05
-4.14416e-08
1.9994e-05
-5.22691e-08
1.99917e-05
-6.37055e-08
1.99891e-05
-7.57702e-08
1.9986e-05
-8.84852e-08
1.99826e-05
-1.01875e-07
1.99787e-05
-1.15968e-07
1.99744e-05
-1.30792e-07
1.99696e-05
-1.46377e-07
1.99643e-05
-1.62756e-07
1.99585e-05
-1.79963e-07
1.99522e-05
-1.9803e-07
1.99453e-05
-2.16993e-07
1.99379e-05
-2.36887e-07
1.99298e-05
-2.57748e-07
1.9921e-05
-2.79614e-07
1.99116e-05
-3.0252e-07
1.99015e-05
-3.26504e-07
1.98906e-05
-3.51603e-07
1.98789e-05
-3.77854e-07
1.98664e-05
-4.05294e-07
1.9853e-05
-4.3396e-07
1.98387e-05
-4.63888e-07
1.98235e-05
-4.95114e-07
1.98072e-05
-5.27673e-07
1.97899e-05
-5.61599e-07
1.97714e-05
-5.96926e-07
1.97519e-05
-6.33684e-07
1.97311e-05
-6.71904e-07
1.97091e-05
-7.11614e-07
1.96858e-05
-7.52839e-07
1.96611e-05
-7.95603e-07
1.9635e-05
-8.39925e-07
1.96074e-05
-8.85824e-07
1.95783e-05
-9.33311e-07
1.95476e-05
-9.82396e-07
1.95153e-05
-1.03308e-06
1.94812e-05
-1.08537e-06
1.94455e-05
-1.13925e-06
1.94079e-05
-1.19471e-06
1.93684e-05
-1.25173e-06
1.9327e-05
-1.31027e-06
1.92836e-05
-1.37032e-06
1.92382e-05
-1.4318e-06
1.91908e-05
-1.49467e-06
1.91412e-05
-1.55887e-06
1.90894e-05
-1.6243e-06
1.90355e-05
-1.69088e-06
1.89793e-05
-1.75849e-06
1.89209e-05
-1.82703e-06
1.88602e-05
-1.89634e-06
1.87973e-05
-1.96629e-06
1.8732e-05
-2.03669e-06
1.86645e-05
-2.10736e-06
1.85948e-05
-2.1781e-06
1.85228e-05
-2.24869e-06
1.84486e-05
-2.31889e-06
1.83724e-05
-2.38844e-06
1.82941e-05
-2.45708e-06
1.82138e-05
-2.52454e-06
1.81317e-05
-2.59051e-06
1.80479e-05
-2.6547e-06
1.79624e-05
-2.71681e-06
1.78755e-05
-2.77654e-06
1.77873e-05
-2.8336e-06
1.7698e-05
-2.8877e-06
1.76077e-05
-2.93857e-06
1.75167e-05
-2.98597e-06
1.74252e-05
-3.02969e-06
1.73333e-05
-3.06955e-06
1.72414e-05
-3.10541e-06
1.71495e-05
-3.13717e-06
1.7058e-05
-3.16477e-06
1.69669e-05
-3.18821e-06
1.68767e-05
-3.20753e-06
1.67873e-05
-3.22282e-06
1.6699e-05
-3.23419e-06
1.66119e-05
-3.24181e-06
1.65263e-05
-3.2459e-06
1.64422e-05
-3.2467e-06
1.63598e-05
-3.24448e-06
1.62792e-05
-3.23956e-06
1.62005e-05
-3.23228e-06
1.61238e-05
-3.22302e-06
1.60491e-05
-3.21217e-06