/*--------------------------------*- C++ -*----------------------------------*\
  =========                 |
  \\      /  F ield         | OpenFOAM: The Open Source CFD Toolbox
   \\    /   O peration     | Website:  https://openfoam.org
    \\  /    A nd           | Version:  11
     \\/     M anipulation  |
\*---------------------------------------------------------------------------*/
FoamFile
{
    format      ascii;
    class       volScalarField;
    location    "580";
    object      k;
}
// * * * * * * * * * * * * * * * * * * * * * * * * * * * * * * * * * * * * * //

dimensions      [0 2 -2 0 0 0 0];

internalField   nonuniform List<scalar> 
10000
(
0.000939687
0.000835718
0.00074589
0.000668033
0.000600339
0.000541298
0.000489644
0.000444314
0.000404414
0.000369189
0.000338001
0.000310307
0.000285646
0.000263627
0.000243912
0.000226215
0.000210287
0.000195917
0.00018292
0.000171136
0.000160429
0.000150677
0.000141776
0.000133634
0.000126172
0.000119318
0.000113012
0.000107198
0.000101828
9.68595e-05
9.22544e-05
8.79791e-05
8.40036e-05
8.03009e-05
7.68472e-05
7.36209e-05
7.06027e-05
6.77753e-05
6.5123e-05
6.26318e-05
6.02889e-05
5.80826e-05
5.60027e-05
5.40395e-05
5.21844e-05
5.04295e-05
4.87677e-05
4.71924e-05
4.56975e-05
4.42776e-05
4.29276e-05
4.1643e-05
4.04194e-05
3.92529e-05
3.814e-05
3.70773e-05
3.60618e-05
3.50906e-05
3.41612e-05
3.3271e-05
3.2418e-05
3.15999e-05
3.0815e-05
3.00614e-05
2.93376e-05
2.86419e-05
2.79731e-05
2.73299e-05
2.6711e-05
2.61153e-05
2.5542e-05
2.499e-05
2.44585e-05
2.39469e-05
2.34543e-05
2.29802e-05
2.2524e-05
2.20852e-05
2.16635e-05
2.12583e-05
2.08695e-05
2.04966e-05
2.01395e-05
1.97979e-05
1.94718e-05
1.9161e-05
1.88653e-05
1.85849e-05
1.83196e-05
1.80696e-05
1.78351e-05
1.76161e-05
1.74132e-05
1.7227e-05
1.70582e-05
1.69083e-05
1.6779e-05
1.6673e-05
1.65941e-05
1.65483e-05
0.000939687
0.000835718
0.00074589
0.000668033
0.000600339
0.000541298
0.000489644
0.000444314
0.000404414
0.000369189
0.000338001
0.000310307
0.000285646
0.000263627
0.000243912
0.000226215
0.000210288
0.000195917
0.00018292
0.000171136
0.000160429
0.000150677
0.000141776
0.000133634
0.000126172
0.000119318
0.000113012
0.000107198
0.000101828
9.68596e-05
9.22546e-05
8.79793e-05
8.40038e-05
8.03011e-05
7.68474e-05
7.36211e-05
7.06029e-05
6.77755e-05
6.51232e-05
6.2632e-05
6.02891e-05
5.80828e-05
5.60029e-05
5.40397e-05
5.21846e-05
5.04297e-05
4.87679e-05
4.71926e-05
4.56977e-05
4.42778e-05
4.29279e-05
4.16432e-05
4.04196e-05
3.92532e-05
3.81403e-05
3.70776e-05
3.60621e-05
3.50909e-05
3.41615e-05
3.32713e-05
3.24183e-05
3.16002e-05
3.08153e-05
3.00618e-05
2.93379e-05
2.86423e-05
2.79735e-05
2.73302e-05
2.67113e-05
2.61157e-05
2.55424e-05
2.49904e-05
2.4459e-05
2.39473e-05
2.34547e-05
2.29806e-05
2.25244e-05
2.20857e-05
2.16639e-05
2.12588e-05
2.08699e-05
2.0497e-05
2.01399e-05
1.97984e-05
1.94722e-05
1.91614e-05
1.88657e-05
1.85853e-05
1.832e-05
1.807e-05
1.78354e-05
1.76165e-05
1.74136e-05
1.72273e-05
1.70585e-05
1.69086e-05
1.67792e-05
1.66732e-05
1.65943e-05
1.65485e-05
0.000939687
0.000835718
0.00074589
0.000668033
0.00060034
0.000541298
0.000489644
0.000444314
0.000404414
0.000369189
0.000338001
0.000310307
0.000285646
0.000263627
0.000243912
0.000226215
0.000210288
0.000195917
0.00018292
0.000171137
0.000160429
0.000150677
0.000141776
0.000133634
0.000126172
0.000119319
0.000113012
0.000107198
0.000101828
9.68599e-05
9.22549e-05
8.79796e-05
8.40041e-05
8.03014e-05
7.68477e-05
7.36214e-05
7.06032e-05
6.77759e-05
6.51236e-05
6.26324e-05
6.02894e-05
5.80832e-05
5.60033e-05
5.40401e-05
5.2185e-05
5.04302e-05
4.87684e-05
4.7193e-05
4.56982e-05
4.42783e-05
4.29284e-05
4.16437e-05
4.04202e-05
3.92537e-05
3.81408e-05
3.70782e-05
3.60627e-05
3.50915e-05
3.41621e-05
3.32719e-05
3.24189e-05
3.16009e-05
3.0816e-05
3.00624e-05
2.93386e-05
2.8643e-05
2.79742e-05
2.73309e-05
2.6712e-05
2.61164e-05
2.55431e-05
2.49911e-05
2.44597e-05
2.3948e-05
2.34555e-05
2.29814e-05
2.25252e-05
2.20864e-05
2.16647e-05
2.12595e-05
2.08706e-05
2.04978e-05
2.01406e-05
1.97991e-05
1.94729e-05
1.91621e-05
1.88664e-05
1.8586e-05
1.83207e-05
1.80706e-05
1.7836e-05
1.7617e-05
1.74141e-05
1.72278e-05
1.7059e-05
1.6909e-05
1.67797e-05
1.66736e-05
1.65947e-05
1.65489e-05
0.000939687
0.000835718
0.00074589
0.000668033
0.00060034
0.000541298
0.000489644
0.000444314
0.000404415
0.00036919
0.000338001
0.000310307
0.000285647
0.000263627
0.000243913
0.000226215
0.000210288
0.000195918
0.00018292
0.000171137
0.000160429
0.000150677
0.000141776
0.000133635
0.000126173
0.000119319
0.000113013
0.000107199
0.000101829
9.68604e-05
9.22553e-05
8.79801e-05
8.40046e-05
8.03019e-05
7.68482e-05
7.36219e-05
7.06038e-05
6.77764e-05
6.51242e-05
6.26329e-05
6.029e-05
5.80838e-05
5.60039e-05
5.40407e-05
5.21857e-05
5.04308e-05
4.8769e-05
4.71937e-05
4.56989e-05
4.4279e-05
4.29291e-05
4.16445e-05
4.04209e-05
3.92545e-05
3.81416e-05
3.7079e-05
3.60635e-05
3.50923e-05
3.41629e-05
3.32728e-05
3.24198e-05
3.16018e-05
3.08169e-05
3.00633e-05
2.93395e-05
2.86439e-05
2.79752e-05
2.73319e-05
2.6713e-05
2.61174e-05
2.55441e-05
2.49922e-05
2.44607e-05
2.39491e-05
2.34565e-05
2.29824e-05
2.25263e-05
2.20875e-05
2.16658e-05
2.12606e-05
2.08717e-05
2.04988e-05
2.01417e-05
1.98001e-05
1.9474e-05
1.91631e-05
1.88674e-05
1.85869e-05
1.83216e-05
1.80715e-05
1.78368e-05
1.76178e-05
1.74149e-05
1.72285e-05
1.70597e-05
1.69097e-05
1.67803e-05
1.66742e-05
1.65953e-05
1.65495e-05
0.000939687
0.000835718
0.00074589
0.000668033
0.00060034
0.000541299
0.000489644
0.000444315
0.000404415
0.00036919
0.000338001
0.000310307
0.000285647
0.000263628
0.000243913
0.000226216
0.000210288
0.000195918
0.000182921
0.000171137
0.00016043
0.000150678
0.000141777
0.000133635
0.000126173
0.00011932
0.000113013
0.000107199
0.000101829
9.68609e-05
9.22559e-05
8.79807e-05
8.40052e-05
8.03026e-05
7.68489e-05
7.36226e-05
7.06045e-05
6.77771e-05
6.51249e-05
6.26337e-05
6.02908e-05
5.80846e-05
5.60047e-05
5.40415e-05
5.21865e-05
5.04317e-05
4.87699e-05
4.71946e-05
4.56998e-05
4.42799e-05
4.293e-05
4.16454e-05
4.04219e-05
3.92555e-05
3.81427e-05
3.708e-05
3.60646e-05
3.50934e-05
3.4164e-05
3.32739e-05
3.24209e-05
3.1603e-05
3.08181e-05
3.00646e-05
2.93408e-05
2.86452e-05
2.79764e-05
2.73332e-05
2.67144e-05
2.61188e-05
2.55455e-05
2.49935e-05
2.44621e-05
2.39505e-05
2.34579e-05
2.29839e-05
2.25277e-05
2.20889e-05
2.16672e-05
2.1262e-05
2.08731e-05
2.05002e-05
2.01431e-05
1.98015e-05
1.94753e-05
1.91644e-05
1.88687e-05
1.85881e-05
1.83228e-05
1.80726e-05
1.78379e-05
1.76189e-05
1.74158e-05
1.72294e-05
1.70606e-05
1.69105e-05
1.67811e-05
1.6675e-05
1.6596e-05
1.65501e-05
0.000939687
0.000835718
0.00074589
0.000668033
0.00060034
0.000541299
0.000489645
0.000444315
0.000404415
0.00036919
0.000338002
0.000310308
0.000285647
0.000263628
0.000243914
0.000226216
0.000210289
0.000195919
0.000182921
0.000171138
0.00016043
0.000150678
0.000141777
0.000133636
0.000126174
0.00011932
0.000113014
0.0001072
0.00010183
9.68616e-05
9.22567e-05
8.79814e-05
8.40059e-05
8.03033e-05
7.68497e-05
7.36234e-05
7.06053e-05
6.7778e-05
6.51258e-05
6.26346e-05
6.02917e-05
5.80856e-05
5.60057e-05
5.40425e-05
5.21875e-05
5.04327e-05
4.8771e-05
4.71957e-05
4.57009e-05
4.42811e-05
4.29312e-05
4.16466e-05
4.04231e-05
3.92567e-05
3.81439e-05
3.70813e-05
3.60659e-05
3.50948e-05
3.41654e-05
3.32753e-05
3.24224e-05
3.16044e-05
3.08196e-05
3.00661e-05
2.93423e-05
2.86468e-05
2.7978e-05
2.73348e-05
2.6716e-05
2.61204e-05
2.55472e-05
2.49952e-05
2.44638e-05
2.39522e-05
2.34597e-05
2.29856e-05
2.25294e-05
2.20907e-05
2.16689e-05
2.12637e-05
2.08748e-05
2.05019e-05
2.01447e-05
1.98031e-05
1.94769e-05
1.91659e-05
1.88702e-05
1.85896e-05
1.83242e-05
1.8074e-05
1.78392e-05
1.76201e-05
1.7417e-05
1.72306e-05
1.70616e-05
1.69115e-05
1.6782e-05
1.66758e-05
1.65968e-05
1.6551e-05
0.000939687
0.000835718
0.00074589
0.000668034
0.00060034
0.000541299
0.000489645
0.000444315
0.000404415
0.000369191
0.000338002
0.000310308
0.000285648
0.000263628
0.000243914
0.000226217
0.000210289
0.000195919
0.000182922
0.000171138
0.000160431
0.000150679
0.000141778
0.000133637
0.000126174
0.000119321
0.000113015
0.000107201
0.000101831
9.68625e-05
9.22575e-05
8.79823e-05
8.40068e-05
8.03043e-05
7.68506e-05
7.36244e-05
7.06063e-05
6.7779e-05
6.51268e-05
6.26357e-05
6.02928e-05
5.80867e-05
5.60068e-05
5.40437e-05
5.21887e-05
5.04339e-05
4.87722e-05
4.7197e-05
4.57022e-05
4.42824e-05
4.29326e-05
4.1648e-05
4.04245e-05
3.92582e-05
3.81454e-05
3.70828e-05
3.60674e-05
3.50964e-05
3.4167e-05
3.3277e-05
3.24241e-05
3.16061e-05
3.08213e-05
3.00679e-05
2.93441e-05
2.86486e-05
2.79799e-05
2.73367e-05
2.67179e-05
2.61224e-05
2.55491e-05
2.49972e-05
2.44658e-05
2.39542e-05
2.34617e-05
2.29876e-05
2.25315e-05
2.20927e-05
2.16709e-05
2.12658e-05
2.08768e-05
2.05039e-05
2.01467e-05
1.98051e-05
1.94788e-05
1.91678e-05
1.8872e-05
1.85913e-05
1.83259e-05
1.80756e-05
1.78408e-05
1.76216e-05
1.74184e-05
1.72319e-05
1.70628e-05
1.69126e-05
1.67831e-05
1.66768e-05
1.65978e-05
1.65519e-05
0.000939687
0.000835718
0.00074589
0.000668034
0.00060034
0.000541299
0.000489645
0.000444316
0.000404416
0.000369191
0.000338003
0.000310309
0.000285648
0.000263629
0.000243915
0.000226217
0.00021029
0.00019592
0.000182922
0.000171139
0.000160432
0.00015068
0.000141779
0.000133637
0.000126175
0.000119322
0.000113016
0.000107202
0.000101832
9.68634e-05
9.22585e-05
8.79833e-05
8.40078e-05
8.03053e-05
7.68517e-05
7.36255e-05
7.06074e-05
6.77801e-05
6.5128e-05
6.26369e-05
6.0294e-05
5.80879e-05
5.60081e-05
5.4045e-05
5.21901e-05
5.04353e-05
4.87736e-05
4.71984e-05
4.57037e-05
4.42839e-05
4.29341e-05
4.16496e-05
4.04262e-05
3.92599e-05
3.81471e-05
3.70846e-05
3.60692e-05
3.50982e-05
3.41689e-05
3.32789e-05
3.2426e-05
3.16081e-05
3.08233e-05
3.00699e-05
2.93462e-05
2.86507e-05
2.7982e-05
2.73389e-05
2.67201e-05
2.61246e-05
2.55514e-05
2.49995e-05
2.44681e-05
2.39565e-05
2.3464e-05
2.29899e-05
2.25338e-05
2.2095e-05
2.16733e-05
2.12681e-05
2.08791e-05
2.05062e-05
2.01489e-05
1.98072e-05
1.94809e-05
1.91699e-05
1.8874e-05
1.85933e-05
1.83277e-05
1.80774e-05
1.78425e-05
1.76232e-05
1.74199e-05
1.72333e-05
1.70642e-05
1.69139e-05
1.67842e-05
1.6678e-05
1.65988e-05
1.65529e-05
0.000939687
0.000835718
0.00074589
0.000668034
0.00060034
0.000541299
0.000489645
0.000444316
0.000404416
0.000369191
0.000338003
0.000310309
0.000285649
0.00026363
0.000243915
0.000226218
0.000210291
0.00019592
0.000182923
0.00017114
0.000160432
0.000150681
0.00014178
0.000133638
0.000126176
0.000119323
0.000113017
0.000107203
0.000101833
9.68644e-05
9.22595e-05
8.79844e-05
8.4009e-05
8.03065e-05
7.68529e-05
7.36267e-05
7.06087e-05
6.77814e-05
6.51293e-05
6.26382e-05
6.02954e-05
5.80893e-05
5.60095e-05
5.40465e-05
5.21916e-05
5.04369e-05
4.87752e-05
4.72001e-05
4.57054e-05
4.42856e-05
4.29359e-05
4.16514e-05
4.0428e-05
3.92617e-05
3.8149e-05
3.70865e-05
3.60712e-05
3.51002e-05
3.41709e-05
3.3281e-05
3.24281e-05
3.16103e-05
3.08255e-05
3.00721e-05
2.93485e-05
2.8653e-05
2.79844e-05
2.73413e-05
2.67225e-05
2.61271e-05
2.55539e-05
2.5002e-05
2.44707e-05
2.39591e-05
2.34666e-05
2.29925e-05
2.25364e-05
2.20976e-05
2.16758e-05
2.12706e-05
2.08817e-05
2.05087e-05
2.01514e-05
1.98097e-05
1.94833e-05
1.91722e-05
1.88762e-05
1.85955e-05
1.83298e-05
1.80794e-05
1.78444e-05
1.7625e-05
1.74216e-05
1.72349e-05
1.70657e-05
1.69153e-05
1.67855e-05
1.66792e-05
1.66e-05
1.6554e-05
0.000939687
0.000835718
0.00074589
0.000668034
0.000600341
0.0005413
0.000489646
0.000444316
0.000404416
0.000369192
0.000338003
0.00031031
0.000285649
0.00026363
0.000243916
0.000226219
0.000210291
0.000195921
0.000182924
0.000171141
0.000160433
0.000150681
0.000141781
0.000133639
0.000126177
0.000119324
0.000113018
0.000107204
0.000101834
9.68656e-05
9.22607e-05
8.79856e-05
8.40102e-05
8.03077e-05
7.68542e-05
7.3628e-05
7.061e-05
6.77828e-05
6.51307e-05
6.26397e-05
6.02969e-05
5.80909e-05
5.60111e-05
5.40481e-05
5.21932e-05
5.04386e-05
4.8777e-05
4.72018e-05
4.57072e-05
4.42875e-05
4.29378e-05
4.16533e-05
4.043e-05
3.92638e-05
3.81511e-05
3.70886e-05
3.60734e-05
3.51024e-05
3.41732e-05
3.32833e-05
3.24305e-05
3.16127e-05
3.0828e-05
3.00746e-05
2.9351e-05
2.86556e-05
2.7987e-05
2.73439e-05
2.67252e-05
2.61298e-05
2.55566e-05
2.50048e-05
2.44734e-05
2.39619e-05
2.34694e-05
2.29954e-05
2.25392e-05
2.21004e-05
2.16786e-05
2.12734e-05
2.08844e-05
2.05114e-05
2.01541e-05
1.98123e-05
1.94859e-05
1.91747e-05
1.88787e-05
1.85978e-05
1.83321e-05
1.80816e-05
1.78464e-05
1.76269e-05
1.74234e-05
1.72366e-05
1.70673e-05
1.69167e-05
1.67869e-05
1.66805e-05
1.66012e-05
1.65552e-05
0.000939687
0.000835718
0.00074589
0.000668034
0.000600341
0.0005413
0.000489646
0.000444316
0.000404417
0.000369192
0.000338004
0.00031031
0.00028565
0.000263631
0.000243916
0.000226219
0.000210292
0.000195922
0.000182925
0.000171142
0.000160434
0.000150682
0.000141782
0.00013364
0.000126178
0.000119325
0.000113019
0.000107205
0.000101835
9.68668e-05
9.22619e-05
8.79869e-05
8.40115e-05
8.03091e-05
7.68556e-05
7.36295e-05
7.06115e-05
6.77843e-05
6.51323e-05
6.26413e-05
6.02985e-05
5.80926e-05
5.60128e-05
5.40499e-05
5.2195e-05
5.04404e-05
4.87788e-05
4.72038e-05
4.57091e-05
4.42895e-05
4.29398e-05
4.16554e-05
4.04321e-05
3.9266e-05
3.81533e-05
3.70909e-05
3.60757e-05
3.51048e-05
3.41756e-05
3.32858e-05
3.2433e-05
3.16152e-05
3.08306e-05
3.00773e-05
2.93537e-05
2.86583e-05
2.79898e-05
2.73468e-05
2.67281e-05
2.61327e-05
2.55595e-05
2.50077e-05
2.44765e-05
2.39649e-05
2.34724e-05
2.29984e-05
2.25423e-05
2.21035e-05
2.16817e-05
2.12764e-05
2.08874e-05
2.05144e-05
2.0157e-05
1.98152e-05
1.94887e-05
1.91774e-05
1.88813e-05
1.86003e-05
1.83345e-05
1.80839e-05
1.78486e-05
1.7629e-05
1.74254e-05
1.72384e-05
1.7069e-05
1.69183e-05
1.67884e-05
1.66818e-05
1.66025e-05
1.65564e-05
0.000939687
0.000835718
0.00074589
0.000668034
0.000600341
0.0005413
0.000489646
0.000444317
0.000404417
0.000369193
0.000338004
0.000310311
0.000285651
0.000263631
0.000243917
0.00022622
0.000210293
0.000195923
0.000182926
0.000171142
0.000160435
0.000150683
0.000141783
0.000133641
0.000126179
0.000119326
0.00011302
0.000107206
0.000101836
9.68681e-05
9.22633e-05
8.79882e-05
8.40129e-05
8.03105e-05
7.6857e-05
7.3631e-05
7.06131e-05
6.77859e-05
6.51339e-05
6.26429e-05
6.03003e-05
5.80943e-05
5.60147e-05
5.40517e-05
5.21969e-05
5.04424e-05
4.87808e-05
4.72058e-05
4.57112e-05
4.42917e-05
4.2942e-05
4.16577e-05
4.04344e-05
3.92683e-05
3.81557e-05
3.70934e-05
3.60782e-05
3.51073e-05
3.41782e-05
3.32884e-05
3.24357e-05
3.1618e-05
3.08334e-05
3.00802e-05
2.93566e-05
2.86613e-05
2.79928e-05
2.73498e-05
2.67312e-05
2.61358e-05
2.55627e-05
2.50109e-05
2.44797e-05
2.39681e-05
2.34757e-05
2.30017e-05
2.25455e-05
2.21067e-05
2.16849e-05
2.12797e-05
2.08906e-05
2.05175e-05
2.01601e-05
1.98182e-05
1.94916e-05
1.91803e-05
1.88841e-05
1.8603e-05
1.83371e-05
1.80863e-05
1.7851e-05
1.76312e-05
1.74275e-05
1.72403e-05
1.70707e-05
1.692e-05
1.67899e-05
1.66833e-05
1.66039e-05
1.65578e-05
0.000939687
0.000835718
0.000745891
0.000668034
0.000600341
0.0005413
0.000489647
0.000444317
0.000404418
0.000369193
0.000338005
0.000310311
0.000285651
0.000263632
0.000243918
0.000226221
0.000210294
0.000195924
0.000182926
0.000171143
0.000160436
0.000150684
0.000141784
0.000133642
0.00012618
0.000119327
0.000113021
0.000107207
0.000101838
9.68694e-05
9.22647e-05
8.79897e-05
8.40144e-05
8.0312e-05
7.68586e-05
7.36326e-05
7.06147e-05
6.77876e-05
6.51356e-05
6.26447e-05
6.03021e-05
5.80962e-05
5.60166e-05
5.40537e-05
5.2199e-05
5.04444e-05
4.8783e-05
4.7208e-05
4.57135e-05
4.42939e-05
4.29443e-05
4.16601e-05
4.04368e-05
3.92708e-05
3.81583e-05
3.7096e-05
3.60808e-05
3.511e-05
3.4181e-05
3.32912e-05
3.24386e-05
3.16209e-05
3.08364e-05
3.00832e-05
2.93597e-05
2.86644e-05
2.7996e-05
2.7353e-05
2.67344e-05
2.61391e-05
2.5566e-05
2.50143e-05
2.44831e-05
2.39716e-05
2.34791e-05
2.30051e-05
2.25489e-05
2.21102e-05
2.16883e-05
2.12831e-05
2.0894e-05
2.05208e-05
2.01634e-05
1.98214e-05
1.94947e-05
1.91833e-05
1.8887e-05
1.86058e-05
1.83398e-05
1.80889e-05
1.78534e-05
1.76335e-05
1.74296e-05
1.72423e-05
1.70726e-05
1.69217e-05
1.67915e-05
1.66847e-05
1.66053e-05
1.65591e-05
0.000939687
0.000835718
0.000745891
0.000668034
0.000600341
0.000541301
0.000489647
0.000444317
0.000404418
0.000369193
0.000338005
0.000310312
0.000285652
0.000263633
0.000243918
0.000226222
0.000210294
0.000195924
0.000182927
0.000171144
0.000160437
0.000150685
0.000141785
0.000133643
0.000126181
0.000119328
0.000113022
0.000107209
0.000101839
9.68708e-05
9.22661e-05
8.79912e-05
8.40159e-05
8.03136e-05
7.68602e-05
7.36343e-05
7.06164e-05
6.77894e-05
6.51375e-05
6.26466e-05
6.0304e-05
5.80982e-05
5.60186e-05
5.40558e-05
5.22011e-05
5.04466e-05
4.87852e-05
4.72102e-05
4.57158e-05
4.42963e-05
4.29468e-05
4.16625e-05
4.04394e-05
3.92734e-05
3.81609e-05
3.70987e-05
3.60836e-05
3.51129e-05
3.41839e-05
3.32942e-05
3.24416e-05
3.1624e-05
3.08395e-05
3.00863e-05
2.93629e-05
2.86677e-05
2.79993e-05
2.73564e-05
2.67379e-05
2.61426e-05
2.55695e-05
2.50178e-05
2.44866e-05
2.39751e-05
2.34827e-05
2.30087e-05
2.25525e-05
2.21138e-05
2.16919e-05
2.12866e-05
2.08975e-05
2.05243e-05
2.01668e-05
1.98247e-05
1.9498e-05
1.91865e-05
1.88901e-05
1.86088e-05
1.83426e-05
1.80916e-05
1.78559e-05
1.76359e-05
1.74318e-05
1.72444e-05
1.70745e-05
1.69235e-05
1.67931e-05
1.66863e-05
1.66067e-05
1.65605e-05
0.000939687
0.000835718
0.000745891
0.000668034
0.000600341
0.000541301
0.000489647
0.000444318
0.000404418
0.000369194
0.000338006
0.000310312
0.000285652
0.000263633
0.000243919
0.000226222
0.000210295
0.000195925
0.000182928
0.000171145
0.000160438
0.000150686
0.000141786
0.000133645
0.000126183
0.00011933
0.000113024
0.00010721
0.00010184
9.68723e-05
9.22676e-05
8.79927e-05
8.40175e-05
8.03153e-05
7.68619e-05
7.3636e-05
7.06182e-05
6.77912e-05
6.51393e-05
6.26485e-05
6.0306e-05
5.81002e-05
5.60207e-05
5.40579e-05
5.22033e-05
5.04488e-05
4.87875e-05
4.72126e-05
4.57182e-05
4.42988e-05
4.29493e-05
4.16651e-05
4.0442e-05
3.92761e-05
3.81637e-05
3.71015e-05
3.60865e-05
3.51158e-05
3.41869e-05
3.32972e-05
3.24447e-05
3.16271e-05
3.08427e-05
3.00896e-05
2.93663e-05
2.86711e-05
2.80027e-05
2.73599e-05
2.67414e-05
2.61462e-05
2.55732e-05
2.50215e-05
2.44903e-05
2.39788e-05
2.34864e-05
2.30124e-05
2.25563e-05
2.21175e-05
2.16956e-05
2.12903e-05
2.09011e-05
2.05279e-05
2.01703e-05
1.98282e-05
1.95014e-05
1.91898e-05
1.88932e-05
1.86118e-05
1.83455e-05
1.80943e-05
1.78585e-05
1.76383e-05
1.74341e-05
1.72465e-05
1.70765e-05
1.69253e-05
1.67948e-05
1.66878e-05
1.66081e-05
1.65619e-05
0.000939687
0.000835718
0.000745891
0.000668035
0.000600342
0.000541301
0.000489647
0.000444318
0.000404419
0.000369194
0.000338006
0.000310313
0.000285653
0.000263634
0.00024392
0.000226223
0.000210296
0.000195926
0.000182929
0.000171146
0.000160439
0.000150688
0.000141787
0.000133646
0.000126184
0.000119331
0.000113025
0.000107211
0.000101842
9.68738e-05
9.22691e-05
8.79943e-05
8.40192e-05
8.03169e-05
7.68636e-05
7.36378e-05
7.062e-05
6.77931e-05
6.51413e-05
6.26505e-05
6.0308e-05
5.81023e-05
5.60228e-05
5.40601e-05
5.22055e-05
5.04511e-05
4.87898e-05
4.7215e-05
4.57207e-05
4.43013e-05
4.29519e-05
4.16678e-05
4.04447e-05
3.92789e-05
3.81665e-05
3.71044e-05
3.60894e-05
3.51188e-05
3.419e-05
3.33004e-05
3.24479e-05
3.16304e-05
3.08461e-05
3.0093e-05
2.93697e-05
2.86746e-05
2.80063e-05
2.73635e-05
2.67451e-05
2.61499e-05
2.55769e-05
2.50253e-05
2.44941e-05
2.39827e-05
2.34903e-05
2.30163e-05
2.25601e-05
2.21213e-05
2.16995e-05
2.12941e-05
2.09049e-05
2.05316e-05
2.01739e-05
1.98317e-05
1.95048e-05
1.91931e-05
1.88965e-05
1.86149e-05
1.83485e-05
1.80972e-05
1.78612e-05
1.76408e-05
1.74364e-05
1.72487e-05
1.70785e-05
1.69271e-05
1.67965e-05
1.66894e-05
1.66096e-05
1.65633e-05
0.000939687
0.000835718
0.000745891
0.000668035
0.000600342
0.000541301
0.000489647
0.000444318
0.000404419
0.000369195
0.000338007
0.000310313
0.000285654
0.000263635
0.000243921
0.000226224
0.000210297
0.000195927
0.00018293
0.000171147
0.00016044
0.000150689
0.000141788
0.000133647
0.000126185
0.000119332
0.000113026
0.000107213
0.000101843
9.68753e-05
9.22707e-05
8.79959e-05
8.40208e-05
8.03187e-05
7.68654e-05
7.36396e-05
7.06219e-05
6.7795e-05
6.51433e-05
6.26525e-05
6.03101e-05
5.81044e-05
5.6025e-05
5.40624e-05
5.22078e-05
5.04535e-05
4.87923e-05
4.72175e-05
4.57232e-05
4.43039e-05
4.29546e-05
4.16705e-05
4.04475e-05
3.92817e-05
3.81694e-05
3.71074e-05
3.60925e-05
3.5122e-05
3.41931e-05
3.33036e-05
3.24512e-05
3.16338e-05
3.08495e-05
3.00965e-05
2.93733e-05
2.86782e-05
2.801e-05
2.73672e-05
2.67488e-05
2.61537e-05
2.55807e-05
2.50291e-05
2.4498e-05
2.39866e-05
2.34942e-05
2.30202e-05
2.25641e-05
2.21253e-05
2.17034e-05
2.1298e-05
2.09087e-05
2.05354e-05
2.01777e-05
1.98354e-05
1.95084e-05
1.91966e-05
1.88998e-05
1.86181e-05
1.83515e-05
1.81001e-05
1.78639e-05
1.76434e-05
1.74388e-05
1.72509e-05
1.70805e-05
1.69289e-05
1.67982e-05
1.66909e-05
1.66111e-05
1.65647e-05
0.000939687
0.000835718
0.000745891
0.000668035
0.000600342
0.000541301
0.000489648
0.000444319
0.000404419
0.000369195
0.000338007
0.000310314
0.000285654
0.000263635
0.000243921
0.000226225
0.000210298
0.000195928
0.000182931
0.000171148
0.000160441
0.00015069
0.000141789
0.000133648
0.000126186
0.000119334
0.000113028
0.000107214
0.000101845
9.68768e-05
9.22723e-05
8.79975e-05
8.40225e-05
8.03204e-05
7.68672e-05
7.36415e-05
7.06238e-05
6.7797e-05
6.51453e-05
6.26546e-05
6.03122e-05
5.81066e-05
5.60273e-05
5.40647e-05
5.22102e-05
5.04559e-05
4.87948e-05
4.722e-05
4.57258e-05
4.43066e-05
4.29573e-05
4.16733e-05
4.04504e-05
3.92846e-05
3.81724e-05
3.71104e-05
3.60956e-05
3.51251e-05
3.41964e-05
3.33069e-05
3.24546e-05
3.16372e-05
3.0853e-05
3.01001e-05
2.93769e-05
2.86819e-05
2.80137e-05
2.7371e-05
2.67527e-05
2.61576e-05
2.55847e-05
2.50331e-05
2.4502e-05
2.39906e-05
2.34983e-05
2.30243e-05
2.25681e-05
2.21293e-05
2.17074e-05
2.1302e-05
2.09127e-05
2.05393e-05
2.01815e-05
1.98391e-05
1.9512e-05
1.92001e-05
1.89032e-05
1.86214e-05
1.83546e-05
1.8103e-05
1.78667e-05
1.7646e-05
1.74412e-05
1.72531e-05
1.70825e-05
1.69308e-05
1.67999e-05
1.66925e-05
1.66126e-05
1.65661e-05
0.000939687
0.000835718
0.000745891
0.000668035
0.000600342
0.000541301
0.000489648
0.000444319
0.00040442
0.000369196
0.000338008
0.000310314
0.000285655
0.000263636
0.000243922
0.000226225
0.000210299
0.000195929
0.000182932
0.000171149
0.000160442
0.000150691
0.00014179
0.000133649
0.000126188
0.000119335
0.000113029
0.000107216
0.000101846
9.68783e-05
9.22739e-05
8.79992e-05
8.40242e-05
8.03222e-05
7.6869e-05
7.36433e-05
7.06258e-05
6.7799e-05
6.51473e-05
6.26567e-05
6.03144e-05
5.81088e-05
5.60295e-05
5.4067e-05
5.22126e-05
5.04584e-05
4.87973e-05
4.72226e-05
4.57285e-05
4.43093e-05
4.29601e-05
4.16761e-05
4.04533e-05
3.92876e-05
3.81755e-05
3.71135e-05
3.60988e-05
3.51284e-05
3.41997e-05
3.33103e-05
3.2458e-05
3.16407e-05
3.08566e-05
3.01037e-05
2.93806e-05
2.86856e-05
2.80175e-05
2.73749e-05
2.67566e-05
2.61615e-05
2.55887e-05
2.50371e-05
2.45061e-05
2.39947e-05
2.35024e-05
2.30284e-05
2.25722e-05
2.21334e-05
2.17115e-05
2.1306e-05
2.09167e-05
2.05432e-05
2.01853e-05
1.98429e-05
1.95157e-05
1.92036e-05
1.89066e-05
1.86247e-05
1.83577e-05
1.8106e-05
1.78695e-05
1.76486e-05
1.74436e-05
1.72553e-05
1.70846e-05
1.69327e-05
1.68016e-05
1.66941e-05
1.6614e-05
1.65676e-05
0.000939687
0.000835719
0.000745891
0.000668035
0.000600342
0.000541302
0.000489648
0.000444319
0.00040442
0.000369196
0.000338008
0.000310315
0.000285655
0.000263636
0.000243923
0.000226226
0.000210299
0.00019593
0.000182933
0.00017115
0.000160443
0.000150692
0.000141792
0.000133651
0.000126189
0.000119336
0.00011303
0.000107217
0.000101848
9.68799e-05
9.22755e-05
8.80009e-05
8.4026e-05
8.0324e-05
7.68709e-05
7.36452e-05
7.06277e-05
6.7801e-05
6.51494e-05
6.26588e-05
6.03166e-05
5.81111e-05
5.60318e-05
5.40694e-05
5.2215e-05
5.04609e-05
4.87998e-05
4.72252e-05
4.57311e-05
4.4312e-05
4.29629e-05
4.1679e-05
4.04562e-05
3.92906e-05
3.81785e-05
3.71167e-05
3.6102e-05
3.51316e-05
3.4203e-05
3.33137e-05
3.24615e-05
3.16443e-05
3.08602e-05
3.01074e-05
2.93843e-05
2.86894e-05
2.80214e-05
2.73788e-05
2.67605e-05
2.61655e-05
2.55927e-05
2.50412e-05
2.45102e-05
2.39988e-05
2.35065e-05
2.30325e-05
2.25764e-05
2.21375e-05
2.17156e-05
2.13101e-05
2.09207e-05
2.05472e-05
2.01892e-05
1.98467e-05
1.95194e-05
1.92072e-05
1.89101e-05
1.8628e-05
1.83609e-05
1.81089e-05
1.78723e-05
1.76512e-05
1.74461e-05
1.72576e-05
1.70866e-05
1.69346e-05
1.68033e-05
1.66957e-05
1.66155e-05
1.6569e-05
0.000939687
0.000835719
0.000745891
0.000668035
0.000600342
0.000541302
0.000489648
0.000444319
0.00040442
0.000369196
0.000338009
0.000310315
0.000285656
0.000263637
0.000243923
0.000226227
0.0002103
0.00019593
0.000182934
0.000171151
0.000160444
0.000150693
0.000141793
0.000133652
0.00012619
0.000119338
0.000113032
0.000107218
0.000101849
9.68815e-05
9.22771e-05
8.80025e-05
8.40277e-05
8.03257e-05
7.68727e-05
7.36471e-05
7.06297e-05
6.7803e-05
6.51515e-05
6.2661e-05
6.03188e-05
5.81133e-05
5.60341e-05
5.40717e-05
5.22174e-05
5.04634e-05
4.88024e-05
4.72279e-05
4.57338e-05
4.43148e-05
4.29657e-05
4.16819e-05
4.04592e-05
3.92936e-05
3.81816e-05
3.71198e-05
3.61052e-05
3.51349e-05
3.42064e-05
3.33171e-05
3.2465e-05
3.16478e-05
3.08638e-05
3.01111e-05
2.93881e-05
2.86933e-05
2.80252e-05
2.73827e-05
2.67645e-05
2.61695e-05
2.55968e-05
2.50453e-05
2.45143e-05
2.4003e-05
2.35107e-05
2.30367e-05
2.25806e-05
2.21417e-05
2.17197e-05
2.13142e-05
2.09247e-05
2.05511e-05
2.01931e-05
1.98505e-05
1.95231e-05
1.92108e-05
1.89135e-05
1.86313e-05
1.83641e-05
1.81119e-05
1.78751e-05
1.76538e-05
1.74485e-05
1.72598e-05
1.70887e-05
1.69364e-05
1.6805e-05
1.66972e-05
1.66169e-05
1.65703e-05
0.000939687
0.000835719
0.000745891
0.000668035
0.000600342
0.000541302
0.000489649
0.00044432
0.000404421
0.000369197
0.000338009
0.000310316
0.000285656
0.000263638
0.000243924
0.000226227
0.000210301
0.000195931
0.000182935
0.000171152
0.000160445
0.000150694
0.000141794
0.000133653
0.000126192
0.000119339
0.000113033
0.00010722
0.000101851
9.6883e-05
9.22787e-05
8.80042e-05
8.40294e-05
8.03275e-05
7.68745e-05
7.3649e-05
7.06316e-05
6.7805e-05
6.51535e-05
6.26631e-05
6.0321e-05
5.81156e-05
5.60365e-05
5.40741e-05
5.22199e-05
5.04659e-05
4.88049e-05
4.72305e-05
4.57365e-05
4.43175e-05
4.29685e-05
4.16848e-05
4.04621e-05
3.92967e-05
3.81847e-05
3.7123e-05
3.61084e-05
3.51382e-05
3.42098e-05
3.33206e-05
3.24685e-05
3.16514e-05
3.08674e-05
3.01148e-05
2.93918e-05
2.86971e-05
2.80291e-05
2.73866e-05
2.67685e-05
2.61736e-05
2.56009e-05
2.50494e-05
2.45185e-05
2.40072e-05
2.35149e-05
2.30409e-05
2.25847e-05
2.21459e-05
2.17238e-05
2.13183e-05
2.09288e-05
2.05551e-05
2.0197e-05
1.98543e-05
1.95268e-05
1.92144e-05
1.8917e-05
1.86346e-05
1.83672e-05
1.81149e-05
1.78779e-05
1.76564e-05
1.74509e-05
1.7262e-05
1.70907e-05
1.69383e-05
1.68067e-05
1.66987e-05
1.66183e-05
1.65717e-05
0.000939687
0.000835719
0.000745891
0.000668035
0.000600342
0.000541302
0.000489649
0.00044432
0.000404421
0.000369197
0.000338009
0.000310316
0.000285657
0.000263638
0.000243925
0.000226228
0.000210302
0.000195932
0.000182936
0.000171153
0.000160446
0.000150695
0.000141795
0.000133654
0.000126193
0.00011934
0.000113035
0.000107221
0.000101852
9.68845e-05
9.22803e-05
8.80058e-05
8.40311e-05
8.03293e-05
7.68764e-05
7.36509e-05
7.06335e-05
6.7807e-05
6.51556e-05
6.26652e-05
6.03231e-05
5.81178e-05
5.60388e-05
5.40765e-05
5.22223e-05
5.04684e-05
4.88075e-05
4.72331e-05
4.57392e-05
4.43203e-05
4.29713e-05
4.16877e-05
4.04651e-05
3.92997e-05
3.81878e-05
3.71262e-05
3.61117e-05
3.51415e-05
3.42131e-05
3.3324e-05
3.2472e-05
3.1655e-05
3.08711e-05
3.01185e-05
2.93956e-05
2.87009e-05
2.8033e-05
2.73906e-05
2.67725e-05
2.61776e-05
2.56049e-05
2.50535e-05
2.45226e-05
2.40113e-05
2.3519e-05
2.30451e-05
2.25889e-05
2.215e-05
2.1728e-05
2.13224e-05
2.09328e-05
2.05591e-05
2.0201e-05
1.98581e-05
1.95305e-05
1.9218e-05
1.89205e-05
1.86379e-05
1.83704e-05
1.81179e-05
1.78807e-05
1.7659e-05
1.74533e-05
1.72642e-05
1.70927e-05
1.69401e-05
1.68083e-05
1.67002e-05
1.66197e-05
1.6573e-05
0.000939687
0.000835719
0.000745891
0.000668035
0.000600343
0.000541302
0.000489649
0.00044432
0.000404421
0.000369197
0.00033801
0.000310317
0.000285657
0.000263639
0.000243925
0.000226229
0.000210302
0.000195933
0.000182936
0.000171154
0.000160447
0.000150696
0.000141796
0.000133655
0.000126194
0.000119341
0.000113036
0.000107223
0.000101854
9.6886e-05
9.22819e-05
8.80075e-05
8.40328e-05
8.0331e-05
7.68782e-05
7.36528e-05
7.06355e-05
6.7809e-05
6.51576e-05
6.26673e-05
6.03253e-05
5.812e-05
5.6041e-05
5.40788e-05
5.22247e-05
5.04708e-05
4.881e-05
4.72357e-05
4.57419e-05
4.4323e-05
4.29741e-05
4.16906e-05
4.0468e-05
3.93027e-05
3.81909e-05
3.71293e-05
3.61149e-05
3.51448e-05
3.42165e-05
3.33274e-05
3.24755e-05
3.16585e-05
3.08747e-05
3.01222e-05
2.93993e-05
2.87047e-05
2.80369e-05
2.73945e-05
2.67765e-05
2.61816e-05
2.5609e-05
2.50576e-05
2.45267e-05
2.40155e-05
2.35232e-05
2.30492e-05
2.25931e-05
2.21542e-05
2.17321e-05
2.13264e-05
2.09369e-05
2.05631e-05
2.02048e-05
1.98619e-05
1.95342e-05
1.92216e-05
1.89239e-05
1.86412e-05
1.83735e-05
1.81208e-05
1.78834e-05
1.76616e-05
1.74557e-05
1.72664e-05
1.70947e-05
1.69419e-05
1.681e-05
1.67017e-05
1.66211e-05
1.65743e-05
0.000939687
0.000835719
0.000745891
0.000668035
0.000600343
0.000541302
0.000489649
0.00044432
0.000404421
0.000369198
0.00033801
0.000310317
0.000285658
0.000263639
0.000243926
0.00022623
0.000210303
0.000195934
0.000182937
0.000171155
0.000160448
0.000150697
0.000141797
0.000133657
0.000126195
0.000119343
0.000113037
0.000107224
0.000101855
9.68875e-05
9.22834e-05
8.80091e-05
8.40345e-05
8.03327e-05
7.688e-05
7.36546e-05
7.06374e-05
6.78109e-05
6.51596e-05
6.26694e-05
6.03274e-05
5.81222e-05
5.60433e-05
5.40811e-05
5.22271e-05
5.04733e-05
4.88126e-05
4.72383e-05
4.57445e-05
4.43257e-05
4.29769e-05
4.16934e-05
4.0471e-05
3.93057e-05
3.81939e-05
3.71324e-05
3.61181e-05
3.51481e-05
3.42198e-05
3.33308e-05
3.24789e-05
3.16621e-05
3.08783e-05
3.01258e-05
2.94031e-05
2.87085e-05
2.80407e-05
2.73984e-05