/*--------------------------------*- C++ -*----------------------------------*\
  =========                 |
  \\      /  F ield         | OpenFOAM: The Open Source CFD Toolbox
   \\    /   O peration     | Website:  https://openfoam.org
    \\  /    A nd           | Version:  11
     \\/     M anipulation  |
\*---------------------------------------------------------------------------*/
FoamFile
{
    format      ascii;
    class       volScalarField;
    location    "580";
    object      nut;
}
// * * * * * * * * * * * * * * * * * * * * * * * * * * * * * * * * * * * * * //

dimensions      [0 2 -1 0 0 0 0];

internalField   nonuniform List<scalar> 
10000
(
0.000977118
0.000936709
0.000899654
0.000865633
0.000834358
0.00080557
0.000779039
0.000754555
0.000731931
0.000710997
0.000691601
0.000673607
0.00065689
0.00064134
0.000626855
0.000613345
0.000600728
0.000588928
0.000577879
0.000567519
0.000557793
0.000548651
0.000540047
0.000531939
0.000524289
0.000517063
0.00051023
0.000503759
0.000497626
0.000491805
0.000486275
0.000481015
0.000476007
0.000471234
0.000466679
0.000462328
0.000458168
0.000454187
0.000450372
0.000446714
0.000443202
0.000439828
0.000436582
0.000433458
0.000430447
0.000427544
0.000424741
0.000422034
0.000419417
0.000416884
0.000414431
0.000412054
0.00040975
0.000407513
0.000405342
0.000403233
0.000401183
0.00039919
0.000397253
0.000395369
0.000393536
0.000391755
0.000390023
0.000388342
0.000386709
0.000385127
0.000383595
0.000382115
0.000380688
0.000379317
0.000378005
0.000376753
0.000375567
0.00037445
0.000373408
0.000372445
0.000371569
0.000370786
0.000370103
0.000369528
0.000369071
0.000368739
0.000368541
0.000368488
0.000368587
0.000368847
0.000369276
0.000369879
0.000370659
0.000371618
0.000372751
0.000374048
0.000375491
0.000377051
0.000378686
0.000380335
0.000381915
0.000383314
0.000384386
0.000384962
0.000977118
0.000936709
0.000899654
0.000865633
0.000834358
0.000805571
0.000779039
0.000754555
0.000731931
0.000710997
0.000691601
0.000673607
0.00065689
0.00064134
0.000626856
0.000613345
0.000600728
0.000588928
0.000577879
0.000567519
0.000557793
0.000548651
0.000540047
0.000531939
0.000524289
0.000517064
0.00051023
0.00050376
0.000497626
0.000491805
0.000486275
0.000481016
0.000476008
0.000471234
0.00046668
0.000462329
0.000458169
0.000454188
0.000450373
0.000446715
0.000443203
0.000439828
0.000436583
0.000433459
0.000430448
0.000427545
0.000424742
0.000422035
0.000419418
0.000416885
0.000414432
0.000412056
0.000409751
0.000407515
0.000405343
0.000403234
0.000401185
0.000399192
0.000397255
0.00039537
0.000393538
0.000391757
0.000390025
0.000388343
0.000386711
0.000385129
0.000383597
0.000382117
0.00038069
0.000379319
0.000378006
0.000376755
0.000375569
0.000374452
0.00037341
0.000372447
0.000371571
0.000370787
0.000370104
0.00036953
0.000369072
0.000368739
0.000368541
0.000368487
0.000368586
0.000368846
0.000369274
0.000369877
0.000370657
0.000371615
0.000372748
0.000374044
0.000375486
0.000377045
0.00037868
0.000380328
0.000381908
0.000383307
0.000384378
0.000384954
0.000977118
0.000936709
0.000899654
0.000865633
0.000834358
0.000805571
0.000779039
0.000754555
0.000731931
0.000710997
0.000691601
0.000673607
0.000656891
0.000641341
0.000626856
0.000613346
0.000600728
0.000588928
0.000577879
0.00056752
0.000557794
0.000548652
0.000540048
0.00053194
0.00052429
0.000517064
0.000510231
0.00050376
0.000497627
0.000491806
0.000486276
0.000481017
0.000476009
0.000471235
0.000466681
0.00046233
0.00045817
0.000454189
0.000450374
0.000446716
0.000443204
0.00043983
0.000436585
0.00043346
0.00043045
0.000427547
0.000424744
0.000422037
0.00041942
0.000416887
0.000414435
0.000412058
0.000409753
0.000407517
0.000405346
0.000403237
0.000401187
0.000399195
0.000397258
0.000395374
0.000393541
0.00039176
0.000390029
0.000388347
0.000386715
0.000385132
0.0003836
0.00038212
0.000380694
0.000379323
0.00037801
0.000376759
0.000375572
0.000374455
0.000373413
0.00037245
0.000371573
0.00037079
0.000370106
0.000369531
0.000369072
0.000368739
0.000368541
0.000368486
0.000368584
0.000368843
0.00036927
0.000369872
0.000370651
0.000371608
0.00037274
0.000374035
0.000375476
0.000377034
0.000378667
0.000380315
0.000381895
0.000383293
0.000384363
0.000384939
0.000977118
0.000936709
0.000899654
0.000865633
0.000834358
0.000805571
0.00077904
0.000754556
0.000731931
0.000710997
0.000691602
0.000673608
0.000656891
0.000641341
0.000626856
0.000613346
0.000600729
0.000588929
0.00057788
0.00056752
0.000557795
0.000548653
0.000540049
0.000531941
0.000524291
0.000517065
0.000510232
0.000503762
0.000497628
0.000491808
0.000486278
0.000481018
0.00047601
0.000471237
0.000466682
0.000462332
0.000458172
0.000454191
0.000450377
0.000446718
0.000443207
0.000439832
0.000436587
0.000433463
0.000430453
0.00042755
0.000424747
0.00042204
0.000419423
0.000416891
0.000414438
0.000412062
0.000409757
0.000407521
0.00040535
0.000403241
0.000401192
0.000399199
0.000397262
0.000395378
0.000393546
0.000391765
0.000390034
0.000388352
0.00038672
0.000385137
0.000383606
0.000382126
0.000380699
0.000379328
0.000378015
0.000376764
0.000375577
0.00037446
0.000373417
0.000372454
0.000371577
0.000370793
0.000370109
0.000369533
0.000369073
0.00036874
0.00036854
0.000368484
0.000368581
0.000368839
0.000369265
0.000369864
0.000370642
0.000371598
0.000372727
0.000374021
0.00037546
0.000377017
0.000378649
0.000380296
0.000381874
0.000383271
0.000384341
0.000384917
0.000977118
0.00093671
0.000899655
0.000865633
0.000834358
0.000805571
0.00077904
0.000754556
0.000731931
0.000710998
0.000691602
0.000673608
0.000656892
0.000641342
0.000626857
0.000613347
0.000600729
0.00058893
0.000577881
0.000567521
0.000557796
0.000548654
0.00054005
0.000531942
0.000524293
0.000517067
0.000510233
0.000503763
0.00049763
0.000491809
0.00048628
0.00048102
0.000476013
0.000471239
0.000466685
0.000462334
0.000458175
0.000454194
0.000450379
0.000446721
0.00044321
0.000439836
0.00043659
0.000433466
0.000430456
0.000427553
0.000424751
0.000422045
0.000419427
0.000416895
0.000414443
0.000412066
0.000409762
0.000407526
0.000405355
0.000403247
0.000401197
0.000399205
0.000397268
0.000395384
0.000393552
0.000391771
0.00039004
0.000388359
0.000386726
0.000385144
0.000383612
0.000382133
0.000380706
0.000379335
0.000378022
0.00037677
0.000375583
0.000374466
0.000373423
0.000372459
0.000371582
0.000370797
0.000370112
0.000369535
0.000369075
0.00036874
0.000368539
0.000368482
0.000368577
0.000368833
0.000369257
0.000369855
0.00037063
0.000371584
0.000372711
0.000374003
0.00037544
0.000376995
0.000378625
0.00038027
0.000381847
0.000383243
0.000384313
0.000384888
0.000977118
0.00093671
0.000899655
0.000865633
0.000834358
0.000805571
0.00077904
0.000754556
0.000731932
0.000710998
0.000691603
0.000673609
0.000656892
0.000641342
0.000626858
0.000613348
0.00060073
0.000588931
0.000577882
0.000567522
0.000557797
0.000548655
0.000540051
0.000531943
0.000524294
0.000517069
0.000510235
0.000503765
0.000497632
0.000491812
0.000486282
0.000481023
0.000476015
0.000471242
0.000466688
0.000462337
0.000458178
0.000454197
0.000450383
0.000446725
0.000443214
0.00043984
0.000436595
0.000433471
0.000430461
0.000427558
0.000424756
0.00042205
0.000419433
0.0004169
0.000414448
0.000412072
0.000409768
0.000407532
0.000405362
0.000403253
0.000401204
0.000399212
0.000397275
0.000395392
0.00039356
0.000391779
0.000390048
0.000388367
0.000386735
0.000385153
0.000383621
0.000382141
0.000380715
0.000379343
0.00037803
0.000376778
0.000375591
0.000374474
0.00037343
0.000372466
0.000371588
0.000370802
0.000370116
0.000369538
0.000369077
0.00036874
0.000368538
0.000368479
0.000368572
0.000368826
0.000369248
0.000369843
0.000370616
0.000371567
0.000372692
0.000373981
0.000375416
0.000376968
0.000378596
0.000380239
0.000381814
0.000383208
0.000384277
0.000384851
0.000977118
0.00093671
0.000899655
0.000865633
0.000834358
0.000805571
0.00077904
0.000754557
0.000731932
0.000710999
0.000691603
0.000673609
0.000656893
0.000641343
0.000626859
0.000613349
0.000600731
0.000588932
0.000577883
0.000567524
0.000557798
0.000548657
0.000540053
0.000531945
0.000524296
0.000517071
0.000510237
0.000503767
0.000497634
0.000491814
0.000486285
0.000481026
0.000476018
0.000471245
0.000466691
0.000462341
0.000458182
0.000454201
0.000450387
0.000446729
0.000443218
0.000439844
0.000436599
0.000433476
0.000430466
0.000427564
0.000424762
0.000422056
0.000419439
0.000416907
0.000414455
0.000412079
0.000409775
0.00040754
0.00040537
0.000403261
0.000401212
0.000399221
0.000397284
0.000395401
0.000393569
0.000391789
0.000390058
0.000388377
0.000386745
0.000385163
0.000383631
0.000382151
0.000380725
0.000379354
0.00037804
0.000376788
0.000375601
0.000374483
0.000373438
0.000372474
0.000371595
0.000370808
0.000370121
0.000369542
0.000369079
0.000368741
0.000368537
0.000368476
0.000368567
0.000368818
0.000369237
0.00036983
0.0003706
0.000371548
0.000372669
0.000373955
0.000375387
0.000376936
0.000378561
0.000380202
0.000381775
0.000383168
0.000384235
0.000384809
0.000977118
0.00093671
0.000899655
0.000865634
0.000834359
0.000805572
0.000779041
0.000754557
0.000731933
0.000710999
0.000691604
0.00067361
0.000656894
0.000641344
0.00062686
0.00061335
0.000600733
0.000588933
0.000577885
0.000567525
0.0005578
0.000548658
0.000540055
0.000531947
0.000524298
0.000517073
0.00051024
0.00050377
0.000497637
0.000491817
0.000486288
0.000481029
0.000476022
0.000471249
0.000466695
0.000462345
0.000458186
0.000454205
0.000450391
0.000446734
0.000443223
0.00043985
0.000436605
0.000433482
0.000430472
0.00042757
0.000424769
0.000422062
0.000419446
0.000416914
0.000414463
0.000412087
0.000409784
0.000407548
0.000405378
0.00040327
0.000401222
0.000399231
0.000397294
0.000395411
0.00039358
0.000391799
0.000390069
0.000388388
0.000386756
0.000385174
0.000383643
0.000382163
0.000380737
0.000379365
0.000378052
0.000376799
0.000375612
0.000374493
0.000373448
0.000372483
0.000371603
0.000370816
0.000370127
0.000369547
0.000369082
0.000368742
0.000368536
0.000368473
0.000368561
0.000368809
0.000369225
0.000369815
0.000370582
0.000371526
0.000372644
0.000373926
0.000375354
0.0003769
0.000378522
0.00038016
0.00038173
0.000383121
0.000384187
0.00038476
0.000977118
0.00093671
0.000899655
0.000865634
0.000834359
0.000805572
0.000779041
0.000754557
0.000731933
0.000711
0.000691605
0.000673611
0.000656895
0.000641345
0.000626861
0.000613351
0.000600734
0.000588935
0.000577886
0.000567527
0.000557802
0.00054866
0.000540057
0.00053195
0.000524301
0.000517076
0.000510243
0.000503773
0.00049764
0.00049182
0.000486291
0.000481033
0.000476025
0.000471253
0.000466699
0.00046235
0.000458191
0.00045421
0.000450397
0.00044674
0.000443229
0.000439856
0.000436611
0.000433488
0.000430479
0.000427577
0.000424776
0.00042207
0.000419454
0.000416923
0.000414472
0.000412096
0.000409793
0.000407558
0.000405388
0.000403281
0.000401233
0.000399242
0.000397305
0.000395423
0.000393592
0.000391812
0.000390081
0.0003884
0.000386769
0.000385187
0.000383656
0.000382176
0.00038075
0.000379378
0.000378065
0.000376812
0.000375624
0.000374505
0.00037346
0.000372494
0.000371613
0.000370824
0.000370135
0.000369552
0.000369086
0.000368744
0.000368535
0.000368469
0.000368555
0.0003688
0.000369213
0.000369798
0.000370561
0.000371502
0.000372616
0.000373894
0.000375318
0.00037686
0.000378478
0.000380113
0.00038168
0.000383069
0.000384133
0.000384706
0.000977118
0.00093671
0.000899655
0.000865634
0.000834359
0.000805572
0.000779041
0.000754558
0.000731934
0.000711
0.000691605
0.000673612
0.000656896
0.000641346
0.000626862
0.000613352
0.000600735
0.000588936
0.000577888
0.000567529
0.000557804
0.000548663
0.000540059
0.000531952
0.000524303
0.000517078
0.000510246
0.000503776
0.000497644
0.000491824
0.000486295
0.000481037
0.00047603
0.000471257
0.000466704
0.000462355
0.000458196
0.000454216
0.000450402
0.000446746
0.000443235
0.000439862
0.000436618
0.000433495
0.000430487
0.000427585
0.000424784
0.000422079
0.000419463
0.000416932
0.000414481
0.000412106
0.000409803
0.000407569
0.000405399
0.000403292
0.000401244
0.000399254
0.000397318
0.000395436
0.000393605
0.000391825
0.000390095
0.000388415
0.000386783
0.000385202
0.000383671
0.000382191
0.000380764
0.000379393
0.000378079
0.000376826
0.000375638
0.000374518
0.000373472
0.000372505
0.000371623
0.000370833
0.000370142
0.000369559
0.00036909
0.000368746
0.000368535
0.000368466
0.000368548
0.00036879
0.000369199
0.000369781
0.000370539
0.000371475
0.000372585
0.000373858
0.000375278
0.000376816
0.00037843
0.000380061
0.000381626
0.000383012
0.000384075
0.000384646
0.000977118
0.00093671
0.000899655
0.000865634
0.000834359
0.000805573
0.000779042
0.000754558
0.000731934
0.000711001
0.000691606
0.000673612
0.000656897
0.000641347
0.000626863
0.000613354
0.000600737
0.000588938
0.00057789
0.000567531
0.000557806
0.000548665
0.000540062
0.000531955
0.000524306
0.000517081
0.000510249
0.00050378
0.000497647
0.000491828
0.000486299
0.000481041
0.000476034
0.000471262
0.000466709
0.00046236
0.000458202
0.000454222
0.000450409
0.000446752
0.000443242
0.000439869
0.000436626
0.000433503
0.000430495
0.000427593
0.000424793
0.000422088
0.000419472
0.000416942
0.000414491
0.000412117
0.000409814
0.00040758
0.000405411
0.000403305
0.000401257
0.000399267
0.000397332
0.00039545
0.000393619
0.00039184
0.00039011
0.00038843
0.000386799
0.000385218
0.000383687
0.000382207
0.000380781
0.000379409
0.000378095
0.000376842
0.000375653
0.000374533
0.000373486
0.000372518
0.000371635
0.000370844
0.000370151
0.000369566
0.000369095
0.000368748
0.000368534
0.000368462
0.000368541
0.000368779
0.000369184
0.000369762
0.000370516
0.000371447
0.000372552
0.000373821
0.000375236
0.000376769
0.000378379
0.000380006
0.000381567
0.00038295
0.000384011
0.000384581
0.000977118
0.00093671
0.000899655
0.000865634
0.00083436
0.000805573
0.000779042
0.000754559
0.000731935
0.000711002
0.000691607
0.000673613
0.000656898
0.000641348
0.000626864
0.000613355
0.000600739
0.00058894
0.000577892
0.000567533
0.000557808
0.000548667
0.000540064
0.000531958
0.000524309
0.000517085
0.000510252
0.000503783
0.000497651
0.000491832
0.000486304
0.000481046
0.000476039
0.000471267
0.000466714
0.000462366
0.000458208
0.000454228
0.000450415
0.000446759
0.000443249
0.000439877
0.000436634
0.000433512
0.000430503
0.000427603
0.000424803
0.000422098
0.000419483
0.000416953
0.000414503
0.000412129
0.000409826
0.000407593
0.000405424
0.000403318
0.000401271
0.000399281
0.000397346
0.000395465
0.000393635
0.000391856
0.000390126
0.000388446
0.000386816
0.000385235
0.000383704
0.000382224
0.000380798
0.000379426
0.000378112
0.000376859
0.00037567
0.000374549
0.000373501
0.000372532
0.000371648
0.000370855
0.000370161
0.000369573
0.0003691
0.000368751
0.000368534
0.000368459
0.000368534
0.000368769
0.000369169
0.000369742
0.000370492
0.000371418
0.000372517
0.000373781
0.000375191
0.000376719
0.000378324
0.000379947
0.000381504
0.000382885
0.000383943
0.000384512
0.000977118
0.00093671
0.000899655
0.000865634
0.00083436
0.000805573
0.000779043
0.000754559
0.000731936
0.000711002
0.000691608
0.000673614
0.000656899
0.00064135
0.000626866
0.000613357
0.00060074
0.000588942
0.000577894
0.000567535
0.000557811
0.00054867
0.000540067
0.000531961
0.000524312
0.000517088
0.000510256
0.000503787
0.000497655
0.000491837
0.000486308
0.000481051
0.000476045
0.000471273
0.00046672
0.000462372
0.000458214
0.000454235
0.000450422
0.000446767
0.000443257
0.000439885
0.000436642
0.000433521
0.000430513
0.000427612
0.000424813
0.000422108
0.000419494
0.000416964
0.000414515
0.000412141
0.000409839
0.000407606
0.000405438
0.000403332
0.000401286
0.000399296
0.000397362
0.000395481
0.000393651
0.000391872
0.000390144
0.000388464
0.000386834
0.000385253
0.000383722
0.000382243
0.000380816
0.000379445
0.000378131
0.000376877
0.000375687
0.000374566
0.000373517
0.000372547
0.000371662
0.000370868
0.000370172
0.000369582
0.000369107
0.000368754
0.000368535
0.000368456
0.000368527
0.000368757
0.000369154
0.000369722
0.000370466
0.000371387
0.000372481
0.000373739
0.000375143
0.000376666
0.000378266
0.000379884
0.000381438
0.000382815
0.000383871
0.00038444
0.000977118
0.00093671
0.000899655
0.000865635
0.00083436
0.000805574
0.000779043
0.00075456
0.000731936
0.000711003
0.000691608
0.000673615
0.0006569
0.000641351
0.000626867
0.000613358
0.000600742
0.000588944
0.000577896
0.000567537
0.000557813
0.000548673
0.00054007
0.000531964
0.000524316
0.000517092
0.00051026
0.000503791
0.00049766
0.000491841
0.000486313
0.000481056
0.00047605
0.000471279
0.000466726
0.000462378
0.000458221
0.000454242
0.00045043
0.000446774
0.000443265
0.000439894
0.000436651
0.00043353
0.000430523
0.000427622
0.000424823
0.000422119
0.000419505
0.000416976
0.000414527
0.000412154
0.000409853
0.00040762
0.000405452
0.000403347
0.000401301
0.000399312
0.000397378
0.000395498
0.000393669
0.00039189
0.000390162
0.000388483
0.000386853
0.000385272
0.000383742
0.000382262
0.000380836
0.000379464
0.00037815
0.000376896
0.000375706
0.000374584
0.000373535
0.000372564
0.000371677
0.000370881
0.000370183
0.000369591
0.000369113
0.000368758
0.000368535
0.000368453
0.00036852
0.000368746
0.000369138
0.000369701
0.00037044
0.000371355
0.000372443
0.000373695
0.000375094
0.000376611
0.000378206
0.000379819
0.000381368
0.000382742
0.000383796
0.000384363
0.000977118
0.00093671
0.000899656
0.000865635
0.00083436
0.000805574
0.000779043
0.00075456
0.000731937
0.000711004
0.000691609
0.000673616
0.000656901
0.000641352
0.000626869
0.00061336
0.000600744
0.000588946
0.000577898
0.00056754
0.000557816
0.000548675
0.000540073
0.000531967
0.000524319
0.000517095
0.000510264
0.000503796
0.000497664
0.000491846
0.000486318
0.000481061
0.000476056
0.000471285
0.000466733
0.000462385
0.000458228
0.000454249
0.000450438
0.000446783
0.000443274
0.000439903
0.000436661
0.00043354
0.000430533
0.000427633
0.000424835
0.000422131
0.000419518
0.000416989
0.00041454
0.000412168
0.000409867
0.000407635
0.000405468
0.000403363
0.000401317
0.000399329
0.000397396
0.000395515
0.000393687
0.000391909
0.000390181
0.000388502
0.000386872
0.000385292
0.000383762
0.000382283
0.000380857
0.000379485
0.00037817
0.000376916
0.000375725
0.000374603
0.000373553
0.000372581
0.000371693
0.000370895
0.000370195
0.000369601
0.000369121
0.000368763
0.000368536
0.00036845
0.000368514
0.000368735
0.000369121
0.000369679
0.000370413
0.000371322
0.000372404
0.00037365
0.000375043
0.000376554
0.000378143
0.000379751
0.000381296
0.000382666
0.000383718
0.000384284
0.000977118
0.00093671
0.000899656
0.000865635
0.00083436
0.000805574
0.000779044
0.000754561
0.000731937
0.000711004
0.00069161
0.000673617
0.000656902
0.000641353
0.00062687
0.000613362
0.000600746
0.000588947
0.0005779
0.000567542
0.000557818
0.000548678
0.000540076
0.00053197
0.000524323
0.000517099
0.000510268
0.0005038
0.000497669
0.000491851
0.000486324
0.000481067
0.000476062
0.000471291
0.000466739
0.000462392
0.000458235
0.000454257
0.000450446
0.000446791
0.000443283
0.000439912
0.00043667
0.00043355
0.000430543
0.000427644
0.000424846
0.000422143
0.00041953
0.000417002
0.000414554
0.000412182
0.000409882
0.00040765
0.000405483
0.000403379
0.000401334
0.000399346
0.000397413
0.000395534
0.000393706
0.000391929
0.000390201
0.000388523
0.000386893
0.000385313
0.000383783
0.000382305
0.000380878
0.000379507
0.000378192
0.000376937
0.000375746
0.000374623
0.000373572
0.000372599
0.000371709
0.00037091
0.000370208
0.000369612
0.000369129
0.000368768
0.000368538
0.000368448
0.000368507
0.000368724
0.000369105
0.000369657
0.000370385
0.000371288
0.000372365
0.000373604
0.00037499
0.000376495
0.000378079
0.000379681
0.000381221
0.000382588
0.000383637
0.000384201
0.000977118
0.00093671
0.000899656
0.000865635
0.000834361
0.000805574
0.000779044
0.000754561
0.000731938
0.000711005
0.000691611
0.000673618
0.000656903
0.000641355
0.000626872
0.000613363
0.000600747
0.000588949
0.000577902
0.000567545
0.000557821
0.000548681
0.000540079
0.000531974
0.000524326
0.000517103
0.000510272
0.000503804
0.000497674
0.000491856
0.000486329
0.000481072
0.000476068
0.000471297
0.000466746
0.000462399
0.000458243
0.000454265
0.000450454
0.0004468
0.000443292
0.000439922
0.00043668
0.00043356
0.000430554
0.000427656
0.000424858
0.000422156
0.000419543
0.000417015
0.000414568
0.000412196
0.000409897
0.000407666
0.0004055
0.000403396
0.000401352
0.000399364
0.000397432
0.000395553
0.000393726
0.000391949
0.000390222
0.000388544
0.000386915
0.000385335
0.000383805
0.000382327
0.000380901
0.000379529
0.000378214
0.000376959
0.000375767
0.000374643
0.000373592
0.000372617
0.000371726
0.000370926
0.000370222
0.000369623
0.000369137
0.000368773
0.00036854
0.000368446
0.000368501
0.000368712
0.000369089
0.000369635
0.000370357
0.000371254
0.000372324
0.000373557
0.000374936
0.000376435
0.000378012
0.000379609
0.000381145
0.000382507
0.000383554
0.000384117
0.000977118
0.00093671
0.000899656
0.000865635
0.000834361
0.000805575
0.000779044
0.000754562
0.000731938
0.000711006
0.000691612
0.000673619
0.000656904
0.000641356
0.000626873
0.000613365
0.000600749
0.000588952
0.000577904
0.000567547
0.000557824
0.000548684
0.000540082
0.000531977
0.00052433
0.000517107
0.000510276
0.000503809
0.000497679
0.000491861
0.000486334
0.000481078
0.000476074
0.000471304
0.000466753
0.000462406
0.00045825
0.000454273
0.000450463
0.000446809
0.000443301
0.000439931
0.000436691
0.000433571
0.000430566
0.000427668
0.00042487
0.000422168
0.000419556
0.000417029
0.000414582
0.000412211
0.000409912
0.000407682
0.000405517
0.000403413
0.00040137
0.000399383
0.000397451
0.000395573
0.000393746
0.00039197
0.000390243
0.000388565
0.000386937
0.000385358
0.000383828
0.00038235
0.000380924
0.000379552
0.000378237
0.000376982
0.00037579
0.000374665
0.000373612
0.000372637
0.000371744
0.000370942
0.000370236
0.000369635
0.000369146
0.000368779
0.000368542
0.000368444
0.000368495
0.000368701
0.000369072
0.000369613
0.000370329
0.00037122
0.000372283
0.000373509
0.000374882
0.000376374
0.000377945
0.000379536
0.000381067
0.000382425
0.000383469
0.000384031
0.000977118
0.00093671
0.000899656
0.000865635
0.000834361
0.000805575
0.000779045
0.000754562
0.000731939
0.000711007
0.000691613
0.00067362
0.000656905
0.000641357
0.000626874
0.000613366
0.000600751
0.000588954
0.000577907
0.000567549
0.000557826
0.000548687
0.000540086
0.000531981
0.000524334
0.000517111
0.000510281
0.000503814
0.000497684
0.000491866
0.00048634
0.000481084
0.00047608
0.000471311
0.00046676
0.000462414
0.000458258
0.000454281
0.000450471
0.000446818
0.000443311
0.000439941
0.000436701
0.000433582
0.000430577
0.00042768
0.000424883
0.000422182
0.00041957
0.000417043
0.000414597
0.000412227
0.000409928
0.000407698
0.000405534
0.000403431
0.000401388
0.000399402
0.000397471
0.000395593
0.000393767
0.000391991
0.000390265
0.000388588
0.00038696
0.000385381
0.000383852
0.000382373
0.000380947
0.000379576
0.00037826
0.000377005
0.000375812
0.000374687
0.000373633
0.000372657
0.000371763
0.000370959
0.000370251
0.000369647
0.000369156
0.000368786
0.000368545
0.000368443
0.000368489
0.00036869
0.000369056
0.000369591
0.000370301
0.000371185
0.000372241
0.000373461
0.000374827
0.000376312
0.000377877
0.000379462
0.000380987
0.000382342
0.000383382
0.000383943
0.000977118
0.00093671
0.000899656
0.000865635
0.000834361
0.000805575
0.000779045
0.000754563
0.00073194
0.000711007
0.000691613
0.000673621
0.000656907
0.000641358
0.000626876
0.000613368
0.000600753
0.000588956
0.000577909
0.000567552
0.000557829
0.00054869
0.000540089
0.000531984
0.000524338
0.000517115
0.000510285
0.000503818
0.000497688
0.000491872
0.000486346
0.00048109
0.000476086
0.000471317
0.000466767
0.000462421
0.000458266
0.00045429
0.00045048
0.000446827
0.00044332
0.000439952
0.000436712
0.000433593
0.000430589
0.000427692
0.000424896
0.000422195
0.000419584
0.000417058
0.000414612
0.000412242
0.000409945
0.000407715
0.000405551
0.000403449
0.000401407
0.000399421
0.000397491
0.000395613
0.000393788
0.000392012
0.000390287
0.00038861
0.000386983
0.000385404
0.000383875
0.000382397
0.000380972
0.0003796
0.000378285
0.000377029
0.000375836
0.00037471
0.000373655
0.000372677
0.000371782
0.000370976
0.000370266
0.00036966
0.000369166
0.000368792
0.000368548
0.000368442
0.000368483
0.00036868
0.00036904
0.000369569
0.000370272
0.00037115
0.0003722
0.000373412
0.000374771
0.00037625
0.000377808
0.000379387
0.000380907
0.000382257
0.000383295
0.000383854
0.000977118
0.00093671
0.000899656
0.000865636
0.000834361
0.000805575
0.000779046
0.000754563
0.00073194
0.000711008
0.000691614
0.000673622
0.000656908
0.00064136
0.000626877
0.00061337
0.000600755
0.000588958
0.000577911
0.000567554
0.000557832
0.000548693
0.000540092
0.000531987
0.000524341
0.000517119
0.000510289
0.000503823
0.000497693
0.000491877
0.000486351
0.000481096
0.000476093
0.000471324
0.000466774
0.000462429
0.000458274
0.000454298
0.000450489
0.000446836
0.00044333
0.000439962
0.000436723
0.000433605
0.000430601
0.000427704
0.000424909
0.000422208
0.000419598
0.000417072
0.000414627
0.000412258
0.000409961
0.000407732
0.000405569
0.000403468
0.000401426
0.000399441
0.000397511
0.000395634
0.000393809
0.000392034
0.000390309
0.000388633
0.000387006
0.000385428
0.0003839
0.000382422
0.000380996
0.000379624
0.000378309
0.000377053
0.000375859
0.000374733
0.000373677
0.000372698
0.000371802
0.000370994
0.000370282
0.000369674
0.000369177
0.0003688
0.000368552
0.000368441
0.000368478
0.00036867
0.000369024
0.000369548
0.000370244
0.000371115
0.000372158
0.000373363
0.000374715
0.000376187
0.000377738
0.000379312
0.000380826
0.000382172
0.000383207
0.000383765
0.000977118
0.00093671
0.000899656
0.000865636
0.000834362
0.000805576
0.000779046
0.000754563
0.000731941
0.000711008
0.000691615
0.000673623
0.000656909
0.000641361
0.000626879
0.000613371
0.000600756
0.00058896
0.000577913
0.000567557
0.000557834
0.000548696
0.000540095
0.000531991
0.000524345
0.000517123
0.000510294
0.000503827
0.000497698
0.000491882
0.000486357
0.000481102
0.000476099
0.000471331
0.000466781
0.000462436
0.000458282
0.000454306
0.000450498
0.000446846
0.00044334
0.000439972
0.000436733
0.000433616
0.000430612
0.000427716
0.000424921
0.000422222
0.000419612
0.000417087
0.000414643
0.000412274
0.000409978
0.00040775
0.000405587
0.000403486
0.000401445
0.000399461
0.000397531
0.000395655
0.000393831
0.000392057
0.000390332
0.000388657
0.00038703
0.000385452
0.000383924
0.000382447
0.000381021
0.000379649
0.000378334
0.000377077
0.000375883
0.000374756
0.0003737
0.00037272
0.000371822
0.000371012
0.000370298
0.000369687
0.000369188
0.000368807
0.000368556
0.000368441
0.000368473
0.00036866
0.000369009
0.000369526
0.000370217
0.000371081
0.000372117
0.000373315
0.00037466
0.000376124
0.000377669
0.000379236
0.000380745
0.000382087
0.000383119
0.000383675
0.000977118
0.00093671
0.000899656
0.000865636
0.000834362
0.000805576
0.000779046
0.000754564
0.000731941
0.000711009
0.000691616
0.000673624
0.00065691
0.000641362
0.00062688
0.000613373
0.000600758
0.000588961
0.000577916
0.000567559
0.000557837
0.000548699
0.000540098
0.000531994
0.000524349
0.000517127
0.000510298
0.000503832
0.000497703
0.000491888
0.000486363
0.000481108
0.000476106
0.000471338
0.000466789
0.000462444
0.00045829
0.000454315
0.000450507
0.000446855
0.00044335
0.000439982
0.000436744
0.000433627
0.000430624
0.000427729
0.000424934
0.000422235
0.000419626
0.000417102
0.000414658
0.00041229
0.000409994
0.000407767
0.000405605
0.000403505
0.000401464
0.000399481
0.000397552
0.000395676
0.000393853
0.000392079
0.000390355
0.00038868
0.000387054
0.000385477
0.000383949
0.000382471
0.000381046
0.000379674
0.000378359
0.000377102
0.000375908
0.00037478
0.000373723
0.000372741
0.000371842
0.000371031
0.000370315
0.000369701
0.000369199
0.000368815
0.00036856
0.000368441
0.000368469
0.00036865
0.000368994
0.000369505
0.000370189
0.000371047
0.000372076
0.000373267
0.000374604
0.000376062
0.0003776
0.000379161
0.000380665
0.000382002
0.000383031
0.000383586
0.000977118
0.00093671
0.000899656
0.000865636
0.000834362
0.000805576
0.000779046
0.000754564
0.000731942
0.00071101
0.000691616
0.000673625
0.000656911
0.000641363
0.000626881
0.000613374
0.00060076
0.000588963
0.000577918
0.000567562
0.00055784
0.000548701
0.000540101
0.000531998
0.000524352
0.000517131
0.000510302
0.000503837
0.000497708
0.000491893
0.000486368
0.000481114
0.000476112
0.000471344
0.000466796
0.000462451
0.000458298
0.000454323
0.000450516
0.000446864
0.00044336
0.000439993
0.000436755
0.000433639
0.000430636
0.000427741
0.000424947
0.000422249
0.00041964
0.000417117
0.000414673
0.000412306
0.000410011
0.000407784
0.000405623
0.000403523
0.000401483
0.0003995
0.000397572
0.000395698
0.000393874
0.000392101
0.000390378
0.000388704
0.000387078
0.000385501
0.000383973
0.000382496
0.000381071
0.000379699
0.000378384
0.000377127
0.000375932
0.000374803
0.000373745
0.000372763
0.000371862
0.00037105
0.000370331
0.000369716
0.00036921
0.000368824
0.000368564
0.000368442
0.000368465
0.000368641
0.000368979
0.000369485
0.000370162
0.000371013
0.000372035
0.000373219
0.000374549
0.000376
0.000377531
0.000379086
0.000380584
0.000381917
0.000382943
0.000383496
0.000977118
0.00093671
0.000899656
0.000865636
0.000834362
0.000805576
0.000779047
0.000754565
0.000731942
0.00071101
0.000691617
0.000673625
0.000656912
0.000641364
0.000626883
0.000613376
0.000600761
0.000588965
0.00057792
0.000567564
0.000557842
0.000548704
0.000540104
0.000532001
0.000524356
0.000517135
0.000510306
0.000503841
0.000497713
0.000491898
0.000486374
0.00048112
0.000476118
0.000471351
0.000466803
0.000462459
0.000458306
0.000454332
0.000450524
0.000446874
0.000443369
0.000440003
0.000436766
0.00043365
0.000430648
0.000427754
0.00042496
0.000422262
0.000419654
0.000417131
0.000414689
0.000412322
0.000410027
0.000407801
0.00040564
0.000403542
0.000401502
0.00039952
0.000397593
0.000395719
0.000393896
0.000392124
0.000390401
0.000388727
0.000387102
0.000385525
0.000383998
0.000382521