/*--------------------------------*- C++ -*----------------------------------*\
  =========                 |
  \\      /  F ield         | OpenFOAM: The Open Source CFD Toolbox
   \\    /   O peration     | Website:  https://openfoam.org
    \\  /    A nd           | Version:  11
     \\/     M anipulation  |
\*---------------------------------------------------------------------------*/
FoamFile
{
    format      ascii;
    class       volScalarField;
    location    "34";
    object      nut;
}
// * * * * * * * * * * * * * * * * * * * * * * * * * * * * * * * * * * * * * //

dimensions      [0 2 -1 0 0 0 0];

internalField   nonuniform List<scalar> 
10000
(
0.000978424
0.000941679
0.000909736
0.000882628
0.000860414
0.000843138
0.00083079
0.000823265
0.000820337
0.000821647
0.000826712
0.000834946
0.000845699
0.000858296
0.000872075
0.000886429
0.000900825
0.000914825
0.000928092
0.000940383
0.000951546
0.000961507
0.00097026
0.000977841
0.000984316
0.000989774
0.000994317
0.000998054
0.00100109
0.00100353
0.00100547
0.00100699
0.00100815
0.00100904
0.00100969
0.00101017
0.00101049
0.0010107
0.00101083
0.00101089
0.00101089
0.00101086
0.0010108
0.00101072
0.00101063
0.00101054
0.00101044
0.00101034
0.00101023
0.00101014
0.00101004
0.00100995
0.00100986
0.00100978
0.0010097
0.00100963
0.00100956
0.0010095
0.00100944
0.00100938
0.00100933
0.00100928
0.00100924
0.00100919
0.00100915
0.00100912
0.00100908
0.00100905
0.00100902
0.00100899
0.00100897
0.00100894
0.00100892
0.0010089
0.00100888
0.00100886
0.00100884
0.00100883
0.00100881
0.0010088
0.00100878
0.00100877
0.00100875
0.00100874
0.00100873
0.00100872
0.00100871
0.0010087
0.00100869
0.00100868
0.00100867
0.00100866
0.00100866
0.00100865
0.00100864
0.00100864
0.00100863
0.00100863
0.00100863
0.00100863
0.000978422
0.00094168
0.000909739
0.000882631
0.000860416
0.000843138
0.000830786
0.000823255
0.00082032
0.000821623
0.00082668
0.000834907
0.000845654
0.000858245
0.000872021
0.000886373
0.00090077
0.000914772
0.000928043
0.000940339
0.00095151
0.00096148
0.00097024
0.000977824
0.000984301
0.000989761
0.000994307
0.000998048
0.00100109
0.00100353
0.00100547
0.00100699
0.00100816
0.00100905
0.0010097
0.00101018
0.0010105
0.00101072
0.00101084
0.0010109
0.0010109
0.00101087
0.00101081
0.00101074
0.00101065
0.00101055
0.00101045
0.00101035
0.00101024
0.00101014
0.00101005
0.00100996
0.00100987
0.00100979
0.00100971
0.00100964
0.00100957
0.0010095
0.00100944
0.00100939
0.00100933
0.00100929
0.00100924
0.0010092
0.00100916
0.00100912
0.00100909
0.00100906
0.00100903
0.001009
0.00100897
0.00100895
0.00100892
0.0010089
0.00100888
0.00100886
0.00100885
0.00100883
0.00100881
0.0010088
0.00100878
0.00100877
0.00100876
0.00100874
0.00100873
0.00100872
0.00100871
0.0010087
0.00100869
0.00100868
0.00100867
0.00100866
0.00100866
0.00100865
0.00100864
0.00100864
0.00100864
0.00100863
0.00100863
0.00100863
0.00097842
0.00094168
0.000909742
0.000882636
0.000860418
0.000843133
0.000830772
0.000823228
0.000820278
0.000821563
0.000826603
0.000834814
0.000845546
0.000858125
0.000871892
0.000886239
0.000900634
0.000914639
0.000927914
0.000940218
0.000951399
0.00096138
0.000970151
0.000977745
0.000984232
0.000989702
0.000994257
0.000998007
0.00100106
0.00100351
0.00100545
0.00100698
0.00100815
0.00100904
0.0010097
0.00101018
0.00101051
0.00101072
0.00101085
0.00101091
0.00101091
0.00101088
0.00101082
0.00101075
0.00101066
0.00101056
0.00101046
0.00101036
0.00101026
0.00101016
0.00101006
0.00100997
0.00100988
0.0010098
0.00100972
0.00100965
0.00100958
0.00100951
0.00100945
0.0010094
0.00100934
0.00100929
0.00100925
0.0010092
0.00100916
0.00100913
0.00100909
0.00100906
0.00100903
0.001009
0.00100898
0.00100895
0.00100893
0.00100891
0.00100889
0.00100887
0.00100885
0.00100883
0.00100882
0.0010088
0.00100879
0.00100877
0.00100876
0.00100875
0.00100873
0.00100872
0.00100871
0.0010087
0.00100869
0.00100868
0.00100867
0.00100867
0.00100866
0.00100865
0.00100865
0.00100864
0.00100864
0.00100863
0.00100863
0.00100863
0.000978418
0.000941682
0.000909747
0.000882641
0.00086042
0.000843127
0.000830752
0.00082319
0.000820218
0.000821479
0.000826493
0.00083468
0.00084539
0.00085795
0.000871704
0.000886042
0.000900433
0.00091444
0.000927721
0.000940034
0.000951227
0.000961223
0.000970008
0.000977618
0.00098412
0.000989604
0.000994173
0.000997936
0.001001
0.00100346
0.00100542
0.00100695
0.00100813
0.00100903
0.00100969
0.00101017
0.00101051
0.00101072
0.00101085
0.00101091
0.00101092
0.00101089
0.00101084
0.00101076
0.00101067
0.00101057
0.00101047
0.00101037
0.00101027
0.00101017
0.00101007
0.00100998
0.00100989
0.00100981
0.00100973
0.00100966
0.00100959
0.00100952
0.00100946
0.00100941
0.00100935
0.0010093
0.00100926
0.00100921
0.00100917
0.00100914
0.0010091
0.00100907
0.00100904
0.00100901
0.00100898
0.00100896
0.00100893
0.00100891
0.00100889
0.00100887
0.00100885
0.00100884
0.00100882
0.00100881
0.00100879
0.00100878
0.00100876
0.00100875
0.00100874
0.00100873
0.00100872
0.0010087
0.00100869
0.00100869
0.00100868
0.00100867
0.00100866
0.00100865
0.00100865
0.00100864
0.00100864
0.00100863
0.00100863
0.00100863
0.000978418
0.000941684
0.000909753
0.000882648
0.000860423
0.000843121
0.00083073
0.000823146
0.000820147
0.000821377
0.00082636
0.000834515
0.000845196
0.000857733
0.000871468
0.000885794
0.00090018
0.000914186
0.000927473
0.000939797
0.000951005
0.000961018
0.000969822
0.00097745
0.000983971
0.000989474
0.000994061
0.000997841
0.00100092
0.00100339
0.00100536
0.00100691
0.0010081
0.001009
0.00100968
0.00101016
0.0010105
0.00101072
0.00101085
0.00101092
0.00101093
0.0010109
0.00101085
0.00101077
0.00101068
0.00101059
0.00101049
0.00101039
0.00101028
0.00101019
0.00101009
0.00101
0.00100991
0.00100983
0.00100975
0.00100967
0.0010096
0.00100954
0.00100948
0.00100942
0.00100936
0.00100931
0.00100927
0.00100922
0.00100918
0.00100915
0.00100911
0.00100908
0.00100905
0.00100902
0.00100899
0.00100897
0.00100894
0.00100892
0.0010089
0.00100888
0.00100886
0.00100884
0.00100883
0.00100881
0.0010088
0.00100878
0.00100877
0.00100875
0.00100874
0.00100873
0.00100872
0.00100871
0.0010087
0.00100869
0.00100868
0.00100867
0.00100866
0.00100866
0.00100865
0.00100864
0.00100864
0.00100864
0.00100863
0.00100863
0.000978418
0.000941686
0.000909758
0.000882654
0.000860426
0.000843114
0.000830706
0.000823097
0.000820067
0.000821263
0.000826209
0.000834327
0.000844974
0.000857482
0.000871194
0.000885504
0.000899882
0.000913888
0.000927181
0.000939517
0.00095074
0.000960772
0.000969597
0.000977248
0.000983791
0.000989315
0.000993924
0.000997723
0.00100082
0.00100331
0.00100529
0.00100685
0.00100805
0.00100897
0.00100965
0.00101014
0.00101049
0.00101072
0.00101085
0.00101092
0.00101093
0.00101091
0.00101086
0.00101078
0.0010107
0.0010106
0.0010105
0.0010104
0.0010103
0.0010102
0.0010101
0.00101001
0.00100992
0.00100984
0.00100976
0.00100969
0.00100962
0.00100955
0.00100949
0.00100943
0.00100938
0.00100933
0.00100928
0.00100924
0.00100919
0.00100916
0.00100912
0.00100909
0.00100906
0.00100903
0.001009
0.00100897
0.00100895
0.00100893
0.00100891
0.00100889
0.00100887
0.00100885
0.00100883
0.00100882
0.0010088
0.00100879
0.00100877
0.00100876
0.00100875
0.00100873
0.00100872
0.00100871
0.0010087
0.00100869
0.00100868
0.00100867
0.00100867
0.00100866
0.00100865
0.00100865
0.00100864
0.00100864
0.00100864
0.00100864
0.000978418
0.000941688
0.000909763
0.00088266
0.000860428
0.000843106
0.000830679
0.000823045
0.000819982
0.00082114
0.000826044
0.000834121
0.00084473
0.000857204
0.00087089
0.000885182
0.000899549
0.000913553
0.000926851
0.000939198
0.000950438
0.000960491
0.000969339
0.000977014
0.000983582
0.000989131
0.000993763
0.000997584
0.0010007
0.00100321
0.00100521
0.00100678
0.001008
0.00100893
0.00100962
0.00101012
0.00101047
0.00101071
0.00101085
0.00101092
0.00101094
0.00101091
0.00101086
0.00101079
0.00101071
0.00101061
0.00101052
0.00101042
0.00101032
0.00101022
0.00101012
0.00101003
0.00100994
0.00100986
0.00100978
0.0010097
0.00100963
0.00100956
0.0010095
0.00100944
0.00100939
0.00100934
0.00100929
0.00100925
0.00100921
0.00100917
0.00100913
0.0010091
0.00100906
0.00100904
0.00100901
0.00100898
0.00100896
0.00100893
0.00100891
0.00100889
0.00100887
0.00100885
0.00100884
0.00100882
0.00100881
0.00100879
0.00100878
0.00100876
0.00100875
0.00100874
0.00100873
0.00100872
0.00100871
0.0010087
0.00100869
0.00100868
0.00100867
0.00100866
0.00100866
0.00100865
0.00100864
0.00100864
0.00100864
0.00100864
0.000978418
0.00094169
0.000909767
0.000882665
0.000860429
0.000843096
0.000830651
0.00082299
0.000819892
0.00082101
0.00082587
0.000833903
0.000844471
0.000856908
0.000870563
0.000884834
0.000899189
0.000913189
0.000926491
0.00093885
0.000950107
0.000960181
0.000969053
0.000976754
0.000983348
0.000988923
0.000993581
0.000997426
0.00100056
0.0010031
0.00100511
0.0010067
0.00100793
0.00100887
0.00100958
0.00101009
0.00101045
0.00101069
0.00101084
0.00101091
0.00101094
0.00101092
0.00101087
0.0010108
0.00101072
0.00101063
0.00101053
0.00101043
0.00101033
0.00101023
0.00101014
0.00101004
0.00100996
0.00100987
0.00100979
0.00100972
0.00100965
0.00100958
0.00100952
0.00100946
0.0010094
0.00100935
0.0010093
0.00100926
0.00100922
0.00100918
0.00100914
0.00100911
0.00100907
0.00100904
0.00100902
0.00100899
0.00100896
0.00100894
0.00100892
0.0010089
0.00100888
0.00100886
0.00100884
0.00100883
0.00100881
0.0010088
0.00100878
0.00100877
0.00100876
0.00100874
0.00100873
0.00100872
0.00100871
0.0010087
0.00100869
0.00100868
0.00100867
0.00100866
0.00100866
0.00100865
0.00100865
0.00100864
0.00100864
0.00100864
0.000978418
0.000941691
0.00090977
0.000882668
0.000860428
0.000843084
0.000830621
0.000822932
0.0008198
0.000820875
0.00082569
0.000833677
0.0008442
0.000856597
0.00087022
0.000884467
0.000898807
0.000912802
0.000926107
0.000938477
0.000949751
0.000959846
0.000968744
0.000976472
0.000983094
0.000988697
0.000993381
0.000997252
0.00100041
0.00100297
0.00100501
0.00100661
0.00100786
0.00100881
0.00100953
0.00101005
0.00101042
0.00101067
0.00101082
0.0010109
0.00101093
0.00101092
0.00101087
0.00101081
0.00101072
0.00101063
0.00101054
0.00101044
0.00101034
0.00101024
0.00101015
0.00101006
0.00100997
0.00100989
0.00100981
0.00100973
0.00100966
0.00100959
0.00100953
0.00100947
0.00100942
0.00100936
0.00100932
0.00100927
0.00100923
0.00100919
0.00100915
0.00100912
0.00100908
0.00100905
0.00100902
0.001009
0.00100897
0.00100895
0.00100893
0.00100891
0.00100889
0.00100887
0.00100885
0.00100883
0.00100882
0.0010088
0.00100879
0.00100877
0.00100876
0.00100875
0.00100873
0.00100872
0.00100871
0.0010087
0.00100869
0.00100868
0.00100867
0.00100867
0.00100866
0.00100865
0.00100865
0.00100865
0.00100864
0.00100864
0.000978418
0.000941692
0.000909772
0.000882669
0.000860425
0.000843071
0.000830588
0.000822873
0.000819705
0.000820738
0.000825507
0.000833446
0.000843922
0.000856278
0.000869867
0.000884087
0.000898411
0.000912398
0.000925706
0.000938085
0.000949376
0.000959493
0.000968416
0.000976171
0.000982822
0.000988453
0.000993166
0.000997063
0.00100025
0.00100283
0.00100489
0.00100651
0.00100777
0.00100874
0.00100947
0.00101
0.00101038
0.00101064
0.0010108
0.00101089
0.00101092
0.00101091
0.00101087
0.00101081
0.00101073
0.00101064
0.00101055
0.00101045
0.00101035
0.00101025
0.00101016
0.00101007
0.00100998
0.0010099
0.00100982
0.00100974
0.00100967
0.0010096
0.00100954
0.00100948
0.00100943
0.00100937
0.00100933
0.00100928
0.00100924
0.0010092
0.00100916
0.00100912
0.00100909
0.00100906
0.00100903
0.00100901
0.00100898
0.00100896
0.00100893
0.00100891
0.00100889
0.00100887
0.00100885
0.00100884
0.00100882
0.00100881
0.00100879
0.00100878
0.00100876
0.00100875
0.00100874
0.00100873
0.00100872
0.00100871
0.0010087
0.00100869
0.00100868
0.00100867
0.00100866
0.00100866
0.00100865
0.00100865
0.00100865
0.00100864
0.000978418
0.000941693
0.000909773
0.00088267
0.00086042
0.000843055
0.000830555
0.000822813
0.000819609
0.000820601
0.000825323
0.000833213
0.000843642
0.000855955
0.000869507
0.000883699
0.000898005
0.000911983
0.000925292
0.00093768
0.000948986
0.000959125
0.000968073
0.000975856
0.000982536
0.000988197
0.000992937
0.000996862
0.00100007
0.00100267
0.00100476
0.0010064
0.00100768
0.00100866
0.0010094
0.00100995
0.00101034
0.0010106
0.00101077
0.00101087
0.00101091
0.0010109
0.00101086
0.0010108
0.00101073
0.00101064
0.00101055
0.00101046
0.00101036
0.00101026
0.00101017
0.00101008
0.00100999
0.00100991
0.00100983
0.00100975
0.00100968
0.00100962
0.00100955
0.00100949
0.00100944
0.00100938
0.00100934
0.00100929
0.00100925
0.00100921
0.00100917
0.00100913
0.0010091
0.00100907
0.00100904
0.00100901
0.00100899
0.00100896
0.00100894
0.00100892
0.0010089
0.00100888
0.00100886
0.00100884
0.00100883
0.00100881
0.00100879
0.00100878
0.00100877
0.00100875
0.00100874
0.00100873
0.00100872
0.00100871
0.0010087
0.00100869
0.00100868
0.00100867
0.00100867
0.00100866
0.00100865
0.00100865
0.00100865
0.00100865
0.000978418
0.000941693
0.000909774
0.000882669
0.000860414
0.000843039
0.00083052
0.000822751
0.000819514
0.000820463
0.000825139
0.00083298
0.000843361
0.00085563
0.000869145
0.000883308
0.000897594
0.000911563
0.00092487
0.000937266
0.000948587
0.000958746
0.000967719
0.00097553
0.000982239
0.000987929
0.000992698
0.000996651
0.00099989
0.00100251
0.00100462
0.00100628
0.00100758
0.00100858
0.00100933
0.00100989
0.00101029
0.00101056
0.00101074
0.00101084
0.00101089
0.00101089
0.00101085
0.0010108
0.00101073
0.00101064
0.00101055
0.00101046
0.00101036
0.00101027
0.00101018
0.00101009
0.00101
0.00100992
0.00100984
0.00100976
0.00100969
0.00100962
0.00100956
0.0010095
0.00100945
0.00100939
0.00100934
0.0010093
0.00100925
0.00100921
0.00100918
0.00100914
0.00100911
0.00100907
0.00100905
0.00100902
0.00100899
0.00100897
0.00100894
0.00100892
0.0010089
0.00100888
0.00100886
0.00100885
0.00100883
0.00100881
0.0010088
0.00100878
0.00100877
0.00100876
0.00100874
0.00100873
0.00100872
0.00100871
0.0010087
0.00100869
0.00100868
0.00100867
0.00100867
0.00100866
0.00100866
0.00100865
0.00100865
0.00100865
0.000978418
0.000941693
0.000909774
0.000882667
0.000860407
0.000843021
0.000830484
0.00082269
0.000819418
0.000820327
0.000824957
0.00083275
0.000843083
0.000855308
0.000868785
0.000882918
0.000897182
0.00091114
0.000924445
0.000936848
0.000948183
0.000958362
0.000967358
0.000975196
0.000981933
0.000987653
0.000992451
0.000996431
0.000999696
0.00100235
0.00100447
0.00100615
0.00100747
0.00100849
0.00100925
0.00100982
0.00101023
0.00101052
0.0010107
0.00101081
0.00101086
0.00101087
0.00101084
0.00101079
0.00101072
0.00101064
0.00101055
0.00101046
0.00101037
0.00101027
0.00101018
0.00101009
0.00101001
0.00100992
0.00100984
0.00100977
0.0010097
0.00100963
0.00100957
0.00100951
0.00100945
0.0010094
0.00100935
0.0010093
0.00100926
0.00100922
0.00100918
0.00100915
0.00100911
0.00100908
0.00100905
0.00100902
0.001009
0.00100897
0.00100895
0.00100893
0.00100891
0.00100889
0.00100887
0.00100885
0.00100883
0.00100882
0.0010088
0.00100879
0.00100877
0.00100876
0.00100875
0.00100873
0.00100872
0.00100871
0.0010087
0.00100869
0.00100868
0.00100868
0.00100867
0.00100866
0.00100866
0.00100865
0.00100865
0.00100865
0.000978417
0.000941693
0.000909773
0.000882664
0.000860399
0.000843002
0.000830448
0.000822629
0.000819324
0.000820193
0.000824778
0.000832523
0.00084281
0.00085499
0.000868428
0.000882531
0.000896774
0.000910719
0.000924021
0.000936429
0.000947776
0.000957974
0.000966994
0.000974858
0.000981623
0.000987371
0.000992198
0.000996206
0.000999497
0.00100217
0.00100432
0.00100602
0.00100736
0.00100839
0.00100917
0.00100975
0.00101018
0.00101047
0.00101066
0.00101078
0.00101083
0.00101085
0.00101082
0.00101077
0.00101071
0.00101063
0.00101055
0.00101046
0.00101036
0.00101027
0.00101018
0.00101009
0.00101001
0.00100993
0.00100985
0.00100977
0.0010097
0.00100964
0.00100957
0.00100951
0.00100946
0.00100941
0.00100936
0.00100931
0.00100927
0.00100923
0.00100919
0.00100915
0.00100912
0.00100908
0.00100905
0.00100903
0.001009
0.00100897
0.00100895
0.00100893
0.00100891
0.00100889
0.00100887
0.00100885
0.00100883
0.00100882
0.0010088
0.00100879
0.00100877
0.00100876
0.00100875
0.00100874
0.00100872
0.00100871
0.0010087
0.00100869
0.00100869
0.00100868
0.00100867
0.00100866
0.00100866
0.00100866
0.00100865
0.00100865
0.000978417
0.000941692
0.000909772
0.00088266
0.00086039
0.000842982
0.000830412
0.000822568
0.000819232
0.000820063
0.000824603
0.000832302
0.000842542
0.000854679
0.000868079
0.00088215
0.000896371
0.000910302
0.000923601
0.000936012
0.000947371
0.000957586
0.000966628
0.000974518
0.00098131
0.000987086
0.000991941
0.000995976
0.000999293
0.00100199
0.00100416
0.00100588
0.00100724
0.00100828
0.00100908
0.00100968
0.00101011
0.00101041
0.00101062
0.00101074
0.0010108
0.00101082
0.0010108
0.00101076
0.00101069
0.00101062
0.00101054
0.00101045
0.00101036
0.00101027
0.00101018
0.00101009
0.00101001
0.00100993
0.00100985
0.00100978
0.00100971
0.00100964
0.00100958
0.00100952
0.00100946
0.00100941
0.00100936
0.00100931
0.00100927
0.00100923
0.00100919
0.00100915
0.00100912
0.00100909
0.00100906
0.00100903
0.001009
0.00100898
0.00100895
0.00100893
0.00100891
0.00100889
0.00100887
0.00100885
0.00100884
0.00100882
0.0010088
0.00100879
0.00100878
0.00100876
0.00100875
0.00100874
0.00100873
0.00100871
0.0010087
0.0010087
0.00100869
0.00100868
0.00100867
0.00100867
0.00100866
0.00100866
0.00100865
0.00100865
0.000978417
0.000941692
0.00090977
0.000882656
0.00086038
0.000842962
0.000830376
0.000822509
0.000819142
0.000819935
0.000824434
0.000832088
0.000842282
0.000854376
0.000867738
0.000881779
0.000895976
0.000909894
0.000923186
0.000935601
0.000946971
0.000957202
0.000966265
0.000974178
0.000980997
0.0009868
0.000991682
0.000995743
0.000999085
0.00100181
0.001004
0.00100574
0.00100711
0.00100818
0.00100899
0.0010096
0.00101004
0.00101036
0.00101057
0.0010107
0.00101077
0.00101079
0.00101078
0.00101074
0.00101068
0.00101061
0.00101053
0.00101044
0.00101035
0.00101026
0.00101018
0.00101009
0.00101001
0.00100993
0.00100985
0.00100978
0.00100971
0.00100964
0.00100958
0.00100952
0.00100946
0.00100941
0.00100936
0.00100932
0.00100927
0.00100923
0.00100919
0.00100916
0.00100912
0.00100909
0.00100906
0.00100903
0.001009
0.00100898
0.00100895
0.00100893
0.00100891
0.00100889
0.00100887
0.00100885
0.00100884
0.00100882
0.0010088
0.00100879
0.00100878
0.00100876
0.00100875
0.00100874
0.00100873
0.00100872
0.00100871
0.0010087
0.00100869
0.00100868
0.00100867
0.00100867
0.00100866
0.00100866
0.00100865
0.00100865
0.000978417
0.000941691
0.000909768
0.000882652
0.00086037
0.000842942
0.00083034
0.000822451
0.000819054
0.000819812
0.00082427
0.00083188
0.000842031
0.000854083
0.000867408
0.000881417
0.000895591
0.000909494
0.000922781
0.000935198
0.000946576
0.000956822
0.000965905
0.000973841
0.000980685
0.000986514
0.000991423
0.00099551
0.000998877
0.00100162
0.00100383
0.0010056
0.00100699
0.00100807
0.00100889
0.00100952
0.00100997
0.00101029
0.00101051
0.00101065
0.00101073
0.00101076
0.00101075
0.00101071
0.00101066
0.00101059
0.00101051
0.00101043
0.00101034
0.00101026
0.00101017
0.00101009
0.00101
0.00100993
0.00100985
0.00100978
0.00100971
0.00100964
0.00100958
0.00100952
0.00100947
0.00100941
0.00100936
0.00100932
0.00100927
0.00100923
0.00100919
0.00100916
0.00100912
0.00100909
0.00100906
0.00100903
0.001009
0.00100898
0.00100896
0.00100893
0.00100891
0.00100889
0.00100887
0.00100885
0.00100884
0.00100882
0.0010088
0.00100879
0.00100878
0.00100876
0.00100875
0.00100874
0.00100873
0.00100872
0.0010087
0.0010087
0.00100869
0.00100868
0.00100867
0.00100867
0.00100866
0.00100866
0.00100865
0.00100865
0.000978417
0.00094169
0.000909766
0.000882647
0.000860359
0.000842922
0.000830305
0.000822394
0.00081897
0.000819694
0.000824113
0.000831681
0.000841789
0.000853801
0.000867089
0.000881068
0.000895219
0.000909107
0.000922387
0.000934804
0.000946191
0.00095645
0.000965551
0.000973509
0.000980377
0.000986231
0.000991165
0.000995277
0.000998668
0.00100144
0.00100367
0.00100545
0.00100686
0.00100796
0.0010088
0.00100943
0.0010099
0.00101023
0.00101046
0.0010106
0.00101069
0.00101072
0.00101072
0.00101068
0.00101063
0.00101057
0.00101049
0.00101041
0.00101033
0.00101025
0.00101016
0.00101008
0.00101
0.00100992
0.00100985
0.00100977
0.00100971
0.00100964
0.00100958
0.00100952
0.00100946
0.00100941
0.00100936
0.00100932
0.00100927
0.00100923
0.00100919
0.00100916
0.00100912
0.00100909
0.00100906
0.00100903
0.001009
0.00100898
0.00100895
0.00100893
0.00100891
0.00100889
0.00100887
0.00100885
0.00100884
0.00100882
0.0010088
0.00100879
0.00100877
0.00100876
0.00100875
0.00100874
0.00100873
0.00100871
0.0010087
0.00100869
0.00100869
0.00100868
0.00100867
0.00100867
0.00100866
0.00100866
0.00100865
0.00100865
0.000978416
0.000941689
0.000909764
0.000882642
0.000860349
0.000842902
0.00083027
0.000822339
0.000818889
0.00081958
0.000823962
0.00083149
0.000841557
0.00085353
0.000866782
0.000880731
0.000894859
0.000908732
0.000922004
0.000934422
0.000945815
0.000956088
0.000965205
0.000973184
0.000980074
0.000985953
0.000990911
0.000995047
0.000998461
0.00100125
0.0010035
0.00100531
0.00100673
0.00100784
0.0010087
0.00100934
0.00100982
0.00101016
0.0010104
0.00101055
0.00101064
0.00101068
0.00101068
0.00101066
0.00101061
0.00101055
0.00101048
0.0010104
0.00101032
0.00101023
0.00101015
0.00101007
0.00100999
0.00100991
0.00100984
0.00100977
0.0010097
0.00100964
0.00100957
0.00100952
0.00100946
0.00100941
0.00100936
0.00100931
0.00100927
0.00100923
0.00100919
0.00100916
0.00100912
0.00100909
0.00100906
0.00100903
0.001009
0.00100898
0.00100895
0.00100893
0.00100891
0.00100889
0.00100887
0.00100885
0.00100883
0.00100882
0.0010088
0.00100879
0.00100877
0.00100876
0.00100875
0.00100874
0.00100872
0.00100871
0.0010087
0.00100869
0.00100869
0.00100868
0.00100867
0.00100866
0.00100866
0.00100866
0.00100865
0.00100865
0.000978416
0.000941688
0.000909761
0.000882636
0.000860338
0.000842883
0.000830237
0.000822287
0.000818811
0.000819471
0.000823818
0.000831308
0.000841336
0.00085327
0.000866488
0.000880408
0.000894514
0.000908371
0.000921636
0.000934053
0.000945452
0.000955735
0.000964869
0.000972866
0.000979778
0.000985679
0.00099066
0.000994819
0.000998256
0.00100107
0.00100334
0.00100516
0.0010066
0.00100773
0.0010086
0.00100925
0.00100974
0.00101009
0.00101034
0.0010105
0.0010106
0.00101064
0.00101065
0.00101062
0.00101058
0.00101052
0.00101045
0.00101038
0.0010103
0.00101022
0.00101014
0.00101006
0.00100998
0.00100991
0.00100983
0.00100976
0.00100969
0.00100963
0.00100957
0.00100951
0.00100946
0.00100941
0.00100936
0.00100931
0.00100927
0.00100923
0.00100919
0.00100915
0.00100912
0.00100909
0.00100906
0.00100903
0.001009
0.00100897
0.00100895
0.00100893
0.00100891
0.00100889
0.00100887
0.00100885
0.00100883
0.00100882
0.0010088
0.00100879
0.00100877
0.00100876
0.00100875
0.00100873
0.00100872
0.00100871
0.0010087
0.00100869
0.00100868
0.00100868
0.00100867
0.00100866
0.00100866
0.00100866
0.00100865
0.00100865
0.000978416
0.000941687
0.000909759
0.000882631
0.000860328
0.000842864
0.000830205
0.000822237
0.000818737
0.000819368
0.000823681
0.000831134
0.000841125
0.000853023
0.000866208
0.0008801
0.000894183
0.000908025
0.000921282
0.000933697
0.000945101
0.000955395
0.000964543
0.000972558
0.00097949
0.000985413
0.000990416
0.000994597
0.000998054
0.00100088
0.00100318
0.00100501
0.00100647
0.00100761
0.00100849
0.00100916
0.00100966
0.00101002
0.00101028
0.00101045
0.00101055
0.0010106
0.00101061
0.00101059
0.00101055
0.0010105
0.00101043
0.00101036
0.00101028
0.0010102
0.00101013
0.00101005
0.00100997
0.0010099
0.00100982
0.00100975
0.00100969
0.00100962
0.00100956
0.00100951
0.00100945
0.0010094
0.00100935
0.00100931
0.00100926
0.00100922
0.00100919
0.00100915
0.00100912
0.00100908
0.00100905
0.00100902
0.001009
0.00100897
0.00100895
0.00100893
0.0010089
0.00100888
0.00100886
0.00100885
0.00100883
0.00100881
0.0010088
0.00100878
0.00100877
0.00100876
0.00100874
0.00100873
0.00100872
0.00100871
0.0010087
0.00100869
0.00100868
0.00100867
0.00100867
0.00100866
0.00100866
0.00100865
0.00100865
0.00100865
0.000978416
0.000941686
0.000909756
0.000882626
0.000860318
0.000842846
0.000830175
0.000822189
0.000818666
0.000819269
0.000823551
0.00083097
0.000840925
0.000852789
0.000865942
0.000879806
0.000893868
0.000907695
0.000920943
0.000933357
0.000944764
0.000955067
0.000964228
0.00097226
0.000979211
0.000985154
0.000990178
0.000994379
0.000997857
0.00100071
0.00100302
0.00100487
0.00100634
0.0010075
0.00100839
0.00100907
0.00100958
0.00100995
0.00101022
0.00101039
0.0010105
0.00101055
0.00101057
0.00101056
0.00101052
0.00101047
0.00101041
0.00101034
0.00101026
0.00101019
0.00101011
0.00101003
0.00100996
0.00100988
0.00100981
0.00100974
0.00100968
0.00100962
0.00100956
0.0010095
0.00100945
0.0010094
0.00100935
0.0010093
0.00100926
0.00100922
0.00100918
0.00100914
0.00100911
0.00100908
0.00100905
0.00100902
0.00100899
0.00100897
0.00100894
0.00100892
0.0010089
0.00100888
0.00100886
0.00100884
0.00100883
0.00100881
0.00100879
0.00100878
0.00100877
0.00100875
0.00100874
0.00100873
0.00100872
0.00100871
0.0010087
0.00100869
0.00100868
0.00100867
0.00100867
0.00100866
0.00100866
0.00100865
0.00100865
0.00100865
0.000978415
0.000941685
0.000909754
0.000882621
0.000860308
0.000842828
0.000830145
0.000822143
0.000818599
0.000819176
0.000823428
0.000830814
0.000840736
0.000852567
0.00086569
0.000879528
0.000893569
0.00090738
0.00092062
0.000933031
0.000944441
0.000954752
0.000963926
0.000971974
0.000978942
0.000984904
0.000989947
0.000994168
0.000997665
0.00100053
0.00100286
0.00100473
0.00100622
0.00100739
0.00100829
0.00100899
0.0010095
0.00100988
0.00101015
0.00101033
0.00101045
0.00101051
0.00101053
0.00101052
0.00101049
0.00101044
0.00101038
0.00101032
0.00101024
0.00101017
0.00101009
0.00101002
0.00100994
0.00100987
0.0010098
0.00100973
0.00100967
0.00100961
0.00100955
0.00100949
0.00100944
0.00100939
0.00100934
0.0010093
0.00100925
0.00100921
0.00100918
0.00100914
0.00100911
0.00100907
0.00100904
0.00100902
0.00100899
0.00100896
0.00100894
0.00100892
0.0010089
0.00100888
0.00100886
0.00100884
0.00100882
0.00100881
0.00100879
0.00100878
0.00100876
0.00100875
0.00100874
0.00100872
0.00100871
0.0010087
0.00100869
0.00100869
0.00100868
0.00100867
0.00100866
0.00100866
0.00100865
0.00100865
0.00100865
0.00100865
0.000978415
0.000941684
0.000909751
0.000882615
0.000860298
0.000842811
0.000830117
0.000822099
0.000818535
0.000819088
0.000823311
0.000830667
0.000840557
0.000852357
0.000865451
0.000879264
0.000893285
0.000907082
0.000920312
0.00093272
0.000944134
0.000954452
0.000963637
0.000971698
0.000978683
0.000984662
0.000989724
0.000993964
0.000997479
0.00100036
0.00100271
0.00100459
0.0010061
0.00100728
0.00100819
0.0010089
0.00100943
0.00100981
0.00101009
0.00101028
0.0010104
0.00101047
0.00101049
0.00101049
0.00101046
0.00101041
0.00101036
0.00101029
0.00101022
0.00101015
0.00101008
0.00101
0.00100993
0.00100986
0.00100979
0.00100972
0.00100966
0.0010096
0.00100954
0.00100948
0.00100943
0.00100938
0.00100933
0.00100929
0.00100925
0.00100921
0.00100917
0.00100913
0.0010091
0.00100907
0.00100904
0.00100901
0.00100898
0.00100896
0.00100893
0.00100891
0.00100889
0.00100887
0.00100885
0.00100883
0.00100882
0.0010088
0.00100879
0.00100877
0.00100876
0.00100874
0.00100873
0.00100872
0.00100871
0.0010087
0.00100869
0.00100868
0.00100867
0.00100867
0.00100866
0.00100866
0.00100865
0.00100865
0.00100865
0.00100864
0.000978415
0.000941682
0.000909749
0.00088261
0.000860289
0.000842795
0.00083009
0.000822058
0.000818475
0.000819006
0.000823202
0.000830529
0.000840389
0.000852159
0.000865226
0.000879015
0.000893016
0.000906799
0.000920021
0.000932426
0.000943841
0.000954166
0.00096336
0.000971435
0.000978435
0.000984431
0.00098951
0.000993767
0.000997299
0.0010002
0.00100256
0.00100446
0.00100598
0.00100717
0.0010081
0.00100881
0.00100935
0.00100974
0.00101003
0.00101022
0.00101035
0.00101042
0.00101045
0.00101045
0.00101042
0.00101038
0.00101033
0.00101027
0.0010102
0.00101013
0.00101006
0.00100998
0.00100991
0.00100984
0.00100978
0.00100971
0.00100965
0.00100959
0.00100953
0.00100948
0.00100942
0.00100937
0.00100933
0.00100928
0.00100924
0.0010092
0.00100916
0.00100913
0.00100909
0.00100906
0.00100903
0.001009
0.00100898
0.00100895
0.00100893
0.00100891
0.00100889
0.00100887
0.00100885
0.00100883
0.00100881
0.0010088
0.00100878
0.00100877
0.00100875
0.00100874
0.00100873
0.00100872
0.00100871
0.0010087
0.00100869
0.00100868
0.00100867
0.00100867
0.00100866
0.00100865
0.00100865
0.00100865
0.00100864
0.00100864
0.000978414
0.000941681
0.000909746
0.000882606
0.00086028
0.000842779
0.000830065
0.000822019
0.000818419
0.000818928
0.000823099
0.000830399
0.000840231
0.000851973
0.000865014
0.00087878
0.000892763
0.000906532
0.000919745
0.000932147
0.000943563
0.000953893
0.000963098
0.000971184
0.000978198
0.000984209
0.000989305
0.000993578
0.000997126
0.00100004
0.00100242
0.00100433
0.00100586
0.00100707
0.001008
0.00100873
0.00100927
0.00100968
0.00100997
0.00101017
0.0010103
0.00101038
0.00101041
0.00101041
0.00101039
0.00101035
0.0010103
0.00101024
0.00101018
0.00101011
0.00101004
0.00100997
0.0010099
0.00100983
0.00100976
0.0010097
0.00100964
0.00100958
0.00100952
0.00100947
0.00100941
0.00100936
0.00100932
0.00100927
0.00100923
0.00100919
0.00100916
0.00100912
0.00100909
0.00100906
0.00100903
0.001009
0.00100897
0.00100895
0.00100892
0.0010089
0.00100888
0.00100886
0.00100884
0.00100882
0.00100881
0.00100879
0.00100878
0.00100876
0.00100875
0.00100874
0.00100872
0.00100871
0.0010087
0.00100869
0.00100868
0.00100868
0.00100867
0.00100866
0.00100866
0.00100865
0.00100865
0.00100864
0.00100864
0.00100864
0.000978414
0.00094168
0.000909744
0.000882601
0.000860271
0.000842764
0.000830041
0.000821983
0.000818366
0.000818854
0.000823003
0.000830277
0.000840082
0.000851799
0.000864815
0.00087856
0.000892525
0.000906281
0.000919485
0.000931883
0.000943301
0.000953636
0.000962848
0.000970946