/*--------------------------------*- C++ -*----------------------------------*\
  =========                 |
  \\      /  F ield         | OpenFOAM: The Open Source CFD Toolbox
   \\    /   O peration     | Website:  https://openfoam.org
    \\  /    A nd           | Version:  11
     \\/     M anipulation  |
\*---------------------------------------------------------------------------*/
FoamFile
{
    format      ascii;
    class       volScalarField;
    location    "34";
    object      omega;
}
// * * * * * * * * * * * * * * * * * * * * * * * * * * * * * * * * * * * * * //

dimensions      [0 0 -1 0 0 0 0];

internalField   nonuniform List<scalar> 
10000
(
0.960917
0.889521
0.824165
0.764198
0.709087
0.658418
0.611887
0.569274
0.530427
0.495223
0.463543
0.43525
0.410177
0.388125
0.368871
0.35217
0.337774
0.325434
0.314912
0.305984
0.298443
0.292102
0.286795
0.282374
0.278705
0.275673
0.273175
0.271126
0.269451
0.268087
0.266979
0.266082
0.265358
0.264775
0.264305
0.263928
0.263625
0.263381
0.263185
0.263027
0.262899
0.262795
0.26271
0.262641
0.262583
0.262535
0.262494
0.26246
0.26243
0.262405
0.262382
0.262363
0.262345
0.262329
0.262315
0.262303
0.262291
0.262281
0.262271
0.262262
0.262254
0.262246
0.262239
0.262233
0.262227
0.262221
0.262216
0.262212
0.262207
0.262203
0.262199
0.262195
0.262192
0.262189
0.262186
0.262183
0.26218
0.262177
0.262175
0.262172
0.26217
0.262168
0.262165
0.262163
0.262161
0.262159
0.262157
0.262155
0.262153
0.26215
0.262148
0.262146
0.262144
0.262142
0.26214
0.262139
0.262137
0.262136
0.262135
0.262134
0.960917
0.889527
0.824178
0.764217
0.709113
0.658451
0.611926
0.569319
0.530477
0.495276
0.463599
0.435306
0.410233
0.388181
0.368925
0.352221
0.337822
0.325479
0.314954
0.306023
0.298479
0.292136
0.286827
0.282402
0.27873
0.275694
0.273194
0.271142
0.269466
0.2681
0.26699
0.266092
0.265367
0.264783
0.264312
0.263934
0.263631
0.263387
0.26319
0.263032
0.262903
0.262799
0.262714
0.262644
0.262586
0.262538
0.262497
0.262462
0.262433
0.262407
0.262384
0.262365
0.262347
0.262331
0.262317
0.262304
0.262293
0.262282
0.262272
0.262263
0.262255
0.262248
0.262241
0.262234
0.262228
0.262222
0.262217
0.262212
0.262208
0.262204
0.2622
0.262196
0.262192
0.262189
0.262186
0.262183
0.26218
0.262178
0.262175
0.262173
0.26217
0.262168
0.262166
0.262164
0.262161
0.262159
0.262157
0.262155
0.262153
0.262151
0.262149
0.262146
0.262144
0.262142
0.262141
0.262139
0.262137
0.262136
0.262135
0.262135
0.960917
0.889535
0.824198
0.764249
0.709157
0.658507
0.611992
0.569395
0.530561
0.495367
0.463693
0.435403
0.410329
0.388274
0.369014
0.352306
0.337901
0.325551
0.31502
0.306083
0.298534
0.292186
0.286872
0.282442
0.278765
0.275724
0.27322
0.271165
0.269485
0.268117
0.267005
0.266105
0.265378
0.264792
0.264321
0.263942
0.263638
0.263393
0.263196
0.263037
0.262908
0.262804
0.262718
0.262648
0.26259
0.262541
0.2625
0.262466
0.262436
0.26241
0.262387
0.262367
0.26235
0.262334
0.262319
0.262307
0.262295
0.262284
0.262274
0.262265
0.262257
0.262249
0.262242
0.262236
0.262229
0.262224
0.262219
0.262214
0.262209
0.262205
0.262201
0.262197
0.262193
0.26219
0.262187
0.262184
0.262181
0.262179
0.262176
0.262174
0.262171
0.262169
0.262166
0.262164
0.262162
0.26216
0.262158
0.262155
0.262153
0.262151
0.262149
0.262147
0.262145
0.262143
0.262141
0.262139
0.262138
0.262136
0.262135
0.262135
0.960917
0.889543
0.82422
0.764287
0.709212
0.658578
0.612079
0.569497
0.530674
0.495489
0.463821
0.435533
0.410459
0.388401
0.369136
0.352421
0.338008
0.32565
0.31511
0.306164
0.298607
0.292252
0.28693
0.282493
0.278809
0.275763
0.273253
0.271194
0.26951
0.268138
0.267023
0.266121
0.265392
0.264804
0.264331
0.263951
0.263645
0.2634
0.263202
0.263043
0.262913
0.262809
0.262723
0.262652
0.262594
0.262545
0.262504
0.262469
0.262439
0.262413
0.26239
0.26237
0.262353
0.262337
0.262322
0.262309
0.262297
0.262287
0.262277
0.262268
0.262259
0.262251
0.262244
0.262238
0.262231
0.262226
0.26222
0.262215
0.262211
0.262206
0.262202
0.262198
0.262195
0.262191
0.262188
0.262185
0.262182
0.26218
0.262177
0.262174
0.262172
0.26217
0.262167
0.262165
0.262163
0.26216
0.262158
0.262156
0.262154
0.262152
0.262149
0.262147
0.262145
0.262143
0.262141
0.26214
0.262138
0.262137
0.262136
0.262135
0.960918
0.889552
0.824241
0.764327
0.709272
0.658659
0.61218
0.569616
0.530809
0.495636
0.463976
0.435692
0.410618
0.388556
0.369285
0.352562
0.338139
0.325771
0.31522
0.306264
0.298697
0.292332
0.287001
0.282555
0.278863
0.27581
0.273293
0.271228
0.269539
0.268163
0.267045
0.266139
0.265407
0.264817
0.264343
0.263961
0.263654
0.263408
0.263209
0.263049
0.262919
0.262814
0.262728
0.262657
0.262599
0.26255
0.262508
0.262473
0.262443
0.262417
0.262394
0.262374
0.262356
0.26234
0.262325
0.262312
0.2623
0.262289
0.262279
0.26227
0.262262
0.262254
0.262247
0.26224
0.262233
0.262228
0.262222
0.262217
0.262212
0.262208
0.262204
0.2622
0.262196
0.262193
0.26219
0.262186
0.262184
0.262181
0.262178
0.262176
0.262173
0.262171
0.262168
0.262166
0.262164
0.262161
0.262159
0.262157
0.262155
0.262152
0.26215
0.262148
0.262146
0.262144
0.262142
0.26214
0.262138
0.262137
0.262136
0.262135
0.960919
0.889559
0.824262
0.764366
0.709333
0.658744
0.612289
0.569746
0.530958
0.4958
0.46415
0.435871
0.410798
0.388733
0.369455
0.352723
0.33829
0.325911
0.315348
0.306379
0.2988
0.292423
0.287082
0.282626
0.278925
0.275863
0.273339
0.271268
0.269573
0.268191
0.267069
0.26616
0.265425
0.264832
0.264355
0.263972
0.263664
0.263416
0.263217
0.263056
0.262925
0.26282
0.262733
0.262662
0.262603
0.262554
0.262513
0.262477
0.262447
0.262421
0.262398
0.262378
0.26236
0.262343
0.262329
0.262316
0.262303
0.262292
0.262282
0.262273
0.262264
0.262256
0.262249
0.262242
0.262236
0.26223
0.262224
0.262219
0.262214
0.26221
0.262206
0.262202
0.262198
0.262194
0.262191
0.262188
0.262185
0.262182
0.262179
0.262177
0.262174
0.262172
0.262169
0.262167
0.262164
0.262162
0.26216
0.262158
0.262155
0.262153
0.262151
0.262149
0.262146
0.262144
0.262142
0.262141
0.262139
0.262138
0.262137
0.262136
0.96092
0.889567
0.824282
0.764404
0.709393
0.658829
0.612399
0.569881
0.531115
0.495973
0.464336
0.436064
0.410993
0.388926
0.369642
0.352901
0.338457
0.326064
0.315488
0.306507
0.298914
0.292525
0.287172
0.282705
0.278993
0.275922
0.27339
0.271311
0.26961
0.268222
0.267095
0.266182
0.265444
0.264848
0.264369
0.263984
0.263674
0.263425
0.263224
0.263062
0.262932
0.262825
0.262738
0.262667
0.262608
0.262559
0.262517
0.262481
0.262451
0.262425
0.262402
0.262381
0.262363
0.262347
0.262332
0.262319
0.262307
0.262295
0.262285
0.262276
0.262267
0.262259
0.262251
0.262245
0.262238
0.262232
0.262226
0.262221
0.262216
0.262212
0.262207
0.262203
0.262199
0.262196
0.262192
0.262189
0.262186
0.262183
0.262181
0.262178
0.262175
0.262173
0.26217
0.262168
0.262165
0.262163
0.262161
0.262158
0.262156
0.262154
0.262151
0.262149
0.262147
0.262145
0.262143
0.262141
0.262139
0.262138
0.262137
0.262136
0.96092
0.889573
0.8243
0.764439
0.70945
0.658912
0.612509
0.570017
0.531274
0.496152
0.464528
0.436265
0.411198
0.389129
0.369839
0.353089
0.338634
0.326229
0.315639
0.306643
0.299037
0.292634
0.287268
0.282789
0.279066
0.275985
0.273444
0.271357
0.269649
0.268255
0.267123
0.266205
0.265463
0.264865
0.264383
0.263995
0.263684
0.263433
0.263232
0.263069
0.262938
0.262831
0.262743
0.262672
0.262612
0.262563
0.262521
0.262485
0.262455
0.262428
0.262405
0.262385
0.262366
0.26235
0.262335
0.262322
0.26231
0.262298
0.262288
0.262279
0.26227
0.262262
0.262254
0.262247
0.26224
0.262234
0.262228
0.262223
0.262218
0.262213
0.262209
0.262205
0.262201
0.262197
0.262194
0.262191
0.262188
0.262185
0.262182
0.262179
0.262176
0.262174
0.262171
0.262169
0.262166
0.262164
0.262162
0.262159
0.262157
0.262154
0.262152
0.26215
0.262148
0.262146
0.262143
0.262142
0.26214
0.262139
0.262137
0.262137
0.960921
0.889579
0.824317
0.764472
0.709505
0.658991
0.612615
0.57015
0.531432
0.49633
0.464723
0.43647
0.411407
0.389338
0.370043
0.353285
0.338818
0.3264
0.315796
0.306786
0.299165
0.292748
0.287368
0.282877
0.279143
0.276051
0.2735
0.271405
0.269689
0.26829
0.267152
0.266229
0.265483
0.264881
0.264397
0.264007
0.263694
0.263442
0.263239
0.263075
0.262943
0.262836
0.262748
0.262676
0.262616
0.262567
0.262525
0.262489
0.262458
0.262432
0.262408
0.262388
0.26237
0.262353
0.262338
0.262325
0.262312
0.262301
0.262291
0.262281
0.262272
0.262264
0.262256
0.262249
0.262242
0.262236
0.26223
0.262225
0.26222
0.262215
0.262211
0.262206
0.262203
0.262199
0.262195
0.262192
0.262189
0.262186
0.262183
0.26218
0.262177
0.262175
0.262172
0.26217
0.262167
0.262165
0.262162
0.26216
0.262158
0.262155
0.262153
0.26215
0.262148
0.262146
0.262144
0.262142
0.26214
0.262139
0.262138
0.262137
0.960922
0.889585
0.824332
0.764503
0.709556
0.659067
0.612718
0.570279
0.531586
0.496507
0.464916
0.436675
0.411617
0.389549
0.37025
0.353484
0.339006
0.326576
0.315958
0.306933
0.299297
0.292866
0.287473
0.282968
0.279222
0.276119
0.273558
0.271454
0.269731
0.268324
0.267181
0.266253
0.265503
0.264898
0.26441
0.264018
0.263703
0.26345
0.263246
0.263081
0.262948
0.26284
0.262752
0.26268
0.26262
0.26257
0.262528
0.262492
0.262461
0.262435
0.262411
0.262391
0.262372
0.262356
0.262341
0.262327
0.262315
0.262304
0.262293
0.262283
0.262274
0.262266
0.262258
0.262251
0.262244
0.262238
0.262232
0.262227
0.262222
0.262217
0.262212
0.262208
0.262204
0.2622
0.262197
0.262193
0.26219
0.262187
0.262184
0.262181
0.262178
0.262176
0.262173
0.26217
0.262168
0.262166
0.262163
0.262161
0.262158
0.262156
0.262153
0.262151
0.262149
0.262147
0.262145
0.262143
0.262141
0.26214
0.262138
0.262138
0.960923
0.889591
0.824347
0.764532
0.709604
0.659138
0.612815
0.570403
0.531735
0.496678
0.465105
0.436876
0.411826
0.389759
0.370457
0.353683
0.339196
0.326753
0.316121
0.307082
0.299432
0.292986
0.287578
0.283061
0.279302
0.276188
0.273618
0.271504
0.269773
0.26836
0.26721
0.266277
0.265523
0.264914
0.264424
0.264029
0.263712
0.263457
0.263252
0.263086
0.262953
0.262844
0.262756
0.262683
0.262623
0.262573
0.26253
0.262495
0.262464
0.262437
0.262414
0.262393
0.262375
0.262358
0.262343
0.26233
0.262317
0.262306
0.262295
0.262285
0.262276
0.262268
0.26226
0.262253
0.262246
0.26224
0.262234
0.262228
0.262223
0.262218
0.262214
0.262209
0.262205
0.262201
0.262198
0.262194
0.262191
0.262188
0.262185
0.262182
0.262179
0.262176
0.262174
0.262171
0.262169
0.262166
0.262164
0.262161
0.262159
0.262156
0.262154
0.262152
0.262149
0.262147
0.262145
0.262143
0.262141
0.26214
0.262139
0.262138
0.960924
0.889596
0.824361
0.764559
0.709649
0.659206
0.612907
0.570521
0.531879
0.496843
0.465288
0.437073
0.41203
0.389965
0.370661
0.353881
0.339384
0.326929
0.316284
0.307231
0.299566
0.293106
0.287685
0.283154
0.279383
0.276258
0.273677
0.271554
0.269815
0.268395
0.267239
0.266301
0.265542
0.26493
0.264437
0.26404
0.26372
0.263464
0.263257
0.263091
0.262956
0.262847
0.262758
0.262685
0.262625
0.262575
0.262533
0.262497
0.262466
0.262439
0.262416
0.262395
0.262377
0.26236
0.262345
0.262331
0.262319
0.262308
0.262297
0.262287
0.262278
0.26227
0.262262
0.262254
0.262248
0.262241
0.262235
0.26223
0.262224
0.262219
0.262215
0.26221
0.262206
0.262202
0.262199
0.262195
0.262192
0.262189
0.262186
0.262183
0.26218
0.262177
0.262174
0.262172
0.262169
0.262167
0.262164
0.262162
0.262159
0.262157
0.262154
0.262152
0.26215
0.262148
0.262145
0.262144
0.262142
0.26214
0.262139
0.262138
0.960924
0.889601
0.824374
0.764584
0.709692
0.659269
0.612994
0.570633
0.532015
0.497002
0.465465
0.437262
0.412228
0.390166
0.37086
0.354075
0.33957
0.327104
0.316446
0.307379
0.2997
0.293226
0.287791
0.283247
0.279464
0.276327
0.273736
0.271604
0.269857
0.26843
0.267268
0.266325
0.265561
0.264945
0.264449
0.264049
0.263728
0.26347
0.263262
0.263095
0.26296
0.26285
0.262761
0.262687
0.262627
0.262576
0.262534
0.262498
0.262467
0.262441
0.262417
0.262397
0.262378
0.262362
0.262347
0.262333
0.26232
0.262309
0.262298
0.262289
0.262279
0.262271
0.262263
0.262256
0.262249
0.262242
0.262236
0.262231
0.262225
0.26222
0.262216
0.262211
0.262207
0.262203
0.262199
0.262196
0.262192
0.262189
0.262186
0.262183
0.26218
0.262178
0.262175
0.262172
0.26217
0.262167
0.262165
0.262162
0.26216
0.262157
0.262155
0.262152
0.26215
0.262148
0.262146
0.262144
0.262142
0.262141
0.26214
0.262139
0.960925
0.889606
0.824386
0.764608
0.709731
0.659328
0.613076
0.570739
0.532144
0.497153
0.465634
0.437445
0.412419
0.390361
0.371054
0.354264
0.339751
0.327274
0.316605
0.307524
0.299832
0.293344
0.287895
0.283339
0.279544
0.276396
0.273795
0.271654
0.269898
0.268464
0.267296
0.266347
0.26558
0.26496
0.26446
0.264058
0.263735
0.263475
0.263266
0.263098
0.262962
0.262852
0.262762
0.262689
0.262628
0.262577
0.262535
0.262499
0.262468
0.262441
0.262418
0.262397
0.262379
0.262363
0.262348
0.262334
0.262321
0.26231
0.262299
0.26229
0.26228
0.262272
0.262264
0.262257
0.26225
0.262243
0.262237
0.262231
0.262226
0.262221
0.262216
0.262212
0.262208
0.262204
0.2622
0.262196
0.262193
0.26219
0.262187
0.262184
0.262181
0.262178
0.262175
0.262173
0.26217
0.262167
0.262165
0.262162
0.26216
0.262158
0.262155
0.262153
0.26215
0.262148
0.262146
0.262144
0.262142
0.262141
0.26214
0.262139
0.960926
0.88961
0.824397
0.76463
0.709768
0.659384
0.613153
0.570839
0.532266
0.497295
0.465794
0.437619
0.412602
0.390548
0.371241
0.354447
0.339927
0.327441
0.31676
0.307667
0.299961
0.29346
0.287998
0.283429
0.279622
0.276463
0.273852
0.271702
0.269939
0.268497
0.267323
0.26637
0.265597
0.264974
0.264471
0.264067
0.263742
0.26348
0.26327
0.263101
0.262964
0.262853
0.262763
0.262689
0.262628
0.262578
0.262535
0.262499
0.262468
0.262442
0.262418
0.262398
0.26238
0.262363
0.262348
0.262335
0.262322
0.262311
0.2623
0.26229
0.262281
0.262273
0.262265
0.262257
0.26225
0.262244
0.262238
0.262232
0.262227
0.262222
0.262217
0.262212
0.262208
0.262204
0.2622
0.262197
0.262193
0.26219
0.262187
0.262184
0.262181
0.262178
0.262175
0.262173
0.26217
0.262168
0.262165
0.262163
0.26216
0.262158
0.262155
0.262153
0.262151
0.262148
0.262146
0.262144
0.262143
0.262141
0.26214
0.262139
0.960927
0.889614
0.824408
0.764651
0.709803
0.659436
0.613225
0.570932
0.532381
0.49743
0.465946
0.437784
0.412776
0.390727
0.371421
0.354623
0.340096
0.327601
0.316909
0.307804
0.300086
0.293572
0.288098
0.283517
0.279698
0.276529
0.273908
0.271749
0.269978
0.26853
0.267349
0.266391
0.265614
0.264987
0.264481
0.264074
0.263747
0.263484
0.263273
0.263102
0.262965
0.262854
0.262763
0.262689
0.262628
0.262578
0.262535
0.262499
0.262468
0.262442
0.262418
0.262398
0.26238
0.262363
0.262348
0.262335
0.262322
0.262311
0.2623
0.262291
0.262281
0.262273
0.262265
0.262258
0.262251
0.262244
0.262238
0.262232
0.262227
0.262222
0.262217
0.262213
0.262208
0.262204
0.2622
0.262197
0.262193
0.26219
0.262187
0.262184
0.262181
0.262178
0.262176
0.262173
0.26217
0.262168
0.262165
0.262163
0.26216
0.262158
0.262155
0.262153
0.262151
0.262148
0.262146
0.262144
0.262143
0.262141
0.26214
0.262139
0.960928
0.889619
0.824418
0.764671
0.709835
0.659484
0.613292
0.57102
0.532489
0.497558
0.46609
0.437941
0.412942
0.390898
0.371592
0.354792
0.340259
0.327756
0.317054
0.307938
0.300208
0.293681
0.288195
0.283602
0.279773
0.276593
0.273962
0.271795
0.270016
0.268561
0.267375
0.266411
0.26563
0.264999
0.264491
0.264081
0.263752
0.263488
0.263275
0.263104
0.262966
0.262854
0.262763
0.262689
0.262628
0.262577
0.262534
0.262498
0.262468
0.262441
0.262418
0.262397
0.262379
0.262363
0.262348
0.262335
0.262322
0.262311
0.2623
0.262291
0.262282
0.262273
0.262265
0.262258
0.262251
0.262244
0.262238
0.262232
0.262227
0.262222
0.262217
0.262213
0.262208
0.262204
0.2622
0.262197
0.262193
0.26219
0.262187
0.262184
0.262181
0.262178
0.262175
0.262173
0.26217
0.262168
0.262165
0.262163
0.26216
0.262158
0.262155
0.262153
0.262151
0.262148
0.262146
0.262144
0.262143
0.262141
0.26214
0.262139
0.960928
0.889622
0.824428
0.764689
0.709866
0.65953
0.613355
0.571102
0.532591
0.497677
0.466225
0.438089
0.413099
0.39106
0.371755
0.354953
0.340414
0.327904
0.317193
0.308066
0.300324
0.293787
0.288289
0.283684
0.279844
0.276654
0.274015
0.271839
0.270053
0.268591
0.267399
0.26643
0.265646
0.265011
0.2645
0.264088
0.263757
0.26349
0.263277
0.263104
0.262966
0.262853
0.262762
0.262688
0.262626
0.262576
0.262533
0.262497
0.262466
0.26244
0.262417
0.262397
0.262378
0.262362
0.262348
0.262334
0.262322
0.262311
0.2623
0.26229
0.262281
0.262273
0.262265
0.262257
0.262251
0.262244
0.262238
0.262232
0.262227
0.262222
0.262217
0.262212
0.262208
0.262204
0.2622
0.262197
0.262193
0.26219
0.262187
0.262184
0.262181
0.262178
0.262175
0.262173
0.26217
0.262167
0.262165
0.262162
0.26216
0.262158
0.262155
0.262153
0.262151
0.262148
0.262146
0.262144
0.262143
0.262141
0.26214
0.262139
0.960929
0.889626
0.824437
0.764706
0.709894
0.659572
0.613414
0.571179
0.532685
0.497789
0.466353
0.438229
0.413247
0.391213
0.37191
0.355105
0.340562
0.328045
0.317325
0.308188
0.300436
0.293887
0.288379
0.283764
0.279913
0.276714
0.274065
0.271882
0.270088
0.26862
0.267422
0.266449
0.26566
0.265022
0.264508
0.264093
0.26376
0.263493
0.263278
0.263105
0.262965
0.262852
0.262761
0.262686
0.262625
0.262574
0.262531
0.262496
0.262465
0.262439
0.262416
0.262395
0.262377
0.262361
0.262347
0.262333
0.262321
0.26231
0.262299
0.26229
0.262281
0.262272
0.262264
0.262257
0.26225
0.262244
0.262238
0.262232
0.262226
0.262221
0.262217
0.262212
0.262208
0.262204
0.2622
0.262196
0.262193
0.26219
0.262186
0.262183
0.26218
0.262178
0.262175
0.262172
0.26217
0.262167
0.262165
0.262162
0.26216
0.262157
0.262155
0.262153
0.26215
0.262148
0.262146
0.262144
0.262143
0.262141
0.26214
0.262139
0.96093
0.88963
0.824445
0.764722
0.709921
0.659612
0.613469
0.57125
0.532774
0.497894
0.466472
0.438359
0.413386
0.391358
0.372056
0.35525
0.340703
0.328179
0.317451
0.308305
0.300543
0.293984
0.288465
0.28384
0.279979
0.276771
0.274114
0.271922
0.270122
0.268647
0.267444
0.266466
0.265673
0.265032
0.264515
0.264098
0.263764
0.263494
0.263278
0.263104
0.262964
0.262851
0.262759
0.262684
0.262623
0.262572
0.262529
0.262494
0.262463
0.262437
0.262414
0.262394
0.262376
0.26236
0.262345
0.262332
0.26232
0.262309
0.262299
0.262289
0.26228
0.262272
0.262264
0.262256
0.26225
0.262243
0.262237
0.262231
0.262226
0.262221
0.262216
0.262211
0.262207
0.262203
0.262199
0.262196
0.262192
0.262189
0.262186
0.262183
0.26218
0.262177
0.262174
0.262172
0.262169
0.262167
0.262164
0.262162
0.262159
0.262157
0.262155
0.262152
0.26215
0.262148
0.262146
0.262144
0.262143
0.262141
0.26214
0.262139
0.96093
0.889633
0.824453
0.764737
0.709945
0.659648
0.61352
0.571317
0.532856
0.497992
0.466583
0.438482
0.413517
0.391493
0.372194
0.355387
0.340836
0.328306
0.317571
0.308416
0.300645
0.294076
0.288547
0.283912
0.280043
0.276825
0.27416
0.271961
0.270154
0.268674
0.267465
0.266483
0.265686
0.265042
0.264522
0.264103
0.263766
0.263496
0.263278
0.263104
0.262963
0.262849
0.262757
0.262682
0.262621
0.26257
0.262527
0.262491
0.262461
0.262435
0.262412
0.262392
0.262374
0.262358
0.262344
0.262331
0.262319
0.262308
0.262297
0.262288
0.262279
0.262271
0.262263
0.262256
0.262249
0.262242
0.262236
0.262231
0.262225
0.26222
0.262215
0.262211
0.262207
0.262203
0.262199
0.262195
0.262192
0.262188
0.262185
0.262182
0.262179
0.262177
0.262174
0.262171
0.262169
0.262166
0.262164
0.262161
0.262159
0.262157
0.262154
0.262152
0.26215
0.262148
0.262146
0.262144
0.262142
0.262141
0.26214
0.262139
0.960931
0.889636
0.824461
0.764751
0.709968
0.659683
0.613567
0.571379
0.532933
0.498083
0.466687
0.438597
0.41364
0.391621
0.372323
0.355515
0.340961
0.328426
0.317684
0.308522
0.300741
0.294163
0.288625
0.283981
0.280103
0.276877
0.274204
0.271998
0.270184
0.268698
0.267485
0.266498
0.265698
0.26505
0.264528
0.264107
0.263768
0.263497
0.263278
0.263103
0.262961
0.262847
0.262755
0.26268
0.262618
0.262567
0.262525
0.262489
0.262459
0.262433
0.26241
0.26239
0.262372
0.262357
0.262342
0.262329
0.262317
0.262306
0.262296
0.262287
0.262278
0.26227
0.262262
0.262255
0.262248
0.262241
0.262235
0.26223
0.262224
0.262219
0.262214
0.26221
0.262206
0.262202
0.262198
0.262194
0.262191
0.262188
0.262185
0.262182
0.262179
0.262176
0.262173
0.262171
0.262168
0.262166
0.262163
0.262161
0.262158
0.262156
0.262154
0.262152
0.262149
0.262147
0.262145
0.262144
0.262142
0.262141
0.26214
0.262139
0.960932
0.889639
0.824468
0.764764
0.709989
0.659714
0.613611
0.571436
0.533005
0.498168
0.466784
0.438704
0.413755
0.39174
0.372444
0.355636
0.341079
0.328539
0.317791
0.308621
0.300833
0.294246
0.288699
0.284047
0.28016
0.276926
0.274246
0.272033
0.270213
0.268722
0.267504
0.266513
0.265709
0.265058
0.264533
0.26411
0.26377
0.263497
0.263278
0.263101
0.262959
0.262845
0.262752
0.262677
0.262615
0.262564
0.262522
0.262486
0.262456
0.26243
0.262407
0.262388
0.26237
0.262355
0.26234
0.262327
0.262316
0.262305
0.262295
0.262285
0.262276
0.262268
0.262261
0.262253
0.262247
0.26224
0.262234
0.262229
0.262223
0.262218
0.262214
0.262209
0.262205
0.262201
0.262197
0.262193
0.26219
0.262187
0.262184
0.262181
0.262178
0.262175
0.262173
0.26217
0.262167
0.262165
0.262163
0.26216
0.262158
0.262156
0.262153
0.262151
0.262149
0.262147
0.262145
0.262143
0.262142
0.26214
0.262139
0.262139
0.960932
0.889642
0.824474
0.764776
0.710009
0.659744
0.613652
0.57149
0.533071
0.498247
0.466875
0.438804
0.413861
0.391852
0.372558
0.355749
0.34119
0.328646
0.317892
0.308715
0.300919
0.294325
0.288769
0.284109
0.280214
0.276973
0.274286
0.272067
0.270241
0.268744
0.267522
0.266527
0.265719
0.265066
0.264538
0.264114
0.263772
0.263497
0.263277
0.2631
0.262957
0.262843
0.26275
0.262674
0.262612
0.262561
0.262519
0.262483
0.262453
0.262427
0.262405
0.262385
0.262368
0.262352
0.262338
0.262326
0.262314
0.262303
0.262293
0.262284
0.262275
0.262267
0.262259
0.262252
0.262245
0.262239
0.262233
0.262227
0.262222
0.262217
0.262213
0.262208
0.262204
0.2622
0.262196
0.262193
0.262189
0.262186
0.262183
0.26218
0.262177
0.262174
0.262172
0.262169
0.262167
0.262164
0.262162
0.26216
0.262157
0.262155
0.262153
0.262151
0.262149
0.262147
0.262145
0.262143
0.262141
0.26214
0.262139
0.262138
0.960933
0.889645
0.82448
0.764788
0.710028
0.659771
0.61369
0.571539
0.533133
0.49832
0.466959
0.438897
0.413961
0.391956
0.372664
0.355855
0.341294
0.328746
0.317986
0.308803
0.301
0.294398
0.288835
0.284167
0.280265
0.277017
0.274323
0.272098
0.270267
0.268766
0.267539
0.26654
0.265729
0.265073
0.264543
0.264116
0.263773
0.263497
0.263276
0.263098
0.262955
0.26284
0.262747
0.262671
0.262609
0.262558
0.262516
0.26248
0.26245
0.262425
0.262402
0.262383
0.262366
0.26235
0.262336
0.262323
0.262312
0.262301
0.262291
0.262282
0.262273
0.262265
0.262258
0.262251
0.262244
0.262238
0.262232
0.262226
0.262221
0.262216
0.262211
0.262207
0.262203
0.262199
0.262195
0.262192
0.262188
0.262185
0.262182
0.262179
0.262176
0.262173
0.262171
0.262168
0.262166
0.262163
0.262161
0.262159
0.262157
0.262154
0.262152
0.26215
0.262148
0.262146
0.262144
0.262142
0.262141
0.26214
0.262139
0.262138
0.960933
0.889647
0.824486
0.764798
0.710045
0.659797
0.613725
0.571585
0.53319
0.498388
0.467037
0.438983
0.414054
0.392053
0.372763
0.355954
0.341391
0.328839
0.318075
0.308886
0.301077
0.294468
0.288898
0.284222
0.280314
0.277059
0.274359
0.272128
0.270291
0.268785
0.267555
0.266552
0.265738
0.265079
0.264547
0.264119
0.263774
0.263497
0.263275
0.263096
0.262953
0.262837
0.262744
0.262668
0.262606
0.262555
0.262513
0.262477
0.262447
0.262422
0.2624
0.26238
0.262363
0.262348
0.262334
0.262321
0.26231
0.262299
0.262289
0.26228
0.262272
0.262264
0.262256
0.262249
0.262243
0.262236
0.262231
0.262225
0.26222
0.262215
0.26221
0.262206
0.262202
0.262198
0.262194
0.26219
0.262187
0.262184
0.262181
0.262178
0.262175
0.262173
0.26217
0.262167
0.262165
0.262163
0.26216
0.262158
0.262156
0.262154
0.262152
0.262149
0.262147
0.262146
0.262144
0.262142
0.262141
0.262139
0.262138
0.262138
0.960934
0.889649
0.824491
0.764808
0.71006
0.65982
0.613758
0.571627
0.533243
0.498451
0.467109
0.439063
0.41414
0.392143
0.372855
0.356047
0.341482
0.328927
0.318158
0.308964
0.301148
0.294533
0.288956
0.284274
0.280359
0.277098
0.274392
0.272156
0.270315
0.268804
0.267569
0.266563
0.265747
0.265085
0.264551
0.264121
0.263775
0.263497
0.263274
0.263094
0.26295
0.262834
0.262741
0.262665
0.262603
0.262552
0.262509
0.262474
0.262444
0.262419
0.262397
0.262378
0.262361
0.262345
0.262332
0.262319
0.262308
0.262297
0.262288
0.262278
0.26227
0.262262
0.262255
0.262248
0.262241
0.262235
0.262229
0.262224
0.262218
0.262214
0.262209
0.262205
0.2622
0.262197
0.262193
0.262189
0.262186
0.262183
0.26218
0.262177
0.262174
0.262172
0.262169
0.262167
0.262164
0.262162
0.26216
0.262157
0.262155
0.262153
0.262151
0.262149
0.262147
0.262145
0.262143
0.262142
0.26214
0.262139
0.262138
0.262137
0.960934
0.889651
0.824496
0.764817
0.710075
0.659842
0.613788
0.571667
0.533291
0.498509
0.467175
0.439137
0.41422
0.392227
0.372941
0.356133
0.341566
0.329008
0.318236
0.309036
0.301215
0.294594
0.289011
0.284323
0.280402
0.277135
0.274424
0.272182
0.270336
0.268822
0.267583
0.266574
0.265754
0.265091
0.264555
0.264123
0.263775
0.263496
0.263272
0.263092
0.262948
0.262831
0.262738
0.262661
0.262599
0.262548
0.262506
0.262471
0.262441
0.262416
0.262394
0.262375
0.262358
0.262343
0.262329
0.262317
0.262306
0.262295
0.262286
0.262277
0.262268
0.26226
0.262253
0.262246
0.26224
0.262234
0.262228
0.262222
0.262217
0.262212
0.262208
0.262203
0.262199
0.262195
0.262192
0.262188
0.262185
0.262182
0.262179
0.262176
0.262173
0.262171
0.262168
0.262166
0.262163
0.262161
0.262159
0.262156
0.262154
0.262152
0.26215
0.262148
0.262146
0.262144
0.262143
0.262141
0.26214
0.262138
0.262137
0.262137
0.960935
0.889653
0.824501
0.764825
0.710089
0.659862
0.613815
0.571703
0.533337
0.498563
0.467237
0.439206
0.414294
0.392304
0.373021
0.356212
0.341644
0.329084
0.318308
0.309104
0.301278
0.294651
0.289063
0.284369
0.280442
0.277169
0.274453
0.272207
0.270357
0.268838
0.267596
0.266584
0.265762
0.265096
0.264558
0.264124
0.263776
0.263495
0.263271
0.26309
0.262945
0.262829
0.262735
0.262658
0.262596
0.262545
0.262503
0.262468
0.262438
0.262413
0.262391
0.262372
0.262355
0.26234
0.262327
0.262315
0.262304
0.262293
0.262284
0.262275
0.262267
0.262259
0.262251
0.262245
0.262238
0.262232
0.262226
0.262221
0.262216
0.262211
0.262206
0.262202
0.262198
0.262194
0.26219
0.262187
0.262184
0.262181
0.262178
0.262175
0.262172
0.26217
0.262167
0.262165
0.262162
0.26216
0.262158
0.262156
0.262154
0.262151
0.262149
0.262148
0.262146
0.262144
0.262142
0.262141
0.262139
0.262138
0.262137
0.262136
0.960935
0.889655
0.824505
0.764833
0.710101
0.65988
0.613841
0.571736
0.533378
0.498612
0.467294
0.439269
0.414362
0.392376
0.373094
0.356286
0.341717
0.329155
0.318375
0.309167
0.301336
0.294704
0.28911
0.284411
0.280479
0.277202
0.274481
0.27223
0.270376
0.268854
0.267608
0.266593
0.265769
0.265101
0.264561
0.264126
0.263776
0.263495
0.263269
0.263088
0.262943
0.262826
0.262731
0.262655
0.262593
0.262542
0.2625
0.262465
0.262435
0.26241
0.262388
0.262369
0.262353
0.262338
0.262325
0.262313
0.262301
0.262291
0.262282
0.262273
0.262265
0.262257
0.26225
0.262243
0.262237
0.262231
0.262225
0.262219
0.262214
0.26221
0.262205
0.262201
0.262197
0.262193
0.262189
0.262186
0.262183
0.26218
0.262177
0.262174
0.262171
0.262169
0.262166
0.262164
0.262161
0.262159
0.262157
0.262155
0.262153
0.262151
0.262149
0.262147
0.262145
0.262143
0.262142
0.26214
0.262139
0.262137
0.262137
0.262136
0.960935
0.889657
0.824509
0.76484
0.710112
0.659897
0.613864
0.571767
0.533416
0.498658
0.467347
0.439327
0.414425
0.392442
0.373162
0.356355
0.341785
0.32922
0.318437
0.309226
0.301391
0.294754
0.289155
0.284451
0.280514
0.277232
0.274506
0.272252
0.270394
0.268868
0.26762
0.266602
0.265775
0.265105
0.264563
0.264127
0.263776
0.263494
0.263268
0.263086
0.26294
0.262823
0.262729
0.262652
0.26259
0.262539
0.262497
0.262462
0.262432
0.262407
0.262386
0.262367
0.26235
0.262336
0.262322
0.26231
0.262299
0.262289
0.26228
0.262271
0.262263
0.262255
0.262248
0.262241
0.262235
0.262229
0.262223
0.262218
0.262213
0.262208
0.262204
0.2622
0.262195
0.262192
0.262188
0.262185
0.262181
0.262178
0.262175
0.262173
0.26217
0.262167
0.262165
0.262163
0.26216
0.262158
0.262156
0.262154
0.262152
0.26215
0.262148
0.262146
0.262144
0.262143
0.262141
0.262139
0.262138
0.262137
0.262136
0.262135
0.960936
0.889659
0.824513
0.764847
0.710123
0.659913
0.613886
0.571795
0.533451
0.4987
0.467395
0.439381
0.414483
0.392504
0.373225
0.356418
0.341847
0.329281
0.318495
0.30928
0.301441
0.2948
0.289197
0.284488
0.280546
0.27726
0.27453
0.272272
0.27041
0.268881
0.26763
0.26661
0.265781
0.265109
0.264566
0.264128
0.263776
0.263493
0.263266
0.263084
0.262938
0.26282
0.262726
0.262649
0.262587
0.262536
0.262494
0.262459
0.262429
0.262404
0.262383
0.262364
0.262348
0.262333
0.26232
0.262308
0.262297
0.262287
0.262278
0.262269
0.262261
0.262254
0.262247
0.26224
0.262234
0.262228
0.262222
0.262217
0.262212
0.262207
0.262202
0.262198
0.262194
0.26219
0.262187
0.262184
0.26218
0.262177
0.262174
0.262172
0.262169
0.262166
0.262164
0.262162
0.26216
0.262157
0.262155
0.262153
0.262151
0.262149
0.262147
0.262145
0.262144
0.262142
0.26214
0.262139
0.262138
0.262136
0.262136
0.262135
0.960936
0.88966
0.824516
0.764853
0.710133
0.659927
0.613906
0.571821
0.533484
0.498738
0.467439
0.43943
0.414537
0.39256
0.373283
0.356476
0.341905
0.329337
0.318549
0.30933
0.301488
0.294843
0.289235
0.284522
0.280577
0.277286
0.274553
0.272291
0.270426
0.268894
0.26764
0.266617
0.265786
0.265113
0.264568
0.264129
0.263776
0.263492
0.263265
0.263082
0.262935
0.262818
0.262723
0.262646
0.262584
0.262533
0.262491
0.262456
0.262427
0.262402
0.26238
0.262362
0.262345
0.262331
0.262318
0.262306
0.262295
0.262285
0.262276
0.262268
0.26226
0.262252
0.262245
0.262238
0.262232
0.262226
0.262221
0.262215
0.26221
0.262206
0.262201
0.262197
0.262193
0.262189
0.262186
0.262182
0.262179
0.262176
0.262173
0.262171
0.262168
0.262165
0.262163
0.262161
0.262159
0.262156
0.262154
0.262152
0.26215
0.262148
0.262147
0.262145
0.262143
0.262141
0.26214
0.262138
0.262137
0.262136
0.262135
0.262135