/*--------------------------------*- C++ -*----------------------------------*\
  =========                 |
  \\      /  F ield         | OpenFOAM: The Open Source CFD Toolbox
   \\    /   O peration     | Website:  https://openfoam.org
    \\  /    A nd           | Version:  11
     \\/     M anipulation  |
\*---------------------------------------------------------------------------*/
FoamFile
{
    format      ascii;
    class       volScalarField;
    location    "34";
    object      p;
}
// * * * * * * * * * * * * * * * * * * * * * * * * * * * * * * * * * * * * * //

dimensions      [0 2 -2 0 0 0 0];

internalField   nonuniform List<scalar> 
10000
(
3.76628e-06
3.66499e-06
3.78032e-06
4.03448e-06
4.31532e-06
4.59276e-06
4.8596e-06
5.11074e-06
5.3422e-06
5.55159e-06
5.73769e-06
5.90007e-06
6.03874e-06
6.15395e-06
6.24601e-06
6.31406e-06
6.35476e-06
6.35748e-06
6.32738e-06
6.37106e-06
6.47039e-06
6.49632e-06
6.4095e-06
6.2394e-06
6.05671e-06
5.94863e-06
5.88431e-06
5.78768e-06
5.66861e-06
5.53621e-06
5.39376e-06
5.24363e-06
5.08776e-06
4.92778e-06
4.76508e-06
4.6009e-06
4.43632e-06
4.27228e-06
4.10962e-06
3.94905e-06
3.7912e-06
3.63657e-06
3.48559e-06
3.33862e-06
3.1959e-06
3.05765e-06
2.924e-06
2.79505e-06
2.67082e-06
2.55132e-06
2.43652e-06
2.32635e-06
2.22072e-06
2.11952e-06
2.02263e-06
1.92992e-06
1.84124e-06
1.75643e-06
1.67535e-06
1.59784e-06
1.52373e-06
1.45287e-06
1.3851e-06
1.32027e-06
1.25824e-06
1.19885e-06
1.14198e-06
1.08747e-06
1.03522e-06
9.85086e-07
9.36958e-07
8.90722e-07
8.46273e-07
8.0351e-07
7.62336e-07
7.22661e-07
6.84398e-07
6.47468e-07
6.11791e-07
5.77296e-07
5.43911e-07
5.1157e-07
4.80207e-07
4.4976e-07
4.20164e-07
3.91358e-07
3.63276e-07
3.35851e-07
3.09011e-07
2.82677e-07
2.56758e-07
2.31148e-07
2.05716e-07
1.80294e-07
1.54666e-07
1.28603e-07
1.01637e-07
7.154e-08
3.41146e-08
-8.56594e-12
6.9937e-06
6.58939e-06
6.31446e-06
6.36536e-06
6.54341e-06
6.76315e-06
6.99683e-06
7.22802e-06
7.44535e-06
7.64221e-06
7.81537e-06
7.9637e-06
8.08737e-06
8.18724e-06
8.26454e-06
8.3201e-06
8.35256e-06
8.35798e-06
8.35499e-06
8.39293e-06
8.37052e-06
8.26995e-06
8.20756e-06
8.15391e-06
8.02113e-06
7.8694e-06
7.75166e-06
7.62212e-06
7.47576e-06
7.31574e-06
7.14425e-06
6.96326e-06
6.77465e-06
6.58013e-06
6.3813e-06
6.1796e-06
5.97636e-06
5.77274e-06
5.56982e-06
5.36853e-06
5.16967e-06
4.97394e-06
4.78194e-06
4.59416e-06
4.411e-06
4.23278e-06
4.05972e-06
3.89201e-06
3.72975e-06
3.57299e-06
3.42176e-06
3.27601e-06
3.13569e-06
3.0007e-06
2.87094e-06
2.74625e-06
2.62651e-06
2.51154e-06
2.40119e-06
2.29527e-06
2.1936e-06
2.09602e-06
2.00234e-06
1.91238e-06
1.82597e-06
1.74294e-06
1.66312e-06
1.58635e-06
1.51248e-06
1.44134e-06
1.3728e-06
1.30672e-06
1.24297e-06
1.18141e-06
1.12193e-06
1.0644e-06
1.00872e-06
9.54786e-07
9.02487e-07
8.51728e-07
8.02415e-07
7.54456e-07
7.07762e-07
6.62242e-07
6.17809e-07
5.74371e-07
5.31834e-07
4.90099e-07
4.49059e-07
4.08592e-07
3.68562e-07
3.28804e-07
2.89112e-07
2.49209e-07
2.08748e-07
1.67391e-07
1.24367e-07
7.53955e-08
1.29929e-08
-2.80687e-08
8.4713e-06
7.88336e-06
7.35362e-06
7.17474e-06
7.16352e-06
7.22617e-06
7.32685e-06
7.44293e-06
7.55829e-06
7.66307e-06
7.75203e-06
7.82314e-06
7.87638e-06
7.91298e-06
7.93491e-06
7.94437e-06
7.94268e-06
7.93043e-06
7.92076e-06
7.93421e-06
7.945e-06
7.90799e-06
7.83369e-06
7.72225e-06
7.57694e-06
7.43942e-06
7.31792e-06
7.195e-06
7.06419e-06
6.92458e-06
6.77648e-06
6.62069e-06
6.45824e-06
6.29027e-06
6.11793e-06
5.94233e-06
5.76453e-06
5.58553e-06
5.40624e-06
5.22749e-06
5.05e-06
4.87442e-06
4.70133e-06
4.53119e-06
4.36441e-06
4.20132e-06
4.04218e-06
3.88721e-06
3.73655e-06
3.5903e-06
3.44853e-06
3.31125e-06
3.17846e-06
3.05011e-06
2.92616e-06
2.80651e-06
2.69107e-06
2.57973e-06
2.47238e-06
2.36888e-06
2.2691e-06
2.1729e-06
2.08015e-06
1.99071e-06
1.90443e-06
1.82117e-06
1.74081e-06
1.66319e-06
1.5882e-06
1.51571e-06
1.44558e-06
1.3777e-06
1.31195e-06
1.24823e-06
1.18641e-06
1.12639e-06
1.06808e-06
1.01137e-06
9.56175e-07
9.0239e-07
8.49929e-07
7.98702e-07
7.48621e-07
6.99597e-07
6.51538e-07
6.04353e-07
5.57943e-07
5.12206e-07
4.67028e-07
4.22285e-07
3.77832e-07
3.33498e-07
2.89074e-07
2.44282e-07
1.98796e-07
1.524e-07
1.04537e-07
5.07626e-08
-1.63051e-08
-5.09706e-08
9.71683e-06
9.07377e-06
8.49777e-06
8.2302e-06
8.12333e-06
8.09857e-06
8.1217e-06
8.16877e-06
8.222e-06
8.27e-06
8.30644e-06
8.32862e-06
8.33634e-06
8.33096e-06
8.31477e-06
8.29039e-06
8.25979e-06
8.22401e-06
8.18846e-06
8.16059e-06
8.13304e-06
8.08402e-06
8.00727e-06
7.90327e-06
7.78039e-06
7.65683e-06
7.53636e-06
7.41356e-06
7.28478e-06
7.14878e-06
7.00543e-06
6.85513e-06
6.69857e-06
6.53659e-06
6.3701e-06
6.20007e-06
6.02742e-06
5.85305e-06
5.67781e-06
5.50247e-06
5.32776e-06
5.15431e-06
4.98267e-06
4.81335e-06
4.64676e-06
4.48325e-06
4.32313e-06
4.16661e-06
4.0139e-06
3.86511e-06
3.72036e-06
3.57969e-06
3.44312e-06
3.31067e-06
3.18228e-06
3.05793e-06
2.93753e-06
2.82102e-06
2.70828e-06
2.59923e-06
2.49375e-06
2.39173e-06
2.29304e-06
2.19756e-06
2.10517e-06
2.01574e-06
1.92916e-06
1.84528e-06
1.764e-06
1.68519e-06
1.60874e-06
1.53453e-06
1.46245e-06
1.39238e-06
1.32423e-06
1.25788e-06
1.19324e-06
1.13021e-06
1.06868e-06
1.00857e-06
9.49787e-07
8.92227e-07
8.35801e-07
7.80414e-07
7.2597e-07
6.7237e-07
6.19509e-07
5.67277e-07
5.15552e-07
4.64204e-07
4.1308e-07
3.62008e-07
3.10778e-07
2.59121e-07
2.06751e-07
1.53573e-07
9.92072e-08
3.88485e-08
-3.56904e-08
-6.88119e-08
1.07611e-05
1.01319e-05
9.57102e-06
9.27072e-06
9.11259e-06
9.03433e-06
9.00608e-06
9.00497e-06
9.0133e-06
9.01936e-06
9.01645e-06
9.00159e-06
8.97448e-06
8.93656e-06
8.89022e-06
8.8381e-06
8.78223e-06
8.7238e-06
8.66515e-06
8.60903e-06
8.55106e-06
8.48195e-06
8.39792e-06
8.29843e-06
8.18624e-06
8.06825e-06
7.94773e-06
7.82324e-06
7.69297e-06
7.55598e-06
7.41206e-06
7.26145e-06
7.10469e-06
6.94247e-06
6.77557e-06
6.60486e-06
6.43117e-06
6.25536e-06
6.07824e-06
5.90056e-06
5.72303e-06
5.54628e-06
5.37088e-06
5.19735e-06
5.02612e-06
4.85758e-06
4.69203e-06
4.52975e-06
4.37095e-06
4.21578e-06
4.06439e-06
3.91684e-06
3.77319e-06
3.63347e-06
3.49766e-06
3.36575e-06
3.2377e-06
3.11343e-06
2.99287e-06
2.87595e-06
2.76256e-06
2.6526e-06
2.54597e-06
2.44255e-06
2.34224e-06
2.2449e-06
2.15044e-06
2.05872e-06
1.96964e-06
1.88307e-06
1.79891e-06
1.71703e-06
1.63734e-06
1.55971e-06
1.48404e-06
1.41024e-06
1.33818e-06
1.26778e-06
1.19892e-06
1.13152e-06
1.06547e-06
1.00068e-06
9.37044e-07
8.74462e-07
8.12833e-07
7.52051e-07
6.92004e-07
6.32576e-07
5.7364e-07
5.15058e-07
4.56677e-07
3.98325e-07
3.39798e-07
2.80844e-07
2.21215e-07
1.60926e-07
9.97143e-08
3.22394e-08
-5.0743e-08
-8.39764e-08
1.16042e-05
1.10161e-05
1.04832e-05
1.01699e-05
9.98018e-06
9.86431e-06
9.79697e-06
9.75727e-06
9.72843e-06
9.69907e-06
9.66248e-06
9.61566e-06
9.55832e-06
9.49195e-06
9.41899e-06
9.34203e-06
9.26316e-06
9.18374e-06
9.10515e-06
9.02812e-06
8.95019e-06
8.86688e-06
8.7753e-06
8.67399e-06
8.56362e-06
8.4472e-06
8.32649e-06
8.20112e-06
8.07011e-06
7.93276e-06
7.78882e-06
7.63843e-06
7.48197e-06
7.32001e-06
7.15324e-06
6.9824e-06
6.80829e-06
6.63168e-06
6.45335e-06
6.27403e-06
6.09441e-06
5.91512e-06
5.73673e-06
5.55977e-06
5.38469e-06
5.21188e-06
5.04169e-06
4.87441e-06
4.71027e-06
4.54946e-06
4.39214e-06
4.23842e-06
4.08837e-06
3.94205e-06
3.79947e-06
3.66063e-06
3.52551e-06
3.39407e-06
3.26625e-06
3.14198e-06
3.0212e-06
2.9038e-06
2.7897e-06
2.67879e-06
2.57098e-06
2.46615e-06
2.3642e-06
2.26502e-06
2.16849e-06
2.07451e-06
1.98297e-06
1.89375e-06
1.80674e-06
1.72185e-06
1.63895e-06
1.55795e-06
1.47874e-06
1.40121e-06
1.32527e-06
1.25082e-06
1.17774e-06
1.10594e-06
1.03531e-06
9.65755e-07
8.97161e-07
8.29418e-07
7.62411e-07
6.96019e-07
6.30112e-07
5.64552e-07
4.99187e-07
4.33851e-07
3.68351e-07
3.02455e-07
2.35954e-07
1.68962e-07
1.01302e-07
2.70742e-08
-6.40451e-08
-9.77598e-08
1.23098e-05
1.17686e-05
1.12684e-05
1.09545e-05
1.07471e-05
1.0606e-05
1.05099e-05
1.04403e-05
1.03817e-05
1.03232e-05
1.02586e-05
1.01848e-05
1.01017e-05
1.00107e-05
9.91447e-06
9.81549e-06
9.71598e-06
9.61747e-06
9.52102e-06
9.42689e-06
9.33356e-06
9.23829e-06
9.13872e-06
9.03323e-06
8.92155e-06
8.80466e-06
8.68319e-06
8.55691e-06
8.42519e-06
8.28749e-06
8.14352e-06
7.99333e-06
7.83719e-06
7.67555e-06
7.50899e-06
7.33818e-06
7.16384e-06
6.98669e-06
6.80746e-06
6.62686e-06
6.44555e-06
6.26415e-06
6.08325e-06
5.90335e-06
5.72493e-06
5.54841e-06
5.37413e-06
5.2024e-06
5.03349e-06
4.86762e-06
4.70494e-06
4.54561e-06
4.38972e-06
4.23734e-06
4.08852e-06
3.94328e-06
3.80161e-06
3.66349e-06
3.52889e-06
3.39776e-06
3.27003e-06
3.14563e-06
3.02448e-06
2.9065e-06
2.79158e-06
2.67964e-06
2.57058e-06
2.46429e-06
2.36066e-06
2.25959e-06
2.16098e-06
2.06472e-06
1.9707e-06
1.87881e-06
1.78895e-06
1.70102e-06
1.61491e-06
1.53051e-06
1.44772e-06
1.36644e-06
1.28656e-06
1.20798e-06
1.13059e-06
1.05428e-06
9.78943e-07
9.04464e-07
8.30725e-07
7.57602e-07
6.84967e-07
6.12681e-07
5.40598e-07
4.68559e-07
3.96386e-07
3.23865e-07
2.50821e-07
1.77455e-07
1.03653e-07
2.29589e-08
-7.60223e-08
-1.10529e-07
1.29208e-05
1.24246e-05
1.19582e-05
1.16513e-05
1.14359e-05
1.1279e-05
1.11628e-05
1.10709e-05
1.09892e-05
1.09078e-05
1.08204e-05
1.07245e-05
1.06199e-05
1.05082e-05
1.0392e-05
1.02739e-05
1.01563e-05
1.00408e-05
9.92855e-06
9.81964e-06
9.71311e-06
9.6071e-06
9.4996e-06
9.38899e-06
9.27441e-06
9.15568e-06
9.03271e-06
8.90511e-06
8.77233e-06
8.63389e-06
8.48949e-06
8.33909e-06
8.18287e-06
8.02118e-06
7.85452e-06
7.68346e-06
7.50866e-06
7.3308e-06
7.15056e-06
6.9686e-06
6.78558e-06
6.60211e-06
6.41875e-06
6.23604e-06
6.05443e-06
5.87435e-06
5.69618e-06
5.52024e-06
5.3468e-06
5.17611e-06
5.00835e-06
4.84368e-06
4.68224e-06
4.5241e-06
4.36933e-06
4.21797e-06
4.07005e-06
3.92555e-06
3.78445e-06
3.64673e-06
3.51234e-06
3.38121e-06
3.25328e-06
3.12848e-06
3.00672e-06
2.88791e-06
2.77197e-06
2.65879e-06
2.54829e-06
2.44035e-06
2.33488e-06
2.23178e-06
2.13093e-06
2.03225e-06
1.93562e-06
1.84093e-06
1.74809e-06
1.65699e-06
1.56752e-06
1.47958e-06
1.39307e-06
1.30786e-06
1.22387e-06
1.14097e-06
1.05905e-06
9.78005e-07
8.97705e-07
8.18029e-07
7.3885e-07
6.60033e-07
5.81436e-07
5.0291e-07
4.24289e-07
3.45376e-07
2.66024e-07
1.86506e-07
1.06754e-07
1.97612e-08
-8.69229e-08
-1.22508e-07
1.34602e-05
1.30047e-05
1.25705e-05
1.22744e-05
1.20574e-05
1.18914e-05
1.17616e-05
1.16535e-05
1.15544e-05
1.1455e-05
1.13496e-05
1.12357e-05
1.11135e-05
1.09845e-05
1.08514e-05
1.0717e-05
1.05838e-05
1.04535e-05
1.03274e-05
1.02056e-05
1.00875e-05
9.97172e-06
9.85654e-06
9.74033e-06
9.62188e-06
9.50041e-06
9.37529e-06
9.24593e-06
9.11174e-06
8.9722e-06
8.827e-06
8.67602e-06
8.51937e-06
8.35729e-06
8.19022e-06
8.01866e-06
7.84319e-06
7.66445e-06
7.48306e-06
7.29968e-06
7.11492e-06
6.92938e-06
6.74363e-06
6.55817e-06
6.37349e-06
6.19001e-06
6.00813e-06
5.82816e-06
5.65041e-06
5.47513e-06
5.30254e-06
5.13279e-06
4.96605e-06
4.80242e-06
4.64198e-06
4.48479e-06
4.33088e-06
4.18027e-06
4.03296e-06
3.88892e-06
3.74813e-06
3.61054e-06
3.47609e-06
3.34472e-06
3.21635e-06
3.09092e-06
2.96833e-06
2.84849e-06
2.73133e-06
2.61673e-06
2.50461e-06
2.39487e-06
2.2874e-06
2.18211e-06
2.07888e-06
1.97763e-06
1.87824e-06
1.7806e-06
1.68463e-06
1.59019e-06
1.4972e-06
1.40555e-06
1.31511e-06
1.22578e-06
1.13745e-06
1.05001e-06
9.63318e-07
8.77267e-07
7.91727e-07
7.06567e-07
6.21651e-07
5.3684e-07
4.51978e-07
3.6688e-07
2.81423e-07
1.9594e-07
1.10397e-07
1.72409e-08
-9.70105e-08
-1.33875e-07
1.39423e-05
1.35226e-05
1.31179e-05
1.28344e-05
1.26196e-05
1.24492e-05
1.23107e-05
1.21911e-05
1.2079e-05
1.19659e-05
1.18463e-05
1.17182e-05
1.15817e-05
1.14385e-05
1.12913e-05
1.11432e-05
1.09966e-05
1.08535e-05
1.07153e-05
1.05823e-05
1.0454e-05
1.03294e-05
1.02068e-05
1.00849e-05
9.96206e-06
9.83724e-06
9.7095e-06
9.57802e-06
9.44209e-06
9.30116e-06
9.15486e-06
9.003e-06
8.84562e-06
8.6829e-06
8.51519e-06
8.34292e-06
8.16662e-06
7.98687e-06
7.80426e-06
7.61941e-06
7.43292e-06
7.24535e-06
7.05727e-06
6.86918e-06
6.68157e-06
6.49486e-06
6.30944e-06
6.12566e-06
5.94382e-06
5.7642e-06
5.58702e-06
5.41246e-06
5.2407e-06
5.07185e-06
4.90602e-06
4.74327e-06
4.58367e-06
4.42724e-06
4.27399e-06
4.12391e-06
3.977e-06
3.83321e-06
3.6925e-06
3.55482e-06
3.42011e-06
3.28829e-06
3.1593e-06
3.03304e-06
2.90945e-06
2.78842e-06
2.66987e-06
2.5537e-06
2.43981e-06
2.32811e-06
2.21849e-06
2.11085e-06
2.0051e-06
1.90112e-06
1.79881e-06
1.69807e-06
1.59878e-06
1.50084e-06
1.40414e-06
1.30856e-06
1.21399e-06
1.12032e-06
1.02742e-06
9.35181e-07
8.43467e-07
7.52155e-07
6.61116e-07
5.70215e-07
4.79309e-07
3.88223e-07
2.96849e-07
2.05573e-07
1.14385e-07
1.51957e-08
-1.06487e-07
-1.44762e-07
1.43773e-05
1.39885e-05
1.36105e-05
1.33401e-05
1.31298e-05
1.29582e-05
1.28145e-05
1.26872e-05
1.25658e-05
1.24423e-05
1.2312e-05
1.21727e-05
1.20248e-05
1.18701e-05
1.17114e-05
1.15517e-05
1.13938e-05
1.12399e-05
1.10912e-05
1.09484e-05
1.0811e-05
1.06784e-05
1.05489e-05
1.04213e-05
1.02939e-05
1.01654e-05
1.00347e-05
9.90076e-06
9.76284e-06
9.62026e-06
9.47261e-06
9.31963e-06
9.16129e-06
8.9977e-06
8.82915e-06
8.656e-06
8.47874e-06
8.29789e-06
8.114e-06
7.92766e-06
7.73944e-06
7.54989e-06
7.35956e-06
7.16895e-06
6.97854e-06
6.78875e-06
6.59998e-06
6.4126e-06
6.2269e-06
6.04317e-06
5.86164e-06
5.68254e-06
5.50601e-06
5.33222e-06
5.16127e-06
4.99325e-06
4.82823e-06
4.66625e-06
4.50735e-06
4.35151e-06
4.19875e-06
4.04903e-06
3.90233e-06
3.7586e-06
3.61779e-06
3.47985e-06
3.3447e-06
3.21226e-06
3.08247e-06
2.95523e-06
2.83047e-06
2.70809e-06
2.58799e-06
2.47009e-06
2.35428e-06
2.24046e-06
2.12853e-06
2.0184e-06
1.90994e-06
1.80307e-06
1.69767e-06
1.59363e-06
1.49084e-06
1.38919e-06
1.28857e-06
1.18886e-06
1.08994e-06
9.91684e-07
8.93983e-07
7.96708e-07
6.99735e-07
6.02937e-07
5.06177e-07
4.09287e-07
3.12172e-07
2.15265e-07
1.18574e-07
1.34798e-08
-1.15495e-07
-1.55259e-07
1.47724e-05
1.44103e-05
1.40563e-05
1.37988e-05
1.35944e-05
1.34238e-05
1.32775e-05
1.31452e-05
1.30173e-05
1.28863e-05
1.27479e-05
1.26001e-05
1.24433e-05
1.22795e-05
1.21115e-05
1.19424e-05
1.17751e-05
1.16119e-05
1.14542e-05
1.13028e-05
1.11575e-05
1.10175e-05
1.08817e-05
1.07485e-05
1.06165e-05
1.04842e-05
1.03503e-05
1.02138e-05
1.00737e-05
9.92924e-06
9.78003e-06
9.62573e-06
9.46623e-06
9.3016e-06
9.13204e-06
8.95788e-06
8.77955e-06
8.59751e-06
8.4123e-06
8.22445e-06
8.03452e-06
7.84304e-06
7.65054e-06
7.45751e-06
7.26443e-06
7.07172e-06
6.87978e-06
6.68898e-06
6.49963e-06
6.31201e-06
6.12639e-06
5.94297e-06
5.76195e-06
5.58348e-06
5.40768e-06
5.23465e-06
5.06449e-06
4.89724e-06
4.73294e-06
4.57162e-06
4.41327e-06
4.25789e-06
4.10546e-06
3.95595e-06
3.8093e-06
3.66547e-06
3.5244e-06
3.38602e-06
3.25027e-06
3.11706e-06
2.9863e-06
2.85793e-06
2.73183e-06
2.60794e-06
2.48614e-06
2.36634e-06
2.24844e-06
2.13234e-06
2.01793e-06
1.90512e-06
1.79379e-06
1.68383e-06
1.57514e-06
1.46761e-06
1.36111e-06
1.25554e-06
1.15078e-06
1.04671e-06
9.43204e-07
8.40154e-07
7.37434e-07
6.34924e-07
5.32493e-07
4.29977e-07
3.27292e-07
2.2491e-07
1.22853e-07
1.19841e-08
-1.24138e-07
-1.65433e-07
1.51328e-05
1.4794e-05
1.44615e-05
1.42165e-05
1.40186e-05
1.38505e-05
1.37035e-05
1.35683e-05
1.3436e-05
1.32998e-05
1.31556e-05
1.30015e-05
1.2838e-05
1.26671e-05
1.24918e-05
1.23151e-05
1.214e-05
1.1969e-05
1.18037e-05
1.16448e-05
1.14924e-05
1.1346e-05
1.12042e-05
1.10659e-05
1.09294e-05
1.07932e-05
1.06561e-05
1.05167e-05
1.03743e-05
1.02279e-05
1.00769e-05
9.92115e-06
9.76034e-06
9.59452e-06
9.42383e-06
9.24855e-06
9.06905e-06
8.88577e-06
8.6992e-06
8.50984e-06
8.31822e-06
8.12486e-06
7.93027e-06
7.73493e-06
7.53931e-06
7.34383e-06
7.14889e-06
6.95485e-06
6.76205e-06
6.57077e-06
6.38127e-06
6.19379e-06
6.00851e-06
5.82561e-06
5.64521e-06
5.46745e-06
5.2924e-06
5.12015e-06
4.95073e-06
4.78418e-06
4.62051e-06
4.45973e-06
4.30183e-06
4.14677e-06
3.99454e-06
3.84507e-06
3.69833e-06
3.55424e-06
3.41276e-06
3.27379e-06
3.13727e-06
3.00312e-06
2.87125e-06
2.74157e-06
2.61398e-06
2.4884e-06
2.36473e-06
2.24286e-06
2.1227e-06
2.00413e-06
1.88706e-06
1.77138e-06
1.65697e-06
1.54374e-06
1.43155e-06
1.32031e-06
1.20989e-06
1.10019e-06
9.91068e-07
8.82427e-07
7.74145e-07
6.66106e-07
5.58182e-07
4.50213e-07
3.42122e-07
2.34419e-07
1.27135e-07
1.06255e-08
-1.32496e-07
-1.75331e-07
1.54628e-05
1.51445e-05
1.48312e-05
1.4598e-05
1.4407e-05
1.42422e-05
1.40959e-05
1.39594e-05
1.38246e-05
1.36849e-05
1.35366e-05
1.3378e-05
1.32096e-05
1.30335e-05
1.28524e-05
1.26697e-05
1.24884e-05
1.23109e-05
1.21391e-05
1.19738e-05
1.18153e-05
1.1663e-05
1.15159e-05
1.13727e-05
1.12318e-05
1.10919e-05
1.09515e-05
1.08093e-05
1.06644e-05
1.05159e-05
1.03632e-05
1.02058e-05
1.00436e-05
9.87645e-06
9.70453e-06
9.52804e-06
9.34732e-06
9.16276e-06
8.9748e-06
8.78394e-06
8.59067e-06
8.39548e-06
8.19887e-06
8.00132e-06
7.80328e-06
7.60517e-06
7.40739e-06
7.21031e-06
7.01424e-06
6.81951e-06
6.62636e-06
6.43503e-06
6.24573e-06
6.05864e-06
5.87391e-06
5.69165e-06
5.51198e-06
5.33497e-06
5.16068e-06
4.98916e-06
4.82043e-06
4.65451e-06
4.49138e-06
4.33104e-06
4.17346e-06
4.0186e-06
3.86642e-06
3.71686e-06
3.56987e-06
3.42538e-06
3.28332e-06
3.14361e-06
3.00617e-06
2.87091e-06
2.73775e-06
2.6066e-06
2.47735e-06
2.34991e-06
2.22418e-06
2.10006e-06
1.97744e-06
1.85622e-06
1.73629e-06
1.61753e-06
1.49985e-06
1.38312e-06
1.26723e-06
1.15207e-06
1.03752e-06
9.23474e-07
8.09811e-07
6.96422e-07
5.83181e-07
4.69929e-07
3.56594e-07
2.43722e-07
1.31353e-07
9.34071e-09
-1.40623e-07
-1.84987e-07
1.57657e-05
1.54657e-05
1.51698e-05
1.49476e-05
1.47636e-05
1.46027e-05
1.4458e-05
1.43214e-05
1.41852e-05
1.40436e-05
1.38927e-05
1.37311e-05
1.35593e-05
1.33792e-05
1.31939e-05
1.30065e-05
1.28202e-05
1.26375e-05
1.24603e-05
1.22895e-05
1.21256e-05
1.19682e-05
1.18162e-05
1.16685e-05
1.15235e-05
1.138e-05
1.12364e-05
1.10914e-05
1.0944e-05
1.07934e-05
1.06387e-05
1.04797e-05
1.03159e-05
1.01474e-05
9.97421e-06
9.79646e-06
9.61447e-06
9.4286e-06
9.23926e-06
9.0469e-06
8.85201e-06
8.65505e-06
8.45651e-06
8.25685e-06
8.05651e-06
7.85591e-06
7.65544e-06
7.45547e-06
7.25634e-06
7.05834e-06
6.86174e-06
6.66679e-06
6.4737e-06
6.28265e-06
6.09381e-06
5.90731e-06
5.72325e-06
5.54174e-06
5.36284e-06
5.18659e-06
5.01305e-06
4.84222e-06
4.67412e-06
4.50873e-06
4.34604e-06
4.18603e-06
4.02864e-06
3.87384e-06
3.72158e-06
3.57179e-06
3.4244e-06
3.27935e-06
3.13656e-06
2.99594e-06
2.85741e-06
2.72087e-06
2.58625e-06
2.45344e-06
2.32234e-06
2.19285e-06
2.06488e-06
1.93831e-06
1.81303e-06
1.68895e-06
1.56595e-06
1.44392e-06
1.32275e-06
1.20232e-06
1.08253e-06
9.63252e-07
8.44388e-07
7.25824e-07
6.07438e-07
4.89072e-07
3.70655e-07
2.52767e-07
1.35454e-07
8.08255e-09
-1.48563e-07
-1.94426e-07
1.60444e-05
1.57608e-05
1.54808e-05
1.52688e-05
1.50916e-05
1.4935e-05
1.47925e-05
1.46567e-05
1.45202e-05
1.43776e-05
1.42253e-05
1.40619e-05
1.38879e-05
1.37052e-05
1.35169e-05
1.3326e-05
1.31357e-05
1.29488e-05
1.27671e-05
1.25918e-05
1.24232e-05
1.22612e-05
1.21048e-05
1.1953e-05
1.18043e-05
1.16573e-05
1.15105e-05
1.13628e-05
1.1213e-05
1.10601e-05
1.09036e-05
1.07428e-05
1.05775e-05
1.04076e-05
1.0233e-05
1.0054e-05
9.87066e-06
9.68346e-06
9.49274e-06
9.29891e-06
9.10244e-06
8.90377e-06
8.70338e-06
8.5017e-06
8.29917e-06
8.09621e-06
7.89321e-06
7.69052e-06
7.48849e-06
7.28741e-06
7.08756e-06
6.8892e-06
6.69253e-06
6.49775e-06
6.30503e-06
6.11451e-06
5.92631e-06
5.74052e-06
5.55724e-06
5.37652e-06
5.19839e-06
5.0229e-06
4.85006e-06
4.67987e-06
4.51231e-06
4.34736e-06
4.18501e-06
4.02519e-06
3.86788e-06
3.713e-06
3.56051e-06
3.41033e-06
3.26239e-06
3.11662e-06
2.97292e-06
2.83121e-06
2.69141e-06
2.55342e-06
2.41715e-06
2.28249e-06
2.14935e-06
2.01762e-06
1.8872e-06
1.75798e-06
1.62985e-06
1.5027e-06
1.37642e-06
1.25091e-06
1.12605e-06
1.00173e-06
8.77838e-07
7.54275e-07
6.30916e-07
5.076e-07
3.84262e-07
2.61512e-07
1.394e-07
6.81651e-09
-1.56343e-07
-2.03664e-07
1.63015e-05
1.60327e-05
1.57671e-05
1.55647e-05
1.5394e-05
1.52419e-05
1.51021e-05
1.49676e-05
1.48317e-05
1.4689e-05
1.45362e-05
1.43719e-05
1.41966e-05
1.40123e-05
1.38219e-05
1.36285e-05
1.34353e-05
1.32451e-05
1.30597e-05
1.28805e-05
1.2708e-05
1.2542e-05
1.23817e-05
1.22261e-05
1.20739e-05
1.19236e-05
1.17739e-05
1.16235e-05
1.14713e-05
1.13163e-05
1.11578e-05
1.09953e-05
1.08284e-05
1.0657e-05
1.04811e-05
1.03007e-05
1.01161e-05
9.92755e-06
9.73545e-06
9.54019e-06
9.34218e-06
9.14186e-06
8.93969e-06
8.73609e-06
8.53149e-06
8.3263e-06
8.1209e-06
7.91564e-06
7.71088e-06
7.5069e-06
7.30399e-06
7.10241e-06
6.90236e-06
6.70406e-06
6.50768e-06
6.31336e-06
6.12124e-06
5.93141e-06
5.74398e-06
5.559e-06
5.37654e-06
5.19661e-06
5.01926e-06
4.84449e-06
4.67228e-06
4.50264e-06
4.33553e-06
4.17092e-06
4.00878e-06
3.84904e-06
3.69165e-06
3.53655e-06
3.38368e-06
3.23295e-06
3.08429e-06
2.93761e-06
2.79283e-06
2.64986e-06
2.5086e-06
2.36896e-06
2.23085e-06
2.09414e-06
1.95876e-06
1.82458e-06
1.69151e-06
1.55943e-06
1.42823e-06
1.29781e-06
1.16806e-06
1.03887e-06
9.10137e-07
7.81747e-07
6.53583e-07
5.25484e-07
3.97385e-07
2.69926e-07
1.43164e-07
5.51813e-09
-1.63984e-07
-2.12709e-07
1.65389e-05
1.62837e-05
1.60312e-05
1.58377e-05
1.56734e-05
1.55258e-05
1.53889e-05
1.52563e-05
1.51214e-05
1.49793e-05
1.48267e-05
1.46623e-05
1.44865e-05
1.43014e-05
1.41097e-05
1.39147e-05
1.37193e-05
1.35265e-05
1.33382e-05
1.31559e-05
1.298e-05
1.28105e-05
1.26467e-05
1.24878e-05
1.23323e-05
1.2179e-05
1.20265e-05
1.18735e-05
1.17189e-05
1.15618e-05
1.14014e-05
1.12372e-05
1.10687e-05
1.08959e-05
1.07185e-05
1.05368e-05
1.03509e-05
1.01611e-05
9.96763e-06
9.77096e-06
9.57146e-06
9.36956e-06
9.16569e-06
8.96026e-06
8.75369e-06
8.54638e-06
8.33872e-06
8.13105e-06
7.92371e-06
7.717e-06
7.51121e-06
7.30658e-06
7.10336e-06
6.90174e-06
6.7019e-06
6.50399e-06
6.30816e-06
6.11452e-06
5.92315e-06
5.73415e-06
5.54756e-06
5.36343e-06
5.18179e-06
5.00265e-06
4.82603e-06
4.6519e-06
4.48026e-06
4.31107e-06
4.1443e-06
3.97991e-06
3.81784e-06
3.65803e-06
3.50042e-06
3.34494e-06
3.19152e-06
3.04007e-06
2.89051e-06
2.74275e-06
2.5967e-06
2.45227e-06
2.30936e-06
2.16788e-06
2.02771e-06
1.88877e-06
1.75093e-06
1.6141e-06
1.47816e-06
1.34302e-06
1.20856e-06
1.07468e-06
9.41265e-07
8.08219e-07
6.75419e-07
5.42701e-07
4.10001e-07
2.77988e-07
1.46725e-07
4.17093e-09
-1.71496e-07
-2.21567e-07
1.67587e-05
1.65159e-05
1.62754e-05
1.60902e-05
1.59319e-05
1.57887e-05
1.5655e-05
1.55245e-05
1.53912e-05
1.52501e-05
1.50982e-05
1.49342e-05
1.47587e-05
1.45734e-05
1.43811e-05
1.4185e-05
1.39883e-05
1.37935e-05
1.3603e-05
1.3418e-05
1.32392e-05
1.30667e-05
1.29e-05
1.2738e-05
1.25796e-05
1.24235e-05
1.22683e-05
1.21129e-05
1.19561e-05
1.17969e-05
1.16347e-05
1.14687e-05
1.12987e-05
1.11244e-05
1.09457e-05
1.07626e-05
1.05754e-05
1.03843e-05
1.01895e-05
9.99148e-06
9.79054e-06
9.58712e-06
9.38161e-06
9.17444e-06
8.96601e-06
8.75671e-06
8.5469e-06
8.33695e-06
8.12719e-06
7.91791e-06
7.7094e-06
7.50192e-06
7.2957e-06
7.09095e-06
6.88785e-06
6.68656e-06
6.48722e-06
6.28996e-06
6.09488e-06
5.90205e-06
5.71155e-06
5.52343e-06
5.33772e-06
5.15444e-06
4.9736e-06
4.79521e-06
4.61925e-06
4.44569e-06
4.27451e-06
4.10567e-06
3.93912e-06
3.7748e-06
3.61266e-06
3.45263e-06
3.29464e-06
3.13861e-06
2.98446e-06
2.8321e-06
2.68145e-06
2.53242e-06
2.38491e-06
2.23883e-06
2.09407e-06
1.95053e-06
1.80811e-06
1.66671e-06
1.52622e-06
1.38653e-06
1.24753e-06
1.10913e-06
9.71212e-07
8.33679e-07
6.96409e-07
5.59235e-07
4.22095e-07
2.85683e-07
1.5007e-07
2.76474e-09
-1.78886e-07
-2.30239e-07
1.69624e-05
1.6731e-05
1.65016e-05
1.63241e-05
1.61715e-05
1.60326e-05
1.59021e-05
1.5774e-05
1.56424e-05
1.55027e-05
1.53519e-05
1.51889e-05
1.5014e-05
1.48291e-05
1.46368e-05
1.44403e-05
1.42426e-05
1.40465e-05
1.38542e-05
1.36671e-05
1.3486e-05
1.3311e-05
1.31415e-05
1.29768e-05
1.28158e-05
1.26571e-05
1.24995e-05
1.23418e-05
1.21828e-05
1.20217e-05
1.18576e-05
1.169e-05
1.15184e-05
1.13427e-05
1.11626e-05
1.09783e-05
1.07898e-05
1.05974e-05
1.04014e-05
1.0202e-05
9.99967e-06
9.79478e-06
9.58773e-06
9.37891e-06
9.16871e-06
8.95751e-06
8.74569e-06
8.53359e-06
8.32154e-06
8.10984e-06
7.89878e-06
7.68861e-06
7.47957e-06
7.27186e-06
7.06569e-06
6.8612e-06
6.65856e-06
6.45789e-06
6.25928e-06
6.06284e-06
5.86864e-06
5.67673e-06
5.48715e-06
5.29993e-06
5.11509e-06
4.93264e-06
4.75256e-06
4.57484e-06
4.39945e-06
4.22636e-06
4.05553e-06
3.8869e-06
3.72043e-06
3.55604e-06
3.39368e-06
3.23326e-06
3.07471e-06
2.91794e-06
2.76288e-06
2.60943e-06
2.45751e-06
2.307e-06
2.15783e-06
2.00988e-06
1.86307e-06
1.71727e-06
1.57239e-06
1.42833e-06
1.28497e-06
1.14222e-06
9.99973e-07
8.58121e-07
7.16546e-07
5.75079e-07
4.33658e-07
2.93004e-07
1.53192e-07
1.29438e-09
-1.86156e-07
-2.38724e-07
1.71516e-05
1.69306e-05
1.67113e-05
1.65409e-05
1.63938e-05
1.62591e-05
1.61318e-05
1.60061e-05
1.58765e-05
1.57385e-05
1.55891e-05
1.54273e-05
1.52535e-05
1.50693e-05
1.48775e-05
1.46809e-05
1.44828e-05
1.42859e-05
1.40923e-05
1.39036e-05
1.37205e-05
1.35433e-05
1.33716e-05
1.32045e-05
1.3041e-05
1.288e-05
1.27201e-05
1.25603e-05
1.23993e-05
1.22363e-05
1.20705e-05
1.19013e-05
1.17282e-05
1.1551e-05
1.13696e-05
1.1184e-05
1.09943e-05
1.08007e-05
1.06034e-05
1.04027e-05
1.01991e-05
9.99281e-06
9.78428e-06
9.57389e-06
9.36202e-06
9.14904e-06
8.93532e-06
8.7212e-06
8.50699e-06
8.29302e-06
8.07955e-06
7.86685e-06
7.65515e-06
7.44467e-06
7.23559e-06
7.0281e-06
6.82234e-06
6.61843e-06
6.41651e-06
6.21665e-06
6.01893e-06
5.82343e-06
5.63018e-06
5.43923e-06
5.25059e-06
5.06427e-06
4.88027e-06
4.69859e-06
4.51919e-06
4.34205e-06
4.16713e-06
3.99439e-06
3.82377e-06
3.65522e-06
3.48867e-06
3.32405e-06
3.16129e-06
3.0003e-06
2.84101e-06
2.68333e-06
2.52716e-06
2.37243e-06
2.21902e-06
2.06684e-06
1.9158e-06
1.76579e-06
1.6167e-06
1.46843e-06
1.32089e-06
1.17396e-06
1.02755e-06
8.81543e-07
7.35827e-07
5.90229e-07
4.44686e-07
2.99947e-07
1.56089e-07
-2.41318e-10
-1.93303e-07
-2.47017e-07
1.73273e-05
1.7116e-05
1.69061e-05
1.67423e-05
1.66002e-05
1.64696e-05
1.63454e-05
1.62223e-05
1.60947e-05
1.59585e-05
1.58109e-05
1.56506e-05
1.5478e-05
1.5295e-05
1.51038e-05
1.49077e-05
1.47095e-05
1.45121e-05
1.43177e-05
1.41277e-05
1.39431e-05
1.3764e-05
1.35903e-05
1.34211e-05
1.32555e-05
1.30923e-05
1.29304e-05
1.27685e-05
1.26057e-05
1.24409e-05
1.22734e-05
1.21027e-05
1.19282e-05
1.17497e-05
1.1567e-05
1.13801e-05
1.11892e-05
1.09944e-05
1.07959e-05
1.0594e-05
1.03891e-05
1.01815e-05
9.97154e-06
9.75966e-06
9.54621e-06
9.33155e-06
9.11603e-06
8.9e-06
8.68378e-06
8.46766e-06
8.25193e-06
8.03684e-06
7.82264e-06
7.60955e-06
7.39774e-06
7.18741e-06
6.9787e-06
6.77175e-06
6.56668e-06
6.36359e-06
6.16256e-06
5.96366e-06
5.76693e-06
5.57243e-06
5.38018e-06
5.19019e-06
5.00247e-06
4.81701e-06
4.63379e-06
4.4528e-06
4.27399e-06
4.09732e-06
3.92275e-06
3.75022e-06
3.57967e-06
3.41103e-06
3.24424e-06
3.07921e-06
2.91588e-06
2.75414e-06
2.59392e-06
2.43512e-06
2.27765e-06
2.12142e-06
1.96633e-06
1.81227e-06
1.65915e-06
1.50686e-06
1.35529e-06
1.20435e-06
1.05394e-06
9.03948e-07
7.54255e-07
6.04686e-07
4.5518e-07
3.06511e-07
1.5876e-07
-1.84039e-09
-2.00323e-07
-2.55114e-07
1.74909e-05
1.72884e-05
1.70871e-05
1.69295e-05
1.67922e-05
1.66653e-05
1.65443e-05
1.64236e-05
1.62982e-05
1.6164e-05
1.60181e-05
1.58595e-05
1.56885e-05
1.55067e-05
1.53166e-05
1.51211e-05
1.49233e-05
1.47257e-05
1.45307e-05
1.43398e-05
1.4154e-05
1.39734e-05
1.3798e-05
1.3627e-05
1.34594e-05
1.32943e-05
1.31305e-05
1.29668e-05
1.28022e-05
1.26358e-05
1.24667e-05
1.22945e-05
1.21186e-05
1.19388e-05
1.17549e-05
1.15668e-05
1.13747e-05
1.11788e-05
1.09791e-05
1.0776e-05
1.05699e-05
1.0361e-05
1.01498e-05
9.93647e-06
9.72152e-06
9.50527e-06
9.28807e-06
9.07024e-06
8.85211e-06
8.63398e-06
8.41613e-06
8.1988e-06
7.98225e-06
7.76669e-06
7.55232e-06
7.33931e-06
7.12783e-06
6.91801e-06
6.70997e-06
6.50382e-06
6.29965e-06
6.09753e-06
5.89752e-06
5.69966e-06
5.50398e-06
5.31051e-06
5.11925e-06
4.9302e-06
4.74335e-06
4.55868e-06
4.37616e-06
4.19575e-06
4.01741e-06
3.84109e-06
3.66672e-06
3.49425e-06
3.32361e-06
3.15472e-06
2.98751e-06
2.8219e-06
2.6578e-06
2.49512e-06
2.33377e-06
2.17365e-06
2.01468e-06
1.85675e-06
1.69976e-06
1.54361e-06
1.38819e-06
1.23341e-06
1.07916e-06
9.25344e-07
7.71834e-07
6.18455e-07
4.65144e-07
3.127e-07
1.61211e-07
-3.49834e-09
-2.07209e-07
-2.63008e-07
1.76432e-05
1.74489e-05
1.72555e-05
1.71036e-05
1.69707e-05
1.68475e-05
1.67294e-05
1.66113e-05
1.64881e-05
1.63558e-05
1.62118e-05
1.6055e-05
1.58856e-05
1.57053e-05
1.55165e-05
1.53219e-05
1.51245e-05
1.49271e-05
1.47319e-05
1.45404e-05
1.43535e-05
1.41718e-05
1.39949e-05
1.38223e-05
1.36531e-05
1.34862e-05
1.33207e-05
1.31553e-05
1.2989e-05
1.2821e-05
1.26505e-05
1.24769e-05
1.22997e-05
1.21186e-05
1.19335e-05
1.17443e-05
1.15511e-05
1.13541e-05
1.11533e-05
1.09491e-05
1.07418e-05
1.05317e-05
1.03192e-05
1.01046e-05
9.88821e-06
9.67046e-06
9.45167e-06
9.23216e-06
9.01224e-06
8.79222e-06
8.57236e-06
8.35293e-06
8.13417e-06
7.91629e-06
7.6995e-06
7.48398e-06
7.26988e-06
7.05735e-06
6.84652e-06
6.63748e-06
6.43035e-06
6.22518e-06
6.02206e-06
5.82101e-06
5.62209e-06
5.42532e-06
5.2307e-06
5.03824e-06
4.84794e-06
4.65978e-06
4.47373e-06
4.28976e-06
4.10783e-06
3.92789e-06
3.74988e-06
3.57376e-06
3.39944e-06
3.22687e-06
3.05597e-06
2.88665e-06
2.71884e-06
2.55245e-06
2.38738e-06
2.22356e-06
2.06088e-06
1.89924e-06
1.73855e-06
1.5787e-06
1.4196e-06
1.26114e-06
1.10322e-06
9.4574e-07
7.88574e-07
6.31543e-07
4.74585e-07
3.18522e-07
1.63446e-07
-5.20871e-09
-2.13954e-07
-2.70692e-07
1.77851e-05
1.75984e-05
1.74123e-05
1.72656e-05
1.7137e-05
1.70172e-05
1.69019e-05
1.67862e-05
1.66651e-05
1.65349e-05
1.63928e-05
1.62378e-05
1.60703e-05
1.58915e-05
1.5704e-05
1.55105e-05
1.53139e-05
1.51169e-05
1.49216e-05
1.47297e-05
1.45421e-05
1.43594e-05
1.41813e-05
1.40073e-05
1.38366e-05
1.36683e-05
1.35011e-05
1.33342e-05
1.31664e-05
1.2997e-05
1.28251e-05
1.26501e-05
1.24717e-05
1.22894e-05
1.21032e-05
1.19129e-05
1.17187e-05
1.15205e-05
1.13187e-05
1.11135e-05
1.09051e-05
1.06938e-05
1.04801e-05
1.02642e-05
1.00465e-05
9.82737e-06
9.60708e-06
9.38598e-06
9.16438e-06
8.94258e-06
8.72084e-06
8.49944e-06
8.2786e-06
8.05855e-06
7.83948e-06
7.62159e-06
7.40503e-06
7.18995e-06
6.97647e-06
6.76472e-06
6.55478e-06
6.34675e-06