/*--------------------------------*- C++ -*----------------------------------*\
  =========                 |
  \\      /  F ield         | OpenFOAM: The Open Source CFD Toolbox
   \\    /   O peration     | Website:  https://openfoam.org
    \\  /    A nd           | Version:  11
     \\/     M anipulation  |
\*---------------------------------------------------------------------------*/
FoamFile
{
    format      ascii;
    class       volScalarField;
    location    "468";
    object      nut;
}
// * * * * * * * * * * * * * * * * * * * * * * * * * * * * * * * * * * * * * //

dimensions      [0 2 -1 0 0 0 0];

internalField   nonuniform List<scalar> 
10000
(
0.000977117
0.000936705
0.000899647
0.000865621
0.00083434
0.000805547
0.000779008
0.000754516
0.000731882
0.000710937
0.00069153
0.000673523
0.000656792
0.000641226
0.000626724
0.000613195
0.000600557
0.000588736
0.000577663
0.000567278
0.000557525
0.000548354
0.000539719
0.000531578
0.000523894
0.000516631
0.000509758
0.000503246
0.000497069
0.000491202
0.000485623
0.000480313
0.000475252
0.000470423
0.000465811
0.0004614
0.000457178
0.000453133
0.000449252
0.000445526
0.000441946
0.000438502
0.000435186
0.000431991
0.000428911
0.00042594
0.000423072
0.000420303
0.000417629
0.000415045
0.00041255
0.000410141
0.000407817
0.000405576
0.000403419
0.000401346
0.000399358
0.000397459
0.00039565
0.000393936
0.000392323
0.000390815
0.000389421
0.000388148
0.000387006
0.000386006
0.000385158
0.000384477
0.000383976
0.00038367
0.000383575
0.000383707
0.000384083
0.00038472
0.000385635
0.000386844
0.000388363
0.000390205
0.000392382
0.000394902
0.000397772
0.000400992
0.000404561
0.000408468
0.000412701
0.00041724
0.000422057
0.000427118
0.000432379
0.000437788
0.000443284
0.000448794
0.000454234
0.000459506
0.000464499
0.000469083
0.000473107
0.000476401
0.000478775
0.000480025
0.000977117
0.000936705
0.000899647
0.000865621
0.00083434
0.000805547
0.000779008
0.000754516
0.000731882
0.000710938
0.00069153
0.000673523
0.000656792
0.000641226
0.000626724
0.000613196
0.000600558
0.000588736
0.000577663
0.000567278
0.000557526
0.000548355
0.000539719
0.000531579
0.000523894
0.000516631
0.000509758
0.000503246
0.000497069
0.000491203
0.000485624
0.000480314
0.000475253
0.000470424
0.000465812
0.000461401
0.000457179
0.000453134
0.000449253
0.000445527
0.000441947
0.000438503
0.000435187
0.000431993
0.000428913
0.000425942
0.000423074
0.000420305
0.00041763
0.000415047
0.000412552
0.000410143
0.000407819
0.000405578
0.000403421
0.000401348
0.00039936
0.000397461
0.000395652
0.000393938
0.000392325
0.000390817
0.000389423
0.00038815
0.000387008
0.000386007
0.00038516
0.000384478
0.000383977
0.00038367
0.000383574
0.000383706
0.000384081
0.000384717
0.000385631
0.000386839
0.000388357
0.000390198
0.000392373
0.000394892
0.00039776
0.000400979
0.000404546
0.000408452
0.000412684
0.000417222
0.000422038
0.000427097
0.000432356
0.000437764
0.000443258
0.000448767
0.000454205
0.000459477
0.000464469
0.000469053
0.000473078
0.000476372
0.000478747
0.000479997
0.000977117
0.000936706
0.000899647
0.000865621
0.000834341
0.000805547
0.000779009
0.000754517
0.000731883
0.000710938
0.000691531
0.000673524
0.000656793
0.000641227
0.000626725
0.000613196
0.000600559
0.000588737
0.000577664
0.000567279
0.000557526
0.000548356
0.00053972
0.00053158
0.000523895
0.000516632
0.000509759
0.000503248
0.000497071
0.000491204
0.000485626
0.000480315
0.000475254
0.000470426
0.000465813
0.000461403
0.000457181
0.000453136
0.000449255
0.00044553
0.000441949
0.000438505
0.00043519
0.000431995
0.000428916
0.000425945
0.000423077
0.000420308
0.000417633
0.00041505
0.000412555
0.000410146
0.000407822
0.000405581
0.000403424
0.000401351
0.000399364
0.000397464
0.000395655
0.000393941
0.000392328
0.00039082
0.000389425
0.000388152
0.000387009
0.000386008
0.00038516
0.000384477
0.000383975
0.000383667
0.00038357
0.0003837
0.000384073
0.000384707
0.000385619
0.000386825
0.00038834
0.000390178
0.000392351
0.000394867
0.000397732
0.000400948
0.000404512
0.000408415
0.000412644
0.000417179
0.000421992
0.000427048
0.000432305
0.000437711
0.000443203
0.000448709
0.000454147
0.000459418
0.000464411
0.000468995
0.000473021
0.000476316
0.000478691
0.000479942
0.000977117
0.000936706
0.000899647
0.000865621
0.000834341
0.000805548
0.000779009
0.000754517
0.000731883
0.000710939
0.000691532
0.000673524
0.000656794
0.000641228
0.000626726
0.000613197
0.00060056
0.000588738
0.000577665
0.000567281
0.000557528
0.000548357
0.000539722
0.000531581
0.000523897
0.000516634
0.000509761
0.00050325
0.000497073
0.000491206
0.000485628
0.000480318
0.000475257
0.000470428
0.000465816
0.000461406
0.000457184
0.000453139
0.000449259
0.000445533
0.000441953
0.000438509
0.000435193
0.000431999
0.00042892
0.000425949
0.000423081
0.000420312
0.000417638
0.000415055
0.00041256
0.000410151
0.000407827
0.000405586
0.000403429
0.000401356
0.000399369
0.000397469
0.00039566
0.000393946
0.000392332
0.000390823
0.000389428
0.000388154
0.000387011
0.000386008
0.000385159
0.000384476
0.000383971
0.000383662
0.000383563
0.00038369
0.000384061
0.000384692
0.000385601
0.000386803
0.000388315
0.000390149
0.000392317
0.000394829
0.00039769
0.000400901
0.00040446
0.000408359
0.000412584
0.000417114
0.000421923
0.000426976
0.000432229
0.000437632
0.000443121
0.000448626
0.000454062
0.000459332
0.000464326
0.000468911
0.000472937
0.000476233
0.000478609
0.00047986
0.000977117
0.000936706
0.000899647
0.000865622
0.000834341
0.000805548
0.00077901
0.000754518
0.000731884
0.00071094
0.000691533
0.000673525
0.000656795
0.000641229
0.000626727
0.000613199
0.000600561
0.00058874
0.000577667
0.000567282
0.00055753
0.000548359
0.000539724
0.000531583
0.000523899
0.000516636
0.000509764
0.000503252
0.000497075
0.000491209
0.000485631
0.000480321
0.00047526
0.000470432
0.00046582
0.000461409
0.000457188
0.000453143
0.000449263
0.000445537
0.000441957
0.000438513
0.000435198
0.000432004
0.000428925
0.000425954
0.000423087
0.000420318
0.000417644
0.000415061
0.000412566
0.000410157
0.000407833
0.000405593
0.000403435
0.000401362
0.000399375
0.000397475
0.000395666
0.000393951
0.000392337
0.000390828
0.000389432
0.000388157
0.000387013
0.000386009
0.000385158
0.000384473
0.000383967
0.000383655
0.000383553
0.000383677
0.000384045
0.000384672
0.000385577
0.000386775
0.000388281
0.00039011
0.000392273
0.000394779
0.000397634
0.00040084
0.000404393
0.000408286
0.000412505
0.000417029
0.000421833
0.000426881
0.00043213
0.000437529
0.000443015
0.000448517
0.000453952
0.000459222
0.000464215
0.0004688
0.000472827
0.000476124
0.000478502
0.000479752
0.000977117
0.000936706
0.000899648
0.000865622
0.000834342
0.000805549
0.000779011
0.000754519
0.000731885
0.000710941
0.000691534
0.000673527
0.000656796
0.00064123
0.000626729
0.0006132
0.000600563
0.000588741
0.000577669
0.000567284
0.000557532
0.000548361
0.000539726
0.000531586
0.000523902
0.000516639
0.000509767
0.000503255
0.000497079
0.000491212
0.000485634
0.000480325
0.000475264
0.000470436
0.000465824
0.000461414
0.000457193
0.000453148
0.000449268
0.000445543
0.000441963
0.000438519
0.000435204
0.00043201
0.000428931
0.000425961
0.000423094
0.000420325
0.000417651
0.000415068
0.000412574
0.000410165
0.000407841
0.000405601
0.000403444
0.00040137
0.000399383
0.000397483
0.000395673
0.000393958
0.000392343
0.000390834
0.000389437
0.000388161
0.000387015
0.00038601
0.000385158
0.00038447
0.000383962
0.000383647
0.000383542
0.000383662
0.000384025
0.000384648
0.000385548
0.00038674
0.000388241
0.000390064
0.00039222
0.000394719
0.000397567
0.000400765
0.000404311
0.000408196
0.000412408
0.000416926
0.000421724
0.000426766
0.000432009
0.000437403
0.000442886
0.000448385
0.000453818
0.000459087
0.00046408
0.000468666
0.000472694
0.000475992
0.00047837
0.000479621
0.000977117
0.000936706
0.000899648
0.000865622
0.000834342
0.000805549
0.000779011
0.000754519
0.000731886
0.000710942
0.000691535
0.000673528
0.000656798
0.000641232
0.000626731
0.000613202
0.000600565
0.000588744
0.000577671
0.000567287
0.000557534
0.000548364
0.000539729
0.000531589
0.000523905
0.000516643
0.00050977
0.000503259
0.000497082
0.000491216
0.000485639
0.000480329
0.000475269
0.000470441
0.000465829
0.000461419
0.000457198
0.000453154
0.000449274
0.000445549
0.000441969
0.000438526
0.000435211
0.000432018
0.000428939
0.000425969
0.000423102
0.000420334
0.00041766
0.000415077
0.000412583
0.000410175
0.000407851
0.00040561
0.000403453
0.00040138
0.000399392
0.000397492
0.000395682
0.000393967
0.000392351
0.000390841
0.000389443
0.000388166
0.000387019
0.000386012
0.000385157
0.000384467
0.000383956
0.000383638
0.000383529
0.000383645
0.000384003
0.000384621
0.000385515
0.000386701
0.000388195
0.00039001
0.000392158
0.000394649
0.000397489
0.000400678
0.000404215
0.000408093
0.000412296
0.000416806
0.000421596
0.000426631
0.000431869
0.000437257
0.000442736
0.000448232
0.000453662
0.00045893
0.000463923
0.000468509
0.000472538
0.000475837
0.000478216
0.000479467
0.000977117
0.000936706
0.000899648
0.000865623
0.000834343
0.00080555
0.000779012
0.00075452
0.000731887
0.000710943
0.000691536
0.00067353
0.000656799
0.000641234
0.000626733
0.000613204
0.000600567
0.000588746
0.000577674
0.000567289
0.000557537
0.000548367
0.000539733
0.000531592
0.000523909
0.000516646
0.000509774
0.000503263
0.000497087
0.000491221
0.000485644
0.000480334
0.000475274
0.000470446
0.000465835
0.000461425
0.000457205
0.00045316
0.000449281
0.000445556
0.000441977
0.000438534
0.00043522
0.000432027
0.000428948
0.000425978
0.000423111
0.000420343
0.00041767
0.000415088
0.000412594
0.000410185
0.000407862
0.000405621
0.000403464
0.000401391
0.000399403
0.000397503
0.000395693
0.000393977
0.000392361
0.000390849
0.00038945
0.000388172
0.000387023
0.000386014
0.000385157
0.000384464
0.00038395
0.000383628
0.000383514
0.000383626
0.000383979
0.000384591
0.000385478
0.000386656
0.000388142
0.000389949
0.000392089
0.000394571
0.000397401
0.000400581
0.000404108
0.000407976
0.00041217
0.000416671
0.000421452
0.00042648
0.00043171
0.000437093
0.000442566
0.000448059
0.000453487
0.000458753
0.000463745
0.000468331
0.000472361
0.000475661
0.00047804
0.000479292
0.000977117
0.000936706
0.000899648
0.000865623
0.000834343
0.000805551
0.000779013
0.000754521
0.000731888
0.000710944
0.000691538
0.000673531
0.000656801
0.000641236
0.000626735
0.000613207
0.00060057
0.000588749
0.000577677
0.000567293
0.000557541
0.00054837
0.000539736
0.000531596
0.000523913
0.000516651
0.000509779
0.000503268
0.000497092
0.000491226
0.000485649
0.00048034
0.00047528
0.000470453
0.000465842
0.000461432
0.000457212
0.000453168
0.000449289
0.000445565
0.000441986
0.000438543
0.000435229
0.000432036
0.000428958
0.000425988
0.000423122
0.000420355
0.000417681
0.000415099
0.000412606
0.000410198
0.000407874
0.000405634
0.000403477
0.000401404
0.000399416
0.000397515
0.000395705
0.000393988
0.000392371
0.000390859
0.000389459
0.000388179
0.000387028
0.000386017
0.000385157
0.000384462
0.000383943
0.000383617
0.000383499
0.000383605
0.000383952
0.000384557
0.000385437
0.000386608
0.000388085
0.000389883
0.000392013
0.000394485
0.000397304
0.000400473
0.00040399
0.000407847
0.000412031
0.000416522
0.000421294
0.000426313
0.000431536
0.000436911
0.000442379
0.000447867
0.000453292
0.000458556
0.000463548
0.000468134
0.000472164
0.000475464
0.000477845
0.000479097
0.000977117
0.000936706
0.000899649
0.000865624
0.000834344
0.000805551
0.000779014
0.000754522
0.000731889
0.000710946
0.000691539
0.000673533
0.000656803
0.000641238
0.000626737
0.000613209
0.000600572
0.000588752
0.00057768
0.000567296
0.000557544
0.000548374
0.00053974
0.0005316
0.000523917
0.000516655
0.000509784
0.000503273
0.000497097
0.000491232
0.000485655
0.000480346
0.000475287
0.00047046
0.000465849
0.00046144
0.00045722
0.000453176
0.000449298
0.000445574
0.000441995
0.000438553
0.000435239
0.000432047
0.000428969
0.000426
0.000423134
0.000420367
0.000417694
0.000415112
0.000412619
0.000410211
0.000407888
0.000405648
0.000403491
0.000401418
0.00039943
0.000397529
0.000395718
0.000394001
0.000392383
0.00039087
0.000389469
0.000388187
0.000387034
0.000386021
0.000385158
0.000384459
0.000383937
0.000383607
0.000383483
0.000383584
0.000383924
0.000384522
0.000385394
0.000386556
0.000388024
0.000389812
0.000391932
0.000394392
0.0003972
0.000400358
0.000403863
0.000407708
0.00041188
0.000416361
0.000421122
0.000426132
0.000431346
0.000436714
0.000442176
0.000447659
0.00045308
0.000458342
0.000463332
0.000467918
0.000471948
0.00047525
0.000477631
0.000478883
0.000977117
0.000936707
0.000899649
0.000865624
0.000834344
0.000805552
0.000779015
0.000754523
0.000731891
0.000710947
0.000691541
0.000673535
0.000656805
0.00064124
0.000626739
0.000613212
0.000600575
0.000588755
0.000577683
0.000567299
0.000557548
0.000548378
0.000539744
0.000531605
0.000523922
0.00051666
0.000509789
0.000503279
0.000497103
0.000491238
0.000485662
0.000480353
0.000475294
0.000470467
0.000465857
0.000461448
0.000457229
0.000453185
0.000449307
0.000445584
0.000442005
0.000438564
0.000435251
0.000432059
0.000428981
0.000426013
0.000423147
0.00042038
0.000417708
0.000415127
0.000412634
0.000410226
0.000407903
0.000405663
0.000403507
0.000401434
0.000399445
0.000397544
0.000395733
0.000394016
0.000392397
0.000390883
0.00038948
0.000388196
0.000387042
0.000386026
0.00038516
0.000384457
0.000383931
0.000383596
0.000383467
0.000383561
0.000383895
0.000384485
0.000385348
0.000386501
0.000387959
0.000389737
0.000391845
0.000394294
0.000397089
0.000400234
0.000403727
0.00040756
0.00041172
0.000416188
0.000420939
0.000425938
0.000431143
0.000436503
0.000441958
0.000447436
0.000452853
0.000458112
0.0004631
0.000467686
0.000471716
0.000475018
0.0004774
0.000478653
0.000977117
0.000936707
0.000899649
0.000865624
0.000834345
0.000805553
0.000779015
0.000754524
0.000731892
0.000710949
0.000691543
0.000673537
0.000656807
0.000641242
0.000626742
0.000613215
0.000600578
0.000588758
0.000577687
0.000567303
0.000557552
0.000548382
0.000539749
0.00053161
0.000523927
0.000516666
0.000509795
0.000503285
0.000497109
0.000491245
0.000485669
0.00048036
0.000475302
0.000470475
0.000465865
0.000461457
0.000457238
0.000453195
0.000449317
0.000445594
0.000442017
0.000438575
0.000435263
0.000432071
0.000428994
0.000426026
0.000423161
0.000420395
0.000417723
0.000415142
0.000412649
0.000410242
0.00040792
0.00040568
0.000403524
0.000401451
0.000399462
0.000397561
0.000395749
0.000394031
0.000392412
0.000390896
0.000389492
0.000388207
0.00038705
0.000386031
0.000385162
0.000384456
0.000383925
0.000383585
0.000383451
0.000383538
0.000383864
0.000384446
0.000385301
0.000386444
0.000387892
0.000389657
0.000391754
0.00039419
0.000396973
0.000400105
0.000403584
0.000407403
0.000411551
0.000416006
0.000420745
0.000425733
0.000430928
0.00043628
0.000441727
0.000447199
0.000452612
0.000457868
0.000462854
0.000467438
0.000471469
0.000474771
0.000477154
0.000478407
0.000977117
0.000936707
0.000899649
0.000865625
0.000834345
0.000805553
0.000779016
0.000754525
0.000731893
0.00071095
0.000691544
0.000673538
0.000656809
0.000641245
0.000626744
0.000613217
0.000600581
0.000588761
0.00057769
0.000567307
0.000557556
0.000548387
0.000539754
0.000531615
0.000523932
0.000516671
0.000509801
0.000503291
0.000497116
0.000491252
0.000485676
0.000480368
0.00047531
0.000470484
0.000465874
0.000461467
0.000457248
0.000453205
0.000449328
0.000445606
0.000442029
0.000438588
0.000435276
0.000432085
0.000429008
0.000426041
0.000423176
0.00042041
0.000417739
0.000415159
0.000412666
0.00041026
0.000407937
0.000405698
0.000403542
0.000401469
0.000399481
0.000397579
0.000395767
0.000394048
0.000392428
0.000390911
0.000389506
0.000388218
0.000387059
0.000386038
0.000385166
0.000384455
0.00038392
0.000383574
0.000383434
0.000383515
0.000383833
0.000384407
0.000385252
0.000386385
0.000387821
0.000389575
0.000391659
0.000394082
0.000396852
0.00039997
0.000403435
0.00040724
0.000411374
0.000415816
0.000420543
0.000425519
0.000430703
0.000436046
0.000441485
0.000446951
0.000452358
0.00045761
0.000462594
0.000467177
0.000471207
0.00047451
0.000476894
0.000478147
0.000977118
0.000936707
0.000899649
0.000865625
0.000834346
0.000805554
0.000779017
0.000754526
0.000731894
0.000710951
0.000691546
0.00067354
0.000656811
0.000641247
0.000626747
0.00061322
0.000600584
0.000588765
0.000577694
0.000567311
0.00055756
0.000548391
0.000539758
0.00053162
0.000523938
0.000516677
0.000509807
0.000503298
0.000497123
0.000491259
0.000485684
0.000480377
0.000475319
0.000470493
0.000465884
0.000461477
0.000457258
0.000453216
0.00044934
0.000445618
0.000442041
0.000438601
0.000435289
0.000432099
0.000429023
0.000426056
0.000423192
0.000420427
0.000417756
0.000415176
0.000412684
0.000410278
0.000407956
0.000405717
0.000403561
0.000401488
0.0003995
0.000397598
0.000395786
0.000394066
0.000392445
0.000390927
0.00038952
0.000388231
0.000387069
0.000386045
0.00038517
0.000384455
0.000383915
0.000383564
0.000383417
0.000383491
0.000383802
0.000384367
0.000385202
0.000386324
0.000387749
0.000389491
0.000391562
0.000393971
0.000396726
0.00039983
0.00040328
0.000407071
0.00041119
0.000415619
0.000420332
0.000425296
0.00043047
0.000435802
0.000441233
0.000446691
0.000452093
0.000457341
0.000462323
0.000466904
0.000470934
0.000474237
0.000476621
0.000477875
0.000977118
0.000936707
0.00089965
0.000865625
0.000834346
0.000805555
0.000779018
0.000754527
0.000731895
0.000710953
0.000691547
0.000673542
0.000656813
0.00064125
0.00062675
0.000613223
0.000600587
0.000588768
0.000577698
0.000567315
0.000557565
0.000548396
0.000539763
0.000531625
0.000523943
0.000516683
0.000509813
0.000503304
0.00049713
0.000491267
0.000485692
0.000480385
0.000475328
0.000470502
0.000465894
0.000461487
0.000457269
0.000453228
0.000449352
0.00044563
0.000442054
0.000438615
0.000435304
0.000432114
0.000429039
0.000426072
0.000423209
0.000420444
0.000417774
0.000415195
0.000412703
0.000410298
0.000407976
0.000405737
0.000403582
0.000401509
0.00039952
0.000397618
0.000395806
0.000394086
0.000392464
0.000390945
0.000389536
0.000388245
0.000387081
0.000386054
0.000385174
0.000384456
0.000383911
0.000383554
0.000383401
0.000383468
0.00038377
0.000384326
0.000385151
0.000386262
0.000387676
0.000389405
0.000391462
0.000393857
0.000396598
0.000399686
0.000403122
0.000406897
0.000411002
0.000415416
0.000420115
0.000425067
0.000430228
0.00043555
0.000440972
0.000446423
0.000451819
0.000457063
0.000462041
0.000466621
0.000470649
0.000473953
0.000476337
0.000477592
0.000977118
0.000936707
0.00089965
0.000865626
0.000834347
0.000805555
0.000779019
0.000754528
0.000731897
0.000710954
0.000691549
0.000673544
0.000656816
0.000641252
0.000626752
0.000613226
0.000600591
0.000588772
0.000577702
0.000567319
0.000557569
0.000548401
0.000539769
0.000531631
0.000523949
0.00051669
0.00050982
0.000503312
0.000497138
0.000491275
0.0004857
0.000480394
0.000475337
0.000470512
0.000465904
0.000461498
0.000457281
0.00045324
0.000449364
0.000445644
0.000442068
0.000438629
0.000435319
0.00043213
0.000429055
0.000426089
0.000423227
0.000420463
0.000417793
0.000415214
0.000412723
0.000410318
0.000407997
0.000405759
0.000403603
0.00040153
0.000399542
0.00039764
0.000395827
0.000394106
0.000392483
0.000390963
0.000389553
0.00038826
0.000387093
0.000386063
0.00038518
0.000384457
0.000383907
0.000383545
0.000383385
0.000383444
0.000383739
0.000384285
0.0003851
0.0003862
0.000387601
0.000389317
0.000391361
0.000393741
0.000396467
0.00039954
0.00040296
0.00040672
0.000410809
0.000415208
0.000419893
0.000424831
0.000429981
0.000435292
0.000440704
0.000446147
0.000451536
0.000456775
0.00046175
0.000466328
0.000470356
0.000473659
0.000476044
0.000477299
0.000977118
0.000936707
0.00089965
0.000865626
0.000834347
0.000805556
0.000779019
0.000754529
0.000731898
0.000710956
0.000691551
0.000673546
0.000656818
0.000641254
0.000626755
0.000613229
0.000600594
0.000588775
0.000577705
0.000567323
0.000557574
0.000548406
0.000539774
0.000531637
0.000523955
0.000516696
0.000509827
0.000503319
0.000497146
0.000491283
0.000485709
0.000480403
0.000475347
0.000470522
0.000465915
0.000461509
0.000457293
0.000453252
0.000449377
0.000445657
0.000442082
0.000438644
0.000435334
0.000432146
0.000429072
0.000426107
0.000423245
0.000420481
0.000417812
0.000415234
0.000412744
0.000410339
0.000408019
0.000405781
0.000403625
0.000401553
0.000399565
0.000397662
0.000395849
0.000394128
0.000392504
0.000390982
0.00038957
0.000388275
0.000387106
0.000386073
0.000385187
0.000384459
0.000383905
0.000383536
0.00038337
0.000383421
0.000383707
0.000384244
0.000385048
0.000386137
0.000387526
0.000389229
0.000391258
0.000393624
0.000396334
0.000399392
0.000402795
0.000406539
0.000410613
0.000414997
0.000419667
0.000424591
0.000429728
0.000435028
0.00044043
0.000445865
0.000451247
0.000456481
0.000461452
0.000466028
0.000470054
0.000473357
0.000475742
0.000476998
0.000977118
0.000936707
0.00089965
0.000865626
0.000834348
0.000805556
0.00077902
0.00075453
0.000731899
0.000710957
0.000691552
0.000673548
0.00065682
0.000641257
0.000626758
0.000613232
0.000600597
0.000588779
0.000577709
0.000567328
0.000557578
0.000548411
0.000539779
0.000531642
0.000523962
0.000516703
0.000509834
0.000503326
0.000497154
0.000491291
0.000485718
0.000480412
0.000475356
0.000470533
0.000465926
0.000461521
0.000457305
0.000453265
0.000449391
0.000445671
0.000442097
0.000438659
0.00043535
0.000432162
0.000429089
0.000426125
0.000423264
0.000420501
0.000417833
0.000415255
0.000412765
0.000410361
0.000408041
0.000405804
0.000403648
0.000401576
0.000399588
0.000397685
0.000395872
0.00039415
0.000392525
0.000391002
0.000389589
0.000388292
0.00038712
0.000386084
0.000385194
0.000384462
0.000383902
0.000383528
0.000383355
0.000383399
0.000383676
0.000384203
0.000384997
0.000386074
0.00038745
0.00038914
0.000391155
0.000393506
0.0003962
0.000399242
0.000402629
0.000406357
0.000410414
0.000414783
0.000419438
0.000424348
0.000429472
0.00043476
0.000440152
0.000445577
0.000450953
0.000456181
0.000461148
0.000465721
0.000469746
0.000473049
0.000475434
0.00047669
0.000977118
0.000936707
0.00089965
0.000865626
0.000834348
0.000805557
0.000779021
0.000754531
0.0007319
0.000710958
0.000691554
0.00067355
0.000656822
0.000641259
0.00062676
0.000613235
0.0006006
0.000588782
0.000577713
0.000567332
0.000557583
0.000548416
0.000539785
0.000531648
0.000523968
0.000516709
0.000509841
0.000503334
0.000497162
0.0004913
0.000485727
0.000480422
0.000475366
0.000470543
0.000465937
0.000461533
0.000457317
0.000453278
0.000449404
0.000445685
0.000442112
0.000438675
0.000435367
0.00043218
0.000429107
0.000426143
0.000423283
0.000420521
0.000417853
0.000415276
0.000412787
0.000410384
0.000408064
0.000405827
0.000403672
0.0004016
0.000399612
0.000397709
0.000395895
0.000394173
0.000392547
0.000391023
0.000389608
0.000388309
0.000387135
0.000386096
0.000385202
0.000384466
0.000383901
0.000383521
0.000383341
0.000383377
0.000383645
0.000384163
0.000384946
0.000386012
0.000387375
0.000389051
0.000391052
0.000393388
0.000396066
0.000399091
0.000402462
0.000406173
0.000410214
0.000414567
0.000419207
0.000424102
0.000429213
0.000434489
0.00043987
0.000445287
0.000450654
0.000455877
0.000460839
0.000465409
0.000469433
0.000472735
0.00047512
0.000476377
0.000977118
0.000936708
0.000899651
0.000865627
0.000834349
0.000805558
0.000779022
0.000754532
0.000731901
0.00071096
0.000691555
0.000673551
0.000656824
0.000641261
0.000626763
0.000613238
0.000600604
0.000588786
0.000577717
0.000567336
0.000557588
0.000548421
0.00053979
0.000531654
0.000523974
0.000516716
0.000509848
0.000503341
0.00049717
0.000491309
0.000485736
0.000480432
0.000475377
0.000470554
0.000465948
0.000461545
0.00045733
0.000453291
0.000449418
0.0004457
0.000442127
0.000438691
0.000435383
0.000432197
0.000429125
0.000426162
0.000423303
0.000420541
0.000417874
0.000415298
0.00041281
0.000410407
0.000408088
0.000405851
0.000403697
0.000401625
0.000399637
0.000397734
0.00039592
0.000394197
0.00039257
0.000391045
0.000389628
0.000388327
0.000387151
0.000386108
0.000385211
0.000384471
0.0003839
0.000383514
0.000383328
0.000383356
0.000383616
0.000384123
0.000384896
0.00038595
0.0003873
0.000388962
0.000390949
0.000393269
0.000395932
0.000398941
0.000402295
0.000405989
0.000410014
0.00041435
0.000418974
0.000423855
0.000428952
0.000434216
0.000439586
0.000444993
0.000450353
0.000455569
0.000460527
0.000465094
0.000469116
0.000472417
0.000474803
0.000476059
0.000977118
0.000936708
0.000899651
0.000865627
0.000834349
0.000805558
0.000779022
0.000754533
0.000731902
0.000710961
0.000691557
0.000673553
0.000656826
0.000641264
0.000626766
0.000613241
0.000600607
0.000588789
0.000577721
0.00056734
0.000557592
0.000548426
0.000539796
0.00053166
0.00052398
0.000516723
0.000509855
0.000503349
0.000497178
0.000491317
0.000485745
0.000480441
0.000475387
0.000470565
0.00046596
0.000461557
0.000457342
0.000453305
0.000449432
0.000445715
0.000442143
0.000438707
0.0004354
0.000432215
0.000429144
0.000426182
0.000423323
0.000420562
0.000417896
0.00041532
0.000412833
0.00041043
0.000408112
0.000405876
0.000403722
0.00040165
0.000399662
0.000397759
0.000395944
0.000394221
0.000392594
0.000391068
0.000389649
0.000388346
0.000387167
0.000386122
0.00038522
0.000384476
0.0003839
0.000383508
0.000383315
0.000383335
0.000383586
0.000384084
0.000384846
0.000385888
0.000387226
0.000388875
0.000390846
0.000393152
0.000395798
0.00039879
0.000402128
0.000405806
0.000409813
0.000414133
0.000418742
0.000423608
0.000428691
0.000433942
0.000439301
0.000444698
0.00045005
0.00045526
0.000460213
0.000464777
0.000468797
0.000472097
0.000474483
0.00047574
0.000977118
0.000936708
0.000899651
0.000865627
0.000834349
0.000805558
0.000779023
0.000754534
0.000731903
0.000710962
0.000691558
0.000673555
0.000656828
0.000641266
0.000626768
0.000613244
0.00060061
0.000588793
0.000577725
0.000567345
0.000557597
0.000548431
0.000539801
0.000531666
0.000523987
0.000516729
0.000509862
0.000503357
0.000497186
0.000491326
0.000485754
0.000480451
0.000475397
0.000470576
0.000465971
0.000461569
0.000457355
0.000453318
0.000449447
0.00044573
0.000442158
0.000438724
0.000435417
0.000432233
0.000429162
0.000426201
0.000423343
0.000420583
0.000417918
0.000415343
0.000412856
0.000410454
0.000408136
0.0004059
0.000403747
0.000401676
0.000399688
0.000397785
0.00039597
0.000394246
0.000392618
0.00039109
0.000389671
0.000388366
0.000387184
0.000386135
0.000385231
0.000384482
0.000383901
0.000383503
0.000383303
0.000383316
0.000383558
0.000384046
0.000384798
0.000385828
0.000387153
0.000388788
0.000390745
0.000393035
0.000395666
0.000398641
0.000401962
0.000405623
0.000409614
0.000413917
0.00041851
0.000423361
0.00042843
0.000433668
0.000439016
0.000444404
0.000449747
0.00045495
0.000459898
0.000464458
0.000468476
0.000471776
0.000474161
0.000475418
0.000977118
0.000936708
0.000899651
0.000865627
0.00083435
0.000805559
0.000779024
0.000754534
0.000731904
0.000710963
0.00069156
0.000673556
0.00065683
0.000641268
0.000626771
0.000613246
0.000600613
0.000588796
0.000577729
0.000567349
0.000557601
0.000548436
0.000539806
0.000531671
0.000523993
0.000516736
0.00050987
0.000503364
0.000497194
0.000491335
0.000485764
0.000480461
0.000475408
0.000470587
0.000465983
0.000461581
0.000457368
0.000453332
0.000449461
0.000445745
0.000442174
0.00043874
0.000435435
0.000432251
0.000429181
0.000426221
0.000423363
0.000420604
0.00041794
0.000415366
0.000412879
0.000410478
0.000408161
0.000405926
0.000403772
0.000401701
0.000399714
0.000397811
0.000395995
0.000394271
0.000392642
0.000391114
0.000389692
0.000388385
0.000387201
0.00038615
0.000385241
0.000384488
0.000383903
0.000383499
0.000383292
0.000383297
0.000383531
0.000384009
0.00038475
0.000385769
0.000387081
0.000388702
0.000390645
0.00039292
0.000395535
0.000398494
0.000401798
0.000405442
0.000409416
0.000413703
0.00041828
0.000423116
0.000428171
0.000433396
0.000438732
0.00044411
0.000449445
0.000454641
0.000459584
0.00046414
0.000468156
0.000471454
0.000473839
0.000475097
0.000977118
0.000936708
0.000899651
0.000865628
0.00083435
0.000805559
0.000779024
0.000754535
0.000731905
0.000710964
0.000691561
0.000673558
0.000656832
0.00064127
0.000626773
0.000613249
0.000600616
0.0005888
0.000577732
0.000567353
0.000557606
0.000548441
0.000539812
0.000531677
0.000523999
0.000516743
0.000509877
0.000503372
0.000497202
0.000491343
0.000485773
0.000480471
0.000475418
0.000470598
0.000465994
0.000461593
0.000457381
0.000453345
0.000449475
0.00044576
0.00044219
0.000438757
0.000435452
0.000432269
0.0004292
0.00042624
0.000423384
0.000420625
0.000417962
0.000415388
0.000412903
0.000410502
0.000408185
0.000405951
0.000403798
0.000401727
0.00039974
0.000397837
0.000396021
0.000394296
0.000392667
0.000391137
0.000389714
0.000388406
0.000387219
0.000386165
0.000385253
0.000384495
0.000383905
0.000383495
0.000383282
0.000383279
0.000383504
0.000383974
0.000384704
0.000385711
0.000387011
0.000388618
0.000390547
0.000392806
0.000395405
0.000398349
0.000401636
0.000405263
0.00040922
0.000413491
0.000418052
0.000422873
0.000427913
0.000433126
0.00043845
0.000443818
0.000449144
0.000454333
0.000459271
0.000463824
0.000467837
0.000471134
0.000473518
0.000474776
0.000977118
0.000936708
0.000899651
0.000865628
0.00083435
0.00080556
0.000779025
0.000754536
0.000731906
0.000710965
0.000691562
0.000673559
0.000656833
0.000641272
0.000626775
0.000613252
0.000600619
0.000588803
0.000577736
0.000567357
0.00055761
0.000548445
0.000539817
0.000531683
0.000524005
0.000516749
0.000509884
0.000503379
0.00049721
0.000491352
0.000485782
0.00048048
0.000475428
0.000470609
0.000466006
0.000461605
0.000457394
0.000453359
0.000449489
0.000445775
0.000442206
0.000438773
0.000435469
0.000432287
0.000429219
0.00042626
0.000423404
0.000420647
0.000417984
0.000415411
0.000412926
0.000410527
0.00040821
0.000405976
0.000403824
0.000401754
0.000399766
0.000397863
0.000396047
0.000394322
0.000392692
0.000391161
0.000389737
0.000388426
0.000387237
0.00038618