/*--------------------------------*- C++ -*----------------------------------*\
  =========                 |
  \\      /  F ield         | OpenFOAM: The Open Source CFD Toolbox
   \\    /   O peration     | Website:  https://openfoam.org
    \\  /    A nd           | Version:  11
     \\/     M anipulation  |
\*---------------------------------------------------------------------------*/
FoamFile
{
    format      ascii;
    class       volScalarField;
    location    "1152";
    object      p;
}
// * * * * * * * * * * * * * * * * * * * * * * * * * * * * * * * * * * * * * //

dimensions      [0 2 -2 0 0 0 0];

internalField   nonuniform List<scalar> 
10000
(
3.11074e-12
3.01065e-12
3.10252e-12
3.32679e-12
3.59072e-12
3.87352e-12
4.17297e-12
4.48823e-12
4.81905e-12
5.16589e-12
5.52965e-12
5.91141e-12
6.31232e-12
6.73363e-12
7.17662e-12
7.6426e-12
8.13294e-12
8.64902e-12
9.19229e-12
9.76422e-12
1.03663e-11
1.10002e-11
1.16674e-11
1.23696e-11
1.31085e-11
1.3886e-11
1.47037e-11
1.55635e-11
1.64674e-11
1.74173e-11
1.84153e-11
1.94633e-11
2.05636e-11
2.17182e-11
2.29294e-11
2.41993e-11
2.55304e-11
2.69248e-11
2.83849e-11
2.99132e-11
3.15119e-11
3.31834e-11
3.49301e-11
3.67544e-11
3.86586e-11
4.06451e-11
4.27159e-11
4.48734e-11
4.71196e-11
4.94565e-11
5.18858e-11
5.44094e-11
5.70287e-11
5.97448e-11
6.2559e-11
6.54717e-11
6.84835e-11
7.15942e-11
7.48034e-11
7.81101e-11
8.15127e-11
8.5009e-11
8.85959e-11
9.22697e-11
9.60257e-11
9.9858e-11
1.0376e-10
1.07722e-10
1.11736e-10
1.1579e-10
1.19871e-10
1.23963e-10
1.28048e-10
1.32107e-10
1.36116e-10
1.40048e-10
1.43875e-10
1.47561e-10
1.51069e-10
1.54355e-10
1.57369e-10
1.60056e-10
1.62354e-10
1.64192e-10
1.6549e-10
1.6616e-10
1.661e-10
1.65196e-10
1.6332e-10
1.60325e-10
1.56045e-10
1.50288e-10
1.4283e-10
1.33404e-10
1.2168e-10
1.07261e-10
8.95733e-11
6.71661e-11
3.73676e-11
2.47245e-12
5.90685e-12
5.54231e-12
5.32085e-12
5.38791e-12
5.58126e-12
5.83793e-12
6.1405e-12
6.47977e-12
6.84997e-12
7.24817e-12
7.67314e-12
8.12463e-12
8.60293e-12
9.10871e-12
9.64289e-12
1.02066e-11
1.08011e-11
1.14278e-11
1.20881e-11
1.27836e-11
1.3516e-11
1.4287e-11
1.50983e-11
1.59518e-11
1.68495e-11
1.77933e-11
1.87853e-11
1.98275e-11
2.09222e-11
2.20715e-11
2.32778e-11
2.45434e-11
2.58706e-11
2.72619e-11
2.87197e-11
3.02466e-11
3.18451e-11
3.35177e-11
3.52671e-11
3.70959e-11
3.90066e-11
4.10017e-11
4.3084e-11
4.52559e-11
4.75198e-11
4.98782e-11
5.23334e-11
5.48876e-11
5.75429e-11
6.03011e-11
6.3164e-11
6.61331e-11
6.92097e-11
7.23945e-11
7.56882e-11
7.90911e-11
8.26027e-11
8.62223e-11
8.99485e-11
9.37793e-11
9.77118e-11
1.01743e-10
1.05867e-10
1.10079e-10
1.14372e-10
1.18738e-10
1.23168e-10
1.27649e-10
1.32169e-10
1.36713e-10
1.41263e-10
1.45798e-10
1.50297e-10
1.54733e-10
1.59076e-10
1.63292e-10
1.67343e-10
1.71187e-10
1.74774e-10
1.7805e-10
1.80954e-10
1.83415e-10
1.85356e-10
1.86689e-10
1.87315e-10
1.87124e-10
1.8599e-10
1.83772e-10
1.80311e-10
1.75424e-10
1.68904e-10
1.6051e-10
1.49959e-10
1.36907e-10
1.20939e-10
1.01613e-10
7.83106e-11
4.85486e-11
7.23021e-12
-2.89565e-11
7.29633e-12
6.8099e-12
6.39432e-12
6.26963e-12
6.29911e-12
6.41545e-12
6.59578e-12
6.82626e-12
7.09726e-12
7.40284e-12
7.73949e-12
8.10516e-12
8.49879e-12
8.91991e-12
9.36854e-12
9.84504e-12
1.035e-11
1.08841e-11
1.14484e-11
1.2044e-11
1.26719e-11
1.33334e-11
1.40299e-11
1.47628e-11
1.55336e-11
1.63438e-11
1.71949e-11
1.80887e-11
1.90268e-11
2.0011e-11
2.10431e-11
2.21248e-11
2.32581e-11
2.44448e-11
2.56869e-11
2.69863e-11
2.83449e-11
2.97646e-11
3.12476e-11
3.27956e-11
3.44106e-11
3.60946e-11
3.78493e-11
3.96767e-11
4.15784e-11
4.3556e-11
4.56113e-11
4.77455e-11
4.99599e-11
5.22557e-11
5.46339e-11
5.70949e-11
5.96394e-11
6.22674e-11
6.49786e-11
6.77726e-11
7.06481e-11
7.36038e-11
7.66374e-11
7.97463e-11
8.2927e-11
8.61753e-11
8.94861e-11
9.28533e-11
9.62698e-11
9.97272e-11
1.03216e-10
1.06724e-10
1.10239e-10
1.13747e-10
1.17229e-10
1.20668e-10
1.24041e-10
1.27324e-10
1.30488e-10
1.33503e-10
1.36333e-10
1.38939e-10
1.41275e-10
1.43293e-10
1.44936e-10
1.46141e-10
1.46839e-10
1.4695e-10
1.46387e-10
1.4505e-10
1.42829e-10
1.39598e-10
1.35218e-10
1.29527e-10
1.22343e-10
1.13456e-10
1.0262e-10
8.95353e-11
7.38553e-11
5.52712e-11
3.33103e-11
5.08132e-12
-3.40251e-11
-5.92991e-11
8.49823e-12
7.98472e-12
7.53045e-12
7.33113e-12
7.2799e-12
7.32207e-12
7.43677e-12
7.60971e-12
7.83013e-12
8.09083e-12
8.38711e-12
8.71591e-12
9.07531e-12
9.46414e-12
9.88182e-12
1.03282e-11
1.08034e-11
1.13079e-11
1.18423e-11
1.24073e-11
1.30039e-11
1.3633e-11
1.42958e-11
1.49934e-11
1.57271e-11
1.64982e-11
1.73081e-11
1.81583e-11
1.90501e-11
1.99852e-11
2.0965e-11
2.19912e-11
2.30654e-11
2.41892e-11
2.53642e-11
2.65922e-11
2.78747e-11
2.92135e-11
3.06101e-11
3.20663e-11
3.35835e-11
3.51634e-11
3.68074e-11
3.8517e-11
4.02935e-11
4.21381e-11
4.40519e-11
4.6036e-11
4.80911e-11
5.02179e-11
5.24167e-11
5.46877e-11
5.70309e-11
5.94457e-11
6.19313e-11
6.44866e-11
6.71098e-11
6.97988e-11
7.25508e-11
7.53624e-11
7.82296e-11
8.11473e-11
8.41098e-11
8.71103e-11
9.01408e-11
9.31923e-11
9.62544e-11
9.93149e-11
1.0236e-10
1.05375e-10
1.08341e-10
1.1124e-10
1.14048e-10
1.1674e-10
1.19289e-10
1.21661e-10
1.23823e-10
1.25734e-10
1.27349e-10
1.2862e-10
1.2949e-10
1.29898e-10
1.29775e-10
1.29044e-10
1.27619e-10
1.25404e-10
1.22293e-10
1.18166e-10
1.12888e-10
1.06309e-10
9.82571e-11
8.85397e-11
7.69331e-11
6.3171e-11
4.69609e-11
2.81115e-11
6.2999e-12
-2.1738e-11
-6.13252e-11
-7.99113e-11
9.53995e-12
9.03475e-12
8.58912e-12
8.36212e-12
8.2691e-12
8.26826e-12
8.3426e-12
8.47911e-12
8.66734e-12
8.89982e-12
9.17141e-12
9.47853e-12
9.81872e-12
1.01904e-11
1.05925e-11
1.10246e-11
1.14865e-11
1.19784e-11
1.25006e-11
1.30537e-11
1.36384e-11
1.42554e-11
1.49058e-11
1.55906e-11
1.63108e-11
1.70677e-11
1.78624e-11
1.86962e-11
1.95705e-11
2.04866e-11
2.14459e-11
2.24499e-11
2.35e-11
2.45975e-11
2.57441e-11
2.69411e-11
2.81901e-11
2.94924e-11
3.08494e-11
3.22626e-11
3.37334e-11
3.52628e-11
3.68523e-11
3.85029e-11
4.02156e-11
4.19914e-11
4.38311e-11
4.57351e-11
4.77041e-11
4.97381e-11
5.18373e-11
5.40012e-11
5.62294e-11
5.85208e-11
6.08743e-11
6.32879e-11
6.57596e-11
6.82866e-11
7.08654e-11
7.34921e-11
7.61618e-11
7.88691e-11
8.16073e-11
8.4369e-11
8.71454e-11
8.99267e-11
9.27016e-11
9.54573e-11
9.81793e-11
1.00851e-10
1.03455e-10
1.05969e-10
1.0837e-10
1.10633e-10
1.12728e-10
1.14624e-10
1.16282e-10
1.17664e-10
1.18723e-10
1.19411e-10
1.19671e-10
1.19441e-10
1.18653e-10
1.1723e-10
1.15089e-10
1.12134e-10
1.08261e-10
1.03355e-10
9.72875e-11
8.99148e-11
8.10779e-11
7.06001e-11
5.82823e-11
4.38937e-11
2.71985e-11
8.13415e-12
-1.34251e-11
-4.11484e-11
-8.25727e-11
-9.36875e-11
1.04285e-11
9.94612e-12
9.51768e-12
9.27837e-12
9.15895e-12
9.12719e-12
9.16984e-12
9.27574e-12
9.43535e-12
9.64151e-12
9.88898e-12
1.0174e-11
1.04938e-11
1.08464e-11
1.12307e-11
1.16458e-11
1.20913e-11
1.25671e-11
1.30733e-11
1.36104e-11
1.41788e-11
1.47792e-11
1.54124e-11
1.60791e-11
1.67804e-11
1.75173e-11
1.82908e-11
1.9102e-11
1.99522e-11
2.08425e-11
2.17741e-11
2.27483e-11
2.37664e-11
2.48296e-11
2.59391e-11
2.70963e-11
2.83024e-11
2.95586e-11
3.08661e-11
3.2226e-11
3.36395e-11
3.51074e-11
3.66309e-11
3.82106e-11
3.98473e-11
4.15417e-11
4.32941e-11
4.51048e-11
4.69738e-11
4.89011e-11
5.08861e-11
5.29283e-11
5.50265e-11
5.71794e-11
5.93852e-11
6.16417e-11
6.39461e-11
6.62951e-11
6.86849e-11
7.11109e-11
7.35677e-11
7.6049e-11
7.85479e-11
8.10561e-11
8.35644e-11
8.60622e-11
8.85377e-11
9.09772e-11
9.33658e-11
9.56865e-11
9.792e-11
1.00045e-10
1.02038e-10
1.03873e-10
1.05519e-10
1.06945e-10
1.08112e-10
1.08982e-10
1.09509e-10
1.09643e-10
1.09329e-10
1.08507e-10
1.07109e-10
1.0506e-10
1.02279e-10
9.86752e-11
9.41492e-11
8.85915e-11
8.18816e-11
7.38878e-11
6.4466e-11
5.34607e-11
4.07021e-11
2.59995e-11
9.17789e-12
-9.70027e-12
-3.05491e-11
-5.72353e-11
-9.90234e-11
-1.04288e-10
1.12047e-11
1.07495e-11
1.03417e-11
1.00993e-11
9.96406e-12
9.91061e-12
9.92888e-12
1.00096e-11
1.01445e-11
1.03269e-11
1.05517e-11
1.08153e-11
1.11146e-11
1.14478e-11
1.18132e-11
1.221e-11
1.26374e-11
1.30953e-11
1.35835e-11
1.41023e-11
1.4652e-11
1.5233e-11
1.58461e-11
1.64918e-11
1.7171e-11
1.78846e-11
1.86333e-11
1.94183e-11
2.02406e-11
2.1101e-11
2.20008e-11
2.2941e-11
2.39227e-11
2.49468e-11
2.60147e-11
2.71272e-11
2.82854e-11
2.94903e-11
3.07429e-11
3.2044e-11
3.33946e-11
3.47953e-11
3.62468e-11
3.77497e-11
3.93043e-11
4.09111e-11
4.257e-11
4.4281e-11
4.60439e-11
4.7858e-11
4.97226e-11
5.16367e-11
5.35987e-11
5.56069e-11
5.76591e-11
5.97526e-11
6.18842e-11
6.40501e-11
6.6246e-11
6.84668e-11
7.07066e-11
7.29588e-11
7.52157e-11
7.74686e-11
7.97078e-11
8.19223e-11
8.40996e-11
8.62258e-11
8.82852e-11
9.02606e-11
9.21325e-11
9.38792e-11
9.54768e-11
9.68984e-11
9.81146e-11
9.90925e-11
9.97958e-11
1.00184e-10
1.00214e-10
9.98362e-11
9.89966e-11
9.76363e-11
9.56901e-11
9.30868e-11
8.97479e-11
8.55878e-11
8.05129e-11
7.44215e-11
6.7203e-11
5.87383e-11
4.89e-11
3.75544e-11
2.45604e-11
9.76403e-12
-6.95963e-12
-2.54582e-11
-4.55109e-11
-7.11656e-11
-1.12702e-10
-1.14676e-10
1.18982e-11
1.14708e-11
1.10847e-11
1.08453e-11
1.0702e-11
1.06342e-11
1.06345e-11
1.06954e-11
1.08097e-11
1.09715e-11
1.11762e-11
1.142e-11
1.17002e-11
1.20146e-11
1.23616e-11
1.27401e-11
1.31494e-11
1.35891e-11
1.40588e-11
1.45587e-11
1.5089e-11
1.56499e-11
1.6242e-11
1.68658e-11
1.7522e-11
1.82112e-11
1.89342e-11
1.96919e-11
2.0485e-11
2.13146e-11
2.21814e-11
2.30863e-11
2.40304e-11
2.50144e-11
2.60394e-11
2.7106e-11
2.82152e-11
2.93678e-11
3.05645e-11
3.18059e-11
3.30927e-11
3.44254e-11
3.58043e-11
3.72298e-11
3.8702e-11
4.02208e-11
4.17862e-11
4.33976e-11
4.50546e-11
4.67562e-11
4.85013e-11
5.02885e-11
5.21159e-11
5.39814e-11
5.58823e-11
5.78157e-11
5.97779e-11
6.17647e-11
6.37714e-11
6.57924e-11
6.78215e-11
6.98515e-11
7.18744e-11
7.38812e-11
7.58616e-11
7.78043e-11
7.96964e-11
8.15236e-11
8.32702e-11
8.49184e-11
8.64487e-11
8.78392e-11
8.90659e-11
9.01021e-11
9.09186e-11
9.14827e-11
9.17588e-11
9.17075e-11
9.12855e-11
9.04455e-11
8.91353e-11
8.72979e-11
8.4871e-11
8.17867e-11
7.7971e-11
7.33436e-11
6.78176e-11
6.12993e-11
5.36887e-11
4.48794e-11
3.47602e-11
2.32173e-11
1.01347e-11
-4.61224e-12
-2.11125e-11
-3.91561e-11
-5.84593e-11
-8.33337e-11
-1.24962e-10
-1.24376e-10
1.2526e-11
1.21249e-11
1.176e-11
1.15269e-11
1.13804e-11
1.13036e-11
1.12909e-11
1.13363e-11
1.14336e-11
1.15777e-11
1.17643e-11
1.19901e-11
1.22523e-11
1.25488e-11
1.28779e-11
1.32385e-11
1.36297e-11
1.40509e-11
1.45019e-11
1.49826e-11
1.54929e-11
1.60331e-11
1.66036e-11
1.72047e-11
1.7837e-11
1.85011e-11
1.91975e-11
1.9927e-11
2.06902e-11
2.14879e-11
2.23208e-11
2.31897e-11
2.40953e-11
2.50383e-11
2.60195e-11
2.70395e-11
2.80989e-11
2.91985e-11
3.03386e-11
3.15197e-11
3.27423e-11
3.40065e-11
3.53126e-11
3.66606e-11
3.80503e-11
3.94815e-11
4.09537e-11
4.24662e-11
4.40182e-11
4.56084e-11
4.72354e-11
4.88975e-11
5.05924e-11
5.23178e-11
5.40706e-11
5.58474e-11
5.76443e-11
5.94567e-11
6.12795e-11
6.31068e-11
6.49321e-11
6.67478e-11
6.85455e-11
7.03159e-11
7.20485e-11
7.37316e-11
7.53521e-11
7.68956e-11
7.83461e-11
7.96857e-11
8.08949e-11
8.19519e-11
8.28328e-11
8.35113e-11
8.39584e-11
8.41422e-11
8.40279e-11
8.3577e-11
8.27477e-11
8.14943e-11
7.97666e-11
7.75104e-11
7.46665e-11
7.11707e-11
6.69539e-11
6.19413e-11
5.60531e-11
4.9204e-11
4.13041e-11
3.22593e-11
2.19732e-11
1.03498e-11
-2.70628e-12
-1.72965e-11
-3.3484e-11
-5.10183e-11
-6.95779e-11
-9.36997e-11
-1.35208e-10
-1.32131e-10
1.30983e-11
1.27213e-11
1.23765e-11
1.21514e-11
1.20049e-11
1.19228e-11
1.19008e-11
1.19339e-11
1.20171e-11
1.21459e-11
1.23164e-11
1.25257e-11
1.27709e-11
1.30503e-11
1.3362e-11
1.37049e-11
1.4078e-11
1.44807e-11
1.49127e-11
1.53737e-11
1.58636e-11
1.63825e-11
1.69308e-11
1.75085e-11
1.81163e-11
1.87544e-11
1.94234e-11
2.01238e-11
2.08562e-11
2.16212e-11
2.24193e-11
2.32512e-11
2.41175e-11
2.50187e-11
2.59553e-11
2.69279e-11
2.79368e-11
2.89826e-11
3.00656e-11
3.11859e-11
3.23438e-11
3.35393e-11
3.47723e-11
3.60426e-11
3.73499e-11
3.86937e-11
4.00732e-11
4.14874e-11
4.29353e-11
4.44153e-11
4.59257e-11
4.74645e-11
4.90292e-11
5.0617e-11
5.22246e-11
5.38484e-11
5.5484e-11
5.71267e-11
5.8771e-11
6.04108e-11
6.2039e-11
6.3648e-11
6.52292e-11
6.6773e-11
6.82686e-11
6.97041e-11
7.10664e-11
7.2341e-11
7.35118e-11
7.4561e-11
7.54691e-11
7.62148e-11
7.67743e-11
7.71218e-11
7.72289e-11
7.70647e-11
7.65952e-11
7.57834e-11
7.45891e-11
7.29683e-11
7.08736e-11
6.82533e-11
6.50517e-11
6.12089e-11
5.66605e-11
5.13378e-11
4.51677e-11
3.80732e-11
2.99741e-11
2.07877e-11
1.0431e-11
-1.17704e-12
-1.41146e-11
-2.84654e-11
-4.42732e-11
-6.12587e-11
-7.9073e-11
-1.02427e-10
-1.43615e-10
-1.38287e-10
1.36225e-11
1.32675e-11
1.29414e-11
1.2725e-11
1.25807e-11
1.24958e-11
1.2467e-11
1.24906e-11
1.2562e-11
1.26775e-11
1.28336e-11
1.30275e-11
1.3257e-11
1.35198e-11
1.38146e-11
1.41401e-11
1.44953e-11
1.48795e-11
1.52922e-11
1.57332e-11
1.62024e-11
1.66996e-11
1.72251e-11
1.77789e-11
1.83614e-11
1.8973e-11
1.96139e-11
2.02845e-11
2.09854e-11
2.1717e-11
2.24797e-11
2.32739e-11
2.41001e-11
2.49588e-11
2.58502e-11
2.67748e-11
2.77328e-11
2.87244e-11
2.97497e-11
3.08089e-11
3.19019e-11
3.30286e-11
3.41885e-11
3.53815e-11
3.66068e-11
3.78636e-11
3.91511e-11
4.04681e-11
4.18131e-11
4.31844e-11
4.458e-11
4.59976e-11
4.74346e-11
4.88878e-11
5.03537e-11
5.18283e-11
5.33072e-11
5.47853e-11
5.62567e-11
5.77153e-11
5.91537e-11
6.05642e-11
6.19379e-11
6.32649e-11
6.45346e-11
6.57349e-11
6.68526e-11
6.78733e-11
6.87809e-11
6.95578e-11
7.0185e-11
7.06411e-11
7.09032e-11
7.0946e-11
7.07419e-11
7.0261e-11
6.94706e-11
6.83352e-11
6.68162e-11
6.48721e-11
6.24578e-11
5.95248e-11
5.6021e-11
5.18907e-11
4.70745e-11
4.15095e-11
3.51293e-11
2.78649e-11
1.96451e-11
1.03973e-11
5.02414e-14
-1.14642e-11
-2.42104e-11
-3.82583e-11
-5.36375e-11
-7.00473e-11
-8.71194e-11
-1.09699e-10
-1.50432e-10
-1.43136e-10
1.41037e-11
1.37688e-11
1.34602e-11
1.32529e-11
1.31119e-11
1.3026e-11
1.29926e-11
1.30085e-11
1.307e-11
1.31739e-11
1.3317e-11
1.34969e-11
1.37113e-11
1.39585e-11
1.42369e-11
1.45452e-11
1.48826e-11
1.52483e-11
1.56418e-11
1.60627e-11
1.65108e-11
1.69859e-11
1.74882e-11
1.80177e-11
1.85746e-11
1.9159e-11
1.97713e-11
2.04117e-11
2.10805e-11
2.17781e-11
2.25048e-11
2.32608e-11
2.40466e-11
2.48623e-11
2.57081e-11
2.65843e-11
2.7491e-11
2.84281e-11
2.93958e-11
3.03938e-11
3.1422e-11
3.248e-11
3.35673e-11
3.46833e-11
3.58272e-11
3.6998e-11
3.81946e-11
3.94155e-11
4.06592e-11
4.19236e-11
4.32066e-11
4.45056e-11
4.58178e-11
4.71397e-11
4.84677e-11
4.97975e-11
5.11244e-11
5.24432e-11
5.3748e-11
5.50321e-11
5.62883e-11
5.75086e-11
5.8684e-11
5.98047e-11
6.08597e-11
6.18373e-11
6.27242e-11
6.3506e-11
6.4167e-11
6.46899e-11
6.50558e-11
6.52441e-11
6.52324e-11
6.49962e-11
6.45089e-11
6.37417e-11
6.26633e-11
6.12398e-11
5.94348e-11
5.72088e-11
5.45197e-11
5.13219e-11
4.75672e-11
4.32041e-11
3.8178e-11
3.24318e-11
2.59054e-11
1.85373e-11
1.02643e-11
1.02332e-12
-9.24721e-12
-2.06044e-11
-3.31017e-11
-4.6798e-11
-6.17125e-11
-7.7529e-11
-9.38654e-11
-1.15666e-10
-1.55835e-10
-1.46837e-10
1.45461e-11
1.42297e-11
1.39375e-11
1.37393e-11
1.36024e-11
1.35166e-11
1.348e-11
1.34899e-11
1.35431e-11
1.36366e-11
1.3768e-11
1.39348e-11
1.41352e-11
1.43673e-11
1.46297e-11
1.49213e-11
1.52411e-11
1.55884e-11
1.59626e-11
1.63633e-11
1.67902e-11
1.72431e-11
1.77219e-11
1.82267e-11
1.87576e-11
1.93145e-11
1.98978e-11
2.05075e-11
2.11439e-11
2.18071e-11
2.24974e-11
2.3215e-11
2.39599e-11
2.47323e-11
2.55324e-11
2.636e-11
2.72153e-11
2.8098e-11
2.90081e-11
2.99451e-11
3.09087e-11
3.18985e-11
3.29136e-11
3.39534e-11
3.50168e-11
3.61027e-11
3.72097e-11
3.83363e-11
3.94804e-11
4.06402e-11
4.1813e-11
4.29962e-11
4.41867e-11
4.5381e-11
4.6575e-11
4.77646e-11
4.89447e-11
5.011e-11
5.12543e-11
5.23711e-11
5.34529e-11
5.44916e-11
5.54782e-11
5.64029e-11
5.72548e-11
5.80222e-11
5.8692e-11
5.925e-11
5.96808e-11
5.99675e-11
6.00916e-11
6.00333e-11
5.97708e-11
5.92805e-11
5.8537e-11
5.75126e-11
5.61777e-11
5.45001e-11
5.24454e-11
4.99767e-11
4.70543e-11
4.36363e-11
3.96778e-11
3.51316e-11
2.9948e-11
2.4075e-11
1.7459e-11
1.00448e-11
1.77694e-12
-7.39978e-12
-1.75382e-11
-2.86865e-11
-4.0889e-11
-5.41962e-11
-6.86194e-11
-8.38314e-11
-9.94407e-11
-1.2046e-10
-1.59968e-10
-1.4951e-10
1.49527e-11
1.46534e-11
1.43767e-11
1.41876e-11
1.40552e-11
1.39705e-11
1.39318e-11
1.39368e-11
1.39828e-11
1.40672e-11
1.41878e-11
1.43425e-11
1.45295e-11
1.47472e-11
1.49942e-11
1.52694e-11
1.55719e-11
1.59009e-11
1.62559e-11
1.66364e-11
1.70419e-11
1.74724e-11
1.79277e-11
1.84076e-11
1.89122e-11
1.94414e-11
1.99954e-11
2.05742e-11
2.11779e-11
2.18065e-11
2.24602e-11
2.3139e-11
2.3843e-11
2.45721e-11
2.53263e-11
2.61054e-11
2.69094e-11
2.77378e-11
2.85905e-11
2.94669e-11
3.03665e-11
3.12886e-11
3.22325e-11
3.3197e-11
3.41811e-11
3.51834e-11
3.62024e-11
3.72363e-11
3.82831e-11
3.93405e-11
4.04058e-11
4.14763e-11
4.25486e-11
4.3619e-11
4.46835e-11
4.57376e-11
4.67762e-11
4.77938e-11
4.87843e-11
4.97409e-11
5.06562e-11
5.1522e-11
5.23294e-11
5.30686e-11
5.37289e-11
5.42986e-11
5.47649e-11
5.5114e-11
5.53308e-11
5.53988e-11
5.53003e-11
5.50159e-11
5.45248e-11
5.38045e-11
5.28306e-11
5.15769e-11
5.00153e-11
4.81155e-11
4.58453e-11
4.31701e-11
4.00532e-11
3.64558e-11
3.23366e-11
2.76524e-11
2.23582e-11
1.64071e-11
9.7509e-12
2.34082e-12
-5.87215e-12
-1.4936e-11
-2.48963e-11
-3.57936e-11
-4.76649e-11
-6.05543e-11
-7.44666e-11
-8.90678e-11
-1.0396e-10
-1.24196e-10
-1.62957e-10
-1.51253e-10
1.53262e-11
1.5043e-11
1.4781e-11
1.46007e-11
1.44733e-11
1.43902e-11
1.43501e-11
1.43512e-11
1.43909e-11
1.44672e-11
1.45779e-11
1.47213e-11
1.48956e-11
1.50994e-11
1.53314e-11
1.55906e-11
1.58761e-11
1.61871e-11
1.65229e-11
1.68832e-11
1.72675e-11
1.76755e-11
1.81071e-11
1.8562e-11
1.90402e-11
1.95416e-11
2.00661e-11
2.06139e-11
2.11847e-11
2.17787e-11
2.23957e-11
2.30357e-11
2.36987e-11
2.43845e-11
2.50929e-11
2.58237e-11
2.65766e-11
2.73512e-11
2.81469e-11
2.89633e-11
2.97995e-11
3.06549e-11
3.15283e-11
3.24187e-11
3.33248e-11
3.42451e-11
3.51779e-11
3.61212e-11
3.70729e-11
3.80305e-11
3.89914e-11
3.99523e-11
4.091e-11
4.18607e-11
4.28002e-11
4.37237e-11
4.46264e-11
4.55024e-11
4.63457e-11
4.71494e-11
4.79062e-11
4.8608e-11
4.92457e-11
4.98099e-11
5.02899e-11
5.06743e-11
5.09507e-11
5.11054e-11
5.11239e-11
5.09903e-11
5.06875e-11
5.0197e-11
4.94987e-11
4.85713e-11
4.73916e-11
4.5935e-11
4.41749e-11
4.2083e-11
3.96291e-11
3.67812e-11
3.35055e-11
2.9766e-11
2.55251e-11
2.07437e-11
1.53807e-11
9.3943e-12
2.7414e-12
-4.62131e-12
-1.27368e-11
-2.1647e-11
-3.1391e-11
-4.20033e-11
-5.35148e-11
-6.59641e-11
-7.93516e-11
-9.33389e-11
-1.07525e-10
-1.26977e-10
-1.6491e-10
-1.52156e-10
1.5669e-11
1.54009e-11
1.51529e-11
1.49813e-11
1.48589e-11
1.47779e-11
1.47371e-11
1.47349e-11
1.47692e-11
1.4838e-11
1.49396e-11
1.50723e-11
1.52345e-11
1.5425e-11
1.56426e-11
1.58861e-11
1.61548e-11
1.64479e-11
1.67649e-11
1.71051e-11
1.74681e-11
1.78538e-11
1.82616e-11
1.86915e-11
1.91433e-11
1.96168e-11
2.01119e-11
2.06286e-11
2.11666e-11
2.17258e-11
2.23063e-11
2.29076e-11
2.35298e-11
2.41725e-11
2.48354e-11
2.55181e-11
2.62204e-11
2.69415e-11
2.76809e-11
2.8438e-11
2.92118e-11
3.00013e-11
3.08056e-11
3.16232e-11
3.24529e-11
3.32928e-11
3.41413e-11
3.49963e-11
3.58554e-11
3.6716e-11
3.75754e-11
3.84303e-11
3.92773e-11
4.01124e-11
4.09314e-11
4.17296e-11
4.25018e-11
4.32425e-11
4.39453e-11
4.46036e-11
4.521e-11
4.57564e-11
4.62341e-11
4.66336e-11
4.69446e-11
4.71559e-11
4.72554e-11
4.723e-11
4.70656e-11
4.6747e-11
4.62576e-11
4.558e-11
4.4695e-11
4.35824e-11
4.22204e-11
4.05857e-11
3.86534e-11
3.63974e-11
3.37894e-11
3.08e-11
2.73979e-11
2.35505e-11
1.92233e-11
1.4381e-11
8.98658e-12
3.00255e-12
-3.60934e-12
-1.08874e-11
-1.88694e-11
-2.75917e-11
-3.70882e-11
-4.73878e-11
-5.85169e-11
-7.05094e-11
-8.33624e-11
-9.67354e-11
-1.10226e-10
-1.28894e-10
-1.65928e-10
-1.52298e-10
1.59829e-11
1.57293e-11
1.54947e-11
1.53316e-11
1.52143e-11
1.51356e-11
1.50945e-11
1.50896e-11
1.51191e-11
1.51812e-11
1.52743e-11
1.53969e-11
1.55476e-11
1.57253e-11
1.59287e-11
1.6157e-11
1.64093e-11
1.66848e-11
1.6983e-11
1.73033e-11
1.76453e-11
1.80086e-11
1.83929e-11
1.87979e-11
1.92233e-11
1.9669e-11
2.01347e-11
2.06203e-11
2.11256e-11
2.16503e-11
2.21943e-11
2.27572e-11
2.33388e-11
2.39387e-11
2.45565e-11
2.51917e-11
2.58438e-11
2.65122e-11
2.71961e-11
2.78947e-11
2.8607e-11
2.9332e-11
3.00683e-11
3.08147e-11
3.15696e-11
3.23312e-11
3.30975e-11
3.38664e-11
3.46355e-11
3.54022e-11
3.61633e-11
3.69158e-11
3.76559e-11
3.83798e-11
3.90831e-11
3.97612e-11
4.04088e-11
4.10202e-11
4.15894e-11
4.21096e-11
4.25736e-11
4.29733e-11
4.33004e-11
4.35455e-11
4.36985e-11
4.37486e-11
4.36841e-11
4.34924e-11
4.316e-11
4.26722e-11
4.20134e-11
4.11669e-11
4.01147e-11
3.88376e-11
3.73152e-11
3.55257e-11
3.34461e-11
3.10519e-11
2.83171e-11
2.52147e-11
2.17162e-11
1.77915e-11
1.34098e-11
8.53898e-12
3.14605e-12
-2.80256e-12
-9.34073e-12
-1.65022e-11
-2.43201e-11
-3.28261e-11
-4.20494e-11
-5.20144e-11
-6.27434e-11
-7.42668e-11
-8.65789e-11
-9.93393e-11
-1.12147e-10
-1.30032e-10
-1.66099e-10
-1.5175e-10
1.62699e-11
1.60299e-11
1.58083e-11
1.56535e-11
1.55414e-11
1.54653e-11
1.54242e-11
1.54171e-11
1.54423e-11
1.54981e-11
1.55832e-11
1.56963e-11
1.5836e-11
1.60013e-11
1.61911e-11
1.64045e-11
1.66407e-11
1.68989e-11
1.71786e-11
1.74793e-11
1.78004e-11
1.81416e-11
1.85024e-11
1.88826e-11
1.92818e-11
1.96998e-11
2.01364e-11
2.05912e-11
2.10639e-11
2.15543e-11
2.20621e-11
2.25869e-11
2.31283e-11
2.36858e-11
2.4259e-11
2.48473e-11
2.545e-11
2.60665e-11
2.66957e-11
2.73369e-11
2.79889e-11
2.86505e-11
2.93205e-11
2.99973e-11
3.06792e-11
3.13644e-11
3.20509e-11
3.27363e-11
3.34182e-11
3.40938e-11
3.47601e-11
3.54138e-11
3.60512e-11
3.66683e-11
3.72608e-11
3.7824e-11
3.83526e-11
3.88411e-11
3.92834e-11
3.96729e-11
4.00024e-11
4.02642e-11
4.04499e-11
4.05505e-11
4.05563e-11
4.04568e-11
4.02408e-11
3.98962e-11
3.941e-11
3.87683e-11
3.79564e-11
3.69584e-11
3.57573e-11
3.43352e-11
3.26731e-11
3.07507e-11
2.85465e-11
2.60381e-11
2.32017e-11
2.00124e-11
1.64443e-11
1.24702e-11
8.06235e-12
3.19184e-12
-2.17073e-12
-8.05517e-12
-1.44914e-11
-2.15092e-11
-2.91374e-11
-3.74036e-11
-4.63327e-11
-5.59458e-11
-6.62613e-11
-7.73068e-11
-8.90744e-11
-1.01226e-10
-1.13363e-10
-1.30465e-10
-1.65507e-10
-1.5058e-10
1.65315e-11
1.63048e-11
1.60956e-11
1.59489e-11
1.5842e-11
1.57685e-11
1.57278e-11
1.57188e-11
1.57401e-11
1.57901e-11
1.58678e-11
1.59718e-11
1.6101e-11
1.62543e-11
1.64308e-11
1.66297e-11
1.68501e-11
1.70914e-11
1.7353e-11
1.76342e-11
1.79347e-11
1.82539e-11
1.85916e-11
1.89472e-11
1.93205e-11
1.97111e-11
2.01187e-11
2.05429e-11
2.09834e-11
2.14399e-11
2.19119e-11
2.2399e-11
2.29007e-11
2.34165e-11
2.39457e-11
2.44878e-11
2.50419e-11
2.56073e-11
2.61829e-11
2.67678e-11
2.73608e-11
2.79606e-11
2.85658e-11
2.91747e-11
2.97856e-11
3.03967e-11
3.10056e-11
3.16102e-11
3.22078e-11
3.27956e-11
3.33705e-11
3.39291e-11
3.44679e-11
3.49827e-11
3.54693e-11
3.59228e-11
3.63383e-11
3.67101e-11
3.70322e-11
3.72983e-11
3.75012e-11
3.76334e-11
3.76869e-11
3.76528e-11
3.75219e-11
3.72841e-11
3.69285e-11
3.64437e-11
3.58174e-11
3.50365e-11
3.40868e-11
3.29536e-11
3.16211e-11
3.00724e-11
2.82898e-11
2.62546e-11
2.39471e-11
2.13466e-11
1.84314e-11
1.51789e-11
1.15656e-11
7.56702e-12
3.15819e-12
-1.68662e-12
-6.99353e-12
-1.27889e-11
-1.90992e-11
-2.59503e-11
-3.33674e-11
-4.13745e-11
-4.9993e-11
-5.92406e-11
-6.91328e-11
-7.96946e-11
-9.09164e-11
-1.02463e-10
-1.13941e-10
-1.30264e-10
-1.64228e-10
-1.4885e-10
1.67693e-11
1.65554e-11
1.63582e-11
1.62195e-11
1.61177e-11
1.6047e-11
1.60068e-11
1.59962e-11
1.60139e-11
1.60586e-11
1.61292e-11
1.62245e-11
1.63436e-11
1.64854e-11
1.66491e-11
1.68338e-11
1.70389e-11
1.72635e-11
1.75072e-11
1.77694e-11
1.80495e-11
1.83472e-11
1.86619e-11
1.89933e-11
1.93409e-11
1.97044e-11
2.00834e-11
2.04774e-11
2.08862e-11
2.13091e-11
2.17458e-11
2.21958e-11
2.26584e-11
2.31331e-11
2.36191e-11
2.41158e-11
2.46223e-11
2.51376e-11
2.56608e-11
2.61907e-11
2.67261e-11
2.72656e-11
2.78076e-11
2.83506e-11
2.88926e-11
2.94317e-11
2.99656e-11
3.04921e-11
3.10083e-11
3.15115e-11
3.19986e-11
3.24661e-11
3.29103e-11
3.33274e-11
3.37129e-11
3.40622e-11
3.43702e-11
3.46315e-11
3.48401e-11
3.49899e-11
3.50739e-11
3.50848e-11
3.50149e-11
3.48557e-11
3.45982e-11
3.42328e-11
3.37492e-11
3.31366e-11
3.23832e-11
3.14768e-11
3.0404e-11
2.91511e-11
2.77033e-11
2.60451e-11
2.41599e-11
2.20307e-11
1.96393e-11
1.69669e-11
1.39938e-11
1.06995e-11
7.06274e-12
3.06183e-12
-1.32564e-12
-6.1225e-12
-1.13518e-11
-1.70369e-11
-2.32006e-11
-2.98659e-11
-3.70544e-11
-4.47868e-11
-5.30816e-11
-6.19535e-11
-7.14156e-11
-8.14905e-11
-9.21674e-11
-1.03115e-10
-1.13947e-10
-1.29493e-10
-1.62333e-10
-1.46619e-10
1.69847e-11
1.67832e-11
1.65977e-11
1.64667e-11
1.637e-11
1.63022e-11
1.62627e-11
1.62507e-11
1.62652e-11
1.63048e-11
1.63687e-11
1.64558e-11
1.65652e-11
1.66959e-11
1.68471e-11
1.70181e-11
1.72081e-11
1.74165e-11
1.76427e-11
1.78861e-11
1.81463e-11
1.84227e-11
1.87148e-11
1.90223e-11
1.93446e-11
1.96814e-11
2.00322e-11
2.03966e-11
2.0774e-11
2.11639e-11
2.15659e-11
2.19794e-11
2.24036e-11
2.28379e-11
2.32816e-11
2.37339e-11
2.41937e-11
2.46602e-11
2.51321e-11
2.56084e-11
2.60877e-11
2.65685e-11
2.70493e-11
2.75282e-11
2.80035e-11
2.84731e-11
2.89346e-11
2.93857e-11
2.98236e-11
3.02456e-11
3.06483e-11
3.10286e-11
3.13826e-11
3.17064e-11
3.19957e-11
3.2246e-11
3.24522e-11
3.26091e-11
3.27108e-11
3.27513e-11
3.27239e-11
3.26216e-11
3.24369e-11
3.21616e-11
3.17873e-11
3.13047e-11
3.07042e-11
2.99754e-11
2.91073e-11
2.80884e-11
2.69064e-11
2.55482e-11
2.40004e-11
2.22484e-11
2.02773e-11
1.80712e-11
1.56138e-11
1.28878e-11
9.87555e-12
6.5586e-12
2.91802e-12
-1.06563e-12
-5.41218e-12
-1.01417e-11
-1.52746e-11
-2.08311e-11
-2.68312e-11
-3.32946e-11
-4.02403e-11
-4.76859e-11
-5.5647e-11
-6.4136e-11
-7.31638e-11
-8.27509e-11
-9.28853e-11
-1.03242e-10
-1.1344e-10
-1.28214e-10
-1.5989e-10
-1.43943e-10
1.71791e-11
1.69896e-11
1.68154e-11
1.66921e-11
1.66004e-11
1.65354e-11
1.64967e-11
1.64836e-11
1.64951e-11
1.653e-11
1.65875e-11
1.66668e-11
1.67668e-11
1.68867e-11
1.70259e-11
1.71835e-11
1.73589e-11
1.75514e-11
1.77605e-11
1.79856e-11
1.82262e-11
1.84817e-11
1.87517e-11
1.90357e-11
1.93332e-11
1.96438e-11
1.99669e-11
2.0302e-11
2.06487e-11
2.10063e-11
2.13742e-11
2.17518e-11
2.21385e-11
2.25333e-11
2.29356e-11
2.33444e-11
2.37588e-11
2.41776e-11
2.45997e-11
2.50238e-11
2.54486e-11
2.58725e-11
2.62938e-11
2.67109e-11
2.71217e-11
2.75241e-11
2.79158e-11
2.82944e-11
2.86572e-11
2.90012e-11
2.93233e-11
2.96202e-11
2.98881e-11
3.01232e-11
3.03212e-11
3.04777e-11
3.05878e-11
3.06462e-11
3.06474e-11
3.05854e-11
3.0454e-11
3.02463e-11
2.9955e-11
2.95726e-11
2.90908e-11
2.8501e-11
2.7794e-11
2.69601e-11
2.5989e-11
2.48699e-11
2.35914e-11
2.21415e-11
2.05077e-11
1.86767e-11
1.66348e-11
1.43676e-11
1.18603e-11
9.09743e-12
6.06298e-12
2.74058e-12
-8.86607e-13
-4.83575e-12
-9.12431e-12
-1.37699e-11
-1.87902e-11
-2.42027e-11
-3.0025e-11
-3.62738e-11
-4.29653e-11
-5.01147e-11
-5.77351e-11
-6.58366e-11
-7.44282e-11
-8.35284e-11
-9.31245e-11
-1.02898e-10
-1.12475e-10
-1.26483e-10
-1.56963e-10
-1.40875e-10
1.73539e-11
1.71759e-11
1.70128e-11
1.68969e-11
1.68101e-11
1.6748e-11
1.67103e-11
1.66962e-11
1.67048e-11
1.67354e-11
1.67869e-11
1.68585e-11
1.69496e-11
1.70592e-11
1.71867e-11
1.73313e-11
1.74925e-11
1.76696e-11
1.7862e-11
1.80691e-11
1.82905e-11
1.85256e-11
1.87739e-11
1.90349e-11
1.93081e-11
1.95929e-11
1.98889e-11
2.01955e-11
2.0512e-11
2.08379e-11
2.11725e-11
2.15152e-11
2.18651e-11
2.22214e-11
2.25833e-11
2.29498e-11
2.33199e-11
2.36923e-11
2.4066e-11
2.44395e-11
2.48114e-11
2.51802e-11
2.55442e-11
2.59015e-11
2.62501e-11
2.65879e-11
2.69125e-11
2.72215e-11
2.75122e-11
2.77817e-11
2.80267e-11
2.82441e-11
2.84302e-11
2.8581e-11
2.86926e-11
2.87604e-11
2.87798e-11
2.87456e-11
2.86525e-11
2.84949e-11
2.82664e-11
2.79608e-11
2.7571e-11
2.70898e-11
2.65095e-11
2.58219e-11
2.50184e-11
2.40899e-11
2.30267e-11
2.1819e-11
2.04561e-11
1.8927e-11
1.72202e-11
1.53237e-11
1.32249e-11
1.0911e-11
8.36847e-12
5.58355e-12
2.54204e-12
-7.706e-13
-4.3692e-12
-8.26882e-12
-1.24847e-11
-1.7032e-11
-2.19261e-11
-2.71822e-11
-3.2815e-11
-3.88389e-11
-4.52677e-11
-5.21141e-11
-5.9389e-11
-6.71007e-11
-7.52562e-11
-8.38725e-11
-9.29359e-11
-1.02135e-10
-1.11106e-10
-1.24355e-10
-1.53613e-10
-1.37467e-10
1.75102e-11
1.73435e-11
1.71911e-11
1.70824e-11
1.70005e-11
1.69413e-11
1.69045e-11
1.68896e-11
1.68957e-11
1.6922e-11
1.69678e-11
1.70322e-11
1.71147e-11
1.72143e-11
1.73305e-11
1.74626e-11
1.761e-11
1.7772e-11
1.79482e-11
1.81379e-11
1.83406e-11
1.85557e-11
1.87828e-11
1.90214e-11
1.92707e-11
1.95305e-11
1.97999e-11
2.00785e-11
2.03657e-11
2.06606e-11
2.09628e-11
2.12713e-11
2.15854e-11
2.19043e-11
2.22269e-11
2.25522e-11
2.28793e-11
2.32068e-11
2.35335e-11
2.3858e-11
2.41789e-11
2.44944e-11
2.4803e-11
2.51027e-11
2.53915e-11
2.56672e-11
2.59275e-11
2.61699e-11
2.63916e-11
2.65899e-11
2.67616e-11
2.69034e-11
2.70117e-11
2.70827e-11
2.71125e-11
2.70968e-11
2.70308e-11
2.69098e-11
2.67285e-11
2.64815e-11
2.61629e-11
2.57666e-11
2.5286e-11
2.47142e-11
2.40438e-11
2.32674e-11
2.23767e-11
2.13634e-11
2.02185e-11
1.89328e-11
1.74967e-11
1.59e-11
1.41322e-11
1.21825e-11
1.00396e-11
7.6918e-12
5.12725e-12
2.33365e-12
-7.01517e-13
-3.99102e-12
-7.54779e-12
-1.13849e-11
-1.55155e-11
-1.99526e-11
-2.47093e-11
-2.97985e-11
-3.52327e-11
-4.1024e-11
-4.71838e-11
-5.37228e-11
-6.06498e-11
-6.79713e-11
-7.56929e-11
-8.38296e-11
-9.23675e-11
-1.01003e-10
-1.0938e-10
-1.2188e-10
-1.49896e-10
-1.33765e-10
1.76493e-11
1.74935e-11
1.73515e-11
1.72498e-11
1.71727e-11
1.71164e-11
1.70807e-11
1.70651e-11
1.70688e-11
1.70911e-11
1.71315e-11
1.7189e-11
1.72631e-11
1.73532e-11
1.74585e-11
1.75784e-11
1.77124e-11
1.78599e-11
1.80203e-11
1.8193e-11
1.83775e-11
1.85732e-11
1.87797e-11
1.89963e-11
1.92225e-11
1.94578e-11
1.97014e-11
1.99528e-11
2.02113e-11
2.04762e-11
2.07467e-11
2.1022e-11
2.13014e-11
2.15838e-11
2.18683e-11
2.21537e-11
2.24391e-11
2.27231e-11
2.30044e-11
2.32816e-11
2.35532e-11
2.38175e-11
2.40728e-11
2.43171e-11
2.45485e-11