/*--------------------------------*- C++ -*----------------------------------*\
  =========                 |
  \\      /  F ield         | OpenFOAM: The Open Source CFD Toolbox
   \\    /   O peration     | Website:  https://openfoam.org
    \\  /    A nd           | Version:  11
     \\/     M anipulation  |
\*---------------------------------------------------------------------------*/
FoamFile
{
    format      ascii;
    class       surfaceScalarField;
    location    "222";
    object      phi;
}
// * * * * * * * * * * * * * * * * * * * * * * * * * * * * * * * * * * * * * //

dimensions      [0 3 -1 0 0 0 0];

internalField   nonuniform List<scalar> 
19800
(
1.99951e-05
-5.00201e-08
1.9987e-05
-1.4818e-07
1.99768e-05
-2.46359e-07
1.99644e-05
-3.45992e-07
1.99499e-05
-4.48063e-07
1.99332e-05
-5.53222e-07
1.99143e-05
-6.61962e-07
1.98929e-05
-7.74682e-07
1.9869e-05
-8.91716e-07
1.98425e-05
-1.01335e-06
1.98131e-05
-1.13985e-06
1.97808e-05
-1.27144e-06
1.97454e-05
-1.40832e-06
1.97067e-05
-1.55068e-06
1.96644e-05
-1.69867e-06
1.96186e-05
-1.85244e-06
1.95689e-05
-2.0121e-06
1.95151e-05
-2.17772e-06
1.94571e-05
-2.34938e-06
1.93947e-05
-2.52708e-06
1.93276e-05
-2.71081e-06
1.92557e-05
-2.9005e-06
1.91787e-05
-3.09605e-06
1.90965e-05
-3.29729e-06
1.90089e-05
-3.50398e-06
1.89156e-05
-3.71583e-06
1.88165e-05
-3.93246e-06
1.87115e-05
-4.15341e-06
1.86004e-05
-4.37814e-06
1.84831e-05
-4.60598e-06
1.83595e-05
-4.83618e-06
1.82296e-05
-5.06787e-06
1.80933e-05
-5.30008e-06
1.79507e-05
-5.53173e-06
1.7802e-05
-5.76163e-06
1.76472e-05
-5.9885e-06
1.74866e-05
-6.21099e-06
1.73205e-05
-6.42771e-06
1.71493e-05
-6.63723e-06
1.69733e-05
-6.83815e-06
1.67931e-05
-7.02911e-06
1.66092e-05
-7.20883e-06
1.64222e-05
-7.37618e-06
1.62326e-05
-7.53017e-06
1.60412e-05
-7.67001e-06
1.58487e-05
-7.79512e-06
1.56559e-05
-7.90517e-06
1.54635e-05
-8.00011e-06
1.52718e-05
-8.0798e-06
1.50792e-05
-8.14404e-06
1.48855e-05
-8.1929e-06
1.46913e-05
-8.22707e-06
1.44969e-05
-8.24761e-06
1.43043e-05
-8.25585e-06
1.4116e-05
-8.2527e-06
1.3932e-05
-8.2383e-06
1.37521e-05
-8.21304e-06
1.35767e-05
-8.17757e-06
1.34055e-05
-8.13238e-06
1.32373e-05
-8.07831e-06
1.30716e-05
-8.0165e-06
1.29087e-05
-7.94765e-06
1.27487e-05
-7.87222e-06
1.25918e-05
-7.79068e-06
1.24379e-05
-7.7035e-06
1.22872e-05
-7.61114e-06
1.21395e-05
-7.51402e-06
1.1995e-05
-7.41251e-06
1.18536e-05
-7.307e-06
1.17154e-05
-7.19783e-06
1.15803e-05
-7.08532e-06
1.14484e-05
-6.9698e-06
1.13197e-05
-6.85155e-06
1.11942e-05
-6.73089e-06
1.1072e-05
-6.60809e-06
1.09529e-05
-6.48344e-06
1.08372e-05
-6.35724e-06
1.07248e-05
-6.22977e-06
1.06158e-05
-6.10133e-06
1.05102e-05
-5.97224e-06
1.04081e-05
-5.8428e-06
1.03095e-05
-5.71336e-06
1.02145e-05
-5.58426e-06
1.01232e-05
-5.45589e-06
1.00357e-05
-5.32862e-06
9.95194e-06
-5.2029e-06
9.87215e-06
-5.07916e-06
9.79639e-06
-4.9579e-06
9.72478e-06
-4.83966e-06
9.65744e-06
-4.72499e-06
9.59451e-06
-4.61455e-06
9.53616e-06
-4.50901e-06
9.48256e-06
-4.40916e-06
9.43392e-06
-4.31587e-06
9.39051e-06
-4.23013e-06
9.35263e-06
-4.15311e-06
9.32063e-06
-4.08617e-06
9.29504e-06
-4.03096e-06
9.27669e-06
-3.99006e-06
-3.96819e-06
1.99964e-05
-4.63745e-08
1.99887e-05
-1.40565e-07
1.99786e-05
-2.36174e-07
1.99662e-05
-3.33595e-07
1.99516e-05
-4.33513e-07
1.99349e-05
-5.3648e-07
1.99158e-05
-6.42944e-07
1.98944e-05
-7.53277e-07
1.98705e-05
-8.67798e-07
1.9844e-05
-9.86783e-07
1.98146e-05
-1.11048e-06
1.97822e-05
-1.23911e-06
1.97468e-05
-1.37287e-06
1.97081e-05
-1.51193e-06
1.96658e-05
-1.65646e-06
1.962e-05
-1.80657e-06
1.95703e-05
-1.96239e-06
1.95165e-05
-2.12398e-06
1.94585e-05
-2.2914e-06
1.93961e-05
-2.46467e-06
1.93291e-05
-2.64377e-06
1.92572e-05
-2.82862e-06
1.91803e-05
-3.01913e-06
1.90981e-05
-3.21513e-06
1.90106e-05
-3.4164e-06
1.89174e-05
-3.62263e-06
1.88184e-05
-3.83348e-06
1.87135e-05
-4.04849e-06
1.86025e-05
-4.26714e-06
1.84853e-05
-4.48879e-06
1.83618e-05
-4.71272e-06
1.8232e-05
-4.9381e-06
1.8096e-05
-5.16399e-06
1.79536e-05
-5.38937e-06
1.78051e-05
-5.61309e-06
1.76505e-05
-5.83395e-06
1.74902e-05
-6.05066e-06
1.73244e-05
-6.26188e-06
1.71534e-05
-6.46627e-06
1.69777e-05
-6.66246e-06
1.67978e-05
-6.84917e-06
1.66141e-05
-7.02517e-06
1.64273e-05
-7.18937e-06
1.62379e-05
-7.34081e-06
1.60466e-05
-7.4787e-06
1.5854e-05
-7.60247e-06
1.56605e-05
-7.71171e-06
1.54666e-05
-7.80617e-06
1.52723e-05
-7.88553e-06
1.5078e-05
-7.9497e-06
1.48844e-05
-7.99934e-06
1.46925e-05
-8.03514e-06
1.45026e-05
-8.05772e-06
1.43149e-05
-8.06819e-06
1.41295e-05
-8.06734e-06
1.39466e-05
-8.0554e-06
1.37665e-05
-8.0329e-06
1.35896e-05
-8.00063e-06
1.34163e-05
-7.95907e-06
1.32465e-05
-7.90859e-06
1.30801e-05
-7.85006e-06
1.29168e-05
-7.78433e-06
1.27565e-05
-7.71199e-06
1.25994e-05
-7.63354e-06
1.24454e-05
-7.54948e-06
1.22945e-05
-7.46024e-06
1.21467e-05
-7.36624e-06
1.20021e-05
-7.26788e-06
1.18606e-05
-7.16551e-06
1.17222e-05
-7.05949e-06
1.15871e-05
-6.95014e-06
1.14551e-05
-6.83779e-06
1.13262e-05
-6.72274e-06
1.12006e-05
-6.60528e-06
1.10783e-05
-6.48571e-06
1.09591e-05
-6.36433e-06
1.08433e-05
-6.24142e-06
1.07308e-05
-6.11728e-06
1.06217e-05
-5.99222e-06
1.0516e-05
-5.86654e-06
1.04138e-05
-5.74058e-06
1.03151e-05
-5.61467e-06
1.022e-05
-5.48918e-06
1.01286e-05
-5.36447e-06
1.00409e-05
-5.24095e-06
9.95709e-06
-5.11905e-06
9.87716e-06
-4.99923e-06
9.80124e-06
-4.88199e-06
9.72945e-06
-4.76787e-06
9.6619e-06
-4.65745e-06
9.59873e-06
-4.55137e-06
9.54008e-06
-4.45036e-06
9.48611e-06
-4.35519e-06
9.43701e-06
-4.26677e-06
9.39298e-06
-4.1861e-06
9.35424e-06
-4.11438e-06
9.32104e-06
-4.05297e-06
9.29359e-06
-4.00351e-06
9.27175e-06
-3.96822e-06
-3.95048e-06
1.99973e-05
-4.36338e-08
1.99905e-05
-1.33797e-07
1.99808e-05
-2.2645e-07
1.99686e-05
-3.21418e-07
1.99541e-05
-4.19054e-07
1.99374e-05
-5.19763e-07
1.99184e-05
-6.23919e-07
1.9897e-05
-7.31851e-07
1.9873e-05
-8.43852e-07
1.98464e-05
-9.60185e-07
1.9817e-05
-1.08108e-06
1.97847e-05
-1.20676e-06
1.97492e-05
-1.3374e-06
1.97105e-05
-1.47318e-06
1.96683e-05
-1.61424e-06
1.96224e-05
-1.76072e-06
1.95727e-05
-1.9127e-06
1.9519e-05
-2.07027e-06
1.94611e-05
-2.23347e-06
1.93987e-05
-2.40231e-06
1.93317e-05
-2.57679e-06
1.92599e-05
-2.75682e-06
1.91831e-05
-2.94231e-06
1.91011e-05
-3.13309e-06
1.90136e-05
-3.32895e-06
1.89206e-05
-3.5296e-06
1.88218e-05
-3.73468e-06
1.87171e-05
-3.94378e-06
1.86063e-05
-4.15638e-06
1.84894e-05
-4.37188e-06
1.83663e-05
-4.58957e-06
1.82368e-05
-4.80868e-06
1.81012e-05
-5.0283e-06
1.79592e-05
-5.24745e-06
1.78112e-05
-5.46505e-06
1.76572e-05
-5.67995e-06
1.74974e-05
-5.89091e-06
1.73322e-05
-6.09667e-06
1.71619e-05
-6.29594e-06
1.69869e-05
-6.48742e-06
1.68076e-05
-6.66989e-06
1.66246e-05
-6.84216e-06
1.64383e-05
-7.00316e-06
1.62495e-05
-7.15197e-06
1.60586e-05
-7.2878e-06
1.58662e-05
-7.41005e-06
1.56728e-05
-7.51826e-06
1.54787e-05
-7.61212e-06
1.52845e-05
-7.69138e-06
1.50909e-05
-7.75609e-06
1.48984e-05
-7.8068e-06
1.47074e-05
-7.84413e-06
1.45184e-05
-7.86869e-06
1.43315e-05
-7.8813e-06
1.41468e-05
-7.88263e-06
1.39645e-05
-7.87312e-06
1.37849e-05
-7.85334e-06
1.36082e-05
-7.82394e-06
1.34346e-05
-7.78543e-06
1.32642e-05
-7.73822e-06
1.30972e-05
-7.68299e-06
1.29333e-05
-7.62048e-06
1.27726e-05
-7.55131e-06
1.26151e-05
-7.47602e-06
1.24607e-05
-7.3951e-06
1.23095e-05
-7.30901e-06
1.21614e-05
-7.21815e-06
1.20165e-05
-7.12294e-06
1.18747e-05
-7.02372e-06
1.17361e-05
-6.92086e-06
1.16006e-05
-6.81468e-06
1.14683e-05
-6.70551e-06
1.13392e-05
-6.59365e-06
1.12133e-05
-6.4794e-06
1.10907e-05
-6.36307e-06
1.09713e-05
-6.24496e-06
1.08552e-05
-6.12534e-06
1.07425e-05
-6.00454e-06
1.06331e-05
-5.88285e-06
1.05272e-05
-5.7606e-06
1.04247e-05
-5.63811e-06
1.03258e-05
-5.51573e-06
1.02304e-05
-5.39382e-06
1.01387e-05
-5.27277e-06
1.00508e-05
-5.15298e-06
9.96661e-06
-5.03489e-06
9.88635e-06
-4.91896e-06
9.81006e-06
-4.8057e-06
9.73786e-06
-4.69566e-06
9.66983e-06
-4.58942e-06
9.6061e-06
-4.48764e-06
9.54678e-06
-4.39104e-06
9.49199e-06
-4.3004e-06
9.44186e-06
-4.21664e-06
9.39651e-06
-4.14075e-06
9.35602e-06
-4.07389e-06
9.32042e-06
-4.01737e-06
9.28957e-06
-3.97266e-06
9.26291e-06
-3.94156e-06
-3.92642e-06
1.99978e-05
-4.14082e-08
1.99918e-05
-1.27819e-07
1.99827e-05
-2.17364e-07
1.9971e-05
-3.09668e-07
1.99568e-05
-4.04861e-07
1.99402e-05
-5.03204e-07
1.99213e-05
-6.04981e-07
1.98999e-05
-7.10468e-07
1.9876e-05
-8.19924e-07
1.98494e-05
-9.3359e-07
1.982e-05
-1.05168e-06
1.97876e-05
-1.17441e-06
1.97521e-05
-1.30194e-06
1.97134e-05
-1.43443e-06
1.96712e-05
-1.57204e-06
1.96254e-05
-1.71488e-06
1.95757e-05
-1.86304e-06
1.9522e-05
-2.01659e-06
1.94641e-05
-2.17558e-06
1.94018e-05
-2.34003e-06
1.9335e-05
-2.5099e-06
1.92633e-05
-2.68513e-06
1.91866e-05
-2.86563e-06
1.91047e-05
-3.05122e-06
1.90175e-05
-3.24169e-06
1.89246e-05
-3.43679e-06
1.88261e-05
-3.63615e-06
1.87217e-05
-3.83938e-06
1.86113e-05
-4.04598e-06
1.84948e-05
-4.25538e-06
1.83721e-05
-4.4669e-06
1.82432e-05
-4.67979e-06
1.81081e-05
-4.8932e-06
1.79669e-05
-5.10619e-06
1.78196e-05
-5.31773e-06
1.76663e-05
-5.52672e-06
1.75074e-05
-5.732e-06
1.73431e-05
-5.93235e-06
1.71737e-05
-6.12655e-06
1.69996e-05
-6.31336e-06
1.68213e-05
-6.49159e-06
1.66393e-05
-6.66011e-06
1.6454e-05
-6.81789e-06
1.62661e-05
-6.96401e-06
1.6076e-05
-7.0977e-06
1.58842e-05
-7.21834e-06
1.56914e-05
-7.32545e-06
1.5498e-05
-7.41872e-06
1.53046e-05
-7.49796e-06
1.51118e-05
-7.56327e-06
1.49201e-05
-7.61507e-06
1.47298e-05
-7.65389e-06
1.45414e-05
-7.68029e-06
1.4355e-05
-7.69493e-06
1.41708e-05
-7.69842e-06
1.3989e-05
-7.69128e-06
1.38097e-05
-7.67407e-06
1.36331e-05
-7.64738e-06
1.34594e-05
-7.61173e-06
1.32888e-05
-7.56757e-06
1.31213e-05
-7.51551e-06
1.2957e-05
-7.45618e-06
1.27959e-05
-7.39018e-06
1.26379e-05
-7.31805e-06
1.24831e-05
-7.24029e-06
1.23314e-05
-7.15734e-06
1.21829e-05
-7.06964e-06
1.20376e-05
-6.97758e-06
1.18954e-05
-6.88152e-06
1.17563e-05
-6.78182e-06
1.16205e-05
-6.67881e-06
1.14878e-05
-6.57283e-06
1.13583e-05
-6.46417e-06
1.1232e-05
-6.35315e-06
1.1109e-05
-6.24006e-06
1.09893e-05
-6.12521e-06
1.08728e-05
-6.0089e-06
1.07597e-05
-5.89143e-06
1.065e-05
-5.77312e-06
1.05437e-05
-5.65429e-06
1.04408e-05
-5.53527e-06
1.03415e-05
-5.41641e-06
1.02458e-05
-5.29808e-06
1.01537e-05
-5.18067e-06
1.00653e-05
-5.06459e-06
9.98065e-06
-4.95027e-06
9.89988e-06
-4.83819e-06
9.82304e-06
-4.72886e-06
9.7502e-06
-4.62282e-06
9.68146e-06
-4.52068e-06
9.61689e-06
-4.42307e-06
9.55658e-06
-4.33072e-06
9.5006e-06
-4.24442e-06
9.449e-06
-4.16504e-06
9.40181e-06
-4.09355e-06
9.35896e-06
-4.03105e-06
9.32031e-06
-3.97871e-06
9.28549e-06
-3.93784e-06
9.25386e-06
-3.90992e-06
-3.89702e-06
1.99981e-05
-3.95244e-08
1.99928e-05
-1.22461e-07
1.99843e-05
-2.08905e-07
1.99731e-05
-2.98434e-07
1.99593e-05
-3.91055e-07
1.9943e-05
-4.8692e-07
1.99242e-05
-5.86232e-07
1.9903e-05
-6.89213e-07
1.98791e-05
-7.96082e-07
1.98526e-05
-9.07053e-07
1.98232e-05
-1.02232e-06
1.97909e-05
-1.14208e-06
1.97555e-05
-1.26649e-06
1.97167e-05
-1.39571e-06
1.96746e-05
-1.52987e-06
1.96288e-05
-1.66908e-06
1.95792e-05
-1.81342e-06
1.95255e-05
-1.96298e-06
1.94677e-05
-2.11779e-06
1.94056e-05
-2.27785e-06
1.93388e-05
-2.44314e-06
1.92673e-05
-2.6136e-06
1.91908e-05
-2.78912e-06
1.91091e-05
-2.96956e-06
1.90221e-05
-3.1547e-06
1.89296e-05
-3.34428e-06
1.88314e-05
-3.53797e-06
1.87274e-05
-3.73539e-06
1.86175e-05
-3.93605e-06
1.85015e-05
-4.1394e-06
1.83794e-05
-4.34482e-06
1.82512e-05
-4.55157e-06
1.81169e-05
-4.75884e-06
1.79764e-05
-4.96575e-06
1.783e-05
-5.17131e-06
1.76778e-05
-5.37448e-06
1.75199e-05
-5.57414e-06
1.73567e-05
-5.76915e-06
1.71885e-05
-5.95832e-06
1.70156e-05
-6.14049e-06
1.68386e-05
-6.31451e-06
1.66577e-05
-6.47928e-06
1.64737e-05
-6.63381e-06
1.62869e-05
-6.77721e-06
1.60979e-05
-6.90871e-06
1.59072e-05
-7.02768e-06
1.57154e-05
-7.13366e-06
1.5523e-05
-7.22633e-06
1.53306e-05
-7.30554e-06
1.51387e-05
-7.37139e-06
1.49478e-05
-7.42419e-06
1.47583e-05
-7.46438e-06
1.45705e-05
-7.49247e-06
1.43846e-05
-7.50902e-06
1.42008e-05
-7.51461e-06
1.40192e-05
-7.50975e-06
1.38402e-05
-7.49501e-06
1.36637e-05
-7.47092e-06
1.349e-05
-7.43801e-06
1.33192e-05
-7.39677e-06
1.31514e-05
-7.34774e-06
1.29868e-05
-7.2915e-06
1.28252e-05
-7.22862e-06
1.26668e-05
-7.15963e-06
1.25115e-05
-7.08501e-06
1.23594e-05
-7.00521e-06
1.22104e-05
-6.92065e-06
1.20645e-05
-6.83174e-06
1.19219e-05
-6.73884e-06
1.17824e-05
-6.6423e-06
1.1646e-05
-6.54247e-06
1.15129e-05
-6.43967e-06
1.13829e-05
-6.33422e-06
1.12562e-05
-6.22642e-06
1.11327e-05
-6.11658e-06
1.10125e-05
-6.005e-06
1.08956e-05
-5.89199e-06
1.0782e-05
-5.77786e-06
1.06718e-05
-5.66293e-06
1.05651e-05
-5.54751e-06
1.04617e-05
-5.43195e-06
1.03619e-05
-5.3166e-06
1.02657e-05
-5.20183e-06
1.0173e-05
-5.08803e-06
1.00841e-05
-4.97562e-06
9.99884e-06
-4.86504e-06
9.91741e-06
-4.75676e-06
9.83983e-06
-4.65128e-06
9.76617e-06
-4.54917e-06
9.69649e-06
-4.451e-06
9.63084e-06
-4.35742e-06
9.56927e-06
-4.26915e-06
9.51178e-06
-4.18694e-06
9.45837e-06
-4.11163e-06
9.40897e-06
-4.04416e-06
9.36343e-06
-3.98551e-06
9.32147e-06
-3.93674e-06
9.2826e-06
-3.89898e-06
9.24617e-06
-3.87349e-06
-3.86253e-06
1.99983e-05
-3.78739e-08
1.99935e-05
-1.1759e-07
1.99856e-05
-2.0101e-07
1.99749e-05
-2.87727e-07
1.99615e-05
-3.77694e-07
1.99456e-05
-4.70991e-07
1.99271e-05
-5.67758e-07
1.99061e-05
-6.68166e-07
1.98824e-05
-7.72397e-07
1.9856e-05
-8.80636e-07
1.98267e-05
-9.93059e-07
1.97945e-05
-1.10984e-06
1.97591e-05
-1.23112e-06
1.97204e-05
-1.35706e-06
1.96783e-05
-1.48776e-06
1.96326e-05
-1.62335e-06
1.95831e-05
-1.7639e-06
1.95296e-05
-1.90947e-06
1.94719e-05
-2.06011e-06
1.94098e-05
-2.21581e-06
1.93433e-05
-2.37655e-06
1.92719e-05
-2.54227e-06
1.91957e-05
-2.71286e-06
1.91143e-05
-2.88818e-06
1.90276e-05
-3.06803e-06
1.89355e-05
-3.25215e-06
1.88377e-05
-3.44023e-06
1.87342e-05
-3.63189e-06
1.86249e-05
-3.82668e-06
1.85096e-05
-4.02408e-06
1.83882e-05
-4.22346e-06
1.82608e-05
-4.42415e-06
1.81273e-05
-4.62538e-06
1.79879e-05
-4.8263e-06
1.78425e-05
-5.02596e-06
1.76914e-05
-5.22339e-06
1.75348e-05
-5.41751e-06
1.73729e-05
-5.60724e-06
1.7206e-05
-5.79145e-06
1.70346e-05
-5.96902e-06
1.68589e-05
-6.13884e-06
1.66795e-05
-6.29988e-06
1.64968e-05
-6.45115e-06
1.63114e-05
-6.5918e-06
1.61238e-05
-6.72106e-06
1.59344e-05
-6.83832e-06
1.57439e-05
-6.94312e-06
1.55527e-05
-7.03515e-06
1.53614e-05
-7.11427e-06
1.51706e-05
-7.18054e-06
1.49806e-05
-7.2342e-06
1.47918e-05
-7.27563e-06
1.46046e-05
-7.30527e-06
1.44192e-05
-7.32362e-06
1.42358e-05
-7.33121e-06
1.40546e-05
-7.32854e-06
1.38758e-05
-7.31615e-06
1.36994e-05
-7.29457e-06
1.35257e-05
-7.26431e-06
1.33548e-05
-7.22586e-06
1.31868e-05
-7.17975e-06
1.30218e-05
-7.12651e-06
1.28599e-05
-7.06669e-06
1.2701e-05
-7.00078e-06
1.25453e-05
-6.92926e-06
1.23927e-05
-6.85258e-06
1.22432e-05
-6.77116e-06
1.20968e-05
-6.68538e-06
1.19536e-05
-6.59563e-06
1.18136e-05
-6.50226e-06
1.16767e-05
-6.4056e-06
1.1543e-05
-6.30599e-06
1.14125e-05
-6.20374e-06
1.12852e-05
-6.09916e-06
1.11612e-05
-5.99257e-06
1.10405e-05
-5.88426e-06
1.0923e-05
-5.77455e-06
1.08089e-05
-5.66375e-06
1.06982e-05
-5.55218e-06
1.05909e-05
-5.44017e-06
1.0487e-05
-5.32806e-06
1.03866e-05
-5.2162e-06
1.02897e-05
-5.10496e-06
1.01964e-05
-4.99475e-06
1.01067e-05
-4.88597e-06
1.00208e-05
-4.77906e-06
9.93852e-06
-4.67451e-06
9.86005e-06
-4.57281e-06
9.78539e-06
-4.47451e-06
9.71457e-06
-4.38018e-06
9.64763e-06
-4.29048e-06
9.58455e-06
-4.20607e-06
9.52532e-06
-4.1277e-06
9.46985e-06
-4.05617e-06
9.41802e-06
-3.99233e-06
9.36961e-06
-3.93709e-06
9.32427e-06
-3.8914e-06
9.2815e-06
-3.8562e-06
9.24056e-06
-3.83256e-06
-3.82286e-06
1.99985e-05
-3.63858e-08
1.9994e-05
-1.13101e-07
1.99866e-05
-1.93598e-07
1.99764e-05
-2.77517e-07
1.99635e-05
-3.64792e-07
1.9948e-05
-4.5546e-07
1.99298e-05
-5.49617e-07
1.99091e-05
-6.47393e-07
1.98856e-05
-7.48936e-07
1.98594e-05
-8.54403e-07
1.98303e-05
-9.63949e-07
1.97981e-05
-1.07772e-06
1.97629e-05
-1.19587e-06
1.97243e-05
-1.31852e-06
1.96824e-05
-1.44578e-06
1.96368e-05
-1.57775e-06
1.95874e-05
-1.71451e-06
1.9534e-05
-1.85611e-06
1.94765e-05
-2.0026e-06
1.94146e-05
-2.15396e-06
1.93483e-05
-2.31018e-06
1.92772e-05
-2.47119e-06
1.92012e-05
-2.6369e-06
1.91202e-05
-2.80715e-06
1.90339e-05
-2.98176e-06
1.89423e-05
-3.16048e-06
1.88451e-05
-3.34301e-06
1.87422e-05
-3.52899e-06
1.86335e-05
-3.71799e-06
1.85189e-05
-3.9095e-06
1.83984e-05
-4.10294e-06
1.82719e-05
-4.29767e-06
1.81394e-05
-4.49294e-06
1.80011e-05
-4.68795e-06
1.78569e-05
-4.88182e-06
1.77071e-05
-5.07358e-06
1.75519e-05
-5.26225e-06
1.73914e-05
-5.44678e-06
1.7226e-05
-5.62608e-06
1.70561e-05
-5.79909e-06
1.6882e-05
-5.96475e-06
1.67042e-05
-6.12206e-06
1.65231e-05
-6.27007e-06
1.63393e-05
-6.40794e-06
1.61531e-05
-6.53493e-06
1.59652e-05
-6.65043e-06
1.57761e-05
-6.754e-06
1.55863e-05
-6.84532e-06
1.53963e-05
-6.92424e-06
1.52065e-05
-6.99081e-06
1.50175e-05
-7.0452e-06
1.48296e-05
-7.08772e-06
1.46431e-05
-7.11877e-06
1.44583e-05
-7.13878e-06
1.42753e-05
-7.14825e-06
1.40944e-05
-7.14766e-06
1.39158e-05
-7.13753e-06
1.37396e-05
-7.11835e-06
1.35659e-05
-7.09064e-06
1.33949e-05
-7.05488e-06
1.32268e-05
-7.01158e-06
1.30615e-05
-6.96126e-06
1.28992e-05
-6.90441e-06
1.274e-05
-6.84153e-06
1.25838e-05
-6.77307e-06
1.24307e-05
-6.69947e-06
1.22807e-05
-6.62114e-06
1.21338e-05
-6.53849e-06
1.199e-05
-6.45187e-06
1.18494e-05
-6.36164e-06
1.17119e-05
-6.26815e-06
1.15777e-05
-6.17172e-06
1.14466e-05
-6.07266e-06
1.13187e-05
-5.97131e-06
1.11941e-05
-5.86795e-06
1.10728e-05
-5.76291e-06
1.09547e-05
-5.6565e-06
1.084e-05
-5.54902e-06
1.07286e-05
-5.44081e-06
1.06207e-05
-5.33219e-06
1.05161e-05
-5.2235e-06
1.0415e-05
-5.11511e-06
1.03174e-05
-5.00738e-06
1.02234e-05
-4.9007e-06
1.01329e-05
-4.7955e-06
1.00461e-05
-4.69222e-06
9.96288e-06
-4.59131e-06
9.88336e-06
-4.49329e-06
9.80754e-06
-4.39869e-06
9.73543e-06
-4.30807e-06
9.66701e-06
-4.22206e-06
9.60225e-06
-4.14131e-06
9.54109e-06
-4.06653e-06
9.4834e-06
-3.99848e-06
9.429e-06
-3.93793e-06
9.37764e-06
-3.88573e-06
9.32894e-06
-3.84271e-06
9.28241e-06
-3.80967e-06
9.23736e-06
-3.78751e-06
-3.77822e-06
1.99986e-05
-3.50153e-08
1.99944e-05
-1.08913e-07
1.99874e-05
-1.86598e-07
1.99777e-05
-2.6776e-07
1.99652e-05
-3.52336e-07
1.99501e-05
-4.40342e-07
1.99323e-05
-5.31844e-07
1.99119e-05
-6.2694e-07
1.98887e-05
-7.25752e-07
1.98627e-05
-8.2841e-07
1.98338e-05
-9.35048e-07
1.98019e-05
-1.0458e-06
1.97668e-05
-1.16079e-06
1.97284e-05
-1.28014e-06
1.96866e-05
-1.40395e-06
1.96412e-05
-1.53231e-06
1.9592e-05
-1.6653e-06
1.95388e-05
-1.80295e-06
1.94815e-05
-1.94531e-06
1.94199e-05
-2.09237e-06
1.93538e-05
-2.2441e-06
1.92831e-05
-2.40044e-06
1.92075e-05
-2.5613e-06
1.91269e-05
-2.72653e-06
1.90411e-05
-2.89596e-06
1.89499e-05
-3.06934e-06
1.88533e-05
-3.24639e-06
1.87511e-05
-3.42677e-06
1.86431e-05
-3.61005e-06
1.85294e-05
-3.79576e-06
1.84098e-05
-3.98336e-06
1.82844e-05
-4.17221e-06
1.8153e-05
-4.36162e-06
1.80159e-05
-4.55082e-06
1.78731e-05
-4.73898e-06
1.77247e-05
-4.92518e-06
1.75709e-05
-5.10848e-06
1.7412e-05
-5.28787e-06
1.72482e-05
-5.46233e-06
1.708e-05
-5.63083e-06
1.69076e-05
-5.79236e-06
1.67315e-05
-5.94595e-06
1.65521e-05
-6.09069e-06
1.63699e-05
-6.22576e-06
1.61854e-05
-6.35044e-06
1.59992e-05
-6.46415e-06
1.58116e-05
-6.56641e-06
1.56232e-05
-6.65693e-06
1.54345e-05
-6.73556e-06
1.5246e-05
-6.80228e-06
1.5058e-05
-6.85725e-06
1.4871e-05
-6.90071e-06
1.46853e-05
-6.93301e-06
1.4501e-05
-6.95455e-06
1.43186e-05
-6.96578e-06
1.41381e-05
-6.96715e-06
1.39597e-05
-6.95916e-06
1.37836e-05
-6.94229e-06
1.361e-05
-6.91703e-06
1.3439e-05
-6.88387e-06
1.32707e-05
-6.84329e-06
1.31053e-05
-6.79578e-06
1.29427e-05
-6.74183e-06
1.2783e-05
-6.6819e-06
1.26264e-05
-6.61644e-06
1.24728e-05
-6.54588e-06
1.23223e-05
-6.47062e-06
1.21749e-05
-6.39105e-06
1.20305e-05
-6.30754e-06
1.18893e-05
-6.22044e-06
1.17513e-05
-6.13009e-06
1.16164e-05
-6.03683e-06
1.14847e-05
-5.94097e-06
1.13562e-05
-5.84282e-06
1.1231e-05
-5.7427e-06
1.1109e-05
-5.64091e-06
1.09902e-05
-5.53778e-06
1.08748e-05
-5.43362e-06
1.07628e-05
-5.32875e-06
1.06541e-05
-5.22349e-06
1.05488e-05
-5.11821e-06
1.04469e-05
-5.01325e-06
1.03485e-05
-4.90898e-06
1.02536e-05
-4.80581e-06
1.01623e-05
-4.70413e-06
1.00744e-05
-4.60439e-06
9.99017e-06
-4.50705e-06
9.90949e-06
-4.41261e-06
9.83238e-06
-4.32158e-06
9.75883e-06
-4.23452e-06
9.6888e-06
-4.15203e-06
9.62222e-06
-4.07474e-06
9.559e-06
-4.00331e-06
9.49898e-06
-3.93846e-06
9.44195e-06
-3.88091e-06
9.38764e-06
-3.83142e-06
9.33566e-06
-3.79073e-06
9.28554e-06
-3.75955e-06
9.23666e-06
-3.73862e-06
-3.72902e-06
1.99987e-05
-3.37336e-08
1.99948e-05
-1.04965e-07
1.99881e-05
-1.79943e-07
1.99788e-05
-2.58406e-07
1.99667e-05
-3.40299e-07
1.9952e-05
-4.25632e-07
1.99346e-05
-5.14452e-07
1.99145e-05
-6.06837e-07
1.98917e-05
-7.02883e-07
1.98659e-05
-8.027e-07
1.98373e-05
-9.06405e-07
1.98056e-05
-1.01411e-06
1.97708e-05
-1.12594e-06
1.97326e-05
-1.24199e-06
1.9691e-05
-1.36235e-06
1.96458e-05
-1.4871e-06
1.95968e-05
-1.61632e-06
1.95439e-05
-1.75004e-06
1.94869e-05
-1.88829e-06
1.94256e-05
-2.03107e-06
1.93598e-05
-2.17835e-06
1.92895e-05
-2.33007e-06
1.92143e-05
-2.48613e-06
1.91342e-05
-2.6464e-06
1.90489e-05
-2.8107e-06
1.89584e-05
-2.97881e-06
1.88624e-05
-3.15046e-06
1.8761e-05
-3.3253e-06
1.86539e-05
-3.50295e-06
1.85411e-05
-3.68296e-06
1.84225e-05
-3.86479e-06
1.82982e-05
-4.04787e-06
1.81681e-05
-4.23152e-06
1.80323e-05
-4.41501e-06
1.78908e-05
-4.59755e-06
1.77439e-05
-4.77828e-06
1.75917e-05
-4.95628e-06
1.74345e-05
-5.13061e-06
1.72724e-05
-5.30028e-06
1.71059e-05
-5.46432e-06
1.69353e-05
-5.62175e-06
1.6761e-05
-5.77164e-06
1.65834e-05
-5.91311e-06
1.6403e-05
-6.04536e-06
1.62203e-05
-6.1677e-06
1.60357e-05
-6.27954e-06
1.58497e-05
-6.38043e-06
1.56628e-05
-6.47007e-06
1.54755e-05
-6.54827e-06
1.52883e-05
-6.61502e-06
1.51014e-05
-6.67042e-06
1.49154e-05
-6.71467e-06
1.47305e-05
-6.74808e-06
1.45469e-05
-6.771e-06
1.4365e-05
-6.78385e-06
1.41849e-05
-6.78707e-06
1.40069e-05
-6.78111e-06
1.3831e-05
-6.76644e-06
1.36575e-05
-6.74354e-06
1.34865e-05
-6.71287e-06
1.33181e-05
-6.67491e-06
1.31525e-05
-6.63013e-06
1.29896e-05
-6.57899e-06
1.28297e-05
-6.52194e-06
1.26726e-05
-6.45941e-06
1.25186e-05
-6.39183e-06
1.23676e-05
-6.31959e-06
1.22196e-05
-6.24307e-06
1.20747e-05
-6.16264e-06
1.19329e-05
-6.07865e-06
1.17942e-05
-5.99143e-06
1.16587e-05
-5.90131e-06
1.15264e-05
-5.80862e-06
1.13972e-05
-5.71366e-06
1.12713e-05
-5.61676e-06
1.11486e-05
-5.51822e-06
1.10291e-05
-5.41836e-06
1.0913e-05
-5.31748e-06
1.08002e-05
-5.21593e-06
1.06907e-05
-5.11403e-06
1.05846e-05
-5.01211e-06
1.04819e-05
-4.91055e-06
1.03827e-05
-4.80971e-06
1.02868e-05
-4.70997e-06
1.01944e-05
-4.61176e-06
1.01055e-05
-4.51549e-06
1.00201e-05
-4.42163e-06
9.93817e-06
-4.33065e-06
9.85966e-06
-4.24307e-06
9.78457e-06
-4.15943e-06
9.71282e-06
-4.08028e-06
9.64434e-06
-4.00625e-06
9.57898e-06
-3.93796e-06
9.51658e-06
-3.87606e-06
9.4569e-06
-3.82123e-06
9.39966e-06
-3.77417e-06
9.34448e-06
-3.73555e-06
9.29093e-06
-3.706e-06
9.23845e-06
-3.68614e-06
-3.67601e-06
1.99988e-05
-3.25209e-08
1.9995e-05
-1.01213e-07
1.99887e-05
-1.73582e-07
1.99797e-05
-2.49407e-07
1.9968e-05
-3.28649e-07
1.99537e-05
-4.11316e-07
1.99367e-05
-4.97444e-07
1.9917e-05
-5.87097e-07
1.98944e-05
-6.80355e-07
1.9869e-05
-7.77309e-07
1.98407e-05
-8.78061e-07
1.98093e-05
-9.82711e-07
1.97747e-05
-1.09136e-06
1.97368e-05
-1.2041e-06
1.96955e-05
-1.32101e-06
1.96505e-05
-1.44217e-06
1.96019e-05
-1.56763e-06
1.95492e-05
-1.69744e-06
1.94926e-05
-1.83161e-06
1.94316e-05
-1.97014e-06
1.93663e-05
-2.113e-06
1.92964e-05
-2.26014e-06
1.92217e-05
-2.41145e-06
1.91421e-05
-2.56681e-06
1.90574e-05
-2.72605e-06
1.89676e-05
-2.88896e-06
1.88724e-05
-3.05527e-06
1.87718e-05
-3.22466e-06
1.86656e-05
-3.39677e-06
1.85538e-05
-3.57116e-06
1.84363e-05
-3.74733e-06
1.83132e-05
-3.92472e-06
1.81844e-05
-4.10271e-06
1.80499e-05
-4.28058e-06
1.791e-05
-4.4576e-06
1.77646e-05
-4.63294e-06
1.76141e-05
-4.80573e-06
1.74586e-05
-4.97507e-06
1.72983e-05
-5.14002e-06
1.71336e-05
-5.29964e-06
1.69649e-05
-5.453e-06
1.67924e-05
-5.5992e-06
1.66167e-05
-5.73739e-06
1.64381e-05
-5.8668e-06
1.62572e-05
-5.98675e-06
1.60743e-05
-6.09668e-06
1.589e-05
-6.19612e-06
1.57047e-05
-6.28477e-06
1.55189e-05
-6.36244e-06
1.53329e-05
-6.42908e-06
1.51473e-05
-6.48476e-06
1.49623e-05
-6.52966e-06
1.47782e-05
-6.56402e-06
1.45954e-05
-6.58819e-06
1.44141e-05
-6.60254e-06
1.42345e-05
-6.60747e-06
1.40568e-05
-6.60342e-06
1.38812e-05
-6.59085e-06
1.37078e-05
-6.57019e-06
1.35369e-05
-6.54192e-06
1.33685e-05
-6.50648e-06
1.32027e-05
-6.46433e-06
1.30396e-05
-6.41592e-06
1.28793e-05
-6.36167e-06
1.27219e-05
-6.30202e-06
1.25675e-05
-6.23736e-06
1.2416e-05
-6.16809e-06
1.22675e-05
-6.09458e-06
1.2122e-05
-6.01718e-06
1.19796e-05
-5.93626e-06
1.18403e-05
-5.85214e-06
1.17042e-05
-5.76515e-06
1.15712e-05
-5.6756e-06
1.14413e-05
-5.58382e-06
1.13147e-05
-5.49012e-06
1.11913e-05
-5.3948e-06
1.10711e-05
-5.29818e-06
1.09542e-05
-5.20058e-06
1.08406e-05
-5.10232e-06
1.07303e-05
-5.00373e-06
1.06233e-05
-4.90515e-06
1.05197e-05
-4.80695e-06
1.04195e-05
-4.70948e-06
1.03226e-05
-4.61313e-06
1.02292e-05
-4.51831e-06
1.01391e-05
-4.42544e-06
1.00525e-05
-4.33496e-06
9.96916e-06
-4.24734e-06
9.88917e-06
-4.16309e-06
9.81246e-06
-4.08271e-06
9.73893e-06
-4.00676e-06
9.66848e-06
-3.9358e-06
9.60095e-06
-3.87043e-06
9.53616e-06
-3.81126e-06
9.47386e-06
-3.75893e-06
9.41375e-06
-3.71406e-06
9.35547e-06
-3.67728e-06
9.29861e-06
-3.64914e-06
9.24273e-06
-3.63025e-06
-3.61997e-06
1.99988e-05
-3.13637e-08
1.99953e-05
-9.76216e-08
1.99891e-05
-1.6747e-07
1.99805e-05
-2.40722e-07
1.99692e-05
-3.17352e-07
1.99552e-05
-3.97371e-07
1.99386e-05
-4.80811e-07
1.99192e-05
-5.67726e-07
1.9897e-05
-6.58183e-07
1.9872e-05
-7.52261e-07
1.9844e-05
-8.50046e-07
1.98129e-05
-9.51626e-07
1.97786e-05
-1.05709e-06
1.9741e-05
-1.16651e-06
1.97e-05
-1.27998e-06
1.96554e-05
-1.39755e-06
1.9607e-05
-1.51927e-06
1.95548e-05
-1.64519e-06
1.94985e-05
-1.7753e-06
1.9438e-05
-1.90962e-06
1.93731e-05
-2.04811e-06
1.93036e-05
-2.1907e-06
1.92295e-05
-2.33732e-06
1.91505e-05
-2.48783e-06
1.90666e-05
-2.64207e-06
1.89774e-05
-2.79985e-06
1.88831e-05
-2.9609e-06
1.87833e-05
-3.12493e-06
1.86781e-05
-3.29158e-06
1.85674e-05
-3.46044e-06
1.84511e-05
-3.63104e-06
1.83292e-05
-3.80284e-06
1.82018e-05
-3.97525e-06
1.80688e-05
-4.14761e-06
1.79304e-05
-4.31919e-06
1.77867e-05
-4.48923e-06
1.76378e-05
-4.65688e-06
1.74841e-05
-4.8213e-06
1.73256e-05
-4.98158e-06
1.71628e-05
-5.13683e-06
1.6996e-05
-5.28614e-06
1.68254e-05
-5.42867e-06
1.66516e-05
-5.56358e-06
1.64749e-05
-5.69013e-06
1.62958e-05
-5.80765e-06
1.61147e-05
-5.91559e-06
1.59321e-05
-6.0135e-06
1.57484e-05
-6.10107e-06
1.55641e-05
-6.17809e-06
1.53795e-05
-6.2445e-06
1.51951e-05
-6.30033e-06
1.50111e-05
-6.34572e-06
1.4828e-05
-6.38091e-06
1.4646e-05
-6.40618e-06
1.44654e-05
-6.42189e-06
1.42863e-05
-6.42841e-06
1.4109e-05
-6.42615e-06
1.39337e-05
-6.41555e-06
1.37606e-05
-6.39704e-06
1.35897e-05
-6.37106e-06
1.34213e-05
-6.33805e-06
1.32554e-05
-6.29844e-06
1.30921e-05
-6.25266e-06
1.29316e-05
-6.20114e-06
1.27739e-05
-6.14429e-06
1.2619e-05
-6.08249e-06
1.24671e-05
-6.01613e-06
1.23181e-05
-5.94558e-06
1.21721e-05
-5.87118e-06
1.20291e-05
-5.79329e-06
1.18892e-05
-5.71224e-06
1.17524e-05
-5.62834e-06
1.16187e-05
-5.54192e-06
1.14882e-05
-5.45328e-06
1.13608e-05
-5.36275e-06
1.12366e-05
-5.27063e-06
1.11157e-05
-5.17723e-06
1.0998e-05
-5.08287e-06
1.08835e-05
-4.98787e-06
1.07723e-05
-4.89256e-06
1.06645e-05
-4.79729e-06
1.05599e-05
-4.70239e-06
1.04587e-05
-4.60825e-06
1.03608e-05
-4.51522e-06
1.02662e-05
-4.42373e-06
1.01749e-05
-4.33417e-06
1.0087e-05
-4.24698e-06
1.00022e-05
-4.16262e-06
9.92072e-06
-4.08157e-06
9.84233e-06
-4.00432e-06
9.76698e-06
-3.93141e-06
9.69453e-06
-3.86335e-06
9.62483e-06
-3.80073e-06
9.55767e-06
-3.7441e-06
9.4928e-06
-3.69406e-06
9.42992e-06
-3.65118e-06
9.36869e-06
-3.61604e-06
9.30871e-06
-3.58916e-06
9.2496e-06
-3.57114e-06
-3.56105e-06
1.99989e-05
-3.0252e-08
1.99954e-05
-9.41657e-08
1.99895e-05
-1.61572e-07
1.99811e-05
-2.32313e-07
1.99701e-05
-3.06375e-07
1.99566e-05
-3.83774e-07
1.99403e-05
-4.6454e-07
1.99213e-05
-5.48722e-07
1.98995e-05
-6.36376e-07
1.98748e-05
-7.27572e-07
1.98471e-05
-8.22384e-07
1.98164e-05
-9.2089e-07
1.97825e-05
-1.02317e-06
1.97452e-05
-1.12928e-06
1.97046e-05
-1.23931e-06
1.96603e-05
-1.3533e-06
1.96123e-05
-1.4713e-06
1.95605e-05
-1.59334e-06
1.95046e-05
-1.71943e-06
1.94446e-05
-1.84957e-06
1.93802e-05
-1.98372e-06
1.93113e-05
-2.12182e-06
1.92378e-05
-2.26379e-06
1.91595e-05
-2.40951e-06
1.90762e-05
-2.55882e-06
1.89879e-05
-2.71153e-06
1.88944e-05
-2.8674e-06
1.87956e-05
-3.02614e-06
1.86915e-05
-3.18742e-06
1.85819e-05
-3.35084e-06
1.84668e-05
-3.51596e-06
1.83462e-05
-3.68227e-06
1.82202e-05
-3.8492e-06
1.80887e-05
-4.01613e-06
1.79519e-05
-4.18237e-06
1.78098e-05
-4.34719e-06
1.76627e-05
-4.50978e-06
1.75108e-05
-4.66934e-06
1.73542e-05
-4.82501e-06
1.71933e-05
-4.97592e-06
1.70284e-05
-5.12122e-06
1.68598e-05
-5.26007e-06
1.66879e-05
-5.39169e-06
1.65131e-05
-5.51536e-06
1.63359e-05
-5.63041e-06
1.61566e-05
-5.73631e-06
1.59757e-05
-5.83262e-06
1.57937e-05
-5.919e-06
1.56108e-05
-5.99527e-06
1.54276e-05
-6.06131e-06
1.52445e-05
-6.11715e-06
1.50617e-05
-6.16291e-06
1.48795e-05
-6.19877e-06
1.46984e-05
-6.22501e-06
1.45184e-05
-6.24195e-06
1.43399e-05
-6.24993e-06
1.41631e-05
-6.24935e-06
1.39882e-05
-6.24061e-06
1.38153e-05
-6.22414e-06
1.36446e-05
-6.20034e-06
1.34762e-05
-6.16965e-06
1.33102e-05
-6.13249e-06
1.31468e-05
-6.08927e-06
1.29861e-05
-6.04039e-06
1.28281e-05
-5.98626e-06
1.26728e-05
-5.92726e-06
1.25205e-05
-5.86375e-06
1.2371e-05
-5.7961e-06
1.22245e-05
-5.72466e-06
1.20809e-05
-5.64976e-06
1.19404e-05
-5.57173e-06
1.1803e-05
-5.49089e-06
1.16686e-05
-5.40755e-06
1.15374e-05
-5.32204e-06
1.14093e-05
-5.23465e-06
1.12843e-05
-5.14569e-06
1.11626e-05
-5.05548e-06
1.1044e-05
-4.96433e-06
1.09287e-05
-4.87256e-06
1.08167e-05
-4.7805e-06
1.07078e-05
-4.68848e-06
1.06023e-05
-4.59685e-06
1.05e-05
-4.50597e-06
1.0401e-05
-4.41621e-06
1.03052e-05
-4.32796e-06
1.02127e-05
-4.24163e-06
1.01234e-05
-4.15765e-06
1.00372e-05
-4.07644e-06
9.9541e-06
-3.99848e-06