/*--------------------------------*- C++ -*----------------------------------*\
  =========                 |
  \\      /  F ield         | OpenFOAM: The Open Source CFD Toolbox
   \\    /   O peration     | Website:  https://openfoam.org
    \\  /    A nd           | Version:  11
     \\/     M anipulation  |
\*---------------------------------------------------------------------------*/
FoamFile
{
    format      ascii;
    class       volScalarField;
    location    "682";
    object      p;
}
// * * * * * * * * * * * * * * * * * * * * * * * * * * * * * * * * * * * * * //

dimensions      [0 2 -2 0 0 0 0];

internalField   nonuniform List<scalar> 
10000
(
1.03392e-09
1.00598e-09
1.0518e-09
1.14272e-09
1.24662e-09
1.35654e-09
1.47242e-09
1.59443e-09
1.72273e-09
1.85767e-09
1.99968e-09
2.14923e-09
2.30683e-09
2.47297e-09
2.64819e-09
2.83302e-09
3.02802e-09
3.23375e-09
3.45079e-09
3.67975e-09
3.92121e-09
4.17581e-09
4.44418e-09
4.72697e-09
5.02485e-09
5.33849e-09
5.66859e-09
6.01585e-09
6.38101e-09
6.76478e-09
7.16793e-09
7.5912e-09
8.03537e-09
8.50121e-09
8.9895e-09
9.50104e-09
1.00366e-08
1.0597e-08
1.11831e-08
1.17955e-08
1.24352e-08
1.31028e-08
1.37991e-08
1.45249e-08
1.52809e-08
1.60677e-08
1.6886e-08
1.77365e-08
1.86196e-08
1.95358e-08
2.04857e-08
2.14696e-08
2.24877e-08
2.35402e-08
2.46272e-08
2.57486e-08
2.69044e-08
2.8094e-08
2.9317e-08
3.05727e-08
3.18601e-08
3.31781e-08
3.45253e-08
3.58998e-08
3.72996e-08
3.87223e-08
4.01649e-08
4.16241e-08
4.30962e-08
4.45765e-08
4.60602e-08
4.75414e-08
4.90135e-08
5.0469e-08
5.18996e-08
5.32956e-08
5.46462e-08
5.59392e-08
5.7161e-08
5.8296e-08
5.93269e-08
6.02339e-08
6.09952e-08
6.15857e-08
6.19776e-08
6.21393e-08
6.20352e-08
6.1625e-08
6.08627e-08
5.96963e-08
5.80654e-08
5.59001e-08
5.31177e-08
4.96168e-08
4.52714e-08
3.99294e-08
3.33661e-08
2.49669e-08
1.37677e-08
6.04193e-10
1.79891e-09
1.67115e-09
1.60443e-09
1.64006e-09
1.71973e-09
1.82129e-09
1.93934e-09
2.07114e-09
2.21491e-09
2.36979e-09
2.53543e-09
2.71184e-09
2.8992e-09
3.09782e-09
3.30811e-09
3.53054e-09
3.76562e-09
4.01393e-09
4.27605e-09
4.55262e-09
4.84429e-09
5.15172e-09
5.47563e-09
5.81673e-09
6.17576e-09
6.55349e-09
6.95067e-09
7.36811e-09
7.80662e-09
8.26701e-09
8.75013e-09
9.25681e-09
9.7879e-09
1.03443e-08
1.09268e-08
1.15364e-08
1.21738e-08
1.284e-08
1.35358e-08
1.4262e-08
1.50196e-08
1.58093e-08
1.66319e-08
1.74882e-08
1.83788e-08
1.93046e-08
2.02661e-08
2.12639e-08
2.22985e-08
2.33704e-08
2.44798e-08
2.56271e-08
2.68124e-08
2.80356e-08
2.92967e-08
3.05954e-08
3.19311e-08
3.33032e-08
3.47109e-08
3.61529e-08
3.76278e-08
3.9134e-08
4.06693e-08
4.22313e-08
4.38171e-08
4.54233e-08
4.70462e-08
4.86812e-08
5.03232e-08
5.19665e-08
5.36045e-08
5.52296e-08
5.68333e-08
5.84061e-08
5.99373e-08
6.14145e-08
6.28241e-08
6.41508e-08
6.53772e-08
6.64838e-08
6.74489e-08
6.82479e-08
6.88533e-08
6.92341e-08
6.93557e-08
6.91787e-08
6.86589e-08
6.77465e-08
6.63845e-08
6.45081e-08
6.20426e-08
5.89014e-08
5.49816e-08
5.01572e-08
4.42748e-08
3.71761e-08
2.86464e-08
1.77156e-08
2.2079e-09
-1.11589e-08
2.01774e-09
1.82851e-09
1.67836e-09
1.63917e-09
1.65634e-09
1.70494e-09
1.77693e-09
1.86761e-09
1.97366e-09
2.093e-09
2.22443e-09
2.36727e-09
2.52116e-09
2.686e-09
2.86183e-09
3.04883e-09
3.24725e-09
3.45742e-09
3.67971e-09
3.91455e-09
4.1624e-09
4.42374e-09
4.6991e-09
4.989e-09
5.294e-09
5.61469e-09
5.95166e-09
6.30551e-09
6.67687e-09
7.06636e-09
7.47463e-09
7.90233e-09
8.35011e-09
8.81862e-09
9.30854e-09
9.8205e-09
1.03552e-08
1.09132e-08
1.14952e-08
1.21018e-08
1.27337e-08
1.33913e-08
1.40752e-08
1.47861e-08
1.55243e-08
1.62903e-08
1.70844e-08
1.79071e-08
1.87586e-08
1.9639e-08
2.05485e-08
2.14871e-08
2.24546e-08
2.34509e-08
2.44756e-08
2.55282e-08
2.6608e-08
2.77141e-08
2.88455e-08
3.00009e-08
3.11787e-08
3.2377e-08
3.35938e-08
3.48265e-08
3.60722e-08
3.73275e-08
3.85887e-08
3.98515e-08
4.11109e-08
4.23613e-08
4.35965e-08
4.48093e-08
4.59919e-08
4.71351e-08
4.8229e-08
4.92622e-08
5.0222e-08
5.10944e-08
5.18633e-08
5.25111e-08
5.30178e-08
5.33613e-08
5.35166e-08
5.34559e-08
5.3148e-08
5.25578e-08
5.1646e-08
5.03685e-08
4.8675e-08
4.65089e-08
4.38055e-08
4.04903e-08
3.64764e-08
3.16589e-08
2.59178e-08
1.91645e-08
1.12863e-08
1.17111e-09
-1.37929e-08
-2.17476e-08
2.15473e-09
1.95698e-09
1.78804e-09
1.71757e-09
1.70286e-09
1.72285e-09
1.76984e-09
1.83869e-09
1.92552e-09
2.02772e-09
2.14357e-09
2.27197e-09
2.41224e-09
2.56398e-09
2.72702e-09
2.90132e-09
3.08698e-09
3.28418e-09
3.49316e-09
3.71423e-09
3.94774e-09
4.19407e-09
4.45364e-09
4.7269e-09
5.01431e-09
5.31636e-09
5.63355e-09
5.9664e-09
6.31544e-09
6.6812e-09
7.06425e-09
7.46511e-09
7.88436e-09
8.32255e-09
8.78024e-09
9.25796e-09
9.75627e-09
1.02757e-08
1.08168e-08
1.138e-08
1.19658e-08
1.25747e-08
1.3207e-08
1.38633e-08
1.45437e-08
1.52487e-08
1.59784e-08
1.6733e-08
1.75127e-08
1.83174e-08
1.91471e-08
2.00016e-08
2.08807e-08
2.17839e-08
2.27107e-08
2.36604e-08
2.46321e-08
2.56248e-08
2.66371e-08
2.76677e-08
2.87146e-08
2.97759e-08
3.08492e-08
3.19317e-08
3.30204e-08
3.41116e-08
3.52015e-08
3.62853e-08
3.7358e-08
3.84139e-08
3.94463e-08
4.0448e-08
4.14109e-08
4.23258e-08
4.31825e-08
4.39695e-08
4.46742e-08
4.52822e-08
4.57777e-08
4.6143e-08
4.63585e-08
4.6402e-08
4.62492e-08
4.58727e-08
4.52422e-08
4.43237e-08
4.30792e-08
4.14666e-08
3.94382e-08
3.69409e-08
3.39147e-08
3.02921e-08
2.59959e-08
2.09353e-08
1.50137e-08
8.19175e-09
4.18356e-10
-9.55672e-09
-2.46309e-08
-2.94831e-08
2.23644e-09
2.04706e-09
1.88074e-09
1.79836e-09
1.76689e-09
1.77003e-09
1.80141e-09
1.85622e-09
1.93062e-09
2.02182e-09
2.12792e-09
2.24759e-09
2.37992e-09
2.52434e-09
2.6805e-09
2.84824e-09
3.02751e-09
3.2184e-09
3.42104e-09
3.63566e-09
3.86253e-09
4.10194e-09
4.35426e-09
4.61985e-09
4.89912e-09
5.19248e-09
5.50038e-09
5.82326e-09
6.1616e-09
6.51586e-09
6.88652e-09
7.27407e-09
7.67898e-09
8.10175e-09
8.54285e-09
9.00276e-09
9.48192e-09
9.9808e-09
1.04998e-08
1.10394e-08
1.15999e-08
1.21817e-08
1.2785e-08
1.34103e-08
1.40577e-08
1.47273e-08
1.54193e-08
1.61338e-08
1.68707e-08
1.76299e-08
1.84112e-08
1.92143e-08
2.00387e-08
2.08838e-08
2.17491e-08
2.26335e-08
2.3536e-08
2.44554e-08
2.53902e-08
2.63386e-08
2.72988e-08
2.82683e-08
2.92447e-08
3.02249e-08
3.12056e-08
3.21829e-08
3.31527e-08
3.411e-08
3.50495e-08
3.5965e-08
3.68499e-08
3.76965e-08
3.84963e-08
3.92399e-08
3.99168e-08
4.05154e-08
4.10224e-08
4.14236e-08
4.17028e-08
4.1842e-08
4.18216e-08
4.16195e-08
4.12112e-08
4.05698e-08
3.96651e-08
3.8464e-08
3.69295e-08
3.50207e-08
3.26924e-08
2.98942e-08
2.65707e-08
2.26605e-08
1.80953e-08
1.27964e-08
6.68667e-09
-2.39004e-10
-8.0031e-09
-1.79813e-08
-3.30771e-08
-3.59837e-08
2.26249e-09
2.08598e-09
1.92733e-09
1.84019e-09
1.79849e-09
1.78971e-09
1.80889e-09
1.85187e-09
1.91509e-09
1.99588e-09
2.09229e-09
2.20288e-09
2.32665e-09
2.4629e-09
2.61114e-09
2.77111e-09
2.94266e-09
3.12578e-09
3.32051e-09
3.527e-09
3.74543e-09
3.97604e-09
4.2191e-09
4.47493e-09
4.74386e-09
5.02623e-09
5.32243e-09
5.63283e-09
5.95783e-09
6.29785e-09
6.65328e-09
7.02454e-09
7.41203e-09
7.81618e-09
8.23737e-09
8.67599e-09
9.13243e-09
9.60705e-09
1.01002e-08
1.06121e-08
1.11432e-08
1.16937e-08
1.22637e-08
1.28535e-08
1.34631e-08
1.40927e-08
1.47422e-08
1.54115e-08
1.61005e-08
1.6809e-08
1.75366e-08
1.82827e-08
1.9047e-08
1.98285e-08
2.06265e-08
2.14399e-08
2.22675e-08
2.31079e-08
2.39593e-08
2.482e-08
2.56877e-08
2.656e-08
2.7434e-08
2.83066e-08
2.91743e-08
3.0033e-08
3.08782e-08
3.1705e-08
3.25076e-08
3.32799e-08
3.40148e-08
3.47046e-08
3.53406e-08
3.59132e-08
3.64118e-08
3.68245e-08
3.71383e-08
3.73386e-08
3.74095e-08
3.7333e-08
3.70897e-08
3.66578e-08
3.60134e-08
3.51301e-08
3.39789e-08
3.25277e-08
3.07414e-08
2.85815e-08
2.60055e-08
2.29675e-08
1.94171e-08
1.53005e-08
1.0559e-08
5.12706e-09
-1.05362e-09
-7.96002e-09
-1.55935e-08
-2.5392e-08
-4.0034e-08
-4.15097e-08
2.24997e-09
2.08668e-09
1.93732e-09
1.84956e-09
1.80204e-09
1.7851e-09
1.79498e-09
1.82823e-09
1.88174e-09
1.95303e-09
2.04022e-09
2.14191e-09
2.25701e-09
2.38477e-09
2.52462e-09
2.67622e-09
2.83934e-09
3.01387e-09
3.19979e-09
3.39718e-09
3.60614e-09
3.82684e-09
4.0595e-09
4.30435e-09
4.56166e-09
4.83172e-09
5.11483e-09
5.41131e-09
5.7215e-09
6.04573e-09
6.38433e-09
6.73766e-09
7.10604e-09
7.48982e-09
7.8893e-09
8.30481e-09
8.73663e-09
9.18505e-09
9.65031e-09
1.01326e-08
1.06322e-08
1.11493e-08
1.16838e-08
1.22359e-08
1.28057e-08
1.3393e-08
1.39977e-08
1.46196e-08
1.52585e-08
1.5914e-08
1.65856e-08
1.72727e-08
1.79746e-08
1.86904e-08
1.94191e-08
2.01596e-08
2.09104e-08
2.16699e-08
2.24364e-08
2.32078e-08
2.39817e-08
2.47556e-08
2.55265e-08
2.6291e-08
2.70454e-08
2.77855e-08
2.85068e-08
2.92039e-08
2.98713e-08
3.05024e-08
3.10902e-08
3.16267e-08
3.21033e-08
3.25103e-08
3.28371e-08
3.30718e-08
3.32014e-08
3.32116e-08
3.30865e-08
3.28086e-08
3.23589e-08
3.17162e-08
3.08574e-08
2.97571e-08
2.83876e-08
2.67186e-08
2.47171e-08
2.23473e-08
1.95704e-08
1.63449e-08
1.26266e-08
8.3689e-09
3.523e-09
-1.9643e-09
-8.13459e-09
-1.49421e-08
-2.23739e-08
-3.19089e-08
-4.59581e-08
-4.62621e-08
2.21042e-09
2.05944e-09
1.91968e-09
1.83371e-09
1.78344e-09
1.76121e-09
1.76429e-09
1.78986e-09
1.83525e-09
1.89825e-09
1.97713e-09
2.07052e-09
2.17738e-09
2.29688e-09
2.42846e-09
2.57169e-09
2.72629e-09
2.89209e-09
3.06902e-09
3.25706e-09
3.45628e-09
3.66677e-09
3.88869e-09
4.12222e-09
4.36755e-09
4.62492e-09
4.89458e-09
5.17676e-09
5.47175e-09
5.77982e-09
6.10122e-09
6.43625e-09
6.78516e-09
7.14821e-09
7.52566e-09
7.91773e-09
8.32465e-09
8.74661e-09
9.18377e-09
9.63627e-09
1.01042e-08
1.05877e-08
1.10867e-08
1.16011e-08
1.2131e-08
1.26761e-08
1.32363e-08
1.38111e-08
1.44003e-08
1.50033e-08
1.56195e-08
1.62482e-08
1.68885e-08
1.75396e-08
1.82002e-08
1.88689e-08
1.95444e-08
2.02248e-08
2.09083e-08
2.15926e-08
2.22753e-08
2.29535e-08
2.36243e-08
2.42841e-08
2.49291e-08
2.55549e-08
2.61569e-08
2.67298e-08
2.72677e-08
2.7764e-08
2.82118e-08
2.86029e-08
2.89288e-08
2.91798e-08
2.93453e-08
2.94136e-08
2.93719e-08
2.92061e-08
2.89006e-08
2.84386e-08
2.78014e-08
2.69688e-08
2.59186e-08
2.46267e-08
2.30668e-08
2.12106e-08
1.90275e-08
1.64846e-08
1.35471e-08
1.01778e-08
6.33835e-09
1.98952e-09
-2.90878e-09
-8.39897e-09
-1.4509e-08
-2.11754e-08
-2.8379e-08
-3.76591e-08
-5.12399e-08
-5.05124e-08
2.14978e-09
2.00998e-09
1.87942e-09
1.79652e-09
1.74541e-09
1.71992e-09
1.71805e-09
1.73757e-09
1.77619e-09
1.83198e-09
1.90338e-09
1.9891e-09
2.08814e-09
2.19971e-09
2.32319e-09
2.45813e-09
2.60421e-09
2.76122e-09
2.92903e-09
3.10758e-09
3.29686e-09
3.49693e-09
3.70788e-09
3.92983e-09
4.16292e-09
4.40734e-09
4.66325e-09
4.93086e-09
5.21038e-09
5.502e-09
5.80594e-09
6.1224e-09
6.4516e-09
6.7937e-09
7.1489e-09
7.51736e-09
7.89921e-09
8.29457e-09
8.70353e-09
9.12615e-09
9.56245e-09
1.00124e-08
1.04759e-08
1.09529e-08
1.14431e-08
1.19463e-08
1.24622e-08
1.29904e-08
1.35304e-08
1.40815e-08
1.46431e-08
1.52143e-08
1.57942e-08
1.63817e-08
1.69755e-08
1.75741e-08
1.8176e-08
1.87793e-08
1.93819e-08
1.99815e-08
2.05756e-08
2.11612e-08
2.17352e-08
2.2294e-08
2.28337e-08
2.33498e-08
2.38375e-08
2.42915e-08
2.47059e-08
2.50741e-08
2.53891e-08
2.56429e-08
2.58268e-08
2.59314e-08
2.59461e-08
2.58596e-08
2.56592e-08
2.53312e-08
2.48606e-08
2.42311e-08
2.34247e-08
2.24221e-08
2.12023e-08
1.97424e-08
1.80179e-08
1.60026e-08
1.36682e-08
1.09851e-08
7.92183e-09
4.446e-09
5.24565e-10
-3.87512e-09
-8.78526e-09
-1.42391e-08
-2.02532e-08
-2.6747e-08
-3.36886e-08
-4.26929e-08
-5.60374e-08
-5.41383e-08
2.0718e-09
1.94213e-09
1.82018e-09
1.74092e-09
1.69017e-09
1.66277e-09
1.65732e-09
1.67203e-09
1.70496e-09
1.75445e-09
1.81908e-09
1.89769e-09
1.98933e-09
2.09323e-09
2.20879e-09
2.33553e-09
2.47312e-09
2.6213e-09
2.77989e-09
2.9488e-09
3.12798e-09
3.31743e-09
3.51719e-09
3.72733e-09
3.94794e-09
4.17914e-09
4.42105e-09
4.67382e-09
4.93759e-09
5.2125e-09
5.49872e-09
5.79638e-09
6.10562e-09
6.42656e-09
6.75931e-09
7.10397e-09
7.4606e-09
7.82924e-09
8.20992e-09
8.6026e-09
9.00722e-09
9.42368e-09
9.85182e-09
1.02914e-08
1.07422e-08
1.12038e-08
1.16759e-08
1.21579e-08
1.26492e-08
1.31491e-08
1.36569e-08
1.41715e-08
1.46919e-08
1.5217e-08
1.57453e-08
1.62753e-08
1.68053e-08
1.73333e-08
1.78572e-08
1.83746e-08
1.88828e-08
1.93787e-08
1.98592e-08
2.03206e-08
2.07589e-08
2.11696e-08
2.15479e-08
2.18884e-08
2.21852e-08
2.24317e-08
2.2621e-08
2.27451e-08
2.27956e-08
2.2763e-08
2.26372e-08
2.24069e-08
2.206e-08
2.15831e-08
2.09619e-08
2.01805e-08
1.92221e-08
1.80681e-08
1.66988e-08
1.50928e-08
1.32274e-08
1.10782e-08
8.61971e-09
5.82504e-09
2.6664e-09
-8.8449e-10
-4.85572e-09
-9.27409e-09
-1.4165e-08
-1.95541e-08
-2.54482e-08
-3.17487e-08
-3.84008e-08
-4.71021e-08
-6.04322e-08
-5.71908e-08
1.97921e-09
1.85874e-09
1.74481e-09
1.66947e-09
1.61982e-09
1.59147e-09
1.58344e-09
1.59429e-09
1.62241e-09
1.66633e-09
1.72482e-09
1.79682e-09
1.88145e-09
1.97796e-09
2.08579e-09
2.20445e-09
2.33359e-09
2.47293e-09
2.62226e-09
2.78144e-09
2.9504e-09
3.12908e-09
3.31748e-09
3.51562e-09
3.72355e-09
3.94133e-09
4.16903e-09
4.40675e-09
4.65457e-09
4.91259e-09
5.18089e-09
5.45956e-09
5.74868e-09
6.0483e-09
6.35848e-09
6.67924e-09
7.01057e-09
7.35246e-09
7.70484e-09
8.06761e-09
8.44064e-09
8.82375e-09
9.21669e-09
9.61918e-09
1.00308e-08
1.04513e-08
1.08799e-08
1.13163e-08
1.17596e-08
1.22091e-08
1.26638e-08
1.31229e-08
1.3585e-08
1.4049e-08
1.45133e-08
1.49763e-08
1.54362e-08
1.5891e-08
1.63385e-08
1.67761e-08
1.72011e-08
1.76104e-08
1.80008e-08
1.83685e-08
1.87095e-08
1.90193e-08
1.92931e-08
1.95254e-08
1.97105e-08
1.98418e-08
1.99124e-08
1.99146e-08
1.98399e-08
1.96793e-08
1.94229e-08
1.90596e-08
1.85779e-08
1.79649e-08
1.72067e-08
1.62885e-08
1.51941e-08
1.39061e-08
1.2406e-08
1.0674e-08
8.68892e-09
6.42865e-09
3.86993e-09
9.88716e-10
-2.23952e-09
-5.83931e-09
-9.83443e-09
-1.42467e-08
-1.9096e-08
-2.4402e-08
-3.01645e-08
-3.62692e-08
-4.26394e-08
-5.10706e-08
-6.45394e-08
-6.00792e-08
1.87409e-09
1.76208e-09
1.65568e-09
1.58433e-09
1.53625e-09
1.50761e-09
1.49774e-09
1.50548e-09
1.52948e-09
1.56847e-09
1.62136e-09
1.68719e-09
1.76515e-09
1.85456e-09
1.95485e-09
2.06557e-09
2.18633e-09
2.31685e-09
2.4569e-09
2.60632e-09
2.76497e-09
2.93279e-09
3.10971e-09
3.29573e-09
3.49084e-09
3.69505e-09
3.9084e-09
4.13092e-09
4.36266e-09
4.60364e-09
4.8539e-09
5.11348e-09
5.38238e-09
5.66062e-09
5.94818e-09
6.24501e-09
6.55106e-09
6.86623e-09
7.19039e-09
7.52339e-09
7.86501e-09
8.21499e-09
8.57303e-09
8.93875e-09
9.31171e-09
9.69143e-09
1.00773e-08
1.04686e-08
1.08647e-08
1.12646e-08
1.16674e-08
1.2072e-08
1.24771e-08
1.28814e-08
1.32832e-08
1.3681e-08
1.40729e-08
1.44566e-08
1.483e-08
1.51904e-08
1.55352e-08
1.58611e-08
1.61648e-08
1.64427e-08
1.66905e-08
1.6904e-08
1.70782e-08
1.72078e-08
1.7287e-08
1.73095e-08
1.72684e-08
1.71562e-08
1.69646e-08
1.66849e-08
1.63074e-08
1.58217e-08
1.52164e-08
1.44794e-08
1.35974e-08
1.25564e-08
1.13411e-08
9.93522e-09
8.32153e-09
6.48163e-09
4.39619e-09
2.04494e-09
-5.9308e-10
-3.53935e-09
-6.81547e-09
-1.04427e-08
-1.44412e-08
-1.88286e-08
-2.36207e-08
-2.88329e-08
-3.44607e-08
-4.03778e-08
-4.64916e-08
-5.47069e-08
-6.84278e-08
-6.29758e-08
1.75812e-09
1.65398e-09
1.55467e-09
1.48735e-09
1.44113e-09
1.41264e-09
1.40147e-09
1.40669e-09
1.42714e-09
1.46172e-09
1.50946e-09
1.56951e-09
1.64113e-09
1.72369e-09
1.81665e-09
1.91955e-09
2.03203e-09
2.15379e-09
2.28458e-09
2.42421e-09
2.57253e-09
2.72942e-09
2.8948e-09
3.06861e-09
3.25081e-09
3.44137e-09
3.64027e-09
3.84751e-09
4.06307e-09
4.28694e-09
4.51911e-09
4.75954e-09
5.00821e-09
5.26506e-09
5.53001e-09
5.80297e-09
6.08382e-09
6.3724e-09
6.66851e-09
6.97194e-09
7.2824e-09
7.59957e-09
7.92307e-09
8.25247e-09
8.58724e-09
8.92683e-09
9.27057e-09
9.61772e-09
9.96743e-09
1.03188e-08
1.06707e-08
1.1022e-08
1.13715e-08
1.17175e-08
1.20587e-08
1.23931e-08
1.27188e-08
1.30338e-08
1.33356e-08
1.36216e-08
1.3889e-08
1.41347e-08
1.43553e-08
1.45472e-08
1.47061e-08
1.48278e-08
1.49074e-08
1.49397e-08
1.49189e-08
1.48389e-08
1.46929e-08
1.44737e-08
1.41732e-08
1.3783e-08
1.32938e-08
1.26955e-08
1.19774e-08
1.11279e-08
1.01344e-08
8.9837e-09
7.66149e-09
6.1526e-09
4.44097e-09
2.50968e-09
3.41e-10
-2.08347e-09
-4.78262e-09
-7.7756e-09
-1.10815e-08
-1.47187e-08
-1.87043e-08
-2.30529e-08
-2.7777e-08
-3.28894e-08
-3.8383e-08
-4.41227e-08
-5.00034e-08
-5.80382e-08
-7.20466e-08
-6.5744e-08
1.6327e-09
1.53599e-09
1.44343e-09
1.38008e-09
1.33589e-09
1.30789e-09
1.29583e-09
1.29898e-09
1.31632e-09
1.34691e-09
1.3899e-09
1.44452e-09
1.5101e-09
1.58604e-09
1.67185e-09
1.7671e-09
1.87141e-09
1.98448e-09
2.10605e-09
2.23591e-09
2.37389e-09
2.51984e-09
2.67364e-09
2.8352e-09
3.00445e-09
3.18131e-09
3.36572e-09
3.55763e-09
3.75699e-09
3.96373e-09
4.1778e-09
4.39911e-09
4.62757e-09
4.86309e-09
5.10552e-09
5.35473e-09
5.61053e-09
5.8727e-09
6.141e-09
6.41514e-09
6.69477e-09
6.97952e-09
7.26894e-09
7.56253e-09
7.85971e-09
8.15985e-09
8.46222e-09
8.76601e-09
9.07032e-09
9.37416e-09
9.67639e-09
9.97579e-09
1.0271e-08
1.05605e-08
1.08426e-08
1.11156e-08
1.13774e-08
1.16259e-08
1.18586e-08
1.20729e-08
1.22661e-08
1.24349e-08
1.25759e-08
1.26856e-08
1.27599e-08
1.27943e-08
1.27842e-08
1.27245e-08
1.26094e-08
1.24331e-08
1.21889e-08
1.18699e-08
1.14682e-08
1.09758e-08
1.03838e-08
9.68247e-09
8.86171e-09
7.91049e-09
6.81706e-09
5.56889e-09
4.15266e-09
2.55428e-09
7.58902e-10
-1.24904e-09
-3.48574e-09
-5.96788e-09
-8.71247e-09
-1.17366e-08
-1.50571e-08
-1.86901e-08
-2.26501e-08
-2.69494e-08
-3.15979e-08
-3.66071e-08
-4.19683e-08
-4.75395e-08
-5.32048e-08
-6.10771e-08
-7.53582e-08
-6.82959e-08
1.49902e-09
1.40942e-09
1.32334e-09
1.26392e-09
1.22186e-09
1.19456e-09
1.18192e-09
1.18335e-09
1.19795e-09
1.22492e-09
1.26348e-09
1.31297e-09
1.37276e-09
1.44232e-09
1.52117e-09
1.6089e-09
1.70516e-09
1.80963e-09
1.92205e-09
2.04219e-09
2.16986e-09
2.30488e-09
2.44711e-09
2.59643e-09
2.75272e-09
2.91587e-09
3.0858e-09
3.2624e-09
3.44557e-09
3.63522e-09
3.83123e-09
4.03348e-09
4.24183e-09
4.45613e-09
4.67619e-09
4.90183e-09
5.13279e-09
5.36881e-09
5.60959e-09
5.85479e-09
6.104e-09
6.35678e-09
6.61264e-09
6.87101e-09
7.13127e-09
7.3927e-09
7.65454e-09
7.9159e-09
8.17585e-09
8.4333e-09
8.6871e-09
8.93596e-09
9.17846e-09
9.41305e-09
9.63804e-09
9.85157e-09
1.00516e-08
1.02359e-08
1.04022e-08
1.05476e-08
1.06695e-08
1.07647e-08
1.08298e-08
1.08612e-08
1.08549e-08
1.08066e-08
1.07117e-08
1.05651e-08
1.03614e-08
1.00948e-08
9.75896e-09
9.347e-09
8.85162e-09
8.26494e-09
7.57848e-09
6.78318e-09
5.86933e-09
4.82657e-09
3.64386e-09
2.30949e-09
8.11058e-10
-8.6449e-10
-2.73085e-09
-4.80229e-09
-7.09358e-09
-9.61985e-09
-1.23964e-08
-1.54385e-08
-1.87611e-08
-2.23784e-08
-2.63028e-08
-3.05447e-08
-3.51124e-08
-4.00164e-08
-4.52474e-08
-5.06571e-08
-5.61203e-08
-6.38387e-08
-7.83587e-08
-7.06115e-08
1.35809e-09
1.27551e-09
1.19572e-09
1.14014e-09
1.10025e-09
1.0738e-09
1.06082e-09
1.06078e-09
1.07295e-09
1.09657e-09
1.131e-09
1.1756e-09
1.22985e-09
1.29323e-09
1.3653e-09
1.44568e-09
1.53402e-09
1.63e-09
1.73335e-09
1.84384e-09
1.96125e-09
2.08539e-09
2.21609e-09
2.3532e-09
2.49657e-09
2.64606e-09
2.80154e-09
2.96288e-09
3.12993e-09
3.30256e-09
3.48062e-09
3.66393e-09
3.85231e-09
4.04556e-09
4.24346e-09
4.44575e-09
4.65215e-09
4.86234e-09
5.07597e-09
5.29263e-09
5.51188e-09
5.73323e-09
5.95611e-09
6.17992e-09
6.40398e-09
6.62752e-09
6.84972e-09
7.06966e-09
7.28632e-09
7.4986e-09
7.70529e-09
7.90505e-09
8.09643e-09
8.27784e-09
8.44755e-09
8.60367e-09
8.74416e-09
8.86678e-09
8.96911e-09
9.04854e-09
9.10222e-09
9.12707e-09
9.11975e-09
9.07667e-09
8.99393e-09
8.86733e-09
8.69233e-09
8.46405e-09
8.17723e-09
7.8262e-09
7.40486e-09
6.90668e-09
6.32465e-09
5.65124e-09
4.87842e-09
3.9976e-09
2.99961e-09
1.87474e-09
6.12645e-10
-7.97583e-10
-2.36745e-09
-4.10904e-09
-6.03493e-09
-8.1582e-09
-1.04923e-08
-1.3051e-08
-1.5848e-08
-1.8897e-08
-2.22114e-08
-2.58035e-08
-2.96845e-08
-3.3863e-08
-3.83462e-08
-4.31439e-08
-4.82464e-08
-5.35005e-08
-5.87717e-08
-6.634e-08
-8.10578e-08
-7.26927e-08
1.21084e-09
1.13545e-09
1.06177e-09
1.00991e-09
9.72195e-10
9.46691e-10
9.33515e-10
9.32237e-10
9.42185e-10
9.62713e-10
9.93231e-10
1.03319e-09
1.0821e-09
1.1395e-09
1.20497e-09
1.27815e-09
1.3587e-09
1.44631e-09
1.5407e-09
1.64163e-09
1.74886e-09
1.8622e-09
1.98144e-09
2.10641e-09
2.23693e-09
2.37283e-09
2.51396e-09
2.66013e-09
2.81118e-09
2.96692e-09
3.12716e-09
3.2917e-09
3.4603e-09
3.63273e-09
3.80871e-09
3.98795e-09
4.17011e-09
4.35484e-09
4.54173e-09
4.73032e-09
4.92014e-09
5.11063e-09
5.30119e-09
5.49115e-09
5.6798e-09
5.86632e-09
6.04984e-09
6.2294e-09
6.40394e-09
6.57231e-09
6.73326e-09
6.88541e-09
7.0273e-09
7.15729e-09
7.27363e-09
7.37443e-09
7.45761e-09
7.52095e-09
7.56202e-09
7.57823e-09
7.56676e-09
7.52455e-09
7.44833e-09
7.33456e-09
7.17943e-09
6.97886e-09
6.72843e-09
6.4234e-09
6.0587e-09
5.62887e-09
5.12807e-09
4.55005e-09
3.88812e-09
3.13513e-09
2.28349e-09
1.32509e-09
2.51315e-10
-9.46936e-10
-2.2793e-09
-3.75593e-09
-5.38748e-09
-7.18508e-09
-9.1603e-09
-1.13251e-08
-1.36917e-08
-1.62726e-08
-1.90803e-08
-2.2127e-08
-2.54246e-08
-2.89842e-08
-3.28155e-08
-3.69262e-08
-4.13222e-08
-4.6013e-08
-5.0989e-08
-5.60919e-08
-6.11793e-08
-6.85988e-08
-8.34709e-08
-7.45482e-08
1.05891e-09
9.90595e-10
9.22693e-10
8.74349e-10
8.3875e-10
8.14228e-10
8.0097e-10
7.98599e-10
8.06514e-10
8.24144e-10
8.50963e-10
8.86483e-10
9.30252e-10
9.81853e-10
1.0409e-09
1.10704e-09
1.17994e-09
1.2593e-09
1.34485e-09
1.43633e-09
1.5335e-09
1.63613e-09
1.74402e-09
1.85695e-09
1.97473e-09
2.09716e-09
2.22405e-09
2.35519e-09
2.49038e-09
2.62939e-09
2.77201e-09
2.91799e-09
3.06706e-09
3.21893e-09
3.3733e-09
3.52982e-09
3.68813e-09
3.84781e-09
4.00842e-09
4.16947e-09
4.33043e-09
4.49069e-09
4.64963e-09
4.80652e-09
4.9606e-09
5.11103e-09
5.25688e-09
5.39716e-09
5.53077e-09
5.65653e-09
5.77315e-09
5.87925e-09
5.9733e-09
6.05367e-09
6.11859e-09
6.16616e-09
6.1943e-09
6.20079e-09
6.18323e-09
6.13904e-09
6.06542e-09
5.95939e-09
5.81774e-09
5.63699e-09
5.41345e-09
5.14313e-09
4.82177e-09
4.4448e-09
4.00732e-09
3.50411e-09
2.92958e-09
2.27777e-09
1.54234e-09
7.1652e-10
-2.06866e-10
-1.23543e-09
-2.37725e-09
-3.64082e-09
-5.03512e-09
-6.56955e-09
-8.25396e-09
-1.00986e-08
-1.21141e-08
-1.43114e-08
-1.67016e-08
-1.9296e-08
-2.2106e-08
-2.51426e-08
-2.84165e-08
-3.19376e-08
-3.57146e-08
-3.9754e-08
-4.40612e-08
-4.86453e-08
-5.34963e-08
-5.84521e-08
-6.33625e-08
-7.06337e-08
-8.56176e-08
-7.61917e-08
9.05072e-10
8.42155e-10
7.7932e-10
7.34331e-10
7.00809e-10
6.77295e-10
6.64043e-10
6.60708e-10
6.66747e-10
6.81652e-10
7.04955e-10
7.36217e-10
7.7503e-10
8.21009e-10
8.73795e-10
9.3305e-10
9.98458e-10
1.06972e-09
1.14657e-09
1.22873e-09
1.31596e-09
1.40801e-09
1.50467e-09
1.60569e-09
1.71087e-09
1.81997e-09
1.93278e-09
2.04906e-09
2.16858e-09
2.29108e-09
2.41631e-09
2.54398e-09
2.67379e-09
2.80542e-09
2.93852e-09
3.07271e-09
3.20758e-09
3.34269e-09
3.47755e-09
3.61162e-09
3.74433e-09
3.87506e-09
4.00311e-09
4.12775e-09
4.24815e-09
4.36345e-09
4.47269e-09
4.57483e-09
4.66875e-09
4.75325e-09
4.827e-09
4.8886e-09
4.93651e-09
4.96909e-09
4.98456e-09
4.981e-09
4.95637e-09
4.90845e-09
4.83486e-09
4.73305e-09
4.60028e-09
4.43363e-09
4.22994e-09
3.98585e-09
3.69775e-09
3.36179e-09
2.97386e-09
2.52956e-09
2.0242e-09
1.45278e-09
8.0998e-10
9.01386e-11
-7.12756e-10
-1.60508e-09
-2.5936e-09
-3.68544e-09
-4.88814e-09
-6.20964e-09
-7.65825e-09
-9.2427e-09
-1.09721e-08
-1.28557e-08
-1.49035e-08
-1.71253e-08
-1.95314e-08
-2.2132e-08
-2.49373e-08
-2.79575e-08
-3.1202e-08
-3.46799e-08
-3.83989e-08
-4.23648e-08
-4.65822e-08
-5.106e-08
-5.57881e-08
-6.06005e-08
-6.53404e-08
-7.24639e-08
-8.75195e-08
-7.76393e-08
7.50592e-10
6.89646e-10
6.31841e-10
5.90394e-10
5.59064e-10
5.36666e-10
5.23532e-10
5.19358e-10
5.23664e-10
5.36e-10
5.55952e-10
5.83128e-10
6.17156e-10
6.57683e-10
7.04374e-10
7.56908e-10
8.1498e-10
8.783e-10
9.46589e-10
1.01958e-09
1.09701e-09
1.17864e-09
1.26422e-09
1.3535e-09
1.44624e-09
1.54219e-09
1.64111e-09
1.74274e-09
1.84681e-09
1.95304e-09
2.06114e-09
2.17079e-09
2.28167e-09
2.39341e-09
2.50563e-09
2.61791e-09
2.72982e-09
2.84087e-09
2.95053e-09
3.05823e-09
3.16337e-09
3.26528e-09
3.36324e-09
3.45648e-09
3.54414e-09
3.62532e-09
3.69903e-09
3.76421e-09
3.81973e-09
3.86433e-09
3.89669e-09
3.91539e-09
3.91887e-09
3.90549e-09
3.87348e-09
3.82092e-09
3.74577e-09
3.64585e-09
3.51882e-09
3.36215e-09
3.17317e-09
2.94902e-09
2.68662e-09
2.38272e-09
2.03381e-09
1.63619e-09
1.1859e-09
6.78711e-10
1.10149e-10
-5.24551e-10
-1.23045e-09
-2.0129e-09
-2.87758e-09
-3.83049e-09
-4.87798e-09
-6.02672e-09
-7.28373e-09
-8.65639e-09
-1.01524e-08
-1.17798e-08
-1.35471e-08
-1.54627e-08
-1.75357e-08
-1.97752e-08
-2.21905e-08
-2.4791e-08
-2.75858e-08
-3.05843e-08
-3.3795e-08
-3.72261e-08
-4.08846e-08
-4.47754e-08
-4.89029e-08
-5.32755e-08
-5.78828e-08
-6.25556e-08
-6.71314e-08
-7.41085e-08
-8.91992e-08
-7.89088e-08
5.91076e-10
5.33622e-10
4.81323e-10
4.43444e-10
4.14338e-10
3.93163e-10
3.80247e-10
3.75339e-10
3.78033e-10
3.87939e-10
4.04691e-10
4.27938e-10
4.57344e-10
4.92584e-10
5.33344e-10
5.79321e-10
6.3022e-10
6.85756e-10
7.45651e-10
8.09635e-10
8.77443e-10
9.48814e-10
1.02349e-09
1.1012e-09
1.1817e-09
1.26471e-09
1.34996e-09
1.43718e-09
1.52605e-09
1.61629e-09
1.70757e-09
1.79954e-09
1.89184e-09
1.98408e-09
2.07584e-09
2.16669e-09
2.25613e-09
2.34367e-09
2.42872e-09
2.51071e-09
2.58899e-09
2.66285e-09
2.73154e-09
2.79427e-09
2.85015e-09
2.89825e-09
2.93757e-09
2.967e-09
2.9854e-09
2.99151e-09
2.98399e-09
2.96138e-09
2.92217e-09
2.86468e-09
2.78715e-09
2.68769e-09
2.56428e-09
2.41476e-09
2.23683e-09
2.02802e-09
1.78571e-09
1.50711e-09
1.18925e-09
8.28967e-10
4.22885e-10
-3.25689e-11
-5.41193e-10
-1.10702e-09
-1.73432e-09
-2.42762e-09
-3.19172e-09
-4.03167e-09
-4.95282e-09
-5.96081e-09
-7.06156e-09
-8.26132e-09
-9.56661e-09
-1.09843e-08
-1.25215e-08
-1.41856e-08
-1.59843e-08
-1.79257e-08
-2.00178e-08
-2.2269e-08
-2.46879e-08
-2.72829e-08
-3.00625e-08
-3.30351e-08
-3.62086e-08
-3.95902e-08
-4.31864e-08
-4.70016e-08
-5.10395e-08
-5.53083e-08
-5.97975e-08
-6.43348e-08
-6.87531e-08
-7.55861e-08
-9.06792e-08
-8.00179e-08
4.25974e-10
3.76915e-10
3.2957e-10
2.94607e-10
2.67614e-10
2.47672e-10
2.35009e-10
2.29438e-10
2.30617e-10
2.38211e-10
2.51895e-10
2.71359e-10
2.96296e-10
3.26407e-10
3.614e-10
4.00986e-10
4.4488e-10
4.92803e-10
5.44479e-10
5.99635e-10
6.57999e-10
7.19302e-10
7.8327e-10
8.49631e-10
9.18104e-10
9.88405e-10
1.06024e-09
1.1333e-09
1.20728e-09
1.28183e-09
1.35662e-09
1.43127e-09
1.50538e-09
1.57855e-09
1.65032e-09
1.72023e-09
1.78776e-09
1.85236e-09
1.91345e-09
1.97041e-09
2.02255e-09
2.06916e-09
2.10945e-09
2.1426e-09
2.1677e-09
2.18379e-09
2.18986e-09
2.18478e-09
2.16739e-09
2.13642e-09
2.09052e-09
2.02825e-09
1.94805e-09
1.8483e-09
1.72722e-09
1.58296e-09
1.41351e-09
1.21675e-09
9.90426e-10
7.32131e-10
4.39312e-10
1.09255e-10
-2.6092e-10
-6.74269e-10
-1.13403e-09
-1.64364e-09
-2.20673e-09
-2.82714e-09
-3.50894e-09
-4.25642e-09
-5.0741e-09
-5.96677e-09
-6.93943e-09
-7.99736e-09
-9.14612e-09
-1.03915e-08
-1.17396e-08
-1.31966e-08
-1.47693e-08
-1.64645e-08
-1.82892e-08
-2.02508e-08
-2.23567e-08
-2.46146e-08
-2.70322e-08
-2.96174e-08
-3.23779e-08
-3.53213e-08
-3.84549e-08
-4.17853e-08
-4.53183e-08
-4.90578e-08
-5.30071e-08
-5.71743e-08
-6.15483e-08
-6.59546e-08
-7.02222e-08
-7.69143e-08
-9.19811e-08
-8.09839e-08
2.61312e-10
2.19658e-10
1.76716e-10
1.44616e-10
1.19723e-10
1.00992e-10
8.85971e-11
8.24116e-11
8.21546e-11
8.75362e-11
9.82736e-11
1.14088e-10
1.34702e-10
1.5984e-10
1.89227e-10
2.2259e-10
2.59653e-10
3.00142e-10
3.43784e-10
3.90303e-10
4.39422e-10
4.90864e-10
5.44347e-10
5.99581e-10
6.56274e-10
7.14122e-10
7.72813e-10
8.32023e-10
8.91412e-10
9.50624e-10
1.00929e-09
1.06701e-09
1.12336e-09
1.17792e-09
1.23019e-09
1.27969e-09
1.32587e-09
1.36816e-09
1.40596e-09
1.4386e-09
1.46538e-09
1.48556e-09
1.49834e-09
1.50286e-09
1.4982e-09
1.48339e-09
1.45737e-09
1.41904e-09
1.3672e-09
1.30058e-09
1.21782e-09
1.11749e-09
9.98053e-10
8.57866e-10
6.95196e-10
5.08194e-10
2.94901e-10
5.32327e-11
-2.19019e-10
-5.24198e-10
-8.64785e-10
-1.24341e-09
-1.66285e-09
-2.12606e-09
-2.63613e-09
-3.19637e-09
-3.81023e-09
-4.48138e-09
-5.21366e-09
-6.01114e-09
-6.87809e-09
-7.81898e-09
-8.83854e-09
-9.94168e-09
-1.11336e-08
-1.24196e-08
-1.38054e-08
-1.52969e-08
-1.69001e-08
-1.86213e-08
-2.0467e-08
-2.2444e-08
-2.45591e-08
-2.68193e-08
-2.92317e-08
-3.18035e-08
-3.45418e-08
-3.74535e-08
-4.05454e-08
-4.38234e-08
-4.7293e-08
-5.09574e-08
-5.48198e-08
-5.88878e-08
-6.31501e-08
-6.74304e-08
-7.15544e-08
-7.81099e-08
-9.3125e-08
-8.18235e-08
9.8599e-11
6.18032e-11
2.32487e-11
-5.80268e-12
-2.86234e-11
-4.61595e-11
-5.82679e-11
-6.50236e-11
-6.6649e-11
-6.33888e-11
-5.54891e-11
-4.31982e-11
-2.67673e-11
-6.45083e-12
1.74933e-11
4.48034e-11
7.52141e-11
1.08457e-10
1.44259e-10
1.82345e-10
2.22433e-10
2.6424e-10
3.07472e-10
3.5183e-10
3.97007e-10
4.42684e-10
4.88532e-10
5.34207e-10
5.79351e-10
6.23588e-10
6.66521e-10
7.07734e-10
7.46786e-10
7.8321e-10
8.1651e-10
8.4616e-10
8.71599e-10
8.92232e-10
9.07421e-10
9.16489e-10
9.18715e-10
9.13327e-10
8.99505e-10
8.76373e-10
8.42999e-10
7.98388e-10
7.41483e-10
6.71157e-10
5.86214e-10
4.85379e-10
3.67299e-10
2.30538e-10
7.35685e-11
-1.05226e-10
-3.07561e-10
-5.35255e-10
-7.90232e-10
-1.07453e-09
-1.3903e-09
-1.73983e-09
-2.12552e-09
-2.5499e-09
-3.01567e-09
-3.52565e-09
-4.08281e-09
-4.69031e-09
-5.35143e-09
-6.06965e-09
-6.84863e-09
-7.69218e-09
-8.60433e-09
-9.58929e-09
-1.06514e-08
-1.17954e-08
-1.3026e-08
-1.43482e-08
-1.57673e-08
-1.72886e-08
-1.89177e-08
-2.06605e-08
-2.2523e-08
-2.45112e-08
-2.66316e-08
-2.88904e-08
-3.12944e-08
-3.38499e-08
-3.65636e-08
-3.94419e-08
-4.24908e-08
-4.57161e-08
-4.91225e-08
-5.27132e-08
-5.64906e-08
-6.04624e-08
-6.4617e-08
-6.87763e-08
-7.27643e-08
-7.91881e-08
-9.41301e-08
-8.25518e-08
-6.26917e-11
-9.52621e-11
-1.29687e-10
-1.55851e-10
-1.76685e-10
-1.93078e-10
-2.049e-10
-2.12189e-10
-2.15122e-10
-2.13899e-10
-2.08733e-10
-1.99844e-10
-1.8746e-10
-1.71815e-10
-1.53152e-10
-1.3172e-10
-1.07778e-10
-8.15876e-11
-5.34197e-11
-2.35512e-11
7.73403e-12
4.01443e-11
7.33794e-11
1.0713e-10
1.41076e-10
1.74885e-10
2.08212e-10
2.40697e-10
2.71963e-10
3.01615e-10
3.29238e-10