/*--------------------------------*- C++ -*----------------------------------*\
  =========                 |
  \\      /  F ield         | OpenFOAM: The Open Source CFD Toolbox
   \\    /   O peration     | Website:  https://openfoam.org
    \\  /    A nd           | Version:  11
     \\/     M anipulation  |
\*---------------------------------------------------------------------------*/
FoamFile
{
    format      ascii;
    class       volScalarField;
    location    "394";
    object      k;
}
// * * * * * * * * * * * * * * * * * * * * * * * * * * * * * * * * * * * * * //

dimensions      [0 2 -2 0 0 0 0];

internalField   nonuniform List<scalar> 
10000
(
0.000939685
0.00083571
0.000745875
0.00066801
0.000600307
0.000541255
0.00048959
0.000444248
0.000404335
0.000369096
0.000337893
0.000310184
0.000285509
0.000263473
0.000243742
0.000226028
0.000210083
0.000195695
0.00018268
0.000170878
0.000160151
0.00015038
0.000141459
0.000133298
0.000125815
0.00011894
0.000112613
0.000106777
0.000101385
9.63938e-05
9.17659e-05
8.74675e-05
8.34685e-05
7.97421e-05
7.62645e-05
7.3014e-05
6.99717e-05
6.712e-05
6.44436e-05
6.19284e-05
5.95617e-05
5.73323e-05
5.52297e-05
5.32446e-05
5.13687e-05
4.95942e-05
4.79143e-05
4.63227e-05
4.48137e-05
4.33823e-05
4.20237e-05
4.0734e-05
3.95092e-05
3.83461e-05
3.72416e-05
3.61931e-05
3.51981e-05
3.42546e-05
3.33607e-05
3.25148e-05
3.17154e-05
3.09611e-05
3.02509e-05
2.95838e-05
2.89587e-05
2.83747e-05
2.7831e-05
2.73267e-05
2.68609e-05
2.64326e-05
2.60407e-05
2.56843e-05
2.53619e-05
2.50722e-05
2.4814e-05
2.45858e-05
2.4386e-05
2.42131e-05
2.40651e-05
2.39404e-05
2.38369e-05
2.37528e-05
2.36863e-05
2.36356e-05
2.35989e-05
2.35746e-05
2.35607e-05
2.35558e-05
2.35579e-05
2.3566e-05
2.35785e-05
2.35942e-05
2.36117e-05
2.36298e-05
2.36472e-05
2.36629e-05
2.36759e-05
2.36855e-05
2.36912e-05
2.36928e-05
0.000939685
0.00083571
0.000745875
0.00066801
0.000600307
0.000541256
0.00048959
0.000444248
0.000404335
0.000369097
0.000337894
0.000310185
0.000285509
0.000263474
0.000243743
0.000226029
0.000210084
0.000195696
0.00018268
0.000170878
0.000160152
0.00015038
0.00014146
0.000133298
0.000125815
0.000118941
0.000112613
0.000106777
0.000101385
9.63943e-05
9.17664e-05
8.7468e-05
8.3469e-05
7.97426e-05
7.6265e-05
7.30146e-05
6.99722e-05
6.71206e-05
6.44442e-05
6.1929e-05
5.95623e-05
5.73329e-05
5.52303e-05
5.32453e-05
5.13694e-05
4.95949e-05
4.7915e-05
4.63235e-05
4.48145e-05
4.33831e-05
4.20246e-05
4.07349e-05
3.95102e-05
3.83471e-05
3.72426e-05
3.61941e-05
3.51992e-05
3.42558e-05
3.33619e-05
3.2516e-05
3.17166e-05
3.09624e-05
3.02522e-05
2.9585e-05
2.89599e-05
2.8376e-05
2.78323e-05
2.7328e-05
2.68621e-05
2.64338e-05
2.60419e-05
2.56854e-05
2.5363e-05
2.50734e-05
2.48153e-05
2.45871e-05
2.43873e-05
2.42142e-05
2.40661e-05
2.39411e-05
2.38375e-05
2.37533e-05
2.36867e-05
2.36359e-05
2.35992e-05
2.35747e-05
2.35608e-05
2.35559e-05
2.35579e-05
2.3566e-05
2.35785e-05
2.35942e-05
2.36117e-05
2.36297e-05
2.36471e-05
2.36628e-05
2.36758e-05
2.36854e-05
2.36911e-05
2.36928e-05
0.000939685
0.00083571
0.000745876
0.000668011
0.000600308
0.000541256
0.000489591
0.000444249
0.000404336
0.000369097
0.000337895
0.000310186
0.00028551
0.000263475
0.000243744
0.000226029
0.000210085
0.000195697
0.000182681
0.000170879
0.000160153
0.000150381
0.000141461
0.000133299
0.000125816
0.000118942
0.000112614
0.000106778
0.000101386
9.63951e-05
9.17672e-05
8.74688e-05
8.34698e-05
7.97435e-05
7.62659e-05
7.30155e-05
6.99731e-05
6.71215e-05
6.44451e-05
6.193e-05
5.95634e-05
5.73339e-05
5.52314e-05
5.32464e-05
5.13705e-05
4.95961e-05
4.79162e-05
4.63247e-05
4.48158e-05
4.33844e-05
4.20259e-05
4.07362e-05
3.95115e-05
3.83485e-05
3.7244e-05
3.61956e-05
3.52007e-05
3.42572e-05
3.33634e-05
3.25175e-05
3.17181e-05
3.09638e-05
3.02537e-05
2.95865e-05
2.89613e-05
2.83773e-05
2.78336e-05
2.73292e-05
2.68633e-05
2.64349e-05
2.6043e-05
2.56864e-05
2.53639e-05
2.50743e-05
2.48161e-05
2.45878e-05
2.43879e-05
2.42147e-05
2.40665e-05
2.39414e-05
2.38376e-05
2.37532e-05
2.36865e-05
2.36357e-05
2.35989e-05
2.35744e-05
2.35605e-05
2.35555e-05
2.35575e-05
2.35656e-05
2.35781e-05
2.35938e-05
2.36113e-05
2.36294e-05
2.36468e-05
2.36625e-05
2.36756e-05
2.36852e-05
2.36909e-05
2.36926e-05
0.000939685
0.000835711
0.000745876
0.000668011
0.000600309
0.000541257
0.000489592
0.00044425
0.000404337
0.000369099
0.000337896
0.000310187
0.000285511
0.000263476
0.000243745
0.000226031
0.000210086
0.000195698
0.000182682
0.00017088
0.000160154
0.000150382
0.000141462
0.0001333
0.000125817
0.000118943
0.000112615
0.000106779
0.000101387
9.63963e-05
9.17685e-05
8.74701e-05
8.34711e-05
7.97448e-05
7.62672e-05
7.30168e-05
6.99745e-05
6.71229e-05
6.44465e-05
6.19314e-05
5.95648e-05
5.73354e-05
5.52329e-05
5.32479e-05
5.13721e-05
4.95977e-05
4.79179e-05
4.63264e-05
4.48175e-05
4.33862e-05
4.20277e-05
4.07381e-05
3.95134e-05
3.83503e-05
3.72459e-05
3.61975e-05
3.52026e-05
3.42592e-05
3.33653e-05
3.25194e-05
3.172e-05
3.09657e-05
3.02555e-05
2.95883e-05
2.89631e-05
2.8379e-05
2.78351e-05
2.73307e-05
2.68647e-05
2.64361e-05
2.60441e-05
2.56873e-05
2.53647e-05
2.5075e-05
2.48167e-05
2.45883e-05
2.43882e-05
2.42149e-05
2.40665e-05
2.39412e-05
2.38372e-05
2.37528e-05
2.3686e-05
2.3635e-05
2.35982e-05
2.35736e-05
2.35597e-05
2.35547e-05
2.35568e-05
2.35648e-05
2.35774e-05
2.35931e-05
2.36107e-05
2.36288e-05
2.36463e-05
2.3662e-05
2.36751e-05
2.36848e-05
2.36906e-05
2.36922e-05
0.000939685
0.000835711
0.000745877
0.000668012
0.00060031
0.000541258
0.000489593
0.000444251
0.000404338
0.0003691
0.000337897
0.000310188
0.000285513
0.000263477
0.000243746
0.000226032
0.000210087
0.000195699
0.000182684
0.000170882
0.000160155
0.000150384
0.000141463
0.000133302
0.000125819
0.000118944
0.000112617
0.000106781
0.000101389
9.63979e-05
9.17701e-05
8.74717e-05
8.34728e-05
7.97465e-05
7.62689e-05
7.30186e-05
6.99763e-05
6.71247e-05
6.44484e-05
6.19333e-05
5.95668e-05
5.73374e-05
5.52349e-05
5.325e-05
5.13742e-05
4.95998e-05
4.79201e-05
4.63286e-05
4.48198e-05
4.33885e-05
4.20301e-05
4.07405e-05
3.95158e-05
3.83528e-05
3.72484e-05
3.62e-05
3.52051e-05
3.42617e-05
3.33678e-05
3.25219e-05
3.17224e-05
3.09681e-05
3.02578e-05
2.95905e-05
2.89652e-05
2.8381e-05
2.78371e-05
2.73324e-05
2.68663e-05
2.64376e-05
2.60453e-05
2.56884e-05
2.53656e-05
2.50757e-05
2.48172e-05
2.45886e-05
2.43884e-05
2.42148e-05
2.40662e-05
2.39408e-05
2.38367e-05
2.37521e-05
2.36852e-05
2.36341e-05
2.35972e-05
2.35726e-05
2.35586e-05
2.35536e-05
2.35557e-05
2.35637e-05
2.35764e-05
2.35922e-05
2.36098e-05
2.3628e-05
2.36455e-05
2.36614e-05
2.36745e-05
2.36843e-05
2.36901e-05
2.36918e-05
0.000939685
0.000835711
0.000745877
0.000668013
0.000600311
0.000541259
0.000489594
0.000444253
0.00040434
0.000369102
0.000337899
0.00031019
0.000285514
0.000263479
0.000243748
0.000226034
0.000210089
0.000195701
0.000182686
0.000170884
0.000160157
0.000150386
0.000141465
0.000133303
0.000125821
0.000118946
0.000112619
0.000106783
0.000101391
9.63999e-05
9.17721e-05
8.74737e-05
8.34748e-05
7.97485e-05
7.6271e-05
7.30207e-05
6.99784e-05
6.71269e-05
6.44507e-05
6.19356e-05
5.95691e-05
5.73398e-05
5.52374e-05
5.32525e-05
5.13768e-05
4.96025e-05
4.79228e-05
4.63313e-05
4.48226e-05
4.33913e-05
4.2033e-05
4.07434e-05
3.95188e-05
3.83558e-05
3.72515e-05
3.62031e-05
3.52082e-05
3.42648e-05
3.33709e-05
3.25249e-05
3.17254e-05
3.0971e-05
3.02606e-05
2.95932e-05
2.89678e-05
2.83835e-05
2.78393e-05
2.73345e-05
2.68681e-05
2.64392e-05
2.60468e-05
2.56896e-05
2.53666e-05
2.50764e-05
2.48177e-05
2.45889e-05
2.43884e-05
2.42146e-05
2.40658e-05
2.39401e-05
2.38358e-05
2.37511e-05
2.3684e-05
2.36329e-05
2.35959e-05
2.35712e-05
2.35572e-05
2.35522e-05
2.35543e-05
2.35624e-05
2.35751e-05
2.3591e-05
2.36087e-05
2.36269e-05
2.36446e-05
2.36605e-05
2.36738e-05
2.36836e-05
2.36894e-05
2.36911e-05
0.000939685
0.000835712
0.000745877
0.000668014
0.000600311
0.000541261
0.000489596
0.000444254
0.000404341
0.000369103
0.000337901
0.000310192
0.000285516
0.000263481
0.00024375
0.000226036
0.000210091
0.000195703
0.000182688
0.000170886
0.000160159
0.000150388
0.000141467
0.000133305
0.000125823
0.000118948
0.000112621
0.000106785
0.000101393
9.64022e-05
9.17744e-05
8.74761e-05
8.34772e-05
7.9751e-05
7.62735e-05
7.30232e-05
6.9981e-05
6.71296e-05
6.44533e-05
6.19383e-05
5.95719e-05
5.73427e-05
5.52403e-05
5.32555e-05
5.13798e-05
4.96056e-05
4.79259e-05
4.63346e-05
4.48259e-05
4.33947e-05
4.20364e-05
4.07469e-05
3.95223e-05
3.83594e-05
3.72551e-05
3.62067e-05
3.52118e-05
3.42684e-05
3.33745e-05
3.25284e-05
3.17289e-05
3.09744e-05
3.02639e-05
2.95964e-05
2.89708e-05
2.83863e-05
2.78419e-05
2.73369e-05
2.68703e-05
2.64411e-05
2.60484e-05
2.56909e-05
2.53676e-05
2.50772e-05
2.48181e-05
2.4589e-05
2.43883e-05
2.42142e-05
2.40651e-05
2.39392e-05
2.38347e-05
2.37498e-05
2.36826e-05
2.36313e-05
2.35942e-05
2.35695e-05
2.35555e-05
2.35505e-05
2.35526e-05
2.35608e-05
2.35735e-05
2.35895e-05
2.36073e-05
2.36257e-05
2.36434e-05
2.36595e-05
2.36728e-05
2.36827e-05
2.36886e-05
2.36902e-05
0.000939685
0.000835712
0.000745878
0.000668014
0.000600312
0.000541262
0.000489597
0.000444255
0.000404343
0.000369105
0.000337902
0.000310194
0.000285518
0.000263483
0.000243752
0.000226038
0.000210093
0.000195705
0.00018269
0.000170888
0.000160161
0.00015039
0.00014147
0.000133308
0.000125825
0.000118951
0.000112623
0.000106788
0.000101396
9.64047e-05
9.1777e-05
8.74788e-05
8.34799e-05
7.97537e-05
7.62763e-05
7.30261e-05
6.9984e-05
6.71326e-05
6.44564e-05
6.19415e-05
5.95751e-05
5.7346e-05
5.52437e-05
5.32589e-05
5.13833e-05
4.96092e-05
4.79296e-05
4.63383e-05
4.48297e-05
4.33986e-05
4.20403e-05
4.07509e-05
3.95264e-05
3.83635e-05
3.72592e-05
3.62108e-05
3.52159e-05
3.42725e-05
3.33785e-05
3.25325e-05
3.17328e-05
3.09783e-05
3.02677e-05
2.96e-05
2.89742e-05
2.83895e-05
2.78449e-05
2.73396e-05
2.68727e-05
2.64432e-05
2.60501e-05
2.56924e-05
2.53687e-05
2.50779e-05
2.48185e-05
2.45891e-05
2.4388e-05
2.42137e-05
2.40643e-05
2.39382e-05
2.38334e-05
2.37483e-05
2.36809e-05
2.36295e-05
2.35923e-05
2.35676e-05
2.35535e-05
2.35485e-05
2.35506e-05
2.35589e-05
2.35717e-05
2.35877e-05
2.36057e-05
2.36242e-05
2.36421e-05
2.36582e-05
2.36717e-05
2.36816e-05
2.36876e-05
2.36892e-05
0.000939685
0.000835712
0.000745878
0.000668015
0.000600313
0.000541263
0.000489598
0.000444257
0.000404345
0.000369107
0.000337904
0.000310196
0.00028552
0.000263485
0.000243754
0.00022604
0.000210096
0.000195708
0.000182692
0.000170891
0.000160164
0.000150393
0.000141472
0.000133311
0.000125828
0.000118954
0.000112626
0.00010679
0.000101398
9.64076e-05
9.178e-05
8.74817e-05
8.3483e-05
7.97568e-05
7.62794e-05
7.30293e-05
6.99872e-05
6.71359e-05
6.44599e-05
6.1945e-05
5.95787e-05
5.73496e-05
5.52474e-05
5.32628e-05
5.13872e-05
4.96132e-05
4.79337e-05
4.63425e-05
4.4834e-05
4.34029e-05
4.20448e-05
4.07553e-05
3.95309e-05
3.8368e-05
3.72638e-05
3.62154e-05
3.52206e-05
3.42771e-05
3.33831e-05
3.2537e-05
3.17373e-05
3.09826e-05
3.02718e-05
2.96039e-05
2.8978e-05
2.8393e-05
2.78482e-05
2.73426e-05
2.68754e-05
2.64455e-05
2.60521e-05
2.5694e-05
2.53699e-05
2.50787e-05
2.4819e-05
2.45892e-05
2.43877e-05
2.4213e-05
2.40633e-05
2.39369e-05
2.38319e-05
2.37466e-05
2.3679e-05
2.36275e-05
2.35901e-05
2.35653e-05
2.35512e-05
2.35462e-05
2.35484e-05
2.35567e-05
2.35696e-05
2.35858e-05
2.36038e-05
2.36224e-05
2.36405e-05
2.36567e-05
2.36703e-05
2.36804e-05
2.36863e-05
2.36879e-05
0.000939685
0.000835712
0.000745879
0.000668015
0.000600314
0.000541264
0.000489599
0.000444258
0.000404346
0.000369109
0.000337906
0.000310198
0.000285522
0.000263487
0.000243757
0.000226043
0.000210098
0.00019571
0.000182695
0.000170893
0.000160167
0.000150396
0.000141475
0.000133313
0.000125831
0.000118957
0.000112629
0.000106793
0.000101402
9.64108e-05
9.17832e-05
8.7485e-05
8.34863e-05
7.97602e-05
7.62829e-05
7.30329e-05
6.99909e-05
6.71396e-05
6.44636e-05
6.19489e-05
5.95827e-05
5.73537e-05
5.52516e-05
5.3267e-05
5.13916e-05
4.96176e-05
4.79382e-05
4.63471e-05
4.48387e-05
4.34077e-05
4.20497e-05
4.07603e-05
3.95359e-05
3.83731e-05
3.72689e-05
3.62206e-05
3.52257e-05
3.42822e-05
3.33882e-05
3.2542e-05
3.17421e-05
3.09873e-05
3.02764e-05
2.96083e-05
2.89821e-05
2.83969e-05
2.78518e-05
2.73459e-05
2.68783e-05
2.64481e-05
2.60542e-05
2.56957e-05
2.53712e-05
2.50796e-05
2.48194e-05
2.45892e-05
2.43873e-05
2.42123e-05
2.40622e-05
2.39355e-05
2.38302e-05
2.37446e-05
2.36768e-05
2.36251e-05
2.35877e-05
2.35628e-05
2.35487e-05
2.35437e-05
2.35459e-05
2.35542e-05
2.35673e-05
2.35835e-05
2.36017e-05
2.36205e-05
2.36386e-05
2.36551e-05
2.36687e-05
2.36789e-05
2.36849e-05
2.36865e-05
0.000939686
0.000835712
0.000745879
0.000668016
0.000600315
0.000541265
0.000489601
0.00044426
0.000404348
0.00036911
0.000337908
0.0003102
0.000285525
0.00026349
0.000243759
0.000226045
0.000210101
0.000195713
0.000182698
0.000170896
0.00016017
0.000150398
0.000141478
0.000133316
0.000125834
0.00011896
0.000112632
0.000106797
0.000101405
9.64141e-05
9.17866e-05
8.74885e-05
8.34899e-05
7.97639e-05
7.62867e-05
7.30367e-05
6.99948e-05
6.71437e-05
6.44678e-05
6.19531e-05
5.9587e-05
5.73581e-05
5.52561e-05
5.32717e-05
5.13963e-05
4.96225e-05
4.79432e-05
4.63522e-05
4.48438e-05
4.3413e-05
4.2055e-05
4.07657e-05
3.95414e-05
3.83787e-05
3.72745e-05
3.62261e-05
3.52313e-05
3.42878e-05
3.33937e-05
3.25474e-05
3.17475e-05
3.09925e-05
3.02814e-05
2.96131e-05
2.89867e-05
2.84011e-05
2.78557e-05
2.73494e-05
2.68814e-05
2.64508e-05
2.60565e-05
2.56975e-05
2.53726e-05
2.50805e-05
2.48198e-05
2.45892e-05
2.43869e-05
2.42114e-05
2.4061e-05
2.39339e-05
2.38283e-05
2.37424e-05
2.36745e-05
2.36226e-05
2.3585e-05
2.356e-05
2.35459e-05
2.35409e-05
2.35431e-05
2.35515e-05
2.35647e-05
2.35811e-05
2.35994e-05
2.36183e-05
2.36366e-05
2.36531e-05
2.36669e-05
2.36772e-05
2.36832e-05
2.36848e-05
0.000939686
0.000835713
0.000745879
0.000668016
0.000600315
0.000541266
0.000489602
0.000444261
0.000404349
0.000369112
0.00033791
0.000310202
0.000285527
0.000263492
0.000243762
0.000226048
0.000210104
0.000195716
0.000182701
0.000170899
0.000160173
0.000150401
0.000141481
0.00013332
0.000125837
0.000118963
0.000112635
0.0001068
0.000101408
9.64177e-05
9.17903e-05
8.74923e-05
8.34937e-05
7.97678e-05
7.62907e-05
7.30408e-05
6.9999e-05
6.7148e-05
6.44722e-05
6.19576e-05
5.95916e-05
5.73629e-05
5.5261e-05
5.32767e-05
5.14014e-05
4.96277e-05
4.79485e-05
4.63576e-05
4.48494e-05
4.34186e-05
4.20607e-05
4.07715e-05
3.95473e-05
3.83846e-05
3.72805e-05
3.62322e-05
3.52373e-05
3.42938e-05
3.33996e-05
3.25533e-05
3.17532e-05
3.09981e-05
3.02868e-05
2.96183e-05
2.89915e-05
2.84057e-05
2.78599e-05
2.73532e-05
2.68848e-05
2.64537e-05
2.6059e-05
2.56995e-05
2.53741e-05
2.50815e-05
2.48203e-05
2.45891e-05
2.43864e-05
2.42105e-05
2.40597e-05
2.39322e-05
2.38263e-05
2.37401e-05
2.36719e-05
2.36198e-05
2.35821e-05
2.3557e-05
2.35428e-05
2.35379e-05
2.35401e-05
2.35486e-05
2.35618e-05
2.35783e-05
2.35968e-05
2.36158e-05
2.36343e-05
2.3651e-05
2.36649e-05
2.36752e-05
2.36814e-05
2.3683e-05
0.000939686
0.000835713
0.00074588
0.000668017
0.000600316
0.000541267
0.000489603
0.000444262
0.000404351
0.000369114
0.000337912
0.000310204
0.000285529
0.000263494
0.000243764
0.00022605
0.000210106
0.000195718
0.000182703
0.000170902
0.000160176
0.000150405
0.000141484
0.000133323
0.00012584
0.000118966
0.000112639
0.000106804
0.000101412
9.64215e-05
9.17941e-05
8.74962e-05
8.34978e-05
7.9772e-05
7.62949e-05
7.30452e-05
7.00035e-05
6.71526e-05
6.44769e-05
6.19624e-05
5.95966e-05
5.73679e-05
5.52662e-05
5.3282e-05
5.14069e-05
4.96333e-05
4.79542e-05
4.63634e-05
4.48553e-05
4.34247e-05
4.20669e-05
4.07778e-05
3.95536e-05
3.8391e-05
3.72869e-05
3.62386e-05
3.52437e-05
3.43001e-05
3.3406e-05
3.25595e-05
3.17593e-05
3.1004e-05
3.02925e-05
2.96237e-05
2.89967e-05
2.84105e-05
2.78643e-05
2.73572e-05
2.68884e-05
2.64568e-05
2.60616e-05
2.57015e-05
2.53756e-05
2.50825e-05
2.48208e-05
2.45891e-05
2.43859e-05
2.42095e-05
2.40582e-05
2.39303e-05
2.38241e-05
2.37376e-05
2.36692e-05
2.36169e-05
2.3579e-05
2.35538e-05
2.35396e-05
2.35346e-05
2.35369e-05
2.35454e-05
2.35588e-05
2.35754e-05
2.3594e-05
2.36132e-05
2.36318e-05
2.36486e-05
2.36627e-05
2.36731e-05
2.36793e-05
2.36809e-05
0.000939686
0.000835713
0.00074588
0.000668017
0.000600317
0.000541267
0.000489604
0.000444264
0.000404352
0.000369115
0.000337914
0.000310206
0.000285531
0.000263497
0.000243766
0.000226053
0.000210109
0.000195721
0.000182706
0.000170905
0.000160179
0.000150408
0.000141488
0.000133326
0.000125844
0.00011897
0.000112643
0.000106807
0.000101416
9.64255e-05
9.17982e-05
8.75004e-05
8.3502e-05
7.97764e-05
7.62994e-05
7.30498e-05
7.00082e-05
6.71574e-05
6.44818e-05
6.19675e-05
5.96018e-05
5.73733e-05
5.52716e-05
5.32876e-05
5.14126e-05
4.96391e-05
4.79602e-05
4.63696e-05
4.48616e-05
4.3431e-05
4.20733e-05
4.07843e-05
3.95602e-05
3.83977e-05
3.72936e-05
3.62454e-05
3.52505e-05
3.43069e-05
3.34126e-05
3.25661e-05
3.17657e-05
3.10103e-05
3.02985e-05
2.96295e-05
2.90021e-05
2.84156e-05
2.7869e-05
2.73615e-05
2.68922e-05
2.64601e-05
2.60643e-05
2.57037e-05
2.53772e-05
2.50835e-05
2.48213e-05
2.45891e-05
2.43853e-05
2.42084e-05
2.40567e-05
2.39284e-05
2.38218e-05
2.3735e-05
2.36662e-05
2.36138e-05
2.35757e-05
2.35504e-05
2.35361e-05
2.35311e-05
2.35334e-05
2.3542e-05
2.35555e-05
2.35722e-05
2.35909e-05
2.36103e-05
2.3629e-05
2.3646e-05
2.36602e-05
2.36707e-05
2.3677e-05
2.36787e-05
0.000939686
0.000835713
0.00074588
0.000668018
0.000600317
0.000541268
0.000489605
0.000444265
0.000404354
0.000369117
0.000337916
0.000310208
0.000285533
0.000263499
0.000243769
0.000226056
0.000210112
0.000195724
0.000182709
0.000170908
0.000160182
0.000150411
0.000141491
0.00013333
0.000125847
0.000118974
0.000112646
0.000106811
0.00010142
9.64296e-05
9.18024e-05
8.75047e-05
8.35064e-05
7.97809e-05
7.63041e-05
7.30546e-05
7.00131e-05
6.71624e-05
6.4487e-05
6.19728e-05
5.96073e-05
5.73789e-05
5.52774e-05
5.32935e-05
5.14187e-05
4.96453e-05
4.79665e-05
4.6376e-05
4.48681e-05
4.34377e-05
4.20802e-05
4.07912e-05
3.95672e-05
3.84047e-05
3.73007e-05
3.62525e-05
3.52576e-05
3.4314e-05
3.34197e-05
3.2573e-05
3.17725e-05
3.10168e-05
3.03049e-05
2.96355e-05
2.90079e-05
2.8421e-05
2.78739e-05
2.7366e-05
2.68961e-05
2.64635e-05
2.60672e-05
2.57061e-05
2.5379e-05
2.50847e-05
2.48218e-05
2.4589e-05
2.43847e-05
2.42073e-05
2.40551e-05
2.39264e-05
2.38193e-05
2.37322e-05
2.36632e-05
2.36105e-05
2.35723e-05
2.35469e-05
2.35325e-05
2.35274e-05
2.35298e-05
2.35385e-05
2.3552e-05
2.35688e-05
2.35877e-05
2.36072e-05
2.36261e-05
2.36432e-05
2.36575e-05
2.36682e-05
2.36745e-05
2.36762e-05
0.000939686
0.000835713
0.000745881
0.000668018
0.000600318
0.000541269
0.000489606
0.000444266
0.000404355
0.000369118
0.000337917
0.00031021
0.000285535
0.000263501
0.000243771
0.000226058
0.000210114
0.000195727
0.000182712
0.000170911
0.000160185
0.000150414
0.000141494
0.000133333
0.000125851
0.000118977
0.00011265
0.000106815
0.000101424
9.64338e-05
9.18067e-05
8.75091e-05
8.3511e-05
7.97856e-05
7.63089e-05
7.30595e-05
7.00182e-05
6.71677e-05
6.44924e-05
6.19784e-05
5.96129e-05
5.73847e-05
5.52834e-05
5.32996e-05
5.14249e-05
4.96517e-05
4.79731e-05
4.63827e-05
4.4875e-05
4.34447e-05
4.20872e-05
4.07984e-05
3.95745e-05
3.84121e-05
3.73081e-05
3.62599e-05
3.5265e-05
3.43213e-05
3.3427e-05
3.25802e-05
3.17795e-05
3.10237e-05
3.03115e-05
2.96418e-05
2.90138e-05
2.84265e-05
2.78791e-05
2.73706e-05
2.69003e-05
2.64671e-05
2.60702e-05
2.57085e-05
2.53808e-05
2.50859e-05
2.48224e-05
2.4589e-05
2.43841e-05
2.42062e-05
2.40535e-05
2.39243e-05
2.38168e-05
2.37293e-05
2.366e-05
2.36071e-05
2.35687e-05
2.35431e-05
2.35286e-05
2.35236e-05
2.35259e-05
2.35347e-05
2.35483e-05
2.35652e-05
2.35842e-05
2.36039e-05
2.36229e-05
2.36402e-05
2.36546e-05
2.36654e-05
2.36718e-05
2.36735e-05
0.000939686
0.000835713
0.000745881
0.000668019
0.000600318
0.00054127
0.000489607
0.000444267
0.000404356
0.00036912
0.000337919
0.000310212
0.000285537
0.000263503
0.000243774
0.000226061
0.000210117
0.00019573
0.000182715
0.000170914
0.000160188
0.000150418
0.000141498
0.000133337
0.000125855
0.000118981
0.000112654
0.000106819
0.000101428
9.64381e-05
9.18111e-05
8.75137e-05
8.35157e-05
7.97904e-05
7.63139e-05
7.30646e-05
7.00235e-05
6.71731e-05
6.44979e-05
6.19841e-05
5.96188e-05
5.73907e-05
5.52895e-05
5.33059e-05
5.14314e-05
4.96584e-05
4.79799e-05
4.63897e-05
4.48821e-05
4.34519e-05
4.20946e-05
4.08059e-05
3.95821e-05
3.84197e-05
3.73158e-05
3.62676e-05
3.52727e-05
3.4329e-05
3.34345e-05
3.25876e-05
3.17868e-05
3.10307e-05
3.03183e-05
2.96483e-05
2.902e-05
2.84323e-05
2.78844e-05
2.73754e-05
2.69046e-05
2.64709e-05
2.60733e-05
2.5711e-05
2.53826e-05
2.50871e-05
2.4823e-05
2.4589e-05
2.43835e-05
2.4205e-05
2.40518e-05
2.39221e-05
2.38142e-05
2.37264e-05
2.36567e-05
2.36035e-05
2.35649e-05
2.35392e-05
2.35247e-05
2.35196e-05
2.35219e-05
2.35307e-05
2.35444e-05
2.35615e-05
2.35806e-05
2.36004e-05
2.36196e-05
2.3637e-05
2.36515e-05
2.36624e-05
2.36689e-05
2.36706e-05
0.000939686
0.000835713
0.000745881
0.000668019
0.000600319
0.00054127
0.000489607
0.000444268
0.000404358
0.000369121
0.00033792
0.000310213
0.000285539
0.000263505
0.000243776
0.000226063
0.00021012
0.000195733
0.000182718
0.000170917
0.000160191
0.000150421
0.000141501
0.00013334
0.000125858
0.000118985
0.000112658
0.000106823
0.000101432
9.64425e-05
9.18157e-05
8.75183e-05
8.35205e-05
7.97954e-05
7.6319e-05
7.30699e-05
7.00288e-05
6.71786e-05
6.45036e-05
6.19899e-05
5.96248e-05
5.73969e-05
5.52959e-05
5.33124e-05
5.14381e-05
4.96652e-05
4.79869e-05
4.63968e-05
4.48894e-05
4.34594e-05
4.21021e-05
4.08136e-05
3.95898e-05
3.84275e-05
3.73237e-05
3.62755e-05
3.52806e-05
3.43368e-05
3.34423e-05
3.25953e-05
3.17943e-05
3.1038e-05
3.03253e-05
2.96551e-05
2.90263e-05
2.84382e-05
2.78899e-05
2.73804e-05
2.6909e-05
2.64747e-05
2.60766e-05
2.57136e-05
2.53846e-05
2.50884e-05
2.48237e-05
2.4589e-05
2.43829e-05
2.42039e-05
2.40501e-05
2.39199e-05
2.38116e-05
2.37233e-05
2.36534e-05
2.35999e-05
2.35611e-05
2.35352e-05
2.35206e-05
2.35154e-05
2.35178e-05
2.35266e-05
2.35403e-05
2.35575e-05
2.35768e-05
2.35967e-05
2.3616e-05
2.36336e-05
2.36482e-05
2.36592e-05
2.36658e-05
2.36675e-05
0.000939686
0.000835714
0.000745881
0.000668019
0.000600319
0.000541271
0.000489608
0.000444269
0.000404359
0.000369123
0.000337922
0.000310215
0.000285541
0.000263507
0.000243778
0.000226065
0.000210122
0.000195735
0.000182721
0.00017092
0.000160195
0.000150424
0.000141505
0.000133344
0.000125862
0.000118989
0.000112662
0.000106828
0.000101437
9.64469e-05
9.18202e-05
8.75231e-05
8.35254e-05
7.98004e-05
7.63241e-05
7.30752e-05
7.00343e-05
6.71843e-05
6.45095e-05
6.19959e-05
5.9631e-05
5.74032e-05
5.53024e-05
5.33191e-05
5.14449e-05
4.96722e-05
4.79941e-05
4.64042e-05
4.48969e-05
4.3467e-05
4.21099e-05
4.08214e-05
3.95978e-05
3.84356e-05
3.73317e-05
3.62836e-05
3.52887e-05
3.43449e-05
3.34502e-05
3.26031e-05
3.18019e-05
3.10455e-05
3.03325e-05
2.96619e-05
2.90328e-05
2.84443e-05
2.78955e-05
2.73855e-05
2.69135e-05
2.64786e-05
2.60799e-05
2.57162e-05
2.53866e-05
2.50897e-05
2.48244e-05
2.45891e-05
2.43824e-05
2.42027e-05
2.40483e-05
2.39177e-05
2.38089e-05
2.37202e-05
2.36499e-05
2.35961e-05
2.35571e-05
2.35311e-05
2.35163e-05
2.35111e-05
2.35135e-05
2.35223e-05
2.35361e-05
2.35534e-05
2.35728e-05
2.35928e-05
2.36123e-05
2.363e-05
2.36448e-05
2.36558e-05
2.36625e-05
2.36643e-05
0.000939686
0.000835714
0.000745881
0.00066802
0.00060032
0.000541271
0.000489609
0.00044427
0.00040436
0.000369124
0.000337923
0.000310217
0.000285543
0.000263509
0.00024378
0.000226068
0.000210125
0.000195738
0.000182724
0.000170923
0.000160198
0.000150428
0.000141508
0.000133348
0.000125866
0.000118993
0.000112666
0.000106832
0.000101441
9.64514e-05
9.18249e-05
8.75278e-05
8.35303e-05
7.98055e-05
7.63294e-05
7.30806e-05
7.00399e-05
6.719e-05
6.45154e-05
6.2002e-05
5.96372e-05
5.74097e-05
5.5309e-05
5.33259e-05
5.14519e-05
4.96794e-05
4.80014e-05
4.64116e-05
4.49045e-05
4.34747e-05
4.21178e-05
4.08294e-05
3.96059e-05
3.84437e-05
3.734e-05
3.62918e-05
3.52969e-05
3.43531e-05
3.34584e-05
3.26111e-05
3.18098e-05
3.10531e-05
3.03398e-05
2.96689e-05
2.90395e-05
2.84505e-05
2.79012e-05
2.73907e-05
2.69182e-05
2.64827e-05
2.60833e-05
2.5719e-05
2.53887e-05
2.50911e-05
2.48251e-05
2.45891e-05
2.43818e-05
2.42015e-05
2.40466e-05
2.39154e-05
2.38061e-05
2.37171e-05
2.36464e-05
2.35923e-05
2.35531e-05
2.35269e-05
2.3512e-05
2.35068e-05
2.35091e-05
2.35179e-05
2.35318e-05
2.35492e-05
2.35687e-05
2.35888e-05
2.36084e-05
2.36262e-05
2.36411e-05
2.36523e-05
2.3659e-05
2.36609e-05
0.000939686
0.000835714
0.000745882
0.00066802
0.00060032
0.000541272
0.00048961
0.000444271
0.000404361
0.000369125
0.000337925
0.000310218
0.000285545
0.000263511
0.000243782
0.00022607
0.000210127
0.000195741
0.000182727
0.000170926
0.000160201
0.000150431
0.000141512
0.000133351
0.00012587
0.000118997
0.00011267
0.000106836
0.000101445
9.64558e-05
9.18295e-05
8.75326e-05
8.35353e-05
7.98106e-05
7.63347e-05
7.30861e-05
7.00455e-05
6.71958e-05
6.45214e-05
6.20082e-05
5.96436e-05
5.74162e-05
5.53157e-05
5.33328e-05
5.1459e-05
4.96866e-05
4.80088e-05
4.64192e-05
4.49122e-05
4.34826e-05
4.21258e-05
4.08375e-05
3.96141e-05
3.8452e-05
3.73483e-05
3.63002e-05
3.53053e-05
3.43614e-05
3.34666e-05
3.26192e-05
3.18177e-05
3.10608e-05
3.03472e-05
2.9676e-05
2.90462e-05
2.84568e-05
2.7907e-05
2.7396e-05
2.69229e-05
2.64868e-05
2.60867e-05
2.57218e-05
2.53908e-05
2.50925e-05
2.48258e-05
2.45892e-05
2.43812e-05
2.42003e-05
2.40448e-05
2.39131e-05
2.38034e-05
2.37139e-05
2.36429e-05
2.35885e-05
2.3549e-05
2.35226e-05
2.35076e-05
2.35023e-05
2.35046e-05
2.35134e-05
2.35274e-05
2.35448e-05
2.35644e-05
2.35847e-05
2.36044e-05
2.36223e-05
2.36374e-05
2.36486e-05
2.36554e-05
2.36573e-05
0.000939686
0.000835714
0.000745882
0.00066802
0.000600321
0.000541273
0.00048961
0.000444272
0.000404362
0.000369126
0.000337926
0.00031022
0.000285546
0.000263513
0.000243784
0.000226072
0.000210129
0.000195743
0.000182729
0.000170929
0.000160204
0.000150434
0.000141515
0.000133355
0.000125873
0.000119001
0.000112674
0.00010684
0.00010145
9.64603e-05
9.18341e-05
8.75375e-05
8.35402e-05
7.98157e-05
7.634e-05
7.30916e-05
7.00512e-05
6.72017e-05
6.45274e-05
6.20144e-05
5.965e-05
5.74228e-05
5.53225e-05
5.33397e-05
5.14661e-05
4.96939e-05
4.80163e-05
4.64269e-05
4.492e-05
4.34906e-05
4.21339e-05
4.08457e-05
3.96224e-05
3.84604e-05
3.73567e-05
3.63087e-05
3.53137e-05
3.43698e-05
3.34749e-05
3.26274e-05
3.18257e-05
3.10685e-05
3.03547e-05
2.96832e-05
2.9053e-05
2.84631e-05
2.79129e-05
2.74013e-05
2.69276e-05
2.64909e-05
2.60902e-05
2.57246e-05
2.53929e-05
2.5094e-05
2.48266e-05
2.45893e-05
2.43807e-05
2.41991e-05
2.40431e-05
2.39108e-05
2.38006e-05
2.37107e-05
2.36393e-05
2.35846e-05
2.35449e-05
2.35183e-05
2.35032e-05
2.34977e-05
2.35e-05
2.35089e-05
2.35228e-05
2.35404e-05
2.356e-05
2.35804e-05
2.36003e-05
2.36183e-05
2.36334e-05
2.36448e-05
2.36516e-05
2.36535e-05
0.000939686
0.000835714
0.000745882
0.00066802
0.000600321
0.000541273
0.000489611
0.000444272
0.000404363
0.000369127
0.000337927
0.000310221
0.000285548
0.000263515
0.000243786
0.000226074
0.000210132
0.000195746
0.000182732
0.000170932
0.000160207
0.000150437
0.000141518
0.000133358
0.000125877
0.000119004
0.000112678
0.000106844
0.000101454
9.64648e-05
9.18388e-05
8.75423e-05
8.35452e-05
7.98209e-05
7.63453e-05
7.3097e-05
7.00569e-05
6.72075e-05
6.45334e-05
6.20206e-05
5.96564e-05
5.74294e-05
5.53293e-05
5.33467e-05
5.14733e-05
4.97013e-05
4.80238e-05
4.64345e-05
4.49278e-05
4.34985e-05
4.2142e-05
4.0854e-05
3.96307e-05
3.84688e-05
3.73652e-05
3.63172e-05
3.53222e-05
3.43782e-05
3.34832e-05
3.26356e-05
3.18337e-05
3.10764e-05
3.03623e-05
2.96904e-05
2.90598e-05
2.84695e-05
2.79188e-05
2.74067e-05
2.69324e-05
2.64951e-05
2.60938e-05
2.57275e-05
2.53951e-05
2.50955e-05
2.48274e-05
2.45894e-05
2.43801e-05
2.4198e-05
2.40414e-05
2.39085e-05
2.37979e-05
2.37075e-05
2.36357e-05
2.35807e-05
2.35407e-05
2.35139e-05
2.34987e-05
2.34931e-05
2.34954e-05
2.35042e-05
2.35182e-05
2.35358e-05
2.35556e-05
2.35761e-05
2.3596e-05
2.36142e-05
2.36294e-05
2.36408e-05
2.36477e-05
2.36497e-05
0.000939686
0.000835714
0.000745882
0.000668021
0.000600321
0.000541274
0.000489612
0.000444273
0.000404364
0.000369128
0.000337929
0.000310223
0.00028555
0.000263517
0.000243788
0.000226077
0.000210134
0.000195748
0.000182735
0.000170935
0.00016021
0.00015044
0.000141522
0.000133362
0.000125881
0.000119008
0.000112682
0.000106848
0.000101458
9.64692e-05
9.18434e-05
8.7547e-05
8.35502e-05
7.9826e-05
7.63506e-05
7.31025e-05
7.00626e-05
6.72134e-05
6.45395e-05
6.20268e-05
5.96628e-05
5.7436e-05
5.53361e-05
5.33537e-05
5.14804e-05
4.97086e-05
4.80313e-05
4.64422e-05
4.49357e-05
4.35066e-05
4.21501e-05
4.08622e-05
3.96391e-05
3.84773e-05
3.73737e-05
3.63257e-05
3.53307e-05
3.43867e-05
3.34916e-05
3.26438e-05
3.18418e-05
3.10842e-05
3.03698e-05
2.96976e-05
2.90666e-05
2.8476e-05
2.79247e-05
2.74121e-05
2.69373e-05
2.64993e-05
2.60974e-05
2.57304e-05
2.53973e-05
2.5097e-05
2.48282e-05
2.45896e-05
2.43796e-05
2.41969e-05
2.40396e-05
2.39063e-05
2.37951e-05
2.37043e-05
2.36321e-05
2.35768e-05
2.35365e-05
2.35096e-05
2.34941e-05
2.34885e-05
2.34907e-05
2.34995e-05
2.35136e-05
2.35312e-05
2.3551e-05
2.35717e-05
2.35917e-05
2.36099e-05
2.36253e-05
2.36368e-05
2.36438e-05
2.36457e-05
0.000939686
0.000835714
0.000745882
0.000668021
0.000600322
0.000541274
0.000489612
0.000444274
0.000404365
0.000369129
0.00033793
0.000310224
0.000285551
0.000263519
0.00024379
0.000226079
0.000210136
0.00019575
0.000182737
0.000170937
0.000160213
0.000150443
0.000141525
0.000133365
0.000125884
0.000119012
0.000112686
0.000106852
0.000101462
9.64736e-05
9.18479e-05
8.75518e-05
8.35551e-05
7.98311e-05
7.63559e-05
7.3108e-05
7.00682e-05
6.72192e-05
6.45455e-05
6.2033e-05
5.96692e-05
5.74426e-05
5.53428e-05
5.33607e-05
5.14876e-05
4.9716e-05
4.80388e-05
4.64499e-05
4.49435e-05
4.35145e-05
4.21583e-05
4.08705e-05
3.96474e-05
3.84857e-05
3.73822e-05
3.63341e-05
3.53392e-05
3.43951e-05
3.34999e-05
3.2652e-05
3.18498e-05
3.1092e-05
3.03774e-05
2.97049e-05
2.90735e-05