/*--------------------------------*- C++ -*----------------------------------*\
  =========                 |
  \\      /  F ield         | OpenFOAM: The Open Source CFD Toolbox
   \\    /   O peration     | Website:  https://openfoam.org
    \\  /    A nd           | Version:  11
     \\/     M anipulation  |
\*---------------------------------------------------------------------------*/
FoamFile
{
    format      ascii;
    class       volScalarField;
    location    "306";
    object      omega;
}
// * * * * * * * * * * * * * * * * * * * * * * * * * * * * * * * * * * * * * //

dimensions      [0 0 -1 0 0 0 0];

internalField   nonuniform List<scalar> 
10000
(
0.961694
0.89219
0.829091
0.771734
0.719527
0.671944
0.628516
0.588827
0.552505
0.519217
0.488668
0.460593
0.434755
0.410943
0.388967
0.368658
0.349862
0.332442
0.316277
0.301255
0.287277
0.274252
0.2621
0.250746
0.240126
0.230178
0.220848
0.212087
0.20385
0.196094
0.188784
0.181885
0.175364
0.169195
0.16335
0.157804
0.152536
0.147525
0.142752
0.138198
0.133849
0.129688
0.125701
0.121875
0.118199
0.114661
0.111252
0.107962
0.104784
0.101709
0.0987335
0.0958508
0.0930576
0.0903507
0.0877281
0.0851886
0.0827318
0.0803576
0.0780668
0.0758602
0.0737385
0.0717027
0.0697538
0.0678922
0.0661184
0.064432
0.0628323
0.0613178
0.0598867
0.0585368
0.0572655
0.0560702
0.0549478
0.0538953
0.0529094
0.051987
0.0511248
0.0503197
0.0495684
0.048868
0.0482157
0.0476086
0.0470441
0.04652
0.0460338
0.0455837
0.0451675
0.0447838
0.044431
0.0441079
0.0438133
0.0435464
0.0433066
0.0430936
0.0429072
0.0427479
0.0426162
0.0425135
0.0424415
0.0424029
0.961694
0.89219
0.829092
0.771734
0.719527
0.671944
0.628517
0.588828
0.552506
0.519218
0.488669
0.460594
0.434756
0.410944
0.388968
0.368658
0.349862
0.332443
0.316278
0.301256
0.287278
0.274253
0.2621
0.250747
0.240127
0.230179
0.220849
0.212088
0.203851
0.196096
0.188785
0.181886
0.175366
0.169196
0.163351
0.157806
0.152538
0.147527
0.142754
0.138201
0.133851
0.12969
0.125703
0.121878
0.118202
0.114665
0.111256
0.107967
0.104788
0.101715
0.098739
0.0958568
0.093064
0.0903575
0.0877353
0.0851962
0.0827397
0.0803658
0.0780753
0.0758688
0.0737474
0.0717119
0.0697631
0.0679018
0.066128
0.0644415
0.0628414
0.0613264
0.0598949
0.0585445
0.0572728
0.056077
0.0549543
0.0539014
0.0529152
0.0519925
0.05113
0.0503245
0.0495729
0.0488722
0.0482196
0.0476122
0.0470476
0.0465232
0.0460368
0.0455864
0.0451701
0.0447862
0.0444332
0.0441099
0.0438152
0.0435482
0.0433083
0.0430951
0.0429087
0.0427493
0.0426175
0.0425148
0.0424428
0.0424041
0.961695
0.89219
0.829092
0.771735
0.719528
0.671945
0.628518
0.588829
0.552507
0.519219
0.48867
0.460595
0.434758
0.410945
0.388969
0.36866
0.349864
0.332445
0.316279
0.301257
0.287279
0.274254
0.262102
0.250749
0.240128
0.230181
0.220851
0.21209
0.203852
0.196097
0.188787
0.181888
0.175368
0.169198
0.163353
0.157808
0.15254
0.14753
0.142757
0.138204
0.133855
0.129694
0.125708
0.121883
0.118207
0.114671
0.111262
0.107973
0.104796
0.101722
0.0987476
0.0958661
0.0930739
0.0903681
0.0877466
0.0852081
0.0827521
0.0803788
0.0780887
0.0758826
0.0737615
0.0717263
0.0697778
0.0679165
0.0661427
0.064456
0.0628556
0.0613402
0.0599081
0.0585572
0.0572849
0.0560886
0.0549653
0.0539119
0.0529251
0.0520018
0.0511388
0.0503328
0.0495807
0.0488795
0.0482264
0.0476186
0.0470535
0.0465287
0.046042
0.0455912
0.0451746
0.0447904
0.0444372
0.0441136
0.0438186
0.0435514
0.0433113
0.043098
0.0429114
0.0427519
0.0426201
0.0425172
0.0424452
0.0424065
0.961695
0.892191
0.829093
0.771736
0.719529
0.671946
0.628519
0.58883
0.552508
0.519221
0.488672
0.460597
0.434759
0.410947
0.388971
0.368662
0.349866
0.332447
0.316281
0.30126
0.287281
0.274256
0.262104
0.250751
0.24013
0.230183
0.220853
0.212092
0.203855
0.1961
0.18879
0.18189
0.17537
0.169201
0.163356
0.157811
0.152544
0.147533
0.142761
0.138208
0.133859
0.129699
0.125713
0.121889
0.118214
0.114678
0.11127
0.107982
0.104805
0.101733
0.0987592
0.0958787
0.0930875
0.0903826
0.087762
0.0852244
0.0827693
0.0803967
0.0781072
0.0759016
0.0737809
0.071746
0.0697977
0.0679366
0.0661627
0.0644757
0.0628749
0.0613591
0.0599264
0.0585748
0.0573018
0.0561047
0.0549806
0.0539264
0.0529389
0.0520149
0.0511511
0.0503444
0.0495916
0.0488898
0.048236
0.0476276
0.0470619
0.0465366
0.0460494
0.0455981
0.0451811
0.0447964
0.0444428
0.0441189
0.0438236
0.0435561
0.0433157
0.0431022
0.0429154
0.0427557
0.0426238
0.0425208
0.0424488
0.04241
0.961695
0.892191
0.829093
0.771736
0.71953
0.671947
0.62852
0.588832
0.55251
0.519223
0.488674
0.460599
0.434762
0.41095
0.388974
0.368664
0.349868
0.332449
0.316284
0.301262
0.287284
0.274259
0.262107
0.250754
0.240133
0.230186
0.220856
0.212095
0.203858
0.196103
0.188793
0.181894
0.175374
0.169205
0.16336
0.157815
0.152548
0.147538
0.142766
0.138214
0.133865
0.129706
0.125721
0.121897
0.118223
0.114688
0.111281
0.107994
0.104818
0.101747
0.0987741
0.0958948
0.0931048
0.0904011
0.0877816
0.0852451
0.0827909
0.0804192
0.0781305
0.0759256
0.0738054
0.0717709
0.0698228
0.0679617
0.0661877
0.0645004
0.0628992
0.0613827
0.0599493
0.0585969
0.0573231
0.0561251
0.0550001
0.0539449
0.0529565
0.0520315
0.0511668
0.0503592
0.0496055
0.0489029
0.0482483
0.0476391
0.0470727
0.0465467
0.0460588
0.045607
0.0451893
0.0448042
0.0444501
0.0441257
0.04383
0.0435621
0.0433214
0.0431076
0.0429206
0.0427607
0.0426286
0.0425256
0.0424534
0.0424146
0.961695
0.892191
0.829093
0.771737
0.71953
0.671948
0.628522
0.588833
0.552512
0.519225
0.488676
0.460601
0.434764
0.410952
0.388976
0.368667
0.349871
0.332452
0.316287
0.301265
0.287287
0.274262
0.26211
0.250757
0.240136
0.230189
0.220859
0.212099
0.203861
0.196107
0.188797
0.181898
0.175378
0.169209
0.163365
0.157821
0.152554
0.147544
0.142772
0.138221
0.133873
0.129714
0.12573
0.121907
0.118234
0.114699
0.111294
0.108008
0.104833
0.101763
0.098792
0.095914
0.0931254
0.0904232
0.0878051
0.0852698
0.0828168
0.0804462
0.0781584
0.0759542
0.0738345
0.0718004
0.0698526
0.0679915
0.0662173
0.0645297
0.0629279
0.0614107
0.0599765
0.0586232
0.0573484
0.0561494
0.0550233
0.053967
0.0529775
0.0520514
0.0511856
0.0503769
0.0496222
0.0489186
0.0482631
0.047653
0.0470857
0.0465589
0.0460702
0.0456176
0.0451993
0.0448136
0.0444589
0.044134
0.0438378
0.0435695
0.0433284
0.0431143
0.042927
0.0427668
0.0426345
0.0425313
0.042459
0.0424201
0.961695
0.892191
0.829093
0.771737
0.719531
0.671949
0.628523
0.588835
0.552513
0.519227
0.488678
0.460604
0.434767
0.410955
0.388979
0.36867
0.349874
0.332455
0.31629
0.301268
0.28729
0.274265
0.262113
0.25076
0.24014
0.230193
0.220863
0.212103
0.203866
0.196111
0.188801
0.181903
0.175383
0.169215
0.163371
0.157827
0.15256
0.147551
0.14278
0.138229
0.133882
0.129724
0.12574
0.121918
0.118246
0.114713
0.111309
0.108024
0.104851
0.101783
0.0988127
0.0959363
0.0931493
0.0904486
0.087832
0.0852982
0.0828465
0.0804771
0.0781903
0.0759869
0.0738679
0.0718342
0.0698866
0.0680255
0.0662511
0.0645631
0.0629607
0.0614427
0.0600076
0.0586533
0.0573773
0.0561772
0.0550499
0.0539924
0.0530016
0.0520742
0.0512072
0.0503973
0.0496415
0.0489367
0.0482801
0.0476689
0.0471007
0.0465729
0.0460834
0.04563
0.0452109
0.0448244
0.0444691
0.0441436
0.0438468
0.043578
0.0433365
0.043122
0.0429344
0.0427739
0.0426414
0.042538
0.0424656
0.0424266
0.961695
0.892191
0.829093
0.771737
0.719532
0.67195
0.628524
0.588836
0.552515
0.519229
0.488681
0.460606
0.434769
0.410958
0.388982
0.368673
0.349877
0.332458
0.316294
0.301272
0.287294
0.274269
0.262117
0.250764
0.240144
0.230197
0.220868
0.212107
0.20387
0.196116
0.188807
0.181908
0.175389
0.169221
0.163377
0.157834
0.152568
0.147559
0.142788
0.138238
0.133892
0.129735
0.125752
0.121931
0.11826
0.114728
0.111325
0.108042
0.104871
0.101804
0.0988359
0.0959612
0.093176
0.090477
0.0878621
0.0853299
0.0828797
0.0805115
0.0782259
0.0760234
0.0739051
0.0718719
0.0699245
0.0680634
0.0662887
0.0646002
0.0629971
0.0614784
0.0600422
0.0586868
0.0574096
0.0562081
0.0550795
0.0540206
0.0530285
0.0520997
0.0512313
0.0504201
0.049663
0.0489569
0.0482991
0.0476869
0.0471175
0.0465887
0.0460982
0.0456439
0.045224
0.0448367
0.0444806
0.0441544
0.0438571
0.0435877
0.0433457
0.0431308
0.0429428
0.042782
0.0426492
0.0425456
0.042473
0.042434
0.961695
0.892191
0.829094
0.771738
0.719532
0.671951
0.628525
0.588838
0.552517
0.51923
0.488683
0.460609
0.434772
0.41096
0.388985
0.368676
0.349881
0.332462
0.316297
0.301276
0.287298
0.274273
0.262121
0.250769
0.240149
0.230202
0.220873
0.212112
0.203876
0.196121
0.188812
0.181914
0.175396
0.169228
0.163384
0.157841
0.152576
0.147568
0.142798
0.138248
0.133903
0.129747
0.125765
0.121946
0.118276
0.114746
0.111344
0.108062
0.104893
0.101828
0.0988615
0.0959887
0.0932054
0.0905083
0.0878951
0.0853646
0.082916
0.0805492
0.0782648
0.0760633
0.0739458
0.071913
0.0699658
0.0681046
0.0663297
0.0646407
0.0630369
0.0615172
0.06008
0.0587233
0.0574448
0.056242
0.0551119
0.0540516
0.0530579
0.0521277
0.0512578
0.0504451
0.0496866
0.0489792
0.0483201
0.0477066
0.047136
0.0466061
0.0461145
0.0456592
0.0452383
0.0448502
0.0444933
0.0441664
0.0438684
0.0435984
0.0433559
0.0431405
0.0429521
0.042791
0.0426579
0.042554
0.0424813
0.0424421
0.961695
0.892191
0.829094
0.771738
0.719532
0.671951
0.628526
0.588839
0.552518
0.519232
0.488685
0.460611
0.434774
0.410963
0.388988
0.368679
0.349884
0.332466
0.316301
0.30128
0.287302
0.274278
0.262126
0.250773
0.240154
0.230207
0.220878
0.212118
0.203881
0.196127
0.188819
0.181921
0.175403
0.169235
0.163392
0.15785
0.152585
0.147578
0.142808
0.13826
0.133915
0.12976
0.12578
0.121961
0.118293
0.114764
0.111364
0.108085
0.104917
0.101854
0.0988892
0.0960184
0.0932371
0.090542
0.0879308
0.085402
0.0829551
0.0805898
0.0783066
0.0761062
0.0739894
0.0719571
0.0700102
0.068149
0.0663737
0.0646841
0.0630796
0.0615589
0.0601205
0.0587626
0.0574827
0.0562784
0.0551467
0.0540848
0.0530895
0.0521577
0.0512863
0.0504721
0.049712
0.0490032
0.0483427
0.0477278
0.047156
0.0466249
0.0461322
0.0456758
0.0452539
0.0448649
0.0445072
0.0441795
0.0438807
0.0436101
0.043367
0.0431511
0.0429622
0.0428007
0.0426673
0.0425632
0.0424903
0.042451
0.961694
0.892191
0.829094
0.771738
0.719533
0.671952
0.628526
0.58884
0.552519
0.519234
0.488686
0.460613
0.434777
0.410966
0.388991
0.368682
0.349887
0.332469
0.316305
0.301284
0.287306
0.274282
0.26213
0.250778
0.240159
0.230212
0.220883
0.212124
0.203887
0.196134
0.188825
0.181928
0.17541
0.169243
0.163401
0.157859
0.152595
0.147588
0.14282
0.138272
0.133929
0.129775
0.125795
0.121979
0.118312
0.114784
0.111386
0.108108
0.104942
0.101881
0.0989189
0.0960502
0.093271
0.0905779
0.0879687
0.0854419
0.0829967
0.080633
0.0783511
0.0761517
0.0740357
0.072004
0.0700572
0.068196
0.0664204
0.0647302
0.0631248
0.0616031
0.0601636
0.0588042
0.0575229
0.056317
0.0551837
0.0541202
0.0531232
0.0521897
0.0513166
0.0505008
0.0497392
0.0490288
0.0483668
0.0477505
0.0471774
0.046645
0.046151
0.0456936
0.0452706
0.0448806
0.044522
0.0441934
0.0438939
0.0436226
0.0433789
0.0431624
0.0429731
0.0428112
0.0426774
0.0425731
0.0425
0.0424606
0.961694
0.892191
0.829093
0.771738
0.719533
0.671952
0.628527
0.58884
0.55252
0.519235
0.488688
0.460615
0.434779
0.410968
0.388994
0.368685
0.349891
0.332473
0.316309
0.301288
0.28731
0.274286
0.262135
0.250783
0.240164
0.230217
0.220889
0.21213
0.203894
0.196141
0.188832
0.181935
0.175418
0.169252
0.16341
0.157869
0.152605
0.1476
0.142832
0.138285
0.133943
0.12979
0.125812
0.121997
0.118332
0.114806
0.111409
0.108133
0.104969
0.10191
0.0989502
0.0960838
0.0933067
0.0906158
0.0880087
0.0854838
0.0830404
0.0806783
0.0783978
0.0761995
0.0740844
0.0720532
0.0701066
0.0682453
0.0664694
0.0647786
0.0631723
0.0616495
0.0602087
0.058848
0.0575651
0.0563576
0.0552226
0.0541573
0.0531586
0.0522234
0.0513486
0.050531
0.0497677
0.0490558
0.0483922
0.0477745
0.0471999
0.0466662
0.046171
0.0457123
0.0452883
0.0448972
0.0445376
0.0442082
0.0439079
0.0436359
0.0433915
0.0431745
0.0429846
0.0428223
0.0426882
0.0425836
0.0425102
0.0424707
0.961694
0.892191
0.829093
0.771738
0.719533
0.671952
0.628527
0.588841
0.552521
0.519236
0.48869
0.460617
0.434781
0.410971
0.388996
0.368688
0.349894
0.332476
0.316312
0.301292
0.287314
0.274291
0.26214
0.250788
0.240169
0.230223
0.220895
0.212136
0.2039
0.196148
0.18884
0.181943
0.175427
0.169261
0.16342
0.157879
0.152617
0.147612
0.142845
0.138299
0.133958
0.129806
0.12583
0.122016
0.118352
0.114828
0.111434
0.10816
0.104998
0.101941
0.0989831
0.0961189
0.0933441
0.0906555
0.0880505
0.0855276
0.0830861
0.0807256
0.0784465
0.0762494
0.074135
0.0721044
0.0701581
0.0682967
0.0665203
0.0648289
0.0632218
0.0616979
0.0602557
0.0588935
0.0576091
0.0563998
0.0552631
0.0541961
0.0531955
0.0522585
0.0513819
0.0505626
0.0497976
0.0490839
0.0484188
0.0477995
0.0472235
0.0466884
0.0461919
0.045732
0.0453068
0.0449147
0.0445541
0.0442238
0.0439226
0.0436499
0.0434048
0.0431871
0.0429967
0.042834
0.0426995
0.0425946
0.0425211
0.0424814
0.961694
0.892191
0.829093
0.771738
0.719533
0.671952
0.628528
0.588842
0.552522
0.519237
0.488691
0.460618
0.434783
0.410973
0.388999
0.368691
0.349897
0.332479
0.316316
0.301296
0.287319
0.274295
0.262145
0.250793
0.240175
0.230229
0.220901
0.212142
0.203907
0.196155
0.188848
0.181952
0.175435
0.16927
0.16343
0.15789
0.152628
0.147624
0.142859
0.138314
0.133974
0.129823
0.125848
0.122036
0.118374
0.114852
0.111459
0.108187
0.105027
0.101973
0.0990173
0.0961554
0.0933829
0.0906965
0.0880937
0.085573
0.0831333
0.0807745
0.0784968
0.0763009
0.0741874
0.0721573
0.0702112
0.0683497
0.066573
0.0648809
0.0632728
0.0617478
0.0603043
0.0589406
0.0576545
0.0564436
0.0553051
0.0542361
0.0532338
0.0522949
0.0514164
0.0505953
0.0498285
0.0491132
0.0484464
0.0478255
0.047248
0.0467115
0.0462136
0.0457524
0.0453261
0.0449328
0.0445712
0.04424
0.043938
0.0436644
0.0434186
0.0432003
0.0430094
0.0428461
0.0427113
0.0426061
0.0425323
0.0424925
0.961694
0.89219
0.829093
0.771738
0.719533
0.671953
0.628528
0.588842
0.552523
0.519238
0.488692
0.46062
0.434785
0.410975
0.389001
0.368694
0.3499
0.332483
0.316319
0.301299
0.287323
0.2743
0.26215
0.250798
0.24018
0.230235
0.220907
0.212149
0.203914
0.196162
0.188856
0.18196
0.175445
0.16928
0.16344
0.157901
0.15264
0.147637
0.142873
0.138329
0.13399
0.129841
0.125868
0.122057
0.118397
0.114876
0.111486
0.108216
0.105058
0.102006
0.0990526
0.096193
0.0934229
0.0907388
0.0881383
0.0856196
0.0831818
0.0808247
0.0785485
0.0763537
0.0742411
0.0722116
0.0702657
0.0684041
0.066627
0.0649343
0.0633253
0.061799
0.0603542
0.058989
0.0577012
0.0564885
0.0553482
0.0542774
0.0532731
0.0523323
0.0514519
0.050629
0.0498604
0.0491433
0.0484748
0.0478523
0.0472733
0.0467352
0.046236
0.0457736
0.045346
0.0449516
0.0445889
0.0442567
0.0439538
0.0436794
0.0434329
0.043214
0.0430225
0.0428587
0.0427235
0.042618
0.042544
0.0425041
0.961694
0.89219
0.829093
0.771738
0.719533
0.671953
0.628528
0.588842
0.552523
0.519239
0.488693
0.460621
0.434786
0.410977
0.389003
0.368696
0.349903
0.332486
0.316323
0.301303
0.287327
0.274304
0.262154
0.250804
0.240186
0.230241
0.220914
0.212156
0.203922
0.19617
0.188864
0.181969
0.175454
0.16929
0.163451
0.157913
0.152653
0.147651
0.142887
0.138345
0.134007
0.12986
0.125888
0.122078
0.11842
0.114902
0.111513
0.108245
0.10509
0.10204
0.0990888
0.0962316
0.0934639
0.0907822
0.0881838
0.0856673
0.0832314
0.0808761
0.0786013
0.0764077
0.074296
0.072267
0.0703213
0.0684597
0.0666822
0.0649887
0.0633788
0.0618514
0.0604051
0.0590384
0.0577489
0.0565344
0.0553922
0.0543195
0.0533133
0.0523705
0.0514883
0.0506634
0.049893
0.0491741
0.0485039
0.0478798
0.0472992
0.0467596
0.046259
0.0457952
0.0453664
0.0449708
0.0446071
0.0442739
0.0439701
0.0436949
0.0434476
0.043228
0.0430359
0.0428717
0.042736
0.0426302
0.042556
0.0425159
0.961694
0.89219
0.829093
0.771738
0.719533
0.671953
0.628528
0.588843
0.552524
0.51924
0.488694
0.460622
0.434788
0.410979
0.389005
0.368699
0.349905
0.332489
0.316326
0.301307
0.287331
0.274309
0.262159
0.250809
0.240191
0.230246
0.22092
0.212163
0.203929
0.196178
0.188872
0.181978
0.175464
0.169301
0.163462
0.157925
0.152666
0.147665
0.142902
0.138361
0.134025
0.129879
0.125908
0.122101
0.118444
0.114927
0.111541
0.108275
0.105122
0.102074
0.0991257
0.096271
0.0935056
0.0908262
0.0882302
0.0857157
0.0832819
0.0809282
0.078655
0.0764625
0.0743517
0.0723232
0.0703778
0.0685161
0.0667382
0.065044
0.0634331
0.0619045
0.0604569
0.0590885
0.0577974
0.056581
0.055437
0.0543623
0.0533541
0.0524094
0.0515252
0.0506985
0.0499262
0.0492055
0.0485336
0.0479078
0.0473256
0.0467845
0.0462825
0.0458173
0.0453872
0.0449905
0.0446257
0.0442914
0.0439867
0.0437106
0.0434626
0.0432423
0.0430497
0.0428849
0.0427488
0.0426427
0.0425682
0.0425281
0.961694
0.89219
0.829093
0.771738
0.719533
0.671953
0.628528
0.588843
0.552524
0.51924
0.488695
0.460623
0.434789
0.41098
0.389007
0.368701
0.349908
0.332492
0.316329
0.30131
0.287335
0.274313
0.262164
0.250814
0.240197
0.230252
0.220926
0.212169
0.203936
0.196186
0.188881
0.181987
0.175473
0.169311
0.163474
0.157937
0.152679
0.147679
0.142918
0.138378
0.134043
0.129898
0.125929
0.122123
0.118468
0.114954
0.111569
0.108305
0.105155
0.102109
0.0991631
0.0963108
0.0935479
0.0908709
0.0882771
0.0857648
0.0833329
0.080981
0.0787092
0.0765179
0.074408
0.0723801
0.0704349
0.0685731
0.0667947
0.0650999
0.063488
0.0619582
0.0605092
0.0591393
0.0578464
0.0566282
0.0554823
0.0544057
0.0533955
0.0524489
0.0515627
0.050734
0.0499598
0.0492373
0.0485637
0.0479362
0.0473523
0.0468098
0.0463063
0.0458398
0.0454084
0.0450105
0.0446445
0.0443093
0.0440036
0.0437267
0.0434779
0.0432569
0.0430636
0.0428984
0.0427619
0.0426554
0.0425807
0.0425404
0.961694
0.89219
0.829093
0.771737
0.719533
0.671953
0.628529
0.588843
0.552525
0.519241
0.488696
0.460624
0.43479
0.410982
0.389009
0.368703
0.34991
0.332494
0.316333
0.301314
0.287339
0.274317
0.262168
0.250819
0.240202
0.230258
0.220933
0.212176
0.203944
0.196194
0.188889
0.181996
0.175483
0.169322
0.163485
0.157949
0.152692
0.147693
0.142933
0.138394
0.134061
0.129917
0.12595
0.122146
0.118493
0.11498
0.111598
0.108336
0.105188
0.102145
0.099201
0.0963511
0.0935906
0.0909159
0.0883244
0.0858142
0.0833843
0.0810341
0.0787638
0.0765737
0.0744646
0.0724373
0.0704924
0.0686304
0.0668517
0.0651561
0.0635433
0.0620123
0.0605619
0.0591904
0.0578958
0.0566758
0.0555279
0.0544494
0.0534372
0.0524886
0.0516005
0.0507699
0.0499938
0.0492695
0.048594
0.0479648
0.0473794
0.0468353
0.0463303
0.0458624
0.0454298
0.0450307
0.0446636
0.0443273
0.0440207
0.0437429
0.0434934
0.0432717
0.0430778
0.042912
0.042775
0.0426682
0.0425933
0.0425529
0.961694
0.89219
0.829093
0.771737
0.719533
0.671953
0.628529
0.588843
0.552525
0.519241
0.488696
0.460625
0.434791
0.410983
0.389011
0.368705
0.349913
0.332497
0.316336
0.301317
0.287342
0.274321
0.262173
0.250824
0.240207
0.230264
0.220939
0.212183
0.203951
0.196202
0.188898
0.182006
0.175493
0.169333
0.163497
0.157962
0.152706
0.147708
0.142949
0.138411
0.134079
0.129937
0.125971
0.122169
0.118518
0.115007
0.111627
0.108367
0.105221
0.10218
0.099239
0.0963915
0.0936334
0.0909611
0.0883718
0.0858638
0.0834358
0.0810873
0.0788185
0.0766296
0.0745214
0.0724946
0.0705499
0.0686879
0.0669088
0.0652125
0.0635987
0.0620665
0.0606147
0.0592416
0.0579453
0.0567235
0.0555737
0.0544932
0.0534791
0.0525285
0.0516384
0.0508059
0.0500279
0.0493018
0.0486245
0.0479937
0.0474066
0.0468609
0.0463545
0.0458853
0.0454513
0.045051
0.0446828
0.0443455
0.0440379
0.0437593
0.0435089
0.0432865
0.043092
0.0429257
0.0427883
0.0426811
0.042606
0.0425654
0.961694
0.89219
0.829093
0.771737
0.719533
0.671952
0.628529
0.588843
0.552525
0.519242
0.488697
0.460626
0.434792
0.410984
0.389012
0.368707
0.349915
0.3325
0.316338
0.30132
0.287346
0.274325
0.262177
0.250828
0.240213
0.23027
0.220945
0.21219
0.203958
0.19621
0.188907
0.182015
0.175503
0.169343
0.163508
0.157975
0.152719
0.147722
0.142965
0.138428
0.134098
0.129957
0.125993
0.122192
0.118543
0.115034
0.111656
0.108398
0.105254
0.102216
0.0992771
0.096432
0.0936763
0.0910063
0.0884193
0.0859133
0.0834872
0.0811405
0.0788731
0.0766855
0.0745781
0.0725519
0.0706074
0.0687453
0.0669658
0.0652688
0.0636541
0.0621207
0.0606675
0.0592928
0.0579948
0.0567712
0.0556195
0.0545371
0.053521
0.0525684
0.0516764
0.0508419
0.0500621
0.0493341
0.0486551
0.0480225
0.0474339
0.0468867
0.0463788
0.0459082
0.0454729
0.0450714
0.0447021
0.0443637
0.0440552
0.0437757
0.0435245
0.0433014
0.0431063
0.0429394
0.0428016
0.0426941
0.0426187
0.042578
0.961694
0.89219
0.829093
0.771737
0.719532
0.671952
0.628529
0.588844
0.552525
0.519242
0.488697
0.460627
0.434793
0.410986
0.389014
0.368708
0.349917
0.332502
0.316341
0.301323
0.287349
0.274329
0.262182
0.250833
0.240218
0.230275
0.220952
0.212197
0.203966
0.196218
0.188915
0.182024
0.175513
0.169354
0.16352
0.157987
0.152733
0.147737
0.14298
0.138446
0.134116
0.129977
0.126014
0.122215
0.118568
0.115061
0.111685
0.10843
0.105288
0.102252
0.0993151
0.0964724
0.093719
0.0910513
0.0884665
0.0859626
0.0835385
0.0811934
0.0789275
0.076741
0.0746345
0.0726089
0.0706646
0.0688024
0.0670225
0.0653249
0.0637092
0.0621746
0.06072
0.0593438
0.0580441
0.0568187
0.0556652
0.0545808
0.0535628
0.0526083
0.0517143
0.0508779
0.0500962
0.0493664
0.0486856
0.0480514
0.0474611
0.0469123
0.046403
0.045931
0.0454945
0.0450918
0.0447213
0.0443819
0.0440724
0.0437921
0.0435401
0.0433163
0.0431206
0.0429532
0.0428149
0.042707
0.0426314
0.0425905
0.961694
0.89219
0.829092
0.771737
0.719532
0.671952
0.628529
0.588844
0.552526
0.519242
0.488698
0.460627
0.434794
0.410987
0.389015
0.36871
0.349919
0.332504
0.316344
0.301326
0.287353
0.274333
0.262186
0.250838
0.240223
0.230281
0.220958
0.212203
0.203973
0.196225
0.188924
0.182033
0.175523
0.169365
0.163532
0.158
0.152746
0.147752
0.142996
0.138463
0.134135
0.129997
0.126036
0.122238
0.118593
0.115088
0.111713
0.108461
0.105321
0.102287
0.0993528
0.0965125
0.0937614
0.091096
0.0885134
0.0860116
0.0835893
0.0812459
0.0789814
0.0767961
0.0746905
0.0726654
0.0707214
0.0688591
0.0670788
0.0653805
0.0637639
0.0622282
0.0607722
0.0593945
0.0580931
0.0568659
0.0557105
0.0546243
0.0536043
0.0526478
0.0517519
0.0509136
0.0501301
0.0493984
0.048716
0.04808
0.0474881
0.0469379
0.0464271
0.0459538
0.045516
0.045112
0.0447405
0.0444001
0.0440896
0.0438084
0.0435557
0.0433311
0.0431348
0.0429668
0.0428281
0.0427199
0.042644
0.042603
0.961694
0.89219
0.829092
0.771737
0.719532
0.671952
0.628529
0.588844
0.552526
0.519243
0.488698
0.460628
0.434795
0.410988
0.389017
0.368712
0.349921
0.332506
0.316346
0.301329
0.287356
0.274337
0.26219
0.250842
0.240228
0.230287
0.220964
0.21221
0.20398
0.196233
0.188932
0.182042
0.175533
0.169375
0.163543
0.158012
0.15276
0.147766
0.143012
0.13848
0.134153
0.130017
0.126057
0.122261
0.118617
0.115114
0.111742
0.108491
0.105354
0.102322
0.0993902
0.0965521
0.0938034
0.0911402
0.0885597
0.08606
0.0836395
0.0812978
0.0790347
0.0768505
0.0747458
0.0727212
0.0707774
0.0689151
0.0671344
0.0654355
0.063818
0.0622811
0.0608238
0.0594446
0.0581416
0.0569127
0.0557554
0.0546673
0.0536454
0.052687
0.0517892
0.050949
0.0501637
0.0494302
0.0487461
0.0481085
0.047515
0.0469632
0.046451
0.0459763
0.0455373
0.0451322
0.0447595
0.044418
0.0441067
0.0438246
0.0435711
0.0433458
0.0431488
0.0429804
0.0428412
0.0427327
0.0426565
0.0426154
0.961694
0.89219
0.829092
0.771737
0.719532
0.671952
0.628528
0.588844
0.552526
0.519243
0.488699
0.460629
0.434796
0.410989
0.389018
0.368713
0.349922
0.332509
0.316349
0.301332
0.287359
0.27434
0.262194
0.250847
0.240233
0.230292
0.220969
0.212216
0.203987
0.196241
0.18894
0.182051
0.175543
0.169386
0.163555
0.158024
0.152773
0.147781
0.143027
0.138496
0.134171
0.130036
0.126078
0.122284
0.118642
0.115141
0.11177
0.108522
0.105386
0.102357
0.0994271
0.0965913
0.0938447
0.0911838
0.0886054
0.0861076
0.083689
0.0813489
0.0790872
0.0769042
0.0748003
0.0727762
0.0708327
0.0689702
0.0671892
0.0654897
0.0638713
0.0623333
0.0608747
0.059494
0.0581894
0.0569587
0.0557997
0.0547097
0.053686
0.0527257
0.051826
0.050984
0.0501968
0.0494617
0.0487758
0.0481366
0.0475415
0.0469883
0.0464747
0.0459986
0.0455583
0.045152
0.0447783
0.0444358
0.0441235
0.0438406
0.0435863
0.0433604
0.0431628
0.0429938
0.0428542
0.0427453
0.0426689
0.0426276
0.961694
0.89219
0.829092
0.771737
0.719532
0.671952
0.628528
0.588844
0.552526
0.519243
0.488699
0.460629
0.434796
0.41099
0.389019
0.368715
0.349924
0.332511
0.316351
0.301335
0.287362
0.274344
0.262198
0.250851
0.240237
0.230297
0.220975
0.212222
0.203994
0.196248
0.188948
0.18206
0.175552
0.169396
0.163566
0.158037
0.152786
0.147795
0.143043
0.138513
0.134189
0.130055
0.126099
0.122306
0.118666
0.115167
0.111798
0.108551
0.105418
0.102391
0.0994633
0.0966297
0.0938854
0.0912266
0.0886503
0.0861545
0.0837376
0.0813992
0.0791388
0.0769568
0.0748538
0.0728302
0.0708869
0.0690245
0.0672431
0.0655429
0.0639237
0.0623846
0.0609247
0.0595426
0.0582364
0.0570041
0.0558433
0.0547515
0.0537259
0.0527638
0.0518622
0.0510184
0.0502295
0.0494926
0.048805
0.0481642
0.0475676
0.0470129
0.0464979
0.0460206
0.0455791
0.0451716
0.0447968
0.0444533
0.0441401
0.0438563
0.0436013
0.0433747
0.0431765
0.043007
0.0428669
0.0427577
0.042681
0.0426396
0.961694
0.89219
0.829092
0.771737
0.719532
0.671952
0.628528
0.588844
0.552526
0.519243
0.488699
0.46063
0.434797
0.410991
0.38902
0.368716
0.349926
0.332512
0.316353
0.301337
0.287365
0.274347
0.262201
0.250855
0.240242
0.230302
0.220981
0.212229
0.204
0.196256
0.188956
0.182069
0.175562
0.169407
0.163577
0.158048
0.152799
0.147809
0.143058
0.138529
0.134206
0.130074
0.126119
0.122328
0.11869
0.115192
0.111825
0.108581
0.105449
0.102424
0.0994989
0.0966674
0.0939252
0.0912685
0.0886943
0.0862003
0.0837852
0.0814483
0.0791893
0.0770084
0.0749061
0.0728831
0.0709401
0.0690775
0.0672958
0.0655951
0.063975
0.0624349
0.0609738
0.0595902
0.0582825
0.0570485
0.055886
0.0547924
0.053765
0.0528011
0.0518978
0.0510522
0.0502615
0.0495229
0.0488338
0.0481914
0.0475933
0.0470372
0.0465208
0.0460422
0.0455994
0.0451909
0.044815
0.0444706
0.0441564
0.0438718
0.043616
0.0433887
0.0431899
0.0430199
0.0428795
0.0427698
0.042693
0.0426514
0.961694
0.89219
0.829092
0.771736
0.719532
0.671952
0.628528
0.588844
0.552526
0.519244
0.4887
0.46063
0.434798
0.410991
0.389021
0.368717
0.349927
0.332514
0.316355
0.30134
0.287368
0.27435
0.262205
0.250859
0.240246
0.230307
0.220986
0.212234
0.204007
0.196263
0.188964
0.182077
0.175571
0.169416
0.163588
0.15806
0.152812
0.147822
0.143073
0.138545
0.134223
0.130093
0.126139
0.12235
0.118713
0.115217
0.111852
0.108609
0.10548
0.102457
0.0995336
0.0967042
0.0939641
0.0913094
0.0887371
0.086245
0.0838317
0.0814962
0.0792385
0.0770587
0.0749572
0.0729347
0.0709919
0.0691293
0.0673473
0.065646
0.0640251
0.062484
0.0610216
0.0596367
0.0583275
0.0570919
0.0559277
0.0548324
0.0538033
0.0528376
0.0519325
0.0510852
0.0502929
0.0495526
0.0488619
0.0482179
0.0476184
0.0470609
0.0465432
0.0460633
0.0456194
0.0452097
0.0448328
0.0444874
0.0441724
0.0438869
0.0436304
0.0434025
0.0432031
0.0430326
0.0428917
0.0427817
0.0427046
0.042663
0.961694
0.892189
0.829092
0.771736
0.719532
0.671952
0.628528
0.588844
0.552526
0.519244
0.4887
0.46063
0.434798
0.410992
0.389022
0.368718
0.349929
0.332516
0.316357
0.301342
0.287371
0.274353
0.262208
0.250863
0.240251
0.230312
0.220991
0.21224
0.204013
0.19627
0.188972
0.182086
0.17558
0.169426
0.163598
0.158071
0.152824
0.147836
0.143087
0.13856
0.13424
0.130111
0.126159
0.122371
0.118735
0.115241
0.111878
0.108637
0.10551
0.102489
0.0995674
0.09674
0.094002
0.0913493
0.0887789
0.0862886
0.0838768
0.0815429
0.0792864
0.0771076
0.0750069
0.072985
0.0710424
0.0691798
0.0673975
0.0656956
0.0640739
0.0625318
0.0610683
0.059682
0.0583713
0.0571342
0.0559684
0.0548714
0.0538406
0.0528732
0.0519664
0.0511174
0.0503234
0.0495816
0.0488893
0.0482438
0.0476429
0.047084
0.046565
0.0460839
0.0456388
0.0452281
0.0448502
0.0445038
0.044188
0.0439017
0.0436445
0.0434159
0.0432159
0.0430449
0.0429036
0.0427934
0.042716
0.0426742
0.961694
0.892189
0.829092
0.771736
0.719532
0.671952
0.628528
0.588844
0.552526
0.519244
0.4887
0.460631
0.434799
0.410993
0.389023
0.36872
0.34993
0.332518
0.316359
0.301344
0.287373
0.274356
0.262212
0.250867
0.240255
0.230316
0.220996
0.212246
0.204019
0.196276
0.188979
0.182093
0.175589
0.169436
0.163608
0.158082
0.152836
0.147848
0.143101
0.138576
0.134256
0.130128
0.126178
0.122391
0.118757
0.115265
0.111903
0.108664
0.105539
0.10252
0.0996001
0.0967748
0.0940387
0.0913879
0.0888193
0.0863307
0.0839206
0.0815881
0.0793329
0.0771551
0.0750551
0.0730336
0.0710913
0.0692287
0.0674461
0.0657437
0.0641212
0.0625781
0.0611135
0.059726
0.0584139
0.0571753
0.0560079
0.0549093
0.0538769
0.0529078
0.0519994
0.0511487
0.0503531
0.0496097
0.0489159
0.048269
0.0476667
0.0471064
0.0465862
0.0461039
0.0456577
0.0452459
0.044867
0.0445198
0.0442031
0.0439161
0.0436581
0.0434289
0.0432284
0.0430569
0.0429152
0.0428046
0.042727
0.0426851
0.961694
0.892189
0.829092
0.771736
0.719532
0.671952
0.628528
0.588844
0.552526
0.519244
0.488701
0.460631
0.434799
0.410994
0.389024
0.368721
0.349931
0.332519
0.316361
0.301346
0.287376
0.274359
0.262215
0.25087
0.240259
0.230321
0.221001
0.212251
0.204025
0.196283
0.188986
0.182101
0.175597
0.169445
0.163618
0.158093
0.152848
0.147861
0.143114
0.13859
0.134272
0.130145
0.126196
0.122411
0.118778
0.115287
0.111928
0.10869
0.105567
0.102549
0.0996318
0.0968083
0.0940741
0.0914252
0.0888584
0.0863715
0.0839629
0.0816318
0.0793777
0.0772009
0.0751017
0.0730807
0.0711386
0.0692759
0.067493
0.0657901
0.064167
0.062623
0.0611573
0.0597685
0.0584551
0.0572151
0.0560462
0.054946
0.0539119
0.0529413
0.0520312
0.051179
0.0503819
0.049637
0.0489417
0.0482934
0.0476897
0.0471282
0.0466068
0.0461233
0.045676
0.0452632
0.0448834
0.0445353
0.0442177
0.04393
0.0436714
0.0434416
0.0432405
0.0430685
0.0429264
0.0428155
0.0427377
0.0426957
0.961694
0.892189
0.829092
0.771736
0.719531
0.671952
0.628528
0.588844
0.552526
0.519244
0.488701
0.460632
0.4348
0.410994
0.389025
0.368722
0.349933
0.332521
0.316363
0.301349
0.287378
0.274361
0.262218
0.250874
0.240263