/*--------------------------------*- C++ -*----------------------------------*\
  =========                 |
  \\      /  F ield         | OpenFOAM: The Open Source CFD Toolbox
   \\    /   O peration     | Website:  https://openfoam.org
    \\  /    A nd           | Version:  11
     \\/     M anipulation  |
\*---------------------------------------------------------------------------*/
FoamFile
{
    format      ascii;
    class       volScalarField;
    location    "390";
    object      nut;
}
// * * * * * * * * * * * * * * * * * * * * * * * * * * * * * * * * * * * * * //

dimensions      [0 2 -1 0 0 0 0];

internalField   nonuniform List<scalar> 
10000
(
0.000977115
0.000936698
0.000899633
0.000865599
0.000834309
0.000805504
0.000778952
0.000754445
0.000731794
0.00071083
0.000691401
0.00067337
0.000656613
0.000641018
0.000626484
0.000612921
0.000600246
0.000588384
0.000577269
0.000566837
0.000557035
0.000547811
0.00053912
0.00053092
0.000523172
0.000515843
0.0005089
0.000502315
0.000496062
0.000490116
0.000484456
0.000479061
0.000473913
0.000468996
0.000464295
0.000459796
0.000455486
0.000451355
0.000447393
0.000443591
0.000439942
0.00043644
0.00043308
0.000429858
0.000426771
0.000423818
0.000420999
0.000418315
0.00041577
0.000413368
0.000411113
0.000409015
0.000407083
0.000405327
0.00040376
0.000402397
0.000401254
0.000400351
0.000399705
0.000399339
0.000399275
0.000399536
0.000400146
0.000401128
0.000402506
0.000404301
0.000406535
0.000409225
0.000412385
0.000416027
0.000420157
0.000424777
0.000429884
0.000435467
0.000441515
0.000448006
0.000454916
0.000462212
0.000469858
0.000477812
0.00048603
0.000494462
0.000503059
0.000511768
0.000520533
0.000529297
0.000538001
0.000546578
0.000554972
0.000563124
0.000570966
0.000578431
0.000585445
0.00059193
0.000597804
0.000602973
0.000607341
0.000610798
0.000613225
0.000614487
0.000977115
0.000936698
0.000899633
0.000865599
0.000834309
0.000805504
0.000778953
0.000754445
0.000731794
0.00071083
0.000691401
0.00067337
0.000656613
0.000641018
0.000626485
0.000612922
0.000600247
0.000588385
0.000577269
0.000566838
0.000557036
0.000547812
0.000539121
0.000530921
0.000523173
0.000515844
0.000508901
0.000502316
0.000496063
0.000490117
0.000484457
0.000479062
0.000473914
0.000468998
0.000464296
0.000459797
0.000455488
0.000451357
0.000447395
0.000443593
0.000439945
0.000436443
0.000433083
0.00042986
0.000426773
0.000423821
0.000421002
0.000418318
0.000415773
0.000413371
0.000411116
0.000409018
0.000407086
0.000405329
0.000403762
0.000402399
0.000401257
0.000400352
0.000399706
0.00039934
0.000399275
0.000399535
0.000400143
0.000401124
0.000402501
0.000404295
0.000406527
0.000409214
0.000412373
0.000416013
0.000420141
0.000424759
0.000429863
0.000435446
0.000441492
0.000447981
0.000454888
0.000462181
0.000469824
0.000477775
0.00048599
0.00049442
0.000503016
0.000511724
0.000520489
0.000529253
0.000537957
0.000546534
0.000554928
0.000563082
0.000570925
0.000578391
0.000585406
0.000591893
0.000597767
0.000602938
0.000607307
0.000610765
0.000613192
0.000614454
0.000977115
0.000936698
0.000899633
0.0008656
0.00083431
0.000805505
0.000778953
0.000754446
0.000731795
0.000710831
0.000691402
0.000673371
0.000656614
0.000641019
0.000626486
0.000612923
0.000600248
0.000588386
0.000577271
0.000566839
0.000557037
0.000547814
0.000539123
0.000530922
0.000523175
0.000515846
0.000508903
0.000502318
0.000496065
0.000490119
0.000484459
0.000479064
0.000473917
0.000469
0.000464299
0.0004598
0.000455491
0.00045136
0.000447398
0.000443597
0.000439948
0.000436446
0.000433086
0.000429864
0.000426778
0.000423825
0.000421006
0.000418322
0.000415777
0.000413375
0.00041112
0.000409022
0.000407089
0.000405332
0.000403764
0.0004024
0.000401257
0.000400351
0.000399704
0.000399335
0.000399268
0.000399526
0.000400132
0.00040111
0.000402483
0.000404274
0.000406502
0.000409186
0.00041234
0.000415975
0.000420098
0.000424712
0.000429812
0.00043539
0.000441431
0.000447916
0.000454818
0.000462106
0.000469744
0.000477691
0.000485903
0.000494331
0.000502926
0.000511633
0.000520397
0.00052916
0.000537865
0.000546443
0.000554839
0.000562995
0.000570841
0.000578309
0.000585327
0.000591816
0.000597693
0.000602867
0.000607238
0.000610698
0.000613127
0.00061439
0.000977115
0.000936699
0.000899634
0.0008656
0.00083431
0.000805506
0.000778954
0.000754447
0.000731796
0.000710832
0.000691404
0.000673373
0.000656616
0.000641021
0.000626488
0.000612925
0.00060025
0.000588388
0.000577273
0.000566842
0.00055704
0.000547816
0.000539125
0.000530925
0.000523178
0.000515849
0.000508906
0.000502322
0.000496068
0.000490123
0.000484463
0.000479068
0.000473921
0.000469004
0.000464304
0.000459805
0.000455495
0.000451365
0.000447403
0.000443602
0.000439954
0.000436452
0.000433092
0.00042987
0.000426783
0.000423831
0.000421012
0.000418328
0.000415783
0.00041338
0.000411125
0.000409026
0.000407093
0.000405335
0.000403766
0.000402401
0.000401256
0.000400348
0.000399699
0.000399328
0.000399258
0.000399512
0.000400114
0.000401088
0.000402456
0.000404241
0.000406463
0.000409141
0.000412288
0.000415917
0.000420033
0.000424639
0.000429732
0.000435303
0.000441338
0.000447815
0.00045471
0.000461992
0.000469624
0.000477566
0.000485774
0.000494199
0.000502791
0.000511496
0.00052026
0.000529024
0.000537729
0.000546309
0.000554707
0.000562866
0.000570716
0.000578188
0.00058521
0.000591703
0.000597585
0.000602762
0.000607137
0.0006106
0.000613031
0.000614295
0.000977115
0.000936699
0.000899634
0.000865601
0.000834311
0.000805507
0.000778955
0.000754448
0.000731797
0.000710834
0.000691405
0.000673375
0.000656618
0.000641023
0.00062649
0.000612927
0.000600252
0.000588391
0.000577275
0.000566844
0.000557042
0.000547819
0.000539128
0.000530928
0.000523181
0.000515852
0.00050891
0.000502326
0.000496073
0.000490127
0.000484467
0.000479073
0.000473926
0.00046901
0.000464309
0.00045981
0.000455501
0.000451371
0.00044741
0.000443609
0.000439961
0.000436459
0.000433099
0.000429878
0.000426791
0.000423838
0.000421019
0.000418336
0.00041579
0.000413387
0.000411132
0.000409032
0.000407098
0.000405339
0.000403769
0.000402402
0.000401255
0.000400345
0.000399692
0.000399318
0.000399244
0.000399493
0.00040009
0.000401058
0.00040242
0.000404199
0.000406413
0.000409083
0.000412221
0.000415841
0.000419948
0.000424545
0.000429628
0.00043519
0.000441215
0.000447684
0.00045457
0.000461844
0.000469468
0.000477404
0.000485606
0.000494027
0.000502616
0.000511319
0.000520082
0.000528846
0.000537552
0.000546135
0.000554536
0.000562699
0.000570553
0.00057803
0.000585057
0.000591556
0.000597443
0.000602625
0.000607005
0.000610472
0.000612905
0.000614171
0.000977115
0.000936699
0.000899635
0.000865602
0.000834312
0.000805508
0.000778957
0.00075445
0.000731799
0.000710836
0.000691407
0.000673377
0.00065662
0.000641026
0.000626493
0.00061293
0.000600255
0.000588394
0.000577279
0.000566848
0.000557046
0.000547823
0.000539132
0.000530932
0.000523186
0.000515857
0.000508915
0.000502331
0.000496078
0.000490133
0.000484473
0.000479079
0.000473932
0.000469016
0.000464316
0.000459818
0.000455509
0.000451379
0.000447418
0.000443617
0.000439969
0.000436468
0.000433109
0.000429887
0.000426801
0.000423848
0.000421029
0.000418345
0.0004158
0.000413396
0.00041114
0.00040904
0.000407104
0.000405344
0.000403772
0.000402403
0.000401254
0.000400341
0.000399684
0.000399306
0.000399227
0.000399471
0.000400062
0.000401023
0.000402377
0.000404147
0.000406353
0.000409012
0.000412141
0.000415749
0.000419845
0.00042443
0.000429502
0.000435052
0.000441066
0.000447523
0.000454399
0.000461663
0.000469279
0.000477207
0.000485403
0.000493819
0.000502404
0.000511104
0.000519866
0.00052863
0.000537338
0.000545923
0.000554328
0.000562495
0.000570354
0.000577837
0.000584871
0.000591376
0.000597269
0.000602458
0.000606843
0.000610314
0.000612751
0.000614018
0.000977115
0.000936699
0.000899635
0.000865602
0.000834313
0.000805509
0.000778958
0.000754451
0.000731801
0.000710838
0.00069141
0.000673379
0.000656623
0.000641028
0.000626496
0.000612933
0.000600259
0.000588398
0.000577283
0.000566852
0.00055705
0.000547827
0.000539137
0.000530937
0.000523191
0.000515862
0.000508921
0.000502337
0.000496084
0.000490139
0.00048448
0.000479086
0.00047394
0.000469024
0.000464324
0.000459826
0.000455518
0.000451388
0.000447428
0.000443627
0.00043998
0.000436479
0.00043312
0.000429898
0.000426812
0.000423859
0.000421041
0.000418357
0.000415811
0.000413407
0.00041115
0.000409049
0.000407112
0.000405351
0.000403777
0.000402406
0.000401253
0.000400336
0.000399676
0.000399293
0.000399208
0.000399446
0.00040003
0.000400983
0.000402328
0.000404088
0.000406283
0.000408931
0.000412047
0.000415643
0.000419726
0.000424298
0.000429356
0.000434892
0.000440893
0.000447338
0.000454202
0.000461454
0.00046906
0.000476979
0.000485167
0.000493577
0.000502157
0.000510855
0.000519615
0.000528379
0.000537089
0.000545677
0.000554085
0.000562257
0.000570123
0.000577612
0.000584653
0.000591165
0.000597066
0.000602261
0.000606652
0.000610129
0.000612569
0.000613838
0.000977115
0.0009367
0.000899636
0.000865603
0.000834314
0.00080551
0.00077896
0.000754453
0.000731803
0.00071084
0.000691412
0.000673382
0.000656626
0.000641032
0.000626499
0.000612937
0.000600263
0.000588402
0.000577287
0.000566857
0.000557055
0.000547832
0.000539142
0.000530943
0.000523197
0.000515868
0.000508927
0.000502343
0.000496091
0.000490147
0.000484488
0.000479095
0.000473949
0.000469033
0.000464334
0.000459836
0.000455528
0.000451399
0.000447439
0.000443639
0.000439992
0.000436491
0.000433132
0.000429911
0.000426825
0.000423873
0.000421054
0.00041837
0.000415824
0.000413419
0.000411162
0.00040906
0.000407122
0.000405359
0.000403783
0.000402409
0.000401252
0.000400332
0.000399667
0.000399278
0.000399188
0.000399418
0.000399994
0.000400938
0.000402273
0.000404022
0.000406205
0.00040884
0.000411943
0.000415524
0.000419592
0.000424149
0.000429192
0.000434713
0.000440698
0.000447129
0.000453979
0.000461219
0.000468814
0.000476722
0.000484902
0.000493304
0.000501879
0.000510574
0.000519332
0.000528096
0.000536807
0.000545398
0.000553811
0.000561988
0.00056986
0.000577357
0.000584405
0.000590926
0.000596834
0.000602037
0.000606435
0.000609917
0.000612361
0.000613632
0.000977116
0.0009367
0.000899636
0.000865604
0.000834315
0.000805512
0.000778961
0.000754455
0.000731805
0.000710843
0.000691415
0.000673385
0.000656629
0.000641035
0.000626503
0.000612941
0.000600267
0.000588406
0.000577292
0.000566862
0.000557061
0.000547838
0.000539148
0.000530949
0.000523203
0.000515875
0.000508934
0.000502351
0.000496099
0.000490155
0.000484497
0.000479104
0.000473958
0.000469044
0.000464344
0.000459847
0.00045554
0.000451411
0.000447452
0.000443652
0.000440005
0.000436505
0.000433147
0.000429926
0.00042684
0.000423888
0.00042107
0.000418385
0.000415839
0.000413434
0.000411176
0.000409073
0.000407133
0.000405368
0.00040379
0.000402413
0.000401253
0.000400328
0.000399658
0.000399263
0.000399166
0.000399389
0.000399955
0.000400889
0.000402213
0.00040395
0.00040612
0.000408741
0.000411828
0.000415394
0.000419446
0.000423985
0.000429012
0.000434516
0.000440485
0.000446899
0.000453735
0.000460961
0.000468542
0.00047644
0.00048461
0.000493004
0.000501573
0.000510263
0.000519019
0.000527783
0.000536496
0.000545089
0.000553507
0.00056169
0.000569569
0.000577074
0.000584131
0.00059066
0.000596577
0.000601788
0.000606193
0.000609681
0.000612129
0.000613401
0.000977116
0.0009367
0.000899637
0.000865604
0.000834316
0.000805513
0.000778963
0.000754457
0.000731808
0.000710845
0.000691418
0.000673388
0.000656632
0.000641039
0.000626507
0.000612945
0.000600272
0.000588411
0.000577297
0.000566867
0.000557066
0.000547844
0.000539155
0.000530956
0.00052321
0.000515883
0.000508942
0.00050236
0.000496108
0.000490165
0.000484507
0.000479114
0.000473969
0.000469055
0.000464356
0.00045986
0.000455553
0.000451425
0.000447466
0.000443667
0.000440021
0.000436521
0.000433163
0.000429943
0.000426857
0.000423905
0.000421087
0.000418403
0.000415856
0.00041345
0.000411191
0.000409087
0.000407146
0.000405379
0.000403798
0.000402418
0.000401254
0.000400325
0.000399649
0.000399248
0.000399143
0.000399358
0.000399914
0.000400837
0.00040215
0.000403873
0.000406028
0.000408634
0.000411705
0.000415254
0.000419288
0.00042381
0.000428817
0.000434304
0.000440255
0.000446652
0.000453471
0.000460681
0.000468249
0.000476134
0.000484293
0.000492679
0.000501242
0.000509927
0.00051868
0.000527444
0.000536157
0.000544754
0.000553177
0.000561366
0.000569252
0.000576765
0.000583831
0.000590369
0.000596295
0.000601515
0.000605927
0.000609421
0.000611874
0.000613148
0.000977116
0.000936701
0.000899637
0.000865605
0.000834317
0.000805514
0.000778964
0.000754459
0.00073181
0.000710848
0.000691421
0.000673391
0.000656636
0.000641043
0.000626511
0.00061295
0.000600276
0.000588416
0.000577302
0.000566873
0.000557073
0.000547851
0.000539162
0.000530963
0.000523218
0.000515891
0.000508951
0.000502369
0.000496118
0.000490175
0.000484517
0.000479125
0.000473981
0.000469067
0.000464369
0.000459874
0.000455567
0.00045144
0.000447481
0.000443683
0.000440038
0.000436539
0.000433181
0.000429961
0.000426876
0.000423924
0.000421106
0.000418422
0.000415874
0.000413468
0.000411209
0.000409103
0.00040716
0.000405391
0.000403808
0.000402424
0.000401256
0.000400322
0.000399641
0.000399233
0.00039912
0.000399325
0.000399872
0.000400783
0.000402083
0.000403792
0.000405932
0.000408521
0.000411575
0.000415106
0.000419121
0.000423623
0.000428611
0.000434078
0.00044001
0.000446388
0.000453189
0.000460384
0.000467936
0.000475808
0.000483956
0.000492332
0.000500887
0.000509568
0.000518318
0.00052708
0.000535795
0.000544395
0.000552822
0.000561017
0.000568911
0.000576433
0.000583507
0.000590055
0.000595991
0.000601219
0.00060564
0.000609141
0.000611598
0.000612874
0.000977116
0.000936701
0.000899638
0.000865606
0.000834318
0.000805515
0.000778966
0.000754461
0.000731812
0.00071085
0.000691424
0.000673395
0.000656639
0.000641047
0.000626515
0.000612954
0.000600281
0.000588422
0.000577308
0.000566879
0.000557079
0.000547858
0.000539169
0.000530971
0.000523227
0.0005159
0.00050896
0.000502379
0.000496128
0.000490186
0.000484529
0.000479138
0.000473994
0.000469081
0.000464384
0.000459888
0.000455583
0.000451456
0.000447498
0.000443701
0.000440056
0.000436557
0.000433201
0.000429981
0.000426896
0.000423945
0.000421127
0.000418442
0.000415895
0.000413488
0.000411228
0.000409121
0.000407177
0.000405405
0.000403819
0.000402432
0.00040126
0.00040032
0.000399633
0.000399218
0.000399097
0.000399292
0.000399828
0.000400727
0.000402013
0.000403708
0.000405832
0.000408404
0.000411439
0.00041495
0.000418945
0.000423427
0.000428395
0.00043384
0.000439752
0.000446111
0.000452893
0.00046007
0.000467607
0.000475464
0.0004836
0.000491966
0.000500513
0.000509187
0.000517934
0.000526695
0.000535411
0.000544014
0.000552445
0.000560647
0.000568549
0.000576079
0.000583163
0.000589721
0.000595666
0.000600904
0.000605333
0.00060884
0.000611303
0.000612581
0.000977116
0.000936701
0.000899638
0.000865607
0.000834319
0.000805517
0.000778968
0.000754463
0.000731814
0.000710853
0.000691427
0.000673398
0.000656643
0.000641051
0.00062652
0.000612959
0.000600287
0.000588428
0.000577314
0.000566886
0.000557086
0.000547865
0.000539177
0.00053098
0.000523235
0.000515909
0.00050897
0.000502389
0.000496139
0.000490197
0.000484541
0.000479151
0.000474007
0.000469095
0.000464399
0.000459904
0.000455599
0.000451473
0.000447516
0.000443719
0.000440075
0.000436578
0.000433221
0.000430003
0.000426918
0.000423967
0.000421149
0.000418465
0.000415917
0.00041351
0.000411249
0.000409141
0.000407195
0.000405421
0.000403831
0.000402441
0.000401264
0.00040032
0.000399626
0.000399203
0.000399073
0.000399259
0.000399783
0.00040067
0.000401942
0.000403621
0.000405728
0.000408282
0.000411298
0.000414789
0.000418763
0.000423224
0.000428169
0.000433593
0.000439484
0.000445822
0.000452584
0.000459743
0.000467263
0.000475105
0.000483227
0.000491583
0.000500121
0.000508789
0.000517532
0.000526291
0.000535008
0.000543613
0.000552049
0.000560258
0.000568167
0.000575706
0.0005828
0.000589367
0.000595322
0.00060057
0.000605007
0.000608522
0.00061099
0.000612271
0.000977116
0.000936701
0.000899638
0.000865607
0.00083432
0.000805518
0.000778969
0.000754465
0.000731816
0.000710855
0.000691429
0.000673401
0.000656647
0.000641055
0.000626524
0.000612964
0.000600292
0.000588433
0.000577321
0.000566892
0.000557093
0.000547873
0.000539185
0.000530988
0.000523245
0.000515919
0.000508981
0.0005024
0.000496151
0.00049021
0.000484554
0.000479164
0.000474022
0.00046911
0.000464415
0.000459921
0.000455617
0.000451492
0.000447535
0.000443739
0.000440096
0.000436599
0.000433244
0.000430025
0.000426942
0.000423991
0.000421173
0.000418489
0.000415941
0.000413533
0.000411271
0.000409162
0.000407214
0.000405438
0.000403845
0.000402451
0.00040127
0.00040032
0.000399619
0.000399189
0.00039905
0.000399225
0.000399738
0.000400611
0.000401869
0.000403532
0.000405622
0.000408157
0.000411153
0.000414623
0.000418575
0.000423014
0.000427937
0.000433338
0.000439206
0.000445523
0.000452265
0.000459404
0.000466906
0.000474733
0.000482841
0.000491185
0.000499714
0.000508375
0.000517114
0.000525871
0.000534588
0.000543196
0.000551636
0.000559851
0.000567768
0.000575316
0.000582419
0.000588997
0.000594962
0.000600219
0.000604666
0.000608188
0.00061066
0.000611944
0.000977116
0.000936701
0.000899639
0.000865608
0.000834321
0.000805519
0.000778971
0.000754466
0.000731819
0.000710858
0.000691432
0.000673405
0.000656651
0.000641059
0.000626529
0.000612969
0.000600298
0.000588439
0.000577327
0.000566899
0.000557101
0.000547881
0.000539194
0.000530997
0.000523254
0.00051593
0.000508992
0.000502412
0.000496163
0.000490223
0.000484568
0.000479179
0.000474037
0.000469126
0.000464431
0.000459939
0.000455636
0.000451511
0.000447556
0.000443761
0.000440118
0.000436622
0.000433267
0.00043005
0.000426967
0.000424016
0.000421199
0.000418514
0.000415966
0.000413558
0.000411295
0.000409185
0.000407235
0.000405456
0.000403861
0.000402463
0.000401277
0.000400321
0.000399614
0.000399175
0.000399027
0.000399192
0.000399693
0.000400553
0.000401795
0.000403441
0.000405513
0.000408029
0.000411005
0.000414454
0.000418384
0.000422799
0.000427698
0.000433077
0.000438922
0.000445216
0.000451937
0.000459056
0.000466539
0.000474349
0.000482443
0.000490775
0.000499294
0.000507948
0.000516682
0.000525437
0.000534153
0.000542764
0.000551209
0.000559429
0.000567354
0.000574911
0.000582024
0.000588612
0.000594587
0.000599854
0.000604309
0.000607839
0.000610317
0.000611604
0.000977116
0.000936702
0.000899639
0.000865608
0.000834321
0.00080552
0.000778972
0.000754468
0.000731821
0.00071086
0.000691435
0.000673408
0.000656654
0.000641063
0.000626534
0.000612974
0.000600303
0.000588445
0.000577333
0.000566906
0.000557108
0.000547889
0.000539202
0.000531007
0.000523264
0.00051594
0.000509003
0.000502424
0.000496176
0.000490236
0.000484582
0.000479194
0.000474053
0.000469143
0.000464449
0.000459957
0.000455655
0.000451532
0.000447577
0.000443783
0.000440141
0.000436646
0.000433292
0.000430075
0.000426993
0.000424043
0.000421225
0.000418541
0.000415993
0.000413585
0.000411321
0.000409209
0.000407257
0.000405476
0.000403878
0.000402475
0.000401285
0.000400323
0.000399609
0.000399162
0.000399005
0.000399159
0.000399647
0.000400494
0.00040172
0.00040335
0.000405404
0.0004079
0.000410855
0.000414282
0.000418188
0.00042258
0.000427456
0.00043281
0.000438631
0.000444903
0.000451602
0.0004587
0.000466165
0.000473957
0.000482036
0.000490355
0.000498864
0.00050751
0.000516239
0.000524991
0.000533707
0.00054232
0.000550769
0.000558995
0.000566927
0.000574492
0.000581615
0.000588213
0.000594199
0.000599476
0.00060394
0.000607477
0.000609961
0.000611251
0.000977116
0.000936702
0.000899639
0.000865609
0.000834322
0.000805521
0.000778973
0.00075447
0.000731823
0.000710863
0.000691438
0.000673411
0.000656658
0.000641067
0.000626538
0.000612979
0.000600309
0.000588451
0.00057734
0.000566913
0.000557116
0.000547897
0.000539211
0.000531016
0.000523274
0.000515951
0.000509014
0.000502436
0.000496189
0.00049025
0.000484597
0.000479209
0.000474069
0.00046916
0.000464467
0.000459976
0.000455675
0.000451553
0.000447599
0.000443806
0.000440165
0.000436671
0.000433318
0.000430102
0.00042702
0.00042407
0.000421253
0.00041857
0.000416021
0.000413612
0.000411348
0.000409234
0.000407281
0.000405497
0.000403896
0.00040249
0.000401294
0.000400327
0.000399605
0.000399151
0.000398984
0.000399127
0.000399603
0.000400435
0.000401646
0.000403259
0.000405294
0.00040777
0.000410704
0.000414108
0.000417991
0.000422359
0.00042721
0.00043254
0.000438337
0.000444585
0.000451261
0.000458339
0.000465783
0.000473559
0.000481622
0.000489928
0.000498426
0.000507064
0.000515786
0.000524536
0.000533251
0.000541865
0.000550318
0.00055855
0.000566489
0.000574063
0.000581196
0.000587804
0.000593799
0.000599086
0.000603559
0.000607104
0.000609593
0.000610886
0.000977116
0.000936702
0.00089964
0.000865609
0.000834323
0.000805522
0.000778975
0.000754471
0.000731825
0.000710865
0.000691441
0.000673414
0.000656662
0.000641071
0.000626543
0.000612984
0.000600314
0.000588457
0.000577347
0.000566921
0.000557124
0.000547906
0.00053922
0.000531026
0.000523285
0.000515962
0.000509026
0.000502448
0.000496202
0.000490264
0.000484612
0.000479225
0.000474086
0.000469178
0.000464486
0.000459996
0.000455696
0.000451574
0.000447622
0.00044383
0.00044019
0.000436697
0.000433344
0.000430129
0.000427048
0.000424099
0.000421283
0.000418599
0.00041605
0.000413641
0.000411375
0.000409261
0.000407306
0.00040552
0.000403915
0.000402505
0.000401305
0.000400331
0.000399603
0.00039914
0.000398963
0.000399095
0.000399558
0.000400377
0.000401572
0.000403168
0.000405184
0.00040764
0.000410552
0.000413933
0.000417793
0.000422136
0.000426963
0.000432268
0.00043804
0.000444264
0.000450918
0.000457973
0.000465398
0.000473155
0.000481202
0.000489494
0.000497981
0.000506611
0.000515327
0.000524073
0.000532788
0.000541403
0.000549859
0.000558097
0.000566043
0.000573625
0.000580767
0.000587385
0.000593391
0.000598687
0.000603169
0.000606722
0.000609217
0.000610513
0.000977116
0.000936702
0.00089964
0.00086561
0.000834324
0.000805523
0.000778976
0.000754473
0.000731826
0.000710867
0.000691443
0.000673417
0.000656665
0.000641075
0.000626547
0.000612989
0.00060032
0.000588464
0.000577353
0.000566928
0.000557132
0.000547914
0.000539229
0.000531036
0.000523295
0.000515973
0.000509038
0.000502461
0.000496216
0.000490279
0.000484627
0.000479242
0.000474103
0.000469196
0.000464505
0.000460016
0.000455717
0.000451597
0.000447645
0.000443854
0.000440215
0.000436723
0.000433372
0.000430157
0.000427077
0.000424129
0.000421313
0.000418629
0.000416081
0.000413671
0.000411405
0.000409289
0.000407332
0.000405543
0.000403936
0.000402521
0.000401316
0.000400337
0.000399601
0.00039913
0.000398944
0.000399064
0.000399515
0.000400319
0.000401499
0.000403077
0.000405074
0.00040751
0.0004104
0.000413758
0.000417594
0.000421913
0.000426715
0.000431995
0.000437742
0.000443942
0.000450572
0.000457605
0.00046501
0.000472748
0.000480779
0.000489057
0.000497532
0.000506153
0.000514863
0.000523605
0.000532318
0.000540935
0.000549394
0.000557637
0.00056559
0.00057318
0.000580331
0.000586959
0.000592975
0.000598281
0.000602772
0.000606331
0.000608832
0.000610131
0.000977116
0.000936702
0.00089964
0.00086561
0.000834324
0.000805524
0.000778977
0.000754474
0.000731828
0.00071087
0.000691446
0.00067342
0.000656669
0.000641079
0.000626552
0.000612994
0.000600325
0.00058847
0.00057736
0.000566935
0.000557139
0.000547923
0.000539239
0.000531046
0.000523306
0.000515985
0.00050905
0.000502474
0.00049623
0.000490293
0.000484643
0.000479258
0.000474121
0.000469215
0.000464525
0.000460037
0.000455739
0.00045162
0.000447669
0.000443879
0.000440242
0.00043675
0.0004334
0.000430186
0.000427107
0.000424159
0.000421344
0.00041866
0.000416112
0.000413702
0.000411435
0.000409318
0.000407359
0.000405568
0.000403957
0.000402539
0.000401329
0.000400344
0.000399601
0.000399121
0.000398925
0.000399035
0.000399473
0.000400263
0.000401427
0.000402987
0.000404966
0.000407381
0.000410249
0.000413584
0.000417396
0.00042169
0.000426467
0.000431721
0.000437444
0.000443619
0.000450226
0.000457237
0.000464621
0.00047234
0.000480355
0.000488618
0.000497081
0.000505692
0.000514396
0.000523134
0.000531845
0.000540462
0.000548925
0.000557172
0.000565132
0.00057273
0.00057989
0.000586527
0.000592553
0.000597868
0.000602368
0.000605935
0.000608442
0.000609744
0.000977116
0.000936702
0.000899641
0.000865611
0.000834325
0.000805525
0.000778978
0.000754476
0.00073183
0.000710872
0.000691449
0.000673423
0.000656672
0.000641083
0.000626556
0.000612999
0.000600331
0.000588476
0.000577367
0.000566942
0.000557147
0.000547931
0.000539248
0.000531056
0.000523317
0.000515996
0.000509063
0.000502487
0.000496244
0.000490308
0.000484659
0.000479275
0.000474139
0.000469234
0.000464545
0.000460058
0.000455761
0.000451643
0.000447694
0.000443905
0.000440268
0.000436778
0.000433429
0.000430216
0.000427137
0.00042419
0.000421375
0.000418692
0.000416144
0.000413733
0.000411465
0.000409347
0.000407387
0.000405594
0.000403979
0.000402557
0.000401343
0.000400351
0.000399602
0.000399114
0.000398908
0.000399007
0.000399432
0.000400207
0.000401356
0.000402899
0.000404858
0.000407253
0.000410099
0.000413412
0.000417199
0.000421469
0.00042622
0.000431449
0.000437147
0.000443297
0.00044988
0.000456869
0.000464232
0.000471932
0.00047993
0.000488178
0.00049663
0.000505231
0.000513927
0.000522661
0.00053137
0.000539988
0.000548453
0.000556705
0.00056467
0.000572277
0.000579445
0.000586092
0.000592127
0.000597452
0.00060196
0.000605535
0.000608047
0.000609352
0.000977116
0.000936703
0.000899641
0.000865611
0.000834326
0.000805526
0.000778979
0.000754477
0.000731832
0.000710874
0.000691451
0.000673426
0.000656675
0.000641087
0.00062656
0.000613004
0.000600336
0.000588481
0.000577373
0.000566949
0.000557155
0.00054794
0.000539257
0.000531065
0.000523327
0.000516008
0.000509075
0.0005025
0.000496258
0.000490323
0.000484675
0.000479292
0.000474157
0.000469253
0.000464565
0.000460079
0.000455784
0.000451667
0.000447719
0.000443931
0.000440295
0.000436806
0.000433458
0.000430246
0.000427168
0.000424222
0.000421407
0.000418725
0.000416176
0.000413765
0.000411497
0.000409378
0.000407415
0.00040562
0.000404003
0.000402577
0.000401357
0.00040036
0.000399603
0.000399107
0.000398892
0.000398979
0.000399392
0.000400154
0.000401286
0.000402812
0.000404752
0.000407127
0.000409951
0.000413241
0.000417005
0.000421249
0.000425975
0.000431179
0.000436852
0.000442978
0.000449537
0.000456503
0.000463845
0.000471526
0.000479506
0.00048774
0.000496179
0.00050477
0.00051346
0.000522188
0.000530896
0.000539513
0.00054798
0.000556236
0.000564208
0.000571821
0.000578998
0.000585654
0.000591698
0.000597032
0.000601549
0.000605131
0.000607649
0.000608957
0.000977116
0.000936703
0.000899641
0.000865612
0.000834326
0.000805526
0.00077898
0.000754478
0.000731833
0.000710876
0.000691453
0.000673429
0.000656678
0.000641091
0.000626564
0.000613009
0.000600341
0.000588487
0.000577379
0.000566956
0.000557163
0.000547948
0.000539266
0.000531075
0.000523338
0.000516019
0.000509087
0.000502514
0.000496272
0.000490338
0.000484691
0.000479309
0.000474175
0.000469272
0.000464585
0.000460101
0.000455806
0.00045169
0.000447744
0.000443957
0.000440323
0.000436835
0.000433487
0.000430277
0.000427199
0.000424254
0.00042144
0.000418758
0.000416209
0.000413798
0.000411529
0.000409408
0.000407445
0.000405647
0.000404027
0.000402597
0.000401372
0.00040037
0.000399606
0.000399102
0.000398877
0.000398954
0.000399354
0.000400101
0.000401218
0.000402727
0.000404649
0.000407003
0.000409806
0.000413072
0.000416813
0.000421032
0.000425734
0.000430912
0.00043656
0.000442661
0.000449196
0.00045614
0.000463461
0.000471123
0.000479086
0.000487305
0.000495731
0.000504312
0.000512994
0.000521717
0.000530422
0.00053904
0.000547508
0.000555768
0.000563746
0.000571366
0.000578551
0.000585215
0.000591269
0.000596612
0.000601137
0.000604726
0.000607249
0.00060856
0.000977116
0.000936703
0.000899641
0.000865612
0.000834327
0.000805527
0.000778981
0.00075448
0.000731835
0.000710878
0.000691456
0.000673431
0.000656681
0.000641094
0.000626568
0.000613013
0.000600346
0.000588493
0.000577386
0.000566963
0.00055717
0.000547956
0.000539275
0.000531085
0.000523348
0.00051603
0.000509099
0.000502527
0.000496286
0.000490353
0.000484707
0.000479326
0.000474193
0.000469291
0.000464606
0.000460122
0.000455829
0.000451714
0.000447769
0.000443983
0.00044035
0.000436863
0.000433517
0.000430307
0.000427231
0.000424286
0.000421473
0.000418791
0.000416242
0.000413831
0.000411561
0.00040944
0.000407474
0.000405674
0.000404051
0.000402618
0.000401389
0.00040038
0.00039961
0.000399097
0.000398863
0.000398929
0.000399317
0.000400051
0.000401152
0.000402644
0.000404547
0.000406881
0.000409663
0.000412907
0.000416624
0.000420819
0.000425496
0.000430649
0.000436272
0.000442349
0.00044886
0.000455782
0.000463081
0.000470724
0.00047867
0.000486874
0.000495287
0.000503858
0.000512532
0.00052125
0.000529952
0.000538569
0.000547039
0.000555303
0.000563285
0.000570913
0.000578105
0.000584778
0.00059084
0.000596192
0.000600725
0.000604322
0.00060685
0.000608164
0.000977116
0.000936703
0.000899642
0.000865612
0.000834327
0.000805528
0.000778982
0.000754481
0.000731836
0.000710879
0.000691458
0.000673434
0.000656684
0.000641097
0.000626572
0.000613018
0.000600351
0.000588498
0.000577392
0.00056697
0.000557178
0.000547964
0.000539284
0.000531095
0.000523359
0.000516042
0.000509112
0.00050254
0.0004963
0.000490368
0.000484723
0.000479343
0.000474211
0.000469311
0.000464626
0.000460144
0.000455852
0.000451738
0.000447794
0.000444009
0.000440377
0.000436892
0.000433547
0.000430338
0.000427263
0.000424319
0.000421506
0.000418824
0.000416276
0.000413864
0.000411594
0.000409471
0.000407504
0.000405702
0.000404076
0.000402639
0.000401405
0.000400391
0.000399614
0.000399094
0.000398851
0.000398906
0.000399282
0.000400002
0.000401088