/*--------------------------------*- C++ -*----------------------------------*\
  =========                 |
  \\      /  F ield         | OpenFOAM: The Open Source CFD Toolbox
   \\    /   O peration     | Website:  https://openfoam.org
    \\  /    A nd           | Version:  11
     \\/     M anipulation  |
\*---------------------------------------------------------------------------*/
FoamFile
{
    format      ascii;
    class       volScalarField;
    location    "874";
    object      p;
}
// * * * * * * * * * * * * * * * * * * * * * * * * * * * * * * * * * * * * * //

dimensions      [0 2 -2 0 0 0 0];

internalField   nonuniform List<scalar> 
10000
(
8.82606e-11
8.60417e-11
9.01473e-11
9.80835e-11
1.07104e-10
1.16624e-10
1.26654e-10
1.37217e-10
1.48334e-10
1.60038e-10
1.7237e-10
1.85377e-10
1.99104e-10
2.13603e-10
2.28924e-10
2.45121e-10
2.62248e-10
2.80362e-10
2.99523e-10
3.19789e-10
3.41224e-10
3.63893e-10
3.87861e-10
4.13197e-10
4.39972e-10
4.68258e-10
4.98133e-10
5.29671e-10
5.62955e-10
5.98064e-10
6.35084e-10
6.74102e-10
7.15204e-10
7.58483e-10
8.0403e-10
8.51939e-10
9.02306e-10
9.55228e-10
1.0108e-09
1.06913e-09
1.13031e-09
1.19445e-09
1.26163e-09
1.33197e-09
1.40556e-09
1.4825e-09
1.56289e-09
1.6468e-09
1.73435e-09
1.8256e-09
1.92064e-09
2.01954e-09
2.12237e-09
2.22919e-09
2.34003e-09
2.45494e-09
2.57394e-09
2.69704e-09
2.82421e-09
2.95545e-09
3.09068e-09
3.22984e-09
3.37281e-09
3.51947e-09
3.66963e-09
3.82309e-09
3.97958e-09
4.1388e-09
4.30037e-09
4.46388e-09
4.62882e-09
4.79461e-09
4.96058e-09
5.12596e-09
5.28988e-09
5.45132e-09
5.60914e-09
5.76204e-09
5.90853e-09
6.04693e-09
6.17534e-09
6.2916e-09
6.39326e-09
6.47755e-09
6.54134e-09
6.58109e-09
6.59278e-09
6.57183e-09
6.51305e-09
6.41049e-09
6.25732e-09
6.04562e-09
5.76602e-09
5.40719e-09
4.95504e-09
4.39252e-09
3.69508e-09
2.79948e-09
1.6057e-09
1.20819e-10
1.52142e-10
1.41155e-10
1.35569e-10
1.38776e-10
1.45744e-10
1.5458e-10
1.6484e-10
1.76296e-10
1.88803e-10
2.02288e-10
2.1673e-10
2.32131e-10
2.48515e-10
2.65914e-10
2.84369e-10
3.03931e-10
3.24652e-10
3.4659e-10
3.69808e-10
3.9437e-10
4.20344e-10
4.47802e-10
4.76818e-10
5.07469e-10
5.39835e-10
5.73998e-10
6.10043e-10
6.48058e-10
6.88133e-10
7.30361e-10
7.74837e-10
8.21659e-10
8.70926e-10
9.22739e-10
9.77203e-10
1.03442e-09
1.0945e-09
1.15755e-09
1.22368e-09
1.293e-09
1.36561e-09
1.44163e-09
1.52116e-09
1.60431e-09
1.69119e-09
1.78189e-09
1.87652e-09
1.97517e-09
2.07793e-09
2.18487e-09
2.29609e-09
2.41164e-09
2.53157e-09
2.65594e-09
2.78478e-09
2.91809e-09
3.05588e-09
3.19813e-09
3.34479e-09
3.49579e-09
3.65102e-09
3.81037e-09
3.97367e-09
4.14069e-09
4.3112e-09
4.48488e-09
4.66138e-09
4.84028e-09
5.02106e-09
5.20317e-09
5.38594e-09
5.56859e-09
5.75027e-09
5.92997e-09
6.10656e-09
6.27875e-09
6.44506e-09
6.60385e-09
6.75324e-09
6.8911e-09
7.01503e-09
7.12233e-09
7.20994e-09
7.27442e-09
7.31184e-09
7.31781e-09
7.28734e-09
7.21473e-09
7.09355e-09
6.91641e-09
6.6748e-09
6.35887e-09
5.95694e-09
5.45485e-09
4.83548e-09
4.08113e-09
3.16891e-09
2.00137e-09
3.59788e-10
-1.12856e-09
1.68807e-10
1.51784e-10
1.38951e-10
1.35746e-10
1.37355e-10
1.41662e-10
1.47994e-10
1.55954e-10
1.65259e-10
1.75734e-10
1.87278e-10
1.99836e-10
2.13382e-10
2.27912e-10
2.43437e-10
2.59976e-10
2.77561e-10
2.96227e-10
3.16014e-10
3.3697e-10
3.59143e-10
3.82586e-10
4.07355e-10
4.33509e-10
4.61109e-10
4.9022e-10
5.20907e-10
5.53238e-10
5.87285e-10
6.2312e-10
6.60816e-10
7.0045e-10
7.42099e-10
7.85843e-10
8.3176e-10
8.79932e-10
9.3044e-10
9.83366e-10
1.03879e-09
1.0968e-09
1.15747e-09
1.22089e-09
1.28713e-09
1.35627e-09
1.42838e-09
1.50353e-09
1.58179e-09
1.66323e-09
1.7479e-09
1.83584e-09
1.9271e-09
2.02171e-09
2.1197e-09
2.22108e-09
2.32584e-09
2.43397e-09
2.54543e-09
2.66016e-09
2.77811e-09
2.89916e-09
3.02318e-09
3.15004e-09
3.27952e-09
3.41142e-09
3.54545e-09
3.6813e-09
3.81861e-09
3.95694e-09
4.09582e-09
4.23466e-09
4.37284e-09
4.50961e-09
4.64416e-09
4.77552e-09
4.90264e-09
5.02431e-09
5.13917e-09
5.24568e-09
5.34213e-09
5.42656e-09
5.4968e-09
5.55039e-09
5.58456e-09
5.59621e-09
5.58185e-09
5.53754e-09
5.45882e-09
5.34068e-09
5.17742e-09
4.96254e-09
4.68863e-09
4.34714e-09
3.92809e-09
3.41946e-09
2.80756e-09
2.0817e-09
1.22769e-09
1.2642e-10
-1.48334e-09
-2.35018e-09
1.77972e-10
1.59989e-10
1.45554e-10
1.39673e-10
1.38552e-10
1.40422e-10
1.44636e-10
1.50758e-10
1.58456e-10
1.67504e-10
1.77759e-10
1.89127e-10
2.01553e-10
2.15008e-10
2.29482e-10
2.44978e-10
2.61512e-10
2.79105e-10
2.97788e-10
3.17594e-10
3.38564e-10
3.60741e-10
3.84171e-10
4.08904e-10
4.34993e-10
4.62492e-10
4.91459e-10
5.21952e-10
5.54033e-10
5.87765e-10
6.23213e-10
6.60441e-10
6.99517e-10
7.40508e-10
7.83484e-10
8.28513e-10
8.75664e-10
9.25008e-10
9.76612e-10
1.03054e-09
1.08687e-09
1.14566e-09
1.20698e-09
1.27087e-09
1.33741e-09
1.40665e-09
1.47862e-09
1.55339e-09
1.63097e-09
1.71141e-09
1.79472e-09
1.88092e-09
1.97e-09
2.06195e-09
2.15675e-09
2.25435e-09
2.3547e-09
2.45771e-09
2.56329e-09
2.6713e-09
2.7816e-09
2.894e-09
3.00828e-09
3.12419e-09
3.24142e-09
3.35964e-09
3.47844e-09
3.59736e-09
3.71589e-09
3.83344e-09
3.94933e-09
4.0628e-09
4.17299e-09
4.27895e-09
4.37957e-09
4.47364e-09
4.55978e-09
4.63646e-09
4.70193e-09
4.75428e-09
4.79132e-09
4.81064e-09
4.80952e-09
4.78491e-09
4.73341e-09
4.6512e-09
4.53398e-09
4.37694e-09
4.17465e-09
3.92099e-09
3.60903e-09
3.23092e-09
2.77762e-09
2.23851e-09
1.60216e-09
8.62209e-10
8.13597e-12
-1.09504e-09
-2.69623e-09
-3.28556e-09
1.81987e-10
1.65117e-10
1.50896e-10
1.43964e-10
1.41405e-10
1.41842e-10
1.4474e-10
1.49688e-10
1.56354e-10
1.645e-10
1.73961e-10
1.84624e-10
1.96414e-10
2.09286e-10
2.23215e-10
2.38193e-10
2.54222e-10
2.71316e-10
2.89496e-10
3.08787e-10
3.29223e-10
3.50839e-10
3.73676e-10
3.97776e-10
4.23186e-10
4.49954e-10
4.78131e-10
5.07771e-10
5.38926e-10
5.71655e-10
6.06013e-10
6.42061e-10
6.79856e-10
7.1946e-10
7.60933e-10
8.04336e-10
8.49729e-10
8.97171e-10
9.46723e-10
9.98442e-10
1.05238e-09
1.1086e-09
1.16715e-09
1.22808e-09
1.29142e-09
1.35723e-09
1.42553e-09
1.49636e-09
1.56972e-09
1.64565e-09
1.72413e-09
1.80517e-09
1.88875e-09
1.97482e-09
2.06335e-09
2.15428e-09
2.24752e-09
2.34296e-09
2.44049e-09
2.53995e-09
2.64116e-09
2.7439e-09
2.84794e-09
2.95299e-09
3.05871e-09
3.16473e-09
3.27063e-09
3.3759e-09
3.47999e-09
3.58229e-09
3.68207e-09
3.77855e-09
3.87083e-09
3.95791e-09
4.03866e-09
4.11183e-09
4.17601e-09
4.22963e-09
4.27093e-09
4.29797e-09
4.30856e-09
4.30027e-09
4.27038e-09
4.21589e-09
4.13342e-09
4.01922e-09
3.86912e-09
3.67844e-09
3.44199e-09
3.15395e-09
2.80785e-09
2.39648e-09
1.91171e-09
1.34422e-09
6.84616e-10
-6.99494e-11
-9.26736e-10
-2.02833e-09
-3.59643e-09
-4.04697e-09
1.81127e-10
1.65795e-10
1.52279e-10
1.4493e-10
1.41498e-10
1.40928e-10
1.42801e-10
1.4676e-10
1.52499e-10
1.59785e-10
1.68448e-10
1.78367e-10
1.89458e-10
2.01662e-10
2.14945e-10
2.29288e-10
2.44684e-10
2.61139e-10
2.78664e-10
2.97279e-10
3.17008e-10
3.37881e-10
3.59932e-10
3.83196e-10
4.07714e-10
4.33527e-10
4.6068e-10
4.89218e-10
5.19191e-10
5.50646e-10
5.83634e-10
6.18207e-10
6.54415e-10
6.92312e-10
7.31949e-10
7.73378e-10
8.1665e-10
8.61817e-10
9.08927e-10
9.58028e-10
1.00917e-09
1.06238e-09
1.11772e-09
1.1752e-09
1.23488e-09
1.29676e-09
1.36088e-09
1.42724e-09
1.49586e-09
1.56672e-09
1.63981e-09
1.71512e-09
1.7926e-09
1.8722e-09
1.95386e-09
2.0375e-09
2.123e-09
2.21025e-09
2.29911e-09
2.38938e-09
2.48088e-09
2.57337e-09
2.66656e-09
2.76017e-09
2.85382e-09
2.94711e-09
3.0396e-09
3.13075e-09
3.22e-09
3.30669e-09
3.39009e-09
3.46937e-09
3.54363e-09
3.61183e-09
3.67284e-09
3.72539e-09
3.76805e-09
3.79925e-09
3.81725e-09
3.82009e-09
3.80562e-09
3.77144e-09
3.7149e-09
3.63306e-09
3.52264e-09
3.38006e-09
3.20131e-09
2.98198e-09
2.7172e-09
2.4016e-09
2.0293e-09
1.59388e-09
1.0883e-09
5.04641e-10
-1.64389e-10
-9.18074e-10
-1.75963e-09
-2.84059e-09
-4.3878e-09
-4.66889e-09
1.7689e-10
1.63104e-10
1.5048e-10
1.43094e-10
1.39179e-10
1.37927e-10
1.39026e-10
1.42179e-10
1.47112e-10
1.5361e-10
1.61511e-10
1.70693e-10
1.81065e-10
1.92566e-10
2.05153e-10
2.18798e-10
2.33488e-10
2.49221e-10
2.66001e-10
2.83842e-10
3.0276e-10
3.2278e-10
3.43927e-10
3.66232e-10
3.89729e-10
4.14452e-10
4.4044e-10
4.67731e-10
4.96368e-10
5.26391e-10
5.57845e-10
5.90773e-10
6.25218e-10
6.61225e-10
6.98838e-10
7.381e-10
7.79053e-10
8.21739e-10
8.66197e-10
9.12464e-10
9.60575e-10
1.01056e-09
1.06245e-09
1.11627e-09
1.17203e-09
1.22976e-09
1.28944e-09
1.3511e-09
1.41471e-09
1.48026e-09
1.54771e-09
1.61704e-09
1.68818e-09
1.76107e-09
1.83562e-09
1.91174e-09
1.9893e-09
2.06815e-09
2.14814e-09
2.22906e-09
2.31069e-09
2.39278e-09
2.47503e-09
2.55711e-09
2.63865e-09
2.71921e-09
2.79834e-09
2.87548e-09
2.95004e-09
3.02135e-09
3.08866e-09
3.15114e-09
3.20786e-09
3.25779e-09
3.29978e-09
3.33255e-09
3.35471e-09
3.36469e-09
3.36075e-09
3.34101e-09
3.30333e-09
3.24541e-09
3.16466e-09
3.05826e-09
2.92311e-09
2.75577e-09
2.55251e-09
2.30923e-09
2.02144e-09
1.6843e-09
1.29257e-09
8.40698e-10
3.22725e-10
-2.67902e-10
-9.36614e-10
-1.67911e-09
-2.494e-09
-3.54713e-09
-5.11911e-09
-5.18706e-09
1.70321e-10
1.57966e-10
1.46278e-10
1.3907e-10
1.34937e-10
1.33255e-10
1.33797e-10
1.36317e-10
1.4058e-10
1.46391e-10
1.53601e-10
1.62093e-10
1.71777e-10
1.82588e-10
1.94478e-10
2.07417e-10
2.21386e-10
2.36374e-10
2.52382e-10
2.69416e-10
2.87488e-10
3.06615e-10
3.26818e-10
3.4812e-10
3.7055e-10
3.94137e-10
4.18911e-10
4.44906e-10
4.72157e-10
5.00698e-10
5.30566e-10
5.61798e-10
5.9443e-10
6.28497e-10
6.64037e-10
7.01084e-10
7.39672e-10
7.79832e-10
8.21596e-10
8.6499e-10
9.10039e-10
9.56764e-10
1.00518e-09
1.05531e-09
1.10714e-09
1.16069e-09
1.21595e-09
1.2729e-09
1.33152e-09
1.39178e-09
1.45364e-09
1.51704e-09
1.5819e-09
1.64816e-09
1.71571e-09
1.78442e-09
1.85417e-09
1.92479e-09
1.99609e-09
2.06787e-09
2.13989e-09
2.21186e-09
2.28348e-09
2.3544e-09
2.42423e-09
2.49253e-09
2.5588e-09
2.6225e-09
2.68302e-09
2.73966e-09
2.79168e-09
2.83823e-09
2.87839e-09
2.91111e-09
2.93527e-09
2.9496e-09
2.95272e-09
2.94308e-09
2.91901e-09
2.87865e-09
2.81995e-09
2.74067e-09
2.63837e-09
2.51034e-09
2.35366e-09
2.16513e-09
1.94126e-09
1.6783e-09
1.3722e-09
1.01863e-09
6.13018e-10
1.50627e-10
-3.73481e-10
-9.64689e-10
-1.62693e-09
-2.35276e-09
-3.13668e-09
-4.16289e-09
-5.78902e-09
-5.65418e-09
1.62116e-10
1.50942e-10
1.40116e-10
1.33189e-10
1.29003e-10
1.27062e-10
1.27206e-10
1.29233e-10
1.3294e-10
1.38155e-10
1.44742e-10
1.52593e-10
1.61621e-10
1.71761e-10
1.82964e-10
1.95196e-10
2.08434e-10
2.22664e-10
2.3788e-10
2.54084e-10
2.71282e-10
2.89487e-10
3.08712e-10
3.28978e-10
3.50305e-10
3.72717e-10
3.9624e-10
4.209e-10
4.46725e-10
4.73745e-10
5.01988e-10
5.31485e-10
5.62265e-10
5.94356e-10
6.27787e-10
6.62584e-10
6.98774e-10
7.36379e-10
7.75422e-10
8.15919e-10
8.57887e-10
9.01336e-10
9.46272e-10
9.92699e-10
1.04061e-09
1.09e-09
1.14084e-09
1.19312e-09
1.24679e-09
1.30181e-09
1.35812e-09
1.41566e-09
1.47435e-09
1.53408e-09
1.59474e-09
1.6562e-09
1.7183e-09
1.78087e-09
1.84371e-09
1.9066e-09
1.96927e-09
2.03144e-09
2.09278e-09
2.15294e-09
2.2115e-09
2.26801e-09
2.32197e-09
2.37283e-09
2.41995e-09
2.46266e-09
2.50019e-09
2.53171e-09
2.55629e-09
2.5729e-09
2.58043e-09
2.57763e-09
2.56315e-09
2.53549e-09
2.49302e-09
2.43395e-09
2.35632e-09
2.258e-09
2.13664e-09
1.98973e-09
1.81452e-09
1.60805e-09
1.36712e-09
1.08832e-09
7.6803e-10
4.02438e-10
-1.23947e-11
-4.80444e-10
-1.00574e-09
-1.59267e-09
-2.24399e-09
-2.94963e-09
-3.70056e-09
-4.69971e-09
-6.38743e-09
-6.08417e-09
1.52587e-10
1.42357e-10
1.32282e-10
1.25675e-10
1.21546e-10
1.19471e-10
1.19338e-10
1.2098e-10
1.24223e-10
1.28917e-10
1.34941e-10
1.42195e-10
1.50597e-10
1.60086e-10
1.70611e-10
1.82137e-10
1.94638e-10
2.08097e-10
2.22504e-10
2.37857e-10
2.54157e-10
2.71411e-10
2.8963e-10
3.08827e-10
3.29018e-10
3.5022e-10
3.72455e-10
3.95743e-10
4.20106e-10
4.45567e-10
4.72148e-10
4.99873e-10
5.28764e-10
5.58844e-10
5.90132e-10
6.22648e-10
6.5641e-10
6.91433e-10
7.2773e-10
7.65309e-10
8.04178e-10
8.44338e-10
8.85785e-10
9.28512e-10
9.72503e-10
1.01774e-09
1.06419e-09
1.11182e-09
1.16057e-09
1.21041e-09
1.26124e-09
1.313e-09
1.36559e-09
1.4189e-09
1.4728e-09
1.52715e-09
1.58177e-09
1.63649e-09
1.69108e-09
1.74531e-09
1.79892e-09
1.85159e-09
1.903e-09
1.95277e-09
2.00049e-09
2.04569e-09
2.08788e-09
2.12647e-09
2.16086e-09
2.19035e-09
2.21418e-09
2.23154e-09
2.24149e-09
2.24304e-09
2.23509e-09
2.21643e-09
2.18573e-09
2.14157e-09
2.08236e-09
2.0064e-09
1.91181e-09
1.79658e-09
1.65852e-09
1.49527e-09
1.30427e-09
1.08281e-09
8.27988e-10
5.36737e-10
2.05844e-10
-1.68008e-10
-5.88176e-10
-1.05794e-09
-1.58054e-09
-2.15948e-09
-2.79647e-09
-3.47911e-09
-4.19451e-09
-5.15947e-09
-6.88844e-09
-6.44241e-09
1.41756e-10
1.32275e-10
1.22924e-10
1.16713e-10
1.1273e-10
1.10621e-10
1.10305e-10
1.11648e-10
1.14502e-10
1.18739e-10
1.24251e-10
1.30947e-10
1.38754e-10
1.4761e-10
1.57468e-10
1.68291e-10
1.80052e-10
1.92732e-10
2.06318e-10
2.20803e-10
2.36185e-10
2.52466e-10
2.69654e-10
2.87755e-10
3.06781e-10
3.26746e-10
3.47663e-10
3.69548e-10
3.92418e-10
4.16289e-10
4.41179e-10
4.67103e-10
4.94077e-10
5.22118e-10
5.51238e-10
5.81449e-10
6.12762e-10
6.45185e-10
6.78721e-10
7.13372e-10
7.49135e-10
7.86003e-10
8.23965e-10
8.63001e-10
9.03089e-10
9.44196e-10
9.86285e-10
1.02931e-09
1.0732e-09
1.11791e-09
1.16334e-09
1.20941e-09
1.25601e-09
1.30302e-09
1.3503e-09
1.39769e-09
1.44502e-09
1.49208e-09
1.53866e-09
1.5845e-09
1.62932e-09
1.67282e-09
1.71466e-09
1.75444e-09
1.79176e-09
1.82614e-09
1.85708e-09
1.88401e-09
1.90631e-09
1.92329e-09
1.93422e-09
1.93827e-09
1.93455e-09
1.92207e-09
1.89977e-09
1.86647e-09
1.8209e-09
1.76169e-09
1.68733e-09
1.59619e-09
1.48651e-09
1.3564e-09
1.2038e-09
1.02653e-09
8.22239e-10
5.88457e-10
3.2256e-10
2.18134e-11
-3.16608e-10
-6.95572e-10
-1.11791e-09
-1.58631e-09
-2.10329e-09
-2.67163e-09
-3.29212e-09
-3.95028e-09
-4.62923e-09
-5.55286e-09
-7.28896e-09
-6.73621e-09
1.29812e-10
1.20958e-10
1.12304e-10
1.06513e-10
1.02734e-10
1.0066e-10
1.0023e-10
1.01339e-10
1.03865e-10
1.07697e-10
1.12741e-10
1.18915e-10
1.26151e-10
1.34394e-10
1.43596e-10
1.53722e-10
1.64744e-10
1.7664e-10
1.89396e-10
2.03e-10
2.1745e-10
2.32741e-10
2.48877e-10
2.65862e-10
2.83702e-10
3.02406e-10
3.21982e-10
3.42441e-10
3.63794e-10
3.86052e-10
4.09227e-10
4.33328e-10
4.58366e-10
4.84348e-10
5.11284e-10
5.39176e-10
5.68029e-10
5.97842e-10
6.28613e-10
6.60334e-10
6.92996e-10
7.26582e-10
7.61073e-10
7.96441e-10
8.32653e-10
8.6967e-10
9.07442e-10
9.45913e-10
9.85016e-10
1.02467e-09
1.06479e-09
1.10528e-09
1.14601e-09
1.18685e-09
1.22767e-09
1.26828e-09
1.3085e-09
1.34813e-09
1.38694e-09
1.42465e-09
1.461e-09
1.49567e-09
1.5283e-09
1.5585e-09
1.58587e-09
1.60993e-09
1.63017e-09
1.64603e-09
1.65689e-09
1.66209e-09
1.66089e-09
1.65249e-09
1.63602e-09
1.61052e-09
1.57496e-09
1.52822e-09
1.46907e-09
1.39621e-09
1.3082e-09
1.20351e-09
1.08049e-09
9.37353e-10
7.72215e-10
5.83054e-10
3.67732e-10
1.23997e-10
-1.505e-10
-4.58187e-10
-8.01535e-10
-1.18302e-09
-1.60501e-09
-2.0697e-09
-2.57905e-09
-3.13527e-09
-3.73853e-09
-4.37305e-09
-5.01979e-09
-5.90936e-09
-7.64067e-09
-7.01618e-09
1.17127e-10
1.08718e-10
1.00672e-10
9.52904e-11
9.17374e-11
8.97339e-11
8.92352e-11
9.01587e-11
9.24023e-11
9.58714e-11
1.00483e-10
1.06165e-10
1.12855e-10
1.20501e-10
1.2906e-10
1.38496e-10
1.48781e-10
1.59891e-10
1.71811e-10
1.84527e-10
1.98032e-10
2.12321e-10
2.27392e-10
2.43244e-10
2.59881e-10
2.77305e-10
2.95522e-10
3.14537e-10
3.34356e-10
3.54985e-10
3.76429e-10
3.98693e-10
4.2178e-10
4.45695e-10
4.70436e-10
4.96003e-10
5.22392e-10
5.49597e-10
5.77606e-10
6.06407e-10
6.35981e-10
6.66304e-10
6.97349e-10
7.29081e-10
7.61457e-10
7.94431e-10
8.27944e-10
8.61931e-10
8.96316e-10
9.31014e-10
9.65925e-10
1.00094e-09
1.03593e-09
1.07076e-09
1.10527e-09
1.13929e-09
1.17262e-09
1.20505e-09
1.23634e-09
1.26622e-09
1.2944e-09
1.32057e-09
1.34438e-09
1.36543e-09
1.3833e-09
1.39753e-09
1.40762e-09
1.413e-09
1.41309e-09
1.4072e-09
1.39464e-09
1.37463e-09
1.34631e-09
1.30876e-09
1.26101e-09
1.20196e-09
1.13047e-09
1.04528e-09
9.45044e-10
8.28324e-10
6.93576e-10
5.39152e-10
3.63305e-10
1.64183e-10
-6.01577e-11
-3.11748e-10
-5.92689e-10
-9.05126e-10
-1.25122e-09
-1.63309e-09
-2.05275e-09
-2.51197e-09
-3.01232e-09
-3.55561e-09
-4.14169e-09
-4.75405e-09
-5.37299e-09
-6.23775e-09
-7.97367e-09
-7.28459e-09
1.03647e-10
9.56728e-11
8.81892e-11
8.32011e-11
7.988e-11
7.7968e-11
7.74315e-11
7.82044e-11
8.02012e-11
8.33408e-11
8.75505e-11
9.27661e-11
9.89314e-11
1.05998e-10
1.13925e-10
1.22679e-10
1.32229e-10
1.42555e-10
1.53636e-10
1.65459e-10
1.78013e-10
1.9129e-10
2.05284e-10
2.19993e-10
2.35414e-10
2.51547e-10
2.68393e-10
2.85952e-10
3.04225e-10
3.23213e-10
3.42916e-10
3.63335e-10
3.84466e-10
4.06307e-10
4.28853e-10
4.52096e-10
4.76026e-10
5.0063e-10
5.25891e-10
5.51788e-10
5.78296e-10
6.05385e-10
6.33018e-10
6.61155e-10
6.89745e-10
7.18732e-10
7.48053e-10
7.77633e-10
8.07388e-10
8.37226e-10
8.67039e-10
8.9671e-10
9.26107e-10
9.5508e-10
9.83469e-10
1.01109e-09
1.03774e-09
1.06321e-09
1.08724e-09
1.10958e-09
1.12992e-09
1.14795e-09
1.16331e-09
1.17562e-09
1.18445e-09
1.18936e-09
1.18984e-09
1.18534e-09
1.17527e-09
1.159e-09
1.13583e-09
1.10501e-09
1.06572e-09
1.01708e-09
9.58137e-10
8.87879e-10
8.05204e-10
7.08932e-10
5.97803e-10
4.70468e-10
3.25495e-10
1.61363e-10
-2.35336e-11
-2.30883e-10
-4.62447e-10
-7.20052e-10
-1.00557e-09
-1.32089e-09
-1.66791e-09
-2.04845e-09
-2.4642e-09
-2.91664e-09
-3.40701e-09
-3.9369e-09
-4.50593e-09
-5.09711e-09
-5.69041e-09
-6.53252e-09
-8.26833e-09
-7.51203e-09
8.92576e-11
8.19102e-11
7.49825e-11
7.03634e-11
6.72735e-11
6.54674e-11
6.49166e-11
6.55667e-11
6.73455e-11
7.01832e-11
7.40166e-11
7.87883e-11
8.44477e-11
9.09503e-11
9.82576e-11
1.06336e-10
1.15159e-10
1.24701e-10
1.34944e-10
1.45872e-10
1.57471e-10
1.6973e-10
1.82642e-10
1.962e-10
2.10398e-10
2.25233e-10
2.40699e-10
2.56795e-10
2.73516e-10
2.90858e-10
3.08817e-10
3.27388e-10
3.46563e-10
3.66333e-10
3.86689e-10
4.07616e-10
4.29099e-10
4.51118e-10
4.7365e-10
4.96668e-10
5.20141e-10
5.44031e-10
5.68296e-10
5.92887e-10
6.17748e-10
6.42816e-10
6.68019e-10
6.93278e-10
7.185e-10
7.43586e-10
7.68424e-10
7.92887e-10
8.16838e-10
8.40122e-10
8.62572e-10
8.84e-10
9.04202e-10
9.22952e-10
9.40005e-10
9.5509e-10
9.67912e-10
9.78151e-10
9.85455e-10
9.89442e-10
9.89697e-10
9.85769e-10
9.77169e-10
9.63365e-10
9.43783e-10
9.17802e-10
8.8475e-10
8.43903e-10
7.9448e-10
7.35643e-10
6.66488e-10
5.8605e-10
4.93293e-10
3.8711e-10
2.66324e-10
1.29684e-10
-2.41372e-11
-1.96537e-10
-3.88983e-10
-6.03011e-10
-8.4021e-10
-1.10222e-09
-1.3907e-09
-1.70733e-09
-2.05376e-09
-2.43156e-09
-2.84218e-09
-3.28683e-09
-3.76655e-09
-4.28274e-09
-4.83491e-09
-5.40567e-09
-5.97467e-09
-6.79468e-09
-8.52591e-09
-7.70589e-09
7.41763e-11
6.74803e-11
6.11218e-11
5.68683e-11
5.40129e-11
5.23254e-11
5.17797e-11
5.23301e-11
5.3915e-11
5.64746e-11
5.99537e-11
6.43016e-11
6.94725e-11
7.54255e-11
8.21246e-11
8.95383e-11
9.76391e-11
1.06403e-10
1.1581e-10
1.25843e-10
1.36486e-10
1.47726e-10
1.59553e-10
1.71957e-10
1.84929e-10
1.98461e-10
2.12546e-10
2.27176e-10
2.42343e-10
2.5804e-10
2.74257e-10
2.90984e-10
3.08208e-10
3.25916e-10
3.44093e-10
3.62719e-10
3.81773e-10
4.01229e-10
4.2106e-10
4.41231e-10
4.61706e-10
4.82442e-10
5.03388e-10
5.24492e-10
5.45689e-10
5.66912e-10
5.88082e-10
6.09112e-10
6.29906e-10
6.50358e-10
6.70348e-10
6.89747e-10
7.0841e-10
7.2618e-10
7.42882e-10
7.58327e-10
7.72307e-10
7.84594e-10
7.9494e-10
8.03074e-10
8.08703e-10
8.11507e-10
8.11138e-10
8.0722e-10
7.99345e-10
7.87071e-10
7.69921e-10
7.47378e-10
7.18888e-10
6.8385e-10
6.41619e-10
5.91503e-10
5.32756e-10
4.64583e-10
3.86129e-10
2.96484e-10
1.94676e-10
7.96724e-11
-4.96213e-11
-1.94364e-10
-3.55775e-10
-5.35136e-10
-7.33785e-10
-9.53112e-10
-1.19455e-09
-1.45956e-09
-1.74963e-09
-2.06624e-09
-2.41081e-09
-2.78474e-09
-3.18926e-09
-3.62537e-09
-4.09396e-09
-4.5963e-09
-5.13182e-09
-5.6828e-09
-6.22862e-09
-7.02704e-09
-8.75097e-09
-7.87254e-09
5.85336e-11
5.24804e-11
4.66932e-11
4.28085e-11
4.01918e-11
3.86325e-11
3.81073e-11
3.85767e-11
3.9988e-11
4.22898e-11
4.5434e-11
4.93759e-11
5.40743e-11
5.94917e-11
6.55946e-11
7.23529e-11
7.97398e-11
8.77315e-11
9.6307e-11
1.05448e-10
1.15137e-10
1.25359e-10
1.36102e-10
1.47353e-10
1.59099e-10
1.7133e-10
1.84035e-10
1.97202e-10
2.1082e-10
2.24876e-10
2.39358e-10
2.54249e-10
2.69534e-10
2.85195e-10
3.0121e-10
3.17555e-10
3.34205e-10
3.51128e-10
3.68291e-10
3.85655e-10
4.03176e-10
4.20807e-10
4.38493e-10
4.56174e-10
4.7378e-10
4.91239e-10
5.08466e-10
5.25368e-10
5.41846e-10
5.57786e-10
5.73065e-10
5.87549e-10
6.0109e-10
6.13524e-10
6.24677e-10
6.34354e-10
6.42346e-10
6.48424e-10
6.5234e-10
6.53825e-10
6.52586e-10
6.48308e-10
6.40648e-10
6.29237e-10
6.13675e-10
5.93533e-10
5.68346e-10
5.37617e-10
5.00809e-10
4.57347e-10
4.06614e-10
3.47949e-10
2.80646e-10
2.03952e-10
1.17063e-10
1.91235e-11
-9.07721e-11
-2.13584e-10
-3.50327e-10
-5.02068e-10
-6.69927e-10
-8.55072e-10
-1.05872e-09
-1.28212e-09
-1.52658e-09
-1.79338e-09
-2.08386e-09
-2.39932e-09
-2.74101e-09
-3.11016e-09
-3.50781e-09
-3.93483e-09
-4.39196e-09
-4.8804e-09
-5.39952e-09
-5.93131e-09
-6.45489e-09
-7.23224e-09
-8.94688e-09
-8.01551e-09
4.24381e-11
3.70167e-11
3.1796e-11
2.82777e-11
2.59014e-11
2.44772e-11
2.39839e-11
2.43872e-11
2.56416e-11
2.77029e-11
3.05294e-11
3.40815e-11
3.83223e-11
4.32176e-11
4.87362e-11
5.48495e-11
6.15315e-11
6.87584e-11
7.6509e-11
8.47633e-11
9.35035e-11
1.02713e-10
1.12375e-10
1.22476e-10
1.33002e-10
1.43936e-10
1.55267e-10
1.66978e-10
1.79055e-10
1.9148e-10
2.04238e-10
2.17309e-10
2.30672e-10
2.44304e-10
2.5818e-10
2.72272e-10
2.86548e-10
3.00972e-10
3.15507e-10
3.30108e-10
3.44727e-10
3.59311e-10
3.738e-10
3.88128e-10
4.02223e-10
4.16005e-10
4.29386e-10
4.42268e-10
4.54546e-10
4.66104e-10
4.76814e-10
4.86538e-10
4.95125e-10
5.02409e-10
5.08212e-10
5.12339e-10
5.14581e-10
5.14707e-10
5.12472e-10
5.07608e-10
4.99826e-10
4.88815e-10
4.74241e-10
4.55741e-10
4.32928e-10
4.05383e-10
3.7266e-10
3.34278e-10
2.89723e-10
2.38444e-10
1.79855e-10
1.13329e-10
3.81974e-11
-4.62483e-11
-1.40762e-10
-2.46141e-10
-3.6323e-10
-4.92917e-10
-6.36138e-10
-7.93872e-10
-9.67143e-10
-1.15701e-09
-1.36459e-09
-1.59099e-09
-1.83739e-09
-2.10495e-09
-2.39483e-09
-2.7082e-09
-3.04617e-09
-3.4098e-09
-3.8e-09
-4.21753e-09
-4.663e-09
-5.13757e-09
-5.64055e-09
-6.1537e-09
-6.65592e-09
-7.41269e-09
-9.11645e-09
-8.1373e-09
2.59886e-11
2.11828e-11
1.65191e-11
1.3366e-11
1.12311e-11
9.94585e-12
9.49255e-12
9.84116e-12
1.09523e-11
1.27878e-11
1.53115e-11
1.84884e-11
2.22856e-11
2.6672e-11
3.16183e-11
3.70976e-11
4.30846e-11
4.9556e-11
5.64898e-11
6.38656e-11
7.16641e-11
7.98671e-11
8.84568e-11
9.7416e-11
1.06728e-10
1.16375e-10
1.26341e-10
1.36607e-10
1.47155e-10
1.57965e-10
1.69016e-10
1.80284e-10
1.91747e-10
2.03375e-10
2.15141e-10
2.2701e-10
2.38948e-10
2.50915e-10
2.62866e-10
2.74755e-10
2.86528e-10
2.98127e-10
3.09489e-10
3.20542e-10
3.3121e-10
3.41408e-10
3.51045e-10
3.60019e-10
3.68221e-10
3.75531e-10
3.81818e-10
3.86941e-10
3.90747e-10
3.93068e-10
3.93726e-10
3.92524e-10
3.89253e-10
3.83685e-10
3.75575e-10
3.6466e-10
3.50657e-10
3.33259e-10
3.1214e-10
2.86948e-10
2.57307e-10
2.22814e-10
1.83038e-10
1.37518e-10
8.57631e-11
2.72497e-11
-3.85793e-11
-1.12316e-10
-1.94589e-10
-2.86062e-10
-3.87441e-10
-4.99467e-10
-6.22921e-10
-7.58623e-10
-9.07434e-10
-1.07025e-09
-1.248e-09
-1.44165e-09
-1.6522e-09
-1.88067e-09
-2.12808e-09
-2.39549e-09
-2.68393e-09
-2.99444e-09
-3.32799e-09
-3.68552e-09
-4.06784e-09
-4.47558e-09
-4.90929e-09
-5.37008e-09
-5.85722e-09
-6.35229e-09
-6.83396e-09
-7.57066e-09
-9.26221e-09
-8.24006e-09
9.27304e-12
5.06888e-12
9.52421e-13
-1.84109e-12
-3.73567e-12
-4.87924e-12
-5.28663e-12
-4.98385e-12
-4.00493e-12
-2.38276e-12
-1.48809e-13
2.66634e-12
6.0331e-12
9.92314e-12
1.43094e-11
1.91663e-11
2.44694e-11
3.01955e-11
3.63227e-11
4.28297e-11
4.96963e-11
5.69027e-11
6.44294e-11
7.22574e-11
8.03672e-11
8.87393e-11
9.73538e-11
1.0619e-10
1.15225e-10
1.24438e-10
1.33802e-10
1.43293e-10
1.52881e-10
1.62535e-10
1.72223e-10
1.81907e-10
1.91548e-10
2.01102e-10
2.10521e-10
2.19753e-10
2.28741e-10
2.37424e-10
2.45732e-10
2.53592e-10
2.60922e-10
2.67636e-10
2.73636e-10
2.78819e-10
2.83072e-10
2.86271e-10
2.88286e-10
2.88971e-10
2.88171e-10
2.8572e-10
2.81437e-10
2.75127e-10
2.66582e-10
2.55576e-10
2.41868e-10
2.25198e-10
2.05289e-10
1.81843e-10
1.54542e-10
1.23045e-10
8.69883e-11
4.59852e-11
-3.78016e-13
-5.25411e-11
-1.10972e-10
-1.76166e-10
-2.4865e-10
-3.28982e-10
-4.17749e-10
-5.15574e-10
-6.23111e-10
-7.41047e-10
-8.70104e-10
-1.01104e-09
-1.16463e-09
-1.3317e-09
-1.51309e-09
-1.70969e-09
-1.92237e-09
-2.15207e-09
-2.3997e-09
-2.66619e-09
-2.95249e-09
-3.25948e-09
-3.58806e-09
-3.93904e-09
-4.31314e-09
-4.71092e-09
-5.13285e-09
-5.58001e-09
-6.05163e-09
-6.52916e-09
-6.99108e-09
-7.70823e-09
-9.38645e-09
-8.32566e-09
-7.6252e-12
-1.12439e-11
-1.4825e-11
-1.72627e-11
-1.89184e-11
-1.99192e-11
-2.02766e-11
-2.00128e-11
-1.9157e-11
-1.77375e-11
-1.57815e-11
-1.33159e-11
-1.03671e-11
-6.9609e-12
-3.12235e-12
1.12423e-12
5.75527e-12
1.0748e-11
1.60801e-11
2.17301e-11
2.76765e-11
3.38985e-11
4.0375e-11
4.7085e-11
5.40071e-11
6.11195e-11
6.83996e-11
7.5824e-11
8.33678e-11
9.10052e-11
9.87084e-11
1.06448e-10
1.14192e-10
1.21905e-10
1.29553e-10
1.37093e-10
1.44482e-10
1.51673e-10
1.58615e-10
1.65251e-10
1.71521e-10
1.77359e-10
1.82693e-10
1.87446e-10
1.91534e-10
1.94865e-10
1.9734e-10
1.98852e-10
1.99286e-10
1.98518e-10
1.96412e-10
1.92823e-10
1.87597e-10
1.80565e-10
1.71547e-10
1.60351e-10
1.46769e-10
1.30579e-10
1.11544e-10
8.94107e-11
6.39072e-11
3.47445e-11
1.61406e-12
-3.58126e-11
-7.78852e-11
-1.24975e-10
-1.77477e-10
-2.3581e-10
-3.00416e-10
-3.71766e-10
-4.50352e-10
-5.36699e-10
-6.31356e-10
-7.34901e-10
-8.47941e-10
-9.71109e-10
-1.10507e-09
-1.25051e-09
-1.40815e-09
-1.57873e-09
-1.76303e-09
-1.96181e-09
-2.1759e-09
-2.40611e-09
-2.65326e-09
-2.9182e-09
-3.20175e-09
-3.50471e-09
-3.82787e-09
-4.17196e-09
-4.53762e-09
-4.92533e-09
-5.33552e-09
-5.76924e-09
-6.22571e-09
-6.68622e-09
-7.12917e-09
-7.82729e-09
-9.49123e-09
-8.39581e-09
-2.46287e-11
-2.76757e-11
-3.07329e-11
-3.28222e-11
-3.42416e-11
-3.50993e-11
-3.54037e-11
-3.51733e-11
-3.4433e-11
-3.32068e-11
-3.15182e-11
-2.93908e-11
-2.68479e-11
-2.39132e-11
-2.06098e-11
-1.69609e-11
-1.29891e-11
-8.71694e-12
-4.16666e-12
6.3962e-13
5.67984e-12
1.09319e-11
1.63733e-11
2.19815e-11
2.77332e-11
3.36044e-11
3.95703e-11
4.56048e-11
5.16807e-11
5.77692e-11
6.38396e-11
6.98594e-11
7.57936e-11
8.16049e-11
8.7253e-11
9.26943e-11
9.7882e-11
1.02765e-10
1.07289e-10
1.11394e-10
1.15016e-10
1.18086e-10
1.20529e-10
1.22266e-10
1.23208e-10
1.23262e-10
1.22327e-10
1.20292e-10
1.17042e-10
1.12449e-10
1.06377e-10
9.86826e-11
8.92083e-11
7.77873e-11
6.4241e-11
4.83783e-11
2.99948e-11
8.8728e-12
-1.52202e-11
-4.25319e-11
-7.33257e-11
-1.07882e-10
-1.46498e-10
-1.89491e-10
-2.37195e-10
-2.89966e-10
-3.48178e-10
-4.12228e-10
-4.82536e-10
-5.59542e-10
-6.43711e-10
-7.3553e-10
-8.35511e-10
-9.4419e-10
-1.06213e-09
-1.1899e-09
-1.32812e-09
-1.47742e-09
-1.63845e-09
-1.81188e-09
-1.9984e-09
-2.19873e-09
-2.41357e-09
-2.64367e-09
-2.88977e-09
-3.1526e-09
-3.43291e-09
-3.73141e-09
-4.04881e-09
-4.38576e-09
-4.74282e-09
-5.12044e-09
-5.51899e-09
-5.9395e-09
-6.38118e-09
-6.82523e-09
-7.24995e-09
-7.92956e-09
-9.57843e-09
-8.45201e-09
-4.1662e-11
-4.41539e-11
-4.67003e-11
-4.84464e-11
-4.96327e-11
-5.03478e-11
-5.05971e-11
-5.03958e-11
-4.97643e-11
-4.87232e-11
-4.72923e-11
-4.54921e-11
-4.33436e-11
-4.0868e-11
-3.80871e-11
-3.50225e-11
-3.16963e-11
-2.81306e-11
-2.43477e-11
-2.037e-11
-1.62202e-11
-1.19216e-11
-7.49759e-12
-2.97254e-12
1.62864e-12
6.28007e-12
1.09548e-11
1.56245e-11
2.02597e-11
2.48287e-11
2.92985e-11
3.36337e-11
3.77965e-11
4.17466e-11
4.54409e-11
4.88329e-11
5.18724e-11
5.45057e-11
5.66744e-11
5.83163e-11
5.93644e-11
5.9747e-11
5.93868e-11
5.82006e-11
5.6099e-11
5.29857e-11
4.87572e-11
4.33027e-11
3.65032e-11
2.82316e-11
1.83516e-11
6.71786e-12
-6.82519e-12
-2.24434e-11
-4.03137e-11
-6.06245e-11
-8.35765e-11
-1.09383e-10
-1.38271e-10
-1.70481e-10
-2.06269e-10
-2.45904e-10
-2.89674e-10
-3.37882e-10
-3.90848e-10
-4.48909e-10
-5.12422e-10
-5.81762e-10
-6.57321e-10
-7.39515e-10
-8.28777e-10
-9.2556e-10
-1.03034e-09
-1.14361e-09
-1.26588e-09
-1.39769e-09
-1.5396e-09
-1.69216e-09
-1.85599e-09
-2.03167e-09
-2.21983e-09
-2.42111e-09
-2.63616e-09
-2.86562e-09
-3.11015e-09
-3.37043e-09
-3.6471e-09
-3.94081e-09
-4.25218e-09
-4.58181e-09
-4.93021e-09
-5.29775e-09
-5.68481e-09
-6.09237e-09
-6.51965e-09
-6.94779e-09
-7.35499e-09
-8.01661e-09
-9.64976e-09
-8.49567e-09
-5.86533e-11
-6.06065e-11
-6.26542e-11
-6.40657e-11
-6.50227e-11
-6.55963e-11
-6.57892e-11
-6.56131e-11
-6.50848e-11
-6.42211e-11
-6.30387e-11
-6.15554e-11
-5.97898e-11
-5.77611e-11
-5.54895e-11
-5.29955e-11
-5.03005e-11
-4.74261e-11
-4.43946e-11
-4.12287e-11
-3.79519e-11
-3.4588e-11
-3.11619e-11
-2.7699e-11
-2.42258e-11
-2.07701e-11
-1.73606e-11
-1.40276e-11
-1.08031e-11
-7.72066e-12
-4.81609e-12
-2.12724e-12
3.05608e-13
2.43955e-12
4.22873e-12
5.62405e-12
6.57272e-12
7.01789e-12
6.89849e-12
6.14931e-12
4.70097e-12
2.47941e-12
-5.9475e-13
-4.60677e-12
-9.64819e-12
-1.58171e-11
-2.32186e-11
-3.19648e-11
-4.21756e-11
-5.39786e-11
-6.751e-11
-8.29149e-11
-1.00348e-10
-1.19972e-10
-1.41964e-10
-1.66507e-10
-1.93798e-10
-2.24046e-10
-2.57471e-10
-2.94307e-10
-3.348e-10
-3.79211e-10
-4.27814e-10
-4.809e-10
-5.38772e-10
-6.01752e-10
-6.70176e-10
-7.44397e-10
-8.24785e-10
-9.11726e-10
-1.00562e-09
-1.1069e-09
-1.21599e-09
-1.33334e-09
-1.45944e-09
-1.59477e-09
-1.73983e-09
-1.89513e-09
-2.06121e-09
-2.23862e-09
-2.42791e-09
-2.62965e-09
-2.84441e-09
-3.07277e-09
-3.31533e-09
-3.57267e-09
-3.84538e-09
-4.13404e-09
-4.4392e-09
-4.7614e-09
-5.10111e-09
-5.45867e-09
-5.8344e-09
-6.22931e-09
-6.64259e-09
-7.05534e-09
-7.44574e-09
-8.08991e-09
-9.70679e-09
-8.52805e-09
-7.55333e-11
-7.69659e-11
-7.85291e-11
-7.96125e-11
-8.03446e-11
-8.07786e-11
-8.09144e-11
-8.07607e-11
-8.03305e-11
-7.96371e-11
-7.86946e-11
-7.75182e-11
-7.61241e-11
-7.45299e-11
-7.27541e-11
-7.08163e-11
-6.87371e-11
-6.65379e-11
-6.42407e-11
-6.18686e-11