/*--------------------------------*- C++ -*----------------------------------*\
  =========                 |
  \\      /  F ield         | OpenFOAM: The Open Source CFD Toolbox
   \\    /   O peration     | Website:  https://openfoam.org
    \\  /    A nd           | Version:  11
     \\/     M anipulation  |
\*---------------------------------------------------------------------------*/
FoamFile
{
    format      ascii;
    class       surfaceScalarField;
    location    "874";
    object      phi;
}
// * * * * * * * * * * * * * * * * * * * * * * * * * * * * * * * * * * * * * //

dimensions      [0 3 -1 0 0 0 0];

internalField   nonuniform List<scalar> 
19800
(
2e-05
-9.61848e-12
2e-05
-2.68033e-11
2e-05
-4.27273e-11
2e-05
-5.7927e-11
2e-05
-7.29351e-11
2e-05
-8.8136e-11
2e-05
-1.0382e-10
1.99999e-05
-1.20224e-10
1.99999e-05
-1.37555e-10
1.99999e-05
-1.56001e-10
1.99999e-05
-1.7574e-10
1.99999e-05
-1.96951e-10
1.99999e-05
-2.19811e-10
1.99998e-05
-2.44502e-10
1.99998e-05
-2.71211e-10
1.99998e-05
-3.00136e-10
1.99998e-05
-3.31483e-10
1.99997e-05
-3.65467e-10
1.99997e-05
-4.02319e-10
1.99997e-05
-4.42279e-10
1.99996e-05
-4.85606e-10
1.99996e-05
-5.32571e-10
1.99995e-05
-5.83464e-10
1.99995e-05
-6.3859e-10
1.99994e-05
-6.98275e-10
1.99994e-05
-7.62864e-10
1.99993e-05
-8.32723e-10
1.99992e-05
-9.08239e-10
1.99992e-05
-9.89824e-10
1.99991e-05
-1.07791e-09
1.9999e-05
-1.17296e-09
1.99989e-05
-1.27546e-09
1.99988e-05
-1.38592e-09
1.99987e-05
-1.50489e-09
1.99986e-05
-1.63293e-09
1.99985e-05
-1.77065e-09
1.99984e-05
-1.91869e-09
1.99982e-05
-2.0777e-09
1.99981e-05
-2.2484e-09
1.9998e-05
-2.43151e-09
1.99978e-05
-2.62782e-09
1.99976e-05
-2.83812e-09
1.99974e-05
-3.06327e-09
1.99972e-05
-3.30416e-09
1.9997e-05
-3.56172e-09
1.99968e-05
-3.8369e-09
1.99966e-05
-4.13072e-09
1.99963e-05
-4.44424e-09
1.99961e-05
-4.77855e-09
1.99958e-05
-5.13478e-09
1.99955e-05
-5.51412e-09
1.99952e-05
-5.9178e-09
1.99949e-05
-6.34709e-09
1.99945e-05
-6.80329e-09
1.99942e-05
-7.28778e-09
1.99938e-05
-7.80194e-09
1.99934e-05
-8.34723e-09
1.99929e-05
-8.92513e-09
1.99925e-05
-9.53716e-09
1.9992e-05
-1.01849e-08
1.99915e-05
-1.08699e-08
1.9991e-05
-1.15938e-08
1.99904e-05
-1.23583e-08
1.99899e-05
-1.31651e-08
1.99893e-05
-1.40158e-08
1.99886e-05
-1.49123e-08
1.9988e-05
-1.58561e-08
1.99873e-05
-1.6849e-08
1.99866e-05
-1.78928e-08
1.99858e-05
-1.89891e-08
1.9985e-05
-2.01395e-08
1.99842e-05
-2.13458e-08
1.99834e-05
-2.26093e-08
1.99825e-05
-2.39315e-08
1.99816e-05
-2.53137e-08
1.99807e-05
-2.6757e-08
1.99797e-05
-2.82624e-08
1.99787e-05
-2.98305e-08
1.99777e-05
-3.14618e-08
1.99766e-05
-3.31561e-08
1.99755e-05
-3.4913e-08
1.99744e-05
-3.67314e-08
1.99733e-05
-3.86095e-08
1.99721e-05
-4.05447e-08
1.99709e-05
-4.25332e-08
1.99697e-05
-4.457e-08
1.99686e-05
-4.66485e-08
1.99674e-05
-4.87602e-08
1.99662e-05
-5.08942e-08
1.9965e-05
-5.30369e-08
1.99638e-05
-5.51713e-08
1.99627e-05
-5.72763e-08
1.99616e-05
-5.93263e-08
1.99605e-05
-6.129e-08
1.99596e-05
-6.313e-08
1.99587e-05
-6.48023e-08
1.99579e-05
-6.62554e-08
1.99572e-05
-6.7431e-08
1.99568e-05
-6.827e-08
-6.87473e-08
2e-05
-7.63416e-12
2e-05
-2.27255e-11
2e-05
-3.72731e-11
2e-05
-5.12814e-11
2e-05
-6.51331e-11
2e-05
-7.91567e-11
2e-05
-9.36133e-11
1.99999e-05
-1.08722e-10
1.99999e-05
-1.24677e-10
1.99999e-05
-1.41656e-10
1.99999e-05
-1.5983e-10
1.99999e-05
-1.79367e-10
1.99999e-05
-2.00437e-10
1.99998e-05
-2.23214e-10
1.99998e-05
-2.47877e-10
1.99998e-05
-2.74613e-10
1.99998e-05
-3.03619e-10
1.99997e-05
-3.35103e-10
1.99997e-05
-3.69283e-10
1.99997e-05
-4.06392e-10
1.99996e-05
-4.46675e-10
1.99996e-05
-4.90394e-10
1.99995e-05
-5.37826e-10
1.99995e-05
-5.89266e-10
1.99994e-05
-6.45026e-10
1.99994e-05
-7.05438e-10
1.99993e-05
-7.70854e-10
1.99993e-05
-8.41649e-10
1.99992e-05
-9.18218e-10
1.99991e-05
-1.00098e-09
1.9999e-05
-1.09038e-09
1.99989e-05
-1.18689e-09
1.99988e-05
-1.29101e-09
1.99987e-05
-1.40325e-09
1.99986e-05
-1.52418e-09
1.99985e-05
-1.65438e-09
1.99984e-05
-1.79446e-09
1.99983e-05
-1.94508e-09
1.99981e-05
-2.10691e-09
1.9998e-05
-2.28067e-09
1.99978e-05
-2.46711e-09
1.99976e-05
-2.66703e-09
1.99974e-05
-2.88125e-09
1.99973e-05
-3.11063e-09
1.9997e-05
-3.35609e-09
1.99968e-05
-3.61857e-09
1.99966e-05
-3.89906e-09
1.99964e-05
-4.19858e-09
1.99961e-05
-4.51823e-09
1.99958e-05
-4.85911e-09
1.99955e-05
-5.22238e-09
1.99952e-05
-5.60926e-09
1.99949e-05
-6.021e-09
1.99945e-05
-6.45889e-09
1.99942e-05
-6.92428e-09
1.99938e-05
-7.41856e-09
1.99934e-05
-7.94315e-09
1.9993e-05
-8.49953e-09
1.99925e-05
-9.08922e-09
1.9992e-05
-9.71377e-09
1.99916e-05
-1.03748e-08
1.9991e-05
-1.10739e-08
1.99905e-05
-1.18128e-08
1.99899e-05
-1.25931e-08
1.99893e-05
-1.34166e-08
1.99887e-05
-1.4285e-08
1.9988e-05
-1.52001e-08
1.99873e-05
-1.61637e-08
1.99866e-05
-1.71774e-08
1.99859e-05
-1.82431e-08
1.99851e-05
-1.93625e-08
1.99843e-05
-2.05373e-08
1.99835e-05
-2.1769e-08
1.99826e-05
-2.30593e-08
1.99817e-05
-2.44095e-08
1.99807e-05
-2.5821e-08
1.99798e-05
-2.7295e-08
1.99788e-05
-2.88322e-08
1.99778e-05
-3.04333e-08
1.99767e-05
-3.20986e-08
1.99756e-05
-3.3828e-08
1.99745e-05
-3.56207e-08
1.99734e-05
-3.74753e-08
1.99722e-05
-3.93897e-08
1.9971e-05
-4.13607e-08
1.99699e-05
-4.3384e-08
1.99687e-05
-4.54535e-08
1.99675e-05
-4.75616e-08
1.99663e-05
-4.96983e-08
1.99651e-05
-5.18509e-08
1.99639e-05
-5.40035e-08
1.99628e-05
-5.61364e-08
1.99617e-05
-5.82251e-08
1.99606e-05
-6.02398e-08
1.99596e-05
-6.21448e-08
1.99587e-05
-6.38973e-08
1.99579e-05
-6.54469e-08
1.99572e-05
-6.67342e-08
1.99567e-05
-6.76964e-08
-6.82874e-08
2e-05
-6.13728e-12
2e-05
-1.91106e-11
2e-05
-3.20826e-11
2e-05
-4.47848e-11
2e-05
-5.74242e-11
2e-05
-7.02471e-11
2e-05
-8.34707e-11
1.99999e-05
-9.72885e-11
1.99999e-05
-1.11877e-10
1.99999e-05
-1.27403e-10
1.99999e-05
-1.44027e-10
1.99999e-05
-1.61909e-10
1.99999e-05
-1.81208e-10
1.99998e-05
-2.02091e-10
1.99998e-05
-2.24727e-10
1.99998e-05
-2.49297e-10
1.99998e-05
-2.75986e-10
1.99997e-05
-3.04994e-10
1.99997e-05
-3.36529e-10
1.99997e-05
-3.70813e-10
1.99996e-05
-4.08082e-10
1.99996e-05
-4.48586e-10
1.99995e-05
-4.9259e-10
1.99995e-05
-5.40377e-10
1.99994e-05
-5.92247e-10
1.99994e-05
-6.4852e-10
1.99993e-05
-7.09534e-10
1.99993e-05
-7.75649e-10
1.99992e-05
-8.47246e-10
1.99991e-05
-9.24731e-10
1.9999e-05
-1.00853e-09
1.99989e-05
-1.0991e-09
1.99988e-05
-1.19693e-09
1.99987e-05
-1.30251e-09
1.99986e-05
-1.41638e-09
1.99985e-05
-1.53912e-09
1.99984e-05
-1.67132e-09
1.99983e-05
-1.8136e-09
1.99981e-05
-1.96664e-09
1.9998e-05
-2.13112e-09
1.99978e-05
-2.30779e-09
1.99977e-05
-2.4974e-09
1.99975e-05
-2.70077e-09
1.99973e-05
-2.91874e-09
1.99971e-05
-3.1522e-09
1.99969e-05
-3.40208e-09
1.99966e-05
-3.66933e-09
1.99964e-05
-3.95498e-09
1.99961e-05
-4.26007e-09
1.99959e-05
-4.58571e-09
1.99956e-05
-4.93304e-09
1.99953e-05
-5.30325e-09
1.99949e-05
-5.69756e-09
1.99946e-05
-6.11728e-09
1.99942e-05
-6.56371e-09
1.99939e-05
-7.03823e-09
1.99935e-05
-7.54227e-09
1.9993e-05
-8.07728e-09
1.99926e-05
-8.64478e-09
1.99921e-05
-9.24632e-09
1.99916e-05
-9.8835e-09
1.99911e-05
-1.0558e-08
1.99906e-05
-1.12713e-08
1.999e-05
-1.20254e-08
1.99894e-05
-1.28218e-08
1.99888e-05
-1.36624e-08
1.99881e-05
-1.4549e-08
1.99875e-05
-1.54833e-08
1.99867e-05
-1.64672e-08
1.9986e-05
-1.75025e-08
1.99852e-05
-1.85909e-08
1.99844e-05
-1.97343e-08
1.99836e-05
-2.09344e-08
1.99827e-05
-2.21929e-08
1.99818e-05
-2.35113e-08
1.99809e-05
-2.4891e-08
1.99799e-05
-2.63335e-08
1.99789e-05
-2.78398e-08
1.99779e-05
-2.94108e-08
1.99769e-05
-3.10471e-08
1.99758e-05
-3.27487e-08
1.99747e-05
-3.45154e-08
1.99736e-05
-3.63463e-08
1.99724e-05
-3.82396e-08
1.99712e-05
-4.01926e-08
1.99701e-05
-4.22016e-08
1.99689e-05
-4.42613e-08
1.99677e-05
-4.63647e-08
1.99665e-05
-4.85027e-08
1.99653e-05
-5.06634e-08
1.99641e-05
-5.2832e-08
1.9963e-05
-5.49898e-08
1.99619e-05
-5.71133e-08
1.99608e-05
-5.91739e-08
1.99598e-05
-6.11365e-08
1.99588e-05
-6.29586e-08
1.9958e-05
-6.45887e-08
1.99572e-05
-6.59647e-08
1.99565e-05
-6.7017e-08
-6.76853e-08
2e-05
-4.94049e-12
2e-05
-1.59289e-11
2e-05
-2.72598e-11
2e-05
-3.85611e-11
2e-05
-4.99192e-11
2e-05
-6.14998e-11
2e-05
-7.34698e-11
1.99999e-05
-8.59908e-11
1.99999e-05
-9.92182e-11
1.99999e-05
-1.13303e-10
1.99999e-05
-1.28393e-10
1.99999e-05
-1.44638e-10
1.99999e-05
-1.6219e-10
1.99998e-05
-1.81204e-10
1.99998e-05
-2.01842e-10
1.99998e-05
-2.24274e-10
1.99998e-05
-2.48679e-10
1.99997e-05
-2.75244e-10
1.99997e-05
-3.0417e-10
1.99997e-05
-3.35667e-10
1.99996e-05
-3.69961e-10
1.99996e-05
-4.07292e-10
1.99996e-05
-4.47913e-10
1.99995e-05
-4.92094e-10
1.99995e-05
-5.40125e-10
1.99994e-05
-5.92311e-10
1.99993e-05
-6.48979e-10
1.99993e-05
-7.10472e-10
1.99992e-05
-7.77161e-10
1.99991e-05
-8.49433e-10
1.9999e-05
-9.27703e-10
1.9999e-05
-1.01241e-09
1.99989e-05
-1.10401e-09
1.99988e-05
-1.20301e-09
1.99987e-05
-1.30992e-09
1.99985e-05
-1.42529e-09
1.99984e-05
-1.54969e-09
1.99983e-05
-1.68374e-09
1.99982e-05
-1.82809e-09
1.9998e-05
-1.98341e-09
1.99978e-05
-2.1504e-09
1.99977e-05
-2.32983e-09
1.99975e-05
-2.52248e-09
1.99973e-05
-2.72916e-09
1.99971e-05
-2.95076e-09
1.99969e-05
-3.18817e-09
1.99967e-05
-3.44234e-09
1.99964e-05
-3.71425e-09
1.99962e-05
-4.00496e-09
1.99959e-05
-4.31552e-09
1.99956e-05
-4.64707e-09
1.99953e-05
-5.00078e-09
1.9995e-05
-5.37786e-09
1.99947e-05
-5.77958e-09
1.99943e-05
-6.20725e-09
1.99939e-05
-6.66222e-09
1.99935e-05
-7.14591e-09
1.99931e-05
-7.65977e-09
1.99927e-05
-8.2053e-09
1.99922e-05
-8.78405e-09
1.99917e-05
-9.39761e-09
1.99912e-05
-1.00476e-08
1.99907e-05
-1.07358e-08
1.99901e-05
-1.14638e-08
1.99895e-05
-1.22334e-08
1.99889e-05
-1.30464e-08
1.99883e-05
-1.39047e-08
1.99876e-05
-1.481e-08
1.99869e-05
-1.57642e-08
1.99862e-05
-1.67693e-08
1.99854e-05
-1.7827e-08
1.99846e-05
-1.89393e-08
1.99838e-05
-2.01079e-08
1.99829e-05
-2.13347e-08
1.9982e-05
-2.26213e-08
1.99811e-05
-2.39695e-08
1.99802e-05
-2.53806e-08
1.99792e-05
-2.6856e-08
1.99782e-05
-2.83968e-08
1.99771e-05
-3.00039e-08
1.9976e-05
-3.16777e-08
1.99749e-05
-3.34182e-08
1.99738e-05
-3.52248e-08
1.99727e-05
-3.70964e-08
1.99715e-05
-3.90307e-08
1.99703e-05
-4.10245e-08
1.99691e-05
-4.30731e-08
1.9968e-05
-4.51703e-08
1.99668e-05
-4.73076e-08
1.99656e-05
-4.94741e-08
1.99644e-05
-5.16556e-08
1.99632e-05
-5.38343e-08
1.99621e-05
-5.59875e-08
1.9961e-05
-5.80872e-08
1.996e-05
-6.00984e-08
1.9959e-05
-6.19781e-08
1.99581e-05
-6.36729e-08
1.99572e-05
-6.51163e-08
1.99565e-05
-6.62285e-08
-6.69355e-08
2e-05
-3.94447e-12
2e-05
-1.31049e-11
2e-05
-2.28136e-11
2e-05
-3.26727e-11
2e-05
-4.27e-11
2e-05
-5.29993e-11
2e-05
-6.36915e-11
1.99999e-05
-7.49049e-11
1.99999e-05
-8.67711e-11
1.99999e-05
-9.9423e-11
1.99999e-05
-1.12995e-10
1.99999e-05
-1.27625e-10
1.99999e-05
-1.43454e-10
1.99999e-05
-1.60629e-10
1.99998e-05
-1.79301e-10
1.99998e-05
-1.99631e-10
1.99998e-05
-2.21789e-10
1.99997e-05
-2.45953e-10
1.99997e-05
-2.72312e-10
1.99997e-05
-3.0107e-10
1.99996e-05
-3.3244e-10
1.99996e-05
-3.6665e-10
1.99996e-05
-4.03943e-10
1.99995e-05
-4.44579e-10
1.99995e-05
-4.88833e-10
1.99994e-05
-5.36999e-10
1.99993e-05
-5.8939e-10
1.99993e-05
-6.46337e-10
1.99992e-05
-7.08194e-10
1.99991e-05
-7.75337e-10
1.99991e-05
-8.48163e-10
1.9999e-05
-9.27095e-10
1.99989e-05
-1.01258e-09
1.99988e-05
-1.1051e-09
1.99987e-05
-1.20514e-09
1.99986e-05
-1.31325e-09
1.99984e-05
-1.42998e-09
1.99983e-05
-1.55593e-09
1.99982e-05
-1.69171e-09
1.9998e-05
-1.83799e-09
1.99979e-05
-1.99547e-09
1.99977e-05
-2.16486e-09
1.99975e-05
-2.34694e-09
1.99974e-05
-2.5425e-09
1.99972e-05
-2.75241e-09
1.99969e-05
-2.97753e-09
1.99967e-05
-3.21879e-09
1.99965e-05
-3.47717e-09
1.99962e-05
-3.75368e-09
1.9996e-05
-4.04938e-09
1.99957e-05
-4.36537e-09
1.99954e-05
-4.7028e-09
1.99951e-05
-5.06288e-09
1.99947e-05
-5.44684e-09
1.99944e-05
-5.85599e-09
1.9994e-05
-6.29167e-09
1.99936e-05
-6.75527e-09
1.99932e-05
-7.24824e-09
1.99928e-05
-7.77207e-09
1.99923e-05
-8.32831e-09
1.99918e-05
-8.91855e-09
1.99913e-05
-9.54443e-09
1.99908e-05
-1.02076e-08
1.99903e-05
-1.09099e-08
1.99897e-05
-1.1653e-08
1.99891e-05
-1.24387e-08
1.99884e-05
-1.32689e-08
1.99878e-05
-1.41456e-08
1.99871e-05
-1.50705e-08
1.99864e-05
-1.60456e-08
1.99856e-05
-1.70728e-08
1.99848e-05
-1.81542e-08
1.9984e-05
-1.92916e-08
1.99832e-05
-2.04869e-08
1.99823e-05
-2.1742e-08
1.99814e-05
-2.30586e-08
1.99804e-05
-2.44384e-08
1.99794e-05
-2.58829e-08
1.99784e-05
-2.73935e-08
1.99774e-05
-2.89713e-08
1.99764e-05
-3.06169e-08
1.99753e-05
-3.23308e-08
1.99742e-05
-3.41127e-08
1.9973e-05
-3.59619e-08
1.99719e-05
-3.78766e-08
1.99707e-05
-3.9854e-08
1.99695e-05
-4.18901e-08
1.99683e-05
-4.39792e-08
1.99671e-05
-4.61134e-08
1.99659e-05
-4.82826e-08
1.99648e-05
-5.04733e-08
1.99636e-05
-5.26681e-08
1.99624e-05
-5.48451e-08
1.99613e-05
-5.69763e-08
1.99603e-05
-5.90265e-08
1.99592e-05
-6.09518e-08
1.99583e-05
-6.26962e-08
1.99573e-05
-6.41891e-08
1.99564e-05
-6.53418e-08
-6.60511e-08
2e-05
-3.088e-12
2e-05
-1.05744e-11
2e-05
-1.87207e-11
2e-05
-2.71399e-11
2e-05
-3.58155e-11
2e-05
-4.48094e-11
2e-05
-5.42056e-11
2e-05
-6.41023e-11
1.99999e-05
-7.46076e-11
1.99999e-05
-8.58355e-11
1.99999e-05
-9.79058e-11
1.99999e-05
-1.10943e-10
1.99999e-05
-1.25076e-10
1.99999e-05
-1.40443e-10
1.99998e-05
-1.57185e-10
1.99998e-05
-1.75454e-10
1.99998e-05
-1.95408e-10
1.99998e-05
-2.17218e-10
1.99997e-05
-2.41064e-10
1.99997e-05
-2.67136e-10
1.99997e-05
-2.9564e-10
1.99996e-05
-3.26791e-10
1.99996e-05
-3.60824e-10
1.99995e-05
-3.97985e-10
1.99995e-05
-4.38537e-10
1.99994e-05
-4.82762e-10
1.99994e-05
-5.30959e-10
1.99993e-05
-5.83448e-10
1.99992e-05
-6.40568e-10
1.99992e-05
-7.02679e-10
1.99991e-05
-7.70165e-10
1.9999e-05
-8.43433e-10
1.99989e-05
-9.22916e-10
1.99988e-05
-1.00907e-09
1.99987e-05
-1.10238e-09
1.99986e-05
-1.20337e-09
1.99985e-05
-1.31256e-09
1.99984e-05
-1.43055e-09
1.99982e-05
-1.55793e-09
1.99981e-05
-1.69534e-09
1.99979e-05
-1.84346e-09
1.99978e-05
-2.00299e-09
1.99976e-05
-2.17469e-09
1.99974e-05
-2.35933e-09
1.99972e-05
-2.55774e-09
1.9997e-05
-2.77078e-09
1.99968e-05
-2.99937e-09
1.99966e-05
-3.24444e-09
1.99963e-05
-3.507e-09
1.9996e-05
-3.78807e-09
1.99958e-05
-4.08876e-09
1.99955e-05
-4.41018e-09
1.99952e-05
-4.75352e-09
1.99948e-05
-5.12001e-09
1.99945e-05
-5.51093e-09
1.99941e-05
-5.92762e-09
1.99937e-05
-6.37144e-09
1.99933e-05
-6.84384e-09
1.99929e-05
-7.3463e-09
1.99925e-05
-7.88036e-09
1.9992e-05
-8.4476e-09
1.99915e-05
-9.04968e-09
1.9991e-05
-9.68828e-09
1.99904e-05
-1.03651e-08
1.99899e-05
-1.1082e-08
1.99893e-05
-1.18408e-08
1.99886e-05
-1.26434e-08
1.9988e-05
-1.34917e-08
1.99873e-05
-1.43875e-08
1.99866e-05
-1.5333e-08
1.99859e-05
-1.63302e-08
1.99851e-05
-1.73809e-08
1.99843e-05
-1.84873e-08
1.99834e-05
-1.96514e-08
1.99826e-05
-2.08751e-08
1.99817e-05
-2.21603e-08
1.99807e-05
-2.35089e-08
1.99798e-05
-2.49226e-08
1.99788e-05
-2.64029e-08
1.99778e-05
-2.79511e-08
1.99767e-05
-2.95683e-08
1.99757e-05
-3.12551e-08
1.99745e-05
-3.30117e-08
1.99734e-05
-3.48376e-08
1.99723e-05
-3.67315e-08
1.99711e-05
-3.86911e-08
1.99699e-05
-4.07129e-08
1.99688e-05
-4.27917e-08
1.99676e-05
-4.49202e-08
1.99664e-05
-4.70887e-08
1.99652e-05
-4.92843e-08
1.9964e-05
-5.14901e-08
1.99628e-05
-5.36843e-08
1.99617e-05
-5.58391e-08
1.99606e-05
-5.79187e-08
1.99595e-05
-5.98779e-08
1.99585e-05
-6.16586e-08
1.99575e-05
-6.3186e-08
1.99565e-05
-6.43652e-08
-6.50604e-08
2e-05
-2.33177e-12
2e-05
-8.2872e-12
2e-05
-1.49495e-11
2e-05
-2.19602e-11
2e-05
-2.92891e-11
2e-05
-3.69723e-11
2e-05
-4.50661e-11
2e-05
-5.36441e-11
1.99999e-05
-6.27925e-11
1.99999e-05
-7.26076e-11
1.99999e-05
-8.31934e-11
1.99999e-05
-9.46614e-11
1.99999e-05
-1.0713e-10
1.99999e-05
-1.20723e-10
1.99998e-05
-1.35575e-10
1.99998e-05
-1.51827e-10
1.99998e-05
-1.69628e-10
1.99998e-05
-1.89137e-10
1.99997e-05
-2.10526e-10
1.99997e-05
-2.33975e-10
1.99997e-05
-2.59679e-10
1.99996e-05
-2.87844e-10
1.99996e-05
-3.18691e-10
1.99995e-05
-3.52456e-10
1.99995e-05
-3.89392e-10
1.99994e-05
-4.29766e-10
1.99994e-05
-4.73866e-10
1.99993e-05
-5.21998e-10
1.99992e-05
-5.74487e-10
1.99992e-05
-6.31679e-10
1.99991e-05
-6.93945e-10
1.9999e-05
-7.61675e-10
1.99989e-05
-8.35285e-10
1.99988e-05
-9.15219e-10
1.99987e-05
-1.00194e-09
1.99986e-05
-1.09596e-09
1.99985e-05
-1.19778e-09
1.99984e-05
-1.30798e-09
1.99983e-05
-1.42713e-09
1.99981e-05
-1.55586e-09
1.9998e-05
-1.69482e-09
1.99978e-05
-1.84469e-09
1.99976e-05
-2.00622e-09
1.99975e-05
-2.18016e-09
1.99973e-05
-2.36731e-09
1.99971e-05
-2.56852e-09
1.99969e-05
-2.78467e-09
1.99966e-05
-3.0167e-09
1.99964e-05
-3.26557e-09
1.99961e-05
-3.53231e-09
1.99959e-05
-3.81798e-09
1.99956e-05
-4.12369e-09
1.99953e-05
-4.45062e-09
1.9995e-05
-4.79996e-09
1.99946e-05
-5.17298e-09
1.99943e-05
-5.57101e-09
1.99939e-05
-5.99541e-09
1.99935e-05
-6.44759e-09
1.99931e-05
-6.92905e-09
1.99926e-05
-7.4413e-09
1.99922e-05
-7.98594e-09
1.99917e-05
-8.5646e-09
1.99912e-05
-9.17899e-09
1.99906e-05
-9.83084e-09
1.99901e-05
-1.0522e-08
1.99895e-05
-1.12542e-08
1.99889e-05
-1.20295e-08
1.99882e-05
-1.28498e-08
1.99876e-05
-1.3717e-08
1.99869e-05
-1.46333e-08
1.99861e-05
-1.56006e-08
1.99854e-05
-1.6621e-08
1.99846e-05
-1.76967e-08
1.99838e-05
-1.88298e-08
1.99829e-05
-2.00223e-08
1.9982e-05
-2.12763e-08
1.99811e-05
-2.25938e-08
1.99802e-05
-2.39765e-08
1.99792e-05
-2.54264e-08
1.99782e-05
-2.69449e-08
1.99772e-05
-2.85333e-08
1.99761e-05
-3.01925e-08
1.9975e-05
-3.1923e-08
1.99739e-05
-3.37247e-08
1.99728e-05
-3.55966e-08
1.99716e-05
-3.75368e-08
1.99704e-05
-3.95423e-08
1.99692e-05
-4.16083e-08
1.99681e-05
-4.3728e-08
1.99669e-05
-4.5892e-08
1.99657e-05
-4.8088e-08
1.99645e-05
-5.02993e-08
1.99633e-05
-5.25042e-08
1.99621e-05
-5.46747e-08
1.9961e-05
-5.67744e-08
1.99599e-05
-5.87569e-08
1.99588e-05
-6.05619e-08
1.99577e-05
-6.21114e-08
1.99566e-05
-6.33061e-08
-6.39903e-08
2e-05
-1.65253e-12
2e-05
-6.20433e-12
2e-05
-1.14679e-11
2e-05
-1.71202e-11
2e-05
-2.31283e-11
2e-05
-2.95131e-11
2e-05
-3.63119e-11
2e-05
-4.35786e-11
1.99999e-05
-5.13811e-11
1.99999e-05
-5.97991e-11
1.99999e-05
-6.89222e-11
1.99999e-05
-7.88484e-11
1.99999e-05
-8.96841e-11
1.99999e-05
-1.01544e-10
1.99998e-05
-1.1455e-10
1.99998e-05
-1.28833e-10
1.99998e-05
-1.44533e-10
1.99998e-05
-1.61801e-10
1.99997e-05
-1.80797e-10
1.99997e-05
-2.01692e-10
1.99997e-05
-2.24669e-10
1.99996e-05
-2.49926e-10
1.99996e-05
-2.77671e-10
1.99995e-05
-3.08131e-10
1.99995e-05
-3.41544e-10
1.99994e-05
-3.78169e-10
1.99994e-05
-4.18278e-10
1.99993e-05
-4.62165e-10
1.99993e-05
-5.10143e-10
1.99992e-05
-5.62543e-10
1.99991e-05
-6.1972e-10
1.9999e-05
-6.82051e-10
1.9999e-05
-7.49938e-10
1.99989e-05
-8.23805e-10
1.99988e-05
-9.04106e-10
1.99987e-05
-9.9132e-10
1.99986e-05
-1.08595e-09
1.99984e-05
-1.18855e-09
1.99983e-05
-1.29967e-09
1.99982e-05
-1.41992e-09
1.9998e-05
-1.54994e-09
1.99979e-05
-1.69039e-09
1.99977e-05
-1.84198e-09
1.99975e-05
-2.00546e-09
1.99973e-05
-2.18161e-09
1.99972e-05
-2.37125e-09
1.99969e-05
-2.57526e-09
1.99967e-05
-2.79453e-09
1.99965e-05
-3.03002e-09
1.99962e-05
-3.28273e-09
1.9996e-05
-3.55371e-09
1.99957e-05
-3.84406e-09
1.99954e-05
-4.1549e-09
1.99951e-05
-4.48745e-09
1.99948e-05
-4.84296e-09
1.99944e-05
-5.22271e-09
1.9994e-05
-5.62806e-09
1.99936e-05
-6.06043e-09
1.99932e-05
-6.52129e-09
1.99928e-05
-7.01215e-09
1.99924e-05
-7.5346e-09
1.99919e-05
-8.09028e-09
1.99914e-05
-8.68088e-09
1.99909e-05
-9.30816e-09
1.99903e-05
-9.97393e-09
1.99897e-05
-1.06801e-08
1.99891e-05
-1.14285e-08
1.99885e-05
-1.22212e-08
1.99879e-05
-1.30602e-08
1.99872e-05
-1.39476e-08
1.99865e-05
-1.48854e-08
1.99857e-05
-1.58759e-08
1.99849e-05
-1.69212e-08
1.99841e-05
-1.80236e-08
1.99833e-05
-1.91851e-08
1.99824e-05
-2.0408e-08
1.99815e-05
-2.16944e-08
1.99806e-05
-2.30462e-08
1.99796e-05
-2.44655e-08
1.99786e-05
-2.5954e-08
1.99776e-05
-2.75132e-08
1.99766e-05
-2.91442e-08
1.99755e-05
-3.08478e-08
1.99744e-05
-3.26241e-08
1.99733e-05
-3.44726e-08
1.99721e-05
-3.63918e-08
1.9971e-05
-3.83788e-08
1.99698e-05
-4.04293e-08
1.99686e-05
-4.2537e-08
1.99674e-05
-4.46928e-08
1.99662e-05
-4.68845e-08
1.9965e-05
-4.90957e-08
1.99638e-05
-5.13048e-08
1.99626e-05
-5.34835e-08
1.99614e-05
-5.55947e-08
1.99603e-05
-5.75909e-08
1.99591e-05
-5.94102e-08
1.9958e-05
-6.09718e-08
1.99568e-05
-6.21728e-08
-6.28531e-08
2e-05
-1.03946e-12
2e-05
-4.29512e-12
2e-05
-8.24709e-12
2e-05
-1.26022e-11
2e-05
-1.73307e-11
2e-05
-2.24447e-11
2e-05
-2.79688e-11
2e-05
-3.39424e-11
1.99999e-05
-4.04182e-11
1.99999e-05
-4.74616e-11
1.99999e-05
-5.51485e-11
1.99999e-05
-6.35647e-11
1.99999e-05
-7.28049e-11
1.99999e-05
-8.29726e-11
1.99999e-05
-9.41799e-11
1.99998e-05
-1.06548e-10
1.99998e-05
-1.20207e-10
1.99998e-05
-1.35297e-10
1.99997e-05
-1.51968e-10
1.99997e-05
-1.70383e-10
1.99997e-05
-1.90714e-10
1.99996e-05
-2.13148e-10
1.99996e-05
-2.37883e-10
1.99996e-05
-2.65134e-10
1.99995e-05
-2.95129e-10
1.99995e-05
-3.28113e-10
1.99994e-05
-3.64349e-10
1.99994e-05
-4.04115e-10
1.99993e-05
-4.47711e-10
1.99992e-05
-4.95456e-10
1.99992e-05
-5.47691e-10
1.99991e-05
-6.04777e-10
1.9999e-05
-6.671e-10
1.99989e-05
-7.35072e-10
1.99988e-05
-8.09127e-10
1.99987e-05
-8.89729e-10
1.99986e-05
-9.77369e-10
1.99985e-05
-1.07257e-09
1.99984e-05
-1.17588e-09
1.99982e-05
-1.28788e-09
1.99981e-05
-1.40919e-09
1.99979e-05
-1.54046e-09
1.99978e-05
-1.68238e-09
1.99976e-05
-1.83567e-09
1.99974e-05
-2.0011e-09
1.99972e-05
-2.17947e-09
1.9997e-05
-2.37163e-09
1.99968e-05
-2.57846e-09
1.99966e-05
-2.8009e-09
1.99963e-05
-3.03993e-09
1.99961e-05
-3.29657e-09
1.99958e-05
-3.5719e-09
1.99955e-05
-3.86706e-09
1.99952e-05
-4.1832e-09
1.99949e-05
-4.52157e-09
1.99946e-05
-4.88346e-09
1.99942e-05
-5.2702e-09
1.99938e-05
-5.68318e-09
1.99934e-05
-6.12388e-09
1.9993e-05
-6.59379e-09
1.99926e-05
-7.09451e-09
1.99921e-05
-7.62765e-09
1.99916e-05
-8.19493e-09
1.99911e-05
-8.7981e-09
1.99906e-05
-9.43899e-09
1.999e-05
-1.01195e-08
1.99894e-05
-1.08415e-08
1.99888e-05
-1.16071e-08
1.99882e-05
-1.24182e-08
1.99875e-05
-1.32772e-08
1.99868e-05
-1.41859e-08
1.99861e-05
-1.51468e-08
1.99853e-05
-1.61621e-08
1.99845e-05
-1.72339e-08
1.99837e-05
-1.83647e-08
1.99829e-05
-1.95566e-08
1.9982e-05
-2.08119e-08
1.99811e-05
-2.21328e-08
1.99801e-05
-2.35214e-08
1.99791e-05
-2.49796e-08
1.99781e-05
-2.6509e-08
1.99771e-05
-2.81111e-08
1.9976e-05
-2.97869e-08
1.9975e-05
-3.15367e-08
1.99738e-05
-3.33604e-08
1.99727e-05
-3.52566e-08
1.99716e-05
-3.72229e-08
1.99704e-05
-3.92553e-08
1.99692e-05
-4.13476e-08
1.9968e-05
-4.34911e-08
1.99668e-05
-4.56739e-08
1.99656e-05
-4.78797e-08
1.99643e-05
-5.00867e-08
1.99631e-05
-5.22665e-08
1.99619e-05
-5.43815e-08
1.99607e-05
-5.63831e-08
1.99595e-05
-5.82082e-08
1.99583e-05
-5.97743e-08
1.99571e-05
-6.09747e-08
-6.16554e-08
2e-05
-4.8628e-13
2e-05
-2.53608e-12
2e-05
-5.26254e-12
2e-05
-8.38922e-12
2e-05
-1.18895e-11
2e-05
-1.57721e-11
2e-05
-2.00536e-11
2e-05
-2.47622e-11
2e-05
-2.99392e-11
1.99999e-05
-3.56374e-11
1.99999e-05
-4.19208e-11
1.99999e-05
-4.88638e-11
1.99999e-05
-5.65501e-11
1.99999e-05
-6.50726e-11
1.99999e-05
-7.45333e-11
1.99998e-05
-8.50434e-11
1.99998e-05
-9.67236e-11
1.99998e-05
-1.09704e-10
1.99998e-05
-1.24126e-10
1.99997e-05
-1.4014e-10
1.99997e-05
-1.57911e-10
1.99997e-05
-1.77614e-10
1.99996e-05
-1.99438e-10
1.99996e-05
-2.23584e-10
1.99995e-05
-2.50272e-10
1.99995e-05
-2.79734e-10
1.99994e-05
-3.1222e-10
1.99994e-05
-3.47998e-10
1.99993e-05
-3.87353e-10
1.99993e-05
-4.30592e-10
1.99992e-05
-4.7804e-10
1.99991e-05
-5.30045e-10
1.9999e-05
-5.86979e-10
1.99989e-05
-6.49237e-10
1.99989e-05
-7.17239e-10
1.99988e-05
-7.91431e-10
1.99986e-05
-8.72288e-10
1.99985e-05
-9.60313e-10
1.99984e-05
-1.05604e-09
1.99983e-05
-1.16003e-09
1.99982e-05
-1.27289e-09
1.9998e-05
-1.39525e-09
1.99979e-05
-1.52778e-09
1.99977e-05
-1.67117e-09
1.99975e-05
-1.82618e-09
1.99973e-05
-1.99359e-09
1.99971e-05
-2.17423e-09
1.99969e-05
-2.36896e-09
1.99967e-05
-2.5787e-09
1.99965e-05
-2.80441e-09
1.99962e-05
-3.04709e-09
1.99959e-05
-3.30781e-09
1.99957e-05
-3.58766e-09
1.99954e-05
-3.88782e-09
1.99951e-05
-4.20949e-09
1.99947e-05
-4.55394e-09
1.99944e-05
-4.92251e-09
1.9994e-05
-5.31656e-09
1.99936e-05
-5.73756e-09
1.99932e-05
-6.18701e-09
1.99928e-05
-6.66646e-09
1.99923e-05
-7.17757e-09
1.99919e-05
-7.72201e-09
1.99914e-05
-8.30156e-09
1.99909e-05
-8.91805e-09
1.99903e-05
-9.57335e-09
1.99897e-05
-1.02694e-08
1.99891e-05
-1.10084e-08
1.99885e-05
-1.17922e-08
1.99879e-05
-1.2623e-08
1.99872e-05
-1.35031e-08
1.99865e-05
-1.44348e-08
1.99857e-05
-1.54203e-08
1.9985e-05
-1.64619e-08
1.99841e-05
-1.75621e-08
1.99833e-05
-1.87231e-08
1.99824e-05
-1.99474e-08
1.99816e-05
-2.12373e-08
1.99806e-05
-2.2595e-08
1.99797e-05
-2.40224e-08
1.99787e-05
-2.55216e-08
1.99777e-05
-2.70941e-08
1.99766e-05
-2.87411e-08
1.99755e-05
-3.04633e-08
1.99744e-05
-3.22605e-08
1.99733e-05
-3.41319e-08
1.99722e-05
-3.60752e-08
1.9971e-05
-3.80866e-08
1.99698e-05
-4.01602e-08
1.99686e-05
-4.22877e-08
1.99674e-05
-4.4457e-08
1.99662e-05
-4.66521e-08
1.99649e-05
-4.88511e-08
1.99637e-05
-5.10254e-08
1.99624e-05
-5.3137e-08
1.99612e-05
-5.51367e-08
1.996e-05
-5.69606e-08
1.99587e-05
-5.8525e-08
1.99575e-05
-5.97212e-08
-6.04072e-08
2e-05
2.28255e-14
2e-05
-9.15451e-13
2e-05
-2.49881e-12
2e-05
-4.46677e-12
2e-05
-6.79665e-12
2e-05
-9.49601e-12
2e-05
-1.25759e-11
2e-05
-1.6057e-11
2e-05
-1.9971e-11
1.99999e-05
-2.43608e-11
1.99999e-05
-2.92799e-11
1.99999e-05
-3.47921e-11
1.99999e-05
-4.09711e-11
1.99999e-05
-4.78997e-11
1.99999e-05
-5.56702e-11
1.99998e-05
-6.43842e-11
1.99998e-05
-7.41528e-11
1.99998e-05
-8.50969e-11
1.99998e-05
-9.73477e-11
1.99997e-05
-1.11047e-10
1.99997e-05
-1.26349e-10
1.99997e-05
-1.43419e-10
1.99996e-05
-1.62434e-10
1.99996e-05
-1.83588e-10
1.99996e-05
-2.07087e-10
1.99995e-05
-2.33153e-10
1.99995e-05
-2.62023e-10
1.99994e-05
-2.93953e-10
1.99993e-05
-3.29216e-10
1.99993e-05
-3.68105e-10
1.99992e-05
-4.10933e-10
1.99991e-05
-4.58033e-10
1.99991e-05
-5.09762e-10
1.9999e-05
-5.665e-10
1.99989e-05
-6.28652e-10
1.99988e-05
-6.96648e-10
1.99987e-05
-7.70947e-10
1.99986e-05
-8.52035e-10
1.99985e-05
-9.40428e-10
1.99984e-05
-1.03667e-09
1.99982e-05
-1.14135e-09
1.99981e-05
-1.25508e-09
1.99979e-05
-1.3785e-09
1.99978e-05
-1.5123e-09
1.99976e-05
-1.65722e-09
1.99974e-05
-1.814e-09
1.99972e-05
-1.98346e-09
1.9997e-05
-2.16645e-09
1.99968e-05
-2.36386e-09
1.99966e-05
-2.57663e-09
1.99963e-05
-2.80575e-09
1.99961e-05
-3.05226e-09
1.99958e-05
-3.31724e-09
1.99955e-05
-3.60184e-09
1.99952e-05
-3.90726e-09
1.99949e-05
-4.23474e-09
1.99946e-05
-4.5856e-09
1.99942e-05
-4.96121e-09
1.99938e-05
-5.363e-09
1.99935e-05
-5.79247e-09
1.9993e-05
-6.25118e-09
1.99926e-05
-6.74074e-09
1.99921e-05
-7.26286e-09
1.99917e-05
-7.8193e-09
1.99912e-05
-8.41188e-09
1.99906e-05
-9.04252e-09
1.99901e-05
-9.71317e-09
1.99895e-05
-1.04259e-08
1.99889e-05
-1.11828e-08
1.99882e-05
-1.1986e-08
1.99876e-05
-1.28379e-08
1.99869e-05
-1.37406e-08
1.99862e-05
-1.46967e-08
1.99854e-05
-1.57083e-08
1.99846e-05
-1.67781e-08
1.99838e-05
-1.79085e-08
1.9983e-05
-1.91018e-08
1.99821e-05
-2.03605e-08
1.99812e-05
-2.1687e-08
1.99802e-05
-2.30834e-08
1.99793e-05
-2.45518e-08
1.99783e-05
-2.6094e-08
1.99772e-05
-2.77112e-08
1.99762e-05
-2.94044e-08
1.99751e-05
-3.11737e-08
1.9974e-05
-3.30183e-08
1.99728e-05
-3.49362e-08
1.99717e-05
-3.69239e-08
1.99705e-05
-3.89756e-08
1.99693e-05
-4.10831e-08
1.99681e-05
-4.32347e-08
1.99668e-05
-4.54141e-08
1.99656e-05
-4.75996e-08
1.99643e-05
-4.97623e-08
1.9963e-05
-5.18641e-08
1.99618e-05
-5.38555e-08
1.99605e-05
-5.5672e-08
1.99592e-05
-5.72297e-08
1.99579e-05
-5.84213e-08
-5.91156e-08
2e-05
4.98207e-13
2e-05
5.76981e-13
2e-05
5.7222e-14
2e-05
-8.22346e-13
2e-05
-2.04376e-12
2e-05
-3.61402e-12
2e-05
-5.54091e-12
2e-05
-7.83945e-12
2e-05
-1.0534e-11
1.99999e-05
-1.36589e-11
1.99999e-05
-1.72589e-11
1.99999e-05
-2.13884e-11
1.99999e-05
-2.61118e-11
1.99999e-05
-3.15026e-11
1.99999e-05
-3.76438e-11
1.99999e-05
-4.46278e-11
1.99998e-05
-5.25566e-11
1.99998e-05
-6.15417e-11
1.99998e-05
-7.1705e-11
1.99998e-05
-8.31793e-11
1.99997e-05
-9.61082e-11
1.99997e-05
-1.10647e-10
1.99997e-05
-1.26965e-10
1.99996e-05
-1.45244e-10
1.99996e-05
-1.65678e-10
1.99995e-05
-1.88479e-10
1.99995e-05
-2.13873e-10
1.99994e-05
-2.42103e-10
1.99994e-05
-2.73431e-10
1.99993e-05
-3.08136e-10
1.99992e-05
-3.46518e-10
1.99992e-05
-3.88897e-10
1.99991e-05
-4.35615e-10
1.9999e-05
-4.87037e-10
1.99989e-05
-5.43553e-10
1.99989e-05
-6.05579e-10
1.99988e-05
-6.73556e-10
1.99986e-05
-7.47953e-10
1.99985e-05
-8.29271e-10
1.99984e-05
-9.1804e-10
1.99983e-05
-1.01482e-09
1.99982e-05
-1.12021e-09
1.9998e-05
-1.23484e-09
1.99979e-05
-1.35937e-09
1.99977e-05
-1.49452e-09
1.99975e-05
-1.64102e-09
1.99973e-05
-1.79967e-09
1.99971e-05
-1.97129e-09
1.99969e-05
-2.15676e-09
1.99967e-05
-2.357e-09
1.99965e-05
-2.57297e-09
1.99962e-05
-2.8057e-09
1.9996e-05
-3.05625e-09
1.99957e-05
-3.32575e-09
1.99954e-05
-3.61538e-09
1.99951e-05
-3.92637e-09
1.99948e-05
-4.26001e-09
1.99944e-05
-4.61767e-09
1.99941e-05
-5.00076e-09
1.99937e-05
-5.41077e-09
1.99933e-05
-5.84924e-09
1.99929e-05
-6.31779e-09
1.99924e-05
-6.81811e-09
1.9992e-05
-7.35196e-09
1.99915e-05
-7.92116e-09
1.99909e-05
-8.52764e-09
1.99904e-05
-9.17335e-09
1.99898e-05
-9.86037e-09
1.99893e-05
-1.05908e-08
1.99886e-05
-1.13669e-08
1.9988e-05
-1.21909e-08
1.99873e-05
-1.30651e-08
1.99866e-05
-1.3992e-08
1.99859e-05
-1.4974e-08
1.99851e-05
-1.60136e-08
1.99843e-05
-1.71133e-08
1.99835e-05
-1.82756e-08
1.99826e-05
-1.95031e-08
1.99817e-05
-2.07982e-08
1.99808e-05
-2.21631e-08
1.99799e-05
-2.36002e-08
1.99789e-05
-2.51112e-08
1.99779e-05
-2.66976e-08
1.99768e-05
-2.83605e-08
1.99758e-05
-3.01003e-08
1.99747e-05
-3.19162e-08
1.99735e-05
-3.38065e-08
1.99724e-05
-3.57677e-08
1.99712e-05
-3.77944e-08
1.997e-05
-3.98783e-08
1.99688e-05
-4.20079e-08
1.99675e-05
-4.41671e-08
1.99662e-05
-4.6334e-08
1.9965e-05
-4.84797e-08
1.99637e-05
-5.05661e-08
1.99623e-05
-5.25436e-08
1.9961e-05
-5.43476e-08
1.99597e-05
-5.58951e-08
1.99583e-05
-5.70807e-08
-5.77787e-08
2e-05
9.40187e-13
2e-05
1.95188e-12
2e-05
2.4181e-12
2e-05
2.55579e-12
2e-05
2.3782e-12
2e-05
1.87812e-12
2e-05
1.04982e-12
2e-05
-1.17501e-13
2e-05
-1.64241e-12
1.99999e-05
-3.5524e-12
1.99999e-05
-5.8844e-12
1.99999e-05
-8.68478e-12
1.99999e-05
-1.20093e-11