/*--------------------------------*- C++ -*----------------------------------*\
  =========                 |
  \\      /  F ield         | OpenFOAM: The Open Source CFD Toolbox
   \\    /   O peration     | Website:  https://openfoam.org
    \\  /    A nd           | Version:  11
     \\/     M anipulation  |
\*---------------------------------------------------------------------------*/
FoamFile
{
    format      ascii;
    class       volScalarField;
    location    "534";
    object      nut;
}
// * * * * * * * * * * * * * * * * * * * * * * * * * * * * * * * * * * * * * //

dimensions      [0 2 -1 0 0 0 0];

internalField   nonuniform List<scalar> 
10000
(
0.000977118
0.000936708
0.000899652
0.00086563
0.000834353
0.000805564
0.000779031
0.000754544
0.000731917
0.000710981
0.000691582
0.000673584
0.000656864
0.000641309
0.00062682
0.000613305
0.000600682
0.000588876
0.00057782
0.000567454
0.000557721
0.000548571
0.000539959
0.000531842
0.000524183
0.000516947
0.000510103
0.000503621
0.000497476
0.000491643
0.0004861
0.000480826
0.000475804
0.000471016
0.000466445
0.000462078
0.000457901
0.000453902
0.000450069
0.000446391
0.00044286
0.000439465
0.000436199
0.000433053
0.000430022
0.000427097
0.000424273
0.000421544
0.000418905
0.000416352
0.000413879
0.000411484
0.000409162
0.000406911
0.000404727
0.000402608
0.000400553
0.00039856
0.000396627
0.000394754
0.000392941
0.000391188
0.000389496
0.000387866
0.000386299
0.000384799
0.000383368
0.000382011
0.000380731
0.000379534
0.000378426
0.000377413
0.000376504
0.000375706
0.000375028
0.000374481
0.000374076
0.000373822
0.000373732
0.000373818
0.000374091
0.000374563
0.000375244
0.000376146
0.000377275
0.000378637
0.000380237
0.000382071
0.000384136
0.000386417
0.000388895
0.000391541
0.000394313
0.000397156
0.000399998
0.000402743
0.000405272
0.00040743
0.000409034
0.000409881
0.000977118
0.000936708
0.000899652
0.00086563
0.000834353
0.000805564
0.000779031
0.000754545
0.000731918
0.000710981
0.000691582
0.000673584
0.000656864
0.000641309
0.00062682
0.000613305
0.000600682
0.000588876
0.000577821
0.000567454
0.000557721
0.000548571
0.000539959
0.000531842
0.000524183
0.000516947
0.000510103
0.000503622
0.000497476
0.000491643
0.0004861
0.000480827
0.000475805
0.000471016
0.000466446
0.000462079
0.000457902
0.000453902
0.000450069
0.000446392
0.000442861
0.000439466
0.0004362
0.000433054
0.000430023
0.000427098
0.000424274
0.000421545
0.000418906
0.000416353
0.000413881
0.000411485
0.000409163
0.000406912
0.000404728
0.00040261
0.000400555
0.000398561
0.000396629
0.000394756
0.000392943
0.00039119
0.000389498
0.000387868
0.000386301
0.000384801
0.00038337
0.000382013
0.000380733
0.000379536
0.000378427
0.000377415
0.000376505
0.000375707
0.000375029
0.000374482
0.000374076
0.000373822
0.000373732
0.000373817
0.000374089
0.000374561
0.000375242
0.000376142
0.00037727
0.000378632
0.000380231
0.000382064
0.000384128
0.000386408
0.000388885
0.00039153
0.000394302
0.000397144
0.000399985
0.00040273
0.000405258
0.000407416
0.000409019
0.000409866
0.000977118
0.000936708
0.000899652
0.00086563
0.000834353
0.000805564
0.000779031
0.000754545
0.000731918
0.000710981
0.000691582
0.000673585
0.000656864
0.00064131
0.000626821
0.000613306
0.000600682
0.000588877
0.000577821
0.000567455
0.000557722
0.000548572
0.00053996
0.000531843
0.000524184
0.000516948
0.000510104
0.000503623
0.000497477
0.000491645
0.000486102
0.000480828
0.000475806
0.000471017
0.000466447
0.00046208
0.000457903
0.000453904
0.000450071
0.000446394
0.000442862
0.000439468
0.000436202
0.000433056
0.000430025
0.0004271
0.000424276
0.000421547
0.000418909
0.000416355
0.000413883
0.000411488
0.000409166
0.000406915
0.000404731
0.000402613
0.000400558
0.000398565
0.000396632
0.000394759
0.000392947
0.000391194
0.000389501
0.000387871
0.000386305
0.000384804
0.000383374
0.000382016
0.000380736
0.000379538
0.00037843
0.000377417
0.000376507
0.000375708
0.00037503
0.000374482
0.000374075
0.000373821
0.000373729
0.000373813
0.000374085
0.000374555
0.000375234
0.000376133
0.00037726
0.00037862
0.000380217
0.000382049
0.00038411
0.000386389
0.000388864
0.000391508
0.000394278
0.000397119
0.000399959
0.000402702
0.00040523
0.000407387
0.00040899
0.000409836
0.000977118
0.000936708
0.000899652
0.00086563
0.000834353
0.000805565
0.000779031
0.000754545
0.000731918
0.000710981
0.000691583
0.000673585
0.000656865
0.00064131
0.000626821
0.000613306
0.000600683
0.000588878
0.000577822
0.000567456
0.000557723
0.000548573
0.000539961
0.000531844
0.000524185
0.00051695
0.000510105
0.000503624
0.000497479
0.000491646
0.000486103
0.00048083
0.000475808
0.000471019
0.000466449
0.000462082
0.000457905
0.000453906
0.000450074
0.000446396
0.000442865
0.000439471
0.000436205
0.000433059
0.000430028
0.000427103
0.000424279
0.000421551
0.000418912
0.000416359
0.000413887
0.000411492
0.00040917
0.000406919
0.000404736
0.000402617
0.000400562
0.000398569
0.000396637
0.000394764
0.000392951
0.000391199
0.000389506
0.000387876
0.000386309
0.000384809
0.000383378
0.00038202
0.00038074
0.000379542
0.000378433
0.00037742
0.000376509
0.00037571
0.000375031
0.000374482
0.000374074
0.000373818
0.000373725
0.000373808
0.000374077
0.000374545
0.000375223
0.000376119
0.000377244
0.000378601
0.000380195
0.000382025
0.000384084
0.00038636
0.000388833
0.000391474
0.000394242
0.000397081
0.000399919
0.000402662
0.000405188
0.000407344
0.000408947
0.000409793
0.000977118
0.000936708
0.000899653
0.00086563
0.000834354
0.000805565
0.000779032
0.000754546
0.000731919
0.000710982
0.000691583
0.000673586
0.000656866
0.000641311
0.000626822
0.000613307
0.000600684
0.000588879
0.000577823
0.000567457
0.000557724
0.000548574
0.000539962
0.000531846
0.000524187
0.000516951
0.000510107
0.000503626
0.000497481
0.000491648
0.000486105
0.000480832
0.00047581
0.000471022
0.000466452
0.000462085
0.000457908
0.000453909
0.000450077
0.0004464
0.000442869
0.000439474
0.000436208
0.000433063
0.000430032
0.000427107
0.000424284
0.000421555
0.000418917
0.000416364
0.000413892
0.000411497
0.000409176
0.000406925
0.000404741
0.000402623
0.000400568
0.000398575
0.000396643
0.000394771
0.000392958
0.000391205
0.000389513
0.000387882
0.000386316
0.000384815
0.000383384
0.000382026
0.000380745
0.000379547
0.000378438
0.000377423
0.000376512
0.000375712
0.000375032
0.000374482
0.000374072
0.000373815
0.00037372
0.0003738
0.000374067
0.000374533
0.000375208
0.000376102
0.000377223
0.000378577
0.000380168
0.000381994
0.000384049
0.000386322
0.000388792
0.00039143
0.000394195
0.000397032
0.000399867
0.000402608
0.000405133
0.000407288
0.00040889
0.000409736
0.000977118
0.000936709
0.000899653
0.00086563
0.000834354
0.000805565
0.000779032
0.000754546
0.000731919
0.000710983
0.000691584
0.000673586
0.000656866
0.000641312
0.000626823
0.000613308
0.000600685
0.00058888
0.000577825
0.000567458
0.000557726
0.000548576
0.000539964
0.000531847
0.000524189
0.000516953
0.000510109
0.000503628
0.000497483
0.000491651
0.000486108
0.000480835
0.000475813
0.000471025
0.000466455
0.000462088
0.000457912
0.000453913
0.000450081
0.000446404
0.000442873
0.000439479
0.000436213
0.000433068
0.000430037
0.000427113
0.000424289
0.000421561
0.000418923
0.00041637
0.000413898
0.000411504
0.000409182
0.000406932
0.000404748
0.000402631
0.000400576
0.000398583
0.000396651
0.000394779
0.000392966
0.000391213
0.000389521
0.00038789
0.000386324
0.000384823
0.000383392
0.000382033
0.000380752
0.000379554
0.000378443
0.000377428
0.000376516
0.000375714
0.000375033
0.000374482
0.00037407
0.000373811
0.000373714
0.000373792
0.000374056
0.000374518
0.00037519
0.00037608
0.000377197
0.000378548
0.000380135
0.000381956
0.000384007
0.000386276
0.000388742
0.000391376
0.000394138
0.000396971
0.000399804
0.000402543
0.000405066
0.00040722
0.000408821
0.000409666
0.000977118
0.000936709
0.000899653
0.00086563
0.000834354
0.000805566
0.000779033
0.000754547
0.00073192
0.000710983
0.000691585
0.000673587
0.000656867
0.000641313
0.000626824
0.000613309
0.000600687
0.000588881
0.000577826
0.00056746
0.000557727
0.000548578
0.000539966
0.00053185
0.000524191
0.000516956
0.000510112
0.000503631
0.000497486
0.000491654
0.000486111
0.000480839
0.000475817
0.000471029
0.000466459
0.000462093
0.000457916
0.000453918
0.000450085
0.000446409
0.000442878
0.000439484
0.000436219
0.000433074
0.000430043
0.000427119
0.000424296
0.000421568
0.00041893
0.000416377
0.000413906
0.000411511
0.00040919
0.00040694
0.000404757
0.000402639
0.000400585
0.000398592
0.00039666
0.000394788
0.000392975
0.000391223
0.00038953
0.0003879
0.000386333
0.000384832
0.000383401
0.000382042
0.00038076
0.000379561
0.00037845
0.000377434
0.000376521
0.000375718
0.000375035
0.000374482
0.000374068
0.000373806
0.000373707
0.000373781
0.000374043
0.000374501
0.000375169
0.000376055
0.000377168
0.000378514
0.000380096
0.000381913
0.000383959
0.000386222
0.000388684
0.000391313
0.000394071
0.0003969
0.00039973
0.000402466
0.000404987
0.000407139
0.000408739
0.000409583
0.000977118
0.000936709
0.000899653
0.000865631
0.000834354
0.000805566
0.000779033
0.000754547
0.00073192
0.000710984
0.000691586
0.000673588
0.000656868
0.000641314
0.000626825
0.000613311
0.000600688
0.000588883
0.000577828
0.000567462
0.00055773
0.00054858
0.000539968
0.000531852
0.000524194
0.000516959
0.000510115
0.000503634
0.00049749
0.000491657
0.000486115
0.000480842
0.000475821
0.000471033
0.000466463
0.000462097
0.000457921
0.000453923
0.000450091
0.000446414
0.000442884
0.00043949
0.000436225
0.000433081
0.00043005
0.000427126
0.000424303
0.000421576
0.000418938
0.000416386
0.000413914
0.00041152
0.0004092
0.000406949
0.000404767
0.000402649
0.000400595
0.000398603
0.000396671
0.000394799
0.000392986
0.000391234
0.000389541
0.000387911
0.000386344
0.000384843
0.000383411
0.000382052
0.00038077
0.00037957
0.000378458
0.000377441
0.000376526
0.000375722
0.000375037
0.000374482
0.000374066
0.000373801
0.000373699
0.00037377
0.000374028
0.000374483
0.000375146
0.000376027
0.000377135
0.000378476
0.000380052
0.000381863
0.000383904
0.000386162
0.000388618
0.000391242
0.000393995
0.00039682
0.000399646
0.000402379
0.000404897
0.000407047
0.000408646
0.000409489
0.000977118
0.000936709
0.000899653
0.000865631
0.000834355
0.000805566
0.000779034
0.000754548
0.000731921
0.000710985
0.000691587
0.000673589
0.00065687
0.000641316
0.000626827
0.000613312
0.00060069
0.000588885
0.00057783
0.000567464
0.000557732
0.000548583
0.000539971
0.000531855
0.000524197
0.000516962
0.000510118
0.000503638
0.000497493
0.000491661
0.000486119
0.000480847
0.000475825
0.000471038
0.000466468
0.000462102
0.000457927
0.000453929
0.000450097
0.00044642
0.00044289
0.000439497
0.000436232
0.000433088
0.000430058
0.000427134
0.000424312
0.000421584
0.000418947
0.000416395
0.000413924
0.00041153
0.00040921
0.00040696
0.000404777
0.00040266
0.000400606
0.000398614
0.000396683
0.000394811
0.000392999
0.000391246
0.000389554
0.000387924
0.000386357
0.000384855
0.000383423
0.000382064
0.000380781
0.00037958
0.000378467
0.000377449
0.000376533
0.000375727
0.00037504
0.000374483
0.000374064
0.000373797
0.000373691
0.000373759
0.000374012
0.000374462
0.00037512
0.000375997
0.000377099
0.000378434
0.000380004
0.000381809
0.000383843
0.000386095
0.000388545
0.000391163
0.000393911
0.000396731
0.000399553
0.000402281
0.000404797
0.000406945
0.000408542
0.000409385
0.000977118
0.000936709
0.000899653
0.000865631
0.000834355
0.000805567
0.000779034
0.000754548
0.000731922
0.000710986
0.000691588
0.00067359
0.000656871
0.000641317
0.000626828
0.000613314
0.000600692
0.000588887
0.000577832
0.000567466
0.000557734
0.000548585
0.000539974
0.000531858
0.0005242
0.000516965
0.000510122
0.000503641
0.000497497
0.000491665
0.000486124
0.000480851
0.00047583
0.000471043
0.000466474
0.000462108
0.000457933
0.000453935
0.000450103
0.000446427
0.000442897
0.000439504
0.00043624
0.000433096
0.000430066
0.000427143
0.000424321
0.000421594
0.000418957
0.000416405
0.000413935
0.000411541
0.000409221
0.000406972
0.00040479
0.000402673
0.000400619
0.000398627
0.000396696
0.000394824
0.000393012
0.00039126
0.000389568
0.000387937
0.00038637
0.000384869
0.000383436
0.000382076
0.000380793
0.000379591
0.000378478
0.000377458
0.000376541
0.000375733
0.000375044
0.000374484
0.000374063
0.000373792
0.000373682
0.000373746
0.000373995
0.00037444
0.000375093
0.000375964
0.00037706
0.000378388
0.000379952
0.00038175
0.000383778
0.000386022
0.000388465
0.000391078
0.000393819
0.000396634
0.000399451
0.000402175
0.000404687
0.000406833
0.000408428
0.00040927
0.000977118
0.000936709
0.000899653
0.000865631
0.000834355
0.000805567
0.000779035
0.000754549
0.000731923
0.000710987
0.000691589
0.000673592
0.000656872
0.000641318
0.00062683
0.000613316
0.000600694
0.000588889
0.000577834
0.000567469
0.000557737
0.000548588
0.000539977
0.000531861
0.000524203
0.000516969
0.000510126
0.000503646
0.000497502
0.00049167
0.000486128
0.000480856
0.000475836
0.000471049
0.00046648
0.000462114
0.000457939
0.000453942
0.00045011
0.000446435
0.000442905
0.000439513
0.000436248
0.000433105
0.000430075
0.000427153
0.000424331
0.000421604
0.000418968
0.000416417
0.000413946
0.000411553
0.000409234
0.000406984
0.000404803
0.000402686
0.000400633
0.000398642
0.000396711
0.000394839
0.000393027
0.000391275
0.000389583
0.000387953
0.000386386
0.000384884
0.000383451
0.00038209
0.000380806
0.000379604
0.000378489
0.000377468
0.000376549
0.000375739
0.000375048
0.000374486
0.000374062
0.000373787
0.000373674
0.000373733
0.000373977
0.000374417
0.000375065
0.000375929
0.000377019
0.00037834
0.000379896
0.000381687
0.000383707
0.000385945
0.000388381
0.000390986
0.00039372
0.000396529
0.000399341
0.000402061
0.000404569
0.000406712
0.000408306
0.000409146
0.000977118
0.000936709
0.000899654
0.000865632
0.000834356
0.000805568
0.000779035
0.00075455
0.000731923
0.000710987
0.00069159
0.000673593
0.000656873
0.00064132
0.000626832
0.000613318
0.000600696
0.000588891
0.000577837
0.000567471
0.00055774
0.000548591
0.00053998
0.000531865
0.000524207
0.000516973
0.00051013
0.00050365
0.000497506
0.000491675
0.000486134
0.000480862
0.000475841
0.000471055
0.000466486
0.000462121
0.000457946
0.000453949
0.000450118
0.000446443
0.000442914
0.000439521
0.000436258
0.000433115
0.000430085
0.000427163
0.000424342
0.000421615
0.000418979
0.000416429
0.000413959
0.000411566
0.000409247
0.000406998
0.000404817
0.000402701
0.000400648
0.000398657
0.000396726
0.000394855
0.000393044
0.000391291
0.0003896
0.000387969
0.000386402
0.0003849
0.000383467
0.000382106
0.000380821
0.000379618
0.000378502
0.00037748
0.000376559
0.000375747
0.000375053
0.000374488
0.000374061
0.000373783
0.000373665
0.00037372
0.000373959
0.000374393
0.000375035
0.000375892
0.000376975
0.000378289
0.000379838
0.000381621
0.000383633
0.000385863
0.000388291
0.000390888
0.000393616
0.000396418
0.000399224
0.000401939
0.000404443
0.000406583
0.000408174
0.000409014
0.000977118
0.000936709
0.000899654
0.000865632
0.000834356
0.000805568
0.000779036
0.00075455
0.000731924
0.000710988
0.000691591
0.000673594
0.000656875
0.000641322
0.000626833
0.00061332
0.000600698
0.000588893
0.000577839
0.000567474
0.000557743
0.000548594
0.000539983
0.000531868
0.000524211
0.000516977
0.000510134
0.000503655
0.000497511
0.00049168
0.000486139
0.000480868
0.000475847
0.000471061
0.000466493
0.000462128
0.000457954
0.000453957
0.000450126
0.000446452
0.000442923
0.000439531
0.000436267
0.000433125
0.000430096
0.000427174
0.000424353
0.000421627
0.000418992
0.000416442
0.000413972
0.00041158
0.000409261
0.000407013
0.000404832
0.000402717
0.000400664
0.000398673
0.000396743
0.000394872
0.000393061
0.000391309
0.000389617
0.000387987
0.00038642
0.000384918
0.000383484
0.000382122
0.000380837
0.000379633
0.000378515
0.000377492
0.000376569
0.000375755
0.000375059
0.000374491
0.00037406
0.000373778
0.000373656
0.000373707
0.00037394
0.000374369
0.000375004
0.000375854
0.00037693
0.000378236
0.000379777
0.000381552
0.000383555
0.000385777
0.000388196
0.000390786
0.000393506
0.000396301
0.000399101
0.00040181
0.00040431
0.000406446
0.000408036
0.000408875
0.000977118
0.000936709
0.000899654
0.000865632
0.000834356
0.000805568
0.000779036
0.000754551
0.000731925
0.000710989
0.000691592
0.000673595
0.000656876
0.000641323
0.000626835
0.000613322
0.0006007
0.000588896
0.000577842
0.000567477
0.000557746
0.000548598
0.000539987
0.000531872
0.000524215
0.000516981
0.000510139
0.000503659
0.000497516
0.000491686
0.000486145
0.000480874
0.000475854
0.000471068
0.0004665
0.000462136
0.000457961
0.000453965
0.000450135
0.000446461
0.000442932
0.000439541
0.000436278
0.000433136
0.000430107
0.000427186
0.000424365
0.00042164
0.000419005
0.000416455
0.000413986
0.000411595
0.000409276
0.000407029
0.000404848
0.000402733
0.000400681
0.000398691
0.000396761
0.00039489
0.000393079
0.000391328
0.000389636
0.000388006
0.000386438
0.000384936
0.000383502
0.00038214
0.000380854
0.000379649
0.00037853
0.000377505
0.00037658
0.000375764
0.000375066
0.000374494
0.00037406
0.000373774
0.000373648
0.000373693
0.000373921
0.000374344
0.000374972
0.000375815
0.000376883
0.000378182
0.000379714
0.00038148
0.000383475
0.000385687
0.000388098
0.000390679
0.000393391
0.000396179
0.000398972
0.000401676
0.00040417
0.000406304
0.000407891
0.000408728
0.000977118
0.000936709
0.000899654
0.000865632
0.000834357
0.000805569
0.000779037
0.000754552
0.000731926
0.00071099
0.000691593
0.000673597
0.000656878
0.000641325
0.000626837
0.000613324
0.000600702
0.000588898
0.000577845
0.00056748
0.000557749
0.000548601
0.00053999
0.000531876
0.000524219
0.000516985
0.000510144
0.000503664
0.000497522
0.000491691
0.000486151
0.00048088
0.000475861
0.000471075
0.000466507
0.000462143
0.00045797
0.000453974
0.000450144
0.00044647
0.000442942
0.000439551
0.000436288
0.000433147
0.000430119
0.000427198
0.000424378
0.000421653
0.000419019
0.000416469
0.000414001
0.00041161
0.000409292
0.000407045
0.000404865
0.000402751
0.000400699
0.000398709
0.00039678
0.00039491
0.000393099
0.000391347
0.000389656
0.000388026
0.000386458
0.000384956
0.000383521
0.000382159
0.000380872
0.000379666
0.000378546
0.000377519
0.000376593
0.000375774
0.000375073
0.000374498
0.000374061
0.000373771
0.00037364
0.00037368
0.000373902
0.000374318
0.000374939
0.000375776
0.000376836
0.000378125
0.000379649
0.000381406
0.000383392
0.000385595
0.000387997
0.000390569
0.000393272
0.000396053
0.000398838
0.000401536
0.000404026
0.000406155
0.00040774
0.000408576
0.000977118
0.000936709
0.000899654
0.000865632
0.000834357
0.000805569
0.000779037
0.000754552
0.000731926
0.000710991
0.000691594
0.000673598
0.000656879
0.000641326
0.000626839
0.000613326
0.000600704
0.000588901
0.000577847
0.000567483
0.000557752
0.000548604
0.000539994
0.00053188
0.000524223
0.00051699
0.000510148
0.00050367
0.000497527
0.000491697
0.000486157
0.000480887
0.000475867
0.000471082
0.000466515
0.000462151
0.000457978
0.000453982
0.000450153
0.00044648
0.000442952
0.000439562
0.0004363
0.000433159
0.000430131
0.000427211
0.000424391
0.000421667
0.000419033
0.000416484
0.000414017
0.000411626
0.000409309
0.000407062
0.000404883
0.000402769
0.000400718
0.000398728
0.000396799
0.000394929
0.000393119
0.000391368
0.000389676
0.000388046
0.000386479
0.000384976
0.000383542
0.000382178
0.000380891
0.000379683
0.000378562
0.000377534
0.000376606
0.000375785
0.000375081
0.000374503
0.000374062
0.000373768
0.000373632
0.000373667
0.000373883
0.000374293
0.000374907
0.000375735
0.000376787
0.000378068
0.000379583
0.000381331
0.000383307
0.0003855
0.000387892
0.000390456
0.00039315
0.000395922
0.000398701
0.000401392
0.000403876
0.000406002
0.000407584
0.000408419
0.000977118
0.000936709
0.000899654
0.000865633
0.000834357
0.000805569
0.000779038
0.000754553
0.000731927
0.000710992
0.000691595
0.000673599
0.000656881
0.000641328
0.000626841
0.000613328
0.000600707
0.000588903
0.00057785
0.000567486
0.000557755
0.000548608
0.000539998
0.000531884
0.000524228
0.000516995
0.000510153
0.000503675
0.000497533
0.000491703
0.000486163
0.000480893
0.000475875
0.00047109
0.000466523
0.00046216
0.000457987
0.000453992
0.000450163
0.00044649
0.000442963
0.000439573
0.000436311
0.000433171
0.000430144
0.000427224
0.000424405
0.000421681
0.000419048
0.0004165
0.000414033
0.000411642
0.000409326
0.00040708
0.000404901
0.000402787
0.000400737
0.000398748
0.000396819
0.00039495
0.00039314
0.000391389
0.000389698
0.000388068
0.0003865
0.000384998
0.000383563
0.000382199
0.00038091
0.000379702
0.00037858
0.00037755
0.000376619
0.000375796
0.00037509
0.000374509
0.000374064
0.000373765
0.000373625
0.000373654
0.000373864
0.000374267
0.000374874
0.000375695
0.000376738
0.00037801
0.000379516
0.000381254
0.00038322
0.000385404
0.000387786
0.00039034
0.000393025
0.000395789
0.000398559
0.000401244
0.000403723
0.000405844
0.000407423
0.000408258
0.000977118
0.000936709
0.000899654
0.000865633
0.000834357
0.00080557
0.000779038
0.000754553
0.000731928
0.000710993
0.000691596
0.0006736
0.000656882
0.00064133
0.000626842
0.00061333
0.000600709
0.000588906
0.000577853
0.000567489
0.000557758
0.000548611
0.000540002
0.000531888
0.000524232
0.000516999
0.000510158
0.00050368
0.000497539
0.000491709
0.00048617
0.0004809
0.000475882
0.000471097
0.000466531
0.000462168
0.000457996
0.000454001
0.000450173
0.0004465
0.000442974
0.000439584
0.000436323
0.000433183
0.000430157
0.000427237
0.000424419
0.000421696
0.000419063
0.000416515
0.000414049
0.000411659
0.000409344
0.000407098
0.00040492
0.000402807
0.000400757
0.000398768
0.00039684
0.000394971
0.000393162
0.000391411
0.00038972
0.00038809
0.000386523
0.00038502
0.000383584
0.00038222
0.000380931
0.000379722
0.000378598
0.000377566
0.000376634
0.000375809
0.000375099
0.000374515
0.000374066
0.000373763
0.000373617
0.000373641
0.000373845
0.000374241
0.000374841
0.000375654
0.000376688
0.000377952
0.000379448
0.000381176
0.000383132
0.000385306
0.000387678
0.000390222
0.000392898
0.000395653
0.000398416
0.000401093
0.000403566
0.000405683
0.00040726
0.000408093
0.000977118
0.000936709
0.000899654
0.000865633
0.000834358
0.00080557
0.000779039
0.000754554
0.000731929
0.000710994
0.000691597
0.000673601
0.000656883
0.000641331
0.000626844
0.000613332
0.000600711
0.000588908
0.000577855
0.000567492
0.000557762
0.000548615
0.000540006
0.000531892
0.000524237
0.000517004
0.000510164
0.000503686
0.000497544
0.000491715
0.000486176
0.000480907
0.000475889
0.000471105
0.000466539
0.000462177
0.000458005
0.000454011
0.000450183
0.000446511
0.000442985
0.000439596
0.000436335
0.000433196
0.00043017
0.000427251
0.000424433
0.000421711
0.000419079
0.000416532
0.000414066
0.000411677
0.000409362
0.000407117
0.000404939
0.000402827
0.000400777
0.000398789
0.000396862
0.000394993
0.000393184
0.000391434
0.000389743
0.000388113
0.000386545
0.000385042
0.000383607
0.000382242
0.000380952
0.000379742
0.000378617
0.000377584
0.000376649
0.000375821
0.000375109
0.000374521
0.000374069
0.000373761
0.000373611
0.000373629
0.000373827
0.000374216
0.000374808
0.000375613
0.000376639
0.000377893
0.000379379
0.000381098
0.000383044
0.000385207
0.000387569
0.000390103
0.00039277
0.000395515
0.00039827
0.00040094
0.000403408
0.00040552
0.000407093
0.000407925
0.000977118
0.00093671
0.000899655
0.000865633
0.000834358
0.000805571
0.000779039
0.000754555
0.000731929
0.000710995
0.000691598
0.000673603
0.000656885
0.000641333
0.000626846
0.000613334
0.000600713
0.000588911
0.000577858
0.000567495
0.000557765
0.000548619
0.00054001
0.000531896
0.000524241
0.000517009
0.000510169
0.000503691
0.00049755
0.000491722
0.000486183
0.000480914
0.000475897
0.000471113
0.000466547
0.000462186
0.000458014
0.00045402
0.000450193
0.000446521
0.000442996
0.000439607
0.000436347
0.000433208
0.000430183
0.000427265
0.000424448
0.000421726
0.000419094
0.000416548
0.000414083
0.000411695
0.00040938
0.000407136
0.000404959
0.000402847
0.000400798
0.000398811
0.000396884
0.000395016
0.000393207
0.000391457
0.000389766
0.000388136
0.000386569
0.000385066
0.00038363
0.000382264
0.000380974
0.000379762
0.000378636
0.000377601
0.000376665
0.000375835
0.000375119
0.000374528
0.000374072
0.00037376
0.000373605
0.000373617
0.000373809
0.000374191
0.000374776
0.000375572
0.00037659
0.000377835
0.000379311
0.000381019
0.000382955
0.000385108
0.00038746
0.000389983
0.00039264
0.000395377
0.000398123
0.000400786
0.000403247
0.000405355
0.000406925
0.000407756
0.000977118
0.00093671
0.000899655
0.000865633
0.000834358
0.000805571
0.000779039
0.000754555
0.00073193
0.000710995
0.000691599
0.000673604
0.000656886
0.000641334
0.000626848
0.000613336
0.000600716
0.000588913
0.000577861
0.000567498
0.000557768
0.000548622
0.000540013
0.000531901
0.000524246
0.000517014
0.000510174
0.000503697
0.000497556
0.000491728
0.00048619
0.000480921
0.000475904
0.000471121
0.000466556
0.000462194
0.000458023
0.00045403
0.000450203
0.000446532
0.000443007
0.000439619
0.00043636
0.000433221
0.000430197
0.000427279
0.000424463
0.000421742
0.00041911
0.000416565
0.0004141
0.000411713
0.000409399
0.000407155
0.000404979
0.000402867
0.000400819
0.000398832
0.000396906
0.000395038
0.00039323
0.00039148
0.00038979
0.00038816
0.000386593
0.000385089
0.000383653
0.000382287
0.000380996
0.000379784
0.000378656
0.00037762
0.000376681
0.000375849
0.00037513
0.000374536
0.000374076
0.00037376
0.000373599
0.000373606
0.000373791
0.000374167
0.000374744
0.000375532
0.000376541
0.000377776
0.000379243
0.000380941
0.000382866
0.000385008
0.00038735
0.000389863
0.00039251
0.000395237
0.000397974
0.00040063
0.000403085
0.000405188
0.000406756
0.000407585
0.000977118
0.00093671
0.000899655
0.000865633
0.000834358
0.000805571
0.00077904
0.000754556
0.000731931
0.000710996
0.0006916
0.000673605
0.000656887
0.000641336
0.00062685
0.000613338
0.000600718
0.000588916
0.000577864
0.000567501
0.000557772
0.000548626
0.000540017
0.000531905
0.00052425
0.000517019
0.000510179
0.000503702
0.000497562
0.000491734
0.000486196
0.000480928
0.000475912
0.000471129
0.000466564
0.000462203
0.000458033
0.00045404
0.000450214
0.000446543
0.000443019
0.000439631
0.000436372
0.000433235
0.00043021
0.000427294
0.000424478
0.000421757
0.000419127
0.000416582
0.000414118
0.000411731
0.000409417
0.000407174
0.000404999
0.000402888
0.000400841
0.000398854
0.000396928
0.000395061
0.000393253
0.000391504
0.000389814
0.000388185
0.000386617
0.000385114
0.000383677
0.00038231
0.000381018
0.000379805
0.000378676
0.000377638
0.000376698
0.000375863
0.000375142
0.000374544
0.00037408
0.000373759
0.000373594
0.000373595
0.000373774
0.000374143
0.000374712
0.000375492
0.000376492
0.000377718
0.000379175
0.000380863
0.000382778
0.000384909
0.00038724
0.000389743
0.00039238
0.000395097
0.000397826
0.000400474
0.000402923
0.000405021
0.000406585
0.000407413
0.000977118
0.00093671
0.000899655
0.000865634
0.000834359
0.000805572
0.00077904
0.000754556
0.000731931
0.000710997
0.000691601
0.000673606
0.000656889
0.000641337
0.000626851
0.00061334
0.00060072
0.000588918
0.000577866
0.000567504
0.000557775
0.000548629
0.000540021
0.000531909
0.000524255
0.000517024
0.000510184
0.000503708
0.000497568
0.00049174
0.000486203
0.000480936
0.000475919
0.000471137
0.000466573
0.000462212
0.000458042
0.00045405
0.000450224
0.000446554
0.00044303
0.000439643
0.000436385
0.000433248
0.000430224
0.000427308
0.000424493
0.000421773
0.000419143
0.000416599
0.000414135
0.000411749
0.000409436
0.000407194
0.000405019
0.000402909
0.000400862
0.000398877
0.000396951
0.000395084
0.000393277
0.000391528
0.000389838
0.000388209
0.000386641
0.000385138
0.000383701
0.000382334
0.000381041
0.000379827
0.000378697
0.000377657
0.000376715
0.000375878
0.000375154
0.000374553
0.000374085
0.00037376
0.000373589
0.000373585
0.000373758
0.000374119
0.000374681
0.000375453
0.000376444
0.000377661
0.000379108
0.000380786
0.00038269
0.000384811
0.000387131
0.000389623
0.00039225
0.000394958
0.000397678
0.000400319
0.000402761
0.000404854
0.000406415
0.000407242
0.000977118
0.00093671
0.000899655
0.000865634
0.000834359
0.000805572
0.000779041
0.000754557
0.000731932
0.000710998
0.000691602
0.000673607
0.00065689
0.000641339
0.000626853
0.000613342
0.000600722
0.00058892
0.000577869
0.000567507
0.000557778
0.000548633
0.000540025
0.000531913
0.000524259
0.000517028
0.000510189
0.000503713
0.000497574
0.000491747
0.00048621
0.000480943
0.000475927
0.000471145
0.000466581
0.000462221
0.000458051
0.00045406
0.000450234
0.000446565
0.000443041
0.000439655
0.000436397
0.000433261
0.000430238
0.000427322
0.000424508
0.000421788
0.000419159
0.000416616
0.000414153
0.000411767
0.000409455
0.000407214
0.000405039
0.00040293
0.000400884
0.000398899
0.000396974
0.000395108
0.0003933
0.000391552
0.000389863
0.000388233
0.000386666
0.000385162
0.000383725
0.000382358
0.000381064
0.000379849
0.000378718
0.000377677
0.000376732
0.000375893
0.000375166
0.000374562
0.00037409
0.000373761
0.000373585
0.000373575
0.000373742
0.000374097
0.000374651
0.000375415
0.000376397
0.000377605
0.000379042
0.000380709
0.000382603
0.000384713
0.000387023
0.000389505
0.000392121
0.00039482
0.000397531
0.000400164
0.0004026
0.000404688
0.000406246
0.000407071
0.000977118
0.00093671
0.000899655
0.000865634
0.000834359
0.000805572
0.000779041
0.000754557
0.000731933
0.000710999
0.000691603
0.000673608
0.000656891
0.00064134
0.000626855
0.000613343
0.000600724
0.000588923
0.000577872
0.000567509
0.000557781
0.000548636
0.000540029
0.000531917
0.000524263
0.000517033
0.000510194
0.000503719
0.00049758
0.000491753
0.000486216
0.00048095
0.000475934
0.000471153
0.000466589
0.00046223
0.000458061
0.000454069
0.000450244
0.000446576
0.000443053
0.000439667
0.00043641
0.000433274
0.000430252
0.000427337
0.000424523
0.000421804
0.000419175
0.000416632
0.000414171
0.000411786
0.000409474
0.000407233
0.00040506
0.000402951
0.000400905
0.000398921
0.000396996
0.000395131
0.000393324
0.000391576
0.000389887
0.000388258
0.000386691
0.000385187
0.000383749
0.000382382