/*--------------------------------*- C++ -*----------------------------------*\
  =========                 |
  \\      /  F ield         | OpenFOAM: The Open Source CFD Toolbox
   \\    /   O peration     | Website:  https://openfoam.org
    \\  /    A nd           | Version:  11
     \\/     M anipulation  |
\*---------------------------------------------------------------------------*/
FoamFile
{
    format      ascii;
    class       volScalarField;
    location    "108";
    object      p;
}
// * * * * * * * * * * * * * * * * * * * * * * * * * * * * * * * * * * * * * //

dimensions      [0 2 -2 0 0 0 0];

internalField   nonuniform List<scalar> 
10000
(
8.33859e-07
8.15065e-07
8.42951e-07
9.01723e-07
9.69218e-07
1.04016e-06
1.11395e-06
1.19023e-06
1.26866e-06
1.34902e-06
1.43113e-06
1.51481e-06
1.59981e-06
1.68587e-06
1.77264e-06
1.85975e-06
1.94675e-06
2.03313e-06
2.11837e-06
2.20189e-06
2.28313e-06
2.36151e-06
2.43654e-06
2.50775e-06
2.57477e-06
2.63728e-06
2.69507e-06
2.74794e-06
2.7957e-06
2.83793e-06
2.87342e-06
2.89939e-06
2.91943e-06
2.95261e-06
2.99022e-06
3.01633e-06
3.03679e-06
3.05241e-06
3.05768e-06
3.0641e-06
3.07878e-06
3.08362e-06
3.07261e-06
3.06937e-06
3.0766e-06
3.07526e-06
3.06674e-06
3.0534e-06
3.03607e-06
3.01511e-06
2.99078e-06
2.96327e-06
2.93273e-06
2.8993e-06
2.86311e-06
2.82428e-06
2.78295e-06
2.73924e-06
2.69328e-06
2.64521e-06
2.59516e-06
2.54326e-06
2.48965e-06
2.43448e-06
2.37786e-06
2.31995e-06
2.26086e-06
2.20072e-06
2.13967e-06
2.0778e-06
2.01525e-06
1.95211e-06
1.88849e-06
1.82447e-06
1.76015e-06
1.69561e-06
1.63091e-06
1.56611e-06
1.50128e-06
1.43644e-06
1.37165e-06
1.3069e-06
1.24223e-06
1.17763e-06
1.11308e-06
1.04855e-06
9.83994e-07
9.19349e-07
8.54519e-07
7.89381e-07
7.23773e-07
6.57481e-07
5.90219e-07
5.21585e-07
4.5104e-07
3.77963e-07
3.01236e-07
2.1618e-07
1.13531e-07
6.29006e-09
1.62245e-06
1.54141e-06
1.49053e-06
1.50935e-06
1.55853e-06
1.62201e-06
1.69538e-06
1.77621e-06
1.86275e-06
1.95386e-06
2.04876e-06
2.14682e-06
2.24749e-06
2.35021e-06
2.4544e-06
2.55944e-06
2.66463e-06
2.76925e-06
2.87248e-06
2.97349e-06
3.07145e-06
3.16557e-06
3.2551e-06
3.33943e-06
3.41806e-06
3.49065e-06
3.55698e-06
3.61698e-06
3.67068e-06
3.71809e-06
3.75894e-06
3.79317e-06
3.827e-06
3.86789e-06
3.89255e-06
3.89328e-06
3.8889e-06
3.8937e-06
3.91195e-06
3.94113e-06
3.97401e-06
3.99338e-06
3.98615e-06
3.97206e-06
3.96756e-06
3.96009e-06
3.94736e-06
3.92997e-06
3.90825e-06
3.88235e-06
3.85242e-06
3.81862e-06
3.78106e-06
3.73988e-06
3.6952e-06
3.64714e-06
3.59585e-06
3.54145e-06
3.48409e-06
3.42393e-06
3.36111e-06
3.29579e-06
3.22814e-06
3.15832e-06
3.08648e-06
3.01279e-06
2.93742e-06
2.8605e-06
2.78221e-06
2.70268e-06
2.62205e-06
2.54046e-06
2.45804e-06
2.37489e-06
2.29114e-06
2.20688e-06
2.1222e-06
2.03718e-06
1.95187e-06
1.86633e-06
1.78061e-06
1.69473e-06
1.60868e-06
1.52247e-06
1.43607e-06
1.34942e-06
1.26245e-06
1.17505e-06
1.08707e-06
9.98313e-07
9.08528e-07
8.17372e-07
7.24379e-07
6.2889e-07
5.30033e-07
4.26912e-07
3.17612e-07
1.92459e-07
3.67313e-08
-8.42036e-08
2.05308e-06
1.93349e-06
1.82845e-06
1.79747e-06
1.80501e-06
1.83354e-06
1.87715e-06
1.93224e-06
1.99614e-06
2.06703e-06
2.14363e-06
2.22494e-06
2.31013e-06
2.39841e-06
2.48903e-06
2.5812e-06
2.67406e-06
2.7667e-06
2.85817e-06
2.94747e-06
3.03359e-06
3.11558e-06
3.19258e-06
3.26386e-06
3.32889e-06
3.38733e-06
3.43907e-06
3.48418e-06
3.52299e-06
3.55597e-06
3.58377e-06
3.60751e-06
3.63139e-06
3.66029e-06
3.68858e-06
3.70744e-06
3.72019e-06
3.72718e-06
3.72707e-06
3.72278e-06
3.71576e-06
3.70156e-06
3.6783e-06
3.65765e-06
3.64238e-06
3.62707e-06
3.60958e-06
3.58944e-06
3.56642e-06
3.54041e-06
3.51136e-06
3.47928e-06
3.44418e-06
3.40612e-06
3.36513e-06
3.32129e-06
3.27467e-06
3.22536e-06
3.17344e-06
3.11903e-06
3.06222e-06
3.00315e-06
2.94192e-06
2.87867e-06
2.81352e-06
2.74661e-06
2.67805e-06
2.60799e-06
2.53654e-06
2.46383e-06
2.38998e-06
2.31509e-06
2.23928e-06
2.16265e-06
2.08529e-06
2.00728e-06
1.92869e-06
1.8496e-06
1.77005e-06
1.69008e-06
1.60972e-06
1.52898e-06
1.44787e-06
1.36637e-06
1.28442e-06
1.20198e-06
1.11895e-06
1.03522e-06
9.5061e-07
8.64925e-07
7.77886e-07
6.89135e-07
5.98185e-07
5.04353e-07
4.068e-07
3.04915e-07
1.96957e-07
7.03777e-08
-9.32279e-08
-1.73896e-07
2.43658e-06
2.30507e-06
2.18864e-06
2.1378e-06
2.12449e-06
2.13435e-06
2.16193e-06
2.20346e-06
2.25597e-06
2.31732e-06
2.38594e-06
2.46057e-06
2.54015e-06
2.62372e-06
2.71034e-06
2.79904e-06
2.88883e-06
2.97862e-06
3.0673e-06
3.15371e-06
3.2367e-06
3.31517e-06
3.38813e-06
3.45478e-06
3.5145e-06
3.56694e-06
3.612e-06
3.64985e-06
3.6809e-06
3.70582e-06
3.72545e-06
3.7409e-06
3.75435e-06
3.76808e-06
3.78085e-06
3.78902e-06
3.79252e-06
3.79085e-06
3.78336e-06
3.77148e-06
3.75641e-06
3.73731e-06
3.71441e-06
3.69215e-06
3.67143e-06
3.65048e-06
3.62818e-06
3.604e-06
3.57764e-06
3.54887e-06
3.51758e-06
3.48369e-06
3.44716e-06
3.40797e-06
3.36612e-06
3.32163e-06
3.27455e-06
3.22492e-06
3.1728e-06
3.11827e-06
3.06141e-06
3.00232e-06
2.94109e-06
2.87783e-06
2.81265e-06
2.74566e-06
2.67697e-06
2.60671e-06
2.53499e-06
2.46191e-06
2.38759e-06
2.31213e-06
2.23563e-06
2.15818e-06
2.07986e-06
2.00077e-06
1.92095e-06
1.84047e-06
1.75938e-06
1.67771e-06
1.59549e-06
1.51271e-06
1.42938e-06
1.34546e-06
1.2609e-06
1.17564e-06
1.08958e-06
1.00258e-06
9.14471e-07
8.25033e-07
7.33982e-07
6.40958e-07
5.45482e-07
4.46902e-07
3.44495e-07
2.3808e-07
1.26569e-07
-4.36711e-09
-1.79033e-07
-2.32448e-07
2.78014e-06
2.65017e-06
2.53522e-06
2.47666e-06
2.45233e-06
2.45122e-06
2.46884e-06
2.50169e-06
2.54688e-06
2.60218e-06
2.66588e-06
2.73659e-06
2.8131e-06
2.89429e-06
2.97908e-06
3.06639e-06
3.15507e-06
3.24392e-06
3.3317e-06
3.41713e-06
3.49894e-06
3.57593e-06
3.64702e-06
3.71132e-06
3.76817e-06
3.81717e-06
3.85823e-06
3.89153e-06
3.91753e-06
3.93692e-06
3.95055e-06
3.95948e-06
3.96505e-06
3.96852e-06
3.96954e-06
3.96693e-06
3.96069e-06
3.95085e-06
3.93746e-06
3.9211e-06
3.90218e-06
3.88051e-06
3.85642e-06
3.83161e-06
3.80678e-06
3.78139e-06
3.75485e-06
3.72676e-06
3.69683e-06
3.66484e-06
3.63062e-06
3.59406e-06
3.55508e-06
3.51362e-06
3.46964e-06
3.42313e-06
3.37411e-06
3.3226e-06
3.26862e-06
3.21225e-06
3.15353e-06
3.09254e-06
3.02938e-06
2.96413e-06
2.89688e-06
2.82775e-06
2.75683e-06
2.68423e-06
2.61006e-06
2.53443e-06
2.45744e-06
2.37918e-06
2.29975e-06
2.21924e-06
2.13774e-06
2.05531e-06
1.97202e-06
1.88793e-06
1.80307e-06
1.71749e-06
1.63119e-06
1.54418e-06
1.45645e-06
1.36796e-06
1.27867e-06
1.18849e-06
1.09732e-06
1.00502e-06
9.11424e-07
8.16297e-07
7.19366e-07
6.20285e-07
5.18611e-07
4.13752e-07
3.05123e-07
1.92945e-07
7.66972e-08
-5.92264e-08
-2.42527e-07
-2.80588e-07
3.08407e-06
2.96054e-06
2.84979e-06
2.78776e-06
2.75655e-06
2.74765e-06
2.75754e-06
2.78318e-06
2.82191e-06
2.87156e-06
2.9304e-06
2.99699e-06
3.07001e-06
3.14826e-06
3.23057e-06
3.31574e-06
3.40254e-06
3.48966e-06
3.57578e-06
3.65952e-06
3.73954e-06
3.81454e-06
3.88339e-06
3.94512e-06
3.99903e-06
4.04469e-06
4.08199e-06
4.11109e-06
4.13246e-06
4.14677e-06
4.15488e-06
4.15778e-06
4.15657e-06
4.15214e-06
4.14467e-06
4.13393e-06
4.12009e-06
4.10337e-06
4.08401e-06
4.06234e-06
4.03864e-06
4.01293e-06
3.98551e-06
3.9572e-06
3.92841e-06
3.89896e-06
3.86852e-06
3.83678e-06
3.80347e-06
3.76837e-06
3.73132e-06
3.69216e-06
3.65077e-06
3.60709e-06
3.56103e-06
3.51256e-06
3.46167e-06
3.40835e-06
3.35261e-06
3.29449e-06
3.23404e-06
3.1713e-06
3.10636e-06
3.03928e-06
2.97015e-06
2.89907e-06
2.82612e-06
2.75142e-06
2.67504e-06
2.5971e-06
2.51769e-06
2.43691e-06
2.35484e-06
2.27157e-06
2.18717e-06
2.10173e-06
2.01529e-06
1.92791e-06
1.83964e-06
1.75049e-06
1.66049e-06
1.56963e-06
1.4779e-06
1.38526e-06
1.29166e-06
1.19702e-06
1.10123e-06
1.00416e-06
9.05639e-07
8.05446e-07
7.03324e-07
5.98958e-07
4.91952e-07
3.81786e-07
2.68003e-07
1.5114e-07
3.09997e-08
-1.09697e-07
-3.02517e-07
-3.291e-07
3.36048e-06
3.24423e-06
3.13863e-06
3.07567e-06
3.04041e-06
3.02616e-06
3.03022e-06
3.05006e-06
3.08327e-06
3.12788e-06
3.18218e-06
3.24473e-06
3.31418e-06
3.38927e-06
3.46878e-06
3.55143e-06
3.63591e-06
3.72088e-06
3.80491e-06
3.88657e-06
3.96446e-06
4.03723e-06
4.10367e-06
4.16278e-06
4.21381e-06
4.25629e-06
4.29008e-06
4.31531e-06
4.33243e-06
4.3421e-06
4.34516e-06
4.34254e-06
4.33526e-06
4.32416e-06
4.3097e-06
4.29212e-06
4.27172e-06
4.24882e-06
4.22371e-06
4.1967e-06
4.16806e-06
4.13795e-06
4.10662e-06
4.0745e-06
4.04182e-06
4.00848e-06
3.97429e-06
3.93901e-06
3.90239e-06
3.86423e-06
3.82433e-06
3.78255e-06
3.73873e-06
3.69278e-06
3.6446e-06
3.59414e-06
3.54134e-06
3.48619e-06
3.42868e-06
3.36882e-06
3.30664e-06
3.24218e-06
3.17549e-06
3.10665e-06
3.03571e-06
2.96276e-06
2.88789e-06
2.81118e-06
2.73272e-06
2.65262e-06
2.57095e-06
2.4878e-06
2.40327e-06
2.31743e-06
2.23035e-06
2.1421e-06
2.05274e-06
1.96232e-06
1.87088e-06
1.77844e-06
1.68502e-06
1.5906e-06
1.49519e-06
1.39874e-06
1.30119e-06
1.20247e-06
1.10248e-06
1.00108e-06
8.98115e-07
7.9339e-07
6.86665e-07
5.77662e-07
4.66039e-07
3.51343e-07
2.33234e-07
1.1251e-07
-1.0806e-08
-1.55622e-07
-3.56838e-07
-3.72344e-07
3.61717e-06
3.50785e-06
3.40757e-06
3.34524e-06
3.30792e-06
3.29021e-06
3.29007e-06
3.30541e-06
3.33414e-06
3.37444e-06
3.42472e-06
3.48355e-06
3.54961e-06
3.62161e-06
3.69828e-06
3.77831e-06
3.86035e-06
3.94299e-06
4.02479e-06
4.10425e-06
4.17992e-06
4.25042e-06
4.31449e-06
4.3711e-06
4.41944e-06
4.45901e-06
4.48962e-06
4.5114e-06
4.52474e-06
4.53027e-06
4.52882e-06
4.5213e-06
4.50867e-06
4.49179e-06
4.4713e-06
4.44771e-06
4.42145e-06
4.39292e-06
4.36248e-06
4.33046e-06
4.29714e-06
4.2627e-06
4.22738e-06
4.1914e-06
4.15489e-06
4.1178e-06
4.07997e-06
4.04122e-06
4.00133e-06
3.96011e-06
3.91734e-06
3.87288e-06
3.82655e-06
3.77825e-06
3.72785e-06
3.67528e-06
3.62047e-06
3.56337e-06
3.50398e-06
3.44227e-06
3.37827e-06
3.31199e-06
3.24347e-06
3.17278e-06
3.09996e-06
3.02509e-06
2.94824e-06
2.86949e-06
2.78893e-06
2.70664e-06
2.6227e-06
2.5372e-06
2.45022e-06
2.36183e-06
2.2721e-06
2.1811e-06
2.08888e-06
1.99549e-06
1.90097e-06
1.80533e-06
1.7086e-06
1.61077e-06
1.51181e-06
1.41171e-06
1.3104e-06
1.20781e-06
1.10385e-06
9.98391e-07
8.91291e-07
7.82371e-07
6.71421e-07
5.58203e-07
4.42424e-07
3.23694e-07
2.0177e-07
7.76717e-08
-4.8412e-08
-1.96885e-07
-4.05587e-07
-4.11013e-07
3.85808e-06
3.75502e-06
3.6598e-06
3.59888e-06
3.56075e-06
3.54089e-06
3.53777e-06
3.54966e-06
3.57475e-06
3.61141e-06
3.65815e-06
3.71361e-06
3.77649e-06
3.8455e-06
3.91936e-06
3.99675e-06
4.07629e-06
4.15654e-06
4.23601e-06
4.31321e-06
4.38663e-06
4.45486e-06
4.51663e-06
4.57084e-06
4.61667e-06
4.65357e-06
4.68132e-06
4.7e-06
4.70997e-06
4.71184e-06
4.7064e-06
4.69454e-06
4.67722e-06
4.65531e-06
4.62959e-06
4.60069e-06
4.56918e-06
4.53555e-06
4.5002e-06
4.46349e-06
4.42571e-06
4.38708e-06
4.34778e-06
4.30796e-06
4.2677e-06
4.22695e-06
4.18559e-06
4.14345e-06
4.10034e-06
4.05605e-06
4.01041e-06
3.96323e-06
3.91434e-06
3.86361e-06
3.81091e-06
3.75614e-06
3.69923e-06
3.6401e-06
3.57873e-06
3.51508e-06
3.44916e-06
3.38098e-06
3.31057e-06
3.23795e-06
3.16319e-06
3.08634e-06
3.00747e-06
2.92665e-06
2.84395e-06
2.75945e-06
2.67324e-06
2.58538e-06
2.49596e-06
2.40505e-06
2.31271e-06
2.219e-06
2.12398e-06
2.02769e-06
1.93016e-06
1.83143e-06
1.73149e-06
1.63036e-06
1.528e-06
1.4244e-06
1.31951e-06
1.21325e-06
1.10553e-06
9.96262e-07
8.85298e-07
7.72484e-07
6.57641e-07
5.40567e-07
4.21015e-07
2.9865e-07
1.73307e-07
4.61917e-08
-8.23804e-08
-2.34204e-07
-4.49813e-07
-4.46203e-07
4.08556e-06
3.98805e-06
3.89744e-06
3.8383e-06
3.80011e-06
3.779e-06
3.77378e-06
3.78302e-06
3.80516e-06
3.83873e-06
3.88236e-06
3.93476e-06
3.99467e-06
4.06082e-06
4.13194e-06
4.20671e-06
4.28372e-06
4.36154e-06
4.43866e-06
4.51356e-06
4.58473e-06
4.65072e-06
4.71024e-06
4.76217e-06
4.80564e-06
4.84008e-06
4.86522e-06
4.8811e-06
4.88806e-06
4.88667e-06
4.87769e-06
4.86201e-06
4.84056e-06
4.81426e-06
4.78394e-06
4.75035e-06
4.71414e-06
4.67585e-06
4.63596e-06
4.59486e-06
4.55285e-06
4.51016e-06
4.46697e-06
4.42339e-06
4.37947e-06
4.33515e-06
4.29034e-06
4.24488e-06
4.19859e-06
4.15128e-06
4.10276e-06
4.05285e-06
4.00137e-06
3.94816e-06
3.89311e-06
3.83608e-06
3.77699e-06
3.71576e-06
3.65234e-06
3.58669e-06
3.51879e-06
3.44865e-06
3.37627e-06
3.30169e-06
3.22494e-06
3.14608e-06
3.06515e-06
2.98224e-06
2.89739e-06
2.81069e-06
2.72221e-06
2.63202e-06
2.54019e-06
2.44679e-06
2.35188e-06
2.25552e-06
2.15776e-06
2.05865e-06
1.95822e-06
1.85649e-06
1.75347e-06
1.64917e-06
1.54356e-06
1.43663e-06
1.32833e-06
1.2186e-06
1.10736e-06
9.94515e-07
8.7995e-07
7.63529e-07
6.45099e-07
5.24493e-07
4.01505e-07
2.75844e-07
1.47409e-07
1.75631e-08
-1.13283e-07
-2.68225e-07
-4.90294e-07
-4.78541e-07
4.3012e-06
4.2086e-06
4.12216e-06
4.06494e-06
4.02715e-06
4.00538e-06
3.99869e-06
4.0059e-06
4.02564e-06
4.05658e-06
4.09747e-06
4.1471e-06
4.20425e-06
4.26769e-06
4.33617e-06
4.40836e-06
4.48288e-06
4.55827e-06
4.63304e-06
4.70565e-06
4.77458e-06
4.83838e-06
4.89572e-06
4.94547e-06
4.98673e-06
5.01889e-06
5.04165e-06
5.05501e-06
5.05927e-06
5.05497e-06
5.04285e-06
5.02378e-06
4.99868e-06
4.96851e-06
4.93414e-06
4.89637e-06
4.85592e-06
4.81339e-06
4.76932e-06
4.72411e-06
4.67809e-06
4.63152e-06
4.58457e-06
4.53733e-06
4.48983e-06
4.44205e-06
4.39387e-06
4.34516e-06
4.29575e-06
4.24545e-06
4.19407e-06
4.14142e-06
4.08732e-06
4.03162e-06
3.97417e-06
3.91484e-06
3.85353e-06
3.79014e-06
3.72462e-06
3.6569e-06
3.58698e-06
3.51482e-06
3.44044e-06
3.36385e-06
3.28509e-06
3.20418e-06
3.12119e-06
3.03617e-06
2.94918e-06
2.86028e-06
2.76954e-06
2.67704e-06
2.58283e-06
2.48699e-06
2.38956e-06
2.29062e-06
2.1902e-06
2.08835e-06
1.98511e-06
1.88049e-06
1.77451e-06
1.66718e-06
1.55847e-06
1.44837e-06
1.33685e-06
1.22384e-06
1.10928e-06
9.93093e-07
8.75173e-07
7.55407e-07
6.33666e-07
5.09814e-07
3.8368e-07
2.55009e-07
1.23752e-07
-8.59579e-09
-1.41547e-07
-2.99419e-07
-5.27569e-07
-5.08436e-07
4.50614e-06
4.41788e-06
4.33524e-06
4.27995e-06
4.24284e-06
4.22081e-06
4.21312e-06
4.21877e-06
4.23653e-06
4.26523e-06
4.30371e-06
4.35083e-06
4.40543e-06
4.46631e-06
4.53225e-06
4.60195e-06
4.67402e-06
4.74703e-06
4.81948e-06
4.88983e-06
4.95656e-06
5.01822e-06
5.07347e-06
5.12114e-06
5.16032e-06
5.19037e-06
5.21095e-06
5.22203e-06
5.22387e-06
5.21698e-06
5.20206e-06
5.17998e-06
5.15166e-06
5.11806e-06
5.08007e-06
5.03856e-06
4.99428e-06
4.94789e-06
4.89995e-06
4.85091e-06
4.80112e-06
4.75085e-06
4.70028e-06
4.6495e-06
4.59855e-06
4.5474e-06
4.49595e-06
4.44406e-06
4.39159e-06
4.33833e-06
4.28411e-06
4.22873e-06
4.17202e-06
4.11381e-06
4.05394e-06
3.99227e-06
3.9287e-06
3.86312e-06
3.79545e-06
3.72564e-06
3.65364e-06
3.57944e-06
3.50302e-06
3.4244e-06
3.34359e-06
3.26063e-06
3.17556e-06
3.08843e-06
2.99929e-06
2.90821e-06
2.81524e-06
2.72045e-06
2.62391e-06
2.52567e-06
2.42579e-06
2.32432e-06
2.22132e-06
2.11682e-06
2.01087e-06
1.90347e-06
1.79465e-06
1.68441e-06
1.57275e-06
1.45964e-06
1.34506e-06
1.22896e-06
1.11129e-06
9.9197e-07
8.70921e-07
7.48046e-07
6.23241e-07
4.96393e-07
3.67364e-07
2.35925e-07
1.02068e-07
-3.25948e-08
-1.67517e-07
-3.2816e-07
-5.62061e-07
-5.36202e-07
4.70124e-06
4.61686e-06
4.53766e-06
4.48427e-06
4.44799e-06
4.42597e-06
4.41762e-06
4.42205e-06
4.4382e-06
4.46497e-06
4.50132e-06
4.54616e-06
4.5984e-06
4.65688e-06
4.7204e-06
4.78769e-06
4.85739e-06
4.92807e-06
4.99825e-06
5.06639e-06
5.13099e-06
5.19058e-06
5.24381e-06
5.28951e-06
5.32675e-06
5.35484e-06
5.37343e-06
5.38244e-06
5.3821e-06
5.37288e-06
5.35548e-06
5.33072e-06
5.29953e-06
5.26287e-06
5.22166e-06
5.17679e-06
5.12904e-06
5.07911e-06
5.0276e-06
4.97499e-06
4.92165e-06
4.86787e-06
4.81384e-06
4.75966e-06
4.70538e-06
4.65097e-06
4.59633e-06
4.54135e-06
4.48587e-06
4.42971e-06
4.37268e-06
4.3146e-06
4.25528e-06
4.19455e-06
4.13225e-06
4.06824e-06
4.00238e-06
3.93458e-06
3.86474e-06
3.7928e-06
3.71871e-06
3.64243e-06
3.56396e-06
3.48328e-06
3.40042e-06
3.3154e-06
3.22824e-06
3.13901e-06
3.04774e-06
2.95448e-06
2.85931e-06
2.76227e-06
2.66343e-06
2.56284e-06
2.46056e-06
2.35665e-06
2.25114e-06
2.14408e-06
2.03551e-06
1.92544e-06
1.8139e-06
1.70089e-06
1.58641e-06
1.47045e-06
1.35298e-06
1.23397e-06
1.11336e-06
9.91108e-07
8.67137e-07
7.41369e-07
6.13719e-07
4.84098e-07
3.5239e-07
2.18391e-07
8.21241e-08
-5.46982e-08
-1.91479e-07
-3.54755e-07
-5.94111e-07
-5.6209e-07
4.88715e-06
4.80628e-06
4.73023e-06
4.67866e-06
4.6433e-06
4.62148e-06
4.6127e-06
4.61619e-06
4.63098e-06
4.65609e-06
4.69055e-06
4.73332e-06
4.78337e-06
4.8396e-06
4.90082e-06
4.96581e-06
5.03322e-06
5.10164e-06
5.16962e-06
5.23562e-06
5.29815e-06
5.35574e-06
5.40704e-06
5.45088e-06
5.48628e-06
5.51256e-06
5.52931e-06
5.53644e-06
5.53414e-06
5.52284e-06
5.50322e-06
5.47608e-06
5.44233e-06
5.40294e-06
5.35884e-06
5.31093e-06
5.26003e-06
5.20687e-06
5.15206e-06
5.09612e-06
5.03945e-06
4.98235e-06
4.92502e-06
4.86759e-06
4.8101e-06
4.75253e-06
4.69481e-06
4.63681e-06
4.5784e-06
4.51938e-06
4.45959e-06
4.39884e-06
4.33693e-06
4.27369e-06
4.20896e-06
4.14259e-06
4.07444e-06
4.0044e-06
3.93238e-06
3.8583e-06
3.78209e-06
3.70373e-06
3.62319e-06
3.54045e-06
3.45553e-06
3.36844e-06
3.27921e-06
3.18788e-06
3.09449e-06
2.9991e-06
2.90175e-06
2.8025e-06
2.7014e-06
2.59852e-06
2.49391e-06
2.38761e-06
2.27968e-06
2.17015e-06
2.05906e-06
1.94643e-06
1.83228e-06
1.71663e-06
1.59947e-06
1.4808e-06
1.36059e-06
1.23883e-06
1.11547e-06
9.90468e-07
8.63766e-07
7.353e-07
6.05003e-07
4.72805e-07
3.3861e-07
2.02231e-07
6.37162e-08
-7.51311e-08
-2.13673e-07
-3.7946e-07
-6.23997e-07
-5.86306e-07
5.06441e-06
4.98674e-06
4.9136e-06
4.86377e-06
4.82936e-06
4.80785e-06
4.79882e-06
4.80157e-06
4.81523e-06
4.83889e-06
4.87165e-06
4.91254e-06
4.96057e-06
5.01468e-06
5.07373e-06
5.13652e-06
5.20173e-06
5.26798e-06
5.33383e-06
5.39776e-06
5.45829e-06
5.51397e-06
5.56343e-06
5.60549e-06
5.63917e-06
5.66377e-06
5.67884e-06
5.68425e-06
5.68017e-06
5.66701e-06
5.6454e-06
5.61613e-06
5.5801e-06
5.53825e-06
5.49155e-06
5.44089e-06
5.38713e-06
5.331e-06
5.27315e-06
5.21411e-06
5.15431e-06
5.09408e-06
5.03362e-06
4.97307e-06
4.9125e-06
4.8519e-06
4.79119e-06
4.73027e-06
4.66899e-06
4.60719e-06
4.54468e-06
4.48129e-06
4.41682e-06
4.35109e-06
4.28394e-06
4.21522e-06
4.14478e-06
4.0725e-06
3.99829e-06
3.92206e-06
3.84374e-06
3.76328e-06
3.68066e-06
3.59587e-06
3.50889e-06
3.41974e-06
3.32845e-06
3.23504e-06
3.13956e-06
3.04205e-06
2.94256e-06
2.84114e-06
2.73785e-06
2.63273e-06
2.52585e-06
2.41724e-06
2.30696e-06
2.19505e-06
2.08153e-06
1.96644e-06
1.84981e-06
1.73163e-06
1.61193e-06
1.49069e-06
1.3679e-06
1.24354e-06
1.11759e-06
9.90011e-07
8.60752e-07
7.29767e-07
5.97001e-07
4.62402e-07
3.25889e-07
1.87288e-07
4.66695e-08
-9.40848e-08
-2.34301e-07
-4.02485e-07
-6.51949e-07
-6.09019e-07
5.23349e-06
5.15876e-06
5.08831e-06
5.04014e-06
5.00669e-06
4.98557e-06
4.9764e-06
4.97857e-06
4.99127e-06
5.01367e-06
5.0449e-06
5.08407e-06
5.13022e-06
5.18235e-06
5.23935e-06
5.30004e-06
5.36315e-06
5.42732e-06
5.49111e-06
5.55305e-06
5.61166e-06
5.6655e-06
5.71321e-06
5.75359e-06
5.78566e-06
5.80868e-06
5.8222e-06
5.82606e-06
5.82037e-06
5.80553e-06
5.78214e-06
5.75096e-06
5.71287e-06
5.66883e-06
5.61978e-06
5.56664e-06
5.51026e-06
5.4514e-06
5.39074e-06
5.32882e-06
5.26609e-06
5.20289e-06
5.13946e-06
5.07595e-06
5.01243e-06
4.9489e-06
4.88531e-06
4.82155e-06
4.75748e-06
4.69296e-06
4.62779e-06
4.56181e-06
4.49481e-06
4.42662e-06
4.35708e-06
4.28602e-06
4.2133e-06
4.13879e-06
4.06239e-06
3.98401e-06
3.90358e-06
3.82103e-06
3.73635e-06
3.6495e-06
3.56048e-06
3.46929e-06
3.37595e-06
3.28049e-06
3.18295e-06
3.08335e-06
2.98176e-06
2.87822e-06
2.77278e-06
2.66549e-06
2.55639e-06
2.44555e-06
2.33301e-06
2.2188e-06
2.10296e-06
1.98552e-06
1.8665e-06
1.74592e-06
1.6238e-06
1.50012e-06
1.37489e-06
1.24809e-06
1.1197e-06
9.89699e-07
8.58045e-07
7.24703e-07
5.8963e-07
4.52788e-07
3.14109e-07
1.73428e-07
3.08332e-08
-1.11722e-07
-2.53533e-07
-4.24006e-07
-6.7816e-07
-6.30369e-07
5.39479e-06
5.32277e-06
5.25482e-06
5.20824e-06
5.17573e-06
5.15505e-06
5.14584e-06
5.14755e-06
5.15943e-06
5.1807e-06
5.21055e-06
5.24814e-06
5.29255e-06
5.34282e-06
5.39788e-06
5.45659e-06
5.51769e-06
5.57985e-06
5.64168e-06
5.70171e-06
5.75849e-06
5.81056e-06
5.8566e-06
5.89539e-06
5.92595e-06
5.94751e-06
5.9596e-06
5.96203e-06
5.95489e-06
5.93853e-06
5.91353e-06
5.88064e-06
5.84072e-06
5.7947e-06
5.74352e-06
5.68812e-06
5.62935e-06
5.56799e-06
5.50472e-06
5.44012e-06
5.37465e-06
5.30866e-06
5.24242e-06
5.17608e-06
5.10974e-06
5.0434e-06
4.97702e-06
4.91052e-06
4.84375e-06
4.77657e-06
4.70881e-06
4.64028e-06
4.5708e-06
4.50019e-06
4.42827e-06
4.3549e-06
4.27992e-06
4.2032e-06
4.12462e-06
4.04411e-06
3.96157e-06
3.87695e-06
3.79021e-06
3.70133e-06
3.61028e-06
3.51706e-06
3.42171e-06
3.32422e-06
3.22465e-06
3.12301e-06
3.01936e-06
2.91375e-06
2.80621e-06
2.69681e-06
2.58558e-06
2.47258e-06
2.35785e-06
2.24143e-06
2.12335e-06
2.00366e-06
1.88237e-06
1.75951e-06
1.63508e-06
1.5091e-06
1.38156e-06
1.25246e-06
1.12178e-06
9.89498e-07
8.55598e-07
7.20047e-07
5.82816e-07
4.43874e-07
3.03166e-07
1.60534e-07
1.60777e-08
-1.28181e-07
-2.71513e-07
-4.44174e-07
-7.02793e-07
-6.50479e-07
5.54866e-06
5.47916e-06
5.41356e-06
5.36847e-06
5.3369e-06
5.31667e-06
5.30749e-06
5.30883e-06
5.32e-06
5.34026e-06
5.36886e-06
5.40499e-06
5.44779e-06
5.49632e-06
5.54955e-06
5.60636e-06
5.66555e-06
5.72581e-06
5.78575e-06
5.84396e-06
5.89897e-06
5.94936e-06
5.99381e-06
6.0311e-06
6.06023e-06
6.08043e-06
6.0912e-06
6.09232e-06
6.08386e-06
6.06613e-06
6.03969e-06
6.00526e-06
5.96368e-06
5.91588e-06
5.86278e-06
5.80532e-06
5.74436e-06
5.6807e-06
5.61502e-06
5.54792e-06
5.47988e-06
5.41127e-06
5.34236e-06
5.27334e-06
5.2043e-06
5.13527e-06
5.06622e-06
4.99706e-06
4.92767e-06
4.85792e-06
4.78762e-06
4.7166e-06
4.64468e-06
4.57169e-06
4.49745e-06
4.42179e-06
4.34457e-06
4.26566e-06
4.18494e-06
4.1023e-06
4.01768e-06
3.93101e-06
3.84224e-06
3.75133e-06
3.65828e-06
3.56307e-06
3.46572e-06
3.36625e-06
3.26468e-06
3.16104e-06
3.05539e-06
2.94775e-06
2.83818e-06
2.72672e-06
2.61342e-06
2.49833e-06
2.3815e-06
2.26296e-06
2.14275e-06
2.0209e-06
1.89745e-06
1.77241e-06
1.6458e-06
1.51763e-06
1.38791e-06
1.25663e-06
1.12379e-06
9.89375e-07
8.53367e-07
7.15746e-07
5.76491e-07
4.35582e-07
2.9297e-07
1.48502e-07
2.29117e-09
-1.43582e-07
-2.88363e-07
-4.63114e-07
-7.25985e-07
-6.6945e-07
5.69542e-06
5.62828e-06
5.56486e-06
5.5212e-06
5.49053e-06
5.47078e-06
5.46167e-06
5.46272e-06
5.47326e-06
5.49262e-06
5.52008e-06
5.55487e-06
5.59616e-06
5.64306e-06
5.69456e-06
5.74958e-06
5.80694e-06
5.86538e-06
5.92353e-06
5.97998e-06
6.03331e-06
6.0821e-06
6.12503e-06
6.1609e-06
6.18869e-06
6.20762e-06
6.21717e-06
6.21709e-06
6.20742e-06
6.18846e-06
6.16072e-06
6.12491e-06
6.08183e-06
6.03241e-06
5.97757e-06
5.91824e-06
5.85528e-06
5.78949e-06
5.72159e-06
5.65216e-06
5.58171e-06
5.51063e-06
5.43921e-06
5.36763e-06
5.29602e-06
5.22442e-06
5.15279e-06
5.08107e-06
5.00915e-06
4.93689e-06
4.86413e-06
4.79069e-06
4.71639e-06
4.64106e-06
4.56452e-06
4.48662e-06
4.4072e-06
4.32613e-06
4.24328e-06
4.15856e-06
4.07189e-06
3.98318e-06
3.8924e-06
3.79951e-06
3.70448e-06
3.60731e-06
3.50801e-06
3.40658e-06
3.30306e-06
3.19747e-06
3.08985e-06
2.98024e-06
2.8687e-06
2.75525e-06
2.63996e-06
2.52286e-06
2.404e-06
2.28342e-06
2.16116e-06
2.03726e-06
1.91175e-06
1.78464e-06
1.65596e-06
1.52572e-06
1.39394e-06
1.26061e-06
1.12573e-06
9.89304e-07
8.51316e-07
7.11752e-07
5.70597e-07
4.27841e-07
2.8344e-07
1.37245e-07
-1.06227e-08
-1.58026e-07
-3.04189e-07
-4.80935e-07
-7.47855e-07
-6.8737e-07
5.83536e-06
5.77043e-06
5.70907e-06
5.66676e-06
5.63697e-06
5.61769e-06
5.60869e-06
5.60949e-06
5.61949e-06
5.63803e-06
5.66444e-06
5.69799e-06
5.73788e-06
5.78323e-06
5.8331e-06
5.88643e-06
5.94206e-06
5.99876e-06
6.05519e-06
6.10997e-06
6.1617e-06
6.20897e-06
6.25046e-06
6.28498e-06
6.31151e-06
6.32925e-06
6.33767e-06
6.33649e-06
6.32572e-06
6.30564e-06
6.27673e-06
6.23966e-06
6.19524e-06
6.14435e-06
6.08793e-06
6.02689e-06
5.96209e-06
5.89435e-06
5.82438e-06
5.75278e-06
5.68008e-06
5.60668e-06
5.53288e-06
5.45888e-06
5.38482e-06
5.31075e-06
5.23665e-06
5.16248e-06
5.08811e-06
5.01343e-06
4.93827e-06
4.86247e-06
4.78585e-06
4.70823e-06
4.62946e-06
4.54935e-06
4.46777e-06
4.38457e-06
4.29964e-06
4.21286e-06
4.12416e-06
4.03346e-06
3.9407e-06
3.84585e-06
3.74888e-06
3.64979e-06
3.54857e-06
3.44523e-06
3.3398e-06
3.2323e-06
3.12278e-06
3.01126e-06
2.8978e-06
2.78243e-06
2.66521e-06
2.54617e-06
2.42537e-06
2.30284e-06
2.17863e-06
2.05276e-06
1.92528e-06
1.7962e-06
1.66556e-06
1.53337e-06
1.39963e-06
1.26437e-06
1.12758e-06
9.8926e-07
8.4941e-07
7.08021e-07
5.65083e-07
4.20591e-07
2.74508e-07
1.26686e-07
-2.27469e-08
-1.71601e-07
-3.1908e-07
-4.9773e-07
-7.68505e-07
-7.04317e-07
5.96874e-06
5.90589e-06
5.84647e-06
5.80544e-06
5.77649e-06
5.75769e-06
5.74881e-06
5.74942e-06
5.75894e-06
5.77674e-06
5.80218e-06
5.83457e-06
5.87314e-06
5.91706e-06
5.96538e-06
6.0171e-06
6.07109e-06
6.12614e-06
6.18093e-06
6.23412e-06
6.28431e-06
6.33013e-06
6.37026e-06
6.40351e-06
6.42885e-06
6.44548e-06
6.45284e-06
6.45065e-06
6.43888e-06
6.41778e-06
6.3878e-06
6.3496e-06
6.30396e-06
6.25176e-06
6.1939e-06
6.13129e-06
6.06481e-06
5.99526e-06
5.92337e-06
5.84976e-06
5.77496e-06
5.69937e-06
5.62332e-06
5.54703e-06
5.47063e-06
5.39421e-06
5.31775e-06
5.2412e-06
5.16448e-06
5.08745e-06
5.00998e-06
4.93188e-06
4.853e-06
4.77316e-06
4.69219e-06
4.60994e-06
4.52623e-06
4.44095e-06
4.35397e-06
4.26518e-06
4.17449e-06
4.08182e-06
3.98713e-06
3.89036e-06
3.79149e-06
3.69051e-06
3.58742e-06
3.48222e-06
3.37493e-06
3.26558e-06
3.1542e-06
3.04083e-06
2.92551e-06
2.80829e-06
2.68921e-06
2.56831e-06
2.44564e-06
2.32125e-06
2.19516e-06
2.06742e-06
1.93807e-06
1.80713e-06
1.67462e-06
1.54058e-06
1.405e-06
1.26791e-06
1.12932e-06
9.8922e-07
8.47621e-07
7.04517e-07
5.59904e-07
4.13781e-07
2.66114e-07
1.16759e-07
-3.41526e-08
-1.84382e-07
-3.33114e-07
-5.13579e-07
-7.88023e-07
-7.20355e-07
6.09582e-06
6.03492e-06
5.97733e-06
5.93752e-06
5.90937e-06
5.89104e-06
5.8823e-06
5.88275e-06
5.89184e-06
5.90896e-06
5.93352e-06
5.96483e-06
6.00217e-06
6.04472e-06
6.09159e-06
6.14179e-06
6.19422e-06
6.24769e-06
6.30093e-06
6.3526e-06
6.40133e-06
6.44576e-06
6.48459e-06
6.51664e-06
6.54086e-06
6.55645e-06
6.56283e-06
6.5597e-06
6.54702e-06
6.52499e-06
6.49405e-06
6.45483e-06
6.40809e-06
6.35468e-06
6.29551e-06
6.23148e-06
6.16345e-06
6.09224e-06
6.01857e-06
5.94308e-06
5.8663e-06
5.78866e-06
5.71049e-06
5.63202e-06
5.55341e-06
5.47474e-06
5.39602e-06
5.3172e-06
5.23821e-06
5.15892e-06
5.0792e-06
4.99889e-06
4.91781e-06
4.83581e-06
4.75271e-06
4.66834e-06
4.58258e-06
4.49526e-06
4.40627e-06
4.3155e-06
4.22287e-06
4.12828e-06
4.03169e-06
3.93305e-06
3.83232e-06
3.7295e-06
3.62458e-06
3.51756e-06
3.40846e-06
3.29731e-06
3.18414e-06
3.06898e-06
2.95187e-06
2.83286e-06
2.71199e-06
2.5893e-06
2.46485e-06
2.33866e-06
2.21079e-06
2.08127e-06
1.95014e-06
1.81743e-06
1.68316e-06
1.54736e-06
1.41004e-06
1.27123e-06
1.13094e-06
9.89169e-07
8.45925e-07
7.01209e-07
5.55021e-07
4.07364e-07
2.58208e-07
1.07407e-07
-4.49011e-08
-1.96432e-07
-3.46356e-07
-5.28551e-07
-8.06484e-07
-7.35543e-07
6.21681e-06
6.15775e-06
6.10189e-06
6.06323e-06
6.03586e-06
6.01798e-06
6.0094e-06
6.00972e-06
6.01841e-06
6.03492e-06
6.05865e-06
6.08895e-06
6.12514e-06
6.16641e-06
6.21191e-06
6.26067e-06
6.31161e-06
6.36359e-06
6.41535e-06
6.46557e-06
6.51291e-06
6.55603e-06
6.59363e-06
6.62453e-06
6.6477e-06
6.66231e-06
6.66779e-06
6.66379e-06
6.65026e-06
6.62739e-06
6.59558e-06
6.55543e-06
6.50769e-06
6.45319e-06
6.39283e-06
6.32749e-06
6.25804e-06
6.18529e-06
6.10997e-06
6.03273e-06
5.9541e-06
5.87453e-06
5.79436e-06
5.71384e-06
5.63312e-06
5.55231e-06
5.47142e-06
5.39043e-06
5.30926e-06
5.2278e-06
5.14591e-06
5.06345e-06
4.98025e-06
4.89614e-06
4.81096e-06
4.72456e-06
4.63677e-06
4.54747e-06
4.45653e-06
4.36383e-06
4.2693e-06
4.17284e-06
4.07439e-06
3.97392e-06
3.87139e-06
3.76677e-06
3.66007e-06
3.55129e-06
3.44044e-06
3.32754e-06
3.21263e-06
3.09574e-06
2.9769e-06
2.85617e-06
2.73358e-06
2.60918e-06
2.48301e-06
2.35512e-06
2.22555e-06
2.09433e-06
1.96151e-06
1.82711e-06
1.69118e-06
1.55372e-06
1.41476e-06
1.27433e-06
1.13244e-06
9.89092e-07
8.44301e-07
6.9807e-07
5.50403e-07
4.01304e-07
2.50745e-07
9.85818e-08
-5.50449e-08
-2.07809e-07
-3.58864e-07
-5.42704e-07
-8.23956e-07
-7.4993e-07
6.33193e-06
6.2746e-06
6.22037e-06
6.18281e-06
6.15618e-06
6.13875e-06
6.13032e-06
6.13054e-06
6.13888e-06
6.15481e-06
6.17777e-06
6.20714e-06
6.24224e-06
6.28231e-06
6.32651e-06
6.3739e-06
6.42345e-06
6.474e-06
6.52435e-06
6.57319e-06
6.61921e-06
6.66108e-06
6.69751e-06
6.72732e-06
6.7495e-06
6.7632e-06
6.76782e-06
6.76303e-06
6.74873e-06
6.72508e-06
6.69248e-06
6.65149e-06
6.60284e-06
6.54736e-06
6.4859e-06
6.41936e-06
6.34861e-06
6.27444e-06
6.19759e-06
6.11872e-06
6.03837e-06
5.95699e-06
5.87493e-06
5.79245e-06
5.70974e-06
5.62689e-06
5.54394e-06
5.46087e-06
5.3776e-06
5.29405e-06
5.21008e-06
5.12554e-06
5.04028e-06
4.95414e-06
4.86695e-06
4.77856e-06
4.68882e-06
4.59759e-06
4.50474e-06
4.41017e-06
4.31378e-06
4.2155e-06
4.11525e-06
4.013e-06
3.9087e-06
3.80235e-06
3.69392e-06
3.58342e-06
3.47088e-06
3.35629e-06
3.2397e-06
3.12114e-06
3.00065e-06
2.87826e-06
2.75402e-06
2.62798e-06
2.50017e-06
2.37065e-06
2.23946e-06
2.10663e-06
1.9722e-06
1.83621e-06
1.69869e-06
1.55967e-06
1.41917e-06
1.27721e-06
1.1338e-06
9.88977e-07
8.42733e-07
6.95078e-07
5.4602e-07
3.95566e-07
2.43689e-07
9.02418e-08
-6.46291e-08
-2.18559e-07
-3.70687e-07
-5.5609e-07
-8.40495e-07
-7.63559e-07
6.44137e-06
6.38568e-06
6.33299e-06
6.29647e-06
6.27054e-06
6.25354e-06
6.24528e-06
6.2454e-06
6.25342e-06
6.26883e-06
6.29108e-06
6.31957e-06
6.35365e-06
6.39259e-06
6.43557e-06
6.48166e-06
6.52987e-06
6.57908e-06
6.62809e-06
6.67562e-06
6.72039e-06
6.76106e-06
6.79638e-06
6.82517e-06
6.84641e-06
6.85925e-06
6.86308e-06
6.85754e-06
6.84253e-06
6.81818e-06
6.78485e-06
6.7431e-06
6.69363e-06
6.63724e-06
6.5748e-06
6.50716e-06
6.4352e-06
6.35972e-06
6.28146e-06
6.20106e-06
6.1191e-06
6.03601e-06
5.95218e-06
5.86787e-06
5.78326e-06
5.69848e-06
5.61356e-06
5.52849e-06
5.44322e-06
5.35766e-06
5.27168e-06
5.18515e-06
5.09791e-06
5.0098e-06
4.92066e-06
4.83035e-06
4.73871e-06