/*--------------------------------*- C++ -*----------------------------------*\
  =========                 |
  \\      /  F ield         | OpenFOAM: The Open Source CFD Toolbox
   \\    /   O peration     | Website:  https://openfoam.org
    \\  /    A nd           | Version:  11
     \\/     M anipulation  |
\*---------------------------------------------------------------------------*/
FoamFile
{
    format      ascii;
    class       volScalarField;
    location    "56";
    object      k;
}
// * * * * * * * * * * * * * * * * * * * * * * * * * * * * * * * * * * * * * //

dimensions      [0 2 -2 0 0 0 0];

internalField   nonuniform List<scalar> 
10000
(
0.000939714
0.000835828
0.000746144
0.000668534
0.000601233
0.000542779
0.000491957
0.000447751
0.00040931
0.000375917
0.000346955
0.000321897
0.000300276
0.000281681
0.000265742
0.000252125
0.000240529
0.000230681
0.00022234
0.000215288
0.000209335
0.000204315
0.000200085
0.000196521
0.00019352
0.00019099
0.000188857
0.00018706
0.000185544
0.000184267
0.000183188
0.000182277
0.000181504
0.000180847
0.000180288
0.000179811
0.000179402
0.000179051
0.000178747
0.000178484
0.000178255
0.000178053
0.000177876
0.000177718
0.000177576
0.000177449
0.000177334
0.000177229
0.000177132
0.000177043
0.000176961
0.000176884
0.000176813
0.000176746
0.000176683
0.000176624
0.000176569
0.000176517
0.000176468
0.000176421
0.000176378
0.000176337
0.000176298
0.000176261
0.000176227
0.000176194
0.000176163
0.000176134
0.000176107
0.000176081
0.000176057
0.000176034
0.000176012
0.000175991
0.000175972
0.000175954
0.000175936
0.00017592
0.000175904
0.000175889
0.000175875
0.000175861
0.000175848
0.000175836
0.000175824
0.000175813
0.000175802
0.000175792
0.000175782
0.000175773
0.000175764
0.000175756
0.000175748
0.000175741
0.000175735
0.000175729
0.000175725
0.000175721
0.000175718
0.000175717
0.000939714
0.000835834
0.000746156
0.000668549
0.000601252
0.0005428
0.00049198
0.000447776
0.000409337
0.000375944
0.000346983
0.000321925
0.000300304
0.000281708
0.000265768
0.000252151
0.000240553
0.000230705
0.000222362
0.000215309
0.000209355
0.000204334
0.000200102
0.000196538
0.000193536
0.000191006
0.000188874
0.000187077
0.000185561
0.000184283
0.000183203
0.000182289
0.000181515
0.000180857
0.000180297
0.00017982
0.000179411
0.000179059
0.000178755
0.000178492
0.000178262
0.000178061
0.000177883
0.000177724
0.000177583
0.000177455
0.00017734
0.000177234
0.000177137
0.000177048
0.000176966
0.000176889
0.000176817
0.00017675
0.000176687
0.000176628
0.000176573
0.00017652
0.000176471
0.000176425
0.000176381
0.000176339
0.0001763
0.000176264
0.000176229
0.000176196
0.000176165
0.000176136
0.000176109
0.000176083
0.000176058
0.000176035
0.000176014
0.000175993
0.000175973
0.000175955
0.000175937
0.000175921
0.000175905
0.00017589
0.000175876
0.000175862
0.000175849
0.000175837
0.000175825
0.000175813
0.000175803
0.000175792
0.000175783
0.000175773
0.000175764
0.000175756
0.000175749
0.000175742
0.000175735
0.00017573
0.000175725
0.000175721
0.000175719
0.000175717
0.000939716
0.000835844
0.000746175
0.000668576
0.000601284
0.000542838
0.000492021
0.000447819
0.000409381
0.000375989
0.000347029
0.00032197
0.000300348
0.000281751
0.000265809
0.000252188
0.000240588
0.000230737
0.000222392
0.000215335
0.000209378
0.000204355
0.000200122
0.000196556
0.000193552
0.000191022
0.000188889
0.000187091
0.000185575
0.000184295
0.000183214
0.000182299
0.000181524
0.000180866
0.000180305
0.000179827
0.000179417
0.000179065
0.000178762
0.000178498
0.000178268
0.000178066
0.000177888
0.00017773
0.000177588
0.00017746
0.000177344
0.000177239
0.000177142
0.000177053
0.00017697
0.000176893
0.000176821
0.000176754
0.000176691
0.000176632
0.000176576
0.000176524
0.000176475
0.000176428
0.000176384
0.000176343
0.000176304
0.000176267
0.000176232
0.000176199
0.000176168
0.000176139
0.000176111
0.000176085
0.000176061
0.000176038
0.000176016
0.000175995
0.000175975
0.000175957
0.000175939
0.000175923
0.000175907
0.000175892
0.000175877
0.000175864
0.000175851
0.000175838
0.000175826
0.000175815
0.000175804
0.000175793
0.000175784
0.000175774
0.000175765
0.000175757
0.000175749
0.000175742
0.000175736
0.00017573
0.000175726
0.000175722
0.000175719
0.000175718
0.000939718
0.000835855
0.000746197
0.000668608
0.000601326
0.000542887
0.000492075
0.000447878
0.000409443
0.000376053
0.000347092
0.000322033
0.000300409
0.000281809
0.000265863
0.000252239
0.000240634
0.000230779
0.000222429
0.000215369
0.000209408
0.000204381
0.000200145
0.000196576
0.00019357
0.000191038
0.000188904
0.000187105
0.000185587
0.000184306
0.000183224
0.000182308
0.000181532
0.000180873
0.000180312
0.000179833
0.000179423
0.000179071
0.000178767
0.000178503
0.000178273
0.000178071
0.000177893
0.000177734
0.000177593
0.000177465
0.000177349
0.000177243
0.000177147
0.000177057
0.000176974
0.000176898
0.000176826
0.000176759
0.000176696
0.000176636
0.000176581
0.000176528
0.000176479
0.000176432
0.000176388
0.000176347
0.000176307
0.00017627
0.000176235
0.000176203
0.000176172
0.000176142
0.000176115
0.000176088
0.000176064
0.00017604
0.000176018
0.000175998
0.000175978
0.000175959
0.000175942
0.000175925
0.000175909
0.000175894
0.000175879
0.000175866
0.000175852
0.00017584
0.000175828
0.000175816
0.000175805
0.000175795
0.000175785
0.000175776
0.000175767
0.000175758
0.000175751
0.000175743
0.000175737
0.000175731
0.000175727
0.000175723
0.00017572
0.000175719
0.000939721
0.000835867
0.000746221
0.000668644
0.000601373
0.000542944
0.000492141
0.000447949
0.000409519
0.00037613
0.000347171
0.00032211
0.000300484
0.00028188
0.00026593
0.000252301
0.000240691
0.00023083
0.000222475
0.000215409
0.000209444
0.000204412
0.000200172
0.0001966
0.000193591
0.000191056
0.00018892
0.000187119
0.0001856
0.000184317
0.000183234
0.000182317
0.00018154
0.00018088
0.000180319
0.000179839
0.000179429
0.000179076
0.000178772
0.000178508
0.000178278
0.000178076
0.000177897
0.000177739
0.000177597
0.000177469
0.000177354
0.000177248
0.000177151
0.000177062
0.000176979
0.000176902
0.00017683
0.000176763
0.0001767
0.000176641
0.000176585
0.000176533
0.000176483
0.000176436
0.000176392
0.000176351
0.000176311
0.000176274
0.000176239
0.000176206
0.000176175
0.000176146
0.000176118
0.000176092
0.000176067
0.000176044
0.000176022
0.000176001
0.000175981
0.000175962
0.000175944
0.000175927
0.000175911
0.000175896
0.000175882
0.000175868
0.000175855
0.000175842
0.00017583
0.000175818
0.000175807
0.000175797
0.000175787
0.000175777
0.000175768
0.00017576
0.000175752
0.000175745
0.000175738
0.000175733
0.000175728
0.000175724
0.000175721
0.00017572
0.000939723
0.000835879
0.000746244
0.000668681
0.000601423
0.000543006
0.000492212
0.000448028
0.000409604
0.000376219
0.000347261
0.0003222
0.000300571
0.000281964
0.000266009
0.000252374
0.000240758
0.00023089
0.000222528
0.000215456
0.000209484
0.000204448
0.000200203
0.000196626
0.000193613
0.000191075
0.000188937
0.000187134
0.000185613
0.000184329
0.000183244
0.000182325
0.000181547
0.000180887
0.000180325
0.000179845
0.000179434
0.000179081
0.000178777
0.000178513
0.000178282
0.00017808
0.000177902
0.000177743
0.000177601
0.000177474
0.000177358
0.000177252
0.000177156
0.000177066
0.000176984
0.000176907
0.000176835
0.000176768
0.000176705
0.000176645
0.00017659
0.000176537
0.000176488
0.000176441
0.000176397
0.000176355
0.000176316
0.000176279
0.000176244
0.00017621
0.000176179
0.00017615
0.000176122
0.000176095
0.000176071
0.000176047
0.000176025
0.000176004
0.000175984
0.000175965
0.000175947
0.00017593
0.000175914
0.000175899
0.000175884
0.00017587
0.000175857
0.000175844
0.000175832
0.00017582
0.000175809
0.000175799
0.000175789
0.000175779
0.00017577
0.000175761
0.000175753
0.000175746
0.00017574
0.000175734
0.000175729
0.000175725
0.000175722
0.000175721
0.000939726
0.00083589
0.000746268
0.000668718
0.000601474
0.000543069
0.000492287
0.000448113
0.000409695
0.000376315
0.000347359
0.000322298
0.000300667
0.000282056
0.000266096
0.000252454
0.000240831
0.000230956
0.000222586
0.000215507
0.000209529
0.000204486
0.000200236
0.000196654
0.000193637
0.000191096
0.000188954
0.000187148
0.000185625
0.000184339
0.000183253
0.000182333
0.000181554
0.000180893
0.00018033
0.00017985
0.000179438
0.000179085
0.00017878
0.000178516
0.000178286
0.000178084
0.000177905
0.000177747
0.000177605
0.000177477
0.000177362
0.000177256
0.00017716
0.00017707
0.000176988
0.000176911
0.000176839
0.000176772
0.000176709
0.00017665
0.000176594
0.000176542
0.000176492
0.000176445
0.000176401
0.000176359
0.00017632
0.000176283
0.000176248
0.000176214
0.000176183
0.000176154
0.000176126
0.000176099
0.000176074
0.000176051
0.000176028
0.000176007
0.000175987
0.000175968
0.00017595
0.000175933
0.000175917
0.000175901
0.000175887
0.000175873
0.000175859
0.000175846
0.000175834
0.000175822
0.000175811
0.000175801
0.00017579
0.000175781
0.000175772
0.000175763
0.000175755
0.000175748
0.000175741
0.000175735
0.00017573
0.000175727
0.000175724
0.000175722
0.000939728
0.000835901
0.00074629
0.000668754
0.000601524
0.000543133
0.000492363
0.000448199
0.00040979
0.000376416
0.000347463
0.000322402
0.000300769
0.000282154
0.000266189
0.00025254
0.000240909
0.000231026
0.000222649
0.000215562
0.000209577
0.000204527
0.00020027
0.000196684
0.000193662
0.000191117
0.000188971
0.000187163
0.000185637
0.000184349
0.000183261
0.00018234
0.00018156
0.000180897
0.000180334
0.000179853
0.000179442
0.000179088
0.000178783
0.000178519
0.000178288
0.000178086
0.000177908
0.000177749
0.000177608
0.00017748
0.000177365
0.000177259
0.000177163
0.000177074
0.000176991
0.000176915
0.000176843
0.000176776
0.000176713
0.000176654
0.000176598
0.000176546
0.000176496
0.000176449
0.000176405
0.000176364
0.000176324
0.000176287
0.000176252
0.000176218
0.000176187
0.000176157
0.000176129
0.000176103
0.000176078
0.000176054
0.000176032
0.00017601
0.00017599
0.000175971
0.000175953
0.000175936
0.00017592
0.000175904
0.000175889
0.000175875
0.000175862
0.000175849
0.000175836
0.000175825
0.000175813
0.000175803
0.000175792
0.000175783
0.000175773
0.000175765
0.000175757
0.000175749
0.000175743
0.000175737
0.000175732
0.000175728
0.000175725
0.000175724
0.000939731
0.000835912
0.000746311
0.000668788
0.000601572
0.000543195
0.000492439
0.000448286
0.000409886
0.000376518
0.000347569
0.000322509
0.000300876
0.000282257
0.000266285
0.00025263
0.000240992
0.0002311
0.000222714
0.000215619
0.000209626
0.000204569
0.000200306
0.000196714
0.000193687
0.000191137
0.000188988
0.000187177
0.000185648
0.000184358
0.000183268
0.000182346
0.000181564
0.000180901
0.000180337
0.000179855
0.000179443
0.00017909
0.000178785
0.00017852
0.00017829
0.000178088
0.000177909
0.000177751
0.00017761
0.000177482
0.000177367
0.000177262
0.000177165
0.000177077
0.000176994
0.000176918
0.000176846
0.000176779
0.000176717
0.000176658
0.000176602
0.000176549
0.0001765
0.000176453
0.000176409
0.000176367
0.000176328
0.000176291
0.000176255
0.000176222
0.000176191
0.000176161
0.000176133
0.000176106
0.000176081
0.000176057
0.000176035
0.000176014
0.000175993
0.000175974
0.000175956
0.000175939
0.000175922
0.000175907
0.000175892
0.000175877
0.000175864
0.000175851
0.000175839
0.000175827
0.000175815
0.000175804
0.000175794
0.000175784
0.000175775
0.000175766
0.000175758
0.000175751
0.000175744
0.000175738
0.000175733
0.000175729
0.000175727
0.000175725
0.000939733
0.000835922
0.000746331
0.000668821
0.000601618
0.000543256
0.000492513
0.000448372
0.000409981
0.000376621
0.000347676
0.000322618
0.000300983
0.000282361
0.000266385
0.000252722
0.000241076
0.000231176
0.000222781
0.000215678
0.000209677
0.000204613
0.000200343
0.000196744
0.000193712
0.000191158
0.000189005
0.00018719
0.000185659
0.000184366
0.000183274
0.00018235
0.000181567
0.000180903
0.000180338
0.000179856
0.000179444
0.00017909
0.000178785
0.00017852
0.00017829
0.000178088
0.00017791
0.000177752
0.00017761
0.000177483
0.000177368
0.000177263
0.000177167
0.000177078
0.000176996
0.00017692
0.000176849
0.000176782
0.000176719
0.00017666
0.000176605
0.000176553
0.000176503
0.000176457
0.000176412
0.000176371
0.000176331
0.000176294
0.000176259
0.000176225
0.000176194
0.000176164
0.000176136
0.000176109
0.000176084
0.00017606
0.000176038
0.000176016
0.000175996
0.000175977
0.000175959
0.000175941
0.000175925
0.000175909
0.000175894
0.00017588
0.000175866
0.000175853
0.00017584
0.000175829
0.000175817
0.000175806
0.000175796
0.000175786
0.000175777
0.000175768
0.00017576
0.000175752
0.000175746
0.00017574
0.000175735
0.000175731
0.000175728
0.000175726
0.000939735
0.000835931
0.00074635
0.000668852
0.000601663
0.000543314
0.000492584
0.000448456
0.000410075
0.000376722
0.000347783
0.000322727
0.000301091
0.000282466
0.000266484
0.000252815
0.000241161
0.000231253
0.000222849
0.000215737
0.000209728
0.000204656
0.000200379
0.000196774
0.000193737
0.000191177
0.00018902
0.000187202
0.000185668
0.000184373
0.000183279
0.000182353
0.000181569
0.000180904
0.000180338
0.000179855
0.000179443
0.000179089
0.000178783
0.000178519
0.000178288
0.000178087
0.000177909
0.000177751
0.00017761
0.000177483
0.000177368
0.000177264
0.000177168
0.000177079
0.000176998
0.000176921
0.00017685
0.000176784
0.000176721
0.000176663
0.000176607
0.000176555
0.000176506
0.000176459
0.000176415
0.000176374
0.000176334
0.000176297
0.000176262
0.000176228
0.000176197
0.000176167
0.000176139
0.000176112
0.000176087
0.000176063
0.00017604
0.000176019
0.000175998
0.000175979
0.000175961
0.000175943
0.000175927
0.000175911
0.000175896
0.000175882
0.000175868
0.000175855
0.000175842
0.00017583
0.000175819
0.000175808
0.000175797
0.000175788
0.000175778
0.000175769
0.000175761
0.000175754
0.000175747
0.000175741
0.000175736
0.000175732
0.000175729
0.000175728
0.000939737
0.00083594
0.000746368
0.000668881
0.000601705
0.000543369
0.000492653
0.000448536
0.000410166
0.000376821
0.000347887
0.000322833
0.000301198
0.00028257
0.000266583
0.000252908
0.000241246
0.000231329
0.000222917
0.000215796
0.000209778
0.000204699
0.000200415
0.000196804
0.000193761
0.000191196
0.000189035
0.000187213
0.000185676
0.000184378
0.000183282
0.000182355
0.000181569
0.000180903
0.000180336
0.000179853
0.00017944
0.000179086
0.00017878
0.000178516
0.000178286
0.000178084
0.000177906
0.000177749
0.000177608
0.000177482
0.000177367
0.000177263
0.000177167
0.000177079
0.000176998
0.000176922
0.000176851
0.000176785
0.000176723
0.000176664
0.000176609
0.000176557
0.000176508
0.000176461
0.000176417
0.000176376
0.000176336
0.000176299
0.000176264
0.000176231
0.000176199
0.000176169
0.000176141
0.000176114
0.000176089
0.000176065
0.000176042
0.000176021
0.000176
0.000175981
0.000175963
0.000175945
0.000175929
0.000175913
0.000175898
0.000175883
0.000175869
0.000175856
0.000175844
0.000175832
0.00017582
0.000175809
0.000175799
0.000175789
0.00017578
0.000175771
0.000175763
0.000175755
0.000175748
0.000175742
0.000175737
0.000175733
0.00017573
0.000175729
0.000939739
0.000835948
0.000746385
0.000668909
0.000601745
0.000543422
0.000492718
0.000448614
0.000410254
0.000376917
0.000347988
0.000322937
0.000301302
0.000282672
0.00026668
0.000252999
0.000241329
0.000231404
0.000222983
0.000215854
0.000209828
0.00020474
0.000200449
0.000196832
0.000193783
0.000191214
0.000189048
0.000187222
0.000185682
0.000184382
0.000183283
0.000182355
0.000181568
0.0001809
0.000180333
0.00017985
0.000179436
0.000179082
0.000178776
0.000178512
0.000178282
0.00017808
0.000177903
0.000177746
0.000177605
0.000177479
0.000177365
0.000177261
0.000177166
0.000177078
0.000176997
0.000176921
0.000176851
0.000176785
0.000176723
0.000176665
0.00017661
0.000176558
0.000176509
0.000176462
0.000176419
0.000176377
0.000176338
0.000176301
0.000176266
0.000176232
0.000176201
0.000176171
0.000176143
0.000176116
0.000176091
0.000176067
0.000176044
0.000176022
0.000176002
0.000175983
0.000175964
0.000175947
0.00017593
0.000175914
0.000175899
0.000175884
0.000175871
0.000175857
0.000175845
0.000175833
0.000175821
0.00017581
0.0001758
0.00017579
0.000175781
0.000175772
0.000175764
0.000175756
0.00017575
0.000175744
0.000175739
0.000175734
0.000175732
0.00017573
0.000939741
0.000835956
0.000746401
0.000668935
0.000601783
0.000543472
0.000492781
0.000448688
0.000410337
0.000377008
0.000348085
0.000323038
0.000301403
0.000282771
0.000266775
0.000253088
0.000241411
0.000231478
0.000223049
0.000215911
0.000209876
0.000204781
0.000200483
0.000196859
0.000193804
0.00019123
0.00018906
0.00018723
0.000185687
0.000184384
0.000183284
0.000182353
0.000181565
0.000180896
0.000180328
0.000179844
0.000179431
0.000179076
0.00017877
0.000178506
0.000178276
0.000178075
0.000177898
0.000177741
0.000177601
0.000177475
0.000177361
0.000177258
0.000177163
0.000177076
0.000176995
0.00017692
0.00017685
0.000176784
0.000176722
0.000176664
0.00017661
0.000176558
0.000176509
0.000176463
0.000176419
0.000176378
0.000176339
0.000176302
0.000176267
0.000176233
0.000176202
0.000176172
0.000176144
0.000176117
0.000176092
0.000176068
0.000176045
0.000176024
0.000176003
0.000175984
0.000175965
0.000175948
0.000175931
0.000175915
0.0001759
0.000175885
0.000175872
0.000175858
0.000175846
0.000175834
0.000175822
0.000175811
0.000175801
0.000175791
0.000175782
0.000175773
0.000175765
0.000175757
0.00017575
0.000175745
0.000175739
0.000175735
0.000175733
0.000175731
0.000939743
0.000835963
0.000746416
0.00066896
0.000601818
0.00054352
0.00049284
0.000448758
0.000410417
0.000377096
0.000348179
0.000323135
0.0003015
0.000282866
0.000266867
0.000253174
0.00024149
0.000231549
0.000223112
0.000215965
0.000209923
0.00020482
0.000200515
0.000196884
0.000193824
0.000191245
0.00018907
0.000187237
0.00018569
0.000184385
0.000183282
0.00018235
0.000181561
0.000180891
0.000180322
0.000179838
0.000179424
0.000179069
0.000178763
0.000178499
0.000178269
0.000178068
0.000177891
0.000177735
0.000177595
0.00017747
0.000177357
0.000177254
0.000177159
0.000177072
0.000176992
0.000176917
0.000176847
0.000176782
0.000176721
0.000176663
0.000176609
0.000176557
0.000176509
0.000176463
0.000176419
0.000176378
0.000176339
0.000176302
0.000176267
0.000176234
0.000176202
0.000176173
0.000176144
0.000176118
0.000176092
0.000176068
0.000176046
0.000176024
0.000176004
0.000175984
0.000175966
0.000175948
0.000175931
0.000175916
0.0001759
0.000175886
0.000175872
0.000175859
0.000175846
0.000175834
0.000175823
0.000175812
0.000175801
0.000175792
0.000175782
0.000175773
0.000175765
0.000175758
0.000175751
0.000175745
0.00017574
0.000175736
0.000175733
0.000175732
0.000939745
0.00083597
0.000746431
0.000668983
0.000601852
0.000543564
0.000492896
0.000448824
0.000410493
0.00037718
0.000348268
0.000323227
0.000301594
0.000282958
0.000266955
0.000253257
0.000241566
0.000231618
0.000223172
0.000216018
0.000209968
0.000204857
0.000200545
0.000196908
0.000193842
0.000191258
0.000189079
0.000187242
0.000185692
0.000184384
0.00018328
0.000182345
0.000181555
0.000180884
0.000180315
0.000179829
0.000179415
0.00017906
0.000178754
0.00017849
0.000178261
0.00017806
0.000177884
0.000177728
0.000177589
0.000177464
0.000177351
0.000177248
0.000177154
0.000177068
0.000176988
0.000176914
0.000176844
0.000176779
0.000176718
0.000176661
0.000176607
0.000176556
0.000176507
0.000176462
0.000176418
0.000176377
0.000176338
0.000176302
0.000176267
0.000176234
0.000176202
0.000176173
0.000176144
0.000176118
0.000176092
0.000176068
0.000176046
0.000176024
0.000176004
0.000175984
0.000175966
0.000175948
0.000175932
0.000175916
0.0001759
0.000175886
0.000175872
0.000175859
0.000175846
0.000175834
0.000175823
0.000175812
0.000175802
0.000175792
0.000175783
0.000175774
0.000175766
0.000175758
0.000175752
0.000175746
0.000175741
0.000175737
0.000175734
0.000175732
0.000939746
0.000835976
0.000746444
0.000669005
0.000601883
0.000543606
0.000492948
0.000448887
0.000410565
0.000377259
0.000348353
0.000323315
0.000301683
0.000283046
0.00026704
0.000253336
0.000241639
0.000231684
0.00022323
0.000216068
0.00021001
0.000204892
0.000200573
0.00019693
0.000193859
0.000191269
0.000189086
0.000187246
0.000185693
0.000184382
0.000183275
0.00018234
0.000181547
0.000180876
0.000180306
0.00017982
0.000179405
0.00017905
0.000178745
0.000178481
0.000178251
0.000178051
0.000177875
0.000177719
0.000177581
0.000177456
0.000177344
0.000177242
0.000177148
0.000177062
0.000176983
0.000176909
0.00017684
0.000176776
0.000176715
0.000176658
0.000176604
0.000176553
0.000176505
0.00017646
0.000176417
0.000176376
0.000176337
0.0001763
0.000176266
0.000176233
0.000176201
0.000176172
0.000176144
0.000176117
0.000176092
0.000176068
0.000176045
0.000176024
0.000176003
0.000175984
0.000175965
0.000175948
0.000175931
0.000175915
0.0001759
0.000175886
0.000175872
0.000175859
0.000175846
0.000175834
0.000175823
0.000175812
0.000175802
0.000175792
0.000175783
0.000175774
0.000175766
0.000175759
0.000175752
0.000175746
0.000175741
0.000175737
0.000175734
0.000175733
0.000939748
0.000835983
0.000746456
0.000669025
0.000601913
0.000543646
0.000492998
0.000448946
0.000410633
0.000377335
0.000348434
0.000323399
0.000301767
0.000283129
0.00026712
0.000253412
0.000241709
0.000231746
0.000223286
0.000216116
0.000210051
0.000204926
0.0002006
0.000196951
0.000193874
0.00019128
0.000189092
0.000187248
0.000185692
0.000184379
0.00018327
0.000182333
0.000181539
0.000180866
0.000180295
0.000179809
0.000179394
0.000179039
0.000178733
0.00017847
0.000178241
0.000178041
0.000177865
0.00017771
0.000177572
0.000177448
0.000177336
0.000177234
0.000177141
0.000177056
0.000176977
0.000176903
0.000176835
0.000176771
0.000176711
0.000176654
0.000176601
0.00017655
0.000176502
0.000176457
0.000176414
0.000176374
0.000176335
0.000176299
0.000176264
0.000176231
0.0001762
0.00017617
0.000176142
0.000176116
0.000176091
0.000176067
0.000176044
0.000176023
0.000176002
0.000175983
0.000175965
0.000175947
0.00017593
0.000175915
0.000175899
0.000175885
0.000175871
0.000175858
0.000175846
0.000175834
0.000175823
0.000175812
0.000175801
0.000175792
0.000175783
0.000175774
0.000175766
0.000175759
0.000175752
0.000175746
0.000175741
0.000175737
0.000175735
0.000175733
0.000939749
0.000835988
0.000746468
0.000669044
0.00060194
0.000543683
0.000493044
0.000449002
0.000410697
0.000377406
0.00034851
0.000323478
0.000301848
0.000283209
0.000267197
0.000253484
0.000241775
0.000231806
0.000223338
0.000216161
0.000210089
0.000204957
0.000200624
0.000196969
0.000193887
0.000191288
0.000189097
0.000187249
0.00018569
0.000184375
0.000183263
0.000182324
0.000181529
0.000180856
0.000180284
0.000179797
0.000179382
0.000179027
0.000178721
0.000178458
0.000178229
0.000178029
0.000177854
0.000177699
0.000177562
0.000177438
0.000177327
0.000177226
0.000177133
0.000177049
0.00017697
0.000176897
0.000176829
0.000176765
0.000176706
0.000176649
0.000176596
0.000176546
0.000176499
0.000176454
0.000176411
0.000176371
0.000176332
0.000176296
0.000176262
0.000176229
0.000176198
0.000176168
0.000176141
0.000176114
0.000176089
0.000176065
0.000176043
0.000176021
0.000176001
0.000175982
0.000175963
0.000175946
0.000175929
0.000175913
0.000175898
0.000175884
0.00017587
0.000175857
0.000175845
0.000175833
0.000175822
0.000175811
0.000175801
0.000175791
0.000175782
0.000175774
0.000175766
0.000175758
0.000175752
0.000175746
0.000175741
0.000175737
0.000175735
0.000175733
0.000939751
0.000835994
0.000746479
0.000669062
0.000601967
0.000543717
0.000493088
0.000449054
0.000410757
0.000377472
0.000348582
0.000323553
0.000301924
0.000283284
0.000267269
0.000253552
0.000241838
0.000231863
0.000223388
0.000216204
0.000210124
0.000204986
0.000200647
0.000196987
0.000193899
0.000191296
0.0001891
0.000187249
0.000185687
0.000184369
0.000183256
0.000182315
0.000181519
0.000180844
0.000180272
0.000179785
0.000179369
0.000179014
0.000178708
0.000178445
0.000178216
0.000178017
0.000177842
0.000177688
0.000177551
0.000177428
0.000177317
0.000177217
0.000177125
0.00017704
0.000176962
0.00017689
0.000176822
0.000176759
0.0001767
0.000176644
0.000176591
0.000176541
0.000176494
0.00017645
0.000176407
0.000176367
0.000176329
0.000176293
0.000176259
0.000176226
0.000176195
0.000176166
0.000176138
0.000176112
0.000176087
0.000176063
0.000176041
0.000176019
0.000175999
0.00017598
0.000175962
0.000175944
0.000175928
0.000175912
0.000175897
0.000175883
0.000175869
0.000175856
0.000175844
0.000175832
0.000175821
0.00017581
0.0001758
0.00017579
0.000175781
0.000175773
0.000175765
0.000175758
0.000175752
0.000175746
0.000175741
0.000175737
0.000175734
0.000175733
0.000939752
0.000835999
0.00074649
0.000669079
0.000601991
0.00054375
0.000493129
0.000449103
0.000410814
0.000377535
0.000348649
0.000323624
0.000301995
0.000283355
0.000267337
0.000253616
0.000241897
0.000231916
0.000223435
0.000216244
0.000210158
0.000205013
0.000200668
0.000197002
0.00019391
0.000191302
0.000189102
0.000187247
0.000185683
0.000184362
0.000183247
0.000182305
0.000181507
0.000180832
0.000180258
0.000179771
0.000179355
0.000179
0.000178694
0.000178431
0.000178203
0.000178004
0.00017783
0.000177676
0.000177539
0.000177417
0.000177306
0.000177207
0.000177115
0.000177031
0.000176954
0.000176882
0.000176815
0.000176752
0.000176693
0.000176638
0.000176586
0.000176536
0.000176489
0.000176445
0.000176403
0.000176363
0.000176325
0.000176289
0.000176255
0.000176223
0.000176192
0.000176163
0.000176135
0.000176109
0.000176084
0.000176061
0.000176038
0.000176017
0.000175997
0.000175978
0.000175959
0.000175942
0.000175926
0.00017591
0.000175895
0.000175881
0.000175867
0.000175854
0.000175842
0.00017583
0.000175819
0.000175809
0.000175799
0.000175789
0.00017578
0.000175772
0.000175764
0.000175757
0.000175751
0.000175745
0.000175741
0.000175737
0.000175734
0.000175732
0.000939753
0.000836004
0.000746499
0.000669095
0.000602014
0.000543781
0.000493167
0.00044915
0.000410867
0.000377594
0.000348713
0.00032369
0.000302063
0.000283421
0.000267402
0.000253677
0.000241953
0.000231966
0.000223479
0.000216282
0.000210189
0.000205038
0.000200688
0.000197016
0.000193919
0.000191306
0.000189103
0.000187245
0.000185678
0.000184355
0.000183238
0.000182294
0.000181495
0.000180818
0.000180245
0.000179757
0.000179341
0.000178985
0.00017868
0.000178417
0.000178189
0.00017799
0.000177816
0.000177663
0.000177527
0.000177405
0.000177295
0.000177196
0.000177105
0.000177022
0.000176945
0.000176873
0.000176807
0.000176745
0.000176686
0.000176631
0.000176579
0.00017653
0.000176484
0.00017644
0.000176398
0.000176358
0.000176321
0.000176285
0.000176251
0.000176219
0.000176189
0.00017616
0.000176132
0.000176106
0.000176081
0.000176058
0.000176035
0.000176014
0.000175994
0.000175975
0.000175957
0.00017594
0.000175923
0.000175908
0.000175893
0.000175879
0.000175865
0.000175853
0.00017584
0.000175829
0.000175818
0.000175807
0.000175797
0.000175788
0.000175779
0.000175771
0.000175763
0.000175756
0.00017575
0.000175745
0.00017574
0.000175736
0.000175733
0.000175732
0.000939754
0.000836008
0.000746508
0.00066911
0.000602035
0.000543809
0.000493203
0.000449193
0.000410917
0.00037765
0.000348772
0.000323752
0.000302126
0.000283484
0.000267462
0.000253734
0.000242006
0.000232013
0.000223521
0.000216317
0.000210218
0.000205062
0.000200706
0.000197029
0.000193927
0.00019131
0.000189103
0.000187242
0.000185672
0.000184346
0.000183227
0.000182282
0.000181482
0.000180805
0.00018023
0.000179742
0.000179325
0.00017897
0.000178664
0.000178402
0.000178174
0.000177976
0.000177802
0.000177649
0.000177514
0.000177393
0.000177283
0.000177185
0.000177094
0.000177012
0.000176935
0.000176864
0.000176798
0.000176737
0.000176679
0.000176624
0.000176572
0.000176524
0.000176478
0.000176434
0.000176392
0.000176353
0.000176316
0.00017628
0.000176247
0.000176215
0.000176184
0.000176156
0.000176128
0.000176102
0.000176078
0.000176054
0.000176032
0.000176011
0.000175991
0.000175972
0.000175954
0.000175937
0.000175921
0.000175905
0.00017589
0.000175876
0.000175863
0.00017585
0.000175838
0.000175827
0.000175816
0.000175806
0.000175796
0.000175786
0.000175778
0.00017577
0.000175762
0.000175755
0.000175749
0.000175744
0.000175739
0.000175735
0.000175733
0.000175731
0.000939756
0.000836013
0.000746517
0.000669124
0.000602055
0.000543836
0.000493237
0.000449233
0.000410963
0.000377701
0.000348828
0.000323811
0.000302186
0.000283543
0.000267519
0.000253788
0.000242055
0.000232058
0.000223559
0.00021635
0.000210246
0.000205083
0.000200722
0.00019704
0.000193933
0.000191313
0.000189102
0.000187238
0.000185665
0.000184337
0.000183217
0.00018227
0.000181469
0.00018079
0.000180215
0.000179726
0.00017931
0.000178954
0.000178649
0.000178386
0.000178159
0.000177961
0.000177788
0.000177636
0.0001775
0.00017738
0.000177271
0.000177173
0.000177083
0.000177001
0.000176925
0.000176855
0.000176789
0.000176728
0.00017667
0.000176616
0.000176565
0.000176517
0.000176471
0.000176428
0.000176387
0.000176348
0.000176311
0.000176275
0.000176242
0.00017621
0.00017618
0.000176151
0.000176124
0.000176098
0.000176074
0.000176051
0.000176028
0.000176008
0.000175988
0.000175969
0.000175951
0.000175934
0.000175918
0.000175902
0.000175888
0.000175874
0.00017586
0.000175848
0.000175836
0.000175825
0.000175814
0.000175804
0.000175794
0.000175785
0.000175776
0.000175768
0.000175761
0.000175754
0.000175748
0.000175743
0.000175738
0.000175734
0.000175732
0.00017573
0.000939757
0.000836017
0.000746525
0.000669136
0.000602074
0.000543861
0.000493269
0.000449271
0.000411007
0.00037775
0.00034888
0.000323866
0.000302241
0.000283598
0.000267573
0.000253838
0.000242101
0.000232099
0.000223595
0.000216381
0.000210271
0.000205103
0.000200736
0.00019705
0.000193939
0.000191314
0.000189101
0.000187233
0.000185658
0.000184328
0.000183205
0.000182257
0.000181455
0.000180776
0.0001802
0.000179711
0.000179294
0.000178938
0.000178633
0.00017837
0.000178143
0.000177946
0.000177773
0.000177621
0.000177487
0.000177366
0.000177258
0.000177161
0.000177072
0.00017699
0.000176915
0.000176845
0.00017678
0.000176719
0.000176662
0.000176608
0.000176558
0.00017651
0.000176464
0.000176421
0.00017638
0.000176342
0.000176305
0.00017627
0.000176237
0.000176205