/*--------------------------------*- C++ -*----------------------------------*\
  =========                 |
  \\      /  F ield         | OpenFOAM: The Open Source CFD Toolbox
   \\    /   O peration     | Website:  https://openfoam.org
    \\  /    A nd           | Version:  11
     \\/     M anipulation  |
\*---------------------------------------------------------------------------*/
FoamFile
{
    format      ascii;
    class       volVectorField;
    location    "1244";
    object      U;
}
// * * * * * * * * * * * * * * * * * * * * * * * * * * * * * * * * * * * * * //

dimensions      [0 1 -1 0 0 0 0];

internalField   nonuniform List<vector> 
10000
(
(0.005 -4.9637e-11 0)
(0.005 -1.39236e-10 0)
(0.005 -2.25484e-10 0)
(0.005 -3.11537e-10 0)
(0.005 -3.9883e-10 0)
(0.005 -4.88198e-10 0)
(0.005 -5.80256e-10 0)
(0.005 -6.7549e-10 0)
(0.005 -7.74304e-10 0)
(0.005 -8.77049e-10 0)
(0.005 -9.84045e-10 0)
(0.005 -1.09558e-09 0)
(0.005 -1.21195e-09 0)
(0.005 -1.3334e-09 0)
(0.005 -1.4602e-09 0)
(0.005 -1.5926e-09 0)
(0.005 -1.73085e-09 0)
(0.005 -1.8752e-09 0)
(0.005 -2.02588e-09 0)
(0.005 -2.18314e-09 0)
(0.005 -2.34722e-09 0)
(0.005 -2.51837e-09 0)
(0.005 -2.69683e-09 0)
(0.005 -2.88285e-09 0)
(0.005 -3.07667e-09 0)
(0.005 -3.27855e-09 0)
(0.005 -3.48874e-09 0)
(0.005 -3.70748e-09 0)
(0.005 -3.93505e-09 0)
(0.005 -4.17169e-09 0)
(0.005 -4.41768e-09 0)
(0.005 -4.67328e-09 0)
(0.005 -4.93875e-09 0)
(0.005 -5.21439e-09 0)
(0.005 -5.50045e-09 0)
(0.005 -5.79723e-09 0)
(0.005 -6.10502e-09 0)
(0.005 -6.42411e-09 0)
(0.005 -6.7548e-09 0)
(0.005 -7.09739e-09 0)
(0.005 -7.4522e-09 0)
(0.00499999 -7.81955e-09 0)
(0.00499999 -8.19977e-09 0)
(0.00499999 -8.5932e-09 0)
(0.00499999 -9.00018e-09 0)
(0.00499999 -9.42107e-09 0)
(0.00499999 -9.85625e-09 0)
(0.00499999 -1.03061e-08 0)
(0.00499999 -1.0771e-08 0)
(0.00499999 -1.12513e-08 0)
(0.00499999 -1.17476e-08 0)
(0.00499999 -1.22602e-08 0)
(0.00499999 -1.27896e-08 0)
(0.00499999 -1.33363e-08 0)
(0.00499999 -1.39008e-08 0)
(0.00499999 -1.44835e-08 0)
(0.00499999 -1.50851e-08 0)
(0.00499999 -1.57062e-08 0)
(0.00499998 -1.63472e-08 0)
(0.00499998 -1.70089e-08 0)
(0.00499998 -1.76918e-08 0)
(0.00499998 -1.83967e-08 0)
(0.00499998 -1.91242e-08 0)
(0.00499998 -1.98751e-08 0)
(0.00499998 -2.06501e-08 0)
(0.00499998 -2.14498e-08 0)
(0.00499998 -2.22752e-08 0)
(0.00499997 -2.3127e-08 0)
(0.00499997 -2.40059e-08 0)
(0.00499997 -2.49127e-08 0)
(0.00499997 -2.58482e-08 0)
(0.00499997 -2.68129e-08 0)
(0.00499997 -2.78077e-08 0)
(0.00499997 -2.8833e-08 0)
(0.00499996 -2.98892e-08 0)
(0.00499996 -3.09767e-08 0)
(0.00499996 -3.20956e-08 0)
(0.00499996 -3.32455e-08 0)
(0.00499996 -3.44262e-08 0)
(0.00499995 -3.56366e-08 0)
(0.00499995 -3.68754e-08 0)
(0.00499995 -3.81406e-08 0)
(0.00499995 -3.94295e-08 0)
(0.00499995 -4.07384e-08 0)
(0.00499994 -4.20626e-08 0)
(0.00499994 -4.33962e-08 0)
(0.00499994 -4.47316e-08 0)
(0.00499994 -4.60595e-08 0)
(0.00499994 -4.73685e-08 0)
(0.00499993 -4.86447e-08 0)
(0.00499993 -4.98718e-08 0)
(0.00499993 -5.10304e-08 0)
(0.00499993 -5.20978e-08 0)
(0.00499992 -5.30487e-08 0)
(0.00499992 -5.3857e-08 0)
(0.00499992 -5.44993e-08 0)
(0.00499992 -5.49534e-08 0)
(0.00499992 -5.51552e-08 0)
(0.00499992 -5.51107e-08 0)
(0.00499992 -5.4985e-08 0)
(0.005 -4.36699e-11 0)
(0.005 -1.27689e-10 0)
(0.005 -2.10367e-10 0)
(0.005 -2.93258e-10 0)
(0.005 -3.77415e-10 0)
(0.005 -4.63559e-10 0)
(0.005 -5.52244e-10 0)
(0.005 -6.43919e-10 0)
(0.005 -7.38963e-10 0)
(0.005 -8.37708e-10 0)
(0.005 -9.40451e-10 0)
(0.005 -1.04747e-09 0)
(0.005 -1.15902e-09 0)
(0.005 -1.27536e-09 0)
(0.005 -1.39673e-09 0)
(0.005 -1.52335e-09 0)
(0.005 -1.65545e-09 0)
(0.005 -1.79327e-09 0)
(0.005 -1.93703e-09 0)
(0.005 -2.08694e-09 0)
(0.005 -2.24322e-09 0)
(0.005 -2.40611e-09 0)
(0.005 -2.57582e-09 0)
(0.005 -2.75258e-09 0)
(0.005 -2.93659e-09 0)
(0.005 -3.1281e-09 0)
(0.005 -3.32733e-09 0)
(0.005 -3.5345e-09 0)
(0.005 -3.74984e-09 0)
(0.005 -3.97358e-09 0)
(0.005 -4.20596e-09 0)
(0.005 -4.44721e-09 0)
(0.005 -4.69758e-09 0)
(0.005 -4.9573e-09 0)
(0.005 -5.22663e-09 0)
(0.005 -5.5058e-09 0)
(0.005 -5.79508e-09 0)
(0.005 -6.09473e-09 0)
(0.005 -6.405e-09 0)
(0.005 -6.72617e-09 0)
(0.005 -7.05852e-09 0)
(0.00499999 -7.40233e-09 0)
(0.00499999 -7.75788e-09 0)
(0.00499999 -8.12549e-09 0)
(0.00499999 -8.50547e-09 0)
(0.00499999 -8.89812e-09 0)
(0.00499999 -9.3038e-09 0)
(0.00499999 -9.72284e-09 0)
(0.00499999 -1.01556e-08 0)
(0.00499999 -1.06025e-08 0)
(0.00499999 -1.10638e-08 0)
(0.00499999 -1.15401e-08 0)
(0.00499999 -1.20317e-08 0)
(0.00499999 -1.25391e-08 0)
(0.00499999 -1.30628e-08 0)
(0.00499999 -1.36033e-08 0)
(0.00499999 -1.41611e-08 0)
(0.00499999 -1.47368e-08 0)
(0.00499998 -1.53309e-08 0)
(0.00499998 -1.59442e-08 0)
(0.00499998 -1.65772e-08 0)
(0.00499998 -1.72306e-08 0)
(0.00499998 -1.79052e-08 0)
(0.00499998 -1.86017e-08 0)
(0.00499998 -1.93209e-08 0)
(0.00499998 -2.00636e-08 0)
(0.00499998 -2.08307e-08 0)
(0.00499997 -2.16231e-08 0)
(0.00499997 -2.24417e-08 0)
(0.00499997 -2.32873e-08 0)
(0.00499997 -2.4161e-08 0)
(0.00499997 -2.50635e-08 0)
(0.00499997 -2.59958e-08 0)
(0.00499997 -2.69587e-08 0)
(0.00499996 -2.7953e-08 0)
(0.00499996 -2.89793e-08 0)
(0.00499996 -3.00381e-08 0)
(0.00499996 -3.11297e-08 0)
(0.00499996 -3.22542e-08 0)
(0.00499995 -3.34114e-08 0)
(0.00499995 -3.46005e-08 0)
(0.00499995 -3.58203e-08 0)
(0.00499995 -3.70691e-08 0)
(0.00499995 -3.83441e-08 0)
(0.00499994 -3.96418e-08 0)
(0.00499994 -4.09574e-08 0)
(0.00499994 -4.2285e-08 0)
(0.00499994 -4.36166e-08 0)
(0.00499994 -4.49428e-08 0)
(0.00499993 -4.62516e-08 0)
(0.00499993 -4.75288e-08 0)
(0.00499993 -4.87576e-08 0)
(0.00499993 -4.99181e-08 0)
(0.00499993 -5.0988e-08 0)
(0.00499992 -5.1942e-08 0)
(0.00499992 -5.27483e-08 0)
(0.00499992 -5.33684e-08 0)
(0.00499992 -5.37957e-08 0)
(0.00499992 -5.40628e-08 0)
(0.00499992 -5.42537e-08 0)
(0.005 -3.88662e-11 0)
(0.005 -1.17052e-10 0)
(0.005 -1.95726e-10 0)
(0.005 -2.75264e-10 0)
(0.005 -3.56237e-10 0)
(0.005 -4.39174e-10 0)
(0.005 -5.24536e-10 0)
(0.005 -6.12721e-10 0)
(0.005 -7.04077e-10 0)
(0.005 -7.9891e-10 0)
(0.005 -8.97499e-10 0)
(0.005 -1.0001e-09 0)
(0.005 -1.10697e-09 0)
(0.005 -1.21832e-09 0)
(0.005 -1.33437e-09 0)
(0.005 -1.45536e-09 0)
(0.005 -1.58148e-09 0)
(0.005 -1.71295e-09 0)
(0.005 -1.84996e-09 0)
(0.005 -1.99271e-09 0)
(0.005 -2.14142e-09 0)
(0.005 -2.29628e-09 0)
(0.005 -2.45748e-09 0)
(0.005 -2.62523e-09 0)
(0.005 -2.79973e-09 0)
(0.005 -2.98117e-09 0)
(0.005 -3.16975e-09 0)
(0.005 -3.36569e-09 0)
(0.005 -3.56917e-09 0)
(0.005 -3.7804e-09 0)
(0.005 -3.99959e-09 0)
(0.005 -4.22695e-09 0)
(0.005 -4.46268e-09 0)
(0.005 -4.70699e-09 0)
(0.005 -4.96011e-09 0)
(0.005 -5.22224e-09 0)
(0.005 -5.49361e-09 0)
(0.005 -5.77444e-09 0)
(0.005 -6.06497e-09 0)
(0.005 -6.36543e-09 0)
(0.005 -6.67605e-09 0)
(0.00499999 -6.9971e-09 0)
(0.00499999 -7.32883e-09 0)
(0.00499999 -7.6715e-09 0)
(0.00499999 -8.02538e-09 0)
(0.00499999 -8.39077e-09 0)
(0.00499999 -8.76797e-09 0)
(0.00499999 -9.15728e-09 0)
(0.00499999 -9.55903e-09 0)
(0.00499999 -9.97358e-09 0)
(0.00499999 -1.04013e-08 0)
(0.00499999 -1.08425e-08 0)
(0.00499999 -1.12977e-08 0)
(0.00499999 -1.17673e-08 0)
(0.00499999 -1.22517e-08 0)
(0.00499999 -1.27514e-08 0)
(0.00499999 -1.3267e-08 0)
(0.00499999 -1.3799e-08 0)
(0.00499998 -1.4348e-08 0)
(0.00499998 -1.49145e-08 0)
(0.00499998 -1.54994e-08 0)
(0.00499998 -1.61033e-08 0)
(0.00499998 -1.67269e-08 0)
(0.00499998 -1.73711e-08 0)
(0.00499998 -1.80367e-08 0)
(0.00499998 -1.87246e-08 0)
(0.00499998 -1.94357e-08 0)
(0.00499997 -2.0171e-08 0)
(0.00499997 -2.09315e-08 0)
(0.00499997 -2.17184e-08 0)
(0.00499997 -2.25326e-08 0)
(0.00499997 -2.33753e-08 0)
(0.00499997 -2.42475e-08 0)
(0.00499997 -2.51505e-08 0)
(0.00499996 -2.60852e-08 0)
(0.00499996 -2.70527e-08 0)
(0.00499996 -2.80538e-08 0)
(0.00499996 -2.90894e-08 0)
(0.00499996 -3.016e-08 0)
(0.00499995 -3.12659e-08 0)
(0.00499995 -3.24071e-08 0)
(0.00499995 -3.35832e-08 0)
(0.00499995 -3.47932e-08 0)
(0.00499995 -3.60354e-08 0)
(0.00499994 -3.73073e-08 0)
(0.00499994 -3.86053e-08 0)
(0.00499994 -3.99246e-08 0)
(0.00499994 -4.1259e-08 0)
(0.00499994 -4.26005e-08 0)
(0.00499993 -4.3939e-08 0)
(0.00499993 -4.52622e-08 0)
(0.00499993 -4.65552e-08 0)
(0.00499993 -4.78003e-08 0)
(0.00499993 -4.89768e-08 0)
(0.00499992 -5.00604e-08 0)
(0.00499992 -5.10225e-08 0)
(0.00499992 -5.18379e-08 0)
(0.00499992 -5.24877e-08 0)
(0.00499992 -5.29626e-08 0)
(0.00499992 -5.32782e-08 0)
(0.005 -3.55861e-11 0)
(0.005 -1.08562e-10 0)
(0.005 -1.83171e-10 0)
(0.005 -2.59303e-10 0)
(0.005 -3.37155e-10 0)
(0.005 -4.17043e-10 0)
(0.005 -4.99309e-10 0)
(0.005 -5.84283e-10 0)
(0.005 -6.72264e-10 0)
(0.005 -7.63532e-10 0)
(0.005 -8.58343e-10 0)
(0.005 -9.56936e-10 0)
(0.005 -1.05953e-09 0)
(0.005 -1.16635e-09 0)
(0.005 -1.2776e-09 0)
(0.005 -1.39347e-09 0)
(0.005 -1.51416e-09 0)
(0.005 -1.63985e-09 0)
(0.005 -1.77074e-09 0)
(0.005 -1.90701e-09 0)
(0.005 -2.04883e-09 0)
(0.005 -2.19639e-09 0)
(0.005 -2.34988e-09 0)
(0.005 -2.50945e-09 0)
(0.005 -2.67531e-09 0)
(0.005 -2.84761e-09 0)
(0.005 -3.02654e-09 0)
(0.005 -3.21228e-09 0)
(0.005 -3.405e-09 0)
(0.005 -3.60488e-09 0)
(0.005 -3.81211e-09 0)
(0.005 -4.02685e-09 0)
(0.005 -4.2493e-09 0)
(0.005 -4.47964e-09 0)
(0.005 -4.71805e-09 0)
(0.005 -4.96472e-09 0)
(0.005 -5.21985e-09 0)
(0.005 -5.48362e-09 0)
(0.005 -5.75624e-09 0)
(0.005 -6.03791e-09 0)
(0.005 -6.32885e-09 0)
(0.00499999 -6.62926e-09 0)
(0.00499999 -6.93938e-09 0)
(0.00499999 -7.25944e-09 0)
(0.00499999 -7.58968e-09 0)
(0.00499999 -7.93035e-09 0)
(0.00499999 -8.28173e-09 0)
(0.00499999 -8.64409e-09 0)
(0.00499999 -9.01774e-09 0)
(0.00499999 -9.403e-09 0)
(0.00499999 -9.80019e-09 0)
(0.00499999 -1.02097e-08 0)
(0.00499999 -1.06319e-08 0)
(0.00499999 -1.10671e-08 0)
(0.00499999 -1.15159e-08 0)
(0.00499999 -1.19787e-08 0)
(0.00499999 -1.24561e-08 0)
(0.00499999 -1.29485e-08 0)
(0.00499998 -1.34565e-08 0)
(0.00499998 -1.39809e-08 0)
(0.00499998 -1.45222e-08 0)
(0.00499998 -1.50812e-08 0)
(0.00499998 -1.56586e-08 0)
(0.00499998 -1.62554e-08 0)
(0.00499998 -1.68724e-08 0)
(0.00499998 -1.75106e-08 0)
(0.00499998 -1.81709e-08 0)
(0.00499997 -1.88545e-08 0)
(0.00499997 -1.95624e-08 0)
(0.00499997 -2.02959e-08 0)
(0.00499997 -2.10563e-08 0)
(0.00499997 -2.18447e-08 0)
(0.00499997 -2.26625e-08 0)
(0.00499997 -2.3511e-08 0)
(0.00499996 -2.43917e-08 0)
(0.00499996 -2.53057e-08 0)
(0.00499996 -2.62544e-08 0)
(0.00499996 -2.72389e-08 0)
(0.00499996 -2.82603e-08 0)
(0.00499996 -2.93195e-08 0)
(0.00499995 -3.04169e-08 0)
(0.00499995 -3.15528e-08 0)
(0.00499995 -3.2727e-08 0)
(0.00499995 -3.39386e-08 0)
(0.00499995 -3.5186e-08 0)
(0.00499994 -3.64667e-08 0)
(0.00499994 -3.7777e-08 0)
(0.00499994 -3.91119e-08 0)
(0.00499994 -4.04647e-08 0)
(0.00499993 -4.18268e-08 0)
(0.00499993 -4.31874e-08 0)
(0.00499993 -4.4533e-08 0)
(0.00499993 -4.58472e-08 0)
(0.00499993 -4.71104e-08 0)
(0.00499992 -4.82991e-08 0)
(0.00499992 -4.93862e-08 0)
(0.00499992 -5.03439e-08 0)
(0.00499992 -5.11426e-08 0)
(0.00499992 -5.17502e-08 0)
(0.00499992 -5.20796e-08 0)
(0.005 -3.29154e-11 0)
(0.005 -1.01128e-10 0)
(0.005 -1.71631e-10 0)
(0.005 -2.44174e-10 0)
(0.005 -3.18735e-10 0)
(0.005 -3.95455e-10 0)
(0.005 -4.74556e-10 0)
(0.005 -5.56285e-10 0)
(0.005 -6.4089e-10 0)
(0.005 -7.28612e-10 0)
(0.005 -8.19677e-10 0)
(0.005 -9.14303e-10 0)
(0.005 -1.01269e-09 0)
(0.005 -1.11504e-09 0)
(0.005 -1.22154e-09 0)
(0.005 -1.33237e-09 0)
(0.005 -1.44771e-09 0)
(0.005 -1.56772e-09 0)
(0.005 -1.69258e-09 0)
(0.005 -1.82246e-09 0)
(0.005 -1.95751e-09 0)
(0.005 -2.0979e-09 0)
(0.005 -2.24378e-09 0)
(0.005 -2.39532e-09 0)
(0.005 -2.55266e-09 0)
(0.005 -2.71598e-09 0)
(0.005 -2.88541e-09 0)
(0.005 -3.06112e-09 0)
(0.005 -3.24325e-09 0)
(0.005 -3.43197e-09 0)
(0.005 -3.62743e-09 0)
(0.005 -3.82977e-09 0)
(0.005 -4.03916e-09 0)
(0.005 -4.25576e-09 0)
(0.005 -4.47971e-09 0)
(0.005 -4.71118e-09 0)
(0.005 -4.95034e-09 0)
(0.005 -5.19734e-09 0)
(0.005 -5.45236e-09 0)
(0.005 -5.71558e-09 0)
(0.005 -5.98716e-09 0)
(0.00499999 -6.2673e-09 0)
(0.00499999 -6.55618e-09 0)
(0.00499999 -6.85402e-09 0)
(0.00499999 -7.16103e-09 0)
(0.00499999 -7.47742e-09 0)
(0.00499999 -7.80345e-09 0)
(0.00499999 -8.13935e-09 0)
(0.00499999 -8.4854e-09 0)
(0.00499999 -8.84188e-09 0)
(0.00499999 -9.20912e-09 0)
(0.00499999 -9.58744e-09 0)
(0.00499999 -9.9772e-09 0)
(0.00499999 -1.03788e-08 0)
(0.00499999 -1.07926e-08 0)
(0.00499999 -1.12192e-08 0)
(0.00499999 -1.1659e-08 0)
(0.00499999 -1.21125e-08 0)
(0.00499998 -1.25804e-08 0)
(0.00499998 -1.30633e-08 0)
(0.00499998 -1.35618e-08 0)
(0.00499998 -1.40767e-08 0)
(0.00499998 -1.46089e-08 0)
(0.00499998 -1.51591e-08 0)
(0.00499998 -1.57284e-08 0)
(0.00499998 -1.63177e-08 0)
(0.00499998 -1.69282e-08 0)
(0.00499998 -1.7561e-08 0)
(0.00499997 -1.82173e-08 0)
(0.00499997 -1.88984e-08 0)
(0.00499997 -1.96058e-08 0)
(0.00499997 -2.03409e-08 0)
(0.00499997 -2.11051e-08 0)
(0.00499997 -2.19002e-08 0)
(0.00499996 -2.27276e-08 0)
(0.00499996 -2.35889e-08 0)
(0.00499996 -2.44859e-08 0)
(0.00499996 -2.542e-08 0)
(0.00499996 -2.63928e-08 0)
(0.00499996 -2.74055e-08 0)
(0.00499995 -2.84593e-08 0)
(0.00499995 -2.95551e-08 0)
(0.00499995 -3.06933e-08 0)
(0.00499995 -3.18738e-08 0)
(0.00499995 -3.30959e-08 0)
(0.00499994 -3.4358e-08 0)
(0.00499994 -3.56574e-08 0)
(0.00499994 -3.69903e-08 0)
(0.00499994 -3.83511e-08 0)
(0.00499994 -3.97326e-08 0)
(0.00499993 -4.11249e-08 0)
(0.00499993 -4.25158e-08 0)
(0.00499993 -4.389e-08 0)
(0.00499993 -4.52282e-08 0)
(0.00499993 -4.65073e-08 0)
(0.00499992 -4.76992e-08 0)
(0.00499992 -4.8771e-08 0)
(0.00499992 -4.96805e-08 0)
(0.00499992 -5.03685e-08 0)
(0.00499992 -5.07356e-08 0)
(0.005 -3.05939e-11 0)
(0.005 -9.44171e-11 0)
(0.005 -1.60892e-10 0)
(0.005 -2.29766e-10 0)
(0.005 -3.00905e-10 0)
(0.005 -3.7433e-10 0)
(0.005 -4.50162e-10 0)
(0.005 -5.28572e-10 0)
(0.005 -6.09751e-10 0)
(0.005 -6.93896e-10 0)
(0.005 -7.81202e-10 0)
(0.005 -8.71858e-10 0)
(0.005 -9.66047e-10 0)
(0.005 -1.06395e-09 0)
(0.005 -1.16572e-09 0)
(0.005 -1.27154e-09 0)
(0.005 -1.38156e-09 0)
(0.005 -1.49593e-09 0)
(0.005 -1.61481e-09 0)
(0.005 -1.73834e-09 0)
(0.005 -1.86667e-09 0)
(0.005 -1.99994e-09 0)
(0.005 -2.13828e-09 0)
(0.005 -2.28185e-09 0)
(0.005 -2.43076e-09 0)
(0.005 -2.58516e-09 0)
(0.005 -2.74518e-09 0)
(0.005 -2.91095e-09 0)
(0.005 -3.0826e-09 0)
(0.005 -3.26026e-09 0)
(0.005 -3.44406e-09 0)
(0.005 -3.63412e-09 0)
(0.005 -3.83058e-09 0)
(0.005 -4.03357e-09 0)
(0.005 -4.24321e-09 0)
(0.005 -4.45964e-09 0)
(0.005 -4.683e-09 0)
(0.005 -4.91341e-09 0)
(0.005 -5.15102e-09 0)
(0.005 -5.39597e-09 0)
(0.005 -5.64841e-09 0)
(0.00499999 -5.9085e-09 0)
(0.00499999 -6.17639e-09 0)
(0.00499999 -6.45227e-09 0)
(0.00499999 -6.73631e-09 0)
(0.00499999 -7.02871e-09 0)
(0.00499999 -7.32967e-09 0)
(0.00499999 -7.63942e-09 0)
(0.00499999 -7.95819e-09 0)
(0.00499999 -8.28626e-09 0)
(0.00499999 -8.6239e-09 0)
(0.00499999 -8.97143e-09 0)
(0.00499999 -9.32918e-09 0)
(0.00499999 -9.69752e-09 0)
(0.00499999 -1.00769e-08 0)
(0.00499999 -1.04676e-08 0)
(0.00499999 -1.08703e-08 0)
(0.00499999 -1.12855e-08 0)
(0.00499999 -1.17137e-08 0)
(0.00499998 -1.21556e-08 0)
(0.00499998 -1.26119e-08 0)
(0.00499998 -1.30834e-08 0)
(0.00499998 -1.35708e-08 0)
(0.00499998 -1.40751e-08 0)
(0.00499998 -1.45973e-08 0)
(0.00499998 -1.51384e-08 0)
(0.00499998 -1.56997e-08 0)
(0.00499998 -1.62823e-08 0)
(0.00499997 -1.68876e-08 0)
(0.00499997 -1.7517e-08 0)
(0.00499997 -1.81721e-08 0)
(0.00499997 -1.88544e-08 0)
(0.00499997 -1.95657e-08 0)
(0.00499997 -2.03077e-08 0)
(0.00499997 -2.10824e-08 0)
(0.00499996 -2.18916e-08 0)
(0.00499996 -2.27372e-08 0)
(0.00499996 -2.36213e-08 0)
(0.00499996 -2.45456e-08 0)
(0.00499996 -2.5512e-08 0)
(0.00499995 -2.65221e-08 0)
(0.00499995 -2.75775e-08 0)
(0.00499995 -2.86791e-08 0)
(0.00499995 -2.98277e-08 0)
(0.00499995 -3.10233e-08 0)
(0.00499994 -3.22652e-08 0)
(0.00499994 -3.35516e-08 0)
(0.00499994 -3.48797e-08 0)
(0.00499994 -3.62449e-08 0)
(0.00499994 -3.7641e-08 0)
(0.00499993 -3.90592e-08 0)
(0.00499993 -4.0488e-08 0)
(0.00499993 -4.19127e-08 0)
(0.00499993 -4.33142e-08 0)
(0.00499993 -4.46685e-08 0)
(0.00499992 -4.59457e-08 0)
(0.00499992 -4.71075e-08 0)
(0.00499992 -4.81027e-08 0)
(0.00499992 -4.88602e-08 0)
(0.00499992 -4.92974e-08 0)
(0.005 -2.85376e-11 0)
(0.005 -8.83125e-11 0)
(0.005 -1.50918e-10 0)
(0.005 -2.16146e-10 0)
(0.005 -2.83817e-10 0)
(0.005 -3.53878e-10 0)
(0.005 -4.26375e-10 0)
(0.005 -5.01413e-10 0)
(0.005 -5.79131e-10 0)
(0.005 -6.59684e-10 0)
(0.005 -7.43232e-10 0)
(0.005 -8.29935e-10 0)
(0.005 -9.19952e-10 0)
(0.005 -1.01344e-09 0)
(0.005 -1.11054e-09 0)
(0.005 -1.2114e-09 0)
(0.005 -1.31617e-09 0)
(0.005 -1.42498e-09 0)
(0.005 -1.53796e-09 0)
(0.005 -1.65524e-09 0)
(0.005 -1.77694e-09 0)
(0.005 -1.9032e-09 0)
(0.005 -2.03413e-09 0)
(0.005 -2.16984e-09 0)
(0.005 -2.31046e-09 0)
(0.005 -2.45609e-09 0)
(0.005 -2.60685e-09 0)
(0.005 -2.76285e-09 0)
(0.005 -2.92419e-09 0)
(0.005 -3.09098e-09 0)
(0.005 -3.26332e-09 0)
(0.005 -3.44132e-09 0)
(0.005 -3.62508e-09 0)
(0.005 -3.81471e-09 0)
(0.005 -4.0103e-09 0)
(0.005 -4.21196e-09 0)
(0.005 -4.4198e-09 0)
(0.005 -4.63393e-09 0)
(0.005 -4.85445e-09 0)
(0.005 -5.08149e-09 0)
(0.005 -5.31516e-09 0)
(0.005 -5.55558e-09 0)
(0.00499999 -5.80289e-09 0)
(0.00499999 -6.05724e-09 0)
(0.00499999 -6.31876e-09 0)
(0.00499999 -6.58764e-09 0)
(0.00499999 -6.86404e-09 0)
(0.00499999 -7.14817e-09 0)
(0.00499999 -7.44023e-09 0)
(0.00499999 -7.74045e-09 0)
(0.00499999 -8.04911e-09 0)
(0.00499999 -8.36648e-09 0)
(0.00499999 -8.69288e-09 0)
(0.00499999 -9.02866e-09 0)
(0.00499999 -9.37421e-09 0)
(0.00499999 -9.72996e-09 0)
(0.00499999 -1.00964e-08 0)
(0.00499999 -1.0474e-08 0)
(0.00499999 -1.08634e-08 0)
(0.00499998 -1.12652e-08 0)
(0.00499998 -1.16802e-08 0)
(0.00499998 -1.21091e-08 0)
(0.00499998 -1.25527e-08 0)
(0.00499998 -1.30121e-08 0)
(0.00499998 -1.34882e-08 0)
(0.00499998 -1.39822e-08 0)
(0.00499998 -1.44953e-08 0)
(0.00499998 -1.50287e-08 0)
(0.00499997 -1.55841e-08 0)
(0.00499997 -1.61628e-08 0)
(0.00499997 -1.67666e-08 0)
(0.00499997 -1.73972e-08 0)
(0.00499997 -1.80566e-08 0)
(0.00499997 -1.87467e-08 0)
(0.00499997 -1.94695e-08 0)
(0.00499996 -2.02274e-08 0)
(0.00499996 -2.10225e-08 0)
(0.00499996 -2.18571e-08 0)
(0.00499996 -2.27335e-08 0)
(0.00499996 -2.36539e-08 0)
(0.00499996 -2.46206e-08 0)
(0.00499995 -2.56354e-08 0)
(0.00499995 -2.67001e-08 0)
(0.00499995 -2.7816e-08 0)
(0.00499995 -2.89839e-08 0)
(0.00499995 -3.02038e-08 0)
(0.00499994 -3.14749e-08 0)
(0.00499994 -3.2795e-08 0)
(0.00499994 -3.41605e-08 0)
(0.00499994 -3.5566e-08 0)
(0.00499994 -3.70035e-08 0)
(0.00499993 -3.84621e-08 0)
(0.00499993 -3.9927e-08 0)
(0.00499993 -4.13792e-08 0)
(0.00499993 -4.27935e-08 0)
(0.00499993 -4.41374e-08 0)
(0.00499992 -4.53685e-08 0)
(0.00499992 -4.64292e-08 0)
(0.00499992 -4.72441e-08 0)
(0.00499992 -4.77289e-08 0)
(0.005 -2.66838e-11 0)
(0.005 -8.27114e-11 0)
(0.005 -1.41632e-10 0)
(0.005 -2.03293e-10 0)
(0.005 -2.67508e-10 0)
(0.005 -3.34181e-10 0)
(0.005 -4.03309e-10 0)
(0.005 -4.74946e-10 0)
(0.005 -5.49184e-10 0)
(0.005 -6.26138e-10 0)
(0.005 -7.05936e-10 0)
(0.005 -7.88708e-10 0)
(0.005 -8.74587e-10 0)
(0.005 -9.63706e-10 0)
(0.005 -1.05619e-09 0)
(0.005 -1.15217e-09 0)
(0.005 -1.25177e-09 0)
(0.005 -1.3551e-09 0)
(0.005 -1.46228e-09 0)
(0.005 -1.57341e-09 0)
(0.005 -1.68862e-09 0)
(0.005 -1.80799e-09 0)
(0.005 -1.93164e-09 0)
(0.005 -2.05966e-09 0)
(0.005 -2.19214e-09 0)
(0.005 -2.32918e-09 0)
(0.005 -2.47087e-09 0)
(0.005 -2.61729e-09 0)
(0.005 -2.76853e-09 0)
(0.005 -2.92468e-09 0)
(0.005 -3.08581e-09 0)
(0.005 -3.252e-09 0)
(0.005 -3.42333e-09 0)
(0.005 -3.59989e-09 0)
(0.005 -3.78174e-09 0)
(0.005 -3.96896e-09 0)
(0.005 -4.16164e-09 0)
(0.005 -4.35985e-09 0)
(0.005 -4.56368e-09 0)
(0.005 -4.77321e-09 0)
(0.005 -4.98854e-09 0)
(0.005 -5.20976e-09 0)
(0.00499999 -5.43697e-09 0)
(0.00499999 -5.6703e-09 0)
(0.00499999 -5.90985e-09 0)
(0.00499999 -6.15578e-09 0)
(0.00499999 -6.40822e-09 0)
(0.00499999 -6.66735e-09 0)
(0.00499999 -6.93335e-09 0)
(0.00499999 -7.20643e-09 0)
(0.00499999 -7.48683e-09 0)
(0.00499999 -7.7748e-09 0)
(0.00499999 -8.07064e-09 0)
(0.00499999 -8.37469e-09 0)
(0.00499999 -8.68731e-09 0)
(0.00499999 -9.00892e-09 0)
(0.00499999 -9.33998e-09 0)
(0.00499999 -9.68102e-09 0)
(0.00499999 -1.00326e-08 0)
(0.00499998 -1.03954e-08 0)
(0.00499998 -1.07701e-08 0)
(0.00499998 -1.11575e-08 0)
(0.00499998 -1.15586e-08 0)
(0.00499998 -1.19741e-08 0)
(0.00499998 -1.24054e-08 0)
(0.00499998 -1.28534e-08 0)
(0.00499998 -1.33195e-08 0)
(0.00499998 -1.38051e-08 0)
(0.00499998 -1.43118e-08 0)
(0.00499997 -1.48411e-08 0)
(0.00499997 -1.53948e-08 0)
(0.00499997 -1.5975e-08 0)
(0.00499997 -1.65836e-08 0)
(0.00499997 -1.72229e-08 0)
(0.00499997 -1.7895e-08 0)
(0.00499997 -1.86026e-08 0)
(0.00499996 -1.9348e-08 0)
(0.00499996 -2.0134e-08 0)
(0.00499996 -2.09631e-08 0)
(0.00499996 -2.18381e-08 0)
(0.00499996 -2.27615e-08 0)
(0.00499995 -2.37357e-08 0)
(0.00499995 -2.47631e-08 0)
(0.00499995 -2.58455e-08 0)
(0.00499995 -2.69844e-08 0)
(0.00499995 -2.81805e-08 0)
(0.00499995 -2.94337e-08 0)
(0.00499994 -3.07425e-08 0)
(0.00499994 -3.21041e-08 0)
(0.00499994 -3.35135e-08 0)
(0.00499994 -3.49635e-08 0)
(0.00499994 -3.64434e-08 0)
(0.00499993 -3.79385e-08 0)
(0.00499993 -3.94293e-08 0)
(0.00499993 -4.08893e-08 0)
(0.00499993 -4.22839e-08 0)
(0.00499993 -4.35672e-08 0)
(0.00499992 -4.46777e-08 0)
(0.00499992 -4.55357e-08 0)
(0.00499992 -4.60502e-08 0)
(0.005 -2.49856e-11 0)
(0.005 -7.75258e-11 0)
(0.005 -1.32945e-10 0)
(0.005 -1.91149e-10 0)
(0.005 -2.51959e-10 0)
(0.005 -3.15261e-10 0)
(0.005 -3.81016e-10 0)
(0.005 -4.49242e-10 0)
(0.005 -5.19995e-10 0)
(0.005 -5.93355e-10 0)
(0.005 -6.69417e-10 0)
(0.005 -7.48284e-10 0)
(0.005 -8.30065e-10 0)
(0.005 -9.14867e-10 0)
(0.005 -1.0028e-09 0)
(0.005 -1.09397e-09 0)
(0.005 -1.18848e-09 0)
(0.005 -1.28643e-09 0)
(0.005 -1.38791e-09 0)
(0.005 -1.49302e-09 0)
(0.005 -1.60185e-09 0)
(0.005 -1.71448e-09 0)
(0.005 -1.831e-09 0)
(0.005 -1.95148e-09 0)
(0.005 -2.07601e-09 0)
(0.005 -2.20464e-09 0)
(0.005 -2.33746e-09 0)
(0.005 -2.47453e-09 0)
(0.005 -2.61591e-09 0)
(0.005 -2.76166e-09 0)
(0.005 -2.91183e-09 0)
(0.005 -3.0665e-09 0)
(0.005 -3.22571e-09 0)
(0.005 -3.38951e-09 0)
(0.005 -3.55795e-09 0)
(0.005 -3.7311e-09 0)
(0.005 -3.909e-09 0)
(0.005 -4.0917e-09 0)
(0.005 -4.27926e-09 0)
(0.005 -4.47174e-09 0)
(0.005 -4.66921e-09 0)
(0.005 -4.87173e-09 0)
(0.00499999 -5.07938e-09 0)
(0.00499999 -5.29225e-09 0)
(0.00499999 -5.51043e-09 0)
(0.00499999 -5.73402e-09 0)
(0.00499999 -5.96316e-09 0)
(0.00499999 -6.19798e-09 0)
(0.00499999 -6.43865e-09 0)
(0.00499999 -6.68534e-09 0)
(0.00499999 -6.93827e-09 0)
(0.00499999 -7.19767e-09 0)
(0.00499999 -7.46383e-09 0)
(0.00499999 -7.73705e-09 0)
(0.00499999 -8.01768e-09 0)
(0.00499999 -8.30614e-09 0)
(0.00499999 -8.60287e-09 0)
(0.00499999 -8.90839e-09 0)
(0.00499999 -9.22327e-09 0)
(0.00499999 -9.54816e-09 0)
(0.00499998 -9.88379e-09 0)
(0.00499998 -1.0231e-08 0)
(0.00499998 -1.05906e-08 0)
(0.00499998 -1.09636e-08 0)
(0.00499998 -1.13513e-08 0)
(0.00499998 -1.17547e-08 0)
(0.00499998 -1.21752e-08 0)
(0.00499998 -1.26143e-08 0)
(0.00499998 -1.30736e-08 0)
(0.00499997 -1.35548e-08 0)
(0.00499997 -1.406e-08 0)
(0.00499997 -1.4591e-08 0)
(0.00499997 -1.51502e-08 0)
(0.00499997 -1.57398e-08 0)
(0.00499997 -1.63625e-08 0)
(0.00499997 -1.70209e-08 0)
(0.00499996 -1.77177e-08 0)
(0.00499996 -1.84559e-08 0)
(0.00499996 -1.92385e-08 0)
(0.00499996 -2.00684e-08 0)
(0.00499996 -2.09487e-08 0)
(0.00499996 -2.18824e-08 0)
(0.00499995 -2.2872e-08 0)
(0.00499995 -2.39202e-08 0)
(0.00499995 -2.50288e-08 0)
(0.00499995 -2.61992e-08 0)
(0.00499995 -2.74318e-08 0)
(0.00499994 -2.87259e-08 0)
(0.00499994 -3.00791e-08 0)
(0.00499994 -3.14871e-08 0)
(0.00499994 -3.29428e-08 0)
(0.00499994 -3.44359e-08 0)
(0.00499993 -3.59516e-08 0)
(0.00499993 -3.74697e-08 0)
(0.00499993 -3.89627e-08 0)
(0.00499993 -4.03942e-08 0)
(0.00499993 -4.17157e-08 0)
(0.00499993 -4.28627e-08 0)
(0.00499992 -4.37524e-08 0)
(0.00499992 -4.42871e-08 0)
(0.005 -2.34122e-11 0)
(0.005 -7.26899e-11 0)
(0.005 -1.24788e-10 0)
(0.005 -1.79659e-10 0)
(0.005 -2.37142e-10 0)
(0.005 -2.97115e-10 0)
(0.005 -3.59522e-10 0)
(0.005 -4.24353e-10 0)
(0.005 -4.91634e-10 0)
(0.005 -5.61416e-10 0)
(0.005 -6.33766e-10 0)
(0.005 -7.08763e-10 0)
(0.005 -7.86489e-10 0)
(0.005 -8.67032e-10 0)
(0.005 -9.50479e-10 0)
(0.005 -1.03692e-09 0)
(0.005 -1.12643e-09 0)
(0.005 -1.21909e-09 0)
(0.005 -1.31499e-09 0)
(0.005 -1.4142e-09 0)
(0.005 -1.5168e-09 0)
(0.005 -1.62284e-09 0)
(0.005 -1.73239e-09 0)
(0.005 -1.84551e-09 0)
(0.005 -1.96227e-09 0)
(0.005 -2.08271e-09 0)
(0.005 -2.20687e-09 0)
(0.005 -2.33482e-09 0)
(0.005 -2.46658e-09 0)
(0.005 -2.6022e-09 0)
(0.005 -2.74172e-09 0)
(0.005 -2.88517e-09 0)
(0.005 -3.03257e-09 0)
(0.005 -3.18396e-09 0)
(0.005 -3.33938e-09 0)
(0.005 -3.49883e-09 0)
(0.005 -3.66236e-09 0)
(0.005 -3.82999e-09 0)
(0.005 -4.00175e-09 0)
(0.005 -4.17768e-09 0)
(0.005 -4.35781e-09 0)
(0.005 -4.54218e-09 0)
(0.005 -4.73085e-09 0)
(0.00499999 -4.92387e-09 0)
(0.00499999 -5.12131e-09 0)
(0.00499999 -5.32325e-09 0)
(0.00499999 -5.5298e-09 0)
(0.00499999 -5.74106e-09 0)
(0.00499999 -5.95717e-09 0)
(0.00499999 -6.1783e-09 0)
(0.00499999 -6.40462e-09 0)
(0.00499999 -6.63636e-09 0)
(0.00499999 -6.87377e-09 0)
(0.00499999 -7.11714e-09 0)
(0.00499999 -7.36682e-09 0)
(0.00499999 -7.62318e-09 0)
(0.00499999 -7.88669e-09 0)
(0.00499999 -8.15783e-09 0)
(0.00499999 -8.43719e-09 0)
(0.00499999 -8.72541e-09 0)
(0.00499998 -9.02322e-09 0)
(0.00499998 -9.33146e-09 0)
(0.00499998 -9.65102e-09 0)
(0.00499998 -9.98295e-09 0)
(0.00499998 -1.03284e-08 0)
(0.00499998 -1.06886e-08 0)
(0.00499998 -1.10649e-08 0)
(0.00499998 -1.1459e-08 0)
(0.00499998 -1.18724e-08 0)
(0.00499998 -1.23071e-08 0)
(0.00499997 -1.2765e-08 0)
(0.00499997 -1.32484e-08 0)
(0.00499997 -1.37595e-08 0)
(0.00499997 -1.4301e-08 0)
(0.00499997 -1.48754e-08 0)
(0.00499997 -1.54858e-08 0)
(0.00499997 -1.61351e-08 0)
(0.00499996 -1.68264e-08 0)
(0.00499996 -1.75632e-08 0)
(0.00499996 -1.83487e-08 0)
(0.00499996 -1.91863e-08 0)
(0.00499996 -2.00793e-08 0)
(0.00499996 -2.10308e-08 0)
(0.00499995 -2.20439e-08 0)
(0.00499995 -2.31209e-08 0)
(0.00499995 -2.42636e-08 0)
(0.00499995 -2.54731e-08 0)
(0.00499995 -2.6749e-08 0)
(0.00499994 -2.80896e-08 0)
(0.00499994 -2.94907e-08 0)
(0.00499994 -3.09458e-08 0)
(0.00499994 -3.24444e-08 0)
(0.00499994 -3.39717e-08 0)
(0.00499993 -3.55068e-08 0)
(0.00499993 -3.70216e-08 0)
(0.00499993 -3.84779e-08 0)
(0.00499993 -3.98256e-08 0)
(0.00499993 -4.0998e-08 0)
(0.00499992 -4.19097e-08 0)
(0.00499992 -4.24577e-08 0)
(0.005 -2.19431e-11 0)
(0.005 -6.81559e-11 0)
(0.005 -1.171e-10 0)
(0.005 -1.6877e-10 0)
(0.005 -2.23022e-10 0)
(0.005 -2.79734e-10 0)
(0.005 -3.38839e-10 0)
(0.005 -4.0031e-10 0)
(0.005 -4.64151e-10 0)
(0.005 -5.30387e-10 0)
(0.005 -5.99063e-10 0)
(0.005 -6.70233e-10 0)
(0.005 -7.43958e-10 0)
(0.005 -8.20305e-10 0)
(0.005 -8.9934e-10 0)
(0.005 -9.8113e-10 0)
(0.005 -1.06574e-09 0)
(0.005 -1.15324e-09 0)
(0.005 -1.24368e-09 0)
(0.005 -1.33712e-09 0)
(0.005 -1.43362e-09 0)
(0.005 -1.53323e-09 0)
(0.005 -1.63599e-09 0)
(0.005 -1.74194e-09 0)
(0.005 -1.85113e-09 0)
(0.005 -1.96359e-09 0)
(0.005 -2.07934e-09 0)
(0.005 -2.19841e-09 0)
(0.005 -2.32083e-09 0)
(0.005 -2.44662e-09 0)
(0.005 -2.57578e-09 0)
(0.005 -2.70833e-09 0)
(0.005 -2.84428e-09 0)
(0.005 -2.98364e-09 0)
(0.005 -3.12641e-09 0)
(0.005 -3.2726e-09 0)
(0.005 -3.4222e-09 0)
(0.005 -3.57523e-09 0)
(0.005 -3.73169e-09 0)
(0.005 -3.89159e-09 0)
(0.005 -4.05494e-09 0)
(0.005 -4.22175e-09 0)
(0.005 -4.39205e-09 0)
(0.00499999 -4.56588e-09 0)
(0.00499999 -4.74328e-09 0)
(0.00499999 -4.9243e-09 0)
(0.00499999 -5.10902e-09 0)
(0.00499999 -5.29752e-09 0)
(0.00499999 -5.48992e-09 0)
(0.00499999 -5.68636e-09 0)
(0.00499999 -5.887e-09 0)
(0.00499999 -6.09204e-09 0)
(0.00499999 -6.30172e-09 0)
(0.00499999 -6.5163e-09 0)
(0.00499999 -6.73611e-09 0)
(0.00499999 -6.96153e-09 0)
(0.00499999 -7.19299e-09 0)
(0.00499999 -7.43099e-09 0)
(0.00499999 -7.6761e-09 0)
(0.00499999 -7.92896e-09 0)
(0.00499999 -8.19032e-09 0)
(0.00499998 -8.46101e-09 0)
(0.00499998 -8.74196e-09 0)
(0.00499998 -9.03422e-09 0)
(0.00499998 -9.33896e-09 0)
(0.00499998 -9.65748e-09 0)
(0.00499998 -9.99123e-09 0)
(0.00499998 -1.03418e-08 0)
(0.00499998 -1.0711e-08 0)
(0.00499998 -1.11006e-08 0)
(0.00499998 -1.15129e-08 0)
(0.00499997 -1.19501e-08 0)
(0.00499997 -1.24147e-08 0)
(0.00499997 -1.29094e-08 0)
(0.00499997 -1.3437e-08 0)
(0.00499997 -1.40006e-08 0)
(0.00499997 -1.46035e-08 0)
(0.00499997 -1.52491e-08 0)
(0.00499996 -1.59409e-08 0)
(0.00499996 -1.66825e-08 0)
(0.00499996 -1.74777e-08 0)
(0.00499996 -1.83301e-08 0)
(0.00499996 -1.92432e-08 0)
(0.00499996 -2.02204e-08 0)
(0.00499995 -2.12644e-08 0)
(0.00499995 -2.23777e-08 0)
(0.00499995 -2.35615e-08 0)
(0.00499995 -2.4816e-08 0)
(0.00499995 -2.61398e-08 0)
(0.00499994 -2.7529e-08 0)
(0.00499994 -2.89772e-08 0)
(0.00499994 -3.04742e-08 0)
(0.00499994 -3.20048e-08 0)
(0.00499994 -3.35478e-08 0)
(0.00499993 -3.50743e-08 0)
(0.00499993 -3.65451e-08 0)
(0.00499993 -3.79086e-08 0)
(0.00499993 -3.90969e-08 0)
(0.00499993 -4.00226e-08 0)
(0.00499992 -4.05788e-08 0)
(0.005 -2.05639e-11 0)
(0.005 -6.38875e-11 0)
(0.005 -1.09837e-10 0)
(0.005 -1.58439e-10 0)
(0.005 -2.09564e-10 0)
(0.005 -2.63098e-10 0)
(0.005 -3.18968e-10 0)
(0.005 -3.77133e-10 0)
(0.005 -4.37581e-10 0)
(0.005 -5.00319e-10 0)
(0.005 -5.65371e-10 0)
(0.005 -6.3277e-10 0)
(0.005 -7.02557e-10 0)
(0.005 -7.74779e-10 0)
(0.005 -8.49484e-10 0)
(0.005 -9.2672e-10 0)
(0.005 -1.00654e-09 0)
(0.005 -1.08898e-09 0)
(0.005 -1.17409e-09 0)
(0.005 -1.2619e-09 0)
(0.005 -1.35247e-09 0)
(0.005 -1.44581e-09 0)
(0.005 -1.54197e-09 0)
(0.005 -1.64095e-09 0)
(0.005 -1.74279e-09 0)
(0.005 -1.84749e-09 0)
(0.005 -1.95508e-09 0)
(0.005 -2.06555e-09 0)
(0.005 -2.17891e-09 0)
(0.005 -2.29516e-09 0)
(0.005 -2.41429e-09 0)
(0.005 -2.5363e-09 0)
(0.005 -2.66117e-09 0)
(0.005 -2.78889e-09 0)
(0.005 -2.91944e-09 0)
(0.005 -3.0528e-09 0)
(0.005 -3.18895e-09 0)
(0.005 -3.32788e-09 0)
(0.005 -3.46957e-09 0)
(0.005 -3.61399e-09 0)
(0.005 -3.76115e-09 0)