/*--------------------------------*- C++ -*----------------------------------*\
  =========                 |
  \\      /  F ield         | OpenFOAM: The Open Source CFD Toolbox
   \\    /   O peration     | Website:  https://openfoam.org
    \\  /    A nd           | Version:  11
     \\/     M anipulation  |
\*---------------------------------------------------------------------------*/
FoamFile
{
    format      ascii;
    class       volScalarField;
    location    "188";
    object      omega;
}
// * * * * * * * * * * * * * * * * * * * * * * * * * * * * * * * * * * * * * //

dimensions      [0 0 -1 0 0 0 0];

internalField   nonuniform List<scalar> 
10000
(
0.9617
0.892203
0.829107
0.771747
0.719532
0.671935
0.628488
0.588772
0.552416
0.519087
0.488488
0.460355
0.434449
0.410558
0.388492
0.36808
0.349167
0.331615
0.3153
0.300109
0.285939
0.2727
0.260306
0.248683
0.237761
0.227478
0.217777
0.208607
0.199923
0.191683
0.183852
0.176397
0.169292
0.162515
0.156048
0.149876
0.143988
0.138377
0.133037
0.127964
0.123156
0.118608
0.114319
0.110285
0.106499
0.102957
0.0996499
0.0965705
0.0937093
0.0910562
0.0886003
0.0863304
0.084235
0.0823027
0.0805224
0.0788832
0.0773751
0.0759885
0.074714
0.0735432
0.0724679
0.0714807
0.0705746
0.0697432
0.0689803
0.0682807
0.067639
0.0670507
0.0665114
0.0660172
0.0655643
0.0651495
0.0647695
0.0644216
0.0641031
0.0638116
0.0635449
0.0633009
0.0630778
0.0628739
0.0626874
0.0625172
0.0623617
0.0622197
0.0620903
0.0619723
0.061865
0.0617674
0.0616788
0.0615987
0.0615264
0.0614616
0.0614037
0.0613527
0.0613083
0.0612704
0.0612393
0.0612149
0.0611978
0.0611884
0.9617
0.892203
0.829108
0.771749
0.719534
0.671937
0.62849
0.588774
0.552418
0.519089
0.488491
0.460357
0.434451
0.410561
0.388495
0.368082
0.34917
0.331618
0.315303
0.300112
0.285943
0.272704
0.26031
0.248687
0.237766
0.227483
0.217783
0.208614
0.199931
0.191691
0.183861
0.176407
0.169303
0.162527
0.156061
0.149889
0.144003
0.138392
0.133053
0.127981
0.123173
0.118626
0.114337
0.110302
0.106517
0.102974
0.0996672
0.0965878
0.0937263
0.0910726
0.0886159
0.0863451
0.0842486
0.0823153
0.080534
0.078894
0.0773852
0.0759979
0.0747228
0.0735514
0.0724755
0.0714878
0.0705812
0.0697493
0.0689861
0.068286
0.0676439
0.0670553
0.0665157
0.0660211
0.065568
0.0651528
0.0647726
0.0644245
0.0641057
0.063814
0.0635471
0.063303
0.0630797
0.0628756
0.062689
0.0625186
0.062363
0.062221
0.0620914
0.0619734
0.0618659
0.0617682
0.0616796
0.0615994
0.061527
0.0614621
0.0614043
0.0613532
0.0613087
0.0612709
0.0612396
0.0612153
0.0611982
0.0611888
0.9617
0.892204
0.829109
0.771751
0.719536
0.67194
0.628493
0.588778
0.552422
0.519093
0.488495
0.460362
0.434456
0.410566
0.3885
0.368088
0.349175
0.331624
0.315309
0.300118
0.285949
0.27271
0.260317
0.248695
0.237774
0.227492
0.217793
0.208625
0.199942
0.191704
0.183875
0.176423
0.16932
0.162546
0.156081
0.149911
0.144026
0.138417
0.133079
0.128008
0.1232
0.118654
0.114365
0.11033
0.106545
0.103002
0.0996948
0.0966148
0.0937526
0.091098
0.0886402
0.0863681
0.0842703
0.0823356
0.080553
0.0789118
0.0774018
0.0760134
0.0747372
0.0735648
0.072488
0.0714994
0.070592
0.0697593
0.0689953
0.0682945
0.0676518
0.0670625
0.0665224
0.0660273
0.0655736
0.0651581
0.0647774
0.0644289
0.0641098
0.0638178
0.0635506
0.0633061
0.0630826
0.0628782
0.0626914
0.0625208
0.062365
0.0622228
0.0620931
0.0619749
0.0618673
0.0617695
0.0616807
0.0616004
0.061528
0.061463
0.0614051
0.061354
0.0613095
0.0612716
0.0612404
0.061216
0.0611989
0.0611895
0.9617
0.892205
0.829111
0.771753
0.719539
0.671944
0.628497
0.588783
0.552427
0.519099
0.488501
0.460368
0.434463
0.410572
0.388507
0.368095
0.349182
0.331631
0.315317
0.300126
0.285958
0.272719
0.260327
0.248705
0.237785
0.227504
0.217806
0.20864
0.199959
0.191722
0.183895
0.176444
0.169344
0.162572
0.156109
0.149942
0.144058
0.138451
0.133115
0.128045
0.123238
0.118692
0.114404
0.110369
0.106584
0.10304
0.0997325
0.0966516
0.0937882
0.0911323
0.088673
0.0863993
0.0842998
0.0823634
0.0805791
0.0789363
0.0774247
0.0760347
0.0747571
0.0735833
0.0725052
0.0715153
0.0706067
0.0697729
0.0690079
0.0683062
0.0676626
0.0670725
0.0665315
0.0660357
0.0655814
0.0651652
0.064784
0.0644349
0.0641153
0.0638228
0.0635551
0.0633103
0.0630864
0.0628817
0.0626946
0.0625237
0.0623676
0.0622252
0.0620953
0.0619769
0.0618691
0.0617711
0.0616823
0.0616019
0.0615294
0.0614643
0.0614063
0.0613551
0.0613106
0.0612727
0.0612414
0.0612171
0.0611999
0.0611905
0.9617
0.892205
0.829112
0.771755
0.719542
0.671947
0.628502
0.588788
0.552433
0.519105
0.488508
0.460375
0.43447
0.410581
0.388515
0.368104
0.349192
0.331641
0.315327
0.300137
0.285969
0.272731
0.26034
0.248719
0.2378
0.22752
0.217824
0.208659
0.19998
0.191745
0.18392
0.176472
0.169375
0.162605
0.156145
0.14998
0.144099
0.138494
0.13316
0.128091
0.123286
0.118741
0.114453
0.110419
0.106632
0.103088
0.0997796
0.0966975
0.0938327
0.0911751
0.088714
0.0864382
0.0843367
0.0823982
0.0806119
0.078967
0.0774534
0.0760615
0.0747821
0.0736066
0.0725268
0.0715354
0.0706254
0.0697902
0.0690239
0.0683209
0.0676762
0.067085
0.0665431
0.0660463
0.0655912
0.0651741
0.0647922
0.0644424
0.0641222
0.0638291
0.0635609
0.0633156
0.0630912
0.0628861
0.0626986
0.0625273
0.0623709
0.0622282
0.062098
0.0619794
0.0618714
0.0617733
0.0616842
0.0616037
0.0615311
0.0614659
0.0614078
0.0613566
0.061312
0.061274
0.0612428
0.0612184
0.0612013
0.0611918
0.9617
0.892205
0.829113
0.771756
0.719545
0.671951
0.628506
0.588793
0.552439
0.519112
0.488515
0.460383
0.434479
0.41059
0.388525
0.368114
0.349202
0.331652
0.315339
0.30015
0.285983
0.272746
0.260355
0.248736
0.237818
0.22754
0.217845
0.208682
0.200005
0.191773
0.183951
0.176506
0.169411
0.162644
0.156187
0.150025
0.144147
0.138545
0.133213
0.128147
0.123343
0.118799
0.114511
0.110477
0.10669
0.103145
0.0998353
0.0967517
0.0938851
0.0912255
0.0887622
0.0864842
0.0843802
0.0824394
0.0806506
0.0790033
0.0774875
0.0760934
0.0748118
0.0736342
0.0725526
0.0715593
0.0706475
0.0698107
0.0690428
0.0683384
0.0676924
0.0670999
0.0665568
0.066059
0.0656028
0.0651848
0.064802
0.0644514
0.0641304
0.0638366
0.0635678
0.0633218
0.0630969
0.0628913
0.0627034
0.0625317
0.0623749
0.0622318
0.0621013
0.0619824
0.0618742
0.0617758
0.0616866
0.0616059
0.0615331
0.0614678
0.0614097
0.0613583
0.0613137
0.0612757
0.0612444
0.06122
0.0612029
0.0611934
0.9617
0.892206
0.829113
0.771758
0.719547
0.671954
0.628511
0.588798
0.552446
0.519119
0.488523
0.460392
0.434488
0.4106
0.388536
0.368125
0.349214
0.331665
0.315352
0.300164
0.285998
0.272762
0.260373
0.248754
0.237838
0.227562
0.217869
0.208709
0.200034
0.191805
0.183986
0.176544
0.169453
0.16269
0.156236
0.150078
0.144203
0.138604
0.133274
0.12821
0.123408
0.118865
0.114578
0.110543
0.106756
0.10321
0.0998987
0.0968133
0.0939447
0.0912828
0.088817
0.0865363
0.0844297
0.0824861
0.0806946
0.0790447
0.0775263
0.0761297
0.0748457
0.0736658
0.0725819
0.0715866
0.0706728
0.0698341
0.0690645
0.0683585
0.0677109
0.067117
0.0665725
0.0660734
0.065616
0.065197
0.0648131
0.0644616
0.0641398
0.0638452
0.0635756
0.063329
0.0631034
0.0628972
0.0627088
0.0625366
0.0623794
0.0622359
0.0621051
0.0619858
0.0618773
0.0617787
0.0616893
0.0616084
0.0615355
0.0614701
0.0614118
0.0613604
0.0613157
0.0612776
0.0612463
0.0612219
0.0612047
0.0611952
0.9617
0.892206
0.829114
0.771759
0.719549
0.671957
0.628514
0.588803
0.552451
0.519126
0.488531
0.460401
0.434498
0.41061
0.388547
0.368137
0.349227
0.331679
0.315367
0.30018
0.286015
0.27278
0.260392
0.248776
0.237861
0.227587
0.217897
0.208739
0.200067
0.191842
0.184025
0.176587
0.1695
0.16274
0.156291
0.150136
0.144265
0.138669
0.133342
0.12828
0.123479
0.118937
0.114651
0.110616
0.106829
0.103282
0.0999688
0.0968815
0.0940105
0.0913461
0.0888776
0.0865941
0.0844845
0.0825379
0.0807435
0.0790906
0.0775693
0.0761699
0.0748833
0.0737008
0.0726145
0.0716169
0.0707009
0.0698602
0.0690886
0.0683807
0.0677314
0.067136
0.06659
0.0660895
0.0656308
0.0652105
0.0648256
0.064473
0.0641502
0.0638547
0.0635843
0.0633369
0.0631107
0.0629038
0.0627148
0.0625421
0.0623844
0.0622405
0.0621093
0.0619897
0.0618809
0.061782
0.0616923
0.0616112
0.0615381
0.0614726
0.0614142
0.0613627
0.0613179
0.0612798
0.0612485
0.061224
0.0612068
0.0611973
0.9617
0.892205
0.829114
0.771759
0.71955
0.671959
0.628517
0.588807
0.552457
0.519132
0.488538
0.460409
0.434507
0.41062
0.388558
0.368149
0.34924
0.331693
0.315383
0.300196
0.286033
0.2728
0.260413
0.248799
0.237887
0.227615
0.217927
0.208772
0.200103
0.191881
0.184069
0.176634
0.169551
0.162796
0.15635
0.150199
0.144332
0.138739
0.133415
0.128356
0.123557
0.119017
0.114731
0.110696
0.106908
0.10336
0.100045
0.0969554
0.094082
0.0914148
0.0889433
0.0866567
0.0845439
0.0825941
0.0807965
0.0791405
0.0776161
0.0762137
0.0749242
0.073739
0.0726501
0.0716499
0.0707316
0.0698886
0.0691149
0.068405
0.0677539
0.0671566
0.066609
0.066107
0.0656469
0.0652253
0.0648391
0.0644854
0.0641615
0.0638651
0.0635938
0.0633456
0.0631186
0.062911
0.0627214
0.0625481
0.0623899
0.0622455
0.0621138
0.0619939
0.0618847
0.0617856
0.0616956
0.0616143
0.061541
0.0614753
0.0614168
0.0613652
0.0613204
0.0612822
0.0612508
0.0612263
0.0612091
0.0611996
0.9617
0.892205
0.829114
0.77176
0.719551
0.671961
0.62852
0.588811
0.552461
0.519138
0.488545
0.460417
0.434516
0.410631
0.38857
0.368162
0.349254
0.331708
0.315399
0.300214
0.286052
0.27282
0.260436
0.248823
0.237914
0.227644
0.217959
0.208807
0.200142
0.191924
0.184115
0.176685
0.169606
0.162855
0.156414
0.150268
0.144404
0.138815
0.133494
0.128437
0.123641
0.119101
0.114816
0.110781
0.106992
0.103443
0.100126
0.0970343
0.0941583
0.0914882
0.0890135
0.0867236
0.0846075
0.0826543
0.0808532
0.0791938
0.0776662
0.0762606
0.074968
0.0737799
0.0726881
0.0716853
0.0707644
0.069919
0.0691431
0.0684311
0.0677779
0.0671789
0.0666295
0.0661259
0.0656642
0.0652412
0.0648537
0.0644988
0.0641738
0.0638762
0.063604
0.0633549
0.0631271
0.0629188
0.0627284
0.0625545
0.0623957
0.0622508
0.0621187
0.0619984
0.0618889
0.0617894
0.0616992
0.0616176
0.0615442
0.0614783
0.0614196
0.0613679
0.061323
0.0612848
0.0612533
0.0612288
0.0612116
0.061202
0.9617
0.892205
0.829114
0.77176
0.719552
0.671962
0.628522
0.588814
0.552466
0.519144
0.488552
0.460425
0.434525
0.410641
0.388581
0.368175
0.349268
0.331723
0.315415
0.300232
0.286072
0.272842
0.26046
0.24885
0.237942
0.227676
0.217994
0.208845
0.200184
0.191969
0.184165
0.176739
0.169665
0.162919
0.156482
0.15034
0.14448
0.138895
0.133578
0.128523
0.123729
0.119191
0.114906
0.110871
0.107081
0.10353
0.100212
0.0971176
0.0942388
0.0915656
0.0890876
0.0867942
0.0846746
0.0827177
0.0809131
0.0792502
0.0777191
0.0763102
0.0750144
0.0738231
0.0727284
0.0717228
0.0707992
0.0699513
0.069173
0.0684588
0.0678035
0.0672024
0.0666512
0.0661458
0.0656826
0.0652581
0.0648691
0.0645129
0.0641867
0.0638881
0.0636148
0.0633647
0.063136
0.062927
0.0627359
0.0625613
0.0624019
0.0622565
0.0621239
0.0620032
0.0618933
0.0617935
0.061703
0.0616212
0.0615475
0.0614814
0.0614226
0.0613708
0.0613258
0.0612875
0.061256
0.0612314
0.0612142
0.0612046
0.9617
0.892205
0.829113
0.77176
0.719552
0.671963
0.628524
0.588817
0.552469
0.519149
0.488558
0.460432
0.434534
0.410651
0.388592
0.368187
0.349282
0.331739
0.315432
0.300251
0.286092
0.272865
0.260485
0.248877
0.237972
0.227709
0.21803
0.208885
0.200227
0.192017
0.184217
0.176796
0.169726
0.162985
0.156553
0.150415
0.14456
0.138979
0.133665
0.128613
0.12382
0.119284
0.115
0.110965
0.107174
0.103622
0.100301
0.0972045
0.0943228
0.0916464
0.089165
0.086868
0.0847447
0.0827841
0.0809758
0.0793092
0.0777745
0.0763621
0.0750629
0.0738684
0.0727706
0.071762
0.0708357
0.0699851
0.0692043
0.0684877
0.0678303
0.0672271
0.066674
0.0661668
0.0657018
0.0652757
0.0648854
0.0645277
0.0642003
0.0639005
0.0636261
0.0633751
0.0631455
0.0629356
0.0627437
0.0625685
0.0624085
0.0622625
0.0621294
0.0620082
0.0618979
0.0617977
0.0617069
0.0616249
0.061551
0.0614847
0.0614258
0.0613738
0.0613287
0.0612903
0.0612588
0.0612342
0.0612169
0.0612072
0.9617
0.892204
0.829113
0.77176
0.719552
0.671964
0.628526
0.588819
0.552473
0.519153
0.488563
0.460439
0.434542
0.41066
0.388603
0.368199
0.349296
0.331754
0.31545
0.30027
0.286113
0.272888
0.26051
0.248905
0.238003
0.227743
0.218067
0.208926
0.200273
0.192066
0.184271
0.176854
0.16979
0.163053
0.156626
0.150493
0.144643
0.139065
0.133755
0.128706
0.123916
0.11938
0.115097
0.111062
0.10727
0.103716
0.100394
0.0972945
0.0944098
0.0917301
0.0892452
0.0869445
0.0848173
0.0828529
0.0810407
0.0793704
0.077832
0.0764159
0.0751133
0.0739155
0.0728145
0.0718028
0.0708736
0.0700203
0.0692369
0.0685179
0.0678581
0.0672528
0.0666976
0.0661886
0.0657219
0.0652941
0.0649022
0.0645432
0.0642144
0.0639134
0.0636379
0.0633858
0.0631553
0.0629445
0.0627519
0.0625759
0.0624153
0.0622687
0.0621351
0.0620134
0.0619027
0.0618022
0.061711
0.0616287
0.0615546
0.0614881
0.061429
0.061377
0.0613317
0.0612933
0.0612616
0.061237
0.0612196
0.06121
0.961699
0.892204
0.829113
0.771759
0.719552
0.671964
0.628527
0.588821
0.552475
0.519157
0.488568
0.460445
0.434549
0.410669
0.388613
0.368211
0.349309
0.331769
0.315467
0.300289
0.286134
0.272911
0.260536
0.248934
0.238035
0.227778
0.218106
0.208968
0.200319
0.192117
0.184327
0.176915
0.169855
0.163124
0.156702
0.150574
0.144728
0.139154
0.133847
0.128802
0.124013
0.119479
0.115197
0.111161
0.107369
0.103814
0.100489
0.097387
0.0944993
0.0918162
0.0893276
0.0870231
0.0848921
0.0829237
0.0811076
0.0794334
0.0778912
0.0764715
0.0751652
0.073964
0.0728597
0.0718449
0.0709127
0.0700566
0.0692705
0.068549
0.0678868
0.0672793
0.0667221
0.0662111
0.0657426
0.0653131
0.0649196
0.0645591
0.064229
0.0639267
0.0636501
0.063397
0.0631654
0.0629538
0.0627603
0.0625836
0.0624223
0.0622751
0.0621409
0.0620187
0.0619076
0.0618067
0.0617153
0.0616327
0.0615583
0.0614917
0.0614324
0.0613802
0.0613348
0.0612963
0.0612646
0.0612399
0.0612225
0.0612128
0.961699
0.892204
0.829112
0.771759
0.719552
0.671965
0.628527
0.588823
0.552478
0.51916
0.488573
0.460451
0.434556
0.410677
0.388623
0.368223
0.349322
0.331784
0.315483
0.300308
0.286156
0.272935
0.260562
0.248963
0.238067
0.227813
0.218145
0.209011
0.200367
0.192169
0.184383
0.176977
0.169922
0.163196
0.156779
0.150656
0.144815
0.139245
0.133942
0.128899
0.124113
0.119581
0.115298
0.111263
0.10747
0.103913
0.100586
0.0974814
0.0945906
0.0919041
0.0894119
0.0871035
0.0849685
0.0829962
0.081176
0.0794979
0.0779518
0.0765283
0.0752184
0.0740136
0.072906
0.071888
0.0709528
0.0700938
0.069305
0.0685809
0.0679163
0.0673065
0.0667472
0.0662342
0.0657638
0.0653326
0.0649375
0.0645755
0.064244
0.0639404
0.0636626
0.0634084
0.0631758
0.0629632
0.0627689
0.0625915
0.0624294
0.0622816
0.0621469
0.0620242
0.0619127
0.0618114
0.0617196
0.0616367
0.0615621
0.0614952
0.0614358
0.0613834
0.061338
0.0612993
0.0612675
0.0612428
0.0612253
0.0612156
0.961699
0.892203
0.829112
0.771758
0.719552
0.671965
0.628528
0.588824
0.55248
0.519163
0.488577
0.460456
0.434563
0.410685
0.388632
0.368234
0.349335
0.331799
0.3155
0.300327
0.286177
0.272958
0.260589
0.248992
0.238099
0.227849
0.218185
0.209055
0.200415
0.192222
0.184441
0.17704
0.16999
0.163269
0.156858
0.15074
0.144903
0.139338
0.134038
0.128998
0.124214
0.119683
0.115402
0.111366
0.107572
0.104014
0.100685
0.0975773
0.0946834
0.0919934
0.0894975
0.0871852
0.0850462
0.0830698
0.0812457
0.0795635
0.0780134
0.0765861
0.0752726
0.0740642
0.0729532
0.071932
0.0709936
0.0701317
0.0693402
0.0686134
0.0679464
0.0673343
0.0667728
0.0662577
0.0657854
0.0653525
0.0649557
0.0645922
0.0642592
0.0639544
0.0636753
0.06342
0.0631864
0.0629729
0.0627777
0.0625995
0.0624368
0.0622883
0.062153
0.0620298
0.0619178
0.0618162
0.061724
0.0616408
0.0615659
0.0614989
0.0614392
0.0613867
0.0613411
0.0613024
0.0612705
0.0612457
0.0612282
0.0612184
0.961699
0.892203
0.829111
0.771758
0.719551
0.671965
0.628528
0.588825
0.552482
0.519166
0.488581
0.460461
0.434569
0.410693
0.388641
0.368244
0.349348
0.331813
0.315516
0.300345
0.286198
0.272982
0.260615
0.249021
0.238132
0.227885
0.218225
0.209099
0.200463
0.192276
0.1845
0.177103
0.170059
0.163343
0.156937
0.150824
0.144992
0.139431
0.134135
0.129098
0.124316
0.119787
0.115506
0.11147
0.107675
0.104115
0.100784
0.0976742
0.0947772
0.0920837
0.089584
0.0872679
0.0851249
0.0831444
0.0813161
0.0796299
0.0780759
0.0766448
0.0753275
0.0741155
0.0730011
0.0719766
0.0710351
0.0701702
0.0693758
0.0686464
0.0679769
0.0673625
0.0667987
0.0662816
0.0658074
0.0653727
0.0649742
0.0646091
0.0642747
0.0639685
0.0636882
0.0634318
0.0631972
0.0629827
0.0627866
0.0626076
0.0624442
0.0622951
0.0621592
0.0620355
0.061923
0.061821
0.0617285
0.061645
0.0615698
0.0615025
0.0614427
0.06139
0.0613443
0.0613054
0.0612735
0.0612486
0.061231
0.0612213
0.961699
0.892203
0.829111
0.771757
0.719551
0.671964
0.628529
0.588826
0.552483
0.519168
0.488584
0.460465
0.434575
0.4107
0.38865
0.368255
0.34936
0.331827
0.315533
0.300363
0.286218
0.273005
0.260641
0.24905
0.238165
0.227922
0.218265
0.209144
0.200512
0.192329
0.184558
0.177167
0.170128
0.163418
0.157016
0.150908
0.145081
0.139524
0.134232
0.129198
0.124419
0.119891
0.115611
0.111575
0.107779
0.104218
0.100884
0.0977717
0.0948715
0.0921746
0.0896712
0.0873511
0.0852041
0.0832195
0.0813871
0.0796969
0.0781389
0.0767039
0.0753828
0.0741673
0.0730493
0.0720215
0.0710769
0.070209
0.0694118
0.0686798
0.0680077
0.0673909
0.0668249
0.0663057
0.0658296
0.065393
0.0649929
0.0646262
0.0642904
0.0639828
0.0637013
0.0634437
0.063208
0.0629925
0.0627956
0.0626158
0.0624516
0.0623019
0.0621654
0.0620412
0.0619283
0.0618258
0.061733
0.0616491
0.0615737
0.0615062
0.0614462
0.0613933
0.0613474
0.0613085
0.0612764
0.0612515
0.0612339
0.0612241
0.961699
0.892202
0.82911
0.771757
0.719551
0.671964
0.628529
0.588826
0.552484
0.51917
0.488587
0.460469
0.43458
0.410707
0.388658
0.368264
0.349371
0.331841
0.315548
0.300381
0.286239
0.273028
0.260667
0.249079
0.238197
0.227958
0.218305
0.209188
0.200561
0.192383
0.184617
0.177231
0.170197
0.163492
0.157096
0.150993
0.14517
0.139618
0.134329
0.129298
0.124521
0.119995
0.115715
0.11168
0.107883
0.10432
0.100984
0.0978693
0.094966
0.0922657
0.0897586
0.0874346
0.0852835
0.0832949
0.0814584
0.0797641
0.0782022
0.0767632
0.0754384
0.0742193
0.0730979
0.0720667
0.071119
0.070248
0.069448
0.0687133
0.0680387
0.0674195
0.0668513
0.06633
0.0658519
0.0654135
0.0650117
0.0646435
0.0643061
0.0639972
0.0637144
0.0634556
0.0632189
0.0630025
0.0628047
0.062624
0.0624591
0.0623087
0.0621717
0.0620469
0.0619335
0.0618306
0.0617374
0.0616533
0.0615776
0.0615098
0.0614496
0.0613966
0.0613506
0.0613115
0.0612793
0.0612543
0.0612367
0.0612268
0.961699
0.892202
0.82911
0.771756
0.71955
0.671964
0.628529
0.588827
0.552486
0.519172
0.48859
0.460473
0.434585
0.410713
0.388666
0.368274
0.349383
0.331854
0.315563
0.300399
0.286259
0.273051
0.260693
0.249108
0.238229
0.227993
0.218345
0.209232
0.200609
0.192436
0.184675
0.177294
0.170266
0.163566
0.157175
0.151077
0.145259
0.139711
0.134426
0.129398
0.124623
0.120098
0.11582
0.111784
0.107986
0.104422
0.101084
0.0979667
0.0950604
0.0923566
0.0898458
0.087518
0.0853629
0.0833702
0.0815297
0.0798313
0.0782654
0.0768227
0.0754941
0.0742713
0.0731464
0.072112
0.0711611
0.0702872
0.0694843
0.0687469
0.0680698
0.0674482
0.0668777
0.0663543
0.0658743
0.0654341
0.0650305
0.0646607
0.0643219
0.0640116
0.0637275
0.0634676
0.0632298
0.0630124
0.0628137
0.0626322
0.0624666
0.0623156
0.0621779
0.0620526
0.0619387
0.0618354
0.0617419
0.0616574
0.0615814
0.0615134
0.061453
0.0613998
0.0613536
0.0613144
0.0612822
0.0612571
0.0612394
0.0612296
0.961698
0.892202
0.829109
0.771756
0.71955
0.671964
0.628529
0.588827
0.552486
0.519174
0.488592
0.460477
0.43459
0.410719
0.388674
0.368283
0.349393
0.331867
0.315578
0.300416
0.286278
0.273073
0.260718
0.249136
0.238261
0.228029
0.218384
0.209275
0.200657
0.192488
0.184732
0.177357
0.170334
0.163639
0.157253
0.15116
0.145347
0.139803
0.134521
0.129497
0.124724
0.120201
0.115923
0.111887
0.108089
0.104523
0.101184
0.0980635
0.0951542
0.0924471
0.0899326
0.087601
0.0854419
0.0834452
0.0816007
0.0798983
0.0783285
0.0768819
0.0755496
0.0743232
0.0731949
0.0721572
0.0712031
0.0703262
0.0695205
0.0687804
0.0681007
0.0674768
0.0669041
0.0663786
0.0658966
0.0654546
0.0650493
0.0646779
0.0643376
0.064026
0.0637407
0.0634795
0.0632407
0.0630223
0.0628227
0.0626404
0.0624741
0.0623223
0.0621841
0.0620583
0.0619439
0.0618402
0.0617462
0.0616615
0.0615852
0.061517
0.0614563
0.061403
0.0613567
0.0613173
0.061285
0.0612598
0.0612421
0.0612322
0.961698
0.892201
0.829109
0.771755
0.719549
0.671963
0.628529
0.588828
0.552487
0.519175
0.488595
0.46048
0.434594
0.410725
0.388681
0.368292
0.349404
0.331879
0.315593
0.300432
0.286297
0.273095
0.260742
0.249164
0.238292
0.228063
0.218422
0.209318
0.200704
0.19254
0.184789
0.177419
0.170401
0.163711
0.157331
0.151243
0.145434
0.139894
0.134616
0.129595
0.124825
0.120303
0.116026
0.11199
0.108191
0.104624
0.101282
0.0981595
0.0952472
0.0925368
0.0900188
0.0876833
0.0855204
0.0835197
0.0816712
0.0799649
0.0783912
0.0769407
0.0756048
0.0743748
0.0732431
0.0722021
0.0712448
0.070365
0.0695565
0.0688137
0.0681316
0.0675053
0.0669304
0.0664028
0.0659188
0.0654749
0.065068
0.064695
0.0643533
0.0640403
0.0637537
0.0634914
0.0632515
0.0630321
0.0628317
0.0626486
0.0624815
0.0623291
0.0621902
0.0620639
0.061949
0.0618449
0.0617506
0.0616655
0.0615889
0.0615204
0.0614596
0.0614061
0.0613596
0.0613202
0.0612878
0.0612625
0.0612447
0.0612348
0.961698
0.892201
0.829108
0.771755
0.719549
0.671963
0.628529
0.588828
0.552488
0.519177
0.488597
0.460483
0.434598
0.41073
0.388688
0.3683
0.349414
0.331891
0.315606
0.300449
0.286316
0.273116
0.260766
0.249191
0.238322
0.228097
0.21846
0.20936
0.200751
0.192591
0.184845
0.177479
0.170467
0.163782
0.157407
0.151324
0.145519
0.139984
0.13471
0.129691
0.124923
0.120403
0.116127
0.112091
0.108292
0.104723
0.10138
0.0982542
0.0953391
0.0926254
0.0901039
0.0877648
0.085598
0.0835934
0.081741
0.0800308
0.0784532
0.076999
0.0756594
0.074426
0.0732908
0.0722465
0.0712863
0.0704035
0.0695922
0.0688468
0.0681621
0.0675335
0.0669564
0.0664267
0.0659408
0.0654952
0.0650865
0.064712
0.0643688
0.0640544
0.0637666
0.0635032
0.0632622
0.0630419
0.0628405
0.0626566
0.0624888
0.0623357
0.0621963
0.0620694
0.0619541
0.0618495
0.0617548
0.0616694
0.0615926
0.0615238
0.0614628
0.0614091
0.0613625
0.0613229
0.0612904
0.0612651
0.0612472
0.0612373
0.961698
0.892201
0.829108
0.771754
0.719548
0.671962
0.628528
0.588828
0.552489
0.519178
0.488599
0.460486
0.434602
0.410735
0.388694
0.368308
0.349423
0.331902
0.31562
0.300464
0.286334
0.273136
0.260789
0.249217
0.238352
0.22813
0.218497
0.209401
0.200796
0.192641
0.1849
0.177539
0.170531
0.163852
0.157482
0.151403
0.145603
0.140072
0.134801
0.129786
0.12502
0.120502
0.116226
0.112191
0.10839
0.104821
0.101475
0.0983476
0.0954296
0.0927128
0.0901878
0.0878451
0.0856745
0.0836661
0.0818098
0.0800958
0.0785144
0.0770565
0.0757133
0.0744764
0.073338
0.0722905
0.0713272
0.0704415
0.0696274
0.0688794
0.0681923
0.0675614
0.0669821
0.0664504
0.0659626
0.0655151
0.0651048
0.0647287
0.0643841
0.0640684
0.0637793
0.0635148
0.0632727
0.0630515
0.0628492
0.0626645
0.062496
0.0623423
0.0622022
0.0620748
0.061959
0.061854
0.061759
0.0616732
0.0615961
0.0615272
0.0614659
0.061412
0.0613653
0.0613256
0.061293
0.0612676
0.0612497
0.0612397
0.961698
0.8922
0.829107
0.771754
0.719548
0.671962
0.628528
0.588828
0.552489
0.519179
0.488601
0.460489
0.434606
0.41074
0.3887
0.368316
0.349433
0.331913
0.315633
0.300479
0.286351
0.273156
0.260812
0.249243
0.23838
0.228163
0.218533
0.209441
0.20084
0.19269
0.184953
0.177597
0.170595
0.16392
0.157555
0.151481
0.145685
0.140158
0.134891
0.129878
0.125115
0.120598
0.116324
0.112288
0.108487
0.104916
0.101569
0.0984391
0.0955185
0.0927986
0.0902703
0.087924
0.0857497
0.0837376
0.0818775
0.0801597
0.0785747
0.0771132
0.0757664
0.0745261
0.0733844
0.0723338
0.0713675
0.0704789
0.0696622
0.0689116
0.0682221
0.0675888
0.0670074
0.0664737
0.065984
0.0655348
0.0651229
0.0647452
0.0643992
0.0640821
0.0637919
0.0635262
0.0632831
0.0630609
0.0628578
0.0626723
0.062503
0.0623487
0.0622081
0.0620801
0.0619639
0.0618585
0.0617631
0.061677
0.0615996
0.0615304
0.0614689
0.0614148
0.061368
0.0613281
0.0612954
0.06127
0.061252
0.061242
0.961698
0.8922
0.829107
0.771753
0.719547
0.671962
0.628528
0.588828
0.55249
0.51918
0.488603
0.460491
0.43461
0.410745
0.388706
0.368323
0.349441
0.331924
0.315645
0.300494
0.286368
0.273176
0.260834
0.249268
0.238408
0.228194
0.218568
0.20948
0.200884
0.192738
0.185005
0.177654
0.170656
0.163987
0.157626
0.151557
0.145766
0.140242
0.134978
0.129969
0.125208
0.120692
0.116419
0.112383
0.108582
0.10501
0.101661
0.0985288
0.0956055
0.0928826
0.090351
0.0880013
0.0858235
0.0838076
0.0819439
0.0802224
0.0786338
0.0771687
0.0758186
0.0745749
0.07343
0.0723763
0.071407
0.0705157
0.0696963
0.0689432
0.0682513
0.0676158
0.0670323
0.0664966
0.0660051
0.0655541
0.0651406
0.0647614
0.064414
0.0640957
0.0638042
0.0635374
0.0632933
0.0630701
0.0628662
0.0626799
0.0625099
0.0623549
0.0622138
0.0620853
0.0619686
0.0618628
0.061767
0.0616806
0.0616029
0.0615335
0.0614718
0.0614176
0.0613705
0.0613306
0.0612978
0.0612723
0.0612542
0.0612442
0.961698
0.8922
0.829106
0.771753
0.719547
0.671961
0.628528
0.588828
0.55249
0.519181
0.488604
0.460494
0.434613
0.410749
0.388712
0.36833
0.34945
0.331934
0.315657
0.300508
0.286384
0.273194
0.260855
0.249292
0.238436
0.228224
0.218602
0.209518
0.200925
0.192784
0.185056
0.177709
0.170716
0.164051
0.157695
0.15163
0.145843
0.140324
0.135064
0.130057
0.125298
0.120784
0.116511
0.112476
0.108674
0.105101
0.101751
0.0986162
0.0956904
0.0929646
0.0904299
0.0880768
0.0858955
0.0838761
0.0820088
0.0802838
0.0786916
0.0772231
0.0758695
0.0746227
0.0734746
0.0724179
0.0714457
0.0705517
0.0697297
0.0689741
0.0682799
0.0676423
0.0670567
0.0665191
0.0660257
0.065573
0.0651579
0.0647773
0.0644284
0.0641089
0.0638162
0.0635483
0.0633033
0.0630792
0.0628744
0.0626874
0.0625167
0.0623611
0.0622193
0.0620903
0.0619732
0.0618669
0.0617708
0.0616841
0.0616062
0.0615365
0.0614746
0.0614202
0.061373
0.0613329
0.0613
0.0612744
0.0612564
0.0612463
0.961698
0.892199
0.829106
0.771752
0.719546
0.671961
0.628528
0.588828
0.552491
0.519182
0.488606
0.460496
0.434616
0.410753
0.388717
0.368336
0.349458
0.331944
0.315669
0.300521
0.286399
0.273212
0.260876
0.249315
0.238462
0.228254
0.218635
0.209554
0.200966
0.192828
0.185105
0.177763
0.170774
0.164114
0.157762
0.151702
0.145919
0.140403
0.135146
0.130142
0.125385
0.120873
0.116601
0.112566
0.108764
0.10519
0.101838
0.0987013
0.095773
0.0930444
0.0905067
0.0881503
0.0859657
0.0839429
0.0820721
0.0803436
0.0787479
0.0772761
0.0759193
0.0746692
0.0735181
0.0724585
0.0714835
0.0705868
0.0697623
0.0690043
0.0683079
0.067668
0.0670804
0.066541
0.0660458
0.0655915
0.0651748
0.0647927
0.0644426
0.0641218
0.0638279
0.063559
0.063313
0.063088
0.0628824
0.0626946
0.0625232
0.062367
0.0622247
0.0620952
0.0619776
0.061871
0.0617745
0.0616875
0.0616093
0.0615393
0.0614773
0.0614227
0.0613754
0.0613352
0.0613022
0.0612765
0.0612584
0.0612483
0.961698
0.892199
0.829106
0.771752
0.719546
0.67196
0.628527
0.588828
0.552491
0.519183
0.488607
0.460498
0.434619
0.410757
0.388722
0.368343
0.349466
0.331953
0.31568
0.300534
0.286414
0.273229
0.260895
0.249337
0.238487
0.228282
0.218667
0.209589
0.201005
0.192871
0.185152
0.177814
0.17083
0.164174
0.157827
0.151771
0.145992
0.14048
0.135226
0.130224
0.12547
0.120959
0.116688
0.112653
0.108851
0.105276
0.101922
0.0987838
0.0958531
0.0931219
0.0905812
0.0882218
0.0860338
0.0840077
0.0821335
0.0804017
0.0788027
0.0773276
0.0759676
0.0747145
0.0735604
0.072498
0.0715203
0.070621
0.069794
0.0690337
0.068335
0.0676931
0.0671036
0.0665623
0.0660654
0.0656095
0.0651913
0.0648078
0.0644563
0.0641343
0.0638394
0.0635694
0.0633224
0.0630965
0.0628901
0.0627016
0.0625296
0.0623727
0.0622299
0.0620999
0.0619819
0.0618749
0.061778
0.0616907
0.0616123
0.0615421
0.0614798
0.0614251
0.0613776
0.0613373
0.0613042
0.0612785
0.0612603
0.0612501
0.961698
0.892199
0.829105
0.771751
0.719545
0.67196
0.628527
0.588828
0.552492
0.519184
0.488609
0.4605
0.434622
0.410761
0.388727
0.368349
0.349473
0.331962
0.31569
0.300546
0.286429
0.273246
0.260914
0.249359
0.238511
0.228309
0.218697
0.209623
0.201042
0.192913
0.185197
0.177864
0.170884
0.164232
0.157889
0.151837
0.146062
0.140553
0.135303
0.130304
0.125552
0.121042
0.116772
0.112738
0.108935
0.105359
0.102004
0.0988635
0.0959306
0.0931968
0.0906533
0.0882909
0.0860998
0.0840705
0.082193
0.0804579
0.0788558
0.0773775
0.0760145
0.0747584
0.0736014
0.0725362
0.071556
0.0706541
0.0698247
0.0690622
0.0683614
0.0677175
0.067126
0.0665829
0.0660844
0.0656269
0.0652072
0.0648224
0.0644696
0.0641464
0.0638504
0.0635794
0.0633315
0.0631048
0.0628976
0.0627084
0.0625357
0.0623783
0.0622349
0.0621045
0.061986
0.0618786
0.0617814
0.0616938
0.0616151
0.0615447
0.0614822
0.0614273
0.0613797
0.0613393
0.0613061
0.0612803
0.0612621
0.0612519
0.961697
0.892199
0.829105
0.771751
0.719545
0.67196
0.628527
0.588828
0.552492
0.519185
0.48861
0.460502
0.434625
0.410765
0.388732
0.368355
0.34948
0.33197
0.3157
0.300558
0.286442
0.273261
0.260932
0.249379
0.238534
0.228335
0.218726
0.209656
0.201078
0.192952
0.185241
0.177911
0.170935
0.164288
0.157949
0.151901
0.14613
0.140624
0.135377
0.13038
0.12563
0.121122
0.116853
0.112819
0.109016
0.105439
0.102082
0.0989404
0.0960053
0.093269
0.0907229
0.0883575
0.0861635
0.084131
0.0822505
0.0805123
0.0789071
0.0774258
0.0760598
0.0748008
0.0736411
0.0725732
0.0715904
0.0706861
0.0698545
0.0690898
0.0683869
0.067741
0.0671477
0.0666029
0.0661027
0.0656437
0.0652226
0.0648365
0.0644825
0.0641581
0.0638611
0.0635891
0.0633403
0.0631127
0.0629048
0.0627149
0.0625416
0.0623836
0.0622397
0.0621088
0.0619899
0.0618822
0.0617847
0.0616968
0.0616178
0.0615472
0.0614845
0.0614295
0.0613817
0.0613412
0.0613079
0.061282
0.0612638
0.0612535
0.961697
0.892198
0.829105
0.771751
0.719544
0.671959
0.628527
0.588828
0.552492
0.519185
0.488611
0.460504
0.434627
0.410768
0.388736