/*--------------------------------*- C++ -*----------------------------------*\
  =========                 |
  \\      /  F ield         | OpenFOAM: The Open Source CFD Toolbox
   \\    /   O peration     | Website:  https://openfoam.org
    \\  /    A nd           | Version:  11
     \\/     M anipulation  |
\*---------------------------------------------------------------------------*/
FoamFile
{
    format      ascii;
    class       surfaceScalarField;
    location    "188";
    object      phi;
}
// * * * * * * * * * * * * * * * * * * * * * * * * * * * * * * * * * * * * * //

dimensions      [0 3 -1 0 0 0 0];

internalField   nonuniform List<scalar> 
19800
(
1.99928e-05
-7.09945e-08
1.9981e-05
-2.09991e-07
1.9966e-05
-3.48761e-07
1.99479e-05
-4.89376e-07
1.99266e-05
-6.33248e-07
1.99022e-05
-7.81298e-07
1.98744e-05
-9.34211e-07
1.98431e-05
-1.09253e-06
1.98081e-05
-1.25669e-06
1.97693e-05
-1.42705e-06
1.97264e-05
-1.60393e-06
1.96791e-05
-1.78758e-06
1.96274e-05
-1.9782e-06
1.95708e-05
-2.17597e-06
1.95093e-05
-2.38098e-06
1.94424e-05
-2.59329e-06
1.93701e-05
-2.81291e-06
1.9292e-05
-3.03978e-06
1.92079e-05
-3.27375e-06
1.91175e-05
-3.51461e-06
1.90206e-05
-3.76206e-06
1.89171e-05
-4.01569e-06
1.88066e-05
-4.27499e-06
1.86889e-05
-4.53931e-06
1.85641e-05
-4.8079e-06
1.84318e-05
-5.07984e-06
1.82921e-05
-5.35409e-06
1.81449e-05
-5.62946e-06
1.79904e-05
-5.90459e-06
1.78285e-05
-6.17803e-06
1.76594e-05
-6.44816e-06
1.74836e-05
-6.7133e-06
1.73012e-05
-6.97169e-06
1.71128e-05
-7.22157e-06
1.69189e-05
-7.46118e-06
1.672e-05
-7.68885e-06
1.65168e-05
-7.90305e-06
1.63101e-05
-8.10242e-06
1.61005e-05
-8.28584e-06
1.58889e-05
-8.45243e-06
1.5676e-05
-8.6016e-06
1.54626e-05
-8.73304e-06
1.52497e-05
-8.84678e-06
1.50381e-05
-8.94304e-06
1.48269e-05
-9.02183e-06
1.46143e-05
-9.08331e-06
1.44009e-05
-9.12802e-06
1.41876e-05
-9.1573e-06
1.39752e-05
-9.17252e-06
1.37662e-05
-9.17505e-06
1.35621e-05
-9.16551e-06
1.33624e-05
-9.14414e-06
1.3167e-05
-9.11168e-06
1.29764e-05
-9.06878e-06
1.27895e-05
-9.01597e-06
1.26054e-05
-8.95432e-06
1.24239e-05
-8.88487e-06
1.22452e-05
-8.80817e-06
1.20694e-05
-8.72466e-06
1.18966e-05
-8.63481e-06
1.17269e-05
-8.53904e-06
1.15601e-05
-8.43776e-06
1.13965e-05
-8.33134e-06
1.12358e-05
-8.22015e-06
1.10782e-05
-8.10449e-06
1.09237e-05
-7.98469e-06
1.07723e-05
-7.86103e-06
1.06239e-05
-7.7338e-06
1.04787e-05
-7.60325e-06
1.03366e-05
-7.46965e-06
1.01976e-05
-7.33327e-06
1.00619e-05
-7.19436e-06
9.92937e-06
-7.05317e-06
9.80012e-06
-6.90998e-06
9.6742e-06
-6.76506e-06
9.55164e-06
-6.61867e-06
9.43251e-06
-6.47112e-06
9.31685e-06
-6.32271e-06
9.20473e-06
-6.17374e-06
9.0962e-06
-6.02455e-06
8.99135e-06
-5.87549e-06
8.89023e-06
-5.72692e-06
8.79292e-06
-5.57925e-06
8.69951e-06
-5.43288e-06
8.61007e-06
-5.28826e-06
8.52469e-06
-5.14586e-06
8.44347e-06
-5.00618e-06
8.36651e-06
-4.86977e-06
8.29391e-06
-4.73721e-06
8.22579e-06
-4.60913e-06
8.16228e-06
-4.48623e-06
8.10353e-06
-4.36925e-06
8.0497e-06
-4.25904e-06
8.00098e-06
-4.15652e-06
7.9576e-06
-4.06277e-06
7.91983e-06
-3.97901e-06
7.88801e-06
-3.90668e-06
7.86262e-06
-3.84751e-06
7.84451e-06
-3.80414e-06
-3.78118e-06
1.99947e-05
-6.56508e-08
1.99835e-05
-1.98833e-07
1.99686e-05
-3.33837e-07
1.99504e-05
-4.71211e-07
1.99291e-05
-6.11929e-07
1.99046e-05
-7.56772e-07
1.98767e-05
-9.06357e-07
1.98454e-05
-1.06119e-06
1.98104e-05
-1.22168e-06
1.97715e-05
-1.38818e-06
1.97285e-05
-1.56098e-06
1.96813e-05
-1.74033e-06
1.96295e-05
-1.92642e-06
1.95729e-05
-2.11942e-06
1.95114e-05
-2.31942e-06
1.94446e-05
-2.52648e-06
1.93723e-05
-2.7406e-06
1.92942e-05
-2.96171e-06
1.92101e-05
-3.18968e-06
1.91198e-05
-3.4243e-06
1.9023e-05
-3.66526e-06
1.89195e-05
-3.91219e-06
1.88091e-05
-4.16457e-06
1.86916e-05
-4.4218e-06
1.85668e-05
-4.68315e-06
1.84347e-05
-4.94773e-06
1.82952e-05
-5.21456e-06
1.81482e-05
-5.48248e-06
1.79938e-05
-5.75022e-06
1.78322e-05
-6.01636e-06
1.76634e-05
-6.2794e-06
1.74878e-05
-6.53771e-06
1.73058e-05
-6.78963e-06
1.71177e-05
-7.03347e-06
1.69241e-05
-7.26756e-06
1.67255e-05
-7.49029e-06
1.65226e-05
-7.7002e-06
1.63162e-05
-7.89597e-06
1.61068e-05
-8.0765e-06
1.58953e-05
-8.24093e-06
1.56824e-05
-8.38864e-06
1.54686e-05
-8.51928e-06
1.52546e-05
-8.63274e-06
1.50405e-05
-8.72894e-06
1.48265e-05
-8.80781e-06
1.4613e-05
-8.86981e-06
1.44011e-05
-8.91619e-06
1.41915e-05
-8.94771e-06
1.39844e-05
-8.96538e-06
1.37798e-05
-8.97042e-06
1.35777e-05
-8.96345e-06
1.33784e-05
-8.94485e-06
1.31822e-05
-8.91545e-06
1.29895e-05
-8.87608e-06
1.28005e-05
-8.82702e-06
1.26151e-05
-8.76891e-06
1.24329e-05
-8.70269e-06
1.22538e-05
-8.62907e-06
1.20778e-05
-8.54862e-06
1.19048e-05
-8.46182e-06
1.17349e-05
-8.3691e-06
1.1568e-05
-8.27087e-06
1.14042e-05
-8.16751e-06
1.12434e-05
-8.05938e-06
1.10857e-05
-7.94679e-06
1.09311e-05
-7.83005e-06
1.07795e-05
-7.70948e-06
1.06311e-05
-7.58534e-06
1.04857e-05
-7.45791e-06
1.03435e-05
-7.32745e-06
1.02045e-05
-7.19423e-06
1.00686e-05
-7.05852e-06
9.93604e-06
-6.92057e-06
9.80672e-06
-6.78066e-06
9.68072e-06
-6.63906e-06
9.55809e-06
-6.49605e-06
9.43888e-06
-6.35192e-06
9.32315e-06
-6.20698e-06
9.21096e-06
-6.06155e-06
9.10237e-06
-5.91596e-06
8.99745e-06
-5.77056e-06
8.89626e-06
-5.62574e-06
8.79888e-06
-5.48187e-06
8.70539e-06
-5.33939e-06
8.61587e-06
-5.19874e-06
8.5304e-06
-5.06039e-06
8.44907e-06
-4.92486e-06
8.37199e-06
-4.79269e-06
8.29925e-06
-4.66447e-06
8.23096e-06
-4.54085e-06
8.16725e-06
-4.42252e-06
8.10825e-06
-4.31025e-06
8.05409e-06
-4.20488e-06
8.00495e-06
-4.10738e-06
7.961e-06
-4.01881e-06
7.92242e-06
-3.94043e-06
7.88944e-06
-3.87369e-06
7.86222e-06
-3.82029e-06
7.84066e-06
-3.78257e-06
-3.7639e-06
1.9996e-05
-6.16344e-08
1.99861e-05
-1.8892e-07
1.99718e-05
-3.19591e-07
1.9954e-05
-4.53372e-07
1.99328e-05
-5.90751e-07
1.99083e-05
-7.32291e-07
1.98805e-05
-8.78501e-07
1.98491e-05
-1.02982e-06
1.98141e-05
-1.18664e-06
1.97752e-05
-1.34927e-06
1.97322e-05
-1.518e-06
1.96849e-05
-1.69306e-06
1.96331e-05
-1.87464e-06
1.95766e-05
-2.06288e-06
1.95151e-05
-2.25789e-06
1.94483e-05
-2.45971e-06
1.9376e-05
-2.66834e-06
1.9298e-05
-2.88372e-06
1.92141e-05
-3.1057e-06
1.91239e-05
-3.33409e-06
1.90272e-05
-3.5686e-06
1.89239e-05
-3.80885e-06
1.88137e-05
-4.05436e-06
1.86964e-05
-4.30454e-06
1.85719e-05
-4.55868e-06
1.84402e-05
-4.81596e-06
1.8301e-05
-5.07541e-06
1.81545e-05
-5.33594e-06
1.80006e-05
-5.59633e-06
1.78395e-05
-5.85525e-06
1.76713e-05
-6.11125e-06
1.74964e-05
-6.36279e-06
1.7315e-05
-6.60828e-06
1.71277e-05
-6.84612e-06
1.69348e-05
-7.0747e-06
1.6737e-05
-7.2925e-06
1.65349e-05
-7.4981e-06
1.63292e-05
-7.69022e-06
1.61205e-05
-7.86779e-06
1.59095e-05
-8.02993e-06
1.56969e-05
-8.17601e-06
1.54832e-05
-8.30562e-06
1.5269e-05
-8.41855e-06
1.50548e-05
-8.51468e-06
1.4841e-05
-8.59409e-06
1.46286e-05
-8.65732e-06
1.44177e-05
-8.70535e-06
1.4209e-05
-8.73896e-06
1.40026e-05
-8.759e-06
1.37986e-05
-8.76644e-06
1.35971e-05
-8.76195e-06
1.33984e-05
-8.74611e-06
1.32026e-05
-8.71967e-06
1.30098e-05
-8.68332e-06
1.28203e-05
-8.6375e-06
1.26341e-05
-8.58275e-06
1.24513e-05
-8.51982e-06
1.22716e-05
-8.44941e-06
1.20951e-05
-8.3721e-06
1.19217e-05
-8.2884e-06
1.17513e-05
-8.19877e-06
1.15841e-05
-8.10363e-06
1.14199e-05
-8.00334e-06
1.12588e-05
-7.89828e-06
1.11008e-05
-7.78876e-06
1.09459e-05
-7.67512e-06
1.0794e-05
-7.55763e-06
1.06453e-05
-7.4366e-06
1.04997e-05
-7.3123e-06
1.03572e-05
-7.18499e-06
1.02179e-05
-7.05496e-06
1.00819e-05
-6.92245e-06
9.94904e-06
-6.78775e-06
9.81951e-06
-6.65113e-06
9.69331e-06
-6.51285e-06
9.57048e-06
-6.37322e-06
9.45108e-06
-6.23252e-06
9.33517e-06
-6.09106e-06
9.2228e-06
-5.94917e-06
9.11402e-06
-5.80719e-06
9.00892e-06
-5.66546e-06
8.90755e-06
-5.52437e-06
8.80998e-06
-5.38431e-06
8.71629e-06
-5.2457e-06
8.62655e-06
-5.109e-06
8.54085e-06
-4.97469e-06
8.45927e-06
-4.84328e-06
8.3819e-06
-4.71531e-06
8.30882e-06
-4.5914e-06
8.24014e-06
-4.47217e-06
8.17596e-06
-4.35833e-06
8.11637e-06
-4.25066e-06
8.0615e-06
-4.15001e-06
8.01143e-06
-4.05731e-06
7.96625e-06
-3.97364e-06
7.92603e-06
-3.90021e-06
7.89073e-06
-3.83839e-06
7.86019e-06
-3.78975e-06
7.83384e-06
-3.75622e-06
-3.7405e-06
1.99967e-05
-5.83766e-08
1.9988e-05
-1.80166e-07
1.99747e-05
-3.06285e-07
1.99575e-05
-4.36166e-07
1.99367e-05
-5.69971e-07
1.99125e-05
-7.08051e-07
1.98847e-05
-8.50785e-07
1.98535e-05
-9.98538e-07
1.98185e-05
-1.15164e-06
1.97796e-05
-1.31039e-06
1.97366e-05
-1.47504e-06
1.96894e-05
-1.64581e-06
1.96376e-05
-1.82288e-06
1.95811e-05
-2.00638e-06
1.95196e-05
-2.19641e-06
1.94529e-05
-2.39301e-06
1.93807e-05
-2.59617e-06
1.93029e-05
-2.80583e-06
1.9219e-05
-3.02187e-06
1.9129e-05
-3.24407e-06
1.90325e-05
-3.47216e-06
1.89295e-05
-3.70578e-06
1.88196e-05
-3.94446e-06
1.87027e-05
-4.18764e-06
1.85786e-05
-4.43464e-06
1.84474e-05
-4.68468e-06
1.83088e-05
-4.93682e-06
1.81629e-05
-5.19004e-06
1.80097e-05
-5.44317e-06
1.78494e-05
-5.69494e-06
1.76821e-05
-5.94398e-06
1.75082e-05
-6.18882e-06
1.73279e-05
-6.42796e-06
1.71416e-05
-6.65985e-06
1.69498e-05
-6.88297e-06
1.67532e-05
-7.09585e-06
1.65522e-05
-7.29713e-06
1.63476e-05
-7.48556e-06
1.61399e-05
-7.66009e-06
1.59298e-05
-7.81985e-06
1.57179e-05
-7.96418e-06
1.55049e-05
-8.09263e-06
1.52914e-05
-8.20496e-06
1.50778e-05
-8.30108e-06
1.48648e-05
-8.38112e-06
1.4653e-05
-8.44558e-06
1.44429e-05
-8.49523e-06
1.42348e-05
-8.53081e-06
1.40289e-05
-8.55308e-06
1.38253e-05
-8.56285e-06
1.36241e-05
-8.56083e-06
1.34257e-05
-8.54765e-06
1.323e-05
-8.52399e-06
1.30372e-05
-8.49051e-06
1.28474e-05
-8.44771e-06
1.26608e-05
-8.39613e-06
1.24774e-05
-8.33641e-06
1.22971e-05
-8.26918e-06
1.21201e-05
-8.19503e-06
1.19461e-05
-8.11446e-06
1.17753e-05
-8.02794e-06
1.16076e-05
-7.93589e-06
1.14429e-05
-7.8387e-06
1.12814e-05
-7.73673e-06
1.11229e-05
-7.63031e-06
1.09676e-05
-7.51976e-06
1.08153e-05
-7.40538e-06
1.06662e-05
-7.28748e-06
1.05202e-05
-7.16632e-06
1.03774e-05
-7.04218e-06
1.02378e-05
-6.91533e-06
1.01014e-05
-6.78606e-06
9.96824e-06
-6.65462e-06
9.8384e-06
-6.52129e-06
9.7119e-06
-6.38635e-06
9.58879e-06
-6.25011e-06
9.46911e-06
-6.11284e-06
9.35293e-06
-5.97488e-06
9.24028e-06
-5.83653e-06
9.13124e-06
-5.69814e-06
9.02586e-06
-5.56008e-06
8.92421e-06
-5.42271e-06
8.82636e-06
-5.28645e-06
8.73236e-06
-5.15171e-06
8.6423e-06
-5.01894e-06
8.55624e-06
-4.88863e-06
8.47426e-06
-4.7613e-06
8.39644e-06
-4.63749e-06
8.32285e-06
-4.5178e-06
8.25356e-06
-4.40289e-06
8.18866e-06
-4.29343e-06
8.12822e-06
-4.19021e-06
8.07227e-06
-4.09406e-06
8.02087e-06
-4.0059e-06
7.97399e-06
-3.92676e-06
7.93156e-06
-3.85778e-06
7.89336e-06
-3.8002e-06
7.85898e-06
-3.75537e-06
7.82769e-06
-3.72493e-06
-3.7115e-06
1.99972e-05
-5.562e-08
1.99894e-05
-1.72324e-07
1.9977e-05
-2.93905e-07
1.99606e-05
-4.19725e-07
1.99404e-05
-5.49768e-07
1.99166e-05
-6.84227e-07
1.98891e-05
-8.23363e-07
1.98581e-05
-9.67458e-07
1.98232e-05
-1.11679e-06
1.97844e-05
-1.27162e-06
1.97416e-05
-1.43217e-06
1.96944e-05
-1.59864e-06
1.96427e-05
-1.77119e-06
1.95863e-05
-1.94996e-06
1.95249e-05
-2.13502e-06
1.94583e-05
-2.32642e-06
1.93863e-05
-2.52414e-06
1.93086e-05
-2.72812e-06
1.92249e-05
-2.93824e-06
1.91351e-05
-3.15429e-06
1.9039e-05
-3.37602e-06
1.89363e-05
-3.60306e-06
1.88268e-05
-3.83498e-06
1.87104e-05
-4.07123e-06
1.85869e-05
-4.31117e-06
1.84563e-05
-4.55404e-06
1.83184e-05
-4.79897e-06
1.81733e-05
-5.04497e-06
1.80211e-05
-5.29094e-06
1.78618e-05
-5.53566e-06
1.76957e-05
-5.77783e-06
1.75229e-05
-6.01606e-06
1.73439e-05
-6.24891e-06
1.71589e-05
-6.47491e-06
1.69686e-05
-6.69261e-06
1.67733e-05
-6.9006e-06
1.65738e-05
-7.09755e-06
1.63705e-05
-7.28226e-06
1.61641e-05
-7.4537e-06
1.59552e-05
-7.611e-06
1.57445e-05
-7.75349e-06
1.55326e-05
-7.88071e-06
1.532e-05
-7.99239e-06
1.51074e-05
-8.08846e-06
1.48954e-05
-8.16908e-06
1.46845e-05
-8.23465e-06
1.4475e-05
-8.28581e-06
1.42674e-05
-8.32321e-06
1.40619e-05
-8.34756e-06
1.38586e-05
-8.35957e-06
1.36578e-05
-8.35995e-06
1.34594e-05
-8.34932e-06
1.32638e-05
-8.32834e-06
1.30709e-05
-8.29763e-06
1.28809e-05
-8.25773e-06
1.2694e-05
-8.20917e-06
1.25101e-05
-8.15255e-06
1.23294e-05
-8.08845e-06
1.21518e-05
-8.01742e-06
1.19773e-05
-7.93998e-06
1.18059e-05
-7.85657e-06
1.16376e-05
-7.76762e-06
1.14725e-05
-7.67353e-06
1.13104e-05
-7.57465e-06
1.11514e-05
-7.47134e-06
1.09956e-05
-7.3639e-06
1.08428e-05
-7.25265e-06
1.06932e-05
-7.13788e-06
1.05468e-05
-7.01988e-06
1.04035e-05
-6.89892e-06
1.02635e-05
-6.77529e-06
1.01267e-05
-6.64925e-06
9.99316e-06
-6.52108e-06
9.86293e-06
-6.39106e-06
9.73606e-06
-6.25948e-06
9.61259e-06
-6.12663e-06
9.49256e-06
-5.99281e-06
9.37602e-06
-5.85834e-06
9.26302e-06
-5.72354e-06
9.15363e-06
-5.58875e-06
9.0479e-06
-5.45435e-06
8.94588e-06
-5.3207e-06
8.84764e-06
-5.18821e-06
8.75324e-06
-5.05731e-06
8.66274e-06
-4.92844e-06
8.5762e-06
-4.8021e-06
8.49369e-06
-4.67879e-06
8.41527e-06
-4.55907e-06
8.34099e-06
-4.44353e-06
8.27091e-06
-4.3328e-06
8.20506e-06
-4.22759e-06
8.14349e-06
-4.12864e-06
8.08619e-06
-4.03676e-06
8.03313e-06
-3.95284e-06
7.98421e-06
-3.87784e-06
7.93925e-06
-3.81282e-06
7.89793e-06
-3.75887e-06
7.85971e-06
-3.71716e-06
7.82376e-06
-3.68898e-06
-3.67677e-06
1.99976e-05
-5.32063e-08
1.99905e-05
-1.65199e-07
1.99789e-05
-2.82356e-07
1.99633e-05
-4.04066e-07
1.99437e-05
-5.30231e-07
1.99204e-05
-6.6094e-07
1.98934e-05
-7.96363e-07
1.98627e-05
-9.36709e-07
1.98281e-05
-1.0822e-06
1.97895e-05
-1.23305e-06
1.97468e-05
-1.38947e-06
1.96998e-05
-1.55162e-06
1.96483e-05
-1.71966e-06
1.9592e-05
-1.89369e-06
1.95308e-05
-2.0738e-06
1.94644e-05
-2.26001e-06
1.93926e-05
-2.45232e-06
1.93151e-05
-2.65065e-06
1.92318e-05
-2.85489e-06
1.91423e-05
-3.06485e-06
1.90466e-05
-3.28026e-06
1.89443e-05
-3.50079e-06
1.88353e-05
-3.72602e-06
1.87195e-05
-3.95542e-06
1.85967e-05
-4.18839e-06
1.84669e-05
-4.42419e-06
1.83299e-05
-4.66201e-06
1.81859e-05
-4.90089e-06
1.80347e-05
-5.1398e-06
1.78766e-05
-5.37758e-06
1.77118e-05
-5.61298e-06
1.75404e-05
-5.8447e-06
1.73629e-05
-6.07134e-06
1.71795e-05
-6.29153e-06
1.69907e-05
-6.50385e-06
1.67971e-05
-6.70697e-06
1.65991e-05
-6.89959e-06
1.63974e-05
-7.08056e-06
1.61926e-05
-7.24886e-06
1.59852e-05
-7.40363e-06
1.57759e-05
-7.5442e-06
1.55653e-05
-7.67011e-06
1.5354e-05
-7.78108e-06
1.51426e-05
-7.87703e-06
1.49316e-05
-7.95809e-06
1.47216e-05
-8.02462e-06
1.45129e-05
-8.07712e-06
1.43058e-05
-8.11619e-06
1.41008e-05
-8.14246e-06
1.38978e-05
-8.15661e-06
1.36971e-05
-8.15928e-06
1.34989e-05
-8.1511e-06
1.33033e-05
-8.1327e-06
1.31103e-05
-8.10467e-06
1.29201e-05
-8.06756e-06
1.27329e-05
-8.02192e-06
1.25486e-05
-7.9683e-06
1.23674e-05
-7.90726e-06
1.21893e-05
-7.83931e-06
1.20143e-05
-7.76495e-06
1.18424e-05
-7.68463e-06
1.16735e-05
-7.59878e-06
1.15078e-05
-7.50779e-06
1.13451e-05
-7.41202e-06
1.11856e-05
-7.31181e-06
1.10292e-05
-7.20749e-06
1.08759e-05
-7.09938e-06
1.07258e-05
-6.98776e-06
1.05789e-05
-6.87293e-06
1.04351e-05
-6.75517e-06
1.02946e-05
-6.63476e-06
1.01573e-05
-6.51197e-06
1.00233e-05
-6.38709e-06
9.89262e-06
-6.26039e-06
9.76531e-06
-6.13217e-06
9.64141e-06
-6.00272e-06
9.52095e-06
-5.87235e-06
9.40399e-06
-5.74138e-06
9.29057e-06
-5.61012e-06
9.18075e-06
-5.47893e-06
9.07458e-06
-5.34817e-06
8.97211e-06
-5.21823e-06
8.87339e-06
-5.08949e-06
8.77848e-06
-4.9624e-06
8.68743e-06
-4.83739e-06
8.6003e-06
-4.71496e-06
8.51712e-06
-4.59561e-06
8.43795e-06
-4.4799e-06
8.36282e-06
-4.3684e-06
8.29176e-06
-4.26174e-06
8.22478e-06
-4.16061e-06
8.16187e-06
-4.06572e-06
8.10297e-06
-3.97787e-06
8.04801e-06
-3.89788e-06
7.99683e-06
-3.82666e-06
7.94916e-06
-3.76515e-06
7.90463e-06
-3.71434e-06
7.86266e-06
-3.6752e-06
7.82245e-06
-3.64877e-06
-3.63662e-06
1.99978e-05
-5.10318e-08
1.99913e-05
-1.58639e-07
1.99804e-05
-2.71526e-07
1.99655e-05
-3.89148e-07
1.99467e-05
-5.11382e-07
1.9924e-05
-6.38256e-07
1.98975e-05
-7.69875e-07
1.98672e-05
-9.0639e-07
1.98329e-05
-1.04797e-06
1.97947e-05
-1.1948e-06
1.97523e-05
-1.34704e-06
1.97055e-05
-1.50485e-06
1.96542e-05
-1.66836e-06
1.95982e-05
-1.83766e-06
1.95372e-05
-2.01282e-06
1.94711e-05
-2.19387e-06
1.93995e-05
-2.38079e-06
1.93224e-05
-2.57351e-06
1.92394e-05
-2.77192e-06
1.91504e-05
-2.97583e-06
1.90551e-05
-3.18499e-06
1.89534e-05
-3.39908e-06
1.88451e-05
-3.6177e-06
1.873e-05
-3.84034e-06
1.86081e-05
-4.06642e-06
1.84791e-05
-4.29526e-06
1.83432e-05
-4.52607e-06
1.82003e-05
-4.75795e-06
1.80504e-05
-4.98991e-06
1.78936e-05
-5.22085e-06
1.77302e-05
-5.4496e-06
1.75604e-05
-5.67489e-06
1.73845e-05
-5.89542e-06
1.72028e-05
-6.10985e-06
1.70158e-05
-6.31685e-06
1.6824e-05
-6.51512e-06
1.66278e-05
-6.70342e-06
1.64279e-05
-6.88063e-06
1.62248e-05
-7.04574e-06
1.60191e-05
-7.19793e-06
1.58114e-05
-7.33652e-06
1.56023e-05
-7.46103e-06
1.53924e-05
-7.57119e-06
1.51823e-05
-7.6669e-06
1.49724e-05
-7.74826e-06
1.47634e-05
-7.81556e-06
1.45555e-05
-7.86924e-06
1.43491e-05
-7.90981e-06
1.41445e-05
-7.93786e-06
1.39419e-05
-7.954e-06
1.37415e-05
-7.95885e-06
1.35434e-05
-7.953e-06
1.33478e-05
-7.93708e-06
1.31547e-05
-7.91164e-06
1.29644e-05
-7.87724e-06
1.27769e-05
-7.83442e-06
1.25923e-05
-7.78371e-06
1.24107e-05
-7.72564e-06
1.22321e-05
-7.66071e-06
1.20565e-05
-7.58939e-06
1.1884e-05
-7.51214e-06
1.17146e-05
-7.42936e-06
1.15483e-05
-7.34146e-06
1.13851e-05
-7.24878e-06
1.12249e-05
-7.15169e-06
1.1068e-05
-7.0505e-06
1.09141e-05
-6.94553e-06
1.07634e-05
-6.83707e-06
1.06159e-05
-6.72542e-06
1.04716e-05
-6.61086e-06
1.03305e-05
-6.49368e-06
1.01927e-05
-6.37416e-06
1.00582e-05
-6.25257e-06
9.92702e-06
-6.12921e-06
9.79921e-06
-6.00436e-06
9.67481e-06
-5.87832e-06
9.55387e-06
-5.75141e-06
9.43641e-06
-5.62392e-06
9.32251e-06
-5.49621e-06
9.21218e-06
-5.36861e-06
9.1055e-06
-5.24149e-06
9.00249e-06
-5.11522e-06
8.90321e-06
-4.99021e-06
8.8077e-06
-4.86689e-06
8.716e-06
-4.7457e-06
8.62816e-06
-4.62712e-06
8.54419e-06
-4.51165e-06
8.46414e-06
-4.39985e-06
8.38802e-06
-4.29227e-06
8.31582e-06
-4.18954e-06
8.24753e-06
-4.09232e-06
8.1831e-06
-4.00129e-06
8.12244e-06
-3.91721e-06
8.06542e-06
-3.84086e-06
8.01183e-06
-3.77307e-06
7.96137e-06
-3.71469e-06
7.91363e-06
-3.6666e-06
7.86804e-06
-3.62961e-06
7.82385e-06
-3.60458e-06
-3.59195e-06
1.9998e-05
-4.90314e-08
1.99919e-05
-1.52525e-07
1.99817e-05
-2.61306e-07
1.99674e-05
-3.74906e-07
1.99492e-05
-4.93205e-07
1.99272e-05
-6.162e-07
1.99013e-05
-7.43954e-07
1.98715e-05
-8.76572e-07
1.98377e-05
-1.01419e-06
1.97998e-05
-1.15694e-06
1.97577e-05
-1.30498e-06
1.97113e-05
-1.45842e-06
1.96603e-05
-1.61738e-06
1.96046e-05
-1.78195e-06
1.9544e-05
-1.95218e-06
1.94782e-05
-2.12808e-06
1.9407e-05
-2.30964e-06
1.93303e-05
-2.49679e-06
1.92478e-05
-2.68942e-06
1.91593e-05
-2.88734e-06
1.90646e-05
-3.09032e-06
1.89636e-05
-3.29804e-06
1.8856e-05
-3.51012e-06
1.87418e-05
-3.72609e-06
1.86208e-05
-3.94539e-06
1.84929e-05
-4.16737e-06
1.83581e-05
-4.39128e-06
1.82164e-05
-4.61627e-06
1.80679e-05
-4.84139e-06
1.79126e-05
-5.06561e-06
1.77508e-05
-5.2878e-06
1.75827e-05
-5.50676e-06
1.74086e-05
-5.72126e-06
1.72287e-05
-5.93001e-06
1.70436e-05
-6.13173e-06
1.68537e-05
-6.32518e-06
1.66594e-05
-6.50917e-06
1.64614e-05
-6.6826e-06
1.62601e-05
-6.84449e-06
1.60562e-05
-6.99403e-06
1.58503e-05
-7.13056e-06
1.56428e-05
-7.25359e-06
1.54345e-05
-7.36283e-06
1.52257e-05
-7.45816e-06
1.50171e-05
-7.53967e-06
1.48092e-05
-7.60757e-06
1.46022e-05
-7.66225e-06
1.43965e-05
-7.70415e-06
1.41925e-05
-7.73382e-06
1.39903e-05
-7.75181e-06
1.37901e-05
-7.7587e-06
1.35922e-05
-7.75508e-06
1.33966e-05
-7.74151e-06
1.32036e-05
-7.71857e-06
1.30131e-05
-7.68679e-06
1.28254e-05
-7.6467e-06
1.26405e-05
-7.59881e-06
1.24585e-05
-7.54363e-06
1.22794e-05
-7.48165e-06
1.21034e-05
-7.41333e-06
1.19303e-05
-7.3391e-06
1.17603e-05
-7.25938e-06
1.15934e-05
-7.17454e-06
1.14296e-05
-7.08495e-06
1.12689e-05
-6.99096e-06
1.11113e-05
-6.8929e-06
1.09568e-05
-6.79107e-06
1.08055e-05
-6.68578e-06
1.06574e-05
-6.57731e-06
1.05125e-05
-6.46597e-06
1.03709e-05
-6.35203e-06
1.02325e-05
-6.23578e-06
1.00974e-05
-6.1175e-06
9.96569e-06
-5.99748e-06
9.83733e-06
-5.876e-06
9.71239e-06
-5.75338e-06
9.5909e-06
-5.62992e-06
9.4729e-06
-5.50593e-06
9.35844e-06
-5.38175e-06
9.24755e-06
-5.25772e-06
9.14027e-06
-5.13421e-06
9.03665e-06
-5.0116e-06
8.93673e-06
-4.89028e-06
8.84053e-06
-4.77069e-06
8.74809e-06
-4.65326e-06
8.65943e-06
-4.53846e-06
8.57457e-06
-4.4268e-06
8.49353e-06
-4.3188e-06
8.41628e-06
-4.21503e-06
8.34282e-06
-4.11608e-06
8.27309e-06
-4.02259e-06
8.20701e-06
-3.93522e-06
8.14447e-06
-3.85467e-06
8.08528e-06
-3.78168e-06
8.02922e-06
-3.71701e-06
7.97596e-06
-3.66143e-06
7.92507e-06
-3.6157e-06
7.87599e-06
-3.58054e-06
7.82808e-06
-3.55667e-06
-3.54374e-06
1.99981e-05
-4.71626e-08
1.99924e-05
-1.46769e-07
1.99827e-05
-2.51604e-07
1.9969e-05
-3.6127e-07
1.99515e-05
-4.75663e-07
1.99301e-05
-5.94768e-07
1.99047e-05
-7.18624e-07
1.98755e-05
-8.47304e-07
1.98422e-05
-9.8091e-07
1.98048e-05
-1.11955e-06
1.97632e-05
-1.26335e-06
1.97172e-05
-1.41241e-06
1.96666e-05
-1.56682e-06
1.96113e-05
-1.72665e-06
1.95511e-05
-1.89195e-06
1.94857e-05
-2.06273e-06
1.9415e-05
-2.23896e-06
1.93388e-05
-2.42058e-06
1.92569e-05
-2.60747e-06
1.9169e-05
-2.79946e-06
1.9075e-05
-2.99632e-06
1.89747e-05
-3.19775e-06
1.8868e-05
-3.40339e-06
1.87547e-05
-3.61279e-06
1.86347e-05
-3.82541e-06
1.85079e-05
-4.04063e-06
1.83744e-05
-4.25775e-06
1.82341e-05
-4.47596e-06
1.80871e-05
-4.69436e-06
1.79334e-05
-4.91196e-06
1.77733e-05
-5.12769e-06
1.7607e-05
-5.34043e-06
1.74347e-05
-5.54897e-06
1.72568e-05
-5.75211e-06
1.70736e-05
-5.9486e-06
1.68857e-05
-6.13726e-06
1.66935e-05
-6.31694e-06
1.64975e-05
-6.48657e-06
1.62982e-05
-6.64521e-06
1.60962e-05
-6.79204e-06
1.58921e-05
-6.92643e-06
1.56863e-05
-7.04787e-06
1.54796e-05
-7.15607e-06
1.52723e-05
-7.2509e-06
1.5065e-05
-7.33239e-06
1.48582e-05
-7.40072e-06
1.46522e-05
-7.45622e-06
1.44473e-05
-7.49929e-06
1.42439e-05
-7.5304e-06
1.40422e-05
-7.55009e-06
1.38424e-05
-7.5589e-06
1.36447e-05
-7.55737e-06
1.34492e-05
-7.54606e-06
1.32561e-05
-7.52551e-06
1.30656e-05
-7.49625e-06
1.28777e-05
-7.4588e-06
1.26925e-05
-7.41365e-06
1.25102e-05
-7.36129e-06
1.23307e-05
-7.30219e-06
1.21542e-05
-7.23681e-06
1.19807e-05
-7.16556e-06
1.18101e-05
-7.08884e-06
1.16426e-05
-7.00705e-06
1.14782e-05
-6.92053e-06
1.13169e-05
-6.82963e-06
1.11587e-05
-6.73468e-06
1.10036e-05
-6.63599e-06
1.08517e-05
-6.53386e-06
1.07029e-05
-6.42859e-06
1.05574e-05
-6.32047e-06
1.04152e-05
-6.20978e-06
1.02762e-05
-6.0968e-06
1.01405e-05
-5.98183e-06
1.00082e-05
-5.86515e-06
9.87927e-06
-5.74706e-06
9.75374e-06
-5.62785e-06
9.63165e-06
-5.50783e-06
9.51305e-06
-5.38733e-06
9.39798e-06
-5.26667e-06
9.28646e-06
-5.1462e-06
9.17854e-06
-5.02629e-06
9.07424e-06
-4.9073e-06
8.97359e-06
-4.78964e-06
8.87662e-06
-4.67372e-06
8.78335e-06
-4.55999e-06
8.6938e-06
-4.4489e-06
8.60795e-06
-4.34095e-06
8.52581e-06
-4.23666e-06
8.44735e-06
-4.13657e-06
8.37252e-06
-4.04125e-06
8.30125e-06
-3.95132e-06
8.23343e-06
-3.8674e-06
8.16893e-06
-3.79016e-06
8.10754e-06
-3.72029e-06
8.04901e-06
-3.65847e-06
7.99299e-06
-3.60541e-06
7.93907e-06
-3.56178e-06
7.88672e-06
-3.52819e-06
7.83532e-06
-3.50527e-06
-3.49244e-06
1.99982e-05
-4.53971e-08
1.99928e-05
-1.41305e-07
1.99835e-05
-2.42342e-07
1.99704e-05
-3.48171e-07
1.99535e-05
-4.58709e-07
1.99326e-05
-5.7394e-07
1.99079e-05
-6.93889e-07
1.98792e-05
-8.1861e-07
1.98465e-05
-9.4818e-07
1.98096e-05
-1.08269e-06
1.97685e-05
-1.22223e-06
1.9723e-05
-1.36688e-06
1.96729e-05
-1.51673e-06
1.9618e-05
-1.67183e-06
1.95583e-05
-1.83222e-06
1.94935e-05
-1.99789e-06
1.94234e-05
-2.16883e-06
1.93477e-05
-2.34496e-06
1.92664e-05
-2.52617e-06
1.91793e-05
-2.71229e-06
1.9086e-05
-2.9031e-06
1.89866e-05
-3.09832e-06
1.88808e-05
-3.2976e-06
1.87686e-05
-3.50052e-06
1.86497e-05
-3.70655e-06
1.85242e-05
-3.91513e-06
1.8392e-05
-4.12557e-06
1.82532e-05
-4.33711e-06
1.81077e-05
-4.54889e-06
1.79557e-05
-4.75999e-06
1.77974e-05
-4.96937e-06
1.7633e-05
-5.17597e-06
1.74626e-05
-5.37864e-06
1.72867e-05
-5.57622e-06
1.71057e-05
-5.76753e-06
1.69198e-05
-5.95143e-06
1.67297e-05
-6.1268e-06
1.65357e-05
-6.29261e-06
1.63385e-05
-6.44796e-06
1.61385e-05
-6.59203e-06
1.59362e-05
-6.72419e-06
1.57323e-05
-6.84395e-06
1.55272e-05
-6.95099e-06
1.53215e-05
-7.04517e-06
1.51156e-05
-7.12648e-06
1.49099e-05
-7.19507e-06
1.47049e-05
-7.25122e-06
1.45009e-05
-7.29528e-06
1.42982e-05
-7.32769e-06
1.4097e-05
-7.34893e-06
1.38976e-05
-7.3595e-06
1.37002e-05
-7.35994e-06
1.35049e-05
-7.35077e-06
1.33119e-05
-7.33251e-06
1.31214e-05
-7.30567e-06
1.29333e-05
-7.27076e-06
1.27479e-05
-7.22826e-06
1.25653e-05
-7.17864e-06
1.23855e-05
-7.12236e-06
1.22085e-05
-7.05985e-06
1.20345e-05
-6.99153e-06
1.18634e-05
-6.91779e-06
1.16954e-05
-6.839e-06
1.15304e-05
-6.75553e-06
1.13685e-05
-6.66771e-06
1.12096e-05
-6.57586e-06
1.10539e-05
-6.4803e-06
1.09014e-05
-6.38133e-06
1.07521e-05
-6.27925e-06
1.06059e-05
-6.17434e-06
1.0463e-05
-6.0669e-06
1.03234e-05
-5.9572e-06
1.01872e-05
-5.84554e-06
1.00542e-05
-5.7322e-06
9.92463e-06
-5.61748e-06
9.79847e-06
-5.50168e-06
9.67575e-06
-5.38511e-06
9.55651e-06
-5.26808e-06
9.44077e-06
-5.15093e-06
9.32857e-06
-5.03401e-06
9.21994e-06
-4.91765e-06
9.1149e-06
-4.80226e-06
9.01347e-06
-4.68821e-06
8.91567e-06
-4.57592e-06
8.8215e-06
-4.46582e-06
8.73096e-06
-4.35837e-06
8.64405e-06
-4.25404e-06
8.56074e-06
-4.15334e-06
8.48098e-06
-4.0568e-06
8.4047e-06
-3.96498e-06
8.33183e-06
-3.87844e-06
8.26222e-06
-3.7978e-06
8.19573e-06
-3.72367e-06
8.13212e-06
-3.65669e-06
8.07115e-06
-3.5975e-06
8.01247e-06
-3.54673e-06
7.95567e-06
-3.50498e-06
7.90027e-06
-3.47278e-06
7.84566e-06
-3.45066e-06
-3.43817e-06
1.99983e-05
-4.37149e-08
1.99931e-05
-1.36085e-07
1.99842e-05
-2.33458e-07
1.99716e-05
-3.35549e-07
1.99552e-05
-4.42295e-07
1.99349e-05
-5.53687e-07
1.99108e-05
-6.69742e-07
1.98827e-05
-7.90501e-07
1.98505e-05
-9.16025e-07
1.98142e-05
-1.04638e-06
1.97736e-05
-1.18165e-06
1.97287e-05
-1.3219e-06
1.96791e-05
-1.46719e-06
1.96249e-05
-1.61757e-06
1.95657e-05
-1.77306e-06
1.95015e-05
-1.93366e-06
1.9432e-05
-2.09933e-06
1.9357e-05
-2.27002e-06
1.92764e-05
-2.44559e-06
1.91901e-05
-2.62591e-06
1.90977e-05
-2.81075e-06
1.89992e-05
-2.99984e-06
1.88945e-05
-3.19284e-06
1.87833e-05
-3.38937e-06
1.86657e-05
-3.58892e-06
1.85415e-05
-3.79096e-06
1.84108e-05
-3.99482e-06
1.82735e-05
-4.1998e-06
1.81296e-05
-4.40508e-06
1.79794e-05
-4.60977e-06
1.7823e-05
-4.8129e-06
1.76604e-05
-5.01344e-06
1.74921e-05
-5.21031e-06
1.73183e-05
-5.4024e-06
1.71393e-05
-5.58857e-06
1.69556e-05
-5.76773e-06
1.67676e-05
-5.93879e-06
1.65758e-05
-6.10078e-06
1.63806e-05
-6.25278e-06
1.61826e-05
-6.39403e-06
1.59823e-05
-6.52389e-06
1.57802e-05
-6.64186e-06
1.55769e-05
-6.74763e-06
1.53727e-05
-6.84101e-06
1.51682e-05
-6.922e-06
1.49638e-05
-6.99069e-06
1.47599e-05
-7.04732e-06
1.45569e-05
-7.0922e-06
1.43549e-05
-7.12574e-06
1.41544e-05
-7.14838e-06
1.39555e-05
-7.16059e-06
1.37584e-05
-7.16286e-06
1.35633e-05
-7.15571e-06
1.33704e-05
-7.13963e-06
1.31799e-05
-7.11511e-06
1.29917e-05
-7.08265e-06
1.28062e-05
-7.04271e-06
1.26233e-05
-6.99575e-06
1.24431e-05
-6.94221e-06
1.22658e-05
-6.88251e-06
1.20913e-05
-6.81706e-06
1.19198e-05
-6.74625e-06
1.17512e-05
-6.67043e-06
1.15857e-05
-6.58997e-06
1.14232e-05
-6.5052e-06
1.12637e-05
-6.41644e-06
1.11074e-05
-6.32399e-06
1.09543e-05
-6.22818e-06
1.08043e-05
-6.12927e-06
1.06575e-05
-6.02758e-06
1.0514e-05
-5.92338e-06
1.03738e-05
-5.81696e-06
1.02369e-05
-5.70861e-06
1.01033e-05
-5.59861e-06
9.97304e-06
-5.48726e-06
9.84621e-06
-5.37486e-06
9.72283e-06
-5.26172e-06
9.6029e-06
-5.14816e-06
9.48646e-06
-5.0345e-06
9.37354e-06
-4.92108e-06
9.26415e-06
-4.80827e-06
9.15832e-06
-4.69642e-06
9.05605e-06
-4.58594e-06
8.95735e-06
-4.47722e-06
8.86222e-06
-4.37069e-06
8.77065e-06
-4.26679e-06
8.68261e-06
-4.166e-06
8.59806e-06
-4.06879e-06
8.51694e-06
-3.97569e-06
8.43918e-06
-3.88721e-06
8.36465e-06
-3.80392e-06
8.29323e-06
-3.72638e-06
8.22474e-06
-3.65517e-06
8.15895e-06
-3.5909e-06
8.09559e-06
-3.53414e-06
8.03434e-06
-3.48548e-06
7.97481e-06
-3.44546e-06
7.91656e-06
-3.41453e-06
7.85902e-06
-3.39312e-06
-3.38119e-06
1.99984e-05
-4.21019e-08
1.99934e-05
-1.31071e-07
1.99848e-05
-2.24902e-07
1.99726e-05
-3.23351e-07
1.99567e-05
-4.26377e-07
1.9937e-05
-5.33976e-07
1.99134e-05
-6.46164e-07
1.98859e-05
-7.62975e-07
1.98543e-05
-8.84458e-07
1.98186e-05
-1.01067e-06
1.97786e-05
-1.14167e-06
1.97342e-05
-1.27751e-06
1.96853e-05
-1.41825e-06
1.96317e-05
-1.56392e-06
1.95731e-05
-1.71454e-06
1.95096e-05
-1.87009e-06
1.94408e-05
-2.03054e-06
1.93666e-05
-2.19582e-06
1.92868e-05
-2.36582e-06
1.92013e-05
-2.54039e-06
1.91099e-05
-2.71933e-06
1.90124e-05
-2.90237e-06
1.89087e-05
-3.08919e-06
1.87988e-05
-3.27942e-06
1.86825e-05
-3.47259e-06
1.85597e-05
-3.66818e-06
1.84304e-05
-3.86558e-06
1.82947e-05
-4.06411e-06
1.81526e-05
-4.26298e-06
1.80042e-05
-4.46136e-06
1.78497e-05
-4.65833e-06
1.76891e-05
-4.8529e-06
1.75229e-05
-5.04404e-06
1.73512e-05
-5.23069e-06
1.71743e-05
-5.41176e-06
1.69928e-05
-5.5862e-06
1.6807e-05
-5.75296e-06
1.66173e-05
-5.9111e-06
1.64242e-05
-6.05973e-06
1.62283e-05
-6.19809e-06
1.603e-05
-6.32556e-06
1.58298e-05
-6.44164e-06
1.56281e-05
-6.54601e-06
1.54256e-05
-6.63847e-06
1.52226e-05
-6.71898e-06
1.50195e-05
-6.78761e-06
1.48168e-05
-6.84456e-06
1.46147e-05
-6.89012e-06
1.44136e-05
-6.92463e-06
1.42137e-05
-6.94851e-06
1.40153e-05
-6.96221e-06
1.38186e-05
-6.96619e-06
1.36239e-05
-6.96093e-06
1.34312e-05
-6.94692e-06
1.32407e-05
-6.92462e-06
1.30525e-05
-6.89451e-06
1.28668e-05
-6.85704e-06
1.26838e-05
-6.81265e-06
1.25033e-05
-6.76178e-06
1.23256e-05
-6.70483e-06
1.21508e-05
-6.6422e-06
1.19788e-05
-6.57426e-06
1.18097e-05
-6.50137e-06
1.16436e-05
-6.42389e-06
1.14806e-05
-6.34214e-06
1.13206e-05
-6.25643e-06
1.11637e-05
-6.16709e-06
1.10099e-05
-6.07441e-06
1.08593e-05
-5.97868e-06
1.07119e-05
-5.88019e-06
1.05678e-05
-5.77922e-06
1.04269e-05
-5.67607e-06
1.02893e-05
-5.57102e-06
1.0155e-05
-5.46435e-06
1.00241e-05
-5.35637e-06
9.89662e-06
-5.24736e-06
9.77253e-06
-5.13764e-06
9.65189e-06
-5.02752e-06
9.53472e-06
-4.91732e-06
9.42103e-06
-4.8074e-06
9.31085e-06
-4.69808e-06
9.20418e-06
-4.58975e-06
9.10102e-06
-4.48279e-06
9.00139e-06
-4.37758e-06
8.90525e-06
-4.27455e-06
8.81259e-06
-4.17414e-06
8.72338e-06
-4.07678e-06
8.63755e-06