/*--------------------------------*- C++ -*----------------------------------*\
  =========                 |
  \\      /  F ield         | OpenFOAM: The Open Source CFD Toolbox
   \\    /   O peration     | Website:  https://openfoam.org
    \\  /    A nd           | Version:  11
     \\/     M anipulation  |
\*---------------------------------------------------------------------------*/
FoamFile
{
    format      ascii;
    class       volScalarField;
    location    "1570";
    object      p;
}
// * * * * * * * * * * * * * * * * * * * * * * * * * * * * * * * * * * * * * //

dimensions      [0 2 -2 0 0 0 0];

internalField   nonuniform List<scalar> 
10000
(
1.95366e-14
1.90538e-14
1.98264e-14
2.13926e-14
2.31922e-14
2.50997e-14
2.711e-14
2.92231e-14
3.14403e-14
3.37661e-14
3.62067e-14
3.87694e-14
4.14618e-14
4.42915e-14
4.72669e-14
5.03961e-14
5.36874e-14
5.71496e-14
6.07913e-14
6.46217e-14
6.86496e-14
7.28846e-14
7.7336e-14
8.20134e-14
8.69269e-14
9.20864e-14
9.7502e-14
1.03184e-13
1.09143e-13
1.1539e-13
1.21935e-13
1.2879e-13
1.35965e-13
1.43472e-13
1.51321e-13
1.59524e-13
1.68091e-13
1.77034e-13
1.86364e-13
1.96092e-13
2.06228e-13
2.16782e-13
2.27765e-13
2.39186e-13
2.51054e-13
2.63379e-13
2.76168e-13
2.89428e-13
3.03166e-13
3.17387e-13
3.32096e-13
3.47297e-13
3.62989e-13
3.79175e-13
3.95852e-13
4.13017e-13
4.30664e-13
4.48786e-13
4.6737e-13
4.86404e-13
5.05869e-13
5.25746e-13
5.46009e-13
5.66628e-13
5.87569e-13
6.08792e-13
6.30249e-13
6.51888e-13
6.73647e-13
6.95457e-13
7.17238e-13
7.38902e-13
7.60347e-13
7.8146e-13
8.02111e-13
8.22156e-13
8.41433e-13
8.5976e-13
8.76931e-13
8.92717e-13
9.0686e-13
9.19071e-13
9.29024e-13
9.36354e-13
9.40651e-13
9.41451e-13
9.38232e-13
9.30401e-13
9.17283e-13
8.98102e-13
8.71961e-13
8.37805e-13
7.94242e-13
7.39026e-13
6.69744e-13
5.95864e-13
5.13822e-13
3.9926e-13
2.23138e-13
1.72027e-14
3.58512e-14
3.36844e-14
3.24642e-14
3.30413e-14
3.44038e-14
3.61552e-14
3.8195e-14
4.04718e-14
4.2952e-14
4.56187e-14
4.84646e-14
5.14882e-14
5.46914e-14
5.80784e-14
6.16551e-14
6.5428e-14
6.9405e-14
7.35942e-14
7.80044e-14
8.26454e-14
8.75265e-14
9.26578e-14
9.80497e-14
1.03713e-13
1.09658e-13
1.15896e-13
1.22439e-13
1.29298e-13
1.36485e-13
1.44011e-13
1.5189e-13
1.60131e-13
1.68749e-13
1.77756e-13
1.87162e-13
1.96981e-13
2.07225e-13
2.17906e-13
2.29035e-13
2.40624e-13
2.52684e-13
2.65227e-13
2.78262e-13
2.91799e-13
3.05847e-13
3.20416e-13
3.35512e-13
3.51142e-13
3.67311e-13
3.84024e-13
4.01283e-13
4.1909e-13
4.37443e-13
4.5634e-13
4.75776e-13
4.95743e-13
5.16231e-13
5.37226e-13
5.58711e-13
5.80666e-13
6.03065e-13
6.25879e-13
6.49073e-13
6.72606e-13
6.96431e-13
7.20493e-13
7.44732e-13
7.69076e-13
7.93445e-13
8.1775e-13
8.41887e-13
8.65741e-13
8.89182e-13
9.12066e-13
9.34228e-13
9.55484e-13
9.7563e-13
9.94435e-13
1.01164e-12
1.02696e-12
1.04007e-12
1.05061e-12
1.05817e-12
1.0623e-12
1.06248e-12
1.05815e-12
1.04864e-12
1.03323e-12
1.01108e-12
9.81235e-13
9.42595e-13
8.939e-13
8.33603e-13
7.59661e-13
6.70607e-13
5.70634e-13
4.46433e-13
2.80003e-13
4.55738e-14
-1.51491e-13
4.27456e-14
3.95237e-14
3.68591e-14
3.61304e-14
3.63985e-14
3.72212e-14
3.84537e-14
4.00117e-14
4.18351e-14
4.38864e-14
4.61434e-14
4.85928e-14
5.12275e-14
5.40446e-14
5.70438e-14
6.02268e-14
6.3597e-14
6.71587e-14
7.09172e-14
7.48789e-14
7.90501e-14
8.34381e-14
8.80503e-14
9.28944e-14
9.79787e-14
1.03312e-13
1.08902e-13
1.14758e-13
1.20889e-13
1.27304e-13
1.34012e-13
1.41022e-13
1.48344e-13
1.55987e-13
1.6396e-13
1.72272e-13
1.80932e-13
1.8995e-13
1.99332e-13
2.09089e-13
2.19227e-13
2.29755e-13
2.40678e-13
2.52005e-13
2.6374e-13
2.75888e-13
2.88454e-13
3.01441e-13
3.14851e-13
3.28684e-13
3.42941e-13
3.57619e-13
3.72713e-13
3.8822e-13
4.04129e-13
4.20432e-13
4.37115e-13
4.54163e-13
4.71556e-13
4.89272e-13
5.07285e-13
5.25563e-13
5.44071e-13
5.62769e-13
5.8161e-13
6.0054e-13
6.195e-13
6.38421e-13
6.57228e-13
6.75834e-13
6.94142e-13
7.12044e-13
7.29419e-13
7.46131e-13
7.62029e-13
7.76942e-13
7.90683e-13
8.03039e-13
8.13777e-13
8.22632e-13
8.29312e-13
8.33489e-13
8.34797e-13
8.32828e-13
8.27123e-13
8.17168e-13
8.02386e-13
7.82125e-13
7.55651e-13
7.22131e-13
6.8062e-13
6.3005e-13
5.69188e-13
4.96563e-13
4.10908e-13
3.12897e-13
1.97786e-13
4.42778e-14
-1.79661e-13
-3.11244e-13
4.82834e-14
4.48389e-14
4.18573e-14
4.05924e-14
4.03058e-14
4.06283e-14
4.14233e-14
4.25999e-14
4.40889e-14
4.58435e-14
4.78331e-14
5.00373e-14
5.24434e-14
5.50435e-14
5.78335e-14
6.08118e-14
6.3979e-14
6.73368e-14
7.08885e-14
7.46384e-14
7.85914e-14
8.27527e-14
8.71284e-14
9.17249e-14
9.65489e-14
1.01607e-13
1.06907e-13
1.12457e-13
1.18263e-13
1.24333e-13
1.30675e-13
1.37298e-13
1.44208e-13
1.51414e-13
1.58923e-13
1.66742e-13
1.7488e-13
1.83343e-13
1.92138e-13
2.01271e-13
2.1075e-13
2.20579e-13
2.30763e-13
2.41307e-13
2.52215e-13
2.6349e-13
2.75133e-13
2.87146e-13
2.99528e-13
3.12278e-13
3.25393e-13
3.38869e-13
3.52699e-13
3.66874e-13
3.81385e-13
3.96217e-13
4.11357e-13
4.26784e-13
4.42478e-13
4.58413e-13
4.74559e-13
4.90884e-13
5.07347e-13
5.23907e-13
5.40513e-13
5.57109e-13
5.73632e-13
5.90012e-13
6.06168e-13
6.22014e-13
6.37448e-13
6.52361e-13
6.66629e-13
6.80115e-13
6.92664e-13
7.04107e-13
7.14253e-13
7.22893e-13
7.2979e-13
7.34684e-13
7.37285e-13
7.37269e-13
7.34276e-13
7.27907e-13
7.17714e-13
7.03199e-13
6.83803e-13
6.58904e-13
6.27801e-13
5.89709e-13
5.43747e-13
4.88925e-13
4.24119e-13
3.48008e-13
2.5925e-13
1.57421e-13
3.99839e-14
-1.12612e-13
-3.28624e-13
-4.28737e-13
5.28198e-14
4.94751e-14
4.65353e-14
4.50637e-14
4.44844e-14
4.45123e-14
4.50346e-14
4.5967e-14
4.72407e-14
4.88068e-14
5.06311e-14
5.26896e-14
5.49656e-14
5.74484e-14
6.0131e-14
6.30096e-14
6.60823e-14
6.93494e-14
7.28124e-14
7.6474e-14
8.03378e-14
8.44081e-14
8.86895e-14
9.31875e-14
9.79076e-14
1.02856e-13
1.08039e-13
1.13462e-13
1.19133e-13
1.25058e-13
1.31244e-13
1.37698e-13
1.44426e-13
1.51435e-13
1.58732e-13
1.66322e-13
1.74213e-13
1.8241e-13
1.90919e-13
1.99744e-13
2.08891e-13
2.18364e-13
2.28166e-13
2.383e-13
2.48769e-13
2.59573e-13
2.70713e-13
2.82188e-13
2.93996e-13
3.06133e-13
3.18594e-13
3.31373e-13
3.44461e-13
3.57847e-13
3.71518e-13
3.8546e-13
3.99652e-13
4.14075e-13
4.28704e-13
4.4351e-13
4.58461e-13
4.7352e-13
4.88646e-13
5.03791e-13
5.18902e-13
5.3392e-13
5.48778e-13
5.63402e-13
5.77709e-13
5.91605e-13
6.04988e-13
6.17742e-13
6.29741e-13
6.40842e-13
6.50888e-13
6.59706e-13
6.671e-13
6.72858e-13
6.76741e-13
6.78487e-13
6.77802e-13
6.74364e-13
6.67814e-13
6.57754e-13
6.43742e-13
6.25289e-13
6.0185e-13
5.72821e-13
5.3753e-13
4.95229e-13
4.4509e-13
3.86191e-13
3.17498e-13
2.37807e-13
1.45896e-13
4.13817e-14
-7.72609e-14
-2.29361e-13
-4.43565e-13
-5.19384e-13
5.63497e-14
5.32057e-14
5.03889e-14
4.88297e-14
4.80687e-14
4.78871e-14
4.81964e-14
4.89233e-14
5.0005e-14
5.13939e-14
5.30555e-14
5.49641e-14
5.71012e-14
5.94538e-14
6.2013e-14
6.47728e-14
6.773e-14
7.08832e-14
7.42324e-14
7.7779e-14
8.15252e-14
8.54743e-14
8.96297e-14
9.39958e-14
9.85772e-14
1.03379e-13
1.08406e-13
1.13664e-13
1.19158e-13
1.24895e-13
1.30879e-13
1.37117e-13
1.43615e-13
1.50377e-13
1.57409e-13
1.64717e-13
1.72305e-13
1.80178e-13
1.8834e-13
1.96795e-13
2.05547e-13
2.14598e-13
2.23951e-13
2.33606e-13
2.43564e-13
2.53825e-13
2.64388e-13
2.75248e-13
2.86404e-13
2.97848e-13
3.09575e-13
3.21576e-13
3.33839e-13
3.46352e-13
3.59099e-13
3.72064e-13
3.85225e-13
3.98558e-13
4.12037e-13
4.25631e-13
4.39305e-13
4.53018e-13
4.66728e-13
4.80383e-13
4.93929e-13
5.07303e-13
5.20435e-13
5.33248e-13
5.45657e-13
5.57565e-13
5.68868e-13
5.79447e-13
5.89172e-13
5.97902e-13
6.05475e-13
6.11717e-13
6.16432e-13
6.19408e-13
6.20406e-13
6.19166e-13
6.15398e-13
6.08784e-13
5.98971e-13
5.85572e-13
5.6816e-13
5.4626e-13
5.19355e-13
4.86869e-13
4.48173e-13
4.02575e-13
3.49315e-13
2.87567e-13
2.1642e-13
1.34828e-13
4.17932e-14
-6.26396e-14
-1.79084e-13
-3.28377e-13
-5.4718e-13
-5.91372e-13
5.91807e-14
5.62512e-14
5.35848e-14
5.20079e-14
5.11412e-14
5.08147e-14
5.09615e-14
5.15203e-14
5.24358e-14
5.36646e-14
5.51731e-14
5.69357e-14
5.89336e-14
6.11521e-14
6.35811e-14
6.62133e-14
6.90442e-14
7.2071e-14
7.52926e-14
7.87093e-14
8.23219e-14
8.61326e-14
9.01439e-14
9.43591e-14
9.87818e-14
1.03416e-13
1.08266e-13
1.13336e-13
1.18631e-13
1.24155e-13
1.29913e-13
1.3591e-13
1.4215e-13
1.48638e-13
1.55378e-13
1.62375e-13
1.69631e-13
1.7715e-13
1.84936e-13
1.9299e-13
2.01316e-13
2.09913e-13
2.18784e-13
2.27927e-13
2.37342e-13
2.47027e-13
2.56978e-13
2.67191e-13
2.77661e-13
2.8838e-13
2.9934e-13
3.1053e-13
3.21936e-13
3.33546e-13
3.4534e-13
3.573e-13
3.69403e-13
3.81623e-13
3.9393e-13
4.06292e-13
4.18672e-13
4.31027e-13
4.43311e-13
4.55473e-13
4.67453e-13
4.79189e-13
4.90608e-13
5.0163e-13
5.1217e-13
5.22128e-13
5.31398e-13
5.39862e-13
5.47388e-13
5.53833e-13
5.59037e-13
5.62826e-13
5.65006e-13
5.65366e-13
5.63672e-13
5.59667e-13
5.53069e-13
5.43568e-13
5.30824e-13
5.14463e-13
4.94077e-13
4.69217e-13
4.39395e-13
4.04075e-13
3.62679e-13
3.14577e-13
2.59094e-13
1.9551e-13
1.2305e-13
4.08425e-14
-5.18695e-14
-1.54535e-13
-2.66913e-13
-4.1188e-13
-6.37064e-13
-6.49474e-13
6.15173e-14
5.87897e-14
5.6279e-14
5.47261e-14
5.38068e-14
5.33859e-14
5.34137e-14
5.38404e-14
5.46182e-14
5.57085e-14
5.70803e-14
5.87088e-14
6.05753e-14
6.26648e-14
6.49665e-14
6.74724e-14
7.01768e-14
7.30759e-14
7.61676e-14
7.94511e-14
8.29265e-14
8.65948e-14
9.04576e-14
9.45172e-14
9.87763e-14
1.03238e-13
1.07905e-13
1.12782e-13
1.17872e-13
1.23178e-13
1.28705e-13
1.34456e-13
1.40434e-13
1.46644e-13
1.53087e-13
1.59768e-13
1.66688e-13
1.73851e-13
1.81257e-13
1.88908e-13
1.96806e-13
2.04949e-13
2.13337e-13
2.2197e-13
2.30843e-13
2.39954e-13
2.49298e-13
2.5887e-13
2.68661e-13
2.78663e-13
2.88866e-13
2.99258e-13
3.09823e-13
3.20545e-13
3.31406e-13
3.42384e-13
3.53454e-13
3.64588e-13
3.75756e-13
3.86922e-13
3.98048e-13
4.09089e-13
4.19998e-13
4.30722e-13
4.41199e-13
4.51365e-13
4.61145e-13
4.70461e-13
4.79223e-13
4.87332e-13
4.94682e-13
5.01153e-13
5.06614e-13
5.10923e-13
5.13922e-13
5.15437e-13
5.15278e-13
5.13239e-13
5.0909e-13
5.02582e-13
4.93442e-13
4.8137e-13
4.66042e-13
4.47102e-13
4.24163e-13
3.96805e-13
3.64573e-13
3.26976e-13
2.83488e-13
2.33548e-13
1.76564e-13
1.11924e-13
3.89913e-14
-4.29365e-14
-1.34387e-13
-2.34332e-13
-3.41683e-13
-4.80667e-13
-7.08867e-13
-6.97003e-13
6.34641e-14
6.092e-14
5.85584e-14
5.70511e-14
5.61127e-14
5.56327e-14
5.55743e-14
5.58975e-14
5.65617e-14
5.75328e-14
5.87829e-14
6.02888e-14
6.20323e-14
6.39989e-14
6.61773e-14
6.85591e-14
7.11379e-14
7.39092e-14
7.68699e-14
8.00186e-14
8.33545e-14
8.68776e-14
9.05888e-14
9.44894e-14
9.85813e-14
1.02867e-13
1.07348e-13
1.12028e-13
1.16909e-13
1.21994e-13
1.27285e-13
1.32786e-13
1.385e-13
1.44427e-13
1.50572e-13
1.56935e-13
1.63518e-13
1.70322e-13
1.77348e-13
1.84596e-13
1.92066e-13
1.99757e-13
2.07665e-13
2.1579e-13
2.24126e-13
2.32669e-13
2.41413e-13
2.50351e-13
2.59473e-13
2.6877e-13
2.7823e-13
2.87838e-13
2.97579e-13
3.07435e-13
3.17384e-13
3.27405e-13
3.3747e-13
3.47551e-13
3.57614e-13
3.67624e-13
3.77539e-13
3.87316e-13
3.96903e-13
4.06247e-13
4.15285e-13
4.23952e-13
4.32174e-13
4.39868e-13
4.46946e-13
4.5331e-13
4.58852e-13
4.63454e-13
4.66987e-13
4.69308e-13
4.70263e-13
4.69682e-13
4.67379e-13
4.63153e-13
4.56781e-13
4.48024e-13
4.36618e-13
4.22279e-13
4.04697e-13
3.83536e-13
3.58436e-13
3.29005e-13
2.94825e-13
2.55449e-13
2.10406e-13
1.592e-13
1.01322e-13
3.62588e-14
-3.65023e-14
-1.17516e-13
-2.07121e-13
-3.03931e-13
-4.0624e-13
-5.3913e-13
-7.66335e-13
-7.39289e-13
6.5086e-14
6.2707e-14
6.04837e-14
5.9032e-14
5.80954e-14
5.75802e-14
5.74596e-14
5.77015e-14
5.82713e-14
5.91394e-14
6.02807e-14
6.16742e-14
6.33026e-14
6.51519e-14
6.72108e-14
6.94709e-14
7.19251e-14
7.45685e-14
7.73976e-14
8.04099e-14
8.36041e-14
8.69796e-14
9.05362e-14
9.42747e-14
9.8196e-14
1.02302e-13
1.06593e-13
1.11072e-13
1.15741e-13
1.206e-13
1.25653e-13
1.30902e-13
1.36347e-13
1.4199e-13
1.47832e-13
1.53875e-13
1.60119e-13
1.66564e-13
1.73209e-13
1.80054e-13
1.87097e-13
1.94335e-13
2.01767e-13
2.09386e-13
2.17189e-13
2.2517e-13
2.3332e-13
2.41632e-13
2.50095e-13
2.58698e-13
2.67427e-13
2.76267e-13
2.85201e-13
2.94209e-13
3.03269e-13
3.12357e-13
3.21445e-13
3.30503e-13
3.39497e-13
3.48389e-13
3.57137e-13
3.65695e-13
3.74012e-13
3.82033e-13
3.89697e-13
3.96934e-13
4.03672e-13
4.09829e-13
4.15315e-13
4.20034e-13
4.23879e-13
4.26732e-13
4.28467e-13
4.28944e-13
4.28012e-13
4.25505e-13
4.21244e-13
4.15034e-13
4.0666e-13
3.95894e-13
3.82484e-13
3.6616e-13
3.46632e-13
3.23585e-13
2.96683e-13
2.65567e-13
2.29854e-13
1.89143e-13
1.43013e-13
9.10315e-14
3.27622e-14
-3.22189e-14
-1.04323e-13
-1.83991e-13
-2.71433e-13
-3.6504e-13
-4.62822e-13
-5.90901e-13
-8.17248e-13
-7.79569e-13
6.64292e-14
6.41987e-14
6.21028e-14
6.07113e-14
5.97893e-14
5.92555e-14
5.90905e-14
5.9268e-14
5.97589e-14
6.05375e-14
6.15815e-14
6.28717e-14
6.43922e-14
6.61296e-14
6.8073e-14
7.02137e-14
7.25449e-14
7.50612e-14
7.77582e-14
8.06334e-14
8.36846e-14
8.69105e-14
9.03105e-14
9.38844e-14
9.76326e-14
1.01556e-13
1.05654e-13
1.0993e-13
1.14383e-13
1.19015e-13
1.23827e-13
1.2882e-13
1.33995e-13
1.39351e-13
1.44891e-13
1.50612e-13
1.56516e-13
1.62601e-13
1.68866e-13
1.75309e-13
1.81926e-13
1.88716e-13
1.95673e-13
2.02792e-13
2.10068e-13
2.17492e-13
2.25057e-13
2.32752e-13
2.40567e-13
2.48488e-13
2.56501e-13
2.64589e-13
2.72734e-13
2.80916e-13
2.8911e-13
2.97292e-13
3.05433e-13
3.13501e-13
3.21461e-13
3.29274e-13
3.36898e-13
3.44286e-13
3.51387e-13
3.58145e-13
3.64496e-13
3.70375e-13
3.75706e-13
3.80409e-13
3.84395e-13
3.87569e-13
3.89824e-13
3.91048e-13
3.91114e-13
3.89887e-13
3.87221e-13
3.82955e-13
3.76916e-13
3.68916e-13
3.58752e-13
3.46205e-13
3.31038e-13
3.12996e-13
2.91809e-13
2.67182e-13
2.38808e-13
2.06355e-13
1.6948e-13
1.27822e-13
8.10083e-14
2.86638e-14
-2.95832e-14
-9.40837e-14
-1.65168e-13
-2.43194e-13
-3.28286e-13
-4.187e-13
-5.12329e-13
-6.36357e-13
-8.61938e-13
-8.1407e-13
6.75282e-14
6.54324e-14
6.34545e-14
6.21242e-14
6.12247e-14
6.06839e-14
6.04874e-14
6.06138e-14
6.10384e-14
6.17386e-14
6.2695e-14
6.38901e-14
6.53092e-14
6.69399e-14
6.87718e-14
7.07962e-14
7.30062e-14
7.53962e-14
7.79618e-14
8.06996e-14
8.36071e-14
8.66825e-14
8.99243e-14
9.3332e-14
9.69053e-14
1.00644e-13
1.04548e-13
1.08618e-13
1.12855e-13
1.17257e-13
1.21826e-13
1.26563e-13
1.31466e-13
1.36535e-13
1.41771e-13
1.47171e-13
1.52736e-13
1.58462e-13
1.64348e-13
1.70391e-13
1.76587e-13
1.82931e-13
1.89419e-13
1.96044e-13
2.02799e-13
2.09675e-13
2.16664e-13
2.23754e-13
2.30933e-13
2.38186e-13
2.45499e-13
2.52854e-13
2.60231e-13
2.67609e-13
2.74963e-13
2.82266e-13
2.8949e-13
2.96602e-13
3.03566e-13
3.10342e-13
3.16888e-13
3.23156e-13
3.29095e-13
3.34647e-13
3.39753e-13
3.44343e-13
3.48344e-13
3.51677e-13
3.54255e-13
3.55983e-13
3.56757e-13
3.56467e-13
3.54991e-13
3.52198e-13
3.47945e-13
3.4208e-13
3.34435e-13
3.24833e-13
3.13079e-13
2.98967e-13
2.82274e-13
2.62763e-13
2.4018e-13
2.14256e-13
1.84706e-13
1.51231e-13
1.13521e-13
7.12528e-14
2.41011e-14
-2.82611e-14
-8.61496e-14
-1.49855e-13
-2.19644e-13
-2.95815e-13
-3.78432e-13
-4.65661e-13
-5.55322e-13
-6.75441e-13
-8.99411e-13
-8.41676e-13
6.84097e-14
6.64374e-14
6.45692e-14
6.33001e-14
6.24278e-14
6.1888e-14
6.16697e-14
6.17552e-14
6.21233e-14
6.27546e-14
6.36315e-14
6.47387e-14
6.60626e-14
6.75914e-14
6.93156e-14
7.12266e-14
7.33176e-14
7.55828e-14
7.80176e-14
8.06184e-14
8.33821e-14
8.63063e-14
8.93895e-14
9.26302e-14
9.60275e-14
9.95808e-14
1.03289e-13
1.07153e-13
1.11171e-13
1.15343e-13
1.19669e-13
1.24148e-13
1.2878e-13
1.33562e-13
1.38495e-13
1.43576e-13
1.48802e-13
1.54172e-13
1.59682e-13
1.65329e-13
1.71107e-13
1.77011e-13
1.83036e-13
1.89174e-13
1.95416e-13
2.01755e-13
2.08178e-13
2.14675e-13
2.21232e-13
2.27834e-13
2.34464e-13
2.41105e-13
2.47735e-13
2.54333e-13
2.60873e-13
2.67327e-13
2.73666e-13
2.79857e-13
2.85863e-13
2.91645e-13
2.97159e-13
3.02357e-13
3.07188e-13
3.11597e-13
3.1552e-13
3.18893e-13
3.21641e-13
3.23688e-13
3.24947e-13
3.25326e-13
3.24725e-13
3.23035e-13
3.2014e-13
3.15913e-13
3.10217e-13
3.02906e-13
2.93821e-13
2.82792e-13
2.69638e-13
2.54164e-13
2.36161e-13
2.15409e-13
1.91673e-13
1.64706e-13
1.34248e-13
1.0003e-13
6.17708e-14
1.91863e-14
-2.80107e-14
-8.01029e-14
-1.37359e-13
-2.00021e-13
-2.68305e-13
-3.42464e-13
-4.22523e-13
-5.06579e-13
-5.924e-13
-7.08649e-13
-9.30361e-13
-8.63679e-13
6.90959e-14
6.7238e-14
6.54727e-14
6.42634e-14
6.34215e-14
6.28881e-14
6.26549e-14
6.27074e-14
6.30271e-14
6.3597e-14
6.44017e-14
6.54271e-14
6.6661e-14
6.80928e-14
6.97129e-14
7.15135e-14
7.34878e-14
7.56298e-14
7.7935e-14
8.03995e-14
8.30197e-14
8.5793e-14
8.87173e-14
9.17907e-14
9.50118e-14
9.83792e-14
1.01892e-13
1.05549e-13
1.09348e-13
1.1329e-13
1.17373e-13
1.21595e-13
1.25956e-13
1.30453e-13
1.35084e-13
1.39846e-13
1.44738e-13
1.49755e-13
1.54893e-13
1.60147e-13
1.65513e-13
1.70984e-13
1.76553e-13
1.82211e-13
1.87951e-13
1.93762e-13
1.99632e-13
2.05549e-13
2.11499e-13
2.17466e-13
2.23432e-13
2.29379e-13
2.35286e-13
2.41128e-13
2.46881e-13
2.52517e-13
2.58005e-13
2.63311e-13
2.68398e-13
2.73228e-13
2.77756e-13
2.81936e-13
2.85715e-13
2.89038e-13
2.91845e-13
2.9407e-13
2.95642e-13
2.96484e-13
2.96512e-13
2.95638e-13
2.93764e-13
2.90785e-13
2.8659e-13
2.81056e-13
2.74053e-13
2.65442e-13
2.55073e-13
2.42786e-13
2.28409e-13
2.11761e-13
1.92647e-13
1.70864e-13
1.46196e-13
1.18417e-13
8.72906e-14
5.2574e-14
1.40171e-14
-2.86328e-14
-7.56271e-14
-1.27211e-13
-1.83613e-13
-2.45034e-13
-3.11653e-13
-3.83688e-13
-4.61133e-13
-5.42037e-13
-6.24128e-13
-7.36547e-13
-9.55546e-13
-8.80944e-13
6.96058e-14
6.78547e-14
6.61863e-14
6.50355e-14
6.42255e-14
6.37022e-14
6.34596e-14
6.34852e-14
6.37629e-14
6.42778e-14
6.5016e-14
6.59652e-14
6.71141e-14
6.84528e-14
6.99725e-14
7.16656e-14
7.35256e-14
7.55465e-14
7.77236e-14
8.00528e-14
8.25304e-14
8.51534e-14
8.79192e-14
9.08256e-14
9.38706e-14
9.70522e-14
1.00369e-13
1.03819e-13
1.07401e-13
1.11114e-13
1.14954e-13
1.18921e-13
1.23012e-13
1.27225e-13
1.31557e-13
1.36005e-13
1.40564e-13
1.45232e-13
1.50003e-13
1.54871e-13
1.59831e-13
1.64875e-13
1.69996e-13
1.75185e-13
1.80433e-13
1.85727e-13
1.91057e-13
1.96409e-13
2.01768e-13
2.07117e-13
2.12439e-13
2.17714e-13
2.2292e-13
2.28033e-13
2.33028e-13
2.37875e-13
2.42545e-13
2.47002e-13
2.51212e-13
2.55133e-13
2.58722e-13
2.61933e-13
2.64715e-13
2.67013e-13
2.68767e-13
2.69914e-13
2.70383e-13
2.701e-13
2.68984e-13
2.6695e-13
2.63902e-13
2.59741e-13
2.54358e-13
2.4764e-13
2.39461e-13
2.29689e-13
2.18183e-13
2.04792e-13
1.89358e-13
1.7171e-13
1.51669e-13
1.29047e-13
1.03647e-13
7.52618e-14
4.36796e-14
8.681e-15
-2.99566e-14
-7.24565e-14
-1.19039e-13
-1.69917e-13
-2.25285e-13
-2.85312e-13
-3.50144e-13
-4.19973e-13
-4.94772e-13
-5.72553e-13
-6.51016e-13
-7.59645e-13
-9.75561e-13
-8.94017e-13
6.99557e-14
6.83054e-14
6.67288e-14
6.5635e-14
6.48577e-14
6.43473e-14
6.4099e-14
6.41024e-14
6.43432e-14
6.48083e-14
6.54853e-14
6.6363e-14
6.74312e-14
6.86808e-14
7.01035e-14
7.16921e-14
7.34402e-14
7.5342e-14
7.73927e-14
7.95881e-14
8.19243e-14
8.4398e-14
8.70063e-14
8.97463e-14
9.2616e-14
9.56129e-14
9.87348e-14
1.0198e-13
1.05345e-13
1.08829e-13
1.12429e-13
1.16142e-13
1.19966e-13
1.23898e-13
1.27934e-13
1.3207e-13
1.36303e-13
1.40626e-13
1.45035e-13
1.49523e-13
1.54084e-13
1.5871e-13
1.63392e-13
1.68122e-13
1.72888e-13
1.77679e-13
1.82482e-13
1.87284e-13
1.92069e-13
1.96819e-13
2.01517e-13
2.06142e-13
2.10671e-13
2.15082e-13
2.19346e-13
2.23437e-13
2.27322e-13
2.30968e-13
2.34339e-13
2.37395e-13
2.40092e-13
2.42385e-13
2.44224e-13
2.45555e-13
2.4632e-13
2.46455e-13
2.45895e-13
2.44565e-13
2.42389e-13
2.39283e-13
2.35157e-13
2.29916e-13
2.23456e-13
2.15668e-13
2.06435e-13
1.95633e-13
1.83128e-13
1.6878e-13
1.52441e-13
1.33954e-13
1.13154e-13
8.98669e-14
6.3914e-14
3.51083e-14
3.25771e-15
-3.18339e-14
-7.03645e-14
-1.12531e-13
-1.58527e-13
-2.08537e-13
-2.62727e-13
-3.21237e-13
-3.84191e-13
-4.51759e-13
-5.23896e-13
-5.9859e-13
-6.73524e-13
-7.78406e-13
-9.90921e-13
-9.03333e-13
7.01605e-14
6.86061e-14
6.71171e-14
6.60783e-14
6.53342e-14
6.48384e-14
6.45875e-14
6.45723e-14
6.47804e-14
6.52e-14
6.582e-14
6.66304e-14
6.76219e-14
6.8786e-14
7.0115e-14
7.16019e-14
7.32406e-14
7.50256e-14
7.69519e-14
7.90152e-14
8.12116e-14
8.35374e-14
8.59894e-14
8.85646e-14
9.12603e-14
9.40736e-14
9.70019e-14
1.00043e-13
1.03193e-13
1.06451e-13
1.09812e-13
1.13275e-13
1.16835e-13
1.20489e-13
1.24233e-13
1.28062e-13
1.31972e-13
1.35957e-13
1.4001e-13
1.44125e-13
1.48295e-13
1.52512e-13
1.56765e-13
1.61046e-13
1.65343e-13
1.69644e-13
1.73935e-13
1.78203e-13
1.82431e-13
1.86601e-13
1.90696e-13
1.94693e-13
1.98571e-13
2.02306e-13
2.0587e-13
2.09235e-13
2.1237e-13
2.15242e-13
2.17814e-13
2.20047e-13
2.21898e-13
2.23323e-13
2.24273e-13
2.24694e-13
2.24531e-13
2.23722e-13
2.22202e-13
2.19902e-13
2.16746e-13
2.12655e-13
2.07543e-13
2.01318e-13
1.93884e-13
1.85137e-13
1.74966e-13
1.63255e-13
1.4988e-13
1.3471e-13
1.17608e-13
9.84285e-14
7.70207e-14
5.32264e-14
2.68823e-14
-2.18045e-15
-3.41344e-14
-6.91547e-14
-1.07417e-13
-1.49096e-13
-1.94359e-13
-2.43367e-13
-2.96263e-13
-3.53165e-13
-4.14174e-13
-4.79444e-13
-5.48918e-13
-6.2057e-13
-6.92071e-13
-7.9325e-13
-1.00209e-12
-9.09272e-13
7.02344e-14
6.87714e-14
6.73661e-14
6.63807e-14
6.56696e-14
6.51895e-14
6.49381e-14
6.49073e-14
6.50861e-14
6.54638e-14
6.60308e-14
6.67775e-14
6.76958e-14
6.87777e-14
7.0016e-14
7.1404e-14
7.2936e-14
7.46066e-14
7.64107e-14
7.8344e-14
8.04024e-14
8.25821e-14
8.48795e-14
8.72916e-14
8.98149e-14
9.24465e-14
9.51833e-14
9.80225e-14
1.0096e-13
1.03994e-13
1.0712e-13
1.10335e-13
1.13635e-13
1.17016e-13
1.20472e-13
1.23999e-13
1.27592e-13
1.31244e-13
1.34949e-13
1.38699e-13
1.42487e-13
1.46303e-13
1.50139e-13
1.53982e-13
1.57822e-13
1.61647e-13
1.65442e-13
1.69192e-13
1.72881e-13
1.76491e-13
1.80004e-13
1.83397e-13
1.86649e-13
1.89734e-13
1.92627e-13
1.95298e-13
1.97718e-13
1.99852e-13
2.01664e-13
2.03117e-13
2.04169e-13
2.04775e-13
2.04888e-13
2.04456e-13
2.03425e-13
2.01735e-13
1.99325e-13
1.96126e-13
1.92068e-13
1.87074e-13
1.81063e-13
1.73948e-13
1.65637e-13
1.56034e-13
1.45034e-13
1.32528e-13
1.18402e-13
1.02535e-13
8.47988e-14
6.50614e-14
4.31842e-14
1.90238e-14
-7.56806e-15
-3.67432e-14
-6.86562e-14
-1.03463e-13
-1.4132e-13
-1.82379e-13
-2.26789e-13
-2.74688e-13
-3.26199e-13
-3.81421e-13
-4.40438e-13
-5.03392e-13
-5.70214e-13
-6.38872e-13
-7.07034e-13
-8.04558e-13
-1.00948e-12
-9.12171e-13
7.01903e-14
6.88144e-14
6.74892e-14
6.65559e-14
6.58774e-14
6.54138e-14
6.51636e-14
6.51195e-14
6.52718e-14
6.56109e-14
6.61278e-14
6.68142e-14
6.76625e-14
6.86652e-14
6.98158e-14
7.11078e-14
7.25357e-14
7.40943e-14
7.57786e-14
7.75841e-14
7.95067e-14
8.15424e-14
8.36874e-14
8.59384e-14
8.82916e-14
9.07438e-14
9.32915e-14
9.59315e-14
9.86599e-14
1.01473e-13
1.04367e-13
1.07338e-13
1.10382e-13
1.13493e-13
1.16667e-13
1.19898e-13
1.23181e-13
1.26507e-13
1.29872e-13
1.33265e-13
1.3668e-13
1.40106e-13
1.43534e-13
1.46952e-13
1.50349e-13
1.53712e-13
1.57026e-13
1.60275e-13
1.63444e-13
1.66514e-13
1.69466e-13
1.72279e-13
1.7493e-13
1.77394e-13
1.79645e-13
1.81654e-13
1.83392e-13
1.84824e-13
1.85917e-13
1.86632e-13
1.86929e-13
1.86764e-13
1.86091e-13
1.8486e-13
1.83019e-13
1.80511e-13
1.77276e-13
1.73249e-13
1.68363e-13
1.62545e-13
1.55717e-13
1.47799e-13
1.38705e-13
1.28341e-13
1.16613e-13
1.03419e-13
8.86529e-14
7.22021e-14
5.39505e-14
3.37766e-14
1.15545e-14
-1.2846e-14
-3.95582e-14
-6.87187e-14
-1.00465e-13
-1.34937e-13
-1.72271e-13
-2.12602e-13
-2.56059e-13
-3.02763e-13
-3.52819e-13
-4.06309e-13
-4.63305e-13
-5.23936e-13
-5.88126e-13
-6.53842e-13
-7.18759e-13
-8.12678e-13
-1.01347e-12
-9.12336e-13
7.00398e-14
6.87475e-14
6.74996e-14
6.66166e-14
6.59702e-14
6.55236e-14
6.52757e-14
6.52203e-14
6.53484e-14
6.56514e-14
6.61211e-14
6.67501e-14
6.75313e-14
6.84579e-14
6.95236e-14
7.07224e-14
7.20488e-14
7.3498e-14
7.5065e-14
7.67451e-14
7.85343e-14
8.04285e-14
8.24235e-14
8.45159e-14
8.67016e-14
8.89771e-14
9.13387e-14
9.37825e-14
9.63047e-14
9.89009e-14
1.01567e-13
1.04299e-13
1.07091e-13
1.09938e-13
1.12836e-13
1.15777e-13
1.18755e-13
1.21764e-13
1.24796e-13
1.27842e-13
1.30893e-13
1.3394e-13
1.36972e-13
1.39978e-13
1.42946e-13
1.45861e-13
1.4871e-13
1.51477e-13
1.54144e-13
1.56695e-13
1.59108e-13
1.61364e-13
1.63439e-13
1.65308e-13
1.66947e-13
1.68326e-13
1.69415e-13
1.70183e-13
1.70594e-13
1.70612e-13
1.70198e-13
1.69308e-13
1.679e-13
1.65923e-13
1.63329e-13
1.60062e-13
1.56065e-13
1.51277e-13
1.45634e-13
1.39066e-13
1.31501e-13
1.22862e-13
1.13069e-13
1.02037e-13
8.96752e-14
7.58905e-14
6.05847e-14
4.36551e-14
2.49953e-14
4.49463e-15
-1.79611e-14
-4.24892e-14
-6.92097e-14
-9.82445e-14
-1.29716e-13
-1.63748e-13
-2.00461e-13
-2.39974e-13
-2.82398e-13
-3.27839e-13
-3.76387e-13
-4.2811e-13
-4.83068e-13
-5.41381e-13
-6.02966e-13
-6.65798e-13
-7.27562e-13
-8.17927e-13
-1.01441e-12
-9.10049e-13
6.97941e-14
6.85823e-14
6.74087e-14
6.65745e-14
6.59598e-14
6.55304e-14
6.52858e-14
6.52204e-14
6.53262e-14
6.55953e-14
6.60205e-14
6.65948e-14
6.73116e-14
6.81648e-14
6.91484e-14
7.02568e-14
7.14845e-14
7.2827e-14
7.42792e-14
7.58366e-14
7.74951e-14
7.92503e-14
8.10982e-14
8.30348e-14
8.50559e-14
8.71579e-14
8.93367e-14
9.15879e-14
9.39075e-14
9.62909e-14
9.87335e-14
1.0123e-13
1.03776e-13
1.06366e-13
1.08992e-13
1.11651e-13
1.14333e-13
1.17032e-13
1.19739e-13
1.22447e-13
1.25145e-13
1.27824e-13
1.30473e-13
1.3308e-13
1.35632e-13
1.38115e-13
1.40516e-13
1.42817e-13
1.45003e-13
1.47054e-13
1.48951e-13
1.50673e-13
1.52198e-13
1.535e-13
1.54555e-13
1.55335e-13
1.55809e-13
1.55947e-13
1.55715e-13
1.55077e-13
1.53994e-13
1.52426e-13
1.5033e-13
1.47659e-13
1.44365e-13
1.40397e-13
1.35699e-13
1.30213e-13
1.23879e-13
1.16632e-13
1.08403e-13
9.91215e-14
8.87111e-14
7.70931e-14
6.41847e-14
4.98994e-14
3.4147e-14
1.68338e-14
-2.1372e-15
-2.28662e-14
-4.54562e-14
-7.00128e-14
-9.66433e-14
-1.25456e-13
-1.5656e-13
-1.90064e-13
-2.26075e-13
-2.64695e-13
-3.06023e-13
-3.50149e-13
-3.9715e-13
-4.47084e-13
-5e-13
-5.56009e-13
-6.15025e-13
-6.75032e-13
-7.33734e-13
-8.20599e-13
-1.01261e-12
-9.05571e-13
6.94642e-14
6.83299e-14
6.72278e-14
6.64408e-14
6.58571e-14
6.54451e-14
6.52044e-14
6.51304e-14
6.52154e-14
6.54527e-14
6.58354e-14
6.63574e-14
6.70126e-14
6.7795e-14
6.86992e-14
6.97197e-14
7.08516e-14
7.209e-14
7.34304e-14
7.4868e-14
7.63985e-14
7.80177e-14
7.97214e-14
8.15054e-14
8.33654e-14
8.52972e-14
8.72968e-14
8.93594e-14
9.14807e-14
9.36557e-14
9.58796e-14
9.81471e-14
1.00452e-13
1.0279e-13
1.05153e-13
1.07535e-13
1.09929e-13
1.12326e-13
1.14719e-13
1.17098e-13
1.19455e-13
1.21777e-13
1.24055e-13
1.26275e-13
1.28426e-13
1.30494e-13
1.32462e-13
1.34316e-13
1.36039e-13
1.37612e-13
1.39015e-13
1.40227e-13
1.41227e-13
1.41989e-13
1.4249e-13
1.42701e-13
1.42593e-13
1.42136e-13
1.41297e-13
1.40042e-13
1.38332e-13
1.36129e-13
1.33392e-13
1.30076e-13
1.26135e-13
1.2152e-13
1.16178e-13
1.10056e-13
1.03095e-13
9.52345e-14
8.64112e-14
7.6558e-14
6.56051e-14
5.34793e-14
4.01042e-14
2.54006e-14
9.2861e-15
-8.32457e-15
-2.75194e-14
-4.83888e-14
-7.10253e-14
-9.55232e-14
-1.21978e-13
-1.50486e-13
-1.81144e-13
-2.14047e-13
-2.49287e-13
-2.86956e-13
-3.27138e-13
-3.69911e-13
-4.15341e-13
-4.63476e-13
-5.14355e-13
-5.68082e-13
-6.24568e-13
-6.81814e-13
-7.37544e-13
-8.20966e-13
-1.00838e-12
-8.99147e-13
6.90601e-14
6.80004e-14
6.69673e-14
6.62261e-14
6.56727e-14
6.52779e-14
6.50416e-14
6.49598e-14
6.50257e-14
6.52329e-14
6.55753e-14
6.60471e-14
6.66429e-14
6.73572e-14
6.81847e-14
6.91201e-14
7.01588e-14
7.12962e-14
7.25274e-14
7.38481e-14
7.52538e-14
7.67402e-14
7.8303e-14
7.99378e-14
8.16402e-14
8.34058e-14
8.52302e-14
8.71085e-14
8.9036e-14
9.10076e-14
9.30181e-14
9.50618e-14
9.71327e-14
9.92246e-14
1.01331e-13
1.03445e-13
1.05558e-13
1.07663e-13
1.09751e-13
1.11812e-13
1.13837e-13
1.15815e-13
1.17734e-13
1.19583e-13
1.21347e-13
1.23014e-13
1.24568e-13
1.25993e-13
1.27272e-13
1.28387e-13
1.29318e-13
1.30044e-13
1.30544e-13
1.30793e-13
1.30768e-13
1.3044e-13
1.29782e-13
1.28765e-13
1.27355e-13
1.2552e-13
1.23224e-13
1.20429e-13
1.17096e-13
1.13182e-13
1.08643e-13
1.03433e-13
9.75026e-14
9.08002e-14
8.32717e-14
7.48605e-14
6.55072e-14
5.51498e-14
4.37238e-14
3.11616e-14
1.73933e-14
2.34661e-15
-1.40536e-14
-3.18843e-14
-5.1225e-14
-7.21567e-14
-9.47623e-14
-1.19126e-13
-1.45331e-13
-1.73465e-13
-2.03609e-13
-2.3585e-13
-2.70266e-13
-3.06938e-13
-3.45937e-13
-3.87331e-13
-4.31177e-13
-4.77511e-13
-5.26367e-13
-5.77843e-13
-6.31845e-13
-6.86395e-13
-7.39241e-13
-8.19281e-13
-1.00199e-12
-8.91008e-13
6.85917e-14
6.76038e-14
6.66373e-14
6.59404e-14
6.54164e-14
6.50385e-14
6.4807e-14
6.47183e-14
6.47662e-14
6.49448e-14
6.52489e-14
6.56727e-14
6.62114e-14
6.686e-14
6.76133e-14
6.84665e-14
6.94148e-14
7.04539e-14
7.15791e-14
7.27861e-14
7.40702e-14
7.54272e-14
7.68526e-14
7.83419e-14
7.98906e-14
8.1494e-14
8.31475e-14
8.48461e-14
8.65849e-14
8.83583e-14
9.01609e-14
9.19868e-14
9.38299e-14
9.56833e-14
9.75404e-14
9.93937e-14
1.01235e-13
1.03057e-13
1.04849e-13
1.06603e-13
1.08308e-13
1.09954e-13
1.11528e-13
1.13018e-13
1.14412e-13
1.15694e-13
1.1685e-13
1.17864e-13
1.18719e-13
1.19396e-13
1.19877e-13
1.20141e-13
1.20165e-13
1.19928e-13
1.19404e-13
1.18567e-13
1.17391e-13
1.15845e-13
1.139e-13
1.11523e-13
1.08679e-13
1.05333e-13
1.01446e-13
9.69791e-14
9.18901e-14
8.61347e-14
7.9667e-14
7.24385e-14
6.43986e-14
5.54947e-14
4.56716e-14
3.48721e-14
2.30368e-14
1.01038e-14
-3.99066e-15
-1.93124e-14
-3.59293e-14
-5.39108e-14
-7.3328e-14
-9.42534e-14
-1.1676e-13
-1.40924e-13
-1.66817e-13
-1.94516e-13
-2.24093e-13
-2.55622e-13
-2.89172e-13
-3.24812e-13
-3.62603e-13
-4.02603e-13
-4.4486e-13
-4.89403e-13
-5.36258e-13
-5.85518e-13
-6.37086e-13
-6.89007e-13
-7.39058e-13
-8.15781e-13
-9.9371e-13
-8.8137e-13
6.80682e-14
6.71494e-14
6.62469e-14
6.55929e-14
6.50976e-14
6.47362e-14
6.45098e-14
6.44148e-14
6.44458e-14
6.45974e-14
6.48646e-14
6.52425e-14
6.57264e-14
6.63117e-14
6.69934e-14
6.7767e-14
6.86279e-14
6.95718e-14
7.05941e-14
7.16905e-14
7.28566e-14
7.40875e-14
7.53793e-14
7.67271e-14
7.81262e-14
7.95718e-14
8.10591e-14
8.2583e-14
8.41381e-14
8.57189e-14
8.73197e-14
8.89342e-14
9.0556e-14
9.21784e-14
9.3794e-14
9.53952e-14
9.69741e-14
9.85217e-14
1.00029e-13
1.01486e-13