/*--------------------------------*- C++ -*----------------------------------*\
  =========                 |
  \\      /  F ield         | OpenFOAM: The Open Source CFD Toolbox
   \\    /   O peration     | Website:  https://openfoam.org
    \\  /    A nd           | Version:  11
     \\/     M anipulation  |
\*---------------------------------------------------------------------------*/
FoamFile
{
    format      ascii;
    class       surfaceScalarField;
    location    "182";
    object      phi;
}
// * * * * * * * * * * * * * * * * * * * * * * * * * * * * * * * * * * * * * //

dimensions      [0 3 -1 0 0 0 0];

internalField   nonuniform List<scalar> 
19800
(
1.99923e-05
-7.56093e-08
1.99796e-05
-2.23573e-07
1.99635e-05
-3.71246e-07
1.99441e-05
-5.20841e-07
1.99213e-05
-6.7387e-07
1.98951e-05
-8.3131e-07
1.98653e-05
-9.93889e-07
1.98317e-05
-1.16218e-06
1.97942e-05
-1.33663e-06
1.97526e-05
-1.51763e-06
1.97066e-05
-1.70548e-06
1.96559e-05
-1.90044e-06
1.96005e-05
-2.10271e-06
1.95399e-05
-2.31244e-06
1.94739e-05
-2.52971e-06
1.94024e-05
-2.75456e-06
1.93249e-05
-2.98693e-06
1.92414e-05
-3.22672e-06
1.91514e-05
-3.47372e-06
1.90548e-05
-3.72765e-06
1.89513e-05
-3.9881e-06
1.88407e-05
-4.25457e-06
1.87228e-05
-4.52641e-06
1.85975e-05
-4.80287e-06
1.84645e-05
-5.083e-06
1.8324e-05
-5.36576e-06
1.81757e-05
-5.6499e-06
1.80197e-05
-5.93406e-06
1.78562e-05
-6.21669e-06
1.76854e-05
-6.49617e-06
1.75074e-05
-6.77071e-06
1.73228e-05
-7.03851e-06
1.71318e-05
-7.29771e-06
1.69351e-05
-7.54649e-06
1.67332e-05
-7.78309e-06
1.65269e-05
-8.00591e-06
1.63169e-05
-8.21352e-06
1.61038e-05
-8.40474e-06
1.58886e-05
-8.57866e-06
1.5672e-05
-8.73465e-06
1.54548e-05
-8.87238e-06
1.52381e-05
-8.99185e-06
1.50227e-05
-9.09338e-06
1.48081e-05
-9.17703e-06
1.45921e-05
-9.24294e-06
1.43754e-05
-9.2916e-06
1.41586e-05
-9.32432e-06
1.39422e-05
-9.34242e-06
1.37288e-05
-9.34746e-06
1.35205e-05
-9.34023e-06
1.33168e-05
-9.32094e-06
1.31173e-05
-9.29026e-06
1.29225e-05
-9.24894e-06
1.27319e-05
-9.19749e-06
1.25441e-05
-9.13684e-06
1.23589e-05
-9.06811e-06
1.21764e-05
-8.99196e-06
1.19969e-05
-8.90881e-06
1.18204e-05
-8.81913e-06
1.16468e-05
-8.72334e-06
1.14762e-05
-8.62184e-06
1.13087e-05
-8.51503e-06
1.11443e-05
-8.40325e-06
1.09828e-05
-8.28683e-06
1.08244e-05
-8.16607e-06
1.06691e-05
-8.04127e-06
1.05169e-05
-7.91271e-06
1.03677e-05
-7.78064e-06
1.02217e-05
-7.64534e-06
1.00788e-05
-7.50706e-06
9.93916e-06
-7.36606e-06
9.80271e-06
-7.22259e-06
9.66951e-06
-7.07691e-06
9.53962e-06
-6.92929e-06
9.41309e-06
-6.78001e-06
9.28996e-06
-6.62934e-06
9.1703e-06
-6.47759e-06
9.05416e-06
-6.32506e-06
8.94161e-06
-6.17208e-06
8.8327e-06
-6.01897e-06
8.72751e-06
-5.86611e-06
8.62611e-06
-5.71388e-06
8.52857e-06
-5.56266e-06
8.43497e-06
-5.41289e-06
8.3454e-06
-5.26501e-06
8.25993e-06
-5.11951e-06
8.17866e-06
-4.97691e-06
8.1017e-06
-4.83774e-06
8.02913e-06
-4.70261e-06
7.96109e-06
-4.57216e-06
7.89768e-06
-4.44707e-06
7.83906e-06
-4.32812e-06
7.78538e-06
-4.21614e-06
7.73682e-06
-4.11207e-06
7.69361e-06
-4.01699e-06
7.656e-06
-3.93214e-06
7.62433e-06
-3.85895e-06
7.59908e-06
-3.79918e-06
7.58107e-06
-3.75547e-06
-3.7324e-06
1.99943e-05
-6.98777e-08
1.99823e-05
-2.11606e-07
1.99663e-05
-3.55239e-07
1.99468e-05
-5.01359e-07
1.99239e-05
-6.51005e-07
1.98976e-05
-8.05007e-07
1.98678e-05
-9.64018e-07
1.98342e-05
-1.12857e-06
1.97966e-05
-1.29909e-06
1.97549e-05
-1.47594e-06
1.97089e-05
-1.65943e-06
1.96583e-05
-1.84979e-06
1.96028e-05
-2.04722e-06
1.95422e-05
-2.25185e-06
1.94762e-05
-2.46378e-06
1.94047e-05
-2.68301e-06
1.93273e-05
-2.90952e-06
1.92437e-05
-3.14318e-06
1.91538e-05
-3.3838e-06
1.90573e-05
-3.63109e-06
1.89539e-05
-3.88468e-06
1.88434e-05
-4.14407e-06
1.87256e-05
-4.40864e-06
1.86004e-05
-4.67765e-06
1.84676e-05
-4.95023e-06
1.83272e-05
-5.22534e-06
1.81791e-05
-5.50181e-06
1.80233e-05
-5.77833e-06
1.78601e-05
-6.05344e-06
1.76895e-05
-6.32557e-06
1.75118e-05
-6.59305e-06
1.73275e-05
-6.85414e-06
1.71368e-05
-7.10707e-06
1.69404e-05
-7.3501e-06
1.67389e-05
-7.58156e-06
1.65329e-05
-7.7999e-06
1.63231e-05
-8.00375e-06
1.61103e-05
-8.19195e-06
1.58953e-05
-8.3636e-06
1.56787e-05
-8.51804e-06
1.54612e-05
-8.65492e-06
1.52435e-05
-8.77412e-06
1.50257e-05
-8.87564e-06
1.48081e-05
-8.95937e-06
1.45908e-05
-9.02567e-06
1.43751e-05
-9.07589e-06
1.41616e-05
-9.11082e-06
1.39506e-05
-9.13138e-06
1.37421e-05
-9.13897e-06
1.35362e-05
-9.13437e-06
1.33331e-05
-9.11784e-06
1.3133e-05
-9.09018e-06
1.29364e-05
-9.05228e-06
1.27435e-05
-9.00459e-06
1.25542e-05
-8.94757e-06
1.23682e-05
-8.88213e-06
1.21853e-05
-8.80908e-06
1.20055e-05
-8.72898e-06
1.18287e-05
-8.64234e-06
1.1655e-05
-8.54959e-06
1.14843e-05
-8.45114e-06
1.13166e-05
-8.34737e-06
1.1152e-05
-8.23864e-06
1.09904e-05
-8.12526e-06
1.08319e-05
-8.00757e-06
1.06765e-05
-7.88584e-06
1.05241e-05
-7.76036e-06
1.03749e-05
-7.6314e-06
1.02288e-05
-7.49923e-06
1.00858e-05
-7.36411e-06
9.94605e-06
-7.22629e-06
9.80951e-06
-7.08605e-06
9.67624e-06
-6.94364e-06
9.54627e-06
-6.79933e-06
9.41967e-06
-6.65341e-06
9.29648e-06
-6.50615e-06
9.17675e-06
-6.35787e-06
9.06055e-06
-6.20886e-06
8.94793e-06
-6.05946e-06
8.83896e-06
-5.91001e-06
8.73371e-06
-5.76086e-06
8.63225e-06
-5.61241e-06
8.53464e-06
-5.46505e-06
8.44097e-06
-5.31922e-06
8.35132e-06
-5.17536e-06
8.26577e-06
-5.03396e-06
8.1844e-06
-4.89554e-06
8.10732e-06
-4.76066e-06
8.03463e-06
-4.62992e-06
7.96642e-06
-4.50395e-06
7.90282e-06
-4.38347e-06
7.84395e-06
-4.26925e-06
7.78996e-06
-4.16214e-06
7.74099e-06
-4.06311e-06
7.69722e-06
-3.97322e-06
7.65883e-06
-3.89375e-06
7.62601e-06
-3.82613e-06
7.59893e-06
-3.77211e-06
7.57749e-06
-3.73402e-06
-3.71529e-06
1.99957e-05
-6.557e-08
1.99851e-05
-2.00975e-07
1.99698e-05
-3.39961e-07
1.99507e-05
-4.82228e-07
1.99279e-05
-6.28293e-07
1.99017e-05
-7.78754e-07
1.98718e-05
-9.34148e-07
1.98382e-05
-1.09494e-06
1.98006e-05
-1.26152e-06
1.97589e-05
-1.43424e-06
1.97128e-05
-1.61336e-06
1.96622e-05
-1.79913e-06
1.96067e-05
-1.99173e-06
1.95461e-05
-2.19128e-06
1.94802e-05
-2.39787e-06
1.94087e-05
-2.61152e-06
1.93314e-05
-2.83217e-06
1.92479e-05
-3.05972e-06
1.91581e-05
-3.29399e-06
1.90617e-05
-3.53468e-06
1.89585e-05
-3.78143e-06
1.88482e-05
-4.03377e-06
1.87306e-05
-4.29111e-06
1.86057e-05
-4.55272e-06
1.84732e-05
-4.81778e-06
1.83332e-05
-5.08529e-06
1.81855e-05
-5.35415e-06
1.80303e-05
-5.62309e-06
1.78676e-05
-5.89073e-06
1.76976e-05
-6.15559e-06
1.75206e-05
-6.41605e-06
1.7337e-05
-6.67048e-06
1.71471e-05
-6.91718e-06
1.69515e-05
-7.1545e-06
1.67507e-05
-7.38083e-06
1.65455e-05
-7.59468e-06
1.63365e-05
-7.79473e-06
1.61244e-05
-7.97983e-06
1.59098e-05
-8.14908e-06
1.56936e-05
-8.30181e-06
1.54763e-05
-8.4376e-06
1.52584e-05
-8.55623e-06
1.50404e-05
-8.65764e-06
1.48229e-05
-8.74185e-06
1.46066e-05
-8.80935e-06
1.43919e-05
-8.86118e-06
1.41792e-05
-8.89817e-06
1.3969e-05
-8.92115e-06
1.37612e-05
-8.93119e-06
1.35559e-05
-8.92905e-06
1.33533e-05
-8.91527e-06
1.31537e-05
-8.89056e-06
1.29571e-05
-8.8557e-06
1.27637e-05
-8.8112e-06
1.25737e-05
-8.75753e-06
1.2387e-05
-8.69542e-06
1.22035e-05
-8.62558e-06
1.20231e-05
-8.54864e-06
1.18459e-05
-8.4651e-06
1.16717e-05
-8.37543e-06
1.15006e-05
-8.28005e-06
1.13326e-05
-8.17935e-06
1.11677e-05
-8.07368e-06
1.10058e-05
-7.96338e-06
1.0847e-05
-7.84875e-06
1.06912e-05
-7.73011e-06
1.05386e-05
-7.60773e-06
1.03891e-05
-7.48189e-06
1.02427e-05
-7.35286e-06
1.00995e-05
-7.22091e-06
9.95953e-06
-7.08629e-06
9.82277e-06
-6.94929e-06
9.68929e-06
-6.81015e-06
9.55912e-06
-6.66917e-06
9.43233e-06
-6.52661e-06
9.30896e-06
-6.38278e-06
9.18905e-06
-6.23796e-06
9.07268e-06
-6.09249e-06
8.95989e-06
-5.94667e-06
8.85076e-06
-5.80087e-06
8.74534e-06
-5.65544e-06
8.64371e-06
-5.51078e-06
8.54593e-06
-5.36727e-06
8.45207e-06
-5.22536e-06
8.36222e-06
-5.08551e-06
8.27645e-06
-4.94819e-06
8.19484e-06
-4.81394e-06
8.11749e-06
-4.68331e-06
8.04447e-06
-4.5569e-06
7.97589e-06
-4.43537e-06
7.91183e-06
-4.31942e-06
7.85241e-06
-4.20983e-06
7.79771e-06
-4.10745e-06
7.74784e-06
-4.01323e-06
7.70288e-06
-3.92826e-06
7.66286e-06
-3.85373e-06
7.62776e-06
-3.79104e-06
7.59739e-06
-3.74174e-06
7.57118e-06
-3.7078e-06
-3.69204e-06
1.99965e-05
-6.20766e-08
1.99871e-05
-1.91587e-07
1.99728e-05
-3.25691e-07
1.99544e-05
-4.63777e-07
1.99321e-05
-6.0601e-07
1.99061e-05
-7.52761e-07
1.98764e-05
-9.0443e-07
1.98429e-05
-1.0614e-06
1.98053e-05
-1.224e-06
1.97637e-05
-1.39256e-06
1.97176e-05
-1.56732e-06
1.9667e-05
-1.7485e-06
1.96115e-05
-1.93627e-06
1.9551e-05
-2.13076e-06
1.94852e-05
-2.33203e-06
1.94137e-05
-2.5401e-06
1.93365e-05
-2.75493e-06
1.92532e-05
-2.9764e-06
1.91635e-05
-3.20434e-06
1.90673e-05
-3.43847e-06
1.89643e-05
-3.67844e-06
1.88543e-05
-3.92378e-06
1.87372e-05
-4.17393e-06
1.86126e-05
-4.42822e-06
1.84807e-05
-4.68582e-06
1.83412e-05
-4.94582e-06
1.81942e-05
-5.20714e-06
1.80397e-05
-5.46859e-06
1.78778e-05
-5.72885e-06
1.77087e-05
-5.9865e-06
1.75327e-05
-6.24003e-06
1.73501e-05
-6.48787e-06
1.71613e-05
-6.7284e-06
1.69669e-05
-6.96005e-06
1.67673e-05
-7.18126e-06
1.65632e-05
-7.39062e-06
1.63553e-05
-7.58681e-06
1.61442e-05
-7.76874e-06
1.59307e-05
-7.9355e-06
1.57152e-05
-8.08639e-06
1.54986e-05
-8.22095e-06
1.52813e-05
-8.33894e-06
1.50639e-05
-8.44027e-06
1.48471e-05
-8.52505e-06
1.46315e-05
-8.59376e-06
1.44175e-05
-8.6472e-06
1.42055e-05
-8.68614e-06
1.39958e-05
-8.71139e-06
1.37884e-05
-8.72379e-06
1.35834e-05
-8.7241e-06
1.33811e-05
-8.71296e-06
1.31816e-05
-8.69105e-06
1.2985e-05
-8.65907e-06
1.27913e-05
-8.61756e-06
1.26008e-05
-8.56705e-06
1.24136e-05
-8.50815e-06
1.22295e-05
-8.44151e-06
1.20486e-05
-8.36772e-06
1.18708e-05
-8.28732e-06
1.16961e-05
-8.20076e-06
1.15245e-05
-8.10847e-06
1.13561e-05
-8.01086e-06
1.11906e-05
-7.90827e-06
1.10283e-05
-7.80105e-06
1.08691e-05
-7.68951e-06
1.07129e-05
-7.57397e-06
1.05599e-05
-7.45471e-06
1.041e-05
-7.332e-06
1.02633e-05
-7.20613e-06
1.01197e-05
-7.07736e-06
9.97942e-06
-6.94597e-06
9.84235e-06
-6.81221e-06
9.70856e-06
-6.67637e-06
9.57811e-06
-6.53872e-06
9.45104e-06
-6.39954e-06
9.3274e-06
-6.25913e-06
9.20724e-06
-6.1178e-06
9.09061e-06
-5.97586e-06
8.97757e-06
-5.83364e-06
8.86819e-06
-5.69149e-06
8.76252e-06
-5.54977e-06
8.66062e-06
-5.40888e-06
8.56257e-06
-5.26922e-06
8.46844e-06
-5.13122e-06
8.37828e-06
-4.99535e-06
8.29217e-06
-4.86208e-06
8.21019e-06
-4.73196e-06
8.13241e-06
-4.60552e-06
8.0589e-06
-4.48339e-06
7.98973e-06
-4.3662e-06
7.92499e-06
-4.25467e-06
7.86472e-06
-4.14956e-06
7.80898e-06
-4.05171e-06
7.7578e-06
-3.96206e-06
7.71117e-06
-3.88162e-06
7.66899e-06
-3.81155e-06
7.63103e-06
-3.75308e-06
7.59688e-06
-3.70759e-06
7.56577e-06
-3.67668e-06
-3.6631e-06
1.9997e-05
-5.9121e-08
1.99886e-05
-1.83178e-07
1.99754e-05
-3.12417e-07
1.99577e-05
-4.46148e-07
1.99361e-05
-5.84349e-07
1.99105e-05
-7.27219e-07
1.98811e-05
-8.75031e-07
1.98478e-05
-1.02808e-06
1.98105e-05
-1.18665e-06
1.97689e-05
-1.351e-06
1.9723e-05
-1.52137e-06
1.96724e-05
-1.69795e-06
1.9617e-05
-1.8809e-06
1.95566e-05
-2.07033e-06
1.94909e-05
-2.2663e-06
1.94196e-05
-2.46882e-06
1.93425e-05
-2.67785e-06
1.92594e-05
-2.89329e-06
1.917e-05
-3.11494e-06
1.90741e-05
-3.34256e-06
1.89715e-05
-3.57579e-06
1.88619e-05
-3.8142e-06
1.87452e-05
-4.05724e-06
1.86212e-05
-4.30427e-06
1.84899e-05
-4.55451e-06
1.83512e-05
-4.80708e-06
1.8205e-05
-5.06096e-06
1.80514e-05
-5.31501e-06
1.78906e-05
-5.568e-06
1.77226e-05
-5.81855e-06
1.75478e-05
-6.06524e-06
1.73665e-05
-6.30656e-06
1.71791e-05
-6.54099e-06
1.69861e-05
-6.76701e-06
1.67879e-05
-6.98313e-06
1.65853e-05
-7.18798e-06
1.63788e-05
-7.3803e-06
1.61691e-05
-7.559e-06
1.59567e-05
-7.72318e-06
1.57425e-05
-7.87213e-06
1.55269e-05
-8.00539e-06
1.53106e-05
-8.12266e-06
1.50943e-05
-8.22388e-06
1.48784e-05
-8.30918e-06
1.46636e-05
-8.37897e-06
1.44503e-05
-8.43391e-06
1.42389e-05
-8.47468e-06
1.40295e-05
-8.50201e-06
1.38224e-05
-8.51667e-06
1.36176e-05
-8.51938e-06
1.34155e-05
-8.51079e-06
1.3216e-05
-8.49157e-06
1.30193e-05
-8.46236e-06
1.28255e-05
-8.42374e-06
1.26346e-05
-8.37623e-06
1.24469e-05
-8.32043e-06
1.22623e-05
-8.25691e-06
1.20809e-05
-8.18626e-06
1.19025e-05
-8.10897e-06
1.17273e-05
-8.02552e-06
1.15551e-05
-7.93633e-06
1.13861e-05
-7.84181e-06
1.12201e-05
-7.74232e-06
1.10573e-05
-7.6382e-06
1.08976e-05
-7.52977e-06
1.07409e-05
-7.41734e-06
1.05874e-05
-7.30121e-06
1.04371e-05
-7.18166e-06
1.02899e-05
-7.05896e-06
1.0146e-05
-6.9334e-06
1.00052e-05
-6.80523e-06
9.86776e-06
-6.67475e-06
9.7336e-06
-6.54221e-06
9.60279e-06
-6.40791e-06
9.47537e-06
-6.27212e-06
9.35139e-06
-6.13515e-06
9.23089e-06
-5.99731e-06
9.11394e-06
-5.8589e-06
9.00058e-06
-5.72028e-06
8.89087e-06
-5.58178e-06
8.78486e-06
-5.44377e-06
8.68263e-06
-5.30665e-06
8.58422e-06
-5.17081e-06
8.4897e-06
-5.0367e-06
8.39913e-06
-4.90478e-06
8.31257e-06
-4.77552e-06
8.23008e-06
-4.64947e-06
8.15172e-06
-4.52717e-06
8.07755e-06
-4.40922e-06
8.00761e-06
-4.29627e-06
7.94195e-06
-4.18901e-06
7.88059e-06
-4.0882e-06
7.82353e-06
-3.99465e-06
7.77072e-06
-3.90925e-06
7.72208e-06
-3.83298e-06
7.67741e-06
-3.76688e-06
7.63637e-06
-3.71205e-06
7.59843e-06
-3.66965e-06
7.56273e-06
-3.64098e-06
-3.62836e-06
1.99974e-05
-5.65335e-08
1.99898e-05
-1.7554e-07
1.99774e-05
-3.00036e-07
1.99606e-05
-4.2936e-07
1.99397e-05
-5.63405e-07
1.99147e-05
-7.02257e-07
1.98858e-05
-8.46091e-07
1.98528e-05
-9.95123e-07
1.98157e-05
-1.14958e-06
1.97744e-05
-1.30968e-06
1.97287e-05
-1.47563e-06
1.96783e-05
-1.64759e-06
1.96231e-05
-1.82571e-06
1.95629e-05
-2.01008e-06
1.94973e-05
-2.20076e-06
1.94263e-05
-2.39776e-06
1.93494e-05
-2.60103e-06
1.92666e-05
-2.81046e-06
1.91775e-05
-3.02587e-06
1.9082e-05
-3.24703e-06
1.89798e-05
-3.47359e-06
1.88708e-05
-3.70514e-06
1.87547e-05
-3.94115e-06
1.86314e-05
-4.18102e-06
1.85009e-05
-4.42399e-06
1.83631e-05
-4.66923e-06
1.82179e-05
-4.91578e-06
1.80654e-05
-5.16255e-06
1.79058e-05
-5.40836e-06
1.77391e-05
-5.65192e-06
1.75658e-05
-5.89187e-06
1.7386e-05
-6.12676e-06
1.72001e-05
-6.35516e-06
1.70087e-05
-6.57559e-06
1.68122e-05
-6.78665e-06
1.66113e-05
-6.987e-06
1.64064e-05
-7.17542e-06
1.61982e-05
-7.35084e-06
1.59874e-05
-7.51237e-06
1.57746e-05
-7.65931e-06
1.55604e-05
-7.79117e-06
1.53454e-05
-7.90765e-06
1.51302e-05
-8.00868e-06
1.49154e-05
-8.09438e-06
1.47015e-05
-8.16509e-06
1.44889e-05
-8.22136e-06
1.42781e-05
-8.2638e-06
1.40691e-05
-8.29307e-06
1.38623e-05
-8.30986e-06
1.36578e-05
-8.31486e-06
1.34557e-05
-8.30872e-06
1.32562e-05
-8.29208e-06
1.30594e-05
-8.26556e-06
1.28654e-05
-8.22972e-06
1.26743e-05
-8.18512e-06
1.24862e-05
-8.13231e-06
1.23011e-05
-8.07185e-06
1.21191e-05
-8.00426e-06
1.19402e-05
-7.93006e-06
1.17644e-05
-7.8497e-06
1.15917e-05
-7.76361e-06
1.14221e-05
-7.67219e-06
1.12555e-05
-7.57579e-06
1.10921e-05
-7.47478e-06
1.09318e-05
-7.36947e-06
1.07746e-05
-7.26017e-06
1.06206e-05
-7.14719e-06
1.04698e-05
-7.0308e-06
1.03221e-05
-6.9113e-06
1.01776e-05
-6.78895e-06
1.00364e-05
-6.66403e-06
9.89852e-06
-6.53683e-06
9.76392e-06
-6.40761e-06
9.63268e-06
-6.27667e-06
9.50485e-06
-6.14429e-06
9.38046e-06
-6.01076e-06
9.25956e-06
-5.87641e-06
9.14221e-06
-5.74155e-06
9.02846e-06
-5.60652e-06
8.91834e-06
-5.47167e-06
8.81193e-06
-5.33736e-06
8.70927e-06
-5.20398e-06
8.61041e-06
-5.07196e-06
8.51541e-06
-4.9417e-06
8.42433e-06
-4.81369e-06
8.3372e-06
-4.6884e-06
8.25407e-06
-4.56634e-06
8.175e-06
-4.44809e-06
8.10001e-06
-4.33422e-06
8.02912e-06
-4.22538e-06
7.96235e-06
-4.12223e-06
7.89967e-06
-4.02552e-06
7.84105e-06
-3.93603e-06
7.78639e-06
-3.85459e-06
7.73552e-06
-3.78211e-06
7.68818e-06
-3.71954e-06
7.64398e-06
-3.66785e-06
7.60234e-06
-3.62801e-06
7.56241e-06
-3.60105e-06
-3.5882e-06
1.99977e-05
-5.42029e-08
1.99906e-05
-1.68508e-07
1.9979e-05
-2.88427e-07
1.9963e-05
-4.13371e-07
1.99428e-05
-5.43204e-07
1.99185e-05
-6.77947e-07
1.98901e-05
-8.17706e-07
1.98577e-05
-9.62635e-07
1.9821e-05
-1.11291e-06
1.978e-05
-1.2687e-06
1.97346e-05
-1.43019e-06
1.96845e-05
-1.59751e-06
1.96295e-05
-1.77078e-06
1.95696e-05
-1.9501e-06
1.95043e-05
-2.13551e-06
1.94336e-05
-2.327e-06
1.93571e-05
-2.52454e-06
1.92746e-05
-2.72801e-06
1.9186e-05
-2.93724e-06
1.9091e-05
-3.152e-06
1.89893e-05
-3.37196e-06
1.88809e-05
-3.59672e-06
1.87655e-05
-3.82579e-06
1.86431e-05
-4.05859e-06
1.85135e-05
-4.2944e-06
1.83767e-05
-4.53242e-06
1.82327e-05
-4.77175e-06
1.80815e-05
-5.01135e-06
1.79232e-05
-5.2501e-06
1.77581e-05
-5.48678e-06
1.75863e-05
-5.72007e-06
1.74082e-05
-5.94864e-06
1.72241e-05
-6.17107e-06
1.70344e-05
-6.38598e-06
1.68398e-05
-6.592e-06
1.66406e-05
-6.78785e-06
1.64376e-05
-6.97235e-06
1.62312e-05
-7.14445e-06
1.60221e-05
-7.30327e-06
1.58109e-05
-7.44811e-06
1.55982e-05
-7.57848e-06
1.53846e-05
-7.69408e-06
1.51707e-05
-7.7948e-06
1.49571e-05
-7.88075e-06
1.47442e-05
-7.95221e-06
1.45325e-05
-8.00963e-06
1.43223e-05
-8.05356e-06
1.41138e-05
-8.0846e-06
1.39073e-05
-8.10339e-06
1.3703e-05
-8.11057e-06
1.35011e-05
-8.10677e-06
1.33016e-05
-8.0926e-06
1.31047e-05
-8.06867e-06
1.29105e-05
-8.03553e-06
1.27191e-05
-7.99374e-06
1.25307e-05
-7.94384e-06
1.23452e-05
-7.88634e-06
1.21627e-05
-7.82178e-06
1.19832e-05
-7.75062e-06
1.18068e-05
-7.67332e-06
1.16335e-05
-7.5903e-06
1.14633e-05
-7.50196e-06
1.12962e-05
-7.40867e-06
1.11322e-05
-7.31076e-06
1.09713e-05
-7.20857e-06
1.08135e-05
-7.10241e-06
1.06589e-05
-6.99259e-06
1.05075e-05
-6.87938e-06
1.03593e-05
-6.76308e-06
1.02143e-05
-6.64397e-06
1.00726e-05
-6.52231e-06
9.93415e-06
-6.39841e-06
9.79906e-06
-6.27252e-06
9.66734e-06
-6.14495e-06
9.53903e-06
-6.01598e-06
9.41418e-06
-5.88591e-06
9.29282e-06
-5.75506e-06
9.17501e-06
-5.62374e-06
9.06079e-06
-5.4923e-06
8.95021e-06
-5.36108e-06
8.84331e-06
-5.23046e-06
8.74015e-06
-5.10082e-06
8.64076e-06
-4.97257e-06
8.54519e-06
-4.84613e-06
8.45348e-06
-4.72198e-06
8.36567e-06
-4.60059e-06
8.2818e-06
-4.48247e-06
8.20187e-06
-4.36817e-06
8.12592e-06
-4.25827e-06
8.05393e-06
-4.15339e-06
7.98588e-06
-4.05419e-06
7.92172e-06
-3.96137e-06
7.86137e-06
-3.87568e-06
7.80468e-06
-3.7979e-06
7.75144e-06
-3.72887e-06
7.70135e-06
-3.66944e-06
7.65398e-06
-3.62048e-06
7.60875e-06
-3.58278e-06
7.56487e-06
-3.55717e-06
-3.54377e-06
1.99979e-05
-5.20593e-08
1.99913e-05
-1.61957e-07
1.99804e-05
-2.77476e-07
1.99651e-05
-3.98111e-07
1.99456e-05
-5.23727e-07
1.9922e-05
-6.54316e-07
1.98942e-05
-7.89936e-07
1.98623e-05
-9.30693e-07
1.98261e-05
-1.07672e-06
1.97855e-05
-1.22816e-06
1.97405e-05
-1.38514e-06
1.96908e-05
-1.5478e-06
1.96362e-05
-1.71622e-06
1.95766e-05
-1.89049e-06
1.95117e-05
-2.07063e-06
1.94414e-05
-2.25665e-06
1.93653e-05
-2.44848e-06
1.92834e-05
-2.64604e-06
1.91953e-05
-2.84914e-06
1.91008e-05
-3.05756e-06
1.89999e-05
-3.27099e-06
1.88922e-05
-3.48906e-06
1.87777e-05
-3.71128e-06
1.86562e-05
-3.9371e-06
1.85276e-05
-4.16585e-06
1.8392e-05
-4.39677e-06
1.82492e-05
-4.629e-06
1.80994e-05
-4.86154e-06
1.79427e-05
-5.09335e-06
1.77792e-05
-5.32325e-06
1.76091e-05
-5.55e-06
1.74328e-05
-5.77231e-06
1.72505e-05
-5.98885e-06
1.70628e-05
-6.19828e-06
1.68701e-05
-6.3993e-06
1.6673e-05
-6.59066e-06
1.64718e-05
-6.77122e-06
1.62673e-05
-6.93996e-06
1.60601e-05
-7.09601e-06
1.58506e-05
-7.23868e-06
1.56396e-05
-7.36747e-06
1.54276e-05
-7.48206e-06
1.52151e-05
-7.58234e-06
1.50028e-05
-7.66838e-06
1.4791e-05
-7.7404e-06
1.45801e-05
-7.7988e-06
1.43706e-05
-7.84405e-06
1.41627e-05
-7.8767e-06
1.39567e-05
-7.89733e-06
1.37526e-05
-7.90656e-06
1.35508e-05
-7.90497e-06
1.33514e-05
-7.89317e-06
1.31545e-05
-7.87173e-06
1.29601e-05
-7.8412e-06
1.27685e-05
-7.80213e-06
1.25797e-05
-7.75504e-06
1.23938e-05
-7.70044e-06
1.22109e-05
-7.63883e-06
1.20309e-05
-7.57066e-06
1.1854e-05
-7.49638e-06
1.16801e-05
-7.41641e-06
1.15093e-05
-7.33114e-06
1.13415e-05
-7.24093e-06
1.11769e-05
-7.14613e-06
1.10154e-05
-7.04706e-06
1.0857e-05
-6.94405e-06
1.07018e-05
-6.83739e-06
1.05498e-05
-6.72737e-06
1.0401e-05
-6.61428e-06
1.02555e-05
-6.49841e-06
1.01132e-05
-6.38004e-06
9.97421e-06
-6.25944e-06
9.83858e-06
-6.1369e-06
9.70633e-06
-6.0127e-06
9.5775e-06
-5.88715e-06
9.45213e-06
-5.76054e-06
9.33026e-06
-5.63319e-06
9.21194e-06
-5.50541e-06
9.09719e-06
-5.37756e-06
8.98607e-06
-5.24996e-06
8.87862e-06
-5.12301e-06
8.77488e-06
-4.99707e-06
8.67487e-06
-4.87256e-06
8.57865e-06
-4.74991e-06
8.48623e-06
-4.62956e-06
8.39765e-06
-4.512e-06
8.31291e-06
-4.39773e-06
8.23203e-06
-4.28728e-06
8.15499e-06
-4.18123e-06
8.08176e-06
-4.08017e-06
8.01231e-06
-3.98473e-06
7.94654e-06
-3.8956e-06
7.88434e-06
-3.81347e-06
7.82553e-06
-3.73909e-06
7.76986e-06
-3.6732e-06
7.717e-06
-3.61658e-06
7.66651e-06
-3.56999e-06
7.61784e-06
-3.5341e-06
7.57028e-06
-3.50962e-06
-3.4961e-06
1.9998e-05
-5.00574e-08
1.99918e-05
-1.55791e-07
1.99814e-05
-2.67082e-07
1.99668e-05
-3.83503e-07
1.9948e-05
-5.04936e-07
1.99251e-05
-6.3136e-07
1.9898e-05
-7.62807e-07
1.98666e-05
-8.9935e-07
1.9831e-05
-1.04109e-06
1.97909e-05
-1.18813e-06
1.97464e-05
-1.34058e-06
1.96971e-05
-1.49855e-06
1.9643e-05
-1.66211e-06
1.95839e-05
-1.83133e-06
1.95195e-05
-2.00623e-06
1.94496e-05
-2.18679e-06
1.93741e-05
-2.37296e-06
1.92927e-05
-2.56464e-06
1.92052e-05
-2.76167e-06
1.91115e-05
-2.96382e-06
1.90113e-05
-3.1708e-06
1.89045e-05
-3.38225e-06
1.87909e-05
-3.59772e-06
1.86705e-05
-3.81667e-06
1.85431e-05
-4.03847e-06
1.84087e-05
-4.2624e-06
1.82674e-05
-4.48763e-06
1.81191e-05
-4.71324e-06
1.7964e-05
-4.93822e-06
1.78021e-05
-5.16144e-06
1.76339e-05
-5.38175e-06
1.74595e-05
-5.59789e-06
1.72792e-05
-5.80861e-06
1.70936e-05
-6.01261e-06
1.69029e-05
-6.20866e-06
1.67078e-05
-6.39553e-06
1.65087e-05
-6.57214e-06
1.63062e-05
-6.73747e-06
1.61009e-05
-6.89068e-06
1.58933e-05
-7.0311e-06
1.56841e-05
-7.15821e-06
1.54737e-05
-7.27168e-06
1.52627e-05
-7.37138e-06
1.50517e-05
-7.45734e-06
1.4841e-05
-7.52976e-06
1.46312e-05
-7.58895e-06
1.44225e-05
-7.63534e-06
1.42152e-05
-7.66942e-06
1.40096e-05
-7.69175e-06
1.38059e-05
-7.70288e-06
1.36043e-05
-7.70338e-06
1.3405e-05
-7.69383e-06
1.32081e-05
-7.67478e-06
1.30136e-05
-7.64677e-06
1.28218e-05
-7.61033e-06
1.26328e-05
-7.56597e-06
1.24465e-05
-7.51419e-06
1.22631e-05
-7.45545e-06
1.20827e-05
-7.39022e-06
1.19052e-05
-7.31892e-06
1.17308e-05
-7.24197e-06
1.15594e-05
-7.15973e-06
1.1391e-05
-7.07259e-06
1.12258e-05
-6.98088e-06
1.10637e-05
-6.88494e-06
1.09047e-05
-6.78506e-06
1.07489e-05
-6.68157e-06
1.05962e-05
-6.57474e-06
1.04468e-05
-6.46488e-06
1.03007e-05
-6.35226e-06
1.01578e-05
-6.23717e-06
1.00183e-05
-6.11988e-06
9.88206e-06
-6.00069e-06
9.74925e-06
-5.87989e-06
9.61986e-06
-5.75776e-06
9.49393e-06
-5.63461e-06
9.37149e-06
-5.51076e-06
9.2526e-06
-5.38652e-06
9.13727e-06
-5.26223e-06
9.02556e-06
-5.13825e-06
8.91749e-06
-5.01494e-06
8.8131e-06
-4.89268e-06
8.71241e-06
-4.77188e-06
8.61546e-06
-4.65295e-06
8.52225e-06
-4.53636e-06
8.4328e-06
-4.42255e-06
8.34711e-06
-4.31204e-06
8.26516e-06
-4.20534e-06
8.18694e-06
-4.103e-06
8.11239e-06
-4.00561e-06
8.04143e-06
-3.91378e-06
7.97397e-06
-3.82814e-06
7.90984e-06
-3.74935e-06
7.84886e-06
-3.6781e-06
7.79075e-06
-3.61509e-06
7.73518e-06
-3.56101e-06
7.68172e-06
-3.51653e-06
7.62983e-06
-3.48222e-06
7.57887e-06
-3.45866e-06
-3.44543e-06
1.99981e-05
-4.81667e-08
1.99923e-05
-1.4994e-07
1.99823e-05
-2.57164e-07
1.99683e-05
-3.69476e-07
1.99502e-05
-4.86782e-07
1.99279e-05
-6.09059e-07
1.99014e-05
-7.36325e-07
1.98707e-05
-8.68632e-07
1.98356e-05
-1.00605e-06
1.97962e-05
-1.14867e-06
1.97522e-05
-1.29658e-06
1.97035e-05
-1.44984e-06
1.96499e-05
-1.60854e-06
1.95913e-05
-1.77272e-06
1.95274e-05
-1.94238e-06
1.94582e-05
-2.11751e-06
1.93833e-05
-2.29806e-06
1.93025e-05
-2.48392e-06
1.92158e-05
-2.67493e-06
1.91228e-05
-2.87088e-06
1.90235e-05
-3.07149e-06
1.89177e-05
-3.27641e-06
1.88052e-05
-3.48522e-06
1.86859e-05
-3.6974e-06
1.85598e-05
-3.91236e-06
1.84268e-05
-4.1294e-06
1.82869e-05
-4.34776e-06
1.81402e-05
-4.56654e-06
1.79868e-05
-4.78479e-06
1.78268e-05
-5.00145e-06
1.76605e-05
-5.2154e-06
1.7488e-05
-5.42547e-06
1.73099e-05
-5.63042e-06
1.71263e-05
-5.82905e-06
1.69378e-05
-6.02014e-06
1.67448e-05
-6.20254e-06
1.65478e-05
-6.37516e-06
1.63474e-05
-6.53705e-06
1.61441e-05
-6.68738e-06
1.59384e-05
-6.82545e-06
1.5731e-05
-6.95077e-06
1.55223e-05
-7.063e-06
1.53129e-05
-7.16198e-06
1.51033e-05
-7.24771e-06
1.48939e-05
-7.32033e-06
1.4685e-05
-7.38013e-06
1.44772e-05
-7.42749e-06
1.42706e-05
-7.46285e-06
1.40656e-05
-7.48671e-06
1.38623e-05
-7.4996e-06
1.3661e-05
-7.50207e-06
1.34618e-05
-7.49465e-06
1.32649e-05
-7.47788e-06
1.30704e-05
-7.45229e-06
1.28785e-05
-7.41839e-06
1.26892e-05
-7.37668e-06
1.25026e-05
-7.32762e-06
1.23189e-05
-7.2717e-06
1.2138e-05
-7.20934e-06
1.19601e-05
-7.14097e-06
1.17851e-05
-7.06699e-06
1.16131e-05
-6.98777e-06
1.14442e-05
-6.90367e-06
1.12784e-05
-6.81504e-06
1.11156e-05
-6.7222e-06
1.0956e-05
-6.62546e-06
1.07996e-05
-6.52513e-06
1.06463e-05
-6.4215e-06
1.04963e-05
-6.31486e-06
1.03495e-05
-6.2055e-06
1.02061e-05
-6.09369e-06
1.00659e-05
-5.97973e-06
9.9291e-06
-5.86389e-06
9.79569e-06
-5.74647e-06
9.6657e-06
-5.62777e-06
9.53917e-06
-5.50808e-06
9.41613e-06
-5.38772e-06
9.29662e-06
-5.26701e-06
9.18067e-06
-5.14628e-06
9.06831e-06
-5.02589e-06
8.95957e-06
-4.9062e-06
8.85447e-06
-4.78758e-06
8.75304e-06
-4.67044e-06
8.65528e-06
-4.5552e-06
8.56121e-06
-4.44228e-06
8.47082e-06
-4.33216e-06
8.3841e-06
-4.22532e-06
8.30102e-06
-4.12226e-06
8.22154e-06
-4.02352e-06
8.14558e-06
-3.92966e-06
8.07305e-06
-3.84125e-06
8.00384e-06
-3.75892e-06
7.93775e-06
-3.68327e-06
7.87459e-06
-3.61494e-06
7.81408e-06
-3.55458e-06
7.75589e-06
-3.50282e-06
7.6996e-06
-3.46024e-06
7.64473e-06
-3.42735e-06
7.59067e-06
-3.40461e-06
-3.39191e-06
1.99982e-05
-4.6366e-08
1.99926e-05
-1.44351e-07
1.99831e-05
-2.47654e-07
1.99696e-05
-3.55965e-07
1.9952e-05
-4.69213e-07
1.99303e-05
-5.87381e-07
1.99045e-05
-7.10482e-07
1.98744e-05
-8.38553e-07
1.984e-05
-9.71648e-07
1.98012e-05
-1.10983e-06
1.97578e-05
-1.25318e-06
1.97097e-05
-1.40174e-06
1.96567e-05
-1.55558e-06
1.95987e-05
-1.71472e-06
1.95355e-05
-1.87917e-06
1.94669e-05
-2.04891e-06
1.93927e-05
-2.22387e-06
1.93128e-05
-2.40395e-06
1.92268e-05
-2.58901e-06
1.91348e-05
-2.77882e-06
1.90364e-05
-2.97314e-06
1.89316e-05
-3.17162e-06
1.88203e-05
-3.37386e-06
1.87022e-05
-3.57937e-06
1.85775e-05
-3.78759e-06
1.84459e-05
-3.99787e-06
1.83076e-05
-4.20946e-06
1.81626e-05
-4.42153e-06
1.8011e-05
-4.63316e-06
1.78529e-05
-4.84335e-06
1.76885e-05
-5.05104e-06
1.75181e-05
-5.25509e-06
1.73421e-05
-5.45435e-06
1.71607e-05
-5.64764e-06
1.69743e-05
-5.83381e-06
1.67835e-05
-6.01173e-06
1.65887e-05
-6.18036e-06
1.63904e-05
-6.33877e-06
1.61892e-05
-6.48613e-06
1.59855e-05
-6.62178e-06
1.57799e-05
-6.74521e-06
1.5573e-05
-6.85607e-06
1.53652e-05
-6.95418e-06
1.5157e-05
-7.03952e-06
1.49489e-05
-7.11219e-06
1.47412e-05
-7.17243e-06
1.45343e-05
-7.22059e-06
1.43285e-05
-7.25705e-06
1.41241e-05
-7.28229e-06
1.39213e-05
-7.2968e-06
1.37203e-05
-7.30109e-06
1.35213e-05
-7.29568e-06
1.33245e-05
-7.28109e-06
1.31301e-05
-7.25781e-06
1.2938e-05
-7.22636e-06
1.27486e-05
-7.1872e-06
1.25617e-05
-7.1408e-06
1.23777e-05
-7.08762e-06
1.21964e-05
-7.02807e-06
1.2018e-05
-6.96258e-06
1.18425e-05
-6.89152e-06
1.167e-05
-6.81527e-06
1.15005e-05
-6.73419e-06
1.13341e-05
-6.64861e-06
1.11708e-05
-6.55886e-06
1.10106e-05
-6.46525e-06
1.08535e-05
-6.36807e-06
1.06996e-05
-6.26763e-06
1.0549e-05
-6.16422e-06
1.04016e-05
-6.05811e-06
1.02575e-05
-5.94959e-06
1.01167e-05
-5.83895e-06
9.9793e-06
-5.72647e-06
9.84526e-06
-5.61244e-06
9.71465e-06
-5.49715e-06
9.58748e-06
-5.38092e-06
9.46381e-06
-5.26404e-06
9.34364e-06
-5.14684e-06
9.22703e-06
-5.02966e-06
9.11397e-06
-4.91284e-06
9.00451e-06
-4.79674e-06
8.89866e-06
-4.68173e-06
8.79642e-06
-4.56821e-06
8.69781e-06
-4.45658e-06
8.60281e-06
-4.34729e-06
8.51143e-06
-4.24077e-06
8.42362e-06
-4.13751e-06
8.33934e-06
-4.03799e-06
8.25854e-06
-3.94272e-06
8.18113e-06
-3.85225e-06
8.107e-06
-3.76712e-06
8.036e-06
-3.68792e-06
7.96796e-06
-3.61523e-06
7.90265e-06
-3.54963e-06
7.83979e-06
-3.49173e-06
7.77907e-06
-3.44209e-06
7.72009e-06
-3.40126e-06
7.66242e-06
-3.36968e-06
7.60557e-06
-3.34775e-06
-3.33585e-06
1.99983e-05
-4.46402e-08
1.99929e-05
-1.38986e-07
1.99838e-05
-2.38499e-07
1.99707e-05
-3.42914e-07
1.99537e-05
-4.52182e-07
1.99326e-05
-5.66293e-07
1.99074e-05
-6.85259e-07
1.98779e-05
-8.0911e-07
1.98442e-05
-9.37888e-07
1.9806e-05
-1.07164e-06
1.97632e-05
-1.21043e-06
1.97158e-05
-1.3543e-06
1.96635e-05
-1.50328e-06
1.96062e-05
-1.65741e-06
1.95437e-05
-1.81667e-06
1.94758e-05
-1.98105e-06
1.94024e-05
-2.15046e-06
1.93233e-05
-2.32482e-06
1.92383e-05
-2.50398e-06
1.91472e-05
-2.68774e-06
1.90499e-05
-2.87583e-06
1.89462e-05
-3.06796e-06
1.88361e-05
-3.26372e-06
1.87194e-05
-3.46267e-06
1.8596e-05
-3.66426e-06
1.8466e-05
-3.86787e-06
1.83294e-05
-4.0728e-06
1.81861e-05
-4.27826e-06
1.80363e-05
-4.48337e-06
1.78802e-05
-4.68719e-06
1.77178e-05
-4.8887e-06
1.75495e-05
-5.08682e-06
1.73756e-05
-5.28044e-06
1.71964e-05
-5.46843e-06
1.70123e-05
-5.64969e-06
1.68237e-05
-5.82313e-06
1.66311e-05
-5.98775e-06
1.6435e-05
-6.14263e-06
1.62358e-05
-6.28698e-06
1.60342e-05
-6.42012e-06
1.58305e-05
-6.54156e-06
1.56254e-05
-6.65093e-06
1.54192e-05
-6.74803e-06
1.52125e-05
-6.83282e-06
1.50057e-05
-6.90538e-06
1.47992e-05
-6.9659e-06
1.45933e-05
-7.01468e-06
1.43883e-05
-7.0521e-06
1.41846e-05
-7.07856e-06
1.39823e-05
-7.09455e-06
1.37818e-05
-7.10053e-06
1.35831e-05
-7.097e-06
1.33865e-05
-7.08446e-06
1.3192e-05
-7.0634e-06
1.3e-05
-7.03429e-06
1.28104e-05
-6.9976e-06
1.26233e-05
-6.95377e-06
1.2439e-05
-6.90325e-06
1.22574e-05
-6.84645e-06
1.20785e-05
-6.78377e-06
1.19026e-05
-6.71559e-06
1.17296e-05
-6.64228e-06
1.15596e-05
-6.56418e-06
1.13926e-05
-6.48163e-06
1.12287e-05
-6.39495e-06
1.10679e-05
-6.30444e-06
1.09103e-05
-6.21041e-06
1.07558e-05
-6.11315e-06
1.06045e-05
-6.01295e-06
1.04565e-05
-5.91009e-06
1.03118e-05
-5.80486e-06
1.01703e-05
-5.69753e-06
1.00323e-05
-5.5884e-06
9.8976e-06
-5.47776e-06
9.76634e-06
-5.36589e-06
9.63852e-06
-5.2531e-06
9.51418e-06
-5.13969e-06
9.39333e-06
-5.026e-06
9.27601e-06
-4.91234e-06
9.16223e-06
-4.79906e-06
9.052e-06
-4.68651e-06
8.94535e-06
-4.57507e-06
8.84226e-06
-4.46512e-06
8.74275e-06
-4.35707e-06
8.64678e-06
-4.25133e-06
8.55435e-06
-4.14834e-06
8.4654e-06
-4.04856e-06
8.37989e-06
-3.95247e-06