/*--------------------------------*- C++ -*----------------------------------*\
  =========                 |
  \\      /  F ield         | OpenFOAM: The Open Source CFD Toolbox
   \\    /   O peration     | Website:  https://openfoam.org
    \\  /    A nd           | Version:  11
     \\/     M anipulation  |
\*---------------------------------------------------------------------------*/
FoamFile
{
    format      ascii;
    class       volScalarField;
    location    "194";
    object      omega;
}
// * * * * * * * * * * * * * * * * * * * * * * * * * * * * * * * * * * * * * //

dimensions      [0 0 -1 0 0 0 0];

internalField   nonuniform List<scalar> 
10000
(
0.9617
0.892202
0.829106
0.771747
0.719532
0.671937
0.628492
0.588779
0.552427
0.519103
0.48851
0.460383
0.434485
0.410604
0.388549
0.36815
0.349252
0.331717
0.315422
0.300253
0.28611
0.272899
0.260538
0.248952
0.238071
0.227832
0.21818
0.209063
0.200435
0.192253
0.18448
0.177085
0.170037
0.163313
0.156893
0.15076
0.144901
0.139307
0.13397
0.128887
0.124053
0.119466
0.115123
0.111023
0.107161
0.103534
0.100135
0.0969588
0.0939973
0.0912423
0.0886845
0.0863139
0.08412
0.0820922
0.08022
0.0784928
0.0769007
0.0754341
0.074084
0.0728416
0.0716988
0.0706481
0.0696822
0.0687946
0.067979
0.0672299
0.0665418
0.0659101
0.06533
0.0647976
0.064309
0.0638607
0.0634494
0.0630722
0.0627263
0.0624092
0.0621186
0.0618523
0.0616083
0.061385
0.0611805
0.0609933
0.0608222
0.0606658
0.0605229
0.0603926
0.0602738
0.0601657
0.0600676
0.0599787
0.0598985
0.0598265
0.0597623
0.0597056
0.0596563
0.0596143
0.0595798
0.0595528
0.0595339
0.0595235
0.9617
0.892202
0.829107
0.771748
0.719534
0.671939
0.628494
0.588781
0.552429
0.519105
0.488512
0.460385
0.434488
0.410607
0.388552
0.368152
0.349255
0.33172
0.315425
0.300257
0.286113
0.272903
0.260542
0.248956
0.238075
0.227837
0.218186
0.209069
0.200441
0.19226
0.184488
0.177093
0.170046
0.163324
0.156904
0.150772
0.144914
0.139321
0.133985
0.128902
0.124069
0.119482
0.11514
0.11104
0.107178
0.103551
0.100152
0.0969757
0.0940141
0.0912587
0.0887003
0.0863289
0.0841341
0.0821054
0.0802321
0.078504
0.0769112
0.0754439
0.0740931
0.0728501
0.0717068
0.0706555
0.0696891
0.068801
0.067985
0.0672354
0.066547
0.0659149
0.0653345
0.0648018
0.0643129
0.0638643
0.0634527
0.0630753
0.0627291
0.0624118
0.062121
0.0618545
0.0616104
0.0613868
0.0611822
0.0609949
0.0608236
0.0606671
0.0605241
0.0603937
0.0602748
0.0601666
0.0600684
0.0599794
0.0598992
0.0598271
0.0597629
0.0597062
0.0596568
0.0596148
0.0595802
0.0595532
0.0595343
0.0595239
0.9617
0.892203
0.829108
0.77175
0.719536
0.671942
0.628497
0.588785
0.552433
0.519109
0.488516
0.46039
0.434492
0.410611
0.388557
0.368157
0.349259
0.331725
0.31543
0.300262
0.286119
0.272909
0.260548
0.248963
0.238082
0.227845
0.218194
0.209078
0.200451
0.192271
0.184501
0.177107
0.170062
0.16334
0.156922
0.150792
0.144935
0.139343
0.134009
0.128927
0.124094
0.119508
0.115167
0.111067
0.107205
0.103578
0.100179
0.0970023
0.0940402
0.0912842
0.0887249
0.0863524
0.0841564
0.0821263
0.0802518
0.0785225
0.0769284
0.07546
0.0741082
0.0728641
0.0717199
0.0706676
0.0697004
0.0688115
0.0679947
0.0672444
0.0665553
0.0659226
0.0653416
0.0648083
0.0643189
0.0638698
0.0634579
0.06308
0.0627335
0.0624158
0.0621246
0.0618578
0.0616134
0.0613896
0.0611847
0.0609973
0.0608258
0.0606691
0.0605259
0.0603953
0.0602763
0.060168
0.0600696
0.0599806
0.0599002
0.0598281
0.0597638
0.059707
0.0596577
0.0596156
0.059581
0.059554
0.0595351
0.0595247
0.9617
0.892204
0.829109
0.771752
0.719539
0.671945
0.628501
0.588789
0.552438
0.519114
0.488522
0.460395
0.434498
0.410617
0.388563
0.368164
0.349266
0.331732
0.315438
0.30027
0.286127
0.272917
0.260557
0.248972
0.238092
0.227856
0.218206
0.209091
0.200466
0.192287
0.184518
0.177126
0.170083
0.163363
0.156947
0.150819
0.144964
0.139374
0.134042
0.128961
0.12413
0.119545
0.115204
0.111104
0.107243
0.103615
0.100216
0.0970386
0.0940757
0.0913186
0.0887581
0.0863841
0.0841866
0.0821549
0.0802787
0.0785478
0.0769522
0.0754822
0.0741289
0.0728835
0.0717378
0.0706844
0.0697159
0.0688259
0.0680081
0.0672568
0.0665668
0.0659331
0.0653514
0.0648173
0.0643272
0.0638775
0.0634649
0.0630864
0.0627394
0.0624212
0.0621296
0.0618624
0.0616176
0.0613934
0.0611882
0.0610004
0.0608287
0.0606717
0.0605284
0.0603975
0.0602783
0.0601699
0.0600714
0.0599822
0.0599017
0.0598295
0.0597651
0.0597083
0.0596589
0.0596168
0.0595821
0.0595551
0.0595362
0.0595258
0.9617
0.892204
0.82911
0.771754
0.719542
0.671948
0.628505
0.588794
0.552443
0.51912
0.488528
0.460402
0.434505
0.410625
0.388571
0.368172
0.349275
0.331741
0.315447
0.300279
0.286137
0.272928
0.260569
0.248984
0.238105
0.22787
0.218221
0.209108
0.200484
0.192307
0.18454
0.17715
0.170109
0.163392
0.156979
0.150853
0.145001
0.139413
0.134083
0.129004
0.124175
0.119591
0.115251
0.111152
0.10729
0.103662
0.100262
0.0970841
0.09412
0.0913615
0.0887994
0.0864237
0.0842242
0.0821906
0.0803125
0.0785796
0.076982
0.0755102
0.074155
0.0729079
0.0717606
0.0707055
0.0697356
0.0688441
0.0680249
0.0672724
0.0665812
0.0659465
0.0653637
0.0648287
0.0643377
0.0638871
0.0634737
0.0630946
0.0627468
0.0624281
0.0621359
0.0618681
0.0616228
0.0613982
0.0611926
0.0610044
0.0608324
0.0606751
0.0605314
0.0604003
0.0602809
0.0601722
0.0600736
0.0599842
0.0599036
0.0598313
0.0597668
0.0597099
0.0596604
0.0596183
0.0595836
0.0595566
0.0595376
0.0595272
0.9617
0.892204
0.829111
0.771755
0.719544
0.671952
0.628509
0.588799
0.552449
0.519126
0.488535
0.46041
0.434513
0.410634
0.38858
0.368181
0.349285
0.331752
0.315458
0.300291
0.286149
0.272941
0.260582
0.248999
0.238121
0.227887
0.21824
0.209129
0.200506
0.192331
0.184567
0.17718
0.170141
0.163427
0.157017
0.150894
0.145045
0.13946
0.134132
0.129056
0.124228
0.119645
0.115306
0.111207
0.107346
0.103718
0.100317
0.0971378
0.0941723
0.0914122
0.0888481
0.0864704
0.0842687
0.0822328
0.0803524
0.0786172
0.0770173
0.0755433
0.074186
0.0729368
0.0717875
0.0707306
0.0697589
0.0688657
0.068045
0.067291
0.0665984
0.0659623
0.0653783
0.0648422
0.0643501
0.0638985
0.0634842
0.0631042
0.0627557
0.0624362
0.0621433
0.0618749
0.0616291
0.0614039
0.0611978
0.0610092
0.0608367
0.060679
0.0605351
0.0604037
0.060284
0.0601751
0.0600762
0.0599866
0.0599059
0.0598334
0.0597688
0.0597119
0.0596623
0.0596201
0.0595854
0.0595584
0.0595394
0.059529
0.9617
0.892204
0.829112
0.771756
0.719546
0.671955
0.628513
0.588804
0.552454
0.519133
0.488542
0.460418
0.434522
0.410643
0.38859
0.368192
0.349296
0.331763
0.31547
0.300304
0.286163
0.272955
0.260598
0.249016
0.238139
0.227907
0.218262
0.209152
0.200532
0.19236
0.184598
0.177214
0.170178
0.163468
0.157061
0.150941
0.145095
0.139513
0.134188
0.129114
0.124288
0.119708
0.115369
0.111271
0.10741
0.103781
0.10038
0.0971989
0.0942318
0.0914697
0.0889035
0.0865234
0.0843192
0.0822808
0.0803977
0.07866
0.0770576
0.075581
0.0742213
0.0729698
0.0718183
0.0707593
0.0697855
0.0688905
0.068068
0.0673122
0.066618
0.0659805
0.0653951
0.0648576
0.0643643
0.0639116
0.0634963
0.0631153
0.0627658
0.0624455
0.0621518
0.0618827
0.0616362
0.0614104
0.0612038
0.0610146
0.0608417
0.0606836
0.0605392
0.0604075
0.0602875
0.0601783
0.0600792
0.0599895
0.0599085
0.0598359
0.0597712
0.0597141
0.0596645
0.0596223
0.0595875
0.0595605
0.0595415
0.059531
0.9617
0.892204
0.829112
0.771757
0.719548
0.671957
0.628517
0.588808
0.55246
0.519139
0.488549
0.460426
0.434531
0.410652
0.3886
0.368203
0.349307
0.331776
0.315483
0.300318
0.286178
0.272971
0.260616
0.249035
0.23816
0.227929
0.218286
0.209179
0.200561
0.192392
0.184633
0.177252
0.17022
0.163513
0.15711
0.150993
0.145151
0.139573
0.134251
0.12918
0.124356
0.119777
0.11544
0.111342
0.107481
0.103851
0.100449
0.0972666
0.0942976
0.0915334
0.0889648
0.086582
0.0843752
0.0823339
0.080448
0.0787074
0.0771022
0.0756229
0.0742606
0.0730065
0.0718525
0.0707911
0.0698152
0.068918
0.0680935
0.0673359
0.0666399
0.0660007
0.0654137
0.0648748
0.0643802
0.0639262
0.0635097
0.0631276
0.0627771
0.0624558
0.0621613
0.0618914
0.0616441
0.0614177
0.0612104
0.0610207
0.0608472
0.0606887
0.0605439
0.0604118
0.0602914
0.060182
0.0600826
0.0599926
0.0599115
0.0598387
0.0597739
0.0597167
0.059667
0.0596247
0.0595899
0.0595628
0.0595438
0.0595332
0.9617
0.892204
0.829112
0.771758
0.719549
0.671959
0.62852
0.588812
0.552465
0.519145
0.488556
0.460434
0.434539
0.410662
0.38861
0.368214
0.34932
0.331789
0.315497
0.300333
0.286194
0.272989
0.260635
0.249055
0.238182
0.227954
0.218312
0.209208
0.200593
0.192426
0.184671
0.177294
0.170266
0.163562
0.157163
0.151051
0.145212
0.139637
0.134319
0.12925
0.124429
0.119852
0.115516
0.111419
0.107557
0.103927
0.100524
0.09734
0.094369
0.0916024
0.0890312
0.0866457
0.0844359
0.0823916
0.0805026
0.0787589
0.0771507
0.0756685
0.0743032
0.0730464
0.0718897
0.0708258
0.0698474
0.068948
0.0681213
0.0673617
0.0666638
0.0660228
0.0654341
0.0648936
0.0643975
0.0639421
0.0635243
0.063141
0.0627895
0.0624671
0.0621716
0.0619009
0.0616528
0.0614256
0.0612176
0.0610273
0.0608533
0.0606942
0.060549
0.0604165
0.0602958
0.0601859
0.0600863
0.0599961
0.0599148
0.0598418
0.0597768
0.0597195
0.0596697
0.0596274
0.0595925
0.0595654
0.0595463
0.0595357
0.9617
0.892204
0.829112
0.771758
0.71955
0.671961
0.628522
0.588816
0.552469
0.519151
0.488563
0.460441
0.434548
0.410671
0.388621
0.368225
0.349332
0.331802
0.315512
0.300349
0.286211
0.273008
0.260655
0.249077
0.238206
0.22798
0.218341
0.209239
0.200627
0.192464
0.184712
0.177339
0.170315
0.163615
0.15722
0.151112
0.145278
0.139707
0.134391
0.129326
0.124507
0.119932
0.115597
0.111501
0.107639
0.104009
0.100604
0.0974184
0.0944453
0.0916762
0.0891022
0.0867137
0.0845007
0.0824532
0.080561
0.078814
0.0772026
0.0757172
0.0743489
0.0730891
0.0719297
0.070863
0.0698821
0.0689802
0.0681512
0.0673893
0.0666894
0.0660464
0.065456
0.0649138
0.0644161
0.0639592
0.06354
0.0631554
0.0628027
0.0624793
0.0621828
0.061911
0.0616621
0.0614341
0.0612254
0.0610344
0.0608598
0.0607002
0.0605545
0.0604215
0.0603004
0.0601902
0.0600903
0.0599998
0.0599183
0.0598451
0.05978
0.0597226
0.0596727
0.0596302
0.0595953
0.0595681
0.059549
0.0595384
0.961699
0.892204
0.829112
0.771758
0.719551
0.671962
0.628524
0.588819
0.552473
0.519156
0.488569
0.460448
0.434556
0.410681
0.388631
0.368237
0.349345
0.331816
0.315527
0.300365
0.286229
0.273027
0.260676
0.249101
0.238232
0.228008
0.218372
0.209273
0.200664
0.192504
0.184756
0.177387
0.170367
0.163672
0.157281
0.151178
0.145347
0.13978
0.134469
0.129406
0.12459
0.120017
0.115683
0.111587
0.107726
0.104094
0.100688
0.0975011
0.0945258
0.0917541
0.0891771
0.0867855
0.0845692
0.0825183
0.0806227
0.0788723
0.0772575
0.0757688
0.0743973
0.0731343
0.0719719
0.0709024
0.0699187
0.0690143
0.0681828
0.0674187
0.0667166
0.0660716
0.0654792
0.0649352
0.0644358
0.0639774
0.0635567
0.0631708
0.0628168
0.0624922
0.0621946
0.0619219
0.061672
0.0614432
0.0612337
0.061042
0.0608667
0.0607065
0.0605603
0.0604269
0.0603053
0.0601948
0.0600945
0.0600038
0.059922
0.0598487
0.0597834
0.0597258
0.0596758
0.0596333
0.0595983
0.059571
0.0595519
0.0595413
0.961699
0.892204
0.829112
0.771758
0.719551
0.671963
0.628526
0.588821
0.552477
0.51916
0.488574
0.460455
0.434564
0.41069
0.388641
0.368248
0.349357
0.33183
0.315543
0.300382
0.286248
0.273048
0.260698
0.249125
0.238258
0.228037
0.218404
0.209308
0.200703
0.192547
0.184802
0.177437
0.170422
0.163731
0.157345
0.151246
0.14542
0.139857
0.134549
0.12949
0.124677
0.120105
0.115773
0.111678
0.107816
0.104184
0.100777
0.0975875
0.0946098
0.0918354
0.0892554
0.0868605
0.0846408
0.0825864
0.0806872
0.0789332
0.0773149
0.0758228
0.0744479
0.0731817
0.0720162
0.0709437
0.0699572
0.06905
0.068216
0.0674494
0.0667451
0.0660979
0.0655035
0.0649576
0.0644565
0.0639964
0.0635742
0.0631869
0.0628315
0.0625057
0.062207
0.0619332
0.0616824
0.0614527
0.0612424
0.06105
0.060874
0.0607132
0.0605664
0.0604325
0.0603105
0.0601996
0.060099
0.060008
0.0599259
0.0598524
0.0597869
0.0597292
0.0596791
0.0596364
0.0596014
0.0595741
0.0595549
0.0595443
0.961699
0.892203
0.829112
0.771758
0.719551
0.671964
0.628527
0.588823
0.55248
0.519164
0.488579
0.460461
0.434571
0.410698
0.388651
0.368259
0.34937
0.331844
0.315558
0.300399
0.286267
0.273068
0.260721
0.24915
0.238286
0.228067
0.218437
0.209344
0.200743
0.192591
0.184851
0.177489
0.170479
0.163793
0.157412
0.151317
0.145496
0.139937
0.134633
0.129577
0.124766
0.120197
0.115866
0.111771
0.10791
0.104277
0.100868
0.097677
0.0946969
0.0919196
0.0893365
0.0869382
0.084715
0.082657
0.0807541
0.0789965
0.0773745
0.0758788
0.0745005
0.0732309
0.0720622
0.0709866
0.0699971
0.0690872
0.0682505
0.0674815
0.0667747
0.0661253
0.0655288
0.064981
0.064478
0.0640163
0.0635925
0.0632036
0.0628469
0.0625198
0.0622199
0.061945
0.0616932
0.0614626
0.0612514
0.0610582
0.0608816
0.0607202
0.0605728
0.0604384
0.0603159
0.0602046
0.0601037
0.0600123
0.05993
0.0598562
0.0597906
0.0597327
0.0596824
0.0596397
0.0596046
0.0595772
0.059558
0.0595474
0.961699
0.892203
0.829111
0.771758
0.719551
0.671964
0.628528
0.588825
0.552482
0.519168
0.488584
0.460467
0.434578
0.410706
0.388661
0.36827
0.349382
0.331858
0.315573
0.300416
0.286286
0.273089
0.260744
0.249175
0.238314
0.228098
0.218471
0.209382
0.200784
0.192636
0.1849
0.177544
0.170537
0.163856
0.15748
0.15139
0.145574
0.140019
0.134719
0.129667
0.124858
0.120291
0.115962
0.111868
0.108006
0.104372
0.100962
0.097769
0.0947864
0.0920062
0.0894199
0.0870182
0.0847914
0.0827296
0.0808229
0.0790616
0.0774359
0.0759365
0.0745546
0.0732817
0.0721096
0.0710309
0.0700384
0.0691255
0.0682861
0.0675145
0.0668053
0.0661537
0.065555
0.0650052
0.0645003
0.0640367
0.0636113
0.0632209
0.0628628
0.0625344
0.0622332
0.0619572
0.0617044
0.0614728
0.0612608
0.0610668
0.0608894
0.0607273
0.0605794
0.0604444
0.0603215
0.0602098
0.0601085
0.0600168
0.0599342
0.0598602
0.0597944
0.0597363
0.0596859
0.0596431
0.0596079
0.0595805
0.0595612
0.0595505
0.961699
0.892203
0.829111
0.771758
0.719551
0.671965
0.628529
0.588826
0.552485
0.519171
0.488588
0.460472
0.434585
0.410714
0.38867
0.368281
0.349394
0.331871
0.315589
0.300433
0.286305
0.27311
0.260768
0.249201
0.238343
0.22813
0.218506
0.20942
0.200826
0.192682
0.184951
0.177599
0.170597
0.163921
0.15755
0.151465
0.145653
0.140103
0.134807
0.129758
0.124953
0.120387
0.116059
0.111966
0.108104
0.10447
0.101058
0.0978629
0.0948778
0.0920947
0.0895052
0.0870999
0.0848695
0.0828039
0.0808934
0.0791282
0.0774987
0.0759956
0.0746101
0.0733336
0.0721582
0.0710762
0.0700806
0.0691648
0.0683227
0.0675484
0.0668367
0.0661827
0.0655818
0.0650299
0.0645231
0.0640578
0.0636306
0.0632387
0.0628791
0.0625493
0.0622469
0.0619698
0.0617158
0.0614833
0.0612704
0.0610756
0.0608974
0.0607347
0.0605861
0.0604506
0.0603273
0.0602151
0.0601134
0.0600214
0.0599386
0.0598643
0.0597982
0.05974
0.0596895
0.0596465
0.0596112
0.0595837
0.0595644
0.0595537
0.961699
0.892202
0.82911
0.771757
0.719551
0.671965
0.62853
0.588828
0.552486
0.519173
0.488592
0.460477
0.434591
0.410721
0.388678
0.368291
0.349406
0.331885
0.315604
0.30045
0.286324
0.273132
0.260791
0.249228
0.238372
0.228162
0.218542
0.209459
0.200869
0.192729
0.185002
0.177655
0.170659
0.163988
0.157621
0.151541
0.145734
0.140188
0.134896
0.129851
0.125048
0.120485
0.116158
0.112066
0.108204
0.104569
0.101155
0.0979583
0.0949707
0.0921847
0.0895918
0.0871831
0.0849488
0.0828795
0.0809651
0.079196
0.0775626
0.0760558
0.0746666
0.0733866
0.0722077
0.0711224
0.0701237
0.0692049
0.0683599
0.0675829
0.0668687
0.0662123
0.0656092
0.0650552
0.0645464
0.0640792
0.0636504
0.0632568
0.0628957
0.0625646
0.0622609
0.0619826
0.0617275
0.061494
0.0612801
0.0610845
0.0609056
0.0607422
0.060593
0.060457
0.0603331
0.0602205
0.0601184
0.0600261
0.059943
0.0598684
0.0598022
0.0597438
0.0596931
0.05965
0.0596146
0.059587
0.0595676
0.0595569
0.961699
0.892202
0.82911
0.771757
0.719551
0.671965
0.62853
0.588829
0.552488
0.519176
0.488595
0.460481
0.434596
0.410728
0.388686
0.3683
0.349417
0.331898
0.315618
0.300467
0.286342
0.273153
0.260815
0.249254
0.238401
0.228194
0.218577
0.209499
0.200913
0.192777
0.185055
0.177712
0.17072
0.164054
0.157693
0.151618
0.145815
0.140274
0.134986
0.129944
0.125144
0.120584
0.116258
0.112166
0.108304
0.104668
0.101254
0.0980547
0.0950645
0.0922756
0.0896794
0.0872671
0.0850292
0.0829559
0.0810377
0.0792646
0.0776274
0.0761168
0.0747239
0.0734402
0.0722579
0.0711693
0.0701674
0.0692456
0.0683977
0.067618
0.0669012
0.0662424
0.065637
0.0650809
0.0645701
0.064101
0.0636704
0.0632752
0.0629126
0.0625801
0.0622751
0.0619956
0.0617394
0.0615048
0.0612901
0.0610936
0.060914
0.0607498
0.0606
0.0604634
0.060339
0.060226
0.0601235
0.0600308
0.0599474
0.0598726
0.0598061
0.0597475
0.0596967
0.0596535
0.059618
0.0595903
0.0595709
0.0595601
0.961698
0.892202
0.829109
0.771756
0.71955
0.671964
0.62853
0.588829
0.552489
0.519178
0.488598
0.460485
0.434601
0.410735
0.388694
0.36831
0.349428
0.33191
0.315633
0.300484
0.286361
0.273174
0.260838
0.24928
0.23843
0.228227
0.218613
0.209538
0.200956
0.192825
0.185107
0.177769
0.170782
0.164121
0.157765
0.151695
0.145897
0.140361
0.135076
0.130038
0.125241
0.120683
0.116359
0.112268
0.108406
0.104769
0.101353
0.0981517
0.095159
0.0923671
0.0897676
0.0873518
0.0851101
0.083033
0.0811108
0.0793339
0.0776928
0.0761783
0.0747816
0.0734944
0.0723086
0.0712166
0.0702115
0.0692867
0.0684359
0.0676535
0.0669341
0.0662728
0.0656651
0.0651068
0.064594
0.064123
0.0636907
0.0632938
0.0629297
0.0625957
0.0622894
0.0620087
0.0617514
0.0615158
0.0613001
0.0611028
0.0609223
0.0607575
0.060607
0.0604699
0.060345
0.0602315
0.0601286
0.0600356
0.0599518
0.0598768
0.0598101
0.0597513
0.0597003
0.059657
0.0596214
0.0595936
0.0595741
0.0595633
0.961698
0.892201
0.829109
0.771756
0.71955
0.671964
0.62853
0.58883
0.552491
0.51918
0.488601
0.460489
0.434606
0.410741
0.388702
0.368319
0.349438
0.331922
0.315647
0.3005
0.286379
0.273194
0.260862
0.249306
0.238459
0.228259
0.218649
0.209578
0.201
0.192873
0.185159
0.177826
0.170844
0.164189
0.157837
0.151772
0.145979
0.140447
0.135167
0.130132
0.125338
0.120782
0.11646
0.112369
0.108507
0.104869
0.101452
0.0982488
0.0952536
0.0924588
0.0898561
0.0874367
0.0851913
0.0831103
0.0811842
0.0794034
0.0777584
0.0762401
0.0748397
0.0735488
0.0723595
0.0712642
0.0702559
0.069328
0.0684743
0.0676891
0.0669671
0.0663034
0.0656934
0.0651329
0.0646181
0.0641452
0.0637111
0.0633126
0.0629469
0.0626115
0.0623039
0.0620219
0.0617635
0.0615269
0.0613102
0.061112
0.0609308
0.0607652
0.0606141
0.0604764
0.060351
0.060237
0.0601337
0.0600404
0.0599563
0.059881
0.059814
0.0597551
0.0597039
0.0596604
0.0596247
0.0595969
0.0595773
0.0595665
0.961698
0.892201
0.829108
0.771755
0.719549
0.671964
0.62853
0.58883
0.552492
0.519182
0.488604
0.460492
0.434611
0.410746
0.388709
0.368327
0.349448
0.331934
0.315661
0.300515
0.286397
0.273214
0.260884
0.249331
0.238488
0.228291
0.218684
0.209617
0.201043
0.19292
0.185211
0.177883
0.170906
0.164255
0.157909
0.151849
0.146061
0.140533
0.135257
0.130226
0.125435
0.120881
0.11656
0.11247
0.108608
0.10497
0.101551
0.0983458
0.0953481
0.0925504
0.0899444
0.0875215
0.0852724
0.0831876
0.0812576
0.0794729
0.077824
0.0763019
0.0748978
0.0736033
0.0724105
0.0713118
0.0703003
0.0693693
0.0685127
0.0677248
0.0670002
0.066334
0.0657217
0.0651591
0.0646422
0.0641674
0.0637315
0.0633313
0.0629641
0.0626272
0.0623183
0.0620351
0.0617756
0.0615379
0.0613203
0.0611212
0.0609392
0.0607729
0.0606212
0.0604829
0.0603569
0.0602425
0.0601388
0.0600451
0.0599607
0.0598852
0.059818
0.0597588
0.0597075
0.0596638
0.059628
0.0596001
0.0595805
0.0595696
0.961698
0.892201
0.829108
0.771755
0.719549
0.671964
0.62853
0.588831
0.552492
0.519183
0.488606
0.460496
0.434615
0.410752
0.388716
0.368335
0.349458
0.331946
0.315674
0.300531
0.286415
0.273234
0.260907
0.249357
0.238516
0.228322
0.218719
0.209656
0.201086
0.192967
0.185263
0.17794
0.170968
0.164322
0.15798
0.151925
0.146142
0.140619
0.135346
0.130319
0.125531
0.120979
0.116659
0.11257
0.108708
0.105069
0.101649
0.0984422
0.0954421
0.0926415
0.0900323
0.0876059
0.0853532
0.0832646
0.0813308
0.0795421
0.0778894
0.0763635
0.0749557
0.0736576
0.0724613
0.0713593
0.0703446
0.0694106
0.0685511
0.0677604
0.0670333
0.0663646
0.06575
0.0651852
0.0646663
0.0641896
0.0637519
0.0633501
0.0629813
0.062643
0.0623327
0.0620483
0.0617877
0.0615489
0.0613304
0.0611304
0.0609476
0.0607806
0.0606282
0.0604893
0.0603629
0.060248
0.0601439
0.0600498
0.0599651
0.0598893
0.0598218
0.0597625
0.059711
0.0596672
0.0596313
0.0596033
0.0595836
0.0595726
0.961698
0.8922
0.829108
0.771754
0.719548
0.671963
0.62853
0.588831
0.552493
0.519185
0.488608
0.460499
0.434619
0.410757
0.388722
0.368343
0.349468
0.331957
0.315687
0.300546
0.286432
0.273254
0.260929
0.249381
0.238544
0.228353
0.218754
0.209694
0.201128
0.193014
0.185314
0.177995
0.171028
0.164387
0.158051
0.152001
0.146222
0.140703
0.135435
0.130411
0.125626
0.121076
0.116758
0.11267
0.108808
0.105168
0.101747
0.0985378
0.0955352
0.0927318
0.0901195
0.0876897
0.0854333
0.083341
0.0814034
0.0796109
0.0779544
0.0764247
0.0750133
0.0737116
0.0725119
0.0714066
0.0703887
0.0694517
0.0685893
0.0677959
0.0670661
0.0663951
0.0657782
0.0652112
0.0646902
0.0642117
0.0637722
0.0633687
0.0629984
0.0626587
0.0623471
0.0620615
0.0617997
0.0615599
0.0613404
0.0611396
0.060956
0.0607883
0.0606352
0.0604957
0.0603688
0.0602534
0.0601489
0.0600545
0.0599694
0.0598933
0.0598256
0.0597661
0.0597144
0.0596705
0.0596344
0.0596064
0.0595866
0.0595756
0.961698
0.8922
0.829107
0.771754
0.719548
0.671963
0.62853
0.588831
0.552494
0.519186
0.48861
0.460502
0.434623
0.410762
0.388728
0.368351
0.349477
0.331968
0.315699
0.30056
0.286448
0.273273
0.26095
0.249406
0.238571
0.228383
0.218787
0.209732
0.20117
0.19306
0.185364
0.17805
0.171088
0.164452
0.15812
0.152075
0.146301
0.140786
0.135522
0.130501
0.125719
0.121171
0.116855
0.112768
0.108906
0.105265
0.101843
0.0986321
0.0956273
0.0928211
0.0902058
0.0877726
0.0855126
0.0834167
0.0814753
0.079679
0.0780187
0.0764854
0.0750703
0.0737651
0.072562
0.0714534
0.0704324
0.0694924
0.0686272
0.0678311
0.0670987
0.0664253
0.0658061
0.065237
0.064714
0.0642336
0.0637923
0.0633872
0.0630154
0.0626742
0.0623613
0.0620745
0.0618116
0.0615708
0.0613503
0.0611487
0.0609643
0.0607958
0.0606421
0.0605021
0.0603746
0.0602588
0.0601538
0.060059
0.0599737
0.0598973
0.0598294
0.0597696
0.0597177
0.0596737
0.0596375
0.0596094
0.0595896
0.0595785
0.961698
0.8922
0.829107
0.771753
0.719547
0.671963
0.62853
0.588831
0.552494
0.519187
0.488612
0.460504
0.434626
0.410767
0.388734
0.368358
0.349485
0.331978
0.315711
0.300574
0.286465
0.273291
0.260971
0.249429
0.238597
0.228413
0.218821
0.209768
0.20121
0.193104
0.185414
0.178104
0.171146
0.164515
0.158188
0.152148
0.146378
0.140868
0.135608
0.13059
0.125811
0.121265
0.116951
0.112864
0.109002
0.105361
0.101937
0.098725
0.095718
0.0929091
0.0902907
0.0878543
0.0855909
0.0834913
0.0815462
0.0797462
0.0780823
0.0765453
0.0751266
0.073818
0.0726115
0.0714997
0.0704756
0.0695326
0.0686646
0.0678658
0.067131
0.0664551
0.0658337
0.0652625
0.0647375
0.0642552
0.0638122
0.0634055
0.0630322
0.0626896
0.0623754
0.0620873
0.0618233
0.0615815
0.0613601
0.0611576
0.0609724
0.0608033
0.060649
0.0605083
0.0603803
0.060264
0.0601587
0.0600635
0.0599778
0.0599012
0.059833
0.059773
0.059721
0.0596768
0.0596405
0.0596123
0.0595924
0.0595813
0.961698
0.8922
0.829106
0.771753
0.719547
0.671962
0.62853
0.588831
0.552495
0.519188
0.488614
0.460507
0.43463
0.410771
0.38874
0.368365
0.349494
0.331988
0.315723
0.300588
0.28648
0.273309
0.260992
0.249452
0.238623
0.228442
0.218853
0.209804
0.20125
0.193148
0.185462
0.178157
0.171204
0.164577
0.158255
0.152219
0.146454
0.140948
0.135691
0.130677
0.125901
0.121358
0.117044
0.112958
0.109097
0.105455
0.10203
0.0988163
0.095807
0.0929956
0.0903742
0.0879345
0.0856677
0.0835646
0.0816159
0.0798124
0.0781448
0.0766042
0.075182
0.07387
0.0726602
0.0715453
0.0705182
0.0695723
0.0687015
0.0679001
0.0671627
0.0664845
0.0658609
0.0652876
0.0647607
0.0642765
0.0638318
0.0634235
0.0630487
0.0627047
0.0623893
0.0621
0.0618349
0.0615921
0.0613698
0.0611664
0.0609804
0.0608106
0.0606556
0.0605144
0.0603859
0.0602692
0.0601634
0.0600679
0.0599819
0.0599049
0.0598366
0.0597764
0.0597242
0.0596799
0.0596434
0.0596151
0.0595952
0.0595841
0.961698
0.892199
0.829106
0.771752
0.719546
0.671962
0.628529
0.588831
0.552495
0.519189
0.488615
0.460509
0.434633
0.410775
0.388745
0.368371
0.349502
0.331997
0.315734
0.300601
0.286495
0.273326
0.261011
0.249475
0.238648
0.22847
0.218884
0.209839
0.201289
0.193191
0.185509
0.178208
0.171259
0.164638
0.15832
0.152289
0.146528
0.141026
0.135773
0.130763
0.125989
0.121448
0.117136
0.113051
0.109189
0.105547
0.102121
0.0989055
0.0958941
0.0930802
0.090456
0.0880132
0.0857431
0.0836365
0.0816843
0.0798772
0.0782061
0.076662
0.0752365
0.0739211
0.0727081
0.07159
0.0705599
0.0696112
0.0687377
0.0679337
0.0671939
0.0665134
0.0658876
0.0653122
0.0647834
0.0642975
0.0638511
0.0634412
0.0630649
0.0627196
0.0624029
0.0621124
0.0618463
0.0616024
0.0613792
0.061175
0.0609883
0.0608178
0.0606622
0.0605204
0.0603914
0.0602742
0.060168
0.0600721
0.0599858
0.0599086
0.05984
0.0597796
0.0597272
0.0596828
0.0596462
0.0596178
0.0595978
0.0595867
0.961698
0.892199
0.829106
0.771752
0.719546
0.671961
0.628529
0.588832
0.552496
0.51919
0.488617
0.460511
0.434636
0.410779
0.38875
0.368378
0.349509
0.332006
0.315745
0.300613
0.28651
0.273343
0.26103
0.249496
0.238673
0.228498
0.218915
0.209873
0.201326
0.193232
0.185554
0.178258
0.171314
0.164696
0.158383
0.152356
0.1466
0.141102
0.135853
0.130845
0.126074
0.121535
0.117225
0.113141
0.109279
0.105637
0.10221
0.0989926
0.0959792
0.0931628
0.0905358
0.0880901
0.0858167
0.0837068
0.0817512
0.0799406
0.0782661
0.0767186
0.0752897
0.0739711
0.072755
0.0716339
0.0706008
0.0696493
0.0687732
0.0679667
0.0672245
0.0665417
0.0659138
0.0653364
0.0648057
0.064318
0.06387
0.0634585
0.0630808
0.0627342
0.0624162
0.0621246
0.0618574
0.0616126
0.0613884
0.0611834
0.060996
0.0608248
0.0606686
0.0605262
0.0603967
0.0602791
0.0601725
0.0600763
0.0599897
0.0599122
0.0598433
0.0597827
0.0597302
0.0596856
0.0596489
0.0596204
0.0596004
0.0595892
0.961697
0.892199
0.829105
0.771751
0.719546
0.671961
0.628529
0.588832
0.552496
0.519191
0.488618
0.460513
0.434639
0.410783
0.388755
0.368384
0.349516
0.332015
0.315755
0.300625
0.286524
0.273359
0.261049
0.249517
0.238696
0.228524
0.218944
0.209906
0.201363
0.193273
0.185598
0.178306
0.171366
0.164753
0.158445
0.152422
0.14667
0.141176
0.13593
0.130926
0.126157
0.12162
0.117312
0.113228
0.109367
0.105724
0.102296
0.0990773
0.096062
0.0932432
0.0906136
0.0881649
0.0858885
0.0837753
0.0818164
0.0800025
0.0783246
0.0767738
0.0753416
0.0740199
0.0728007
0.0716766
0.0706407
0.0696865
0.0688078
0.0679988
0.0672543
0.0665694
0.0659393
0.06536
0.0648274
0.064338
0.0638884
0.0634754
0.0630963
0.0627483
0.0624292
0.0621365
0.0618682
0.0616224
0.0613974
0.0611916
0.0610034
0.0608316
0.0606748
0.0605319
0.0604019
0.0602838
0.0601768
0.0600802
0.0599933
0.0599156
0.0598465
0.0597857
0.059733
0.0596883
0.0596515
0.0596229
0.0596028
0.0595916
0.961697
0.892199
0.829105
0.771751
0.719545
0.671961
0.628529
0.588832
0.552497
0.519191
0.488619
0.460515
0.434642
0.410786
0.388759
0.368389
0.349523
0.332024
0.315765
0.300637
0.286537
0.273375
0.261066
0.249537
0.238719
0.228549
0.218973
0.209938
0.201398
0.193311
0.185641
0.178352
0.171417
0.164808
0.158504
0.152485
0.146737
0.141247
0.136005
0.131003
0.126238
0.121703
0.117395
0.113313
0.109452
0.105809
0.10238
0.0991595
0.0961423
0.0933213
0.0906891
0.0882376
0.0859581
0.0838419
0.0818797
0.0800626
0.0783814
0.0768274
0.0753921
0.0740673
0.0728451
0.0717182
0.0706796
0.0697227
0.0688415
0.0680301
0.0672834
0.0665962
0.0659642
0.065383
0.0648486
0.0643575
0.0639063
0.0634919
0.0631114
0.0627622
0.0624418
0.062148
0.0618787
0.061632
0.0614062
0.0611996
0.0610107
0.0608382
0.0606808
0.0605373
0.0604068
0.0602884
0.060181
0.0600841
0.0599969
0.0599189
0.0598495
0.0597886
0.0597357
0.0596908
0.0596539
0.0596253
0.0596051
0.0595938
0.961697
0.892198
0.829105
0.771751
0.719545
0.67196
0.628529
0.588832
0.552497
0.519192
0.488621
0.460517
0.434644
0.41079
0.388764
0.368395
0.34953
0.332032
0.315775
0.300648
0.28655
0.273389
0.261083
0.249556
0.23874
0.228574
0.219
0.209968
0.201431
0.193349
0.185682
0.178397
0.171466
0.164861
0.158561
0.152546
0.146802
0.141315
0.136077
0.131078
0.126315
0.121782
0.117476
0.113395
0.109534
0.10589
0.102461
0.0992389
0.0962199
0.0933968
0.0907621
0.0883079
0.0860256
0.0839063
0.0819411
0.0801208
0.0784365
0.0768794
0.0754411
0.0741133
0.0728882
0.0717585
0.0707172
0.0697578
0.0688741
0.0680605
0.0673115
0.0666223
0.0659883
0.0654052
0.0648691
0.0643764
0.0639237
0.0635078
0.063126
0.0627755
0.062454
0.0621592
0.0618889
0.0616413
0.0614146
0.0612073
0.0610177
0.0608445
0.0606866
0.0605426
0.0604117
0.0602928
0.060185
0.0600878
0.0600003
0.059922
0.0598525
0.0597913
0.0597383
0.0596932
0.0596563
0.0596275
0.0596073
0.059596
0.961697
0.892198
0.829104
0.77175
0.719544
0.67196
0.628528
0.588832
0.552497
0.519193
0.488622
0.460519
0.434647
0.410793
0.388768
0.3684
0.349536
0.332039
0.315784
0.300659
0.286562
0.273404
0.261099
0.249575
0.238761
0.228597
0.219026
0.209997
0.201464
0.193384
0.185721
0.17844
0.171513
0.164912
0.158616
0.152605
0.146864
0.141381
0.136146
0.131151
0.126389
0.121858
0.117554
0.113473
0.109613
0.105969
0.102538
0.0993155
0.0962947
0.0934695
0.0908325
0.0883757
0.0860907
0.0839685
0.0820003
0.080177
0.0784897
0.0769296
0.0754884
0.0741577
0.0729299
0.0717975
0.0707536
0.0697917
0.0689057
0.0680898
0.0673387
0.0666475
0.0660116
0.0654268
0.064889
0.0643947
0.0639405
0.0635232
0.0631401
0.0627885
0.0624658
0.0621699
0.0618987
0.0616503
0.0614228
0.0612147
0.0610244
0.0608507
0.0606921
0.0605477
0.0604163
0.060297
0.0601889
0.0600913
0.0600035
0.059925
0.0598553
0.0597939
0.0597407
0.0596955
0.0596585
0.0596296
0.0596093
0.059598
0.961697
0.892198
0.829104
0.77175
0.719544
0.67196
0.628528
0.588832
0.552497
0.519193
0.488623
0.46052
0.434649
0.410796
0.388772
0.368405