/*--------------------------------*- C++ -*----------------------------------*\
  =========                 |
  \\      /  F ield         | OpenFOAM: The Open Source CFD Toolbox
   \\    /   O peration     | Website:  https://openfoam.org
    \\  /    A nd           | Version:  11
     \\/     M anipulation  |
\*---------------------------------------------------------------------------*/
FoamFile
{
    format      ascii;
    class       surfaceScalarField;
    location    "1234";
    object      phi;
}
// * * * * * * * * * * * * * * * * * * * * * * * * * * * * * * * * * * * * * //

dimensions      [0 3 -1 0 0 0 0];

internalField   nonuniform List<scalar> 
19800
(
2e-05
-2.01324e-13
2e-05
-5.86221e-13
2e-05
-9.63545e-13
2e-05
-1.33969e-12
2e-05
-1.72016e-12
2e-05
-2.10877e-12
2e-05
-2.5083e-12
2e-05
-2.92097e-12
2e-05
-3.34855e-12
2e-05
-3.7926e-12
2e-05
-4.25448e-12
2e-05
-4.73548e-12
2e-05
-5.23675e-12
2e-05
-5.75943e-12
2e-05
-6.30461e-12
2e-05
-6.87333e-12
2e-05
-7.46664e-12
2e-05
-8.08556e-12
2e-05
-8.7311e-12
2e-05
-9.40427e-12
2e-05
-1.01061e-11
2e-05
-1.08375e-11
2e-05
-1.15997e-11
2e-05
-1.23935e-11
2e-05
-1.32201e-11
2e-05
-1.40804e-11
2e-05
-1.49755e-11
2e-05
-1.59065e-11
2e-05
-1.68745e-11
2e-05
-1.78805e-11
2e-05
-1.89256e-11
2e-05
-2.00111e-11
2e-05
-2.11379e-11
2e-05
-2.23074e-11
2e-05
-2.35206e-11
2e-05
-2.47788e-11
2e-05
-2.60833e-11
2e-05
-2.74353e-11
2e-05
-2.88361e-11
2e-05
-3.02872e-11
2e-05
-3.17898e-11
2e-05
-3.33454e-11
2e-05
-3.49555e-11
2e-05
-3.66216e-11
2e-05
-3.83454e-11
2e-05
-4.01285e-11
2e-05
-4.19726e-11
2e-05
-4.38795e-11
2e-05
-4.58511e-11
2e-05
-4.78894e-11
2e-05
-4.99965e-11
2e-05
-5.21746e-11
1.99999e-05
-5.44258e-11
1.99999e-05
-5.67528e-11
1.99999e-05
-5.91579e-11
1.99999e-05
-6.16438e-11
1.99999e-05
-6.42135e-11
1.99999e-05
-6.68698e-11
1.99999e-05
-6.96158e-11
1.99999e-05
-7.24549e-11
1.99999e-05
-7.53905e-11
1.99999e-05
-7.84263e-11
1.99999e-05
-8.1566e-11
1.99999e-05
-8.48137e-11
1.99999e-05
-8.81734e-11
1.99999e-05
-9.16494e-11
1.99999e-05
-9.52463e-11
1.99999e-05
-9.89685e-11
1.99999e-05
-1.02821e-10
1.99999e-05
-1.06808e-10
1.99999e-05
-1.10934e-10
1.99999e-05
-1.15205e-10
1.99998e-05
-1.19624e-10
1.99998e-05
-1.24196e-10
1.99998e-05
-1.28925e-10
1.99998e-05
-1.33814e-10
1.99998e-05
-1.38865e-10
1.99998e-05
-1.44081e-10
1.99998e-05
-1.49461e-10
1.99998e-05
-1.55004e-10
1.99998e-05
-1.60708e-10
1.99998e-05
-1.66565e-10
1.99998e-05
-1.72567e-10
1.99997e-05
-1.787e-10
1.99997e-05
-1.84947e-10
1.99997e-05
-1.91284e-10
1.99997e-05
-1.9768e-10
1.99997e-05
-2.04098e-10
1.99997e-05
-2.10488e-10
1.99997e-05
-2.16791e-10
1.99997e-05
-2.22937e-10
1.99997e-05
-2.2884e-10
1.99997e-05
-2.344e-10
1.99997e-05
-2.39504e-10
1.99996e-05
-2.44033e-10
1.99996e-05
-2.47843e-10
1.99996e-05
-2.50762e-10
1.99996e-05
-2.52657e-10
1.99996e-05
-2.53624e-10
-2.54206e-10
2e-05
-1.79023e-13
2e-05
-5.40382e-13
2e-05
-9.02272e-13
2e-05
-1.26506e-12
2e-05
-1.63256e-12
2e-05
-2.00798e-12
2e-05
-2.39379e-12
2e-05
-2.79201e-12
2e-05
-3.20432e-12
2e-05
-3.63216e-12
2e-05
-4.07684e-12
2e-05
-4.53953e-12
2e-05
-5.02135e-12
2e-05
-5.52335e-12
2e-05
-6.04654e-12
2e-05
-6.59189e-12
2e-05
-7.16038e-12
2e-05
-7.75293e-12
2e-05
-8.37049e-12
2e-05
-9.01398e-12
2e-05
-9.68433e-12
2e-05
-1.03824e-11
2e-05
-1.11093e-11
2e-05
-1.18657e-11
2e-05
-1.26527e-11
2e-05
-1.34712e-11
2e-05
-1.43221e-11
2e-05
-1.52064e-11
2e-05
-1.6125e-11
2e-05
-1.7079e-11
2e-05
-1.80693e-11
2e-05
-1.90968e-11
2e-05
-2.01628e-11
2e-05
-2.1268e-11
2e-05
-2.24137e-11
2e-05
-2.3601e-11
2e-05
-2.48308e-11
2e-05
-2.61044e-11
2e-05
-2.74229e-11
2e-05
-2.87875e-11
2e-05
-3.01995e-11
2e-05
-3.16601e-11
2e-05
-3.31707e-11
2e-05
-3.47327e-11
2e-05
-3.63475e-11
2e-05
-3.80166e-11
2e-05
-3.97416e-11
2e-05
-4.15242e-11
2e-05
-4.33661e-11
2e-05
-4.52692e-11
2e-05
-4.72354e-11
2e-05
-4.92667e-11
1.99999e-05
-5.13654e-11
1.99999e-05
-5.35338e-11
1.99999e-05
-5.57742e-11
1.99999e-05
-5.80893e-11
1.99999e-05
-6.04819e-11
1.99999e-05
-6.29549e-11
1.99999e-05
-6.55114e-11
1.99999e-05
-6.81547e-11
1.99999e-05
-7.08883e-11
1.99999e-05
-7.37159e-11
1.99999e-05
-7.66415e-11
1.99999e-05
-7.96692e-11
1.99999e-05
-8.28034e-11
1.99999e-05
-8.60486e-11
1.99999e-05
-8.94097e-11
1.99999e-05
-9.28916e-11
1.99999e-05
-9.64996e-11
1.99999e-05
-1.00239e-10
1.99999e-05
-1.04115e-10
1.99999e-05
-1.08133e-10
1.99998e-05
-1.12299e-10
1.99998e-05
-1.16618e-10
1.99998e-05
-1.21096e-10
1.99998e-05
-1.25736e-10
1.99998e-05
-1.30544e-10
1.99998e-05
-1.35523e-10
1.99998e-05
-1.40675e-10
1.99998e-05
-1.46002e-10
1.99998e-05
-1.51502e-10
1.99998e-05
-1.57174e-10
1.99998e-05
-1.63012e-10
1.99998e-05
-1.69006e-10
1.99997e-05
-1.75144e-10
1.99997e-05
-1.81406e-10
1.99997e-05
-1.87767e-10
1.99997e-05
-1.94196e-10
1.99997e-05
-2.00652e-10
1.99997e-05
-2.07082e-10
1.99997e-05
-2.13424e-10
1.99997e-05
-2.19602e-10
1.99997e-05
-2.25526e-10
1.99997e-05
-2.31093e-10
1.99996e-05
-2.36181e-10
1.99996e-05
-2.40653e-10
1.99996e-05
-2.44358e-10
1.99996e-05
-2.47196e-10
1.99996e-05
-2.49197e-10
-2.50564e-10
2e-05
-1.62287e-13
2e-05
-4.99689e-13
2e-05
-8.43846e-13
2e-05
-1.19193e-12
2e-05
-1.54578e-12
2e-05
-1.90767e-12
2e-05
-2.27964e-12
2e-05
-2.66341e-12
2e-05
-3.06049e-12
2e-05
-3.47222e-12
2e-05
-3.89979e-12
2e-05
-4.34432e-12
2e-05
-4.80682e-12
2e-05
-5.28828e-12
2e-05
-5.78964e-12
2e-05
-6.3118e-12
2e-05
-6.85563e-12
2e-05
-7.42202e-12
2e-05
-8.0118e-12
2e-05
-8.62583e-12
2e-05
-9.26493e-12
2e-05
-9.92994e-12
2e-05
-1.06217e-11
2e-05
-1.1341e-11
2e-05
-1.20887e-11
2e-05
-1.28657e-11
2e-05
-1.36727e-11
2e-05
-1.45106e-11
2e-05
-1.53803e-11
2e-05
-1.62826e-11
2e-05
-1.72185e-11
2e-05
-1.81886e-11
2e-05
-1.91941e-11
2e-05
-2.02357e-11
2e-05
-2.13144e-11
2e-05
-2.24312e-11
2e-05
-2.3587e-11
2e-05
-2.47828e-11
2e-05
-2.60196e-11
2e-05
-2.72985e-11
2e-05
-2.86206e-11
2e-05
-2.9987e-11
2e-05
-3.13989e-11
2e-05
-3.28576e-11
2e-05
-3.43643e-11
2e-05
-3.59204e-11
2e-05
-3.75274e-11
2e-05
-3.91867e-11
2e-05
-4.09001e-11
2e-05
-4.2669e-11
2e-05
-4.44955e-11
2e-05
-4.63815e-11
1.99999e-05
-4.83289e-11
1.99999e-05
-5.034e-11
1.99999e-05
-5.24172e-11
1.99999e-05
-5.4563e-11
1.99999e-05
-5.67801e-11
1.99999e-05
-5.90713e-11
1.99999e-05
-6.14399e-11
1.99999e-05
-6.38891e-11
1.99999e-05
-6.64225e-11
1.99999e-05
-6.90439e-11
1.99999e-05
-7.17572e-11
1.99999e-05
-7.45669e-11
1.99999e-05
-7.74776e-11
1.99999e-05
-8.0494e-11
1.99999e-05
-8.36213e-11
1.99999e-05
-8.68649e-11
1.99999e-05
-9.02306e-11
1.99999e-05
-9.37241e-11
1.99999e-05
-9.73517e-11
1.99999e-05
-1.0112e-10
1.99998e-05
-1.05034e-10
1.99998e-05
-1.09102e-10
1.99998e-05
-1.1333e-10
1.99998e-05
-1.17724e-10
1.99998e-05
-1.2229e-10
1.99998e-05
-1.27033e-10
1.99998e-05
-1.31957e-10
1.99998e-05
-1.37068e-10
1.99998e-05
-1.42366e-10
1.99998e-05
-1.47853e-10
1.99998e-05
-1.53525e-10
1.99998e-05
-1.59378e-10
1.99997e-05
-1.65403e-10
1.99997e-05
-1.71586e-10
1.99997e-05
-1.77908e-10
1.99997e-05
-1.84341e-10
1.99997e-05
-1.90852e-10
1.99997e-05
-1.97396e-10
1.99997e-05
-2.03918e-10
1.99997e-05
-2.10349e-10
1.99997e-05
-2.16606e-10
1.99997e-05
-2.22592e-10
1.99996e-05
-2.28191e-10
1.99996e-05
-2.3327e-10
1.99996e-05
-2.37684e-10
1.99996e-05
-2.413e-10
1.99996e-05
-2.4401e-10
-2.4564e-10
2e-05
-1.48933e-13
2e-05
-4.63769e-13
2e-05
-7.89389e-13
2e-05
-1.12163e-12
2e-05
-1.46096e-12
2e-05
-1.80879e-12
2e-05
-2.1666e-12
2e-05
-2.53576e-12
2e-05
-2.91758e-12
2e-05
-3.31322e-12
2e-05
-3.72378e-12
2e-05
-4.15025e-12
2e-05
-4.59359e-12
2e-05
-5.0547e-12
2e-05
-5.53442e-12
2e-05
-6.03359e-12
2e-05
-6.55302e-12
2e-05
-7.09349e-12
2e-05
-7.65576e-12
2e-05
-8.24061e-12
2e-05
-8.84878e-12
2e-05
-9.48102e-12
2e-05
-1.01381e-11
2e-05
-1.08206e-11
2e-05
-1.15295e-11
2e-05
-1.22653e-11
2e-05
-1.30289e-11
2e-05
-1.3821e-11
2e-05
-1.46423e-11
2e-05
-1.54935e-11
2e-05
-1.63754e-11
2e-05
-1.72889e-11
2e-05
-1.82345e-11
2e-05
-1.92132e-11
2e-05
-2.02257e-11
2e-05
-2.12728e-11
2e-05
-2.23553e-11
2e-05
-2.34742e-11
2e-05
-2.46303e-11
2e-05
-2.58245e-11
2e-05
-2.70577e-11
2e-05
-2.8331e-11
2e-05
-2.96455e-11
2e-05
-3.10021e-11
2e-05
-3.2402e-11
2e-05
-3.38465e-11
2e-05
-3.53369e-11
2e-05
-3.68745e-11
2e-05
-3.84608e-11
2e-05
-4.00973e-11
2e-05
-4.17859e-11
2e-05
-4.35282e-11
2e-05
-4.53262e-11
1.99999e-05
-4.71821e-11
1.99999e-05
-4.90982e-11
1.99999e-05
-5.10768e-11
1.99999e-05
-5.31206e-11
1.99999e-05
-5.52325e-11
1.99999e-05
-5.74156e-11
1.99999e-05
-5.96732e-11
1.99999e-05
-6.20089e-11
1.99999e-05
-6.44266e-11
1.99999e-05
-6.69305e-11
1.99999e-05
-6.95249e-11
1.99999e-05
-7.22149e-11
1.99999e-05
-7.50053e-11
1.99999e-05
-7.79019e-11
1.99999e-05
-8.09102e-11
1.99999e-05
-8.40366e-11
1.99999e-05
-8.72874e-11
1.99999e-05
-9.06696e-11
1.99999e-05
-9.41902e-11
1.99998e-05
-9.78566e-11
1.99998e-05
-1.01676e-10
1.99998e-05
-1.05657e-10
1.99998e-05
-1.09806e-10
1.99998e-05
-1.14132e-10
1.99998e-05
-1.18641e-10
1.99998e-05
-1.2334e-10
1.99998e-05
-1.28236e-10
1.99998e-05
-1.33332e-10
1.99998e-05
-1.38632e-10
1.99998e-05
-1.44138e-10
1.99998e-05
-1.49848e-10
1.99997e-05
-1.55756e-10
1.99997e-05
-1.61855e-10
1.99997e-05
-1.68128e-10
1.99997e-05
-1.74556e-10
1.99997e-05
-1.8111e-10
1.99997e-05
-1.8775e-10
1.99997e-05
-1.94429e-10
1.99997e-05
-2.01083e-10
1.99997e-05
-2.07636e-10
1.99997e-05
-2.13993e-10
1.99997e-05
-2.20041e-10
1.99996e-05
-2.25644e-10
1.99996e-05
-2.30647e-10
1.99996e-05
-2.34863e-10
1.99996e-05
-2.38059e-10
-2.39808e-10
2e-05
-1.37707e-13
2e-05
-4.31782e-13
2e-05
-7.38979e-13
2e-05
-1.0548e-12
2e-05
-1.37896e-12
2e-05
-1.71218e-12
2e-05
-2.05544e-12
2e-05
-2.40976e-12
2e-05
-2.7762e-12
2e-05
-3.15574e-12
2e-05
-3.54933e-12
2e-05
-3.95787e-12
2e-05
-4.38219e-12
2e-05
-4.82312e-12
2e-05
-5.28143e-12
2e-05
-5.75787e-12
2e-05
-6.25316e-12
2e-05
-6.76801e-12
2e-05
-7.30312e-12
2e-05
-7.85915e-12
2e-05
-8.43677e-12
2e-05
-9.03665e-12
2e-05
-9.65942e-12
2e-05
-1.03057e-11
2e-05
-1.09762e-11
2e-05
-1.16715e-11
2e-05
-1.23923e-11
2e-05
-1.31391e-11
2e-05
-1.39126e-11
2e-05
-1.47135e-11
2e-05
-1.55423e-11
2e-05
-1.63997e-11
2e-05
-1.72864e-11
2e-05
-1.8203e-11
2e-05
-1.91502e-11
2e-05
-2.01287e-11
2e-05
-2.11391e-11
2e-05
-2.21822e-11
2e-05
-2.32587e-11
2e-05
-2.43695e-11
2e-05
-2.55153e-11
2e-05
-2.66969e-11
2e-05
-2.79153e-11
2e-05
-2.91714e-11
2e-05
-3.04663e-11
2e-05
-3.18009e-11
2e-05
-3.31765e-11
2e-05
-3.45942e-11
2e-05
-3.60555e-11
2e-05
-3.75618e-11
2e-05
-3.91146e-11
2e-05
-4.07156e-11
2e-05
-4.23668e-11
1.99999e-05
-4.407e-11
1.99999e-05
-4.58275e-11
1.99999e-05
-4.76417e-11
1.99999e-05
-4.95151e-11
1.99999e-05
-5.14506e-11
1.99999e-05
-5.34513e-11
1.99999e-05
-5.55205e-11
1.99999e-05
-5.76618e-11
1.99999e-05
-5.98793e-11
1.99999e-05
-6.21772e-11
1.99999e-05
-6.456e-11
1.99999e-05
-6.70329e-11
1.99999e-05
-6.96012e-11
1.99999e-05
-7.22707e-11
1.99999e-05
-7.50476e-11
1.99999e-05
-7.79386e-11
1.99999e-05
-8.09507e-11
1.99999e-05
-8.40913e-11
1.99999e-05
-8.73683e-11
1.99999e-05
-9.079e-11
1.99998e-05
-9.4365e-11
1.99998e-05
-9.81021e-11
1.99998e-05
-1.0201e-10
1.99998e-05
-1.06099e-10
1.99998e-05
-1.10376e-10
1.99998e-05
-1.14852e-10
1.99998e-05
-1.19533e-10
1.99998e-05
-1.24428e-10
1.99998e-05
-1.29542e-10
1.99998e-05
-1.3488e-10
1.99998e-05
-1.40443e-10
1.99997e-05
-1.46231e-10
1.99997e-05
-1.52238e-10
1.99997e-05
-1.58455e-10
1.99997e-05
-1.64865e-10
1.99997e-05
-1.71445e-10
1.99997e-05
-1.78162e-10
1.99997e-05
-1.8497e-10
1.99997e-05
-1.91814e-10
1.99997e-05
-1.98618e-10
1.99997e-05
-2.05291e-10
1.99997e-05
-2.11717e-10
1.99996e-05
-2.17752e-10
1.99996e-05
-2.23219e-10
1.99996e-05
-2.27885e-10
1.99996e-05
-2.31434e-10
-2.33409e-10
2e-05
-1.27949e-13
2e-05
-4.02943e-13
2e-05
-6.92289e-13
2e-05
-9.91605e-13
2e-05
-1.30023e-12
2e-05
-1.61844e-12
2e-05
-1.94682e-12
2e-05
-2.28608e-12
2e-05
-2.637e-12
2e-05
-3.00039e-12
2e-05
-3.37704e-12
2e-05
-3.76773e-12
2e-05
-4.17319e-12
2e-05
-4.59414e-12
2e-05
-5.03127e-12
2e-05
-5.48525e-12
2e-05
-5.95672e-12
2e-05
-6.4463e-12
2e-05
-6.95462e-12
2e-05
-7.48225e-12
2e-05
-8.02978e-12
2e-05
-8.59778e-12
2e-05
-9.18681e-12
2e-05
-9.79742e-12
2e-05
-1.04302e-11
2e-05
-1.10855e-11
2e-05
-1.17641e-11
2e-05
-1.24664e-11
2e-05
-1.3193e-11
2e-05
-1.39443e-11
2e-05
-1.47209e-11
2e-05
-1.55233e-11
2e-05
-1.63521e-11
2e-05
-1.72077e-11
2e-05
-1.80908e-11
2e-05
-1.90018e-11
2e-05
-1.99414e-11
2e-05
-2.09101e-11
2e-05
-2.19085e-11
2e-05
-2.29373e-11
2e-05
-2.39972e-11
2e-05
-2.50889e-11
2e-05
-2.62131e-11
2e-05
-2.73706e-11
2e-05
-2.85623e-11
2e-05
-2.97892e-11
2e-05
-3.10522e-11
2e-05
-3.23525e-11
2e-05
-3.36912e-11
2e-05
-3.50697e-11
2e-05
-3.64895e-11
2e-05
-3.7952e-11
2e-05
-3.94592e-11
1.99999e-05
-4.10127e-11
1.99999e-05
-4.26149e-11
1.99999e-05
-4.4268e-11
1.99999e-05
-4.59744e-11
1.99999e-05
-4.77372e-11
1.99999e-05
-4.95591e-11
1.99999e-05
-5.14438e-11
1.99999e-05
-5.33947e-11
1.99999e-05
-5.5416e-11
1.99999e-05
-5.75121e-11
1.99999e-05
-5.96876e-11
1.99999e-05
-6.19479e-11
1.99999e-05
-6.42985e-11
1.99999e-05
-6.67456e-11
1.99999e-05
-6.92957e-11
1.99999e-05
-7.19559e-11
1.99999e-05
-7.47338e-11
1.99999e-05
-7.76375e-11
1.99999e-05
-8.06755e-11
1.99999e-05
-8.3857e-11
1.99998e-05
-8.71916e-11
1.99998e-05
-9.06891e-11
1.99998e-05
-9.43598e-11
1.99998e-05
-9.82144e-11
1.99998e-05
-1.02263e-10
1.99998e-05
-1.06517e-10
1.99998e-05
-1.10986e-10
1.99998e-05
-1.1568e-10
1.99998e-05
-1.20608e-10
1.99998e-05
-1.25776e-10
1.99998e-05
-1.3119e-10
1.99998e-05
-1.36851e-10
1.99997e-05
-1.4276e-10
1.99997e-05
-1.4891e-10
1.99997e-05
-1.55289e-10
1.99997e-05
-1.61877e-10
1.99997e-05
-1.68646e-10
1.99997e-05
-1.75555e-10
1.99997e-05
-1.8255e-10
1.99997e-05
-1.8956e-10
1.99997e-05
-1.9649e-10
1.99997e-05
-2.03221e-10
1.99997e-05
-2.09599e-10
1.99996e-05
-2.15424e-10
1.99996e-05
-2.2043e-10
1.99996e-05
-2.24259e-10
-2.26493e-10
2e-05
-1.19242e-13
2e-05
-3.76641e-13
2e-05
-6.48905e-13
2e-05
-9.31941e-13
2e-05
-1.22496e-12
2e-05
-1.52796e-12
2e-05
-1.84124e-12
2e-05
-2.16524e-12
2e-05
-2.50054e-12
2e-05
-2.84774e-12
2e-05
-3.20748e-12
2e-05
-3.58042e-12
2e-05
-3.96716e-12
2e-05
-4.36834e-12
2e-05
-4.78455e-12
2e-05
-5.21637e-12
2e-05
-5.66436e-12
2e-05
-6.12907e-12
2e-05
-6.61101e-12
2e-05
-7.11071e-12
2e-05
-7.62865e-12
2e-05
-8.16533e-12
2e-05
-8.72122e-12
2e-05
-9.29677e-12
2e-05
-9.89245e-12
2e-05
-1.05087e-11
2e-05
-1.11459e-11
2e-05
-1.18045e-11
2e-05
-1.2485e-11
2e-05
-1.31878e-11
2e-05
-1.39132e-11
2e-05
-1.46617e-11
2e-05
-1.54336e-11
2e-05
-1.62295e-11
2e-05
-1.70498e-11
2e-05
-1.78948e-11
2e-05
-1.8765e-11
2e-05
-1.96608e-11
2e-05
-2.05829e-11
2e-05
-2.15315e-11
2e-05
-2.25074e-11
2e-05
-2.35111e-11
2e-05
-2.45431e-11
2e-05
-2.56042e-11
2e-05
-2.66951e-11
2e-05
-2.78166e-11
2e-05
-2.89696e-11
2e-05
-3.01551e-11
2e-05
-3.13741e-11
2e-05
-3.26278e-11
2e-05
-3.39176e-11
2e-05
-3.52449e-11
2e-05
-3.66114e-11
1.99999e-05
-3.80189e-11
1.99999e-05
-3.94694e-11
1.99999e-05
-4.09651e-11
1.99999e-05
-4.25086e-11
1.99999e-05
-4.41027e-11
1.99999e-05
-4.57502e-11
1.99999e-05
-4.74547e-11
1.99999e-05
-4.92199e-11
1.99999e-05
-5.10497e-11
1.99999e-05
-5.29488e-11
1.99999e-05
-5.4922e-11
1.99999e-05
-5.69747e-11
1.99999e-05
-5.91128e-11
1.99999e-05
-6.13427e-11
1.99999e-05
-6.36713e-11
1.99999e-05
-6.6106e-11
1.99999e-05
-6.86551e-11
1.99999e-05
-7.13271e-11
1.99999e-05
-7.41314e-11
1.99999e-05
-7.70779e-11
1.99999e-05
-8.01769e-11
1.99998e-05
-8.34395e-11
1.99998e-05
-8.68771e-11
1.99998e-05
-9.05018e-11
1.99998e-05
-9.43255e-11
1.99998e-05
-9.83607e-11
1.99998e-05
-1.02619e-10
1.99998e-05
-1.07113e-10
1.99998e-05
-1.11854e-10
1.99998e-05
-1.1685e-10
1.99998e-05
-1.22111e-10
1.99998e-05
-1.27641e-10
1.99997e-05
-1.33443e-10
1.99997e-05
-1.39514e-10
1.99997e-05
-1.45846e-10
1.99997e-05
-1.52423e-10
1.99997e-05
-1.59219e-10
1.99997e-05
-1.66199e-10
1.99997e-05
-1.73307e-10
1.99997e-05
-1.80475e-10
1.99997e-05
-1.87605e-10
1.99997e-05
-1.94573e-10
1.99997e-05
-2.01215e-10
1.99997e-05
-2.07313e-10
1.99996e-05
-2.12577e-10
1.99996e-05
-2.16632e-10
-2.19051e-10
2e-05
-1.11327e-13
2e-05
-3.52411e-13
2e-05
-6.08423e-13
2e-05
-8.75601e-13
2e-05
-1.15315e-12
2e-05
-1.44092e-12
2e-05
-1.73902e-12
2e-05
-2.04768e-12
2e-05
-2.3673e-12
2e-05
-2.6983e-12
2e-05
-3.0412e-12
2e-05
-3.39649e-12
2e-05
-3.76469e-12
2e-05
-4.14632e-12
2e-05
-4.54188e-12
2e-05
-4.95187e-12
2e-05
-5.37675e-12
2e-05
-5.81699e-12
2e-05
-6.27303e-12
2e-05
-6.74531e-12
2e-05
-7.23423e-12
2e-05
-7.7402e-12
2e-05
-8.26361e-12
2e-05
-8.80482e-12
2e-05
-9.3642e-12
2e-05
-9.94209e-12
2e-05
-1.05388e-11
2e-05
-1.11548e-11
2e-05
-1.17902e-11
2e-05
-1.24454e-11
2e-05
-1.31208e-11
2e-05
-1.38166e-11
2e-05
-1.45331e-11
2e-05
-1.52707e-11
2e-05
-1.60296e-11
2e-05
-1.68101e-11
2e-05
-1.76126e-11
2e-05
-1.84374e-11
2e-05
-1.92848e-11
2e-05
-2.01553e-11
2e-05
-2.10493e-11
2e-05
-2.19671e-11
2e-05
-2.29094e-11
2e-05
-2.38765e-11
2e-05
-2.48692e-11
2e-05
-2.5888e-11
2e-05
-2.69339e-11
2e-05
-2.80075e-11
2e-05
-2.91099e-11
2e-05
-3.02421e-11
2e-05
-3.14054e-11
2e-05
-3.26011e-11
2e-05
-3.38308e-11
2e-05
-3.50961e-11
1.99999e-05
-3.6399e-11
1.99999e-05
-3.77418e-11
1.99999e-05
-3.91268e-11
1.99999e-05
-4.05567e-11
1.99999e-05
-4.20347e-11
1.99999e-05
-4.3564e-11
1.99999e-05
-4.51484e-11
1.99999e-05
-4.67921e-11
1.99999e-05
-4.84996e-11
1.99999e-05
-5.0276e-11
1.99999e-05
-5.21268e-11
1.99999e-05
-5.40582e-11
1.99999e-05
-5.60767e-11
1.99999e-05
-5.81897e-11
1.99999e-05
-6.0405e-11
1.99999e-05
-6.27312e-11
1.99999e-05
-6.51775e-11
1.99999e-05
-6.77538e-11
1.99999e-05
-7.04708e-11
1.99999e-05
-7.33398e-11
1.99998e-05
-7.63727e-11
1.99998e-05
-7.95821e-11
1.99998e-05
-8.29811e-11
1.99998e-05
-8.65834e-11
1.99998e-05
-9.04027e-11
1.99998e-05
-9.4453e-11
1.99998e-05
-9.8748e-11
1.99998e-05
-1.03301e-10
1.99998e-05
-1.08124e-10
1.99998e-05
-1.13227e-10
1.99998e-05
-1.1862e-10
1.99998e-05
-1.24306e-10
1.99997e-05
-1.30286e-10
1.99997e-05
-1.36556e-10
1.99997e-05
-1.43102e-10
1.99997e-05
-1.49901e-10
1.99997e-05
-1.56918e-10
1.99997e-05
-1.64103e-10
1.99997e-05
-1.71382e-10
1.99997e-05
-1.78659e-10
1.99997e-05
-1.85803e-10
1.99997e-05
-1.9264e-10
1.99997e-05
-1.9894e-10
1.99996e-05
-2.04399e-10
1.99996e-05
-2.08623e-10
-2.11157e-10
2e-05
-1.04037e-13
2e-05
-3.29906e-13
2e-05
-5.70492e-13
2e-05
-8.2234e-13
2e-05
-1.08471e-12
2e-05
-1.35739e-12
2e-05
-1.64035e-12
2e-05
-1.9337e-12
2e-05
-2.23765e-12
2e-05
-2.55252e-12
2e-05
-2.87865e-12
2e-05
-3.21644e-12
2e-05
-3.56629e-12
2e-05
-3.92862e-12
2e-05
-4.30383e-12
2e-05
-4.69233e-12
2e-05
-5.09451e-12
2e-05
-5.51074e-12
2e-05
-5.94139e-12
2e-05
-6.3868e-12
2e-05
-6.84731e-12
2e-05
-7.32324e-12
2e-05
-7.81488e-12
2e-05
-8.32253e-12
2e-05
-8.84645e-12
2e-05
-9.38691e-12
2e-05
-9.94415e-12
2e-05
-1.05184e-11
2e-05
-1.11099e-11
2e-05
-1.17188e-11
2e-05
-1.23454e-11
2e-05
-1.29899e-11
2e-05
-1.36524e-11
2e-05
-1.43331e-11
2e-05
-1.50323e-11
2e-05
-1.575e-11
2e-05
-1.64867e-11
2e-05
-1.72423e-11
2e-05
-1.80173e-11
2e-05
-1.88118e-11
2e-05
-1.96261e-11
2e-05
-2.04605e-11
2e-05
-2.13155e-11
2e-05
-2.21914e-11
2e-05
-2.30887e-11
2e-05
-2.40079e-11
2e-05
-2.49497e-11
2e-05
-2.59148e-11
2e-05
-2.69041e-11
2e-05
-2.79184e-11
2e-05
-2.8959e-11
2e-05
-3.0027e-11
2e-05
-3.1124e-11
2e-05
-3.22515e-11
1.99999e-05
-3.34114e-11
1.99999e-05
-3.46059e-11
1.99999e-05
-3.58372e-11
1.99999e-05
-3.71082e-11
1.99999e-05
-3.84217e-11
1.99999e-05
-3.97813e-11
1.99999e-05
-4.11906e-11
1.99999e-05
-4.26538e-11
1.99999e-05
-4.41757e-11
1.99999e-05
-4.57613e-11
1.99999e-05
-4.74165e-11
1.99999e-05
-4.91474e-11
1.99999e-05
-5.0961e-11
1.99999e-05
-5.28648e-11
1.99999e-05
-5.48671e-11
1.99999e-05
-5.6977e-11
1.99999e-05
-5.9204e-11
1.99999e-05
-6.15587e-11
1.99999e-05
-6.40525e-11
1.99999e-05
-6.66973e-11
1.99999e-05
-6.95061e-11
1.99998e-05
-7.24925e-11
1.99998e-05
-7.56707e-11
1.99998e-05
-7.90556e-11
1.99998e-05
-8.26624e-11
1.99998e-05
-8.65066e-11
1.99998e-05
-9.06038e-11
1.99998e-05
-9.4969e-11
1.99998e-05
-9.96165e-11
1.99998e-05
-1.04559e-10
1.99998e-05
-1.09807e-10
1.99998e-05
-1.15369e-10
1.99998e-05
-1.21247e-10
1.99997e-05
-1.27438e-10
1.99997e-05
-1.33932e-10
1.99997e-05
-1.40709e-10
1.99997e-05
-1.47735e-10
1.99997e-05
-1.54958e-10
1.99997e-05
-1.62307e-10
1.99997e-05
-1.69681e-10
1.99997e-05
-1.76945e-10
1.99997e-05
-1.83919e-10
1.99997e-05
-1.90362e-10
1.99997e-05
-1.95958e-10
1.99996e-05
-2.00302e-10
-2.02911e-10
2e-05
-9.72597e-14
2e-05
-3.08873e-13
2e-05
-5.3482e-13
2e-05
-7.7192e-13
2e-05
-1.0195e-12
2e-05
-1.27735e-12
2e-05
-1.54534e-12
2e-05
-1.82349e-12
2e-05
-2.11189e-12
2e-05
-2.41073e-12
2e-05
-2.72024e-12
2e-05
-3.04072e-12
2e-05
-3.37245e-12
2e-05
-3.71575e-12
2e-05
-4.07094e-12
2e-05
-4.43834e-12
2e-05
-4.81824e-12
2e-05
-5.21095e-12
2e-05
-5.61674e-12
2e-05
-6.03589e-12
2e-05
-6.46864e-12
2e-05
-6.91524e-12
2e-05
-7.3759e-12
2e-05
-7.85082e-12
2e-05
-8.34019e-12
2e-05
-8.84419e-12
2e-05
-9.36297e-12
2e-05
-9.89667e-12
2e-05
-1.04454e-11
2e-05
-1.10093e-11
2e-05
-1.15885e-11
2e-05
-1.21831e-11
2e-05
-1.27931e-11
2e-05
-1.34187e-11
2e-05
-1.40598e-11
2e-05
-1.47167e-11
2e-05
-1.53895e-11
2e-05
-1.60781e-11
2e-05
-1.67827e-11
2e-05
-1.75036e-11
2e-05
-1.82407e-11
2e-05
-1.89944e-11
2e-05
-1.97649e-11
2e-05
-2.05524e-11
2e-05
-2.13573e-11
2e-05
-2.21802e-11
2e-05
-2.30213e-11
2e-05
-2.38815e-11
2e-05
-2.47614e-11
2e-05
-2.56618e-11
2e-05
-2.65837e-11
2e-05
-2.75284e-11
2e-05
-2.84972e-11
2e-05
-2.94915e-11
2e-05
-3.05133e-11
1.99999e-05
-3.15645e-11
1.99999e-05
-3.26475e-11
1.99999e-05
-3.37649e-11
1.99999e-05
-3.49197e-11
1.99999e-05
-3.61153e-11
1.99999e-05
-3.73555e-11
1.99999e-05
-3.86445e-11
1.99999e-05
-3.99871e-11
1.99999e-05
-4.13885e-11
1.99999e-05
-4.28546e-11
1.99999e-05
-4.43919e-11
1.99999e-05
-4.60074e-11
1.99999e-05
-4.7709e-11
1.99999e-05
-4.95054e-11
1.99999e-05
-5.14058e-11
1.99999e-05
-5.34204e-11
1.99999e-05
-5.55604e-11
1.99999e-05
-5.78375e-11
1.99999e-05
-6.02647e-11
1.99999e-05
-6.28555e-11
1.99998e-05
-6.56244e-11
1.99998e-05
-6.85868e-11
1.99998e-05
-7.17587e-11
1.99998e-05
-7.51565e-11
1.99998e-05
-7.87973e-11
1.99998e-05
-8.2698e-11
1.99998e-05
-8.68754e-11
1.99998e-05
-9.13457e-11
1.99998e-05
-9.61235e-11
1.99998e-05
-1.01222e-10
1.99998e-05
-1.0665e-10
1.99998e-05
-1.12413e-10
1.99998e-05
-1.1851e-10
1.99997e-05
-1.24934e-10
1.99997e-05
-1.31664e-10
1.99997e-05
-1.38668e-10
1.99997e-05
-1.45896e-10
1.99997e-05
-1.53275e-10
1.99997e-05
-1.60701e-10
1.99997e-05
-1.68037e-10
1.99997e-05
-1.75096e-10
1.99997e-05
-1.8163e-10
1.99997e-05
-1.87317e-10
1.99997e-05
-1.91741e-10
-1.94397e-10
2e-05
-9.09185e-14
2e-05
-2.89122e-13
2e-05
-5.01173e-13
2e-05
-7.24123e-13
2e-05
-9.57379e-13
2e-05
-1.20073e-12
2e-05
-1.45401e-12
2e-05
-1.71716e-12
2e-05
-1.99019e-12
2e-05
-2.27319e-12
2e-05
-2.5663e-12
2e-05
-2.86969e-12
2e-05
-3.18356e-12
2e-05
-3.50816e-12
2e-05
-3.84369e-12
2e-05
-4.19039e-12
2e-05
-4.54849e-12
2e-05
-4.91819e-12
2e-05
-5.29971e-12
2e-05
-5.69323e-12
2e-05
-6.09892e-12
2e-05
-6.51695e-12
2e-05
-6.94744e-12
2e-05
-7.39053e-12
2e-05
-7.84632e-12
2e-05
-8.31489e-12
2e-05
-8.79632e-12
2e-05
-9.29065e-12
2e-05
-9.79794e-12
2e-05
-1.03182e-11
2e-05
-1.08514e-11
2e-05
-1.13976e-11
2e-05
-1.19568e-11
2e-05
-1.2529e-11
2e-05
-1.31141e-11
2e-05
-1.37121e-11
2e-05
-1.4323e-11
2e-05
-1.49468e-11
2e-05
-1.55836e-11
2e-05
-1.62332e-11
2e-05
-1.68958e-11
2e-05
-1.75716e-11
2e-05
-1.82605e-11
2e-05
-1.89628e-11
2e-05
-1.96787e-11
2e-05
-2.04085e-11
2e-05
-2.11527e-11
2e-05
-2.19117e-11
2e-05
-2.26861e-11
2e-05
-2.34768e-11
2e-05
-2.42845e-11
2e-05
-2.51104e-11
2e-05
-2.59557e-11
2e-05
-2.68218e-11
2e-05
-2.77106e-11
1.99999e-05
-2.8624e-11
1.99999e-05
-2.95642e-11
1.99999e-05
-3.05339e-11
1.99999e-05
-3.1536e-11
1.99999e-05
-3.25739e-11
1.99999e-05
-3.36514e-11
1.99999e-05
-3.47728e-11
1.99999e-05
-3.59429e-11
1.99999e-05
-3.7167e-11
1.99999e-05
-3.84511e-11
1.99999e-05
-3.98019e-11
1.99999e-05
-4.12266e-11
1.99999e-05
-4.27334e-11
1.99999e-05
-4.43311e-11
1.99999e-05
-4.60295e-11
1.99999e-05
-4.78391e-11
1.99999e-05
-4.97715e-11
1.99999e-05
-5.1839e-11
1.99999e-05
-5.40552e-11
1.99999e-05
-5.64344e-11
1.99999e-05
-5.8992e-11
1.99998e-05
-6.1744e-11
1.99998e-05
-6.47075e-11
1.99998e-05
-6.79003e-11
1.99998e-05
-7.13404e-11
1.99998e-05
-7.50462e-11
1.99998e-05
-7.9036e-11
1.99998e-05
-8.33275e-11
1.99998e-05
-8.79371e-11
1.99998e-05
-9.28792e-11
1.99998e-05
-9.81652e-11
1.99998e-05
-1.03802e-10
1.99998e-05
-1.09791e-10
1.99998e-05
-1.16125e-10
1.99997e-05
-1.22786e-10
1.99997e-05
-1.29742e-10
1.99997e-05
-1.36942e-10
1.99997e-05
-1.44314e-10
1.99997e-05
-1.51753e-10
1.99997e-05
-1.59117e-10
1.99997e-05
-1.66216e-10
1.99997e-05
-1.72799e-10
1.99997e-05
-1.78536e-10
1.99997e-05
-1.83005e-10
-1.85688e-10
2e-05
-8.49585e-14
2e-05
-2.7051e-13
2e-05
-4.69362e-13
2e-05
-6.78762e-13
2e-05
-8.98187e-13
2e-05
-1.12744e-12
2e-05
-1.36634e-12
2e-05
-1.61478e-12
2e-05
-1.87271e-12
2e-05
-2.14012e-12
2e-05
-2.41707e-12
2e-05
-2.70366e-12
2e-05
-3e-12
2e-05
-3.30623e-12
2e-05
-3.62251e-12
2e-05
-3.94897e-12
2e-05
-4.28576e-12
2e-05
-4.63302e-12
2e-05
-4.99087e-12
2e-05
-5.35943e-12
2e-05
-5.7388e-12
2e-05
-6.12905e-12
2e-05
-6.53026e-12
2e-05
-6.94245e-12
2e-05
-7.36567e-12
2e-05
-7.7999e-12
2e-05
-8.24515e-12
2e-05
-8.70138e-12
2e-05
-9.16855e-12
2e-05
-9.64658e-12
2e-05
-1.01354e-11
2e-05
-1.06349e-11
2e-05
-1.11451e-11
2e-05
-1.16657e-11
2e-05
-1.21966e-11
2e-05
-1.27378e-11
2e-05
-1.32892e-11
2e-05
-1.38506e-11
2e-05
-1.44218e-11
2e-05
-1.5003e-11
2e-05
-1.55939e-11
2e-05
-1.61946e-11
2e-05
-1.6805e-11
2e-05
-1.74254e-11
2e-05
-1.80557e-11
2e-05
-1.86962e-11
2e-05
-1.93471e-11
2e-05
-2.0009e-11
2e-05
-2.06822e-11
2e-05
-2.13675e-11
2e-05
-2.20656e-11
2e-05
-2.27775e-11
2e-05
-2.35044e-11
2e-05
-2.42476e-11
2e-05
-2.50089e-11
2e-05
-2.57901e-11
1.99999e-05
-2.65934e-11
1.99999e-05
-2.74215e-11
1.99999e-05
-2.82772e-11
1.99999e-05
-2.91639e-11
1.99999e-05
-3.00855e-11
1.99999e-05
-3.10462e-11
1.99999e-05
-3.20508e-11
1.99999e-05
-3.31049e-11
1.99999e-05
-3.42145e-11
1.99999e-05
-3.53864e-11
1.99999e-05
-3.6628e-11
1.99999e-05
-3.79477e-11
1.99999e-05
-3.93545e-11
1.99999e-05
-4.08586e-11
1.99999e-05
-4.24709e-11
1.99999e-05
-4.42032e-11
1.99999e-05
-4.60686e-11
1.99999e-05
-4.80809e-11
1.99999e-05
-5.02553e-11
1.99999e-05
-5.26077e-11
1.99999e-05
-5.51551e-11
1.99998e-05
-5.79153e-11
1.99998e-05
-6.09071e-11
1.99998e-05
-6.41497e-11
1.99998e-05
-6.76625e-11
1.99998e-05
-7.14652e-11
1.99998e-05
-7.55766e-11
1.99998e-05
-8.00148e-11
1.99998e-05
-8.47954e-11
1.99998e-05
-8.99315e-11
1.99998e-05
-9.54315e-11
1.99998e-05
-1.01298e-10
1.99998e-05
-1.07525e-10
1.99998e-05
-1.14095e-10
1.99997e-05
-1.20977e-10
1.99997e-05
-1.28122e-10
1.99997e-05
-1.35454e-10
1.99997e-05
-1.4287e-10
1.99997e-05
-1.50224e-10
1.99997e-05
-1.57324e-10
1.99997e-05
-1.63917e-10
1.99997e-05
-1.69669e-10
1.99997e-05
-1.74157e-10
-1.76849e-10
2e-05
-7.93391e-14
2e-05
-2.52927e-13
2e-05
-4.39234e-13
2e-05
-6.35674e-13
2e-05
-8.41786e-13
2e-05
-1.05739e-12
2e-05
-1.2823e-12
2e-05
-1.51638e-12
2e-05
-1.75951e-12
2e-05
-2.01164e-12
2e-05
-2.27276e-12
2e-05
-2.54288e-12
2e-05
-2.82205e-12
2e-05
-3.11032e-12
2e-05
-3.40777e-12
2e-05
-3.71447e-12
2e-05
-4.03049e-12
2e-05
-4.35589e-12
2e-05
-4.69073e-12
2e-05
-5.03504e-12
2e-05
-5.38886e-12
2e-05
-5.75218e-12
2e-05
-6.125e-12
2e-05
-6.50729e-12
2e-05
-6.89899e-12
2e-05
-7.30004e-12
2e-05
-7.71034e-12
2e-05
-8.12978e-12
2e-05
-8.55824e-12
2e-05
-8.99556e-12
2e-05
-9.44158e-12
2e-05
-9.89613e-12
2e-05
-1.0359e-11
2e-05
-1.083e-11
2e-05
-1.13089e-11
2e-05
-1.17955e-11
2e-05
-1.22896e-11
2e-05
-1.2791e-11
2e-05
-1.32995e-11
2e-05
-1.38149e-11
2e-05
-1.4337e-11
2e-05
-1.48657e-11
2e-05
-1.5401e-11
2e-05
-1.59428e-11
2e-05
-1.64911e-11
2e-05
-1.7046e-11
2e-05
-1.76078e-11
2e-05
-1.81767e-11
2e-05
-1.87531e-11
2e-05
-1.93376e-11
2e-05
-1.99309e-11
2e-05
-2.05339e-11
2e-05
-2.11476e-11
2e-05
-2.17734e-11
2e-05
-2.24128e-11
2e-05
-2.30678e-11
1.99999e-05
-2.37404e-11
1.99999e-05
-2.44332e-11
1.99999e-05
-2.51491e-11
1.99999e-05
-2.58915e-11
1.99999e-05
-2.66641e-11
1.99999e-05
-2.74713e-11
1.99999e-05
-2.8318e-11
1.99999e-05
-2.92096e-11
1.99999e-05
-3.01524e-11
1.99999e-05
-3.11532e-11
1.99999e-05
-3.22197e-11
1.99999e-05
-3.33603e-11
1.99999e-05
-3.45843e-11
1.99999e-05
-3.59022e-11
1.99999e-05
-3.7325e-11
1.99999e-05
-3.88652e-11
1.99999e-05
-4.05361e-11
1.99999e-05
-4.2352e-11
1.99999e-05
-4.43286e-11
1.99999e-05
-4.64825e-11
1.99999e-05
-4.88312e-11
1.99999e-05
-5.13935e-11
1.99998e-05
-5.41888e-11
1.99998e-05
-5.72372e-11
1.99998e-05
-6.05593e-11
1.99998e-05
-6.41756e-11
1.99998e-05
-6.81062e-11
1.99998e-05
-7.23702e-11
1.99998e-05
-7.69847e-11
1.99998e-05
-8.19636e-11
1.99998e-05
-8.73167e-11
1.99998e-05
-9.30475e-11
1.99998e-05
-9.91511e-11
1.99998e-05
-1.05611e-10
1.99998e-05
-1.12398e-10
1.99997e-05
-1.1946e-10
1.99997e-05
-1.26724e-10
1.99997e-05
-1.34083e-10
1.99997e-05
-1.41394e-10
1.99997e-05
-1.48463e-10
1.99997e-05
-1.55032e-10
1.99997e-05
-1.60771e-10
1.99997e-05
-1.65253e-10
-1.67941e-10
2e-05
-7.40297e-14
2e-05
-2.36288e-13
2e-05
-4.10668e-13
2e-05
-5.94724e-13
2e-05
-7.88047e-13
2e-05
-9.90477e-13
2e-05
-1.20183e-12
2e-05
-1.42193e-12
2e-05
-1.65064e-12
2e-05
-1.88786e-12
2e-05
-2.13351e-12
2e-05
-2.38755e-12
2e-05
-2.64994e-12
2e-05
-2.92069e-12
2e-05
-3.19979e-12
2e-05
-3.48725e-12
2e-05
-3.78307e-12
2e-05
-4.08724e-12
2e-05
-4.39974e-12
2e-05
-4.72055e-12
2e-05
-5.04962e-12
2e-05
-5.38689e-12
2e-05
-5.73228e-12
2e-05
-6.08568e-12
2e-05
-6.44698e-12
2e-05
-6.81602e-12
2e-05
-7.19265e-12
2e-05
-7.57668e-12
2e-05
-7.96789e-12
2e-05
-8.36606e-12
2e-05
-8.77095e-12
2e-05
-9.1823e-12
2e-05
-9.59982e-12
2e-05
-1.00232e-11
2e-05
-1.04522e-11
2e-05
-1.08865e-11
2e-05
-1.13258e-11
2e-05
-1.17698e-11
2e-05
-1.22181e-11
2e-05
-1.26706e-11
2e-05
-1.3127e-11
2e-05
-1.35869e-11
2e-05
-1.40504e-11
2e-05
-1.45172e-11
2e-05
-1.49873e-11
2e-05
-1.54606e-11
2e-05
-1.59373e-11
2e-05
-1.64176e-11
2e-05
-1.69017e-11
2e-05
-1.73902e-11
2e-05
-1.78837e-11
2e-05
-1.83829e-11
2e-05
-1.88889e-11
2e-05
-1.9403e-11
2e-05
-1.99265e-11
2e-05
-2.04613e-11
2e-05
-2.10096e-11
1.99999e-05
-2.15737e-11
1.99999e-05
-2.21567e-11
1.99999e-05
-2.27617e-11
1.99999e-05
-2.33927e-11
1.99999e-05
-2.40538e-11
1.99999e-05
-2.47502e-11
1.99999e-05
-2.54872e-11
1.99999e-05
-2.62712e-11
1.99999e-05
-2.71091e-11
1.99999e-05