/*--------------------------------*- C++ -*----------------------------------*\
  =========                 |
  \\      /  F ield         | OpenFOAM: The Open Source CFD Toolbox
   \\    /   O peration     | Website:  https://openfoam.org
    \\  /    A nd           | Version:  11
     \\/     M anipulation  |
\*---------------------------------------------------------------------------*/
FoamFile
{
    format      ascii;
    class       volVectorField;
    location    "770";
    object      U;
}
// * * * * * * * * * * * * * * * * * * * * * * * * * * * * * * * * * * * * * //

dimensions      [0 1 -1 0 0 0 0];

internalField   nonuniform List<vector> 
10000
(
(0.005 -1.1369e-08 0)
(0.005 -3.06587e-08 0)
(0.00499999 -4.87261e-08 0)
(0.00499999 -6.64808e-08 0)
(0.00499998 -8.45022e-08 0)
(0.00499997 -1.03219e-07 0)
(0.00499996 -1.22962e-07 0)
(0.00499995 -1.44009e-07 0)
(0.00499994 -1.66604e-07 0)
(0.00499993 -1.9098e-07 0)
(0.00499991 -2.17361e-07 0)
(0.0049999 -2.45969e-07 0)
(0.00499988 -2.77032e-07 0)
(0.00499986 -3.10779e-07 0)
(0.00499984 -3.47452e-07 0)
(0.00499981 -3.87299e-07 0)
(0.00499979 -4.3058e-07 0)
(0.00499976 -4.77566e-07 0)
(0.00499973 -5.28542e-07 0)
(0.0049997 -5.83806e-07 0)
(0.00499966 -6.43673e-07 0)
(0.00499962 -7.08471e-07 0)
(0.00499958 -7.78547e-07 0)
(0.00499954 -8.54264e-07 0)
(0.00499949 -9.36003e-07 0)
(0.00499944 -1.02416e-06 0)
(0.00499938 -1.11917e-06 0)
(0.00499932 -1.22145e-06 0)
(0.00499925 -1.33148e-06 0)
(0.00499918 -1.44973e-06 0)
(0.0049991 -1.57672e-06 0)
(0.00499902 -1.71296e-06 0)
(0.00499894 -1.85901e-06 0)
(0.00499884 -2.01544e-06 0)
(0.00499874 -2.18286e-06 0)
(0.00499864 -2.36189e-06 0)
(0.00499852 -2.55317e-06 0)
(0.0049984 -2.75738e-06 0)
(0.00499827 -2.97523e-06 0)
(0.00499813 -3.20744e-06 0)
(0.00499799 -3.45476e-06 0)
(0.00499783 -3.71799e-06 0)
(0.00499766 -3.99792e-06 0)
(0.00499749 -4.29539e-06 0)
(0.0049973 -4.61126e-06 0)
(0.0049971 -4.94643e-06 0)
(0.00499689 -5.30181e-06 0)
(0.00499667 -5.67833e-06 0)
(0.00499643 -6.07696e-06 0)
(0.00499618 -6.49869e-06 0)
(0.00499592 -6.94454e-06 0)
(0.00499564 -7.41554e-06 0)
(0.00499534 -7.91275e-06 0)
(0.00499503 -8.43723e-06 0)
(0.00499471 -8.99009e-06 0)
(0.00499436 -9.57243e-06 0)
(0.004994 -1.01854e-05 0)
(0.00499361 -1.08301e-05 0)
(0.00499321 -1.15076e-05 0)
(0.00499279 -1.22192e-05 0)
(0.00499235 -1.29659e-05 0)
(0.00499188 -1.37489e-05 0)
(0.00499139 -1.45693e-05 0)
(0.00499088 -1.54283e-05 0)
(0.00499035 -1.63269e-05 0)
(0.00498979 -1.72661e-05 0)
(0.00498921 -1.82471e-05 0)
(0.0049886 -1.92707e-05 0)
(0.00498797 -2.03378e-05 0)
(0.0049873 -2.14494e-05 0)
(0.00498662 -2.26061e-05 0)
(0.0049859 -2.38087e-05 0)
(0.00498516 -2.50576e-05 0)
(0.00498439 -2.63533e-05 0)
(0.00498359 -2.76959e-05 0)
(0.00498277 -2.90855e-05 0)
(0.00498192 -3.05218e-05 0)
(0.00498104 -3.20045e-05 0)
(0.00498013 -3.35326e-05 0)
(0.00497921 -3.51051e-05 0)
(0.00497825 -3.67202e-05 0)
(0.00497728 -3.83759e-05 0)
(0.00497628 -4.00694e-05 0)
(0.00497527 -4.17971e-05 0)
(0.00497424 -4.35547e-05 0)
(0.0049732 -4.53367e-05 0)
(0.00497215 -4.71364e-05 0)
(0.0049711 -4.89455e-05 0)
(0.00497005 -5.07541e-05 0)
(0.00496901 -5.255e-05 0)
(0.00496798 -5.43184e-05 0)
(0.00496697 -5.60417e-05 0)
(0.00496599 -5.76983e-05 0)
(0.00496506 -5.9263e-05 0)
(0.00496418 -6.07053e-05 0)
(0.00496337 -6.19901e-05 0)
(0.00496264 -6.30763e-05 0)
(0.00496202 -6.39173e-05 0)
(0.00496152 -6.44716e-05 0)
(0.00496113 -6.4746e-05 0)
(0.005 -9.05688e-09 0)
(0.005 -2.63023e-08 0)
(0.00499999 -4.30388e-08 0)
(0.00499999 -5.9574e-08 0)
(0.00499998 -7.63901e-08 0)
(0.00499997 -9.38688e-08 0)
(0.00499996 -1.12315e-07 0)
(0.00499995 -1.31989e-07 0)
(0.00499994 -1.53125e-07 0)
(0.00499993 -1.75945e-07 0)
(0.00499991 -2.00662e-07 0)
(0.0049999 -2.27492e-07 0)
(0.00499988 -2.56652e-07 0)
(0.00499986 -2.88364e-07 0)
(0.00499984 -3.2286e-07 0)
(0.00499982 -3.60379e-07 0)
(0.00499979 -4.0117e-07 0)
(0.00499976 -4.45497e-07 0)
(0.00499973 -4.93632e-07 0)
(0.0049997 -5.45866e-07 0)
(0.00499966 -6.02499e-07 0)
(0.00499963 -6.6385e-07 0)
(0.00499958 -7.30254e-07 0)
(0.00499954 -8.02061e-07 0)
(0.00499949 -8.7964e-07 0)
(0.00499944 -9.63378e-07 0)
(0.00499938 -1.05368e-06 0)
(0.00499932 -1.15098e-06 0)
(0.00499925 -1.25571e-06 0)
(0.00499918 -1.36835e-06 0)
(0.00499911 -1.48938e-06 0)
(0.00499903 -1.61932e-06 0)
(0.00499894 -1.7587e-06 0)
(0.00499885 -1.90808e-06 0)
(0.00499875 -2.06805e-06 0)
(0.00499864 -2.2392e-06 0)
(0.00499853 -2.42217e-06 0)
(0.00499841 -2.61762e-06 0)
(0.00499828 -2.82624e-06 0)
(0.00499814 -3.04872e-06 0)
(0.004998 -3.28581e-06 0)
(0.00499784 -3.53827e-06 0)
(0.00499767 -3.80689e-06 0)
(0.0049975 -4.09248e-06 0)
(0.00499731 -4.39589e-06 0)
(0.00499711 -4.71799e-06 0)
(0.0049969 -5.05967e-06 0)
(0.00499668 -5.42185e-06 0)
(0.00499645 -5.80548e-06 0)
(0.0049962 -6.21154e-06 0)
(0.00499593 -6.64101e-06 0)
(0.00499566 -7.09493e-06 0)
(0.00499536 -7.57432e-06 0)
(0.00499505 -8.08025e-06 0)
(0.00499473 -8.6138e-06 0)
(0.00499438 -9.17608e-06 0)
(0.00499402 -9.76818e-06 0)
(0.00499364 -1.03912e-05 0)
(0.00499324 -1.10464e-05 0)
(0.00499282 -1.17348e-05 0)
(0.00499238 -1.24576e-05 0)
(0.00499191 -1.32158e-05 0)
(0.00499143 -1.40108e-05 0)
(0.00499092 -1.48435e-05 0)
(0.00499039 -1.57152e-05 0)
(0.00498983 -1.66268e-05 0)
(0.00498925 -1.75794e-05 0)
(0.00498864 -1.85741e-05 0)
(0.00498801 -1.96119e-05 0)
(0.00498735 -2.06935e-05 0)
(0.00498666 -2.182e-05 0)
(0.00498595 -2.29919e-05 0)
(0.00498521 -2.421e-05 0)
(0.00498444 -2.54747e-05 0)
(0.00498365 -2.67865e-05 0)
(0.00498283 -2.81455e-05 0)
(0.00498198 -2.95517e-05 0)
(0.0049811 -3.10048e-05 0)
(0.0049802 -3.25043e-05 0)
(0.00497927 -3.40494e-05 0)
(0.00497832 -3.56386e-05 0)
(0.00497735 -3.72703e-05 0)
(0.00497636 -3.8942e-05 0)
(0.00497535 -4.06508e-05 0)
(0.00497432 -4.23928e-05 0)
(0.00497328 -4.41631e-05 0)
(0.00497224 -4.59556e-05 0)
(0.00497118 -4.7763e-05 0)
(0.00497013 -4.95762e-05 0)
(0.00496909 -5.13838e-05 0)
(0.00496806 -5.31722e-05 0)
(0.00496705 -5.49251e-05 0)
(0.00496607 -5.66223e-05 0)
(0.00496513 -5.82402e-05 0)
(0.00496424 -5.97503e-05 0)
(0.00496341 -6.11194e-05 0)
(0.00496267 -6.23088e-05 0)
(0.00496202 -6.32739e-05 0)
(0.00496145 -6.39685e-05 0)
(0.00496094 -6.43665e-05 0)
(0.005 -7.20222e-09 0)
(0.005 -2.22586e-08 0)
(0.00499999 -3.74572e-08 0)
(0.00499999 -5.27068e-08 0)
(0.00499998 -6.83037e-08 0)
(0.00499997 -8.45543e-08 0)
(0.00499996 -1.01726e-07 0)
(0.00499995 -1.20056e-07 0)
(0.00499994 -1.39767e-07 0)
(0.00499993 -1.61067e-07 0)
(0.00499991 -1.84162e-07 0)
(0.0049999 -2.09258e-07 0)
(0.00499988 -2.36563e-07 0)
(0.00499986 -2.66293e-07 0)
(0.00499984 -2.98668e-07 0)
(0.00499982 -3.33919e-07 0)
(0.00499979 -3.72289e-07 0)
(0.00499977 -4.14027e-07 0)
(0.00499974 -4.59401e-07 0)
(0.0049997 -5.08686e-07 0)
(0.00499967 -5.62177e-07 0)
(0.00499963 -6.20178e-07 0)
(0.00499959 -6.83014e-07 0)
(0.00499954 -7.51024e-07 0)
(0.0049995 -8.24564e-07 0)
(0.00499944 -9.04009e-07 0)
(0.00499939 -9.89752e-07 0)
(0.00499933 -1.0822e-06 0)
(0.00499926 -1.1818e-06 0)
(0.00499919 -1.28899e-06 0)
(0.00499912 -1.40426e-06 0)
(0.00499904 -1.52809e-06 0)
(0.00499895 -1.66101e-06 0)
(0.00499886 -1.80355e-06 0)
(0.00499876 -1.9563e-06 0)
(0.00499865 -2.11983e-06 0)
(0.00499854 -2.29475e-06 0)
(0.00499842 -2.48172e-06 0)
(0.00499829 -2.6814e-06 0)
(0.00499816 -2.89447e-06 0)
(0.00499801 -3.12165e-06 0)
(0.00499786 -3.3637e-06 0)
(0.00499769 -3.62137e-06 0)
(0.00499752 -3.89548e-06 0)
(0.00499733 -4.18683e-06 0)
(0.00499714 -4.49629e-06 0)
(0.00499693 -4.82472e-06 0)
(0.00499671 -5.17304e-06 0)
(0.00499647 -5.54218e-06 0)
(0.00499623 -5.93308e-06 0)
(0.00499597 -6.34674e-06 0)
(0.00499569 -6.78414e-06 0)
(0.0049954 -7.24633e-06 0)
(0.00499509 -7.73434e-06 0)
(0.00499477 -8.24926e-06 0)
(0.00499442 -8.79215e-06 0)
(0.00499406 -9.36414e-06 0)
(0.00499369 -9.96634e-06 0)
(0.00499329 -1.05999e-05 0)
(0.00499287 -1.12659e-05 0)
(0.00499243 -1.19655e-05 0)
(0.00499197 -1.27e-05 0)
(0.00499149 -1.34703e-05 0)
(0.00499098 -1.42778e-05 0)
(0.00499045 -1.51234e-05 0)
(0.0049899 -1.60084e-05 0)
(0.00498932 -1.69338e-05 0)
(0.00498872 -1.79006e-05 0)
(0.00498809 -1.891e-05 0)
(0.00498744 -1.99628e-05 0)
(0.00498675 -2.106e-05 0)
(0.00498605 -2.22024e-05 0)
(0.00498531 -2.33908e-05 0)
(0.00498455 -2.46257e-05 0)
(0.00498376 -2.59078e-05 0)
(0.00498294 -2.72373e-05 0)
(0.00498209 -2.86144e-05 0)
(0.00498122 -3.0039e-05 0)
(0.00498032 -3.15109e-05 0)
(0.0049794 -3.30295e-05 0)
(0.00497846 -3.45937e-05 0)
(0.00497749 -3.62021e-05 0)
(0.0049765 -3.78528e-05 0)
(0.00497549 -3.95431e-05 0)
(0.00497447 -4.12698e-05 0)
(0.00497343 -4.30284e-05 0)
(0.00497239 -4.48137e-05 0)
(0.00497134 -4.66189e-05 0)
(0.00497028 -4.84357e-05 0)
(0.00496924 -5.02536e-05 0)
(0.0049682 -5.20602e-05 0)
(0.00496719 -5.38399e-05 0)
(0.0049662 -5.5574e-05 0)
(0.00496525 -5.724e-05 0)
(0.00496434 -5.88105e-05 0)
(0.00496349 -6.02534e-05 0)
(0.00496271 -6.15303e-05 0)
(0.00496201 -6.25951e-05 0)
(0.00496134 -6.33969e-05 0)
(0.00496072 -6.38887e-05 0)
(0.005 -5.93009e-09 0)
(0.005 -1.90235e-08 0)
(0.00499999 -3.26825e-08 0)
(0.00499999 -4.6638e-08 0)
(0.00499998 -6.10484e-08 0)
(0.00499997 -7.61388e-08 0)
(0.00499997 -9.2129e-08 0)
(0.00499996 -1.09229e-07 0)
(0.00499994 -1.27642e-07 0)
(0.00499993 -1.47563e-07 0)
(0.00499992 -1.69189e-07 0)
(0.0049999 -1.92715e-07 0)
(0.00499988 -2.18342e-07 0)
(0.00499987 -2.46277e-07 0)
(0.00499984 -2.76733e-07 0)
(0.00499982 -3.09933e-07 0)
(0.0049998 -3.46109e-07 0)
(0.00499977 -3.85504e-07 0)
(0.00499974 -4.28375e-07 0)
(0.00499971 -4.74991e-07 0)
(0.00499967 -5.25633e-07 0)
(0.00499964 -5.80599e-07 0)
(0.00499959 -6.40201e-07 0)
(0.00499955 -7.04768e-07 0)
(0.0049995 -7.74646e-07 0)
(0.00499945 -8.50197e-07 0)
(0.0049994 -9.31803e-07 0)
(0.00499934 -1.01986e-06 0)
(0.00499927 -1.1148e-06 0)
(0.0049992 -1.21705e-06 0)
(0.00499913 -1.32708e-06 0)
(0.00499905 -1.44537e-06 0)
(0.00499896 -1.57242e-06 0)
(0.00499887 -1.70877e-06 0)
(0.00499877 -1.85495e-06 0)
(0.00499867 -2.01156e-06 0)
(0.00499856 -2.17918e-06 0)
(0.00499844 -2.35845e-06 0)
(0.00499831 -2.55e-06 0)
(0.00499818 -2.75452e-06 0)
(0.00499804 -2.97271e-06 0)
(0.00499788 -3.2053e-06 0)
(0.00499772 -3.45303e-06 0)
(0.00499755 -3.71669e-06 0)
(0.00499736 -3.99709e-06 0)
(0.00499717 -4.29506e-06 0)
(0.00499696 -4.61146e-06 0)
(0.00499674 -4.94719e-06 0)
(0.00499651 -5.30314e-06 0)
(0.00499627 -5.68027e-06 0)
(0.00499601 -6.07954e-06 0)
(0.00499574 -6.50194e-06 0)
(0.00499545 -6.94848e-06 0)
(0.00499514 -7.4202e-06 0)
(0.00499482 -7.91815e-06 0)
(0.00499448 -8.44343e-06 0)
(0.00499413 -8.99711e-06 0)
(0.00499375 -9.58032e-06 0)
(0.00499336 -1.01942e-05 0)
(0.00499294 -1.08399e-05 0)
(0.00499251 -1.15185e-05 0)
(0.00499205 -1.22312e-05 0)
(0.00499157 -1.29792e-05 0)
(0.00499107 -1.37636e-05 0)
(0.00499055 -1.45855e-05 0)
(0.00499 -1.54462e-05 0)
(0.00498943 -1.63468e-05 0)
(0.00498883 -1.72882e-05 0)
(0.00498821 -1.82717e-05 0)
(0.00498756 -1.92982e-05 0)
(0.00498688 -2.03688e-05 0)
(0.00498618 -2.14842e-05 0)
(0.00498545 -2.26455e-05 0)
(0.00498469 -2.38532e-05 0)
(0.00498391 -2.5108e-05 0)
(0.00498309 -2.64105e-05 0)
(0.00498226 -2.77609e-05 0)
(0.00498139 -2.91595e-05 0)
(0.0049805 -3.0606e-05 0)
(0.00497958 -3.21001e-05 0)
(0.00497864 -3.36412e-05 0)
(0.00497768 -3.5228e-05 0)
(0.0049767 -3.6859e-05 0)
(0.00497569 -3.85319e-05 0)
(0.00497468 -4.02439e-05 0)
(0.00497364 -4.19911e-05 0)
(0.0049726 -4.37688e-05 0)
(0.00497155 -4.55707e-05 0)
(0.0049705 -4.73891e-05 0)
(0.00496945 -4.92146e-05 0)
(0.00496841 -5.10352e-05 0)
(0.00496739 -5.28362e-05 0)
(0.00496639 -5.45998e-05 0)
(0.00496542 -5.63039e-05 0)
(0.00496449 -5.79218e-05 0)
(0.00496361 -5.9421e-05 0)
(0.00496278 -6.07618e-05 0)
(0.00496202 -6.18951e-05 0)
(0.00496127 -6.27633e-05 0)
(0.00496051 -6.33123e-05 0)
(0.005 -4.92389e-09 0)
(0.005 -1.62107e-08 0)
(0.00499999 -2.83179e-08 0)
(0.00499999 -4.09197e-08 0)
(0.00499998 -5.40888e-08 0)
(0.00499998 -6.79823e-08 0)
(0.00499997 -8.2773e-08 0)
(0.00499996 -9.86393e-08 0)
(0.00499995 -1.15761e-07 0)
(0.00499993 -1.34319e-07 0)
(0.00499992 -1.54496e-07 0)
(0.0049999 -1.76478e-07 0)
(0.00499989 -2.00457e-07 0)
(0.00499987 -2.26629e-07 0)
(0.00499985 -2.55202e-07 0)
(0.00499983 -2.86387e-07 0)
(0.0049998 -3.2041e-07 0)
(0.00499977 -3.57505e-07 0)
(0.00499975 -3.97919e-07 0)
(0.00499971 -4.41913e-07 0)
(0.00499968 -4.89757e-07 0)
(0.00499964 -5.41741e-07 0)
(0.0049996 -5.98166e-07 0)
(0.00499956 -6.5935e-07 0)
(0.00499951 -7.25628e-07 0)
(0.00499946 -7.97351e-07 0)
(0.00499941 -8.7489e-07 0)
(0.00499935 -9.58632e-07 0)
(0.00499928 -1.04899e-06 0)
(0.00499922 -1.14638e-06 0)
(0.00499914 -1.25125e-06 0)
(0.00499906 -1.36409e-06 0)
(0.00499898 -1.48537e-06 0)
(0.00499889 -1.6156e-06 0)
(0.00499879 -1.75534e-06 0)
(0.00499869 -1.90513e-06 0)
(0.00499858 -2.06556e-06 0)
(0.00499846 -2.23724e-06 0)
(0.00499834 -2.4208e-06 0)
(0.00499821 -2.6169e-06 0)
(0.00499806 -2.82623e-06 0)
(0.00499791 -3.04949e-06 0)
(0.00499775 -3.28742e-06 0)
(0.00499758 -3.5408e-06 0)
(0.0049974 -3.8104e-06 0)
(0.00499721 -4.09705e-06 0)
(0.00499701 -4.40159e-06 0)
(0.00499679 -4.72489e-06 0)
(0.00499656 -5.06785e-06 0)
(0.00499632 -5.4314e-06 0)
(0.00499606 -5.81648e-06 0)
(0.00499579 -6.22407e-06 0)
(0.00499551 -6.65518e-06 0)
(0.00499521 -7.11082e-06 0)
(0.00499489 -7.59204e-06 0)
(0.00499456 -8.09991e-06 0)
(0.0049942 -8.63553e-06 0)
(0.00499383 -9.2e-06 0)
(0.00499344 -9.79444e-06 0)
(0.00499304 -1.042e-05 0)
(0.00499261 -1.10778e-05 0)
(0.00499215 -1.17691e-05 0)
(0.00499168 -1.2495e-05 0)
(0.00499119 -1.32566e-05 0)
(0.00499067 -1.40552e-05 0)
(0.00499013 -1.48919e-05 0)
(0.00498956 -1.57678e-05 0)
(0.00498897 -1.66842e-05 0)
(0.00498835 -1.7642e-05 0)
(0.00498771 -1.86425e-05 0)
(0.00498704 -1.96866e-05 0)
(0.00498634 -2.07754e-05 0)
(0.00498562 -2.19096e-05 0)
(0.00498487 -2.30903e-05 0)
(0.00498409 -2.43182e-05 0)
(0.00498329 -2.55938e-05 0)
(0.00498246 -2.69176e-05 0)
(0.0049816 -2.82901e-05 0)
(0.00498072 -2.97112e-05 0)
(0.00497981 -3.11808e-05 0)
(0.00497888 -3.26985e-05 0)
(0.00497792 -3.42635e-05 0)
(0.00497694 -3.58744e-05 0)
(0.00497595 -3.75294e-05 0)
(0.00497493 -3.9226e-05 0)
(0.00497391 -4.09609e-05 0)
(0.00497287 -4.27297e-05 0)
(0.00497182 -4.45267e-05 0)
(0.00497077 -4.6345e-05 0)
(0.00496972 -4.81755e-05 0)
(0.00496867 -5.00069e-05 0)
(0.00496764 -5.18253e-05 0)
(0.00496663 -5.36132e-05 0)
(0.00496564 -5.53489e-05 0)
(0.00496468 -5.70056e-05 0)
(0.00496376 -5.85501e-05 0)
(0.00496289 -5.99407e-05 0)
(0.00496206 -6.11244e-05 0)
(0.00496123 -6.20362e-05 0)
(0.00496036 -6.26218e-05 0)
(0.005 -4.05965e-09 0)
(0.005 -1.36832e-08 0)
(0.005 -2.42736e-08 0)
(0.00499999 -3.54992e-08 0)
(0.00499998 -4.73867e-08 0)
(0.00499998 -6.00448e-08 0)
(0.00499997 -7.36065e-08 0)
(0.00499996 -8.82195e-08 0)
(0.00499995 -1.0404e-07 0)
(0.00499994 -1.21233e-07 0)
(0.00499992 -1.39965e-07 0)
(0.00499991 -1.60412e-07 0)
(0.00499989 -1.82755e-07 0)
(0.00499987 -2.07181e-07 0)
(0.00499985 -2.33887e-07 0)
(0.00499983 -2.63079e-07 0)
(0.00499981 -2.94971e-07 0)
(0.00499978 -3.2979e-07 0)
(0.00499975 -3.67773e-07 0)
(0.00499972 -4.09171e-07 0)
(0.00499969 -4.54248e-07 0)
(0.00499965 -5.0328e-07 0)
(0.00499961 -5.56559e-07 0)
(0.00499957 -6.14394e-07 0)
(0.00499952 -6.77108e-07 0)
(0.00499947 -7.45041e-07 0)
(0.00499942 -8.18551e-07 0)
(0.00499936 -8.98015e-07 0)
(0.0049993 -9.83827e-07 0)
(0.00499923 -1.0764e-06 0)
(0.00499916 -1.17618e-06 0)
(0.00499908 -1.2836e-06 0)
(0.004999 -1.39916e-06 0)
(0.00499891 -1.52335e-06 0)
(0.00499882 -1.65668e-06 0)
(0.00499871 -1.79972e-06 0)
(0.00499861 -1.95301e-06 0)
(0.00499849 -2.11717e-06 0)
(0.00499837 -2.2928e-06 0)
(0.00499824 -2.48054e-06 0)
(0.0049981 -2.68107e-06 0)
(0.00499795 -2.89509e-06 0)
(0.00499779 -3.1233e-06 0)
(0.00499762 -3.36646e-06 0)
(0.00499745 -3.62535e-06 0)
(0.00499726 -3.90076e-06 0)
(0.00499706 -4.19352e-06 0)
(0.00499684 -4.50448e-06 0)
(0.00499662 -4.83454e-06 0)
(0.00499638 -5.18459e-06 0)
(0.00499613 -5.55558e-06 0)
(0.00499586 -5.94846e-06 0)
(0.00499558 -6.36423e-06 0)
(0.00499529 -6.80389e-06 0)
(0.00499497 -7.26848e-06 0)
(0.00499464 -7.75906e-06 0)
(0.0049943 -8.27671e-06 0)
(0.00499393 -8.82254e-06 0)
(0.00499355 -9.39767e-06 0)
(0.00499314 -1.00032e-05 0)
(0.00499272 -1.06404e-05 0)
(0.00499228 -1.13103e-05 0)
(0.00499181 -1.20141e-05 0)
(0.00499132 -1.27531e-05 0)
(0.00499081 -1.35284e-05 0)
(0.00499027 -1.43411e-05 0)
(0.00498972 -1.51926e-05 0)
(0.00498913 -1.60839e-05 0)
(0.00498852 -1.70162e-05 0)
(0.00498789 -1.79907e-05 0)
(0.00498723 -1.90084e-05 0)
(0.00498654 -2.00705e-05 0)
(0.00498583 -2.11778e-05 0)
(0.00498509 -2.23315e-05 0)
(0.00498432 -2.35322e-05 0)
(0.00498352 -2.47808e-05 0)
(0.0049827 -2.6078e-05 0)
(0.00498185 -2.74242e-05 0)
(0.00498098 -2.88196e-05 0)
(0.00498008 -3.02644e-05 0)
(0.00497915 -3.17584e-05 0)
(0.00497821 -3.3301e-05 0)
(0.00497724 -3.48912e-05 0)
(0.00497625 -3.65274e-05 0)
(0.00497524 -3.82077e-05 0)
(0.00497422 -3.9929e-05 0)
(0.00497318 -4.16874e-05 0)
(0.00497213 -4.34778e-05 0)
(0.00497108 -4.52936e-05 0)
(0.00497003 -4.71264e-05 0)
(0.00496898 -4.89653e-05 0)
(0.00496794 -5.07968e-05 0)
(0.00496691 -5.26037e-05 0)
(0.0049659 -5.43645e-05 0)
(0.00496491 -5.6052e-05 0)
(0.00496396 -5.7632e-05 0)
(0.00496303 -5.90608e-05 0)
(0.00496214 -6.02823e-05 0)
(0.00496124 -6.12256e-05 0)
(0.00496025 -6.18251e-05 0)
(0.005 -3.30031e-09 0)
(0.005 -1.1405e-08 0)
(0.005 -2.05469e-08 0)
(0.00499999 -3.04134e-08 0)
(0.00499999 -4.1011e-08 0)
(0.00499998 -5.24175e-08 0)
(0.00499997 -6.47355e-08 0)
(0.00499996 -7.80863e-08 0)
(0.00499995 -9.26049e-08 0)
(0.00499994 -1.08437e-07 0)
(0.00499993 -1.25737e-07 0)
(0.00499991 -1.44666e-07 0)
(0.00499989 -1.65394e-07 0)
(0.00499988 -1.881e-07 0)
(0.00499986 -2.12971e-07 0)
(0.00499984 -2.40203e-07 0)
(0.00499981 -2.70001e-07 0)
(0.00499979 -3.02584e-07 0)
(0.00499976 -3.3818e-07 0)
(0.00499973 -3.77029e-07 0)
(0.00499969 -4.19387e-07 0)
(0.00499966 -4.6552e-07 0)
(0.00499962 -5.1571e-07 0)
(0.00499958 -5.70254e-07 0)
(0.00499953 -6.29466e-07 0)
(0.00499948 -6.93674e-07 0)
(0.00499943 -7.63225e-07 0)
(0.00499937 -8.38483e-07 0)
(0.00499931 -9.19831e-07 0)
(0.00499925 -1.00767e-06 0)
(0.00499918 -1.10242e-06 0)
(0.0049991 -1.20453e-06 0)
(0.00499902 -1.31446e-06 0)
(0.00499893 -1.43269e-06 0)
(0.00499884 -1.55973e-06 0)
(0.00499874 -1.69611e-06 0)
(0.00499864 -1.84239e-06 0)
(0.00499852 -1.99914e-06 0)
(0.0049984 -2.16696e-06 0)
(0.00499827 -2.34647e-06 0)
(0.00499814 -2.53835e-06 0)
(0.00499799 -2.74325e-06 0)
(0.00499784 -2.96188e-06 0)
(0.00499767 -3.19498e-06 0)
(0.0049975 -3.4433e-06 0)
(0.00499731 -3.70763e-06 0)
(0.00499712 -3.98878e-06 0)
(0.00499691 -4.28758e-06 0)
(0.00499669 -4.60491e-06 0)
(0.00499645 -4.94166e-06 0)
(0.0049962 -5.29874e-06 0)
(0.00499594 -5.67711e-06 0)
(0.00499567 -6.07774e-06 0)
(0.00499538 -6.50163e-06 0)
(0.00499507 -6.9498e-06 0)
(0.00499474 -7.42331e-06 0)
(0.0049944 -7.92323e-06 0)
(0.00499404 -8.45065e-06 0)
(0.00499367 -9.00669e-06 0)
(0.00499327 -9.59248e-06 0)
(0.00499285 -1.02092e-05 0)
(0.00499241 -1.0858e-05 0)
(0.00499196 -1.15401e-05 0)
(0.00499147 -1.22566e-05 0)
(0.00499097 -1.30088e-05 0)
(0.00499044 -1.37979e-05 0)
(0.00498989 -1.46251e-05 0)
(0.00498932 -1.54916e-05 0)
(0.00498872 -1.63986e-05 0)
(0.00498809 -1.73473e-05 0)
(0.00498744 -1.83388e-05 0)
(0.00498676 -1.93743e-05 0)
(0.00498606 -2.04549e-05 0)
(0.00498533 -2.15816e-05 0)
(0.00498457 -2.27553e-05 0)
(0.00498379 -2.3977e-05 0)
(0.00498298 -2.52474e-05 0)
(0.00498214 -2.65672e-05 0)
(0.00498127 -2.79368e-05 0)
(0.00498038 -2.93566e-05 0)
(0.00497947 -3.08264e-05 0)
(0.00497853 -3.23461e-05 0)
(0.00497757 -3.39149e-05 0)
(0.00497659 -3.55316e-05 0)
(0.00497558 -3.71945e-05 0)
(0.00497457 -3.89008e-05 0)
(0.00497353 -4.06472e-05 0)
(0.00497249 -4.24289e-05 0)
(0.00497144 -4.42398e-05 0)
(0.00497038 -4.60717e-05 0)
(0.00496932 -4.79143e-05 0)
(0.00496827 -4.97543e-05 0)
(0.00496722 -5.15746e-05 0)
(0.00496619 -5.33537e-05 0)
(0.00496518 -5.50639e-05 0)
(0.00496418 -5.66701e-05 0)
(0.00496321 -5.81268e-05 0)
(0.00496226 -5.93753e-05 0)
(0.00496129 -6.03407e-05 0)
(0.00496021 -6.09345e-05 0)
(0.005 -2.6221e-09 0)
(0.005 -9.33742e-09 0)
(0.005 -1.71111e-08 0)
(0.00499999 -2.56592e-08 0)
(0.00499999 -3.49822e-08 0)
(0.00499998 -4.51397e-08 0)
(0.00499997 -5.62128e-08 0)
(0.00499996 -6.83018e-08 0)
(0.00499995 -8.15228e-08 0)
(0.00499994 -9.60045e-08 0)
(0.00499993 -1.11887e-07 0)
(0.00499991 -1.29319e-07 0)
(0.0049999 -1.48459e-07 0)
(0.00499988 -1.69476e-07 0)
(0.00499986 -1.92547e-07 0)
(0.00499984 -2.17858e-07 0)
(0.00499982 -2.45606e-07 0)
(0.00499979 -2.76e-07 0)
(0.00499977 -3.09259e-07 0)
(0.00499974 -3.45614e-07 0)
(0.0049997 -3.85311e-07 0)
(0.00499967 -4.28606e-07 0)
(0.00499963 -4.75773e-07 0)
(0.00499959 -5.27096e-07 0)
(0.00499955 -5.82879e-07 0)
(0.0049995 -6.4344e-07 0)
(0.00499945 -7.09114e-07 0)
(0.00499939 -7.80253e-07 0)
(0.00499933 -8.57228e-07 0)
(0.00499927 -9.40428e-07 0)
(0.0049992 -1.03026e-06 0)
(0.00499912 -1.12716e-06 0)
(0.00499905 -1.23157e-06 0)
(0.00499896 -1.34396e-06 0)
(0.00499887 -1.46483e-06 0)
(0.00499877 -1.59468e-06 0)
(0.00499867 -1.73407e-06 0)
(0.00499856 -1.88355e-06 0)
(0.00499844 -2.0437e-06 0)
(0.00499832 -2.21515e-06 0)
(0.00499818 -2.39852e-06 0)
(0.00499804 -2.59447e-06 0)
(0.00499789 -2.8037e-06 0)
(0.00499773 -3.02691e-06 0)
(0.00499755 -3.26486e-06 0)
(0.00499737 -3.5183e-06 0)
(0.00499718 -3.78803e-06 0)
(0.00499698 -4.07488e-06 0)
(0.00499676 -4.3797e-06 0)
(0.00499653 -4.70336e-06 0)
(0.00499629 -5.04677e-06 0)
(0.00499603 -5.41086e-06 0)
(0.00499576 -5.7966e-06 0)
(0.00499548 -6.20496e-06 0)
(0.00499517 -6.63698e-06 0)
(0.00499486 -7.09367e-06 0)
(0.00499452 -7.57612e-06 0)
(0.00499417 -8.0854e-06 0)
(0.0049938 -8.62263e-06 0)
(0.00499341 -9.18895e-06 0)
(0.004993 -9.78551e-06 0)
(0.00499257 -1.04135e-05 0)
(0.00499212 -1.10741e-05 0)
(0.00499165 -1.17685e-05 0)
(0.00499115 -1.24979e-05 0)
(0.00499063 -1.32636e-05 0)
(0.00499009 -1.40668e-05 0)
(0.00498953 -1.49088e-05 0)
(0.00498894 -1.57907e-05 0)
(0.00498832 -1.67138e-05 0)
(0.00498768 -1.76794e-05 0)
(0.00498701 -1.86885e-05 0)
(0.00498632 -1.97425e-05 0)
(0.0049856 -2.08424e-05 0)
(0.00498485 -2.19892e-05 0)
(0.00498408 -2.3184e-05 0)
(0.00498328 -2.44277e-05 0)
(0.00498245 -2.5721e-05 0)
(0.0049816 -2.70646e-05 0)
(0.00498072 -2.8459e-05 0)
(0.00497981 -2.99044e-05 0)
(0.00497888 -3.14006e-05 0)
(0.00497793 -3.29473e-05 0)
(0.00497696 -3.45435e-05 0)
(0.00497596 -3.61877e-05 0)
(0.00497495 -3.78777e-05 0)
(0.00497392 -3.96102e-05 0)
(0.00497288 -4.1381e-05 0)
(0.00497183 -4.31841e-05 0)
(0.00497077 -4.50119e-05 0)
(0.0049697 -4.68542e-05 0)
(0.00496864 -4.86979e-05 0)
(0.00496757 -5.0526e-05 0)
(0.00496652 -5.23167e-05 0)
(0.00496547 -5.4042e-05 0)
(0.00496444 -5.56658e-05 0)
(0.00496343 -5.71415e-05 0)
(0.00496243 -5.84082e-05 0)
(0.00496139 -5.9388e-05 0)
(0.00496022 -5.9966e-05 0)
(0.005 -2.00821e-09 0)
(0.005 -7.4475e-09 0)
(0.005 -1.39359e-08 0)
(0.00499999 -2.12188e-08 0)
(0.00499999 -2.92988e-08 0)
(0.00499998 -3.82253e-08 0)
(0.00499997 -4.80649e-08 0)
(0.00499997 -5.8902e-08 0)
(0.00499996 -7.08366e-08 0)
(0.00499994 -8.39828e-08 0)
(0.00499993 -9.84668e-08 0)
(0.00499992 -1.14426e-07 0)
(0.0049999 -1.32007e-07 0)
(0.00499989 -1.51368e-07 0)
(0.00499987 -1.72675e-07 0)
(0.00499985 -1.96107e-07 0)
(0.00499982 -2.21852e-07 0)
(0.0049998 -2.50107e-07 0)
(0.00499977 -2.81084e-07 0)
(0.00499974 -3.15004e-07 0)
(0.00499971 -3.52102e-07 0)
(0.00499968 -3.92628e-07 0)
(0.00499964 -4.36841e-07 0)
(0.0049996 -4.85019e-07 0)
(0.00499956 -5.37454e-07 0)
(0.00499951 -5.94452e-07 0)
(0.00499946 -6.56338e-07 0)
(0.00499941 -7.23452e-07 0)
(0.00499935 -7.96152e-07 0)
(0.00499929 -8.74816e-07 0)
(0.00499922 -9.5984e-07 0)
(0.00499915 -1.05164e-06 0)
(0.00499907 -1.15065e-06 0)
(0.00499899 -1.25733e-06 0)
(0.0049989 -1.37215e-06 0)
(0.00499881 -1.49562e-06 0)
(0.00499871 -1.62827e-06 0)
(0.0049986 -1.77063e-06 0)
(0.00499848 -1.92328e-06 0)
(0.00499836 -2.08681e-06 0)
(0.00499823 -2.26184e-06 0)
(0.00499809 -2.44903e-06 0)
(0.00499794 -2.64903e-06 0)
(0.00499778 -2.86256e-06 0)
(0.00499762 -3.09032e-06 0)
(0.00499744 -3.33309e-06 0)
(0.00499725 -3.59162e-06 0)
(0.00499705 -3.86674e-06 0)
(0.00499684 -4.15927e-06 0)
(0.00499662 -4.47008e-06 0)
(0.00499638 -4.80007e-06 0)
(0.00499613 -5.15013e-06 0)
(0.00499586 -5.52124e-06 0)
(0.00499558 -5.91435e-06 0)
(0.00499529 -6.33047e-06 0)
(0.00499498 -6.77064e-06 0)
(0.00499465 -7.2359e-06 0)
(0.0049943 -7.72733e-06 0)
(0.00499394 -8.24606e-06 0)
(0.00499356 -8.79319e-06 0)
(0.00499316 -9.3699e-06 0)
(0.00499274 -9.97736e-06 0)
(0.00499229 -1.06168e-05 0)
(0.00499183 -1.12893e-05 0)
(0.00499135 -1.19963e-05 0)
(0.00499084 -1.27389e-05 0)
(0.00499031 -1.35184e-05 0)
(0.00498975 -1.43361e-05 0)
(0.00498917 -1.51932e-05 0)
(0.00498857 -1.6091e-05 0)
(0.00498794 -1.70309e-05 0)
(0.00498728 -1.80139e-05 0)
(0.0049866 -1.90414e-05 0)
(0.00498589 -2.01146e-05 0)
(0.00498516 -2.12346e-05 0)
(0.00498439 -2.24025e-05 0)
(0.00498361 -2.36194e-05 0)
(0.00498279 -2.48861e-05 0)
(0.00498195 -2.62035e-05 0)
(0.00498108 -2.75722e-05 0)
(0.00498019 -2.89926e-05 0)
(0.00497927 -3.04647e-05 0)
(0.00497832 -3.19885e-05 0)
(0.00497736 -3.35631e-05 0)
(0.00497637 -3.51874e-05 0)
(0.00497536 -3.68594e-05 0)
(0.00497434 -3.85762e-05 0)
(0.0049733 -4.03337e-05 0)
(0.00497225 -4.21264e-05 0)
(0.00497118 -4.39466e-05 0)
(0.00497011 -4.57846e-05 0)
(0.00496903 -4.76273e-05 0)
(0.00496795 -4.94577e-05 0)
(0.00496688 -5.12538e-05 0)
(0.0049658 -5.29872e-05 0)
(0.00496474 -5.46209e-05 0)
(0.00496368 -5.61074e-05 0)
(0.00496263 -5.73847e-05 0)
(0.00496152 -5.83731e-05 0)
(0.0049603 -5.8943e-05 0)
(0.005 -1.44765e-09 0)
(0.005 -5.71219e-09 0)
(0.005 -1.09958e-08 0)
(0.00499999 -1.7074e-08 0)
(0.00499999 -2.39538e-08 0)
(0.00499998 -3.16797e-08 0)
(0.00499998 -4.03088e-08 0)
(0.00499997 -4.99135e-08 0)
(0.00499996 -6.05809e-08 0)
(0.00499995 -7.24125e-08 0)
(0.00499994 -8.55222e-08 0)
(0.00499992 -1.00036e-07 0)
(0.00499991 -1.16089e-07 0)
(0.00499989 -1.3383e-07 0)
(0.00499987 -1.53416e-07 0)
(0.00499985 -1.75014e-07 0)
(0.00499983 -1.98804e-07 0)
(0.00499981 -2.24975e-07 0)
(0.00499978 -2.53727e-07 0)
(0.00499975 -2.85275e-07 0)
(0.00499972 -3.19843e-07 0)
(0.00499969 -3.57669e-07 0)
(0.00499965 -3.99006e-07 0)
(0.00499962 -4.4412e-07 0)
(0.00499957 -4.93291e-07 0)
(0.00499953 -5.46817e-07 0)
(0.00499948 -6.0501e-07 0)
(0.00499943 -6.68199e-07 0)
(0.00499937 -7.36731e-07 0)
(0.00499931 -8.10971e-07 0)
(0.00499925 -8.91302e-07 0)
(0.00499918 -9.78126e-07 0)
(0.0049991 -1.07187e-06 0)
(0.00499902 -1.17297e-06 0)
(0.00499893 -1.28189e-06 0)
(0.00499884 -1.39913e-06 0)
(0.00499874 -1.52518e-06 0)
(0.00499864 -1.66058e-06 0)
(0.00499853 -1.80589e-06 0)
(0.00499841 -1.96169e-06 0)
(0.00499828 -2.12858e-06 0)
(0.00499815 -2.30718e-06 0)
(0.004998 -2.49817e-06 0)
(0.00499785 -2.7022e-06 0)
(0.00499768 -2.92001e-06 0)
(0.00499751 -3.15231e-06 0)
(0.00499733 -3.39988e-06 0)
(0.00499713 -3.6635e-06 0)
(0.00499693 -3.944e-06 0)
(0.00499671 -4.24222e-06 0)
(0.00499648 -4.55903e-06 0)
(0.00499623 -4.89535e-06 0)
(0.00499597 -5.25209e-06 0)
(0.0049957 -5.63023e-06 0)
(0.00499541 -6.03076e-06 0)
(0.00499511 -6.45469e-06 0)
(0.00499479 -6.90307e-06 0)
(0.00499445 -7.37697e-06 0)
(0.00499409 -7.87749e-06 0)
(0.00499372 -8.40577e-06 0)
(0.00499333 -8.96294e-06 0)
(0.00499292 -9.5502e-06 0)
(0.00499248 -1.01687e-05 0)
(0.00499203 -1.08198e-05 0)
(0.00499156 -1.15046e-05 0)
(0.00499106 -1.22244e-05 0)
(0.00499054 -1.29805e-05 0)
(0.00498999 -1.37742e-05 0)
(0.00498942 -1.46068e-05 0)
(0.00498883 -1.54796e-05 0)
(0.00498821 -1.63939e-05 0)
(0.00498757 -1.7351e-05 0)
(0.0049869 -1.83522e-05 0)
(0.0049862 -1.93989e-05 0)
(0.00498548 -2.04921e-05 0)
(0.00498473 -2.16332e-05 0)
(0.00498396 -2.28232e-05 0)
(0.00498315 -2.40632e-05 0)
(0.00498232 -2.53541e-05 0)
(0.00498146 -2.66966e-05 0)
(0.00498058 -2.80915e-05 0)
(0.00497967 -2.95389e-05 0)
(0.00497874 -3.10388e-05 0)
(0.00497778 -3.25908e-05 0)
(0.0049768 -3.41939e-05 0)
(0.0049758 -3.58463e-05 0)
(0.00497478 -3.75453e-05 0)
(0.00497375 -3.92871e-05 0)
(0.00497269 -4.10664e-05 0)
(0.00497162 -4.28758e-05 0)
(0.00497054 -4.47056e-05 0)
(0.00496946 -4.65427e-05 0)
(0.00496836 -4.83703e-05 0)
(0.00496726 -5.0166e-05 0)
(0.00496616 -5.19009e-05 0)
(0.00496506 -5.35378e-05 0)
(0.00496397 -5.50283e-05 0)
(0.00496287 -5.63096e-05 0)
(0.0049617 -5.73023e-05 0)
(0.00496042 -5.78711e-05 0)
(0.005 -9.32298e-10 0)
(0.005 -4.11267e-09 0)
(0.005 -8.26984e-09 0)
(0.00499999 -1.32076e-08 0)
(0.00499999 -1.89381e-08 0)
(0.00499998 -2.55035e-08 0)
(0.00499998 -3.29548e-08 0)
(0.00499997 -4.13554e-08 0)
(0.00499996 -5.07827e-08 0)
(0.00499995 -6.13272e-08 0)
(0.00499994 -7.3092e-08 0)
(0.00499993 -8.61924e-08 0)
(0.00499991 -1.00754e-07 0)
(0.0049999 -1.16916e-07 0)
(0.00499988 -1.34824e-07 0)
(0.00499986 -1.54637e-07 0)
(0.00499984 -1.76525e-07 0)
(0.00499982 -2.00669e-07 0)
(0.00499979 -2.27259e-07 0)
(0.00499976 -2.56501e-07 0)
(0.00499973 -2.88609e-07 0)
(0.0049997 -3.23813e-07 0)
(0.00499967 -3.62354e-07 0)
(0.00499963 -4.04489e-07 0)
(0.00499959 -4.50489e-07 0)
(0.00499955 -5.00639e-07 0)
(0.0049995 -5.55241e-07 0)
(0.00499945 -6.14613e-07 0)
(0.00499939 -6.79089e-07 0)
(0.00499934 -7.49023e-07 0)
(0.00499927 -8.24786e-07 0)
(0.0049992 -9.06767e-07 0)
(0.00499913 -9.95376e-07 0)
(0.00499905 -1.09104e-06 0)
(0.00499897 -1.19422e-06 0)
(0.00499888 -1.30537e-06 0)
(0.00499879 -1.425e-06 0)
(0.00499868 -1.55362e-06 0)
(0.00499858 -1.69177e-06 0)
(0.00499846 -1.84002e-06 0)
(0.00499834 -1.99895e-06 0)
(0.0049982 -2.16918e-06 0)
(0.00499806 -2.35135e-06 0)
(0.00499791 -2.54612e-06 0)
(0.00499776 -2.75419e-06 0)
(0.00499759 -2.97627e-06 0)
(0.00499741 -3.21312e-06 0)
(0.00499722 -3.4655e-06 0)
(0.00499702 -3.73422e-06 0)
(0.00499681 -4.02011e-06 0)
(0.00499658 -4.32403e-06 0)
(0.00499634 -4.64688e-06 0)
(0.00499609 -4.98956e-06 0)
(0.00499582 -5.35303e-06 0)
(0.00499554 -5.73826e-06 0)
(0.00499525 -6.14627e-06 0)
(0.00499493 -6.57808e-06 0)
(0.0049946 -7.03477e-06 0)
(0.00499426 -7.51742e-06 0)
(0.00499389 -8.02716e-06 0)