/*--------------------------------*- C++ -*----------------------------------*\
  =========                 |
  \\      /  F ield         | OpenFOAM: The Open Source CFD Toolbox
   \\    /   O peration     | Website:  https://openfoam.org
    \\  /    A nd           | Version:  11
     \\/     M anipulation  |
\*---------------------------------------------------------------------------*/
FoamFile
{
    format      ascii;
    class       volScalarField;
    location    "602";
    object      k;
}
// * * * * * * * * * * * * * * * * * * * * * * * * * * * * * * * * * * * * * //

dimensions      [0 2 -2 0 0 0 0];

internalField   nonuniform List<scalar> 
10000
(
0.000939687
0.000835718
0.00074589
0.000668034
0.00060034
0.000541299
0.000489646
0.000444316
0.000404417
0.000369192
0.000338004
0.00031031
0.00028565
0.000263631
0.000243917
0.000226221
0.000210294
0.000195924
0.000182927
0.000171144
0.000160437
0.000150686
0.000141785
0.000133644
0.000126183
0.00011933
0.000113024
0.000107211
0.000101842
9.68739e-05
9.22696e-05
8.7995e-05
8.40203e-05
8.03184e-05
7.68655e-05
7.364e-05
7.06226e-05
6.77961e-05
6.51447e-05
6.26544e-05
6.03123e-05
5.81071e-05
5.60281e-05
5.40658e-05
5.22117e-05
5.04579e-05
4.87971e-05
4.72228e-05
4.57289e-05
4.43101e-05
4.29612e-05
4.16776e-05
4.04551e-05
3.92897e-05
3.81778e-05
3.71162e-05
3.61016e-05
3.51314e-05
3.42029e-05
3.33137e-05
3.24615e-05
3.16442e-05
3.086e-05
3.0107e-05
2.93837e-05
2.86884e-05
2.80198e-05
2.73767e-05
2.67576e-05
2.61617e-05
2.55878e-05
2.5035e-05
2.45025e-05
2.39894e-05
2.3495e-05
2.30188e-05
2.256e-05
2.21182e-05
2.16929e-05
2.12837e-05
2.08902e-05
2.05121e-05
2.01492e-05
1.98012e-05
1.94679e-05
1.91493e-05
1.88453e-05
1.85557e-05
1.82808e-05
1.80206e-05
1.77754e-05
1.75455e-05
1.73314e-05
1.71339e-05
1.69541e-05
1.67937e-05
1.66548e-05
1.65405e-05
1.64553e-05
1.64058e-05
0.000939687
0.000835718
0.00074589
0.000668034
0.00060034
0.0005413
0.000489646
0.000444316
0.000404417
0.000369192
0.000338004
0.00031031
0.000285651
0.000263631
0.000243917
0.000226221
0.000210294
0.000195924
0.000182927
0.000171144
0.000160437
0.000150686
0.000141785
0.000133644
0.000126183
0.00011933
0.000113024
0.000107211
0.000101842
9.6874e-05
9.22697e-05
8.79952e-05
8.40204e-05
8.03185e-05
7.68656e-05
7.36401e-05
7.06228e-05
6.77963e-05
6.51449e-05
6.26546e-05
6.03125e-05
5.81073e-05
5.60283e-05
5.4066e-05
5.22119e-05
5.04581e-05
4.87973e-05
4.7223e-05
4.57292e-05
4.43103e-05
4.29614e-05
4.16778e-05
4.04553e-05
3.92899e-05
3.81781e-05
3.71164e-05
3.61019e-05
3.51317e-05
3.42032e-05
3.3314e-05
3.24617e-05
3.16445e-05
3.08603e-05
3.01073e-05
2.9384e-05
2.86887e-05
2.80202e-05
2.7377e-05
2.6758e-05
2.6162e-05
2.55882e-05
2.50354e-05
2.45028e-05
2.39897e-05
2.34954e-05
2.30191e-05
2.25604e-05
2.21186e-05
2.16933e-05
2.12841e-05
2.08906e-05
2.05125e-05
2.01496e-05
1.98016e-05
1.94683e-05
1.91497e-05
1.88456e-05
1.85561e-05
1.82812e-05
1.8021e-05
1.77757e-05
1.75458e-05
1.73317e-05
1.71342e-05
1.69544e-05
1.67939e-05
1.6655e-05
1.65407e-05
1.64556e-05
1.6406e-05
0.000939687
0.000835718
0.00074589
0.000668034
0.00060034
0.0005413
0.000489646
0.000444316
0.000404417
0.000369192
0.000338004
0.000310311
0.000285651
0.000263632
0.000243918
0.000226221
0.000210294
0.000195924
0.000182927
0.000171144
0.000160437
0.000150686
0.000141786
0.000133645
0.000126183
0.00011933
0.000113025
0.000107211
0.000101842
9.68743e-05
9.227e-05
8.79955e-05
8.40207e-05
8.03188e-05
7.68659e-05
7.36405e-05
7.06231e-05
6.77966e-05
6.51452e-05
6.26549e-05
6.03129e-05
5.81076e-05
5.60286e-05
5.40664e-05
5.22123e-05
5.04585e-05
4.87977e-05
4.72234e-05
4.57296e-05
4.43108e-05
4.29619e-05
4.16783e-05
4.04558e-05
3.92904e-05
3.81786e-05
3.71169e-05
3.61024e-05
3.51322e-05
3.42037e-05
3.33145e-05
3.24623e-05
3.16451e-05
3.08609e-05
3.01079e-05
2.93846e-05
2.86894e-05
2.80208e-05
2.73776e-05
2.67586e-05
2.61627e-05
2.55888e-05
2.5036e-05
2.45035e-05
2.39904e-05
2.34961e-05
2.30198e-05
2.25611e-05
2.21193e-05
2.1694e-05
2.12848e-05
2.08913e-05
2.05132e-05
2.01503e-05
1.98023e-05
1.9469e-05
1.91504e-05
1.88463e-05
1.85568e-05
1.82818e-05
1.80216e-05
1.77763e-05
1.75463e-05
1.73322e-05
1.71347e-05
1.69549e-05
1.67944e-05
1.66555e-05
1.65412e-05
1.6456e-05
1.64064e-05
0.000939687
0.000835718
0.00074589
0.000668034
0.000600341
0.0005413
0.000489646
0.000444316
0.000404417
0.000369192
0.000338004
0.000310311
0.000285651
0.000263632
0.000243918
0.000226221
0.000210294
0.000195924
0.000182928
0.000171145
0.000160438
0.000150686
0.000141786
0.000133645
0.000126183
0.000119331
0.000113025
0.000107212
0.000101842
9.68747e-05
9.22704e-05
8.79959e-05
8.40211e-05
8.03193e-05
7.68664e-05
7.36409e-05
7.06236e-05
6.77971e-05
6.51457e-05
6.26554e-05
6.03134e-05
5.81082e-05
5.60292e-05
5.4067e-05
5.22129e-05
5.04591e-05
4.87983e-05
4.7224e-05
4.57302e-05
4.43114e-05
4.29625e-05
4.1679e-05
4.04565e-05
3.92911e-05
3.81793e-05
3.71177e-05
3.61032e-05
3.5133e-05
3.42045e-05
3.33153e-05
3.24631e-05
3.16459e-05
3.08617e-05
3.01088e-05
2.93855e-05
2.86903e-05
2.80217e-05
2.73786e-05
2.67596e-05
2.61637e-05
2.55898e-05
2.5037e-05
2.45045e-05
2.39914e-05
2.34971e-05
2.30209e-05
2.25621e-05
2.21203e-05
2.1695e-05
2.12858e-05
2.08923e-05
2.05143e-05
2.01513e-05
1.98033e-05
1.947e-05
1.91513e-05
1.88472e-05
1.85577e-05
1.82827e-05
1.80225e-05
1.77772e-05
1.75472e-05
1.7333e-05
1.71354e-05
1.69556e-05
1.67951e-05
1.66561e-05
1.65418e-05
1.64566e-05
1.6407e-05
0.000939687
0.000835718
0.00074589
0.000668034
0.000600341
0.0005413
0.000489646
0.000444317
0.000404417
0.000369193
0.000338005
0.000310311
0.000285651
0.000263632
0.000243918
0.000226221
0.000210295
0.000195925
0.000182928
0.000171145
0.000160438
0.000150687
0.000141786
0.000133645
0.000126184
0.000119331
0.000113025
0.000107212
0.000101843
9.68752e-05
9.22709e-05
8.79964e-05
8.40217e-05
8.03199e-05
7.6867e-05
7.36415e-05
7.06242e-05
6.77977e-05
6.51464e-05
6.26561e-05
6.03141e-05
5.81089e-05
5.60299e-05
5.40677e-05
5.22137e-05
5.04599e-05
4.87991e-05
4.72248e-05
4.57311e-05
4.43123e-05
4.29634e-05
4.16799e-05
4.04574e-05
3.9292e-05
3.81802e-05
3.71186e-05
3.61042e-05
3.5134e-05
3.42056e-05
3.33164e-05
3.24642e-05
3.1647e-05
3.08628e-05
3.01099e-05
2.93866e-05
2.86914e-05
2.80229e-05
2.73798e-05
2.67608e-05
2.61649e-05
2.55911e-05
2.50383e-05
2.45058e-05
2.39928e-05
2.34984e-05
2.30222e-05
2.25635e-05
2.21217e-05
2.16964e-05
2.12872e-05
2.08937e-05
2.05156e-05
2.01526e-05
1.98046e-05
1.94713e-05
1.91526e-05
1.88485e-05
1.85589e-05
1.82839e-05
1.80236e-05
1.77783e-05
1.75482e-05
1.7334e-05
1.71364e-05
1.69565e-05
1.6796e-05
1.66569e-05
1.65426e-05
1.64573e-05
1.64077e-05
0.000939687
0.000835718
0.00074589
0.000668034
0.000600341
0.0005413
0.000489646
0.000444317
0.000404417
0.000369193
0.000338005
0.000310311
0.000285652
0.000263633
0.000243919
0.000226222
0.000210295
0.000195925
0.000182928
0.000171146
0.000160439
0.000150687
0.000141787
0.000133646
0.000126184
0.000119332
0.000113026
0.000107213
0.000101844
9.68758e-05
9.22716e-05
8.79971e-05
8.40224e-05
8.03206e-05
7.68677e-05
7.36423e-05
7.0625e-05
6.77985e-05
6.51472e-05
6.26569e-05
6.0315e-05
5.81098e-05
5.60308e-05
5.40687e-05
5.22146e-05
5.04608e-05
4.88001e-05
4.72259e-05
4.57321e-05
4.43133e-05
4.29645e-05
4.1681e-05
4.04585e-05
3.92932e-05
3.81814e-05
3.71198e-05
3.61054e-05
3.51353e-05
3.42068e-05
3.33177e-05
3.24655e-05
3.16484e-05
3.08642e-05
3.01113e-05
2.93881e-05
2.86929e-05
2.80244e-05
2.73813e-05
2.67623e-05
2.61665e-05
2.55926e-05
2.50399e-05
2.45074e-05
2.39944e-05
2.35001e-05
2.30238e-05
2.25651e-05
2.21233e-05
2.1698e-05
2.12888e-05
2.08953e-05
2.05172e-05
2.01542e-05
1.98062e-05
1.94729e-05
1.91542e-05
1.885e-05
1.85604e-05
1.82853e-05
1.8025e-05
1.77796e-05
1.75495e-05
1.73352e-05
1.71376e-05
1.69576e-05
1.6797e-05
1.66579e-05
1.65435e-05
1.64582e-05
1.64086e-05
0.000939687
0.000835718
0.00074589
0.000668034
0.000600341
0.0005413
0.000489646
0.000444317
0.000404418
0.000369193
0.000338005
0.000310312
0.000285652
0.000263633
0.000243919
0.000226222
0.000210295
0.000195926
0.000182929
0.000171146
0.000160439
0.000150688
0.000141788
0.000133647
0.000126185
0.000119332
0.000113027
0.000107213
0.000101844
9.68766e-05
9.22724e-05
8.79979e-05
8.40232e-05
8.03214e-05
7.68686e-05
7.36432e-05
7.06259e-05
6.77995e-05
6.51482e-05
6.26579e-05
6.0316e-05
5.81108e-05
5.60319e-05
5.40697e-05
5.22157e-05
5.0462e-05
4.88013e-05
4.7227e-05
4.57333e-05
4.43146e-05
4.29658e-05
4.16823e-05
4.04598e-05
3.92945e-05
3.81828e-05
3.71212e-05
3.61068e-05
3.51368e-05
3.42083e-05
3.33192e-05
3.24671e-05
3.165e-05
3.08658e-05
3.0113e-05
2.93898e-05
2.86946e-05
2.80261e-05
2.73831e-05
2.67641e-05
2.61683e-05
2.55945e-05
2.50418e-05
2.45093e-05
2.39963e-05
2.3502e-05
2.30258e-05
2.2567e-05
2.21253e-05
2.17e-05
2.12908e-05
2.08973e-05
2.05191e-05
2.01561e-05
1.98081e-05
1.94747e-05
1.9156e-05
1.88518e-05
1.85621e-05
1.8287e-05
1.80266e-05
1.77812e-05
1.7551e-05
1.73366e-05
1.71389e-05
1.69589e-05
1.67982e-05
1.66591e-05
1.65446e-05
1.64593e-05
1.64096e-05
0.000939687
0.000835718
0.000745891
0.000668034
0.000600341
0.0005413
0.000489647
0.000444317
0.000404418
0.000369194
0.000338006
0.000310312
0.000285652
0.000263633
0.000243919
0.000226223
0.000210296
0.000195926
0.000182929
0.000171147
0.00016044
0.000150688
0.000141788
0.000133647
0.000126186
0.000119333
0.000113028
0.000107214
0.000101845
9.68774e-05
9.22732e-05
8.79988e-05
8.40241e-05
8.03224e-05
7.68696e-05
7.36442e-05
7.0627e-05
6.78005e-05
6.51492e-05
6.2659e-05
6.03171e-05
5.81119e-05
5.60331e-05
5.4071e-05
5.2217e-05
5.04632e-05
4.88026e-05
4.72284e-05
4.57347e-05
4.4316e-05
4.29672e-05
4.16837e-05
4.04613e-05
3.92961e-05
3.81844e-05
3.71229e-05
3.61085e-05
3.51384e-05
3.42101e-05
3.3321e-05
3.24689e-05
3.16518e-05
3.08677e-05
3.01149e-05
2.93917e-05
2.86966e-05
2.80281e-05
2.73851e-05
2.67662e-05
2.61704e-05
2.55966e-05
2.50439e-05
2.45114e-05
2.39984e-05
2.35042e-05
2.3028e-05
2.25692e-05
2.21275e-05
2.17022e-05
2.1293e-05
2.08995e-05
2.05213e-05
2.01583e-05
1.98102e-05
1.94768e-05
1.9158e-05
1.88538e-05
1.85641e-05
1.82889e-05
1.80284e-05
1.77829e-05
1.75527e-05
1.73382e-05
1.71404e-05
1.69603e-05
1.67996e-05
1.66603e-05
1.65458e-05
1.64604e-05
1.64107e-05
0.000939687
0.000835718
0.000745891
0.000668034
0.000600341
0.000541301
0.000489647
0.000444318
0.000404418
0.000369194
0.000338006
0.000310313
0.000285653
0.000263634
0.00024392
0.000226223
0.000210297
0.000195927
0.00018293
0.000171147
0.00016044
0.000150689
0.000141789
0.000133648
0.000126187
0.000119334
0.000113028
0.000107215
0.000101846
9.68784e-05
9.22742e-05
8.79998e-05
8.40252e-05
8.03234e-05
7.68706e-05
7.36453e-05
7.06281e-05
6.78017e-05
6.51504e-05
6.26603e-05
6.03184e-05
5.81132e-05
5.60344e-05
5.40723e-05
5.22184e-05
5.04647e-05
4.8804e-05
4.72299e-05
4.57362e-05
4.43175e-05
4.29688e-05
4.16854e-05
4.0463e-05
3.92978e-05
3.81861e-05
3.71247e-05
3.61103e-05
3.51403e-05
3.4212e-05
3.33229e-05
3.24709e-05
3.16538e-05
3.08698e-05
3.0117e-05
2.93938e-05
2.86987e-05
2.80303e-05
2.73873e-05
2.67685e-05
2.61727e-05
2.55989e-05
2.50463e-05
2.45138e-05
2.40009e-05
2.35066e-05
2.30304e-05
2.25717e-05
2.21299e-05
2.17047e-05
2.12954e-05
2.09019e-05
2.05237e-05
2.01607e-05
1.98126e-05
1.94791e-05
1.91603e-05
1.8856e-05
1.85662e-05
1.8291e-05
1.80305e-05
1.77849e-05
1.75545e-05
1.734e-05
1.71421e-05
1.69619e-05
1.68011e-05
1.66617e-05
1.65472e-05
1.64617e-05
1.6412e-05
0.000939687
0.000835718
0.000745891
0.000668034
0.000600341
0.000541301
0.000489647
0.000444318
0.000404419
0.000369194
0.000338006
0.000310313
0.000285653
0.000263634
0.000243921
0.000226224
0.000210297
0.000195927
0.000182931
0.000171148
0.000160441
0.00015069
0.00014179
0.000133649
0.000126187
0.000119335
0.000113029
0.000107216
0.000101847
9.68794e-05
9.22753e-05
8.80009e-05
8.40263e-05
8.03246e-05
7.68718e-05
7.36465e-05
7.06293e-05
6.7803e-05
6.51518e-05
6.26616e-05
6.03198e-05
5.81147e-05
5.60359e-05
5.40738e-05
5.22199e-05
5.04662e-05
4.88056e-05
4.72315e-05
4.57379e-05
4.43193e-05
4.29706e-05
4.16872e-05
4.04649e-05
3.92997e-05
3.81881e-05
3.71266e-05
3.61123e-05
3.51424e-05
3.42141e-05
3.3325e-05
3.24731e-05
3.1656e-05
3.0872e-05
3.01193e-05
2.93962e-05
2.87011e-05
2.80328e-05
2.73898e-05
2.6771e-05
2.61752e-05
2.56015e-05
2.50489e-05
2.45165e-05
2.40035e-05
2.35093e-05
2.30331e-05
2.25744e-05
2.21326e-05
2.17073e-05
2.12981e-05
2.09046e-05
2.05264e-05
2.01633e-05
1.98151e-05
1.94817e-05
1.91628e-05
1.88584e-05
1.85686e-05
1.82933e-05
1.80327e-05
1.7787e-05
1.75565e-05
1.73419e-05
1.71439e-05
1.69636e-05
1.68027e-05
1.66633e-05
1.65486e-05
1.64631e-05
1.64133e-05
0.000939687
0.000835718
0.000745891
0.000668035
0.000600342
0.000541301
0.000489647
0.000444318
0.000404419
0.000369195
0.000338007
0.000310313
0.000285654
0.000263635
0.000243921
0.000226224
0.000210298
0.000195928
0.000182932
0.000171149
0.000160442
0.000150691
0.000141791
0.00013365
0.000126188
0.000119336
0.00011303
0.000107217
0.000101848
9.68805e-05
9.22764e-05
8.80021e-05
8.40275e-05
8.03258e-05
7.68731e-05
7.36478e-05
7.06307e-05
6.78044e-05
6.51532e-05
6.26631e-05
6.03213e-05
5.81162e-05
5.60374e-05
5.40754e-05
5.22216e-05
5.04679e-05
4.88074e-05
4.72333e-05
4.57397e-05
4.43211e-05
4.29725e-05
4.16891e-05
4.04669e-05
3.93017e-05
3.81901e-05
3.71287e-05
3.61145e-05
3.51446e-05
3.42163e-05
3.33274e-05
3.24754e-05
3.16584e-05
3.08745e-05
3.01218e-05
2.93987e-05
2.87037e-05
2.80354e-05
2.73924e-05
2.67737e-05
2.61779e-05
2.56043e-05
2.50517e-05
2.45193e-05
2.40063e-05
2.35121e-05
2.3036e-05
2.25773e-05
2.21355e-05
2.17102e-05
2.1301e-05
2.09074e-05
2.05292e-05
2.01661e-05
1.98179e-05
1.94844e-05
1.91655e-05
1.88611e-05
1.85711e-05
1.82957e-05
1.8035e-05
1.77892e-05
1.75587e-05
1.7344e-05
1.71459e-05
1.69655e-05
1.68044e-05
1.66649e-05
1.65501e-05
1.64645e-05
1.64148e-05
0.000939687
0.000835718
0.000745891
0.000668035
0.000600342
0.000541301
0.000489648
0.000444318
0.000404419
0.000369195
0.000338007
0.000310314
0.000285654
0.000263635
0.000243922
0.000226225
0.000210298
0.000195929
0.000182932
0.00017115
0.000160443
0.000150692
0.000141792
0.000133651
0.000126189
0.000119337
0.000113031
0.000107218
0.000101849
9.68817e-05
9.22776e-05
8.80033e-05
8.40288e-05
8.03271e-05
7.68745e-05
7.36492e-05
7.06321e-05
6.78058e-05
6.51547e-05
6.26646e-05
6.03229e-05
5.81178e-05
5.60391e-05
5.40771e-05
5.22233e-05
5.04697e-05
4.88092e-05
4.72352e-05
4.57417e-05
4.43231e-05
4.29745e-05
4.16912e-05
4.0469e-05
3.93039e-05
3.81924e-05
3.7131e-05
3.61168e-05
3.51469e-05
3.42187e-05
3.33298e-05
3.24779e-05
3.1661e-05
3.08771e-05
3.01244e-05
2.94014e-05
2.87065e-05
2.80382e-05
2.73953e-05
2.67765e-05
2.61809e-05
2.56072e-05
2.50546e-05
2.45223e-05
2.40094e-05
2.35152e-05
2.30391e-05
2.25804e-05
2.21386e-05
2.17133e-05
2.13041e-05
2.09105e-05
2.05323e-05
2.01692e-05
1.98209e-05
1.94873e-05
1.91683e-05
1.88638e-05
1.85738e-05
1.82984e-05
1.80375e-05
1.77916e-05
1.7561e-05
1.73461e-05
1.71479e-05
1.69674e-05
1.68062e-05
1.66666e-05
1.65517e-05
1.64661e-05
1.64162e-05
0.000939687
0.000835718
0.000745891
0.000668035
0.000600342
0.000541301
0.000489648
0.000444319
0.00040442
0.000369195
0.000338008
0.000310314
0.000285655
0.000263636
0.000243922
0.000226226
0.000210299
0.00019593
0.000182933
0.00017115
0.000160444
0.000150693
0.000141792
0.000133652
0.00012619
0.000119338
0.000113032
0.000107219
0.00010185
9.68829e-05
9.22789e-05
8.80046e-05
8.40301e-05
8.03285e-05
7.68759e-05
7.36507e-05
7.06336e-05
6.78074e-05
6.51563e-05
6.26663e-05
6.03245e-05
5.81196e-05
5.60409e-05
5.4079e-05
5.22252e-05
5.04716e-05
4.88112e-05
4.72372e-05
4.57437e-05
4.43252e-05
4.29766e-05
4.16934e-05
4.04712e-05
3.93062e-05
3.81947e-05
3.71334e-05
3.61193e-05
3.51494e-05
3.42213e-05
3.33324e-05
3.24806e-05
3.16637e-05
3.08798e-05
3.01272e-05
2.94043e-05
2.87094e-05
2.80411e-05
2.73983e-05
2.67796e-05
2.61839e-05
2.56103e-05
2.50578e-05
2.45255e-05
2.40126e-05
2.35184e-05
2.30423e-05
2.25836e-05
2.21419e-05
2.17166e-05
2.13073e-05
2.09138e-05
2.05355e-05
2.01723e-05
1.9824e-05
1.94904e-05
1.91713e-05
1.88668e-05
1.85767e-05
1.83011e-05
1.80402e-05
1.77942e-05
1.75634e-05
1.73484e-05
1.715e-05
1.69694e-05
1.68081e-05
1.66684e-05
1.65534e-05
1.64677e-05
1.64178e-05
0.000939687
0.000835718
0.000745891
0.000668035
0.000600342
0.000541301
0.000489648
0.000444319
0.00040442
0.000369196
0.000338008
0.000310315
0.000285655
0.000263637
0.000243923
0.000226226
0.0002103
0.00019593
0.000182934
0.000171151
0.000160445
0.000150694
0.000141793
0.000133653
0.000126191
0.000119339
0.000113034
0.000107221
0.000101852
9.68842e-05
9.22802e-05
8.8006e-05
8.40315e-05
8.033e-05
7.68774e-05
7.36522e-05
7.06352e-05
6.7809e-05
6.5158e-05
6.2668e-05
6.03263e-05
5.81214e-05
5.60427e-05
5.40809e-05
5.22271e-05
5.04736e-05
4.88132e-05
4.72393e-05
4.57458e-05
4.43274e-05
4.29789e-05
4.16957e-05
4.04736e-05
3.93086e-05
3.81972e-05
3.71359e-05
3.61218e-05
3.51521e-05
3.4224e-05
3.33352e-05
3.24834e-05
3.16665e-05
3.08827e-05
3.01302e-05
2.94073e-05
2.87124e-05
2.80442e-05
2.74014e-05
2.67828e-05
2.61872e-05
2.56136e-05
2.50611e-05
2.45288e-05
2.4016e-05
2.35218e-05
2.30457e-05
2.25871e-05
2.21453e-05
2.172e-05
2.13108e-05
2.09171e-05
2.05389e-05
2.01756e-05
1.98273e-05
1.94936e-05
1.91745e-05
1.88698e-05
1.85796e-05
1.83039e-05
1.80429e-05
1.77968e-05
1.75659e-05
1.73508e-05
1.71523e-05
1.69715e-05
1.681e-05
1.66702e-05
1.65551e-05
1.64693e-05
1.64194e-05
0.000939687
0.000835719
0.000745891
0.000668035
0.000600342
0.000541302
0.000489648
0.000444319
0.00040442
0.000369196
0.000338008
0.000310315
0.000285656
0.000263637
0.000243924
0.000226227
0.000210301
0.000195931
0.000182935
0.000171152
0.000160445
0.000150694
0.000141794
0.000133654
0.000126193
0.00011934
0.000113035
0.000107222
0.000101853
9.68855e-05
9.22816e-05
8.80074e-05
8.4033e-05
8.03315e-05
7.68789e-05
7.36538e-05
7.06369e-05
6.78107e-05
6.51597e-05
6.26698e-05
6.03281e-05
5.81232e-05
5.60446e-05
5.40828e-05
5.22291e-05
5.04757e-05
4.88153e-05
4.72415e-05
4.57481e-05
4.43297e-05
4.29812e-05
4.16981e-05
4.0476e-05
3.93111e-05
3.81997e-05
3.71385e-05
3.61245e-05
3.51548e-05
3.42268e-05
3.3338e-05
3.24863e-05
3.16695e-05
3.08857e-05
3.01333e-05
2.94104e-05
2.87156e-05
2.80475e-05
2.74047e-05
2.67861e-05
2.61905e-05
2.5617e-05
2.50646e-05
2.45323e-05
2.40195e-05
2.35254e-05
2.30493e-05
2.25906e-05
2.21489e-05
2.17236e-05
2.13143e-05
2.09207e-05
2.05423e-05
2.01791e-05
1.98307e-05
1.94969e-05
1.91777e-05
1.8873e-05
1.85827e-05
1.83069e-05
1.80458e-05
1.77995e-05
1.75684e-05
1.73532e-05
1.71546e-05
1.69736e-05
1.6812e-05
1.66721e-05
1.65569e-05
1.6471e-05
1.6421e-05
0.000939687
0.000835719
0.000745891
0.000668035
0.000600342
0.000541302
0.000489648
0.000444319
0.00040442
0.000369196
0.000338009
0.000310316
0.000285656
0.000263638
0.000243924
0.000226228
0.000210301
0.000195932
0.000182936
0.000171153
0.000160446
0.000150695
0.000141795
0.000133655
0.000126194
0.000119341
0.000113036
0.000107223
0.000101854
9.68869e-05
9.2283e-05
8.80088e-05
8.40345e-05
8.0333e-05
7.68805e-05
7.36555e-05
7.06385e-05
6.78124e-05
6.51615e-05
6.26716e-05
6.033e-05
5.81252e-05
5.60466e-05
5.40849e-05
5.22312e-05
5.04778e-05
4.88175e-05
4.72437e-05
4.57504e-05
4.4332e-05
4.29836e-05
4.17006e-05
4.04786e-05
3.93137e-05
3.82024e-05
3.71412e-05
3.61273e-05
3.51576e-05
3.42296e-05
3.33409e-05
3.24893e-05
3.16725e-05
3.08889e-05
3.01364e-05
2.94136e-05
2.87189e-05
2.80508e-05
2.74081e-05
2.67895e-05
2.6194e-05
2.56205e-05
2.50681e-05
2.45359e-05
2.40231e-05
2.3529e-05
2.30529e-05
2.25943e-05
2.21525e-05
2.17272e-05
2.13179e-05
2.09243e-05
2.05459e-05
2.01826e-05
1.98342e-05
1.95003e-05
1.91811e-05
1.88762e-05
1.85858e-05
1.83099e-05
1.80487e-05
1.78023e-05
1.75711e-05
1.73557e-05
1.71569e-05
1.69758e-05
1.68141e-05
1.6674e-05
1.65587e-05
1.64727e-05
1.64227e-05
0.000939687
0.000835719
0.000745891
0.000668035
0.000600342
0.000541302
0.000489649
0.00044432
0.000404421
0.000369197
0.000338009
0.000310316
0.000285657
0.000263638
0.000243925
0.000226228
0.000210302
0.000195933
0.000182936
0.000171154
0.000160447
0.000150696
0.000141797
0.000133656
0.000126195
0.000119343
0.000113037
0.000107224
0.000101856
9.68882e-05
9.22844e-05
8.80103e-05
8.4036e-05
8.03346e-05
7.68821e-05
7.36571e-05
7.06403e-05
6.78142e-05
6.51633e-05
6.26735e-05
6.03319e-05
5.81271e-05
5.60487e-05
5.40869e-05
5.22334e-05
5.048e-05
4.88198e-05
4.7246e-05
4.57527e-05
4.43345e-05
4.29861e-05
4.17031e-05
4.04811e-05
3.93163e-05
3.82051e-05
3.7144e-05
3.61301e-05
3.51605e-05
3.42326e-05
3.33439e-05
3.24923e-05
3.16757e-05
3.08921e-05
3.01397e-05
2.94169e-05
2.87222e-05
2.80542e-05
2.74115e-05
2.6793e-05
2.61976e-05
2.56241e-05
2.50718e-05
2.45396e-05
2.40268e-05
2.35327e-05
2.30567e-05
2.2598e-05
2.21563e-05
2.1731e-05
2.13217e-05
2.0928e-05
2.05496e-05
2.01863e-05
1.98377e-05
1.95039e-05
1.91845e-05
1.88796e-05
1.85891e-05
1.8313e-05
1.80516e-05
1.78051e-05
1.75738e-05
1.73582e-05
1.71593e-05
1.69781e-05
1.68162e-05
1.66759e-05
1.65605e-05
1.64745e-05
1.64244e-05
0.000939687
0.000835719
0.000745891
0.000668035
0.000600342
0.000541302
0.000489649
0.00044432
0.000404421
0.000369197
0.00033801
0.000310317
0.000285657
0.000263639
0.000243925
0.000226229
0.000210303
0.000195933
0.000182937
0.000171155
0.000160448
0.000150697
0.000141798
0.000133657
0.000126196
0.000119344
0.000113039
0.000107226
0.000101857
9.68896e-05
9.22858e-05
8.80118e-05
8.40375e-05
8.03362e-05
7.68838e-05
7.36588e-05
7.0642e-05
6.7816e-05
6.51652e-05
6.26754e-05
6.03339e-05
5.81292e-05
5.60507e-05
5.40891e-05
5.22356e-05
5.04823e-05
4.88221e-05
4.72484e-05
4.57551e-05
4.43369e-05
4.29886e-05
4.17057e-05
4.04838e-05
3.9319e-05
3.82078e-05
3.71468e-05
3.6133e-05
3.51635e-05
3.42356e-05
3.3347e-05
3.24955e-05
3.16789e-05
3.08953e-05
3.0143e-05
2.94203e-05
2.87257e-05
2.80577e-05
2.74151e-05
2.67966e-05
2.62012e-05
2.56278e-05
2.50755e-05
2.45433e-05
2.40306e-05
2.35365e-05
2.30605e-05
2.26019e-05
2.21602e-05
2.17348e-05
2.13255e-05
2.09318e-05
2.05534e-05
2.019e-05
1.98414e-05
1.95074e-05
1.9188e-05
1.88829e-05
1.85923e-05
1.83162e-05
1.80547e-05
1.7808e-05
1.75765e-05
1.73608e-05
1.71617e-05
1.69803e-05
1.68183e-05
1.66779e-05
1.65624e-05
1.64762e-05
1.64261e-05
0.000939687
0.000835719
0.000745891
0.000668035
0.000600343
0.000541302
0.000489649
0.00044432
0.000404421
0.000369198
0.00033801
0.000310317
0.000285658
0.000263639
0.000243926
0.00022623
0.000210304
0.000195934
0.000182938
0.000171156
0.000160449
0.000150698
0.000141799
0.000133658
0.000126197
0.000119345
0.00011304
0.000107227
0.000101858
9.68911e-05
9.22873e-05
8.80133e-05
8.40391e-05
8.03378e-05
7.68855e-05
7.36605e-05
7.06438e-05
6.78178e-05
6.5167e-05
6.26773e-05
6.03359e-05
5.81312e-05
5.60528e-05
5.40912e-05
5.22378e-05
5.04845e-05
4.88244e-05
4.72507e-05
4.57576e-05
4.43394e-05
4.29912e-05
4.17083e-05
4.04865e-05
3.93218e-05
3.82106e-05
3.71497e-05
3.61359e-05
3.51665e-05
3.42387e-05
3.33502e-05
3.24987e-05
3.16821e-05
3.08986e-05
3.01464e-05
2.94237e-05
2.87292e-05
2.80612e-05
2.74187e-05
2.68003e-05
2.62049e-05
2.56316e-05
2.50793e-05
2.45472e-05
2.40344e-05
2.35404e-05
2.30644e-05
2.26058e-05
2.21641e-05
2.17387e-05
2.13294e-05
2.09356e-05
2.05572e-05
2.01937e-05
1.98451e-05
1.9511e-05
1.91915e-05
1.88864e-05
1.85957e-05
1.83194e-05
1.80577e-05
1.78109e-05
1.75793e-05
1.73634e-05
1.71641e-05
1.69826e-05
1.68204e-05
1.66799e-05
1.65642e-05
1.6478e-05
1.64278e-05
0.000939687
0.000835719
0.000745891
0.000668035
0.000600343
0.000541302
0.000489649
0.00044432
0.000404422
0.000369198
0.00033801
0.000310318
0.000285658
0.00026364
0.000243927
0.00022623
0.000210304
0.000195935
0.000182939
0.000171157
0.00016045
0.000150699
0.0001418
0.000133659
0.000126198
0.000119346
0.000113041
0.000107228
0.00010186
9.68925e-05
9.22888e-05
8.80149e-05
8.40407e-05
8.03394e-05
7.68871e-05
7.36623e-05
7.06456e-05
6.78197e-05
6.51689e-05
6.26793e-05
6.03379e-05
5.81333e-05
5.60549e-05
5.40934e-05
5.224e-05
5.04868e-05
4.88268e-05
4.72532e-05
4.57601e-05
4.4342e-05
4.29938e-05
4.1711e-05
4.04892e-05
3.93246e-05
3.82135e-05
3.71526e-05
3.61389e-05
3.51695e-05
3.42418e-05
3.33533e-05
3.25019e-05
3.16854e-05
3.0902e-05
3.01498e-05
2.94272e-05
2.87327e-05
2.80648e-05
2.74223e-05
2.6804e-05
2.62087e-05
2.56354e-05
2.50831e-05
2.4551e-05
2.40383e-05
2.35443e-05
2.30683e-05
2.26097e-05
2.2168e-05
2.17427e-05
2.13333e-05
2.09395e-05
2.0561e-05
2.01975e-05
1.98488e-05
1.95147e-05
1.91951e-05
1.88898e-05
1.8599e-05
1.83226e-05
1.80608e-05
1.78138e-05
1.75821e-05
1.7366e-05
1.71666e-05
1.69849e-05
1.68225e-05
1.66819e-05
1.65661e-05
1.64798e-05
1.64295e-05
0.000939687
0.000835719
0.000745891
0.000668035
0.000600343
0.000541303
0.000489649
0.000444321
0.000404422
0.000369198
0.000338011
0.000310318
0.000285659
0.00026364
0.000243927
0.000226231
0.000210305
0.000195936
0.00018294
0.000171157
0.000160451
0.0001507
0.000141801
0.00013366
0.000126199
0.000119347
0.000113042
0.00010723
0.000101861
9.68939e-05
9.22902e-05
8.80164e-05
8.40423e-05
8.03411e-05
7.68888e-05
7.3664e-05
7.06474e-05
6.78215e-05
6.51708e-05
6.26812e-05
6.03399e-05
5.81353e-05
5.60571e-05
5.40956e-05
5.22422e-05
5.04891e-05
4.88291e-05
4.72556e-05
4.57625e-05
4.43445e-05
4.29964e-05
4.17136e-05
4.04919e-05
3.93274e-05
3.82164e-05
3.71555e-05
3.61419e-05
3.51725e-05
3.42449e-05
3.33565e-05
3.25051e-05
3.16887e-05
3.09054e-05
3.01532e-05
2.94307e-05
2.87362e-05
2.80684e-05
2.7426e-05
2.68077e-05
2.62124e-05
2.56392e-05
2.50869e-05
2.45549e-05
2.40423e-05
2.35483e-05
2.30723e-05
2.26137e-05
2.2172e-05
2.17466e-05
2.13372e-05
2.09434e-05
2.05649e-05
2.02013e-05
1.98526e-05
1.95184e-05
1.91987e-05
1.88933e-05
1.86024e-05
1.83259e-05
1.80639e-05
1.78168e-05
1.75848e-05
1.73687e-05
1.71691e-05
1.69872e-05
1.68247e-05
1.66838e-05
1.6568e-05
1.64815e-05
1.64312e-05
0.000939687
0.000835719
0.000745891
0.000668035
0.000600343
0.000541303
0.00048965
0.000444321
0.000404422
0.000369199
0.000338011
0.000310318
0.000285659
0.000263641
0.000243928
0.000226232
0.000210306
0.000195937
0.00018294
0.000171158
0.000160452
0.000150701
0.000141802
0.000133662
0.000126201
0.000119349
0.000113044
0.000107231
0.000101862
9.68953e-05
9.22917e-05
8.80179e-05
8.40438e-05
8.03427e-05
7.68905e-05
7.36658e-05
7.06492e-05
6.78234e-05
6.51727e-05
6.26832e-05
6.03419e-05
5.81374e-05
5.60592e-05
5.40978e-05
5.22445e-05
5.04915e-05
4.88315e-05
4.7258e-05
4.5765e-05
4.43471e-05
4.2999e-05
4.17163e-05
4.04947e-05
3.93302e-05
3.82192e-05
3.71585e-05
3.61449e-05
3.51756e-05
3.4248e-05
3.33597e-05
3.25084e-05
3.16921e-05
3.09087e-05
3.01567e-05
2.94342e-05
2.87398e-05
2.80721e-05
2.74297e-05
2.68114e-05
2.62162e-05
2.5643e-05
2.50908e-05
2.45588e-05
2.40462e-05
2.35522e-05
2.30762e-05
2.26177e-05
2.21759e-05
2.17506e-05
2.13412e-05
2.09473e-05
2.05688e-05
2.02052e-05
1.98563e-05
1.95221e-05
1.92022e-05
1.88968e-05
1.86057e-05
1.83291e-05
1.8067e-05
1.78197e-05
1.75876e-05
1.73713e-05
1.71715e-05
1.69895e-05
1.68268e-05
1.66858e-05
1.65698e-05
1.64832e-05
1.64329e-05
0.000939687
0.000835719
0.000745891
0.000668036
0.000600343
0.000541303
0.00048965
0.000444321
0.000404422
0.000369199
0.000338012
0.000310319
0.00028566
0.000263642
0.000243928
0.000226232
0.000210306
0.000195937
0.000182941
0.000171159
0.000160453
0.000150702
0.000141803
0.000133663
0.000126202
0.00011935
0.000113045
0.000107232
0.000101864
9.68967e-05
9.22932e-05
8.80194e-05
8.40454e-05
8.03443e-05
7.68922e-05
7.36675e-05
7.0651e-05
6.78252e-05
6.51746e-05
6.26851e-05
6.03439e-05
5.81395e-05
5.60613e-05
5.41e-05
5.22467e-05
5.04938e-05
4.88338e-05
4.72604e-05
4.57675e-05
4.43496e-05
4.30016e-05
4.1719e-05
4.04974e-05
3.9333e-05
3.82221e-05
3.71614e-05
3.61479e-05
3.51787e-05
3.42511e-05
3.33629e-05
3.25117e-05
3.16954e-05
3.09121e-05
3.01601e-05
2.94377e-05
2.87434e-05
2.80757e-05
2.74334e-05
2.68152e-05
2.622e-05
2.56468e-05
2.50947e-05
2.45627e-05
2.40501e-05
2.35562e-05
2.30802e-05
2.26216e-05
2.21799e-05
2.17545e-05
2.13451e-05
2.09513e-05
2.05726e-05
2.0209e-05
1.98601e-05
1.95257e-05
1.92058e-05
1.89003e-05
1.86091e-05
1.83323e-05
1.80701e-05
1.78227e-05
1.75904e-05
1.73739e-05
1.71739e-05
1.69917e-05
1.68289e-05
1.66877e-05
1.65716e-05
1.6485e-05
1.64346e-05
0.000939687
0.000835719
0.000745891
0.000668036
0.000600343
0.000541303
0.00048965
0.000444321
0.000404423
0.000369199
0.000338012
0.000310319
0.00028566
0.000263642
0.000243929
0.000226233
0.000210307
0.000195938
0.000182942
0.00017116
0.000160454
0.000150703
0.000141804
0.000133664
0.000126203
0.000119351
0.000113046
0.000107233
0.000101865
9.68981e-05
9.22946e-05
8.80209e-05
8.4047e-05
8.03459e-05
7.68938e-05
7.36692e-05
7.06527e-05
6.7827e-05
6.51765e-05
6.26871e-05
6.03459e-05
5.81415e-05
5.60635e-05
5.41021e-05
5.2249e-05
5.04961e-05
4.88362e-05
4.72629e-05
4.577e-05
4.43521e-05
4.30042e-05
4.17217e-05
4.05001e-05
3.93358e-05
3.82249e-05
3.71643e-05
3.61509e-05
3.51817e-05
3.42543e-05
3.33661e-05
3.25149e-05
3.16987e-05
3.09155e-05
3.01635e-05
2.94412e-05
2.87469e-05
2.80793e-05
2.7437e-05
2.68189e-05
2.62237e-05
2.56506e-05
2.50985e-05
2.45666e-05
2.4054e-05
2.35601e-05
2.30841e-05
2.26256e-05
2.21838e-05
2.17585e-05
2.1349e-05
2.09551e-05
2.05765e-05
2.02128e-05
1.98638e-05
1.95294e-05
1.92094e-05
1.89037e-05
1.86124e-05
1.83355e-05
1.80732e-05
1.78256e-05
1.75931e-05
1.73765e-05
1.71763e-05
1.69939e-05
1.68309e-05
1.66897e-05
1.65734e-05
1.64867e-05
1.64362e-05
0.000939687
0.000835719
0.000745891
0.000668036
0.000600343
0.000541303
0.00048965
0.000444322
0.000404423
0.000369199
0.000338012
0.00031032
0.000285661
0.000263643
0.000243929
0.000226234
0.000210308
0.000195939
0.000182943
0.000171161
0.000160455
0.000150704
0.000141805
0.000133665
0.000126204
0.000119352
0.000113047
0.000107235
0.000101866
9.68995e-05
9.2296e-05
8.80224e-05
8.40485e-05
8.03475e-05
7.68955e-05
7.36709e-05
7.06545e-05
6.78288e-05
6.51784e-05
6.2689e-05
6.03479e-05
5.81436e-05
5.60655e-05
5.41043e-05
5.22512e-05
5.04983e-05
4.88385e-05
4.72652e-05
4.57724e-05
4.43547e-05
4.30068e-05
4.17243e-05
4.05028e-05
3.93385e-05
3.82278e-05
3.71672e-05
3.61538e-05
3.51847e-05
3.42573e-05
3.33692e-05
3.25181e-05
3.1702e-05
3.09188e-05
3.01669e-05
2.94447e-05
2.87504e-05
2.80829e-05