/*--------------------------------*- C++ -*----------------------------------*\
  =========                 |
  \\      /  F ield         | OpenFOAM: The Open Source CFD Toolbox
   \\    /   O peration     | Website:  https://openfoam.org
    \\  /    A nd           | Version:  11
     \\/     M anipulation  |
\*---------------------------------------------------------------------------*/
FoamFile
{
    format      ascii;
    class       volVectorField;
    location    "602";
    object      U;
}
// * * * * * * * * * * * * * * * * * * * * * * * * * * * * * * * * * * * * * //

dimensions      [0 1 -1 0 0 0 0];

internalField   nonuniform List<vector> 
10000
(
(0.00499999 -1.37493e-07 0)
(0.00499997 -3.90332e-07 0)
(0.00499993 -6.40089e-07 0)
(0.00499988 -8.9504e-07 0)
(0.00499983 -1.16009e-06 0)
(0.00499976 -1.43884e-06 0)
(0.00499969 -1.73416e-06 0)
(0.00499961 -2.04853e-06 0)
(0.00499951 -2.38417e-06 0)
(0.00499941 -2.74322e-06 0)
(0.00499929 -3.12774e-06 0)
(0.00499916 -3.53976e-06 0)
(0.00499902 -3.98133e-06 0)
(0.00499887 -4.45455e-06 0)
(0.0049987 -4.9615e-06 0)
(0.00499851 -5.50437e-06 0)
(0.0049983 -6.08537e-06 0)
(0.00499808 -6.70677e-06 0)
(0.00499784 -7.37093e-06 0)
(0.00499758 -8.08027e-06 0)
(0.0049973 -8.83728e-06 0)
(0.00499699 -9.64453e-06 0)
(0.00499666 -1.05047e-05 0)
(0.0049963 -1.14204e-05 0)
(0.00499592 -1.23946e-05 0)
(0.00499551 -1.34302e-05 0)
(0.00499506 -1.453e-05 0)
(0.00499459 -1.56972e-05 0)
(0.00499407 -1.6935e-05 0)
(0.00499353 -1.82466e-05 0)
(0.00499294 -1.96352e-05 0)
(0.00499232 -2.11044e-05 0)
(0.00499165 -2.26575e-05 0)
(0.00499094 -2.42982e-05 0)
(0.00499018 -2.603e-05 0)
(0.00498937 -2.78568e-05 0)
(0.00498851 -2.97822e-05 0)
(0.00498759 -3.18102e-05 0)
(0.00498662 -3.39446e-05 0)
(0.00498559 -3.61894e-05 0)
(0.00498449 -3.85485e-05 0)
(0.00498333 -4.10261e-05 0)
(0.00498211 -4.36262e-05 0)
(0.00498081 -4.63529e-05 0)
(0.00497943 -4.92103e-05 0)
(0.00497798 -5.22024e-05 0)
(0.00497644 -5.53335e-05 0)
(0.00497483 -5.86074e-05 0)
(0.00497312 -6.20283e-05 0)
(0.00497132 -6.56e-05 0)
(0.00496942 -6.93264e-05 0)
(0.00496743 -7.32113e-05 0)
(0.00496533 -7.72582e-05 0)
(0.00496313 -8.14705e-05 0)
(0.00496082 -8.58516e-05 0)
(0.00495839 -9.04044e-05 0)
(0.00495585 -9.51318e-05 0)
(0.00495318 -0.000100036 0)
(0.00495039 -0.00010512 0)
(0.00494747 -0.000110384 0)
(0.00494442 -0.000115831 0)
(0.00494123 -0.00012146 0)
(0.0049379 -0.000127273 0)
(0.00493443 -0.000133269 0)
(0.00493081 -0.000139447 0)
(0.00492705 -0.000145805 0)
(0.00492314 -0.000152341 0)
(0.00491907 -0.000159052 0)
(0.00491485 -0.000165931 0)
(0.00491047 -0.000172975 0)
(0.00490594 -0.000180177 0)
(0.00490125 -0.000187527 0)
(0.00489641 -0.000195018 0)
(0.00489141 -0.000202637 0)
(0.00488626 -0.000210372 0)
(0.00488096 -0.000218209 0)
(0.00487551 -0.00022613 0)
(0.00486993 -0.000234119 0)
(0.00486421 -0.000242154 0)
(0.00485838 -0.000250213 0)
(0.00485243 -0.00025827 0)
(0.00484638 -0.000266298 0)
(0.00484024 -0.000274266 0)
(0.00483404 -0.000282142 0)
(0.00482779 -0.000289889 0)
(0.00482151 -0.00029747 0)
(0.00481523 -0.000304841 0)
(0.00480898 -0.000311959 0)
(0.00480278 -0.000318775 0)
(0.00479668 -0.000325239 0)
(0.00479072 -0.000331294 0)
(0.00478494 -0.000336883 0)
(0.00477939 -0.000341943 0)
(0.00477413 -0.000346408 0)
(0.00476923 -0.00035021 0)
(0.00476474 -0.000353283 0)
(0.00476082 -0.000355571 0)
(0.00475737 -0.000357015 0)
(0.00475446 -0.000357515 0)
(0.00475235 -0.000357461 0)
(0.005 -1.1889e-07 0)
(0.00499997 -3.55021e-07 0)
(0.00499994 -5.94007e-07 0)
(0.00499989 -8.39157e-07 0)
(0.00499983 -1.0945e-06 0)
(0.00499977 -1.36326e-06 0)
(0.0049997 -1.64811e-06 0)
(0.00499961 -1.95141e-06 0)
(0.00499952 -2.27531e-06 0)
(0.00499941 -2.62186e-06 0)
(0.0049993 -2.99305e-06 0)
(0.00499917 -3.39087e-06 0)
(0.00499903 -3.8173e-06 0)
(0.00499887 -4.27436e-06 0)
(0.0049987 -4.7641e-06 0)
(0.00499852 -5.28862e-06 0)
(0.00499831 -5.85009e-06 0)
(0.00499809 -6.4507e-06 0)
(0.00499785 -7.09275e-06 0)
(0.00499759 -7.77859e-06 0)
(0.00499731 -8.51064e-06 0)
(0.004997 -9.2914e-06 0)
(0.00499667 -1.01234e-05 0)
(0.00499632 -1.10094e-05 0)
(0.00499593 -1.19521e-05 0)
(0.00499552 -1.29542e-05 0)
(0.00499508 -1.40188e-05 0)
(0.0049946 -1.51487e-05 0)
(0.0049941 -1.63471e-05 0)
(0.00499355 -1.76171e-05 0)
(0.00499297 -1.89619e-05 0)
(0.00499234 -2.03848e-05 0)
(0.00499168 -2.18893e-05 0)
(0.00499097 -2.34788e-05 0)
(0.00499021 -2.51568e-05 0)
(0.0049894 -2.69269e-05 0)
(0.00498854 -2.8793e-05 0)
(0.00498763 -3.07585e-05 0)
(0.00498666 -3.28275e-05 0)
(0.00498563 -3.50038e-05 0)
(0.00498454 -3.72911e-05 0)
(0.00498338 -3.96936e-05 0)
(0.00498216 -4.22152e-05 0)
(0.00498086 -4.48598e-05 0)
(0.00497949 -4.76315e-05 0)
(0.00497804 -5.05343e-05 0)
(0.00497651 -5.35721e-05 0)
(0.00497489 -5.6749e-05 0)
(0.00497319 -6.00689e-05 0)
(0.0049714 -6.35356e-05 0)
(0.00496951 -6.71529e-05 0)
(0.00496752 -7.09244e-05 0)
(0.00496543 -7.48539e-05 0)
(0.00496323 -7.89445e-05 0)
(0.00496092 -8.31997e-05 0)
(0.0049585 -8.76223e-05 0)
(0.00495596 -9.22153e-05 0)
(0.0049533 -9.6981e-05 0)
(0.00495052 -0.000101922 0)
(0.0049476 -0.000107039 0)
(0.00494456 -0.000112335 0)
(0.00494138 -0.00011781 0)
(0.00493806 -0.000123464 0)
(0.00493459 -0.000129298 0)
(0.00493099 -0.000135311 0)
(0.00492723 -0.000141501 0)
(0.00492333 -0.000147866 0)
(0.00491927 -0.000154404 0)
(0.00491506 -0.000161109 0)
(0.00491069 -0.000167977 0)
(0.00490617 -0.000175002 0)
(0.00490149 -0.000182177 0)
(0.00489665 -0.000189492 0)
(0.00489166 -0.000196938 0)
(0.00488652 -0.000204504 0)
(0.00488124 -0.000212175 0)
(0.0048758 -0.000219937 0)
(0.00487023 -0.000227773 0)
(0.00486453 -0.000235664 0)
(0.0048587 -0.00024359 0)
(0.00485276 -0.000251527 0)
(0.00484672 -0.000259449 0)
(0.0048406 -0.00026733 0)
(0.0048344 -0.000275139 0)
(0.00482815 -0.000282842 0)
(0.00482188 -0.000290406 0)
(0.0048156 -0.000297791 0)
(0.00480935 -0.000304956 0)
(0.00480316 -0.000311859 0)
(0.00479705 -0.000318451 0)
(0.00479108 -0.000324683 0)
(0.00478529 -0.000330502 0)
(0.00477971 -0.000335852 0)
(0.00477442 -0.000340674 0)
(0.00476945 -0.000344906 0)
(0.00476488 -0.000348487 0)
(0.00476079 -0.000351341 0)
(0.00475718 -0.00035339 0)
(0.00475407 -0.000354676 0)
(0.00475141 -0.000355406 0)
(0.005 -1.04015e-07 0)
(0.00499998 -3.22351e-07 0)
(0.00499994 -5.48962e-07 0)
(0.0049999 -7.83755e-07 0)
(0.00499984 -1.02925e-06 0)
(0.00499978 -1.28808e-06 0)
(0.00499971 -1.56263e-06 0)
(0.00499962 -1.85508e-06 0)
(0.00499953 -2.16748e-06 0)
(0.00499943 -2.5018e-06 0)
(0.00499931 -2.85998e-06 0)
(0.00499918 -3.24391e-06 0)
(0.00499904 -3.65555e-06 0)
(0.00499889 -4.09684e-06 0)
(0.00499872 -4.56978e-06 0)
(0.00499853 -5.07641e-06 0)
(0.00499833 -5.61883e-06 0)
(0.00499811 -6.19918e-06 0)
(0.00499787 -6.81969e-06 0)
(0.00499761 -7.48264e-06 0)
(0.00499733 -8.19039e-06 0)
(0.00499703 -8.94536e-06 0)
(0.0049967 -9.75007e-06 0)
(0.00499635 -1.06071e-05 0)
(0.00499596 -1.15191e-05 0)
(0.00499555 -1.24888e-05 0)
(0.00499511 -1.35191e-05 0)
(0.00499464 -1.46127e-05 0)
(0.00499413 -1.57729e-05 0)
(0.00499359 -1.70025e-05 0)
(0.00499301 -1.83047e-05 0)
(0.00499239 -1.96828e-05 0)
(0.00499173 -2.11401e-05 0)
(0.00499102 -2.26799e-05 0)
(0.00499027 -2.43056e-05 0)
(0.00498946 -2.60209e-05 0)
(0.00498861 -2.78293e-05 0)
(0.0049877 -2.97345e-05 0)
(0.00498674 -3.17401e-05 0)
(0.00498571 -3.385e-05 0)
(0.00498463 -3.60678e-05 0)
(0.00498348 -3.83976e-05 0)
(0.00498226 -4.08431e-05 0)
(0.00498097 -4.34084e-05 0)
(0.0049796 -4.60972e-05 0)
(0.00497816 -4.89135e-05 0)
(0.00497663 -5.18612e-05 0)
(0.00497503 -5.49443e-05 0)
(0.00497333 -5.81665e-05 0)
(0.00497155 -6.15317e-05 0)
(0.00496966 -6.50436e-05 0)
(0.00496768 -6.87058e-05 0)
(0.0049656 -7.25218e-05 0)
(0.00496342 -7.6495e-05 0)
(0.00496112 -8.06286e-05 0)
(0.00495871 -8.49256e-05 0)
(0.00495618 -8.93888e-05 0)
(0.00495353 -9.40208e-05 0)
(0.00495076 -9.88238e-05 0)
(0.00494786 -0.0001038 0)
(0.00494483 -0.00010895 0)
(0.00494166 -0.000114276 0)
(0.00493835 -0.000119778 0)
(0.00493491 -0.000125456 0)
(0.00493132 -0.000131309 0)
(0.00492758 -0.000137338 0)
(0.00492369 -0.000143539 0)
(0.00491965 -0.000149909 0)
(0.00491545 -0.000156447 0)
(0.0049111 -0.000163146 0)
(0.0049066 -0.000170002 0)
(0.00490194 -0.000177007 0)
(0.00489712 -0.000184154 0)
(0.00489216 -0.000191434 0)
(0.00488703 -0.000198837 0)
(0.00488176 -0.000206349 0)
(0.00487635 -0.000213957 0)
(0.0048708 -0.000221646 0)
(0.00486511 -0.000229399 0)
(0.00485931 -0.000237197 0)
(0.00485338 -0.000245018 0)
(0.00484736 -0.000252839 0)
(0.00484125 -0.000260635 0)
(0.00483507 -0.000268378 0)
(0.00482883 -0.000276038 0)
(0.00482257 -0.000283583 0)
(0.0048163 -0.000290979 0)
(0.00481004 -0.000298187 0)
(0.00480384 -0.000305168 0)
(0.00479772 -0.000311878 0)
(0.00479173 -0.000318273 0)
(0.00478589 -0.000324304 0)
(0.00478027 -0.000329919 0)
(0.0047749 -0.000335064 0)
(0.00476983 -0.000339681 0)
(0.00476511 -0.000343708 0)
(0.00476082 -0.000347076 0)
(0.00475697 -0.000349733 0)
(0.00475339 -0.000351646 0)
(0.00475004 -0.000352819 0)
(0.005 -9.38486e-08 0)
(0.00499998 -2.96212e-07 0)
(0.00499995 -5.10368e-07 0)
(0.00499991 -7.34691e-07 0)
(0.00499986 -9.70566e-07 0)
(0.00499979 -1.21998e-06 0)
(0.00499972 -1.48494e-06 0)
(0.00499964 -1.76741e-06 0)
(0.00499955 -2.0693e-06 0)
(0.00499944 -2.39248e-06 0)
(0.00499933 -2.7388e-06 0)
(0.0049992 -3.11012e-06 0)
(0.00499906 -3.50831e-06 0)
(0.00499891 -3.93527e-06 0)
(0.00499874 -4.39294e-06 0)
(0.00499856 -4.88331e-06 0)
(0.00499835 -5.40841e-06 0)
(0.00499814 -5.97033e-06 0)
(0.0049979 -6.57125e-06 0)
(0.00499764 -7.21338e-06 0)
(0.00499736 -7.89902e-06 0)
(0.00499706 -8.63054e-06 0)
(0.00499673 -9.41037e-06 0)
(0.00499638 -1.0241e-05 0)
(0.004996 -1.11251e-05 0)
(0.0049956 -1.20653e-05 0)
(0.00499516 -1.30643e-05 0)
(0.00499469 -1.4125e-05 0)
(0.00499419 -1.52503e-05 0)
(0.00499365 -1.64431e-05 0)
(0.00499307 -1.77066e-05 0)
(0.00499246 -1.90439e-05 0)
(0.0049918 -2.04581e-05 0)
(0.0049911 -2.19527e-05 0)
(0.00499035 -2.35309e-05 0)
(0.00498955 -2.51962e-05 0)
(0.0049887 -2.69521e-05 0)
(0.0049878 -2.88022e-05 0)
(0.00498684 -3.075e-05 0)
(0.00498582 -3.27994e-05 0)
(0.00498474 -3.49539e-05 0)
(0.0049836 -3.72174e-05 0)
(0.00498239 -3.95937e-05 0)
(0.00498111 -4.20865e-05 0)
(0.00497975 -4.46998e-05 0)
(0.00497832 -4.74373e-05 0)
(0.00497681 -5.03029e-05 0)
(0.00497521 -5.33004e-05 0)
(0.00497352 -5.64336e-05 0)
(0.00497175 -5.97062e-05 0)
(0.00496988 -6.3122e-05 0)
(0.00496791 -6.66844e-05 0)
(0.00496584 -7.03969e-05 0)
(0.00496367 -7.4263e-05 0)
(0.00496139 -7.82857e-05 0)
(0.00495899 -8.24681e-05 0)
(0.00495648 -8.68131e-05 0)
(0.00495385 -9.13231e-05 0)
(0.00495109 -9.60004e-05 0)
(0.00494821 -0.000100847 0)
(0.0049452 -0.000105865 0)
(0.00494205 -0.000111054 0)
(0.00493876 -0.000116417 0)
(0.00493534 -0.000121952 0)
(0.00493177 -0.000127661 0)
(0.00492805 -0.000133541 0)
(0.00492419 -0.000139592 0)
(0.00492017 -0.000145811 0)
(0.004916 -0.000152195 0)
(0.00491168 -0.00015874 0)
(0.0049072 -0.000165441 0)
(0.00490256 -0.000172291 0)
(0.00489777 -0.000179285 0)
(0.00489283 -0.000186412 0)
(0.00488774 -0.000193665 0)
(0.0048825 -0.000201031 0)
(0.00487711 -0.000208498 0)
(0.00487159 -0.000216052 0)
(0.00486593 -0.000223678 0)
(0.00486015 -0.000231356 0)
(0.00485425 -0.00023907 0)
(0.00484825 -0.000246796 0)
(0.00484216 -0.000254511 0)
(0.004836 -0.000262192 0)
(0.00482978 -0.000269808 0)
(0.00482353 -0.000277333 0)
(0.00481726 -0.000284732 0)
(0.00481101 -0.000291972 0)
(0.0048048 -0.000299016 0)
(0.00479866 -0.000305824 0)
(0.00479263 -0.000312354 0)
(0.00478675 -0.000318561 0)
(0.00478105 -0.000324396 0)
(0.00477558 -0.000329804 0)
(0.00477038 -0.00033473 0)
(0.00476549 -0.000339109 0)
(0.00476096 -0.000342869 0)
(0.00475678 -0.000345936 0)
(0.00475271 -0.000348233 0)
(0.0047487 -0.000349687 0)
(0.005 -8.57158e-08 0)
(0.00499998 -2.73442e-07 0)
(0.00499996 -4.75017e-07 0)
(0.00499992 -6.88332e-07 0)
(0.00499987 -9.14092e-07 0)
(0.0049998 -1.15374e-06 0)
(0.00499973 -1.40891e-06 0)
(0.00499965 -1.68131e-06 0)
(0.00499956 -1.97269e-06 0)
(0.00499946 -2.28479e-06 0)
(0.00499935 -2.61937e-06 0)
(0.00499922 -2.97821e-06 0)
(0.00499908 -3.36311e-06 0)
(0.00499893 -3.77592e-06 0)
(0.00499876 -4.21852e-06 0)
(0.00499858 -4.69283e-06 0)
(0.00499838 -5.20084e-06 0)
(0.00499817 -5.74458e-06 0)
(0.00499793 -6.32615e-06 0)
(0.00499768 -6.94773e-06 0)
(0.0049974 -7.61155e-06 0)
(0.0049971 -8.3199e-06 0)
(0.00499678 -9.07516e-06 0)
(0.00499643 -9.87978e-06 0)
(0.00499605 -1.07363e-05 0)
(0.00499565 -1.16473e-05 0)
(0.00499522 -1.26155e-05 0)
(0.00499475 -1.36435e-05 0)
(0.00499425 -1.47344e-05 0)
(0.00499372 -1.58909e-05 0)
(0.00499315 -1.71161e-05 0)
(0.00499254 -1.8413e-05 0)
(0.00499188 -1.97847e-05 0)
(0.00499119 -2.12345e-05 0)
(0.00499044 -2.27657e-05 0)
(0.00498965 -2.43816e-05 0)
(0.00498881 -2.60856e-05 0)
(0.00498792 -2.78812e-05 0)
(0.00498697 -2.9772e-05 0)
(0.00498596 -3.17615e-05 0)
(0.00498489 -3.38533e-05 0)
(0.00498376 -3.60513e-05 0)
(0.00498255 -3.8359e-05 0)
(0.00498128 -4.07802e-05 0)
(0.00497994 -4.33187e-05 0)
(0.00497852 -4.59782e-05 0)
(0.00497702 -4.87626e-05 0)
(0.00497543 -5.16754e-05 0)
(0.00497376 -5.47205e-05 0)
(0.004972 -5.79016e-05 0)
(0.00497015 -6.12222e-05 0)
(0.00496819 -6.46858e-05 0)
(0.00496614 -6.8296e-05 0)
(0.00496399 -7.2056e-05 0)
(0.00496172 -7.59689e-05 0)
(0.00495935 -8.00379e-05 0)
(0.00495685 -8.42657e-05 0)
(0.00495424 -8.86549e-05 0)
(0.00495151 -9.32078e-05 0)
(0.00494865 -9.79264e-05 0)
(0.00494566 -0.000102812 0)
(0.00494253 -0.000107867 0)
(0.00493927 -0.000113092 0)
(0.00493587 -0.000118486 0)
(0.00493233 -0.000124051 0)
(0.00492864 -0.000129785 0)
(0.0049248 -0.000135687 0)
(0.00492082 -0.000141755 0)
(0.00491668 -0.000147987 0)
(0.00491238 -0.000154378 0)
(0.00490794 -0.000160925 0)
(0.00490334 -0.000167622 0)
(0.00489858 -0.000174463 0)
(0.00489367 -0.000181439 0)
(0.00488861 -0.000188543 0)
(0.00488341 -0.000195763 0)
(0.00487805 -0.00020309 0)
(0.00487256 -0.000210509 0)
(0.00486694 -0.000218006 0)
(0.00486119 -0.000225566 0)
(0.00485532 -0.00023317 0)
(0.00484935 -0.000240799 0)
(0.00484329 -0.000248432 0)
(0.00483715 -0.000256046 0)
(0.00483095 -0.000263615 0)
(0.00482471 -0.000271113 0)
(0.00481846 -0.000278509 0)
(0.0048122 -0.000285772 0)
(0.00480598 -0.000292868 0)
(0.00479982 -0.000299761 0)
(0.00479375 -0.000306409 0)
(0.00478781 -0.00031277 0)
(0.00478203 -0.000318796 0)
(0.00477644 -0.000324435 0)
(0.00477109 -0.000329626 0)
(0.004766 -0.000334301 0)
(0.00476121 -0.000338378 0)
(0.00475669 -0.000341757 0)
(0.00475216 -0.00034432 0)
(0.00474754 -0.000346003 0)
(0.005 -7.86618e-08 0)
(0.00499999 -2.52928e-07 0)
(0.00499996 -4.42168e-07 0)
(0.00499992 -6.44243e-07 0)
(0.00499988 -8.59505e-07 0)
(0.00499982 -1.08902e-06 0)
(0.00499975 -1.33409e-06 0)
(0.00499967 -1.59621e-06 0)
(0.00499958 -1.87692e-06 0)
(0.00499948 -2.17784e-06 0)
(0.00499937 -2.50063e-06 0)
(0.00499924 -2.84697e-06 0)
(0.00499911 -3.2186e-06 0)
(0.00499896 -3.61729e-06 0)
(0.00499879 -4.04485e-06 0)
(0.00499861 -4.50316e-06 0)
(0.00499841 -4.99414e-06 0)
(0.0049982 -5.51977e-06 0)
(0.00499797 -6.08208e-06 0)
(0.00499771 -6.68319e-06 0)
(0.00499744 -7.32527e-06 0)
(0.00499714 -8.01054e-06 0)
(0.00499683 -8.74134e-06 0)
(0.00499648 -9.52003e-06 0)
(0.00499611 -1.03491e-05 0)
(0.00499571 -1.1231e-05 0)
(0.00499528 -1.21684e-05 0)
(0.00499482 -1.3164e-05 0)
(0.00499433 -1.42206e-05 0)
(0.0049938 -1.53409e-05 0)
(0.00499323 -1.65279e-05 0)
(0.00499263 -1.77845e-05 0)
(0.00499198 -1.91139e-05 0)
(0.00499129 -2.05191e-05 0)
(0.00499056 -2.20034e-05 0)
(0.00498978 -2.357e-05 0)
(0.00498894 -2.52223e-05 0)
(0.00498806 -2.69636e-05 0)
(0.00498712 -2.87974e-05 0)
(0.00498612 -3.07273e-05 0)
(0.00498506 -3.27567e-05 0)
(0.00498394 -3.48893e-05 0)
(0.00498275 -3.71286e-05 0)
(0.00498149 -3.94784e-05 0)
(0.00498016 -4.19424e-05 0)
(0.00497875 -4.45241e-05 0)
(0.00497726 -4.72274e-05 0)
(0.00497569 -5.00558e-05 0)
(0.00497404 -5.30131e-05 0)
(0.0049723 -5.61028e-05 0)
(0.00497046 -5.93284e-05 0)
(0.00496853 -6.26936e-05 0)
(0.00496649 -6.62016e-05 0)
(0.00496436 -6.98558e-05 0)
(0.00496211 -7.36593e-05 0)
(0.00495976 -7.76151e-05 0)
(0.00495729 -8.1726e-05 0)
(0.0049547 -8.59946e-05 0)
(0.00495199 -9.04233e-05 0)
(0.00494916 -9.50143e-05 0)
(0.0049462 -9.97691e-05 0)
(0.0049431 -0.000104689 0)
(0.00493987 -0.000109776 0)
(0.0049365 -0.00011503 0)
(0.00493299 -0.000120451 0)
(0.00492933 -0.000126038 0)
(0.00492553 -0.000131792 0)
(0.00492157 -0.00013771 0)
(0.00491747 -0.000143789 0)
(0.00491321 -0.000150027 0)
(0.0049088 -0.00015642 0)
(0.00490424 -0.000162963 0)
(0.00489952 -0.000169651 0)
(0.00489465 -0.000176475 0)
(0.00488964 -0.000183429 0)
(0.00488447 -0.000190504 0)
(0.00487916 -0.000197688 0)
(0.0048737 -0.000204971 0)
(0.00486812 -0.000212339 0)
(0.00486241 -0.000219778 0)
(0.00485658 -0.000227271 0)
(0.00485064 -0.0002348 0)
(0.00484461 -0.000242347 0)
(0.0048385 -0.00024989 0)
(0.00483232 -0.000257407 0)
(0.00482609 -0.000264871 0)
(0.00481984 -0.000272256 0)
(0.00481359 -0.000279532 0)
(0.00480735 -0.000286669 0)
(0.00480116 -0.00029363 0)
(0.00479505 -0.000300378 0)
(0.00478904 -0.000306871 0)
(0.00478316 -0.000313062 0)
(0.00477745 -0.000318897 0)
(0.00477193 -0.000324312 0)
(0.00476663 -0.000329233 0)
(0.00476157 -0.000333565 0)
(0.00475673 -0.000337186 0)
(0.00475179 -0.000339939 0)
(0.00474659 -0.000341771 0)
(0.005 -7.24434e-08 0)
(0.00499999 -2.34348e-07 0)
(0.00499996 -4.11753e-07 0)
(0.00499993 -6.02673e-07 0)
(0.00499988 -8.07311e-07 0)
(0.00499983 -1.02649e-06 0)
(0.00499976 -1.26128e-06 0)
(0.00499968 -1.51295e-06 0)
(0.0049996 -1.7829e-06 0)
(0.0049995 -2.0726e-06 0)
(0.00499939 -2.38359e-06 0)
(0.00499927 -2.71747e-06 0)
(0.00499913 -3.07589e-06 0)
(0.00499898 -3.46055e-06 0)
(0.00499882 -3.87321e-06 0)
(0.00499864 -4.31566e-06 0)
(0.00499845 -4.78977e-06 0)
(0.00499824 -5.29746e-06 0)
(0.00499801 -5.8407e-06 0)
(0.00499776 -6.42155e-06 0)
(0.00499749 -7.0421e-06 0)
(0.0049972 -7.70454e-06 0)
(0.00499688 -8.41111e-06 0)
(0.00499654 -9.16413e-06 0)
(0.00499617 -9.96599e-06 0)
(0.00499578 -1.08191e-05 0)
(0.00499536 -1.17261e-05 0)
(0.0049949 -1.26896e-05 0)
(0.00499441 -1.37121e-05 0)
(0.00499389 -1.47966e-05 0)
(0.00499333 -1.59458e-05 0)
(0.00499273 -1.71626e-05 0)
(0.0049921 -1.845e-05 0)
(0.00499142 -1.9811e-05 0)
(0.00499069 -2.12489e-05 0)
(0.00498992 -2.27667e-05 0)
(0.00498909 -2.43677e-05 0)
(0.00498822 -2.60552e-05 0)
(0.00498729 -2.78327e-05 0)
(0.0049863 -2.97034e-05 0)
(0.00498525 -3.16709e-05 0)
(0.00498414 -3.37387e-05 0)
(0.00498297 -3.59103e-05 0)
(0.00498172 -3.81894e-05 0)
(0.0049804 -4.05794e-05 0)
(0.00497901 -4.30841e-05 0)
(0.00497754 -4.5707e-05 0)
(0.00497599 -4.84518e-05 0)
(0.00497435 -5.13219e-05 0)
(0.00497263 -5.4321e-05 0)
(0.00497081 -5.74526e-05 0)
(0.0049689 -6.07201e-05 0)
(0.00496689 -6.41269e-05 0)
(0.00496478 -6.76762e-05 0)
(0.00496256 -7.13711e-05 0)
(0.00496023 -7.52146e-05 0)
(0.00495778 -7.92096e-05 0)
(0.00495522 -8.33587e-05 0)
(0.00495254 -8.76643e-05 0)
(0.00494974 -9.21285e-05 0)
(0.00494681 -9.67532e-05 0)
(0.00494374 -0.00010154 0)
(0.00494054 -0.00010649 0)
(0.00493721 -0.000111604 0)
(0.00493373 -0.000116882 0)
(0.00493011 -0.000122325 0)
(0.00492634 -0.00012793 0)
(0.00492243 -0.000133698 0)
(0.00491836 -0.000139627 0)
(0.00491415 -0.000145712 0)
(0.00490978 -0.000151952 0)
(0.00490526 -0.000158342 0)
(0.00490059 -0.000164877 0)
(0.00489576 -0.00017155 0)
(0.00489079 -0.000178355 0)
(0.00488566 -0.000185283 0)
(0.00488039 -0.000192326 0)
(0.00487499 -0.000199471 0)
(0.00486944 -0.000206709 0)
(0.00486377 -0.000214024 0)
(0.00485798 -0.000221404 0)
(0.00485208 -0.000228831 0)
(0.00484608 -0.000236288 0)
(0.00484 -0.000243756 0)
(0.00483384 -0.000251212 0)
(0.00482764 -0.000258636 0)
(0.00482139 -0.000266001 0)
(0.00481513 -0.000273279 0)
(0.00480888 -0.000280442 0)
(0.00480265 -0.000287456 0)
(0.00479649 -0.000294284 0)
(0.0047904 -0.000300884 0)
(0.00478443 -0.000307211 0)
(0.00477858 -0.000313206 0)
(0.0047729 -0.000318804 0)
(0.00476738 -0.000323923 0)
(0.00476206 -0.000328455 0)
(0.0047569 -0.000332262 0)
(0.00475161 -0.000335163 0)
(0.00474588 -0.000337073 0)
(0.005 -6.68669e-08 0)
(0.00499999 -2.17378e-07 0)
(0.00499997 -3.83536e-07 0)
(0.00499993 -5.63565e-07 0)
(0.00499989 -7.57631e-07 0)
(0.00499984 -9.66414e-07 0)
(0.00499977 -1.19083e-06 0)
(0.0049997 -1.43198e-06 0)
(0.00499961 -1.6911e-06 0)
(0.00499952 -1.96955e-06 0)
(0.00499941 -2.26876e-06 0)
(0.00499929 -2.59023e-06 0)
(0.00499916 -2.93552e-06 0)
(0.00499901 -3.30628e-06 0)
(0.00499885 -3.70416e-06 0)
(0.00499868 -4.13092e-06 0)
(0.00499849 -4.58835e-06 0)
(0.00499828 -5.0783e-06 0)
(0.00499805 -5.6027e-06 0)
(0.00499781 -6.16353e-06 0)
(0.00499754 -6.76283e-06 0)
(0.00499725 -7.40271e-06 0)
(0.00499694 -8.08536e-06 0)
(0.00499661 -8.81303e-06 0)
(0.00499624 -9.58803e-06 0)
(0.00499586 -1.04128e-05 0)
(0.00499544 -1.12897e-05 0)
(0.00499499 -1.22214e-05 0)
(0.00499451 -1.32104e-05 0)
(0.00499399 -1.42594e-05 0)
(0.00499344 -1.53712e-05 0)
(0.00499285 -1.65486e-05 0)
(0.00499222 -1.77946e-05 0)
(0.00499155 -1.9112e-05 0)
(0.00499083 -2.05039e-05 0)
(0.00499007 -2.19735e-05 0)
(0.00498926 -2.35239e-05 0)
(0.00498839 -2.51582e-05 0)
(0.00498748 -2.68799e-05 0)
(0.0049865 -2.86922e-05 0)
(0.00498547 -3.05985e-05 0)
(0.00498437 -3.26022e-05 0)
(0.00498321 -3.47069e-05 0)
(0.00498198 -3.6916e-05 0)
(0.00498068 -3.92329e-05 0)
(0.0049793 -4.16614e-05 0)
(0.00497785 -4.42048e-05 0)
(0.00497632 -4.68668e-05 0)
(0.0049747 -4.96508e-05 0)
(0.004973 -5.25603e-05 0)
(0.0049712 -5.55989e-05 0)
(0.00496931 -5.87697e-05 0)
(0.00496733 -6.20763e-05 0)
(0.00496524 -6.55217e-05 0)
(0.00496305 -6.91092e-05 0)
(0.00496074 -7.28417e-05 0)
(0.00495833 -7.67219e-05 0)
(0.0049558 -8.07527e-05 0)
(0.00495315 -8.49363e-05 0)
(0.00495038 -8.92751e-05 0)
(0.00494748 -9.37709e-05 0)
(0.00494445 -9.84254e-05 0)
(0.00494128 -0.00010324 0)
(0.00493799 -0.000108215 0)
(0.00493455 -0.000113352 0)
(0.00493097 -0.000118651 0)
(0.00492724 -0.00012411 0)
(0.00492337 -0.00012973 0)
(0.00491935 -0.000135508 0)
(0.00491518 -0.000141442 0)
(0.00491085 -0.00014753 0)
(0.00490638 -0.000153767 0)
(0.00490175 -0.00016015 0)
(0.00489697 -0.000166672 0)
(0.00489205 -0.000173328 0)
(0.00488697 -0.00018011 0)
(0.00488175 -0.00018701 0)
(0.00487639 -0.000194018 0)
(0.00487089 -0.000201123 0)
(0.00486526 -0.000208315 0)
(0.00485952 -0.000215578 0)
(0.00485365 -0.000222899 0)
(0.00484769 -0.000230262 0)
(0.00484163 -0.000237648 0)
(0.0048355 -0.000245039 0)
(0.00482931 -0.000252414 0)
(0.00482307 -0.000259748 0)
(0.0048168 -0.000267016 0)
(0.00481053 -0.000274191 0)
(0.00480427 -0.000281239 0)
(0.00479805 -0.000288126 0)
(0.00479189 -0.000294809 0)
(0.00478581 -0.000301241 0)
(0.00477983 -0.000307364 0)
(0.00477397 -0.000313106 0)
(0.00476825 -0.000318379 0)
(0.00476268 -0.000323066 0)
(0.00475722 -0.000327016 0)
(0.0047516 -0.000330032 0)
(0.00474542 -0.000331982 0)
(0.005 -6.17863e-08 0)
(0.00499999 -2.01742e-07 0)
(0.00499997 -3.5725e-07 0)
(0.00499994 -5.26747e-07 0)
(0.0049999 -7.10415e-07 0)
(0.00499985 -9.08864e-07 0)
(0.00499979 -1.1229e-06 0)
(0.00499971 -1.3535e-06 0)
(0.00499963 -1.60178e-06 0)
(0.00499954 -1.86899e-06 0)
(0.00499943 -2.15645e-06 0)
(0.00499932 -2.46556e-06 0)
(0.00499919 -2.79783e-06 0)
(0.00499904 -3.15478e-06 0)
(0.00499889 -3.53804e-06 0)
(0.00499871 -3.94928e-06 0)
(0.00499853 -4.39022e-06 0)
(0.00499832 -4.86265e-06 0)
(0.0049981 -5.36845e-06 0)
(0.00499786 -5.90951e-06 0)
(0.0049976 -6.48783e-06 0)
(0.00499731 -7.10545e-06 0)
(0.00499701 -7.76449e-06 0)
(0.00499668 -8.46714e-06 0)
(0.00499632 -9.21564e-06 0)
(0.00499594 -1.00123e-05 0)
(0.00499553 -1.08596e-05 0)
(0.00499508 -1.17599e-05 0)
(0.00499461 -1.27158e-05 0)
(0.0049941 -1.37298e-05 0)
(0.00499356 -1.48048e-05 0)
(0.00499298 -1.59433e-05 0)
(0.00499236 -1.71483e-05 0)
(0.0049917 -1.84227e-05 0)
(0.00499099 -1.97693e-05 0)
(0.00499024 -2.11912e-05 0)
(0.00498944 -2.26915e-05 0)
(0.00498858 -2.42734e-05 0)
(0.00498768 -2.59399e-05 0)
(0.00498672 -2.76945e-05 0)
(0.0049857 -2.95403e-05 0)
(0.00498462 -3.14808e-05 0)
(0.00498347 -3.35193e-05 0)
(0.00498226 -3.56592e-05 0)
(0.00498098 -3.7904e-05 0)
(0.00497962 -4.02571e-05 0)
(0.00497819 -4.2722e-05 0)
(0.00497668 -4.53022e-05 0)
(0.00497508 -4.8001e-05 0)
(0.0049734 -5.0822e-05 0)
(0.00497163 -5.37685e-05 0)
(0.00496976 -5.68439e-05 0)
(0.0049678 -6.00513e-05 0)
(0.00496574 -6.33941e-05 0)
(0.00496357 -6.68753e-05 0)
(0.0049613 -7.04979e-05 0)
(0.00495892 -7.42647e-05 0)
(0.00495642 -7.81783e-05 0)
(0.0049538 -8.22413e-05 0)
(0.00495106 -8.64559e-05 0)
(0.0049482 -9.08242e-05 0)
(0.00494521 -9.53477e-05 0)
(0.00494208 -0.000100028 0)
(0.00493883 -0.000104866 0)
(0.00493543 -0.000109863 0)
(0.00493189 -0.000115019 0)
(0.00492821 -0.000120333 0)
(0.00492438 -0.000125805 0)
(0.00492041 -0.000131434 0)
(0.00491628 -0.000137218 0)
(0.00491201 -0.000143155 0)
(0.00490758 -0.000149241 0)
(0.00490301 -0.000155472 0)
(0.00489828 -0.000161844 0)
(0.0048934 -0.000168351 0)
(0.00488837 -0.000174986 0)
(0.0048832 -0.000181743 0)
(0.00487789 -0.000188612 0)
(0.00487244 -0.000195584 0)
(0.00486686 -0.000202649 0)
(0.00486115 -0.000209793 0)
(0.00485533 -0.000217005 0)
(0.0048494 -0.000224268 0)
(0.00484338 -0.000231568 0)
(0.00483727 -0.000238886 0)
(0.00483109 -0.000246202 0)
(0.00482485 -0.000253495 0)
(0.00481858 -0.000260741 0)
(0.00481229 -0.000267912 0)
(0.00480599 -0.000274977 0)
(0.00479972 -0.000281901 0)
(0.00479348 -0.000288642 0)
(0.00478729 -0.000295152 0)
(0.00478118 -0.000301369 0)
(0.00477515 -0.000307221 0)
(0.00476923 -0.000312611 0)
(0.00476343 -0.000317417 0)
(0.00475769 -0.000321475 0)
(0.00475179 -0.000324578 0)
(0.00474519 -0.000326507 0)
(0.005 -5.71071e-08 0)
(0.00499999 -1.87235e-07 0)
(0.00499997 -3.32673e-07 0)
(0.00499994 -4.92043e-07 0)
(0.0049999 -6.65571e-07 0)
(0.00499986 -8.53835e-07 0)
(0.0049998 -1.05757e-06 0)
(0.00499973 -1.27767e-06 0)
(0.00499965 -1.51515e-06 0)
(0.00499956 -1.77116e-06 0)
(0.00499946 -2.04692e-06 0)
(0.00499934 -2.34376e-06 0)
(0.00499921 -2.6631e-06 0)
(0.00499908 -3.00639e-06 0)
(0.00499892 -3.37517e-06 0)
(0.00499875 -3.77106e-06 0)
(0.00499857 -4.19571e-06 0)
(0.00499837 -4.65086e-06 0)
(0.00499815 -5.13829e-06 0)
(0.00499791 -5.65986e-06 0)
(0.00499765 -6.21748e-06 0)
(0.00499738 -6.81315e-06 0)
(0.00499708 -7.44892e-06 0)
(0.00499675 -8.1269e-06 0)
(0.0049964 -8.84927e-06 0)
(0.00499602 -9.6183e-06 0)
(0.00499562 -1.04363e-05 0)
(0.00499519 -1.13057e-05 0)
(0.00499472 -1.22289e-05 0)
(0.00499422 -1.32085e-05 0)
(0.00499369 -1.42471e-05 0)
(0.00499311 -1.53473e-05 0)
(0.0049925 -1.65119e-05 0)
(0.00499185 -1.77437e-05 0)
(0.00499116 -1.90456e-05 0)
(0.00499042 -2.04206e-05 0)
(0.00498963 -2.18715e-05 0)
(0.00498879 -2.34015e-05 0)
(0.0049879 -2.50137e-05 0)
(0.00498695 -2.67113e-05 0)
(0.00498595 -2.84975e-05 0)
(0.00498488 -3.03755e-05 0)
(0.00498375 -3.23487e-05 0)
(0.00498256 -3.44204e-05 0)
(0.00498129 -3.65939e-05 0)
(0.00497996 -3.88726e-05 0)
(0.00497855 -4.12599e-05 0)
(0.00497706 -4.37593e-05 0)
(0.00497548 -4.6374e-05 0)
(0.00497383 -4.91075e-05 0)
(0.00497208 -5.19631e-05 0)
(0.00497024 -5.49441e-05 0)
(0.00496831 -5.80536e-05 0)
(0.00496627 -6.1295e-05 0)
(0.00496414 -6.46712e-05 0)
(0.0049619 -6.81851e-05 0)
(0.00495955 -7.18397e-05 0)
(0.00495708 -7.56376e-05 0)
(0.0049545 -7.95813e-05 0)
(0.0049518 -8.36731e-05 0)
(0.00494897 -8.79151e-05 0)
(0.00494602 -9.23091e-05 0)
(0.00494294 -9.68566e-05 0)
(0.00493972 -0.000101559 0)
(0.00493636 -0.000106417 0)
(0.00493287 -0.000111431 0)
(0.00492924 -0.000116602 0)
(0.00492546 -0.000121928 0)
(0.00492153 -0.000127409 0)
(0.00491746 -0.000133044 0)
(0.00491323 -0.00013883 0)
(0.00490886 -0.000144765 0)
(0.00490433 -0.000150845 0)
(0.00489966 -0.000157067 0)
(0.00489483 -0.000163425 0)
(0.00488986 -0.000169913 0)
(0.00488474 -0.000176526 0)
(0.00487947 -0.000183255 0)
(0.00487407 -0.000190092 0)
(0.00486854 -0.000197028 0)
(0.00486288 -0.00020405 0)
(0.0048571 -0.000211148 0)
(0.0048512 -0.000218308 0)
(0.00484521 -0.000225514 0)
(0.00483912 -0.000232751 0)
(0.00483296 -0.000240001 0)
(0.00482673 -0.000247241 0)
(0.00482045 -0.000254451 0)
(0.00481413 -0.000261603 0)
(0.0048078 -0.000268666 0)
(0.00480146 -0.000275607 0)
(0.00479514 -0.000282383 0)
(0.00478886 -0.000288944 0)
(0.00478261 -0.000295227 0)
(0.00477643 -0.000301156 0)
(0.00477031 -0.000306631 0)
(0.00476429 -0.000311524 0)
(0.00475831 -0.000315665 0)
(0.00475212 -0.000318832 0)
(0.00474519 -0.000320695 0)
(0.005 -5.27665e-08 0)
(0.00499999 -1.73709e-07 0)
(0.00499997 -3.09625e-07 0)
(0.00499995 -4.59296e-07 0)
(0.00499991 -6.22994e-07 0)
(0.00499986 -8.0129e-07 0)
(0.00499981 -9.9488e-07 0)
(0.00499974 -1.20459e-06 0)
(0.00499966 -1.43135e-06 0)
(0.00499958 -1.67624e-06 0)
(0.00499948 -1.9404e-06 0)
(0.00499937 -2.22508e-06 0)
(0.00499924 -2.53161e-06 0)
(0.00499911 -2.86138e-06 0)
(0.00499896 -3.21586e-06 0)
(0.00499879 -3.59659e-06 0)
(0.00499861 -4.00517e-06 0)
(0.00499842 -4.44325e-06 0)
(0.0049982 -4.91258e-06 0)
(0.00499797 -5.41493e-06 0)
(0.00499772 -5.95217e-06 0)
(0.00499744 -6.52622e-06 0)
(0.00499715 -7.13905e-06 0)
(0.00499683 -7.79273e-06 0)
(0.00499649 -8.48937e-06 0)
(0.00499612 -9.23116e-06 0)
(0.00499572 -1.00204e-05 0)
(0.00499529 -1.08593e-05 0)
(0.00499483 -1.17503e-05 0)
(0.00499434 -1.2696e-05 0)
(0.00499382 -1.36987e-05 0)
(0.00499326 -1.47611e-05 0)
(0.00499266 -1.5886e-05 0)
(0.00499202 -1.70759e-05 0)
(0.00499133 -1.83337e-05 0)
(0.0049906 -1.96623e-05 0)
(0.00498983 -2.10646e-05 0)
(0.004989 -2.25435e-05 0)
(0.00498813 -2.41021e-05 0)
(0.0049872 -2.57435e-05 0)
(0.00498621 -2.74709e-05 0)
(0.00498516 -2.92873e-05 0)
(0.00498405 -3.1196e-05 0)
(0.00498287 -3.32004e-05 0)
(0.00498163 -3.53035e-05 0)
(0.00498031 -3.75089e-05 0)
(0.00497892 -3.98197e-05 0)
(0.00497746 -4.22393e-05 0)
(0.00497591 -4.4771e-05 0)
(0.00497428 -4.74182e-05 0)
(0.00497256 -5.0184e-05 0)
(0.00497075 -5.30718e-05 0)
(0.00496884 -5.60847e-05 0)
(0.00496684 -5.92259e-05 0)
(0.00496473 -6.24983e-05 0)
(0.00496252 -6.5905e-05 0)
(0.00496021 -6.94487e-05 0)
(0.00495778 -7.31322e-05 0)