/*--------------------------------*- C++ -*----------------------------------*\
  =========                 |
  \\      /  F ield         | OpenFOAM: The Open Source CFD Toolbox
   \\    /   O peration     | Website:  https://openfoam.org
    \\  /    A nd           | Version:  11
     \\/     M anipulation  |
\*---------------------------------------------------------------------------*/
FoamFile
{
    format      ascii;
    class       surfaceScalarField;
    location    "608";
    object      phi;
}
// * * * * * * * * * * * * * * * * * * * * * * * * * * * * * * * * * * * * * //

dimensions      [0 3 -1 0 0 0 0];

internalField   nonuniform List<scalar> 
19800
(
1.99999e-05
-4.64014e-10
1.99998e-05
-1.35182e-09
1.99996e-05
-2.23377e-09
1.99995e-05
-3.1371e-09
1.99992e-05
-4.07909e-09
1.9999e-05
-5.07154e-09
1.99987e-05
-6.12424e-09
1.99984e-05
-7.24584e-09
1.9998e-05
-8.44434e-09
1.99976e-05
-9.72739e-09
1.99971e-05
-1.11024e-08
1.99966e-05
-1.2577e-08
1.99961e-05
-1.41585e-08
1.99955e-05
-1.58545e-08
1.99948e-05
-1.76729e-08
1.99941e-05
-1.96215e-08
1.99933e-05
-2.17085e-08
1.99924e-05
-2.39424e-08
1.99915e-05
-2.63317e-08
1.99905e-05
-2.88853e-08
1.99894e-05
-3.16125e-08
1.99882e-05
-3.45227e-08
1.99869e-05
-3.76257e-08
1.99855e-05
-4.09316e-08
1.9984e-05
-4.44509e-08
1.99824e-05
-4.81941e-08
1.99807e-05
-5.21725e-08
1.99789e-05
-5.63972e-08
1.99769e-05
-6.08802e-08
1.99748e-05
-6.56332e-08
1.99725e-05
-7.06688e-08
1.99701e-05
-7.59995e-08
1.99675e-05
-8.16383e-08
1.99648e-05
-8.75984e-08
1.99619e-05
-9.38935e-08
1.99587e-05
-1.00537e-07
1.99554e-05
-1.07544e-07
1.99519e-05
-1.14928e-07
1.99482e-05
-1.22704e-07
1.99442e-05
-1.30887e-07
1.994e-05
-1.39492e-07
1.99355e-05
-1.48533e-07
1.99308e-05
-1.58027e-07
1.99258e-05
-1.67989e-07
1.99205e-05
-1.78434e-07
1.99149e-05
-1.89378e-07
1.9909e-05
-2.00836e-07
1.99028e-05
-2.12824e-07
1.98962e-05
-2.25357e-07
1.98893e-05
-2.3845e-07
1.98821e-05
-2.52117e-07
1.98744e-05
-2.66375e-07
1.98664e-05
-2.81236e-07
1.98579e-05
-2.96713e-07
1.9849e-05
-3.12821e-07
1.98397e-05
-3.29571e-07
1.98299e-05
-3.46974e-07
1.98197e-05
-3.6504e-07
1.9809e-05
-3.83779e-07
1.97978e-05
-4.03198e-07
1.97861e-05
-4.23304e-07
1.97739e-05
-4.44101e-07
1.97612e-05
-4.65592e-07
1.97479e-05
-4.87778e-07
1.9734e-05
-5.10657e-07
1.97196e-05
-5.34225e-07
1.97046e-05
-5.58474e-07
1.96891e-05
-5.83395e-07
1.96729e-05
-6.08972e-07
1.96562e-05
-6.3519e-07
1.96389e-05
-6.62026e-07
1.9621e-05
-6.89453e-07
1.96025e-05
-7.1744e-07
1.95834e-05
-7.4595e-07
1.95637e-05
-7.74941e-07
1.95435e-05
-8.04364e-07
1.95228e-05
-8.34163e-07
1.95015e-05
-8.64275e-07
1.94797e-05
-8.94631e-07
1.94575e-05
-9.2515e-07
1.94349e-05
-9.55746e-07
1.94119e-05
-9.86322e-07
1.93887e-05
-1.01677e-06
1.93652e-05
-1.04698e-06
1.93415e-05
-1.07682e-06
1.93178e-05
-1.10615e-06
1.92941e-05
-1.13482e-06
1.92705e-05
-1.16267e-06
1.92473e-05
-1.18952e-06
1.92244e-05
-1.21519e-06
1.92022e-05
-1.23947e-06
1.91807e-05
-1.26214e-06
1.91602e-05
-1.28297e-06
1.91409e-05
-1.3017e-06
1.9123e-05
-1.31807e-06
1.9107e-05
-1.33184e-06
1.9093e-05
-1.34269e-06
1.90812e-05
-1.3503e-06
1.90722e-05
-1.35467e-06
-1.3568e-06
1.99999e-05
-4.08366e-10
1.99998e-05
-1.23498e-09
1.99997e-05
-2.07764e-09
1.99995e-05
-2.94732e-09
1.99993e-05
-3.85644e-09
1.9999e-05
-4.81529e-09
1.99987e-05
-5.83289e-09
1.99984e-05
-6.91743e-09
1.9998e-05
-8.07661e-09
1.99976e-05
-9.31781e-09
1.99972e-05
-1.06483e-08
1.99966e-05
-1.20753e-08
1.99961e-05
-1.36062e-08
1.99955e-05
-1.52482e-08
1.99948e-05
-1.7009e-08
1.99941e-05
-1.88964e-08
1.99933e-05
-2.09181e-08
1.99925e-05
-2.30825e-08
1.99915e-05
-2.5398e-08
1.99905e-05
-2.78731e-08
1.99894e-05
-3.0517e-08
1.99882e-05
-3.33387e-08
1.99869e-05
-3.6348e-08
1.99856e-05
-3.95545e-08
1.99841e-05
-4.29685e-08
1.99825e-05
-4.66003e-08
1.99808e-05
-5.04609e-08
1.99789e-05
-5.45612e-08
1.9977e-05
-5.89126e-08
1.99749e-05
-6.3527e-08
1.99726e-05
-6.84162e-08
1.99702e-05
-7.35927e-08
1.99676e-05
-7.90691e-08
1.99649e-05
-8.48585e-08
1.9962e-05
-9.09739e-08
1.99589e-05
-9.74289e-08
1.99556e-05
-1.04237e-07
1.99521e-05
-1.11413e-07
1.99483e-05
-1.18971e-07
1.99444e-05
-1.26925e-07
1.99402e-05
-1.3529e-07
1.99357e-05
-1.44081e-07
1.9931e-05
-1.53313e-07
1.9926e-05
-1.63001e-07
1.99207e-05
-1.7316e-07
1.99152e-05
-1.83806e-07
1.99093e-05
-1.94953e-07
1.99031e-05
-2.06617e-07
1.98965e-05
-2.18813e-07
1.98896e-05
-2.31555e-07
1.98824e-05
-2.44859e-07
1.98747e-05
-2.58738e-07
1.98667e-05
-2.73207e-07
1.98583e-05
-2.88279e-07
1.98494e-05
-3.03966e-07
1.98401e-05
-3.20281e-07
1.98304e-05
-3.37235e-07
1.98202e-05
-3.54839e-07
1.98095e-05
-3.73101e-07
1.97983e-05
-3.9203e-07
1.97867e-05
-4.11632e-07
1.97745e-05
-4.31912e-07
1.97618e-05
-4.52874e-07
1.97485e-05
-4.74519e-07
1.97347e-05
-4.96846e-07
1.97203e-05
-5.19851e-07
1.97054e-05
-5.4353e-07
1.96899e-05
-5.67872e-07
1.96737e-05
-5.92865e-07
1.96571e-05
-6.18495e-07
1.96398e-05
-6.4474e-07
1.96219e-05
-6.71577e-07
1.96034e-05
-6.98977e-07
1.95844e-05
-7.26907e-07
1.95648e-05
-7.55327e-07
1.95446e-05
-7.84192e-07
1.95239e-05
-8.13452e-07
1.95027e-05
-8.43049e-07
1.94809e-05
-8.72917e-07
1.94588e-05
-9.02984e-07
1.94362e-05
-9.33169e-07
1.94133e-05
-9.63383e-07
1.939e-05
-9.93529e-07
1.93665e-05
-1.0235e-06
1.93429e-05
-1.05318e-06
1.93192e-05
-1.08243e-06
1.92955e-05
-1.11113e-06
1.9272e-05
-1.13912e-06
1.92487e-05
-1.16624e-06
1.92258e-05
-1.19232e-06
1.92035e-05
-1.21717e-06
1.91819e-05
-1.24058e-06
1.91613e-05
-1.26234e-06
1.91418e-05
-1.28222e-06
1.91237e-05
-1.29997e-06
1.91072e-05
-1.31534e-06
1.90926e-05
-1.32804e-06
1.90801e-05
-1.3378e-06
1.907e-05
-1.34455e-06
-1.3486e-06
2e-05
-3.6655e-10
1.99999e-05
-1.13147e-09
1.99997e-05
-1.92913e-09
1.99995e-05
-2.76161e-09
1.99993e-05
-3.63609e-09
1.9999e-05
-4.56054e-09
1.99988e-05
-5.54277e-09
1.99984e-05
-6.59026e-09
1.99981e-05
-7.71027e-09
1.99977e-05
-8.90988e-09
1.99972e-05
-1.01961e-08
1.99967e-05
-1.15759e-08
1.99962e-05
-1.30564e-08
1.99955e-05
-1.46448e-08
1.99949e-05
-1.63485e-08
1.99942e-05
-1.81749e-08
1.99934e-05
-2.01318e-08
1.99925e-05
-2.22272e-08
1.99916e-05
-2.44692e-08
1.99906e-05
-2.68663e-08
1.99895e-05
-2.94273e-08
1.99883e-05
-3.21611e-08
1.99871e-05
-3.50771e-08
1.99857e-05
-3.81847e-08
1.99842e-05
-4.1494e-08
1.99826e-05
-4.5015e-08
1.99809e-05
-4.87584e-08
1.99791e-05
-5.27348e-08
1.99771e-05
-5.69555e-08
1.9975e-05
-6.14318e-08
1.99728e-05
-6.61754e-08
1.99704e-05
-7.11985e-08
1.99679e-05
-7.65134e-08
1.99651e-05
-8.21326e-08
1.99622e-05
-8.80692e-08
1.99591e-05
-9.43363e-08
1.99558e-05
-1.00947e-07
1.99523e-05
-1.07916e-07
1.99486e-05
-1.15257e-07
1.99447e-05
-1.22983e-07
1.99405e-05
-1.3111e-07
1.99361e-05
-1.39652e-07
1.99314e-05
-1.48623e-07
1.99264e-05
-1.58038e-07
1.99212e-05
-1.67912e-07
1.99156e-05
-1.78261e-07
1.99098e-05
-1.89099e-07
1.99036e-05
-2.0044e-07
1.98971e-05
-2.123e-07
1.98902e-05
-2.24694e-07
1.9883e-05
-2.37635e-07
1.98754e-05
-2.51138e-07
1.98674e-05
-2.65216e-07
1.9859e-05
-2.79884e-07
1.98502e-05
-2.95152e-07
1.98409e-05
-3.11035e-07
1.98313e-05
-3.27542e-07
1.98211e-05
-3.44684e-07
1.98105e-05
-3.62471e-07
1.97994e-05
-3.80911e-07
1.97877e-05
-4.00011e-07
1.97756e-05
-4.19777e-07
1.97629e-05
-4.40211e-07
1.97497e-05
-4.61317e-07
1.9736e-05
-4.83094e-07
1.97217e-05
-5.05539e-07
1.97068e-05
-5.28649e-07
1.96913e-05
-5.52415e-07
1.96753e-05
-5.76826e-07
1.96587e-05
-6.01868e-07
1.96415e-05
-6.27525e-07
1.96236e-05
-6.53773e-07
1.96053e-05
-6.80588e-07
1.95863e-05
-7.07938e-07
1.95667e-05
-7.35787e-07
1.95467e-05
-7.64096e-07
1.9526e-05
-7.92816e-07
1.95049e-05
-8.21896e-07
1.94832e-05
-8.51275e-07
1.94611e-05
-8.80887e-07
1.94386e-05
-9.10658e-07
1.94157e-05
-9.40506e-07
1.93925e-05
-9.70342e-07
1.93691e-05
-1.00007e-06
1.93455e-05
-1.02957e-06
1.93218e-05
-1.05875e-06
1.92981e-05
-1.08745e-06
1.92746e-05
-1.11556e-06
1.92513e-05
-1.14293e-06
1.92283e-05
-1.16938e-06
1.92059e-05
-1.19475e-06
1.91842e-05
-1.21885e-06
1.91633e-05
-1.24147e-06
1.91435e-05
-1.2624e-06
1.91249e-05
-1.2814e-06
1.91078e-05
-1.2982e-06
1.90922e-05
-1.31252e-06
1.90785e-05
-1.32404e-06
1.90665e-05
-1.33253e-06
-1.33781e-06
2e-05
-3.32604e-10
1.99999e-05
-1.04056e-09
1.99997e-05
-1.7912e-09
1.99996e-05
-2.58349e-09
1.99993e-05
-3.42115e-09
1.99991e-05
-4.30982e-09
1.99988e-05
-5.25589e-09
1.99985e-05
-6.26598e-09
1.99981e-05
-7.34674e-09
1.99977e-05
-8.50484e-09
1.99973e-05
-9.74698e-09
1.99968e-05
-1.10799e-08
1.99962e-05
-1.25105e-08
1.99956e-05
-1.40457e-08
1.9995e-05
-1.56926e-08
1.99943e-05
-1.74586e-08
1.99935e-05
-1.93511e-08
1.99926e-05
-2.1378e-08
1.99917e-05
-2.35472e-08
1.99907e-05
-2.58669e-08
1.99896e-05
-2.83456e-08
1.99884e-05
-3.09921e-08
1.99872e-05
-3.38154e-08
1.99858e-05
-3.6825e-08
1.99844e-05
-4.00303e-08
1.99828e-05
-4.34413e-08
1.99811e-05
-4.70682e-08
1.99793e-05
-5.09217e-08
1.99773e-05
-5.50124e-08
1.99753e-05
-5.93516e-08
1.9973e-05
-6.39507e-08
1.99707e-05
-6.88214e-08
1.99681e-05
-7.39757e-08
1.99654e-05
-7.9426e-08
1.99625e-05
-8.5185e-08
1.99595e-05
-9.12654e-08
1.99562e-05
-9.76804e-08
1.99527e-05
-1.04443e-07
1.9949e-05
-1.11568e-07
1.99451e-05
-1.19068e-07
1.9941e-05
-1.26958e-07
1.99366e-05
-1.35252e-07
1.99319e-05
-1.43964e-07
1.9927e-05
-1.53108e-07
1.99218e-05
-1.627e-07
1.99163e-05
-1.72753e-07
1.99104e-05
-1.83283e-07
1.99043e-05
-1.94304e-07
1.98978e-05
-2.05831e-07
1.9891e-05
-2.17877e-07
1.98838e-05
-2.30458e-07
1.98763e-05
-2.43587e-07
1.98684e-05
-2.57277e-07
1.986e-05
-2.71542e-07
1.98513e-05
-2.86395e-07
1.98421e-05
-3.01847e-07
1.98324e-05
-3.1791e-07
1.98223e-05
-3.34594e-07
1.98118e-05
-3.51908e-07
1.98007e-05
-3.69863e-07
1.97892e-05
-3.88463e-07
1.97771e-05
-4.07716e-07
1.97645e-05
-4.27627e-07
1.97514e-05
-4.48196e-07
1.97377e-05
-4.69426e-07
1.97235e-05
-4.91314e-07
1.97087e-05
-5.13857e-07
1.96934e-05
-5.37049e-07
1.96774e-05
-5.6088e-07
1.96609e-05
-5.85339e-07
1.96438e-05
-6.10408e-07
1.96261e-05
-6.3607e-07
1.96078e-05
-6.62301e-07
1.95889e-05
-6.89072e-07
1.95695e-05
-7.16353e-07
1.95495e-05
-7.44105e-07
1.9529e-05
-7.72285e-07
1.95079e-05
-8.00847e-07
1.94864e-05
-8.29735e-07
1.94644e-05
-8.58888e-07
1.9442e-05
-8.8824e-07
1.94192e-05
-9.17715e-07
1.93961e-05
-9.47232e-07
1.93727e-05
-9.76701e-07
1.93491e-05
-1.00602e-06
1.93255e-05
-1.03509e-06
1.93018e-05
-1.06379e-06
1.92782e-05
-1.09199e-06
1.92549e-05
-1.11956e-06
1.92318e-05
-1.14634e-06
1.92093e-05
-1.17217e-06
1.91873e-05
-1.19689e-06
1.91661e-05
-1.22028e-06
1.91459e-05
-1.24214e-06
1.91267e-05
-1.26222e-06
1.91087e-05
-1.28025e-06
1.90921e-05
-1.29591e-06
1.90769e-05
-1.30881e-06
1.90629e-05
-1.31854e-06
-1.32479e-06
2e-05
-3.04014e-10
1.99999e-05
-9.59691e-10
1.99998e-05
-1.66382e-09
1.99996e-05
-2.41459e-09
1.99994e-05
-3.21379e-09
1.99991e-05
-4.06533e-09
1.99989e-05
-4.97431e-09
1.99985e-05
-5.94642e-09
1.99982e-05
-6.98766e-09
1.99978e-05
-8.10421e-09
1.99973e-05
-9.30241e-09
1.99968e-05
-1.05887e-08
1.99963e-05
-1.19697e-08
1.99957e-05
-1.3452e-08
1.99951e-05
-1.50427e-08
1.99944e-05
-1.67488e-08
1.99936e-05
-1.85776e-08
1.99927e-05
-2.05366e-08
1.99918e-05
-2.26336e-08
1.99908e-05
-2.48765e-08
1.99898e-05
-2.72738e-08
1.99886e-05
-2.98338e-08
1.99874e-05
-3.25653e-08
1.9986e-05
-3.54776e-08
1.99846e-05
-3.85799e-08
1.9983e-05
-4.18818e-08
1.99813e-05
-4.53934e-08
1.99795e-05
-4.91249e-08
1.99776e-05
-5.30868e-08
1.99755e-05
-5.72901e-08
1.99733e-05
-6.17458e-08
1.9971e-05
-6.64653e-08
1.99685e-05
-7.14605e-08
1.99658e-05
-7.67433e-08
1.99629e-05
-8.2326e-08
1.99599e-05
-8.82212e-08
1.99566e-05
-9.44417e-08
1.99532e-05
-1.01001e-07
1.99495e-05
-1.07911e-07
1.99457e-05
-1.15187e-07
1.99415e-05
-1.22842e-07
1.99372e-05
-1.30889e-07
1.99326e-05
-1.39344e-07
1.99277e-05
-1.48219e-07
1.99225e-05
-1.5753e-07
1.9917e-05
-1.67291e-07
1.99113e-05
-1.77516e-07
1.99052e-05
-1.88218e-07
1.98988e-05
-1.99414e-07
1.9892e-05
-2.11116e-07
1.98849e-05
-2.23339e-07
1.98774e-05
-2.36097e-07
1.98695e-05
-2.49402e-07
1.98612e-05
-2.63268e-07
1.98526e-05
-2.77707e-07
1.98434e-05
-2.92732e-07
1.98339e-05
-3.08354e-07
1.98239e-05
-3.24583e-07
1.98134e-05
-3.41428e-07
1.98024e-05
-3.589e-07
1.9791e-05
-3.77005e-07
1.9779e-05
-3.9575e-07
1.97665e-05
-4.15139e-07
1.97535e-05
-4.35175e-07
1.97399e-05
-4.55861e-07
1.97258e-05
-4.77196e-07
1.97111e-05
-4.99176e-07
1.96959e-05
-5.21798e-07
1.96801e-05
-5.45052e-07
1.96637e-05
-5.68929e-07
1.96467e-05
-5.93415e-07
1.96291e-05
-6.18493e-07
1.96109e-05
-6.44142e-07
1.95922e-05
-6.70337e-07
1.95729e-05
-6.97049e-07
1.9553e-05
-7.24244e-07
1.95326e-05
-7.51885e-07
1.95117e-05
-7.79927e-07
1.94903e-05
-8.08321e-07
1.94684e-05
-8.37011e-07
1.94461e-05
-8.65938e-07
1.94234e-05
-8.95032e-07
1.94004e-05
-9.24219e-07
1.93771e-05
-9.53417e-07
1.93536e-05
-9.82536e-07
1.933e-05
-1.01148e-06
1.93064e-05
-1.04014e-06
1.92828e-05
-1.06839e-06
1.92593e-05
-1.09612e-06
1.92362e-05
-1.12318e-06
1.92134e-05
-1.14941e-06
1.91912e-05
-1.17466e-06
1.91696e-05
-1.19872e-06
1.91489e-05
-1.22137e-06
1.9129e-05
-1.24238e-06
1.91102e-05
-1.26143e-06
1.90924e-05
-1.27816e-06
1.90758e-05
-1.29212e-06
1.90599e-05
-1.30273e-06
-1.3097e-06
2e-05
-2.79226e-10
1.99999e-05
-8.86928e-10
1.99998e-05
-1.54617e-09
1.99996e-05
-2.2553e-09
1.99994e-05
-3.01521e-09
1.99992e-05
-3.82868e-09
1.99989e-05
-4.69977e-09
1.99986e-05
-5.63333e-09
1.99982e-05
-6.63471e-09
1.99979e-05
-7.7096e-09
1.99974e-05
-8.86391e-09
1.99969e-05
-1.01037e-08
1.99964e-05
-1.14354e-08
1.99958e-05
-1.28654e-08
1.99952e-05
-1.44003e-08
1.99945e-05
-1.60471e-08
1.99937e-05
-1.78127e-08
1.99929e-05
-1.97046e-08
1.9992e-05
-2.17301e-08
1.9991e-05
-2.38972e-08
1.99899e-05
-2.62138e-08
1.99888e-05
-2.86882e-08
1.99875e-05
-3.13289e-08
1.99862e-05
-3.41449e-08
1.99848e-05
-3.71452e-08
1.99832e-05
-4.03392e-08
1.99816e-05
-4.37366e-08
1.99798e-05
-4.73474e-08
1.99779e-05
-5.11819e-08
1.99759e-05
-5.52505e-08
1.99737e-05
-5.95642e-08
1.99713e-05
-6.41341e-08
1.99689e-05
-6.89717e-08
1.99662e-05
-7.40886e-08
1.99634e-05
-7.94968e-08
1.99604e-05
-8.52085e-08
1.99572e-05
-9.12364e-08
1.99537e-05
-9.75931e-08
1.99501e-05
-1.04292e-07
1.99463e-05
-1.11345e-07
1.99422e-05
-1.18767e-07
1.99379e-05
-1.26571e-07
1.99333e-05
-1.3477e-07
1.99285e-05
-1.4338e-07
1.99234e-05
-1.52412e-07
1.9918e-05
-1.61883e-07
1.99122e-05
-1.71805e-07
1.99062e-05
-1.82193e-07
1.98999e-05
-1.9306e-07
1.98932e-05
-2.04421e-07
1.98861e-05
-2.16289e-07
1.98787e-05
-2.28679e-07
1.98709e-05
-2.41602e-07
1.98627e-05
-2.55072e-07
1.98541e-05
-2.69102e-07
1.98451e-05
-2.83703e-07
1.98356e-05
-2.98887e-07
1.98257e-05
-3.14665e-07
1.98153e-05
-3.31046e-07
1.98044e-05
-3.48039e-07
1.97931e-05
-3.65652e-07
1.97812e-05
-3.83892e-07
1.97689e-05
-4.02764e-07
1.9756e-05
-4.22272e-07
1.97425e-05
-4.42418e-07
1.97285e-05
-4.63203e-07
1.9714e-05
-4.84625e-07
1.96988e-05
-5.06679e-07
1.96832e-05
-5.29361e-07
1.96669e-05
-5.5266e-07
1.965e-05
-5.76566e-07
1.96326e-05
-6.01062e-07
1.96146e-05
-6.26131e-07
1.9596e-05
-6.51751e-07
1.95769e-05
-6.77896e-07
1.95571e-05
-7.04535e-07
1.95369e-05
-7.31635e-07
1.95161e-05
-7.59155e-07
1.94949e-05
-7.87051e-07
1.94731e-05
-8.15274e-07
1.94509e-05
-8.43768e-07
1.94284e-05
-8.72471e-07
1.94055e-05
-9.01315e-07
1.93823e-05
-9.30225e-07
1.93589e-05
-9.5912e-07
1.93353e-05
-9.87909e-07
1.93117e-05
-1.01649e-06
1.9288e-05
-1.04476e-06
1.92645e-05
-1.0726e-06
1.92412e-05
-1.09988e-06
1.92182e-05
-1.12644e-06
1.91957e-05
-1.15212e-06
1.91737e-05
-1.17673e-06
1.91524e-05
-1.20005e-06
1.91318e-05
-1.22181e-06
1.91121e-05
-1.2417e-06
1.90932e-05
-1.25928e-06
1.90752e-05
-1.27405e-06
1.90577e-05
-1.2853e-06
-1.29271e-06
2e-05
-2.57197e-10
1.99999e-05
-8.20769e-10
1.99998e-05
-1.43718e-09
1.99997e-05
-2.10537e-09
1.99995e-05
-2.8259e-09
1.99992e-05
-3.60084e-09
1.9999e-05
-4.43352e-09
1.99987e-05
-5.32811e-09
1.99983e-05
-6.28936e-09
1.99979e-05
-7.32248e-09
1.99975e-05
-8.43295e-09
1.9997e-05
-9.62653e-09
1.99965e-05
-1.09092e-08
1.99959e-05
-1.22872e-08
1.99953e-05
-1.37669e-08
1.99946e-05
-1.5355e-08
1.99938e-05
-1.70582e-08
1.9993e-05
-1.88836e-08
1.99921e-05
-2.08385e-08
1.99912e-05
-2.29306e-08
1.99901e-05
-2.51675e-08
1.9989e-05
-2.75573e-08
1.99878e-05
-3.01083e-08
1.99864e-05
-3.28291e-08
1.9985e-05
-3.57286e-08
1.99835e-05
-3.8816e-08
1.99819e-05
-4.21005e-08
1.99801e-05
-4.5592e-08
1.99782e-05
-4.93004e-08
1.99762e-05
-5.3236e-08
1.99741e-05
-5.74093e-08
1.99718e-05
-6.18313e-08
1.99693e-05
-6.65129e-08
1.99667e-05
-7.14657e-08
1.99639e-05
-7.67013e-08
1.99609e-05
-8.22317e-08
1.99577e-05
-8.8069e-08
1.99544e-05
-9.42256e-08
1.99508e-05
-1.00714e-07
1.9947e-05
-1.07548e-07
1.9943e-05
-1.14739e-07
1.99387e-05
-1.22302e-07
1.99342e-05
-1.3025e-07
1.99294e-05
-1.38595e-07
1.99243e-05
-1.47353e-07
1.9919e-05
-1.56536e-07
1.99133e-05
-1.66158e-07
1.99074e-05
-1.76234e-07
1.99011e-05
-1.86777e-07
1.98945e-05
-1.978e-07
1.98875e-05
-2.09317e-07
1.98802e-05
-2.21342e-07
1.98725e-05
-2.33887e-07
1.98643e-05
-2.46966e-07
1.98558e-05
-2.6059e-07
1.98469e-05
-2.74772e-07
1.98375e-05
-2.89522e-07
1.98277e-05
-3.04853e-07
1.98175e-05
-3.20773e-07
1.98067e-05
-3.37292e-07
1.97955e-05
-3.54418e-07
1.97837e-05
-3.72157e-07
1.97715e-05
-3.90517e-07
1.97587e-05
-4.09501e-07
1.97454e-05
-4.29112e-07
1.97316e-05
-4.49351e-07
1.97172e-05
-4.70218e-07
1.97022e-05
-4.9171e-07
1.96866e-05
-5.13823e-07
1.96705e-05
-5.36548e-07
1.96538e-05
-5.59876e-07
1.96366e-05
-5.83794e-07
1.96187e-05
-6.08286e-07
1.96003e-05
-6.33333e-07
1.95813e-05
-6.58911e-07
1.95618e-05
-6.84994e-07
1.95417e-05
-7.11551e-07
1.95211e-05
-7.38547e-07
1.95e-05
-7.65941e-07
1.94784e-05
-7.93689e-07
1.94564e-05
-8.21741e-07
1.94339e-05
-8.50041e-07
1.94112e-05
-8.78527e-07
1.93881e-05
-9.07131e-07
1.93647e-05
-9.35777e-07
1.93412e-05
-9.64383e-07
1.93176e-05
-9.92857e-07
1.92939e-05
-1.0211e-06
1.92703e-05
-1.04899e-06
1.92468e-05
-1.07642e-06
1.92236e-05
-1.10322e-06
1.92007e-05
-1.12925e-06
1.91783e-05
-1.1543e-06
1.91564e-05
-1.17816e-06
1.91351e-05
-1.20052e-06
1.91145e-05
-1.22106e-06
1.90945e-05
-1.23931e-06
1.90751e-05
-1.25468e-06
1.90563e-05
-1.26642e-06
-1.27405e-06
2e-05
-2.37265e-10
1.99999e-05
-7.60059e-10
1.99998e-05
-1.33587e-09
1.99997e-05
-1.9643e-09
1.99995e-05
-2.64587e-09
1.99993e-05
-3.38231e-09
1.9999e-05
-4.17642e-09
1.99987e-05
-5.03184e-09
1.99984e-05
-5.95283e-09
1.9998e-05
-6.94414e-09
1.99976e-05
-8.01087e-09
1.99971e-05
-9.15842e-09
1.99966e-05
-1.03925e-08
1.9996e-05
-1.17189e-08
1.99954e-05
-1.3144e-08
1.99947e-05
-1.46739e-08
1.9994e-05
-1.63154e-08
1.99932e-05
-1.80752e-08
1.99923e-05
-1.99604e-08
1.99913e-05
-2.19783e-08
1.99903e-05
-2.41365e-08
1.99892e-05
-2.64428e-08
1.9988e-05
-2.89053e-08
1.99867e-05
-3.15322e-08
1.99853e-05
-3.43323e-08
1.99838e-05
-3.73142e-08
1.99822e-05
-4.04874e-08
1.99805e-05
-4.3861e-08
1.99786e-05
-4.7445e-08
1.99766e-05
-5.12492e-08
1.99745e-05
-5.52839e-08
1.99722e-05
-5.95598e-08
1.99698e-05
-6.40875e-08
1.99672e-05
-6.88782e-08
1.99645e-05
-7.39434e-08
1.99615e-05
-7.92945e-08
1.99584e-05
-8.49435e-08
1.99551e-05
-9.09024e-08
1.99515e-05
-9.71837e-08
1.99478e-05
-1.038e-07
1.99438e-05
-1.10764e-07
1.99396e-05
-1.18088e-07
1.99351e-05
-1.25786e-07
1.99304e-05
-1.33872e-07
1.99254e-05
-1.42357e-07
1.99201e-05
-1.51256e-07
1.99146e-05
-1.60583e-07
1.99087e-05
-1.7035e-07
1.99025e-05
-1.80571e-07
1.98959e-05
-1.9126e-07
1.9889e-05
-2.0243e-07
1.98818e-05
-2.14094e-07
1.98742e-05
-2.26266e-07
1.98662e-05
-2.38957e-07
1.98578e-05
-2.5218e-07
1.98489e-05
-2.65946e-07
1.98397e-05
-2.80268e-07
1.983e-05
-2.95156e-07
1.98198e-05
-3.1062e-07
1.98092e-05
-3.2667e-07
1.97981e-05
-3.43313e-07
1.97865e-05
-3.60557e-07
1.97744e-05
-3.78409e-07
1.97618e-05
-3.96874e-07
1.97486e-05
-4.15954e-07
1.97349e-05
-4.35653e-07
1.97207e-05
-4.5597e-07
1.97059e-05
-4.76904e-07
1.96905e-05
-4.98451e-07
1.96745e-05
-5.20606e-07
1.9658e-05
-5.4336e-07
1.96409e-05
-5.66703e-07
1.96233e-05
-5.9062e-07
1.9605e-05
-6.15095e-07
1.95862e-05
-6.40107e-07
1.95669e-05
-6.65633e-07
1.9547e-05
-6.91646e-07
1.95265e-05
-7.18114e-07
1.95056e-05
-7.45001e-07
1.94842e-05
-7.72267e-07
1.94623e-05
-7.99867e-07
1.944e-05
-8.2775e-07
1.94173e-05
-8.5586e-07
1.93943e-05
-8.84136e-07
1.93711e-05
-9.12507e-07
1.93476e-05
-9.40898e-07
1.9324e-05
-9.69223e-07
1.93002e-05
-9.97387e-07
1.92765e-05
-1.02528e-06
1.92529e-05
-1.05279e-06
1.92294e-05
-1.07976e-06
1.92062e-05
-1.10604e-06
1.91833e-05
-1.13142e-06
1.91609e-05
-1.15568e-06
1.91388e-05
-1.17851e-06
1.91173e-05
-1.19955e-06
1.90963e-05
-1.2183e-06
1.90758e-05
-1.23415e-06
1.90556e-05
-1.24626e-06
-1.2539e-06
2e-05
-2.19005e-10
1.99999e-05
-7.03937e-10
1.99998e-05
-1.24135e-09
1.99997e-05
-1.83146e-09
1.99995e-05
-2.4749e-09
1.99993e-05
-3.17324e-09
1.99991e-05
-3.92894e-09
1.99988e-05
-4.74526e-09
1.99985e-05
-5.62605e-09
1.99981e-05
-6.57566e-09
1.99977e-05
-7.59882e-09
1.99972e-05
-8.70062e-09
1.99967e-05
-9.88641e-09
1.99962e-05
-1.11618e-08
1.99955e-05
-1.25327e-08
1.99949e-05
-1.40053e-08
1.99941e-05
-1.55857e-08
1.99934e-05
-1.72808e-08
1.99925e-05
-1.90972e-08
1.99916e-05
-2.1042e-08
1.99905e-05
-2.31227e-08
1.99894e-05
-2.53466e-08
1.99883e-05
-2.77217e-08
1.9987e-05
-3.02561e-08
1.99856e-05
-3.2958e-08
1.99841e-05
-3.58361e-08
1.99825e-05
-3.88994e-08
1.99808e-05
-4.21569e-08
1.9979e-05
-4.56181e-08
1.99771e-05
-4.92927e-08
1.9975e-05
-5.31907e-08
1.99727e-05
-5.73224e-08
1.99703e-05
-6.16983e-08
1.99678e-05
-6.63291e-08
1.99651e-05
-7.1226e-08
1.99622e-05
-7.64003e-08
1.99591e-05
-8.18635e-08
1.99558e-05
-8.76274e-08
1.99523e-05
-9.3704e-08
1.99486e-05
-1.00106e-07
1.99447e-05
-1.06845e-07
1.99406e-05
-1.13934e-07
1.99362e-05
-1.21386e-07
1.99315e-05
-1.29214e-07
1.99266e-05
-1.3743e-07
1.99214e-05
-1.46049e-07
1.99159e-05
-1.55083e-07
1.99101e-05
-1.64546e-07
1.9904e-05
-1.7445e-07
1.98975e-05
-1.84809e-07
1.98907e-05
-1.95636e-07
1.98836e-05
-2.06944e-07
1.9876e-05
-2.18745e-07
1.98681e-05
-2.31053e-07
1.98598e-05
-2.43879e-07
1.98511e-05
-2.57236e-07
1.9842e-05
-2.71134e-07
1.98324e-05
-2.85584e-07
1.98224e-05
-3.00597e-07
1.98119e-05
-3.16182e-07
1.98009e-05
-3.32348e-07
1.97895e-05
-3.49102e-07
1.97775e-05
-3.66451e-07
1.97651e-05
-3.84401e-07
1.97521e-05
-4.02956e-07
1.97385e-05
-4.22119e-07
1.97244e-05
-4.41891e-07
1.97098e-05
-4.62271e-07
1.96946e-05
-4.83258e-07
1.96789e-05
-5.04846e-07
1.96625e-05
-5.2703e-07
1.96456e-05
-5.49799e-07
1.96281e-05
-5.73143e-07
1.96101e-05
-5.97048e-07
1.95915e-05
-6.21494e-07
1.95723e-05
-6.46463e-07
1.95526e-05
-6.71929e-07
1.95323e-05
-6.97864e-07
1.95116e-05
-7.24238e-07
1.94903e-05
-7.51013e-07
1.94686e-05
-7.7815e-07
1.94465e-05
-8.05602e-07
1.94239e-05
-8.33318e-07
1.9401e-05
-8.61242e-07
1.93778e-05
-8.89311e-07
1.93544e-05
-9.17452e-07
1.93308e-05
-9.45587e-07
1.9307e-05
-9.73624e-07
1.92832e-05
-1.00146e-06
1.92594e-05
-1.02898e-06
1.92356e-05
-1.05604e-06
1.92121e-05
-1.08247e-06
1.91887e-05
-1.10809e-06
1.91657e-05
-1.13263e-06
1.9143e-05
-1.1558e-06
1.91206e-05
-1.17721e-06
1.90987e-05
-1.19634e-06
1.90771e-05
-1.21254e-06
1.90558e-05
-1.22493e-06
-1.23242e-06
2e-05
-2.02131e-10
1.99999e-05
-6.51762e-10
1.99998e-05
-1.15289e-09
1.99997e-05
-1.70624e-09
1.99996e-05
-2.31264e-09
1.99994e-05
-2.97358e-09
1.99991e-05
-3.69133e-09
1.99988e-05
-4.46886e-09
1.99985e-05
-5.3097e-09
1.99982e-05
-6.21786e-09
1.99978e-05
-7.19777e-09
1.99973e-05
-8.25417e-09
1.99968e-05
-9.39215e-09
1.99963e-05
-1.0617e-08
1.99957e-05
-1.19345e-08
1.9995e-05
-1.33503e-08
1.99943e-05
-1.48706e-08
1.99935e-05
-1.65017e-08
1.99927e-05
-1.82503e-08
1.99918e-05
-2.01231e-08
1.99908e-05
-2.21273e-08
1.99897e-05
-2.42701e-08
1.99885e-05
-2.65592e-08
1.99873e-05
-2.90023e-08
1.99859e-05
-3.16076e-08
1.99845e-05
-3.43835e-08
1.99829e-05
-3.73385e-08
1.99812e-05
-4.04816e-08
1.99794e-05
-4.38219e-08
1.99775e-05
-4.73688e-08
1.99755e-05
-5.11321e-08
1.99733e-05
-5.51217e-08
1.99709e-05
-5.93479e-08
1.99684e-05
-6.38212e-08
1.99657e-05
-6.85522e-08
1.99629e-05
-7.35521e-08
1.99598e-05
-7.88321e-08
1.99566e-05
-8.44037e-08
1.99532e-05
-9.02785e-08
1.99496e-05
-9.64685e-08
1.99457e-05
-1.02986e-07
1.99416e-05
-1.09843e-07
1.99373e-05
-1.17052e-07
1.99327e-05
-1.24626e-07
1.99278e-05
-1.32578e-07
1.99227e-05
-1.4092e-07
1.99173e-05
-1.49665e-07
1.99116e-05
-1.58827e-07
1.99055e-05
-1.68418e-07
1.98992e-05
-1.78451e-07
1.98925e-05
-1.88939e-07
1.98854e-05
-1.99895e-07
1.9878e-05
-2.11332e-07
1.98702e-05
-2.23261e-07
1.9862e-05
-2.35696e-07
1.98535e-05
-2.48647e-07
1.98445e-05
-2.62126e-07
1.9835e-05
-2.76143e-07
1.98251e-05
-2.9071e-07
1.98148e-05
-3.05836e-07
1.9804e-05
-3.2153e-07
1.97927e-05
-3.37799e-07
1.97809e-05
-3.54651e-07
1.97685e-05
-3.72092e-07
1.97557e-05
-3.90126e-07
1.97424e-05
-4.08758e-07
1.97285e-05
-4.27989e-07
1.9714e-05
-4.47821e-07
1.9699e-05
-4.6825e-07
1.96834e-05
-4.89276e-07
1.96673e-05
-5.10892e-07
1.96506e-05
-5.33092e-07
1.96333e-05
-5.55865e-07
1.96155e-05
-5.792e-07
1.9597e-05
-6.0308e-07
1.95781e-05
-6.27489e-07
1.95585e-05
-6.52406e-07
1.95385e-05
-6.77805e-07
1.95179e-05
-7.03658e-07
1.94968e-05
-7.29933e-07
1.94753e-05
-7.56594e-07
1.94533e-05
-7.83599e-07
1.94309e-05
-8.10902e-07
1.94081e-05
-8.38451e-07
1.93849e-05
-8.66187e-07
1.93615e-05
-8.94044e-07
1.93379e-05
-9.21946e-07
1.93141e-05
-9.49807e-07
1.92901e-05
-9.77528e-07
1.92661e-05
-1.00499e-06
1.92422e-05
-1.03206e-06
1.92183e-05
-1.05857e-06
1.91945e-05
-1.08431e-06
1.91709e-05
-1.10903e-06
1.91475e-05
-1.13243e-06
1.91244e-05
-1.15409e-06
1.91015e-05
-1.17349e-06
1.90789e-05
-1.18994e-06
1.90566e-05
-1.20255e-06
-1.20987e-06
2e-05
-1.86443e-10
1.99999e-05
-6.03051e-10
1.99999e-05
-1.06989e-09
1.99997e-05
-1.5881e-09
1.99996e-05
-2.15869e-09
1.99994e-05
-2.78315e-09
1.99992e-05
-3.46363e-09
1.99989e-05
-4.2029e-09
1.99986e-05
-5.00424e-09
1.99982e-05
-5.87138e-09
1.99979e-05
-6.80845e-09
1.99974e-05
-7.81994e-09
1.99969e-05
-8.91064e-09
1.99964e-05
-1.00856e-08
1.99958e-05
-1.13502e-08
1.99952e-05
-1.27101e-08
1.99945e-05
-1.41711e-08
1.99937e-05
-1.57393e-08
1.99929e-05
-1.74211e-08
1.9992e-05
-1.9223e-08
1.9991e-05
-2.11519e-08
1.999e-05
-2.32148e-08
1.99888e-05
-2.54192e-08
1.99876e-05
-2.77726e-08
1.99863e-05
-3.02828e-08
1.99848e-05
-3.2958e-08
1.99833e-05
-3.58065e-08
1.99817e-05
-3.88369e-08
1.99799e-05
-4.20582e-08
1.9978e-05
-4.54794e-08
1.9976e-05
-4.91101e-08
1.99738e-05
-5.29599e-08
1.99715e-05
-5.70387e-08
1.99691e-05
-6.13567e-08
1.99664e-05
-6.59245e-08
1.99636e-05
-7.07527e-08
1.99606e-05
-7.58522e-08
1.99575e-05
-8.12342e-08
1.99541e-05
-8.69102e-08
1.99505e-05
-9.28918e-08
1.99467e-05
-9.91907e-08
1.99427e-05
-1.05819e-07
1.99384e-05
-1.12789e-07
1.99339e-05
-1.20113e-07
1.99292e-05
-1.27803e-07
1.99241e-05
-1.35872e-07
1.99188e-05
-1.44333e-07
1.99132e-05
-1.53198e-07
1.99072e-05
-1.6248e-07
1.9901e-05
-1.72191e-07
1.98944e-05
-1.82345e-07
1.98874e-05
-1.92954e-07
1.98801e-05
-2.04031e-07
1.98724e-05
-2.15586e-07
1.98644e-05
-2.27634e-07
1.98559e-05
-2.40185e-07
1.9847e-05
-2.5325e-07
1.98377e-05
-2.6684e-07
1.9828e-05
-2.80967e-07
1.98178e-05
-2.95639e-07
1.98071e-05
-3.10865e-07
1.9796e-05
-3.26655e-07
1.97844e-05
-3.43015e-07
1.97722e-05
-3.59952e-07
1.97596e-05
-3.77471e-07
1.97464e-05
-3.95577e-07
1.97327e-05
-4.14272e-07
1.97184e-05
-4.33559e-07
1.97036e-05
-4.53436e-07
1.96882e-05
-4.73903e-07
1.96723e-05
-4.94955e-07
1.96558e-05
-5.16587e-07
1.96387e-05
-5.3879e-07
1.96211e-05
-5.61556e-07
1.96028e-05
-5.8487e-07
1.95841e-05
-6.08718e-07
1.95647e-05
-6.33081e-07
1.95449e-05
-6.57938e-07
1.95245e-05
-6.83263e-07
1.95036e-05
-7.09028e-07
1.94822e-05
-7.352e-07
1.94603e-05
-7.61742e-07
1.9438e-05
-7.88611e-07
1.94153e-05
-8.1576e-07
1.93923e-05
-8.43134e-07
1.93689e-05
-8.70671e-07
1.93453e-05
-8.98299e-07
1.93214e-05
-9.25935e-07
1.92974e-05
-9.53483e-07
1.92732e-05
-9.80827e-07
1.9249e-05
-1.00783e-06
1.92247e-05
-1.03433e-06
1.92005e-05
-1.06011e-06
1.91764e-05
-1.08492e-06
1.91524e-05
-1.10843e-06
1.91286e-05
-1.13024e-06
1.91049e-05
-1.14981e-06
1.90814e-05
-1.16643e-06
1.9058e-05
-1.17922e-06
-1.1865e-06
2e-05
-1.71798e-10
1.99999e-05
-5.57435e-10
1.99999e-05
-9.91856e-10
1.99998e-05
-1.47654e-09
1.99996e-05
-2.01265e-09
1.99994e-05
-2.60169e-09
1.99992e-05
-3.24577e-09
1.99989e-05
-3.9475e-09
1.99987e-05
-4.70995e-09
1.99983e-05
-5.53664e-09
1.99979e-05
-6.43145e-09
1.99975e-05
-7.39861e-09
1.99971e-05
-8.44265e-09
1.99965e-05
-9.56841e-09
1.9996e-05
-1.0781e-08
1.99953e-05
-1.20857e-08
1.99947e-05
-1.34883e-08
1.99939e-05
-1.49945e-08
1.99931e-05
-1.66105e-08
1.99922e-05
-1.83427e-08
1.99913e-05
-2.01975e-08
1.99902e-05
-2.2182e-08
1.99891e-05
-2.43031e-08
1.99879e-05
-2.65682e-08
1.99866e-05
-2.89849e-08
1.99852e-05
-3.15611e-08
1.99837e-05
-3.43048e-08
1.99821e-05
-3.72245e-08
1.99804e-05
-4.03287e-08
1.99785e-05
-4.36264e-08
1.99765e-05
-4.71266e-08
1.99744e-05
-5.08388e-08
1.99722e-05
-5.47726e-08
1.99697e-05
-5.89379e-08
1.99672e-05
-6.3345e-08
1.99644e-05
-6.80041e-08
1.99615e-05
-7.2926e-08
1.99584e-05
-7.81215e-08
1.99551e-05
-8.36017e-08
1.99515e-05
-8.9378e-08
1.99478e-05
-9.54618e-08
1.99439e-05
-1.01865e-07
1.99397e-05
-1.08599e-07
1.99352e-05
-1.15676e-07
1.99305e-05
-1.23109e-07
1.99256e-05
-1.30909e-07
1.99203e-05
-1.39089e-07
1.99148e-05
-1.47662e-07
1.9909e-05
-1.56639e-07
1.99028e-05
-1.66034e-07
1.98963e-05
-1.75858e-07
1.98895e-05
-1.86125e-07
1.98823e-05
-1.96846e-07
1.98747e-05
-2.08033e-07
1.98668e-05
-2.19699e-07
1.98585e-05
-2.31854e-07
1.98497e-05
-2.44511e-07
1.98406e-05
-2.5768e-07
1.9831e-05
-2.71371e-07
1.98209e-05
-2.85594e-07
1.98104e-05
-3.00359e-07
1.97995e-05
-3.15675e-07
1.9788e-05
-3.31548e-07
1.9776e-05
-3.47986e-07
1.97635e-05
-3.64996e-07
1.97506e-05
-3.82581e-07
1.9737e-05
-4.00745e-07
1.9723e-05
-4.19491e-07
1.97083e-05
-4.3882e-07
1.96932e-05
-4.58731e-07
1.96774e-05
-4.79222e-07
1.96611e-05
-5.00288e-07
1.96443e-05
-5.21924e-07
1.96268e-05
-5.4412e-07
1.96088e-05
-5.66868e-07
1.95903e-05
-5.90152e-07
1.95711e-05
-6.13958e-07
1.95515e-05
-6.38267e-07
1.95313e-05
-6.63056e-07
1.95105e-05
-6.883e-07
1.94893e-05
-7.1397e-07
1.94676e-05
-7.40031e-07
1.94454e-05
-7.66446e-07
1.94228e-05
-7.9317e-07
1.93999e-05
-8.20152e-07
1.93765e-05
-8.47334e-07
1.93529e-05
-8.74646e-07
1.93289e-05
-9.0201e-07
1.93048e-05
-9.2933e-07
1.92805e-05
-9.56493e-07
1.9256e-05
-9.83362e-07