/*--------------------------------*- C++ -*----------------------------------*\
  =========                 |
  \\      /  F ield         | OpenFOAM: The Open Source CFD Toolbox
   \\    /   O peration     | Website:  https://openfoam.org
    \\  /    A nd           | Version:  11
     \\/     M anipulation  |
\*---------------------------------------------------------------------------*/
FoamFile
{
    format      ascii;
    class       volScalarField;
    location    "360";
    object      nut;
}
// * * * * * * * * * * * * * * * * * * * * * * * * * * * * * * * * * * * * * //

dimensions      [0 2 -1 0 0 0 0];

internalField   nonuniform List<scalar> 
10000
(
0.000977114
0.000936693
0.000899624
0.000865585
0.000834289
0.000805476
0.000778916
0.000754399
0.000731737
0.00071076
0.000691318
0.000673271
0.000656497
0.000640883
0.00062633
0.000612744
0.000600045
0.000588158
0.000577015
0.000566554
0.00055672
0.000547463
0.000538737
0.0005305
0.000522714
0.000515344
0.00050836
0.000501732
0.000495434
0.000489444
0.000483739
0.0004783
0.00047311
0.000468152
0.000463413
0.000458881
0.000454544
0.000450393
0.000446421
0.000442621
0.000438989
0.000435522
0.000432219
0.000429079
0.000426105
0.000423301
0.000420674
0.00041823
0.00041598
0.000413936
0.000412113
0.000410527
0.000409196
0.000408142
0.000407386
0.000406953
0.000406869
0.000407158
0.000407848
0.000408966
0.000410537
0.000412584
0.00041513
0.000418191
0.000421784
0.000425918
0.000430597
0.00043582
0.00044158
0.000447864
0.000454654
0.000461925
0.000469648
0.000477785
0.000486296
0.000495137
0.000504259
0.000513613
0.000523149
0.000532815
0.000542558
0.000552327
0.00056206
0.00057172
0.000581255
0.000590614
0.000599748
0.000608609
0.000617148
0.000625317
0.000633066
0.000640344
0.000647096
0.000653265
0.00065879
0.000663605
0.000667635
0.000670802
0.000673013
0.000674164
0.000977114
0.000936694
0.000899624
0.000865585
0.000834289
0.000805477
0.000778917
0.000754399
0.000731737
0.000710761
0.000691318
0.000673272
0.000656497
0.000640884
0.00062633
0.000612745
0.000600046
0.000588159
0.000577016
0.000566555
0.000556721
0.000547464
0.000538738
0.000530501
0.000522715
0.000515345
0.000508361
0.000501733
0.000495436
0.000489446
0.000483741
0.000478302
0.000473112
0.000468154
0.000463416
0.000458883
0.000454546
0.000450396
0.000446424
0.000442624
0.000438992
0.000435525
0.000432222
0.000429082
0.000426108
0.000423305
0.000420677
0.000418233
0.000415983
0.00041394
0.000412116
0.00041053
0.000409199
0.000408144
0.000407388
0.000406954
0.000406869
0.000407157
0.000407846
0.000408963
0.000410532
0.000412577
0.00041512
0.00041818
0.000421771
0.000425902
0.000430579
0.000435799
0.000441558
0.00044784
0.000454628
0.000461898
0.000469617
0.000477751
0.000486258
0.000495096
0.000504215
0.000513567
0.000523102
0.000532767
0.00054251
0.000552278
0.000562011
0.000571671
0.000581207
0.000590567
0.000599702
0.000608564
0.000617105
0.000625275
0.000633026
0.000640305
0.000647059
0.000653229
0.000658756
0.000663571
0.000667603
0.000670771
0.000672983
0.000674134
0.000977114
0.000936694
0.000899625
0.000865586
0.00083429
0.000805478
0.000778917
0.0007544
0.000731738
0.000710762
0.000691319
0.000673273
0.000656499
0.000640885
0.000626332
0.000612747
0.000600048
0.000588161
0.000577017
0.000566557
0.000556723
0.000547466
0.00053874
0.000530503
0.000522717
0.000515348
0.000508363
0.000501736
0.000495439
0.000489449
0.000483744
0.000478305
0.000473115
0.000468158
0.000463419
0.000458887
0.00045455
0.0004504
0.000446428
0.000442629
0.000438997
0.00043553
0.000432227
0.000429087
0.000426113
0.000423309
0.000420682
0.000418237
0.000415987
0.000413943
0.000412119
0.000410532
0.0004092
0.000408144
0.000407386
0.00040695
0.000406862
0.000407148
0.000407834
0.000408947
0.000410513
0.000412554
0.000415093
0.000418148
0.000421733
0.000425859
0.000430531
0.000435746
0.000441499
0.000447776
0.000454559
0.000461823
0.000469537
0.000477666
0.000486168
0.000495001
0.000504117
0.000513467
0.000522999
0.000532663
0.000542405
0.000552174
0.000561907
0.000571569
0.000581106
0.000590468
0.000599606
0.000608471
0.000617015
0.000625189
0.000632943
0.000640226
0.000646983
0.000653157
0.000658686
0.000663505
0.00066754
0.000670709
0.000672923
0.000674075
0.000977114
0.000936694
0.000899625
0.000865587
0.00083429
0.000805479
0.000778919
0.000754402
0.00073174
0.000710764
0.000691321
0.000673275
0.000656501
0.000640887
0.000626334
0.000612749
0.00060005
0.000588163
0.00057702
0.00056656
0.000556726
0.000547469
0.000538743
0.000530506
0.000522721
0.000515351
0.000508367
0.00050174
0.000495443
0.000489453
0.000483748
0.00047831
0.00047312
0.000468163
0.000463425
0.000458893
0.000454556
0.000450406
0.000446434
0.000442635
0.000439003
0.000435537
0.000432233
0.000429094
0.00042612
0.000423316
0.000420688
0.000418243
0.000415992
0.000413947
0.000412122
0.000410533
0.0004092
0.000408141
0.000407381
0.000406942
0.000406851
0.000407133
0.000407815
0.000408923
0.000410482
0.000412517
0.00041505
0.000418098
0.000421676
0.000425794
0.000430457
0.000435664
0.000441409
0.000447678
0.000454453
0.000461709
0.000469415
0.000477537
0.000486033
0.00049486
0.000503971
0.000513317
0.000522847
0.000532509
0.00054225
0.000552019
0.000561753
0.000571417
0.000580957
0.000590322
0.000599464
0.000608333
0.000616882
0.00062506
0.00063282
0.000640107
0.00064687
0.000653049
0.000658584
0.000663407
0.000667446
0.000670619
0.000672834
0.000673988
0.000977114
0.000936695
0.000899626
0.000865587
0.000834292
0.00080548
0.00077892
0.000754403
0.000731742
0.000710766
0.000691323
0.000673277
0.000656503
0.00064089
0.000626337
0.000612752
0.000600053
0.000588166
0.000577023
0.000566563
0.00055673
0.000547473
0.000538747
0.000530511
0.000522725
0.000515356
0.000508372
0.000501745
0.000495448
0.000489459
0.000483754
0.000478316
0.000473127
0.00046817
0.000463432
0.0004589
0.000454564
0.000450414
0.000446443
0.000442643
0.000439012
0.000435545
0.000432242
0.000429102
0.000426128
0.000423324
0.000420696
0.00041825
0.000415999
0.000413952
0.000412126
0.000410535
0.000409199
0.000408138
0.000407375
0.000406933
0.000406837
0.000407113
0.000407789
0.000408891
0.000410443
0.00041247
0.000414993
0.000418032
0.0004216
0.000425708
0.00043036
0.000435557
0.000441291
0.000447549
0.000454314
0.000461559
0.000469256
0.000477368
0.000485856
0.000494676
0.000503781
0.000513122
0.000522648
0.000532308
0.000542049
0.000551818
0.000561553
0.000571219
0.000580762
0.000590131
0.000599278
0.000608153
0.000616707
0.000624893
0.000632659
0.000639953
0.000646723
0.000652909
0.000658449
0.000663278
0.000667322
0.0006705
0.000672718
0.000673874
0.000977114
0.000936695
0.000899626
0.000865588
0.000834293
0.000805481
0.000778922
0.000754405
0.000731744
0.000710768
0.000691326
0.00067328
0.000656506
0.000640893
0.00062634
0.000612756
0.000600057
0.00058817
0.000577028
0.000566567
0.000556734
0.000547478
0.000538752
0.000530516
0.000522731
0.000515362
0.000508378
0.000501751
0.000495455
0.000489466
0.000483762
0.000478324
0.000473135
0.000468178
0.000463441
0.000458909
0.000454573
0.000450424
0.000446453
0.000442654
0.000439023
0.000435556
0.000432253
0.000429113
0.000426139
0.000423335
0.000420706
0.00041826
0.000416007
0.000413959
0.000412131
0.000410538
0.0004092
0.000408135
0.000407368
0.000406921
0.000406819
0.00040709
0.000407759
0.000408852
0.000410395
0.000412413
0.000414926
0.000417953
0.000421509
0.000425604
0.000430244
0.000435427
0.000441147
0.000447393
0.000454144
0.000461377
0.000469062
0.000477164
0.000485641
0.000494453
0.00050355
0.000512886
0.000522408
0.000532065
0.000541804
0.000551573
0.00056131
0.000570978
0.000580525
0.000589899
0.000599052
0.000607933
0.000616495
0.000624688
0.000632462
0.000639765
0.000646543
0.000652737
0.000658285
0.000663121
0.000667171
0.000670353
0.000672576
0.000673733
0.000977114
0.000936695
0.000899627
0.000865589
0.000834294
0.000805483
0.000778924
0.000754408
0.000731746
0.000710771
0.000691329
0.000673283
0.00065651
0.000640897
0.000626344
0.00061276
0.000600062
0.000588175
0.000577033
0.000566573
0.00055674
0.000547484
0.000538758
0.000530522
0.000522737
0.000515369
0.000508386
0.000501759
0.000495463
0.000489474
0.000483771
0.000478333
0.000473144
0.000468188
0.000463451
0.00045892
0.000454585
0.000450436
0.000446465
0.000442667
0.000439036
0.000435569
0.000432266
0.000429127
0.000426152
0.000423348
0.000420718
0.000418271
0.000416017
0.000413968
0.000412137
0.000410542
0.0004092
0.000408132
0.00040736
0.000406908
0.0004068
0.000407063
0.000407724
0.000408808
0.000410341
0.000412347
0.000414848
0.000417862
0.000421404
0.000425484
0.000430109
0.000435276
0.000440981
0.000447211
0.000453948
0.000461167
0.000468838
0.000476926
0.000485393
0.000494194
0.000503283
0.000512612
0.000522128
0.000531782
0.000541519
0.000551288
0.000561027
0.000570698
0.000580249
0.000589629
0.000598788
0.000607677
0.000616247
0.000624449
0.000632232
0.000639545
0.000646332
0.000652535
0.000658092
0.000662936
0.000666993
0.000670181
0.000672407
0.000673566
0.000977114
0.000936696
0.000899628
0.00086559
0.000834295
0.000805485
0.000778926
0.00075441
0.000731749
0.000710774
0.000691332
0.000673287
0.000656514
0.000640901
0.000626349
0.000612765
0.000600067
0.00058818
0.000577038
0.000566578
0.000556746
0.00054749
0.000538765
0.000530529
0.000522745
0.000515377
0.000508394
0.000501768
0.000495472
0.000489484
0.000483781
0.000478344
0.000473156
0.0004682
0.000463463
0.000458933
0.000454598
0.000450449
0.000446479
0.000442681
0.000439051
0.000435585
0.000432282
0.000429142
0.000426168
0.000423362
0.000420732
0.000418284
0.000416029
0.000413978
0.000412145
0.000410547
0.000409202
0.000408129
0.000407352
0.000406894
0.000406779
0.000407034
0.000407685
0.000408759
0.000410281
0.000412274
0.000414761
0.00041776
0.000421286
0.00042535
0.000429957
0.000435108
0.000440795
0.000447008
0.000453727
0.00046093
0.000468586
0.00047666
0.000485113
0.000493903
0.000502983
0.000512303
0.000521814
0.000531463
0.000541198
0.000550967
0.000560707
0.000570381
0.000579937
0.000589323
0.000598489
0.000607386
0.000615966
0.000624178
0.000631971
0.000639295
0.000646092
0.000652306
0.000657873
0.000662726
0.00066679
0.000669984
0.000672214
0.000673375
0.000977114
0.000936696
0.000899628
0.000865591
0.000834297
0.000805486
0.000778928
0.000754412
0.000731752
0.000710777
0.000691336
0.000673291
0.000656518
0.000640906
0.000626353
0.00061277
0.000600072
0.000588186
0.000577044
0.000566585
0.000556753
0.000547497
0.000538773
0.000530537
0.000522753
0.000515386
0.000508403
0.000501778
0.000495483
0.000489495
0.000483792
0.000478356
0.000473168
0.000468213
0.000463477
0.000458947
0.000454613
0.000450465
0.000446495
0.000442698
0.000439068
0.000435602
0.000432299
0.00042916
0.000426185
0.00042338
0.000420749
0.0004183
0.000416043
0.00041399
0.000412155
0.000410554
0.000409204
0.000408127
0.000407344
0.000406879
0.000406757
0.000407003
0.000407644
0.000408706
0.000410215
0.000412194
0.000414666
0.000417649
0.000421158
0.000425204
0.000429792
0.000434923
0.000440591
0.000446785
0.000453486
0.00046067
0.000468308
0.000476367
0.000484806
0.000493583
0.000502652
0.000511963
0.000521467
0.000531112
0.000540845
0.000550613
0.000560354
0.000570031
0.000579592
0.000588984
0.000598158
0.000607065
0.000615654
0.000623877
0.000631682
0.000639016
0.000645825
0.00065205
0.000657628
0.00066249
0.000666563
0.000669764
0.000671999
0.00067316
0.000977115
0.000936696
0.000899629
0.000865592
0.000834298
0.000805488
0.00077893
0.000754415
0.000731755
0.00071078
0.000691339
0.000673295
0.000656522
0.00064091
0.000626358
0.000612775
0.000600078
0.000588192
0.000577051
0.000566592
0.00055676
0.000547505
0.000538781
0.000530546
0.000522762
0.000515395
0.000508414
0.000501788
0.000495494
0.000489507
0.000483805
0.000478369
0.000473182
0.000468228
0.000463493
0.000458963
0.00045463
0.000450482
0.000446513
0.000442716
0.000439087
0.000435622
0.000432319
0.00042918
0.000426205
0.000423399
0.000420767
0.000418317
0.000416059
0.000414004
0.000412166
0.000410562
0.000409208
0.000408126
0.000407337
0.000406865
0.000406734
0.00040697
0.0004076
0.00040865
0.000410145
0.000412109
0.000414564
0.00041753
0.00042102
0.000425046
0.000429614
0.000434725
0.000440372
0.000446544
0.000453225
0.000460389
0.000468009
0.000476051
0.000484474
0.000493237
0.000502294
0.000511596
0.000521092
0.000530731
0.000540461
0.000550228
0.000559971
0.000569651
0.000579217
0.000588616
0.000597798
0.000606714
0.000615314
0.000623548
0.000631365
0.000638712
0.000645534
0.00065177
0.000657359
0.000662232
0.000666314
0.000669522
0.000671761
0.000672925
0.000977115
0.000936697
0.00089963
0.000865593
0.000834299
0.00080549
0.000778932
0.000754417
0.000731758
0.000710784
0.000691343
0.000673299
0.000656527
0.000640915
0.000626364
0.000612781
0.000600084
0.000588199
0.000577058
0.000566599
0.000556768
0.000547514
0.00053879
0.000530556
0.000522772
0.000515406
0.000508425
0.0005018
0.000495507
0.00048952
0.000483819
0.000478384
0.000473197
0.000468244
0.000463509
0.000458981
0.000454648
0.000450502
0.000446533
0.000442737
0.000439108
0.000435643
0.000432341
0.000429201
0.000426227
0.00042342
0.000420788
0.000418337
0.000416077
0.00041402
0.000412179
0.000410571
0.000409213
0.000408125
0.00040733
0.00040685
0.00040671
0.000406937
0.000407555
0.000408592
0.000410072
0.00041202
0.000414457
0.000417404
0.000420874
0.000424879
0.000429426
0.000434514
0.000440139
0.000446289
0.000452948
0.000460091
0.000467691
0.000475714
0.00048412
0.000492868
0.000501912
0.000511203
0.000520691
0.000530325
0.000540051
0.000549817
0.00055956
0.000569244
0.000578815
0.000588221
0.000597412
0.000606338
0.000614949
0.000623195
0.000631025
0.000638384
0.000645219
0.000651468
0.000657069
0.000661953
0.000666044
0.000669259
0.000671504
0.00067267
0.000977115
0.000936697
0.00089963
0.000865594
0.000834301
0.000805491
0.000778934
0.00075442
0.000731761
0.000710787
0.000691347
0.000673303
0.000656531
0.000640921
0.000626369
0.000612787
0.000600091
0.000588206
0.000577065
0.000566607
0.000556777
0.000547523
0.0005388
0.000530566
0.000522783
0.000515417
0.000508437
0.000501813
0.00049552
0.000489534
0.000483834
0.0004784
0.000473214
0.000468261
0.000463528
0.000459
0.000454668
0.000450522
0.000446555
0.000442759
0.000439131
0.000435666
0.000432365
0.000429225
0.000426251
0.000423444
0.000420811
0.000418358
0.000416097
0.000414038
0.000412194
0.000410582
0.000409219
0.000408126
0.000407324
0.000406836
0.000406687
0.000406902
0.000407508
0.000408531
0.000409996
0.000411927
0.000414346
0.000417272
0.000420722
0.000424705
0.000429228
0.000434293
0.000439894
0.000446021
0.000452656
0.000459778
0.000467357
0.000475359
0.000483748
0.00049248
0.00050151
0.000510789
0.000520268
0.000529895
0.000539617
0.000549381
0.000559126
0.000568812
0.000578388
0.000587802
0.000597001
0.000605937
0.00061456
0.000622819
0.000630662
0.000638035
0.000644883
0.000651145
0.000656759
0.000661654
0.000665755
0.000668978
0.000671228
0.000672397
0.000977115
0.000936697
0.000899631
0.000865595
0.000834302
0.000805493
0.000778936
0.000754422
0.000731763
0.00071079
0.000691351
0.000673307
0.000656536
0.000640926
0.000626375
0.000612793
0.000600097
0.000588213
0.000577073
0.000566616
0.000556786
0.000547532
0.00053881
0.000530577
0.000522795
0.000515429
0.00050845
0.000501827
0.000495534
0.000489549
0.00048385
0.000478416
0.000473232
0.00046828
0.000463547
0.000459021
0.00045469
0.000450545
0.000446578
0.000442783
0.000439155
0.000435692
0.00043239
0.000429251
0.000426276
0.000423469
0.000420835
0.000418382
0.000416119
0.000414057
0.00041221
0.000410595
0.000409227
0.000408128
0.000407319
0.000406822
0.000406663
0.000406868
0.000407461
0.000408469
0.000409918
0.000411831
0.000414231
0.000417137
0.000420564
0.000424524
0.000429023
0.000434064
0.00043964
0.000445742
0.000452353
0.000459451
0.000467008
0.00047499
0.000483359
0.000492074
0.000501089
0.000510356
0.000519826
0.000529445
0.000539163
0.000548925
0.00055867
0.000568359
0.000577941
0.000587361
0.00059657
0.000605516
0.000614151
0.000622422
0.000630279
0.000637666
0.000644528
0.000650804
0.00065643
0.000661337
0.000665448
0.000668679
0.000670935
0.000672107
0.000977115
0.000936698
0.000899631
0.000865596
0.000834303
0.000805495
0.000778938
0.000754425
0.000731766
0.000710794
0.000691354
0.000673312
0.000656541
0.000640931
0.000626381
0.0006128
0.000600104
0.000588221
0.000577081
0.000566624
0.000556795
0.000547542
0.00053882
0.000530588
0.000522807
0.000515442
0.000508463
0.000501841
0.00049555
0.000489565
0.000483867
0.000478434
0.000473251
0.0004683
0.000463568
0.000459043
0.000454712
0.000450568
0.000446603
0.000442809
0.000439182
0.000435719
0.000432418
0.000429279
0.000426304
0.000423497
0.000420862
0.000418407
0.000416142
0.000414078
0.000412229
0.000410609
0.000409236
0.000408131
0.000407314
0.000406809
0.00040664
0.000406833
0.000407413
0.000408406
0.000409838
0.000411733
0.000414113
0.000416997
0.000420402
0.000424338
0.000428812
0.000433827
0.000439378
0.000445454
0.00045204
0.000459114
0.000466647
0.000474607
0.000482957
0.000491654
0.000500653
0.000509908
0.000519366
0.000528978
0.000538691
0.000548451
0.000558196
0.000567888
0.000577474
0.000586902
0.000596119
0.000605077
0.000613723
0.000622008
0.000629878
0.000637279
0.000644155
0.000650445
0.000656084
0.000661003
0.000665125
0.000668365
0.000670627
0.000671802
0.000977115
0.000936698
0.000899632
0.000865596
0.000834304
0.000805496
0.00077894
0.000754427
0.000731769
0.000710797
0.000691358
0.000673316
0.000656546
0.000640936
0.000626387
0.000612806
0.000600111
0.000588228
0.000577089
0.000566633
0.000556804
0.000547552
0.000538831
0.0005306
0.000522819
0.000515455
0.000508477
0.000501856
0.000495565
0.000489582
0.000483884
0.000478453
0.000473271
0.000468321
0.00046359
0.000459066
0.000454736
0.000450593
0.000446629
0.000442836
0.000439209
0.000435747
0.000432447
0.000429308
0.000426333
0.000423526
0.00042089
0.000418435
0.000416168
0.000414101
0.000412248
0.000410624
0.000409247
0.000408136
0.000407311
0.000406798
0.000406618
0.000406799
0.000407365
0.000408343
0.000409758
0.000411634
0.000413994
0.000416856
0.000420237
0.000424148
0.000428597
0.000433585
0.00043911
0.000445159
0.000451719
0.000458767
0.000466277
0.000474214
0.000482543
0.000491221
0.000500205
0.000509445
0.000518893
0.000528497
0.000538204
0.000547961
0.000557706
0.0005674
0.000576992
0.000586426
0.000595653
0.000604621
0.000613279
0.000621577
0.000629461
0.000636877
0.000643767
0.000650071
0.000655724
0.000660655
0.000664788
0.000668036
0.000670304
0.000671482
0.000977115
0.000936698
0.000899632
0.000865597
0.000834305
0.000805497
0.000778942
0.000754429
0.000731772
0.0007108
0.000691362
0.00067332
0.00065655
0.000640942
0.000626393
0.000612812
0.000600118
0.000588236
0.000577098
0.000566642
0.000556814
0.000547563
0.000538843
0.000530612
0.000522832
0.000515469
0.000508492
0.000501871
0.000495582
0.0004896
0.000483903
0.000478473
0.000473291
0.000468343
0.000463613
0.00045909
0.000454762
0.00045062
0.000446656
0.000442864
0.000439239
0.000435777
0.000432477
0.000429339
0.000426364
0.000423556
0.00042092
0.000418464
0.000416195
0.000414126
0.00041227
0.000410642
0.000409259
0.000408141
0.00040731
0.000406787
0.000406597
0.000406765
0.000407318
0.00040828
0.000409677
0.000411534
0.000413873
0.000416712
0.000420069
0.000423955
0.000428378
0.00043334
0.000438836
0.000444859
0.000451392
0.000458414
0.000465899
0.000473813
0.00048212
0.00049078
0.000499746
0.000508972
0.000518408
0.000528003
0.000537704
0.000547458
0.000557203
0.0005669
0.000576496
0.000585937
0.000595172
0.000604151
0.000612822
0.000621133
0.000629031
0.000636461
0.000643366
0.000649684
0.000655351
0.000660294
0.000664438
0.000667695
0.00066997
0.000671151
0.000977115
0.000936698
0.000899633
0.000865598
0.000834306
0.000805499
0.000778943
0.000754431
0.000731774
0.000710803
0.000691365
0.000673324
0.000656555
0.000640947
0.000626399
0.000612819
0.000600126
0.000588244
0.000577106
0.000566652
0.000556824
0.000547574
0.000538854
0.000530624
0.000522845
0.000515483
0.000508507
0.000501888
0.000495599
0.000489618
0.000483922
0.000478493
0.000473313
0.000468365
0.000463637
0.000459115
0.000454788
0.000450647
0.000446684
0.000442893
0.000439269
0.000435808
0.000432509
0.000429371
0.000426397
0.000423588
0.000420952
0.000418494
0.000416224
0.000414152
0.000412293
0.000410661
0.000409273
0.000408148
0.000407309
0.000406777
0.000406576
0.000406732
0.000407271
0.000408217
0.000409597
0.000411434
0.000413751
0.000416568
0.0004199
0.000423761
0.000428157
0.000433091
0.00043856
0.000444555
0.000451061
0.000458056
0.000465515
0.000473406
0.000481691
0.00049033
0.000499279
0.000508491
0.000517915
0.0005275
0.000537195
0.000546946
0.00055669
0.000566388
0.000575988
0.000585436
0.000594681
0.00060367
0.000612353
0.000620677
0.000628589
0.000636033
0.000642953
0.000649286
0.000654966
0.000659922
0.000664077
0.000667343
0.000669624
0.000670809
0.000977115
0.000936698
0.000899633
0.000865599
0.000834307
0.0008055
0.000778945
0.000754433
0.000731777
0.000710806
0.000691369
0.000673328
0.00065656
0.000640952
0.000626404
0.000612825
0.000600133
0.000588252
0.000577115
0.000566661
0.000556834
0.000547585
0.000538866
0.000530637
0.000522859
0.000515498
0.000508522
0.000501904
0.000495617
0.000489636
0.000483942
0.000478514
0.000473335
0.000468389
0.000463661
0.000459141
0.000454815
0.000450675
0.000446714
0.000442924
0.000439301
0.000435841
0.000432542
0.000429405
0.00042643
0.000423622
0.000420985
0.000418526
0.000416254
0.00041418
0.000412317
0.000410681
0.000409288
0.000408157
0.00040731
0.000406768
0.000406557
0.0004067
0.000407224
0.000408155
0.000409517
0.000411334
0.00041363
0.000416423
0.000419731
0.000423566
0.000427935
0.000432841
0.000438282
0.000444249
0.000450726
0.000457695
0.000465128
0.000472994
0.000481257
0.000489876
0.000498807
0.000508003
0.000517415
0.00052699
0.000536678
0.000546425
0.000556169
0.000565868
0.000575473
0.000584927
0.00059418
0.000603179
0.000611874
0.000620211
0.000628137
0.000635596
0.000642531
0.000648878
0.000654572
0.000659541
0.000663706
0.000666982
0.000669269
0.000670457
0.000977115
0.000936699
0.000899633
0.000865599
0.000834308
0.000805501
0.000778947
0.000754435
0.000731779
0.000710809
0.000691372
0.000673332
0.000656564
0.000640957
0.00062641
0.000612832
0.00060014
0.00058826
0.000577123
0.00056667
0.000556844
0.000547596
0.000538878
0.000530649
0.000522872
0.000515513
0.000508538
0.000501921
0.000495634
0.000489655
0.000483962
0.000478536
0.000473358
0.000468413
0.000463687
0.000459167
0.000454843
0.000450705
0.000446744
0.000442956
0.000439333
0.000435874
0.000432576
0.00042944
0.000426465
0.000423657
0.000421019
0.000418559
0.000416285
0.000414209
0.000412343
0.000410702
0.000409304
0.000408167
0.000407312
0.000406761
0.000406539
0.00040667
0.000407179
0.000408094
0.000409437
0.000411235
0.000413509
0.000416279
0.000419562
0.00042337
0.000427712
0.000432591
0.000438003
0.000443941
0.000450391
0.000457332
0.000464739
0.00047258
0.00048082
0.000489418
0.000498331
0.000507511
0.00051691
0.000526476
0.000536156
0.000545899
0.000555641
0.000565342
0.00057495
0.000584411
0.000593672
0.000602682
0.000611388
0.000619738
0.000627678
0.000635151
0.0006421
0.000648462
0.000654169
0.000659151
0.000663327
0.000666612
0.000668906
0.000670097
0.000977115
0.000936699
0.000899634
0.0008656
0.000834309
0.000805502
0.000778948
0.000754437
0.000731781
0.000710812
0.000691376
0.000673336
0.000656569
0.000640962
0.000626416
0.000612838
0.000600147
0.000588267
0.000577132
0.00056668
0.000556855
0.000547607
0.00053889
0.000530662
0.000522886
0.000515527
0.000508554
0.000501938
0.000495653
0.000489675
0.000483983
0.000478557
0.000473381
0.000468437
0.000463713
0.000459194
0.000454871
0.000450734
0.000446775
0.000442988
0.000439367
0.000435909
0.000432611
0.000429475
0.000426501
0.000423692
0.000421054
0.000418593
0.000416317
0.000414239
0.00041237
0.000410725
0.000409321
0.000408178
0.000407315
0.000406755
0.000406522
0.00040664
0.000407136
0.000408034
0.000409359
0.000411137
0.00041339
0.000416136
0.000419394
0.000423176
0.00042749
0.000432341
0.000437725
0.000443634
0.000450056
0.000456969
0.000464349
0.000472166
0.000480382
0.000488959
0.000497854
0.000507018
0.000516403
0.000525958
0.000535632
0.000545369
0.00055511
0.000564811
0.000574423
0.00058389
0.000593159
0.000602179
0.000610896
0.000619259
0.000627213
0.000634701
0.000641664
0.00064804
0.000653761
0.000658755
0.000662943
0.000666236
0.000668537
0.000669732
0.000977115
0.000936699
0.000899634
0.0008656
0.00083431
0.000805503
0.00077895
0.000754439
0.000731784
0.000710814
0.000691379
0.00067334
0.000656573
0.000640967
0.000626422
0.000612845
0.000600154
0.000588275
0.000577141
0.000566689
0.000556865
0.000547618
0.000538902
0.000530675
0.0005229
0.000515542
0.00050857
0.000501955
0.000495671
0.000489695
0.000484004
0.00047858
0.000473404
0.000468462
0.000463739
0.000459222
0.000454901
0.000450765
0.000446807
0.000443021
0.000439401
0.000435944
0.000432647
0.000429512
0.000426538
0.000423729
0.00042109
0.000418628
0.000416351
0.00041427
0.000412397
0.000410748
0.00040934
0.00040819
0.000407319
0.00040675
0.000406506
0.000406612
0.000407093
0.000407975
0.000409283
0.000411041
0.000413271
0.000415995
0.000419228
0.000422983
0.00042727
0.000432092
0.000437448
0.000443328
0.000449721
0.000456607
0.000463961
0.000471752
0.000479945
0.000488501
0.000497376
0.000506524
0.000515896
0.00052544
0.000535106
0.000544839
0.000554577
0.000564279
0.000573895
0.000583367
0.000592644
0.000601673
0.000610402
0.000618777
0.000626744
0.000634246
0.000641223
0.000647613
0.000653348
0.000658354
0.000662553
0.000665856
0.000668163
0.000669361
0.000977115
0.000936699
0.000899635
0.000865601
0.00083431
0.000805505
0.000778951
0.000754441
0.000731786
0.000710817
0.000691382
0.000673343
0.000656577
0.000640972
0.000626427
0.000612851
0.000600161
0.000588283
0.000577149
0.000566698
0.000556875
0.000547629
0.000538914
0.000530688
0.000522914
0.000515558
0.000508586
0.000501973
0.00049569
0.000489714
0.000484025
0.000478602
0.000473428
0.000468487
0.000463766
0.00045925
0.00045493
0.000450796
0.000446839
0.000443054
0.000439435
0.000435979
0.000432684
0.000429549
0.000426575
0.000423766
0.000421127
0.000418664
0.000416385
0.000414302
0.000412426
0.000410773
0.000409359
0.000408203
0.000407324
0.000406746
0.000406492
0.000406585
0.000407052
0.000407918
0.000409208
0.000410946
0.000413155
0.000415855
0.000419063
0.000422793
0.000427053
0.000431847
0.000437173
0.000443025
0.00044939
0.000456248
0.000463575
0.000471341
0.00047951
0.000488045
0.000496901
0.000506032
0.00051539
0.000524924
0.000534581
0.000544309
0.000554045
0.000563747
0.000573365
0.000582843
0.000592127
0.000601166
0.000609905
0.000618293
0.000626273
0.000633789
0.00064078
0.000647184
0.000652932
0.000657951
0.00066216
0.000665472
0.000667785
0.000668987
0.000977115
0.000936699
0.000899635
0.000865601
0.000834311
0.000805506
0.000778952
0.000754442
0.000731788
0.00071082
0.000691385
0.000673347
0.000656581
0.000640977
0.000626432
0.000612857
0.000600168
0.00058829
0.000577157
0.000566707
0.000556885
0.00054764
0.000538926
0.000530701
0.000522928
0.000515573
0.000508603
0.00050199
0.000495708
0.000489734
0.000484046
0.000478625
0.000473452
0.000468513
0.000463792
0.000459278
0.00045496
0.000450827
0.000446872
0.000443088
0.00043947
0.000436015
0.000432721
0.000429586
0.000426613
0.000423804
0.000421164
0.0004187
0.00041642
0.000414334
0.000412456
0.000410799
0.000409379
0.000408217
0.000407331
0.000406744
0.000406478
0.00040656
0.000407013
0.000407863
0.000409135
0.000410854
0.000413041
0.000415718
0.000418902
0.000422605
0.000426838
0.000431604
0.000436902
0.000442726
0.000449062
0.000455892
0.000463193
0.000470933
0.000479079
0.000487592
0.000496429
0.000505544
0.000514888
0.00052441
0.000534059
0.000543781
0.000553515
0.000563217
0.000572838
0.00058232
0.000591612
0.000600659
0.00060941
0.000617809
0.000625802
0.000633331
0.000640336
0.000646753
0.000652514
0.000657545
0.000661766
0.000665086
0.000667406
0.000668611
0.000977115
0.0009367
0.000899635
0.000865602
0.000834312
0.000805507
0.000778954
0.000754444
0.00073179
0.000710822
0.000691388
0.00067335
0.000656585
0.000640981
0.000626438
0.000612863
0.000600174
0.000588298
0.000577165
0.000566716
0.000556895
0.000547651
0.000538937
0.000530714
0.000522942
0.000515588
0.000508619
0.000502007
0.000495727
0.000489754
0.000484067
0.000478647
0.000473476
0.000468538
0.000463819
0.000459307
0.000454989
0.000450858
0.000446904
0.000443122
0.000439505
0.000436051
0.000432758
0.000429624
0.000426651
0.000423842
0.000421202
0.000418737
0.000416455
0.000414367
0.000412486
0.000410825
0.000409401
0.000408232
0.000407338
0.000406742
0.000406466
0.000406536
0.000406975
0.000407809
0.000409064
0.000410763
0.00041293
0.000415584
0.000418743
0.000422421
0.000426627
0.000431365
0.000436636
0.000442431
0.000448739
0.000455542
0.000462816
0.000470531
0.000478654
0.000487145
0.000495963
0.000505061
0.000514391
0.000523902
0.000533542
0.000543259
0.00055299
0.000562691
0.000572314
0.000581801
0.000591099
0.000600155
0.000608916
0.000617327
0.000625332
0.000632874
0.000639893
0.000646323
0.000652097
0.00065714
0.000661371
0.0006647
0.000667026
0.000668234
0.000977116
0.0009367
0.000899635
0.000865602
0.000834312
0.000805507
0.000778955
0.000754446
0.000731792
0.000710824
0.000691391
0.000673354
0.000656589
0.000640986
0.000626443
0.000612868
0.000600181
0.000588305
0.000577174
0.000566725
0.000556905
0.000547661
0.000538949
0.000530727
0.000522956
0.000515602
0.000508635
0.000502025
0.000495745
0.000489774
0.000484089
0.00047867
0.0004735
0.000468564
0.000463846
0.000459335
0.000455019
0.000450889
0.000446937
0.000443156
0.000439541
0.000436088
0.000432795
0.000429662
0.000426689
0.000423881
0.00042124
0.000418774
0.000416491
0.000414401
0.000412516
0.000410851
0.000409422
0.000408248
0.000407347
0.000406742
0.000406456
0.000406513
0.000406939
0.000407758
0.000408995
0.000410676
0.000412821
0.000415453
0.000418588
0.000422241
0.00042642
0.000431132