/*--------------------------------*- C++ -*----------------------------------*\
  =========                 |
  \\      /  F ield         | OpenFOAM: The Open Source CFD Toolbox
   \\    /   O peration     | Website:  https://openfoam.org
    \\  /    A nd           | Version:  11
     \\/     M anipulation  |
\*---------------------------------------------------------------------------*/
FoamFile
{
    format      ascii;
    class       volScalarField;
    location    "516";
    object      p;
}
// * * * * * * * * * * * * * * * * * * * * * * * * * * * * * * * * * * * * * //

dimensions      [0 2 -2 0 0 0 0];

internalField   nonuniform List<scalar> 
10000
(
8.42257e-09
8.2208e-09
8.51896e-09
9.15581e-09
9.8953e-09
1.06824e-08
1.15132e-08
1.23865e-08
1.33022e-08
1.42615e-08
1.52667e-08
1.63203e-08
1.74252e-08
1.85841e-08
1.98e-08
2.10759e-08
2.24149e-08
2.382e-08
2.52944e-08
2.68413e-08
2.84638e-08
3.01652e-08
3.19489e-08
3.38182e-08
3.57764e-08
3.78269e-08
3.99732e-08
4.22188e-08
4.45671e-08
4.70217e-08
4.95859e-08
5.22634e-08
5.50576e-08
5.79719e-08
6.10098e-08
6.41747e-08
6.74697e-08
7.08981e-08
7.4463e-08
7.81673e-08
8.20139e-08
8.60052e-08
9.01438e-08
9.44317e-08
9.88709e-08
1.03463e-07
1.08209e-07
1.13109e-07
1.18164e-07
1.23374e-07
1.28738e-07
1.34255e-07
1.39921e-07
1.45735e-07
1.51691e-07
1.57787e-07
1.64014e-07
1.70367e-07
1.76837e-07
1.83413e-07
1.90084e-07
1.96838e-07
2.03658e-07
2.10528e-07
2.17428e-07
2.24335e-07
2.31227e-07
2.38074e-07
2.44848e-07
2.51513e-07
2.58033e-07
2.64366e-07
2.70468e-07
2.7629e-07
2.81778e-07
2.86875e-07
2.91517e-07
2.95636e-07
2.99161e-07
3.02011e-07
3.04104e-07
3.05348e-07
3.05643e-07
3.04881e-07
3.02937e-07
2.99651e-07
2.94761e-07
2.87866e-07
2.79614e-07
2.71302e-07
2.618e-07
2.50174e-07
2.35857e-07
2.17111e-07
1.92967e-07
1.65169e-07
1.35437e-07
1.01598e-07
5.52598e-08
2.23802e-09
1.58422e-08
1.49969e-08
1.44519e-08
1.46646e-08
1.52155e-08
1.59329e-08
1.67717e-08
1.77093e-08
1.87306e-08
1.98278e-08
2.09976e-08
2.22387e-08
2.35515e-08
2.49372e-08
2.63979e-08
2.79357e-08
2.95534e-08
3.12538e-08
3.304e-08
3.49153e-08
3.68831e-08
3.89467e-08
4.11097e-08
4.33759e-08
4.57488e-08
4.82322e-08
5.083e-08
5.35459e-08
5.63838e-08
5.93475e-08
6.2441e-08
6.56681e-08
6.90325e-08
7.25381e-08
7.61886e-08
7.99875e-08
8.39384e-08
8.80447e-08
9.23096e-08
9.67362e-08
1.01327e-07
1.06085e-07
1.11013e-07
1.16112e-07
1.21384e-07
1.2683e-07
1.32451e-07
1.38247e-07
1.44218e-07
1.50363e-07
1.56679e-07
1.63165e-07
1.69817e-07
1.76629e-07
1.83598e-07
1.90715e-07
1.97974e-07
2.05363e-07
2.12872e-07
2.20489e-07
2.28197e-07
2.3598e-07
2.43819e-07
2.51691e-07
2.59573e-07
2.67436e-07
2.75249e-07
2.82978e-07
2.90586e-07
2.9803e-07
3.05263e-07
3.12235e-07
3.18889e-07
3.25164e-07
3.30994e-07
3.36307e-07
3.41024e-07
3.45061e-07
3.48327e-07
3.50724e-07
3.52149e-07
3.52488e-07
3.51621e-07
3.49419e-07
3.45746e-07
3.40447e-07
3.33331e-07
3.24259e-07
3.13868e-07
3.02004e-07
2.8634e-07
2.66646e-07
2.44141e-07
2.1962e-07
1.91934e-07
1.59119e-07
1.20592e-07
7.34956e-08
7.15435e-09
-4.62844e-08
1.94332e-08
1.81815e-08
1.70571e-08
1.67311e-08
1.68266e-08
1.71555e-08
1.76559e-08
1.82917e-08
1.90374e-08
1.9877e-08
2.08008e-08
2.1803e-08
2.28803e-08
2.40309e-08
2.52545e-08
2.65515e-08
2.79226e-08
2.93694e-08
3.08936e-08
3.24973e-08
3.41826e-08
3.5952e-08
3.7808e-08
3.97533e-08
4.17906e-08
4.39227e-08
4.61526e-08
4.84832e-08
5.09173e-08
5.3458e-08
5.61082e-08
5.88709e-08
6.1749e-08
6.47453e-08
6.78627e-08
7.11039e-08
7.44715e-08
7.79679e-08
8.15956e-08
8.53567e-08
8.92532e-08
9.32869e-08
9.74591e-08
1.01771e-07
1.06224e-07
1.10817e-07
1.15552e-07
1.20427e-07
1.25442e-07
1.30595e-07
1.35884e-07
1.41305e-07
1.46855e-07
1.5253e-07
1.58323e-07
1.64227e-07
1.70235e-07
1.76338e-07
1.82523e-07
1.8878e-07
1.95093e-07
2.01447e-07
2.07823e-07
2.142e-07
2.20557e-07
2.26865e-07
2.33098e-07
2.39222e-07
2.45202e-07
2.50998e-07
2.56568e-07
2.61863e-07
2.66831e-07
2.71416e-07
2.75554e-07
2.79179e-07
2.82219e-07
2.84594e-07
2.86221e-07
2.87011e-07
2.86868e-07
2.85694e-07
2.83382e-07
2.79825e-07
2.74912e-07
2.68539e-07
2.60602e-07
2.51052e-07
2.40151e-07
2.27945e-07
2.13546e-07
1.96111e-07
1.7545e-07
1.50898e-07
1.21938e-07
8.8758e-08
5.17972e-08
6.71924e-09
-5.83506e-08
-9.0761e-08
2.25318e-08
2.11275e-08
1.9882e-08
1.9342e-08
1.92084e-08
1.93284e-08
1.9645e-08
2.012e-08
2.07244e-08
2.14386e-08
2.22496e-08
2.31487e-08
2.41303e-08
2.51909e-08
2.63284e-08
2.75419e-08
2.88311e-08
3.01965e-08
3.16391e-08
3.31601e-08
3.47612e-08
3.64441e-08
3.82108e-08
4.00634e-08
4.20042e-08
4.40356e-08
4.616e-08
4.83798e-08
5.06975e-08
5.31156e-08
5.56368e-08
5.82634e-08
6.0998e-08
6.38429e-08
6.68005e-08
6.98732e-08
7.30629e-08
7.63718e-08
7.98018e-08
8.33544e-08
8.70312e-08
9.08335e-08
9.47622e-08
9.88179e-08
1.03001e-07
1.07311e-07
1.11749e-07
1.16311e-07
1.20999e-07
1.25808e-07
1.30737e-07
1.35781e-07
1.40937e-07
1.46198e-07
1.5156e-07
1.57014e-07
1.62552e-07
1.68164e-07
1.73838e-07
1.79562e-07
1.8532e-07
1.91097e-07
1.96872e-07
2.02625e-07
2.08332e-07
2.13967e-07
2.19499e-07
2.24897e-07
2.30122e-07
2.35136e-07
2.39894e-07
2.44347e-07
2.48442e-07
2.5212e-07
2.5532e-07
2.57972e-07
2.60004e-07
2.61335e-07
2.61883e-07
2.61559e-07
2.60268e-07
2.57913e-07
2.54392e-07
2.49602e-07
2.4344e-07
2.35808e-07
2.26612e-07
2.15772e-07
2.03295e-07
1.89108e-07
1.72799e-07
1.53832e-07
1.31833e-07
1.06294e-07
7.69175e-08
4.39917e-08
7.81626e-09
-3.68376e-08
-1.02564e-07
-1.2215e-07
2.51789e-08
2.3783e-08
2.25531e-08
2.19291e-08
2.16738e-08
2.16702e-08
2.18719e-08
2.22436e-08
2.27569e-08
2.33913e-08
2.41325e-08
2.49703e-08
2.58977e-08
2.69099e-08
2.80037e-08
2.91773e-08
3.04296e-08
3.17603e-08
3.31698e-08
3.46588e-08
3.62283e-08
3.78798e-08
3.96147e-08
4.14348e-08
4.33421e-08
4.53384e-08
4.7426e-08
4.96068e-08
5.18832e-08
5.42572e-08
5.67311e-08
5.93071e-08
6.19873e-08
6.47738e-08
6.76685e-08
7.06735e-08
7.37905e-08
7.70211e-08
8.03669e-08
8.38292e-08
8.7409e-08
9.11071e-08
9.49242e-08
9.88604e-08
1.02916e-07
1.07089e-07
1.1138e-07
1.15787e-07
1.20308e-07
1.2494e-07
1.2968e-07
1.34524e-07
1.39466e-07
1.44501e-07
1.49623e-07
1.54822e-07
1.60089e-07
1.65415e-07
1.70786e-07
1.7619e-07
1.81609e-07
1.87027e-07
1.92424e-07
1.97778e-07
2.03063e-07
2.08252e-07
2.13314e-07
2.18215e-07
2.22917e-07
2.27378e-07
2.31553e-07
2.35391e-07
2.38837e-07
2.41832e-07
2.4431e-07
2.46202e-07
2.47432e-07
2.4792e-07
2.4758e-07
2.46324e-07
2.44055e-07
2.40677e-07
2.36088e-07
2.30185e-07
2.22867e-07
2.14032e-07
2.03579e-07
1.91409e-07
1.77438e-07
1.61534e-07
1.43417e-07
1.2276e-07
9.92804e-08
7.26687e-08
4.27184e-08
9.66269e-09
-2.63146e-08
-7.11146e-08
-1.37623e-07
-1.48558e-07
2.73903e-08
2.6065e-08
2.48806e-08
2.42178e-08
2.38849e-08
2.37923e-08
2.39036e-08
2.41884e-08
2.46206e-08
2.51806e-08
2.58537e-08
2.66293e-08
2.74996e-08
2.84589e-08
2.95033e-08
3.06301e-08
3.18377e-08
3.31252e-08
3.44922e-08
3.59392e-08
3.74666e-08
3.90753e-08
4.07666e-08
4.25418e-08
4.44024e-08
4.635e-08
4.83864e-08
5.05134e-08
5.27328e-08
5.50466e-08
5.74564e-08
5.99643e-08
6.25719e-08
6.52811e-08
6.80935e-08
7.10106e-08
7.40339e-08
7.71647e-08
8.04041e-08
8.37529e-08
8.7212e-08
9.07816e-08
9.44619e-08
9.82528e-08
1.02154e-07
1.06163e-07
1.1028e-07
1.14503e-07
1.18828e-07
1.23254e-07
1.27775e-07
1.32387e-07
1.37085e-07
1.41862e-07
1.46711e-07
1.51624e-07
1.56589e-07
1.61596e-07
1.66632e-07
1.71683e-07
1.76732e-07
1.81761e-07
1.86749e-07
1.91674e-07
1.96509e-07
2.01225e-07
2.05793e-07
2.10175e-07
2.14333e-07
2.18226e-07
2.21805e-07
2.2502e-07
2.27814e-07
2.30127e-07
2.31893e-07
2.33041e-07
2.33495e-07
2.33174e-07
2.31994e-07
2.29862e-07
2.26687e-07
2.22369e-07
2.16811e-07
2.0991e-07
2.01564e-07
1.91672e-07
1.8013e-07
1.66833e-07
1.51675e-07
1.34518e-07
1.15156e-07
9.33648e-08
6.89369e-08
4.1657e-08
1.13859e-08
-2.15985e-08
-5.71277e-08
-1.01518e-07
-1.67029e-07
-1.71471e-07
2.93055e-08
2.80606e-08
2.69322e-08
2.6258e-08
2.58783e-08
2.57229e-08
2.57645e-08
2.59779e-08
2.63401e-08
2.68329e-08
2.74425e-08
2.81581e-08
2.89717e-08
2.98772e-08
3.08701e-08
3.19472e-08
3.31064e-08
3.43463e-08
3.56661e-08
3.70657e-08
3.85452e-08
4.01051e-08
4.17462e-08
4.34695e-08
4.52762e-08
4.71676e-08
4.9145e-08
5.121e-08
5.3364e-08
5.56086e-08
5.79454e-08
6.03757e-08
6.29012e-08
6.55232e-08
6.82429e-08
7.10617e-08
7.39806e-08
7.70005e-08
8.01221e-08
8.33461e-08
8.66726e-08
9.01017e-08
9.36331e-08
9.72662e-08
1.01e-07
1.04833e-07
1.08763e-07
1.12789e-07
1.16906e-07
1.21111e-07
1.254e-07
1.29768e-07
1.34209e-07
1.38715e-07
1.43279e-07
1.47892e-07
1.52543e-07
1.5722e-07
1.6191e-07
1.66598e-07
1.71267e-07
1.75898e-07
1.8047e-07
1.84958e-07
1.89338e-07
1.93579e-07
1.9765e-07
2.01514e-07
2.05132e-07
2.08461e-07
2.11453e-07
2.14058e-07
2.16217e-07
2.1787e-07
2.18951e-07
2.19388e-07
2.19106e-07
2.18025e-07
2.16058e-07
2.13117e-07
2.09109e-07
2.03937e-07
1.97505e-07
1.89712e-07
1.80459e-07
1.69645e-07
1.57168e-07
1.42926e-07
1.26811e-07
1.087e-07
8.84401e-08
6.58694e-08
4.08362e-08
1.3188e-08
-1.71491e-08
-4.98272e-08
-8.4654e-08
-1.28153e-07
-1.91536e-07
-1.90617e-07
3.10114e-08
2.98431e-08
2.87728e-08
2.81041e-08
2.76991e-08
2.75017e-08
2.74917e-08
2.76485e-08
2.79525e-08
2.83875e-08
2.89405e-08
2.96014e-08
3.03621e-08
3.12164e-08
3.21596e-08
3.3188e-08
3.42993e-08
3.54916e-08
3.67638e-08
3.81153e-08
3.9546e-08
4.1056e-08
4.26457e-08
4.43158e-08
4.60671e-08
4.79007e-08
4.98176e-08
5.18189e-08
5.39059e-08
5.60797e-08
5.83417e-08
6.06929e-08
6.31345e-08
6.56677e-08
6.82933e-08
7.10123e-08
7.38254e-08
7.67331e-08
7.97359e-08
8.28339e-08
8.6027e-08
8.93149e-08
9.26969e-08
9.6172e-08
9.97387e-08
1.03395e-07
1.07139e-07
1.10968e-07
1.14878e-07
1.18865e-07
1.22924e-07
1.2705e-07
1.31236e-07
1.35475e-07
1.39758e-07
1.44076e-07
1.48418e-07
1.52771e-07
1.57122e-07
1.61455e-07
1.65752e-07
1.69995e-07
1.74161e-07
1.78226e-07
1.82165e-07
1.85945e-07
1.89537e-07
1.92902e-07
1.96001e-07
1.98791e-07
2.01224e-07
2.03248e-07
2.04805e-07
2.05836e-07
2.06273e-07
2.06047e-07
2.05081e-07
2.03296e-07
2.00607e-07
1.96926e-07
1.92163e-07
1.86223e-07
1.7901e-07
1.70428e-07
1.6038e-07
1.48768e-07
1.35495e-07
1.20464e-07
1.03576e-07
8.47258e-08
6.37988e-08
4.06807e-08
1.52665e-08
-1.25455e-08
-4.27751e-08
-7.50149e-08
-1.09065e-07
-1.51655e-07
-2.13035e-07
-2.07584e-07
3.2552e-08
3.14535e-08
3.04385e-08
2.97839e-08
2.93674e-08
2.91426e-08
2.90945e-08
2.92068e-08
2.94627e-08
2.98481e-08
3.03511e-08
3.09623e-08
3.1674e-08
3.24799e-08
3.33753e-08
3.43565e-08
3.54207e-08
3.65658e-08
3.77904e-08
3.90937e-08
4.04751e-08
4.19344e-08
4.34719e-08
4.50879e-08
4.67829e-08
4.85576e-08
5.04128e-08
5.23493e-08
5.43681e-08
5.647e-08
5.8656e-08
6.0927e-08
6.32838e-08
6.57271e-08
6.82577e-08
7.0876e-08
7.35826e-08
7.63776e-08
7.9261e-08
8.22327e-08
8.52923e-08
8.8439e-08
9.16718e-08
9.49892e-08
9.83896e-08
1.01871e-07
1.0543e-07
1.09063e-07
1.12768e-07
1.16539e-07
1.20371e-07
1.24258e-07
1.28194e-07
1.3217e-07
1.36177e-07
1.40206e-07
1.44245e-07
1.48281e-07
1.52301e-07
1.56287e-07
1.60223e-07
1.64088e-07
1.67861e-07
1.71517e-07
1.75028e-07
1.78366e-07
1.81496e-07
1.84382e-07
1.86986e-07
1.89262e-07
1.91162e-07
1.92636e-07
1.93626e-07
1.94072e-07
1.93908e-07
1.93063e-07
1.91464e-07
1.89031e-07
1.85682e-07
1.81329e-07
1.75884e-07
1.69256e-07
1.61352e-07
1.52077e-07
1.41339e-07
1.29045e-07
1.15104e-07
9.94263e-08
8.19256e-08
6.25146e-08
4.11073e-08
1.76262e-08
-7.9949e-09
-3.58172e-08
-6.58173e-08
-9.75393e-08
-1.30792e-07
-1.72601e-07
-2.32636e-07
-2.2322e-07
3.3955e-08
3.29184e-08
3.19542e-08
3.13178e-08
3.08982e-08
3.06558e-08
3.05797e-08
3.06567e-08
3.08727e-08
3.12152e-08
3.16739e-08
3.22399e-08
3.2906e-08
3.36662e-08
3.45159e-08
3.54511e-08
3.6469e-08
3.75673e-08
3.87444e-08
3.99991e-08
4.13308e-08
4.27389e-08
4.42234e-08
4.57844e-08
4.7422e-08
4.91368e-08
5.09291e-08
5.27997e-08
5.4749e-08
5.67778e-08
5.88867e-08
6.10762e-08
6.3347e-08
6.56995e-08
6.8134e-08
7.06508e-08
7.32499e-08
7.59314e-08
7.86949e-08
8.15399e-08
8.44656e-08
8.7471e-08
9.05547e-08
9.37149e-08
9.69496e-08
1.00256e-07
1.03631e-07
1.07071e-07
1.10573e-07
1.1413e-07
1.17737e-07
1.21389e-07
1.25077e-07
1.28794e-07
1.32531e-07
1.36276e-07
1.40018e-07
1.43744e-07
1.4744e-07
1.51089e-07
1.54673e-07
1.58171e-07
1.61563e-07
1.64822e-07
1.67922e-07
1.70832e-07
1.73519e-07
1.75947e-07
1.78076e-07
1.79863e-07
1.81259e-07
1.82213e-07
1.82668e-07
1.82566e-07
1.8184e-07
1.80421e-07
1.78237e-07
1.7521e-07
1.71258e-07
1.66297e-07
1.60241e-07
1.53001e-07
1.44487e-07
1.34609e-07
1.23278e-07
1.10408e-07
9.59148e-08
7.97178e-08
6.1742e-08
4.19172e-08
2.01812e-08
-3.51485e-09
-2.92055e-08
-5.69189e-08
-8.65945e-08
-1.1772e-07
-1.50068e-07
-1.90986e-07
-2.50474e-07
-2.36529e-07
3.52393e-08
3.42575e-08
3.33394e-08
3.27228e-08
3.23052e-08
3.20521e-08
3.19553e-08
3.20042e-08
3.21867e-08
3.24922e-08
3.29114e-08
3.34362e-08
3.406e-08
3.4777e-08
3.55827e-08
3.64733e-08
3.74459e-08
3.8498e-08
3.96278e-08
4.08341e-08
4.21158e-08
4.34723e-08
4.49032e-08
4.64084e-08
4.7988e-08
4.96419e-08
5.13706e-08
5.31743e-08
5.50533e-08
5.7008e-08
5.90389e-08
6.11462e-08
6.33301e-08
6.55909e-08
6.79287e-08
7.03433e-08
7.28347e-08
7.54023e-08
7.80456e-08
8.07638e-08
8.35558e-08
8.64202e-08
8.93553e-08
9.23591e-08
9.5429e-08
9.85621e-08
1.01755e-07
1.05004e-07
1.08304e-07
1.1165e-07
1.15036e-07
1.18456e-07
1.21901e-07
1.25364e-07
1.28834e-07
1.32302e-07
1.35754e-07
1.39178e-07
1.42558e-07
1.45879e-07
1.49121e-07
1.52264e-07
1.55287e-07
1.58163e-07
1.60866e-07
1.63366e-07
1.65629e-07
1.67619e-07
1.69297e-07
1.70618e-07
1.71536e-07
1.72e-07
1.71954e-07
1.71338e-07
1.7009e-07
1.6814e-07
1.65418e-07
1.61847e-07
1.57349e-07
1.5184e-07
1.45238e-07
1.37456e-07
1.28408e-07
1.18009e-07
1.06175e-07
9.28247e-08
7.78814e-08
6.1274e-08
4.29387e-08
2.28204e-08
8.75974e-10
-2.29203e-08
-4.85774e-08
-7.60962e-08
-1.05384e-07
-1.35862e-07
-1.67218e-07
-2.07125e-07
-2.66774e-07
-2.47738e-07
3.64187e-08
3.54856e-08
3.46093e-08
3.40129e-08
3.36005e-08
3.33413e-08
3.32292e-08
3.32554e-08
3.34098e-08
3.36831e-08
3.40669e-08
3.45541e-08
3.51384e-08
3.58147e-08
3.65783e-08
3.74258e-08
3.8354e-08
3.93606e-08
4.04436e-08
4.16015e-08
4.28333e-08
4.4138e-08
4.55151e-08
4.69642e-08
4.84851e-08
5.00778e-08
5.17422e-08
5.34784e-08
5.52865e-08
5.71666e-08
5.91189e-08
6.11433e-08
6.324e-08
6.54088e-08
6.76495e-08
6.99618e-08
7.23452e-08
7.4799e-08
7.73224e-08
7.99141e-08
8.2573e-08
8.52972e-08
8.80847e-08
9.09332e-08
9.38399e-08
9.68015e-08
9.98143e-08
1.02874e-07
1.05976e-07
1.09114e-07
1.12283e-07
1.15475e-07
1.18682e-07
1.21896e-07
1.25106e-07
1.28302e-07
1.31472e-07
1.34601e-07
1.37675e-07
1.40677e-07
1.43589e-07
1.46389e-07
1.49056e-07
1.51564e-07
1.53886e-07
1.55993e-07
1.5785e-07
1.59423e-07
1.60671e-07
1.61552e-07
1.62019e-07
1.62022e-07
1.61506e-07
1.60413e-07
1.5868e-07
1.56241e-07
1.53025e-07
1.48959e-07
1.43966e-07
1.37966e-07
1.30878e-07
1.2262e-07
1.13109e-07
1.02264e-07
9.0006e-08
7.62599e-08
6.0956e-08
4.40315e-08
2.54331e-08
5.11825e-09
-1.69403e-08
-4.07504e-08
-6.63006e-08
-9.35716e-08
-1.22446e-07
-1.52289e-07
-1.82708e-07
-2.21758e-07
-2.82094e-07
-2.5856e-07
3.75036e-08
3.66142e-08
3.5776e-08
3.51994e-08
3.47941e-08
3.4532e-08
3.44085e-08
3.44164e-08
3.45468e-08
3.47917e-08
3.51437e-08
3.55964e-08
3.6144e-08
3.67817e-08
3.75051e-08
3.83108e-08
3.91959e-08
4.01577e-08
4.11945e-08
4.23044e-08
4.34864e-08
4.47393e-08
4.60625e-08
4.74554e-08
4.89174e-08
5.04485e-08
5.20483e-08
5.37166e-08
5.54535e-08
5.72587e-08
5.91321e-08
6.10736e-08
6.30828e-08
6.51595e-08
6.73032e-08
6.95132e-08
7.1789e-08
7.41294e-08
7.65333e-08
7.89994e-08
8.1526e-08
8.41112e-08
8.67525e-08
8.94474e-08
9.21928e-08
9.49851e-08
9.78204e-08
1.00694e-07
1.03601e-07
1.06535e-07
1.0949e-07
1.12459e-07
1.15434e-07
1.18404e-07
1.21361e-07
1.24293e-07
1.27188e-07
1.30031e-07
1.32808e-07
1.35502e-07
1.38094e-07
1.40563e-07
1.42888e-07
1.45042e-07
1.47e-07
1.48731e-07
1.50202e-07
1.51378e-07
1.52219e-07
1.52684e-07
1.52727e-07
1.52298e-07
1.51344e-07
1.49806e-07
1.47625e-07
1.44736e-07
1.41069e-07
1.36554e-07
1.31115e-07
1.24677e-07
1.1716e-07
1.08485e-07
9.85744e-08
8.73507e-08
7.47398e-08
6.06722e-08
4.50847e-08
2.79224e-08
9.14043e-09
-1.12927e-08
-3.33921e-08
-5.71516e-08
-8.2545e-08
-1.09539e-07
-1.38001e-07
-1.67251e-07
-1.9684e-07
-2.35252e-07
-2.96701e-07
-2.69512e-07
3.85024e-08
3.76526e-08
3.68492e-08
3.62919e-08
3.58948e-08
3.56319e-08
3.54999e-08
3.54926e-08
3.56025e-08
3.58223e-08
3.61455e-08
3.65663e-08
3.70796e-08
3.76807e-08
3.83656e-08
3.9131e-08
3.99739e-08
4.0892e-08
4.18831e-08
4.29456e-08
4.40781e-08
4.52795e-08
4.65488e-08
4.78854e-08
4.92886e-08
5.0758e-08
5.22931e-08
5.38936e-08
5.55591e-08
5.72893e-08
5.90839e-08
6.09423e-08
6.28643e-08
6.4849e-08
6.6896e-08
6.90043e-08
7.11729e-08
7.34006e-08
7.5686e-08
7.80275e-08
8.04232e-08
8.28707e-08
8.53676e-08
8.79109e-08
9.04973e-08
9.3123e-08
9.57837e-08
9.84746e-08
1.0119e-07
1.03925e-07
1.06671e-07
1.09422e-07
1.12169e-07
1.14903e-07
1.17613e-07
1.20288e-07
1.22916e-07
1.25483e-07
1.27972e-07
1.30368e-07
1.32652e-07
1.34803e-07
1.36799e-07
1.38615e-07
1.40224e-07
1.41596e-07
1.427e-07
1.435e-07
1.43957e-07
1.44031e-07
1.43675e-07
1.42842e-07
1.41479e-07
1.3953e-07
1.36936e-07
1.33634e-07
1.29556e-07
1.24635e-07
1.18796e-07
1.11968e-07
1.04073e-07
9.50368e-08
8.4784e-08
7.32418e-08
6.03407e-08
4.60165e-08
3.02117e-08
1.2878e-08
-6.02175e-09
-2.65105e-08
-4.85938e-08
-7.2255e-08
-9.74572e-08
-1.24159e-07
-1.52217e-07
-1.80919e-07
-2.09769e-07
-2.47672e-07
-3.10343e-07
-2.79969e-07
3.94221e-08
3.86083e-08
3.78372e-08
3.72982e-08
3.69098e-08
3.66478e-08
3.65094e-08
3.64894e-08
3.65813e-08
3.67787e-08
3.70757e-08
3.7467e-08
3.7948e-08
3.85144e-08
3.91624e-08
3.98888e-08
4.06908e-08
4.1566e-08
4.25122e-08
4.35279e-08
4.46114e-08
4.57616e-08
4.69774e-08
4.82579e-08
4.96024e-08
5.10102e-08
5.24807e-08
5.40134e-08
5.56077e-08
5.72631e-08
5.89791e-08
6.07549e-08
6.25898e-08
6.44832e-08
6.6434e-08
6.84412e-08
7.05036e-08
7.26196e-08
7.47877e-08
7.7006e-08
7.92722e-08
8.1584e-08
8.39385e-08
8.63326e-08
8.87626e-08
9.12245e-08
9.37139e-08
9.62257e-08
9.87542e-08
1.01293e-07
1.03836e-07
1.06374e-07
1.08899e-07
1.11403e-07
1.13873e-07
1.163e-07
1.1867e-07
1.20968e-07
1.23181e-07
1.2529e-07
1.27278e-07
1.29123e-07
1.30804e-07
1.32296e-07
1.33573e-07
1.34605e-07
1.3536e-07
1.35804e-07
1.35898e-07
1.35604e-07
1.34875e-07
1.33665e-07
1.31922e-07
1.29593e-07
1.2662e-07
1.2294e-07
1.18489e-07
1.13201e-07
1.07006e-07
9.98318e-08
9.16068e-08
8.22582e-08
7.17148e-08
5.99076e-08
4.67714e-08
3.22466e-08
1.62809e-08
-1.16829e-09
-2.01318e-08
-4.0626e-08
-6.26488e-08
-8.61761e-08
-1.11164e-07
-1.37564e-07
-1.65231e-07
-1.93422e-07
-2.21601e-07
-2.59062e-07
-3.22898e-07
-2.89651e-07
4.02685e-08
3.94879e-08
3.87467e-08
3.82254e-08
3.78459e-08
3.75856e-08
3.74423e-08
3.74117e-08
3.74878e-08
3.76649e-08
3.79378e-08
3.83017e-08
3.87523e-08
3.92857e-08
3.98983e-08
4.05871e-08
4.13492e-08
4.21824e-08
4.30847e-08
4.40541e-08
4.50892e-08
4.61887e-08
4.73514e-08
4.85762e-08
4.98623e-08
5.12089e-08
5.26151e-08
5.40804e-08
5.56039e-08
5.71848e-08
5.88226e-08
6.05162e-08
6.22649e-08
6.40676e-08
6.59231e-08
6.78301e-08
6.97873e-08
7.1793e-08
7.38452e-08
7.59419e-08
7.80806e-08
8.02588e-08
8.24732e-08
8.47206e-08
8.69972e-08
8.92987e-08
9.16203e-08
9.39569e-08
9.63026e-08
9.86509e-08
1.00995e-07
1.03326e-07
1.05637e-07
1.07916e-07
1.10155e-07
1.1234e-07
1.1446e-07
1.16501e-07
1.18446e-07
1.2028e-07
1.21983e-07
1.23536e-07
1.24916e-07
1.261e-07
1.2706e-07
1.27768e-07
1.28193e-07
1.28301e-07
1.28054e-07
1.27414e-07
1.26337e-07
1.24776e-07
1.22682e-07
1.20002e-07
1.1668e-07
1.12656e-07
1.07868e-07
1.0225e-07
9.5737e-08
8.82587e-08
7.97461e-08
7.01297e-08
5.93418e-08
4.73168e-08
3.39935e-08
1.93164e-08
3.23782e-09
-1.42802e-08
-3.32634e-08
-5.37227e-08
-7.56505e-08
-9.90171e-08
-1.23773e-07
-1.49869e-07
-1.77155e-07
-2.04863e-07
-2.32422e-07
-2.69476e-07
-3.34359e-07
-2.98509e-07
4.10467e-08
4.02971e-08
3.95838e-08
3.90792e-08
3.87087e-08
3.84508e-08
3.83038e-08
3.8264e-08
3.8326e-08
3.84847e-08
3.87353e-08
3.90736e-08
3.94955e-08
3.99974e-08
4.0576e-08
4.12284e-08
4.19518e-08
4.27441e-08
4.36032e-08
4.45272e-08
4.55146e-08
4.6564e-08
4.76741e-08
4.88437e-08
5.0072e-08
5.13578e-08
5.27003e-08
5.40985e-08
5.55517e-08
5.70589e-08
5.86191e-08
6.02314e-08
6.18946e-08
6.36075e-08
6.53687e-08
6.71769e-08
6.90303e-08
7.0927e-08
7.28651e-08
7.48421e-08
7.68554e-08
7.89023e-08
8.09793e-08
8.3083e-08
8.52093e-08
8.73538e-08
8.95115e-08
9.16772e-08
9.38446e-08
9.60073e-08
9.81579e-08
1.00289e-07
1.0239e-07
1.04453e-07
1.06467e-07
1.0842e-07
1.10299e-07
1.12091e-07
1.1378e-07
1.15349e-07
1.1678e-07
1.18053e-07
1.19146e-07
1.20035e-07
1.20695e-07
1.21097e-07
1.2121e-07
1.21001e-07
1.20434e-07
1.19471e-07
1.18068e-07
1.16181e-07
1.13762e-07
1.10759e-07
1.07118e-07
1.02782e-07
9.76885e-08
9.17766e-08
8.4981e-08
7.72358e-08
6.84743e-08
5.86301e-08
4.76384e-08
3.54371e-08
2.19684e-08
7.18055e-09
-8.97041e-09
-2.65184e-08
-4.54851e-08
-6.58772e-08
-8.7683e-08
-1.10869e-07
-1.35382e-07
-1.6117e-07
-1.88083e-07
-2.15331e-07
-2.42309e-07
-2.78972e-07
-3.44758e-07
-3.06546e-07
4.17616e-08
4.10408e-08
4.03537e-08
3.98651e-08
3.95034e-08
3.92483e-08
3.90986e-08
3.90508e-08
3.91e-08
3.92418e-08
3.94717e-08
3.97859e-08
4.01806e-08
4.06525e-08
4.11984e-08
4.18155e-08
4.25014e-08
4.32538e-08
4.40706e-08
4.495e-08
4.58905e-08
4.68905e-08
4.79487e-08
4.90638e-08
5.02348e-08
5.14605e-08
5.27399e-08
5.40719e-08
5.54555e-08
5.68897e-08
5.83733e-08
5.99051e-08
6.14838e-08
6.31081e-08
6.47764e-08
6.6487e-08
6.82382e-08
7.00278e-08
7.18536e-08
7.37131e-08
7.56034e-08
7.75215e-08
7.9464e-08
8.14271e-08
8.34065e-08
8.53978e-08
8.73958e-08
8.93949e-08
9.1389e-08
9.33713e-08
9.53344e-08
9.72703e-08
9.91699e-08
1.01024e-07
1.02821e-07
1.04549e-07
1.06197e-07
1.0775e-07
1.09192e-07
1.10508e-07
1.11678e-07
1.12684e-07
1.13504e-07
1.14114e-07
1.14489e-07
1.14601e-07
1.14419e-07
1.13913e-07
1.13046e-07
1.1178e-07
1.10074e-07
1.07885e-07
1.05166e-07
1.01867e-07
9.79353e-08
9.33146e-08
8.7947e-08
8.1772e-08
7.47271e-08
6.67489e-08
5.77733e-08
4.77368e-08
3.65774e-08
2.4236e-08
1.06581e-08
-4.20514e-09
-2.03943e-08
-3.794e-08
-5.68607e-08
-7.71598e-08
-9.88226e-08
-1.21812e-07
-1.46073e-07
-1.71554e-07
-1.98101e-07
-2.24906e-07
-2.51333e-07
-2.8761e-07
-3.54144e-07
-3.13789e-07
4.24173e-08
4.17235e-08
4.10611e-08
4.05877e-08
4.02347e-08
3.99827e-08
3.98308e-08
3.97759e-08
3.98136e-08
3.99397e-08
4.01503e-08
4.04417e-08
4.08106e-08
4.12537e-08
4.17682e-08
4.23513e-08
4.30007e-08
4.37142e-08
4.44897e-08
4.53255e-08
4.62198e-08
4.71713e-08
4.81783e-08
4.92397e-08
5.03542e-08
5.15206e-08
5.27377e-08
5.40043e-08
5.53193e-08
5.66814e-08
5.80894e-08
5.95418e-08
6.10374e-08
6.25744e-08
6.41512e-08
6.5766e-08
6.74167e-08
6.91012e-08
7.08169e-08
7.25611e-08
7.4331e-08
7.61232e-08
7.79342e-08
7.976e-08
8.15963e-08
8.34383e-08
8.52807e-08
8.7118e-08
8.89437e-08
9.07511e-08
9.25326e-08
9.42801e-08
9.59845e-08
9.76361e-08
9.92241e-08
1.00737e-07
1.02162e-07
1.03485e-07
1.04692e-07
1.05765e-07
1.06687e-07
1.07439e-07
1.07999e-07
1.08344e-07
1.08449e-07
1.08287e-07
1.07829e-07
1.07043e-07
1.05894e-07
1.04347e-07
1.0236e-07
9.98915e-08
9.68962e-08
9.33255e-08
8.91283e-08
8.42508e-08
7.86367e-08
7.22275e-08
6.49632e-08
5.67825e-08
4.7624e-08
3.74267e-08
2.61314e-08
1.36815e-08
2.53223e-11
-1.48831e-08
-3.10818e-08
-4.85987e-08
-6.74494e-08
-8.76351e-08
-1.09139e-07
-1.31921e-07
-1.55925e-07
-1.81097e-07
-2.07285e-07
-2.33661e-07
-2.59561e-07
-2.95453e-07
-3.62582e-07
-3.20283e-07
4.30176e-08
4.23493e-08
4.17102e-08
4.12514e-08
4.09068e-08
4.06581e-08
4.05046e-08
4.04433e-08
4.04704e-08
4.05819e-08
4.07743e-08
4.10442e-08
4.13885e-08
4.1804e-08
4.22882e-08
4.28385e-08
4.34525e-08
4.41281e-08
4.48633e-08
4.56564e-08
4.65056e-08
4.74093e-08
4.83662e-08
4.93748e-08
5.04337e-08
5.15417e-08
5.26974e-08
5.38996e-08
5.5147e-08
5.64382e-08
5.77717e-08
5.91462e-08
6.05599e-08
6.20112e-08
6.34982e-08
6.50189e-08
6.65712e-08
6.81526e-08
6.97606e-08
7.13922e-08
7.30444e-08
7.47137e-08
7.63965e-08
7.80885e-08
7.97854e-08
8.14823e-08
8.31737e-08
8.48539e-08
8.65165e-08
8.81545e-08
8.97604e-08
9.13259e-08
9.2842e-08
9.4299e-08
9.5686e-08
9.69916e-08
9.82032e-08
9.93069e-08
1.00288e-07
1.0113e-07
1.01815e-07
1.02325e-07
1.02638e-07
1.02732e-07
1.02582e-07
1.02162e-07
1.01444e-07
1.00396e-07
9.89848e-08
9.71747e-08
9.4927e-08
9.22005e-08
8.89511e-08
8.51321e-08
8.06939e-08
7.55845e-08
6.97495e-08
6.31326e-08
5.56759e-08
4.73203e-08
3.80067e-08
2.76766e-08
1.6273e-08
3.74203e-09
-9.96585e-09
-2.48941e-08
-4.10785e-08
-5.85446e-08
-7.73063e-08
-9.73624e-08
-1.18694e-07
-1.41261e-07
-1.65004e-07
-1.8987e-07
-2.15705e-07
-2.41664e-07
-2.6706e-07
-3.02566e-07
-3.70144e-07
-3.26081e-07
4.35662e-08
4.2922e-08
4.23051e-08
4.18602e-08
4.15238e-08
4.12784e-08
4.11235e-08
4.10566e-08
4.10738e-08
4.11717e-08
4.1347e-08
4.15964e-08
4.19171e-08
4.23063e-08
4.27613e-08
4.32798e-08
4.38595e-08
4.44983e-08
4.51943e-08
4.59456e-08
4.67506e-08
4.76077e-08
4.85153e-08
4.9472e-08
5.04764e-08
5.1527e-08
5.26225e-08
5.37615e-08
5.49424e-08
5.6164e-08
5.74245e-08
5.87223e-08
6.00558e-08
6.14231e-08
6.28222e-08
6.42508e-08
6.57068e-08
6.71875e-08
6.86902e-08
7.02119e-08
7.17493e-08
7.32989e-08
7.48569e-08
7.64189e-08
7.79804e-08
7.95364e-08
8.10814e-08
8.26096e-08
8.41144e-08
8.55888e-08
8.70252e-08
8.84153e-08
8.97501e-08
9.10199e-08
9.22139e-08
9.33207e-08
9.43278e-08
9.52216e-08
9.59872e-08
9.66088e-08
9.7069e-08
9.73489e-08
9.74282e-08
9.72849e-08
9.68949e-08
9.62325e-08
9.52698e-08
9.39765e-08
9.23203e-08
9.02663e-08
8.7777e-08
8.48124e-08
8.13298e-08
7.7284e-08
7.26271e-08
6.73088e-08
6.12766e-08
5.44761e-08
4.68513e-08
3.83455e-08
2.89015e-08
1.84631e-08
6.97542e-09
-5.61316e-09
-1.93501e-08
-3.42768e-08
-5.04271e-08
-6.78249e-08
-8.64822e-08
-1.06397e-07
-1.27548e-07
-1.49893e-07
-1.73375e-07
-1.97937e-07
-2.23424e-07
-2.48979e-07
-2.73892e-07
-3.09013e-07
-3.76905e-07
-3.31242e-07
4.40664e-08
4.34452e-08
4.28493e-08
4.24176e-08
4.20892e-08
4.18472e-08
4.16912e-08
4.1619e-08
4.16271e-08
4.17122e-08
4.18712e-08
4.21012e-08
4.23994e-08
4.27632e-08
4.31902e-08
4.3678e-08
4.42244e-08
4.48275e-08
4.54853e-08
4.61959e-08
4.69578e-08
4.77693e-08
4.86288e-08
4.95347e-08
5.04856e-08
5.148e-08
5.25165e-08
5.35934e-08
5.47093e-08
5.58626e-08
5.70516e-08
5.82745e-08
5.95295e-08
6.08146e-08
6.21277e-08
6.34664e-08
6.48283e-08
6.62108e-08
6.76109e-08
6.90256e-08
7.04514e-08
7.18846e-08
7.33214e-08
7.47572e-08
7.61875e-08
7.7607e-08
7.90104e-08
8.03916e-08
8.1744e-08
8.30605e-08
8.43337e-08
8.5555e-08
8.67156e-08
8.78057e-08
8.88148e-08
8.97313e-08
9.05429e-08
9.12363e-08
9.17968e-08
9.22087e-08
9.2455e-08
9.25172e-08
9.23754e-08
9.20081e-08
9.13918e-08
9.05014e-08
8.93097e-08
8.77874e-08
8.5903e-08
8.36225e-08
8.09098e-08
7.77259e-08
7.40297e-08
6.97773e-08
6.49224e-08
5.94163e-08
5.32084e-08
4.6246e-08
3.84751e-08
2.98409e-08
2.02884e-08
9.7631e-09
-1.78764e-09
-1.44137e-08
-2.81606e-08
-4.3068e-08
-5.91682e-08
-7.64835e-08
-9.50247e-08
-1.14788e-07
-1.35752e-07
-1.57875e-07
-1.81094e-07
-2.05357e-07
-2.30505e-07
-2.55667e-07
-2.80117e-07
-3.14858e-07
-3.82941e-07
-3.35824e-07
4.45214e-08
4.3922e-08
4.33462e-08
4.29272e-08
4.26064e-08
4.23678e-08
4.2211e-08
4.21339e-08
4.21334e-08
4.22064e-08
4.235e-08
4.25614e-08
4.28381e-08
4.31776e-08
4.35775e-08
4.40357e-08
4.45499e-08
4.51184e-08
4.5739e-08
4.64101e-08
4.713e-08
4.7897e-08
4.87094e-08
4.95658e-08
5.04644e-08
5.14039e-08
5.23826e-08
5.3399e-08
5.44513e-08
5.55378e-08
5.66569e-08
5.78067e-08
5.8985e-08
6.01899e-08
6.14191e-08
6.26702e-08
6.39406e-08
6.52275e-08
6.65279e-08
6.78385e-08
6.91559e-08
7.04762e-08
7.17954e-08
7.31091e-08
7.44123e-08
7.57e-08
7.69666e-08
7.82059e-08
7.94115e-08
8.05761e-08
8.16923e-08
8.27515e-08
8.3745e-08
8.46629e-08
8.54949e-08
8.62296e-08
8.68547e-08
8.73571e-08
8.77224e-08
8.79352e-08
8.79787e-08
8.78349e-08
8.74844e-08
8.69059e-08
8.60768e-08
8.49725e-08
8.35666e-08
8.18306e-08
7.97338e-08
7.72435e-08
7.43245e-08
7.09391e-08
6.70474e-08
6.2607e-08
5.7573e-08
5.18985e-08
4.55344e-08
3.84298e-08
3.05325e-08
2.17895e-08
1.21476e-08
1.55419e-09
-1.00416e-08
-2.2688e-08
-3.64288e-08
-5.13024e-08
-6.73395e-08
-8.45614e-08
-1.02978e-07
-1.22584e-07
-1.43358e-07
-1.65256e-07
-1.88216e-07
-2.12185e-07
-2.37002e-07
-2.61785e-07
-2.85794e-07
-3.20162e-07
-3.88326e-07
-3.39886e-07
4.49343e-08
4.43557e-08
4.37989e-08
4.33922e-08
4.30787e-08
4.28434e-08
4.26859e-08
4.26043e-08
4.25958e-08
4.26573e-08
4.27862e-08
4.29799e-08
4.3236e-08
4.35522e-08
4.3926e-08
4.43556e-08
4.48387e-08
4.53736e-08
4.59582e-08
4.65909e-08
4.72699e-08
4.79935e-08
4.87602e-08
4.95682e-08
5.04159e-08
5.13018e-08
5.22242e-08
5.31814e-08
5.41717e-08
5.51933e-08
5.62442e-08
5.73226e-08
5.84263e-08
5.95532e-08
6.07008e-08
6.18666e-08
6.3048e-08
6.42421e-08
6.54456e-08
6.66554e-08
6.78677e-08
6.90788e-08
7.02843e-08
7.14798e-08
7.26605e-08
7.38209e-08
7.49556e-08
7.60584e-08
7.71227e-08
7.81414e-08
7.91068e-08
8.00106e-08
8.0844e-08
8.15973e-08
8.22602e-08
8.28214e-08
8.32689e-08
8.35896e-08
8.37695e-08
8.37934e-08
8.3645e-08
8.33066e-08
8.2759e-08
8.19819e-08
8.09529e-08
7.96483e-08
7.80422e-08
7.61071e-08
7.38132e-08
7.11287e-08
6.80194e-08
6.4449e-08
6.03787e-08
5.57675e-08
5.0572e-08
4.47467e-08
3.82441e-08
3.10149e-08
2.30088e-08
1.41742e-08
4.45974e-09
-6.18558e-09
-1.78111e-08
-3.04634e-08
-4.4185e-08
-5.90129e-08
-7.49768e-08
-9.20969e-08
-1.10382e-07
-1.29827e-07
-1.50409e-07
-1.72084e-07
-1.9479e-07
-2.18471e-07
-2.42967e-07
-2.67386e-07
-2.90976e-07
-3.24981e-07
-3.93129e-07
-3.43484e-07
4.53079e-08
4.4749e-08
4.42106e-08
4.38154e-08
4.35091e-08
4.32769e-08
4.31189e-08
4.30332e-08
4.3017e-08
4.30676e-08
4.31826e-08
4.33594e-08
4.35957e-08
4.38894e-08
4.42383e-08
4.46402e-08
4.50933e-08
4.55957e-08
4.61454e-08
4.67409e-08
4.73802e-08
4.80618e-08
4.87839e-08
4.95449e-08
5.03431e-08
5.11769e-08
5.20444e-08
5.29441e-08
5.3874e-08
5.48323e-08
5.5817e-08
5.6826e-08
5.78572e-08
5.89082e-08
5.99766e-08
6.10598e-08
6.21549e-08
6.3259e-08
6.43688e-08
6.5481e-08
6.65917e-08
6.76971e-08
6.87929e-08
6.98745e-08
7.09369e-08
7.19749e-08
7.29828e-08
7.39543e-08
7.4883e-08