/*--------------------------------*- C++ -*----------------------------------*\
  =========                 |
  \\      /  F ield         | OpenFOAM: The Open Source CFD Toolbox
   \\    /   O peration     | Website:  https://openfoam.org
    \\  /    A nd           | Version:  11
     \\/     M anipulation  |
\*---------------------------------------------------------------------------*/
FoamFile
{
    format      ascii;
    class       volScalarField;
    location    "70";
    object      k;
}
// * * * * * * * * * * * * * * * * * * * * * * * * * * * * * * * * * * * * * //

dimensions      [0 2 -2 0 0 0 0];

internalField   nonuniform List<scalar> 
10000
(
0.000939657
0.000835609
0.000745696
0.000667772
0.000600052
0.000541054
0.000489542
0.000444487
0.000405025
0.000370436
0.000340111
0.000313537
0.000290274
0.000269946
0.000252223
0.000236816
0.000223463
0.00021193
0.000202004
0.000193489
0.000186207
0.000179999
0.000174717
0.000170235
0.000166437
0.000163224
0.000160508
0.000158213
0.000156276
0.000154641
0.000153262
0.0001521
0.000151121
0.000150296
0.000149599
0.000149011
0.000148512
0.000148088
0.000147727
0.000147418
0.000147154
0.000146926
0.000146728
0.000146555
0.000146403
0.000146268
0.000146148
0.000146039
0.00014594
0.000145849
0.000145764
0.000145686
0.000145612
0.000145542
0.000145476
0.000145413
0.000145353
0.000145296
0.000145241
0.000145188
0.000145137
0.000145089
0.000145042
0.000144997
0.000144954
0.000144913
0.000144874
0.000144836
0.0001448
0.000144766
0.000144733
0.000144701
0.000144671
0.000144643
0.000144616
0.000144589
0.000144565
0.000144541
0.000144518
0.000144497
0.000144476
0.000144456
0.000144438
0.00014442
0.000144403
0.000144386
0.000144371
0.000144356
0.000144342
0.000144329
0.000144317
0.000144305
0.000144294
0.000144285
0.000144276
0.000144268
0.000144262
0.000144257
0.000144253
0.000144251
0.000939658
0.000835614
0.000745705
0.000667784
0.000600067
0.00054107
0.00048956
0.000444506
0.000405046
0.000370458
0.000340134
0.00031356
0.000290298
0.00026997
0.000252247
0.000236839
0.000223486
0.000211953
0.000202026
0.00019351
0.000186227
0.000180017
0.000174735
0.000170252
0.000166453
0.000163238
0.000160521
0.000158227
0.00015629
0.000154655
0.000153277
0.000152114
0.000151134
0.000150308
0.00014961
0.00014902
0.00014852
0.000148096
0.000147734
0.000147426
0.000147161
0.000146932
0.000146734
0.000146561
0.000146409
0.000146274
0.000146153
0.000146044
0.000145945
0.000145854
0.000145769
0.00014569
0.000145616
0.000145546
0.00014548
0.000145417
0.000145357
0.000145299
0.000145244
0.000145191
0.00014514
0.000145092
0.000145045
0.000145
0.000144957
0.000144916
0.000144876
0.000144838
0.000144802
0.000144768
0.000144735
0.000144703
0.000144673
0.000144644
0.000144617
0.000144591
0.000144566
0.000144542
0.00014452
0.000144498
0.000144477
0.000144457
0.000144439
0.000144421
0.000144404
0.000144387
0.000144372
0.000144357
0.000144343
0.00014433
0.000144317
0.000144306
0.000144295
0.000144285
0.000144276
0.000144269
0.000144262
0.000144257
0.000144254
0.000144252
0.00093966
0.000835622
0.000745721
0.000667805
0.000600092
0.0005411
0.000489593
0.000444541
0.000405083
0.000370496
0.000340173
0.000313599
0.000290337
0.000270009
0.000252285
0.000236876
0.000223521
0.000211986
0.000202057
0.000193538
0.000186254
0.000180041
0.000174757
0.000170271
0.000166471
0.000163254
0.000160536
0.00015824
0.000156302
0.000154667
0.000153288
0.000152125
0.000151145
0.000150317
0.000149618
0.000149027
0.000148527
0.000148102
0.00014774
0.000147431
0.000147166
0.000146938
0.000146739
0.000146566
0.000146414
0.000146279
0.000146158
0.000146048
0.000145949
0.000145858
0.000145773
0.000145694
0.00014562
0.00014555
0.000145484
0.00014542
0.00014536
0.000145302
0.000145247
0.000145194
0.000145143
0.000145094
0.000145048
0.000145003
0.000144959
0.000144918
0.000144879
0.000144841
0.000144805
0.00014477
0.000144737
0.000144705
0.000144675
0.000144646
0.000144619
0.000144593
0.000144568
0.000144544
0.000144521
0.000144499
0.000144479
0.000144459
0.00014444
0.000144422
0.000144405
0.000144388
0.000144373
0.000144358
0.000144344
0.000144331
0.000144318
0.000144306
0.000144296
0.000144286
0.000144277
0.00014427
0.000144263
0.000144258
0.000144254
0.000144252
0.000939662
0.000835632
0.000745739
0.000667832
0.000600126
0.000541139
0.000489637
0.000444589
0.000405134
0.000370549
0.000340227
0.000313654
0.000290392
0.000270063
0.000252338
0.000236927
0.000223569
0.000212031
0.000202098
0.000193576
0.000186288
0.000180072
0.000174784
0.000170296
0.000166492
0.000163273
0.000160553
0.000158255
0.000156316
0.000154679
0.000153299
0.000152135
0.000151154
0.000150325
0.000149626
0.000149034
0.000148533
0.000148107
0.000147745
0.000147436
0.000147171
0.000146942
0.000146743
0.00014657
0.000146418
0.000146282
0.000146161
0.000146052
0.000145953
0.000145861
0.000145776
0.000145697
0.000145623
0.000145553
0.000145487
0.000145424
0.000145363
0.000145306
0.00014525
0.000145197
0.000145146
0.000145097
0.00014505
0.000145005
0.000144962
0.000144921
0.000144881
0.000144843
0.000144807
0.000144772
0.000144739
0.000144708
0.000144677
0.000144649
0.000144621
0.000144595
0.00014457
0.000144546
0.000144523
0.000144501
0.00014448
0.000144461
0.000144442
0.000144424
0.000144406
0.00014439
0.000144374
0.000144359
0.000144345
0.000144332
0.000144319
0.000144308
0.000144297
0.000144287
0.000144278
0.000144271
0.000144264
0.000144259
0.000144255
0.000144253
0.000939665
0.000835642
0.000745758
0.000667861
0.000600164
0.000541185
0.00048969
0.000444647
0.000405196
0.000370614
0.000340295
0.000313723
0.000290461
0.000270131
0.000252404
0.00023699
0.000223629
0.000212087
0.00020215
0.000193624
0.00018633
0.00018011
0.000174818
0.000170325
0.000166518
0.000163296
0.000160572
0.000158272
0.00015633
0.000154692
0.000153311
0.000152146
0.000151163
0.000150333
0.000149633
0.00014904
0.000148538
0.000148112
0.00014775
0.00014744
0.000147175
0.000146946
0.000146747
0.000146574
0.000146421
0.000146286
0.000146165
0.000146055
0.000145956
0.000145864
0.00014578
0.000145701
0.000145627
0.000145557
0.00014549
0.000145427
0.000145367
0.000145309
0.000145253
0.0001452
0.000145149
0.000145101
0.000145054
0.000145009
0.000144965
0.000144924
0.000144884
0.000144846
0.00014481
0.000144775
0.000144742
0.00014471
0.00014468
0.000144651
0.000144624
0.000144597
0.000144572
0.000144548
0.000144525
0.000144503
0.000144483
0.000144463
0.000144444
0.000144425
0.000144408
0.000144392
0.000144376
0.000144361
0.000144347
0.000144333
0.000144321
0.000144309
0.000144298
0.000144288
0.000144279
0.000144272
0.000144265
0.00014426
0.000144256
0.000144254
0.000939667
0.000835652
0.000745778
0.000667891
0.000600204
0.000541235
0.000489748
0.000444712
0.000405267
0.00037069
0.000340373
0.000313803
0.000290541
0.000270211
0.000252482
0.000237065
0.0002237
0.000212153
0.000202211
0.000193679
0.00018638
0.000180154
0.000174857
0.000170359
0.000166547
0.000163321
0.000160594
0.000158291
0.000156347
0.000154706
0.000153323
0.000152156
0.000151172
0.000150341
0.000149639
0.000149046
0.000148543
0.000148117
0.000147754
0.000147444
0.000147178
0.000146949
0.00014675
0.000146577
0.000146424
0.000146289
0.000146168
0.000146058
0.000145959
0.000145867
0.000145783
0.000145704
0.00014563
0.00014556
0.000145493
0.00014543
0.00014537
0.000145312
0.000145257
0.000145204
0.000145153
0.000145104
0.000145057
0.000145012
0.000144968
0.000144927
0.000144887
0.000144849
0.000144813
0.000144778
0.000144745
0.000144713
0.000144683
0.000144654
0.000144626
0.0001446
0.000144575
0.00014455
0.000144528
0.000144506
0.000144485
0.000144465
0.000144446
0.000144427
0.00014441
0.000144394
0.000144378
0.000144363
0.000144349
0.000144335
0.000144322
0.000144311
0.0001443
0.00014429
0.000144281
0.000144273
0.000144267
0.000144261
0.000144258
0.000144256
0.000939669
0.000835662
0.000745797
0.00066792
0.000600245
0.000541286
0.000489809
0.000444782
0.000405343
0.000370772
0.000340459
0.000313892
0.000290631
0.0002703
0.000252569
0.000237148
0.000223779
0.000212227
0.000202279
0.000193741
0.000186435
0.000180203
0.0001749
0.000170396
0.000166579
0.000163348
0.000160617
0.00015831
0.000156363
0.00015472
0.000153335
0.000152166
0.00015118
0.000150348
0.000149645
0.000149051
0.000148548
0.000148121
0.000147757
0.000147447
0.000147181
0.000146952
0.000146753
0.000146579
0.000146427
0.000146291
0.00014617
0.000146061
0.000145961
0.00014587
0.000145785
0.000145706
0.000145632
0.000145562
0.000145496
0.000145433
0.000145373
0.000145315
0.00014526
0.000145207
0.000145156
0.000145107
0.00014506
0.000145015
0.000144971
0.00014493
0.00014489
0.000144852
0.000144816
0.000144781
0.000144748
0.000144716
0.000144685
0.000144656
0.000144629
0.000144602
0.000144577
0.000144553
0.00014453
0.000144508
0.000144487
0.000144467
0.000144448
0.00014443
0.000144412
0.000144395
0.00014438
0.000144365
0.00014435
0.000144337
0.000144324
0.000144312
0.000144301
0.000144291
0.000144282
0.000144275
0.000144268
0.000144263
0.000144259
0.000144257
0.000939672
0.000835671
0.000745816
0.00066795
0.000600285
0.000541338
0.000489871
0.000444853
0.000405423
0.000370858
0.000340551
0.000313986
0.000290727
0.000270395
0.000252663
0.000237239
0.000223865
0.000212307
0.000202353
0.000193808
0.000186496
0.000180256
0.000174946
0.000170436
0.000166614
0.000163378
0.000160642
0.000158331
0.000156381
0.000154735
0.000153347
0.000152176
0.000151188
0.000150354
0.00014965
0.000149055
0.000148551
0.000148124
0.00014776
0.000147449
0.000147183
0.000146953
0.000146754
0.000146581
0.000146428
0.000146293
0.000146172
0.000146062
0.000145963
0.000145872
0.000145787
0.000145708
0.000145634
0.000145565
0.000145498
0.000145435
0.000145375
0.000145317
0.000145262
0.000145209
0.000145158
0.000145109
0.000145062
0.000145017
0.000144974
0.000144933
0.000144893
0.000144855
0.000144818
0.000144783
0.00014475
0.000144718
0.000144688
0.000144659
0.000144631
0.000144605
0.000144579
0.000144555
0.000144532
0.00014451
0.000144489
0.000144469
0.00014445
0.000144432
0.000144414
0.000144397
0.000144382
0.000144366
0.000144352
0.000144339
0.000144326
0.000144314
0.000144303
0.000144293
0.000144284
0.000144276
0.00014427
0.000144264
0.000144261
0.000144258
0.000939674
0.00083568
0.000745833
0.000667978
0.000600325
0.000541389
0.000489933
0.000444926
0.000405505
0.000370947
0.000340645
0.000314085
0.000290828
0.000270496
0.000252762
0.000237335
0.000223956
0.000212392
0.000202431
0.000193879
0.000186559
0.000180313
0.000174995
0.000170479
0.00016665
0.000163408
0.000160668
0.000158352
0.000156398
0.000154749
0.000153358
0.000152185
0.000151195
0.00015036
0.000149655
0.000149058
0.000148554
0.000148125
0.000147761
0.00014745
0.000147183
0.000146954
0.000146755
0.000146581
0.000146428
0.000146293
0.000146172
0.000146063
0.000145964
0.000145873
0.000145788
0.00014571
0.000145636
0.000145566
0.0001455
0.000145437
0.000145377
0.000145319
0.000145264
0.000145211
0.00014516
0.000145112
0.000145065
0.00014502
0.000144976
0.000144935
0.000144895
0.000144857
0.000144821
0.000144786
0.000144753
0.000144721
0.00014469
0.000144661
0.000144633
0.000144607
0.000144582
0.000144557
0.000144534
0.000144512
0.000144491
0.000144471
0.000144452
0.000144433
0.000144416
0.000144399
0.000144383
0.000144368
0.000144354
0.00014434
0.000144327
0.000144316
0.000144305
0.000144295
0.000144286
0.000144278
0.000144271
0.000144266
0.000144262
0.00014426
0.000939676
0.000835688
0.00074585
0.000668005
0.000600363
0.000541439
0.000489995
0.000444998
0.000405587
0.000371037
0.000340742
0.000314186
0.000290931
0.0002706
0.000252864
0.000237434
0.000224051
0.000212481
0.000202513
0.000193953
0.000186625
0.000180371
0.000175046
0.000170523
0.000166687
0.00016344
0.000160694
0.000158374
0.000156415
0.000154763
0.000153369
0.000152193
0.000151202
0.000150365
0.000149658
0.000149061
0.000148555
0.000148126
0.000147761
0.00014745
0.000147183
0.000146953
0.000146754
0.00014658
0.000146428
0.000146293
0.000146172
0.000146063
0.000145964
0.000145873
0.000145789
0.00014571
0.000145637
0.000145567
0.000145501
0.000145438
0.000145378
0.000145321
0.000145266
0.000145213
0.000145162
0.000145113
0.000145067
0.000145022
0.000144978
0.000144937
0.000144897
0.000144859
0.000144823
0.000144788
0.000144755
0.000144723
0.000144692
0.000144663
0.000144635
0.000144609
0.000144583
0.000144559
0.000144536
0.000144514
0.000144493
0.000144473
0.000144454
0.000144435
0.000144418
0.000144401
0.000144385
0.00014437
0.000144355
0.000144342
0.000144329
0.000144317
0.000144306
0.000144296
0.000144287
0.000144279
0.000144273
0.000144267
0.000144264
0.000144261
0.000939678
0.000835696
0.000745866
0.000668031
0.0006004
0.000541488
0.000490055
0.000445069
0.000405668
0.000371127
0.000340838
0.000314287
0.000291036
0.000270705
0.000252968
0.000237535
0.000224147
0.000212571
0.000202596
0.000194029
0.000186693
0.000180431
0.000175098
0.000170567
0.000166725
0.000163471
0.00016072
0.000158395
0.000156432
0.000154776
0.000153379
0.000152201
0.000151207
0.000150368
0.00014966
0.000149062
0.000148555
0.000148125
0.00014776
0.000147448
0.000147181
0.000146951
0.000146752
0.000146579
0.000146426
0.000146291
0.000146171
0.000146062
0.000145963
0.000145872
0.000145788
0.00014571
0.000145636
0.000145567
0.000145501
0.000145439
0.000145379
0.000145321
0.000145267
0.000145214
0.000145163
0.000145115
0.000145068
0.000145023
0.00014498
0.000144938
0.000144899
0.000144861
0.000144824
0.000144789
0.000144756
0.000144724
0.000144694
0.000144665
0.000144637
0.00014461
0.000144585
0.000144561
0.000144538
0.000144516
0.000144494
0.000144474
0.000144455
0.000144437
0.000144419
0.000144402
0.000144386
0.000144371
0.000144357
0.000144343
0.000144331
0.000144319
0.000144308
0.000144298
0.000144289
0.000144281
0.000144274
0.000144269
0.000144265
0.000144263
0.00093968
0.000835704
0.000745881
0.000668055
0.000600435
0.000541534
0.000490113
0.000445138
0.000405747
0.000371215
0.000340934
0.000314388
0.00029114
0.000270811
0.000253073
0.000237637
0.000224245
0.000212663
0.000202681
0.000194105
0.000186762
0.000180491
0.000175151
0.000170612
0.000166763
0.000163503
0.000160746
0.000158416
0.000156449
0.000154789
0.000153388
0.000152207
0.000151211
0.000150371
0.000149661
0.000149061
0.000148554
0.000148123
0.000147758
0.000147446
0.000147178
0.000146948
0.000146749
0.000146576
0.000146423
0.000146289
0.000146168
0.00014606
0.000145961
0.00014587
0.000145787
0.000145708
0.000145635
0.000145566
0.000145501
0.000145438
0.000145378
0.000145321
0.000145267
0.000145214
0.000145164
0.000145115
0.000145068
0.000145024
0.000144981
0.000144939
0.0001449
0.000144862
0.000144825
0.000144791
0.000144757
0.000144725
0.000144695
0.000144666
0.000144638
0.000144612
0.000144586
0.000144562
0.000144539
0.000144517
0.000144496
0.000144475
0.000144456
0.000144438
0.00014442
0.000144404
0.000144388
0.000144372
0.000144358
0.000144345
0.000144332
0.00014432
0.000144309
0.000144299
0.00014429
0.000144282
0.000144275
0.00014427
0.000144266
0.000144264
0.000939682
0.000835711
0.000745896
0.000668078
0.000600469
0.000541579
0.000490169
0.000445205
0.000405824
0.000371301
0.000341028
0.000314488
0.000291243
0.000270916
0.000253177
0.000237739
0.000224342
0.000212754
0.000202765
0.000194182
0.000186831
0.000180552
0.000175203
0.000170657
0.0001668
0.000163534
0.000160771
0.000158436
0.000156464
0.0001548
0.000153397
0.000152213
0.000151215
0.000150372
0.000149661
0.00014906
0.000148551
0.00014812
0.000147754
0.000147442
0.000147174
0.000146944
0.000146745
0.000146572
0.000146419
0.000146285
0.000146164
0.000146056
0.000145958
0.000145867
0.000145784
0.000145706
0.000145633
0.000145564
0.000145499
0.000145437
0.000145377
0.000145321
0.000145266
0.000145214
0.000145163
0.000145115
0.000145068
0.000145024
0.000144981
0.00014494
0.0001449
0.000144862
0.000144826
0.000144791
0.000144758
0.000144726
0.000144696
0.000144667
0.000144639
0.000144612
0.000144587
0.000144563
0.00014454
0.000144518
0.000144496
0.000144476
0.000144457
0.000144439
0.000144421
0.000144404
0.000144389
0.000144373
0.000144359
0.000144346
0.000144333
0.000144321
0.00014431
0.0001443
0.000144291
0.000144283
0.000144277
0.000144271
0.000144268
0.000144265
0.000939683
0.000835718
0.000745909
0.000668101
0.000600501
0.000541621
0.000490222
0.00044527
0.000405899
0.000371385
0.000341119
0.000314585
0.000291344
0.000271019
0.00025328
0.000237839
0.000224438
0.000212845
0.000202849
0.000194259
0.000186899
0.000180612
0.000175255
0.000170701
0.000166838
0.000163564
0.000160795
0.000158455
0.000156479
0.000154811
0.000153404
0.000152217
0.000151217
0.000150372
0.000149659
0.000149057
0.000148548
0.000148116
0.000147749
0.000147436
0.000147169
0.000146939
0.000146739
0.000146566
0.000146414
0.00014628
0.00014616
0.000146052
0.000145953
0.000145864
0.00014578
0.000145703
0.00014563
0.000145562
0.000145497
0.000145435
0.000145376
0.000145319
0.000145265
0.000145212
0.000145162
0.000145114
0.000145068
0.000145023
0.00014498
0.000144939
0.0001449
0.000144862
0.000144826
0.000144791
0.000144758
0.000144726
0.000144696
0.000144667
0.000144639
0.000144613
0.000144587
0.000144563
0.00014454
0.000144518
0.000144497
0.000144477
0.000144458
0.000144439
0.000144422
0.000144405
0.000144389
0.000144374
0.00014436
0.000144346
0.000144334
0.000144322
0.000144311
0.000144301
0.000144292
0.000144284
0.000144278
0.000144272
0.000144269
0.000144266
0.000939685
0.000835724
0.000745922
0.000668122
0.000600531
0.000541662
0.000490274
0.000445332
0.000405971
0.000371466
0.000341208
0.00031468
0.000291443
0.000271119
0.00025338
0.000237937
0.000224533
0.000212934
0.000202932
0.000194334
0.000186966
0.000180671
0.000175306
0.000170745
0.000166874
0.000163594
0.000160819
0.000158473
0.000156493
0.000154821
0.00015341
0.000152221
0.000151217
0.000150371
0.000149657
0.000149053
0.000148543
0.00014811
0.000147743
0.00014743
0.000147162
0.000146932
0.000146733
0.00014656
0.000146408
0.000146274
0.000146154
0.000146046
0.000145948
0.000145859
0.000145776
0.000145699
0.000145626
0.000145558
0.000145493
0.000145432
0.000145373
0.000145316
0.000145262
0.00014521
0.00014516
0.000145112
0.000145066
0.000145022
0.000144979
0.000144938
0.000144899
0.000144861
0.000144825
0.000144791
0.000144758
0.000144726
0.000144696
0.000144667
0.000144639
0.000144612
0.000144587
0.000144563
0.00014454
0.000144518
0.000144497
0.000144477
0.000144458
0.000144439
0.000144422
0.000144405
0.00014439
0.000144375
0.00014436
0.000144347
0.000144334
0.000144322
0.000144312
0.000144302
0.000144293
0.000144285
0.000144278
0.000144273
0.000144269
0.000144267
0.000939686
0.00083573
0.000745934
0.000668142
0.00060056
0.000541701
0.000490323
0.000445391
0.00040604
0.000371544
0.000341293
0.000314771
0.000291538
0.000271217
0.000253478
0.000238033
0.000224625
0.000213021
0.000203012
0.000194407
0.000187032
0.000180729
0.000175356
0.000170787
0.000166909
0.000163623
0.000160842
0.000158491
0.000156505
0.000154829
0.000153415
0.000152223
0.000151217
0.000150369
0.000149653
0.000149048
0.000148537
0.000148103
0.000147736
0.000147422
0.000147154
0.000146924
0.000146725
0.000146552
0.0001464
0.000146266
0.000146147
0.000146039
0.000145942
0.000145853
0.00014577
0.000145693
0.000145621
0.000145553
0.000145489
0.000145428
0.000145369
0.000145313
0.000145259
0.000145208
0.000145158
0.00014511
0.000145064
0.00014502
0.000144977
0.000144937
0.000144898
0.00014486
0.000144824
0.000144789
0.000144756
0.000144725
0.000144695
0.000144666
0.000144638
0.000144612
0.000144587
0.000144562
0.000144539
0.000144518
0.000144497
0.000144477
0.000144457
0.000144439
0.000144422
0.000144405
0.00014439
0.000144375
0.00014436
0.000144347
0.000144335
0.000144323
0.000144312
0.000144302
0.000144293
0.000144286
0.000144279
0.000144274
0.00014427
0.000144268
0.000939688
0.000835736
0.000745946
0.00066816
0.000600588
0.000541738
0.000490369
0.000445447
0.000406106
0.000371618
0.000341375
0.000314859
0.00029163
0.000271311
0.000253573
0.000238126
0.000224714
0.000213106
0.000203091
0.000194479
0.000187096
0.000180785
0.000175405
0.000170828
0.000166943
0.00016365
0.000160863
0.000158507
0.000156517
0.000154837
0.000153419
0.000152224
0.000151216
0.000150365
0.000149648
0.000149042
0.000148529
0.000148095
0.000147727
0.000147413
0.000147145
0.000146915
0.000146716
0.000146543
0.000146392
0.000146258
0.000146139
0.000146032
0.000145935
0.000145846
0.000145764
0.000145687
0.000145616
0.000145548
0.000145484
0.000145423
0.000145365
0.000145309
0.000145256
0.000145204
0.000145155
0.000145107
0.000145061
0.000145017
0.000144975
0.000144934
0.000144895
0.000144858
0.000144822
0.000144788
0.000144755
0.000144723
0.000144693
0.000144664
0.000144637
0.000144611
0.000144585
0.000144561
0.000144539
0.000144517
0.000144496
0.000144476
0.000144457
0.000144439
0.000144421
0.000144405
0.000144389
0.000144374
0.00014436
0.000144347
0.000144335
0.000144323
0.000144312
0.000144302
0.000144294
0.000144286
0.00014428
0.000144274
0.000144271
0.000144269
0.000939689
0.000835741
0.000745957
0.000668178
0.000600614
0.000541772
0.000490414
0.000445501
0.000406168
0.00037169
0.000341454
0.000314943
0.000291719
0.000271402
0.000253664
0.000238216
0.000224801
0.000213188
0.000203167
0.000194548
0.000187158
0.000180839
0.000175451
0.000170867
0.000166975
0.000163676
0.000160883
0.000158522
0.000156527
0.000154843
0.000153422
0.000152224
0.000151213
0.000150361
0.000149642
0.000149034
0.000148521
0.000148086
0.000147717
0.000147403
0.000147135
0.000146905
0.000146706
0.000146533
0.000146382
0.000146249
0.00014613
0.000146023
0.000145927
0.000145838
0.000145756
0.00014568
0.000145609
0.000145542
0.000145478
0.000145418
0.00014536
0.000145304
0.000145251
0.0001452
0.000145151
0.000145103
0.000145058
0.000145014
0.000144972
0.000144932
0.000144893
0.000144855
0.00014482
0.000144785
0.000144753
0.000144721
0.000144691
0.000144663
0.000144635
0.000144609
0.000144584
0.00014456
0.000144537
0.000144515
0.000144495
0.000144475
0.000144456
0.000144438
0.000144421
0.000144404
0.000144389
0.000144374
0.00014436
0.000144347
0.000144334
0.000144323
0.000144312
0.000144303
0.000144294
0.000144286
0.00014428
0.000144275
0.000144271
0.000144269
0.000939691
0.000835747
0.000745967
0.000668195
0.000600638
0.000541805
0.000490456
0.000445552
0.000406228
0.000371758
0.000341529
0.000315024
0.000291804
0.000271489
0.000253751
0.000238302
0.000224884
0.000213267
0.00020324
0.000194615
0.000187217
0.000180892
0.000175496
0.000170905
0.000167006
0.000163701
0.000160902
0.000158536
0.000156536
0.000154848
0.000153424
0.000152223
0.00015121
0.000150355
0.000149635
0.000149026
0.000148512
0.000148076
0.000147707
0.000147393
0.000147124
0.000146894
0.000146695
0.000146522
0.000146372
0.000146238
0.00014612
0.000146014
0.000145917
0.000145829
0.000145748
0.000145672
0.000145602
0.000145535
0.000145472
0.000145411
0.000145354
0.000145299
0.000145246
0.000145195
0.000145146
0.000145099
0.000145054
0.00014501
0.000144968
0.000144928
0.000144889
0.000144852
0.000144817
0.000144783
0.00014475
0.000144719
0.000144689
0.00014466
0.000144633
0.000144607
0.000144582
0.000144558
0.000144535
0.000144514
0.000144493
0.000144473
0.000144454
0.000144436
0.000144419
0.000144403
0.000144388
0.000144373
0.000144359
0.000144346
0.000144334
0.000144322
0.000144312
0.000144302
0.000144294
0.000144286
0.00014428
0.000144275
0.000144271
0.000144269
0.000939692
0.000835751
0.000745977
0.000668211
0.000600661
0.000541837
0.000490495
0.0004456
0.000406285
0.000371822
0.0003416
0.000315101
0.000291885
0.000271572
0.000253835
0.000238385
0.000224964
0.000213342
0.00020331
0.000194679
0.000187275
0.000180942
0.000175539
0.000170941
0.000167036
0.000163724
0.00016092
0.000158548
0.000156544
0.000154853
0.000153425
0.000152221
0.000151205
0.000150349
0.000149627
0.000149017
0.000148501
0.000148065
0.000147695
0.000147381
0.000147112
0.000146882
0.000146683
0.000146511
0.00014636
0.000146227
0.000146109
0.000146003
0.000145908
0.00014582
0.000145739
0.000145664
0.000145593
0.000145527
0.000145464
0.000145404
0.000145347
0.000145292
0.00014524
0.000145189
0.000145141
0.000145094
0.000145049
0.000145006
0.000144964
0.000144924
0.000144886
0.000144849
0.000144813
0.000144779
0.000144747
0.000144716
0.000144686
0.000144657
0.00014463
0.000144604
0.000144579
0.000144556
0.000144533
0.000144511
0.000144491
0.000144471
0.000144453
0.000144435
0.000144418
0.000144402
0.000144386
0.000144372
0.000144358
0.000144345
0.000144333
0.000144322
0.000144311
0.000144302
0.000144293
0.000144286
0.00014428
0.000144275
0.000144271
0.000144269
0.000939693
0.000835756
0.000745987
0.000668226
0.000600683
0.000541866
0.000490533
0.000445646
0.000406339
0.000371883
0.000341668
0.000315174
0.000291962
0.000271652
0.000253915
0.000238464
0.000225041
0.000213415
0.000203378
0.00019474
0.000187329
0.00018099
0.00017558
0.000170976
0.000167064
0.000163746
0.000160936
0.00015856
0.000156551
0.000154856
0.000153425
0.000152218
0.0001512
0.000150342
0.000149618
0.000149007
0.00014849
0.000148054
0.000147683
0.000147368
0.0001471
0.000146869
0.000146671
0.000146499
0.000146348
0.000146216
0.000146098
0.000145992
0.000145897
0.00014581
0.000145729
0.000145655
0.000145585
0.000145519
0.000145456
0.000145397
0.00014534
0.000145286
0.000145233
0.000145183
0.000145135
0.000145088
0.000145044
0.000145001
0.000144959
0.000144919
0.000144881
0.000144844
0.000144809
0.000144775
0.000144743
0.000144712
0.000144682
0.000144654
0.000144627
0.000144601
0.000144576
0.000144553
0.00014453
0.000144509
0.000144489
0.000144469
0.00014445
0.000144433
0.000144416
0.0001444
0.000144385
0.00014437
0.000144357
0.000144344
0.000144332
0.000144321
0.00014431
0.000144301
0.000144293
0.000144285
0.000144279
0.000144274
0.000144271
0.000144269
0.000939694
0.000835761
0.000745995
0.000668241
0.000600704
0.000541894
0.000490568
0.00044569
0.00040639
0.000371942
0.000341732
0.000315244
0.000292035
0.000271727
0.000253992
0.000238539
0.000225114
0.000213484
0.000203442
0.000194799
0.000187382
0.000181035
0.00017562
0.000171008
0.00016709
0.000163766
0.000160951
0.00015857
0.000156557
0.000154858
0.000153424
0.000152214
0.000151194
0.000150334
0.000149608
0.000148996
0.000148479
0.000148041
0.00014767
0.000147355
0.000147086
0.000146856
0.000146657
0.000146485
0.000146335
0.000146203
0.000146086
0.000145981
0.000145886
0.000145799
0.000145719
0.000145645
0.000145575
0.00014551
0.000145448
0.000145389
0.000145332
0.000145278
0.000145226
0.000145176
0.000145128
0.000145082
0.000145038
0.000144995
0.000144954
0.000144914
0.000144876
0.00014484
0.000144805
0.000144771
0.000144739
0.000144708
0.000144679
0.00014465
0.000144623
0.000144598
0.000144573
0.00014455
0.000144527
0.000144506
0.000144486
0.000144466
0.000144448
0.00014443
0.000144414
0.000144398
0.000144383
0.000144369
0.000144355
0.000144342
0.000144331
0.00014432
0.000144309
0.0001443
0.000144292
0.000144285
0.000144278
0.000144274
0.00014427
0.000144268
0.000939695
0.000835765
0.000746004
0.000668254
0.000600724
0.00054192
0.000490602
0.00044573
0.000406438
0.000371996
0.000341793
0.00031531
0.000292105
0.000271799
0.000254064
0.000238611
0.000225183
0.00021355
0.000203503
0.000194854
0.000187431
0.000181079
0.000175657
0.000171039
0.000167115
0.000163786
0.000160965
0.000158579
0.000156563
0.000154859
0.000153422
0.00015221
0.000151187
0.000150325
0.000149598
0.000148985
0.000148466
0.000148028
0.000147657
0.000147341
0.000147072
0.000146842
0.000146644
0.000146472
0.000146322
0.00014619
0.000146073
0.000145969
0.000145874
0.000145788
0.000145708
0.000145634
0.000145565
0.0001455
0.000145439
0.00014538
0.000145324
0.00014527
0.000145219
0.000145169
0.000145122
0.000145076
0.000145032
0.000144989
0.000144948
0.000144909
0.000144871
0.000144835
0.0001448
0.000144766
0.000144734
0.000144704
0.000144674
0.000144646
0.00014462
0.000144594
0.00014457
0.000144546
0.000144524
0.000144503
0.000144483
0.000144464
0.000144445
0.000144428
0.000144411
0.000144396
0.000144381
0.000144367
0.000144353
0.000144341
0.000144329
0.000144318
0.000144308
0.000144299
0.000144291
0.000144284
0.000144278
0.000144273
0.000144269
0.000144267
0.000939696
0.000835769
0.000746012
0.000668267
0.000600742
0.000541945
0.000490634
0.000445769
0.000406483
0.000372048
0.000341851
0.000315372
0.00029217
0.000271867
0.000254133
0.000238679
0.000225249
0.000213612
0.000203561
0.000194907
0.000187479
0.00018112
0.000175692
0.000171068
0.000167138
0.000163803
0.000160978
0.000158587
0.000156567
0.00015486
0.00015342
0.000152205
0.00015118
0.000150316
0.000149587
0.000148973
0.000148454
0.000148015
0.000147643
0.000147327
0.000147058
0.000146828
0.000146629
0.000146458
0.000146308
0.000146177
0.00014606
0.000145956
0.000145862
0.000145776
0.000145697
0.000145623
0.000145555
0.00014549
0.000145429
0.000145371
0.000145315
0.000145262
0.000145211
0.000145162
0.000145114
0.000145069
0.000145025
0.000144983
0.000144942
0.000144903
0.000144865
0.000144829
0.000144795
0.000144761
0.000144729
0.000144699
0.00014467
0.000144642
0.000144615
0.00014459
0.000144566
0.000144543
0.00014452
0.000144499
0.000144479
0.00014446
0.000144442
0.000144425
0.000144409
0.000144393
0.000144378
0.000144364
0.000144351
0.000144339
0.000144327
0.000144316
0.000144307
0.000144298
0.00014429
0.000144282
0.000144277
0.000144272
0.000144268
0.000144266
0.000939697
0.000835772
0.000746019
0.000668279
0.000600759
0.000541969
0.000490663
0.000445806
0.000406526
0.000372097
0.000341905
0.000315431
0.000292233
0.000271931
0.000254198
0.000238743
0.000225311
0.000213672
0.000203617
0.000194958
0.000187523
0.000181159
0.000175725
0.000171095
0.00016716
0.00016382
0.00016099
0.000158595
0.00015657
0.00015486
0.000153417
0.000152199
0.000151172
0.000150306
0.000149576
0.00014896
0.00014844
0.000148001
0.000147629
0.000147313
0.000147043
0.000146813
0.000146615
0.000146444
0.000146294
0.000146163
0.000146047
0.000145943
0.000145849
0.000145764
0.000145685
0.000145612
0.000145544
0.00014548
0.000145419
0.000145361
0.000145306
0.000145253
0.000145202
0.000145154
0.000145107
0.000145061
0.000145018
0.000144976
0.000144935
0.000144897
0.000144859
0.000144823