/*--------------------------------*- C++ -*----------------------------------*\
  =========                 |
  \\      /  F ield         | OpenFOAM: The Open Source CFD Toolbox
   \\    /   O peration     | Website:  https://openfoam.org
    \\  /    A nd           | Version:  11
     \\/     M anipulation  |
\*---------------------------------------------------------------------------*/
FoamFile
{
    format      ascii;
    class       volScalarField;
    location    "184";
    object      k;
}
// * * * * * * * * * * * * * * * * * * * * * * * * * * * * * * * * * * * * * //

dimensions      [0 2 -2 0 0 0 0];

internalField   nonuniform List<scalar> 
10000
(
0.000939667
0.000835643
0.000745746
0.000667807
0.000600021
0.000540876
0.00048911
0.00044366
0.000403634
0.000368278
0.000336954
0.000309122
0.000284322
0.000262162
0.000242309
0.000224475
0.000208416
0.000193919
0.000180804
0.000168913
0.000158111
0.000148281
0.00013932
0.000131142
0.000123669
0.000116835
0.000110583
0.000104862
9.96293e-05
9.48459e-05
9.04784e-05
8.6497e-05
8.28752e-05
7.95889e-05
7.6616e-05
7.39361e-05
7.15296e-05
6.93779e-05
6.74631e-05
6.57675e-05
6.42739e-05
6.29657e-05
6.18266e-05
6.08409e-05
5.99935e-05
5.92702e-05
5.86582e-05
5.81452e-05
5.772e-05
5.73722e-05
5.70919e-05
5.68703e-05
5.66994e-05
5.6572e-05
5.64815e-05
5.64226e-05
5.63903e-05
5.63804e-05
5.63886e-05
5.64123e-05
5.64482e-05
5.64939e-05
5.65469e-05
5.66054e-05
5.66677e-05
5.67324e-05
5.67981e-05
5.68638e-05
5.69287e-05
5.6992e-05
5.7053e-05
5.71112e-05
5.71664e-05
5.7218e-05
5.7266e-05
5.73102e-05
5.73504e-05
5.73867e-05
5.7419e-05
5.74474e-05
5.7472e-05
5.74929e-05
5.75103e-05
5.75244e-05
5.75354e-05
5.75434e-05
5.75487e-05
5.75516e-05
5.75523e-05
5.75512e-05
5.75484e-05
5.75443e-05
5.75392e-05
5.75335e-05
5.75274e-05
5.75213e-05
5.75155e-05
5.75105e-05
5.75065e-05
5.7504e-05
0.000939667
0.000835644
0.000745748
0.00066781
0.000600024
0.00054088
0.000489113
0.000443664
0.000403638
0.000368282
0.000336958
0.000309126
0.000284326
0.000262166
0.000242313
0.000224479
0.00020842
0.000193923
0.000180808
0.000168918
0.000158116
0.000148285
0.000139325
0.000131147
0.000123674
0.00011684
0.000110588
0.000104868
9.96353e-05
9.48521e-05
9.04847e-05
8.65034e-05
8.28817e-05
7.95954e-05
7.66226e-05
7.39426e-05
7.15361e-05
6.93843e-05
6.74693e-05
6.57735e-05
6.42797e-05
6.29713e-05
6.1832e-05
6.08462e-05
5.99988e-05
5.92758e-05
5.86639e-05
5.8151e-05
5.77257e-05
5.73775e-05
5.70966e-05
5.68745e-05
5.6703e-05
5.6575e-05
5.64842e-05
5.6425e-05
5.63926e-05
5.63825e-05
5.63906e-05
5.64142e-05
5.645e-05
5.64956e-05
5.65486e-05
5.6607e-05
5.66693e-05
5.67338e-05
5.67995e-05
5.68652e-05
5.693e-05
5.69932e-05
5.70542e-05
5.71124e-05
5.71675e-05
5.72191e-05
5.72671e-05
5.73112e-05
5.73513e-05
5.73875e-05
5.74198e-05
5.74482e-05
5.74727e-05
5.74936e-05
5.7511e-05
5.7525e-05
5.75359e-05
5.75439e-05
5.75492e-05
5.75521e-05
5.75528e-05
5.75516e-05
5.75488e-05
5.75447e-05
5.75396e-05
5.75338e-05
5.75277e-05
5.75215e-05
5.75158e-05
5.75107e-05
5.75068e-05
5.75042e-05
0.000939668
0.000835646
0.000745751
0.000667814
0.000600029
0.000540885
0.00048912
0.000443671
0.000403645
0.000368289
0.000336965
0.000309133
0.000284333
0.000262174
0.00024232
0.000224487
0.000208427
0.000193931
0.000180816
0.000168926
0.000158124
0.000148294
0.000139333
0.000131155
0.000123682
0.000116849
0.000110597
0.000104877
9.96443e-05
9.48611e-05
9.04937e-05
8.65124e-05
8.28906e-05
7.96041e-05
7.6631e-05
7.39508e-05
7.15439e-05
6.93917e-05
6.74762e-05
6.578e-05
6.42857e-05
6.29768e-05
6.1837e-05
6.08508e-05
6.00031e-05
5.92798e-05
5.86678e-05
5.81546e-05
5.7729e-05
5.73804e-05
5.70991e-05
5.68765e-05
5.67045e-05
5.65761e-05
5.64851e-05
5.64257e-05
5.63931e-05
5.63829e-05
5.63909e-05
5.64144e-05
5.64502e-05
5.64957e-05
5.65487e-05
5.66071e-05
5.66694e-05
5.67339e-05
5.67996e-05
5.68653e-05
5.69301e-05
5.69933e-05
5.70543e-05
5.71125e-05
5.71676e-05
5.72192e-05
5.72672e-05
5.73113e-05
5.73514e-05
5.73877e-05
5.74199e-05
5.74483e-05
5.74728e-05
5.74937e-05
5.75111e-05
5.75252e-05
5.75361e-05
5.75441e-05
5.75494e-05
5.75523e-05
5.7553e-05
5.75518e-05
5.7549e-05
5.75449e-05
5.75399e-05
5.75341e-05
5.7528e-05
5.75219e-05
5.75162e-05
5.75112e-05
5.75072e-05
5.75047e-05
0.000939668
0.000835648
0.000745755
0.00066782
0.000600036
0.000540893
0.000489128
0.00044368
0.000403654
0.000368299
0.000336975
0.000309143
0.000284344
0.000262184
0.000242331
0.000224498
0.000208439
0.000193942
0.000180827
0.000168937
0.000158135
0.000148305
0.000139345
0.000131167
0.000123695
0.000116861
0.00011061
0.000104889
9.96568e-05
9.48735e-05
9.0506e-05
8.65245e-05
8.29024e-05
7.96156e-05
7.66421e-05
7.39613e-05
7.15537e-05
6.94009e-05
6.74847e-05
6.57877e-05
6.42926e-05
6.29829e-05
6.18424e-05
6.08554e-05
6.00071e-05
5.92833e-05
5.86708e-05
5.81572e-05
5.77311e-05
5.7382e-05
5.71003e-05
5.68772e-05
5.67048e-05
5.6576e-05
5.64847e-05
5.64251e-05
5.63923e-05
5.6382e-05
5.639e-05
5.64134e-05
5.64492e-05
5.64947e-05
5.65476e-05
5.66061e-05
5.66683e-05
5.67329e-05
5.67986e-05
5.68643e-05
5.69292e-05
5.69925e-05
5.70535e-05
5.71117e-05
5.71669e-05
5.72186e-05
5.72665e-05
5.73107e-05
5.73509e-05
5.73872e-05
5.74195e-05
5.74479e-05
5.74725e-05
5.74934e-05
5.75109e-05
5.7525e-05
5.75359e-05
5.7544e-05
5.75493e-05
5.75523e-05
5.75531e-05
5.75519e-05
5.75492e-05
5.75452e-05
5.75402e-05
5.75345e-05
5.75285e-05
5.75224e-05
5.75168e-05
5.75118e-05
5.75079e-05
5.75054e-05
0.000939669
0.000835651
0.000745759
0.000667826
0.000600043
0.000540902
0.000489138
0.000443691
0.000403666
0.000368311
0.000336988
0.000309156
0.000284357
0.000262198
0.000242345
0.000224512
0.000208453
0.000193957
0.000180842
0.000168952
0.00015815
0.00014832
0.000139361
0.000131183
0.00012371
0.000116877
0.000110626
0.000104905
9.96728e-05
9.48895e-05
9.05218e-05
8.654e-05
8.29175e-05
7.96302e-05
7.66561e-05
7.39745e-05
7.15661e-05
6.94123e-05
6.74952e-05
6.57971e-05
6.4301e-05
6.29902e-05
6.18487e-05
6.08607e-05
6.00115e-05
5.92869e-05
5.86737e-05
5.81594e-05
5.77327e-05
5.7383e-05
5.71006e-05
5.6877e-05
5.67041e-05
5.6575e-05
5.64834e-05
5.64236e-05
5.63906e-05
5.63802e-05
5.6388e-05
5.64114e-05
5.64472e-05
5.64927e-05
5.65457e-05
5.66041e-05
5.66664e-05
5.67311e-05
5.67969e-05
5.68627e-05
5.69276e-05
5.69909e-05
5.7052e-05
5.71104e-05
5.71656e-05
5.72173e-05
5.72654e-05
5.73096e-05
5.73499e-05
5.73863e-05
5.74186e-05
5.74471e-05
5.74718e-05
5.74928e-05
5.75103e-05
5.75245e-05
5.75355e-05
5.75437e-05
5.75491e-05
5.75522e-05
5.7553e-05
5.7552e-05
5.75494e-05
5.75454e-05
5.75405e-05
5.7535e-05
5.7529e-05
5.75231e-05
5.75175e-05
5.75127e-05
5.75088e-05
5.75063e-05
0.00093967
0.000835653
0.000745763
0.000667832
0.000600051
0.000540912
0.000489149
0.000443703
0.000403679
0.000368325
0.000337002
0.000309172
0.000284372
0.000262214
0.000242361
0.000224528
0.00020847
0.000193974
0.00018086
0.00016897
0.000158168
0.000148339
0.000139379
0.000131202
0.00012373
0.000116897
0.000110645
0.000104925
9.96924e-05
9.49089e-05
9.0541e-05
8.65589e-05
8.29358e-05
7.96478e-05
7.66729e-05
7.39904e-05
7.15809e-05
6.9426e-05
6.75075e-05
6.58081e-05
6.43107e-05
6.29986e-05
6.18557e-05
6.08666e-05
6.00162e-05
5.92906e-05
5.86764e-05
5.81612e-05
5.77337e-05
5.73832e-05
5.71003e-05
5.6876e-05
5.67027e-05
5.65732e-05
5.64812e-05
5.64211e-05
5.6388e-05
5.63774e-05
5.63852e-05
5.64085e-05
5.64443e-05
5.64898e-05
5.65428e-05
5.66013e-05
5.66637e-05
5.67284e-05
5.67943e-05
5.68602e-05
5.69252e-05
5.69887e-05
5.70499e-05
5.71083e-05
5.71636e-05
5.72155e-05
5.72637e-05
5.7308e-05
5.73484e-05
5.73849e-05
5.74174e-05
5.74459e-05
5.74707e-05
5.74919e-05
5.75095e-05
5.75238e-05
5.75349e-05
5.75432e-05
5.75488e-05
5.75519e-05
5.75529e-05
5.7552e-05
5.75495e-05
5.75457e-05
5.75409e-05
5.75355e-05
5.75297e-05
5.75239e-05
5.75184e-05
5.75136e-05
5.75098e-05
5.75073e-05
0.00093967
0.000835655
0.000745767
0.000667838
0.000600059
0.000540921
0.000489161
0.000443715
0.000403693
0.00036834
0.000337018
0.000309188
0.00028439
0.000262232
0.00024238
0.000224547
0.000208489
0.000193994
0.00018088
0.00016899
0.00015819
0.00014836
0.000139401
0.000131224
0.000123752
0.000116919
0.000110668
0.000104948
9.97153e-05
9.49316e-05
9.05634e-05
8.65807e-05
8.2957e-05
7.96683e-05
7.66923e-05
7.40087e-05
7.15979e-05
6.94416e-05
6.75216e-05
6.58206e-05
6.43216e-05
6.3008e-05
6.18636e-05
6.08729e-05
6.00212e-05
5.92943e-05
5.86789e-05
5.81627e-05
5.77342e-05
5.73829e-05
5.70992e-05
5.68743e-05
5.67004e-05
5.65704e-05
5.64781e-05
5.64177e-05
5.63844e-05
5.63737e-05
5.63814e-05
5.64046e-05
5.64404e-05
5.64859e-05
5.6539e-05
5.65976e-05
5.66601e-05
5.67249e-05
5.67909e-05
5.68569e-05
5.69221e-05
5.69856e-05
5.7047e-05
5.71056e-05
5.7161e-05
5.7213e-05
5.72613e-05
5.73058e-05
5.73464e-05
5.7383e-05
5.74156e-05
5.74443e-05
5.74693e-05
5.74905e-05
5.75083e-05
5.75227e-05
5.7534e-05
5.75424e-05
5.75482e-05
5.75515e-05
5.75526e-05
5.75519e-05
5.75496e-05
5.75459e-05
5.75413e-05
5.7536e-05
5.75304e-05
5.75247e-05
5.75194e-05
5.75147e-05
5.75109e-05
5.75084e-05
0.000939671
0.000835657
0.000745771
0.000667844
0.000600067
0.000540931
0.000489172
0.000443729
0.000403708
0.000368356
0.000337035
0.000309206
0.000284409
0.000262251
0.0002424
0.000224568
0.000208511
0.000194016
0.000180903
0.000169014
0.000158213
0.000148385
0.000139426
0.000131249
0.000123778
0.000116945
0.000110694
0.000104974
9.97412e-05
9.49573e-05
9.05887e-05
8.66055e-05
8.29811e-05
7.96913e-05
7.67142e-05
7.40293e-05
7.1617e-05
6.9459e-05
6.75374e-05
6.58346e-05
6.43338e-05
6.30183e-05
6.18721e-05
6.08798e-05
6.00265e-05
5.92981e-05
5.86813e-05
5.81639e-05
5.77343e-05
5.7382e-05
5.70975e-05
5.68719e-05
5.66973e-05
5.65669e-05
5.64741e-05
5.64134e-05
5.63798e-05
5.6369e-05
5.63766e-05
5.63998e-05
5.64355e-05
5.64811e-05
5.65342e-05
5.6593e-05
5.66555e-05
5.67205e-05
5.67866e-05
5.68528e-05
5.69181e-05
5.69819e-05
5.70434e-05
5.71021e-05
5.71577e-05
5.72099e-05
5.72584e-05
5.73031e-05
5.73438e-05
5.73805e-05
5.74133e-05
5.74422e-05
5.74674e-05
5.74888e-05
5.75067e-05
5.75213e-05
5.75328e-05
5.75414e-05
5.75474e-05
5.75509e-05
5.75522e-05
5.75517e-05
5.75496e-05
5.75461e-05
5.75417e-05
5.75366e-05
5.75311e-05
5.75256e-05
5.75204e-05
5.75158e-05
5.75121e-05
5.75096e-05
0.000939671
0.000835659
0.000745775
0.000667849
0.000600074
0.000540941
0.000489183
0.000443742
0.000403722
0.000368372
0.000337053
0.000309225
0.000284429
0.000262272
0.000242422
0.000224591
0.000208534
0.00019404
0.000180928
0.000169039
0.00015824
0.000148411
0.000139453
0.000131277
0.000123806
0.000116974
0.000110723
0.000105003
9.97699e-05
9.49858e-05
9.06168e-05
8.66329e-05
8.30076e-05
7.97168e-05
7.67384e-05
7.4052e-05
7.16381e-05
6.94783e-05
6.75547e-05
6.58499e-05
6.4347e-05
6.30295e-05
6.18814e-05
6.08871e-05
6.0032e-05
5.93019e-05
5.86837e-05
5.81649e-05
5.7734e-05
5.73807e-05
5.70951e-05
5.68687e-05
5.66935e-05
5.65625e-05
5.64692e-05
5.64082e-05
5.63744e-05
5.63633e-05
5.63708e-05
5.6394e-05
5.64297e-05
5.64754e-05
5.65286e-05
5.65874e-05
5.66501e-05
5.67152e-05
5.67815e-05
5.68479e-05
5.69134e-05
5.69773e-05
5.7039e-05
5.7098e-05
5.71538e-05
5.72062e-05
5.72548e-05
5.72997e-05
5.73406e-05
5.73776e-05
5.74106e-05
5.74397e-05
5.7465e-05
5.74867e-05
5.75048e-05
5.75197e-05
5.75314e-05
5.75402e-05
5.75463e-05
5.75501e-05
5.75516e-05
5.75513e-05
5.75494e-05
5.75462e-05
5.7542e-05
5.75371e-05
5.75319e-05
5.75265e-05
5.75215e-05
5.7517e-05
5.75134e-05
5.75109e-05
0.000939672
0.000835661
0.000745778
0.000667854
0.000600082
0.00054095
0.000489195
0.000443755
0.000403737
0.000368388
0.000337071
0.000309244
0.000284449
0.000262294
0.000242445
0.000224615
0.000208559
0.000194066
0.000180954
0.000169067
0.000158268
0.00014844
0.000139483
0.000131307
0.000123836
0.000117005
0.000110754
0.000105034
9.98013e-05
9.50169e-05
9.06474e-05
8.66628e-05
8.30365e-05
7.97445e-05
7.67647e-05
7.40766e-05
7.16609e-05
6.94991e-05
6.75733e-05
6.58664e-05
6.43612e-05
6.30415e-05
6.18912e-05
6.08949e-05
6.00378e-05
5.93059e-05
5.86859e-05
5.81656e-05
5.77334e-05
5.73788e-05
5.70922e-05
5.68649e-05
5.66889e-05
5.65573e-05
5.64636e-05
5.64021e-05
5.6368e-05
5.63568e-05
5.63642e-05
5.63873e-05
5.6423e-05
5.64687e-05
5.6522e-05
5.65809e-05
5.66438e-05
5.67091e-05
5.67756e-05
5.68421e-05
5.69078e-05
5.6972e-05
5.70339e-05
5.70931e-05
5.71491e-05
5.72017e-05
5.72507e-05
5.72958e-05
5.73369e-05
5.73741e-05
5.74074e-05
5.74367e-05
5.74623e-05
5.74842e-05
5.75026e-05
5.75176e-05
5.75296e-05
5.75387e-05
5.75451e-05
5.75491e-05
5.75509e-05
5.75509e-05
5.75492e-05
5.75463e-05
5.75423e-05
5.75376e-05
5.75326e-05
5.75274e-05
5.75225e-05
5.75182e-05
5.75146e-05
5.75121e-05
0.000939672
0.000835662
0.000745781
0.000667859
0.000600088
0.000540958
0.000489205
0.000443767
0.000403752
0.000368405
0.000337089
0.000309264
0.00028447
0.000262317
0.000242468
0.00022464
0.000208585
0.000194093
0.000180982
0.000169096
0.000158298
0.000148471
0.000139514
0.000131339
0.000123869
0.000117038
0.000110788
0.000105068
9.98349e-05
9.50502e-05
9.06802e-05
8.66948e-05
8.30675e-05
7.97742e-05
7.67929e-05
7.4103e-05
7.16853e-05
6.95213e-05
6.75933e-05
6.58839e-05
6.43764e-05
6.30543e-05
6.19016e-05
6.0903e-05
6.00438e-05
5.93098e-05
5.86881e-05
5.8166e-05
5.77324e-05
5.73765e-05
5.70888e-05
5.68605e-05
5.66837e-05
5.65514e-05
5.64571e-05
5.63953e-05
5.63608e-05
5.63494e-05
5.63566e-05
5.63797e-05
5.64154e-05
5.64612e-05
5.65145e-05
5.65736e-05
5.66366e-05
5.67021e-05
5.67688e-05
5.68356e-05
5.69015e-05
5.69659e-05
5.70281e-05
5.70875e-05
5.71438e-05
5.71967e-05
5.72459e-05
5.72912e-05
5.73326e-05
5.73701e-05
5.74036e-05
5.74332e-05
5.74591e-05
5.74813e-05
5.74999e-05
5.75153e-05
5.75275e-05
5.75369e-05
5.75436e-05
5.75478e-05
5.755e-05
5.75502e-05
5.75488e-05
5.75462e-05
5.75425e-05
5.75381e-05
5.75332e-05
5.75283e-05
5.75235e-05
5.75193e-05
5.75159e-05
5.75134e-05
0.000939673
0.000835664
0.000745784
0.000667864
0.000600095
0.000540967
0.000489216
0.00044378
0.000403766
0.000368421
0.000337107
0.000309284
0.000284492
0.000262339
0.000242493
0.000224666
0.000208612
0.000194121
0.000181012
0.000169126
0.000158329
0.000148504
0.000139548
0.000131373
0.000123904
0.000117073
0.000110823
0.000105104
9.98705e-05
9.50855e-05
9.07149e-05
8.67288e-05
8.31004e-05
7.98057e-05
7.68227e-05
7.41309e-05
7.17111e-05
6.95448e-05
6.76144e-05
6.59025e-05
6.43924e-05
6.30677e-05
6.19125e-05
6.09115e-05
6.00499e-05
5.93139e-05
5.86901e-05
5.81663e-05
5.77311e-05
5.73738e-05
5.70848e-05
5.68555e-05
5.66778e-05
5.65448e-05
5.64499e-05
5.63876e-05
5.63529e-05
5.63412e-05
5.63483e-05
5.63712e-05
5.6407e-05
5.64527e-05
5.65062e-05
5.65655e-05
5.66287e-05
5.66943e-05
5.67612e-05
5.68282e-05
5.68944e-05
5.69591e-05
5.70215e-05
5.70812e-05
5.71378e-05
5.7191e-05
5.72405e-05
5.72861e-05
5.73278e-05
5.73656e-05
5.73994e-05
5.74293e-05
5.74555e-05
5.74779e-05
5.74969e-05
5.75126e-05
5.75251e-05
5.75348e-05
5.75418e-05
5.75464e-05
5.75488e-05
5.75494e-05
5.75483e-05
5.75459e-05
5.75425e-05
5.75384e-05
5.75338e-05
5.7529e-05
5.75245e-05
5.75204e-05
5.7517e-05
5.75146e-05
0.000939673
0.000835665
0.000745787
0.000667868
0.000600101
0.000540975
0.000489226
0.000443792
0.00040378
0.000368437
0.000337125
0.000309303
0.000284513
0.000262363
0.000242518
0.000224692
0.00020864
0.00019415
0.000181042
0.000169158
0.000158362
0.000148537
0.000139583
0.000131409
0.00012394
0.00011711
0.00011086
0.000105141
9.99079e-05
9.51226e-05
9.07514e-05
8.67644e-05
8.31349e-05
7.98387e-05
7.6854e-05
7.41602e-05
7.17382e-05
6.95695e-05
6.76364e-05
6.59219e-05
6.4409e-05
6.30816e-05
6.19238e-05
6.09202e-05
6.00563e-05
5.93179e-05
5.86921e-05
5.81664e-05
5.77295e-05
5.73707e-05
5.70804e-05
5.685e-05
5.66714e-05
5.65375e-05
5.6442e-05
5.63793e-05
5.63441e-05
5.63322e-05
5.63391e-05
5.6362e-05
5.63977e-05
5.64435e-05
5.64971e-05
5.65565e-05
5.66199e-05
5.66858e-05
5.67529e-05
5.68202e-05
5.68866e-05
5.69516e-05
5.70143e-05
5.70743e-05
5.71312e-05
5.71847e-05
5.72345e-05
5.72804e-05
5.73225e-05
5.73605e-05
5.73947e-05
5.74249e-05
5.74514e-05
5.74742e-05
5.74935e-05
5.75095e-05
5.75224e-05
5.75324e-05
5.75398e-05
5.75447e-05
5.75475e-05
5.75483e-05
5.75476e-05
5.75455e-05
5.75424e-05
5.75385e-05
5.75342e-05
5.75297e-05
5.75253e-05
5.75213e-05
5.7518e-05
5.75156e-05
0.000939673
0.000835667
0.000745789
0.000667872
0.000600107
0.000540982
0.000489235
0.000443803
0.000403794
0.000368453
0.000337142
0.000309323
0.000284534
0.000262386
0.000242542
0.000224718
0.000208668
0.00019418
0.000181073
0.00016919
0.000158396
0.000148572
0.000139618
0.000131446
0.000123978
0.000117148
0.000110899
0.00010518
9.99467e-05
9.51611e-05
9.07893e-05
8.68014e-05
8.31707e-05
7.9873e-05
7.68865e-05
7.41907e-05
7.17663e-05
6.9595e-05
6.76593e-05
6.5942e-05
6.44263e-05
6.30961e-05
6.19355e-05
6.09292e-05
6.00627e-05
5.9322e-05
5.8694e-05
5.81663e-05
5.77276e-05
5.73672e-05
5.70756e-05
5.68439e-05
5.66644e-05
5.65297e-05
5.64335e-05
5.63702e-05
5.63347e-05
5.63224e-05
5.63292e-05
5.6352e-05
5.63877e-05
5.64336e-05
5.64873e-05
5.65468e-05
5.66103e-05
5.66765e-05
5.67438e-05
5.68114e-05
5.68781e-05
5.69434e-05
5.70064e-05
5.70667e-05
5.7124e-05
5.71778e-05
5.72279e-05
5.72742e-05
5.73166e-05
5.7355e-05
5.73895e-05
5.74201e-05
5.74469e-05
5.74701e-05
5.74898e-05
5.75061e-05
5.75194e-05
5.75297e-05
5.75375e-05
5.75428e-05
5.75459e-05
5.75471e-05
5.75467e-05
5.7545e-05
5.75421e-05
5.75385e-05
5.75345e-05
5.75302e-05
5.75259e-05
5.75221e-05
5.75189e-05
5.75166e-05
0.000939674
0.000835668
0.000745792
0.000667876
0.000600112
0.00054099
0.000489244
0.000443815
0.000403807
0.000368468
0.00033716
0.000309342
0.000284556
0.000262409
0.000242567
0.000224745
0.000208696
0.00019421
0.000181105
0.000169223
0.00015843
0.000148608
0.000139655
0.000131484
0.000124017
0.000117188
0.000110939
0.00010522
9.99867e-05
9.52008e-05
9.08284e-05
8.68396e-05
8.32076e-05
7.99084e-05
7.692e-05
7.4222e-05
7.17952e-05
6.96214e-05
6.76829e-05
6.59627e-05
6.44441e-05
6.31109e-05
6.19474e-05
6.09384e-05
6.00693e-05
5.93261e-05
5.86958e-05
5.81661e-05
5.77255e-05
5.73634e-05
5.70704e-05
5.68375e-05
5.66568e-05
5.65213e-05
5.64244e-05
5.63606e-05
5.63246e-05
5.63121e-05
5.63186e-05
5.63413e-05
5.6377e-05
5.64229e-05
5.64767e-05
5.65364e-05
5.66001e-05
5.66665e-05
5.67341e-05
5.68019e-05
5.6869e-05
5.69345e-05
5.69979e-05
5.70586e-05
5.71162e-05
5.71703e-05
5.72208e-05
5.72675e-05
5.73102e-05
5.7349e-05
5.73839e-05
5.74149e-05
5.74421e-05
5.74656e-05
5.74857e-05
5.75024e-05
5.7516e-05
5.75268e-05
5.75349e-05
5.75406e-05
5.75441e-05
5.75457e-05
5.75456e-05
5.75442e-05
5.75417e-05
5.75384e-05
5.75346e-05
5.75305e-05
5.75265e-05
5.75228e-05
5.75197e-05
5.75174e-05
0.000939674
0.000835669
0.000745794
0.00066788
0.000600117
0.000540997
0.000489253
0.000443825
0.00040382
0.000368483
0.000337177
0.000309361
0.000284577
0.000262432
0.000242592
0.000224772
0.000208725
0.00019424
0.000181137
0.000169257
0.000158465
0.000148644
0.000139693
0.000131522
0.000124056
0.000117228
0.00011098
0.000105261
0.000100028
9.52414e-05
9.08685e-05
8.68787e-05
8.32455e-05
7.99447e-05
7.69544e-05
7.42542e-05
7.18249e-05
6.96484e-05
6.77071e-05
6.59839e-05
6.44623e-05
6.31261e-05
6.19597e-05
6.09478e-05
6.00759e-05
5.93302e-05
5.86976e-05
5.81657e-05
5.77231e-05
5.73594e-05
5.70648e-05
5.68306e-05
5.66489e-05
5.65124e-05
5.64148e-05
5.63504e-05
5.63139e-05
5.63011e-05
5.63074e-05
5.63299e-05
5.63656e-05
5.64116e-05
5.64655e-05
5.65253e-05
5.65892e-05
5.66558e-05
5.67237e-05
5.67918e-05
5.68592e-05
5.69251e-05
5.69888e-05
5.70498e-05
5.71078e-05
5.71623e-05
5.72132e-05
5.72602e-05
5.73034e-05
5.73426e-05
5.73778e-05
5.74092e-05
5.74368e-05
5.74607e-05
5.74812e-05
5.74984e-05
5.75124e-05
5.75235e-05
5.7532e-05
5.75381e-05
5.7542e-05
5.7544e-05
5.75443e-05
5.75432e-05
5.75411e-05
5.7538e-05
5.75345e-05
5.75306e-05
5.75268e-05
5.75233e-05
5.75203e-05
5.7518e-05
0.000939674
0.00083567
0.000745796
0.000667883
0.000600122
0.000541003
0.000489262
0.000443836
0.000403832
0.000368497
0.000337193
0.00030938
0.000284597
0.000262454
0.000242617
0.000224798
0.000208753
0.000194271
0.000181169
0.00016929
0.0001585
0.000148681
0.000139731
0.000131561
0.000124096
0.000117269
0.000111021
0.000105302
0.000100069
9.52828e-05
9.09092e-05
8.69185e-05
8.3284e-05
7.99816e-05
7.69893e-05
7.42869e-05
7.18552e-05
6.96759e-05
6.77317e-05
6.60055e-05
6.44808e-05
6.31415e-05
6.19721e-05
6.09573e-05
6.00826e-05
5.93343e-05
5.86992e-05
5.81651e-05
5.77206e-05
5.73551e-05
5.70589e-05
5.68234e-05
5.66405e-05
5.65031e-05
5.64047e-05
5.63396e-05
5.63027e-05
5.62895e-05
5.62957e-05
5.6318e-05
5.63536e-05
5.63996e-05
5.64536e-05
5.65136e-05
5.65778e-05
5.66446e-05
5.67127e-05
5.67812e-05
5.68489e-05
5.69151e-05
5.69792e-05
5.70406e-05
5.70989e-05
5.71538e-05
5.72051e-05
5.72525e-05
5.72961e-05
5.73357e-05
5.73714e-05
5.74031e-05
5.74312e-05
5.74555e-05
5.74764e-05
5.7494e-05
5.75084e-05
5.752e-05
5.75289e-05
5.75354e-05
5.75397e-05
5.75421e-05
5.75428e-05
5.75421e-05
5.75402e-05
5.75375e-05
5.75342e-05
5.75306e-05
5.7527e-05
5.75236e-05
5.75207e-05
5.75184e-05
0.000939674
0.000835671
0.000745798
0.000667886
0.000600127
0.000541009
0.00048927
0.000443846
0.000403844
0.000368511
0.000337209
0.000309398
0.000284618
0.000262477
0.000242641
0.000224825
0.000208782
0.000194301
0.000181201
0.000169324
0.000158535
0.000148718
0.000139769
0.0001316
0.000124136
0.00011731
0.000111063
0.000105344
0.000100111
9.53246e-05
9.09504e-05
8.69587e-05
8.3323e-05
8.00189e-05
7.70247e-05
7.432e-05
7.18858e-05
6.97038e-05
6.77566e-05
6.60274e-05
6.44995e-05
6.31572e-05
6.19846e-05
6.09668e-05
6.00893e-05
5.93383e-05
5.87008e-05
5.81644e-05
5.77178e-05
5.73505e-05
5.70528e-05
5.68159e-05
5.66318e-05
5.64934e-05
5.63942e-05
5.63285e-05
5.62911e-05
5.62775e-05
5.62834e-05
5.63056e-05
5.63412e-05
5.63872e-05
5.64413e-05
5.65014e-05
5.65657e-05
5.66328e-05
5.67012e-05
5.677e-05
5.6838e-05
5.69046e-05
5.6969e-05
5.70308e-05
5.70895e-05
5.71448e-05
5.71965e-05
5.72444e-05
5.72884e-05
5.73284e-05
5.73645e-05
5.73967e-05
5.74252e-05
5.745e-05
5.74713e-05
5.74893e-05
5.75042e-05
5.75162e-05
5.75256e-05
5.75325e-05
5.75372e-05
5.754e-05
5.7541e-05
5.75407e-05
5.75392e-05
5.75368e-05
5.75338e-05
5.75304e-05
5.75269e-05
5.75237e-05
5.75209e-05
5.75187e-05
0.000939675
0.000835672
0.0007458
0.000667889
0.000600131
0.000541015
0.000489277
0.000443855
0.000403856
0.000368525
0.000337225
0.000309416
0.000284637
0.000262499
0.000242665
0.000224851
0.00020881
0.000194331
0.000181232
0.000169358
0.000158571
0.000148754
0.000139807
0.00013164
0.000124177
0.000117351
0.000111104
0.000105387
0.000100154
9.53666e-05
9.09918e-05
8.69993e-05
8.33622e-05
8.00566e-05
7.70604e-05
7.43534e-05
7.19166e-05
6.97318e-05
6.77817e-05
6.60494e-05
6.45184e-05
6.31729e-05
6.19972e-05
6.09764e-05
6.00961e-05
5.93423e-05
5.87023e-05
5.81636e-05
5.77149e-05
5.73458e-05
5.70464e-05
5.68081e-05
5.66228e-05
5.64834e-05
5.63834e-05
5.6317e-05
5.6279e-05
5.62651e-05
5.62707e-05
5.62927e-05
5.63282e-05
5.63742e-05
5.64284e-05
5.64887e-05
5.65532e-05
5.66205e-05
5.66893e-05
5.67583e-05
5.68267e-05
5.68936e-05
5.69584e-05
5.70206e-05
5.70797e-05
5.71355e-05
5.71876e-05
5.72359e-05
5.72803e-05
5.73208e-05
5.73573e-05
5.739e-05
5.74189e-05
5.74441e-05
5.74659e-05
5.74844e-05
5.74997e-05
5.75122e-05
5.75219e-05
5.75293e-05
5.75344e-05
5.75376e-05
5.75391e-05
5.75391e-05
5.75379e-05
5.75358e-05
5.75331e-05
5.753e-05
5.75267e-05
5.75236e-05
5.75209e-05
5.75187e-05
0.000939675
0.000835673
0.000745802
0.000667892
0.000600135
0.000541021
0.000489285
0.000443864
0.000403867
0.000368538
0.00033724
0.000309433
0.000284657
0.00026252
0.000242689
0.000224876
0.000208837
0.00019436
0.000181264
0.000169391
0.000158606
0.000148791
0.000139845
0.000131679
0.000124217
0.000117392
0.000111146
0.000105429
0.000100196
9.54087e-05
9.10333e-05
8.70399e-05
8.34015e-05
8.00943e-05
7.70961e-05
7.43869e-05
7.19475e-05
6.976e-05
6.78069e-05
6.60715e-05
6.45374e-05
6.31886e-05
6.20098e-05
6.0986e-05
6.01027e-05
5.93463e-05
5.87037e-05
5.81627e-05
5.77119e-05
5.73408e-05
5.70398e-05
5.68001e-05
5.66136e-05
5.64731e-05
5.63722e-05
5.63051e-05
5.62666e-05
5.62523e-05
5.62576e-05
5.62795e-05
5.63149e-05
5.63609e-05
5.64152e-05
5.64756e-05
5.65403e-05
5.66079e-05
5.66769e-05
5.67462e-05
5.68149e-05
5.68822e-05
5.69474e-05
5.701e-05
5.70696e-05
5.71257e-05
5.71783e-05
5.7227e-05
5.72719e-05
5.73128e-05
5.73498e-05
5.73829e-05
5.74123e-05
5.7438e-05
5.74602e-05
5.74791e-05
5.74949e-05
5.75078e-05
5.75181e-05
5.75258e-05
5.75314e-05
5.7535e-05
5.75369e-05
5.75373e-05
5.75364e-05
5.75347e-05
5.75322e-05
5.75293e-05
5.75263e-05
5.75233e-05
5.75207e-05
5.75185e-05
0.000939675
0.000835674
0.000745804
0.000667895
0.000600139
0.000541027
0.000489292
0.000443873
0.000403878
0.000368551
0.000337255
0.00030945
0.000284676
0.000262541
0.000242712
0.000224901
0.000208864
0.000194389
0.000181295
0.000169424
0.00015864
0.000148827
0.000139883
0.000131718
0.000124257
0.000117433
0.000111188
0.000105471
0.000100238
9.54506e-05
9.10747e-05
8.70803e-05
8.34407e-05
8.01319e-05
7.71318e-05
7.44203e-05
7.19784e-05
6.97881e-05
6.78321e-05
6.60935e-05
6.45563e-05
6.32044e-05
6.20224e-05
6.09956e-05
6.01094e-05
5.93502e-05
5.8705e-05
5.81617e-05
5.77088e-05
5.73358e-05
5.70331e-05
5.67919e-05
5.66041e-05
5.64626e-05
5.63608e-05
5.6293e-05
5.6254e-05
5.62392e-05
5.62442e-05
5.62659e-05
5.63012e-05
5.63472e-05
5.64016e-05
5.64621e-05
5.65271e-05
5.65948e-05
5.66641e-05
5.67338e-05
5.68028e-05
5.68705e-05
5.69361e-05
5.69991e-05
5.7059e-05
5.71156e-05
5.71686e-05
5.72178e-05
5.72631e-05
5.73045e-05
5.7342e-05
5.73756e-05
5.74054e-05
5.74316e-05
5.74543e-05
5.74737e-05
5.74899e-05
5.75033e-05
5.7514e-05
5.75222e-05
5.75282e-05
5.75322e-05
5.75345e-05
5.75352e-05
5.75348e-05
5.75333e-05
5.75311e-05
5.75285e-05
5.75256e-05
5.75229e-05
5.75203e-05
5.75182e-05
0.000939675
0.000835675
0.000745805
0.000667898
0.000600143
0.000541032
0.000489299
0.000443882
0.000403888
0.000368563
0.000337269
0.000309466
0.000284694
0.000262562
0.000242734
0.000224926
0.000208891
0.000194418
0.000181325
0.000169456
0.000158674
0.000148863
0.00013992
0.000131757
0.000124297
0.000117474
0.000111229
0.000105513
0.00010028
9.54922e-05
9.11158e-05
8.71205e-05
8.34797e-05
8.01693e-05
7.71673e-05
7.44536e-05
7.20091e-05
6.98161e-05
6.78571e-05
6.61155e-05
6.45751e-05
6.322e-05
6.2035e-05
6.1005e-05
6.01159e-05
5.9354e-05
5.87063e-05
5.81605e-05
5.77055e-05
5.73306e-05
5.70262e-05
5.67835e-05
5.65945e-05
5.64519e-05
5.63492e-05
5.62807e-05
5.62411e-05
5.62258e-05
5.62306e-05
5.6252e-05
5.62873e-05
5.63333e-05
5.63877e-05
5.64484e-05
5.65135e-05
5.65815e-05
5.66511e-05
5.67211e-05
5.67905e-05
5.68585e-05
5.69245e-05
5.69879e-05
5.70482e-05
5.71053e-05
5.71587e-05
5.72083e-05
5.72541e-05
5.7296e-05
5.73339e-05
5.7368e-05
5.73983e-05
5.74249e-05
5.74481e-05
5.7468e-05
5.74847e-05
5.74985e-05
5.75097e-05
5.75183e-05
5.75247e-05
5.75292e-05
5.75319e-05
5.7533e-05
5.75329e-05
5.75318e-05
5.75299e-05
5.75275e-05
5.75248e-05
5.75222e-05
5.75197e-05
5.75177e-05
0.000939676
0.000835675
0.000745807
0.0006679
0.000600147
0.000541037
0.000489305
0.00044389
0.000403898
0.000368575
0.000337283
0.000309482
0.000284712
0.000262582
0.000242756
0.00022495
0.000208917
0.000194446
0.000181355
0.000169488
0.000158708
0.000148898
0.000139956
0.000131795
0.000124336
0.000117514
0.00011127
0.000105554
0.000100321
9.55334e-05
9.11564e-05
8.71603e-05
8.35183e-05
8.02063e-05
7.72024e-05
7.44865e-05
7.20396e-05
6.98438e-05
6.78819e-05
6.61373e-05
6.45937e-05
6.32355e-05
6.20474e-05
6.10144e-05
6.01224e-05
5.93577e-05
5.87074e-05
5.81594e-05
5.77022e-05
5.73254e-05
5.70193e-05
5.67751e-05
5.65848e-05
5.64411e-05
5.63375e-05
5.62682e-05
5.6228e-05
5.62124e-05
5.62168e-05
5.6238e-05
5.62732e-05
5.63192e-05
5.63736e-05
5.64344e-05
5.64997e-05
5.6568e-05
5.66378e-05
5.67081e-05
5.67778e-05
5.68462e-05
5.69126e-05
5.69764e-05
5.70372e-05
5.70947e-05
5.71485e-05
5.71986e-05
5.72449e-05
5.72872e-05
5.73256e-05
5.73602e-05
5.73909e-05
5.74181e-05
5.74417e-05
5.74621e-05
5.74793e-05
5.74936e-05
5.75052e-05
5.75143e-05
5.75211e-05
5.7526e-05
5.75291e-05
5.75306e-05
5.75308e-05
5.753e-05
5.75284e-05
5.75262e-05
5.75238e-05
5.75213e-05
5.7519e-05
5.75169e-05
0.000939676
0.000835676
0.000745808
0.000667903
0.000600151
0.000541042
0.000489312
0.000443898
0.000403908
0.000368586
0.000337296
0.000309497
0.000284729
0.000262601
0.000242778
0.000224974
0.000208943
0.000194474
0.000181385
0.000169519
0.000158741
0.000148933
0.000139992
0.000131832
0.000124375
0.000117553
0.00011131
0.000105594
0.000100362
9.55739e-05
9.11965e-05
8.71995e-05
8.35563e-05
8.02428e-05
7.7237e-05
7.45189e-05
7.20696e-05
6.98711e-05
6.79064e-05
6.61587e-05
6.46121e-05
6.32508e-05
6.20596e-05
6.10237e-05
6.01288e-05
5.93614e-05
5.87085e-05
5.81581e-05
5.76988e-05
5.73201e-05
5.70123e-05
5.67666e-05
5.6575e-05
5.64302e-05
5.63257e-05
5.62557e-05
5.62149e-05
5.61988e-05
5.62029e-05
5.62239e-05
5.62589e-05
5.63049e-05
5.63594e-05
5.64203e-05
5.64858e-05
5.65542e-05
5.66243e-05
5.66949e-05
5.6765e-05
5.68338e-05
5.69005e-05
5.69648e-05
5.7026e-05
5.70839e-05
5.71382e-05
5.71888e-05
5.72355e-05
5.72783e-05
5.73171e-05
5.73522e-05
5.73834e-05
5.74111e-05
5.74352e-05
5.7456e-05
5.74737e-05
5.74884e-05
5.75005e-05
5.751e-05
5.75173e-05
5.75226e-05
5.75261e-05
5.7528e-05
5.75286e-05
5.75281e-05
5.75267e-05
5.75248e-05
5.75226e-05
5.75202e-05
5.7518e-05
5.7516e-05
0.000939676
0.000835677
0.00074581
0.000667905
0.000600154
0.000541047
0.000489318
0.000443906
0.000403917
0.000368597
0.000337309
0.000309512
0.000284746
0.00026262
0.000242799
0.000224996
0.000208967
0.0001945
0.000181413
0.000169549
0.000158773
0.000148966
0.000140028
0.000131869
0.000124412
0.000117592
0.000111349
0.000105634
0.000100402
9.56137e-05
9.12358e-05
8.7238e-05
8.35936e-05
8.02786e-05
7.72711e-05
7.45509e-05
7.20991e-05
6.9898e-05
6.79305e-05
6.61799e-05
6.46303e-05
6.32659e-05
6.20716e-05
6.10327e-05
6.0135e-05
5.93649e-05
5.87096e-05
5.81568e-05
5.76954e-05
5.73147e-05
5.70053e-05
5.67581e-05
5.65652e-05
5.64193e-05
5.63139e-05
5.62431e-05
5.62017e-05
5.61851e-05
5.6189e-05
5.62097e-05
5.62446e-05
5.62905e-05
5.6345e-05
5.64061e-05
5.64717e-05
5.65404e-05
5.66108e-05