/*--------------------------------*- C++ -*----------------------------------*\
  =========                 |
  \\      /  F ield         | OpenFOAM: The Open Source CFD Toolbox
   \\    /   O peration     | Website:  https://openfoam.org
    \\  /    A nd           | Version:  11
     \\/     M anipulation  |
\*---------------------------------------------------------------------------*/
FoamFile
{
    format      ascii;
    class       volScalarField;
    location    "596";
    object      k;
}
// * * * * * * * * * * * * * * * * * * * * * * * * * * * * * * * * * * * * * //

dimensions      [0 2 -2 0 0 0 0];

internalField   nonuniform List<scalar> 
10000
(
0.000939687
0.000835718
0.00074589
0.000668033
0.00060034
0.000541299
0.000489645
0.000444316
0.000404416
0.000369191
0.000338003
0.000310309
0.000285649
0.00026363
0.000243916
0.000226219
0.000210292
0.000195922
0.000182925
0.000171142
0.000160435
0.000150683
0.000141783
0.000133642
0.00012618
0.000119327
0.000113021
0.000107208
0.000101838
9.68702e-05
9.22657e-05
8.7991e-05
8.40161e-05
8.0314e-05
7.68609e-05
7.36352e-05
7.06176e-05
6.77909e-05
6.51393e-05
6.26487e-05
6.03064e-05
5.81009e-05
5.60217e-05
5.40592e-05
5.22049e-05
5.04508e-05
4.87897e-05
4.72151e-05
4.5721e-05
4.43019e-05
4.29527e-05
4.16689e-05
4.04461e-05
3.92804e-05
3.81683e-05
3.71064e-05
3.60916e-05
3.51211e-05
3.41924e-05
3.33029e-05
3.24505e-05
3.1633e-05
3.08486e-05
3.00955e-05
2.9372e-05
2.86766e-05
2.80079e-05
2.73647e-05
2.67457e-05
2.61498e-05
2.5576e-05
2.50234e-05
2.44911e-05
2.39783e-05
2.34843e-05
2.30086e-05
2.25504e-05
2.21093e-05
2.16848e-05
2.12766e-05
2.08841e-05
2.05073e-05
2.01457e-05
1.97993e-05
1.94677e-05
1.9151e-05
1.88489e-05
1.85616e-05
1.8289e-05
1.80313e-05
1.77887e-05
1.75614e-05
1.73501e-05
1.71554e-05
1.69784e-05
1.68205e-05
1.6684e-05
1.65719e-05
1.64882e-05
1.64394e-05
0.000939687
0.000835718
0.00074589
0.000668034
0.00060034
0.000541299
0.000489645
0.000444316
0.000404416
0.000369191
0.000338003
0.000310309
0.000285649
0.00026363
0.000243916
0.000226219
0.000210292
0.000195922
0.000182925
0.000171142
0.000160435
0.000150684
0.000141783
0.000133642
0.00012618
0.000119327
0.000113021
0.000107208
0.000101838
9.68704e-05
9.22659e-05
8.79912e-05
8.40162e-05
8.03142e-05
7.6861e-05
7.36353e-05
7.06178e-05
6.7791e-05
6.51394e-05
6.26489e-05
6.03066e-05
5.81011e-05
5.60219e-05
5.40594e-05
5.22051e-05
5.0451e-05
4.87899e-05
4.72153e-05
4.57213e-05
4.43021e-05
4.2953e-05
4.16691e-05
4.04463e-05
3.92807e-05
3.81685e-05
3.71066e-05
3.60919e-05
3.51214e-05
3.41927e-05
3.33032e-05
3.24508e-05
3.16333e-05
3.08489e-05
3.00958e-05
2.93723e-05
2.86769e-05
2.80083e-05
2.73651e-05
2.6746e-05
2.61502e-05
2.55764e-05
2.50238e-05
2.44914e-05
2.39787e-05
2.34847e-05
2.3009e-05
2.25508e-05
2.21097e-05
2.16852e-05
2.1277e-05
2.08845e-05
2.05077e-05
2.01461e-05
1.97997e-05
1.94681e-05
1.91513e-05
1.88493e-05
1.8562e-05
1.82894e-05
1.80317e-05
1.7789e-05
1.75617e-05
1.73504e-05
1.71557e-05
1.69786e-05
1.68208e-05
1.66843e-05
1.65721e-05
1.64884e-05
1.64397e-05
0.000939687
0.000835718
0.00074589
0.000668034
0.00060034
0.000541299
0.000489645
0.000444316
0.000404416
0.000369192
0.000338003
0.00031031
0.00028565
0.00026363
0.000243916
0.000226219
0.000210292
0.000195922
0.000182925
0.000171142
0.000160435
0.000150684
0.000141783
0.000133642
0.00012618
0.000119327
0.000113022
0.000107208
0.000101839
9.68707e-05
9.22662e-05
8.79915e-05
8.40165e-05
8.03145e-05
7.68613e-05
7.36357e-05
7.06181e-05
6.77914e-05
6.51398e-05
6.26492e-05
6.0307e-05
5.81015e-05
5.60223e-05
5.40598e-05
5.22055e-05
5.04514e-05
4.87903e-05
4.72158e-05
4.57217e-05
4.43026e-05
4.29534e-05
4.16696e-05
4.04468e-05
3.92812e-05
3.81691e-05
3.71072e-05
3.60924e-05
3.5122e-05
3.41932e-05
3.33038e-05
3.24513e-05
3.16339e-05
3.08495e-05
3.00964e-05
2.93729e-05
2.86776e-05
2.80089e-05
2.73657e-05
2.67467e-05
2.61508e-05
2.55771e-05
2.50244e-05
2.44921e-05
2.39794e-05
2.34854e-05
2.30097e-05
2.25515e-05
2.21104e-05
2.16859e-05
2.12777e-05
2.08853e-05
2.05084e-05
2.01468e-05
1.98004e-05
1.94688e-05
1.9152e-05
1.885e-05
1.85626e-05
1.829e-05
1.80323e-05
1.77896e-05
1.75623e-05
1.73509e-05
1.71562e-05
1.69791e-05
1.68213e-05
1.66847e-05
1.65725e-05
1.64888e-05
1.64401e-05
0.000939687
0.000835718
0.00074589
0.000668034
0.00060034
0.000541299
0.000489645
0.000444316
0.000404416
0.000369192
0.000338004
0.00031031
0.00028565
0.000263631
0.000243917
0.00022622
0.000210293
0.000195923
0.000182926
0.000171143
0.000160436
0.000150684
0.000141784
0.000133642
0.000126181
0.000119328
0.000113022
0.000107208
0.000101839
9.68711e-05
9.22666e-05
8.79919e-05
8.4017e-05
8.03149e-05
7.68618e-05
7.36362e-05
7.06186e-05
6.77919e-05
6.51403e-05
6.26498e-05
6.03075e-05
5.8102e-05
5.60228e-05
5.40604e-05
5.22061e-05
5.0452e-05
4.8791e-05
4.72164e-05
4.57223e-05
4.43033e-05
4.29541e-05
4.16703e-05
4.04475e-05
3.92819e-05
3.81698e-05
3.71079e-05
3.60932e-05
3.51227e-05
3.4194e-05
3.33046e-05
3.24522e-05
3.16347e-05
3.08504e-05
3.00973e-05
2.93738e-05
2.86785e-05
2.80099e-05
2.73667e-05
2.67477e-05
2.61518e-05
2.5578e-05
2.50254e-05
2.44932e-05
2.39804e-05
2.34865e-05
2.30107e-05
2.25525e-05
2.21115e-05
2.1687e-05
2.12787e-05
2.08863e-05
2.05094e-05
2.01479e-05
1.98014e-05
1.94698e-05
1.9153e-05
1.88509e-05
1.85636e-05
1.82909e-05
1.80332e-05
1.77904e-05
1.75631e-05
1.73517e-05
1.71569e-05
1.69798e-05
1.68219e-05
1.66854e-05
1.65731e-05
1.64894e-05
1.64406e-05
0.000939687
0.000835718
0.00074589
0.000668034
0.00060034
0.0005413
0.000489646
0.000444316
0.000404417
0.000369192
0.000338004
0.00031031
0.00028565
0.000263631
0.000243917
0.00022622
0.000210293
0.000195923
0.000182926
0.000171143
0.000160436
0.000150684
0.000141784
0.000133643
0.000126181
0.000119328
0.000113022
0.000107209
0.00010184
9.68716e-05
9.22672e-05
8.79925e-05
8.40175e-05
8.03155e-05
7.68624e-05
7.36368e-05
7.06193e-05
6.77926e-05
6.5141e-05
6.26505e-05
6.03082e-05
5.81028e-05
5.60236e-05
5.40612e-05
5.22069e-05
5.04528e-05
4.87918e-05
4.72172e-05
4.57232e-05
4.43041e-05
4.2955e-05
4.16712e-05
4.04485e-05
3.92828e-05
3.81708e-05
3.71089e-05
3.60942e-05
3.51238e-05
3.41951e-05
3.33057e-05
3.24533e-05
3.16359e-05
3.08515e-05
3.00984e-05
2.9375e-05
2.86797e-05
2.80111e-05
2.73679e-05
2.67489e-05
2.61531e-05
2.55793e-05
2.50268e-05
2.44945e-05
2.39817e-05
2.34878e-05
2.30121e-05
2.25539e-05
2.21128e-05
2.16884e-05
2.12801e-05
2.08877e-05
2.05108e-05
2.01492e-05
1.98027e-05
1.94711e-05
1.91543e-05
1.88522e-05
1.85648e-05
1.82921e-05
1.80343e-05
1.77915e-05
1.75642e-05
1.73527e-05
1.71579e-05
1.69807e-05
1.68228e-05
1.66862e-05
1.65739e-05
1.64902e-05
1.64413e-05
0.000939687
0.000835718
0.00074589
0.000668034
0.000600341
0.0005413
0.000489646
0.000444316
0.000404417
0.000369192
0.000338004
0.00031031
0.00028565
0.000263631
0.000243917
0.00022622
0.000210293
0.000195923
0.000182927
0.000171144
0.000160436
0.000150685
0.000141785
0.000133643
0.000126182
0.000119329
0.000113023
0.00010721
0.00010184
9.68723e-05
9.22678e-05
8.79932e-05
8.40183e-05
8.03163e-05
7.68632e-05
7.36376e-05
7.06201e-05
6.77934e-05
6.51418e-05
6.26513e-05
6.03091e-05
5.81037e-05
5.60245e-05
5.40621e-05
5.22078e-05
5.04538e-05
4.87928e-05
4.72183e-05
4.57243e-05
4.43052e-05
4.29561e-05
4.16723e-05
4.04496e-05
3.9284e-05
3.8172e-05
3.71101e-05
3.60954e-05
3.51251e-05
3.41964e-05
3.3307e-05
3.24546e-05
3.16372e-05
3.08529e-05
3.00999e-05
2.93765e-05
2.86812e-05
2.80126e-05
2.73694e-05
2.67505e-05
2.61547e-05
2.55809e-05
2.50284e-05
2.44961e-05
2.39834e-05
2.34895e-05
2.30137e-05
2.25556e-05
2.21145e-05
2.169e-05
2.12818e-05
2.08893e-05
2.05125e-05
2.01509e-05
1.98043e-05
1.94727e-05
1.91558e-05
1.88537e-05
1.85663e-05
1.82936e-05
1.80357e-05
1.77929e-05
1.75655e-05
1.73539e-05
1.7159e-05
1.69818e-05
1.68238e-05
1.66872e-05
1.65748e-05
1.64911e-05
1.64422e-05
0.000939687
0.000835718
0.00074589
0.000668034
0.000600341
0.0005413
0.000489646
0.000444317
0.000404417
0.000369193
0.000338004
0.000310311
0.000285651
0.000263632
0.000243918
0.000226221
0.000210294
0.000195924
0.000182927
0.000171144
0.000160437
0.000150686
0.000141785
0.000133644
0.000126182
0.00011933
0.000113024
0.00010721
0.000101841
9.6873e-05
9.22686e-05
8.7994e-05
8.40191e-05
8.03171e-05
7.68641e-05
7.36385e-05
7.0621e-05
6.77943e-05
6.51428e-05
6.26523e-05
6.03101e-05
5.81047e-05
5.60256e-05
5.40632e-05
5.22089e-05
5.04549e-05
4.8794e-05
4.72195e-05
4.57255e-05
4.43065e-05
4.29574e-05
4.16737e-05
4.0451e-05
3.92854e-05
3.81734e-05
3.71116e-05
3.60969e-05
3.51266e-05
3.41979e-05
3.33086e-05
3.24562e-05
3.16389e-05
3.08546e-05
3.01015e-05
2.93782e-05
2.86829e-05
2.80144e-05
2.73712e-05
2.67523e-05
2.61565e-05
2.55828e-05
2.50303e-05
2.4498e-05
2.39853e-05
2.34914e-05
2.30157e-05
2.25575e-05
2.21165e-05
2.1692e-05
2.12837e-05
2.08913e-05
2.05144e-05
2.01528e-05
1.98062e-05
1.94745e-05
1.91577e-05
1.88555e-05
1.8568e-05
1.82952e-05
1.80373e-05
1.77944e-05
1.75669e-05
1.73553e-05
1.71604e-05
1.69831e-05
1.6825e-05
1.66883e-05
1.65759e-05
1.64921e-05
1.64432e-05
0.000939687
0.000835718
0.00074589
0.000668034
0.000600341
0.0005413
0.000489646
0.000444317
0.000404417
0.000369193
0.000338005
0.000310311
0.000285651
0.000263632
0.000243918
0.000226221
0.000210294
0.000195925
0.000182928
0.000171145
0.000160438
0.000150686
0.000141786
0.000133645
0.000126183
0.00011933
0.000113025
0.000107211
0.000101842
9.68739e-05
9.22695e-05
8.79949e-05
8.402e-05
8.03181e-05
7.68651e-05
7.36395e-05
7.0622e-05
6.77954e-05
6.51439e-05
6.26535e-05
6.03113e-05
5.81059e-05
5.60268e-05
5.40644e-05
5.22102e-05
5.04562e-05
4.87953e-05
4.72209e-05
4.57269e-05
4.43079e-05
4.29589e-05
4.16752e-05
4.04525e-05
3.9287e-05
3.8175e-05
3.71132e-05
3.60986e-05
3.51283e-05
3.41997e-05
3.33103e-05
3.2458e-05
3.16407e-05
3.08565e-05
3.01035e-05
2.93801e-05
2.86849e-05
2.80164e-05
2.73733e-05
2.67544e-05
2.61586e-05
2.55849e-05
2.50324e-05
2.45002e-05
2.39875e-05
2.34936e-05
2.30179e-05
2.25598e-05
2.21187e-05
2.16942e-05
2.1286e-05
2.08935e-05
2.05166e-05
2.01549e-05
1.98084e-05
1.94767e-05
1.91597e-05
1.88575e-05
1.857e-05
1.82971e-05
1.80391e-05
1.77962e-05
1.75686e-05
1.73569e-05
1.71619e-05
1.69845e-05
1.68264e-05
1.66895e-05
1.65771e-05
1.64932e-05
1.64443e-05
0.000939687
0.000835718
0.000745891
0.000668034
0.000600341
0.0005413
0.000489647
0.000444317
0.000404418
0.000369193
0.000338005
0.000310312
0.000285652
0.000263633
0.000243919
0.000226222
0.000210295
0.000195925
0.000182928
0.000171145
0.000160438
0.000150687
0.000141787
0.000133646
0.000126184
0.000119331
0.000113025
0.000107212
0.000101843
9.68749e-05
9.22705e-05
8.79959e-05
8.40211e-05
8.03192e-05
7.68662e-05
7.36406e-05
7.06232e-05
6.77966e-05
6.51451e-05
6.26547e-05
6.03126e-05
5.81072e-05
5.60282e-05
5.40658e-05
5.22116e-05
5.04577e-05
4.87968e-05
4.72224e-05
4.57285e-05
4.43095e-05
4.29605e-05
4.16768e-05
4.04542e-05
3.92887e-05
3.81768e-05
3.7115e-05
3.61005e-05
3.51302e-05
3.42016e-05
3.33123e-05
3.24601e-05
3.16428e-05
3.08586e-05
3.01056e-05
2.93823e-05
2.86871e-05
2.80186e-05
2.73756e-05
2.67567e-05
2.6161e-05
2.55873e-05
2.50348e-05
2.45026e-05
2.399e-05
2.34961e-05
2.30204e-05
2.25623e-05
2.21212e-05
2.16967e-05
2.12884e-05
2.0896e-05
2.0519e-05
2.01574e-05
1.98107e-05
1.9479e-05
1.9162e-05
1.88597e-05
1.85721e-05
1.82992e-05
1.80411e-05
1.77981e-05
1.75705e-05
1.73587e-05
1.71635e-05
1.69861e-05
1.68278e-05
1.66909e-05
1.65784e-05
1.64945e-05
1.64455e-05
0.000939687
0.000835718
0.000745891
0.000668034
0.000600341
0.000541301
0.000489647
0.000444317
0.000404418
0.000369194
0.000338006
0.000310312
0.000285652
0.000263633
0.000243919
0.000226223
0.000210296
0.000195926
0.000182929
0.000171146
0.000160439
0.000150688
0.000141787
0.000133647
0.000126185
0.000119332
0.000113026
0.000107213
0.000101844
9.68759e-05
9.22716e-05
8.79971e-05
8.40222e-05
8.03204e-05
7.68674e-05
7.36419e-05
7.06245e-05
6.77979e-05
6.51465e-05
6.26561e-05
6.0314e-05
5.81087e-05
5.60296e-05
5.40674e-05
5.22132e-05
5.04593e-05
4.87984e-05
4.72241e-05
4.57302e-05
4.43113e-05
4.29623e-05
4.16787e-05
4.04561e-05
3.92907e-05
3.81787e-05
3.71171e-05
3.61025e-05
3.51323e-05
3.42038e-05
3.33145e-05
3.24623e-05
3.16451e-05
3.08609e-05
3.0108e-05
2.93847e-05
2.86895e-05
2.80211e-05
2.73781e-05
2.67593e-05
2.61636e-05
2.55899e-05
2.50375e-05
2.45053e-05
2.39927e-05
2.34988e-05
2.30231e-05
2.2565e-05
2.21239e-05
2.16995e-05
2.12912e-05
2.08987e-05
2.05217e-05
2.016e-05
1.98134e-05
1.94816e-05
1.91645e-05
1.88622e-05
1.85745e-05
1.83015e-05
1.80433e-05
1.78002e-05
1.75725e-05
1.73606e-05
1.71653e-05
1.69878e-05
1.68294e-05
1.66924e-05
1.65798e-05
1.64958e-05
1.64468e-05
0.000939687
0.000835718
0.000745891
0.000668034
0.000600341
0.000541301
0.000489647
0.000444318
0.000404418
0.000369194
0.000338006
0.000310313
0.000285653
0.000263634
0.00024392
0.000226223
0.000210296
0.000195927
0.00018293
0.000171147
0.00016044
0.000150689
0.000141788
0.000133647
0.000126186
0.000119333
0.000113027
0.000107214
0.000101845
9.68771e-05
9.22728e-05
8.79983e-05
8.40235e-05
8.03216e-05
7.68687e-05
7.36432e-05
7.06259e-05
6.77993e-05
6.51479e-05
6.26576e-05
6.03156e-05
5.81103e-05
5.60313e-05
5.4069e-05
5.22149e-05
5.0461e-05
4.88002e-05
4.72259e-05
4.5732e-05
4.43132e-05
4.29643e-05
4.16807e-05
4.04581e-05
3.92927e-05
3.81809e-05
3.71192e-05
3.61047e-05
3.51345e-05
3.42061e-05
3.33169e-05
3.24647e-05
3.16475e-05
3.08634e-05
3.01105e-05
2.93873e-05
2.86922e-05
2.80238e-05
2.73808e-05
2.6762e-05
2.61663e-05
2.55928e-05
2.50403e-05
2.45082e-05
2.39956e-05
2.35017e-05
2.3026e-05
2.25679e-05
2.21269e-05
2.17024e-05
2.12941e-05
2.09016e-05
2.05246e-05
2.01629e-05
1.98162e-05
1.94843e-05
1.91672e-05
1.88648e-05
1.8577e-05
1.8304e-05
1.80457e-05
1.78025e-05
1.75746e-05
1.73626e-05
1.71672e-05
1.69896e-05
1.68311e-05
1.6694e-05
1.65813e-05
1.64972e-05
1.64482e-05
0.000939687
0.000835718
0.000745891
0.000668035
0.000600342
0.000541301
0.000489647
0.000444318
0.000404419
0.000369194
0.000338006
0.000310313
0.000285653
0.000263634
0.000243921
0.000226224
0.000210297
0.000195927
0.000182931
0.000171148
0.000160441
0.00015069
0.000141789
0.000133648
0.000126187
0.000119334
0.000113028
0.000107215
0.000101846
9.68783e-05
9.2274e-05
8.79995e-05
8.40248e-05
8.0323e-05
7.68701e-05
7.36446e-05
7.06273e-05
6.78008e-05
6.51495e-05
6.26592e-05
6.03172e-05
5.81119e-05
5.6033e-05
5.40708e-05
5.22167e-05
5.04629e-05
4.88021e-05
4.72278e-05
4.5734e-05
4.43152e-05
4.29663e-05
4.16828e-05
4.04603e-05
3.92949e-05
3.81831e-05
3.71215e-05
3.61071e-05
3.5137e-05
3.42085e-05
3.33194e-05
3.24673e-05
3.16501e-05
3.0866e-05
3.01132e-05
2.939e-05
2.8695e-05
2.80266e-05
2.73837e-05
2.67649e-05
2.61693e-05
2.55958e-05
2.50434e-05
2.45113e-05
2.39986e-05
2.35048e-05
2.30292e-05
2.25711e-05
2.213e-05
2.17055e-05
2.12972e-05
2.09047e-05
2.05277e-05
2.01659e-05
1.98191e-05
1.94872e-05
1.91701e-05
1.88676e-05
1.85797e-05
1.83066e-05
1.80482e-05
1.78049e-05
1.75769e-05
1.73648e-05
1.71693e-05
1.69915e-05
1.68329e-05
1.66957e-05
1.65829e-05
1.64987e-05
1.64497e-05
0.000939687
0.000835718
0.000745891
0.000668035
0.000600342
0.000541301
0.000489647
0.000444318
0.000404419
0.000369195
0.000338007
0.000310314
0.000285654
0.000263635
0.000243921
0.000226225
0.000210298
0.000195928
0.000182931
0.000171149
0.000160442
0.000150691
0.00014179
0.000133649
0.000126188
0.000119335
0.00011303
0.000107216
0.000101847
9.68795e-05
9.22753e-05
8.80009e-05
8.40262e-05
8.03244e-05
7.68716e-05
7.36461e-05
7.06289e-05
6.78024e-05
6.51511e-05
6.26609e-05
6.03189e-05
5.81137e-05
5.60348e-05
5.40726e-05
5.22186e-05
5.04648e-05
4.88041e-05
4.72299e-05
4.57361e-05
4.43173e-05
4.29685e-05
4.1685e-05
4.04626e-05
3.92973e-05
3.81855e-05
3.7124e-05
3.61096e-05
3.51395e-05
3.42111e-05
3.3322e-05
3.247e-05
3.16529e-05
3.08688e-05
3.01161e-05
2.9393e-05
2.86979e-05
2.80296e-05
2.73867e-05
2.6768e-05
2.61725e-05
2.55989e-05
2.50466e-05
2.45145e-05
2.40019e-05
2.35081e-05
2.30325e-05
2.25744e-05
2.21333e-05
2.17088e-05
2.13005e-05
2.0908e-05
2.05309e-05
2.01691e-05
1.98223e-05
1.94903e-05
1.91731e-05
1.88705e-05
1.85826e-05
1.83093e-05
1.80508e-05
1.78074e-05
1.75792e-05
1.7367e-05
1.71714e-05
1.69934e-05
1.68347e-05
1.66974e-05
1.65845e-05
1.65003e-05
1.64512e-05
0.000939687
0.000835718
0.000745891
0.000668035
0.000600342
0.000541301
0.000489648
0.000444319
0.000404419
0.000369195
0.000338007
0.000310314
0.000285654
0.000263636
0.000243922
0.000226225
0.000210299
0.000195929
0.000182932
0.00017115
0.000160443
0.000150691
0.000141791
0.00013365
0.000126189
0.000119336
0.000113031
0.000107218
0.000101848
9.68808e-05
9.22767e-05
8.80023e-05
8.40276e-05
8.03259e-05
7.68731e-05
7.36477e-05
7.06305e-05
6.78041e-05
6.51528e-05
6.26626e-05
6.03207e-05
5.81155e-05
5.60367e-05
5.40746e-05
5.22206e-05
5.04669e-05
4.88062e-05
4.7232e-05
4.57383e-05
4.43196e-05
4.29708e-05
4.16874e-05
4.0465e-05
3.92997e-05
3.8188e-05
3.71265e-05
3.61122e-05
3.51422e-05
3.42139e-05
3.33248e-05
3.24728e-05
3.16558e-05
3.08718e-05
3.01191e-05
2.9396e-05
2.8701e-05
2.80328e-05
2.73899e-05
2.67713e-05
2.61757e-05
2.56023e-05
2.50499e-05
2.45179e-05
2.40053e-05
2.35116e-05
2.30359e-05
2.25779e-05
2.21368e-05
2.17123e-05
2.13039e-05
2.09114e-05
2.05343e-05
2.01724e-05
1.98256e-05
1.94936e-05
1.91762e-05
1.88736e-05
1.85855e-05
1.83121e-05
1.80536e-05
1.781e-05
1.75817e-05
1.73693e-05
1.71736e-05
1.69955e-05
1.68366e-05
1.66992e-05
1.65862e-05
1.65019e-05
1.64527e-05
0.000939687
0.000835718
0.000745891
0.000668035
0.000600342
0.000541301
0.000489648
0.000444319
0.00040442
0.000369196
0.000338008
0.000310314
0.000285655
0.000263636
0.000243922
0.000226226
0.000210299
0.00019593
0.000182933
0.00017115
0.000160444
0.000150692
0.000141792
0.000133652
0.00012619
0.000119338
0.000113032
0.000107219
0.00010185
9.68822e-05
9.22781e-05
8.80037e-05
8.40291e-05
8.03274e-05
7.68747e-05
7.36493e-05
7.06322e-05
6.78058e-05
6.51546e-05
6.26644e-05
6.03226e-05
5.81175e-05
5.60386e-05
5.40766e-05
5.22227e-05
5.0469e-05
4.88083e-05
4.72342e-05
4.57406e-05
4.43219e-05
4.29732e-05
4.16898e-05
4.04675e-05
3.93023e-05
3.81906e-05
3.71292e-05
3.61149e-05
3.5145e-05
3.42167e-05
3.33277e-05
3.24758e-05
3.16588e-05
3.08749e-05
3.01222e-05
2.93992e-05
2.87043e-05
2.80361e-05
2.73933e-05
2.67747e-05
2.61792e-05
2.56057e-05
2.50534e-05
2.45214e-05
2.40089e-05
2.35152e-05
2.30395e-05
2.25815e-05
2.21404e-05
2.17159e-05
2.13075e-05
2.09149e-05
2.05378e-05
2.01759e-05
1.9829e-05
1.94969e-05
1.91795e-05
1.88767e-05
1.85886e-05
1.83151e-05
1.80564e-05
1.78126e-05
1.75843e-05
1.73717e-05
1.71758e-05
1.69976e-05
1.68386e-05
1.6701e-05
1.65879e-05
1.65035e-05
1.64543e-05
0.000939687
0.000835719
0.000745891
0.000668035
0.000600342
0.000541302
0.000489648
0.000444319
0.00040442
0.000369196
0.000338008
0.000310315
0.000285655
0.000263637
0.000243923
0.000226227
0.0002103
0.00019593
0.000182934
0.000171151
0.000160445
0.000150693
0.000141793
0.000133653
0.000126191
0.000119339
0.000113033
0.00010722
0.000101851
9.68836e-05
9.22795e-05
8.80052e-05
8.40306e-05
8.0329e-05
7.68763e-05
7.3651e-05
7.06339e-05
6.78076e-05
6.51564e-05
6.26663e-05
6.03245e-05
5.81194e-05
5.60407e-05
5.40787e-05
5.22248e-05
5.04712e-05
4.88106e-05
4.72365e-05
4.57429e-05
4.43243e-05
4.29757e-05
4.16923e-05
4.04701e-05
3.93049e-05
3.81933e-05
3.7132e-05
3.61177e-05
3.51478e-05
3.42196e-05
3.33307e-05
3.24788e-05
3.16619e-05
3.0878e-05
3.01254e-05
2.94025e-05
2.87076e-05
2.80395e-05
2.73967e-05
2.67782e-05
2.61827e-05
2.56093e-05
2.50571e-05
2.45251e-05
2.40126e-05
2.35188e-05
2.30432e-05
2.25852e-05
2.21441e-05
2.17196e-05
2.13112e-05
2.09186e-05
2.05414e-05
2.01795e-05
1.98325e-05
1.95003e-05
1.91829e-05
1.888e-05
1.85917e-05
1.83181e-05
1.80593e-05
1.78154e-05
1.75869e-05
1.73742e-05
1.71781e-05
1.69997e-05
1.68406e-05
1.67029e-05
1.65896e-05
1.65052e-05
1.64559e-05
0.000939687
0.000835719
0.000745891
0.000668035
0.000600342
0.000541302
0.000489648
0.000444319
0.00040442
0.000369196
0.000338009
0.000310315
0.000285656
0.000263637
0.000243924
0.000226227
0.000210301
0.000195931
0.000182935
0.000171152
0.000160446
0.000150694
0.000141794
0.000133654
0.000126192
0.00011934
0.000113035
0.000107221
0.000101853
9.6885e-05
9.2281e-05
8.80067e-05
8.40322e-05
8.03306e-05
7.68779e-05
7.36527e-05
7.06357e-05
6.78094e-05
6.51583e-05
6.26682e-05
6.03265e-05
5.81215e-05
5.60427e-05
5.40808e-05
5.2227e-05
5.04734e-05
4.88129e-05
4.72389e-05
4.57453e-05
4.43268e-05
4.29782e-05
4.16949e-05
4.04727e-05
3.93076e-05
3.81961e-05
3.71348e-05
3.61206e-05
3.51508e-05
3.42226e-05
3.33338e-05
3.2482e-05
3.16651e-05
3.08813e-05
3.01288e-05
2.94058e-05
2.8711e-05
2.80429e-05
2.74003e-05
2.67817e-05
2.61863e-05
2.5613e-05
2.50608e-05
2.45288e-05
2.40163e-05
2.35226e-05
2.30471e-05
2.2589e-05
2.21479e-05
2.17234e-05
2.1315e-05
2.09224e-05
2.05452e-05
2.01832e-05
1.98361e-05
1.95039e-05
1.91863e-05
1.88833e-05
1.8595e-05
1.83212e-05
1.80622e-05
1.78182e-05
1.75895e-05
1.73767e-05
1.71805e-05
1.70019e-05
1.68426e-05
1.67048e-05
1.65914e-05
1.65069e-05
1.64575e-05
0.000939687
0.000835719
0.000745891
0.000668035
0.000600342
0.000541302
0.000489649
0.00044432
0.000404421
0.000369197
0.000338009
0.000310316
0.000285657
0.000263638
0.000243924
0.000226228
0.000210302
0.000195932
0.000182936
0.000171153
0.000160446
0.000150696
0.000141795
0.000133655
0.000126194
0.000119341
0.000113036
0.000107223
0.000101854
9.68864e-05
9.22824e-05
8.80082e-05
8.40338e-05
8.03322e-05
7.68796e-05
7.36545e-05
7.06375e-05
6.78112e-05
6.51602e-05
6.26702e-05
6.03285e-05
5.81235e-05
5.60448e-05
5.4083e-05
5.22292e-05
5.04757e-05
4.88152e-05
4.72413e-05
4.57478e-05
4.43293e-05
4.29808e-05
4.16976e-05
4.04754e-05
3.93104e-05
3.81989e-05
3.71377e-05
3.61236e-05
3.51538e-05
3.42257e-05
3.33369e-05
3.24852e-05
3.16684e-05
3.08846e-05
3.01321e-05
2.94093e-05
2.87145e-05
2.80465e-05
2.74039e-05
2.67854e-05
2.619e-05
2.56167e-05
2.50646e-05
2.45326e-05
2.40202e-05
2.35265e-05
2.30509e-05
2.25929e-05
2.21518e-05
2.17273e-05
2.13189e-05
2.09262e-05
2.0549e-05
2.01869e-05
1.98398e-05
1.95075e-05
1.91898e-05
1.88867e-05
1.85982e-05
1.83244e-05
1.80652e-05
1.78211e-05
1.75922e-05
1.73792e-05
1.71828e-05
1.70041e-05
1.68447e-05
1.67067e-05
1.65932e-05
1.65085e-05
1.64592e-05
0.000939687
0.000835719
0.000745891
0.000668035
0.000600342
0.000541302
0.000489649
0.00044432
0.000404421
0.000369197
0.000338009
0.000310316
0.000285657
0.000263639
0.000243925
0.000226229
0.000210302
0.000195933
0.000182937
0.000171154
0.000160447
0.000150697
0.000141797
0.000133656
0.000126195
0.000119342
0.000113037
0.000107224
0.000101855
9.68879e-05
9.22839e-05
8.80098e-05
8.40354e-05
8.03339e-05
7.68813e-05
7.36562e-05
7.06393e-05
6.78131e-05
6.51621e-05
6.26721e-05
6.03305e-05
5.81256e-05
5.6047e-05
5.40852e-05
5.22315e-05
5.0478e-05
4.88176e-05
4.72437e-05
4.57503e-05
4.43319e-05
4.29834e-05
4.17002e-05
4.04781e-05
3.93132e-05
3.82018e-05
3.71406e-05
3.61266e-05
3.51569e-05
3.42288e-05
3.33401e-05
3.24884e-05
3.16717e-05
3.0888e-05
3.01356e-05
2.94128e-05
2.87181e-05
2.80501e-05
2.74075e-05
2.67891e-05
2.61938e-05
2.56205e-05
2.50684e-05
2.45365e-05
2.40241e-05
2.35304e-05
2.30549e-05
2.25968e-05
2.21558e-05
2.17312e-05
2.13228e-05
2.09301e-05
2.05528e-05
2.01907e-05
1.98435e-05
1.95111e-05
1.91933e-05
1.88902e-05
1.86016e-05
1.83276e-05
1.80683e-05
1.7824e-05
1.7595e-05
1.73818e-05
1.71852e-05
1.70064e-05
1.68467e-05
1.67086e-05
1.6595e-05
1.65102e-05
1.64608e-05
0.000939687
0.000835719
0.000745891
0.000668035
0.000600343
0.000541302
0.000489649
0.00044432
0.000404421
0.000369197
0.00033801
0.000310317
0.000285658
0.000263639
0.000243926
0.000226229
0.000210303
0.000195934
0.000182937
0.000171155
0.000160448
0.000150698
0.000141798
0.000133657
0.000126196
0.000119344
0.000113038
0.000107225
0.000101857
9.68893e-05
9.22855e-05
8.80114e-05
8.4037e-05
8.03356e-05
7.68831e-05
7.3658e-05
7.06411e-05
6.7815e-05
6.5164e-05
6.26741e-05
6.03325e-05
5.81277e-05
5.60492e-05
5.40874e-05
5.22337e-05
5.04803e-05
4.882e-05
4.72462e-05
4.57528e-05
4.43345e-05
4.2986e-05
4.17029e-05
4.04809e-05
3.9316e-05
3.82047e-05
3.71436e-05
3.61296e-05
3.516e-05
3.4232e-05
3.33433e-05
3.24917e-05
3.1675e-05
3.08914e-05
3.01391e-05
2.94163e-05
2.87217e-05
2.80538e-05
2.74112e-05
2.67929e-05
2.61976e-05
2.56244e-05
2.50723e-05
2.45404e-05
2.40281e-05
2.35344e-05
2.30589e-05
2.26008e-05
2.21598e-05
2.17352e-05
2.13267e-05
2.0934e-05
2.05567e-05
2.01945e-05
1.98472e-05
1.95148e-05
1.91969e-05
1.88936e-05
1.86049e-05
1.83308e-05
1.80714e-05
1.78269e-05
1.75977e-05
1.73844e-05
1.71876e-05
1.70086e-05
1.68488e-05
1.67105e-05
1.65968e-05
1.65119e-05
1.64624e-05
0.000939687
0.000835719
0.000745891
0.000668035
0.000600343
0.000541302
0.000489649
0.00044432
0.000404421
0.000369198
0.00033801
0.000310317
0.000285658
0.00026364
0.000243926
0.00022623
0.000210304
0.000195934
0.000182938
0.000171156
0.000160449
0.000150699
0.000141799
0.000133658
0.000126197
0.000119345
0.00011304
0.000107227
0.000101858
9.68908e-05
9.2287e-05
8.80129e-05
8.40386e-05
8.03372e-05
7.68848e-05
7.36598e-05
7.06429e-05
6.78169e-05
6.5166e-05
6.26761e-05
6.03346e-05
5.81298e-05
5.60513e-05
5.40896e-05
5.2236e-05
5.04827e-05
4.88224e-05
4.72486e-05
4.57553e-05
4.43371e-05
4.29887e-05
4.17057e-05
4.04837e-05
3.93189e-05
3.82076e-05
3.71466e-05
3.61327e-05
3.51631e-05
3.42352e-05
3.33466e-05
3.2495e-05
3.16784e-05
3.08948e-05
3.01426e-05
2.94199e-05
2.87253e-05
2.80575e-05
2.7415e-05
2.67967e-05
2.62014e-05
2.56283e-05
2.50762e-05
2.45444e-05
2.4032e-05
2.35384e-05
2.30629e-05
2.26049e-05
2.21638e-05
2.17392e-05
2.13307e-05
2.0938e-05
2.05606e-05
2.01983e-05
1.9851e-05
1.95185e-05
1.92005e-05
1.88971e-05
1.86083e-05
1.8334e-05
1.80744e-05
1.78298e-05
1.76005e-05
1.7387e-05
1.719e-05
1.70108e-05
1.68509e-05
1.67124e-05
1.65985e-05
1.65136e-05
1.64641e-05
0.000939687
0.000835719
0.000745891
0.000668035
0.000600343
0.000541303
0.000489649
0.000444321
0.000404422
0.000369198
0.000338011
0.000310318
0.000285659
0.00026364
0.000243927
0.000226231
0.000210304
0.000195935
0.000182939
0.000171157
0.00016045
0.0001507
0.0001418
0.000133659
0.000126198
0.000119346
0.000113041
0.000107228
0.000101859
9.68922e-05
9.22885e-05
8.80145e-05
8.40402e-05
8.03389e-05
7.68865e-05
7.36616e-05
7.06448e-05
6.78188e-05
6.51679e-05
6.26782e-05
6.03367e-05
5.8132e-05
5.60535e-05
5.40919e-05
5.22383e-05
5.04851e-05
4.88248e-05
4.72511e-05
4.57579e-05
4.43397e-05
4.29914e-05
4.17084e-05
4.04865e-05
3.93218e-05
3.82106e-05
3.71496e-05
3.61357e-05
3.51662e-05
3.42384e-05
3.33498e-05
3.24983e-05
3.16818e-05
3.08983e-05
3.01461e-05
2.94235e-05
2.8729e-05
2.80611e-05
2.74187e-05
2.68005e-05
2.62053e-05
2.56322e-05
2.50801e-05
2.45484e-05
2.4036e-05
2.35424e-05
2.30669e-05
2.26089e-05
2.21678e-05
2.17432e-05
2.13347e-05
2.09419e-05
2.05645e-05
2.02022e-05
1.98548e-05
1.95221e-05
1.92041e-05
1.89006e-05
1.86116e-05
1.83372e-05
1.80775e-05
1.78327e-05
1.76032e-05
1.73895e-05
1.71924e-05
1.7013e-05
1.68529e-05
1.67143e-05
1.66003e-05
1.65153e-05
1.64657e-05
0.000939687
0.000835719
0.000745891
0.000668035
0.000600343
0.000541303
0.00048965
0.000444321
0.000404422
0.000369198
0.000338011
0.000310318
0.000285659
0.000263641
0.000243927
0.000226231
0.000210305
0.000195936
0.00018294
0.000171158
0.000160451
0.000150701
0.000141801
0.000133661
0.000126199
0.000119347
0.000113042
0.000107229
0.000101861
9.68937e-05
9.229e-05
8.8016e-05
8.40418e-05
8.03406e-05
7.68882e-05
7.36633e-05
7.06466e-05
6.78207e-05
6.51699e-05
6.26802e-05
6.03387e-05
5.81341e-05
5.60557e-05
5.40941e-05
5.22406e-05
5.04874e-05
4.88273e-05
4.72536e-05
4.57604e-05
4.43423e-05
4.2994e-05
4.17111e-05
4.04893e-05
3.93246e-05
3.82135e-05
3.71526e-05
3.61388e-05
3.51693e-05
3.42416e-05
3.33531e-05
3.25017e-05
3.16852e-05
3.09017e-05
3.01496e-05
2.9427e-05
2.87326e-05
2.80648e-05
2.74225e-05
2.68043e-05
2.62091e-05
2.5636e-05
2.50841e-05
2.45523e-05
2.404e-05
2.35464e-05
2.30709e-05
2.26129e-05
2.21718e-05
2.17472e-05
2.13387e-05
2.09459e-05
2.05684e-05
2.0206e-05
1.98586e-05
1.95258e-05
1.92077e-05
1.89041e-05
1.8615e-05
1.83404e-05
1.80806e-05
1.78356e-05
1.76059e-05
1.73921e-05
1.71948e-05
1.70152e-05
1.6855e-05
1.67162e-05
1.6602e-05
1.65169e-05
1.64673e-05
0.000939687
0.000835719
0.000745891
0.000668036
0.000600343
0.000541303
0.00048965
0.000444321
0.000404422
0.000369199
0.000338011
0.000310319
0.000285659
0.000263641
0.000243928
0.000226232
0.000210306
0.000195937
0.000182941
0.000171159
0.000160452
0.000150702
0.000141802
0.000133662
0.000126201
0.000119349
0.000113043
0.000107231
0.000101862
9.68951e-05
9.22914e-05
8.80176e-05
8.40434e-05
8.03422e-05
7.68899e-05
7.36651e-05
7.06484e-05
6.78225e-05
6.51718e-05
6.26821e-05
6.03408e-05
5.81362e-05
5.60578e-05
5.40963e-05
5.22429e-05
5.04897e-05
4.88297e-05
4.72561e-05
4.5763e-05
4.43448e-05
4.29967e-05
4.17139e-05
4.04921e-05
3.93275e-05
3.82164e-05
3.71555e-05
3.61418e-05
3.51724e-05
3.42447e-05
3.33563e-05
3.2505e-05
3.16885e-05
3.09052e-05
3.01531e-05
2.94306e-05
2.87362e-05
2.80685e-05
2.74262e-05
2.6808e-05
2.6213e-05
2.56399e-05
2.5088e-05
2.45563e-05
2.4044e-05
2.35504e-05
2.30749e-05
2.26169e-05
2.21758e-05
2.17512e-05
2.13427e-05
2.09498e-05
2.05723e-05
2.02099e-05
1.98623e-05
1.95295e-05
1.92113e-05
1.89075e-05
1.86183e-05
1.83436e-05
1.80836e-05
1.78385e-05
1.76086e-05
1.73946e-05
1.71972e-05
1.70174e-05
1.6857e-05
1.6718e-05
1.66038e-05
1.65185e-05
1.64688e-05
0.000939687
0.000835719
0.000745891
0.000668036
0.000600343
0.000541303
0.00048965
0.000444321
0.000404423
0.000369199
0.000338012
0.000310319
0.00028566
0.000263642
0.000243929
0.000226233
0.000210307
0.000195937
0.000182941
0.000171159
0.000160453
0.000150702
0.000141803
0.000133663
0.000126202
0.00011935
0.000113045
0.000107232
0.000101864
9.68965e-05
9.22929e-05
8.80191e-05
8.4045e-05
8.03438e-05
7.68916e-05
7.36668e-05
7.06502e-05
6.78244e-05
6.51737e-05
6.26841e-05
6.03428e-05
5.81382e-05
5.606e-05
5.40985e-05
5.22452e-05
5.04921e-05
4.8832e-05
4.72585e-05
4.57655e-05
4.43474e-05
4.29993e-05
4.17165e-05
4.04948e-05
3.93303e-05
3.82193e-05
3.71585e-05
3.61448e-05
3.51755e-05
3.42479e-05
3.33595e-05
3.25082e-05
3.16919e-05
3.09086e-05
3.01565e-05
2.94341e-05
2.87398e-05
2.80721e-05