/*--------------------------------*- C++ -*----------------------------------*\
  =========                 |
  \\      /  F ield         | OpenFOAM: The Open Source CFD Toolbox
   \\    /   O peration     | Website:  https://openfoam.org
    \\  /    A nd           | Version:  11
     \\/     M anipulation  |
\*---------------------------------------------------------------------------*/
FoamFile
{
    format      ascii;
    class       surfaceScalarField;
    location    "1080";
    object      phi;
}
// * * * * * * * * * * * * * * * * * * * * * * * * * * * * * * * * * * * * * //

dimensions      [0 3 -1 0 0 0 0];

internalField   nonuniform List<scalar> 
19800
(
2e-05
-1.06124e-12
2e-05
-2.96043e-12
2e-05
-4.73087e-12
2e-05
-6.459e-12
2e-05
-8.18342e-12
2e-05
-9.92373e-12
2e-05
-1.16946e-11
2e-05
-1.35076e-11
2e-05
-1.53724e-11
2e-05
-1.72976e-11
2e-05
-1.92908e-11
2e-05
-2.13592e-11
2e-05
-2.35095e-11
2e-05
-2.57485e-11
2e-05
-2.80827e-11
2e-05
-3.05189e-11
2e-05
-3.30638e-11
2e-05
-3.57242e-11
2e-05
-3.85074e-11
2e-05
-4.14209e-11
2e-05
-4.44725e-11
2e-05
-4.76703e-11
2e-05
-5.10231e-11
2e-05
-5.45401e-11
2e-05
-5.8231e-11
2e-05
-6.21061e-11
2e-05
-6.61764e-11
1.99999e-05
-7.04536e-11
1.99999e-05
-7.49503e-11
1.99999e-05
-7.96797e-11
1.99999e-05
-8.46562e-11
1.99999e-05
-8.98948e-11
1.99999e-05
-9.54118e-11
1.99999e-05
-1.01225e-10
1.99999e-05
-1.07352e-10
1.99999e-05
-1.13813e-10
1.99999e-05
-1.20629e-10
1.99999e-05
-1.27823e-10
1.99999e-05
-1.35418e-10
1.99999e-05
-1.43441e-10
1.99998e-05
-1.51919e-10
1.99998e-05
-1.60881e-10
1.99998e-05
-1.70359e-10
1.99998e-05
-1.80384e-10
1.99998e-05
-1.90993e-10
1.99998e-05
-2.02224e-10
1.99998e-05
-2.14115e-10
1.99997e-05
-2.2671e-10
1.99997e-05
-2.40054e-10
1.99997e-05
-2.54194e-10
1.99997e-05
-2.69181e-10
1.99997e-05
-2.85068e-10
1.99996e-05
-3.01913e-10
1.99996e-05
-3.19776e-10
1.99996e-05
-3.38719e-10
1.99996e-05
-3.5881e-10
1.99995e-05
-3.80119e-10
1.99995e-05
-4.0272e-10
1.99995e-05
-4.26692e-10
1.99995e-05
-4.52115e-10
1.99994e-05
-4.79077e-10
1.99994e-05
-5.07666e-10
1.99993e-05
-5.37976e-10
1.99993e-05
-5.70104e-10
1.99993e-05
-6.04153e-10
1.99992e-05
-6.40228e-10
1.99992e-05
-6.78437e-10
1.99991e-05
-7.18892e-10
1.99991e-05
-7.61709e-10
1.9999e-05
-8.07004e-10
1.9999e-05
-8.54898e-10
1.99989e-05
-9.05509e-10
1.99989e-05
-9.58959e-10
1.99988e-05
-1.01537e-09
1.99988e-05
-1.07485e-09
1.99987e-05
-1.13751e-09
1.99986e-05
-1.20346e-09
1.99986e-05
-1.2728e-09
1.99985e-05
-1.34559e-09
1.99984e-05
-1.4219e-09
1.99983e-05
-1.50177e-09
1.99983e-05
-1.58519e-09
1.99982e-05
-1.67214e-09
1.99981e-05
-1.76253e-09
1.9998e-05
-1.85621e-09
1.9998e-05
-1.95296e-09
1.99979e-05
-2.05246e-09
1.99978e-05
-2.15428e-09
1.99977e-05
-2.25784e-09
1.99976e-05
-2.36242e-09
1.99976e-05
-2.46708e-09
1.99975e-05
-2.57065e-09
1.99974e-05
-2.6717e-09
1.99974e-05
-2.76849e-09
1.99973e-05
-2.85896e-09
1.99972e-05
-2.94071e-09
1.99972e-05
-3.01106e-09
1.99971e-05
-3.06711e-09
1.99971e-05
-3.10645e-09
-3.12968e-09
2e-05
-9.18855e-13
2e-05
-2.66015e-12
2e-05
-4.32914e-12
2e-05
-5.97133e-12
2e-05
-7.61184e-12
2e-05
-9.26647e-12
2e-05
-1.09479e-11
2e-05
-1.26667e-11
2e-05
-1.44316e-11
2e-05
-1.62506e-11
2e-05
-1.81308e-11
2e-05
-2.00788e-11
2e-05
-2.21008e-11
2e-05
-2.42031e-11
2e-05
-2.63916e-11
2e-05
-2.86724e-11
2e-05
-3.10517e-11
2e-05
-3.35359e-11
2e-05
-3.61314e-11
2e-05
-3.88451e-11
2e-05
-4.16841e-11
2e-05
-4.46559e-11
2e-05
-4.77685e-11
2e-05
-5.10303e-11
2e-05
-5.44501e-11
2e-05
-5.80376e-11
2e-05
-6.18027e-11
1.99999e-05
-6.57565e-11
1.99999e-05
-6.99103e-11
1.99999e-05
-7.42766e-11
1.99999e-05
-7.88685e-11
1.99999e-05
-8.37003e-11
1.99999e-05
-8.87871e-11
1.99999e-05
-9.41451e-11
1.99999e-05
-9.97916e-11
1.99999e-05
-1.05745e-10
1.99999e-05
-1.12026e-10
1.99999e-05
-1.18655e-10
1.99999e-05
-1.25656e-10
1.99999e-05
-1.33052e-10
1.99998e-05
-1.40869e-10
1.99998e-05
-1.49136e-10
1.99998e-05
-1.57882e-10
1.99998e-05
-1.6714e-10
1.99998e-05
-1.76942e-10
1.99998e-05
-1.87325e-10
1.99998e-05
-1.98328e-10
1.99997e-05
-2.09992e-10
1.99997e-05
-2.22359e-10
1.99997e-05
-2.35478e-10
1.99997e-05
-2.49396e-10
1.99997e-05
-2.64167e-10
1.99996e-05
-2.79846e-10
1.99996e-05
-2.96491e-10
1.99996e-05
-3.14166e-10
1.99996e-05
-3.32935e-10
1.99995e-05
-3.52869e-10
1.99995e-05
-3.74041e-10
1.99995e-05
-3.96528e-10
1.99995e-05
-4.20412e-10
1.99994e-05
-4.45779e-10
1.99994e-05
-4.72719e-10
1.99994e-05
-5.01325e-10
1.99993e-05
-5.31696e-10
1.99993e-05
-5.63936e-10
1.99992e-05
-5.9815e-10
1.99992e-05
-6.3445e-10
1.99991e-05
-6.72951e-10
1.99991e-05
-7.13772e-10
1.9999e-05
-7.57034e-10
1.9999e-05
-8.02862e-10
1.99989e-05
-8.51382e-10
1.99989e-05
-9.02721e-10
1.99988e-05
-9.57008e-10
1.99988e-05
-1.01437e-09
1.99987e-05
-1.07492e-09
1.99986e-05
-1.13879e-09
1.99986e-05
-1.20608e-09
1.99985e-05
-1.27688e-09
1.99984e-05
-1.35129e-09
1.99984e-05
-1.42934e-09
1.99983e-05
-1.51109e-09
1.99982e-05
-1.59651e-09
1.99981e-05
-1.68556e-09
1.99981e-05
-1.77813e-09
1.9998e-05
-1.87403e-09
1.99979e-05
-1.97301e-09
1.99978e-05
-2.07467e-09
1.99977e-05
-2.1785e-09
1.99977e-05
-2.28385e-09
1.99976e-05
-2.38983e-09
1.99975e-05
-2.49538e-09
1.99974e-05
-2.59915e-09
1.99974e-05
-2.69948e-09
1.99973e-05
-2.79442e-09
1.99972e-05
-2.88165e-09
1.99972e-05
-2.95851e-09
1.99971e-05
-3.02199e-09
1.99971e-05
-3.06924e-09
-3.09939e-09
2e-05
-8.11626e-13
2e-05
-2.39425e-12
2e-05
-3.9473e-12
2e-05
-5.49407e-12
2e-05
-7.04607e-12
2e-05
-8.61302e-12
2e-05
-1.02045e-11
2e-05
-1.18291e-11
2e-05
-1.34948e-11
2e-05
-1.52085e-11
2e-05
-1.69766e-11
2e-05
-1.88053e-11
2e-05
-2.07002e-11
2e-05
-2.2667e-11
2e-05
-2.47111e-11
2e-05
-2.6838e-11
2e-05
-2.90533e-11
2e-05
-3.13628e-11
2e-05
-3.37722e-11
2e-05
-3.62879e-11
2e-05
-3.89163e-11
2e-05
-4.16642e-11
2e-05
-4.45387e-11
2e-05
-4.75475e-11
2e-05
-5.06988e-11
2e-05
-5.40012e-11
2e-05
-5.7464e-11
1.99999e-05
-6.10971e-11
1.99999e-05
-6.49112e-11
1.99999e-05
-6.89176e-11
1.99999e-05
-7.31286e-11
1.99999e-05
-7.75573e-11
1.99999e-05
-8.22177e-11
1.99999e-05
-8.71251e-11
1.99999e-05
-9.22956e-11
1.99999e-05
-9.77466e-11
1.99999e-05
-1.03497e-10
1.99999e-05
-1.09567e-10
1.99999e-05
-1.15977e-10
1.99999e-05
-1.22752e-10
1.99998e-05
-1.29915e-10
1.99998e-05
-1.37493e-10
1.99998e-05
-1.45515e-10
1.99998e-05
-1.54012e-10
1.99998e-05
-1.63014e-10
1.99998e-05
-1.72558e-10
1.99998e-05
-1.82681e-10
1.99997e-05
-1.93422e-10
1.99997e-05
-2.04822e-10
1.99997e-05
-2.16929e-10
1.99997e-05
-2.29788e-10
1.99997e-05
-2.43453e-10
1.99997e-05
-2.57976e-10
1.99996e-05
-2.73415e-10
1.99996e-05
-2.89832e-10
1.99996e-05
-3.07292e-10
1.99996e-05
-3.25863e-10
1.99995e-05
-3.45619e-10
1.99995e-05
-3.66635e-10
1.99995e-05
-3.88994e-10
1.99994e-05
-4.1278e-10
1.99994e-05
-4.38085e-10
1.99994e-05
-4.65002e-10
1.99993e-05
-4.9363e-10
1.99993e-05
-5.24075e-10
1.99992e-05
-5.56444e-10
1.99992e-05
-5.90852e-10
1.99991e-05
-6.27414e-10
1.99991e-05
-6.66255e-10
1.99991e-05
-7.07498e-10
1.9999e-05
-7.51276e-10
1.99989e-05
-7.97718e-10
1.99989e-05
-8.46961e-10
1.99988e-05
-8.9914e-10
1.99988e-05
-9.5439e-10
1.99987e-05
-1.01285e-09
1.99986e-05
-1.07464e-09
1.99986e-05
-1.13989e-09
1.99985e-05
-1.20871e-09
1.99984e-05
-1.2812e-09
1.99984e-05
-1.35745e-09
1.99983e-05
-1.4375e-09
1.99982e-05
-1.52138e-09
1.99981e-05
-1.60907e-09
1.99981e-05
-1.7005e-09
1.9998e-05
-1.79552e-09
1.99979e-05
-1.89392e-09
1.99978e-05
-1.99535e-09
1.99978e-05
-2.09937e-09
1.99977e-05
-2.20537e-09
1.99976e-05
-2.31254e-09
1.99975e-05
-2.41988e-09
1.99974e-05
-2.52612e-09
1.99974e-05
-2.62966e-09
1.99973e-05
-2.7286e-09
1.99972e-05
-2.82064e-09
1.99972e-05
-2.90302e-09
1.99971e-05
-2.97245e-09
1.99971e-05
-3.02528e-09
-3.05811e-09
2e-05
-7.25032e-13
2e-05
-2.16017e-12
2e-05
-3.59238e-12
2e-05
-5.03625e-12
2e-05
-6.49418e-12
2e-05
-7.97e-12
2e-05
-9.46963e-12
2e-05
-1.09995e-11
2e-05
-1.25659e-11
2e-05
-1.41748e-11
2e-05
-1.58319e-11
2e-05
-1.75424e-11
2e-05
-1.93116e-11
2e-05
-2.11445e-11
2e-05
-2.30458e-11
2e-05
-2.50207e-11
2e-05
-2.7074e-11
2e-05
-2.92109e-11
2e-05
-3.14367e-11
2e-05
-3.37569e-11
2e-05
-3.61773e-11
2e-05
-3.8704e-11
2e-05
-4.13435e-11
2e-05
-4.41026e-11
2e-05
-4.69887e-11
2e-05
-5.00097e-11
2e-05
-5.31741e-11
1.99999e-05
-5.64907e-11
1.99999e-05
-5.99694e-11
1.99999e-05
-6.36206e-11
1.99999e-05
-6.74556e-11
1.99999e-05
-7.14864e-11
1.99999e-05
-7.57261e-11
1.99999e-05
-8.01888e-11
1.99999e-05
-8.48894e-11
1.99999e-05
-8.98444e-11
1.99999e-05
-9.50712e-11
1.99999e-05
-1.00589e-10
1.99999e-05
-1.06417e-10
1.99999e-05
-1.12579e-10
1.99998e-05
-1.19096e-10
1.99998e-05
-1.25995e-10
1.99998e-05
-1.33303e-10
1.99998e-05
-1.41048e-10
1.99998e-05
-1.49262e-10
1.99998e-05
-1.57978e-10
1.99998e-05
-1.67232e-10
1.99998e-05
-1.77062e-10
1.99997e-05
-1.87509e-10
1.99997e-05
-1.98616e-10
1.99997e-05
-2.10431e-10
1.99997e-05
-2.23003e-10
1.99997e-05
-2.36386e-10
1.99996e-05
-2.50635e-10
1.99996e-05
-2.65812e-10
1.99996e-05
-2.81979e-10
1.99996e-05
-2.99205e-10
1.99995e-05
-3.17562e-10
1.99995e-05
-3.37127e-10
1.99995e-05
-3.57979e-10
1.99994e-05
-3.80206e-10
1.99994e-05
-4.03896e-10
1.99994e-05
-4.29145e-10
1.99993e-05
-4.56052e-10
1.99993e-05
-4.84724e-10
1.99992e-05
-5.15271e-10
1.99992e-05
-5.47807e-10
1.99992e-05
-5.82454e-10
1.99991e-05
-6.19336e-10
1.99991e-05
-6.58584e-10
1.9999e-05
-7.00332e-10
1.9999e-05
-7.44719e-10
1.99989e-05
-7.91885e-10
1.99988e-05
-8.41976e-10
1.99988e-05
-8.95135e-10
1.99987e-05
-9.51507e-10
1.99987e-05
-1.01123e-09
1.99986e-05
-1.07446e-09
1.99985e-05
-1.1413e-09
1.99985e-05
-1.21189e-09
1.99984e-05
-1.28632e-09
1.99983e-05
-1.36467e-09
1.99982e-05
-1.44699e-09
1.99982e-05
-1.53329e-09
1.99981e-05
-1.62354e-09
1.9998e-05
-1.71763e-09
1.99979e-05
-1.81537e-09
1.99979e-05
-1.91649e-09
1.99978e-05
-2.02057e-09
1.99977e-05
-2.12706e-09
1.99976e-05
-2.23523e-09
1.99975e-05
-2.34411e-09
1.99975e-05
-2.45247e-09
1.99974e-05
-2.55879e-09
1.99973e-05
-2.66115e-09
1.99973e-05
-2.75721e-09
1.99972e-05
-2.84405e-09
1.99972e-05
-2.91803e-09
1.99971e-05
-2.9747e-09
-3.00776e-09
2e-05
-6.51503e-13
2e-05
-1.95192e-12
2e-05
-3.26466e-12
2e-05
-4.60219e-12
2e-05
-5.96197e-12
2e-05
-7.34337e-12
2e-05
-8.74897e-12
2e-05
-1.01828e-11
2e-05
-1.16496e-11
2e-05
-1.3154e-11
2e-05
-1.47008e-11
2e-05
-1.62944e-11
2e-05
-1.79393e-11
2e-05
-1.964e-11
2e-05
-2.14006e-11
2e-05
-2.32257e-11
2e-05
-2.51194e-11
2e-05
-2.70864e-11
2e-05
-2.91314e-11
2e-05
-3.12592e-11
2e-05
-3.34749e-11
2e-05
-3.5784e-11
2e-05
-3.81922e-11
2e-05
-4.07057e-11
2e-05
-4.3331e-11
2e-05
-4.60752e-11
2e-05
-4.8946e-11
1.99999e-05
-5.19514e-11
1.99999e-05
-5.51003e-11
1.99999e-05
-5.84023e-11
1.99999e-05
-6.18675e-11
1.99999e-05
-6.55071e-11
1.99999e-05
-6.93332e-11
1.99999e-05
-7.33586e-11
1.99999e-05
-7.75974e-11
1.99999e-05
-8.20647e-11
1.99999e-05
-8.6777e-11
1.99999e-05
-9.17518e-11
1.99999e-05
-9.70082e-11
1.99999e-05
-1.02567e-10
1.99999e-05
-1.0845e-10
1.99998e-05
-1.14681e-10
1.99998e-05
-1.21287e-10
1.99998e-05
-1.28294e-10
1.99998e-05
-1.35732e-10
1.99998e-05
-1.43634e-10
1.99998e-05
-1.52034e-10
1.99998e-05
-1.60969e-10
1.99997e-05
-1.70479e-10
1.99997e-05
-1.80605e-10
1.99997e-05
-1.91393e-10
1.99997e-05
-2.02892e-10
1.99997e-05
-2.15153e-10
1.99996e-05
-2.28233e-10
1.99996e-05
-2.42189e-10
1.99996e-05
-2.57086e-10
1.99996e-05
-2.7299e-10
1.99995e-05
-2.89972e-10
1.99995e-05
-3.08109e-10
1.99995e-05
-3.2748e-10
1.99994e-05
-3.48172e-10
1.99994e-05
-3.70274e-10
1.99994e-05
-3.93881e-10
1.99993e-05
-4.19096e-10
1.99993e-05
-4.46023e-10
1.99993e-05
-4.74775e-10
1.99992e-05
-5.05469e-10
1.99992e-05
-5.38229e-10
1.99991e-05
-5.73181e-10
1.99991e-05
-6.10462e-10
1.9999e-05
-6.50209e-10
1.9999e-05
-6.92567e-10
1.99989e-05
-7.37683e-10
1.99989e-05
-7.85709e-10
1.99988e-05
-8.36799e-10
1.99987e-05
-8.91108e-10
1.99987e-05
-9.4879e-10
1.99986e-05
-1.01e-09
1.99986e-05
-1.07487e-09
1.99985e-05
-1.14355e-09
1.99984e-05
-1.21616e-09
1.99983e-05
-1.2928e-09
1.99983e-05
-1.37354e-09
1.99982e-05
-1.45842e-09
1.99981e-05
-1.54744e-09
1.9998e-05
-1.64052e-09
1.9998e-05
-1.73753e-09
1.99979e-05
-1.83821e-09
1.99978e-05
-1.9422e-09
1.99977e-05
-2.04901e-09
1.99977e-05
-2.15792e-09
1.99976e-05
-2.26803e-09
1.99975e-05
-2.37814e-09
1.99974e-05
-2.48673e-09
1.99974e-05
-2.59187e-09
1.99973e-05
-2.69113e-09
1.99972e-05
-2.78143e-09
1.99972e-05
-2.85876e-09
1.99971e-05
-2.91796e-09
-2.95137e-09
2e-05
-5.87227e-13
2e-05
-1.76434e-12
2e-05
-2.96195e-12
2e-05
-4.193e-12
2e-05
-5.45268e-12
2e-05
-6.73742e-12
2e-05
-8.04721e-12
2e-05
-9.38398e-12
2e-05
-1.07507e-11
2e-05
-1.21508e-11
2e-05
-1.35879e-11
2e-05
-1.50658e-11
2e-05
-1.6588e-11
2e-05
-1.81584e-11
2e-05
-1.97806e-11
2e-05
-2.14583e-11
2e-05
-2.31953e-11
2e-05
-2.49955e-11
2e-05
-2.6863e-11
2e-05
-2.88019e-11
2e-05
-3.08169e-11
2e-05
-3.29126e-11
2e-05
-3.5094e-11
2e-05
-3.73667e-11
2e-05
-3.97364e-11
2e-05
-4.22093e-11
2e-05
-4.47924e-11
1.99999e-05
-4.74928e-11
1.99999e-05
-5.03186e-11
1.99999e-05
-5.32783e-11
1.99999e-05
-5.63814e-11
1.99999e-05
-5.96378e-11
1.99999e-05
-6.30586e-11
1.99999e-05
-6.66558e-11
1.99999e-05
-7.04423e-11
1.99999e-05
-7.44321e-11
1.99999e-05
-7.86404e-11
1.99999e-05
-8.30838e-11
1.99999e-05
-8.77801e-11
1.99999e-05
-9.27486e-11
1.99999e-05
-9.80103e-11
1.99998e-05
-1.03588e-10
1.99998e-05
-1.09506e-10
1.99998e-05
-1.1579e-10
1.99998e-05
-1.2247e-10
1.99998e-05
-1.29575e-10
1.99998e-05
-1.37139e-10
1.99998e-05
-1.45198e-10
1.99997e-05
-1.53789e-10
1.99997e-05
-1.62954e-10
1.99997e-05
-1.72737e-10
1.99997e-05
-1.83185e-10
1.99997e-05
-1.94348e-10
1.99996e-05
-2.06282e-10
1.99996e-05
-2.19044e-10
1.99996e-05
-2.32697e-10
1.99996e-05
-2.47305e-10
1.99995e-05
-2.62941e-10
1.99995e-05
-2.79679e-10
1.99995e-05
-2.97599e-10
1.99995e-05
-3.16786e-10
1.99994e-05
-3.37331e-10
1.99994e-05
-3.5933e-10
1.99994e-05
-3.82884e-10
1.99993e-05
-4.081e-10
1.99993e-05
-4.35091e-10
1.99992e-05
-4.63977e-10
1.99992e-05
-4.94883e-10
1.99991e-05
-5.27941e-10
1.99991e-05
-5.63287e-10
1.9999e-05
-6.01066e-10
1.9999e-05
-6.41427e-10
1.99989e-05
-6.84524e-10
1.99989e-05
-7.30515e-10
1.99988e-05
-7.79563e-10
1.99988e-05
-8.31832e-10
1.99987e-05
-8.87488e-10
1.99986e-05
-9.46695e-10
1.99986e-05
-1.00961e-09
1.99985e-05
-1.07639e-09
1.99984e-05
-1.14718e-09
1.99984e-05
-1.22208e-09
1.99983e-05
-1.30122e-09
1.99982e-05
-1.38464e-09
1.99982e-05
-1.47237e-09
1.99981e-05
-1.56437e-09
1.9998e-05
-1.66052e-09
1.99979e-05
-1.76064e-09
1.99978e-05
-1.86438e-09
1.99978e-05
-1.97128e-09
1.99977e-05
-2.08067e-09
1.99976e-05
-2.19167e-09
1.99975e-05
-2.3031e-09
1.99975e-05
-2.41344e-09
1.99974e-05
-2.52071e-09
1.99973e-05
-2.6224e-09
1.99973e-05
-2.71524e-09
1.99972e-05
-2.79496e-09
1.99971e-05
-2.85593e-09
-2.89078e-09
2e-05
-5.29819e-13
2e-05
-1.59354e-12
2e-05
-2.68156e-12
2e-05
-3.80815e-12
2e-05
-4.96769e-12
2e-05
-6.15491e-12
2e-05
-7.36793e-12
2e-05
-8.60693e-12
2e-05
-9.87338e-12
2e-05
-1.11695e-11
2e-05
-1.24978e-11
2e-05
-1.38611e-11
2e-05
-1.52624e-11
2e-05
-1.67046e-11
2e-05
-1.81908e-11
2e-05
-1.97239e-11
2e-05
-2.13073e-11
2e-05
-2.29441e-11
2e-05
-2.46379e-11
2e-05
-2.63922e-11
2e-05
-2.82108e-11
2e-05
-3.00979e-11
2e-05
-3.20577e-11
2e-05
-3.40951e-11
2e-05
-3.6215e-11
2e-05
-3.8423e-11
2e-05
-4.07251e-11
2e-05
-4.31278e-11
1.99999e-05
-4.56381e-11
1.99999e-05
-4.82638e-11
1.99999e-05
-5.10133e-11
1.99999e-05
-5.38957e-11
1.99999e-05
-5.69212e-11
1.99999e-05
-6.01005e-11
1.99999e-05
-6.34456e-11
1.99999e-05
-6.69695e-11
1.99999e-05
-7.06862e-11
1.99999e-05
-7.46112e-11
1.99999e-05
-7.8761e-11
1.99999e-05
-8.31539e-11
1.99999e-05
-8.78096e-11
1.99998e-05
-9.27494e-11
1.99998e-05
-9.79966e-11
1.99998e-05
-1.03576e-10
1.99998e-05
-1.09515e-10
1.99998e-05
-1.15844e-10
1.99998e-05
-1.22592e-10
1.99998e-05
-1.29796e-10
1.99997e-05
-1.37492e-10
1.99997e-05
-1.4572e-10
1.99997e-05
-1.54522e-10
1.99997e-05
-1.63944e-10
1.99997e-05
-1.74037e-10
1.99997e-05
-1.84854e-10
1.99996e-05
-1.9645e-10
1.99996e-05
-2.08888e-10
1.99996e-05
-2.22232e-10
1.99996e-05
-2.36553e-10
1.99995e-05
-2.51925e-10
1.99995e-05
-2.68428e-10
1.99995e-05
-2.86147e-10
1.99994e-05
-3.05171e-10
1.99994e-05
-3.25598e-10
1.99994e-05
-3.47529e-10
1.99993e-05
-3.71071e-10
1.99993e-05
-3.9634e-10
1.99993e-05
-4.23457e-10
1.99992e-05
-4.52549e-10
1.99992e-05
-4.8375e-10
1.99991e-05
-5.17201e-10
1.99991e-05
-5.5305e-10
1.9999e-05
-5.9145e-10
1.9999e-05
-6.32563e-10
1.99989e-05
-6.76551e-10
1.99989e-05
-7.23587e-10
1.99988e-05
-7.73844e-10
1.99987e-05
-8.27496e-10
1.99987e-05
-8.8472e-10
1.99986e-05
-9.4569e-10
1.99985e-05
-1.01057e-09
1.99985e-05
-1.07952e-09
1.99984e-05
-1.15269e-09
1.99983e-05
-1.23018e-09
1.99983e-05
-1.31209e-09
1.99982e-05
-1.39846e-09
1.99981e-05
-1.48929e-09
1.9998e-05
-1.58449e-09
1.9998e-05
-1.68389e-09
1.99979e-05
-1.78719e-09
1.99978e-05
-1.89395e-09
1.99977e-05
-2.00353e-09
1.99977e-05
-2.11507e-09
1.99976e-05
-2.22739e-09
1.99975e-05
-2.33896e-09
1.99974e-05
-2.44776e-09
1.99974e-05
-2.55117e-09
1.99973e-05
-2.64581e-09
1.99972e-05
-2.7272e-09
1.99972e-05
-2.78958e-09
-2.82608e-09
2e-05
-4.77758e-13
2e-05
-1.43664e-12
2e-05
-2.42099e-12
2e-05
-3.4464e-12
2e-05
-4.50722e-12
2e-05
-5.59734e-12
2e-05
-6.7136e-12
2e-05
-7.85485e-12
2e-05
-9.0213e-12
2e-05
-1.0214e-11
2e-05
-1.14346e-11
2e-05
-1.26849e-11
2e-05
-1.39671e-11
2e-05
-1.52834e-11
2e-05
-1.66361e-11
2e-05
-1.80278e-11
2e-05
-1.9461e-11
2e-05
-2.09382e-11
2e-05
-2.24625e-11
2e-05
-2.40366e-11
2e-05
-2.56638e-11
2e-05
-2.73476e-11
2e-05
-2.90916e-11
2e-05
-3.08998e-11
2e-05
-3.27766e-11
2e-05
-3.47267e-11
2e-05
-3.67554e-11
2e-05
-3.88684e-11
1.99999e-05
-4.10718e-11
1.99999e-05
-4.33726e-11
1.99999e-05
-4.57783e-11
1.99999e-05
-4.82971e-11
1.99999e-05
-5.09381e-11
1.99999e-05
-5.37112e-11
1.99999e-05
-5.66273e-11
1.99999e-05
-5.96983e-11
1.99999e-05
-6.29372e-11
1.99999e-05
-6.63583e-11
1.99999e-05
-6.99771e-11
1.99999e-05
-7.38106e-11
1.99999e-05
-7.78774e-11
1.99999e-05
-8.21976e-11
1.99998e-05
-8.67931e-11
1.99998e-05
-9.16878e-11
1.99998e-05
-9.69076e-11
1.99998e-05
-1.02481e-10
1.99998e-05
-1.08437e-10
1.99998e-05
-1.14811e-10
1.99998e-05
-1.21636e-10
1.99997e-05
-1.28953e-10
1.99997e-05
-1.36802e-10
1.99997e-05
-1.45228e-10
1.99997e-05
-1.5428e-10
1.99997e-05
-1.6401e-10
1.99996e-05
-1.74473e-10
1.99996e-05
-1.8573e-10
1.99996e-05
-1.97845e-10
1.99996e-05
-2.10887e-10
1.99995e-05
-2.2493e-10
1.99995e-05
-2.40054e-10
1.99995e-05
-2.56343e-10
1.99995e-05
-2.73887e-10
1.99994e-05
-2.92782e-10
1.99994e-05
-3.13131e-10
1.99993e-05
-3.35043e-10
1.99993e-05
-3.58633e-10
1.99993e-05
-3.84024e-10
1.99992e-05
-4.11344e-10
1.99992e-05
-4.40732e-10
1.99991e-05
-4.7233e-10
1.99991e-05
-5.0629e-10
1.9999e-05
-5.42771e-10
1.9999e-05
-5.81936e-10
1.99989e-05
-6.23959e-10
1.99989e-05
-6.69016e-10
1.99988e-05
-7.17288e-10
1.99988e-05
-7.68961e-10
1.99987e-05
-8.24222e-10
1.99986e-05
-8.83255e-10
1.99986e-05
-9.46241e-10
1.99985e-05
-1.01335e-09
1.99985e-05
-1.08475e-09
1.99984e-05
-1.16057e-09
1.99983e-05
-1.24092e-09
1.99982e-05
-1.32587e-09
1.99982e-05
-1.41543e-09
1.99981e-05
-1.50955e-09
1.9998e-05
-1.60808e-09
1.99979e-05
-1.71074e-09
1.99979e-05
-1.81712e-09
1.99978e-05
-1.9266e-09
1.99977e-05
-2.03833e-09
1.99976e-05
-2.15112e-09
1.99976e-05
-2.26343e-09
1.99975e-05
-2.3732e-09
1.99974e-05
-2.47775e-09
1.99973e-05
-2.57357e-09
1.99973e-05
-2.65611e-09
1.99972e-05
-2.71956e-09
-2.75715e-09
2e-05
-4.30006e-13
2e-05
-1.29153e-12
2e-05
-2.17808e-12
2e-05
-3.10631e-12
2e-05
-4.07091e-12
2e-05
-5.06539e-12
2e-05
-6.08581e-12
2e-05
-7.13007e-12
2e-05
-8.19736e-12
2e-05
-9.28776e-12
2e-05
-1.04019e-11
2e-05
-1.15409e-11
2e-05
-1.27062e-11
2e-05
-1.38991e-11
2e-05
-1.51214e-11
2e-05
-1.6375e-11
2e-05
-1.76616e-11
2e-05
-1.89835e-11
2e-05
-2.03427e-11
2e-05
-2.17416e-11
2e-05
-2.31828e-11
2e-05
-2.46691e-11
2e-05
-2.62035e-11
2e-05
-2.77894e-11
2e-05
-2.94303e-11
2e-05
-3.11303e-11
2e-05
-3.28938e-11
2e-05
-3.47259e-11
1.99999e-05
-3.66319e-11
1.99999e-05
-3.86178e-11
1.99999e-05
-4.06903e-11
1.99999e-05
-4.28568e-11
1.99999e-05
-4.51254e-11
1.99999e-05
-4.7505e-11
1.99999e-05
-5.00056e-11
1.99999e-05
-5.26381e-11
1.99999e-05
-5.54143e-11
1.99999e-05
-5.83476e-11
1.99999e-05
-6.14523e-11
1.99999e-05
-6.47443e-11
1.99999e-05
-6.82409e-11
1.99999e-05
-7.19613e-11
1.99998e-05
-7.5926e-11
1.99998e-05
-8.01577e-11
1.99998e-05
-8.46812e-11
1.99998e-05
-8.95232e-11
1.99998e-05
-9.4713e-11
1.99998e-05
-1.00282e-10
1.99998e-05
-1.06265e-10
1.99997e-05
-1.127e-10
1.99997e-05
-1.19626e-10
1.99997e-05
-1.27087e-10
1.99997e-05
-1.35131e-10
1.99997e-05
-1.43808e-10
1.99997e-05
-1.53173e-10
1.99996e-05
-1.63286e-10
1.99996e-05
-1.74209e-10
1.99996e-05
-1.86012e-10
1.99996e-05
-1.98767e-10
1.99995e-05
-2.12554e-10
1.99995e-05
-2.27455e-10
1.99995e-05
-2.43562e-10
1.99994e-05
-2.60971e-10
1.99994e-05
-2.79784e-10
1.99994e-05
-3.00111e-10
1.99993e-05
-3.22068e-10
1.99993e-05
-3.45779e-10
1.99993e-05
-3.71375e-10
1.99992e-05
-3.98996e-10
1.99992e-05
-4.28787e-10
1.99991e-05
-4.60903e-10
1.99991e-05
-4.95507e-10
1.9999e-05
-5.32768e-10
1.9999e-05
-5.72863e-10
1.99989e-05
-6.15976e-10
1.99989e-05
-6.62296e-10
1.99988e-05
-7.12016e-10
1.99988e-05
-7.65332e-10
1.99987e-05
-8.2244e-10
1.99986e-05
-8.83534e-10
1.99986e-05
-9.488e-10
1.99985e-05
-1.01841e-09
1.99984e-05
-1.09252e-09
1.99984e-05
-1.17126e-09
1.99983e-05
-1.25471e-09
1.99982e-05
-1.34291e-09
1.99981e-05
-1.43582e-09
1.99981e-05
-1.53331e-09
1.9998e-05
-1.63514e-09
1.99979e-05
-1.7409e-09
1.99978e-05
-1.85e-09
1.99978e-05
-1.96157e-09
1.99977e-05
-2.07444e-09
1.99976e-05
-2.18705e-09
1.99975e-05
-2.2973e-09
1.99975e-05
-2.40246e-09
1.99974e-05
-2.49897e-09
1.99973e-05
-2.58221e-09
1.99972e-05
-2.64636e-09
-2.68449e-09
2e-05
-3.85836e-13
2e-05
-1.15669e-12
2e-05
-1.9511e-12
2e-05
-2.78649e-12
2e-05
-3.65804e-12
2e-05
-4.55917e-12
2e-05
-5.48551e-12
2e-05
-6.43426e-12
2e-05
-7.40382e-12
2e-05
-8.39344e-12
2e-05
-9.40301e-12
2e-05
-1.04328e-11
2e-05
-1.14835e-11
2e-05
-1.25559e-11
2e-05
-1.3651e-11
2e-05
-1.477e-11
2e-05
-1.59142e-11
2e-05
-1.70851e-11
2e-05
-1.82842e-11
2e-05
-1.95132e-11
2e-05
-2.07743e-11
2e-05
-2.20694e-11
2e-05
-2.34009e-11
2e-05
-2.47716e-11
2e-05
-2.61844e-11
2e-05
-2.76427e-11
2e-05
-2.915e-11
2e-05
-3.07108e-11
2e-05
-3.23295e-11
1.99999e-05
-3.40114e-11
1.99999e-05
-3.57623e-11
1.99999e-05
-3.75887e-11
1.99999e-05
-3.94979e-11
1.99999e-05
-4.14979e-11
1.99999e-05
-4.35976e-11
1.99999e-05
-4.5807e-11
1.99999e-05
-4.81369e-11
1.99999e-05
-5.05997e-11
1.99999e-05
-5.32085e-11
1.99999e-05
-5.59782e-11
1.99999e-05
-5.89251e-11
1.99999e-05
-6.2067e-11
1.99998e-05
-6.54234e-11
1.99998e-05
-6.90158e-11
1.99998e-05
-7.28677e-11
1.99998e-05
-7.70047e-11
1.99998e-05
-8.14549e-11
1.99998e-05
-8.62487e-11
1.99998e-05
-9.14193e-11
1.99998e-05
-9.70028e-11
1.99997e-05
-1.03038e-10
1.99997e-05
-1.09569e-10
1.99997e-05
-1.16639e-10
1.99997e-05
-1.24301e-10
1.99997e-05
-1.32606e-10
1.99996e-05
-1.41614e-10
1.99996e-05
-1.51386e-10
1.99996e-05
-1.61992e-10
1.99996e-05
-1.73502e-10
1.99995e-05
-1.85995e-10
1.99995e-05
-1.99556e-10
1.99995e-05
-2.14272e-10
1.99995e-05
-2.30242e-10
1.99994e-05
-2.47568e-10
1.99994e-05
-2.66359e-10
1.99994e-05
-2.86733e-10
1.99993e-05
-3.08815e-10
1.99993e-05
-3.32737e-10
1.99992e-05
-3.58639e-10
1.99992e-05
-3.86672e-10
1.99992e-05
-4.16992e-10
1.99991e-05
-4.49766e-10
1.99991e-05
-4.85166e-10
1.9999e-05
-5.23374e-10
1.9999e-05
-5.64581e-10
1.99989e-05
-6.08981e-10
1.99988e-05
-6.56775e-10
1.99988e-05
-7.08167e-10
1.99987e-05
-7.63364e-10
1.99987e-05
-8.22569e-10
1.99986e-05
-8.8598e-10
1.99985e-05
-9.53784e-10
1.99985e-05
-1.02615e-09
1.99984e-05
-1.10322e-09
1.99983e-05
-1.18509e-09
1.99983e-05
-1.27183e-09
1.99982e-05
-1.3634e-09
1.99981e-05
-1.45971e-09
1.9998e-05
-1.56051e-09
1.9998e-05
-1.66542e-09
1.99979e-05
-1.77384e-09
1.99978e-05
-1.88494e-09
1.99977e-05
-1.99753e-09
1.99977e-05
-2.11003e-09
1.99976e-05
-2.22032e-09
1.99975e-05
-2.32565e-09
1.99974e-05
-2.4224e-09
1.99974e-05
-2.50595e-09
1.99973e-05
-2.57044e-09
-2.60882e-09
2e-05
-3.44761e-13
2e-05
-1.03098e-12
2e-05
-1.73862e-12
2e-05
-2.4857e-12
2e-05
-3.26782e-12
2e-05
-4.07853e-12
2e-05
-4.91317e-12
2e-05
-5.76852e-12
2e-05
-6.64235e-12
2e-05
-7.53328e-12
2e-05
-8.44047e-12
2e-05
-9.36355e-12
2e-05
-1.03025e-11
2e-05
-1.12574e-11
2e-05
-1.22288e-11
2e-05
-1.32172e-11
2e-05
-1.42233e-11
2e-05
-1.5248e-11
2e-05
-1.62922e-11
2e-05
-1.73571e-11
2e-05
-1.84441e-11
2e-05
-1.95547e-11
2e-05
-2.06906e-11
2e-05
-2.18539e-11
2e-05
-2.3047e-11
2e-05
-2.42723e-11
2e-05
-2.55331e-11
2e-05
-2.68326e-11
2e-05
-2.81749e-11
1.99999e-05
-2.95644e-11
1.99999e-05
-3.1006e-11
1.99999e-05
-3.25055e-11
1.99999e-05
-3.40692e-11
1.99999e-05
-3.57042e-11
1.99999e-05
-3.74187e-11
1.99999e-05
-3.92215e-11
1.99999e-05
-4.11226e-11
1.99999e-05
-4.31332e-11
1.99999e-05
-4.52657e-11
1.99999e-05
-4.75337e-11
1.99999e-05
-4.99525e-11
1.99999e-05
-5.25386e-11
1.99999e-05
-5.53107e-11
1.99998e-05
-5.8289e-11
1.99998e-05
-6.14958e-11
1.99998e-05
-6.49556e-11
1.99998e-05
-6.86952e-11
1.99998e-05
-7.27439e-11
1.99998e-05
-7.71336e-11
1.99998e-05
-8.18994e-11
1.99997e-05
-8.70792e-11
1.99997e-05
-9.27143e-11
1.99997e-05
-9.88496e-11
1.99997e-05
-1.05534e-10
1.99997e-05
-1.1282e-10
1.99997e-05
-1.20765e-10
1.99996e-05
-1.2943e-10
1.99996e-05
-1.38882e-10
1.99996e-05
-1.49193e-10
1.99996e-05
-1.60441e-10
1.99995e-05
-1.72708e-10
1.99995e-05
-1.86085e-10
1.99995e-05
-2.00666e-10
1.99994e-05
-2.16555e-10
1.99994e-05
-2.33863e-10
1.99994e-05
-2.52706e-10
1.99993e-05
-2.73211e-10
1.99993e-05
-2.95511e-10
1.99993e-05
-3.19748e-10
1.99992e-05
-3.46074e-10
1.99992e-05
-3.74648e-10
1.99991e-05
-4.05639e-10
1.99991e-05
-4.39224e-10
1.9999e-05
-4.75589e-10
1.9999e-05
-5.14929e-10
1.99989e-05
-5.57443e-10
1.99989e-05
-6.0334e-10
1.99988e-05
-6.5283e-10
1.99988e-05
-7.06129e-10
1.99987e-05
-7.63448e-10
1.99987e-05
-8.24997e-10
1.99986e-05
-8.90972e-10
1.99985e-05
-9.61555e-10
1.99985e-05
-1.0369e-09
1.99984e-05
-1.11713e-09
1.99983e-05
-1.2023e-09
1.99983e-05
-1.29241e-09
1.99982e-05
-1.38737e-09
1.99981e-05
-1.48695e-09
1.9998e-05
-1.59078e-09
1.9998e-05
-1.69828e-09
1.99979e-05
-1.8086e-09
1.99978e-05
-1.92057e-09
1.99977e-05
-2.03259e-09
1.99977e-05
-2.14254e-09
1.99976e-05
-2.24764e-09
1.99975e-05
-2.34427e-09
1.99974e-05
-2.42778e-09
1.99973e-05
-2.4923e-09
-2.53071e-09
2e-05
-3.06452e-13
2e-05
-9.13521e-13
2e-05
-1.53954e-12
2e-05
-2.20285e-12
2e-05
-2.89947e-12
2e-05
-3.62309e-12
2e-05
-4.36898e-12
2e-05
-5.13357e-12
2e-05
-5.91421e-12
2e-05
-6.70897e-12
2e-05
-7.51645e-12
2e-05
-8.33567e-12
2e-05
-9.16598e-12
2e-05
-1.0007e-11
2e-05
-1.08585e-11
2e-05
-1.17205e-11
2e-05
-1.25931e-11
2e-05
-1.34766e-11
2e-05
-1.43715e-11
2e-05
-1.52783e-11
2e-05
-1.61978e-11
2e-05
-1.71309e-11
2e-05
-1.80788e-11
2e-05
-1.9043e-11
2e-05
-2.0025e-11
2e-05
-2.1027e-11
2e-05
-2.20512e-11
2e-05
-2.31003e-11
2e-05
-2.41777e-11
1.99999e-05
-2.52869e-11
1.99999e-05
-2.64322e-11
1.99999e-05
-2.76185e-11
1.99999e-05
-2.88514e-11
1.99999e-05
-3.0137e-11
1.99999e-05
-3.14827e-11
1.99999e-05
-3.28964e-11
1.99999e-05
-3.43871e-11
1.99999e-05
-3.59651e-11
1.99999e-05
-3.76418e-11
1.99999e-05
-3.94298e-11
1.99999e-05
-4.13432e-11
1.99999e-05
-4.33977e-11
1.99999e-05
-4.56108e-11
1.99998e-05
-4.80014e-11
1.99998e-05
-5.0591e-11
1.99998e-05
-5.34028e-11
1.99998e-05
-5.64624e-11
1.99998e-05
-5.97979e-11
1.99998e-05
-6.34403e-11
1.99998e-05
-6.74233e-11
1.99998e-05
-7.17837e-11
1.99997e-05
-7.65616e-11
1.99997e-05
-8.18009e-11
1.99997e-05
-8.75491e-11
1.99997e-05
-9.38579e-11
1.99997e-05
-1.00783e-10
1.99996e-05
-1.08386e-10
1.99996e-05
-1.16733e-10
1.99996e-05
-1.25893e-10
1.99996e-05
-1.35944e-10
1.99996e-05
-1.46969e-10
1.99995e-05
-1.59057e-10
1.99995e-05
-1.72303e-10
1.99995e-05
-1.86809e-10
1.99994e-05
-2.02687e-10
1.99994e-05
-2.20055e-10
1.99994e-05
-2.39038e-10
1.99993e-05
-2.5977e-10
1.99993e-05
-2.82397e-10
1.99993e-05
-3.07069e-10
1.99992e-05
-3.33949e-10
1.99992e-05
-3.63208e-10
1.99991e-05
-3.95026e-10
1.99991e-05
-4.29592e-10
1.9999e-05
-4.67105e-10
1.9999e-05
-5.0777e-10
1.99989e-05
-5.51799e-10
1.99989e-05
-5.9941e-10
1.99988e-05
-6.50825e-10
1.99988e-05
-7.06264e-10
1.99987e-05
-7.65943e-10
1.99986e-05
-8.30069e-10
1.99986e-05
-8.98834e-10
1.99985e-05
-9.72402e-10
1.99985e-05
-1.0509e-09
1.99984e-05
-1.13442e-09
1.99983e-05
-1.22295e-09
1.99982e-05
-1.31641e-09
1.99982e-05
-1.4146e-09
1.99981e-05
-1.51714e-09
1.9998e-05
-1.62347e-09
1.99979e-05
-1.73274e-09
1.99979e-05
-1.84378e-09
1.99978e-05
-1.95499e-09
1.99977e-05
-2.06425e-09
1.99976e-05
-2.16876e-09
1.99976e-05
-2.26492e-09
1.99975e-05
-2.34809e-09
1.99974e-05
-2.4124e-09
-2.45067e-09
2e-05
-2.70662e-13
2e-05
-8.03655e-13
2e-05
-1.35296e-12
2e-05
-1.93703e-12
2e-05
-2.55222e-12
2e-05
-3.19243e-12
2e-05
-3.85289e-12
2e-05
-4.52983e-12
2e-05
-5.22027e-12
2e-05
-5.92185e-12
2e-05
-6.63269e-12
2e-05
-7.35129e-12
2e-05
-8.07648e-12
2e-05
-8.80732e-12
2e-05
-9.54307e-12
2e-05
-1.02832e-11
2e-05
-1.10273e-11
2e-05
-1.1775e-11
2e-05
-1.25264e-11
2e-05
-1.32814e-11
2e-05
-1.40403e-11
2e-05
-1.48034e-11
2e-05
-1.55713e-11
2e-05
-1.63449e-11
2e-05
-1.71252e-11
2e-05
-1.79135e-11
2e-05
-1.87117e-11
2e-05
-1.95218e-11
2e-05
-2.03462e-11
2e-05
-2.11879e-11
1.99999e-05
-2.20506e-11
1.99999e-05
-2.29382e-11
1.99999e-05
-2.38555e-11
1.99999e-05
-2.48081e-11
1.99999e-05
-2.58022e-11
1.99999e-05
-2.6845e-11
1.99999e-05
-2.79446e-11
1.99999e-05
-2.91104e-11
1.99999e-05
-3.03528e-11
1.99999e-05
-3.16834e-11
1.99999e-05
-3.31153e-11
1.99999e-05
-3.46634e-11
1.99999e-05
-3.63437e-11
1.99999e-05
-3.81745e-11
1.99998e-05
-4.0176e-11
1.99998e-05
-4.23702e-11
1.99998e-05
-4.47817e-11
1.99998e-05
-4.74376e-11
1.99998e-05
-5.03675e-11
1.99998e-05
-5.3604e-11
1.99998e-05
-5.71829e-11
1.99998e-05
-6.11431e-11
1.99997e-05
-6.55273e-11
1.99997e-05
-7.03821e-11
1.99997e-05
-7.57579e-11
1.99997e-05
-8.171e-11
1.99997e-05
-8.8298e-11
1.99996e-05
-9.55867e-11
1.99996e-05
-1.03646e-10
1.99996e-05
-1.12553e-10
1.99996e-05
-1.22388e-10
1.99995e-05
-1.3324e-10
1.99995e-05
-1.45205e-10
1.99995e-05
-1.58385e-10
1.99995e-05
-1.7289e-10
1.99994e-05
-1.88838e-10
1.99994e-05
-2.06355e-10
1.99994e-05
-2.25578e-10
1.99993e-05
-2.46649e-10
1.99993e-05
-2.69723e-10
1.99993e-05
-2.94963e-10
1.99992e-05
-3.22542e-10
1.99992e-05
-3.52642e-10