/*--------------------------------*- C++ -*----------------------------------*\
  =========                 |
  \\      /  F ield         | OpenFOAM: The Open Source CFD Toolbox
   \\    /   O peration     | Website:  https://openfoam.org
    \\  /    A nd           | Version:  11
     \\/     M anipulation  |
\*---------------------------------------------------------------------------*/
FoamFile
{
    format      ascii;
    class       volScalarField;
    location    "272";
    object      nut;
}
// * * * * * * * * * * * * * * * * * * * * * * * * * * * * * * * * * * * * * //

dimensions      [0 2 -1 0 0 0 0];

internalField   nonuniform List<scalar> 
10000
(
0.000977107
0.000936668
0.000899576
0.000865509
0.000834178
0.000805326
0.000778719
0.000754149
0.000731427
0.000710383
0.000690865
0.000672736
0.000655871
0.000640158
0.000625498
0.000611799
0.000598978
0.000586961
0.000575682
0.000565079
0.0005551
0.000545693
0.000536816
0.00052843
0.000520499
0.000512992
0.000505883
0.000499148
0.000492769
0.000486729
0.000481017
0.000475623
0.000470543
0.000465776
0.000461324
0.000457195
0.000453398
0.000449949
0.000446865
0.00044417
0.000441889
0.000440053
0.000438692
0.000437842
0.000437539
0.00043782
0.00043872
0.000440274
0.000442512
0.000445462
0.000449142
0.000453567
0.000458742
0.000464664
0.000471319
0.000478686
0.000486734
0.000495424
0.000504712
0.000514545
0.000524867
0.000535615
0.000546724
0.000558128
0.000569761
0.000581558
0.000593457
0.0006054
0.000617331
0.000629191
0.000640944
0.000652545
0.000663952
0.000675131
0.00068605
0.000696682
0.000707005
0.000716997
0.000726643
0.000735928
0.00074484
0.000753371
0.000761514
0.000769261
0.000776609
0.000783554
0.000790094
0.000796224
0.000801943
0.000807246
0.000812131
0.000816592
0.000820622
0.000824215
0.000827359
0.000830042
0.000832247
0.000833952
0.000835129
0.000835744
0.000977107
0.000936669
0.000899576
0.000865509
0.000834179
0.000805327
0.000778721
0.00075415
0.000731428
0.000710384
0.000690866
0.000672737
0.000655872
0.00064016
0.0006255
0.000611801
0.00059898
0.000586963
0.000575684
0.000565082
0.000555102
0.000545696
0.000536819
0.000528433
0.000520502
0.000512995
0.000505887
0.000499152
0.000492773
0.000486734
0.000481022
0.000475628
0.000470548
0.000465781
0.00046133
0.000457201
0.000453404
0.000449955
0.000446871
0.000444176
0.000441895
0.000440058
0.000438696
0.000437846
0.000437542
0.000437821
0.000438719
0.000440271
0.000442507
0.000445453
0.000449131
0.000453553
0.000458724
0.000464642
0.000471294
0.000478659
0.000486704
0.000495393
0.000504678
0.000514509
0.000524827
0.000535571
0.000546676
0.000558076
0.000569705
0.0005815
0.000593398
0.00060534
0.000617271
0.000629131
0.000640885
0.000652487
0.000663895
0.000675075
0.000685996
0.00069663
0.000706954
0.000716949
0.000726596
0.000735883
0.000744798
0.000753331
0.000761475
0.000769225
0.000776575
0.000783522
0.000790063
0.000796195
0.000801915
0.000807221
0.000812107
0.000816569
0.000820601
0.000824195
0.000827341
0.000830025
0.000832231
0.000833936
0.000835114
0.000835729
0.000977107
0.000936669
0.000899577
0.000865511
0.000834181
0.000805329
0.000778723
0.000754153
0.00073143
0.000710387
0.000690869
0.00067274
0.000655876
0.000640164
0.000625504
0.000611804
0.000598984
0.000586967
0.000575688
0.000565086
0.000555107
0.000545701
0.000536825
0.000528439
0.000520508
0.000513002
0.000505893
0.000499159
0.000492781
0.000486741
0.000481029
0.000475636
0.000470557
0.00046579
0.000461338
0.000457209
0.000453412
0.000449962
0.000446878
0.000444182
0.0004419
0.000440061
0.000438697
0.000437844
0.000437537
0.000437812
0.000438706
0.000440253
0.000442483
0.000445424
0.000449094
0.000453509
0.000458673
0.000464584
0.000471228
0.000478585
0.000486623
0.000495305
0.000504584
0.000514408
0.000524719
0.000535457
0.000546556
0.000557951
0.000569577
0.000581369
0.000593265
0.000605207
0.000617138
0.000628999
0.000640754
0.000652358
0.000663769
0.000674952
0.000685877
0.000696514
0.000706843
0.000716841
0.000726493
0.000735785
0.000744704
0.000753242
0.000761391
0.000769145
0.0007765
0.000783451
0.000789997
0.000796133
0.000801857
0.000807166
0.000812056
0.000816522
0.000820557
0.000824154
0.000827303
0.00082999
0.000832198
0.000833905
0.000835084
0.0008357
0.000977107
0.00093667
0.000899579
0.000865512
0.000834183
0.000805332
0.000778726
0.000754156
0.000731434
0.000710391
0.000690874
0.000672745
0.00065588
0.000640169
0.000625509
0.00061181
0.000598989
0.000586973
0.000575695
0.000565093
0.000555114
0.000545709
0.000536833
0.000528447
0.000520517
0.000513011
0.000505903
0.000499169
0.000492791
0.000486752
0.000481041
0.000475648
0.000470568
0.000465802
0.00046135
0.000457221
0.000453423
0.000449973
0.000446888
0.00044419
0.000441905
0.000440064
0.000438697
0.00043784
0.000437528
0.000437797
0.000438685
0.000440224
0.000442446
0.000445377
0.000449037
0.000453441
0.000458594
0.000464493
0.000471126
0.000478471
0.000486498
0.000495169
0.000504438
0.000514252
0.000524554
0.000535283
0.000546374
0.000557763
0.000569383
0.000581172
0.000593066
0.000605006
0.000616938
0.000628801
0.000640558
0.000652165
0.00066358
0.000674768
0.000685697
0.000696341
0.000706675
0.00071668
0.000726339
0.000735637
0.000744563
0.000753108
0.000761264
0.000769025
0.000776386
0.000783345
0.000789897
0.000796039
0.00080177
0.000807085
0.000811981
0.000816452
0.000820492
0.000824094
0.000827247
0.000829938
0.000832149
0.000833859
0.00083504
0.000835657
0.000977107
0.000936671
0.00089958
0.000865514
0.000834186
0.000805335
0.000778729
0.00075416
0.000731439
0.000710396
0.000690879
0.00067275
0.000655886
0.000640175
0.000625516
0.000611817
0.000598997
0.000586981
0.000575703
0.000565102
0.000555123
0.000545718
0.000536843
0.000528458
0.000520528
0.000513023
0.000505915
0.000499183
0.000492805
0.000486767
0.000481055
0.000475663
0.000470584
0.000465817
0.000461366
0.000457236
0.000453438
0.000449987
0.0004469
0.0004442
0.000441913
0.000440068
0.000438697
0.000437834
0.000437516
0.000437778
0.000438657
0.000440186
0.000442397
0.000445316
0.000448964
0.000453354
0.000458492
0.000464376
0.000470994
0.000478323
0.000486336
0.000494992
0.000504247
0.000514048
0.000524338
0.000535056
0.000546137
0.000557518
0.000569132
0.000580916
0.000592807
0.000604746
0.000616678
0.000628542
0.000640302
0.000651913
0.000663333
0.000674527
0.000685463
0.000696114
0.000706456
0.000716469
0.000726136
0.000735443
0.000744378
0.000752932
0.000761097
0.000768867
0.000776238
0.000783205
0.000789766
0.000795917
0.000801655
0.000806978
0.000811881
0.00081636
0.000820407
0.000824015
0.000827173
0.000829869
0.000832085
0.000833798
0.000834982
0.0008356
0.000977108
0.000936672
0.000899582
0.000865517
0.000834188
0.000805338
0.000778734
0.000754165
0.000731444
0.000710402
0.000690885
0.000672757
0.000655894
0.000640183
0.000625524
0.000611826
0.000599006
0.000586991
0.000575714
0.000565113
0.000555135
0.000545731
0.000536856
0.000528471
0.000520542
0.000513038
0.000505931
0.000499199
0.000492822
0.000486784
0.000481074
0.000475682
0.000470603
0.000465837
0.000461385
0.000457255
0.000453457
0.000450004
0.000446915
0.000444213
0.000441922
0.000440073
0.000438697
0.000437828
0.000437502
0.000437755
0.000438623
0.000440141
0.000442339
0.000445243
0.000448875
0.000453248
0.000458369
0.000464235
0.000470834
0.000478145
0.000486139
0.000494777
0.000504015
0.0005138
0.000524076
0.00053478
0.000545851
0.000557221
0.000568828
0.000580606
0.000592493
0.000604431
0.000616362
0.000628228
0.000639991
0.000651607
0.000663033
0.000674233
0.000685177
0.000695837
0.000706188
0.000716211
0.000725889
0.000735206
0.000744152
0.000752717
0.000760893
0.000768674
0.000776056
0.000783034
0.000789605
0.000795766
0.000801515
0.000806847
0.00081176
0.000816247
0.000820302
0.000823918
0.000827083
0.000829785
0.000832006
0.000833723
0.000834909
0.000835528
0.000977108
0.000936672
0.000899583
0.000865519
0.000834192
0.000805342
0.000778738
0.00075417
0.00073145
0.000710408
0.000690892
0.000672765
0.000655902
0.000640192
0.000625534
0.000611836
0.000599017
0.000587003
0.000575726
0.000565126
0.000555149
0.000545745
0.000536871
0.000528487
0.000520559
0.000513056
0.00050595
0.000499219
0.000492843
0.000486806
0.000481096
0.000475705
0.000470626
0.00046586
0.000461409
0.000457278
0.000453479
0.000450024
0.000446934
0.000444228
0.000441934
0.00044008
0.000438698
0.000437821
0.000437486
0.000437729
0.000438586
0.000440089
0.000442272
0.00044516
0.000448773
0.000453127
0.000458228
0.000464072
0.00047065
0.000477939
0.000485912
0.00049453
0.000503748
0.000513514
0.000523773
0.000534462
0.000545519
0.000556878
0.000568476
0.000580247
0.000592129
0.000604065
0.000615996
0.000627864
0.00063963
0.00065125
0.000662683
0.000673891
0.000684844
0.000695513
0.000705875
0.00071591
0.000725599
0.000734929
0.000743887
0.000752465
0.000760654
0.000768448
0.000775842
0.000782833
0.000789416
0.00079559
0.00080135
0.000806694
0.000811617
0.000816114
0.000820179
0.000823803
0.000826977
0.000829685
0.000831912
0.000833634
0.000834823
0.000835443
0.000977108
0.000936673
0.000899585
0.000865521
0.000834195
0.000805346
0.000778743
0.000754176
0.000731456
0.000710415
0.0006909
0.000672774
0.000655911
0.000640202
0.000625544
0.000611847
0.000599029
0.000587016
0.00057574
0.000565141
0.000555164
0.000545761
0.000536888
0.000528506
0.000520579
0.000513076
0.000505971
0.000499241
0.000492866
0.00048683
0.000481121
0.000475731
0.000470653
0.000465887
0.000461436
0.000457305
0.000453504
0.000450049
0.000446956
0.000444247
0.000441949
0.000440089
0.0004387
0.000437815
0.00043747
0.000437701
0.000438544
0.000440033
0.000442199
0.000445067
0.000448661
0.000452993
0.00045807
0.000463891
0.000470444
0.000477709
0.000485658
0.000494253
0.000503448
0.000513194
0.000523433
0.000534105
0.000545146
0.000556493
0.00056808
0.000579843
0.00059172
0.000603652
0.000615583
0.000627452
0.000639221
0.000650848
0.000662287
0.000673504
0.000684466
0.000695146
0.00070552
0.000715567
0.00072527
0.000734614
0.000743586
0.000752178
0.000760382
0.00076819
0.000775599
0.000782603
0.000789201
0.000795388
0.000801162
0.000806518
0.000811454
0.000815962
0.000820038
0.000823672
0.000826855
0.000829571
0.000831804
0.000833531
0.000834723
0.000835345
0.000977108
0.000936674
0.000899586
0.000865524
0.000834198
0.00080535
0.000778748
0.000754181
0.000731463
0.000710423
0.000690909
0.000672783
0.000655921
0.000640213
0.000625556
0.00061186
0.000599043
0.00058703
0.000575755
0.000565157
0.000555182
0.00054578
0.000536908
0.000528526
0.000520601
0.000513099
0.000505996
0.000499267
0.000492893
0.000486858
0.00048115
0.000475761
0.000470684
0.000465918
0.000461467
0.000457335
0.000453534
0.000450076
0.000446981
0.000444269
0.000441966
0.0004401
0.000438703
0.00043781
0.000437454
0.000437672
0.000438501
0.000439973
0.000442119
0.000444968
0.000448539
0.000452847
0.000457899
0.000463694
0.00047022
0.000477459
0.000485381
0.000493949
0.00050312
0.000512843
0.000523061
0.000533713
0.000544738
0.00055607
0.000567645
0.000579399
0.00059127
0.000603199
0.000615128
0.000626999
0.000638771
0.000650403
0.000661849
0.000673075
0.000684048
0.00069474
0.000705127
0.000715188
0.000724905
0.000734264
0.000743252
0.00075186
0.000760079
0.000767903
0.000775328
0.000782348
0.000788961
0.000795164
0.000800952
0.000806323
0.000811271
0.000815793
0.000819881
0.000823526
0.000826718
0.000829443
0.000831683
0.000833416
0.000834611
0.000835234
0.000977109
0.000936675
0.000899588
0.000865526
0.000834201
0.000805354
0.000778753
0.000754187
0.00073147
0.000710431
0.000690917
0.000672792
0.000655932
0.000640224
0.000625569
0.000611874
0.000599057
0.000587046
0.000575772
0.000565175
0.000555201
0.0005458
0.000536929
0.000528549
0.000520625
0.000513125
0.000506023
0.000499295
0.000492923
0.000486889
0.000481182
0.000475794
0.000470717
0.000465953
0.000461501
0.000457369
0.000453567
0.000450107
0.000447009
0.000444294
0.000441985
0.000440113
0.000438709
0.000437805
0.000437438
0.000437643
0.000438455
0.000439909
0.000442036
0.000444862
0.000448409
0.000452691
0.000457716
0.000463483
0.00046998
0.00047719
0.000485083
0.000493624
0.000502768
0.000512465
0.00052266
0.000533291
0.000544297
0.000555614
0.000567176
0.00057892
0.000590784
0.000602707
0.000614635
0.000626507
0.000638283
0.00064992
0.000661374
0.00067261
0.000683593
0.000694298
0.000704698
0.000714774
0.000724507
0.000733882
0.000742887
0.000751511
0.000759748
0.000767589
0.000775031
0.000782069
0.000788699
0.000794918
0.000800722
0.000806108
0.000811071
0.000815607
0.000819707
0.000823364
0.000826567
0.000829302
0.000831549
0.000833288
0.000834487
0.000835111
0.000977109
0.000936676
0.000899589
0.000865528
0.000834204
0.000805358
0.000778758
0.000754193
0.000731477
0.000710439
0.000690926
0.000672802
0.000655943
0.000640237
0.000625582
0.000611888
0.000599073
0.000587062
0.00057579
0.000565194
0.000555221
0.000545822
0.000536953
0.000528574
0.000520651
0.000513153
0.000506052
0.000499326
0.000492955
0.000486923
0.000481218
0.00047583
0.000470755
0.00046599
0.000461539
0.000457407
0.000453603
0.000450142
0.000447041
0.000444321
0.000442008
0.000440129
0.000438716
0.000437802
0.000437422
0.000437613
0.000438408
0.000439843
0.000441948
0.000444751
0.000448272
0.000452527
0.000457523
0.00046326
0.000469727
0.000476905
0.000484768
0.000493279
0.000502394
0.000512065
0.000522234
0.000532843
0.000543829
0.000555128
0.000566676
0.000578409
0.000590264
0.000602183
0.000614109
0.000625981
0.00063776
0.000649403
0.000660865
0.00067211
0.000683106
0.000693823
0.000704238
0.000714329
0.000724078
0.00073347
0.000742493
0.000751136
0.000759391
0.000767251
0.000774711
0.000781767
0.000788415
0.000794651
0.000800473
0.000805875
0.000810855
0.000815405
0.000819519
0.000823189
0.000826403
0.000829147
0.000831403
0.000833148
0.000834352
0.000834978
0.000977109
0.000936676
0.000899591
0.00086553
0.000834207
0.000805362
0.000778762
0.000754199
0.000731484
0.000710447
0.000690935
0.000672813
0.000655955
0.000640249
0.000625596
0.000611903
0.000599089
0.00058708
0.000575809
0.000565214
0.000555243
0.000545845
0.000536978
0.000528601
0.000520679
0.000513183
0.000506084
0.000499359
0.00049299
0.00048696
0.000481256
0.000475869
0.000470795
0.000466031
0.00046158
0.000457447
0.000453643
0.00045018
0.000447076
0.000444352
0.000442033
0.000440147
0.000438725
0.0004378
0.000437408
0.000437583
0.000438361
0.000439776
0.000441858
0.000444636
0.00044813
0.000452357
0.000457322
0.000463027
0.000469462
0.000476608
0.000484438
0.000492917
0.000502003
0.000511644
0.000521787
0.000532372
0.000543336
0.000554617
0.00056615
0.00057787
0.000589717
0.00060163
0.000613553
0.000625426
0.000637207
0.000648856
0.000660326
0.000671581
0.000682588
0.000693319
0.000703749
0.000713856
0.000723623
0.000733033
0.000742074
0.000750736
0.00075901
0.00076689
0.00077437
0.000781445
0.000788112
0.000794367
0.000800207
0.000805627
0.000810623
0.000815189
0.000819318
0.000823001
0.000826227
0.000828981
0.000831246
0.000832997
0.000834205
0.000834833
0.000977109
0.000936677
0.000899592
0.000865532
0.00083421
0.000805366
0.000778767
0.000754205
0.000731491
0.000710455
0.000690945
0.000672823
0.000655966
0.000640262
0.00062561
0.000611919
0.000599106
0.000587099
0.000575829
0.000565236
0.000555266
0.00054587
0.000537004
0.000528629
0.000520709
0.000513215
0.000506118
0.000499395
0.000493028
0.000486999
0.000481296
0.000475911
0.000470838
0.000466075
0.000461624
0.000457491
0.000453686
0.000450221
0.000447114
0.000444386
0.000442061
0.000440168
0.000438736
0.0004378
0.000437394
0.000437553
0.000438313
0.000439707
0.000441766
0.000444518
0.000447985
0.000452181
0.000457115
0.000462787
0.000469188
0.0004763
0.000484096
0.000492542
0.000501596
0.000511207
0.000521322
0.000531881
0.000542823
0.000554084
0.000565601
0.000577308
0.000589145
0.000601052
0.000612971
0.000624844
0.000636628
0.000648282
0.00065976
0.000671025
0.000682044
0.000692789
0.000703235
0.000713359
0.000723143
0.000732572
0.000741632
0.000750314
0.000758609
0.000766509
0.000774009
0.000781104
0.000787791
0.000794066
0.000799924
0.000805363
0.000810376
0.000814959
0.000819103
0.0008228
0.000826039
0.000828804
0.000831078
0.000832836
0.000834049
0.000834679
0.000977109
0.000936678
0.000899593
0.000865534
0.000834212
0.000805369
0.000778772
0.000754211
0.000731497
0.000710463
0.000690954
0.000672834
0.000655978
0.000640275
0.000625624
0.000611935
0.000599124
0.000587118
0.000575849
0.000565258
0.00055529
0.000545896
0.000537032
0.000528659
0.000520741
0.000513248
0.000506153
0.000499433
0.000493067
0.00048704
0.00048134
0.000475956
0.000470884
0.000466122
0.000461671
0.000457538
0.000453731
0.000450264
0.000447154
0.000444422
0.000442091
0.000440191
0.00043875
0.000437802
0.000437382
0.000437525
0.000438266
0.000439638
0.000441673
0.000444399
0.000447836
0.000452001
0.000456903
0.000462541
0.000468906
0.000475983
0.000483745
0.000492156
0.000501177
0.000510756
0.000520842
0.000531375
0.000542293
0.000553533
0.000565032
0.000576726
0.000588553
0.000600452
0.000612368
0.00062424
0.000636027
0.000647685
0.000659171
0.000670446
0.000681478
0.000692237
0.000702698
0.000712839
0.000722641
0.00073209
0.00074117
0.000749873
0.000758188
0.000766109
0.00077363
0.000780747
0.000787455
0.00079375
0.000799628
0.000805085
0.000810117
0.000814716
0.000818877
0.000822588
0.00082584
0.000828617
0.0008309
0.000832665
0.000833883
0.000834515
0.00097711
0.000936678
0.000899594
0.000865536
0.000834215
0.000805373
0.000778776
0.000754216
0.000731504
0.000710471
0.000690963
0.000672844
0.00065599
0.000640289
0.000625639
0.000611951
0.000599142
0.000587137
0.000575871
0.000565281
0.000555315
0.000545923
0.000537061
0.00052869
0.000520774
0.000513283
0.000506191
0.000499472
0.000493109
0.000487084
0.000481385
0.000476003
0.000470932
0.000466171
0.000461721
0.000457588
0.00045378
0.000450311
0.000447198
0.000444461
0.000442124
0.000440216
0.000438765
0.000437806
0.000437371
0.000437497
0.000438219
0.000439569
0.00044158
0.000444278
0.000447686
0.000451819
0.000456687
0.00046229
0.00046862
0.00047566
0.000483385
0.000491762
0.000500747
0.000510295
0.00052035
0.000530855
0.000541749
0.000552968
0.000564448
0.000576127
0.000587943
0.000599834
0.000611746
0.000623617
0.000635405
0.000647069
0.000658562
0.000669848
0.000680892
0.000691665
0.000702142
0.0007123
0.000722121
0.000731589
0.00074069
0.000749414
0.000757751
0.000765694
0.000773237
0.000780375
0.000787104
0.00079342
0.000799318
0.000804795
0.000809845
0.000814463
0.000818639
0.000822366
0.000825631
0.00082842
0.000830712
0.000832485
0.000833708
0.000834343
0.00097711
0.000936679
0.000899595
0.000865538
0.000834218
0.000805376
0.000778781
0.000754221
0.000731511
0.000710478
0.000690972
0.000672855
0.000656002
0.000640302
0.000625654
0.000611968
0.00059916
0.000587157
0.000575892
0.000565305
0.000555341
0.000545951
0.000537091
0.000528722
0.000520808
0.00051332
0.000506229
0.000499513
0.000493152
0.000487129
0.000481432
0.000476052
0.000470983
0.000466223
0.000461773
0.000457639
0.000453831
0.00045036
0.000447243
0.000444502
0.00044216
0.000440243
0.000438783
0.000437811
0.000437362
0.000437471
0.000438173
0.000439501
0.000441486
0.000444157
0.000447534
0.000451635
0.000456468
0.000462036
0.000468329
0.000475332
0.00048302
0.00049136
0.000500311
0.000509825
0.000519849
0.000530326
0.000541193
0.00055239
0.000563852
0.000575515
0.000587318
0.000599202
0.000611108
0.000622979
0.000634768
0.000646437
0.000657937
0.000669233
0.000680289
0.000691076
0.000701569
0.000711745
0.000721585
0.000731073
0.000740195
0.00074894
0.000757299
0.000765264
0.000772829
0.00077999
0.00078674
0.000793078
0.000798997
0.000804494
0.000809564
0.000814199
0.000818392
0.000822135
0.000825414
0.000828214
0.000830517
0.000832298
0.000833526
0.000834163
0.00097711
0.00093668
0.000899596
0.000865539
0.00083422
0.000805379
0.000778785
0.000754227
0.000731517
0.000710486
0.000690981
0.000672865
0.000656013
0.000640315
0.000625669
0.000611984
0.000599178
0.000587177
0.000575915
0.000565329
0.000555367
0.000545979
0.000537121
0.000528755
0.000520844
0.000513358
0.000506269
0.000499556
0.000493197
0.000487176
0.000481481
0.000476103
0.000471035
0.000466276
0.000461827
0.000457693
0.000453884
0.000450411
0.000447291
0.000444546
0.000442197
0.000440273
0.000438802
0.000437818
0.000437355
0.000437447
0.000438128
0.000439434
0.000441393
0.000444036
0.000447382
0.00045145
0.000456249
0.00046178
0.000468036
0.000475001
0.000482652
0.000490955
0.000499869
0.000509349
0.000519341
0.000529789
0.00054063
0.000551803
0.000563245
0.000574893
0.000586684
0.000598558
0.000610459
0.000622328
0.000634118
0.000645791
0.000657299
0.000668604
0.000679672
0.000690474
0.000700983
0.000711177
0.000721036
0.000730544
0.000739687
0.000748454
0.000756835
0.000764822
0.00077241
0.000779593
0.000786366
0.000792725
0.000798666
0.000804184
0.000809272
0.000813926
0.000818137
0.000821895
0.000825188
0.000828
0.000830313
0.000832102
0.000833336
0.000833976
0.00097711
0.00093668
0.000899597
0.000865541
0.000834222
0.000805382
0.000778789
0.000754232
0.000731523
0.000710493
0.00069099
0.000672875
0.000656025
0.000640328
0.000625684
0.000612001
0.000599197
0.000587198
0.000575937
0.000565354
0.000555394
0.000546008
0.000537153
0.000528788
0.00052088
0.000513396
0.000506311
0.000499599
0.000493243
0.000487225
0.000481532
0.000476155
0.000471089
0.000466331
0.000461883
0.000457749
0.000453938
0.000450464
0.000447341
0.000444591
0.000442236
0.000440304
0.000438824
0.000437827
0.000437349
0.000437424
0.000438085
0.000439367
0.000441302
0.000443915
0.000447231
0.000451266
0.000456029
0.000461524
0.000467742
0.000474669
0.000482281
0.000490546
0.000499425
0.00050887
0.00051883
0.000529247
0.000540061
0.000551211
0.000562632
0.000574263
0.000586041
0.000597906
0.000609801
0.000621668
0.000633459
0.000645136
0.000656651
0.000667965
0.000679045
0.000689861
0.000700387
0.000710598
0.000720476
0.000730004
0.000739168
0.000747957
0.000756361
0.000764371
0.000771982
0.000779187
0.000785983
0.000792364
0.000798326
0.000803865
0.000808973
0.000813646
0.000817874
0.000821648
0.000824955
0.00082778
0.000830103
0.0008319
0.000833139
0.000833782
0.00097711
0.000936681
0.000899598
0.000865542
0.000834224
0.000805385
0.000778793
0.000754237
0.000731529
0.0007105
0.000690998
0.000672885
0.000656037
0.000640342
0.000625699
0.000612017
0.000599215
0.000587218
0.00057596
0.000565378
0.000555421
0.000546037
0.000537184
0.000528823
0.000520917
0.000513436
0.000506352
0.000499644
0.00049329
0.000487274
0.000481584
0.000476209
0.000471145
0.000466388
0.00046194
0.000457806
0.000453995
0.000450518
0.000447393
0.000444638
0.000442277
0.000440337
0.000438847
0.000437838
0.000437345
0.000437402
0.000438044
0.000439303
0.000441211
0.000443796
0.000447081
0.000451083
0.000455811
0.000461268
0.000467448
0.000474337
0.00048191
0.000490138
0.000498979
0.000508389
0.000518316
0.000528702
0.000539489
0.000550615
0.000562015
0.000573629
0.000585393
0.000597248
0.000609137
0.000621001
0.000632793
0.000644473
0.000655995
0.000667318
0.000678411
0.00068924
0.000699781
0.000710011
0.000719908
0.000729456
0.000738642
0.000747452
0.000755878
0.000763911
0.000771545
0.000778774
0.000785592
0.000791995
0.000797979
0.000803539
0.000808667
0.000813359
0.000817604
0.000821394
0.000824716
0.000827553
0.000829887
0.000831692
0.000832937
0.000833583
0.00097711
0.000936681
0.000899599
0.000865544
0.000834226
0.000805388
0.000778796
0.000754241
0.000731535
0.000710508
0.000691007
0.000672895
0.000656048
0.000640354
0.000625713
0.000612034
0.000599234
0.000587239
0.000575982
0.000565403
0.000555448
0.000546067
0.000537216
0.000528857
0.000520954
0.000513475
0.000506395
0.000499689
0.000493338
0.000487324
0.000481636
0.000476264
0.000471201
0.000466446
0.000461999
0.000457865
0.000454053
0.000450574
0.000447446
0.000444687
0.00044232
0.000440372
0.000438871
0.000437851
0.000437343
0.000437382
0.000438004
0.00043924
0.000441123
0.000443679
0.000446933
0.000450901
0.000455594
0.000461014
0.000467156
0.000474006
0.000481541
0.00048973
0.000498534
0.000507909
0.000517802
0.000528158
0.000538917
0.000550017
0.000561397
0.000572993
0.000584743
0.000596588
0.00060847
0.000620331
0.000632123
0.000643806
0.000655334
0.000666667
0.00067777
0.000688614
0.000699171
0.000709417
0.000719334
0.000728902
0.000738109
0.000746941
0.00075539
0.000763446
0.000771103
0.000778354
0.000785195
0.000791621
0.000797627
0.000803207
0.000808356
0.000813066
0.000817329
0.000821135
0.000824472
0.000827322
0.000829666
0.00083148
0.00083273
0.000833379
0.00097711
0.000936681
0.0008996
0.000865545
0.000834228
0.000805391
0.0007788
0.000754246
0.00073154
0.000710514
0.000691015
0.000672904
0.000656059
0.000640367
0.000625728
0.00061205
0.000599252
0.000587259
0.000576005
0.000565428
0.000555475
0.000546097
0.000537249
0.000528892
0.000520991
0.000513516
0.000506438
0.000499735
0.000493386
0.000487375
0.000481689
0.000476319
0.000471258
0.000466504
0.000462058
0.000457925
0.000454112
0.000450632
0.0004475
0.000444736
0.000442364
0.000440408
0.000438897
0.000437864
0.000437342
0.000437364
0.000437965
0.000439179
0.000441036
0.000443564
0.000446787
0.000450722
0.000455379
0.000460762
0.000466866
0.000473677
0.000481174
0.000489324
0.000498092
0.000507431
0.00051729
0.000527615
0.000538346
0.000549422
0.00056078
0.000572357
0.000584093
0.000595927
0.000607803
0.00061966
0.000631451
0.000643138
0.000654671
0.000666013
0.000677128
0.000687985
0.000698557
0.000708821
0.000718756
0.000728344
0.000737572
0.000746426
0.000754897
0.000762976
0.000770656
0.00077793
0.000784794
0.000791242
0.00079727
0.000802871
0.00080804
0.000812769
0.00081705
0.000820872
0.000824223
0.000827086
0.000829441
0.000831262
0.000832519
0.00083317
0.000977111
0.000936682
0.000899601
0.000865546
0.00083423
0.000805394
0.000778803
0.00075425
0.000731546
0.000710521
0.000691023
0.000672914
0.00065607
0.00064038
0.000625742
0.000612066
0.00059927
0.000587279
0.000576027
0.000565453
0.000555502
0.000546126
0.000537281
0.000528927
0.000521029
0.000513556
0.000506481
0.000499781
0.000493435
0.000487426
0.000481743
0.000476375
0.000471316
0.000466564
0.000462118
0.000457985
0.000454171
0.00045069
0.000447555
0.000444787
0.000442408
0.000440445
0.000438925
0.00043788
0.000437343
0.000437348
0.000437929
0.00043912
0.000440952
0.000443452
0.000446644
0.000450545
0.000455168
0.000460514
0.00046658
0.000473353
0.00048081
0.000488923
0.000497653
0.000506956
0.000516782
0.000527076
0.000537778
0.000548829
0.000560165
0.000571725
0.000583446
0.000595269
0.000607137
0.000618991
0.000630781
0.00064247
0.000654009
0.000665359
0.000676485
0.000687355
0.000697942
0.000708223
0.000718176
0.000727785
0.000737033
0.000745909
0.000754402
0.000762504
0.000770206
0.000777504
0.00078439
0.000790861
0.00079691
0.000802532
0.000807721
0.000812469
0.000816767
0.000820606
0.000823971
0.000826847
0.000829212
0.000831042
0.000832304
0.000832958
0.000977111
0.000936682
0.000899602
0.000865548
0.000834232
0.000805396
0.000778807
0.000754254
0.000731551
0.000710527
0.00069103
0.000672923
0.000656081
0.000640392
0.000625756
0.000612082
0.000599288
0.000587299
0.000576049
0.000565477
0.000555529
0.000546156
0.000537313
0.000528962
0.000521066
0.000513596
0.000506524
0.000499827
0.000493483
0.000487478
0.000481797
0.000476431
0.000471374
0.000466623
0.000462179
0.000458045
0.000454231
0.000450748
0.000447611
0.000444839
0.000442454
0.000440483
0.000438953
0.000437896
0.000437345
0.000437333
0.000437895
0.000439063
0.00044087
0.000443342
0.000446503
0.000450372
0.00045496
0.00046027
0.000466299
0.000473033
0.000480452
0.000488527
0.00049722
0.000506487
0.00051628
0.000526542
0.000537217
0.000548242
0.000559556
0.000571097
0.000582804
0.000594615
0.000606475
0.000618325
0.000630114
0.000641805
0.00065335
0.000664708
0.000675844
0.000686727
0.000697329
0.000707626
0.000717598
0.000727226
0.000736495
0.000745392
0.000753907
0.000762031
0.000769756
0.000777076
0.000783985
0.000790477
0.000796548
0.000802191
0.0008074
0.000812167
0.000816483
0.000820337
0.000823717
0.000826605
0.000828981
0.000830819
0.000832087
0.000832744
0.000977111
0.000936683
0.000899602
0.000865549
0.000834234
0.000805398
0.00077881
0.000754259
0.000731556
0.000710534
0.000691038
0.000672932
0.000656091
0.000640404
0.00062577
0.000612098
0.000599306
0.000587319
0.000576071
0.000565501
0.000555556
0.000546185
0.000537345
0.000528996
0.000521104
0.000513637
0.000506567
0.000499873
0.000493532
0.000487529
0.000481851
0.000476487
0.000471432
0.000466683
0.000462239
0.000458106
0.000454292
0.000450807
0.000447667
0.000444891
0.0004425
0.000440522
0.000438982
0.000437914
0.000437349
0.00043732
0.000437863
0.000439009
0.000440791
0.000443235
0.000446367
0.000450203
0.000454757
0.000460031
0.000466022
0.000472719
0.0004801
0.000488137
0.000496793
0.000506025
0.000515785
0.000526016
0.000536662
0.000547662
0.000558954
0.000570477
0.000582168
0.000593968
0.00060582
0.000617666
0.000629453
0.000641146
0.000652696
0.000664061
0.000675207
0.000686103
0.000696719
0.000707033
0.000717022
0.000726669
0.000735958
0.000744877
0.000753413
0.000761559
0.000769307
0.000776649
0.00078358
0.000790094
0.000796186
0.00080185
0.000807078
0.000811864
0.000816197
0.000820068
0.000823461
0.000826362
0.000828748
0.000830594
0.000831868
0.000832528
0.000977111
0.000936683
0.000899603
0.00086555
0.000834236
0.000805401
0.000778813
0.000754262
0.000731561
0.00071054
0.000691045
0.00067294
0.000656101
0.000640416
0.000625783
0.000612113
0.000599323
0.000587338
0.000576093
0.000565525
0.000555582
0.000546214
0.000537376
0.00052903
0.000521141
0.000513676
0.00050661
0.000499918
0.00049358
0.00048758
0.000481904
0.000476543
0.00047149
0.000466742
0.0004623
0.000458167
0.000454352
0.000450866
0.000447723
0.000444943
0.000442547
0.000440561
0.000439013
0.000437933
0.000437353
0.000437309
0.000437832
0.000438957
0.000440714
0.000443132
0.000446234
0.000450039
0.000454558
0.000459797
0.000465752
0.000472411
0.000479755
0.000487754
0.000496374
0.000505572
0.000515298
0.000525499
0.000536116
0.000547091
0.000558362
0.000569865