/*--------------------------------*- C++ -*----------------------------------*\
  =========                 |
  \\      /  F ield         | OpenFOAM: The Open Source CFD Toolbox
   \\    /   O peration     | Website:  https://openfoam.org
    \\  /    A nd           | Version:  11
     \\/     M anipulation  |
\*---------------------------------------------------------------------------*/
FoamFile
{
    format      ascii;
    class       volScalarField;
    location    "828";
    object      nut;
}
// * * * * * * * * * * * * * * * * * * * * * * * * * * * * * * * * * * * * * //

dimensions      [0 2 -1 0 0 0 0];

internalField   nonuniform List<scalar> 
10000
(
0.000977119
0.000936711
0.000899657
0.000865637
0.000834364
0.000805579
0.00077905
0.000754568
0.000731947
0.000711017
0.000691625
0.000673635
0.000656923
0.000641378
0.000626899
0.000613395
0.000600784
0.000588992
0.00057795
0.000567599
0.000557882
0.000548749
0.000540154
0.000532057
0.000524419
0.000517205
0.000510383
0.000503926
0.000497807
0.000492001
0.000486486
0.000481242
0.000476251
0.000471496
0.000466959
0.000462628
0.000458488
0.000454528
0.000450735
0.000447099
0.00044361
0.00044026
0.000437039
0.00043394
0.000430955
0.000428078
0.000425303
0.000422622
0.000420032
0.000417527
0.000415101
0.000412751
0.000410472
0.00040826
0.000406112
0.000404024
0.000401994
0.000400017
0.000398092
0.000396216
0.000394386
0.0003926
0.000390857
0.000389155
0.000387492
0.000385867
0.000384279
0.000382726
0.000381209
0.000379726
0.000378278
0.000376863
0.000375484
0.00037414
0.000372832
0.000371561
0.000370329
0.000369137
0.000367988
0.000366884
0.000365829
0.000364826
0.000363879
0.000362993
0.000362172
0.000361422
0.000360749
0.000360161
0.000359662
0.000359262
0.000358966
0.000358781
0.000358711
0.000358757
0.000358916
0.000359174
0.000359508
0.000359874
0.000360203
0.000360394
0.000977119
0.000936711
0.000899657
0.000865637
0.000834364
0.000805579
0.00077905
0.000754568
0.000731947
0.000711017
0.000691625
0.000673635
0.000656923
0.000641378
0.000626899
0.000613395
0.000600784
0.000588992
0.00057795
0.000567599
0.000557882
0.000548749
0.000540155
0.000532057
0.000524419
0.000517205
0.000510384
0.000503927
0.000497807
0.000492001
0.000486486
0.000481243
0.000476252
0.000471496
0.00046696
0.000462628
0.000458489
0.000454528
0.000450735
0.000447099
0.000443611
0.00044026
0.000437039
0.00043394
0.000430956
0.000428079
0.000425303
0.000422623
0.000420033
0.000417528
0.000415102
0.000412752
0.000410473
0.000408261
0.000406113
0.000404026
0.000401995
0.000400019
0.000398093
0.000396217
0.000394387
0.000392602
0.000390859
0.000389157
0.000387494
0.000385869
0.000384281
0.000382728
0.000381211
0.000379728
0.00037828
0.000376866
0.000375487
0.000374142
0.000372834
0.000371563
0.000370331
0.00036914
0.000367991
0.000366887
0.000365832
0.000364829
0.000363882
0.000362995
0.000362174
0.000361425
0.000360752
0.000360163
0.000359665
0.000359264
0.000358968
0.000358783
0.000358713
0.000358759
0.000358917
0.000359176
0.00035951
0.000359875
0.000360204
0.000360395
0.000977119
0.000936711
0.000899657
0.000865637
0.000834364
0.000805579
0.00077905
0.000754569
0.000731947
0.000711017
0.000691625
0.000673635
0.000656924
0.000641379
0.0006269
0.000613396
0.000600785
0.000588992
0.000577951
0.000567599
0.000557882
0.000548749
0.000540155
0.000532058
0.000524419
0.000517205
0.000510384
0.000503927
0.000497808
0.000492002
0.000486487
0.000481244
0.000476253
0.000471497
0.000466961
0.000462629
0.00045849
0.000454529
0.000450736
0.000447101
0.000443612
0.000440262
0.000437041
0.000433942
0.000430958
0.000428081
0.000425305
0.000422625
0.000420035
0.00041753
0.000415104
0.000412754
0.000410475
0.000408264
0.000406116
0.000404028
0.000401998
0.000400022
0.000398097
0.00039622
0.000394391
0.000392606
0.000390863
0.000389161
0.000387498
0.000385873
0.000384285
0.000382733
0.000381215
0.000379733
0.000378284
0.000376871
0.000375491
0.000374147
0.000372839
0.000371569
0.000370336
0.000369145
0.000367996
0.000366893
0.000365838
0.000364834
0.000363887
0.000363001
0.00036218
0.00036143
0.000360757
0.000360168
0.00035967
0.000359269
0.000358973
0.000358787
0.000358716
0.000358762
0.00035892
0.000359179
0.000359512
0.000359878
0.000360206
0.000360397
0.000977119
0.000936711
0.000899657
0.000865637
0.000834364
0.000805579
0.00077905
0.000754569
0.000731947
0.000711017
0.000691625
0.000673635
0.000656924
0.000641379
0.0006269
0.000613396
0.000600785
0.000588992
0.000577951
0.000567599
0.000557883
0.00054875
0.000540156
0.000532058
0.00052442
0.000517206
0.000510385
0.000503928
0.000497809
0.000492003
0.000486488
0.000481245
0.000476254
0.000471498
0.000466962
0.000462631
0.000458491
0.000454531
0.000450738
0.000447103
0.000443614
0.000440264
0.000437043
0.000433944
0.00043096
0.000428083
0.000425308
0.000422628
0.000420038
0.000417533
0.000415107
0.000412758
0.000410479
0.000408268
0.00040612
0.000404033
0.000402002
0.000400026
0.000398101
0.000396225
0.000394396
0.000392611
0.000390868
0.000389166
0.000387504
0.000385879
0.000384291
0.000382739
0.000381222
0.000379739
0.000378291
0.000376878
0.000375499
0.000374155
0.000372847
0.000371576
0.000370344
0.000369153
0.000368004
0.000366901
0.000365846
0.000364843
0.000363895
0.000363009
0.000362188
0.000361438
0.000360765
0.000360175
0.000359677
0.000359276
0.000358979
0.000358793
0.000358722
0.000358767
0.000358925
0.000359183
0.000359516
0.000359881
0.000360209
0.0003604
0.000977119
0.000936711
0.000899657
0.000865637
0.000834364
0.000805579
0.00077905
0.000754569
0.000731947
0.000711017
0.000691626
0.000673636
0.000656924
0.000641379
0.0006269
0.000613396
0.000600785
0.000588993
0.000577951
0.0005676
0.000557883
0.000548751
0.000540157
0.000532059
0.000524421
0.000517207
0.000510386
0.000503929
0.00049781
0.000492004
0.00048649
0.000481246
0.000476256
0.0004715
0.000466964
0.000462633
0.000458494
0.000454533
0.000450741
0.000447105
0.000443617
0.000440267
0.000437046
0.000433947
0.000430963
0.000428087
0.000425312
0.000422632
0.000420042
0.000417537
0.000415112
0.000412762
0.000410484
0.000408273
0.000406125
0.000404038
0.000402008
0.000400032
0.000398107
0.000396231
0.000394402
0.000392617
0.000390875
0.000389174
0.000387511
0.000385887
0.000384299
0.000382747
0.00038123
0.000379748
0.0003783
0.000376887
0.000375508
0.000374164
0.000372857
0.000371586
0.000370354
0.000369163
0.000368014
0.000366911
0.000365856
0.000364853
0.000363906
0.000363019
0.000362198
0.000361448
0.000360775
0.000360185
0.000359686
0.000359285
0.000358988
0.000358801
0.000358729
0.000358774
0.000358931
0.000359188
0.000359521
0.000359886
0.000360214
0.000360404
0.000977119
0.000936711
0.000899657
0.000865637
0.000834364
0.000805579
0.00077905
0.000754569
0.000731948
0.000711017
0.000691626
0.000673636
0.000656924
0.00064138
0.000626901
0.000613397
0.000600786
0.000588994
0.000577952
0.000567601
0.000557884
0.000548752
0.000540157
0.00053206
0.000524422
0.000517208
0.000510388
0.000503931
0.000497811
0.000492006
0.000486491
0.000481248
0.000476258
0.000471502
0.000466966
0.000462635
0.000458496
0.000454536
0.000450744
0.000447108
0.00044362
0.00044027
0.00043705
0.000433951
0.000430967
0.000428091
0.000425316
0.000422637
0.000420047
0.000417542
0.000415117
0.000412768
0.000410489
0.000408279
0.000406131
0.000404044
0.000402015
0.000400039
0.000398115
0.000396239
0.00039441
0.000392626
0.000390884
0.000389182
0.00038752
0.000385896
0.000384309
0.000382757
0.000381241
0.000379759
0.000378311
0.000376898
0.00037552
0.000374176
0.000372869
0.000371599
0.000370367
0.000369176
0.000368027
0.000366924
0.000365869
0.000364866
0.000363919
0.000363032
0.000362211
0.00036146
0.000360787
0.000360197
0.000359698
0.000359296
0.000358998
0.000358811
0.000358739
0.000358783
0.000358939
0.000359195
0.000359527
0.000359891
0.000360219
0.000360409
0.000977119
0.000936711
0.000899657
0.000865637
0.000834364
0.000805579
0.00077905
0.000754569
0.000731948
0.000711018
0.000691626
0.000673636
0.000656925
0.00064138
0.000626901
0.000613397
0.000600787
0.000588994
0.000577953
0.000567602
0.000557885
0.000548753
0.000540159
0.000532062
0.000524424
0.00051721
0.000510389
0.000503932
0.000497813
0.000492008
0.000486494
0.000481251
0.00047626
0.000471505
0.000466969
0.000462638
0.000458499
0.000454539
0.000450747
0.000447112
0.000443624
0.000440274
0.000437054
0.000433956
0.000430972
0.000428096
0.000425321
0.000422642
0.000420053
0.000417548
0.000415123
0.000412774
0.000410496
0.000408286
0.000406139
0.000404052
0.000402023
0.000400047
0.000398123
0.000396248
0.00039442
0.000392636
0.000390894
0.000389193
0.000387531
0.000385908
0.00038432
0.000382769
0.000381253
0.000379771
0.000378324
0.000376911
0.000375533
0.00037419
0.000372883
0.000371613
0.000370382
0.000369191
0.000368042
0.000366939
0.000365885
0.000364882
0.000363934
0.000363048
0.000362226
0.000361475
0.000360801
0.000360211
0.000359711
0.000359309
0.00035901
0.000358822
0.000358749
0.000358792
0.000358948
0.000359203
0.000359534
0.000359898
0.000360225
0.000360415
0.000977119
0.000936711
0.000899657
0.000865637
0.000834364
0.000805579
0.00077905
0.000754569
0.000731948
0.000711018
0.000691626
0.000673637
0.000656925
0.00064138
0.000626902
0.000613398
0.000600787
0.000588995
0.000577954
0.000567603
0.000557886
0.000548754
0.00054016
0.000532063
0.000524425
0.000517212
0.000510391
0.000503934
0.000497815
0.00049201
0.000486496
0.000481253
0.000476263
0.000471508
0.000466972
0.000462642
0.000458503
0.000454543
0.000450751
0.000447116
0.000443628
0.000440279
0.000437059
0.000433961
0.000430977
0.000428102
0.000425327
0.000422648
0.000420059
0.000417555
0.000415131
0.000412782
0.000410504
0.000408294
0.000406147
0.000404061
0.000402032
0.000400057
0.000398133
0.000396259
0.00039443
0.000392647
0.000390906
0.000389205
0.000387544
0.00038592
0.000384334
0.000382783
0.000381267
0.000379786
0.000378339
0.000376927
0.000375549
0.000374206
0.0003729
0.00037163
0.000370399
0.000369208
0.00036806
0.000366957
0.000365902
0.000364899
0.000363952
0.000363065
0.000362243
0.000361492
0.000360818
0.000360227
0.000359727
0.000359324
0.000359024
0.000358836
0.000358762
0.000358804
0.000358958
0.000359213
0.000359543
0.000359905
0.000360232
0.000360421
0.000977119
0.000936711
0.000899657
0.000865637
0.000834364
0.000805579
0.00077905
0.000754569
0.000731948
0.000711018
0.000691627
0.000673637
0.000656926
0.000641381
0.000626902
0.000613399
0.000600788
0.000588996
0.000577955
0.000567604
0.000557887
0.000548755
0.000540161
0.000532065
0.000524427
0.000517213
0.000510393
0.000503936
0.000497818
0.000492013
0.000486499
0.000481256
0.000476266
0.000471511
0.000466976
0.000462645
0.000458507
0.000454547
0.000450755
0.000447121
0.000443633
0.000440284
0.000437064
0.000433967
0.000430984
0.000428108
0.000425334
0.000422655
0.000420067
0.000417563
0.000415139
0.00041279
0.000410513
0.000408303
0.000406157
0.000404071
0.000402042
0.000400068
0.000398145
0.00039627
0.000394443
0.000392659
0.000390919
0.000389219
0.000387558
0.000385935
0.000384349
0.000382798
0.000381283
0.000379802
0.000378356
0.000376944
0.000375567
0.000374224
0.000372918
0.000371649
0.000370418
0.000369227
0.000368079
0.000366977
0.000365922
0.000364919
0.000363972
0.000363085
0.000362263
0.000361511
0.000360837
0.000360245
0.000359744
0.00035934
0.00035904
0.00035885
0.000358775
0.000358816
0.000358969
0.000359223
0.000359552
0.000359914
0.000360239
0.000360428
0.000977119
0.000936711
0.000899657
0.000865637
0.000834364
0.000805579
0.000779051
0.00075457
0.000731949
0.000711018
0.000691627
0.000673638
0.000656926
0.000641382
0.000626903
0.0006134
0.000600789
0.000588997
0.000577956
0.000567605
0.000557889
0.000548757
0.000540163
0.000532066
0.000524429
0.000517215
0.000510395
0.000503939
0.00049782
0.000492015
0.000486502
0.000481259
0.000476269
0.000471515
0.00046698
0.000462649
0.000458511
0.000454552
0.00045076
0.000447126
0.000443639
0.00044029
0.00043707
0.000433973
0.00043099
0.000428115
0.000425341
0.000422663
0.000420075
0.000417571
0.000415148
0.000412799
0.000410523
0.000408313
0.000406167
0.000404082
0.000402054
0.00040008
0.000398157
0.000396283
0.000394456
0.000392673
0.000390933
0.000389233
0.000387573
0.000385951
0.000384365
0.000382815
0.0003813
0.00037982
0.000378374
0.000376963
0.000375586
0.000374244
0.000372938
0.000371669
0.000370439
0.000369249
0.000368101
0.000366998
0.000365944
0.000364941
0.000363994
0.000363106
0.000362284
0.000361532
0.000360857
0.000360265
0.000359763
0.000359358
0.000359058
0.000358867
0.00035879
0.00035883
0.000358982
0.000359234
0.000359562
0.000359923
0.000360248
0.000360437
0.000977119
0.000936711
0.000899657
0.000865637
0.000834364
0.000805579
0.000779051
0.00075457
0.000731949
0.000711019
0.000691627
0.000673638
0.000656927
0.000641382
0.000626904
0.0006134
0.00060079
0.000588998
0.000577957
0.000567606
0.00055789
0.000548758
0.000540165
0.000532068
0.000524431
0.000517218
0.000510398
0.000503941
0.000497823
0.000492018
0.000486505
0.000481263
0.000476273
0.000471519
0.000466984
0.000462654
0.000458516
0.000454557
0.000450765
0.000447131
0.000443644
0.000440296
0.000437077
0.00043398
0.000430997
0.000428123
0.000425349
0.000422671
0.000420083
0.00041758
0.000415157
0.000412809
0.000410533
0.000408324
0.000406179
0.000404094
0.000402066
0.000400093
0.00039817
0.000396297
0.00039447
0.000392688
0.000390948
0.00038925
0.00038759
0.000385968
0.000384383
0.000382834
0.000381319
0.00037984
0.000378394
0.000376983
0.000375607
0.000374266
0.00037296
0.000371692
0.000370461
0.000369272
0.000368124
0.000367022
0.000365967
0.000364965
0.000364017
0.00036313
0.000362307
0.000361555
0.000360879
0.000360287
0.000359784
0.000359378
0.000359076
0.000358884
0.000358807
0.000358845
0.000358996
0.000359246
0.000359573
0.000359933
0.000360257
0.000360445
0.000977119
0.000936711
0.000899657
0.000865638
0.000834364
0.00080558
0.000779051
0.00075457
0.000731949
0.000711019
0.000691628
0.000673638
0.000656927
0.000641383
0.000626904
0.000613401
0.000600791
0.000588999
0.000577958
0.000567608
0.000557891
0.00054876
0.000540166
0.00053207
0.000524433
0.00051722
0.0005104
0.000503944
0.000497826
0.000492021
0.000486508
0.000481266
0.000476277
0.000471523
0.000466988
0.000462659
0.000458521
0.000454562
0.000450771
0.000447137
0.000443651
0.000440302
0.000437084
0.000433987
0.000431005
0.000428131
0.000425358
0.00042268
0.000420093
0.00041759
0.000415167
0.00041282
0.000410544
0.000408336
0.000406191
0.000404107
0.000402079
0.000400106
0.000398185
0.000396312
0.000394486
0.000392704
0.000390965
0.000389267
0.000387608
0.000385986
0.000384402
0.000382853
0.00038134
0.000379861
0.000378416
0.000377005
0.00037563
0.000374289
0.000372984
0.000371715
0.000370486
0.000369296
0.000368149
0.000367047
0.000365993
0.00036499
0.000364042
0.000363155
0.000362332
0.000361579
0.000360903
0.00036031
0.000359806
0.0003594
0.000359096
0.000358903
0.000358824
0.000358861
0.00035901
0.00035926
0.000359585
0.000359943
0.000360266
0.000360454
0.000977119
0.000936711
0.000899657
0.000865638
0.000834364
0.00080558
0.000779051
0.00075457
0.000731949
0.000711019
0.000691628
0.000673639
0.000656928
0.000641383
0.000626905
0.000613402
0.000600792
0.000589
0.000577959
0.000567609
0.000557893
0.000548761
0.000540168
0.000532072
0.000524435
0.000517222
0.000510403
0.000503947
0.000497829
0.000492025
0.000486512
0.00048127
0.000476281
0.000471527
0.000466993
0.000462664
0.000458526
0.000454568
0.000450777
0.000447144
0.000443657
0.00044031
0.000437091
0.000433995
0.000431013
0.000428139
0.000425367
0.00042269
0.000420103
0.000417601
0.000415178
0.000412832
0.000410556
0.000408348
0.000406204
0.00040412
0.000402094
0.000400121
0.0003982
0.000396328
0.000394502
0.000392721
0.000390983
0.000389285
0.000387627
0.000386006
0.000384422
0.000382874
0.000381361
0.000379883
0.000378439
0.000377029
0.000375653
0.000374313
0.000373009
0.000371741
0.000370512
0.000369322
0.000368176
0.000367074
0.000366019
0.000365017
0.000364069
0.000363181
0.000362358
0.000361605
0.000360928
0.000360334
0.00035983
0.000359422
0.000359118
0.000358923
0.000358843
0.000358878
0.000359026
0.000359273
0.000359597
0.000359954
0.000360277
0.000360464
0.000977119
0.000936711
0.000899657
0.000865638
0.000834365
0.00080558
0.000779051
0.000754571
0.00073195
0.00071102
0.000691629
0.000673639
0.000656928
0.000641384
0.000626906
0.000613403
0.000600793
0.000589001
0.000577961
0.00056761
0.000557895
0.000548763
0.00054017
0.000532074
0.000524437
0.000517225
0.000510405
0.00050395
0.000497832
0.000492028
0.000486516
0.000481274
0.000476285
0.000471532
0.000466998
0.000462669
0.000458532
0.000454574
0.000450783
0.00044715
0.000443664
0.000440317
0.000437099
0.000434003
0.000431022
0.000428148
0.000425376
0.0004227
0.000420113
0.000417612
0.00041519
0.000412844
0.000410569
0.000408361
0.000406218
0.000404135
0.000402108
0.000400137
0.000398216
0.000396345
0.00039452
0.000392739
0.000391002
0.000389305
0.000387647
0.000386027
0.000384444
0.000382896
0.000381384
0.000379906
0.000378463
0.000377053
0.000375679
0.000374339
0.000373035
0.000371768
0.000370539
0.00036935
0.000368203
0.000367102
0.000366048
0.000365045
0.000364097
0.000363209
0.000362386
0.000361632
0.000360955
0.00036036
0.000359855
0.000359446
0.00035914
0.000358944
0.000358862
0.000358896
0.000359042
0.000359288
0.00035961
0.000359966
0.000360287
0.000360475
0.000977119
0.000936711
0.000899657
0.000865638
0.000834365
0.00080558
0.000779052
0.000754571
0.00073195
0.00071102
0.000691629
0.00067364
0.000656929
0.000641385
0.000626907
0.000613404
0.000600794
0.000589002
0.000577962
0.000567612
0.000557896
0.000548765
0.000540172
0.000532077
0.00052444
0.000517228
0.000510408
0.000503953
0.000497836
0.000492032
0.00048652
0.000481278
0.00047629
0.000471536
0.000467003
0.000462674
0.000458537
0.00045458
0.00045079
0.000447157
0.000443672
0.000440325
0.000437107
0.000434012
0.000431031
0.000428158
0.000425386
0.00042271
0.000420124
0.000417623
0.000415202
0.000412856
0.000410582
0.000408375
0.000406232
0.000404149
0.000402124
0.000400153
0.000398233
0.000396362
0.000394538
0.000392758
0.000391021
0.000389325
0.000387668
0.000386048
0.000384466
0.000382919
0.000381408
0.00037993
0.000378488
0.000377079
0.000375705
0.000374366
0.000373062
0.000371796
0.000370567
0.000369379
0.000368233
0.000367131
0.000366077
0.000365074
0.000364127
0.000363238
0.000362415
0.000361661
0.000360983
0.000360387
0.00035988
0.00035947
0.000359163
0.000358966
0.000358882
0.000358914
0.000359058
0.000359303
0.000359624
0.000359978
0.000360298
0.000360485
0.000977119
0.000936711
0.000899657
0.000865638
0.000834365
0.00080558
0.000779052
0.000754571
0.00073195
0.00071102
0.00069163
0.00067364
0.00065693
0.000641386
0.000626908
0.000613405
0.000600795
0.000589004
0.000577964
0.000567613
0.000557898
0.000548767
0.000540174
0.000532079
0.000524442
0.00051723
0.000510411
0.000503956
0.000497839
0.000492036
0.000486524
0.000481283
0.000476294
0.000471541
0.000467008
0.00046268
0.000458543
0.000454586
0.000450797
0.000447164
0.000443679
0.000440333
0.000437116
0.000434021
0.00043104
0.000428168
0.000425397
0.000422721
0.000420135
0.000417635
0.000415214
0.000412869
0.000410596
0.000408389
0.000406247
0.000404165
0.00040214
0.000400169
0.00039825
0.00039638
0.000394557
0.000392778
0.000391041
0.000389346
0.000387689
0.000386071
0.000384489
0.000382943
0.000381432
0.000379956
0.000378514
0.000377106
0.000375732
0.000374394
0.000373091
0.000371825
0.000370597
0.000369409
0.000368263
0.000367161
0.000366108
0.000365105
0.000364157
0.000363269
0.000362444
0.00036169
0.000361011
0.000360415
0.000359907
0.000359496
0.000359188
0.000358989
0.000358903
0.000358934
0.000359076
0.000359319
0.000359638
0.000359991
0.00036031
0.000360496
0.000977119
0.000936711
0.000899657
0.000865638
0.000834365
0.00080558
0.000779052
0.000754571
0.00073195
0.000711021
0.00069163
0.000673641
0.00065693
0.000641386
0.000626908
0.000613406
0.000600796
0.000589005
0.000577965
0.000567615
0.0005579
0.000548769
0.000540177
0.000532081
0.000524445
0.000517233
0.000510414
0.00050396
0.000497843
0.000492039
0.000486528
0.000481287
0.000476299
0.000471546
0.000467014
0.000462686
0.000458549
0.000454593
0.000450803
0.000447172
0.000443687
0.000440341
0.000437124
0.00043403
0.00043105
0.000428178
0.000425407
0.000422732
0.000420147
0.000417647
0.000415227
0.000412883
0.00041061
0.000408404
0.000406262
0.000404181
0.000402157
0.000400187
0.000398268
0.000396399
0.000394576
0.000392798
0.000391062
0.000389367
0.000387712
0.000386094
0.000384513
0.000382968
0.000381457
0.000379982
0.00037854
0.000377133
0.00037576
0.000374422
0.00037312
0.000371854
0.000370627
0.000369439
0.000368294
0.000367193
0.000366139
0.000365136
0.000364189
0.0003633
0.000362475
0.00036172
0.000361041
0.000360443
0.000359935
0.000359522
0.000359213
0.000359012
0.000358925
0.000358953
0.000359094
0.000359335
0.000359652
0.000360003
0.000360322
0.000360508
0.000977119
0.000936711
0.000899658
0.000865638
0.000834365
0.00080558
0.000779052
0.000754571
0.000731951
0.000711021
0.00069163
0.000673642
0.000656931
0.000641387
0.000626909
0.000613407
0.000600797
0.000589006
0.000577966
0.000567617
0.000557901
0.000548771
0.000540179
0.000532084
0.000524448
0.000517236
0.000510417
0.000503963
0.000497846
0.000492043
0.000486532
0.000481292
0.000476304
0.000471552
0.000467019
0.000462692
0.000458556
0.000454599
0.00045081
0.000447179
0.000443695
0.000440349
0.000437133
0.000434039
0.00043106
0.000428188
0.000425418
0.000422744
0.000420159
0.00041766
0.00041524
0.000412896
0.000410624
0.000408419
0.000406278
0.000404197
0.000402174
0.000400204
0.000398287
0.000396418
0.000394596
0.000392818
0.000391083
0.000389389
0.000387734
0.000386117
0.000384537
0.000382993
0.000381483
0.000380008
0.000378568
0.000377161
0.000375789
0.000374452
0.00037315
0.000371885
0.000370658
0.000369471
0.000368326
0.000367225
0.000366171
0.000365169
0.000364221
0.000363332
0.000362507
0.000361751
0.000361071
0.000360473
0.000359963
0.000359549
0.000359238
0.000359036
0.000358947
0.000358974
0.000359112
0.000359351
0.000359667
0.000360017
0.000360334
0.000360519
0.000977119
0.000936711
0.000899658
0.000865638
0.000834365
0.00080558
0.000779052
0.000754572
0.000731951
0.000711022
0.000691631
0.000673642
0.000656932
0.000641388
0.00062691
0.000613408
0.000600798
0.000589007
0.000577968
0.000567618
0.000557903
0.000548773
0.000540181
0.000532086
0.00052445
0.000517239
0.000510421
0.000503966
0.00049785
0.000492047
0.000486536
0.000481296
0.000476309
0.000471557
0.000467025
0.000462698
0.000458562
0.000454606
0.000450818
0.000447187
0.000443703
0.000440358
0.000437142
0.000434049
0.00043107
0.000428199
0.000425429
0.000422755
0.000420171
0.000417672
0.000415253
0.00041291
0.000410638
0.000408434
0.000406294
0.000404214
0.000402191
0.000400222
0.000398305
0.000396437
0.000394616
0.000392839
0.000391105
0.000389412
0.000387758
0.000386142
0.000384562
0.000383018
0.00038151
0.000380036
0.000378596
0.00037719
0.000375819
0.000374482
0.000373181
0.000371916
0.00037069
0.000369503
0.000368358
0.000367258
0.000366204
0.000365202
0.000364254
0.000363364
0.000362539
0.000361783
0.000361102
0.000360503
0.000359992
0.000359577
0.000359264
0.00035906
0.00035897
0.000358994
0.000359131
0.000359368
0.000359682
0.00036003
0.000360346
0.000360531
0.000977119
0.000936711
0.000899658
0.000865638
0.000834365
0.000805581
0.000779052
0.000754572
0.000731951
0.000711022
0.000691631
0.000673643
0.000656932
0.000641388
0.000626911
0.000613409
0.000600799
0.000589009
0.000577969
0.00056762
0.000557905
0.000548775
0.000540183
0.000532088
0.000524453
0.000517242
0.000510424
0.00050397
0.000497854
0.000492051
0.00048654
0.000481301
0.000476314
0.000471562
0.00046703
0.000462704
0.000458569
0.000454613
0.000450825
0.000447194
0.000443711
0.000440366
0.000437151
0.000434058
0.00043108
0.000428209
0.00042544
0.000422767
0.000420184
0.000417685
0.000415267
0.000412924
0.000410653
0.00040845
0.00040631
0.00040423
0.000402208
0.000400241
0.000398324
0.000396457
0.000394637
0.000392861
0.000391127
0.000389435
0.000387781
0.000386166
0.000384587
0.000383045
0.000381537
0.000380063
0.000378624
0.000377219
0.000375848
0.000374512
0.000373212
0.000371948
0.000370722
0.000369536
0.000368391
0.000367291
0.000366238
0.000365235
0.000364287
0.000363397
0.000362572
0.000361815
0.000361133
0.000360533
0.000360021
0.000359605
0.00035929
0.000359085
0.000358992
0.000359015
0.00035915
0.000359385
0.000359697
0.000360044
0.000360359
0.000360543
0.000977119
0.000936711
0.000899658
0.000865638
0.000834365
0.000805581
0.000779053
0.000754572
0.000731952
0.000711022
0.000691632
0.000673643
0.000656933
0.000641389
0.000626912
0.00061341
0.0006008
0.00058901
0.000577971
0.000567621
0.000557907
0.000548777
0.000540185
0.000532091
0.000524455
0.000517245
0.000510427
0.000503973
0.000497857
0.000492055
0.000486545
0.000481305
0.000476319
0.000471568
0.000467036
0.00046271
0.000458575
0.00045462
0.000450832
0.000447202
0.000443719
0.000440375
0.00043716
0.000434068
0.00043109
0.00042822
0.000425452
0.000422779
0.000420196
0.000417698
0.000415281
0.000412939
0.000410668
0.000408465
0.000406326
0.000404247
0.000402226
0.000400259
0.000398344
0.000396477
0.000394657
0.000392882
0.00039115
0.000389458
0.000387805
0.000386191
0.000384613
0.000383071
0.000381564
0.000380091
0.000378653
0.000377249
0.000375878
0.000374543
0.000373243
0.00037198
0.000370755
0.000369569
0.000368424
0.000367324
0.000366271
0.000365269
0.000364321
0.000363431
0.000362605
0.000361847
0.000361165
0.000360564
0.000360051
0.000359633
0.000359317
0.00035911
0.000359016
0.000359036
0.000359169
0.000359402
0.000359712
0.000360057
0.000360371
0.000360555
0.000977119
0.000936711
0.000899658
0.000865638
0.000834365
0.000805581
0.000779053
0.000754572
0.000731952
0.000711023
0.000691632
0.000673644
0.000656933
0.00064139
0.000626913
0.000613411
0.000600802
0.000589011
0.000577972
0.000567623
0.000557909
0.000548779
0.000540187
0.000532093
0.000524458
0.000517248
0.00051043
0.000503977
0.000497861
0.000492059
0.000486549
0.00048131
0.000476324
0.000471573
0.000467042
0.000462716
0.000458582
0.000454627
0.00045084
0.00044721
0.000443728
0.000440384
0.00043717
0.000434078
0.0004311
0.000428231
0.000425463
0.000422791
0.000420209
0.000417711
0.000415294
0.000412953
0.000410683
0.000408481
0.000406343
0.000404265
0.000402244
0.000400278
0.000398363
0.000396497
0.000394678
0.000392904
0.000391172
0.000389481
0.000387829
0.000386216
0.000384639
0.000383097
0.000381591
0.000380119
0.000378682
0.000377278
0.000375909
0.000374574
0.000373275
0.000372012
0.000370787
0.000369602
0.000368458
0.000367358
0.000366305
0.000365303
0.000364354
0.000363465
0.000362638
0.00036188
0.000361197
0.000360595
0.00036008
0.000359661
0.000359344
0.000359135
0.000359039
0.000359058
0.000359188
0.000359419
0.000359727
0.000360071
0.000360384
0.000360567
0.000977119
0.000936711
0.000899658
0.000865638
0.000834365
0.000805581
0.000779053
0.000754573
0.000731952
0.000711023
0.000691633
0.000673644
0.000656934
0.000641391
0.000626913
0.000613412
0.000600803
0.000589012
0.000577973
0.000567624
0.00055791
0.000548781
0.00054019
0.000532096
0.000524461
0.00051725
0.000510433
0.00050398
0.000497865
0.000492063
0.000486553
0.000481315
0.000476329
0.000471578
0.000467047
0.000462722
0.000458588
0.000454634
0.000450847
0.000447218
0.000443736
0.000440392
0.000437179
0.000434087
0.00043111
0.000428242
0.000425474
0.000422803
0.000420221
0.000417724
0.000415308
0.000412967
0.000410698
0.000408497
0.000406359
0.000404282
0.000402262
0.000400296
0.000398382
0.000396517
0.000394699
0.000392926
0.000391195
0.000389504
0.000387854
0.000386241
0.000384664
0.000383124
0.000381618
0.000380147
0.000378711
0.000377308
0.000375939
0.000374605
0.000373307
0.000372045
0.00037082
0.000369635
0.000368492
0.000367392
0.000366339
0.000365337
0.000364388
0.000363498
0.000362671
0.000361913
0.000361229
0.000360626
0.00036011
0.00035969
0.000359371
0.00035916
0.000359062
0.000359079
0.000359207
0.000359436
0.000359743
0.000360085
0.000360396
0.000360579
0.000977119
0.000936711
0.000899658
0.000865638
0.000834365
0.000805581
0.000779053
0.000754573
0.000731952
0.000711023
0.000691633
0.000673645
0.000656935
0.000641391
0.000626914
0.000613412
0.000600804
0.000589014
0.000577975
0.000567626
0.000557912
0.000548783
0.000540192
0.000532098
0.000524463
0.000517253
0.000510436
0.000503983
0.000497868
0.000492067
0.000486558
0.000481319
0.000476334
0.000471584
0.000467053
0.000462728
0.000458594
0.00045464
0.000450854
0.000447225
0.000443744
0.000440401
0.000437188
0.000434097
0.000431121
0.000428252
0.000425486
0.000422814
0.000420234
0.000417738
0.000415322
0.000412982
0.000410713
0.000408512
0.000406375
0.000404299
0.00040228
0.000400315
0.000398402
0.000396537
0.00039472
0.000392947
0.000391217
0.000389528
0.000387878
0.000386265
0.00038469
0.00038315
0.000381646
0.000380176
0.00037874
0.000377337
0.00037597
0.000374636
0.000373338
0.000372077
0.000370853
0.000369668
0.000368525
0.000367426
0.000366373
0.000365371
0.000364422
0.000363532
0.000362704
0.000361945
0.000361261
0.000360657
0.00036014
0.000359718
0.000359398
0.000359185
0.000359085
0.0003591
0.000359227
0.000359454
0.000359758
0.000360099
0.000360409
0.000360591
0.000977119
0.000936711
0.000899658
0.000865638
0.000834366
0.000805581
0.000779053
0.000754573
0.000731953
0.000711024
0.000691633
0.000673645
0.000656935
0.000641392
0.000626915
0.000613413
0.000600805
0.000589015
0.000577976
0.000567628
0.000557914
0.000548784
0.000540194
0.0005321
0.000524466
0.000517256
0.000510439
0.000503987
0.000497872
0.000492071
0.000486562
0.000481324
0.000476339
0.000471589
0.000467059
0.000462734
0.000458601
0.000454647
0.000450861
0.000447233
0.000443752
0.00044041
0.000437197
0.000434107
0.000431131
0.000428263
0.000425497
0.000422826
0.000420246
0.000417751
0.000415335
0.000412996
0.000410728
0.000408528
0.000406392
0.000404316
0.000402297
0.000400333
0.000398421
0.000396557
0.000394741
0.000392969
0.000391239
0.000389551
0.000387902
0.00038629
0.000384716