/*--------------------------------*- C++ -*----------------------------------*\
  =========                 |
  \\      /  F ield         | OpenFOAM: The Open Source CFD Toolbox
   \\    /   O peration     | Website:  https://openfoam.org
    \\  /    A nd           | Version:  11
     \\/     M anipulation  |
\*---------------------------------------------------------------------------*/
FoamFile
{
    format      ascii;
    class       volVectorField;
    location    "1290";
    object      U;
}
// * * * * * * * * * * * * * * * * * * * * * * * * * * * * * * * * * * * * * //

dimensions      [0 1 -1 0 0 0 0];

internalField   nonuniform List<vector> 
10000
(
(0.005 -2.90751e-11 0)
(0.005 -8.24674e-11 0)
(0.005 -1.34539e-10 0)
(0.005 -1.86659e-10 0)
(0.005 -2.39613e-10 0)
(0.005 -2.9395e-10 0)
(0.005 -3.50069e-10 0)
(0.005 -4.08287e-10 0)
(0.005 -4.68864e-10 0)
(0.005 -5.32027e-10 0)
(0.005 -5.97983e-10 0)
(0.005 -6.66923e-10 0)
(0.005 -7.39027e-10 0)
(0.005 -8.14471e-10 0)
(0.005 -8.93422e-10 0)
(0.005 -9.76048e-10 0)
(0.005 -1.06251e-09 0)
(0.005 -1.15297e-09 0)
(0.005 -1.2476e-09 0)
(0.005 -1.34654e-09 0)
(0.005 -1.44997e-09 0)
(0.005 -1.55804e-09 0)
(0.005 -1.67091e-09 0)
(0.005 -1.78874e-09 0)
(0.005 -1.91169e-09 0)
(0.005 -2.03993e-09 0)
(0.005 -2.17361e-09 0)
(0.005 -2.3129e-09 0)
(0.005 -2.45795e-09 0)
(0.005 -2.60893e-09 0)
(0.005 -2.766e-09 0)
(0.005 -2.92931e-09 0)
(0.005 -3.09904e-09 0)
(0.005 -3.27534e-09 0)
(0.005 -3.45836e-09 0)
(0.005 -3.64827e-09 0)
(0.005 -3.84523e-09 0)
(0.005 -4.04939e-09 0)
(0.005 -4.2609e-09 0)
(0.005 -4.47993e-09 0)
(0.005 -4.70662e-09 0)
(0.005 -4.94113e-09 0)
(0.005 -5.18361e-09 0)
(0.005 -5.4342e-09 0)
(0.005 -5.69305e-09 0)
(0.005 -5.9603e-09 0)
(0.005 -6.23611e-09 0)
(0.005 -6.5206e-09 0)
(0.005 -6.81392e-09 0)
(0.00499999 -7.11621e-09 0)
(0.00499999 -7.4276e-09 0)
(0.00499999 -7.74823e-09 0)
(0.00499999 -8.07821e-09 0)
(0.00499999 -8.41769e-09 0)
(0.00499999 -8.7668e-09 0)
(0.00499999 -9.12564e-09 0)
(0.00499999 -9.49435e-09 0)
(0.00499999 -9.87304e-09 0)
(0.00499999 -1.02618e-08 0)
(0.00499999 -1.06608e-08 0)
(0.00499999 -1.10701e-08 0)
(0.00499999 -1.14899e-08 0)
(0.00499999 -1.19201e-08 0)
(0.00499999 -1.2361e-08 0)
(0.00499999 -1.28125e-08 0)
(0.00499999 -1.32748e-08 0)
(0.00499999 -1.37479e-08 0)
(0.00499999 -1.42318e-08 0)
(0.00499998 -1.47266e-08 0)
(0.00499998 -1.52321e-08 0)
(0.00499998 -1.57485e-08 0)
(0.00499998 -1.62755e-08 0)
(0.00499998 -1.6813e-08 0)
(0.00499998 -1.73608e-08 0)
(0.00499998 -1.79187e-08 0)
(0.00499998 -1.84861e-08 0)
(0.00499998 -1.90626e-08 0)
(0.00499998 -1.96475e-08 0)
(0.00499998 -2.024e-08 0)
(0.00499997 -2.08391e-08 0)
(0.00499997 -2.14434e-08 0)
(0.00499997 -2.20513e-08 0)
(0.00499997 -2.26609e-08 0)
(0.00499997 -2.32699e-08 0)
(0.00499997 -2.38753e-08 0)
(0.00499997 -2.44737e-08 0)
(0.00499997 -2.50611e-08 0)
(0.00499996 -2.56325e-08 0)
(0.00499996 -2.61823e-08 0)
(0.00499996 -2.67039e-08 0)
(0.00499996 -2.71896e-08 0)
(0.00499996 -2.7631e-08 0)
(0.00499996 -2.80199e-08 0)
(0.00499996 -2.83488e-08 0)
(0.00499996 -2.86063e-08 0)
(0.00499996 -2.87689e-08 0)
(0.00499996 -2.88229e-08 0)
(0.00499995 -2.87673e-08 0)
(0.00499995 -2.86266e-08 0)
(0.00499995 -2.84944e-08 0)
(0.005 -2.5573e-11 0)
(0.005 -7.58485e-11 0)
(0.005 -1.25905e-10 0)
(0.005 -1.76185e-10 0)
(0.005 -2.2732e-10 0)
(0.005 -2.7979e-10 0)
(0.005 -3.33959e-10 0)
(0.005 -3.90121e-10 0)
(0.005 -4.48522e-10 0)
(0.005 -5.09375e-10 0)
(0.005 -5.72877e-10 0)
(0.005 -6.39207e-10 0)
(0.005 -7.08536e-10 0)
(0.005 -7.81028e-10 0)
(0.005 -8.56842e-10 0)
(0.005 -9.36133e-10 0)
(0.005 -1.01906e-09 0)
(0.005 -1.10576e-09 0)
(0.005 -1.19639e-09 0)
(0.005 -1.2911e-09 0)
(0.005 -1.39005e-09 0)
(0.005 -1.49336e-09 0)
(0.005 -1.6012e-09 0)
(0.005 -1.71371e-09 0)
(0.005 -1.83103e-09 0)
(0.005 -1.95332e-09 0)
(0.005 -2.08072e-09 0)
(0.005 -2.21337e-09 0)
(0.005 -2.35142e-09 0)
(0.005 -2.49502e-09 0)
(0.005 -2.64432e-09 0)
(0.005 -2.79944e-09 0)
(0.005 -2.96055e-09 0)
(0.005 -3.12778e-09 0)
(0.005 -3.30127e-09 0)
(0.005 -3.48116e-09 0)
(0.005 -3.6676e-09 0)
(0.005 -3.86072e-09 0)
(0.005 -4.06065e-09 0)
(0.005 -4.26754e-09 0)
(0.005 -4.48152e-09 0)
(0.005 -4.70271e-09 0)
(0.005 -4.93125e-09 0)
(0.005 -5.16727e-09 0)
(0.005 -5.4109e-09 0)
(0.005 -5.66226e-09 0)
(0.005 -5.92148e-09 0)
(0.005 -6.18868e-09 0)
(0.005 -6.46397e-09 0)
(0.00499999 -6.74749e-09 0)
(0.00499999 -7.03935e-09 0)
(0.00499999 -7.33967e-09 0)
(0.00499999 -7.64857e-09 0)
(0.00499999 -7.96616e-09 0)
(0.00499999 -8.29257e-09 0)
(0.00499999 -8.6279e-09 0)
(0.00499999 -8.97227e-09 0)
(0.00499999 -9.32581e-09 0)
(0.00499999 -9.68863e-09 0)
(0.00499999 -1.00608e-08 0)
(0.00499999 -1.04426e-08 0)
(0.00499999 -1.08339e-08 0)
(0.00499999 -1.1235e-08 0)
(0.00499999 -1.1646e-08 0)
(0.00499999 -1.20669e-08 0)
(0.00499999 -1.24979e-08 0)
(0.00499999 -1.29391e-08 0)
(0.00499999 -1.33906e-08 0)
(0.00499998 -1.38524e-08 0)
(0.00499998 -1.43246e-08 0)
(0.00499998 -1.48074e-08 0)
(0.00499998 -1.53006e-08 0)
(0.00499998 -1.58043e-08 0)
(0.00499998 -1.63184e-08 0)
(0.00499998 -1.68427e-08 0)
(0.00499998 -1.73772e-08 0)
(0.00499998 -1.79215e-08 0)
(0.00499998 -1.84752e-08 0)
(0.00499998 -1.90378e-08 0)
(0.00499997 -1.96085e-08 0)
(0.00499997 -2.01865e-08 0)
(0.00499997 -2.07705e-08 0)
(0.00499997 -2.13592e-08 0)
(0.00499997 -2.19507e-08 0)
(0.00499997 -2.25427e-08 0)
(0.00499997 -2.31326e-08 0)
(0.00499997 -2.37169e-08 0)
(0.00499997 -2.42917e-08 0)
(0.00499996 -2.48522e-08 0)
(0.00499996 -2.5393e-08 0)
(0.00499996 -2.59076e-08 0)
(0.00499996 -2.63888e-08 0)
(0.00499996 -2.68276e-08 0)
(0.00499996 -2.72115e-08 0)
(0.00499996 -2.75261e-08 0)
(0.00499996 -2.77658e-08 0)
(0.00499996 -2.7933e-08 0)
(0.00499995 -2.80345e-08 0)
(0.00499995 -2.80777e-08 0)
(0.00499995 -2.81108e-08 0)
(0.005 -2.27733e-11 0)
(0.005 -6.97195e-11 0)
(0.005 -1.17448e-10 0)
(0.005 -1.65782e-10 0)
(0.005 -2.1507e-10 0)
(0.005 -2.65683e-10 0)
(0.005 -3.17931e-10 0)
(0.005 -3.72075e-10 0)
(0.005 -4.28344e-10 0)
(0.005 -4.86938e-10 0)
(0.005 -5.48039e-10 0)
(0.005 -6.11819e-10 0)
(0.005 -6.78438e-10 0)
(0.005 -7.4805e-10 0)
(0.005 -8.20804e-10 0)
(0.005 -8.96844e-10 0)
(0.005 -9.76314e-10 0)
(0.005 -1.05935e-09 0)
(0.005 -1.1461e-09 0)
(0.005 -1.2367e-09 0)
(0.005 -1.33127e-09 0)
(0.005 -1.42997e-09 0)
(0.005 -1.53292e-09 0)
(0.005 -1.64025e-09 0)
(0.005 -1.75211e-09 0)
(0.005 -1.86862e-09 0)
(0.005 -1.98992e-09 0)
(0.005 -2.11613e-09 0)
(0.005 -2.2474e-09 0)
(0.005 -2.38384e-09 0)
(0.005 -2.52559e-09 0)
(0.005 -2.67278e-09 0)
(0.005 -2.82554e-09 0)
(0.005 -2.98398e-09 0)
(0.005 -3.14824e-09 0)
(0.005 -3.31843e-09 0)
(0.005 -3.49469e-09 0)
(0.005 -3.67712e-09 0)
(0.005 -3.86585e-09 0)
(0.005 -4.061e-09 0)
(0.005 -4.26268e-09 0)
(0.005 -4.471e-09 0)
(0.005 -4.68608e-09 0)
(0.005 -4.90802e-09 0)
(0.005 -5.13695e-09 0)
(0.005 -5.37296e-09 0)
(0.005 -5.61615e-09 0)
(0.005 -5.86665e-09 0)
(0.005 -6.12455e-09 0)
(0.00499999 -6.38996e-09 0)
(0.00499999 -6.66297e-09 0)
(0.00499999 -6.94371e-09 0)
(0.00499999 -7.23227e-09 0)
(0.00499999 -7.52875e-09 0)
(0.00499999 -7.83328e-09 0)
(0.00499999 -8.14595e-09 0)
(0.00499999 -8.46687e-09 0)
(0.00499999 -8.79618e-09 0)
(0.00499999 -9.13397e-09 0)
(0.00499999 -9.48038e-09 0)
(0.00499999 -9.83554e-09 0)
(0.00499999 -1.01996e-08 0)
(0.00499999 -1.05726e-08 0)
(0.00499999 -1.09548e-08 0)
(0.00499999 -1.13463e-08 0)
(0.00499999 -1.17472e-08 0)
(0.00499999 -1.21577e-08 0)
(0.00499999 -1.2578e-08 0)
(0.00499998 -1.30081e-08 0)
(0.00499998 -1.34484e-08 0)
(0.00499998 -1.38988e-08 0)
(0.00499998 -1.43595e-08 0)
(0.00499998 -1.48307e-08 0)
(0.00499998 -1.53124e-08 0)
(0.00499998 -1.58046e-08 0)
(0.00499998 -1.63074e-08 0)
(0.00499998 -1.68208e-08 0)
(0.00499998 -1.73444e-08 0)
(0.00499998 -1.78782e-08 0)
(0.00499997 -1.84217e-08 0)
(0.00499997 -1.89744e-08 0)
(0.00499997 -1.95355e-08 0)
(0.00499997 -2.0104e-08 0)
(0.00499997 -2.06786e-08 0)
(0.00499997 -2.12575e-08 0)
(0.00499997 -2.18388e-08 0)
(0.00499997 -2.24198e-08 0)
(0.00499997 -2.29973e-08 0)
(0.00499996 -2.35674e-08 0)
(0.00499996 -2.41254e-08 0)
(0.00499996 -2.46658e-08 0)
(0.00499996 -2.5182e-08 0)
(0.00499996 -2.56659e-08 0)
(0.00499996 -2.61078e-08 0)
(0.00499996 -2.64992e-08 0)
(0.00499996 -2.68341e-08 0)
(0.00499996 -2.7108e-08 0)
(0.00499996 -2.73185e-08 0)
(0.00499995 -2.74686e-08 0)
(0.00499995 -2.75717e-08 0)
(0.005 -2.08585e-11 0)
(0.005 -6.48035e-11 0)
(0.005 -1.1019e-10 0)
(0.005 -1.56554e-10 0)
(0.005 -2.04036e-10 0)
(0.005 -2.52885e-10 0)
(0.005 -3.03342e-10 0)
(0.005 -3.55628e-10 0)
(0.005 -4.09946e-10 0)
(0.005 -4.66479e-10 0)
(0.005 -5.25396e-10 0)
(0.005 -5.86858e-10 0)
(0.005 -6.51014e-10 0)
(0.005 -7.18009e-10 0)
(0.005 -7.87982e-10 0)
(0.005 -8.6107e-10 0)
(0.005 -9.37405e-10 0)
(0.005 -1.01712e-09 0)
(0.005 -1.10034e-09 0)
(0.005 -1.18719e-09 0)
(0.005 -1.2778e-09 0)
(0.005 -1.3723e-09 0)
(0.005 -1.47081e-09 0)
(0.005 -1.57344e-09 0)
(0.005 -1.68033e-09 0)
(0.005 -1.7916e-09 0)
(0.005 -1.90736e-09 0)
(0.005 -2.02773e-09 0)
(0.005 -2.15283e-09 0)
(0.005 -2.28277e-09 0)
(0.005 -2.41768e-09 0)
(0.005 -2.55766e-09 0)
(0.005 -2.70283e-09 0)
(0.005 -2.8533e-09 0)
(0.005 -3.00918e-09 0)
(0.005 -3.17057e-09 0)
(0.005 -3.33758e-09 0)
(0.005 -3.51032e-09 0)
(0.005 -3.68889e-09 0)
(0.005 -3.87338e-09 0)
(0.005 -4.0639e-09 0)
(0.005 -4.26054e-09 0)
(0.005 -4.46341e-09 0)
(0.005 -4.67258e-09 0)
(0.005 -4.88817e-09 0)
(0.005 -5.11025e-09 0)
(0.005 -5.33892e-09 0)
(0.005 -5.57427e-09 0)
(0.005 -5.81638e-09 0)
(0.00499999 -6.06536e-09 0)
(0.00499999 -6.3213e-09 0)
(0.00499999 -6.58427e-09 0)
(0.00499999 -6.85439e-09 0)
(0.00499999 -7.13174e-09 0)
(0.00499999 -7.41642e-09 0)
(0.00499999 -7.70855e-09 0)
(0.00499999 -8.00822e-09 0)
(0.00499999 -8.31555e-09 0)
(0.00499999 -8.63067e-09 0)
(0.00499999 -8.95369e-09 0)
(0.00499999 -9.28476e-09 0)
(0.00499999 -9.62402e-09 0)
(0.00499999 -9.97162e-09 0)
(0.00499999 -1.03277e-08 0)
(0.00499999 -1.06925e-08 0)
(0.00499999 -1.10662e-08 0)
(0.00499999 -1.14489e-08 0)
(0.00499999 -1.18409e-08 0)
(0.00499998 -1.22423e-08 0)
(0.00499998 -1.26535e-08 0)
(0.00499998 -1.30746e-08 0)
(0.00499998 -1.35059e-08 0)
(0.00499998 -1.39475e-08 0)
(0.00499998 -1.43998e-08 0)
(0.00499998 -1.48629e-08 0)
(0.00499998 -1.53369e-08 0)
(0.00499998 -1.58221e-08 0)
(0.00499998 -1.63184e-08 0)
(0.00499998 -1.6826e-08 0)
(0.00499997 -1.73446e-08 0)
(0.00499997 -1.78741e-08 0)
(0.00499997 -1.84141e-08 0)
(0.00499997 -1.89639e-08 0)
(0.00499997 -1.95227e-08 0)
(0.00499997 -2.00893e-08 0)
(0.00499997 -2.06622e-08 0)
(0.00499997 -2.12393e-08 0)
(0.00499997 -2.1818e-08 0)
(0.00499996 -2.23952e-08 0)
(0.00499996 -2.29669e-08 0)
(0.00499996 -2.35282e-08 0)
(0.00499996 -2.40733e-08 0)
(0.00499996 -2.45949e-08 0)
(0.00499996 -2.50849e-08 0)
(0.00499996 -2.55358e-08 0)
(0.00499996 -2.59409e-08 0)
(0.00499996 -2.62935e-08 0)
(0.00499996 -2.65851e-08 0)
(0.00499995 -2.68062e-08 0)
(0.00499995 -2.69187e-08 0)
(0.005 -1.93286e-11 0)
(0.005 -6.05149e-11 0)
(0.005 -1.0353e-10 0)
(0.005 -1.47821e-10 0)
(0.005 -1.934e-10 0)
(0.005 -2.40417e-10 0)
(0.005 -2.89042e-10 0)
(0.005 -3.39452e-10 0)
(0.005 -3.91816e-10 0)
(0.005 -4.46298e-10 0)
(0.005 -5.0305e-10 0)
(0.005 -5.62218e-10 0)
(0.005 -6.23941e-10 0)
(0.005 -6.88353e-10 0)
(0.005 -7.55584e-10 0)
(0.005 -8.2576e-10 0)
(0.005 -8.99005e-10 0)
(0.005 -9.75439e-10 0)
(0.005 -1.05518e-09 0)
(0.005 -1.13835e-09 0)
(0.005 -1.22506e-09 0)
(0.005 -1.31542e-09 0)
(0.005 -1.40955e-09 0)
(0.005 -1.50756e-09 0)
(0.005 -1.60956e-09 0)
(0.005 -1.71566e-09 0)
(0.005 -1.82596e-09 0)
(0.005 -1.94057e-09 0)
(0.005 -2.0596e-09 0)
(0.005 -2.18315e-09 0)
(0.005 -2.31132e-09 0)
(0.005 -2.44421e-09 0)
(0.005 -2.58192e-09 0)
(0.005 -2.72454e-09 0)
(0.005 -2.87217e-09 0)
(0.005 -3.0249e-09 0)
(0.005 -3.18282e-09 0)
(0.005 -3.34602e-09 0)
(0.005 -3.51458e-09 0)
(0.005 -3.68859e-09 0)
(0.005 -3.86814e-09 0)
(0.005 -4.05329e-09 0)
(0.005 -4.24414e-09 0)
(0.005 -4.44076e-09 0)
(0.005 -4.64323e-09 0)
(0.005 -4.85161e-09 0)
(0.005 -5.066e-09 0)
(0.005 -5.28646e-09 0)
(0.005 -5.51307e-09 0)
(0.00499999 -5.7459e-09 0)
(0.00499999 -5.98504e-09 0)
(0.00499999 -6.23056e-09 0)
(0.00499999 -6.48255e-09 0)
(0.00499999 -6.7411e-09 0)
(0.00499999 -7.00629e-09 0)
(0.00499999 -7.27823e-09 0)
(0.00499999 -7.55702e-09 0)
(0.00499999 -7.84277e-09 0)
(0.00499999 -8.1356e-09 0)
(0.00499999 -8.43565e-09 0)
(0.00499999 -8.74306e-09 0)
(0.00499999 -9.05799e-09 0)
(0.00499999 -9.3806e-09 0)
(0.00499999 -9.71109e-09 0)
(0.00499999 -1.00497e-08 0)
(0.00499999 -1.03965e-08 0)
(0.00499999 -1.07519e-08 0)
(0.00499999 -1.11161e-08 0)
(0.00499999 -1.14894e-08 0)
(0.00499998 -1.1872e-08 0)
(0.00499998 -1.22643e-08 0)
(0.00499998 -1.26666e-08 0)
(0.00499998 -1.30792e-08 0)
(0.00499998 -1.35025e-08 0)
(0.00499998 -1.39369e-08 0)
(0.00499998 -1.43826e-08 0)
(0.00499998 -1.484e-08 0)
(0.00499998 -1.53094e-08 0)
(0.00499998 -1.5791e-08 0)
(0.00499998 -1.6285e-08 0)
(0.00499997 -1.67914e-08 0)
(0.00499997 -1.73103e-08 0)
(0.00499997 -1.78414e-08 0)
(0.00499997 -1.83841e-08 0)
(0.00499997 -1.89379e-08 0)
(0.00499997 -1.95016e-08 0)
(0.00499997 -2.00738e-08 0)
(0.00499997 -2.06525e-08 0)
(0.00499997 -2.12351e-08 0)
(0.00499996 -2.18182e-08 0)
(0.00499996 -2.23977e-08 0)
(0.00499996 -2.29682e-08 0)
(0.00499996 -2.35236e-08 0)
(0.00499996 -2.40564e-08 0)
(0.00499996 -2.45589e-08 0)
(0.00499996 -2.50229e-08 0)
(0.00499996 -2.54382e-08 0)
(0.00499996 -2.57897e-08 0)
(0.00499995 -2.6054e-08 0)
(0.00499995 -2.61897e-08 0)
(0.005 -1.79994e-11 0)
(0.005 -5.66413e-11 0)
(0.005 -9.73253e-11 0)
(0.005 -1.39494e-10 0)
(0.005 -1.83095e-10 0)
(0.005 -2.28206e-10 0)
(0.005 -2.7494e-10 0)
(0.005 -3.23428e-10 0)
(0.005 -3.7381e-10 0)
(0.005 -4.26221e-10 0)
(0.005 -4.80797e-10 0)
(0.005 -5.37668e-10 0)
(0.005 -5.96961e-10 0)
(0.005 -6.58798e-10 0)
(0.005 -7.23297e-10 0)
(0.005 -7.90576e-10 0)
(0.005 -8.60747e-10 0)
(0.005 -9.33921e-10 0)
(0.005 -1.01021e-09 0)
(0.005 -1.08971e-09 0)
(0.005 -1.17254e-09 0)
(0.005 -1.2588e-09 0)
(0.005 -1.34859e-09 0)
(0.005 -1.44201e-09 0)
(0.005 -1.53915e-09 0)
(0.005 -1.64012e-09 0)
(0.005 -1.74501e-09 0)
(0.005 -1.85392e-09 0)
(0.005 -1.96693e-09 0)
(0.005 -2.08413e-09 0)
(0.005 -2.20562e-09 0)
(0.005 -2.33148e-09 0)
(0.005 -2.46179e-09 0)
(0.005 -2.59663e-09 0)
(0.005 -2.73609e-09 0)
(0.005 -2.88023e-09 0)
(0.005 -3.02914e-09 0)
(0.005 -3.18289e-09 0)
(0.005 -3.34155e-09 0)
(0.005 -3.50518e-09 0)
(0.005 -3.67386e-09 0)
(0.005 -3.84764e-09 0)
(0.005 -4.0266e-09 0)
(0.005 -4.21079e-09 0)
(0.005 -4.40027e-09 0)
(0.005 -4.59511e-09 0)
(0.005 -4.79537e-09 0)
(0.005 -5.0011e-09 0)
(0.005 -5.21236e-09 0)
(0.005 -5.42923e-09 0)
(0.00499999 -5.65176e-09 0)
(0.00499999 -5.88003e-09 0)
(0.00499999 -6.1141e-09 0)
(0.00499999 -6.35406e-09 0)
(0.00499999 -6.59999e-09 0)
(0.00499999 -6.85197e-09 0)
(0.00499999 -7.11012e-09 0)
(0.00499999 -7.37455e-09 0)
(0.00499999 -7.64537e-09 0)
(0.00499999 -7.92272e-09 0)
(0.00499999 -8.20675e-09 0)
(0.00499999 -8.49764e-09 0)
(0.00499999 -8.79558e-09 0)
(0.00499999 -9.10076e-09 0)
(0.00499999 -9.41342e-09 0)
(0.00499999 -9.73381e-09 0)
(0.00499999 -1.00622e-08 0)
(0.00499999 -1.0399e-08 0)
(0.00499999 -1.07443e-08 0)
(0.00499998 -1.10987e-08 0)
(0.00499998 -1.14626e-08 0)
(0.00499998 -1.18362e-08 0)
(0.00499998 -1.22201e-08 0)
(0.00499998 -1.26148e-08 0)
(0.00499998 -1.30207e-08 0)
(0.00499998 -1.34383e-08 0)
(0.00499998 -1.38682e-08 0)
(0.00499998 -1.43108e-08 0)
(0.00499998 -1.47666e-08 0)
(0.00499998 -1.5236e-08 0)
(0.00499997 -1.57194e-08 0)
(0.00499997 -1.6217e-08 0)
(0.00499997 -1.6729e-08 0)
(0.00499997 -1.72553e-08 0)
(0.00499997 -1.77957e-08 0)
(0.00499997 -1.83494e-08 0)
(0.00499997 -1.89156e-08 0)
(0.00499997 -1.94928e-08 0)
(0.00499997 -2.00789e-08 0)
(0.00499996 -2.06711e-08 0)
(0.00499996 -2.12658e-08 0)
(0.00499996 -2.18583e-08 0)
(0.00499996 -2.24428e-08 0)
(0.00499996 -2.30121e-08 0)
(0.00499996 -2.35578e-08 0)
(0.00499996 -2.407e-08 0)
(0.00499996 -2.45351e-08 0)
(0.00499996 -2.49334e-08 0)
(0.00499996 -2.52359e-08 0)
(0.00499995 -2.54101e-08 0)
(0.005 -1.68227e-11 0)
(0.005 -5.31215e-11 0)
(0.005 -9.15627e-11 0)
(0.005 -1.31621e-10 0)
(0.005 -1.73215e-10 0)
(0.005 -2.16378e-10 0)
(0.005 -2.61181e-10 0)
(0.005 -3.07718e-10 0)
(0.005 -3.56095e-10 0)
(0.005 -4.06426e-10 0)
(0.005 -4.58825e-10 0)
(0.005 -5.13406e-10 0)
(0.005 -5.70282e-10 0)
(0.005 -6.29564e-10 0)
(0.005 -6.91357e-10 0)
(0.005 -7.55769e-10 0)
(0.005 -8.22902e-10 0)
(0.005 -8.92857e-10 0)
(0.005 -9.65732e-10 0)
(0.005 -1.04163e-09 0)
(0.005 -1.12063e-09 0)
(0.005 -1.20284e-09 0)
(0.005 -1.28835e-09 0)
(0.005 -1.37724e-09 0)
(0.005 -1.4696e-09 0)
(0.005 -1.56552e-09 0)
(0.005 -1.66508e-09 0)
(0.005 -1.76837e-09 0)
(0.005 -1.87545e-09 0)
(0.005 -1.98641e-09 0)
(0.005 -2.10133e-09 0)
(0.005 -2.22026e-09 0)
(0.005 -2.34329e-09 0)
(0.005 -2.47049e-09 0)
(0.005 -2.60191e-09 0)
(0.005 -2.73761e-09 0)
(0.005 -2.87767e-09 0)
(0.005 -3.02213e-09 0)
(0.005 -3.17105e-09 0)
(0.005 -3.32449e-09 0)
(0.005 -3.48249e-09 0)
(0.005 -3.64511e-09 0)
(0.005 -3.81239e-09 0)
(0.005 -3.98438e-09 0)
(0.005 -4.16112e-09 0)
(0.005 -4.34266e-09 0)
(0.005 -4.52905e-09 0)
(0.005 -4.72033e-09 0)
(0.005 -4.91654e-09 0)
(0.005 -5.11775e-09 0)
(0.00499999 -5.32399e-09 0)
(0.00499999 -5.53534e-09 0)
(0.00499999 -5.75185e-09 0)
(0.00499999 -5.97358e-09 0)
(0.00499999 -6.20063e-09 0)
(0.00499999 -6.43306e-09 0)
(0.00499999 -6.67099e-09 0)
(0.00499999 -6.91452e-09 0)
(0.00499999 -7.16377e-09 0)
(0.00499999 -7.41888e-09 0)
(0.00499999 -7.68003e-09 0)
(0.00499999 -7.94737e-09 0)
(0.00499999 -8.22113e-09 0)
(0.00499999 -8.50152e-09 0)
(0.00499999 -8.78882e-09 0)
(0.00499999 -9.08329e-09 0)
(0.00499999 -9.38527e-09 0)
(0.00499999 -9.6951e-09 0)
(0.00499999 -1.00132e-08 0)
(0.00499998 -1.03399e-08 0)
(0.00499998 -1.06758e-08 0)
(0.00499998 -1.10214e-08 0)
(0.00499998 -1.13772e-08 0)
(0.00499998 -1.17437e-08 0)
(0.00499998 -1.21217e-08 0)
(0.00499998 -1.25117e-08 0)
(0.00499998 -1.29144e-08 0)
(0.00499998 -1.33306e-08 0)
(0.00499998 -1.37608e-08 0)
(0.00499998 -1.42058e-08 0)
(0.00499998 -1.46663e-08 0)
(0.00499997 -1.51426e-08 0)
(0.00499997 -1.56354e-08 0)
(0.00499997 -1.61449e-08 0)
(0.00499997 -1.66712e-08 0)
(0.00499997 -1.72141e-08 0)
(0.00499997 -1.77731e-08 0)
(0.00499997 -1.83472e-08 0)
(0.00499997 -1.89347e-08 0)
(0.00499997 -1.95334e-08 0)
(0.00499996 -2.014e-08 0)
(0.00499996 -2.07503e-08 0)
(0.00499996 -2.13585e-08 0)
(0.00499996 -2.19574e-08 0)
(0.00499996 -2.25379e-08 0)
(0.00499996 -2.30882e-08 0)
(0.00499996 -2.35921e-08 0)
(0.00499996 -2.40267e-08 0)
(0.00499996 -2.43606e-08 0)
(0.00499995 -2.45601e-08 0)
(0.005 -1.57623e-11 0)
(0.005 -4.98934e-11 0)
(0.005 -8.61963e-11 0)
(0.005 -1.24187e-10 0)
(0.005 -1.6378e-10 0)
(0.005 -2.04981e-10 0)
(0.005 -2.47832e-10 0)
(0.005 -2.92397e-10 0)
(0.005 -3.38757e-10 0)
(0.005 -3.87002e-10 0)
(0.005 -4.37226e-10 0)
(0.005 -4.89528e-10 0)
(0.005 -5.44005e-10 0)
(0.005 -6.00755e-10 0)
(0.005 -6.59874e-10 0)
(0.005 -7.21455e-10 0)
(0.005 -7.85592e-10 0)
(0.005 -8.52374e-10 0)
(0.005 -9.21891e-10 0)
(0.005 -9.94228e-10 0)
(0.005 -1.06947e-09 0)
(0.005 -1.1477e-09 0)
(0.005 -1.229e-09 0)
(0.005 -1.31344e-09 0)
(0.005 -1.40111e-09 0)
(0.005 -1.49207e-09 0)
(0.005 -1.58641e-09 0)
(0.005 -1.68417e-09 0)
(0.005 -1.78544e-09 0)
(0.005 -1.89028e-09 0)
(0.005 -1.99875e-09 0)
(0.005 -2.11091e-09 0)
(0.005 -2.22681e-09 0)
(0.005 -2.3465e-09 0)
(0.005 -2.47005e-09 0)
(0.005 -2.59749e-09 0)
(0.005 -2.72888e-09 0)
(0.005 -2.86425e-09 0)
(0.005 -3.00364e-09 0)
(0.005 -3.1471e-09 0)
(0.005 -3.29466e-09 0)
(0.005 -3.44635e-09 0)
(0.005 -3.60221e-09 0)
(0.005 -3.76227e-09 0)
(0.005 -3.92656e-09 0)
(0.005 -4.0951e-09 0)
(0.005 -4.26794e-09 0)
(0.005 -4.44509e-09 0)
(0.005 -4.62661e-09 0)
(0.005 -4.81252e-09 0)
(0.00499999 -5.00286e-09 0)
(0.00499999 -5.19768e-09 0)
(0.00499999 -5.39704e-09 0)
(0.00499999 -5.60099e-09 0)
(0.00499999 -5.80961e-09 0)
(0.00499999 -6.02297e-09 0)
(0.00499999 -6.24116e-09 0)
(0.00499999 -6.46431e-09 0)
(0.00499999 -6.69252e-09 0)
(0.00499999 -6.92595e-09 0)
(0.00499999 -7.16476e-09 0)
(0.00499999 -7.40915e-09 0)
(0.00499999 -7.65934e-09 0)
(0.00499999 -7.91557e-09 0)
(0.00499999 -8.17812e-09 0)
(0.00499999 -8.44731e-09 0)
(0.00499999 -8.72351e-09 0)
(0.00499999 -9.00711e-09 0)
(0.00499999 -9.29855e-09 0)
(0.00499999 -9.59833e-09 0)
(0.00499998 -9.90699e-09 0)
(0.00499998 -1.02251e-08 0)
(0.00499998 -1.05534e-08 0)
(0.00499998 -1.08924e-08 0)
(0.00499998 -1.1243e-08 0)
(0.00499998 -1.16059e-08 0)
(0.00499998 -1.19821e-08 0)
(0.00499998 -1.23722e-08 0)
(0.00499998 -1.27773e-08 0)
(0.00499998 -1.31982e-08 0)
(0.00499998 -1.36358e-08 0)
(0.00499997 -1.40909e-08 0)
(0.00499997 -1.45643e-08 0)
(0.00499997 -1.50566e-08 0)
(0.00499997 -1.55682e-08 0)
(0.00499997 -1.60993e-08 0)
(0.00499997 -1.66498e-08 0)
(0.00499997 -1.72191e-08 0)
(0.00499997 -1.78058e-08 0)
(0.00499997 -1.84082e-08 0)
(0.00499996 -1.90232e-08 0)
(0.00499996 -1.96469e-08 0)
(0.00499996 -2.02734e-08 0)
(0.00499996 -2.08954e-08 0)
(0.00499996 -2.1503e-08 0)
(0.00499996 -2.20827e-08 0)
(0.00499996 -2.26164e-08 0)
(0.00499996 -2.30789e-08 0)
(0.00499996 -2.34369e-08 0)
(0.00499996 -2.36526e-08 0)
(0.005 -1.47909e-11 0)
(0.005 -4.69045e-11 0)
(0.005 -8.11751e-11 0)
(0.005 -1.17161e-10 0)
(0.005 -1.54779e-10 0)
(0.005 -1.94025e-10 0)
(0.005 -2.34921e-10 0)
(0.005 -2.77508e-10 0)
(0.005 -3.21845e-10 0)
(0.005 -3.68003e-10 0)
(0.005 -4.16059e-10 0)
(0.005 -4.66094e-10 0)
(0.005 -5.18191e-10 0)
(0.005 -5.72435e-10 0)
(0.005 -6.2891e-10 0)
(0.005 -6.87699e-10 0)
(0.005 -7.48883e-10 0)
(0.005 -8.12543e-10 0)
(0.005 -8.78757e-10 0)
(0.005 -9.47601e-10 0)
(0.005 -1.01915e-09 0)
(0.005 -1.09347e-09 0)
(0.005 -1.17065e-09 0)
(0.005 -1.25073e-09 0)
(0.005 -1.3338e-09 0)
(0.005 -1.4199e-09 0)
(0.005 -1.50911e-09 0)
(0.005 -1.60148e-09 0)
(0.005 -1.69706e-09 0)
(0.005 -1.7959e-09 0)
(0.005 -1.89806e-09 0)
(0.005 -2.00359e-09 0)
(0.005 -2.11251e-09 0)
(0.005 -2.22488e-09 0)
(0.005 -2.34074e-09 0)
(0.005 -2.4601e-09 0)
(0.005 -2.58302e-09 0)
(0.005 -2.70951e-09 0)
(0.005 -2.83961e-09 0)
(0.005 -2.97333e-09 0)
(0.005 -3.1107e-09 0)
(0.005 -3.25173e-09 0)
(0.005 -3.39645e-09 0)
(0.005 -3.54488e-09 0)
(0.005 -3.69702e-09 0)
(0.005 -3.85289e-09 0)
(0.005 -4.01252e-09 0)
(0.005 -4.17593e-09 0)
(0.005 -4.34312e-09 0)
(0.005 -4.51413e-09 0)
(0.005 -4.68899e-09 0)
(0.00499999 -4.86774e-09 0)
(0.00499999 -5.0504e-09 0)
(0.00499999 -5.23705e-09 0)
(0.00499999 -5.42773e-09 0)
(0.00499999 -5.62254e-09 0)
(0.00499999 -5.82154e-09 0)
(0.00499999 -6.02486e-09 0)
(0.00499999 -6.23262e-09 0)
(0.00499999 -6.44496e-09 0)
(0.00499999 -6.66207e-09 0)
(0.00499999 -6.88414e-09 0)
(0.00499999 -7.11141e-09 0)
(0.00499999 -7.34415e-09 0)
(0.00499999 -7.58265e-09 0)
(0.00499999 -7.82727e-09 0)
(0.00499999 -8.07841e-09 0)
(0.00499999 -8.3365e-09 0)
(0.00499999 -8.60203e-09 0)
(0.00499999 -8.87556e-09 0)
(0.00499998 -9.1577e-09 0)
(0.00499998 -9.44911e-09 0)
(0.00499998 -9.75053e-09 0)
(0.00499998 -1.00628e-08 0)
(0.00499998 -1.03866e-08 0)
(0.00499998 -1.07231e-08 0)
(0.00499998 -1.10732e-08 0)
(0.00499998 -1.14378e-08 0)
(0.00499998 -1.18181e-08 0)
(0.00499998 -1.22152e-08 0)
(0.00499998 -1.26301e-08 0)
(0.00499998 -1.3064e-08 0)
(0.00499997 -1.35178e-08 0)
(0.00499997 -1.39925e-08 0)
(0.00499997 -1.44887e-08 0)
(0.00499997 -1.50071e-08 0)
(0.00499997 -1.55478e-08 0)
(0.00499997 -1.61105e-08 0)
(0.00499997 -1.66942e-08 0)
(0.00499997 -1.72974e-08 0)
(0.00499997 -1.79174e-08 0)
(0.00499996 -1.85501e-08 0)
(0.00499996 -1.91899e-08 0)
(0.00499996 -1.9829e-08 0)
(0.00499996 -2.04566e-08 0)
(0.00499996 -2.10582e-08 0)
(0.00499996 -2.16143e-08 0)
(0.00499996 -2.20979e-08 0)
(0.00499996 -2.24739e-08 0)
(0.00499996 -2.2701e-08 0)
(0.005 -1.38907e-11 0)
(0.005 -4.41164e-11 0)
(0.005 -7.64569e-11 0)
(0.005 -1.10507e-10 0)
(0.005 -1.46194e-10 0)
(0.005 -1.83509e-10 0)
(0.005 -2.22461e-10 0)
(0.005 -2.63076e-10 0)
(0.005 -3.05397e-10 0)
(0.005 -3.49476e-10 0)
(0.005 -3.95374e-10 0)
(0.005 -4.43158e-10 0)
(0.005 -4.92898e-10 0)
(0.005 -5.44665e-10 0)
(0.005 -5.98531e-10 0)
(0.005 -6.54568e-10 0)
(0.005 -7.12847e-10 0)
(0.005 -7.73438e-10 0)
(0.005 -8.36409e-10 0)
(0.005 -9.01826e-10 0)
(0.005 -9.69752e-10 0)
(0.005 -1.04025e-09 0)
(0.005 -1.11338e-09 0)
(0.005 -1.1892e-09 0)
(0.005 -1.26776e-09 0)
(0.005 -1.34912e-09 0)
(0.005 -1.43332e-09 0)
(0.005 -1.52041e-09 0)
(0.005 -1.61043e-09 0)
(0.005 -1.70343e-09 0)
(0.005 -1.79943e-09 0)
(0.005 -1.89848e-09 0)
(0.005 -2.00061e-09 0)
(0.005 -2.10584e-09 0)
(0.005 -2.21419e-09 0)
(0.005 -2.32569e-09 0)
(0.005 -2.44035e-09 0)
(0.005 -2.5582e-09 0)
(0.005 -2.67924e-09 0)
(0.005 -2.80348e-09 0)
(0.005 -2.93093e-09 0)
(0.005 -3.0616e-09 0)
(0.005 -3.19549e-09 0)
(0.005 -3.3326e-09 0)
(0.005 -3.47294e-09 0)
(0.005 -3.61651e-09 0)
(0.005 -3.76331e-09 0)
(0.005 -3.91335e-09 0)
(0.005 -4.06664e-09 0)
(0.005 -4.22319e-09 0)
(0.005 -4.38302e-09 0)
(0.00499999 -4.54615e-09 0)
(0.00499999 -4.71263e-09 0)
(0.00499999 -4.88249e-09 0)
(0.00499999 -5.05578e-09 0)
(0.00499999 -5.23259e-09 0)
(0.00499999 -5.41299e-09 0)
(0.00499999 -5.59709e-09 0)
(0.00499999 -5.78502e-09 0)
(0.00499999 -5.97694e-09 0)
(0.00499999 -6.17301e-09 0)
(0.00499999 -6.37346e-09 0)
(0.00499999 -6.57852e-09 0)
(0.00499999 -6.78849e-09 0)
(0.00499999 -7.0037e-09 0)
(0.00499999 -7.22451e-09 0)
(0.00499999 -7.45135e-09 0)
(0.00499999 -7.68471e-09 0)
(0.00499999 -7.92512e-09 0)
(0.00499999 -8.17319e-09 0)
(0.00499999 -8.42959e-09 0)
(0.00499998 -8.69506e-09 0)
(0.00499998 -8.97042e-09 0)
(0.00499998 -9.25656e-09 0)
(0.00499998 -9.55444e-09 0)
(0.00499998 -9.86511e-09 0)
(0.00499998 -1.01897e-08 0)
(0.00499998 -1.05293e-08 0)
(0.00499998 -1.08853e-08 0)
(0.00499998 -1.12588e-08 0)
(0.00499998 -1.16513e-08 0)
(0.00499998 -1.20639e-08 0)
(0.00499997 -1.2498e-08 0)
(0.00499997 -1.29547e-08 0)
(0.00499997 -1.34349e-08 0)
(0.00499997 -1.39396e-08 0)
(0.00499997 -1.44691e-08 0)
(0.00499997 -1.50235e-08 0)
(0.00499997 -1.5602e-08 0)
(0.00499997 -1.62034e-08 0)
(0.00499997 -1.68249e-08 0)
(0.00499997 -1.74626e-08 0)
(0.00499996 -1.81109e-08 0)
(0.00499996 -1.87615e-08 0)
(0.00499996 -1.94031e-08 0)
(0.00499996 -2.00203e-08 0)
(0.00499996 -2.05923e-08 0)
(0.00499996 -2.10911e-08 0)
(0.00499996 -2.148e-08 0)
(0.00499996 -2.17148e-08 0)
(0.005 -1.305e-11 0)
(0.005 -4.15009e-11 0)
(0.005 -7.20075e-11 0)
(0.005 -1.04197e-10 0)
(0.005 -1.38007e-10 0)
(0.005 -1.73427e-10 0)
(0.005 -2.1046e-10 0)
(0.005 -2.49121e-10 0)
(0.005 -2.8944e-10 0)
(0.005 -3.31455e-10 0)
(0.005 -3.75214e-10 0)
(0.005 -4.2077e-10 0)
(0.005 -4.68179e-10 0)
(0.005 -5.17501e-10 0)
(0.005 -5.68797e-10 0)
(0.005 -6.22127e-10 0)
(0.005 -6.77552e-10 0)
(0.005 -7.35131e-10 0)
(0.005 -7.94923e-10 0)
(0.005 -8.56982e-10 0)
(0.005 -9.21364e-10 0)
(0.005 -9.88121e-10 0)
(0.005 -1.0573e-09 0)
(0.005 -1.12895e-09 0)
(0.005 -1.20312e-09 0)
(0.005 -1.27984e-09 0)
(0.005 -1.35916e-09 0)
(0.005 -1.4411e-09 0)
(0.005 -1.52571e-09 0)
(0.005 -1.61301e-09 0)
(0.005 -1.70302e-09 0)
(0.005 -1.79578e-09 0)
(0.005 -1.89128e-09 0)
(0.005 -1.98956e-09 0)
(0.005 -2.09062e-09 0)
(0.005 -2.19448e-09 0)
(0.005 -2.30113e-09 0)
(0.005 -2.41058e-09 0)
(0.005 -2.52282e-09 0)
(0.005 -2.63786e-09 0)
(0.005 -2.75569e-09 0)
(0.005 -2.8763e-09 0)
(0.005 -2.99969e-09 0)
(0.005 -3.12583e-09 0)
(0.005 -3.25473e-09 0)
(0.005 -3.38637e-09 0)
(0.005 -3.52074e-09 0)
(0.005 -3.65785e-09 0)
(0.005 -3.79767e-09 0)
(0.005 -3.94023e-09 0)
(0.005 -4.08552e-09 0)
(0.00499999 -4.23356e-09 0)
(0.00499999 -4.38437e-09 0)
(0.00499999 -4.538e-09 0)
(0.00499999 -4.69449e-09 0)
(0.00499999 -4.8539e-09 0)
(0.00499999 -5.01632e-09 0)
(0.00499999 -5.18186e-09 0)
(0.00499999 -5.35064e-09 0)
(0.00499999 -5.52282e-09 0)
(0.00499999 -5.69857e-09 0)
(0.00499999 -5.87814e-09 0)
(0.00499999 -6.06176e-09 0)
(0.00499999 -6.24975e-09 0)
(0.00499999 -6.44245e-09 0)
(0.00499999 -6.64026e-09 0)
(0.00499999 -6.84364e-09 0)
(0.00499999 -7.05311e-09 0)
(0.00499999 -7.26924e-09 0)
(0.00499999 -7.49269e-09 0)
(0.00499999 -7.72419e-09 0)
(0.00499999 -7.96455e-09 0)
(0.00499998 -8.21465e-09 0)
(0.00499998 -8.47548e-09 0)
(0.00499998 -8.7481e-09 0)
(0.00499998 -9.03365e-09 0)
(0.00499998 -9.33338e-09 0)
(0.00499998 -9.64859e-09 0)
(0.00499998 -9.98067e-09 0)
(0.00499998 -1.03311e-08 0)
(0.00499998 -1.07012e-08 0)
(0.00499998 -1.10927e-08 0)
(0.00499998 -1.15069e-08 0)
(0.00499997 -1.19452e-08 0)
(0.00499997 -1.24088e-08 0)
(0.00499997 -1.28989e-08 0)
(0.00499997 -1.3416e-08 0)
(0.00499997 -1.39603e-08 0)
(0.00499997 -1.45315e-08 0)
(0.00499997 -1.51283e-08 0)
(0.00499997 -1.57482e-08 0)
(0.00499997 -1.63872e-08 0)
(0.00499997 -1.70396e-08 0)
(0.00499996 -1.76967e-08 0)
(0.00499996 -1.8347e-08 0)
(0.00499996 -1.89742e-08 0)
(0.00499996 -1.95568e-08 0)
(0.00499996 -2.00657e-08 0)
(0.00499996 -2.04634e-08 0)
(0.00499996 -2.07032e-08 0)
(0.005 -1.22604e-11 0)
(0.005 -3.90367e-11 0)
(0.005 -6.77997e-11 0)
(0.005 -9.82034e-11 0)
(0.005 -1.30195e-10 0)
(0.005 -1.63766e-10 0)
(0.005 -1.98915e-10 0)
(0.005 -2.35652e-10 0)
(0.005 -2.73994e-10 0)
(0.005 -3.1397e-10 0)
(0.005 -3.55615e-10 0)
(0.005 -3.9897e-10 0)
(0.005 -4.44081e-10 0)
(0.005 -4.90995e-10 0)
(0.005 -5.39763e-10 0)
(0.005 -5.90435e-10 0)
(0.005 -6.4306e-10 0)
(0.005 -6.97688e-10 0)
(0.005 -7.54368e-10 0)
(0.005 -8.13145e-10 0)
(0.005 -8.74064e-10 0)
(0.005 -9.37168e-10 0)
(0.005 -1.0025e-09 0)
(0.005 -1.07008e-09 0)
(0.005 -1.13997e-09 0)
(0.005 -1.21218e-09 0)
(0.005 -1.28674e-09 0)
(0.005 -1.36369e-09 0)
(0.005 -1.44303e-09 0)
(0.005 -1.52479e-09 0)
(0.005 -1.60899e-09 0)
(0.005 -1.69562e-09 0)
(0.005 -1.78471e-09 0)
(0.005 -1.87625e-09 0)
(0.005 -1.97024e-09 0)
(0.005 -2.06668e-09 0)
(0.005 -2.16556e-09 0)
(0.005 -2.26687e-09 0)
(0.005 -2.37061e-09 0)
(0.005 -2.47674e-09 0)
(0.005 -2.58526e-09 0)
(0.005 -2.69615e-09 0)
(0.005 -2.80937e-09 0)
(0.005 -2.92492e-09 0)
(0.005 -3.04276e-09 0)
(0.005 -3.16288e-09 0)
(0.005 -3.28526e-09 0)
(0.005 -3.40987e-09 0)
(0.005 -3.53671e-09 0)
(0.005 -3.66576e-09 0)
(0.005 -3.79702e-09 0)
(0.005 -3.93051e-09 0)
(0.00499999 -4.06623e-09 0)
(0.00499999 -4.20421e-09 0)
(0.00499999 -4.3445e-09 0)
(0.00499999 -4.48716e-09 0)
(0.00499999 -4.63227e-09 0)
(0.00499999 -4.77993e-09 0)
(0.00499999 -4.93027e-09 0)