/*--------------------------------*- C++ -*----------------------------------*\
  =========                 |
  \\      /  F ield         | OpenFOAM: The Open Source CFD Toolbox
   \\    /   O peration     | Website:  https://openfoam.org
    \\  /    A nd           | Version:  11
     \\/     M anipulation  |
\*---------------------------------------------------------------------------*/
FoamFile
{
    format      ascii;
    class       volScalarField;
    location    "376";
    object      k;
}
// * * * * * * * * * * * * * * * * * * * * * * * * * * * * * * * * * * * * * //

dimensions      [0 2 -2 0 0 0 0];

internalField   nonuniform List<scalar> 
10000
(
0.000939684
0.000835708
0.000745871
0.000668005
0.000600299
0.000541245
0.000489577
0.000444232
0.000404316
0.000369074
0.000337868
0.000310156
0.000285476
0.000263437
0.000243702
0.000225984
0.000210035
0.000195643
0.000182623
0.000170817
0.000160086
0.00015031
0.000141385
0.000133219
0.000125731
0.000118852
0.000112519
0.000106679
0.000101282
9.6286e-05
9.16532e-05
8.73499e-05
8.33461e-05
7.9615e-05
7.61327e-05
7.28777e-05
6.98311e-05
6.69754e-05
6.42951e-05
6.17765e-05
5.94069e-05
5.71749e-05
5.50704e-05
5.30842e-05
5.12078e-05
4.94339e-05
4.77557e-05
4.6167e-05
4.46623e-05
4.32367e-05
4.18858e-05
4.06056e-05
3.93925e-05
3.82434e-05
3.71556e-05
3.61265e-05
3.51539e-05
3.42358e-05
3.33707e-05
3.25569e-05
3.17931e-05
3.10779e-05
3.04103e-05
2.97891e-05
2.92131e-05
2.86813e-05
2.81924e-05
2.77453e-05
2.73385e-05
2.69707e-05
2.66403e-05
2.63456e-05
2.60851e-05
2.5857e-05
2.56595e-05
2.54906e-05
2.53482e-05
2.52303e-05
2.51348e-05
2.50595e-05
2.50026e-05
2.49621e-05
2.49361e-05
2.49227e-05
2.49204e-05
2.49266e-05
2.4941e-05
2.49615e-05
2.49868e-05
2.50156e-05
2.50465e-05
2.50783e-05
2.51098e-05
2.51399e-05
2.51675e-05
2.51916e-05
2.52115e-05
2.52263e-05
2.52356e-05
2.52392e-05
0.000939684
0.000835708
0.000745872
0.000668005
0.0006003
0.000541246
0.000489577
0.000444233
0.000404317
0.000369075
0.000337869
0.000310156
0.000285477
0.000263438
0.000243703
0.000225985
0.000210036
0.000195644
0.000182624
0.000170818
0.000160087
0.000150311
0.000141385
0.000133219
0.000125732
0.000118852
0.00011252
0.000106679
0.000101282
9.62865e-05
9.16537e-05
8.73504e-05
8.33466e-05
7.96155e-05
7.61332e-05
7.28783e-05
6.98317e-05
6.6976e-05
6.42958e-05
6.17772e-05
5.94076e-05
5.71756e-05
5.50712e-05
5.3085e-05
5.12087e-05
4.94348e-05
4.77566e-05
4.61679e-05
4.46633e-05
4.32377e-05
4.18869e-05
4.06067e-05
3.93937e-05
3.82446e-05
3.71568e-05
3.61277e-05
3.51552e-05
3.42372e-05
3.33721e-05
3.25583e-05
3.17945e-05
3.10794e-05
3.04117e-05
2.97905e-05
2.92145e-05
2.86827e-05
2.81938e-05
2.77466e-05
2.73399e-05
2.69721e-05
2.66417e-05
2.63471e-05
2.60866e-05
2.58585e-05
2.56609e-05
2.54919e-05
2.53493e-05
2.52312e-05
2.51354e-05
2.506e-05
2.5003e-05
2.49624e-05
2.49363e-05
2.49229e-05
2.49205e-05
2.49267e-05
2.4941e-05
2.49615e-05
2.49868e-05
2.50156e-05
2.50465e-05
2.50782e-05
2.51097e-05
2.51398e-05
2.51674e-05
2.51916e-05
2.52114e-05
2.52262e-05
2.52355e-05
2.52391e-05
0.000939684
0.000835709
0.000745872
0.000668006
0.000600301
0.000541247
0.000489578
0.000444233
0.000404318
0.000369076
0.00033787
0.000310157
0.000285478
0.000263438
0.000243704
0.000225986
0.000210037
0.000195645
0.000182625
0.000170818
0.000160087
0.000150312
0.000141386
0.00013322
0.000125732
0.000118853
0.000112521
0.00010668
0.000101283
9.62874e-05
9.16547e-05
8.73514e-05
8.33476e-05
7.96165e-05
7.61343e-05
7.28794e-05
6.98327e-05
6.69771e-05
6.42969e-05
6.17783e-05
5.94087e-05
5.71768e-05
5.50724e-05
5.30862e-05
5.121e-05
4.94361e-05
4.7758e-05
4.61693e-05
4.46647e-05
4.32392e-05
4.18884e-05
4.06082e-05
3.93952e-05
3.82462e-05
3.71584e-05
3.61294e-05
3.51568e-05
3.42388e-05
3.33737e-05
3.25599e-05
3.17961e-05
3.10809e-05
3.04133e-05
2.9792e-05
2.92159e-05
2.8684e-05
2.81951e-05
2.77478e-05
2.7341e-05
2.69731e-05
2.66426e-05
2.6348e-05
2.60875e-05
2.58593e-05
2.56616e-05
2.54924e-05
2.53496e-05
2.52313e-05
2.51354e-05
2.50599e-05
2.50028e-05
2.49621e-05
2.49359e-05
2.49225e-05
2.492e-05
2.49262e-05
2.49405e-05
2.4961e-05
2.49864e-05
2.50151e-05
2.5046e-05
2.50778e-05
2.51093e-05
2.51394e-05
2.51671e-05
2.51913e-05
2.52111e-05
2.5226e-05
2.52354e-05
2.52389e-05
0.000939685
0.000835709
0.000745873
0.000668006
0.000600301
0.000541248
0.000489579
0.000444235
0.000404319
0.000369077
0.000337871
0.000310158
0.000285479
0.00026344
0.000243705
0.000225987
0.000210038
0.000195646
0.000182626
0.00017082
0.000160089
0.000150313
0.000141388
0.000133221
0.000125734
0.000118855
0.000112522
0.000106682
0.000101285
9.62888e-05
9.16561e-05
8.73528e-05
8.33491e-05
7.9618e-05
7.61358e-05
7.28809e-05
6.98343e-05
6.69787e-05
6.42985e-05
6.178e-05
5.94104e-05
5.71785e-05
5.50742e-05
5.3088e-05
5.12118e-05
4.9438e-05
4.77599e-05
4.61713e-05
4.46667e-05
4.32412e-05
4.18904e-05
4.06103e-05
3.93973e-05
3.82484e-05
3.71606e-05
3.61315e-05
3.51589e-05
3.4241e-05
3.33758e-05
3.2562e-05
3.17981e-05
3.10829e-05
3.04151e-05
2.97937e-05
2.92176e-05
2.86856e-05
2.81965e-05
2.77491e-05
2.73421e-05
2.6974e-05
2.66434e-05
2.63487e-05
2.6088e-05
2.58597e-05
2.56618e-05
2.54924e-05
2.53495e-05
2.5231e-05
2.5135e-05
2.50593e-05
2.50021e-05
2.49613e-05
2.49351e-05
2.49216e-05
2.49191e-05
2.49253e-05
2.49396e-05
2.49601e-05
2.49855e-05
2.50143e-05
2.50452e-05
2.50771e-05
2.51086e-05
2.51388e-05
2.51665e-05
2.51908e-05
2.52107e-05
2.52257e-05
2.52351e-05
2.52386e-05
0.000939685
0.000835709
0.000745873
0.000668007
0.000600302
0.000541249
0.000489581
0.000444236
0.00040432
0.000369079
0.000337873
0.00031016
0.000285481
0.000263442
0.000243707
0.000225989
0.00021004
0.000195648
0.000182628
0.000170822
0.000160091
0.000150315
0.000141389
0.000133223
0.000125736
0.000118856
0.000112524
0.000106683
0.000101286
9.62906e-05
9.16579e-05
8.73547e-05
8.3351e-05
7.96199e-05
7.61377e-05
7.28829e-05
6.98363e-05
6.69807e-05
6.43006e-05
6.17821e-05
5.94126e-05
5.71808e-05
5.50764e-05
5.30904e-05
5.12142e-05
4.94405e-05
4.77624e-05
4.61738e-05
4.46693e-05
4.32438e-05
4.18931e-05
4.0613e-05
3.94001e-05
3.82511e-05
3.71633e-05
3.61343e-05
3.51617e-05
3.42437e-05
3.33785e-05
3.25646e-05
3.18006e-05
3.10853e-05
3.04174e-05
2.97959e-05
2.92196e-05
2.86874e-05
2.81981e-05
2.77505e-05
2.73433e-05
2.69751e-05
2.66443e-05
2.63493e-05
2.60884e-05
2.58599e-05
2.56618e-05
2.54922e-05
2.5349e-05
2.52304e-05
2.51342e-05
2.50584e-05
2.5001e-05
2.49601e-05
2.49338e-05
2.49203e-05
2.49178e-05
2.4924e-05
2.49382e-05
2.49588e-05
2.49842e-05
2.50131e-05
2.50441e-05
2.5076e-05
2.51077e-05
2.5138e-05
2.51658e-05
2.51901e-05
2.52102e-05
2.52252e-05
2.52346e-05
2.52382e-05
0.000939685
0.00083571
0.000745874
0.000668008
0.000600304
0.00054125
0.000489582
0.000444238
0.000404322
0.000369081
0.000337874
0.000310162
0.000285483
0.000263444
0.000243709
0.000225991
0.000210042
0.00019565
0.00018263
0.000170824
0.000160093
0.000150317
0.000141392
0.000133225
0.000125738
0.000118859
0.000112526
0.000106686
0.000101289
9.62929e-05
9.16602e-05
8.7357e-05
8.33533e-05
7.96223e-05
7.61401e-05
7.28853e-05
6.98388e-05
6.69833e-05
6.43032e-05
6.17848e-05
5.94153e-05
5.71836e-05
5.50793e-05
5.30932e-05
5.12171e-05
4.94435e-05
4.77654e-05
4.61769e-05
4.46724e-05
4.32471e-05
4.18963e-05
4.06163e-05
3.94034e-05
3.82545e-05
3.71667e-05
3.61376e-05
3.5165e-05
3.42469e-05
3.33817e-05
3.25677e-05
3.18036e-05
3.10882e-05
3.04202e-05
2.97985e-05
2.9222e-05
2.86895e-05
2.82e-05
2.77522e-05
2.73447e-05
2.69762e-05
2.66451e-05
2.63499e-05
2.60887e-05
2.58599e-05
2.56616e-05
2.54917e-05
2.53483e-05
2.52294e-05
2.5133e-05
2.50571e-05
2.49995e-05
2.49586e-05
2.49322e-05
2.49186e-05
2.49161e-05
2.49222e-05
2.49365e-05
2.49572e-05
2.49826e-05
2.50116e-05
2.50427e-05
2.50747e-05
2.51065e-05
2.51369e-05
2.51648e-05
2.51893e-05
2.52094e-05
2.52245e-05
2.5234e-05
2.52376e-05
0.000939685
0.00083571
0.000745875
0.000668009
0.000600305
0.000541251
0.000489584
0.000444239
0.000404324
0.000369083
0.000337877
0.000310164
0.000285485
0.000263446
0.000243711
0.000225993
0.000210044
0.000195652
0.000182632
0.000170826
0.000160095
0.000150319
0.000141394
0.000133228
0.00012574
0.000118861
0.000112529
0.000106688
0.000101291
9.62955e-05
9.16628e-05
8.73597e-05
8.3356e-05
7.96251e-05
7.61429e-05
7.28882e-05
6.98417e-05
6.69863e-05
6.43063e-05
6.17879e-05
5.94185e-05
5.71868e-05
5.50826e-05
5.30967e-05
5.12206e-05
4.9447e-05
4.7769e-05
4.61806e-05
4.46762e-05
4.32509e-05
4.19002e-05
4.06202e-05
3.94073e-05
3.82584e-05
3.71706e-05
3.61415e-05
3.51689e-05
3.42508e-05
3.33854e-05
3.25714e-05
3.18072e-05
3.10915e-05
3.04233e-05
2.98014e-05
2.92247e-05
2.8692e-05
2.82022e-05
2.77541e-05
2.73463e-05
2.69774e-05
2.6646e-05
2.63504e-05
2.6089e-05
2.58598e-05
2.56612e-05
2.5491e-05
2.53474e-05
2.52282e-05
2.51316e-05
2.50554e-05
2.49978e-05
2.49566e-05
2.49302e-05
2.49166e-05
2.4914e-05
2.49201e-05
2.49345e-05
2.49552e-05
2.49807e-05
2.50097e-05
2.5041e-05
2.50731e-05
2.51051e-05
2.51356e-05
2.51637e-05
2.51883e-05
2.52085e-05
2.52237e-05
2.52332e-05
2.52368e-05
0.000939685
0.00083571
0.000745875
0.00066801
0.000600306
0.000541253
0.000489585
0.000444241
0.000404326
0.000369085
0.000337879
0.000310167
0.000285487
0.000263448
0.000243714
0.000225996
0.000210047
0.000195655
0.000182635
0.000170829
0.000160098
0.000150322
0.000141397
0.00013323
0.000125743
0.000118864
0.000112531
0.000106691
0.000101294
9.62984e-05
9.16658e-05
8.73627e-05
8.33591e-05
7.96282e-05
7.61462e-05
7.28915e-05
6.98451e-05
6.69897e-05
6.43098e-05
6.17915e-05
5.94222e-05
5.71906e-05
5.50865e-05
5.31006e-05
5.12246e-05
4.94511e-05
4.77732e-05
4.61849e-05
4.46805e-05
4.32553e-05
4.19046e-05
4.06247e-05
3.94118e-05
3.82629e-05
3.71752e-05
3.6146e-05
3.51734e-05
3.42552e-05
3.33898e-05
3.25755e-05
3.18112e-05
3.10954e-05
3.04269e-05
2.98048e-05
2.92278e-05
2.86948e-05
2.82046e-05
2.77561e-05
2.7348e-05
2.69787e-05
2.66469e-05
2.6351e-05
2.60891e-05
2.58596e-05
2.56606e-05
2.54901e-05
2.53461e-05
2.52267e-05
2.51298e-05
2.50535e-05
2.49956e-05
2.49544e-05
2.49278e-05
2.49141e-05
2.49115e-05
2.49177e-05
2.49321e-05
2.49528e-05
2.49785e-05
2.50076e-05
2.5039e-05
2.50713e-05
2.51034e-05
2.51341e-05
2.51623e-05
2.5187e-05
2.52074e-05
2.52227e-05
2.52323e-05
2.52358e-05
0.000939685
0.000835711
0.000745876
0.00066801
0.000600307
0.000541254
0.000489587
0.000444243
0.000404328
0.000369087
0.000337881
0.000310169
0.00028549
0.000263451
0.000243716
0.000225998
0.00021005
0.000195657
0.000182638
0.000170832
0.000160101
0.000150325
0.0001414
0.000133233
0.000125746
0.000118867
0.000112535
0.000106694
0.000101297
9.63017e-05
9.16692e-05
8.73661e-05
8.33626e-05
7.96318e-05
7.61498e-05
7.28952e-05
6.98489e-05
6.69936e-05
6.43138e-05
6.17955e-05
5.94263e-05
5.71948e-05
5.50908e-05
5.3105e-05
5.12292e-05
4.94557e-05
4.77779e-05
4.61896e-05
4.46854e-05
4.32602e-05
4.19096e-05
4.06297e-05
3.94169e-05
3.8268e-05
3.71803e-05
3.61511e-05
3.51784e-05
3.42601e-05
3.33946e-05
3.25802e-05
3.18157e-05
3.10996e-05
3.0431e-05
2.98085e-05
2.92312e-05
2.86978e-05
2.82073e-05
2.77584e-05
2.73498e-05
2.69802e-05
2.66479e-05
2.63515e-05
2.60893e-05
2.58593e-05
2.56599e-05
2.5489e-05
2.53447e-05
2.5225e-05
2.51278e-05
2.50512e-05
2.49932e-05
2.49518e-05
2.49251e-05
2.49114e-05
2.49087e-05
2.49149e-05
2.49293e-05
2.49502e-05
2.49759e-05
2.50052e-05
2.50367e-05
2.50692e-05
2.51014e-05
2.51323e-05
2.51607e-05
2.51856e-05
2.52061e-05
2.52214e-05
2.52311e-05
2.52346e-05
0.000939685
0.000835711
0.000745876
0.000668011
0.000600308
0.000541255
0.000489588
0.000444245
0.00040433
0.000369089
0.000337883
0.000310171
0.000285492
0.000263453
0.000243719
0.000226001
0.000210052
0.00019566
0.000182641
0.000170835
0.000160104
0.000150328
0.000141403
0.000133237
0.000125749
0.00011887
0.000112538
0.000106698
0.000101301
9.63053e-05
9.16728e-05
8.73699e-05
8.33664e-05
7.96357e-05
7.61538e-05
7.28993e-05
6.98531e-05
6.69978e-05
6.43181e-05
6.18e-05
5.94309e-05
5.71995e-05
5.50956e-05
5.31099e-05
5.12342e-05
4.94608e-05
4.77831e-05
4.61949e-05
4.46908e-05
4.32657e-05
4.19152e-05
4.06353e-05
3.94225e-05
3.82737e-05
3.71859e-05
3.61567e-05
3.51839e-05
3.42656e-05
3.33999e-05
3.25854e-05
3.18206e-05
3.11044e-05
3.04354e-05
2.98126e-05
2.92349e-05
2.87012e-05
2.82102e-05
2.77609e-05
2.73518e-05
2.69817e-05
2.6649e-05
2.63521e-05
2.60893e-05
2.5859e-05
2.56591e-05
2.54878e-05
2.53431e-05
2.5223e-05
2.51256e-05
2.50487e-05
2.49904e-05
2.49489e-05
2.49221e-05
2.49083e-05
2.49056e-05
2.49118e-05
2.49263e-05
2.49472e-05
2.4973e-05
2.50025e-05
2.50341e-05
2.50668e-05
2.50992e-05
2.51303e-05
2.51588e-05
2.51839e-05
2.52045e-05
2.522e-05
2.52297e-05
2.52333e-05
0.000939685
0.000835711
0.000745876
0.000668012
0.000600309
0.000541256
0.00048959
0.000444246
0.000404332
0.000369091
0.000337885
0.000310174
0.000285495
0.000263456
0.000243722
0.000226004
0.000210055
0.000195663
0.000182644
0.000170838
0.000160107
0.000150331
0.000141406
0.00013324
0.000125753
0.000118874
0.000112542
0.000106701
0.000101305
9.63092e-05
9.16768e-05
8.73739e-05
8.33705e-05
7.96399e-05
7.61581e-05
7.29037e-05
6.98576e-05
6.70025e-05
6.43229e-05
6.18049e-05
5.94359e-05
5.72046e-05
5.51008e-05
5.31152e-05
5.12396e-05
4.94664e-05
4.77888e-05
4.62007e-05
4.46967e-05
4.32716e-05
4.19212e-05
4.06414e-05
3.94287e-05
3.82798e-05
3.7192e-05
3.61628e-05
3.519e-05
3.42715e-05
3.34057e-05
3.2591e-05
3.1826e-05
3.11095e-05
3.04402e-05
2.98171e-05
2.9239e-05
2.87048e-05
2.82134e-05
2.77636e-05
2.7354e-05
2.69833e-05
2.66501e-05
2.63527e-05
2.60894e-05
2.58585e-05
2.56582e-05
2.54864e-05
2.53413e-05
2.52209e-05
2.51231e-05
2.50459e-05
2.49875e-05
2.49457e-05
2.49188e-05
2.49049e-05
2.49022e-05
2.49084e-05
2.49229e-05
2.49439e-05
2.49699e-05
2.49994e-05
2.50313e-05
2.50641e-05
2.50967e-05
2.5128e-05
2.51567e-05
2.5182e-05
2.52028e-05
2.52184e-05
2.52282e-05
2.52317e-05
0.000939685
0.000835711
0.000745877
0.000668012
0.000600309
0.000541257
0.000489591
0.000444248
0.000404333
0.000369093
0.000337888
0.000310176
0.000285497
0.000263459
0.000243725
0.000226007
0.000210059
0.000195667
0.000182647
0.000170841
0.00016011
0.000150335
0.00014141
0.000133244
0.000125757
0.000118878
0.000112546
0.000106705
0.000101309
9.63133e-05
9.1681e-05
8.73782e-05
8.33749e-05
7.96444e-05
7.61627e-05
7.29085e-05
6.98624e-05
6.70074e-05
6.4328e-05
6.18101e-05
5.94412e-05
5.72101e-05
5.51064e-05
5.3121e-05
5.12455e-05
4.94724e-05
4.77949e-05
4.6207e-05
4.4703e-05
4.32781e-05
4.19277e-05
4.0648e-05
3.94353e-05
3.82865e-05
3.71987e-05
3.61694e-05
3.51965e-05
3.42779e-05
3.34119e-05
3.2597e-05
3.18318e-05
3.1115e-05
3.04454e-05
2.98219e-05
2.92434e-05
2.87087e-05
2.82168e-05
2.77665e-05
2.73563e-05
2.69851e-05
2.66513e-05
2.63533e-05
2.60895e-05
2.58581e-05
2.56572e-05
2.5485e-05
2.53394e-05
2.52186e-05
2.51204e-05
2.50429e-05
2.49842e-05
2.49423e-05
2.49152e-05
2.49012e-05
2.48985e-05
2.49047e-05
2.49193e-05
2.49404e-05
2.49665e-05
2.49962e-05
2.50282e-05
2.50612e-05
2.5094e-05
2.51255e-05
2.51544e-05
2.51798e-05
2.52008e-05
2.52165e-05
2.52264e-05
2.52299e-05
0.000939685
0.000835711
0.000745877
0.000668013
0.00060031
0.000541258
0.000489592
0.000444249
0.000404335
0.000369095
0.00033789
0.000310178
0.0002855
0.000263462
0.000243727
0.00022601
0.000210062
0.00019567
0.00018265
0.000170845
0.000160114
0.000150338
0.000141414
0.000133248
0.00012576
0.000118882
0.00011255
0.000106709
0.000101313
9.63177e-05
9.16855e-05
8.73828e-05
8.33796e-05
7.96492e-05
7.61676e-05
7.29135e-05
6.98676e-05
6.70127e-05
6.43334e-05
6.18157e-05
5.9447e-05
5.72159e-05
5.51124e-05
5.31271e-05
5.12518e-05
4.94788e-05
4.78015e-05
4.62136e-05
4.47098e-05
4.3285e-05
4.19347e-05
4.0655e-05
3.94424e-05
3.82935e-05
3.72057e-05
3.61764e-05
3.52034e-05
3.42847e-05
3.34186e-05
3.26034e-05
3.1838e-05
3.11208e-05
3.04509e-05
2.9827e-05
2.9248e-05
2.87129e-05
2.82204e-05
2.77695e-05
2.73588e-05
2.6987e-05
2.66526e-05
2.6354e-05
2.60896e-05
2.58576e-05
2.56561e-05
2.54834e-05
2.53374e-05
2.52161e-05
2.51175e-05
2.50398e-05
2.49808e-05
2.49386e-05
2.49114e-05
2.48973e-05
2.48946e-05
2.49008e-05
2.49154e-05
2.49365e-05
2.49628e-05
2.49926e-05
2.50248e-05
2.50581e-05
2.50911e-05
2.51227e-05
2.51519e-05
2.51775e-05
2.51986e-05
2.52144e-05
2.52244e-05
2.5228e-05
0.000939685
0.000835712
0.000745878
0.000668013
0.000600311
0.000541259
0.000489594
0.000444251
0.000404337
0.000369097
0.000337892
0.000310181
0.000285502
0.000263464
0.00024373
0.000226013
0.000210065
0.000195673
0.000182654
0.000170848
0.000160118
0.000150342
0.000141417
0.000133251
0.000125764
0.000118886
0.000112554
0.000106714
0.000101317
9.63222e-05
9.16902e-05
8.73876e-05
8.33845e-05
7.96542e-05
7.61728e-05
7.29188e-05
6.98731e-05
6.70183e-05
6.43392e-05
6.18216e-05
5.9453e-05
5.72221e-05
5.51188e-05
5.31336e-05
5.12584e-05
4.94856e-05
4.78084e-05
4.62207e-05
4.4717e-05
4.32922e-05
4.19421e-05
4.06625e-05
3.94498e-05
3.8301e-05
3.72132e-05
3.61838e-05
3.52107e-05
3.42919e-05
3.34256e-05
3.26102e-05
3.18445e-05
3.1127e-05
3.04567e-05
2.98324e-05
2.92529e-05
2.87173e-05
2.82243e-05
2.77728e-05
2.73615e-05
2.6989e-05
2.66539e-05
2.63547e-05
2.60896e-05
2.5857e-05
2.5655e-05
2.54817e-05
2.53352e-05
2.52134e-05
2.51145e-05
2.50364e-05
2.49771e-05
2.49347e-05
2.49074e-05
2.48932e-05
2.48904e-05
2.48966e-05
2.49112e-05
2.49325e-05
2.49588e-05
2.49889e-05
2.50212e-05
2.50547e-05
2.50879e-05
2.51197e-05
2.51491e-05
2.51749e-05
2.51962e-05
2.52121e-05
2.52222e-05
2.52258e-05
0.000939685
0.000835712
0.000745878
0.000668014
0.000600312
0.00054126
0.000489595
0.000444252
0.000404338
0.000369098
0.000337894
0.000310183
0.000285505
0.000263467
0.000243733
0.000226016
0.000210068
0.000195676
0.000182657
0.000170852
0.000160121
0.000150346
0.000141421
0.000133255
0.000125769
0.00011889
0.000112558
0.000106718
0.000101322
9.63269e-05
9.1695e-05
8.73926e-05
8.33897e-05
7.96595e-05
7.61782e-05
7.29244e-05
6.98788e-05
6.70242e-05
6.43452e-05
6.18277e-05
5.94593e-05
5.72286e-05
5.51254e-05
5.31404e-05
5.12654e-05
4.94927e-05
4.78157e-05
4.62281e-05
4.47245e-05
4.32999e-05
4.19498e-05
4.06703e-05
3.94577e-05
3.83089e-05
3.7221e-05
3.61916e-05
3.52184e-05
3.42994e-05
3.3433e-05
3.26174e-05
3.18513e-05
3.11335e-05
3.04628e-05
2.9838e-05
2.92581e-05
2.87219e-05
2.82283e-05
2.77762e-05
2.73642e-05
2.69911e-05
2.66553e-05
2.63554e-05
2.60897e-05
2.58565e-05
2.56539e-05
2.548e-05
2.53329e-05
2.52107e-05
2.51114e-05
2.50329e-05
2.49733e-05
2.49307e-05
2.49031e-05
2.48888e-05
2.48859e-05
2.48921e-05
2.49068e-05
2.49282e-05
2.49546e-05
2.49848e-05
2.50174e-05
2.5051e-05
2.50845e-05
2.51165e-05
2.51461e-05
2.51721e-05
2.51935e-05
2.52096e-05
2.52197e-05
2.52234e-05
0.000939685
0.000835712
0.000745878
0.000668014
0.000600312
0.000541261
0.000489596
0.000444253
0.00040434
0.0003691
0.000337896
0.000310185
0.000285507
0.000263469
0.000243736
0.000226019
0.000210071
0.00019568
0.000182661
0.000170855
0.000160125
0.00015035
0.000141425
0.00013326
0.000125773
0.000118894
0.000112563
0.000106723
0.000101327
9.63318e-05
9.17e-05
8.73977e-05
8.3395e-05
7.9665e-05
7.61838e-05
7.29301e-05
6.98847e-05
6.70303e-05
6.43514e-05
6.18342e-05
5.94659e-05
5.72354e-05
5.51324e-05
5.31476e-05
5.12727e-05
4.95002e-05
4.78233e-05
4.62358e-05
4.47324e-05
4.33079e-05
4.19579e-05
4.06784e-05
3.94659e-05
3.83171e-05
3.72292e-05
3.61998e-05
3.52265e-05
3.43073e-05
3.34406e-05
3.26248e-05
3.18585e-05
3.11403e-05
3.04692e-05
2.98439e-05
2.92635e-05
2.87267e-05
2.82325e-05
2.77797e-05
2.73671e-05
2.69933e-05
2.66568e-05
2.63562e-05
2.60899e-05
2.58559e-05
2.56527e-05
2.54782e-05
2.53306e-05
2.52079e-05
2.51081e-05
2.50292e-05
2.49693e-05
2.49265e-05
2.48987e-05
2.48843e-05
2.48813e-05
2.48875e-05
2.49022e-05
2.49237e-05
2.49503e-05
2.49806e-05
2.50133e-05
2.50472e-05
2.50808e-05
2.51131e-05
2.51429e-05
2.5169e-05
2.51906e-05
2.52069e-05
2.52171e-05
2.52208e-05
0.000939685
0.000835712
0.000745878
0.000668015
0.000600313
0.000541262
0.000489597
0.000444255
0.000404341
0.000369102
0.000337898
0.000310187
0.00028551
0.000263472
0.000243738
0.000226022
0.000210074
0.000195683
0.000182664
0.000170859
0.000160129
0.000150354
0.000141429
0.000133264
0.000125777
0.000118899
0.000112567
0.000106728
0.000101332
9.63368e-05
9.17051e-05
8.7403e-05
8.34004e-05
7.96706e-05
7.61896e-05
7.29361e-05
6.98908e-05
6.70366e-05
6.43579e-05
6.18408e-05
5.94728e-05
5.72424e-05
5.51395e-05
5.31549e-05
5.12802e-05
4.95079e-05
4.78311e-05
4.62439e-05
4.47405e-05
4.33161e-05
4.19662e-05
4.06868e-05
3.94744e-05
3.83256e-05
3.72377e-05
3.62082e-05
3.52348e-05
3.43155e-05
3.34486e-05
3.26325e-05
3.18659e-05
3.11473e-05
3.04758e-05
2.985e-05
2.9269e-05
2.87317e-05
2.82369e-05
2.77834e-05
2.73701e-05
2.69956e-05
2.66584e-05
2.63571e-05
2.609e-05
2.58554e-05
2.56515e-05
2.54764e-05
2.53282e-05
2.5205e-05
2.51047e-05
2.50255e-05
2.49652e-05
2.49221e-05
2.48942e-05
2.48796e-05
2.48766e-05
2.48827e-05
2.48975e-05
2.4919e-05
2.49457e-05
2.49762e-05
2.50091e-05
2.50431e-05
2.5077e-05
2.51095e-05
2.51394e-05
2.51658e-05
2.51876e-05
2.52039e-05
2.52143e-05
2.5218e-05
0.000939685
0.000835712
0.000745879
0.000668015
0.000600313
0.000541263
0.000489598
0.000444256
0.000404343
0.000369104
0.0003379
0.000310189
0.000285512
0.000263474
0.000243741
0.000226024
0.000210077
0.000195686
0.000182667
0.000170862
0.000160132
0.000150357
0.000141433
0.000133268
0.000125781
0.000118903
0.000112572
0.000106732
0.000101337
9.63419e-05
9.17104e-05
8.74084e-05
8.3406e-05
7.96763e-05
7.61955e-05
7.29422e-05
6.98971e-05
6.7043e-05
6.43645e-05
6.18476e-05
5.94798e-05
5.72496e-05
5.51469e-05
5.31625e-05
5.1288e-05
4.95158e-05
4.78392e-05
4.62521e-05
4.47489e-05
4.33246e-05
4.19748e-05
4.06955e-05
3.94831e-05
3.83343e-05
3.72464e-05
3.62168e-05
3.52433e-05
3.43239e-05
3.34568e-05
3.26405e-05
3.18735e-05
3.11546e-05
3.04826e-05
2.98563e-05
2.92748e-05
2.87368e-05
2.82414e-05
2.77873e-05
2.73732e-05
2.6998e-05
2.66601e-05
2.6358e-05
2.60902e-05
2.58549e-05
2.56503e-05
2.54746e-05
2.53258e-05
2.5202e-05
2.51013e-05
2.50216e-05
2.4961e-05
2.49176e-05
2.48894e-05
2.48747e-05
2.48716e-05
2.48777e-05
2.48925e-05
2.49141e-05
2.49409e-05
2.49716e-05
2.50046e-05
2.50389e-05
2.50729e-05
2.51056e-05
2.51358e-05
2.51623e-05
2.51843e-05
2.52008e-05
2.52112e-05
2.5215e-05
0.000939686
0.000835712
0.000745879
0.000668016
0.000600314
0.000541263
0.000489599
0.000444257
0.000404344
0.000369105
0.000337901
0.000310191
0.000285514
0.000263477
0.000243744
0.000226027
0.00021008
0.000195689
0.000182671
0.000170866
0.000160136
0.000150361
0.000141437
0.000133272
0.000125786
0.000118908
0.000112576
0.000106737
0.000101342
9.6347e-05
9.17157e-05
8.74139e-05
8.34116e-05
7.96822e-05
7.62015e-05
7.29484e-05
6.99035e-05
6.70496e-05
6.43713e-05
6.18546e-05
5.9487e-05
5.7257e-05
5.51545e-05
5.31703e-05
5.12959e-05
4.9524e-05
4.78475e-05
4.62606e-05
4.47575e-05
4.33334e-05
4.19837e-05
4.07044e-05
3.9492e-05
3.83433e-05
3.72554e-05
3.62257e-05
3.52521e-05
3.43325e-05
3.34652e-05
3.26486e-05
3.18813e-05
3.1162e-05
3.04895e-05
2.98628e-05
2.92807e-05
2.87421e-05
2.8246e-05
2.77912e-05
2.73764e-05
2.70004e-05
2.66618e-05
2.6359e-05
2.60904e-05
2.58544e-05
2.56491e-05
2.54727e-05
2.53233e-05
2.5199e-05
2.50978e-05
2.50177e-05
2.49567e-05
2.4913e-05
2.48846e-05
2.48697e-05
2.48665e-05
2.48726e-05
2.48874e-05
2.49091e-05
2.4936e-05
2.49668e-05
2.5e-05
2.50344e-05
2.50687e-05
2.51016e-05
2.5132e-05
2.51587e-05
2.51808e-05
2.51975e-05
2.5208e-05
2.52118e-05
0.000939686
0.000835712
0.000745879
0.000668016
0.000600315
0.000541264
0.000489599
0.000444258
0.000404345
0.000369107
0.000337903
0.000310193
0.000285516
0.000263479
0.000243746
0.00022603
0.000210083
0.000195692
0.000182674
0.000170869
0.000160139
0.000150365
0.000141441
0.000133276
0.00012579
0.000118912
0.000112581
0.000106742
0.000101347
9.63522e-05
9.17211e-05
8.74195e-05
8.34174e-05
7.96881e-05
7.62077e-05
7.29547e-05
6.991e-05
6.70563e-05
6.43782e-05
6.18618e-05
5.94943e-05
5.72645e-05
5.51622e-05
5.31782e-05
5.1304e-05
4.95322e-05
4.7856e-05
4.62692e-05
4.47663e-05
4.33423e-05
4.19927e-05
4.07135e-05
3.95012e-05
3.83525e-05
3.72645e-05
3.62348e-05
3.5261e-05
3.43413e-05
3.34737e-05
3.26569e-05
3.18892e-05
3.11695e-05
3.04966e-05
2.98694e-05
2.92867e-05
2.87475e-05
2.82508e-05
2.77952e-05
2.73797e-05
2.7003e-05
2.66636e-05
2.636e-05
2.60906e-05
2.58539e-05
2.56479e-05
2.54708e-05
2.53208e-05
2.5196e-05
2.50942e-05
2.50137e-05
2.49524e-05
2.49083e-05
2.48797e-05
2.48646e-05
2.48613e-05
2.48674e-05
2.48822e-05
2.49039e-05
2.49309e-05
2.49618e-05
2.49953e-05
2.50299e-05
2.50643e-05
2.50974e-05
2.5128e-05
2.51549e-05
2.51772e-05
2.5194e-05
2.52046e-05
2.52084e-05
0.000939686
0.000835713
0.000745879
0.000668016
0.000600315
0.000541265
0.0004896
0.000444259
0.000404346
0.000369108
0.000337905
0.000310195
0.000285518
0.000263481
0.000243749
0.000226033
0.000210086
0.000195695
0.000182677
0.000170872
0.000160143
0.000150369
0.000141445
0.00013328
0.000125794
0.000118917
0.000112586
0.000106747
0.000101352
9.63574e-05
9.17265e-05
8.74251e-05
8.34232e-05
7.96941e-05
7.62138e-05
7.29611e-05
6.99166e-05
6.70631e-05
6.43853e-05
6.1869e-05
5.95017e-05
5.72722e-05
5.51701e-05
5.31862e-05
5.13123e-05
4.95407e-05
4.78646e-05
4.62779e-05
4.47752e-05
4.33513e-05
4.20018e-05
4.07227e-05
3.95104e-05
3.83617e-05
3.72738e-05
3.6244e-05
3.52701e-05
3.43502e-05
3.34824e-05
3.26653e-05
3.18973e-05
3.11772e-05
3.05038e-05
2.98761e-05
2.92928e-05
2.8753e-05
2.82556e-05
2.77993e-05
2.73831e-05
2.70056e-05
2.66654e-05
2.6361e-05
2.60909e-05
2.58534e-05
2.56467e-05
2.5469e-05
2.53184e-05
2.51929e-05
2.50907e-05
2.50097e-05
2.4948e-05
2.49036e-05
2.48747e-05
2.48595e-05
2.4856e-05
2.4862e-05
2.48769e-05
2.48986e-05
2.49258e-05
2.49568e-05
2.49904e-05
2.50251e-05
2.50598e-05
2.50931e-05
2.51239e-05
2.5151e-05
2.51734e-05
2.51903e-05
2.5201e-05
2.52049e-05
0.000939686
0.000835713
0.00074588
0.000668017
0.000600315
0.000541265
0.000489601
0.00044426
0.000404348
0.000369109
0.000337906
0.000310197
0.00028552
0.000263483
0.000243751
0.000226035
0.000210088
0.000195698
0.00018268
0.000170876
0.000160147
0.000150373
0.000141449
0.000133284
0.000125799
0.000118921
0.00011259
0.000106752
0.000101357
9.63627e-05
9.17319e-05
8.74307e-05
8.3429e-05
7.97001e-05
7.62201e-05
7.29675e-05
6.99232e-05
6.707e-05
6.43923e-05
6.18762e-05
5.95092e-05
5.72799e-05
5.5178e-05
5.31943e-05
5.13206e-05
4.95492e-05
4.78733e-05
4.62868e-05
4.47842e-05
4.33604e-05
4.2011e-05
4.0732e-05
3.95198e-05
3.83711e-05
3.72831e-05
3.62532e-05
3.52793e-05
3.43592e-05
3.34912e-05
3.26738e-05
3.19054e-05
3.1185e-05
3.05111e-05
2.98828e-05
2.9299e-05
2.87586e-05
2.82605e-05
2.78035e-05
2.73865e-05
2.70082e-05
2.66673e-05
2.63621e-05
2.60912e-05
2.5853e-05
2.56456e-05
2.54672e-05
2.53159e-05
2.51899e-05
2.50871e-05
2.50056e-05
2.49435e-05
2.48989e-05
2.48697e-05
2.48543e-05
2.48507e-05
2.48566e-05
2.48715e-05
2.48933e-05
2.49205e-05
2.49517e-05
2.49854e-05
2.50203e-05
2.50552e-05
2.50887e-05
2.51196e-05
2.51469e-05
2.51694e-05
2.51865e-05
2.51973e-05
2.52012e-05
0.000939686
0.000835713
0.00074588
0.000668017
0.000600316
0.000541266
0.000489602
0.000444261
0.000404349
0.000369111
0.000337908
0.000310198
0.000285522
0.000263485
0.000243753
0.000226038
0.000210091
0.000195701
0.000182683
0.000170879
0.00016015
0.000150376
0.000141453
0.000133288
0.000125803
0.000118926
0.000112595
0.000106756
0.000101362
9.63679e-05
9.17373e-05
8.74363e-05
8.34348e-05
7.97061e-05
7.62263e-05
7.29739e-05
6.99299e-05
6.70769e-05
6.43994e-05
6.18835e-05
5.95167e-05
5.72876e-05
5.51859e-05
5.32025e-05
5.13289e-05
4.95577e-05
4.7882e-05
4.62957e-05
4.47932e-05
4.33696e-05
4.20203e-05
4.07414e-05
3.95292e-05
3.83805e-05
3.72925e-05
3.62626e-05
3.52885e-05
3.43682e-05
3.35e-05
3.26823e-05
3.19137e-05
3.11928e-05
3.05185e-05
2.98897e-05
2.93053e-05
2.87642e-05
2.82654e-05
2.78077e-05
2.739e-05
2.70109e-05
2.66692e-05
2.63633e-05
2.60916e-05
2.58526e-05
2.56444e-05
2.54653e-05
2.53134e-05
2.51868e-05
2.50835e-05
2.50016e-05
2.49391e-05
2.48941e-05
2.48647e-05
2.4849e-05
2.48453e-05
2.48512e-05
2.4866e-05
2.48879e-05
2.49151e-05
2.49464e-05
2.49803e-05
2.50154e-05
2.50504e-05
2.50841e-05
2.51152e-05
2.51426e-05
2.51654e-05
2.51825e-05
2.51934e-05
2.51974e-05
0.000939686
0.000835713
0.00074588
0.000668017
0.000600316
0.000541267
0.000489603
0.000444262
0.00040435
0.000369112
0.000337909
0.0003102
0.000285524
0.000263487
0.000243756
0.00022604
0.000210094
0.000195704
0.000182686
0.000170882
0.000160153
0.00015038
0.000141457
0.000133292
0.000125807
0.00011893
0.0001126
0.000106761
0.000101367
9.6373e-05
9.17427e-05
8.74419e-05
8.34406e-05
7.97121e-05
7.62325e-05
7.29804e-05
6.99365e-05
6.70837e-05
6.44065e-05
6.18908e-05
5.95242e-05
5.72953e-05
5.51939e-05
5.32106e-05
5.13373e-05
4.95663e-05
4.78907e-05
4.63046e-05
4.48023e-05
4.33788e-05
4.20296e-05
4.07508e-05
3.95386e-05
3.839e-05
3.73019e-05
3.62719e-05
3.52977e-05
3.43773e-05
3.35089e-05
3.26909e-05
3.19219e-05
3.12006e-05
3.05258e-05
2.98965e-05
2.93115e-05
2.87699e-05
2.82704e-05
2.7812e-05
2.73935e-05
2.70137e-05
2.66711e-05
2.63644e-05
2.6092e-05
2.58522e-05
2.56433e-05
2.54636e-05
2.5311e-05
2.51838e-05
2.508e-05
2.49976e-05
2.49347e-05
2.48893e-05
2.48597e-05
2.48438e-05
2.48399e-05
2.48457e-05
2.48605e-05
2.48824e-05
2.49098e-05
2.49411e-05
2.49752e-05
2.50104e-05
2.50456e-05
2.50794e-05
2.51107e-05
2.51383e-05
2.51612e-05
2.51785e-05
2.51894e-05
2.51934e-05
0.000939686
0.000835713
0.00074588
0.000668017
0.000600317
0.000541267
0.000489603
0.000444263
0.000404351
0.000369113
0.00033791
0.000310202
0.000285525
0.000263489
0.000243758
0.000226042
0.000210096
0.000195707
0.000182689
0.000170885
0.000160157
0.000150383
0.00014146
0.000133296
0.000125811
0.000118934
0.000112604
0.000106766
0.000101371
9.63782e-05
9.1748e-05
8.74474e-05
8.34463e-05
7.97181e-05
7.62387e-05
7.29868e-05
6.99431e-05
6.70906e-05
6.44135e-05
6.18981e-05
5.95317e-05
5.7303e-05
5.52018e-05
5.32188e-05
5.13456e-05
4.95748e-05
4.78995e-05
4.63135e-05
4.48113e-05
4.33879e-05
4.20389e-05
4.07601e-05
3.95481e-05
3.83994e-05
3.73113e-05
3.62813e-05
3.53069e-05
3.43863e-05
3.35177e-05
3.26994e-05
3.19301e-05
3.12084e-05
3.05332e-05
2.99034e-05
2.93178e-05
2.87755e-05
2.82753e-05
2.78163e-05