/*--------------------------------*- C++ -*----------------------------------*\
  =========                 |
  \\      /  F ield         | OpenFOAM: The Open Source CFD Toolbox
   \\    /   O peration     | Website:  https://openfoam.org
    \\  /    A nd           | Version:  11
     \\/     M anipulation  |
\*---------------------------------------------------------------------------*/
FoamFile
{
    format      ascii;
    class       volScalarField;
    location    "376";
    object      nut;
}
// * * * * * * * * * * * * * * * * * * * * * * * * * * * * * * * * * * * * * //

dimensions      [0 2 -1 0 0 0 0];

internalField   nonuniform List<scalar> 
10000
(
0.000977114
0.000936696
0.000899629
0.000865593
0.0008343
0.000805492
0.000778937
0.000754425
0.000731769
0.0007108
0.000691365
0.000673327
0.000656563
0.00064096
0.000626418
0.000612845
0.00060016
0.000588287
0.00057716
0.000566716
0.0005569
0.000547662
0.000538955
0.000530739
0.000522975
0.000515628
0.000508667
0.000502063
0.00049579
0.000489825
0.000484144
0.000478729
0.000473562
0.000468626
0.000463906
0.00045939
0.000455065
0.000450922
0.000446951
0.000443144
0.000439496
0.000436001
0.000432656
0.000429458
0.000426407
0.000423504
0.000420751
0.000418151
0.000415711
0.000413438
0.000411342
0.000409433
0.000407726
0.000406235
0.000404977
0.000403973
0.000403241
0.000402805
0.000402688
0.000402914
0.00040351
0.000404499
0.000405906
0.000407754
0.000410064
0.000412856
0.000416144
0.000419939
0.000424248
0.000429072
0.000434407
0.000440243
0.000446566
0.000453354
0.00046058
0.000468212
0.000476213
0.000484539
0.000493146
0.000501985
0.000511006
0.000520159
0.000529389
0.000538641
0.000547862
0.000556984
0.000565972
0.000574764
0.000583304
0.000591534
0.000599397
0.000606831
0.000613773
0.000620153
0.000625899
0.000630932
0.000635165
0.000638504
0.000640841
0.000642057
0.000977114
0.000936696
0.000899629
0.000865593
0.0008343
0.000805492
0.000778937
0.000754426
0.00073177
0.000710801
0.000691366
0.000673328
0.000656564
0.000640961
0.000626419
0.000612846
0.000600161
0.000588288
0.000577161
0.000566717
0.000556901
0.000547663
0.000538956
0.00053074
0.000522976
0.000515629
0.000508668
0.000502064
0.000495792
0.000489826
0.000484146
0.000478731
0.000473563
0.000468627
0.000463908
0.000459392
0.000455067
0.000450924
0.000446953
0.000443147
0.000439499
0.000436004
0.000432659
0.000429461
0.00042641
0.000423507
0.000420754
0.000418154
0.000415714
0.000413441
0.000411345
0.000409436
0.000407729
0.000406238
0.00040498
0.000403975
0.000403242
0.000402806
0.000402688
0.000402914
0.000403508
0.000404495
0.000405901
0.000407747
0.000410056
0.000412845
0.000416131
0.000419924
0.000424231
0.000429053
0.000434386
0.000440221
0.000446542
0.000453328
0.000460551
0.00046818
0.000476177
0.0004845
0.000493104
0.000501941
0.000510961
0.000520113
0.000529342
0.000538595
0.000547816
0.000556938
0.000565926
0.000574719
0.00058326
0.000591492
0.000599356
0.000606792
0.000613734
0.000620116
0.000625864
0.000630898
0.000635132
0.000638471
0.000640809
0.000642025
0.000977115
0.000936696
0.00089963
0.000865594
0.000834301
0.000805493
0.000778938
0.000754426
0.000731771
0.000710802
0.000691367
0.000673329
0.000656565
0.000640962
0.00062642
0.000612847
0.000600162
0.00058829
0.000577162
0.000566718
0.000556903
0.000547664
0.000538958
0.000530742
0.000522978
0.000515631
0.00050867
0.000502067
0.000495794
0.000489829
0.000484148
0.000478734
0.000473566
0.00046863
0.000463911
0.000459395
0.000455071
0.000450928
0.000446957
0.00044315
0.000439503
0.000436008
0.000432663
0.000429466
0.000426415
0.000423511
0.000420758
0.000418158
0.000415718
0.000413445
0.000411348
0.000409439
0.000407731
0.000406239
0.00040498
0.000403974
0.00040324
0.000402802
0.000402682
0.000402905
0.000403496
0.000404481
0.000405883
0.000407726
0.00041003
0.000412816
0.000416096
0.000419885
0.000424186
0.000429004
0.000434332
0.000440162
0.000446478
0.000453259
0.000460477
0.000468101
0.000476093
0.000484412
0.000493013
0.000501847
0.000510865
0.000520016
0.000529244
0.000538497
0.000547719
0.000556841
0.000565832
0.000574627
0.00058317
0.000591405
0.000599272
0.00060671
0.000613656
0.000620041
0.000625791
0.000630828
0.000635065
0.000638406
0.000640746
0.000641963
0.000977115
0.000936697
0.00089963
0.000865594
0.000834302
0.000805494
0.000778939
0.000754428
0.000731772
0.000710803
0.000691368
0.000673331
0.000656566
0.000640964
0.000626422
0.00061285
0.000600164
0.000588292
0.000577164
0.000566721
0.000556905
0.000547667
0.000538961
0.000530745
0.000522981
0.000515634
0.000508674
0.00050207
0.000495798
0.000489832
0.000484152
0.000478738
0.000473571
0.000468635
0.000463916
0.0004594
0.000455076
0.000450933
0.000446962
0.000443156
0.000439508
0.000436014
0.000432669
0.000429472
0.000426421
0.000423518
0.000420764
0.000418164
0.000415724
0.00041345
0.000411353
0.000409443
0.000407734
0.00040624
0.00040498
0.000403971
0.000403235
0.000402794
0.000402671
0.000402891
0.000403478
0.000404458
0.000405855
0.000407692
0.00040999
0.000412769
0.000416043
0.000419824
0.000424118
0.000428928
0.000434248
0.000440071
0.000446379
0.000453153
0.000460364
0.000467981
0.000475967
0.00048428
0.000492876
0.000501707
0.000510722
0.000519871
0.000529099
0.000538351
0.000547574
0.000556698
0.000565691
0.000574489
0.000583036
0.000591275
0.000599146
0.000606589
0.00061354
0.000619929
0.000625684
0.000630726
0.000634966
0.000638311
0.000640653
0.000641871
0.000977115
0.000936697
0.000899631
0.000865595
0.000834303
0.000805495
0.00077894
0.000754429
0.000731774
0.000710805
0.00069137
0.000673333
0.000656569
0.000640966
0.000626424
0.000612852
0.000600167
0.000588295
0.000577167
0.000566724
0.000556908
0.000547671
0.000538965
0.000530749
0.000522985
0.000515638
0.000508678
0.000502075
0.000495802
0.000489837
0.000484157
0.000478743
0.000473576
0.000468641
0.000463922
0.000459406
0.000455082
0.00045094
0.000446969
0.000443164
0.000439516
0.000436022
0.000432677
0.00042948
0.000426429
0.000423526
0.000420772
0.000418172
0.000415731
0.000413457
0.000411359
0.000409448
0.000407737
0.000406242
0.000404979
0.000403968
0.000403229
0.000402785
0.000402657
0.000402872
0.000403454
0.000404428
0.000405818
0.000407648
0.000409939
0.000412709
0.000415973
0.000419745
0.000424029
0.000428829
0.000434139
0.000439951
0.00044625
0.000453014
0.000460216
0.000467824
0.000475802
0.000484108
0.000492699
0.000501525
0.000510537
0.000519683
0.00052891
0.000538162
0.000547386
0.000556513
0.000565508
0.00057431
0.000582862
0.000591106
0.000598983
0.000606432
0.000613388
0.000619784
0.000625545
0.000630592
0.000634837
0.000638186
0.000640531
0.000641751
0.000977115
0.000936697
0.000899631
0.000865596
0.000834304
0.000805497
0.000778942
0.000754431
0.000731776
0.000710807
0.000691373
0.000673335
0.000656571
0.000640969
0.000626427
0.000612855
0.00060017
0.000588298
0.000577171
0.000566728
0.000556912
0.000547675
0.000538969
0.000530753
0.00052299
0.000515644
0.000508683
0.00050208
0.000495808
0.000489843
0.000484164
0.00047875
0.000473583
0.000468648
0.00046393
0.000459414
0.000455091
0.000450949
0.000446978
0.000443173
0.000439526
0.000436032
0.000432687
0.00042949
0.000426439
0.000423536
0.000420782
0.000418182
0.00041574
0.000413465
0.000411366
0.000409454
0.000407741
0.000406244
0.000404979
0.000403965
0.000403222
0.000402773
0.000402641
0.00040285
0.000403426
0.000404392
0.000405774
0.000407595
0.000409876
0.000412635
0.000415889
0.000419649
0.000423921
0.000428709
0.000434007
0.000439807
0.000446093
0.000452845
0.000460036
0.000467634
0.000475602
0.0004839
0.000492483
0.000501304
0.000510312
0.000519455
0.00052868
0.000537933
0.000547158
0.000556287
0.000565286
0.000574092
0.000582649
0.000590899
0.000598783
0.00060624
0.000613204
0.000619606
0.000625374
0.000630428
0.000634679
0.000638033
0.000640381
0.000641602
0.000977115
0.000936698
0.000899632
0.000865597
0.000834305
0.000805498
0.000778943
0.000754433
0.000731778
0.000710809
0.000691375
0.000673338
0.000656574
0.000640972
0.000626431
0.000612859
0.000600174
0.000588302
0.000577175
0.000566732
0.000556917
0.00054768
0.000538974
0.000530759
0.000522995
0.00051565
0.00050869
0.000502087
0.000495815
0.000489851
0.000484171
0.000478758
0.000473592
0.000468657
0.000463939
0.000459424
0.000455101
0.000450959
0.000446989
0.000443184
0.000439537
0.000436043
0.000432699
0.000429502
0.000426452
0.000423548
0.000420794
0.000418193
0.000415751
0.000413475
0.000411375
0.000409461
0.000407747
0.000406247
0.000404979
0.000403962
0.000403215
0.000402761
0.000402623
0.000402825
0.000403393
0.000404351
0.000405724
0.000407534
0.000409804
0.000412551
0.000415792
0.000419538
0.000423797
0.000428569
0.000433853
0.000439639
0.000445911
0.000452649
0.000459827
0.000467413
0.000475371
0.000483659
0.000492234
0.000501048
0.00051005
0.00051919
0.000528414
0.000537666
0.000546892
0.000556024
0.000565027
0.000573839
0.000582402
0.000590659
0.00059855
0.000606015
0.000612987
0.000619398
0.000625174
0.000630235
0.000634493
0.000637852
0.000640204
0.000641427
0.000977115
0.000936698
0.000899632
0.000865598
0.000834306
0.000805499
0.000778945
0.000754435
0.00073178
0.000710812
0.000691378
0.000673341
0.000656578
0.000640976
0.000626435
0.000612863
0.000600179
0.000588307
0.00057718
0.000566737
0.000556922
0.000547685
0.00053898
0.000530765
0.000523002
0.000515656
0.000508697
0.000502095
0.000495823
0.000489859
0.00048418
0.000478767
0.000473601
0.000468667
0.000463949
0.000459435
0.000455112
0.000450971
0.000447002
0.000443197
0.000439551
0.000436057
0.000432713
0.000429516
0.000426466
0.000423562
0.000420808
0.000418207
0.000415764
0.000413487
0.000411386
0.00040947
0.000407754
0.000406252
0.00040498
0.000403959
0.000403207
0.000402747
0.000402603
0.000402798
0.000403357
0.000404306
0.000405668
0.000407466
0.000409723
0.000412457
0.000415683
0.000419414
0.000423657
0.000428413
0.000433681
0.00043945
0.000445707
0.000452429
0.000459593
0.000467165
0.00047511
0.000483388
0.000491953
0.000500759
0.000509756
0.000518892
0.000528113
0.000537365
0.000546592
0.000555727
0.000564734
0.000573551
0.000582121
0.000590386
0.000598286
0.00060576
0.000612741
0.000619162
0.000624947
0.000630016
0.000634281
0.000637646
0.000640002
0.000641227
0.000977115
0.000936698
0.000899633
0.000865598
0.000834307
0.000805501
0.000778947
0.000754437
0.000731782
0.000710815
0.000691381
0.000673345
0.000656581
0.00064098
0.000626439
0.000612867
0.000600183
0.000588312
0.000577185
0.000566743
0.000556928
0.000547692
0.000538987
0.000530772
0.000523009
0.000515664
0.000508705
0.000502103
0.000495832
0.000489869
0.00048419
0.000478778
0.000473612
0.000468679
0.000463961
0.000459448
0.000455125
0.000450985
0.000447016
0.000443212
0.000439566
0.000436073
0.000432729
0.000429533
0.000426482
0.000423579
0.000420824
0.000418222
0.000415779
0.000413501
0.000411398
0.000409481
0.000407762
0.000406257
0.000404982
0.000403956
0.000403199
0.000402733
0.000402582
0.000402769
0.000403319
0.000404257
0.000405607
0.000407393
0.000409635
0.000412354
0.000415564
0.000419279
0.000423504
0.000428243
0.000433492
0.000439243
0.000445482
0.000452188
0.000459335
0.000466892
0.000474824
0.000483089
0.000491644
0.000500441
0.000509432
0.000518563
0.000527781
0.000537032
0.000546261
0.000555398
0.00056441
0.000573233
0.000581811
0.000590084
0.000597993
0.000605476
0.000612468
0.000618898
0.000624693
0.000629771
0.000634044
0.000637416
0.000639776
0.000641002
0.000977115
0.000936699
0.000899633
0.000865599
0.000834308
0.000805502
0.000778949
0.000754439
0.000731785
0.000710817
0.000691384
0.000673348
0.000656585
0.000640984
0.000626443
0.000612872
0.000600188
0.000588317
0.000577191
0.000566749
0.000556935
0.000547699
0.000538994
0.00053078
0.000523017
0.000515673
0.000508714
0.000502113
0.000495842
0.000489879
0.000484201
0.000478789
0.000473625
0.000468691
0.000463975
0.000459462
0.00045514
0.000451
0.000447032
0.000443228
0.000439583
0.00043609
0.000432747
0.000429551
0.0004265
0.000423597
0.000420842
0.00041824
0.000415796
0.000413517
0.000411413
0.000409493
0.000407772
0.000406264
0.000404985
0.000403954
0.000403191
0.000402719
0.00040256
0.000402738
0.000403278
0.000404204
0.000405542
0.000407314
0.000409541
0.000412244
0.000415437
0.000419133
0.000423339
0.000428059
0.000433289
0.00043902
0.00044524
0.000451927
0.000459057
0.000466598
0.000474514
0.000482766
0.00049131
0.000500098
0.00050908
0.000518206
0.000527421
0.000536671
0.000545901
0.000555041
0.000564058
0.000572887
0.000581472
0.000589754
0.000597673
0.000605167
0.000612169
0.00061861
0.000624415
0.000629503
0.000633785
0.000637162
0.000639527
0.000640756
0.000977115
0.000936699
0.000899634
0.0008656
0.000834309
0.000805504
0.000778951
0.000754441
0.000731787
0.00071082
0.000691387
0.000673352
0.000656589
0.000640988
0.000626448
0.000612877
0.000600194
0.000588323
0.000577197
0.000566756
0.000556942
0.000547706
0.000539002
0.000530788
0.000523026
0.000515682
0.000508724
0.000502123
0.000495853
0.00048989
0.000484213
0.000478802
0.000473638
0.000468705
0.000463989
0.000459477
0.000455156
0.000451016
0.000447049
0.000443246
0.000439601
0.000436109
0.000432766
0.000429571
0.000426521
0.000423617
0.000420862
0.00041826
0.000415815
0.000413535
0.000411429
0.000409508
0.000407784
0.000406272
0.000404989
0.000403953
0.000403184
0.000402705
0.000402537
0.000402706
0.000403235
0.00040415
0.000405474
0.000407231
0.000409442
0.000412127
0.000415302
0.000418979
0.000423165
0.000427864
0.000433073
0.000438784
0.000444983
0.00045165
0.000458761
0.000466284
0.000474184
0.000482422
0.000490953
0.00049973
0.000508705
0.000517825
0.000527037
0.000536285
0.000545516
0.000554659
0.00056368
0.000572516
0.000581109
0.0005894
0.000597329
0.000604834
0.000611847
0.000618299
0.000624115
0.000629213
0.000633503
0.000636888
0.000639258
0.000640489
0.000977115
0.000936699
0.000899634
0.000865601
0.000834311
0.000805505
0.000778952
0.000754443
0.00073179
0.000710823
0.000691391
0.000673355
0.000656593
0.000640993
0.000626453
0.000612883
0.0006002
0.000588329
0.000577204
0.000566762
0.000556949
0.000547714
0.00053901
0.000530797
0.000523036
0.000515692
0.000508734
0.000502134
0.000495865
0.000489903
0.000484226
0.000478815
0.000473652
0.00046872
0.000464005
0.000459494
0.000455173
0.000451035
0.000447068
0.000443266
0.000439621
0.00043613
0.000432788
0.000429592
0.000426543
0.000423639
0.000420884
0.000418281
0.000415836
0.000413555
0.000411447
0.000409523
0.000407797
0.000406281
0.000404994
0.000403953
0.000403178
0.000402691
0.000402515
0.000402673
0.000403191
0.000404093
0.000405403
0.000407144
0.000409339
0.000412006
0.000415161
0.000418817
0.000422982
0.000427659
0.000432846
0.000438535
0.000444712
0.000451359
0.000458449
0.000465954
0.000473837
0.000482059
0.000490577
0.000499343
0.000508309
0.000517422
0.00052663
0.000535877
0.000545108
0.000554253
0.000563279
0.000572122
0.000580723
0.000589023
0.000596963
0.000604478
0.000611504
0.000617968
0.000623795
0.000628903
0.000633202
0.000636595
0.00063897
0.000640203
0.000977115
0.000936699
0.000899635
0.000865602
0.000834312
0.000805507
0.000778954
0.000754445
0.000731792
0.000710826
0.000691394
0.000673359
0.000656597
0.000640997
0.000626458
0.000612888
0.000600205
0.000588336
0.000577211
0.00056677
0.000556957
0.000547722
0.000539019
0.000530806
0.000523045
0.000515702
0.000508745
0.000502146
0.000495877
0.000489916
0.00048424
0.00047883
0.000473668
0.000468737
0.000464022
0.000459511
0.000455192
0.000451054
0.000447088
0.000443287
0.000439643
0.000436152
0.000432811
0.000429616
0.000426566
0.000423663
0.000420908
0.000418305
0.000415858
0.000413576
0.000411467
0.000409541
0.000407811
0.000406292
0.000405
0.000403954
0.000403172
0.000402678
0.000402492
0.000402641
0.000403147
0.000404035
0.00040533
0.000407055
0.000409232
0.00041188
0.000415015
0.000418649
0.000422792
0.000427446
0.00043261
0.000438276
0.00044443
0.000451055
0.000458124
0.000465609
0.000473474
0.00048168
0.000490183
0.000498938
0.000507894
0.000517
0.000526204
0.000535448
0.00054468
0.000553828
0.000562858
0.000571707
0.000580316
0.000588627
0.000596577
0.000604104
0.000611141
0.000617617
0.000623455
0.000628574
0.000632883
0.000636283
0.000638664
0.0006399
0.000977115
0.0009367
0.000899635
0.000865602
0.000834313
0.000805508
0.000778956
0.000754447
0.000731795
0.000710829
0.000691397
0.000673363
0.000656601
0.000641002
0.000626463
0.000612894
0.000600211
0.000588342
0.000577218
0.000566777
0.000556965
0.000547731
0.000539028
0.000530816
0.000523056
0.000515713
0.000508757
0.000502158
0.00049589
0.00048993
0.000484255
0.000478845
0.000473684
0.000468754
0.00046404
0.00045953
0.000455212
0.000451075
0.00044711
0.000443309
0.000439666
0.000436176
0.000432835
0.000429641
0.000426592
0.000423689
0.000420933
0.00041833
0.000415883
0.000413599
0.000411488
0.00040956
0.000407827
0.000406305
0.000405008
0.000403956
0.000403168
0.000402665
0.00040247
0.000402608
0.000403102
0.000403976
0.000405256
0.000406965
0.000409123
0.000411751
0.000414865
0.000418477
0.000422597
0.000427227
0.000432367
0.000438009
0.00044414
0.000450741
0.000457788
0.000465252
0.000473098
0.000481287
0.000489776
0.000498517
0.000507464
0.000516562
0.00052576
0.000535003
0.000544235
0.000553384
0.00056242
0.000571275
0.000579892
0.000588212
0.000596173
0.000603712
0.000610761
0.000617249
0.000623099
0.000628229
0.000632548
0.000635956
0.000638342
0.000639581
0.000977116
0.0009367
0.000899636
0.000865603
0.000834314
0.000805509
0.000778957
0.000754449
0.000731797
0.000710832
0.000691401
0.000673366
0.000656606
0.000641006
0.000626468
0.000612899
0.000600218
0.000588349
0.000577225
0.000566785
0.000556973
0.00054774
0.000539038
0.000530826
0.000523067
0.000515725
0.000508769
0.000502171
0.000495904
0.000489944
0.00048427
0.000478862
0.000473701
0.000468772
0.000464059
0.00045955
0.000455233
0.000451096
0.000447132
0.000443333
0.000439691
0.000436202
0.000432861
0.000429667
0.000426619
0.000423716
0.000420961
0.000418356
0.000415909
0.000413624
0.000411511
0.000409581
0.000407845
0.000406319
0.000405017
0.000403959
0.000403164
0.000402653
0.000402449
0.000402576
0.000403057
0.000403917
0.000405182
0.000406872
0.000409012
0.000411619
0.000414712
0.000418301
0.000422397
0.000427003
0.000432118
0.000437735
0.000443841
0.000450419
0.000457443
0.000464886
0.000472712
0.000480883
0.000489356
0.000498085
0.00050702
0.000516111
0.000525303
0.000534543
0.000543774
0.000552926
0.000561966
0.000570827
0.000579453
0.000587782
0.000595754
0.000603304
0.000610365
0.000616866
0.000622728
0.000627869
0.000632198
0.000635614
0.000638006
0.000639248
0.000977116
0.0009367
0.000899636
0.000865604
0.000834314
0.00080551
0.000778959
0.000754451
0.0007318
0.000710834
0.000691404
0.00067337
0.00065661
0.000641011
0.000626473
0.000612905
0.000600224
0.000588355
0.000577232
0.000566793
0.000556982
0.000547749
0.000539047
0.000530836
0.000523078
0.000515737
0.000508782
0.000502184
0.000495918
0.000489959
0.000484286
0.000478879
0.000473719
0.00046879
0.000464079
0.000459571
0.000455254
0.000451119
0.000447156
0.000443357
0.000439716
0.000436228
0.000432889
0.000429695
0.000426647
0.000423744
0.000420989
0.000418385
0.000415936
0.00041365
0.000411536
0.000409603
0.000407864
0.000406334
0.000405028
0.000403964
0.000403161
0.000402642
0.000402428
0.000402544
0.000403012
0.000403858
0.000405106
0.00040678
0.0004089
0.000411486
0.000414556
0.000418123
0.000422194
0.000426775
0.000431865
0.000437456
0.000443537
0.00045009
0.000457091
0.000464512
0.000472318
0.00048047
0.000488927
0.000497641
0.000506566
0.000515648
0.000524834
0.00053407
0.000543301
0.000552455
0.000561498
0.000570366
0.000579
0.000587339
0.000595321
0.000602883
0.000609957
0.000616469
0.000622344
0.000627496
0.000631834
0.000635259
0.000637658
0.000638903
0.000977116
0.0009367
0.000899637
0.000865604
0.000834315
0.000805511
0.00077896
0.000754453
0.000731802
0.000710837
0.000691407
0.000673374
0.000656614
0.000641016
0.000626478
0.00061291
0.00060023
0.000588362
0.00057724
0.000566801
0.00055699
0.000547758
0.000539057
0.000530847
0.000523089
0.000515749
0.000508795
0.000502198
0.000495933
0.000489975
0.000484303
0.000478896
0.000473737
0.00046881
0.0004641
0.000459592
0.000455277
0.000451143
0.000447181
0.000443383
0.000439743
0.000436256
0.000432917
0.000429724
0.000426677
0.000423774
0.000421019
0.000418414
0.000415965
0.000413678
0.000411562
0.000409627
0.000407885
0.00040635
0.000405039
0.000403969
0.00040316
0.000402632
0.000402409
0.000402512
0.000402968
0.000403799
0.000405031
0.000406686
0.000408787
0.000411353
0.0004144
0.000417942
0.000421989
0.000426545
0.000431608
0.000437174
0.000443229
0.000449757
0.000456734
0.000464132
0.000471917
0.00048005
0.00048849
0.00049719
0.000506103
0.000515175
0.000524356
0.000533588
0.000542818
0.000551973
0.000561021
0.000569894
0.000578536
0.000586884
0.000594877
0.000602451
0.000609537
0.000616061
0.000621948
0.000627111
0.00063146
0.000634893
0.000637298
0.000638546
0.000977116
0.0009367
0.000899637
0.000865605
0.000834316
0.000805513
0.000778962
0.000754455
0.000731804
0.00071084
0.00069141
0.000673377
0.000656618
0.00064102
0.000626483
0.000612916
0.000600236
0.000588369
0.000577247
0.000566809
0.000556999
0.000547767
0.000539068
0.000530858
0.000523101
0.000515761
0.000508808
0.000502212
0.000495948
0.000489991
0.00048432
0.000478914
0.000473756
0.00046883
0.000464121
0.000459615
0.000455301
0.000451168
0.000447207
0.00044341
0.000439771
0.000436285
0.000432947
0.000429755
0.000426707
0.000423805
0.00042105
0.000418445
0.000415995
0.000413707
0.000411589
0.000409652
0.000407907
0.000406368
0.000405052
0.000403976
0.00040316
0.000402624
0.00040239
0.000402482
0.000402925
0.000403741
0.000404957
0.000406594
0.000408674
0.000411218
0.000414243
0.000417761
0.000421783
0.000426313
0.00043135
0.000436889
0.000442918
0.000449421
0.000456373
0.000463748
0.000471511
0.000479625
0.000488047
0.000496733
0.000505633
0.000514697
0.00052387
0.000533099
0.000542327
0.000551483
0.000560534
0.000569414
0.000578063
0.00058642
0.000594424
0.000602009
0.000609107
0.000615644
0.000621543
0.000626717
0.000631076
0.000634518
0.000636929
0.00063818
0.000977116
0.000936701
0.000899637
0.000865605
0.000834317
0.000805514
0.000778963
0.000754457
0.000731806
0.000710842
0.000691413
0.000673381
0.000656622
0.000641025
0.000626488
0.000612922
0.000600242
0.000588376
0.000577254
0.000566817
0.000557008
0.000547777
0.000539078
0.000530869
0.000523113
0.000515774
0.000508822
0.000502227
0.000495963
0.000490007
0.000484337
0.000478933
0.000473776
0.000468851
0.000464143
0.000459638
0.000455325
0.000451193
0.000447233
0.000443437
0.0004398
0.000436314
0.000432977
0.000429786
0.000426739
0.000423838
0.000421082
0.000418477
0.000416027
0.000413737
0.000411618
0.000409678
0.00040793
0.000406387
0.000405067
0.000403985
0.000403161
0.000402616
0.000402372
0.000402453
0.000402882
0.000403684
0.000404883
0.000406501
0.000408562
0.000411085
0.000414086
0.00041758
0.000421577
0.00042608
0.000431091
0.000436603
0.000442606
0.000449083
0.00045601
0.000463361
0.000471103
0.000479197
0.000487602
0.000496272
0.00050516
0.000514213
0.000523379
0.000532603
0.00054183
0.000550987
0.000560041
0.000568926
0.000577583
0.000585949
0.000593964
0.00060156
0.00060867
0.000615219
0.000621129
0.000626316
0.000630685
0.000634135
0.000636552
0.000637806
0.000977116
0.000936701
0.000899638
0.000865606
0.000834318
0.000805515
0.000778965
0.000754458
0.000731808
0.000710845
0.000691416
0.000673384
0.000656626
0.000641029
0.000626493
0.000612927
0.000600249
0.000588383
0.000577262
0.000566825
0.000557017
0.000547786
0.000539088
0.00053088
0.000523125
0.000515787
0.000508836
0.000502242
0.000495979
0.000490024
0.000484355
0.000478951
0.000473796
0.000468872
0.000464165
0.000459661
0.000455349
0.000451219
0.00044726
0.000443466
0.000439829
0.000436344
0.000433008
0.000429818
0.000426772
0.000423871
0.000421116
0.00041851
0.000416059
0.000413768
0.000411647
0.000409705
0.000407954
0.000406408
0.000405082
0.000403994
0.000403163
0.000402609
0.000402356
0.000402425
0.000402841
0.000403628
0.00040481
0.00040641
0.000408451
0.000410952
0.00041393
0.0004174
0.000421371
0.000425848
0.000430832
0.000436318
0.000442294
0.000448744
0.000455647
0.000462974
0.000470694
0.000478767
0.000487154
0.000495809
0.000504684
0.000513727
0.000522885
0.000532104
0.000541329
0.000550487
0.000559544
0.000568435
0.000577098
0.000585474
0.000593498
0.000601106
0.000608227
0.000614788
0.00062071
0.000625908
0.000630287
0.000633745
0.000636168
0.000637426
0.000977116
0.000936701
0.000899638
0.000865606
0.000834318
0.000805516
0.000778966
0.00075446
0.00073181
0.000710847
0.000691419
0.000673387
0.000656629
0.000641033
0.000626498
0.000612933
0.000600255
0.000588389
0.000577269
0.000566833
0.000557026
0.000547796
0.000539099
0.000530891
0.000523137
0.0005158
0.000508849
0.000502256
0.000495995
0.000490041
0.000484373
0.00047897
0.000473816
0.000468893
0.000464187
0.000459685
0.000455374
0.000451245
0.000447288
0.000443494
0.000439859
0.000436375
0.00043304
0.000429851
0.000426805
0.000423904
0.000421149
0.000418544
0.000416092
0.000413801
0.000411678
0.000409733
0.000407979
0.000406429
0.000405098
0.000404004
0.000403166
0.000402604
0.00040234
0.000402398
0.000402801
0.000403573
0.000404738
0.00040632
0.000408341
0.000410821
0.000413776
0.000417221
0.000421167
0.000425618
0.000430575
0.000436033
0.000441983
0.000448407
0.000455285
0.000462588
0.000470285
0.000478338
0.000486707
0.000495346
0.000504207
0.00051324
0.00052239
0.000531604
0.000540826
0.000549984
0.000559045
0.00056794
0.00057661
0.000584994
0.000593029
0.000600647
0.00060778
0.000614353
0.000620287
0.000625495
0.000629884
0.000633351
0.00063578
0.000637041
0.000977116
0.000936701
0.000899638
0.000865607
0.000834319
0.000805517
0.000778967
0.000754462
0.000731812
0.000710849
0.000691421
0.00067339
0.000656633
0.000641038
0.000626503
0.000612938
0.000600261
0.000588396
0.000577277
0.000566841
0.000557034
0.000547806
0.000539109
0.000530903
0.000523149
0.000515813
0.000508863
0.000502271
0.000496011
0.000490058
0.000484391
0.00047899
0.000473836
0.000468915
0.00046421
0.000459709
0.0004554
0.000451272
0.000447316
0.000443523
0.000439889
0.000436407
0.000433072
0.000429884
0.000426839
0.000423939
0.000421184
0.000418578
0.000416126
0.000413833
0.000411709
0.000409762
0.000408005
0.000406451
0.000405116
0.000404016
0.00040317
0.0004026
0.000402326
0.000402372
0.000402762
0.000403519
0.000404668
0.000406232
0.000408233
0.000410691
0.000413623
0.000417044
0.000420965
0.000425389
0.00043032
0.000435752
0.000441674
0.000448073
0.000454925
0.000462204
0.000469878
0.000477911
0.000486261
0.000494884
0.000503732
0.000512754
0.000521896
0.000531105
0.000540323
0.000549482
0.000558545
0.000567445
0.000576121
0.000584514
0.000592558
0.000600187
0.000607331
0.000613916
0.000619861
0.00062508
0.000629479
0.000632954
0.000635389
0.000636653
0.000977116
0.000936701
0.000899638
0.000865607
0.00083432
0.000805517
0.000778968
0.000754463
0.000731814
0.000710852
0.000691424
0.000673394
0.000656637
0.000641042
0.000626508
0.000612943
0.000600266
0.000588402
0.000577284
0.000566849
0.000557043
0.000547815
0.000539119
0.000530914
0.000523161
0.000515826
0.000508877
0.000502286
0.000496027
0.000490075
0.000484409
0.000479009
0.000473857
0.000468937
0.000464233
0.000459733
0.000455425
0.000451299
0.000447344
0.000443553
0.00043992
0.000436438
0.000433105
0.000429917
0.000426873
0.000423974
0.000421219
0.000418613
0.00041616
0.000413867
0.000411741
0.000409792
0.000408032
0.000406474
0.000405134
0.000404028
0.000403175
0.000402597
0.000402313
0.000402348
0.000402725
0.000403468
0.0004046
0.000406146
0.000408127
0.000410564
0.000413473
0.00041687
0.000420765
0.000425164
0.000430068
0.000435473
0.000441369
0.000447741
0.000454568
0.000461823
0.000469475
0.000477487
0.000485819
0.000494426
0.00050326
0.00051227
0.000521405
0.000530608
0.000539823
0.000548981
0.000558046
0.00056695
0.000575633
0.000584033
0.000592087
0.000599726
0.000606881
0.000613477
0.000619434
0.000624663
0.000629072
0.000632555
0.000634996
0.000636264
0.000977116
0.000936701
0.000899639
0.000865608
0.00083432
0.000805518
0.000778969
0.000754464
0.000731816
0.000710854
0.000691426
0.000673397
0.00065664
0.000641046
0.000626512
0.000612948
0.000600272
0.000588409
0.000577291
0.000566857
0.000557052
0.000547824
0.000539129
0.000530925
0.000523173
0.000515839
0.000508891
0.000502301
0.000496043
0.000490092
0.000484427
0.000479028
0.000473878
0.000468959
0.000464256
0.000459758
0.000455451
0.000451326
0.000447372
0.000443582
0.00043995
0.00043647
0.000433138
0.000429951
0.000426908
0.000424009
0.000421254
0.000418648
0.000416195
0.000413901
0.000411773
0.000409822
0.000408059
0.000406498
0.000405153
0.000404041
0.000403182
0.000402594
0.000402301
0.000402325
0.000402689
0.000403417
0.000404534
0.000406062
0.000408024
0.000410439
0.000413326
0.000416699
0.000420569
0.000424943
0.00042982
0.000435199
0.000441068
0.000447414
0.000454216
0.000461447
0.000469077
0.000477069
0.000485382
0.000493972
0.000502792
0.000511792
0.000520917
0.000530114
0.000539327
0.000548484
0.000557551
0.000566459
0.000575148
0.000583555
0.000591617
0.000599267
0.000606433
0.00061304
0.000619007
0.000624247
0.000628665
0.000632156
0.000634603
0.000635874
0.000977116
0.000936702
0.000899639
0.000865608
0.000834321
0.000805519
0.00077897
0.000754466
0.000731817
0.000710856
0.000691429
0.000673399
0.000656644
0.000641049
0.000626516
0.000612953
0.000600278
0.000588415
0.000577298
0.000566865
0.00055706
0.000547834
0.000539139
0.000530936
0.000523184
0.000515851
0.000508905
0.000502316
0.000496059
0.000490109
0.000484445
0.000479048
0.000473898
0.00046898
0.000464279
0.000459782
0.000455477
0.000451353
0.0004474
0.000443612
0.000439981
0.000436502
0.000433171
0.000429985
0.000426943
0.000424044
0.00042129
0.000418684
0.00041623
0.000413935
0.000411806
0.000409853
0.000408087
0.000406522
0.000405172
0.000404055
0.000403189
0.000402593
0.000402291
0.000402304
0.000402655
0.000403369
0.00040447
0.00040598
0.000407923
0.000410318