/*--------------------------------*- C++ -*----------------------------------*\
  =========                 |
  \\      /  F ield         | OpenFOAM: The Open Source CFD Toolbox
   \\    /   O peration     | Website:  https://openfoam.org
    \\  /    A nd           | Version:  11
     \\/     M anipulation  |
\*---------------------------------------------------------------------------*/
FoamFile
{
    format      ascii;
    class       volVectorField;
    location    "376";
    object      U;
}
// * * * * * * * * * * * * * * * * * * * * * * * * * * * * * * * * * * * * * //

dimensions      [0 1 -1 0 0 0 0];

internalField   nonuniform List<vector> 
10000
(
(0.00499992 -2.63996e-06 0)
(0.00499958 -7.67861e-06 0)
(0.00499912 -1.27081e-05 0)
(0.00499855 -1.78387e-05 0)
(0.00499787 -2.31289e-05 0)
(0.00499709 -2.86178e-05 0)
(0.00499619 -3.43358e-05 0)
(0.00499517 -4.03082e-05 0)
(0.00499403 -4.65575e-05 0)
(0.00499276 -5.31041e-05 0)
(0.00499135 -5.99674e-05 0)
(0.00498979 -6.71659e-05 0)
(0.00498808 -7.47178e-05 0)
(0.0049862 -8.26409e-05 0)
(0.00498415 -9.09528e-05 0)
(0.00498191 -9.96711e-05 0)
(0.00497947 -0.000108813 0)
(0.00497683 -0.000118397 0)
(0.00497397 -0.000128439 0)
(0.00497087 -0.000138957 0)
(0.00496754 -0.000149968 0)
(0.00496395 -0.000161489 0)
(0.00496009 -0.000173538 0)
(0.00495594 -0.000186131 0)
(0.0049515 -0.000199284 0)
(0.00494674 -0.000213014 0)
(0.00494165 -0.000227337 0)
(0.00493622 -0.000242267 0)
(0.00493042 -0.000257819 0)
(0.00492425 -0.000274008 0)
(0.00491768 -0.000290845 0)
(0.00491069 -0.000308343 0)
(0.00490327 -0.000326511 0)
(0.00489539 -0.000345359 0)
(0.00488705 -0.000364894 0)
(0.00487821 -0.000385122 0)
(0.00486886 -0.000406044 0)
(0.00485898 -0.000427663 0)
(0.00484855 -0.000449974 0)
(0.00483754 -0.000472974 0)
(0.00482594 -0.000496652 0)
(0.00481373 -0.000520995 0)
(0.00480089 -0.000545985 0)
(0.00478739 -0.0005716 0)
(0.00477323 -0.000597811 0)
(0.00475837 -0.000624584 0)
(0.00474282 -0.000651877 0)
(0.00472654 -0.000679641 0)
(0.00470953 -0.000707821 0)
(0.00469178 -0.000736353 0)
(0.00467327 -0.000765161 0)
(0.00465401 -0.000794164 0)
(0.00463398 -0.000823269 0)
(0.0046132 -0.000852373 0)
(0.00459166 -0.000881365 0)
(0.00456938 -0.000910122 0)
(0.00454637 -0.000938514 0)
(0.00452266 -0.000966401 0)
(0.00449826 -0.000993638 0)
(0.00447322 -0.00102007 0)
(0.00444758 -0.00104555 0)
(0.00442137 -0.00106991 0)
(0.00439467 -0.00109301 0)
(0.00436752 -0.00111469 0)
(0.00434 -0.00113481 0)
(0.00431218 -0.00115324 0)
(0.00428415 -0.00116987 0)
(0.00425599 -0.0011846 0)
(0.00422781 -0.00119736 0)
(0.00419989 -0.00120817 0)
(0.00417175 -0.00121709 0)
(0.0041433 -0.00122382 0)
(0.00411482 -0.00122838 0)
(0.00408624 -0.00123084 0)
(0.0040578 -0.00123115 0)
(0.00403014 -0.00122942 0)
(0.00400336 -0.00122583 0)
(0.00397738 -0.00122045 0)
(0.00395236 -0.00121342 0)
(0.00392813 -0.00120496 0)
(0.00390441 -0.00119519 0)
(0.00388135 -0.00118418 0)
(0.00385902 -0.00117205 0)
(0.00383744 -0.00115893 0)
(0.00381667 -0.00114495 0)
(0.00379673 -0.00113025 0)
(0.00377765 -0.00111496 0)
(0.00375947 -0.00109923 0)
(0.0037422 -0.0010832 0)
(0.00372589 -0.001067 0)
(0.00371056 -0.0010508 0)
(0.00369624 -0.00103474 0)
(0.00368299 -0.00101899 0)
(0.00367084 -0.00100373 0)
(0.00365985 -0.000989168 0)
(0.00365009 -0.000975532 0)
(0.00364167 -0.000963105 0)
(0.00363467 -0.000952233 0)
(0.00362908 -0.000943494 0)
(0.00362511 -0.000938252 0)
(0.00499997 -2.41446e-06 0)
(0.00499965 -7.24583e-06 0)
(0.00499921 -1.21421e-05 0)
(0.00499864 -1.7153e-05 0)
(0.00499796 -2.23244e-05 0)
(0.00499717 -2.76913e-05 0)
(0.00499627 -3.32819e-05 0)
(0.00499525 -3.91202e-05 0)
(0.00499411 -4.52278e-05 0)
(0.00499284 -5.16243e-05 0)
(0.00499143 -5.83285e-05 0)
(0.00498987 -6.53584e-05 0)
(0.00498815 -7.27316e-05 0)
(0.00498627 -8.04654e-05 0)
(0.00498422 -8.85769e-05 0)
(0.00498198 -9.70831e-05 0)
(0.00497954 -0.000106001 0)
(0.0049769 -0.000115347 0)
(0.00497404 -0.000125138 0)
(0.00497095 -0.000135392 0)
(0.00496762 -0.000146124 0)
(0.00496403 -0.000157351 0)
(0.00496017 -0.000169091 0)
(0.00495603 -0.000181358 0)
(0.00495159 -0.000194168 0)
(0.00494683 -0.000207538 0)
(0.00494175 -0.000221483 0)
(0.00493632 -0.000236017 0)
(0.00493053 -0.000251153 0)
(0.00492436 -0.000266906 0)
(0.00491779 -0.000283288 0)
(0.00491081 -0.000300309 0)
(0.0049034 -0.00031798 0)
(0.00489553 -0.000336309 0)
(0.00488719 -0.000355302 0)
(0.00487836 -0.000374966 0)
(0.00486902 -0.000395302 0)
(0.00485915 -0.00041631 0)
(0.00484873 -0.000437989 0)
(0.00483774 -0.000460333 0)
(0.00482615 -0.000483332 0)
(0.00481395 -0.000506973 0)
(0.00480112 -0.00053124 0)
(0.00478765 -0.000556109 0)
(0.0047735 -0.000581554 0)
(0.00475866 -0.000607541 0)
(0.00474312 -0.00063403 0)
(0.00472687 -0.000660974 0)
(0.00470988 -0.00068832 0)
(0.00469215 -0.000716006 0)
(0.00467367 -0.00074396 0)
(0.00465444 -0.000772104 0)
(0.00463444 -0.000800349 0)
(0.00461369 -0.000828597 0)
(0.00459218 -0.000856742 0)
(0.00456993 -0.000884667 0)
(0.00454696 -0.000912248 0)
(0.00452328 -0.000939351 0)
(0.00449892 -0.00096584 0)
(0.00447391 -0.000991568 0)
(0.00444831 -0.00101639 0)
(0.00442214 -0.00104016 0)
(0.00439547 -0.00106272 0)
(0.00436835 -0.00108394 0)
(0.00434086 -0.00110368 0)
(0.00431305 -0.00112183 0)
(0.00428501 -0.00113826 0)
(0.0042568 -0.00115289 0)
(0.00422847 -0.00116564 0)
(0.00420013 -0.00117639 0)
(0.0041716 -0.00118496 0)
(0.00414315 -0.00119142 0)
(0.00411495 -0.00119586 0)
(0.00408706 -0.00119839 0)
(0.00405955 -0.00119924 0)
(0.00403245 -0.00119843 0)
(0.00400582 -0.00119588 0)
(0.00397972 -0.0011916 0)
(0.00395431 -0.00118561 0)
(0.00392973 -0.001178 0)
(0.00390585 -0.00116902 0)
(0.00388271 -0.00115882 0)
(0.00386031 -0.00114754 0)
(0.00383869 -0.00113531 0)
(0.00381788 -0.00112225 0)
(0.0037979 -0.0011085 0)
(0.00377878 -0.00109421 0)
(0.00376055 -0.00107949 0)
(0.00374324 -0.00106451 0)
(0.00372687 -0.00104939 0)
(0.00371147 -0.00103431 0)
(0.00369708 -0.0010194 0)
(0.00368374 -0.00100486 0)
(0.00367148 -0.000990855 0)
(0.00366036 -0.000977612 0)
(0.00365043 -0.000965377 0)
(0.00364177 -0.000954447 0)
(0.00363442 -0.00094519 0)
(0.00362809 -0.000938159 0)
(0.00362284 -0.00093436 0)
(0.00499999 -2.2334e-06 0)
(0.00499972 -6.84531e-06 0)
(0.00499931 -1.15901e-05 0)
(0.00499876 -1.64738e-05 0)
(0.00499808 -2.15245e-05 0)
(0.0049973 -2.67698e-05 0)
(0.0049964 -3.22345e-05 0)
(0.00499538 -3.79408e-05 0)
(0.00499424 -4.39092e-05 0)
(0.00499297 -5.01585e-05 0)
(0.00499155 -5.67069e-05 0)
(0.00498999 -6.35718e-05 0)
(0.00498828 -7.07703e-05 0)
(0.0049864 -7.8319e-05 0)
(0.00498435 -8.62347e-05 0)
(0.00498211 -9.45337e-05 0)
(0.00497967 -0.000103232 0)
(0.00497703 -0.000112347 0)
(0.00497418 -0.000121895 0)
(0.00497109 -0.000131891 0)
(0.00496776 -0.000142351 0)
(0.00496417 -0.000153293 0)
(0.00496032 -0.000164731 0)
(0.00495618 -0.000176681 0)
(0.00495175 -0.000189159 0)
(0.004947 -0.00020218 0)
(0.00494192 -0.000215758 0)
(0.0049365 -0.000229907 0)
(0.00493072 -0.000244641 0)
(0.00492456 -0.000259973 0)
(0.00491801 -0.000275913 0)
(0.00491104 -0.000292474 0)
(0.00490364 -0.000309664 0)
(0.00489578 -0.000327491 0)
(0.00488746 -0.000345962 0)
(0.00487865 -0.000365081 0)
(0.00486933 -0.000384852 0)
(0.00485948 -0.000405273 0)
(0.00484908 -0.000426343 0)
(0.00483811 -0.000448055 0)
(0.00482655 -0.000470402 0)
(0.00481438 -0.000493369 0)
(0.00480158 -0.000516941 0)
(0.00478813 -0.000541095 0)
(0.00477402 -0.000565805 0)
(0.00475922 -0.000591039 0)
(0.00474372 -0.000616758 0)
(0.0047275 -0.000642918 0)
(0.00471056 -0.000669466 0)
(0.00469288 -0.000696343 0)
(0.00467445 -0.000723481 0)
(0.00465527 -0.000750805 0)
(0.00463533 -0.000778229 0)
(0.00461464 -0.000805661 0)
(0.00459319 -0.000832998 0)
(0.00457101 -0.000860128 0)
(0.00454811 -0.000886935 0)
(0.0045245 -0.00091329 0)
(0.00450022 -0.000939063 0)
(0.0044753 -0.000964115 0)
(0.00444977 -0.000988306 0)
(0.00442369 -0.0010115 0)
(0.00439709 -0.00103354 0)
(0.00437005 -0.00105431 0)
(0.00434262 -0.00107368 0)
(0.00431486 -0.00109152 0)
(0.00428685 -0.00110772 0)
(0.00425865 -0.00112219 0)
(0.00423031 -0.00113484 0)
(0.00420191 -0.00114555 0)
(0.00417352 -0.0011543 0)
(0.00414525 -0.00116112 0)
(0.00411721 -0.00116602 0)
(0.00408948 -0.00116905 0)
(0.00406212 -0.00117029 0)
(0.00403516 -0.0011698 0)
(0.00400865 -0.00116761 0)
(0.00398267 -0.0011638 0)
(0.00395728 -0.00115844 0)
(0.00393258 -0.0011516 0)
(0.00390859 -0.00114341 0)
(0.00388535 -0.00113401 0)
(0.00386286 -0.00112357 0)
(0.00384116 -0.00111219 0)
(0.00382026 -0.00110002 0)
(0.00380019 -0.0010872 0)
(0.00378098 -0.00107385 0)
(0.00376264 -0.00106011 0)
(0.00374521 -0.00104613 0)
(0.00372871 -0.00103206 0)
(0.00371317 -0.00101804 0)
(0.00369861 -0.00100424 0)
(0.00368507 -0.000990842 0)
(0.00367257 -0.000978032 0)
(0.00366115 -0.00096603 0)
(0.00365084 -0.000955087 0)
(0.0036417 -0.0009455 0)
(0.00363367 -0.000937613 0)
(0.00362623 -0.000931881 0)
(0.00361946 -0.000928977 0)
(0.00499999 -2.10943e-06 0)
(0.00499977 -6.52459e-06 0)
(0.0049994 -1.11155e-05 0)
(0.00499887 -1.58698e-05 0)
(0.00499821 -2.08015e-05 0)
(0.00499744 -2.59305e-05 0)
(0.00499655 -3.12772e-05 0)
(0.00499553 -3.68613e-05 0)
(0.00499439 -4.27015e-05 0)
(0.00499312 -4.88158e-05 0)
(0.00499171 -5.52215e-05 0)
(0.00499015 -6.19354e-05 0)
(0.00498843 -6.8974e-05 0)
(0.00498655 -7.63536e-05 0)
(0.0049845 -8.40902e-05 0)
(0.00498226 -9.21999e-05 0)
(0.00497983 -0.000100699 0)
(0.00497719 -0.000109602 0)
(0.00497434 -0.000118926 0)
(0.00497126 -0.000128686 0)
(0.00496793 -0.000138899 0)
(0.00496435 -0.000149579 0)
(0.0049605 -0.000160742 0)
(0.00495637 -0.000172403 0)
(0.00495194 -0.000184576 0)
(0.0049472 -0.000197278 0)
(0.00494214 -0.00021052 0)
(0.00493673 -0.000224318 0)
(0.00493096 -0.000238684 0)
(0.00492481 -0.00025363 0)
(0.00491827 -0.000269167 0)
(0.00491132 -0.000285306 0)
(0.00490393 -0.000302056 0)
(0.0048961 -0.000319424 0)
(0.0048878 -0.000337417 0)
(0.00487901 -0.000356039 0)
(0.00486971 -0.000375292 0)
(0.00485989 -0.000395176 0)
(0.00484951 -0.000415688 0)
(0.00483858 -0.000436823 0)
(0.00482705 -0.000458573 0)
(0.00481492 -0.000480923 0)
(0.00480216 -0.000503859 0)
(0.00478875 -0.000527359 0)
(0.00477468 -0.000551397 0)
(0.00475994 -0.000575942 0)
(0.00474449 -0.000600957 0)
(0.00472834 -0.000626398 0)
(0.00471146 -0.000652216 0)
(0.00469384 -0.000678354 0)
(0.00467549 -0.000704746 0)
(0.00465638 -0.000731319 0)
(0.00463653 -0.000757992 0)
(0.00461592 -0.000784676 0)
(0.00459457 -0.000811273 0)
(0.00457249 -0.000837678 0)
(0.00454969 -0.000863775 0)
(0.00452619 -0.000889445 0)
(0.00450202 -0.000914562 0)
(0.00447722 -0.000938993 0)
(0.00445181 -0.000962606 0)
(0.00442584 -0.000985264 0)
(0.00439937 -0.00100683 0)
(0.00437244 -0.00102718 0)
(0.00434512 -0.00104619 0)
(0.00431747 -0.00106373 0)
(0.00428955 -0.0010797 0)
(0.00426144 -0.001094 0)
(0.00423319 -0.00110654 0)
(0.00420489 -0.00111724 0)
(0.00417663 -0.00112606 0)
(0.00414851 -0.00113303 0)
(0.00412061 -0.00113816 0)
(0.004093 -0.00114151 0)
(0.00406575 -0.00114313 0)
(0.00403888 -0.00114308 0)
(0.00401247 -0.00114139 0)
(0.00398655 -0.00113815 0)
(0.00396119 -0.00113342 0)
(0.00393646 -0.00112726 0)
(0.00391241 -0.00111978 0)
(0.00388909 -0.00111114 0)
(0.00386651 -0.00110146 0)
(0.00384471 -0.00109087 0)
(0.0038237 -0.00107952 0)
(0.00380352 -0.00106753 0)
(0.00378417 -0.00105503 0)
(0.00376569 -0.00104218 0)
(0.0037481 -0.00102911 0)
(0.00373141 -0.00101597 0)
(0.00371566 -0.0010029 0)
(0.00370085 -0.00099009 0)
(0.00368702 -0.000977697 0)
(0.00367419 -0.000965919 0)
(0.00366235 -0.000954969 0)
(0.00365153 -0.00094509 0)
(0.00364175 -0.000936555 0)
(0.00363288 -0.000929666 0)
(0.00362426 -0.000924785 0)
(0.00361606 -0.000922387 0)
(0.00499999 -2.00891e-06 0)
(0.0049998 -6.24321e-06 0)
(0.00499946 -1.06779e-05 0)
(0.00499896 -1.52952e-05 0)
(0.00499833 -2.01008e-05 0)
(0.00499757 -2.51082e-05 0)
(0.00499669 -3.03334e-05 0)
(0.00499569 -3.5793e-05 0)
(0.00499455 -4.15039e-05 0)
(0.00499328 -4.74828e-05 0)
(0.00499188 -5.37459e-05 0)
(0.00499032 -6.03093e-05 0)
(0.00498861 -6.71888e-05 0)
(0.00498673 -7.44001e-05 0)
(0.00498468 -8.19588e-05 0)
(0.00498244 -8.98804e-05 0)
(0.00498001 -9.81802e-05 0)
(0.00497738 -0.000106874 0)
(0.00497453 -0.000115976 0)
(0.00497145 -0.000125503 0)
(0.00496813 -0.000135469 0)
(0.00496455 -0.000145889 0)
(0.00496071 -0.000156779 0)
(0.00495659 -0.000168152 0)
(0.00495217 -0.000180024 0)
(0.00494744 -0.000192408 0)
(0.00494238 -0.000205318 0)
(0.00493699 -0.000218767 0)
(0.00493123 -0.000232767 0)
(0.0049251 -0.00024733 0)
(0.00491857 -0.000262467 0)
(0.00491164 -0.000278188 0)
(0.00490428 -0.000294502 0)
(0.00489647 -0.000311415 0)
(0.00488819 -0.000328933 0)
(0.00487943 -0.000347061 0)
(0.00487016 -0.000365801 0)
(0.00486037 -0.000385152 0)
(0.00485003 -0.000405111 0)
(0.00483913 -0.000425674 0)
(0.00482765 -0.000446831 0)
(0.00481556 -0.00046857 0)
(0.00480285 -0.000490875 0)
(0.0047895 -0.000513727 0)
(0.00477549 -0.000537098 0)
(0.00476081 -0.000560961 0)
(0.00474543 -0.000585278 0)
(0.00472935 -0.000610009 0)
(0.00471255 -0.000635104 0)
(0.00469502 -0.00066051 0)
(0.00467676 -0.000686163 0)
(0.00465775 -0.000711993 0)
(0.004638 -0.000737924 0)
(0.00461751 -0.000763869 0)
(0.00459628 -0.000789735 0)
(0.00457432 -0.00081542 0)
(0.00455165 -0.000840816 0)
(0.00452829 -0.000865808 0)
(0.00450427 -0.000890275 0)
(0.0044796 -0.000914092 0)
(0.00445435 -0.000937129 0)
(0.00442853 -0.000959258 0)
(0.00440221 -0.000980349 0)
(0.00437544 -0.00100028 0)
(0.00434827 -0.00101892 0)
(0.00432077 -0.00103616 0)
(0.004293 -0.0010519 0)
(0.00426502 -0.00106604 0)
(0.00423692 -0.00107848 0)
(0.00420877 -0.00108918 0)
(0.00418067 -0.00109809 0)
(0.00415269 -0.00110523 0)
(0.00412493 -0.0011106 0)
(0.00409744 -0.00111426 0)
(0.00407028 -0.00111624 0)
(0.0040435 -0.0011166 0)
(0.00401715 -0.00111539 0)
(0.00399128 -0.00111267 0)
(0.00396595 -0.00110851 0)
(0.00394122 -0.00110299 0)
(0.00391714 -0.0010962 0)
(0.00389375 -0.00108827 0)
(0.00387109 -0.00107934 0)
(0.00384918 -0.00106953 0)
(0.00382805 -0.00105897 0)
(0.00380773 -0.0010478 0)
(0.00378822 -0.00103615 0)
(0.00376956 -0.00102416 0)
(0.00375177 -0.00101197 0)
(0.00373485 -0.000999722 0)
(0.00371883 -0.00098758 0)
(0.00370372 -0.0009757 0)
(0.00368954 -0.000964257 0)
(0.00367628 -0.000953437 0)
(0.00366395 -0.000943444 0)
(0.00365254 -0.000934503 0)
(0.00364203 -0.000926859 0)
(0.00363229 -0.000920772 0)
(0.00362251 -0.000916555 0)
(0.00361299 -0.000914632 0)
(0.00499999 -1.92094e-06 0)
(0.00499983 -5.9877e-06 0)
(0.00499951 -1.02682e-05 0)
(0.00499904 -1.47444e-05 0)
(0.00499844 -1.94181e-05 0)
(0.0049977 -2.42982e-05 0)
(0.00499683 -2.93968e-05 0)
(0.00499584 -3.4728e-05 0)
(0.00499472 -4.03066e-05 0)
(0.00499346 -4.61475e-05 0)
(0.00499205 -5.22661e-05 0)
(0.0049905 -5.86774e-05 0)
(0.00498879 -6.53965e-05 0)
(0.00498692 -7.24385e-05 0)
(0.00498487 -7.98183e-05 0)
(0.00498264 -8.75509e-05 0)
(0.00498022 -9.56511e-05 0)
(0.00497759 -0.000104134 0)
(0.00497474 -0.000113014 0)
(0.00497167 -0.000122306 0)
(0.00496835 -0.000132025 0)
(0.00496478 -0.000142186 0)
(0.00496095 -0.000152802 0)
(0.00495684 -0.000163887 0)
(0.00495243 -0.000175456 0)
(0.00494771 -0.000187523 0)
(0.00494267 -0.0002001 0)
(0.00493728 -0.000213199 0)
(0.00493154 -0.000226833 0)
(0.00492543 -0.000241014 0)
(0.00491893 -0.00025575 0)
(0.00491201 -0.000271053 0)
(0.00490468 -0.00028693 0)
(0.00489689 -0.000303387 0)
(0.00488865 -0.000320431 0)
(0.00487992 -0.000338066 0)
(0.00487068 -0.000356292 0)
(0.00486093 -0.00037511 0)
(0.00485064 -0.000394518 0)
(0.00483978 -0.000414508 0)
(0.00482835 -0.000435074 0)
(0.00481632 -0.000456202 0)
(0.00480367 -0.000477878 0)
(0.00479038 -0.000500082 0)
(0.00477644 -0.00052279 0)
(0.00476183 -0.000545971 0)
(0.00474654 -0.000569593 0)
(0.00473054 -0.000593615 0)
(0.00471384 -0.000617991 0)
(0.00469641 -0.000642667 0)
(0.00467825 -0.000667584 0)
(0.00465936 -0.000692676 0)
(0.00463974 -0.000717867 0)
(0.00461937 -0.000743076 0)
(0.00459828 -0.000768214 0)
(0.00457647 -0.000793184 0)
(0.00455396 -0.000817883 0)
(0.00453076 -0.000842199 0)
(0.00450691 -0.000866019 0)
(0.00448242 -0.000889222 0)
(0.00445734 -0.000911685 0)
(0.00443171 -0.000933284 0)
(0.00440557 -0.000953896 0)
(0.00437898 -0.000973398 0)
(0.004352 -0.000991675 0)
(0.00432468 -0.00100861 0)
(0.00429708 -0.00102412 0)
(0.00426929 -0.00103809 0)
(0.00424136 -0.00105045 0)
(0.00421339 -0.00106115 0)
(0.00418546 -0.00107015 0)
(0.00415765 -0.00107744 0)
(0.00413002 -0.00108305 0)
(0.00410265 -0.001087 0)
(0.00407558 -0.00108933 0)
(0.00404889 -0.00109009 0)
(0.0040226 -0.00108932 0)
(0.00399679 -0.0010871 0)
(0.00397148 -0.0010835 0)
(0.00394675 -0.00107858 0)
(0.00392264 -0.00107245 0)
(0.00389919 -0.00106522 0)
(0.00387645 -0.00105702 0)
(0.00385443 -0.00104796 0)
(0.00383317 -0.00103818 0)
(0.00381269 -0.00102781 0)
(0.00379301 -0.00101698 0)
(0.00377414 -0.00100583 0)
(0.00375611 -0.000994497 0)
(0.00373892 -0.000983125 0)
(0.0037226 -0.000971867 0)
(0.00370714 -0.00096088 0)
(0.00369254 -0.000950334 0)
(0.00367882 -0.000940405 0)
(0.00366593 -0.000931286 0)
(0.00365388 -0.000923181 0)
(0.00364263 -0.000916306 0)
(0.003632 -0.000910882 0)
(0.00362117 -0.000907169 0)
(0.00361032 -0.000905688 0)
(0.00499999 -1.84257e-06 0)
(0.00499984 -5.75372e-06 0)
(0.00499955 -9.88486e-06 0)
(0.00499911 -1.42198e-05 0)
(0.00499853 -1.87586e-05 0)
(0.00499781 -2.35074e-05 0)
(0.00499697 -2.84758e-05 0)
(0.00499599 -3.36753e-05 0)
(0.00499488 -3.91187e-05 0)
(0.00499363 -4.48196e-05 0)
(0.00499223 -5.0792e-05 0)
(0.00499069 -5.705e-05 0)
(0.00498899 -6.36079e-05 0)
(0.00498712 -7.048e-05 0)
(0.00498508 -7.76807e-05 0)
(0.00498285 -8.52242e-05 0)
(0.00498043 -9.31251e-05 0)
(0.00497781 -0.000101398 0)
(0.00497497 -0.000110056 0)
(0.0049719 -0.000119114 0)
(0.0049686 -0.000128587 0)
(0.00496504 -0.000138488 0)
(0.00496121 -0.000148831 0)
(0.00495711 -0.00015963 0)
(0.00495271 -0.000170897 0)
(0.00494801 -0.000182648 0)
(0.00494298 -0.000194892 0)
(0.00493762 -0.000207644 0)
(0.0049319 -0.000220914 0)
(0.0049258 -0.000234713 0)
(0.00491932 -0.000249051 0)
(0.00491244 -0.000263938 0)
(0.00490512 -0.00027938 0)
(0.00489737 -0.000295384 0)
(0.00488916 -0.000311957 0)
(0.00488047 -0.000329101 0)
(0.00487128 -0.000346817 0)
(0.00486157 -0.000365106 0)
(0.00485132 -0.000383964 0)
(0.00484052 -0.000403387 0)
(0.00482915 -0.000423365 0)
(0.00481718 -0.000443887 0)
(0.00480459 -0.000464939 0)
(0.00479138 -0.000486501 0)
(0.00477752 -0.000508549 0)
(0.004763 -0.000531056 0)
(0.0047478 -0.000553989 0)
(0.0047319 -0.000577308 0)
(0.0047153 -0.000600971 0)
(0.00469799 -0.000624925 0)
(0.00467996 -0.000649114 0)
(0.0046612 -0.000673474 0)
(0.00464171 -0.000697934 0)
(0.0046215 -0.000722416 0)
(0.00460057 -0.000746834 0)
(0.00457893 -0.000771096 0)
(0.00455659 -0.000795104 0)
(0.00453357 -0.000818752 0)
(0.0045099 -0.000841931 0)
(0.00448561 -0.000864525 0)
(0.00446074 -0.000886418 0)
(0.00443531 -0.00090749 0)
(0.00440938 -0.000927623 0)
(0.004383 -0.000946701 0)
(0.00435623 -0.000964611 0)
(0.00432911 -0.000981247 0)
(0.00430173 -0.000996511 0)
(0.00427414 -0.00101032 0)
(0.00424642 -0.00102259 0)
(0.00421864 -0.00103328 0)
(0.00419089 -0.00104235 0)
(0.00416324 -0.00104979 0)
(0.00413576 -0.00105561 0)
(0.00410851 -0.00105983 0)
(0.00408156 -0.00106249 0)
(0.00405495 -0.00106363 0)
(0.00402873 -0.00106329 0)
(0.00400296 -0.00106155 0)
(0.00397768 -0.00105848 0)
(0.00395295 -0.00105414 0)
(0.00392881 -0.00104864 0)
(0.00390531 -0.00104208 0)
(0.00388248 -0.00103458 0)
(0.00386035 -0.00102626 0)
(0.00383895 -0.00101723 0)
(0.0038183 -0.00100764 0)
(0.00379842 -0.000997602 0)
(0.00377933 -0.00098726 0)
(0.00376103 -0.000976749 0)
(0.00374355 -0.000966211 0)
(0.00372688 -0.000955793 0)
(0.00371103 -0.000945649 0)
(0.003696 -0.000935939 0)
(0.00368176 -0.000926832 0)
(0.0036683 -0.000918506 0)
(0.00365558 -0.000911145 0)
(0.00364358 -0.000904937 0)
(0.00363209 -0.000900071 0)
(0.0036203 -0.000896753 0)
(0.00360818 -0.000895561 0)
(0.00499999 -1.77128e-06 0)
(0.00499986 -5.53707e-06 0)
(0.00499958 -9.52449e-06 0)
(0.00499916 -1.37198e-05 0)
(0.0049986 -1.81229e-05 0)
(0.00499791 -2.27383e-05 0)
(0.00499709 -2.75736e-05 0)
(0.00499613 -3.26386e-05 0)
(0.00499503 -3.79445e-05 0)
(0.00499379 -4.35033e-05 0)
(0.00499241 -4.93279e-05 0)
(0.00499088 -5.54315e-05 0)
(0.00498919 -6.18273e-05 0)
(0.00498733 -6.85291e-05 0)
(0.00498529 -7.55504e-05 0)
(0.00498308 -8.29049e-05 0)
(0.00498066 -9.06065e-05 0)
(0.00497805 -9.8669e-05 0)
(0.00497522 -0.000107106 0)
(0.00497216 -0.000115931 0)
(0.00496886 -0.000125158 0)
(0.00496531 -0.000134801 0)
(0.0049615 -0.000144872 0)
(0.00495741 -0.000155386 0)
(0.00495303 -0.000166354 0)
(0.00494834 -0.000177789 0)
(0.00494333 -0.000189704 0)
(0.00493798 -0.00020211 0)
(0.00493228 -0.000215018 0)
(0.00492621 -0.000228438 0)
(0.00491976 -0.00024238 0)
(0.0049129 -0.000256853 0)
(0.00490562 -0.000271864 0)
(0.0048979 -0.000287419 0)
(0.00488973 -0.000303523 0)
(0.00488108 -0.000320179 0)
(0.00487193 -0.00033739 0)
(0.00486228 -0.000355153 0)
(0.00485209 -0.000373468 0)
(0.00484134 -0.000392327 0)
(0.00483003 -0.000411723 0)
(0.00481813 -0.000431645 0)
(0.00480563 -0.000452078 0)
(0.00479249 -0.000473004 0)
(0.00477872 -0.000494401 0)
(0.0047643 -0.00051624 0)
(0.0047492 -0.000538491 0)
(0.00473341 -0.000561116 0)
(0.00471693 -0.000584074 0)
(0.00469975 -0.000607315 0)
(0.00468185 -0.000630785 0)
(0.00466324 -0.000654423 0)
(0.00464391 -0.00067816 0)
(0.00462386 -0.000701924 0)
(0.0046031 -0.000725631 0)
(0.00458164 -0.000749195 0)
(0.0045595 -0.00077252 0)
(0.00453668 -0.000795508 0)
(0.00451322 -0.000818052 0)
(0.00448915 -0.000840044 0)
(0.00446449 -0.000861371 0)
(0.00443929 -0.00088192 0)
(0.00441358 -0.000901578 0)
(0.00438743 -0.000920232 0)
(0.00436089 -0.000937776 0)
(0.004334 -0.000954106 0)
(0.00430685 -0.000969131 0)
(0.00427948 -0.000982766 0)
(0.00425198 -0.000994944 0)
(0.00422441 -0.00100561 0)
(0.00419685 -0.00101474 0)
(0.00416938 -0.0010223 0)
(0.00414205 -0.00102831 0)
(0.00411494 -0.00103279 0)
(0.00408809 -0.00103575 0)
(0.00406157 -0.00103725 0)
(0.00403542 -0.00103733 0)
(0.0040097 -0.00103605 0)
(0.00398445 -0.00103348 0)
(0.00395972 -0.0010297 0)
(0.00393555 -0.0010248 0)
(0.003912 -0.00101888 0)
(0.00388908 -0.00101205 0)
(0.00386683 -0.00100443 0)
(0.00384529 -0.000996127 0)
(0.00382446 -0.000987277 0)
(0.00380437 -0.000978004 0)
(0.00378503 -0.000968438 0)
(0.00376646 -0.000958713 0)
(0.00374865 -0.000948968 0)
(0.00373162 -0.000939344 0)
(0.00371536 -0.00092999 0)
(0.00369986 -0.000921058 0)
(0.00368509 -0.000912706 0)
(0.00367104 -0.000905098 0)
(0.00365765 -0.0008984 0)
(0.0036449 -0.000892779 0)
(0.00363259 -0.000888393 0)
(0.00361993 -0.000885417 0)
(0.00360662 -0.000884389 0)
(0.00499999 -1.70522e-06 0)
(0.00499987 -5.33417e-06 0)
(0.00499961 -9.18351e-06 0)
(0.00499921 -1.3242e-05 0)
(0.00499867 -1.75097e-05 0)
(0.004998 -2.19906e-05 0)
(0.0049972 -2.66912e-05 0)
(0.00499626 -3.16196e-05 0)
(0.00499518 -3.67859e-05 0)
(0.00499395 -4.22009e-05 0)
(0.00499259 -4.78762e-05 0)
(0.00499107 -5.3824e-05 0)
(0.00498938 -6.00569e-05 0)
(0.00498754 -6.65876e-05 0)
(0.00498551 -7.34291e-05 0)
(0.0049833 -8.05945e-05 0)
(0.0049809 -8.80969e-05 0)
(0.0049783 -9.59497e-05 0)
(0.00497548 -0.000104166 0)
(0.00497243 -0.000112759 0)
(0.00496914 -0.000121741 0)
(0.00496561 -0.000131127 0)
(0.00496181 -0.000140928 0)
(0.00495773 -0.000151157 0)
(0.00495337 -0.000161826 0)
(0.00494869 -0.000172949 0)
(0.0049437 -0.000184535 0)
(0.00493838 -0.000196597 0)
(0.0049327 -0.000209145 0)
(0.00492666 -0.000222189 0)
(0.00492024 -0.000235738 0)
(0.00491341 -0.0002498 0)
(0.00490617 -0.000264383 0)
(0.00489849 -0.000279492 0)
(0.00489035 -0.000295131 0)
(0.00488175 -0.000311305 0)
(0.00487265 -0.000328013 0)
(0.00486305 -0.000345256 0)
(0.00485292 -0.000363031 0)
(0.00484224 -0.000381333 0)
(0.004831 -0.000400153 0)
(0.00481918 -0.00041948 0)
(0.00480675 -0.000439302 0)
(0.00479371 -0.000459599 0)
(0.00478004 -0.00048035 0)
(0.00476572 -0.000501529 0)
(0.00475073 -0.000523106 0)
(0.00473507 -0.000545046 0)
(0.00471872 -0.000567307 0)
(0.00470167 -0.000589844 0)
(0.00468393 -0.000612604 0)
(0.00466547 -0.000635529 0)
(0.00464631 -0.000658554 0)
(0.00462644 -0.000681609 0)
(0.00460586 -0.000704615 0)
(0.0045846 -0.000727489 0)
(0.00456266 -0.000750141 0)
(0.00454006 -0.000772476 0)
(0.00451682 -0.000794393 0)
(0.00449297 -0.000815789 0)
(0.00446855 -0.000836557 0)
(0.00444359 -0.000856587 0)
(0.00441813 -0.000875772 0)
(0.00439222 -0.000894004 0)
(0.00436592 -0.00091118 0)
(0.00433928 -0.000927204 0)
(0.00431237 -0.000941985 0)
(0.00428524 -0.000955445 0)
(0.00425796 -0.000967518 0)
(0.00423061 -0.000978153 0)
(0.00420325 -0.000987315 0)
(0.00417596 -0.000994987 0)
(0.0041488 -0.00100117 0)
(0.00412182 -0.00100587 0)
(0.0040951 -0.00100912 0)
(0.00406867 -0.00101096 0)
(0.0040426 -0.00101142 0)
(0.00401692 -0.00101058 0)
(0.0039917 -0.0010085 0)
(0.00396697 -0.00100525 0)
(0.00394278 -0.00100092 0)
(0.00391916 -0.000995605 0)
(0.00389616 -0.000989417 0)
(0.00387379 -0.000982463 0)
(0.00385209 -0.000974857 0)
(0.00383108 -0.00096672 0)
(0.00381077 -0.000958175 0)
(0.00379118 -0.000949348 0)
(0.00377232 -0.000940371 0)
(0.00375418 -0.000931375 0)
(0.00373677 -0.000922499 0)
(0.00372008 -0.000913883 0)
(0.0037041 -0.000905671 0)
(0.0036888 -0.000898013 0)
(0.00367414 -0.000891058 0)
(0.0036601 -0.000884957 0)
(0.00364663 -0.000879856 0)
(0.00363354 -0.000875895 0)
(0.00362005 -0.000873224 0)
(0.00360566 -0.00087226 0)
(0.00499999 -1.64317e-06 0)
(0.00499987 -5.14237e-06 0)
(0.00499963 -8.85888e-06 0)
(0.00499924 -1.27836e-05 0)
(0.00499873 -1.69173e-05 0)
(0.00499808 -2.12638e-05 0)
(0.00499729 -2.58286e-05 0)
(0.00499637 -3.06192e-05 0)
(0.00499531 -3.56444e-05 0)
(0.00499411 -4.09139e-05 0)
(0.00499275 -4.64385e-05 0)
(0.00499125 -5.22295e-05 0)
(0.00498958 -5.82984e-05 0)
(0.00498774 -6.46574e-05 0)
(0.00498573 -7.13187e-05 0)
(0.00498354 -7.82948e-05 0)
(0.00498115 -8.55981e-05 0)
(0.00497855 -9.32414e-05 0)
(0.00497574 -0.000101237 0)
(0.00497271 -0.000109598 0)
(0.00496944 -0.000118337 0)
(0.00496591 -0.000127466 0)
(0.00496213 -0.000136998 0)
(0.00495807 -0.000146944 0)
(0.00495372 -0.000157317 0)
(0.00494907 -0.000168128 0)
(0.00494411 -0.000179389 0)
(0.0049388 -0.000191109 0)
(0.00493316 -0.0002033 0)
(0.00492714 -0.00021597 0)
(0.00492075 -0.000229128 0)
(0.00491396 -0.000242783 0)
(0.00490675 -0.00025694 0)
(0.00489911 -0.000271607 0)
(0.00489103 -0.000286785 0)
(0.00488247 -0.00030248 0)
(0.00487343 -0.000318691 0)
(0.00486389 -0.000335419 0)
(0.00485382 -0.00035266 0)
(0.00484322 -0.000370409 0)
(0.00483205 -0.000388659 0)
(0.00482031 -0.000407398 0)
(0.00480797 -0.000426614 0)
(0.00479503 -0.00044629 0)
(0.00478146 -0.000466403 0)
(0.00476725 -0.000486931 0)
(0.00475238 -0.000507843 0)
(0.00473685 -0.000529105 0)
(0.00472064 -0.00055068 0)
(0.00470374 -0.000572522 0)
(0.00468615 -0.000594582 0)
(0.00466787 -0.000616804 0)
(0.00464888 -0.000639126 0)
(0.0046292 -0.000661482 0)
(0.00460882 -0.000683796 0)
(0.00458777 -0.00070599 0)
(0.00456604 -0.000727978 0)
(0.00454367 -0.000749669 0)
(0.00452066 -0.000770967 0)
(0.00449706 -0.000791773 0)
(0.00447288 -0.000811986 0)
(0.00444817 -0.000831502 0)
(0.00442297 -0.000850216 0)
(0.00439732 -0.000868027 0)
(0.00437127 -0.000884836 0)
(0.00434489 -0.00090055 0)
(0.00431822 -0.000915084 0)
(0.00429134 -0.000928361 0)
(0.0042643 -0.000940319 0)
(0.00423717 -0.000950906 0)
(0.00421002 -0.000960088 0)
(0.00418292 -0.000967846 0)
(0.00415592 -0.000974175 0)
(0.00412909 -0.000979085 0)
(0.00410249 -0.000982599 0)
(0.00407616 -0.000984749 0)
(0.00405017 -0.000985582 0)
(0.00402455 -0.000985153 0)
(0.00399935 -0.000983527 0)
(0.00397462 -0.000980778 0)
(0.0039504 -0.000976991 0)
(0.00392673 -0.000972259 0)
(0.00390364 -0.00096668 0)
(0.00388115 -0.000960363 0)
(0.0038593 -0.000953417 0)
(0.0038381 -0.000945958 0)
(0.00381757 -0.000938105 0)
(0.00379771 -0.00092998 0)
(0.00377855 -0.000921709 0)
(0.00376007 -0.000913421 0)
(0.00374227 -0.000905246 0)
(0.00372515 -0.000897318 0)
(0.00370869 -0.000889775 0)
(0.00369285 -0.000882753 0)
(0.00367761 -0.000876394 0)
(0.00366292 -0.000870833 0)
(0.00364876 -0.000866203 0)
(0.00363492 -0.000862624 0)
(0.00362065 -0.000860224 0)
(0.00360528 -0.000859194 0)
(0.00499999 -1.58429e-06 0)
(0.00499988 -4.95968e-06 0)
(0.00499964 -8.54815e-06 0)
(0.00499927 -1.23424e-05 0)
(0.00499878 -1.6344e-05 0)
(0.00499815 -2.05567e-05 0)
(0.00499738 -2.49856e-05 0)
(0.00499648 -2.96376e-05 0)
(0.00499544 -3.45207e-05 0)
(0.00499425 -3.96437e-05 0)
(0.00499291 -4.50166e-05 0)
(0.00499142 -5.06497e-05 0)
(0.00498977 -5.65539e-05 0)
(0.00498795 -6.27406e-05 0)
(0.00498595 -6.92213e-05 0)
(0.00498377 -7.60078e-05 0)
(0.00498139 -8.31121e-05 0)
(0.00497881 -9.05461e-05 0)
(0.00497602 -9.83221e-05 0)
(0.004973 -0.000106452 0)
(0.00496974 -0.000114948 0)
(0.00496623 -0.000123822 0)
(0.00496247 -0.000133085 0)
(0.00495843 -0.00014275 0)
(0.0049541 -0.000152828 0)
(0.00494947 -0.00016333 0)
(0.00494453 -0.000174266 0)
(0.00493925 -0.000185647 0)
(0.00493363 -0.000197483 0)
(0.00492765 -0.000209782 0)
(0.00492129 -0.000222553 0)
(0.00491454 -0.000235804 0)
(0.00490738 -0.00024954 0)
(0.00489978 -0.000263767 0)
(0.00489175 -0.00027849 0)
(0.00488325 -0.00029371 0)
(0.00487426 -0.000309429 0)
(0.00486478 -0.000325646 0)
(0.00485479 -0.000342358 0)
(0.00484426 -0.000359561 0)
(0.00483317 -0.000377247 0)
(0.00482152 -0.000395405 0)
(0.00480928 -0.000414023 0)
(0.00479644 -0.000433084 0)
(0.00478298 -0.000452568 0)
(0.00476889 -0.000472452 0)
(0.00475415 -0.000492708 0)
(0.00473875 -0.000513303 0)
(0.00472269 -0.0005342 0)
(0.00470595 -0.000555357 0)
(0.00468852 -0.000576726 0)
(0.00467041 -0.000598256 0)
(0.00465161 -0.000619886 0)
(0.00463212 -0.000641552 0)
(0.00461196 -0.000663185 0)
(0.00459112 -0.000684709 0)
(0.00456962 -0.000706041 0)
(0.00454748 -0.000727096 0)
(0.00452472 -0.000747782 0)
(0.00450136 -0.000768006 0)
(0.00447744 -0.00078767 0)
(0.00445299 -0.000806674 0)
(0.00442805 -0.00082492 0)