/*--------------------------------*- C++ -*----------------------------------*\
  =========                 |
  \\      /  F ield         | OpenFOAM: The Open Source CFD Toolbox
   \\    /   O peration     | Website:  https://openfoam.org
    \\  /    A nd           | Version:  11
     \\/     M anipulation  |
\*---------------------------------------------------------------------------*/
FoamFile
{
    format      ascii;
    class       surfaceScalarField;
    location    "998";
    object      phi;
}
// * * * * * * * * * * * * * * * * * * * * * * * * * * * * * * * * * * * * * //

dimensions      [0 3 -1 0 0 0 0];

internalField   nonuniform List<scalar> 
19800
(
2e-05
-2.36609e-12
2e-05
-6.66679e-12
2e-05
-1.06877e-11
2e-05
-1.45308e-11
2e-05
-1.82988e-11
2e-05
-2.20632e-11
2e-05
-2.58756e-11
2e-05
-2.97761e-11
2e-05
-3.37975e-11
2e-05
-3.79682e-11
2e-05
-4.23142e-11
2e-05
-4.68601e-11
2e-05
-5.16298e-11
2e-05
-5.66471e-11
2e-05
-6.19364e-11
2e-05
-6.75225e-11
2e-05
-7.34313e-11
1.99999e-05
-7.969e-11
1.99999e-05
-8.63273e-11
1.99999e-05
-9.33732e-11
1.99999e-05
-1.0086e-10
1.99999e-05
-1.08822e-10
1.99999e-05
-1.17295e-10
1.99999e-05
-1.26318e-10
1.99999e-05
-1.35932e-10
1.99999e-05
-1.46183e-10
1.99999e-05
-1.57116e-10
1.99998e-05
-1.68783e-10
1.99998e-05
-1.81238e-10
1.99998e-05
-1.94537e-10
1.99998e-05
-2.08744e-10
1.99998e-05
-2.23924e-10
1.99998e-05
-2.40146e-10
1.99997e-05
-2.57486e-10
1.99997e-05
-2.76023e-10
1.99997e-05
-2.95843e-10
1.99997e-05
-3.17036e-10
1.99996e-05
-3.39698e-10
1.99996e-05
-3.63932e-10
1.99996e-05
-3.89846e-10
1.99996e-05
-4.17556e-10
1.99995e-05
-4.47184e-10
1.99995e-05
-4.7886e-10
1.99994e-05
-5.12722e-10
1.99994e-05
-5.48914e-10
1.99994e-05
-5.87591e-10
1.99993e-05
-6.28915e-10
1.99993e-05
-6.73057e-10
1.99992e-05
-7.20198e-10
1.99992e-05
-7.70529e-10
1.99991e-05
-8.2425e-10
1.9999e-05
-8.81572e-10
1.9999e-05
-9.42716e-10
1.99989e-05
-1.00791e-09
1.99988e-05
-1.07741e-09
1.99988e-05
-1.15146e-09
1.99987e-05
-1.23032e-09
1.99986e-05
-1.31428e-09
1.99985e-05
-1.40363e-09
1.99984e-05
-1.49866e-09
1.99983e-05
-1.5997e-09
1.99982e-05
-1.70706e-09
1.99981e-05
-1.82109e-09
1.9998e-05
-1.94212e-09
1.99979e-05
-2.07053e-09
1.99977e-05
-2.20667e-09
1.99976e-05
-2.35092e-09
1.99975e-05
-2.50368e-09
1.99973e-05
-2.66533e-09
1.99972e-05
-2.83627e-09
1.9997e-05
-3.01689e-09
1.99969e-05
-3.2076e-09
1.99967e-05
-3.40879e-09
1.99965e-05
-3.62084e-09
1.99963e-05
-3.84412e-09
1.99961e-05
-4.07898e-09
1.99959e-05
-4.32575e-09
1.99957e-05
-4.5847e-09
1.99955e-05
-4.85606e-09
1.99953e-05
-5.14e-09
1.99951e-05
-5.43658e-09
1.99949e-05
-5.74579e-09
1.99947e-05
-6.06745e-09
1.99944e-05
-6.40122e-09
1.99942e-05
-6.74656e-09
1.9994e-05
-7.10267e-09
1.99937e-05
-7.46843e-09
1.99935e-05
-7.84233e-09
1.99932e-05
-8.2224e-09
1.9993e-05
-8.60608e-09
1.99928e-05
-8.99017e-09
1.99925e-05
-9.37063e-09
1.99923e-05
-9.7425e-09
1.99921e-05
-1.00997e-08
1.99919e-05
-1.04351e-08
1.99917e-05
-1.07401e-08
1.99916e-05
-1.10049e-08
1.99914e-05
-1.12188e-08
1.99913e-05
-1.13714e-08
-1.14604e-08
2e-05
-1.95996e-12
2e-05
-5.8319e-12
2e-05
-9.57071e-12
2e-05
-1.31698e-11
2e-05
-1.67011e-11
2e-05
-2.02248e-11
2e-05
-2.37866e-11
2e-05
-2.74228e-11
2e-05
-3.1164e-11
2e-05
-3.50366e-11
2e-05
-3.90648e-11
2e-05
-4.32716e-11
2e-05
-4.76792e-11
2e-05
-5.231e-11
2e-05
-5.71864e-11
2e-05
-6.23318e-11
2e-05
-6.77702e-11
1.99999e-05
-7.3527e-11
1.99999e-05
-7.96287e-11
1.99999e-05
-8.61038e-11
1.99999e-05
-9.29821e-11
1.99999e-05
-1.00296e-10
1.99999e-05
-1.08078e-10
1.99999e-05
-1.16367e-10
1.99999e-05
-1.252e-10
1.99999e-05
-1.3462e-10
1.99999e-05
-1.44671e-10
1.99998e-05
-1.554e-10
1.99998e-05
-1.6686e-10
1.99998e-05
-1.79104e-10
1.99998e-05
-1.92191e-10
1.99998e-05
-2.06184e-10
1.99998e-05
-2.2115e-10
1.99997e-05
-2.3716e-10
1.99997e-05
-2.5429e-10
1.99997e-05
-2.72622e-10
1.99997e-05
-2.92242e-10
1.99996e-05
-3.13243e-10
1.99996e-05
-3.35724e-10
1.99996e-05
-3.59788e-10
1.99996e-05
-3.85548e-10
1.99995e-05
-4.13121e-10
1.99995e-05
-4.42634e-10
1.99994e-05
-4.74219e-10
1.99994e-05
-5.08017e-10
1.99994e-05
-5.44178e-10
1.99993e-05
-5.8286e-10
1.99993e-05
-6.2423e-10
1.99992e-05
-6.68463e-10
1.99992e-05
-7.15748e-10
1.99991e-05
-7.66279e-10
1.9999e-05
-8.20263e-10
1.9999e-05
-8.77919e-10
1.99989e-05
-9.39473e-10
1.99988e-05
-1.00517e-09
1.99988e-05
-1.07525e-09
1.99987e-05
-1.14999e-09
1.99986e-05
-1.22966e-09
1.99985e-05
-1.31454e-09
1.99984e-05
-1.40495e-09
1.99983e-05
-1.50118e-09
1.99982e-05
-1.60358e-09
1.99981e-05
-1.71246e-09
1.9998e-05
-1.82819e-09
1.99979e-05
-1.95113e-09
1.99977e-05
-2.08165e-09
1.99976e-05
-2.22013e-09
1.99975e-05
-2.36697e-09
1.99973e-05
-2.52257e-09
1.99972e-05
-2.68734e-09
1.9997e-05
-2.8617e-09
1.99969e-05
-3.04605e-09
1.99967e-05
-3.24081e-09
1.99965e-05
-3.4464e-09
1.99963e-05
-3.66321e-09
1.99962e-05
-3.89163e-09
1.9996e-05
-4.13202e-09
1.99958e-05
-4.3847e-09
1.99956e-05
-4.64996e-09
1.99953e-05
-4.92801e-09
1.99951e-05
-5.219e-09
1.99949e-05
-5.52298e-09
1.99947e-05
-5.83987e-09
1.99944e-05
-6.16943e-09
1.99942e-05
-6.51123e-09
1.9994e-05
-6.8646e-09
1.99937e-05
-7.22855e-09
1.99935e-05
-7.60174e-09
1.99933e-05
-7.98238e-09
1.9993e-05
-8.36812e-09
1.99928e-05
-8.75596e-09
1.99926e-05
-9.14212e-09
1.99923e-05
-9.52191e-09
1.99921e-05
-9.88957e-09
1.99919e-05
-1.02382e-08
1.99917e-05
-1.05594e-08
1.99916e-05
-1.08437e-08
1.99914e-05
-1.10798e-08
1.99913e-05
-1.12566e-08
-1.13682e-08
2e-05
-1.65352e-12
2e-05
-5.09131e-12
2e-05
-8.50706e-12
2e-05
-1.18383e-11
2e-05
-1.51212e-11
2e-05
-1.83991e-11
2e-05
-2.17088e-11
2e-05
-2.50815e-11
2e-05
-2.85443e-11
2e-05
-3.21213e-11
2e-05
-3.58347e-11
2e-05
-3.97057e-11
2e-05
-4.3755e-11
2e-05
-4.8003e-11
2e-05
-5.24708e-11
2e-05
-5.71799e-11
2e-05
-6.21525e-11
1.99999e-05
-6.74122e-11
1.99999e-05
-7.29838e-11
1.99999e-05
-7.88934e-11
1.99999e-05
-8.51691e-11
1.99999e-05
-9.18407e-11
1.99999e-05
-9.89399e-11
1.99999e-05
-1.06501e-10
1.99999e-05
-1.1456e-10
1.99999e-05
-1.23157e-10
1.99999e-05
-1.32334e-10
1.99998e-05
-1.42135e-10
1.99998e-05
-1.52608e-10
1.99998e-05
-1.63807e-10
1.99998e-05
-1.75785e-10
1.99998e-05
-1.88603e-10
1.99998e-05
-2.02324e-10
1.99997e-05
-2.17016e-10
1.99997e-05
-2.32751e-10
1.99997e-05
-2.49609e-10
1.99997e-05
-2.67671e-10
1.99997e-05
-2.87026e-10
1.99996e-05
-3.0777e-10
1.99996e-05
-3.30001e-10
1.99996e-05
-3.53829e-10
1.99995e-05
-3.79367e-10
1.99995e-05
-4.06735e-10
1.99995e-05
-4.36064e-10
1.99994e-05
-4.6749e-10
1.99994e-05
-5.01158e-10
1.99993e-05
-5.37221e-10
1.99993e-05
-5.75843e-10
1.99992e-05
-6.17195e-10
1.99992e-05
-6.6146e-10
1.99991e-05
-7.08829e-10
1.99991e-05
-7.59505e-10
1.9999e-05
-8.13702e-10
1.99989e-05
-8.71645e-10
1.99988e-05
-9.3357e-10
1.99988e-05
-9.99725e-10
1.99987e-05
-1.07037e-09
1.99986e-05
-1.14578e-09
1.99985e-05
-1.22624e-09
1.99984e-05
-1.31206e-09
1.99983e-05
-1.40353e-09
1.99982e-05
-1.50099e-09
1.99981e-05
-1.60478e-09
1.9998e-05
-1.71525e-09
1.99979e-05
-1.83276e-09
1.99978e-05
-1.9577e-09
1.99976e-05
-2.09045e-09
1.99975e-05
-2.23142e-09
1.99974e-05
-2.38101e-09
1.99972e-05
-2.53965e-09
1.99971e-05
-2.70777e-09
1.99969e-05
-2.8858e-09
1.99967e-05
-3.07418e-09
1.99966e-05
-3.27334e-09
1.99964e-05
-3.48372e-09
1.99962e-05
-3.70571e-09
1.9996e-05
-3.93974e-09
1.99958e-05
-4.18616e-09
1.99956e-05
-4.44531e-09
1.99954e-05
-4.71747e-09
1.99952e-05
-5.00285e-09
1.99949e-05
-5.30157e-09
1.99947e-05
-5.61364e-09
1.99945e-05
-5.93892e-09
1.99943e-05
-6.27708e-09
1.9994e-05
-6.62757e-09
1.99938e-05
-6.98955e-09
1.99935e-05
-7.36182e-09
1.99933e-05
-7.74276e-09
1.99931e-05
-8.1302e-09
1.99928e-05
-8.52136e-09
1.99926e-05
-8.91265e-09
1.99924e-05
-9.2996e-09
1.99922e-05
-9.67667e-09
1.9992e-05
-1.0037e-08
1.99918e-05
-1.03725e-08
1.99916e-05
-1.06732e-08
1.99915e-05
-1.09271e-08
1.99913e-05
-1.11211e-08
-1.1244e-08
2e-05
-1.40825e-12
2e-05
-4.43885e-12
2e-05
-7.51772e-12
2e-05
-1.05614e-11
2e-05
-1.35814e-11
2e-05
-1.66046e-11
2e-05
-1.96576e-11
2e-05
-2.27653e-11
2e-05
-2.59503e-11
2e-05
-2.92336e-11
2e-05
-3.26353e-11
2e-05
-3.61743e-11
2e-05
-3.98696e-11
2e-05
-4.37399e-11
2e-05
-4.78044e-11
2e-05
-5.20829e-11
2e-05
-5.65961e-11
1.99999e-05
-6.13654e-11
1.99999e-05
-6.64139e-11
1.99999e-05
-7.17658e-11
1.99999e-05
-7.74471e-11
1.99999e-05
-8.34853e-11
1.99999e-05
-8.99102e-11
1.99999e-05
-9.67535e-11
1.99999e-05
-1.04049e-10
1.99999e-05
-1.11835e-10
1.99999e-05
-1.20148e-10
1.99999e-05
-1.29033e-10
1.99998e-05
-1.38534e-10
1.99998e-05
-1.48701e-10
1.99998e-05
-1.59585e-10
1.99998e-05
-1.71243e-10
1.99998e-05
-1.83735e-10
1.99998e-05
-1.97127e-10
1.99997e-05
-2.11487e-10
1.99997e-05
-2.26889e-10
1.99997e-05
-2.43414e-10
1.99997e-05
-2.61145e-10
1.99996e-05
-2.80174e-10
1.99996e-05
-3.00597e-10
1.99996e-05
-3.22518e-10
1.99995e-05
-3.46046e-10
1.99995e-05
-3.71299e-10
1.99995e-05
-3.98401e-10
1.99994e-05
-4.27485e-10
1.99994e-05
-4.58691e-10
1.99993e-05
-4.92169e-10
1.99993e-05
-5.28078e-10
1.99992e-05
-5.66586e-10
1.99992e-05
-6.07869e-10
1.99991e-05
-6.52116e-10
1.99991e-05
-6.99526e-10
1.9999e-05
-7.50308e-10
1.99989e-05
-8.04684e-10
1.99989e-05
-8.62886e-10
1.99988e-05
-9.25161e-10
1.99987e-05
-9.91765e-10
1.99986e-05
-1.06297e-09
1.99985e-05
-1.13906e-09
1.99984e-05
-1.22033e-09
1.99984e-05
-1.3071e-09
1.99983e-05
-1.39969e-09
1.99981e-05
-1.49844e-09
1.9998e-05
-1.6037e-09
1.99979e-05
-1.71585e-09
1.99978e-05
-1.83527e-09
1.99977e-05
-1.96235e-09
1.99975e-05
-2.0975e-09
1.99974e-05
-2.24114e-09
1.99972e-05
-2.39372e-09
1.99971e-05
-2.55566e-09
1.99969e-05
-2.72743e-09
1.99968e-05
-2.90947e-09
1.99966e-05
-3.10225e-09
1.99964e-05
-3.30623e-09
1.99962e-05
-3.52184e-09
1.9996e-05
-3.74953e-09
1.99959e-05
-3.98972e-09
1.99956e-05
-4.24277e-09
1.99954e-05
-4.50903e-09
1.99952e-05
-4.78878e-09
1.9995e-05
-5.08219e-09
1.99948e-05
-5.38937e-09
1.99946e-05
-5.71027e-09
1.99943e-05
-6.04465e-09
1.99941e-05
-6.39209e-09
1.99938e-05
-6.75186e-09
1.99936e-05
-7.12292e-09
1.99934e-05
-7.50378e-09
1.99931e-05
-7.89245e-09
1.99929e-05
-8.2863e-09
1.99927e-05
-8.68194e-09
1.99924e-05
-9.07503e-09
1.99922e-05
-9.46016e-09
1.9992e-05
-9.83056e-09
1.99918e-05
-1.01779e-08
1.99916e-05
-1.04917e-08
1.99915e-05
-1.07593e-08
1.99913e-05
-1.09648e-08
-1.10894e-08
2e-05
-1.2038e-12
2e-05
-3.85884e-12
2e-05
-6.60424e-12
2e-05
-9.35144e-12
2e-05
-1.20979e-11
2e-05
-1.4858e-11
2e-05
-1.7649e-11
2e-05
-2.04889e-11
2e-05
-2.33957e-11
2e-05
-2.63869e-11
2e-05
-2.94796e-11
2e-05
-3.26906e-11
2e-05
-3.60367e-11
2e-05
-3.95348e-11
2e-05
-4.32024e-11
2e-05
-4.70574e-11
2e-05
-5.11186e-11
1.99999e-05
-5.54058e-11
1.99999e-05
-5.99401e-11
1.99999e-05
-6.47438e-11
1.99999e-05
-6.98407e-11
1.99999e-05
-7.52564e-11
1.99999e-05
-8.10185e-11
1.99999e-05
-8.71563e-11
1.99999e-05
-9.37018e-11
1.99999e-05
-1.00689e-10
1.99999e-05
-1.08155e-10
1.99999e-05
-1.16139e-10
1.99998e-05
-1.24684e-10
1.99998e-05
-1.33837e-10
1.99998e-05
-1.43645e-10
1.99998e-05
-1.54164e-10
1.99998e-05
-1.65449e-10
1.99998e-05
-1.77562e-10
1.99997e-05
-1.9057e-10
1.99997e-05
-2.04542e-10
1.99997e-05
-2.19555e-10
1.99997e-05
-2.3569e-10
1.99996e-05
-2.53033e-10
1.99996e-05
-2.71678e-10
1.99996e-05
-2.91724e-10
1.99995e-05
-3.13276e-10
1.99995e-05
-3.36448e-10
1.99995e-05
-3.61361e-10
1.99994e-05
-3.88142e-10
1.99994e-05
-4.16928e-10
1.99993e-05
-4.47864e-10
1.99993e-05
-4.81105e-10
1.99992e-05
-5.16814e-10
1.99992e-05
-5.55164e-10
1.99991e-05
-5.9634e-10
1.99991e-05
-6.40536e-10
1.9999e-05
-6.87958e-10
1.9999e-05
-7.38824e-10
1.99989e-05
-7.93363e-10
1.99988e-05
-8.51817e-10
1.99987e-05
-9.14441e-10
1.99987e-05
-9.81505e-10
1.99986e-05
-1.05329e-09
1.99985e-05
-1.13009e-09
1.99984e-05
-1.21223e-09
1.99983e-05
-1.30001e-09
1.99982e-05
-1.3938e-09
1.99981e-05
-1.49393e-09
1.9998e-05
-1.60079e-09
1.99978e-05
-1.71476e-09
1.99977e-05
-1.83625e-09
1.99976e-05
-1.96566e-09
1.99974e-05
-2.10343e-09
1.99973e-05
-2.25001e-09
1.99971e-05
-2.40585e-09
1.9997e-05
-2.57142e-09
1.99968e-05
-2.7472e-09
1.99967e-05
-2.93366e-09
1.99965e-05
-3.13129e-09
1.99963e-05
-3.34057e-09
1.99961e-05
-3.56196e-09
1.99959e-05
-3.79593e-09
1.99957e-05
-4.0429e-09
1.99955e-05
-4.30326e-09
1.99953e-05
-4.57733e-09
1.99951e-05
-4.86539e-09
1.99949e-05
-5.1676e-09
1.99946e-05
-5.48399e-09
1.99944e-05
-5.81443e-09
1.99942e-05
-6.15859e-09
1.99939e-05
-6.51587e-09
1.99937e-05
-6.88534e-09
1.99935e-05
-7.26565e-09
1.99932e-05
-7.65496e-09
1.9993e-05
-8.05076e-09
1.99928e-05
-8.44979e-09
1.99925e-05
-8.84783e-09
1.99923e-05
-9.2395e-09
1.99921e-05
-9.61798e-09
1.99919e-05
-9.97468e-09
1.99917e-05
-1.02987e-08
1.99915e-05
-1.05762e-08
1.99913e-05
-1.07894e-08
-1.09121e-08
2e-05
-1.02768e-12
2e-05
-3.33795e-12
2e-05
-5.76159e-12
2e-05
-8.21225e-12
2e-05
-1.06804e-11
2e-05
-1.3172e-11
2e-05
-1.56967e-11
2e-05
-1.82666e-11
2e-05
-2.08948e-11
2e-05
-2.35951e-11
2e-05
-2.63816e-11
2e-05
-2.92686e-11
2e-05
-3.22708e-11
2e-05
-3.54029e-11
2e-05
-3.86806e-11
2e-05
-4.212e-11
2e-05
-4.57381e-11
1.99999e-05
-4.95527e-11
1.99999e-05
-5.35831e-11
1.99999e-05
-5.78497e-11
1.99999e-05
-6.23742e-11
1.99999e-05
-6.71803e-11
1.99999e-05
-7.22932e-11
1.99999e-05
-7.77403e-11
1.99999e-05
-8.3551e-11
1.99999e-05
-8.9757e-11
1.99999e-05
-9.63927e-11
1.99999e-05
-1.03495e-10
1.99998e-05
-1.11104e-10
1.99998e-05
-1.19264e-10
1.99998e-05
-1.28019e-10
1.99998e-05
-1.37421e-10
1.99998e-05
-1.47524e-10
1.99998e-05
-1.58386e-10
1.99997e-05
-1.70069e-10
1.99997e-05
-1.82641e-10
1.99997e-05
-1.96173e-10
1.99997e-05
-2.10744e-10
1.99996e-05
-2.26437e-10
1.99996e-05
-2.4334e-10
1.99996e-05
-2.61549e-10
1.99996e-05
-2.81166e-10
1.99995e-05
-3.023e-10
1.99995e-05
-3.25068e-10
1.99994e-05
-3.49593e-10
1.99994e-05
-3.76007e-10
1.99994e-05
-4.04452e-10
1.99993e-05
-4.35078e-10
1.99993e-05
-4.68044e-10
1.99992e-05
-5.0352e-10
1.99992e-05
-5.41685e-10
1.99991e-05
-5.8273e-10
1.9999e-05
-6.26858e-10
1.9999e-05
-6.74281e-10
1.99989e-05
-7.25227e-10
1.99988e-05
-7.79934e-10
1.99988e-05
-8.38654e-10
1.99987e-05
-9.01655e-10
1.99986e-05
-9.69215e-10
1.99985e-05
-1.04163e-09
1.99984e-05
-1.11921e-09
1.99983e-05
-1.20228e-09
1.99982e-05
-1.29119e-09
1.99981e-05
-1.38628e-09
1.9998e-05
-1.48794e-09
1.99979e-05
-1.59656e-09
1.99977e-05
-1.71254e-09
1.99976e-05
-1.8363e-09
1.99975e-05
-1.9683e-09
1.99973e-05
-2.10897e-09
1.99972e-05
-2.25879e-09
1.9997e-05
-2.41825e-09
1.99969e-05
-2.58783e-09
1.99967e-05
-2.76804e-09
1.99965e-05
-2.95939e-09
1.99964e-05
-3.16239e-09
1.99962e-05
-3.37753e-09
1.9996e-05
-3.60531e-09
1.99958e-05
-3.8462e-09
1.99956e-05
-4.10064e-09
1.99954e-05
-4.36901e-09
1.99952e-05
-4.65165e-09
1.9995e-05
-4.94878e-09
1.99947e-05
-5.26051e-09
1.99945e-05
-5.58681e-09
1.99943e-05
-5.92743e-09
1.9994e-05
-6.28188e-09
1.99938e-05
-6.64933e-09
1.99936e-05
-7.02856e-09
1.99933e-05
-7.41782e-09
1.99931e-05
-7.81472e-09
1.99929e-05
-8.2161e-09
1.99926e-05
-8.61779e-09
1.99924e-05
-9.01439e-09
1.99922e-05
-9.39899e-09
1.9992e-05
-9.76272e-09
1.99918e-05
-1.00942e-08
1.99916e-05
-1.03786e-08
1.99914e-05
-1.05965e-08
-1.07195e-08
2e-05
-8.71842e-13
2e-05
-2.86565e-12
2e-05
-4.98308e-12
2e-05
-7.14312e-12
2e-05
-9.33346e-12
2e-05
-1.15548e-11
2e-05
-1.38114e-11
2e-05
-1.61102e-11
2e-05
-1.84601e-11
2e-05
-2.08713e-11
2e-05
-2.33548e-11
2e-05
-2.59223e-11
2e-05
-2.85862e-11
2e-05
-3.13592e-11
2e-05
-3.42549e-11
2e-05
-3.72875e-11
2e-05
-4.04722e-11
2e-05
-4.3825e-11
1.99999e-05
-4.73632e-11
1.99999e-05
-5.11053e-11
1.99999e-05
-5.50711e-11
1.99999e-05
-5.92822e-11
1.99999e-05
-6.37617e-11
1.99999e-05
-6.85347e-11
1.99999e-05
-7.36284e-11
1.99999e-05
-7.90722e-11
1.99999e-05
-8.4898e-11
1.99999e-05
-9.11403e-11
1.99998e-05
-9.78364e-11
1.99998e-05
-1.05027e-10
1.99998e-05
-1.12755e-10
1.99998e-05
-1.21068e-10
1.99998e-05
-1.30018e-10
1.99998e-05
-1.39658e-10
1.99997e-05
-1.50049e-10
1.99997e-05
-1.61254e-10
1.99997e-05
-1.73343e-10
1.99997e-05
-1.86388e-10
1.99997e-05
-2.0047e-10
1.99996e-05
-2.15673e-10
1.99996e-05
-2.3209e-10
1.99996e-05
-2.49819e-10
1.99995e-05
-2.68963e-10
1.99995e-05
-2.89637e-10
1.99995e-05
-3.11959e-10
1.99994e-05
-3.36058e-10
1.99994e-05
-3.6207e-10
1.99993e-05
-3.90143e-10
1.99993e-05
-4.2043e-10
1.99992e-05
-4.53098e-10
1.99992e-05
-4.88322e-10
1.99991e-05
-5.26288e-10
1.99991e-05
-5.67196e-10
1.9999e-05
-6.11255e-10
1.99989e-05
-6.58688e-10
1.99989e-05
-7.09732e-10
1.99988e-05
-7.64634e-10
1.99987e-05
-8.2366e-10
1.99986e-05
-8.87086e-10
1.99985e-05
-9.55208e-10
1.99984e-05
-1.02833e-09
1.99984e-05
-1.10679e-09
1.99983e-05
-1.19091e-09
1.99981e-05
-1.28107e-09
1.9998e-05
-1.37763e-09
1.99979e-05
-1.481e-09
1.99978e-05
-1.59157e-09
1.99977e-05
-1.7098e-09
1.99975e-05
-1.83611e-09
1.99974e-05
-1.97097e-09
1.99973e-05
-2.11487e-09
1.99971e-05
-2.26831e-09
1.9997e-05
-2.43179e-09
1.99968e-05
-2.60583e-09
1.99966e-05
-2.79097e-09
1.99965e-05
-2.98774e-09
1.99963e-05
-3.19667e-09
1.99961e-05
-3.41829e-09
1.99959e-05
-3.65311e-09
1.99957e-05
-3.90162e-09
1.99955e-05
-4.16425e-09
1.99953e-05
-4.44138e-09
1.99951e-05
-4.73331e-09
1.99948e-05
-5.04022e-09
1.99946e-05
-5.36215e-09
1.99944e-05
-5.69894e-09
1.99942e-05
-6.05018e-09
1.99939e-05
-6.41514e-09
1.99937e-05
-6.79268e-09
1.99934e-05
-7.18116e-09
1.99932e-05
-7.57827e-09
1.9993e-05
-7.98088e-09
1.99927e-05
-8.38488e-09
1.99925e-05
-8.78481e-09
1.99923e-05
-9.17364e-09
1.99921e-05
-9.54223e-09
1.99919e-05
-9.87875e-09
1.99916e-05
-1.01677e-08
1.99914e-05
-1.03886e-08
-1.05149e-08
2e-05
-7.31358e-13
2e-05
-2.43384e-12
2e-05
-4.26205e-12
2e-05
-6.14114e-12
2e-05
-8.0583e-12
2e-05
-1.00113e-11
2e-05
-1.20006e-11
2e-05
-1.40293e-11
2e-05
-1.61025e-11
2e-05
-1.82273e-11
2e-05
-2.04117e-11
2e-05
-2.26649e-11
2e-05
-2.49968e-11
2e-05
-2.74181e-11
2e-05
-2.99404e-11
2e-05
-3.25759e-11
2e-05
-3.5338e-11
2e-05
-3.82409e-11
1.99999e-05
-4.12998e-11
1.99999e-05
-4.45314e-11
1.99999e-05
-4.79537e-11
1.99999e-05
-5.1586e-11
1.99999e-05
-5.54495e-11
1.99999e-05
-5.95671e-11
1.99999e-05
-6.39638e-11
1.99999e-05
-6.86667e-11
1.99999e-05
-7.37052e-11
1.99999e-05
-7.91114e-11
1.99999e-05
-8.492e-11
1.99998e-05
-9.11687e-11
1.99998e-05
-9.78984e-11
1.99998e-05
-1.05153e-10
1.99998e-05
-1.12982e-10
1.99998e-05
-1.21435e-10
1.99998e-05
-1.3057e-10
1.99997e-05
-1.40447e-10
1.99997e-05
-1.51131e-10
1.99997e-05
-1.62693e-10
1.99997e-05
-1.75209e-10
1.99996e-05
-1.8876e-10
1.99996e-05
-2.03434e-10
1.99996e-05
-2.19326e-10
1.99995e-05
-2.36535e-10
1.99995e-05
-2.55172e-10
1.99995e-05
-2.75351e-10
1.99994e-05
-2.97197e-10
1.99994e-05
-3.20843e-10
1.99993e-05
-3.46431e-10
1.99993e-05
-3.74111e-10
1.99993e-05
-4.04045e-10
1.99992e-05
-4.36405e-10
1.99991e-05
-4.71374e-10
1.99991e-05
-5.09146e-10
1.9999e-05
-5.49927e-10
1.9999e-05
-5.93938e-10
1.99989e-05
-6.4141e-10
1.99988e-05
-6.9259e-10
1.99987e-05
-7.4774e-10
1.99987e-05
-8.07134e-10
1.99986e-05
-8.71065e-10
1.99985e-05
-9.39841e-10
1.99984e-05
-1.01379e-09
1.99983e-05
-1.09324e-09
1.99982e-05
-1.17857e-09
1.99981e-05
-1.27015e-09
1.9998e-05
-1.36838e-09
1.99979e-05
-1.47367e-09
1.99977e-05
-1.58646e-09
1.99976e-05
-1.7072e-09
1.99975e-05
-1.83637e-09
1.99973e-05
-1.97445e-09
1.99972e-05
-2.12197e-09
1.9997e-05
-2.27943e-09
1.99969e-05
-2.44739e-09
1.99967e-05
-2.6264e-09
1.99965e-05
-2.817e-09
1.99964e-05
-3.01977e-09
1.99962e-05
-3.23527e-09
1.9996e-05
-3.46403e-09
1.99958e-05
-3.70658e-09
1.99956e-05
-3.96341e-09
1.99954e-05
-4.23495e-09
1.99952e-05
-4.52155e-09
1.9995e-05
-4.82345e-09
1.99947e-05
-5.14077e-09
1.99945e-05
-5.4734e-09
1.99943e-05
-5.82103e-09
1.99941e-05
-6.18298e-09
1.99938e-05
-6.55822e-09
1.99936e-05
-6.94515e-09
1.99933e-05
-7.34153e-09
1.99931e-05
-7.74429e-09
1.99929e-05
-8.14927e-09
1.99926e-05
-8.55101e-09
1.99924e-05
-8.94232e-09
1.99922e-05
-9.31385e-09
1.9992e-05
-9.65344e-09
1.99917e-05
-9.94519e-09
1.99915e-05
-1.01686e-08
-1.02988e-08
2e-05
-6.03152e-13
2e-05
-2.03655e-12
2e-05
-3.59272e-12
2e-05
-5.20267e-12
2e-05
-6.8543e-12
2e-05
-8.5439e-12
2e-05
-1.02694e-11
2e-05
-1.2031e-11
2e-05
-1.3831e-11
2e-05
-1.56733e-11
2e-05
-1.75636e-11
2e-05
-1.95083e-11
2e-05
-2.15153e-11
2e-05
-2.35932e-11
2e-05
-2.57515e-11
2e-05
-2.80006e-11
2e-05
-3.03518e-11
2e-05
-3.28176e-11
1.99999e-05
-3.54113e-11
1.99999e-05
-3.81478e-11
1.99999e-05
-4.10429e-11
1.99999e-05
-4.41142e-11
1.99999e-05
-4.73808e-11
1.99999e-05
-5.08635e-11
1.99999e-05
-5.45851e-11
1.99999e-05
-5.85703e-11
1.99999e-05
-6.28464e-11
1.99999e-05
-6.74429e-11
1.99999e-05
-7.23921e-11
1.99998e-05
-7.7729e-11
1.99998e-05
-8.34918e-11
1.99998e-05
-8.9722e-11
1.99998e-05
-9.64648e-11
1.99998e-05
-1.03769e-10
1.99998e-05
-1.11688e-10
1.99997e-05
-1.20278e-10
1.99997e-05
-1.29602e-10
1.99997e-05
-1.39728e-10
1.99997e-05
-1.50726e-10
1.99996e-05
-1.62676e-10
1.99996e-05
-1.75662e-10
1.99996e-05
-1.89773e-10
1.99996e-05
-2.05108e-10
1.99995e-05
-2.2177e-10
1.99995e-05
-2.39872e-10
1.99994e-05
-2.59534e-10
1.99994e-05
-2.80885e-10
1.99994e-05
-3.04062e-10
1.99993e-05
-3.29213e-10
1.99993e-05
-3.56495e-10
1.99992e-05
-3.86076e-10
1.99992e-05
-4.18135e-10
1.99991e-05
-4.52862e-10
1.99991e-05
-4.90461e-10
1.9999e-05
-5.31146e-10
1.99989e-05
-5.75149e-10
1.99989e-05
-6.22711e-10
1.99988e-05
-6.74092e-10
1.99987e-05
-7.29564e-10
1.99986e-05
-7.89419e-10
1.99985e-05
-8.53961e-10
1.99984e-05
-9.23516e-10
1.99984e-05
-9.98424e-10
1.99983e-05
-1.07905e-09
1.99981e-05
-1.16576e-09
1.9998e-05
-1.25898e-09
1.99979e-05
-1.3591e-09
1.99978e-05
-1.46658e-09
1.99977e-05
-1.58187e-09
1.99975e-05
-1.70546e-09
1.99974e-05
-1.83784e-09
1.99973e-05
-1.97954e-09
1.99971e-05
-2.13109e-09
1.9997e-05
-2.29306e-09
1.99968e-05
-2.46601e-09
1.99966e-05
-2.65052e-09
1.99965e-05
-2.84718e-09
1.99963e-05
-3.05657e-09
1.99961e-05
-3.27928e-09
1.99959e-05
-3.51586e-09
1.99957e-05
-3.76683e-09
1.99955e-05
-4.03268e-09
1.99953e-05
-4.31381e-09
1.99951e-05
-4.61051e-09
1.99949e-05
-4.92294e-09
1.99947e-05
-5.25109e-09
1.99944e-05
-5.59467e-09
1.99942e-05
-5.95311e-09
1.9994e-05
-6.32539e-09
1.99937e-05
-6.71001e-09
1.99935e-05
-7.10475e-09
1.99933e-05
-7.50656e-09
1.9993e-05
-7.9113e-09
1.99928e-05
-8.31342e-09
1.99925e-05
-8.70566e-09
1.99923e-05
-9.0785e-09
1.99921e-05
-9.41958e-09
1.99918e-05
-9.71285e-09
1.99916e-05
-9.93793e-09
-1.00708e-08
2e-05
-4.85268e-13
2e-05
-1.66942e-12
2e-05
-2.97025e-12
2e-05
-4.32407e-12
2e-05
-5.71989e-12
2e-05
-7.15338e-12
2e-05
-8.62091e-12
2e-05
-1.01206e-11
2e-05
-1.16523e-11
2e-05
-1.32177e-11
2e-05
-1.48199e-11
2e-05
-1.64633e-11
2e-05
-1.81535e-11
2e-05
-1.98971e-11
2e-05
-2.17016e-11
2e-05
-2.35757e-11
2e-05
-2.55287e-11
2e-05
-2.75713e-11
2e-05
-2.9715e-11
1.99999e-05
-3.19727e-11
1.99999e-05
-3.43585e-11
1.99999e-05
-3.6888e-11
1.99999e-05
-3.95782e-11
1.99999e-05
-4.2448e-11
1.99999e-05
-4.5518e-11
1.99999e-05
-4.88108e-11
1.99999e-05
-5.23512e-11
1.99999e-05
-5.61666e-11
1.99999e-05
-6.02866e-11
1.99998e-05
-6.47439e-11
1.99998e-05
-6.95739e-11
1.99998e-05
-7.48156e-11
1.99998e-05
-8.0511e-11
1.99998e-05
-8.67063e-11
1.99998e-05
-9.34513e-11
1.99997e-05
-1.008e-10
1.99997e-05
-1.08812e-10
1.99997e-05
-1.17551e-10
1.99997e-05
-1.27086e-10
1.99997e-05
-1.3749e-10
1.99996e-05
-1.48845e-10
1.99996e-05
-1.61238e-10
1.99996e-05
-1.74762e-10
1.99995e-05
-1.89518e-10
1.99995e-05
-2.05613e-10
1.99995e-05
-2.23165e-10
1.99994e-05
-2.42298e-10
1.99994e-05
-2.63146e-10
1.99993e-05
-2.85852e-10
1.99993e-05
-3.10569e-10
1.99993e-05
-3.37462e-10
1.99992e-05
-3.66705e-10
1.99991e-05
-3.98486e-10
1.99991e-05
-4.33003e-10
1.9999e-05
-4.70469e-10
1.9999e-05
-5.1111e-10
1.99989e-05
-5.55166e-10
1.99988e-05
-6.02893e-10
1.99987e-05
-6.54562e-10
1.99987e-05
-7.1046e-10
1.99986e-05
-7.70892e-10
1.99985e-05
-8.36181e-10
1.99984e-05
-9.06668e-10
1.99983e-05
-9.82714e-10
1.99982e-05
-1.0647e-09
1.99981e-05
-1.15303e-09
1.9998e-05
-1.24812e-09
1.99979e-05
-1.35041e-09
1.99978e-05
-1.46038e-09
1.99976e-05
-1.57851e-09
1.99975e-05
-1.70531e-09
1.99974e-05
-1.84131e-09
1.99972e-05
-1.98706e-09
1.99971e-05
-2.14312e-09
1.99969e-05
-2.3101e-09
1.99967e-05
-2.48858e-09
1.99966e-05
-2.67918e-09
1.99964e-05
-2.8825e-09
1.99962e-05
-3.09916e-09
1.9996e-05
-3.32974e-09
1.99958e-05
-3.5748e-09
1.99956e-05
-3.83486e-09
1.99954e-05
-4.11036e-09
1.99952e-05
-4.40165e-09
1.9995e-05
-4.70893e-09
1.99948e-05
-5.03224e-09
1.99946e-05
-5.37136e-09
1.99944e-05
-5.72574e-09
1.99941e-05
-6.09445e-09
1.99939e-05
-6.476e-09
1.99937e-05
-6.86821e-09
1.99934e-05
-7.26806e-09
1.99932e-05
-7.67138e-09
1.99929e-05
-8.07261e-09
1.99927e-05
-8.4644e-09
1.99924e-05
-8.83715e-09
1.99922e-05
-9.17841e-09
1.9992e-05
-9.4721e-09
1.99917e-05
-9.69796e-09
-9.83183e-09
2e-05
-3.76348e-13
2e-05
-1.32934e-12
2e-05
-2.39086e-12
2e-05
-3.50202e-12
2e-05
-4.65311e-12
2e-05
-5.83959e-12
2e-05
-7.0569e-12
2e-05
-8.3016e-12
2e-05
-9.5718e-12
2e-05
-1.08671e-11
2e-05
-1.21887e-11
2e-05
-1.3539e-11
2e-05
-1.49214e-11
2e-05
-1.63409e-11
2e-05
-1.78029e-11
2e-05
-1.93143e-11
2e-05
-2.08827e-11
2e-05
-2.2517e-11
2e-05
-2.42268e-11
1.99999e-05
-2.60233e-11
1.99999e-05
-2.79188e-11
1.99999e-05
-2.99268e-11
1.99999e-05
-3.20626e-11
1.99999e-05
-3.43429e-11
1.99999e-05
-3.67863e-11
1.99999e-05
-3.94134e-11
1.99999e-05
-4.22468e-11
1.99999e-05
-4.53114e-11
1.99999e-05
-4.86347e-11
1.99999e-05
-5.22466e-11
1.99998e-05
-5.61803e-11
1.99998e-05
-6.04719e-11
1.99998e-05
-6.51608e-11
1.99998e-05
-7.02903e-11
1.99998e-05
-7.59074e-11
1.99998e-05
-8.20634e-11
1.99997e-05
-8.88139e-11
1.99997e-05
-9.62195e-11
1.99997e-05
-1.04346e-10
1.99997e-05
-1.13264e-10
1.99996e-05
-1.23052e-10
1.99996e-05
-1.33791e-10
1.99996e-05
-1.45573e-10
1.99996e-05
-1.58493e-10
1.99995e-05
-1.72658e-10
1.99995e-05
-1.88178e-10
1.99995e-05
-2.05175e-10
1.99994e-05
-2.23779e-10
1.99994e-05
-2.44129e-10
1.99993e-05
-2.66374e-10
1.99993e-05
-2.90676e-10
1.99992e-05
-3.17204e-10
1.99992e-05
-3.46141e-10
1.99991e-05
-3.77685e-10
1.99991e-05
-4.12042e-10
1.9999e-05
-4.49437e-10
1.99989e-05
-4.90105e-10
1.99989e-05
-5.34299e-10
1.99988e-05
-5.82289e-10
1.99987e-05
-6.34358e-10
1.99986e-05
-6.9081e-10
1.99986e-05
-7.51966e-10
1.99985e-05
-8.18166e-10
1.99984e-05
-8.89771e-10
1.99983e-05
-9.67162e-10
1.99982e-05
-1.05074e-09
1.99981e-05
-1.14093e-09
1.9998e-05
-1.23818e-09
1.99978e-05
-1.34296e-09
1.99977e-05
-1.45576e-09
1.99976e-05
-1.5771e-09
1.99975e-05
-1.70751e-09
1.99973e-05
-1.84756e-09
1.99972e-05
-1.99783e-09
1.9997e-05
-2.15892e-09
1.99969e-05
-2.33145e-09
1.99967e-05
-2.51604e-09
1.99965e-05
-2.71332e-09
1.99964e-05
-2.92392e-09
1.99962e-05
-3.14847e-09
1.9996e-05
-3.38756e-09
1.99958e-05
-3.64172e-09
1.99956e-05
-3.91144e-09
1.99954e-05
-4.19711e-09
1.99952e-05
-4.49897e-09
1.9995e-05
-4.8171e-09
1.99947e-05
-5.15133e-09
1.99945e-05
-5.50115e-09
1.99943e-05
-5.86565e-09
1.99941e-05
-6.2434e-09
1.99938e-05
-6.63225e-09
1.99936e-05
-7.02917e-09
1.99933e-05
-7.43001e-09
1.99931e-05
-7.82919e-09
1.99929e-05
-8.21932e-09
1.99926e-05
-8.59076e-09
1.99924e-05
-8.93104e-09
1.99921e-05
-9.22413e-09
1.99919e-05
-9.44982e-09
-9.58374e-09
2e-05
-2.7561e-13
2e-05
-1.01398e-12
2e-05
-1.85142e-12
2e-05
-2.73362e-12
2e-05
-3.65193e-12
2e-05
-4.60185e-12
2e-05
-5.5782e-12
2e-05
-6.57651e-12
2e-05
-7.59346e-12
2e-05
-8.62709e-12
2e-05
-9.67679e-12
2e-05
-1.07432e-11
2e-05
-1.18281e-11
2e-05
-1.29344e-11
2e-05
-1.40661e-11
2e-05
-1.52281e-11
2e-05
-1.64265e-11
2e-05
-1.76682e-11
2e-05
-1.89613e-11
1.99999e-05
-2.03152e-11
1.99999e-05
-2.17403e-11
1.99999e-05
-2.32484e-11
1.99999e-05
-2.48528e-11
1.99999e-05
-2.65685e-11
1.99999e-05
-2.84119e-11
1.99999e-05
-3.04016e-11
1.99999e-05
-3.2558e-11
1.99999e-05
-3.49039e-11
1.99999e-05
-3.74645e-11
1.99999e-05
-4.02673e-11
1.99998e-05
-4.3343e-11
1.99998e-05
-4.67252e-11
1.99998e-05
-5.04507e-11
1.99998e-05
-5.456e-11
1.99998e-05
-5.90972e-11
1.99998e-05
-6.41107e-11
1.99997e-05
-6.96533e-11
1.99997e-05
-7.57822e-11
1.99997e-05
-8.256e-11
1.99997e-05
-9.00545e-11
1.99997e-05
-9.83393e-11
1.99996e-05
-1.07494e-10
1.99996e-05
-1.17606e-10
1.99996e-05
-1.28767e-10
1.99995e-05
-1.41079e-10
1.99995e-05
-1.5465e-10
1.99995e-05
-1.69597e-10
1.99994e-05
-1.86047e-10
1.99994e-05
-2.04135e-10
1.99994e-05
-2.24006e-10
1.99993e-05
-2.45817e-10
1.99993e-05
-2.69735e-10
1.99992e-05
-2.95939e-10
1.99992e-05
-3.24621e-10
1.99991e-05
-3.55987e-10
1.9999e-05
-3.90254e-10
1.9999e-05
-4.27658e-10
1.99989e-05
-4.68447e-10
1.99988e-05
-5.12887e-10
1.99988e-05
-5.61261e-10
1.99987e-05
-6.13868e-10
1.99986e-05
-6.71029e-10
1.99985e-05
-7.33083e-10
1.99984e-05
-8.00388e-10
1.99983e-05
-8.73325e-10
1.99982e-05
-9.52298e-10
1.99981e-05
-1.03773e-09
1.9998e-05
-1.13007e-09
1.99979e-05
-1.2298e-09
1.99978e-05
-1.3374e-09
1.99977e-05
-1.45341e-09
1.99976e-05
-1.57836e-09
1.99974e-05
-1.71283e-09
1.99973e-05
-1.8574e-09
1.99971e-05
-2.01269e-09
1.9997e-05
-2.17933e-09
1.99968e-05
-2.35796e-09
1.99967e-05
-2.54923e-09
1.99965e-05
-2.75379e-09
1.99963e-05
-2.97228e-09
1.99961e-05
-3.20532e-09
1.99959e-05
-3.45348e-09
1.99957e-05
-3.71728e-09
1.99955e-05
-3.99712e-09
1.99953e-05
-4.29329e-09
1.99951e-05
-4.6059e-09
1.99949e-05
-4.93481e-09
1.99947e-05
-5.27956e-09
1.99945e-05
-5.63928e-09
1.99942e-05
-6.01254e-09
1.9994e-05
-6.39723e-09
1.99938e-05
-6.79034e-09
1.99935e-05
-7.18772e-09
1.99933e-05
-7.58379e-09
1.9993e-05
-7.97117e-09
1.99928e-05
-8.34023e-09
1.99925e-05
-8.6785e-09
1.99923e-05
-8.97005e-09
1.9992e-05
-9.19474e-09
-9.32812e-09
2e-05
-1.82954e-13
2e-05
-7.21283e-13
2e-05
-1.34937e-12
2e-05
-2.01633e-12
2e-05
-2.71442e-12
2e-05
-3.43917e-12
2e-05
-4.18505e-12
2e-05
-4.94682e-12
2e-05
-5.72011e-12
2e-05
-6.50166e-12
2e-05
-7.28938e-12
2e-05
-8.08237e-12
2e-05
-8.88087e-12
2e-05
-9.68616e-12
2e-05
-1.05006e-11
2e-05
-1.13275e-11
2e-05
-1.21712e-11
2e-05
-1.30371e-11
2e-05
-1.39316e-11
2e-05
-1.48624e-11
1.99999e-05
-1.58381e-11
1.99999e-05
-1.68689e-11
1.99999e-05
-1.79662e-11
1.99999e-05
-1.91431e-11
1.99999e-05
-2.04143e-11
1.99999e-05
-2.17961e-11
1.99999e-05
-2.33071e-11
1.99999e-05
-2.49679e-11
1.99999e-05
-2.68014e-11
1.99999e-05
-2.8833e-11
1.99999e-05
-3.10909e-11
1.99998e-05
-3.36062e-11
1.99998e-05
-3.64133e-11
1.99998e-05
-3.95499e-11
1.99998e-05
-4.30575e-11
1.99998e-05
-4.69816e-11
1.99998e-05
-5.1372e-11
1.99997e-05
-5.6283e-11
1.99997e-05
-6.17741e-11
1.99997e-05
-6.79099e-11
1.99997e-05
-7.47607e-11
1.99996e-05
-8.24028e-11
1.99996e-05
-9.09193e-11
1.99996e-05