/*--------------------------------*- C++ -*----------------------------------*\
  =========                 |
  \\      /  F ield         | OpenFOAM: The Open Source CFD Toolbox
   \\    /   O peration     | Website:  https://openfoam.org
    \\  /    A nd           | Version:  11
     \\/     M anipulation  |
\*---------------------------------------------------------------------------*/
FoamFile
{
    format      ascii;
    class       volScalarField;
    location    "142";
    object      omega;
}
// * * * * * * * * * * * * * * * * * * * * * * * * * * * * * * * * * * * * * //

dimensions      [0 0 -1 0 0 0 0];

internalField   nonuniform List<scalar> 
10000
(
0.961704
0.89221
0.829111
0.771742
0.719509
0.671885
0.628401
0.588637
0.552219
0.518814
0.488122
0.459877
0.433837
0.409789
0.387537
0.366909
0.347748
0.329911
0.313272
0.297717
0.283144
0.26946
0.256585
0.244449
0.232991
0.22216
0.211913
0.202216
0.193043
0.184373
0.176191
0.168484
0.161242
0.154456
0.148116
0.14221
0.136725
0.131646
0.126955
0.122633
0.118661
0.115018
0.111683
0.108634
0.105851
0.103314
0.101002
0.0988984
0.0969845
0.0952445
0.0936634
0.0922276
0.0909243
0.0897418
0.0886695
0.0876976
0.0868169
0.0860194
0.0852976
0.0846446
0.0840541
0.0835204
0.0830384
0.0826033
0.0822106
0.0818566
0.0815374
0.0812499
0.080991
0.080758
0.0805483
0.0803596
0.0801899
0.0800373
0.0799001
0.0797766
0.0796656
0.0795656
0.0794756
0.0793944
0.0793212
0.0792552
0.0791955
0.0791414
0.0790925
0.0790481
0.0790078
0.0789712
0.0789379
0.0789076
0.0788801
0.0788552
0.0788327
0.0788126
0.0787949
0.0787795
0.0787666
0.0787564
0.078749
0.0787448
0.961704
0.892211
0.829113
0.771744
0.719512
0.671888
0.628404
0.588641
0.552223
0.518818
0.488127
0.459881
0.433842
0.409794
0.387543
0.366915
0.347754
0.329918
0.31328
0.297726
0.283153
0.26947
0.256596
0.244462
0.233005
0.222175
0.21193
0.202235
0.193063
0.184394
0.176213
0.168506
0.161265
0.15448
0.14814
0.142233
0.136748
0.131669
0.126977
0.122655
0.118683
0.115039
0.111703
0.108653
0.105869
0.103331
0.101018
0.0989125
0.0969974
0.0952564
0.0936745
0.0922378
0.0909338
0.0897506
0.0886777
0.0877051
0.0868239
0.0860259
0.0853036
0.0846501
0.0840592
0.0835251
0.0830428
0.0826073
0.0822144
0.08186
0.0815406
0.0812528
0.0809937
0.0807604
0.0805505
0.0803617
0.0801918
0.0800391
0.0799017
0.0797781
0.0796669
0.0795668
0.0794767
0.0793954
0.0793222
0.079256
0.0791962
0.0791421
0.0790931
0.0790487
0.0790083
0.0789716
0.0789383
0.078908
0.0788804
0.0788555
0.078833
0.0788129
0.0787951
0.0787797
0.0787669
0.0787566
0.0787492
0.078745
0.961704
0.892212
0.829115
0.771747
0.719516
0.671894
0.62841
0.588647
0.55223
0.518826
0.488135
0.45989
0.433851
0.409803
0.387553
0.366926
0.347765
0.32993
0.313293
0.29774
0.283169
0.269487
0.256615
0.244483
0.233028
0.222201
0.211957
0.202264
0.193095
0.184428
0.176248
0.168544
0.161303
0.154519
0.148179
0.142272
0.136787
0.131706
0.127014
0.122691
0.118717
0.115072
0.111735
0.108683
0.105897
0.103357
0.101042
0.0989353
0.0970185
0.0952759
0.0936924
0.0922544
0.0909491
0.0897647
0.0886907
0.087717
0.0868349
0.086036
0.0853128
0.0846585
0.0840669
0.0835322
0.0830493
0.0826132
0.0822198
0.0818649
0.0815451
0.0812569
0.0809974
0.0807638
0.0805536
0.0803645
0.0801943
0.0800413
0.0799037
0.07978
0.0796686
0.0795683
0.0794781
0.0793967
0.0793233
0.079257
0.0791972
0.079143
0.0790939
0.0790494
0.079009
0.0789722
0.0789388
0.0789085
0.0788809
0.0788559
0.0788334
0.0788133
0.0787955
0.0787801
0.0787672
0.078757
0.0787496
0.0787453
0.961705
0.892213
0.829118
0.771751
0.719521
0.6719
0.628418
0.588655
0.55224
0.518836
0.488146
0.459901
0.433863
0.409816
0.387567
0.366941
0.347781
0.329947
0.313312
0.29776
0.283191
0.269512
0.256642
0.244512
0.23306
0.222236
0.211996
0.202306
0.193139
0.184475
0.176298
0.168595
0.161356
0.154572
0.148233
0.142326
0.13684
0.131758
0.127065
0.12274
0.118764
0.115117
0.111778
0.108724
0.105936
0.103393
0.101076
0.0989664
0.0970474
0.0953025
0.0937171
0.0922771
0.09097
0.089784
0.0887083
0.0877333
0.0868498
0.0860496
0.0853253
0.08467
0.0840773
0.0835417
0.0830579
0.0826211
0.0822269
0.0818714
0.081551
0.0812622
0.0810022
0.0807682
0.0805575
0.080368
0.0801975
0.0800442
0.0799063
0.0797823
0.0796707
0.0795702
0.0794797
0.0793982
0.0793247
0.0792583
0.0791983
0.079144
0.0790948
0.0790502
0.0790097
0.0789729
0.0789395
0.0789091
0.0788815
0.0788565
0.0788339
0.0788138
0.078796
0.0787806
0.0787678
0.0787575
0.0787501
0.0787458
0.961705
0.892214
0.829119
0.771754
0.719526
0.671906
0.628426
0.588665
0.55225
0.518848
0.488158
0.459915
0.433878
0.409832
0.387584
0.366959
0.347801
0.329969
0.313335
0.297786
0.283219
0.269543
0.256676
0.244549
0.233101
0.222281
0.212044
0.202358
0.193195
0.184534
0.17636
0.16866
0.161423
0.15464
0.148301
0.142394
0.136907
0.131824
0.127128
0.122801
0.118823
0.115174
0.111831
0.108775
0.105984
0.103438
0.101118
0.0990053
0.0970834
0.095336
0.093748
0.0923057
0.0909963
0.0898082
0.0887306
0.0877537
0.0868685
0.0860667
0.0853409
0.0846843
0.0840904
0.0835536
0.0830687
0.0826309
0.0822358
0.0818795
0.0815583
0.0812688
0.0810082
0.0807735
0.0805623
0.0803723
0.0802014
0.0800477
0.0799095
0.0797851
0.0796732
0.0795725
0.0794817
0.0794
0.0793263
0.0792597
0.0791996
0.0791452
0.0790959
0.0790512
0.0790106
0.0789738
0.0789403
0.0789098
0.0788822
0.0788572
0.0788346
0.0788145
0.0787967
0.0787813
0.0787684
0.0787582
0.0787508
0.0787465
0.961704
0.892214
0.829121
0.771757
0.71953
0.671912
0.628433
0.588674
0.552261
0.51886
0.488172
0.459931
0.433895
0.409851
0.387604
0.366981
0.347825
0.329995
0.313363
0.297817
0.283253
0.26958
0.256717
0.244594
0.23315
0.222334
0.212102
0.202421
0.193262
0.184605
0.176434
0.168736
0.161501
0.154719
0.148381
0.142474
0.136986
0.131901
0.127203
0.122874
0.118893
0.11524
0.111894
0.108834
0.10604
0.10349
0.101167
0.0990511
0.097126
0.0953754
0.0937845
0.0923394
0.0910274
0.0898368
0.0887569
0.0877778
0.0868906
0.086087
0.0853595
0.0847012
0.0841058
0.0835676
0.0830815
0.0826425
0.0822463
0.081889
0.0815669
0.0812766
0.0810152
0.0807798
0.080568
0.0803774
0.080206
0.0800518
0.0799131
0.0797883
0.0796761
0.079575
0.079484
0.079402
0.0793281
0.0792614
0.079201
0.0791465
0.0790971
0.0790523
0.0790116
0.0789747
0.0789411
0.0789106
0.078883
0.0788579
0.0788354
0.0788152
0.0787975
0.0787821
0.0787692
0.078759
0.0787516
0.0787473
0.961704
0.892214
0.829122
0.771759
0.719534
0.671918
0.628441
0.588683
0.552272
0.518873
0.488187
0.459947
0.433913
0.409871
0.387626
0.367005
0.347851
0.330023
0.313395
0.297852
0.283291
0.269622
0.256763
0.244645
0.233206
0.222395
0.212168
0.202492
0.193338
0.184685
0.176518
0.168823
0.16159
0.15481
0.148472
0.142564
0.137075
0.131989
0.127288
0.122956
0.118972
0.115316
0.111966
0.108902
0.106103
0.10355
0.101223
0.0991032
0.0971744
0.0954203
0.093826
0.0923777
0.0910627
0.0898694
0.0887868
0.0878053
0.0869158
0.08611
0.0853805
0.0847204
0.0841233
0.0835836
0.083096
0.0826556
0.0822582
0.0818998
0.0815766
0.0812854
0.0810231
0.0807869
0.0805743
0.0803831
0.0802111
0.0800563
0.0799171
0.0797919
0.0796793
0.0795779
0.0794866
0.0794043
0.0793301
0.0792631
0.0792026
0.0791479
0.0790984
0.0790535
0.0790127
0.0789757
0.0789421
0.0789116
0.0788839
0.0788588
0.0788362
0.0788161
0.0787983
0.078783
0.0787701
0.0787599
0.0787525
0.0787482
0.961704
0.892214
0.829122
0.771761
0.719537
0.671923
0.628447
0.588692
0.552283
0.518885
0.488202
0.459964
0.433932
0.409892
0.387649
0.367031
0.34788
0.330055
0.31343
0.29789
0.283333
0.269669
0.256815
0.244702
0.233268
0.222463
0.212242
0.20257
0.193422
0.184774
0.176611
0.168919
0.161689
0.15491
0.148572
0.142665
0.137174
0.132085
0.127383
0.123047
0.119059
0.115399
0.112045
0.108977
0.106174
0.103616
0.101284
0.0991607
0.0972279
0.0954699
0.093872
0.0924202
0.0911019
0.0899054
0.08882
0.0878357
0.0869437
0.0861356
0.0854039
0.0847417
0.0841427
0.0836012
0.083112
0.0826702
0.0822714
0.0819116
0.0815873
0.081295
0.0810317
0.0807947
0.0805813
0.0803893
0.0802166
0.0800613
0.0799215
0.0797958
0.0796827
0.0795809
0.0794893
0.0794067
0.0793323
0.0792651
0.0792044
0.0791495
0.0790998
0.0790547
0.0790139
0.0789768
0.0789431
0.0789125
0.0788848
0.0788597
0.0788372
0.078817
0.0787993
0.0787839
0.0787711
0.0787609
0.0787535
0.0787492
0.961704
0.892214
0.829122
0.771762
0.719539
0.671927
0.628453
0.5887
0.552293
0.518897
0.488216
0.45998
0.433951
0.409913
0.387673
0.367058
0.34791
0.330088
0.313467
0.297931
0.283379
0.269719
0.256871
0.244763
0.233336
0.222536
0.212321
0.202656
0.193512
0.18487
0.176711
0.169023
0.161795
0.155018
0.148681
0.142773
0.137281
0.13219
0.127484
0.123145
0.119153
0.115489
0.11213
0.109058
0.10625
0.103687
0.101351
0.099223
0.0972858
0.0955237
0.0939218
0.0924662
0.0911444
0.0899446
0.088856
0.0878688
0.086974
0.0861633
0.0854292
0.0847648
0.0841638
0.0836204
0.0831294
0.0826859
0.0822856
0.0819245
0.0815989
0.0813054
0.0810411
0.0808031
0.0805888
0.080396
0.0802226
0.0800666
0.0799262
0.0798
0.0796864
0.0795842
0.0794922
0.0794093
0.0793345
0.0792671
0.0792061
0.0791511
0.0791012
0.079056
0.0790151
0.0789779
0.0789442
0.0789136
0.0788858
0.0788607
0.0788382
0.078818
0.0788003
0.0787849
0.0787721
0.0787619
0.0787546
0.0787503
0.961704
0.892213
0.829122
0.771762
0.719541
0.67193
0.628458
0.588707
0.552302
0.518909
0.488229
0.459996
0.43397
0.409935
0.387698
0.367085
0.347941
0.330123
0.313506
0.297975
0.283427
0.269773
0.25693
0.244828
0.233407
0.222614
0.212405
0.202746
0.193609
0.184972
0.176818
0.169134
0.161909
0.155133
0.148796
0.142888
0.137394
0.132301
0.127592
0.12325
0.119254
0.115584
0.112221
0.109144
0.106331
0.103763
0.101422
0.0992894
0.0973477
0.0955811
0.093975
0.0925154
0.0911898
0.0899864
0.0888945
0.0879041
0.0870064
0.086193
0.0854563
0.0847895
0.0841863
0.0836409
0.0831479
0.0827027
0.0823008
0.0819382
0.0816113
0.0813165
0.0810511
0.080812
0.0805968
0.0804031
0.0802289
0.0800721
0.0799312
0.0798044
0.0796903
0.0795876
0.0794952
0.0794119
0.0793368
0.0792691
0.079208
0.0791527
0.0791027
0.0790574
0.0790163
0.0789791
0.0789453
0.0789146
0.0788868
0.0788617
0.0788392
0.078819
0.0788013
0.078786
0.0787732
0.078763
0.0787557
0.0787514
0.961703
0.892213
0.829122
0.771763
0.719542
0.671932
0.628462
0.588713
0.55231
0.518919
0.488242
0.460012
0.433988
0.409956
0.387722
0.367113
0.347972
0.330159
0.313546
0.29802
0.283477
0.269828
0.256992
0.244897
0.233482
0.222696
0.212494
0.202842
0.193711
0.185079
0.17693
0.16925
0.162028
0.155254
0.148918
0.143009
0.137514
0.132418
0.127706
0.123359
0.119359
0.115685
0.112317
0.109234
0.106416
0.103844
0.101497
0.0993594
0.0974128
0.0956417
0.0940311
0.0925674
0.0912377
0.0900306
0.0889351
0.0879414
0.0870406
0.0862243
0.0854849
0.0848156
0.0842101
0.0836625
0.0831675
0.0827205
0.0823169
0.0819527
0.0816243
0.0813282
0.0810615
0.0808213
0.0806051
0.0804105
0.0802355
0.080078
0.0799363
0.0798089
0.0796943
0.0795911
0.0794983
0.0794146
0.0793392
0.0792712
0.0792098
0.0791543
0.0791042
0.0790587
0.0790176
0.0789802
0.0789464
0.0789157
0.0788879
0.0788627
0.0788402
0.0788201
0.0788023
0.0787871
0.0787743
0.0787641
0.0787568
0.0787524
0.961703
0.892212
0.829121
0.771762
0.719543
0.671934
0.628465
0.588718
0.552317
0.518929
0.488254
0.460027
0.434006
0.409977
0.387747
0.367141
0.348004
0.330195
0.313587
0.298066
0.283529
0.269886
0.257056
0.244968
0.23356
0.222781
0.212586
0.202941
0.193816
0.18519
0.177046
0.16937
0.162151
0.155379
0.149044
0.143134
0.137638
0.13254
0.127824
0.123474
0.119469
0.11579
0.112417
0.109328
0.106505
0.103927
0.101576
0.0994324
0.0974808
0.0957049
0.0940897
0.0926216
0.0912878
0.0900767
0.0889776
0.0879804
0.0870763
0.086257
0.0855148
0.0848429
0.0842349
0.083685
0.083188
0.082739
0.0823336
0.0819678
0.0816378
0.0813404
0.0810724
0.0808311
0.0806138
0.0804182
0.0802423
0.080084
0.0799416
0.0798136
0.0796984
0.0795947
0.0795014
0.0794174
0.0793416
0.0792733
0.0792117
0.079156
0.0791056
0.0790601
0.0790188
0.0789814
0.0789474
0.0789167
0.0788889
0.0788637
0.0788412
0.0788211
0.0788034
0.0787881
0.0787753
0.0787652
0.0787579
0.0787535
0.961703
0.892212
0.82912
0.771762
0.719543
0.671935
0.628468
0.588722
0.552323
0.518937
0.488266
0.460041
0.434023
0.409997
0.387771
0.367169
0.348036
0.330232
0.313629
0.298113
0.283582
0.269945
0.257121
0.24504
0.23364
0.222868
0.212681
0.203042
0.193924
0.185305
0.177166
0.169494
0.162278
0.155508
0.149173
0.143263
0.137765
0.132665
0.127946
0.123591
0.119582
0.115898
0.112519
0.109426
0.106597
0.104013
0.101656
0.0995079
0.0975512
0.0957702
0.0941503
0.0926777
0.0913396
0.0901245
0.0890215
0.0880208
0.0871134
0.0862909
0.0855458
0.0848712
0.0842606
0.0837084
0.0832092
0.0827582
0.0823509
0.0819834
0.0816518
0.081353
0.0810836
0.0808411
0.0806227
0.0804261
0.0802493
0.0800902
0.0799471
0.0798184
0.0797026
0.0795984
0.0795046
0.0794201
0.079344
0.0792754
0.0792135
0.0791576
0.0791071
0.0790614
0.07902
0.0789825
0.0789485
0.0789177
0.0788898
0.0788647
0.0788422
0.0788221
0.0788044
0.0787891
0.0787764
0.0787663
0.0787589
0.0787546
0.961703
0.892211
0.82912
0.771761
0.719543
0.671936
0.62847
0.588726
0.552329
0.518945
0.488276
0.460054
0.434039
0.410017
0.387794
0.367196
0.348068
0.330268
0.31367
0.29816
0.283635
0.270005
0.257188
0.245114
0.233721
0.222956
0.212777
0.203146
0.194035
0.185421
0.177288
0.16962
0.162408
0.15564
0.149306
0.143395
0.137896
0.132793
0.128071
0.123712
0.119698
0.116009
0.112625
0.109525
0.106691
0.104102
0.101739
0.0995854
0.0976234
0.0958374
0.0942126
0.0927353
0.0913929
0.0901736
0.0890668
0.0880624
0.0871515
0.0863258
0.0855777
0.0849002
0.0842871
0.0837324
0.083231
0.0827779
0.0823687
0.0819994
0.0816662
0.0813658
0.0810952
0.0808513
0.0806318
0.0804342
0.0802564
0.0800965
0.0799526
0.0798232
0.0797068
0.079602
0.0795078
0.0794229
0.0793464
0.0792775
0.0792154
0.0791592
0.0791085
0.0790626
0.0790211
0.0789835
0.0789495
0.0789187
0.0788908
0.0788657
0.0788431
0.078823
0.0788054
0.0787901
0.0787774
0.0787673
0.0787599
0.0787556
0.961702
0.89221
0.829119
0.77176
0.719542
0.671936
0.628472
0.588729
0.552334
0.518952
0.488286
0.460066
0.434055
0.410036
0.387817
0.367223
0.348099
0.330304
0.313711
0.298207
0.283688
0.270064
0.257255
0.245188
0.233803
0.223046
0.212874
0.203251
0.194147
0.185539
0.177411
0.169748
0.162539
0.155773
0.14944
0.143529
0.138028
0.132923
0.128197
0.123834
0.119816
0.116121
0.112732
0.109627
0.106787
0.104192
0.101824
0.0996645
0.0976971
0.0959059
0.0942762
0.0927942
0.0914474
0.0902238
0.089113
0.0881049
0.0871905
0.0863615
0.0856103
0.0849299
0.0843141
0.083757
0.0832532
0.082798
0.0823868
0.0820157
0.0816809
0.081379
0.0811069
0.0808618
0.080641
0.0804424
0.0802636
0.0801028
0.0799581
0.079828
0.079711
0.0796057
0.0795109
0.0794256
0.0793488
0.0792796
0.0792171
0.0791608
0.0791099
0.0790638
0.0790222
0.0789845
0.0789504
0.0789196
0.0788917
0.0788665
0.078844
0.0788239
0.0788063
0.0787911
0.0787784
0.0787683
0.0787609
0.0787566
0.961702
0.89221
0.829118
0.77176
0.719542
0.671936
0.628473
0.588731
0.552338
0.518959
0.488295
0.460078
0.43407
0.410054
0.387839
0.367249
0.34813
0.33034
0.313752
0.298254
0.283741
0.270124
0.257322
0.245262
0.233885
0.223136
0.212972
0.203356
0.194259
0.185658
0.177536
0.169877
0.162671
0.155908
0.149576
0.143665
0.138162
0.133054
0.128325
0.123958
0.119935
0.116236
0.112841
0.10973
0.106884
0.104283
0.10191
0.0997447
0.0977719
0.0959755
0.0943408
0.0928541
0.0915026
0.0902749
0.0891599
0.088148
0.08723
0.0863977
0.0856434
0.0849601
0.0843416
0.0837819
0.0832758
0.0828184
0.0824053
0.0820323
0.0816957
0.0813923
0.0811187
0.0808723
0.0806504
0.0804506
0.0802709
0.0801092
0.0799637
0.0798329
0.0797152
0.0796093
0.0795141
0.0794283
0.0793511
0.0792816
0.0792188
0.0791622
0.0791112
0.079065
0.0790232
0.0789855
0.0789513
0.0789204
0.0788925
0.0788674
0.0788448
0.0788248
0.0788071
0.078792
0.0787793
0.0787692
0.0787618
0.0787575
0.961702
0.892209
0.829117
0.771759
0.719541
0.671936
0.628474
0.588734
0.552342
0.518965
0.488303
0.460089
0.434084
0.410071
0.38786
0.367275
0.34816
0.330375
0.313793
0.2983
0.283794
0.270184
0.257388
0.245337
0.233967
0.223226
0.21307
0.203461
0.194372
0.185777
0.17766
0.170007
0.162804
0.156043
0.149712
0.1438
0.138296
0.133186
0.128454
0.124083
0.120055
0.11635
0.11295
0.109834
0.106982
0.104376
0.101996
0.0998256
0.0978474
0.0960458
0.0944061
0.0929145
0.0915585
0.0903264
0.0892074
0.0881917
0.0872701
0.0864343
0.0856769
0.0849907
0.0843694
0.0838071
0.0832987
0.0828391
0.0824239
0.082049
0.0817107
0.0814057
0.0811307
0.0808829
0.0806598
0.0804589
0.0802782
0.0801155
0.0799693
0.0798377
0.0797194
0.0796129
0.0795172
0.079431
0.0793534
0.0792835
0.0792205
0.0791637
0.0791124
0.079066
0.0790242
0.0789863
0.0789521
0.0789212
0.0788932
0.0788681
0.0788456
0.0788255
0.0788079
0.0787928
0.0787801
0.07877
0.0787627
0.0787584
0.961701
0.892208
0.829116
0.771758
0.719541
0.671936
0.628474
0.588736
0.552346
0.51897
0.488311
0.460099
0.434097
0.410088
0.38788
0.367299
0.348189
0.330409
0.313832
0.298345
0.283845
0.270242
0.257454
0.24541
0.234048
0.223315
0.213167
0.203566
0.194483
0.185896
0.177785
0.170136
0.162937
0.156177
0.149847
0.143936
0.138431
0.133318
0.128583
0.124208
0.120175
0.116465
0.11306
0.109938
0.10708
0.104468
0.102083
0.0999069
0.0979233
0.0961165
0.0944717
0.0929753
0.0916148
0.0903783
0.0892552
0.0882356
0.0873104
0.0864712
0.0857106
0.0850214
0.0843973
0.0838325
0.0833217
0.0828598
0.0824426
0.0820658
0.0817258
0.0814191
0.0811426
0.0808935
0.0806692
0.0804672
0.0802854
0.0801219
0.0799748
0.0798425
0.0797235
0.0796165
0.0795202
0.0794335
0.0793556
0.0792853
0.0792221
0.079165
0.0791135
0.079067
0.079025
0.0789871
0.0789528
0.0789218
0.0788939
0.0788687
0.0788462
0.0788262
0.0788086
0.0787935
0.0787808
0.0787708
0.0787635
0.0787591
0.961701
0.892207
0.829115
0.771757
0.71954
0.671936
0.628475
0.588737
0.552349
0.518975
0.488318
0.460109
0.434109
0.410104
0.3879
0.367323
0.348217
0.330442
0.313871
0.29839
0.283896
0.2703
0.257519
0.245482
0.234128
0.223403
0.213263
0.20367
0.194594
0.186013
0.177908
0.170263
0.163068
0.156311
0.149982
0.144071
0.138564
0.13345
0.128711
0.124332
0.120295
0.11658
0.113169
0.110042
0.107179
0.104561
0.10217
0.0999883
0.0979993
0.0961872
0.0945374
0.0930363
0.0916711
0.0904303
0.0893031
0.0882797
0.0873508
0.0865082
0.0857444
0.0850522
0.0844254
0.083858
0.0833447
0.0828806
0.0824613
0.0820826
0.0817409
0.0814326
0.0811546
0.0809041
0.0806785
0.0804754
0.0802926
0.0801282
0.0799802
0.0798472
0.0797275
0.0796199
0.0795231
0.079436
0.0793577
0.0792871
0.0792235
0.0791662
0.0791146
0.0790679
0.0790258
0.0789878
0.0789534
0.0789224
0.0788945
0.0788693
0.0788468
0.0788268
0.0788092
0.0787941
0.0787815
0.0787714
0.0787641
0.0787598
0.961701
0.892207
0.829114
0.771756
0.719539
0.671935
0.628475
0.588739
0.552352
0.51898
0.488324
0.460118
0.434121
0.410119
0.387918
0.367345
0.348244
0.330474
0.313908
0.298433
0.283946
0.270356
0.257583
0.245553
0.234207
0.22349
0.213357
0.203772
0.194704
0.186129
0.17803
0.17039
0.163198
0.156444
0.150116
0.144205
0.138697
0.13358
0.128838
0.124456
0.120414
0.116694
0.113278
0.110145
0.107277
0.104653
0.102257
0.100069
0.0980751
0.0962578
0.094603
0.0930971
0.0917274
0.0904823
0.089351
0.0883236
0.0873912
0.0865452
0.0857781
0.085083
0.0844533
0.0838834
0.0833677
0.0829014
0.08248
0.0820994
0.0817559
0.0814459
0.0811665
0.0809147
0.0806878
0.0804836
0.0802998
0.0801344
0.0799856
0.0798518
0.0797315
0.0796233
0.079526
0.0794384
0.0793597
0.0792888
0.0792249
0.0791674
0.0791155
0.0790687
0.0790265
0.0789884
0.078954
0.0789229
0.0788949
0.0788698
0.0788473
0.0788273
0.0788097
0.0787946
0.078782
0.078772
0.0787647
0.0787604
0.961701
0.892206
0.829113
0.771755
0.719538
0.671935
0.628475
0.58874
0.552354
0.518984
0.488331
0.460127
0.434133
0.410134
0.387936
0.367367
0.348271
0.330505
0.313945
0.298475
0.283994
0.270411
0.257645
0.245623
0.234284
0.223575
0.21345
0.203872
0.194811
0.186243
0.17815
0.170515
0.163327
0.156575
0.150248
0.144337
0.138828
0.133709
0.128964
0.124578
0.120532
0.116808
0.113386
0.110248
0.107374
0.104745
0.102343
0.10015
0.0981503
0.0963279
0.0946682
0.0931575
0.0917833
0.0905339
0.0893986
0.0883674
0.0874313
0.086582
0.0858117
0.0851136
0.0844812
0.0839086
0.0833905
0.082922
0.0824986
0.0821161
0.0817708
0.0814592
0.0811783
0.0809251
0.080697
0.0804916
0.0803068
0.0801405
0.0799909
0.0798563
0.0797353
0.0796266
0.0795287
0.0794407
0.0793616
0.0792904
0.0792262
0.0791685
0.0791164
0.0790694
0.0790271
0.0789889
0.0789544
0.0789233
0.0788953
0.0788702
0.0788477
0.0788277
0.0788102
0.0787951
0.0787825
0.0787725
0.0787652
0.0787608
0.9617
0.892205
0.829112
0.771754
0.719537
0.671934
0.628475
0.588741
0.552356
0.518988
0.488336
0.460135
0.434143
0.410147
0.387954
0.367388
0.348296
0.330535
0.31398
0.298516
0.284042
0.270465
0.257705
0.245691
0.23436
0.223658
0.213541
0.203971
0.194917
0.186355
0.178267
0.170637
0.163453
0.156703
0.150378
0.144467
0.138957
0.133836
0.129089
0.124699
0.120648
0.116919
0.113493
0.110349
0.10747
0.104835
0.102428
0.10023
0.0982249
0.0963974
0.0947328
0.0932175
0.0918388
0.0905852
0.0894458
0.0884108
0.0874711
0.0866184
0.085845
0.085144
0.0845088
0.0839337
0.0834132
0.0829424
0.0825169
0.0821325
0.0817855
0.0814723
0.0811899
0.0809354
0.0807061
0.0804996
0.0803137
0.0801465
0.079996
0.0798607
0.0797391
0.0796297
0.0795314
0.0794429
0.0793634
0.0792918
0.0792274
0.0791694
0.0791172
0.0790701
0.0790276
0.0789893
0.0789548
0.0789236
0.0788956
0.0788704
0.0788479
0.078828
0.0788105
0.0787954
0.0787828
0.0787728
0.0787656
0.0787612
0.9617
0.892205
0.829111
0.771753
0.719536
0.671934
0.628475
0.588742
0.552358
0.518991
0.488342
0.460142
0.434154
0.41016
0.38797
0.367409
0.34832
0.330564
0.314014
0.298556
0.284087
0.270517
0.257764
0.245757
0.234434
0.22374
0.21363
0.204067
0.19502
0.186465
0.178382
0.170757
0.163576
0.156829
0.150506
0.144594
0.139084
0.133961
0.129211
0.124817
0.120763
0.11703
0.113598
0.110449
0.107564
0.104925
0.102512
0.100309
0.0982985
0.096466
0.0947966
0.0932767
0.0918936
0.0906358
0.0894925
0.0884537
0.0875105
0.0866545
0.085878
0.085174
0.0845361
0.0839584
0.0834356
0.0829626
0.0825351
0.0821488
0.0818
0.0814853
0.0812014
0.0809455
0.080715
0.0805073
0.0803205
0.0801523
0.080001
0.079865
0.0797427
0.0796328
0.0795339
0.079445
0.0793651
0.0792932
0.0792285
0.0791703
0.0791178
0.0790706
0.079028
0.0789896
0.078955
0.0789238
0.0788958
0.0788706
0.0788481
0.0788282
0.0788107
0.0787957
0.0787831
0.0787731
0.0787659
0.0787615
0.9617
0.892204
0.82911
0.771752
0.719535
0.671933
0.628475
0.588742
0.55236
0.518995
0.488347
0.46015
0.434163
0.410173
0.387986
0.367428
0.348344
0.330592
0.314047
0.298594
0.284131
0.270568
0.257822
0.245822
0.234505
0.223819
0.213716
0.20416
0.19512
0.186572
0.178494
0.170874
0.163697
0.156952
0.15063
0.144719
0.139208
0.134083
0.129331
0.124934
0.120875
0.117138
0.113701
0.110548
0.107657
0.105012
0.102594
0.100386
0.098371
0.0965336
0.0948595
0.093335
0.0919476
0.0906857
0.0895384
0.088496
0.0875493
0.08669
0.0859104
0.0852036
0.084563
0.0839828
0.0834576
0.0829825
0.082553
0.0821648
0.0818143
0.081498
0.0812127
0.0809554
0.0807237
0.080515
0.0803271
0.080158
0.0800059
0.0798692
0.0797462
0.0796357
0.0795363
0.079447
0.0793667
0.0792945
0.0792295
0.079171
0.0791184
0.079071
0.0790283
0.0789898
0.0789551
0.0789239
0.0788959
0.0788707
0.0788482
0.0788283
0.0788108
0.0787958
0.0787833
0.0787733
0.0787661
0.0787617
0.9617
0.892204
0.829109
0.771751
0.719534
0.671933
0.628475
0.588743
0.552362
0.518998
0.488352
0.460156
0.434172
0.410185
0.388001
0.367447
0.348366
0.330619
0.314079
0.298631
0.284174
0.270616
0.257877
0.245884
0.234574
0.223895
0.2138
0.204251
0.195218
0.186675
0.178604
0.170987
0.163814
0.157072
0.150751
0.144841
0.139329
0.134203
0.129448
0.125047
0.120985
0.117243
0.113802
0.110644
0.107749
0.105099
0.102675
0.100462
0.098442
0.0965999
0.0949211
0.0933922
0.0920006
0.0907347
0.0895836
0.0885376
0.0875875
0.0867249
0.0859423
0.0852327
0.0845894
0.0840068
0.0834793
0.0830021
0.0825705
0.0821805
0.0818283
0.0815105
0.0812237
0.0809652
0.0807322
0.0805224
0.0803335
0.0801636
0.0800107
0.0798732
0.0797496
0.0796385
0.0795386
0.0794489
0.0793682
0.0792956
0.0792304
0.0791717
0.0791189
0.0790713
0.0790285
0.0789899
0.0789552
0.0789239
0.0788959
0.0788707
0.0788482
0.0788283
0.0788108
0.0787958
0.0787833
0.0787734
0.0787661
0.0787618
0.9617
0.892203
0.829109
0.77175
0.719533
0.671932
0.628475
0.588744
0.552364
0.519001
0.488356
0.460163
0.434181
0.410196
0.388015
0.367464
0.348388
0.330645
0.314109
0.298666
0.284215
0.270663
0.25793
0.245944
0.234641
0.223969
0.213881
0.204339
0.195312
0.186776
0.178709
0.171098
0.163928
0.157189
0.150869
0.144959
0.139447
0.134319
0.129562
0.125158
0.121093
0.117346
0.113901
0.110738
0.107838
0.105183
0.102755
0.100536
0.0985116
0.0966648
0.0949815
0.0934483
0.0920525
0.0907826
0.0896278
0.0885783
0.0876248
0.0867591
0.0859736
0.0852611
0.0846153
0.0840302
0.0835005
0.0830212
0.0825877
0.0821959
0.081842
0.0815226
0.0812345
0.0809746
0.0807405
0.0805296
0.0803398
0.0801689
0.0800153
0.0798771
0.0797528
0.0796412
0.0795408
0.0794506
0.0793696
0.0792967
0.0792312
0.0791722
0.0791192
0.0790715
0.0790286
0.0789899
0.0789552
0.0789239
0.0788958
0.0788706
0.0788481
0.0788282
0.0788108
0.0787958
0.0787833
0.0787734
0.0787662
0.0787618
0.961699
0.892202
0.829108
0.771749
0.719533
0.671931
0.628475
0.588744
0.552365
0.519003
0.48836
0.460169
0.434189
0.410207
0.388029
0.367481
0.348408
0.330669
0.314138
0.2987
0.284254
0.270708
0.257981
0.246001
0.234706
0.22404
0.213959
0.204424
0.195403
0.186873
0.178812
0.171204
0.164038
0.157301
0.150984
0.145074
0.139561
0.134432
0.129672
0.125266
0.121197
0.117447
0.113997
0.110829
0.107924
0.105265
0.102832
0.100609
0.0985794
0.0967281
0.0950404
0.093503
0.0921032
0.0908295
0.089671
0.088618
0.0876613
0.0867925
0.0860041
0.0852889
0.0846406
0.0840531
0.0835212
0.0830398
0.0826044
0.0822109
0.0818554
0.0815345
0.0812449
0.0809838
0.0807485
0.0805366
0.0803458
0.0801741
0.0800197
0.0798808
0.0797559
0.0796437
0.0795429
0.0794523
0.0793708
0.0792976
0.0792319
0.0791727
0.0791195
0.0790717
0.0790286
0.0789899
0.078955
0.0789237
0.0788956
0.0788704
0.0788479
0.078828
0.0788106
0.0787957
0.0787832
0.0787733
0.0787661
0.0787617
0.961699
0.892202
0.829107
0.771748
0.719532
0.671931
0.628475
0.588745
0.552366
0.519006
0.488364
0.460175
0.434197
0.410217
0.388042
0.367497
0.348428
0.330693
0.314166
0.298733
0.284292
0.270752
0.258031
0.246057
0.234767
0.224109
0.214034
0.204505
0.195491
0.186966
0.17891
0.171307
0.164145
0.15741
0.151094
0.145185
0.139672
0.134541
0.129779
0.125371
0.121298
0.117544
0.11409
0.110918
0.108009
0.105344
0.102907
0.100679
0.0986453
0.0967896
0.0950978
0.0935562
0.0921525
0.0908751
0.0897131
0.0886567
0.0876968
0.0868251
0.0860338
0.085316
0.0846652
0.0840754
0.0835413
0.0830579
0.0826207
0.0822255
0.0818684
0.081546
0.0812551
0.0809928
0.0807563
0.0805434
0.0803516
0.0801791
0.0800239
0.0798843
0.0797589
0.0796461
0.0795448
0.0794538
0.079372
0.0792985
0.0792325
0.0791731
0.0791197
0.0790717
0.0790286
0.0789898
0.0789549
0.0789235
0.0788953
0.0788701
0.0788477
0.0788278
0.0788104
0.0787955
0.078783
0.0787731
0.0787659
0.0787616
0.961699
0.892201
0.829106
0.771747
0.719531
0.67193
0.628475
0.588745
0.552368
0.519008
0.488368
0.46018
0.434204
0.410227
0.388054
0.367512
0.348446
0.330715
0.314192
0.298764
0.284328
0.270793
0.258078
0.24611
0.234827
0.224174
0.214106
0.204584
0.195575
0.187056
0.179005
0.171406
0.164247
0.157515
0.151201
0.145292
0.139778
0.134647
0.129883
0.125471
0.121396
0.117638
0.11418
0.111004
0.10809
0.105421
0.102979
0.100748
0.0987092
0.0968493
0.0951533
0.0936079
0.0922004
0.0909193
0.0897539
0.0886942
0.0877313
0.0868566
0.0860627
0.0853423
0.0846891
0.0840971
0.0835609
0.0830755
0.0826365
0.0822396
0.0818809
0.0815571
0.0812649
0.0810014
0.0807639
0.0805499
0.0803573
0.0801839
0.080028
0.0798877
0.0797617
0.0796484
0.0795466
0.0794552
0.0793731
0.0792993
0.079233
0.0791734
0.0791199
0.0790717
0.0790285
0.0789896
0.0789546
0.0789232
0.078895
0.0788698
0.0788474
0.0788275
0.0788101
0.0787952
0.0787828
0.0787729
0.0787657
0.0787614
0.961699
0.892201
0.829106
0.771746
0.71953
0.67193
0.628474
0.588746
0.552369
0.51901
0.488372
0.460185
0.434211
0.410236
0.388066
0.367527
0.348464
0.330737
0.314218
0.298794
0.284362
0.270833
0.258123
0.24616
0.234883
0.224237
0.214175
0.204659
0.195656
0.187142
0.179096
0.171501
0.164345
0.157616
0.151303
0.145395
0.139881
0.134748
0.129983
0.125569
0.12149
0.117729
0.114267
0.111087
0.108169
0.105496
0.10305
0.100813
0.098771
0.096907
0.0952071
0.0936578
0.0922467
0.0909621
0.0897934
0.0887306
0.0877646
0.0868872
0.0860906
0.0853677
0.0847122
0.084118
0.0835798
0.0830926
0.0826518
0.0822532
0.0818931
0.0815679
0.0812744
0.0810097
0.0807711
0.0805562
0.0803627
0.0801885
0.0800318
0.079891
0.0797643
0.0796506
0.0795483
0.0794565
0.079374
0.0793
0.0792334
0.0791736
0.0791199
0.0790716
0.0790283
0.0789893
0.0789543
0.0789228
0.0788947
0.0788694
0.078847
0.0788271
0.0788098
0.0787949
0.0787825
0.0787726
0.0787654
0.0787611
0.961699
0.892201
0.829105
0.771746
0.719529
0.671929
0.628474
0.588746
0.55237
0.519013
0.488375
0.46019
0.434218
0.410245
0.388077
0.367541
0.348481
0.330757
0.314242
0.298822
0.284395
0.27087
0.258165
0.246209
0.234937
0.224297
0.214241
0.20473
0.195733
0.187224
0.179183
0.171592
0.164439
0.157712
0.151401
0.145494
0.139979
0.134846
0.130078
0.125662
0.12158
0.117816
0.114351
0.111166
0.108245
0.105568
0.103117
0.100877
0.0988305
0.0969626
0.0952589
0.093706
0.0922913
0.0910034
0.0898315
0.0887656
0.0877968
0.0869167
0.0861175
0.0853922
0.0847344
0.0841382
0.083598
0.083109
0.0826665
0.0822664
0.0819048
0.0815782
0.0812835
0.0810177
0.0807781
0.0805622
0.0803678
0.0801929
0.0800355
0.079894
0.0797669
0.0796526
0.0795499
0.0794577
0.0793749
0.0793005
0.0792338
0.0791738
0.0791199
0.0790715
0.079028
0.078989
0.0789539
0.0789224
0.0788942
0.078869
0.0788466
0.0788267
0.0788094
0.0787945
0.0787821
0.0787722
0.0787651
0.0787607
0.961698
0.8922
0.829104
0.771745
0.719529
0.671929
0.628474
0.588746
0.552371
0.519014
0.488378
0.460194
0.434224
0.410253
0.388087
0.367554