/*--------------------------------*- C++ -*----------------------------------*\
  =========                 |
  \\      /  F ield         | OpenFOAM: The Open Source CFD Toolbox
   \\    /   O peration     | Website:  https://openfoam.org
    \\  /    A nd           | Version:  11
     \\/     M anipulation  |
\*---------------------------------------------------------------------------*/
FoamFile
{
    format      ascii;
    class       volVectorField;
    location    "424";
    object      U;
}
// * * * * * * * * * * * * * * * * * * * * * * * * * * * * * * * * * * * * * //

dimensions      [0 1 -1 0 0 0 0];

internalField   nonuniform List<vector> 
10000
(
(0.00499995 -1.51695e-06 0)
(0.00499974 -4.40544e-06 0)
(0.00499947 -7.28978e-06 0)
(0.00499912 -1.02378e-05 0)
(0.00499871 -1.32856e-05 0)
(0.00499823 -1.64577e-05 0)
(0.00499769 -1.97732e-05 0)
(0.00499707 -2.32482e-05 0)
(0.00499638 -2.6897e-05 0)
(0.00499561 -3.0733e-05 0)
(0.00499476 -3.47688e-05 0)
(0.00499381 -3.90167e-05 0)
(0.00499277 -4.34886e-05 0)
(0.00499163 -4.81965e-05 0)
(0.00499038 -5.31523e-05 0)
(0.00498902 -5.83679e-05 0)
(0.00498753 -6.38554e-05 0)
(0.00498592 -6.96268e-05 0)
(0.00498418 -7.56942e-05 0)
(0.00498229 -8.207e-05 0)
(0.00498026 -8.87665e-05 0)
(0.00497807 -9.57961e-05 0)
(0.00497571 -0.000103171 0)
(0.00497317 -0.000110905 0)
(0.00497045 -0.000119009 0)
(0.00496753 -0.000127498 0)
(0.00496441 -0.000136382 0)
(0.00496108 -0.000145675 0)
(0.00495752 -0.000155389 0)
(0.00495372 -0.000165537 0)
(0.00494967 -0.00017613 0)
(0.00494537 -0.000187181 0)
(0.00494079 -0.0001987 0)
(0.00493592 -0.0002107 0)
(0.00493076 -0.00022319 0)
(0.00492529 -0.00023618 0)
(0.00491949 -0.000249679 0)
(0.00491336 -0.000263696 0)
(0.00490687 -0.000278237 0)
(0.00490001 -0.00029331 0)
(0.00489277 -0.000308918 0)
(0.00488514 -0.000325065 0)
(0.0048771 -0.000341753 0)
(0.00486862 -0.00035898 0)
(0.00485971 -0.000376745 0)
(0.00485034 -0.000395043 0)
(0.0048405 -0.000413865 0)
(0.00483018 -0.000433202 0)
(0.00481935 -0.000453038 0)
(0.00480802 -0.000473358 0)
(0.00479615 -0.000494137 0)
(0.00478375 -0.000515351 0)
(0.0047708 -0.000536969 0)
(0.00475728 -0.000558953 0)
(0.0047432 -0.000581262 0)
(0.00472854 -0.000603849 0)
(0.0047133 -0.000626659 0)
(0.00469747 -0.00064963 0)
(0.00468106 -0.000672696 0)
(0.00466407 -0.00069578 0)
(0.00464649 -0.000718801 0)
(0.00462835 -0.000741669 0)
(0.00460965 -0.000764289 0)
(0.00459041 -0.000786557 0)
(0.00457066 -0.000808365 0)
(0.00455041 -0.000829601 0)
(0.0045297 -0.000850148 0)
(0.00450857 -0.000869888 0)
(0.00448705 -0.000888702 0)
(0.0044652 -0.000906474 0)
(0.00444307 -0.00092309 0)
(0.00442072 -0.000938446 0)
(0.0043982 -0.000952442 0)
(0.0043756 -0.000964995 0)
(0.00435299 -0.000976034 0)
(0.00433049 -0.00098553 0)
(0.00430817 -0.000993504 0)
(0.00428567 -0.000999913 0)
(0.0042631 -0.00100457 0)
(0.00424057 -0.00100752 0)
(0.00421811 -0.00100878 0)
(0.00419612 -0.00100839 0)
(0.00417491 -0.00100645 0)
(0.00415448 -0.00100306 0)
(0.00413494 -0.000998289 0)
(0.00411633 -0.000992341 0)
(0.00409829 -0.000985364 0)
(0.00408093 -0.000977434 0)
(0.00406433 -0.00096865 0)
(0.00404855 -0.000959141 0)
(0.00403364 -0.000949051 0)
(0.00401966 -0.000938531 0)
(0.00400666 -0.000927746 0)
(0.00399471 -0.000916871 0)
(0.00398386 -0.000906106 0)
(0.00397421 -0.000895676 0)
(0.00396585 -0.000885851 0)
(0.00395889 -0.000876956 0)
(0.00395332 -0.000869539 0)
(0.00394935 -0.000864929 0)
(0.00499998 -1.38032e-06 0)
(0.00499979 -4.14311e-06 0)
(0.00499952 -6.9467e-06 0)
(0.00499917 -9.82212e-06 0)
(0.00499876 -1.2798e-05 0)
(0.00499828 -1.58962e-05 0)
(0.00499774 -1.91343e-05 0)
(0.00499712 -2.25279e-05 0)
(0.00499643 -2.60906e-05 0)
(0.00499566 -2.98353e-05 0)
(0.0049948 -3.37743e-05 0)
(0.00499386 -3.79193e-05 0)
(0.00499282 -4.22822e-05 0)
(0.00499167 -4.68745e-05 0)
(0.00499042 -5.17078e-05 0)
(0.00498906 -5.67936e-05 0)
(0.00498758 -6.21435e-05 0)
(0.00498597 -6.77694e-05 0)
(0.00498423 -7.36829e-05 0)
(0.00498235 -7.98961e-05 0)
(0.00498031 -8.64208e-05 0)
(0.00497812 -9.32691e-05 0)
(0.00497576 -0.000100453 0)
(0.00497323 -0.000107985 0)
(0.00497051 -0.000115878 0)
(0.0049676 -0.000124143 0)
(0.00496448 -0.000132792 0)
(0.00496115 -0.000141838 0)
(0.00495759 -0.000151294 0)
(0.0049538 -0.00016117 0)
(0.00494976 -0.000171478 0)
(0.00494546 -0.00018223 0)
(0.00494088 -0.000193437 0)
(0.00493602 -0.00020511 0)
(0.00493087 -0.000217258 0)
(0.0049254 -0.000229891 0)
(0.00491961 -0.000243018 0)
(0.00491348 -0.000256647 0)
(0.004907 -0.000270785 0)
(0.00490015 -0.000285437 0)
(0.00489293 -0.000300608 0)
(0.0048853 -0.0003163 0)
(0.00487727 -0.000332517 0)
(0.00486881 -0.000349256 0)
(0.00485991 -0.000366516 0)
(0.00485055 -0.000384292 0)
(0.00484072 -0.000402576 0)
(0.00483041 -0.000421357 0)
(0.0048196 -0.000440623 0)
(0.00480828 -0.000460355 0)
(0.00479644 -0.000480534 0)
(0.00478405 -0.000501133 0)
(0.00477112 -0.000522124 0)
(0.00475762 -0.00054347 0)
(0.00474356 -0.000565133 0)
(0.00472892 -0.000587065 0)
(0.0047137 -0.000609215 0)
(0.0046979 -0.000631525 0)
(0.00468152 -0.00065393 0)
(0.00466455 -0.000676357 0)
(0.004647 -0.00069873 0)
(0.00462889 -0.000720962 0)
(0.00461022 -0.000742962 0)
(0.00459101 -0.000764632 0)
(0.00457128 -0.00078587 0)
(0.00455107 -0.000806568 0)
(0.00453039 -0.000826616 0)
(0.00450929 -0.000845901 0)
(0.0044878 -0.000864312 0)
(0.00446598 -0.000881736 0)
(0.00444387 -0.000898068 0)
(0.00442153 -0.000913207 0)
(0.00439902 -0.000927062 0)
(0.00437639 -0.000939552 0)
(0.00435371 -0.000950608 0)
(0.00433103 -0.000960152 0)
(0.00430835 -0.000968074 0)
(0.00428566 -0.000974291 0)
(0.00426318 -0.000978875 0)
(0.004241 -0.00098189 0)
(0.00421921 -0.000983487 0)
(0.00419783 -0.00098379 0)
(0.00417692 -0.000982763 0)
(0.00415652 -0.000980382 0)
(0.00413673 -0.000976678 0)
(0.00411775 -0.000971651 0)
(0.00409952 -0.000965504 0)
(0.00408205 -0.000958419 0)
(0.00406538 -0.000950533 0)
(0.00404953 -0.000941981 0)
(0.00403455 -0.000932903 0)
(0.0040205 -0.000923455 0)
(0.00400742 -0.000913802 0)
(0.00399536 -0.000904128 0)
(0.00398439 -0.000894639 0)
(0.00397457 -0.000885574 0)
(0.00396598 -0.000877218 0)
(0.00395869 -0.00086992 0)
(0.00395241 -0.000864206 0)
(0.00394718 -0.000861052 0)
(0.00499999 -1.27058e-06 0)
(0.00499983 -3.90038e-06 0)
(0.00499958 -6.61219e-06 0)
(0.00499925 -9.41066e-06 0)
(0.00499884 -1.23134e-05 0)
(0.00499836 -1.53378e-05 0)
(0.00499782 -1.84996e-05 0)
(0.0049972 -2.18131e-05 0)
(0.00499651 -2.52912e-05 0)
(0.00499574 -2.89465e-05 0)
(0.00499488 -3.27906e-05 0)
(0.00499394 -3.68351e-05 0)
(0.0049929 -4.10913e-05 0)
(0.00499176 -4.55706e-05 0)
(0.00499051 -5.02841e-05 0)
(0.00498915 -5.5243e-05 0)
(0.00498767 -6.04588e-05 0)
(0.00498606 -6.59426e-05 0)
(0.00498432 -7.17061e-05 0)
(0.00498244 -7.77607e-05 0)
(0.00498041 -8.41181e-05 0)
(0.00497822 -9.07899e-05 0)
(0.00497587 -9.7788e-05 0)
(0.00497334 -0.000105124 0)
(0.00497063 -0.00011281 0)
(0.00496772 -0.000120858 0)
(0.00496461 -0.00012928 0)
(0.00496129 -0.000138087 0)
(0.00495774 -0.000147291 0)
(0.00495395 -0.000156903 0)
(0.00494992 -0.000166935 0)
(0.00494562 -0.000177398 0)
(0.00494106 -0.000188303 0)
(0.00493621 -0.000199659 0)
(0.00493107 -0.000211477 0)
(0.00492561 -0.000223765 0)
(0.00491984 -0.000236533 0)
(0.00491372 -0.000249787 0)
(0.00490726 -0.000263534 0)
(0.00490043 -0.00027778 0)
(0.00489322 -0.000292529 0)
(0.00488561 -0.000307784 0)
(0.0048776 -0.000323547 0)
(0.00486916 -0.000339816 0)
(0.00486028 -0.00035659 0)
(0.00485095 -0.000373864 0)
(0.00484115 -0.000391629 0)
(0.00483087 -0.000409877 0)
(0.00482009 -0.000428595 0)
(0.00480879 -0.000447764 0)
(0.00479698 -0.000467367 0)
(0.00478463 -0.000487377 0)
(0.00477173 -0.000507766 0)
(0.00475828 -0.000528502 0)
(0.00474425 -0.000549545 0)
(0.00472966 -0.000570851 0)
(0.00471449 -0.00059237 0)
(0.00469873 -0.000614048 0)
(0.00468239 -0.00063582 0)
(0.00466548 -0.000657621 0)
(0.00464799 -0.000679373 0)
(0.00462993 -0.000700997 0)
(0.00461132 -0.000722404 0)
(0.00459217 -0.000743503 0)
(0.0045725 -0.000764195 0)
(0.00455235 -0.000784377 0)
(0.00453174 -0.000803945 0)
(0.0045107 -0.000822792 0)
(0.00448927 -0.000840811 0)
(0.00446751 -0.000857895 0)
(0.00444545 -0.000873944 0)
(0.00442316 -0.00088886 0)
(0.00440068 -0.000902553 0)
(0.00437807 -0.000914943 0)
(0.00435538 -0.000925954 0)
(0.00433267 -0.000935506 0)
(0.00430999 -0.000943536 0)
(0.00428743 -0.000950037 0)
(0.00426509 -0.000955031 0)
(0.00424303 -0.00095854 0)
(0.00422134 -0.000960613 0)
(0.00420006 -0.000961312 0)
(0.00417923 -0.000960679 0)
(0.00415892 -0.000958768 0)
(0.00413917 -0.000955652 0)
(0.00412009 -0.000951376 0)
(0.00410173 -0.000946043 0)
(0.00408414 -0.000939801 0)
(0.00406733 -0.000932795 0)
(0.00405135 -0.000925166 0)
(0.00403624 -0.00091706 0)
(0.00402203 -0.000908633 0)
(0.00400876 -0.000900055 0)
(0.00399648 -0.000891512 0)
(0.00398523 -0.000883214 0)
(0.00397505 -0.000875401 0)
(0.003966 -0.000868354 0)
(0.00395805 -0.000862404 0)
(0.0039507 -0.000857982 0)
(0.00394398 -0.000855731 0)
(0.00499999 -1.19549e-06 0)
(0.00499986 -3.70616e-06 0)
(0.00499963 -6.32484e-06 0)
(0.00499931 -9.04497e-06 0)
(0.00499892 -1.18757e-05 0)
(0.00499845 -1.48297e-05 0)
(0.00499791 -1.79201e-05 0)
(0.0049973 -2.11594e-05 0)
(0.00499661 -2.45598e-05 0)
(0.00499584 -2.8133e-05 0)
(0.00499498 -3.18903e-05 0)
(0.00499404 -3.58429e-05 0)
(0.004993 -4.00017e-05 0)
(0.00499186 -4.43777e-05 0)
(0.00499061 -4.89818e-05 0)
(0.00498925 -5.38249e-05 0)
(0.00498778 -5.8918e-05 0)
(0.00498617 -6.42722e-05 0)
(0.00498444 -6.98986e-05 0)
(0.00498256 -7.58084e-05 0)
(0.00498053 -8.20129e-05 0)
(0.00497835 -8.85235e-05 0)
(0.004976 -9.53516e-05 0)
(0.00497348 -0.000102509 0)
(0.00497077 -0.000110006 0)
(0.00496787 -0.000117856 0)
(0.00496477 -0.000126069 0)
(0.00496145 -0.000134657 0)
(0.00495791 -0.000143632 0)
(0.00495414 -0.000153003 0)
(0.00495011 -0.000162783 0)
(0.00494583 -0.000172982 0)
(0.00494128 -0.00018361 0)
(0.00493645 -0.000194677 0)
(0.00493132 -0.000206193 0)
(0.00492588 -0.000218166 0)
(0.00492012 -0.000230604 0)
(0.00491403 -0.000243515 0)
(0.00490758 -0.000256906 0)
(0.00490078 -0.000270781 0)
(0.00489359 -0.000285144 0)
(0.00488601 -0.000299999 0)
(0.00487802 -0.000315347 0)
(0.00486961 -0.000331186 0)
(0.00486076 -0.000347516 0)
(0.00485147 -0.00036433 0)
(0.0048417 -0.000381622 0)
(0.00483145 -0.000399382 0)
(0.00482071 -0.000417598 0)
(0.00480947 -0.000436253 0)
(0.0047977 -0.000455327 0)
(0.00478539 -0.000474799 0)
(0.00477255 -0.000494639 0)
(0.00475914 -0.000514815 0)
(0.00474518 -0.000535291 0)
(0.00473065 -0.000556024 0)
(0.00471554 -0.000576967 0)
(0.00469985 -0.000598065 0)
(0.00468358 -0.00061926 0)
(0.00466674 -0.000640486 0)
(0.00464933 -0.000661671 0)
(0.00463135 -0.000682738 0)
(0.00461283 -0.000703603 0)
(0.00459377 -0.000724177 0)
(0.00457419 -0.000744368 0)
(0.00455413 -0.000764077 0)
(0.00453361 -0.000783204 0)
(0.00451266 -0.000801647 0)
(0.00449133 -0.000819302 0)
(0.00446966 -0.00083607 0)
(0.00444769 -0.00085185 0)
(0.00442547 -0.00086655 0)
(0.00440307 -0.000880081 0)
(0.00438052 -0.000892362 0)
(0.0043579 -0.000903317 0)
(0.00433525 -0.000912875 0)
(0.00431265 -0.000920986 0)
(0.0042902 -0.000927642 0)
(0.00426795 -0.000932865 0)
(0.00424599 -0.000936677 0)
(0.00422437 -0.000939123 0)
(0.00420315 -0.000940253 0)
(0.00418237 -0.000940113 0)
(0.00416208 -0.000938756 0)
(0.00414234 -0.000936247 0)
(0.00412322 -0.000932643 0)
(0.00410477 -0.000928039 0)
(0.00408706 -0.000922565 0)
(0.00407011 -0.000916359 0)
(0.00405397 -0.000909564 0)
(0.00403867 -0.000902328 0)
(0.00402424 -0.000894809 0)
(0.00401071 -0.000887175 0)
(0.00399812 -0.00087961 0)
(0.00398649 -0.000872321 0)
(0.00397583 -0.000865536 0)
(0.00396618 -0.000859516 0)
(0.00395743 -0.000854547 0)
(0.00394894 -0.000850975 0)
(0.00394083 -0.000849246 0)
(0.00499999 -1.13465e-06 0)
(0.00499988 -3.53591e-06 0)
(0.00499967 -6.06015e-06 0)
(0.00499937 -8.69744e-06 0)
(0.00499899 -1.1452e-05 0)
(0.00499853 -1.43325e-05 0)
(0.004998 -1.73493e-05 0)
(0.00499739 -2.05133e-05 0)
(0.00499671 -2.38353e-05 0)
(0.00499594 -2.73263e-05 0)
(0.00499509 -3.0997e-05 0)
(0.00499415 -3.4858e-05 0)
(0.00499311 -3.89199e-05 0)
(0.00499197 -4.31933e-05 0)
(0.00499073 -4.76888e-05 0)
(0.00498937 -5.24169e-05 0)
(0.0049879 -5.73883e-05 0)
(0.0049863 -6.26138e-05 0)
(0.00498457 -6.81042e-05 0)
(0.00498269 -7.38703e-05 0)
(0.00498067 -7.99231e-05 0)
(0.0049785 -8.62738e-05 0)
(0.00497615 -9.29333e-05 0)
(0.00497364 -9.99128e-05 0)
(0.00497094 -0.000107224 0)
(0.00496805 -0.000114877 0)
(0.00496495 -0.000122883 0)
(0.00496165 -0.000131254 0)
(0.00495812 -0.000140001 0)
(0.00495436 -0.000149133 0)
(0.00495035 -0.000158663 0)
(0.00494608 -0.000168599 0)
(0.00494155 -0.000178953 0)
(0.00493673 -0.000189733 0)
(0.00493162 -0.000200949 0)
(0.0049262 -0.000212609 0)
(0.00492046 -0.000224722 0)
(0.00491439 -0.000237293 0)
(0.00490797 -0.000250329 0)
(0.00490119 -0.000263836 0)
(0.00489403 -0.000277817 0)
(0.00488648 -0.000292275 0)
(0.00487853 -0.000307211 0)
(0.00487016 -0.000322625 0)
(0.00486135 -0.000338513 0)
(0.00485209 -0.000354872 0)
(0.00484237 -0.000371694 0)
(0.00483217 -0.000388971 0)
(0.00482148 -0.000406689 0)
(0.00481028 -0.000424834 0)
(0.00479857 -0.000443386 0)
(0.00478632 -0.000462323 0)
(0.00477354 -0.000481619 0)
(0.00476021 -0.000501241 0)
(0.00474632 -0.000521156 0)
(0.00473186 -0.000541322 0)
(0.00471683 -0.000561693 0)
(0.00470123 -0.000582218 0)
(0.00468505 -0.000602841 0)
(0.0046683 -0.000623498 0)
(0.00465099 -0.000644121 0)
(0.00463311 -0.000664636 0)
(0.00461469 -0.000684964 0)
(0.00459574 -0.00070502 0)
(0.00457629 -0.000724713 0)
(0.00455634 -0.000743952 0)
(0.00453594 -0.000762641 0)
(0.00451511 -0.00078068 0)
(0.0044939 -0.000797973 0)
(0.00447235 -0.000814421 0)
(0.00445049 -0.000829931 0)
(0.00442839 -0.00084441 0)
(0.00440609 -0.000857774 0)
(0.00438365 -0.000869944 0)
(0.00436113 -0.000880847 0)
(0.00433859 -0.000890423 0)
(0.0043161 -0.00089863 0)
(0.00429375 -0.000905457 0)
(0.0042716 -0.000910915 0)
(0.00424972 -0.000915027 0)
(0.00422816 -0.00091783 0)
(0.00420698 -0.000919369 0)
(0.00418623 -0.00091969 0)
(0.00416595 -0.000918848 0)
(0.00414619 -0.000916905 0)
(0.00412703 -0.000913927 0)
(0.0041085 -0.000910008 0)
(0.00409067 -0.000905265 0)
(0.00407357 -0.000899827 0)
(0.00405724 -0.000893834 0)
(0.00404172 -0.000887431 0)
(0.00402703 -0.000880773 0)
(0.00401319 -0.000874026 0)
(0.00400022 -0.000867369 0)
(0.00398813 -0.000860995 0)
(0.00397693 -0.000855116 0)
(0.0039666 -0.000849965 0)
(0.00395702 -0.000845787 0)
(0.00394743 -0.000842884 0)
(0.00393803 -0.000841672 0)
(0.005 -1.08149e-06 0)
(0.0049999 -3.38154e-06 0)
(0.00499971 -5.81267e-06 0)
(0.00499942 -8.36481e-06 0)
(0.00499906 -1.10397e-05 0)
(0.00499861 -1.38433e-05 0)
(0.00499809 -1.67837e-05 0)
(0.00499749 -1.987e-05 0)
(0.00499681 -2.31119e-05 0)
(0.00499605 -2.65193e-05 0)
(0.0049952 -3.01023e-05 0)
(0.00499427 -3.38709e-05 0)
(0.00499323 -3.78353e-05 0)
(0.0049921 -4.20055e-05 0)
(0.00499086 -4.63919e-05 0)
(0.00498951 -5.10046e-05 0)
(0.00498804 -5.58539e-05 0)
(0.00498644 -6.09504e-05 0)
(0.00498472 -6.63045e-05 0)
(0.00498285 -7.19266e-05 0)
(0.00498083 -7.78276e-05 0)
(0.00497866 -8.4018e-05 0)
(0.00497633 -9.05087e-05 0)
(0.00497382 -9.73104e-05 0)
(0.00497113 -0.000104434 0)
(0.00496825 -0.00011189 0)
(0.00496517 -0.00011969 0)
(0.00496187 -0.000127844 0)
(0.00495836 -0.000136362 0)
(0.00495461 -0.000145256 0)
(0.00495061 -0.000154535 0)
(0.00494637 -0.000164209 0)
(0.00494185 -0.000174288 0)
(0.00493705 -0.000184781 0)
(0.00493196 -0.000195698 0)
(0.00492657 -0.000207045 0)
(0.00492086 -0.000218831 0)
(0.00491481 -0.000231062 0)
(0.00490842 -0.000243745 0)
(0.00490167 -0.000256884 0)
(0.00489455 -0.000270483 0)
(0.00488703 -0.000284544 0)
(0.00487912 -0.000299069 0)
(0.00487079 -0.000314056 0)
(0.00486202 -0.000329504 0)
(0.00485281 -0.000345408 0)
(0.00484314 -0.000361762 0)
(0.004833 -0.000378555 0)
(0.00482237 -0.000395777 0)
(0.00481123 -0.000413413 0)
(0.00479958 -0.000431444 0)
(0.00478741 -0.000449848 0)
(0.0047747 -0.0004686 0)
(0.00476145 -0.000487671 0)
(0.00474764 -0.000507026 0)
(0.00473327 -0.000526626 0)
(0.00471834 -0.000546427 0)
(0.00470284 -0.000566381 0)
(0.00468677 -0.000586433 0)
(0.00467013 -0.000606524 0)
(0.00465293 -0.000626587 0)
(0.00463518 -0.000646553 0)
(0.00461689 -0.000666345 0)
(0.00459807 -0.000685883 0)
(0.00457874 -0.000705081 0)
(0.00455894 -0.00072385 0)
(0.00453868 -0.000742099 0)
(0.00451799 -0.000759734 0)
(0.00449692 -0.000776662 0)
(0.00447551 -0.000792789 0)
(0.0044538 -0.000808023 0)
(0.00443183 -0.000822278 0)
(0.00440967 -0.000835472 0)
(0.00438736 -0.000847528 0)
(0.00436496 -0.000858381 0)
(0.00434255 -0.000867976 0)
(0.00432019 -0.000876275 0)
(0.00429795 -0.000883265 0)
(0.00427589 -0.000888951 0)
(0.00425409 -0.000893351 0)
(0.00423259 -0.000896496 0)
(0.00421145 -0.000898426 0)
(0.00419071 -0.000899188 0)
(0.00417043 -0.000898836 0)
(0.00415065 -0.000897433 0)
(0.00413143 -0.000895052 0)
(0.00411281 -0.000891784 0)
(0.00409486 -0.000887737 0)
(0.00407759 -0.000883033 0)
(0.00406106 -0.000877807 0)
(0.00404529 -0.000872198 0)
(0.0040303 -0.000866358 0)
(0.00401611 -0.000860444 0)
(0.00400273 -0.000854626 0)
(0.00399014 -0.000849086 0)
(0.00397835 -0.000844014 0)
(0.00396733 -0.000839611 0)
(0.00395693 -0.000836083 0)
(0.00394636 -0.000833661 0)
(0.00393565 -0.000832879 0)
(0.005 -1.03421e-06 0)
(0.00499991 -3.24041e-06 0)
(0.00499973 -5.58148e-06 0)
(0.00499946 -8.04846e-06 0)
(0.00499911 -1.06421e-05 0)
(0.00499868 -1.33666e-05 0)
(0.00499817 -1.62283e-05 0)
(0.00499758 -1.92351e-05 0)
(0.00499691 -2.23953e-05 0)
(0.00499616 -2.5718e-05 0)
(0.00499532 -2.92124e-05 0)
(0.00499439 -3.2888e-05 0)
(0.00499336 -3.67544e-05 0)
(0.00499223 -4.08213e-05 0)
(0.004991 -4.50985e-05 0)
(0.00498965 -4.95959e-05 0)
(0.00498819 -5.43234e-05 0)
(0.0049866 -5.92911e-05 0)
(0.00498488 -6.45092e-05 0)
(0.00498302 -6.99879e-05 0)
(0.00498101 -7.57375e-05 0)
(0.00497885 -8.17683e-05 0)
(0.00497652 -8.80908e-05 0)
(0.00497402 -9.47154e-05 0)
(0.00497134 -0.000101653 0)
(0.00496847 -0.000108913 0)
(0.0049654 -0.000116507 0)
(0.00496212 -0.000124444 0)
(0.00495862 -0.000132736 0)
(0.00495489 -0.000141391 0)
(0.00495091 -0.000150421 0)
(0.00494668 -0.000159834 0)
(0.00494219 -0.00016964 0)
(0.00493742 -0.000179848 0)
(0.00493235 -0.000190466 0)
(0.00492698 -0.000201503 0)
(0.0049213 -0.000212964 0)
(0.00491528 -0.000224858 0)
(0.00490893 -0.000237188 0)
(0.00490221 -0.000249962 0)
(0.00489513 -0.00026318 0)
(0.00488766 -0.000276847 0)
(0.00487978 -0.000290964 0)
(0.0048715 -0.000305528 0)
(0.00486279 -0.000320539 0)
(0.00485363 -0.000335991 0)
(0.00484402 -0.000351879 0)
(0.00483394 -0.000368194 0)
(0.00482337 -0.000384923 0)
(0.00481231 -0.000402053 0)
(0.00480074 -0.000419567 0)
(0.00478864 -0.000437443 0)
(0.00477602 -0.000455656 0)
(0.00476286 -0.000474179 0)
(0.00474915 -0.000492979 0)
(0.00473488 -0.000512019 0)
(0.00472005 -0.000531256 0)
(0.00470466 -0.000550645 0)
(0.00468871 -0.000570132 0)
(0.0046722 -0.000589661 0)
(0.00465513 -0.00060917 0)
(0.00463752 -0.000628591 0)
(0.00461937 -0.000647852 0)
(0.0046007 -0.000666876 0)
(0.00458152 -0.000685581 0)
(0.00456187 -0.000703884 0)
(0.00454177 -0.000721696 0)
(0.00452125 -0.000738928 0)
(0.00450034 -0.00075549 0)
(0.00447909 -0.000771294 0)
(0.00445753 -0.000786252 0)
(0.00443573 -0.00080028 0)
(0.00441372 -0.0008133 0)
(0.00439156 -0.00082524 0)
(0.00436931 -0.000836039 0)
(0.00434704 -0.000845646 0)
(0.00432481 -0.000854026 0)
(0.00430268 -0.000861164 0)
(0.00428073 -0.000867059 0)
(0.004259 -0.000871727 0)
(0.00423756 -0.000875193 0)
(0.00421645 -0.000877494 0)
(0.00419573 -0.000878675 0)
(0.00417544 -0.000878791 0)
(0.00415563 -0.000877904 0)
(0.00413634 -0.00087609 0)
(0.00411763 -0.000873436 0)
(0.00409954 -0.000870046 0)
(0.0040821 -0.000866037 0)
(0.00406535 -0.000861533 0)
(0.00404931 -0.000856671 0)
(0.004034 -0.000851593 0)
(0.00401943 -0.000846451 0)
(0.0040056 -0.000841402 0)
(0.0039925 -0.000836613 0)
(0.0039801 -0.000832256 0)
(0.00396839 -0.000828502 0)
(0.00395719 -0.000825521 0)
(0.00394574 -0.000823492 0)
(0.00393381 -0.000822945 0)
(0.005 -9.91313e-07 0)
(0.00499991 -3.11003e-06 0)
(0.00499975 -5.36461e-06 0)
(0.0049995 -7.74761e-06 0)
(0.00499916 -1.02595e-05 0)
(0.00499875 -1.29037e-05 0)
(0.00499825 -1.56853e-05 0)
(0.00499767 -1.8611e-05 0)
(0.00499701 -2.16882e-05 0)
(0.00499627 -2.49251e-05 0)
(0.00499544 -2.83301e-05 0)
(0.00499451 -3.19121e-05 0)
(0.00499349 -3.56801e-05 0)
(0.00499237 -3.96435e-05 0)
(0.00499115 -4.38116e-05 0)
(0.00498981 -4.81938e-05 0)
(0.00498835 -5.27997e-05 0)
(0.00498677 -5.76391e-05 0)
(0.00498505 -6.27217e-05 0)
(0.0049832 -6.80574e-05 0)
(0.0049812 -7.36563e-05 0)
(0.00497905 -7.95282e-05 0)
(0.00497673 -8.56833e-05 0)
(0.00497424 -9.21318e-05 0)
(0.00497158 -9.88836e-05 0)
(0.00496872 -0.000105949 0)
(0.00496566 -0.000113338 0)
(0.0049624 -0.000121061 0)
(0.00495891 -0.000129127 0)
(0.0049552 -0.000137546 0)
(0.00495124 -0.000146328 0)
(0.00494704 -0.000155482 0)
(0.00494256 -0.000165017 0)
(0.00493781 -0.000174941 0)
(0.00493278 -0.000185263 0)
(0.00492744 -0.000195991 0)
(0.00492179 -0.00020713 0)
(0.00491581 -0.000218688 0)
(0.00490949 -0.00023067 0)
(0.00490281 -0.00024308 0)
(0.00489577 -0.000255922 0)
(0.00488834 -0.000269198 0)
(0.00488052 -0.000282909 0)
(0.00487229 -0.000297055 0)
(0.00486363 -0.000311632 0)
(0.00485453 -0.000326637 0)
(0.00484499 -0.000342063 0)
(0.00483497 -0.000357903 0)
(0.00482448 -0.000374144 0)
(0.0048135 -0.000390774 0)
(0.00480201 -0.000407775 0)
(0.00479 -0.000425128 0)
(0.00477748 -0.000442809 0)
(0.00476441 -0.000460791 0)
(0.00475081 -0.000479042 0)
(0.00473665 -0.000497527 0)
(0.00472194 -0.000516206 0)
(0.00470668 -0.000535035 0)
(0.00469086 -0.000553964 0)
(0.00467449 -0.000572938 0)
(0.00465756 -0.000591898 0)
(0.0046401 -0.000610781 0)
(0.0046221 -0.000629516 0)
(0.00460359 -0.000648031 0)
(0.00458459 -0.000666249 0)
(0.0045651 -0.000684088 0)
(0.00454517 -0.000701466 0)
(0.00452483 -0.000718296 0)
(0.0045041 -0.000734494 0)
(0.00448302 -0.000749975 0)
(0.00446164 -0.000764654 0)
(0.00444001 -0.000778453 0)
(0.00441817 -0.000791296 0)
(0.00439617 -0.000803116 0)
(0.00437409 -0.000813854 0)
(0.00435197 -0.000823463 0)
(0.00432987 -0.00083191 0)
(0.00430787 -0.000839177 0)
(0.00428601 -0.000845262 0)
(0.00426437 -0.000850176 0)
(0.00424298 -0.00085394 0)
(0.00422191 -0.000856589 0)
(0.0042012 -0.000858167 0)
(0.00418089 -0.000858725 0)
(0.00416104 -0.000858328 0)
(0.00414168 -0.000857048 0)
(0.00412287 -0.000854973 0)
(0.00410463 -0.0008522 0)
(0.00408701 -0.000848839 0)
(0.00407002 -0.000845012 0)
(0.0040537 -0.000840845 0)
(0.00403806 -0.000836474 0)
(0.0040231 -0.00083204 0)
(0.00400881 -0.000827691 0)
(0.00399518 -0.000823578 0)
(0.00398218 -0.000819853 0)
(0.0039698 -0.000816666 0)
(0.00395784 -0.000814156 0)
(0.00394558 -0.000812468 0)
(0.00393255 -0.000812065 0)
(0.005 -9.51664e-07 0)
(0.00499992 -2.98824e-06 0)
(0.00499976 -5.15992e-06 0)
(0.00499952 -7.46072e-06 0)
(0.0049992 -9.89135e-06 0)
(0.0049988 -1.24547e-05 0)
(0.00499832 -1.51553e-05 0)
(0.00499775 -1.79988e-05 0)
(0.00499711 -2.09919e-05 0)
(0.00499637 -2.4142e-05 0)
(0.00499555 -2.74567e-05 0)
(0.00499464 -3.09446e-05 0)
(0.00499363 -3.46139e-05 0)
(0.00499251 -3.84735e-05 0)
(0.00499129 -4.25323e-05 0)
(0.00498996 -4.67993e-05 0)
(0.00498851 -5.12838e-05 0)
(0.00498694 -5.59952e-05 0)
(0.00498524 -6.09427e-05 0)
(0.00498339 -6.61361e-05 0)
(0.0049814 -7.15849e-05 0)
(0.00497926 -7.72987e-05 0)
(0.00497696 -8.32873e-05 0)
(0.00497448 -8.95605e-05 0)
(0.00497183 -9.61281e-05 0)
(0.00496898 -0.000103 0)
(0.00496594 -0.000110185 0)
(0.0049627 -0.000117694 0)
(0.00495923 -0.000125536 0)
(0.00495554 -0.000133721 0)
(0.0049516 -0.000142257 0)
(0.00494742 -0.000151153 0)
(0.00494297 -0.000160419 0)
(0.00493825 -0.000170062 0)
(0.00493324 -0.00018009 0)
(0.00492793 -0.000190511 0)
(0.00492231 -0.000201331 0)
(0.00491637 -0.000212557 0)
(0.00491009 -0.000224192 0)
(0.00490346 -0.000236243 0)
(0.00489646 -0.000248711 0)
(0.00488909 -0.000261599 0)
(0.00488132 -0.000274909 0)
(0.00487314 -0.000288638 0)
(0.00486455 -0.000302786 0)
(0.00485551 -0.000317348 0)
(0.00484604 -0.000332317 0)
(0.0048361 -0.000347687 0)
(0.00482568 -0.000363446 0)
(0.00481479 -0.00037958 0)
(0.00480339 -0.000396075 0)
(0.00479148 -0.00041291 0)
(0.00477905 -0.000430064 0)
(0.0047661 -0.00044751 0)
(0.00475261 -0.000465219 0)
(0.00473857 -0.000483157 0)
(0.00472399 -0.000501284 0)
(0.00470887 -0.00051956 0)
(0.00469319 -0.000537937 0)
(0.00467696 -0.000556363 0)
(0.00466019 -0.000574781 0)
(0.00464289 -0.00059313 0)
(0.00462506 -0.000611346 0)
(0.00460672 -0.000629358 0)
(0.00458789 -0.000647092 0)
(0.00456859 -0.000664471 0)
(0.00454885 -0.000681417 0)
(0.00452869 -0.000697849 0)
(0.00450814 -0.000713683 0)
(0.00448726 -0.00072884 0)
(0.00446606 -0.000743239 0)
(0.00444461 -0.000756805 0)
(0.00442296 -0.000769467 0)
(0.00440114 -0.00078116 0)
(0.00437922 -0.000791829 0)
(0.00435725 -0.000801429 0)
(0.0043353 -0.000809927 0)
(0.00431342 -0.000817306 0)
(0.00429167 -0.00082356 0)
(0.00427011 -0.000828696 0)
(0.00424878 -0.000832736 0)
(0.00422775 -0.000835709 0)
(0.00420704 -0.000837657 0)
(0.00418672 -0.000838631 0)
(0.00416682 -0.000838693 0)
(0.00414739 -0.000837916 0)
(0.00412846 -0.000836381 0)
(0.00411007 -0.000834185 0)
(0.00409226 -0.00083143 0)
(0.00407503 -0.00082823 0)
(0.00405843 -0.000824707 0)
(0.00404244 -0.000820986 0)
(0.00402708 -0.000817201 0)
(0.00401233 -0.000813487 0)
(0.00399818 -0.000809982 0)
(0.0039846 -0.000806821 0)
(0.00397157 -0.000804134 0)
(0.00395889 -0.000802036 0)
(0.00394588 -0.000800646 0)
(0.00393184 -0.000800262 0)
(0.005 -9.14532e-07 0)
(0.00499992 -2.87344e-06 0)
(0.00499978 -4.96557e-06 0)
(0.00499955 -7.18625e-06 0)
(0.00499924 -9.53657e-06 0)
(0.00499885 -1.20193e-05 0)
(0.00499838 -1.46384e-05 0)
(0.00499783 -1.73991e-05 0)
(0.00499719 -2.03073e-05 0)
(0.00499647 -2.33698e-05 0)
(0.00499566 -2.65937e-05 0)
(0.00499476 -2.99867e-05 0)
(0.00499376 -3.35569e-05 0)
(0.00499265 -3.73124e-05 0)
(0.00499144 -4.12618e-05 0)
(0.00499012 -4.54138e-05 0)
(0.00498868 -4.97771e-05 0)
(0.00498712 -5.43606e-05 0)
(0.00498543 -5.91736e-05 0)
(0.00498359 -6.42251e-05 0)
(0.00498162 -6.95244e-05 0)
(0.00497948 -7.50808e-05 0)
(0.00497719 -8.09038e-05 0)
(0.00497473 -8.70028e-05 0)
(0.00497209 -9.33871e-05 0)
(0.00496927 -0.000100066 0)
(0.00496624 -0.00010705 0)
(0.00496301 -0.000114346 0)
(0.00495957 -0.000121966 0)
(0.00495589 -0.000129917 0)
(0.00495198 -0.000138209 0)
(0.00494782 -0.00014685 0)
(0.0049434 -0.000155848 0)
(0.00493871 -0.000165212 0)
(0.00493374 -0.000174949 0)
(0.00492846 -0.000185066 0)
(0.00492288 -0.000195569 0)
(0.00491698 -0.000206465 0)
(0.00491074 -0.000217757 0)
(0.00490415 -0.000229451 0)
(0.00489721 -0.000241549 0)
(0.00488988 -0.000254053 0)
(0.00488217 -0.000266965 0)
(0.00487406 -0.000280283 0)
(0.00486553 -0.000294006 0)
(0.00485657 -0.000308129 0)
(0.00484716 -0.000322646 0)
(0.0048373 -0.000337551 0)
(0.00482698 -0.000352832 0)
(0.00481617 -0.000368477 0)
(0.00480487 -0.000384471 0)
(0.00479306 -0.000400795 0)
(0.00478074 -0.000417428 0)
(0.0047679 -0.000434345 0)
(0.00475453 -0.000451518 0)
(0.00474063 -0.000468914 0)
(0.00472619 -0.000486498 0)
(0.0047112 -0.000504227 0)
(0.00469567 -0.000522059 0)
(0.0046796 -0.000539943 0)
(0.00466299 -0.000557826 0)
(0.00464586 -0.000575649 0)
(0.00462821 -0.00059335 0)
(0.00461005 -0.000610864 0)
(0.00459141 -0.000628119 0)
(0.0045723 -0.000645043 0)
(0.00455275 -0.00066156 0)
(0.00453278 -0.000677593 0)
(0.00451244 -0.000693065 0)
(0.00449175 -0.000707897 0)
(0.00447075 -0.000722014 0)
(0.00444949 -0.000735344 0)
(0.00442802 -0.000747819 0)
(0.00440639 -0.000759378 0)
(0.00438464 -0.000769968 0)
(0.00436283 -0.000779546 0)
(0.00434103 -0.00078808 0)
(0.00431928 -0.000795551 0)
(0.00429763 -0.000801952 0)
(0.00427616 -0.000807289 0)
(0.00425489 -0.000811579 0)
(0.00423389 -0.00081485 0)
(0.0042132 -0.000817142 0)
(0.00419286 -0.000818504 0)
(0.00417291 -0.000818996 0)
(0.0041534 -0.000818686 0)
(0.00413435 -0.000817656 0)
(0.00411581 -0.000815994 0)
(0.00409779 -0.000813801 0)
(0.00408033 -0.000811182 0)
(0.00406343 -0.000808252 0)
(0.0040471 -0.000805128 0)
(0.00403135 -0.000801935 0)
(0.00401615 -0.000798797 0)
(0.00400149 -0.000795839 0)
(0.00398734 -0.000793182 0)
(0.00397369 -0.000790942 0)
(0.00396034 -0.000789213 0)
(0.0039466 -0.000788087 0)
(0.0039317 -0.000787612 0)
(0.005 -8.79424e-07 0)
(0.00499993 -2.76443e-06 0)
(0.00499979 -4.78009e-06 0)
(0.00499957 -6.92283e-06 0)
(0.00499927 -9.19413e-06 0)
(0.00499889 -1.15968e-05 0)
(0.00499844 -1.41345e-05 0)
(0.0049979 -1.68121e-05 0)
(0.00499728 -1.9635e-05 0)
(0.00499657 -2.26093e-05 0)
(0.00499577 -2.57419e-05 0)
(0.00499488 -2.90397e-05 0)
(0.00499389 -3.25104e-05 0)
(0.00499279 -3.61617e-05 0)
(0.0049916 -4.00016e-05 0)
(0.00499028 -4.40385e-05 0)
(0.00498886 -4.82807e-05 0)
(0.0049873 -5.27368e-05 0)
(0.00498562 -5.74155e-05 0)
(0.0049838 -6.23257e-05 0)
(0.00498183 -6.74762e-05 0)
(0.00497972 -7.2876e-05 0)
(0.00497744 -7.85342e-05 0)
(0.00497499 -8.44599e-05 0)
(0.00497237 -9.06621e-05 0)
(0.00496956 -9.71499e-05 0)
(0.00496656 -0.000103932 0)
(0.00496335 -0.000111019 0)
(0.00495992 -0.000118417 0)
(0.00495627 -0.000126137 0)
(0.00495239 -0.000134186 0)
(0.00494825 -0.000142574 0)
(0.00494386 -0.000151307 0)
(0.0049392 -0.000160394 0)
(0.00493426 -0.000169842 0)
(0.00492902 -0.000179658 0)
(0.00492348 -0.000189847 0)
(0.00491762 -0.000200415 0)
(0.00491143 -0.000211368 0)
(0.00490489 -0.000222709 0)
(0.004898 -0.00023444 0)
(0.00489073 -0.000246564 0)
(0.00488308 -0.000259082 0)
(0.00487503 -0.000271993 0)
(0.00486657 -0.000285295 0)
(0.00485768 -0.000298984 0)
(0.00484836 -0.000313055 0)
(0.00483858 -0.0003275 0)
(0.00482834 -0.000342309 0)
(0.00481763 -0.00035747 0)
(0.00480643 -0.000372969 0)
(0.00479473 -0.000388788 0)
(0.00478253 -0.000404907 0)
(0.00476981 -0.000421302 0)
(0.00475657 -0.000437946 0)
(0.0047428 -0.000454808 0)
(0.0047285 -0.000471854 0)