/*--------------------------------*- C++ -*----------------------------------*\
  =========                 |
  \\      /  F ield         | OpenFOAM: The Open Source CFD Toolbox
   \\    /   O peration     | Website:  https://openfoam.org
    \\  /    A nd           | Version:  11
     \\/     M anipulation  |
\*---------------------------------------------------------------------------*/
FoamFile
{
    format      ascii;
    class       volScalarField;
    location    "200";
    object      k;
}
// * * * * * * * * * * * * * * * * * * * * * * * * * * * * * * * * * * * * * //

dimensions      [0 2 -2 0 0 0 0];

internalField   nonuniform List<scalar> 
10000
(
0.00093967
0.000835654
0.000745769
0.000667843
0.000600071
0.000540943
0.000489195
0.000443763
0.000403756
0.00036842
0.000337115
0.000309302
0.00028452
0.000262378
0.000242539
0.000224719
0.000208669
0.000194179
0.000181066
0.000169172
0.000158361
0.000148513
0.000139528
0.000131314
0.000123796
0.000116904
0.000110581
0.000104774
9.94403e-05
9.45393e-05
9.00374e-05
8.59044e-05
8.21143e-05
7.86437e-05
7.54717e-05
7.25797e-05
6.99505e-05
6.75681e-05
6.54175e-05
6.34841e-05
6.1754e-05
6.02135e-05
5.8849e-05
5.76472e-05
5.65951e-05
5.56799e-05
5.48892e-05
5.4211e-05
5.36345e-05
5.31493e-05
5.27456e-05
5.24143e-05
5.21467e-05
5.19348e-05
5.17714e-05
5.16499e-05
5.15642e-05
5.15094e-05
5.14807e-05
5.14743e-05
5.14858e-05
5.15131e-05
5.1553e-05
5.16028e-05
5.16604e-05
5.1724e-05
5.17918e-05
5.18624e-05
5.19346e-05
5.20072e-05
5.20794e-05
5.21503e-05
5.22194e-05
5.22861e-05
5.23499e-05
5.24104e-05
5.24676e-05
5.2521e-05
5.25706e-05
5.26164e-05
5.26582e-05
5.26961e-05
5.27302e-05
5.27604e-05
5.27871e-05
5.28102e-05
5.283e-05
5.28467e-05
5.28604e-05
5.28713e-05
5.28798e-05
5.2886e-05
5.28902e-05
5.28927e-05
5.28938e-05
5.28937e-05
5.28928e-05
5.28915e-05
5.289e-05
5.28887e-05
0.00093967
0.000835656
0.00074577
0.000667845
0.000600074
0.000540946
0.000489197
0.000443766
0.00040376
0.000368423
0.000337118
0.000309305
0.000284523
0.000262381
0.000242543
0.000224722
0.000208673
0.000194183
0.00018107
0.000169176
0.000158364
0.000148517
0.000139531
0.000131318
0.0001238
0.000116908
0.000110585
0.000104779
9.9445e-05
9.45442e-05
9.00424e-05
8.59096e-05
8.21196e-05
7.86491e-05
7.54773e-05
7.25854e-05
6.99562e-05
6.75738e-05
6.54231e-05
6.34897e-05
6.17595e-05
6.02188e-05
5.88541e-05
5.76522e-05
5.65999e-05
5.56846e-05
5.48939e-05
5.4216e-05
5.36397e-05
5.31545e-05
5.27508e-05
5.24191e-05
5.2151e-05
5.19386e-05
5.17746e-05
5.16526e-05
5.15666e-05
5.15115e-05
5.14827e-05
5.14761e-05
5.14875e-05
5.15147e-05
5.15545e-05
5.16042e-05
5.16618e-05
5.17253e-05
5.17931e-05
5.18636e-05
5.19357e-05
5.20083e-05
5.20804e-05
5.21513e-05
5.22204e-05
5.2287e-05
5.23507e-05
5.24113e-05
5.24684e-05
5.25218e-05
5.25713e-05
5.2617e-05
5.26588e-05
5.26967e-05
5.27307e-05
5.2761e-05
5.27876e-05
5.28107e-05
5.28304e-05
5.28471e-05
5.28607e-05
5.28717e-05
5.28801e-05
5.28863e-05
5.28905e-05
5.2893e-05
5.2894e-05
5.2894e-05
5.28931e-05
5.28917e-05
5.28902e-05
5.28889e-05
0.000939671
0.000835657
0.000745773
0.000667849
0.000600078
0.000540951
0.000489203
0.000443772
0.000403765
0.000368429
0.000337124
0.000309311
0.000284529
0.000262387
0.000242549
0.000224728
0.000208679
0.000194189
0.000181076
0.000169182
0.000158371
0.000148523
0.000139538
0.000131325
0.000123806
0.000116915
0.000110592
0.000104786
9.94523e-05
9.45516e-05
9.00498e-05
8.59171e-05
8.21272e-05
7.86566e-05
7.54847e-05
7.25927e-05
6.99633e-05
6.75807e-05
6.54297e-05
6.3496e-05
6.17654e-05
6.02244e-05
5.88593e-05
5.7657e-05
5.66043e-05
5.56886e-05
5.48976e-05
5.42195e-05
5.3643e-05
5.31577e-05
5.27536e-05
5.24216e-05
5.21532e-05
5.19403e-05
5.17759e-05
5.16535e-05
5.15672e-05
5.15119e-05
5.1483e-05
5.14762e-05
5.14876e-05
5.15147e-05
5.15544e-05
5.16041e-05
5.16617e-05
5.17252e-05
5.17929e-05
5.18635e-05
5.19356e-05
5.20082e-05
5.20803e-05
5.21512e-05
5.22202e-05
5.22869e-05
5.23506e-05
5.24112e-05
5.24683e-05
5.25217e-05
5.25713e-05
5.2617e-05
5.26588e-05
5.26967e-05
5.27307e-05
5.2761e-05
5.27876e-05
5.28107e-05
5.28305e-05
5.28472e-05
5.28609e-05
5.28718e-05
5.28803e-05
5.28865e-05
5.28907e-05
5.28933e-05
5.28944e-05
5.28943e-05
5.28935e-05
5.28921e-05
5.28907e-05
5.28894e-05
0.000939671
0.000835659
0.000745776
0.000667854
0.000600084
0.000540957
0.00048921
0.000443779
0.000403773
0.000368437
0.000337133
0.00030932
0.000284538
0.000262396
0.000242558
0.000224737
0.000208688
0.000194198
0.000181085
0.000169191
0.00015838
0.000148533
0.000139547
0.000131334
0.000123816
0.000116925
0.000110602
0.000104796
9.94624e-05
9.45618e-05
9.00601e-05
8.59273e-05
8.21373e-05
7.86666e-05
7.54945e-05
7.26022e-05
6.99726e-05
6.75895e-05
6.54381e-05
6.35038e-05
6.17727e-05
6.0231e-05
5.88653e-05
5.76622e-05
5.66089e-05
5.56927e-05
5.49011e-05
5.42225e-05
5.36456e-05
5.31599e-05
5.27554e-05
5.2423e-05
5.2154e-05
5.19407e-05
5.17759e-05
5.16531e-05
5.15666e-05
5.15111e-05
5.14819e-05
5.14751e-05
5.14864e-05
5.15135e-05
5.15531e-05
5.16028e-05
5.16604e-05
5.17239e-05
5.17917e-05
5.18623e-05
5.19344e-05
5.2007e-05
5.20792e-05
5.21502e-05
5.22193e-05
5.22859e-05
5.23498e-05
5.24104e-05
5.24675e-05
5.2521e-05
5.25706e-05
5.26164e-05
5.26582e-05
5.26962e-05
5.27303e-05
5.27606e-05
5.27873e-05
5.28105e-05
5.28303e-05
5.2847e-05
5.28608e-05
5.28718e-05
5.28804e-05
5.28867e-05
5.2891e-05
5.28936e-05
5.28947e-05
5.28948e-05
5.2894e-05
5.28928e-05
5.28913e-05
5.28901e-05
0.000939672
0.000835661
0.00074578
0.000667859
0.00060009
0.000540965
0.000489218
0.000443788
0.000403783
0.000368447
0.000337143
0.00030933
0.000284549
0.000262407
0.000242569
0.000224748
0.000208699
0.000194209
0.000181097
0.000169203
0.000158392
0.000148545
0.00013956
0.000131347
0.000123829
0.000116938
0.000110615
0.000104809
9.94756e-05
9.4575e-05
9.00733e-05
8.59405e-05
8.21504e-05
7.86795e-05
7.55071e-05
7.26145e-05
6.99843e-05
6.76007e-05
6.54486e-05
6.35136e-05
6.17816e-05
6.0239e-05
5.88724e-05
5.76685e-05
5.66143e-05
5.56972e-05
5.49048e-05
5.42255e-05
5.3648e-05
5.31616e-05
5.27566e-05
5.24235e-05
5.21541e-05
5.19403e-05
5.1775e-05
5.16519e-05
5.15651e-05
5.15093e-05
5.148e-05
5.1473e-05
5.14842e-05
5.15113e-05
5.15509e-05
5.16006e-05
5.16582e-05
5.17218e-05
5.17896e-05
5.18602e-05
5.19324e-05
5.20051e-05
5.20774e-05
5.21484e-05
5.22176e-05
5.22844e-05
5.23483e-05
5.2409e-05
5.24662e-05
5.25198e-05
5.25695e-05
5.26154e-05
5.26573e-05
5.26953e-05
5.27295e-05
5.27599e-05
5.27867e-05
5.281e-05
5.28299e-05
5.28467e-05
5.28606e-05
5.28717e-05
5.28804e-05
5.28868e-05
5.28912e-05
5.2894e-05
5.28952e-05
5.28954e-05
5.28947e-05
5.28935e-05
5.28922e-05
5.28909e-05
0.000939672
0.000835663
0.000745783
0.000667864
0.000600097
0.000540973
0.000489227
0.000443798
0.000403793
0.000368458
0.000337155
0.000309343
0.000284561
0.00026242
0.000242582
0.000224762
0.000208713
0.000194223
0.000181111
0.000169217
0.000158406
0.000148559
0.000139575
0.000131362
0.000123844
0.000116953
0.000110631
0.000104825
9.94917e-05
9.45911e-05
9.00894e-05
8.59566e-05
8.21663e-05
7.86952e-05
7.55224e-05
7.26292e-05
6.99984e-05
6.76141e-05
6.54611e-05
6.35251e-05
6.17922e-05
6.02485e-05
5.88808e-05
5.76757e-05
5.66204e-05
5.57022e-05
5.49089e-05
5.42286e-05
5.36502e-05
5.3163e-05
5.27572e-05
5.24235e-05
5.21534e-05
5.19391e-05
5.17733e-05
5.16498e-05
5.15626e-05
5.15066e-05
5.14771e-05
5.147e-05
5.14811e-05
5.15081e-05
5.15477e-05
5.15975e-05
5.16551e-05
5.17187e-05
5.17866e-05
5.18573e-05
5.19296e-05
5.20024e-05
5.20748e-05
5.2146e-05
5.22153e-05
5.22821e-05
5.23462e-05
5.2407e-05
5.24643e-05
5.2518e-05
5.25679e-05
5.26138e-05
5.26559e-05
5.26941e-05
5.27284e-05
5.27589e-05
5.27858e-05
5.28092e-05
5.28293e-05
5.28463e-05
5.28603e-05
5.28716e-05
5.28804e-05
5.28869e-05
5.28915e-05
5.28944e-05
5.28958e-05
5.28961e-05
5.28955e-05
5.28944e-05
5.28931e-05
5.28918e-05
0.000939673
0.000835665
0.000745787
0.000667869
0.000600103
0.000540981
0.000489236
0.000443809
0.000403805
0.00036847
0.000337168
0.000309356
0.000284576
0.000262434
0.000242597
0.000224777
0.000208728
0.000194239
0.000181127
0.000169234
0.000158423
0.000148577
0.000139592
0.00013138
0.000123862
0.000116972
0.000110649
0.000104844
9.95105e-05
9.461e-05
9.01083e-05
8.59754e-05
8.21849e-05
7.87134e-05
7.55401e-05
7.26463e-05
7.00148e-05
6.76295e-05
6.54756e-05
6.35384e-05
6.18042e-05
6.02593e-05
5.88902e-05
5.76838e-05
5.66272e-05
5.57077e-05
5.49131e-05
5.42317e-05
5.36522e-05
5.31641e-05
5.27574e-05
5.24229e-05
5.21521e-05
5.19371e-05
5.17708e-05
5.16469e-05
5.15593e-05
5.1503e-05
5.14733e-05
5.14661e-05
5.14771e-05
5.1504e-05
5.15436e-05
5.15934e-05
5.16511e-05
5.17147e-05
5.17827e-05
5.18536e-05
5.1926e-05
5.19989e-05
5.20714e-05
5.21427e-05
5.22122e-05
5.22792e-05
5.23434e-05
5.24044e-05
5.24619e-05
5.25157e-05
5.25657e-05
5.26119e-05
5.26541e-05
5.26924e-05
5.27269e-05
5.27576e-05
5.27846e-05
5.28082e-05
5.28285e-05
5.28456e-05
5.28598e-05
5.28713e-05
5.28803e-05
5.2887e-05
5.28918e-05
5.28948e-05
5.28964e-05
5.28968e-05
5.28964e-05
5.28954e-05
5.28942e-05
5.28928e-05
0.000939673
0.000835667
0.00074579
0.000667874
0.00060011
0.000540989
0.000489246
0.00044382
0.000403817
0.000368483
0.000337182
0.000309371
0.000284591
0.00026245
0.000242613
0.000224794
0.000208746
0.000194257
0.000181145
0.000169252
0.000158442
0.000148596
0.000139612
0.0001314
0.000123883
0.000116992
0.00011067
0.000104865
9.95319e-05
9.46316e-05
9.01298e-05
8.59968e-05
8.2206e-05
7.87341e-05
7.55603e-05
7.26657e-05
7.00333e-05
6.7647e-05
6.54918e-05
6.35534e-05
6.18178e-05
6.02713e-05
5.89007e-05
5.76928e-05
5.66346e-05
5.57136e-05
5.49176e-05
5.42349e-05
5.36542e-05
5.31649e-05
5.27572e-05
5.24218e-05
5.21501e-05
5.19344e-05
5.17676e-05
5.16431e-05
5.15552e-05
5.14986e-05
5.14686e-05
5.14612e-05
5.14721e-05
5.1499e-05
5.15386e-05
5.15883e-05
5.16461e-05
5.17099e-05
5.1778e-05
5.18489e-05
5.19215e-05
5.19946e-05
5.20673e-05
5.21387e-05
5.22084e-05
5.22756e-05
5.23399e-05
5.24011e-05
5.24588e-05
5.25128e-05
5.2563e-05
5.26094e-05
5.26518e-05
5.26903e-05
5.2725e-05
5.27559e-05
5.27832e-05
5.2807e-05
5.28274e-05
5.28448e-05
5.28592e-05
5.28709e-05
5.28801e-05
5.2887e-05
5.2892e-05
5.28952e-05
5.2897e-05
5.28976e-05
5.28973e-05
5.28965e-05
5.28953e-05
5.2894e-05
0.000939674
0.000835668
0.000745793
0.000667878
0.000600116
0.000540996
0.000489255
0.00044383
0.000403829
0.000368497
0.000337196
0.000309386
0.000284607
0.000262467
0.000242631
0.000224812
0.000208764
0.000194276
0.000181165
0.000169272
0.000158463
0.000148617
0.000139633
0.000131422
0.000123905
0.000117015
0.000110694
0.000104889
9.95558e-05
9.46555e-05
9.01538e-05
8.60205e-05
8.22294e-05
7.87571e-05
7.55826e-05
7.26872e-05
7.00538e-05
6.76663e-05
6.55098e-05
6.35699e-05
6.18327e-05
6.02846e-05
5.89122e-05
5.77025e-05
5.66426e-05
5.572e-05
5.49224e-05
5.42381e-05
5.3656e-05
5.31655e-05
5.27566e-05
5.24202e-05
5.21476e-05
5.19311e-05
5.17636e-05
5.16386e-05
5.15502e-05
5.14932e-05
5.1463e-05
5.14554e-05
5.14662e-05
5.1493e-05
5.15326e-05
5.15824e-05
5.16402e-05
5.17041e-05
5.17723e-05
5.18434e-05
5.19162e-05
5.19895e-05
5.20623e-05
5.2134e-05
5.22038e-05
5.22712e-05
5.23358e-05
5.23972e-05
5.24551e-05
5.25094e-05
5.25598e-05
5.26064e-05
5.2649e-05
5.26878e-05
5.27227e-05
5.27538e-05
5.27814e-05
5.28054e-05
5.28261e-05
5.28437e-05
5.28584e-05
5.28703e-05
5.28798e-05
5.2887e-05
5.28922e-05
5.28956e-05
5.28976e-05
5.28984e-05
5.28983e-05
5.28976e-05
5.28964e-05
5.28951e-05
0.000939674
0.00083567
0.000745796
0.000667882
0.000600122
0.000541004
0.000489264
0.000443841
0.000403841
0.00036851
0.00033721
0.000309401
0.000284623
0.000262484
0.000242649
0.000224831
0.000208784
0.000194297
0.000181186
0.000169294
0.000158485
0.00014864
0.000139657
0.000131446
0.00012393
0.000117041
0.000110719
0.000104915
9.95819e-05
9.46817e-05
9.01799e-05
8.60465e-05
8.22551e-05
7.87822e-05
7.5607e-05
7.27107e-05
7.00761e-05
6.76874e-05
6.55294e-05
6.35878e-05
6.18488e-05
6.02989e-05
5.89246e-05
5.7713e-05
5.66512e-05
5.57267e-05
5.49274e-05
5.42415e-05
5.36578e-05
5.31659e-05
5.27557e-05
5.24181e-05
5.21446e-05
5.19272e-05
5.1759e-05
5.16333e-05
5.15444e-05
5.14871e-05
5.14566e-05
5.14487e-05
5.14594e-05
5.14861e-05
5.15257e-05
5.15756e-05
5.16335e-05
5.16975e-05
5.17658e-05
5.18371e-05
5.191e-05
5.19835e-05
5.20566e-05
5.21285e-05
5.21986e-05
5.22662e-05
5.23311e-05
5.23927e-05
5.24509e-05
5.25054e-05
5.25561e-05
5.26029e-05
5.26458e-05
5.26848e-05
5.272e-05
5.27514e-05
5.27792e-05
5.28036e-05
5.28246e-05
5.28424e-05
5.28574e-05
5.28696e-05
5.28793e-05
5.28868e-05
5.28923e-05
5.2896e-05
5.28982e-05
5.28992e-05
5.28993e-05
5.28986e-05
5.28976e-05
5.28963e-05
0.000939674
0.000835671
0.000745798
0.000667886
0.000600127
0.000541011
0.000489273
0.000443851
0.000403853
0.000368523
0.000337225
0.000309417
0.00028464
0.000262502
0.000242668
0.000224851
0.000208805
0.000194318
0.000181208
0.000169317
0.000158509
0.000148665
0.000139682
0.000131472
0.000123956
0.000117068
0.000110747
0.000104943
9.961e-05
9.47099e-05
9.02081e-05
8.60745e-05
8.22827e-05
7.88092e-05
7.56332e-05
7.27359e-05
7.01002e-05
6.771e-05
6.55503e-05
6.3607e-05
6.18661e-05
6.03142e-05
5.89379e-05
5.77242e-05
5.66604e-05
5.57339e-05
5.49326e-05
5.42448e-05
5.36595e-05
5.3166e-05
5.27545e-05
5.24157e-05
5.2141e-05
5.19227e-05
5.17537e-05
5.16273e-05
5.15379e-05
5.14801e-05
5.14493e-05
5.14412e-05
5.14517e-05
5.14784e-05
5.1518e-05
5.15679e-05
5.16259e-05
5.169e-05
5.17585e-05
5.183e-05
5.19031e-05
5.19768e-05
5.20501e-05
5.21223e-05
5.21926e-05
5.22606e-05
5.23257e-05
5.23876e-05
5.2446e-05
5.25008e-05
5.25518e-05
5.2599e-05
5.26422e-05
5.26815e-05
5.2717e-05
5.27487e-05
5.27768e-05
5.28014e-05
5.28227e-05
5.28409e-05
5.28562e-05
5.28687e-05
5.28787e-05
5.28865e-05
5.28922e-05
5.28962e-05
5.28987e-05
5.28999e-05
5.29002e-05
5.28997e-05
5.28987e-05
5.28975e-05
0.000939675
0.000835672
0.000745801
0.00066789
0.000600133
0.000541018
0.000489281
0.000443861
0.000403864
0.000368536
0.000337239
0.000309433
0.000284657
0.00026252
0.000242687
0.000224871
0.000208826
0.000194341
0.000181232
0.000169342
0.000158534
0.000148691
0.000139709
0.0001315
0.000123985
0.000117096
0.000110776
0.000104972
9.96399e-05
9.474e-05
9.02381e-05
8.61043e-05
8.23121e-05
7.8838e-05
7.56611e-05
7.27628e-05
7.01257e-05
6.7734e-05
6.55726e-05
6.36274e-05
6.18845e-05
6.03304e-05
5.89519e-05
5.7736e-05
5.667e-05
5.57413e-05
5.4938e-05
5.42483e-05
5.36612e-05
5.3166e-05
5.2753e-05
5.24128e-05
5.2137e-05
5.19177e-05
5.17478e-05
5.16207e-05
5.15307e-05
5.14725e-05
5.14413e-05
5.1433e-05
5.14433e-05
5.14699e-05
5.15094e-05
5.15594e-05
5.16175e-05
5.16817e-05
5.17504e-05
5.18221e-05
5.18954e-05
5.19694e-05
5.2043e-05
5.21154e-05
5.2186e-05
5.22542e-05
5.23196e-05
5.23819e-05
5.24406e-05
5.24958e-05
5.25471e-05
5.25945e-05
5.2638e-05
5.26777e-05
5.27135e-05
5.27456e-05
5.2774e-05
5.2799e-05
5.28206e-05
5.28392e-05
5.28547e-05
5.28676e-05
5.2878e-05
5.28861e-05
5.28921e-05
5.28964e-05
5.28991e-05
5.29006e-05
5.2901e-05
5.29007e-05
5.28998e-05
5.28986e-05
0.000939675
0.000835673
0.000745803
0.000667894
0.000600137
0.000541024
0.000489289
0.000443871
0.000403876
0.000368549
0.000337254
0.000309449
0.000284674
0.000262539
0.000242707
0.000224892
0.000208848
0.000194364
0.000181256
0.000169367
0.00015856
0.000148718
0.000139737
0.000131528
0.000124014
0.000117126
0.000110807
0.000105003
9.96713e-05
9.47715e-05
9.02697e-05
8.61357e-05
8.2343e-05
7.88682e-05
7.56905e-05
7.2791e-05
7.01525e-05
6.77592e-05
6.5596e-05
6.36488e-05
6.19038e-05
6.03474e-05
5.89666e-05
5.77483e-05
5.668e-05
5.57491e-05
5.49436e-05
5.42518e-05
5.36628e-05
5.31659e-05
5.27513e-05
5.24097e-05
5.21326e-05
5.19122e-05
5.17414e-05
5.16135e-05
5.15229e-05
5.14641e-05
5.14326e-05
5.1424e-05
5.14341e-05
5.14606e-05
5.15001e-05
5.15501e-05
5.16083e-05
5.16727e-05
5.17415e-05
5.18134e-05
5.1887e-05
5.19612e-05
5.20351e-05
5.21078e-05
5.21787e-05
5.22473e-05
5.2313e-05
5.23756e-05
5.24347e-05
5.24901e-05
5.25418e-05
5.25896e-05
5.26335e-05
5.26735e-05
5.27097e-05
5.27421e-05
5.27709e-05
5.27963e-05
5.28183e-05
5.28372e-05
5.28531e-05
5.28663e-05
5.2877e-05
5.28854e-05
5.28918e-05
5.28964e-05
5.28994e-05
5.29011e-05
5.29017e-05
5.29015e-05
5.29008e-05
5.28996e-05
0.000939675
0.000835674
0.000745805
0.000667897
0.000600142
0.000541031
0.000489297
0.00044388
0.000403887
0.000368562
0.000337268
0.000309464
0.000284692
0.000262557
0.000242727
0.000224913
0.000208871
0.000194387
0.000181281
0.000169393
0.000158587
0.000148746
0.000139766
0.000131558
0.000124045
0.000117158
0.000110839
0.000105036
9.97041e-05
9.48045e-05
9.03026e-05
8.61684e-05
8.23753e-05
7.88998e-05
7.57212e-05
7.28204e-05
7.01805e-05
6.77855e-05
6.56205e-05
6.36712e-05
6.19238e-05
6.03651e-05
5.89819e-05
5.77612e-05
5.66904e-05
5.57571e-05
5.49493e-05
5.42554e-05
5.36644e-05
5.31656e-05
5.27493e-05
5.24062e-05
5.21278e-05
5.19063e-05
5.17345e-05
5.16058e-05
5.15145e-05
5.14552e-05
5.14232e-05
5.14143e-05
5.14243e-05
5.14506e-05
5.14901e-05
5.15401e-05
5.15984e-05
5.16629e-05
5.1732e-05
5.18041e-05
5.18779e-05
5.19524e-05
5.20265e-05
5.20996e-05
5.21708e-05
5.22397e-05
5.23058e-05
5.23687e-05
5.24282e-05
5.2484e-05
5.25361e-05
5.25842e-05
5.26285e-05
5.26689e-05
5.27055e-05
5.27383e-05
5.27675e-05
5.27932e-05
5.28156e-05
5.28349e-05
5.28512e-05
5.28648e-05
5.28759e-05
5.28847e-05
5.28914e-05
5.28962e-05
5.28995e-05
5.29014e-05
5.29023e-05
5.29023e-05
5.29016e-05
5.29005e-05
0.000939676
0.000835675
0.000745807
0.0006679
0.000600147
0.000541036
0.000489305
0.000443889
0.000403897
0.000368574
0.000337282
0.00030948
0.000284709
0.000262576
0.000242747
0.000224935
0.000208893
0.000194411
0.000181306
0.000169419
0.000158615
0.000148774
0.000139796
0.000131589
0.000124076
0.00011719
0.000110872
0.000105069
9.97379e-05
9.48386e-05
9.03367e-05
8.62022e-05
8.24087e-05
7.89325e-05
7.57529e-05
7.28509e-05
7.02095e-05
6.78127e-05
6.56457e-05
6.36942e-05
6.19446e-05
6.03834e-05
5.89977e-05
5.77744e-05
5.67011e-05
5.57654e-05
5.49552e-05
5.42591e-05
5.36659e-05
5.31652e-05
5.27472e-05
5.24025e-05
5.21227e-05
5.19e-05
5.17271e-05
5.15976e-05
5.15056e-05
5.14457e-05
5.14133e-05
5.14041e-05
5.14138e-05
5.144e-05
5.14794e-05
5.15295e-05
5.15878e-05
5.16525e-05
5.17217e-05
5.17941e-05
5.18682e-05
5.19429e-05
5.20174e-05
5.20908e-05
5.21623e-05
5.22316e-05
5.2298e-05
5.23613e-05
5.24212e-05
5.24774e-05
5.25299e-05
5.25784e-05
5.26231e-05
5.26639e-05
5.27009e-05
5.27342e-05
5.27638e-05
5.27899e-05
5.28127e-05
5.28324e-05
5.28491e-05
5.28631e-05
5.28746e-05
5.28837e-05
5.28907e-05
5.28959e-05
5.28995e-05
5.29017e-05
5.29027e-05
5.29028e-05
5.29023e-05
5.29012e-05
0.000939676
0.000835676
0.000745809
0.000667903
0.000600151
0.000541042
0.000489312
0.000443898
0.000403907
0.000368586
0.000337295
0.000309495
0.000284725
0.000262594
0.000242766
0.000224956
0.000208916
0.000194435
0.000181331
0.000169446
0.000158643
0.000148804
0.000139826
0.00013162
0.000124108
0.000117223
0.000110905
0.000105104
9.97727e-05
9.48735e-05
9.03717e-05
8.6237e-05
8.2443e-05
7.89661e-05
7.57855e-05
7.28822e-05
7.02393e-05
6.78407e-05
6.56717e-05
6.3718e-05
6.19659e-05
6.04023e-05
5.90139e-05
5.7788e-05
5.67121e-05
5.57738e-05
5.49612e-05
5.42627e-05
5.36674e-05
5.31647e-05
5.27449e-05
5.23986e-05
5.21173e-05
5.18933e-05
5.17194e-05
5.1589e-05
5.14962e-05
5.14357e-05
5.14028e-05
5.13932e-05
5.14027e-05
5.14288e-05
5.14682e-05
5.15182e-05
5.15767e-05
5.16415e-05
5.17109e-05
5.17834e-05
5.18578e-05
5.19329e-05
5.20077e-05
5.20814e-05
5.21533e-05
5.22229e-05
5.22898e-05
5.23535e-05
5.24137e-05
5.24704e-05
5.25232e-05
5.25722e-05
5.26174e-05
5.26586e-05
5.2696e-05
5.27297e-05
5.27597e-05
5.27863e-05
5.28095e-05
5.28296e-05
5.28468e-05
5.28612e-05
5.2873e-05
5.28825e-05
5.28899e-05
5.28954e-05
5.28993e-05
5.29017e-05
5.2903e-05
5.29033e-05
5.29028e-05
5.29018e-05
0.000939676
0.000835677
0.00074581
0.000667905
0.000600155
0.000541047
0.000489318
0.000443906
0.000403917
0.000368597
0.000337308
0.00030951
0.000284742
0.000262612
0.000242786
0.000224977
0.000208939
0.000194459
0.000181357
0.000169473
0.000158671
0.000148833
0.000139856
0.000131652
0.000124141
0.000117257
0.00011094
0.000105139
9.98081e-05
9.49092e-05
9.04074e-05
8.62725e-05
8.2478e-05
7.90004e-05
7.58187e-05
7.29142e-05
7.02697e-05
6.78693e-05
6.56982e-05
6.37422e-05
6.19877e-05
6.04215e-05
5.90305e-05
5.78019e-05
5.67233e-05
5.57824e-05
5.49673e-05
5.42664e-05
5.36689e-05
5.31641e-05
5.27424e-05
5.23944e-05
5.21117e-05
5.18864e-05
5.17113e-05
5.15799e-05
5.14863e-05
5.14252e-05
5.13918e-05
5.13819e-05
5.13912e-05
5.1417e-05
5.14564e-05
5.15064e-05
5.15649e-05
5.16299e-05
5.16995e-05
5.17723e-05
5.18469e-05
5.19223e-05
5.19974e-05
5.20715e-05
5.21438e-05
5.22138e-05
5.2281e-05
5.23451e-05
5.24058e-05
5.24629e-05
5.25162e-05
5.25656e-05
5.26112e-05
5.26529e-05
5.26908e-05
5.27249e-05
5.27554e-05
5.27824e-05
5.28061e-05
5.28266e-05
5.28442e-05
5.2859e-05
5.28712e-05
5.28811e-05
5.28889e-05
5.28947e-05
5.28988e-05
5.29015e-05
5.2903e-05
5.29035e-05
5.29031e-05
5.29021e-05
0.000939676
0.000835678
0.000745812
0.000667908
0.000600158
0.000541052
0.000489325
0.000443914
0.000403927
0.000368608
0.000337321
0.000309524
0.000284758
0.00026263
0.000242805
0.000224998
0.000208961
0.000194484
0.000181382
0.0001695
0.000158699
0.000148863
0.000139887
0.000131684
0.000124174
0.000117291
0.000110975
0.000105174
9.98441e-05
9.49454e-05
9.04436e-05
8.63085e-05
8.25136e-05
7.90352e-05
7.58525e-05
7.29467e-05
7.03006e-05
6.78984e-05
6.57251e-05
6.37669e-05
6.20099e-05
6.0441e-05
5.90473e-05
5.7816e-05
5.67347e-05
5.57911e-05
5.49734e-05
5.42702e-05
5.36703e-05
5.31635e-05
5.27398e-05
5.23901e-05
5.21058e-05
5.18792e-05
5.17029e-05
5.15706e-05
5.14762e-05
5.14144e-05
5.13805e-05
5.13701e-05
5.13791e-05
5.14048e-05
5.14441e-05
5.14941e-05
5.15527e-05
5.16178e-05
5.16876e-05
5.17606e-05
5.18356e-05
5.19112e-05
5.19867e-05
5.20611e-05
5.21338e-05
5.22042e-05
5.22719e-05
5.23364e-05
5.23975e-05
5.2455e-05
5.25088e-05
5.25587e-05
5.26047e-05
5.26469e-05
5.26852e-05
5.27198e-05
5.27508e-05
5.27782e-05
5.28024e-05
5.28234e-05
5.28414e-05
5.28566e-05
5.28693e-05
5.28795e-05
5.28876e-05
5.28938e-05
5.28982e-05
5.29012e-05
5.29029e-05
5.29035e-05
5.29033e-05
5.29023e-05
0.000939677
0.000835679
0.000745813
0.000667911
0.000600162
0.000541057
0.000489331
0.000443922
0.000403936
0.000368619
0.000337334
0.000309538
0.000284774
0.000262647
0.000242825
0.000225019
0.000208984
0.000194507
0.000181408
0.000169527
0.000158728
0.000148892
0.000139918
0.000131716
0.000124207
0.000117325
0.00011101
0.00010521
9.98803e-05
9.49819e-05
9.04802e-05
8.63449e-05
8.25495e-05
7.90704e-05
7.58867e-05
7.29795e-05
7.03318e-05
6.79277e-05
6.57524e-05
6.37917e-05
6.20323e-05
6.04608e-05
5.90643e-05
5.78303e-05
5.67462e-05
5.58e-05
5.49796e-05
5.42739e-05
5.36717e-05
5.31627e-05
5.27371e-05
5.23856e-05
5.20998e-05
5.18717e-05
5.16943e-05
5.15609e-05
5.14657e-05
5.14032e-05
5.13688e-05
5.1358e-05
5.13667e-05
5.13922e-05
5.14314e-05
5.14814e-05
5.15401e-05
5.16053e-05
5.16753e-05
5.17485e-05
5.18237e-05
5.18997e-05
5.19755e-05
5.20503e-05
5.21234e-05
5.21942e-05
5.22623e-05
5.23273e-05
5.23888e-05
5.24468e-05
5.2501e-05
5.25514e-05
5.25979e-05
5.26405e-05
5.26793e-05
5.27144e-05
5.27459e-05
5.27738e-05
5.27984e-05
5.28199e-05
5.28383e-05
5.2854e-05
5.28671e-05
5.28777e-05
5.28862e-05
5.28927e-05
5.28974e-05
5.29006e-05
5.29025e-05
5.29033e-05
5.29032e-05
5.29023e-05
0.000939677
0.00083568
0.000745815
0.000667913
0.000600165
0.000541062
0.000489337
0.000443929
0.000403945
0.00036863
0.000337346
0.000309552
0.000284789
0.000262664
0.000242843
0.000225039
0.000209006
0.000194531
0.000181433
0.000169553
0.000158756
0.000148922
0.000139949
0.000131748
0.000124241
0.000117359
0.000111045
0.000105246
9.99166e-05
9.50185e-05
9.05169e-05
8.63814e-05
8.25855e-05
7.91057e-05
7.5921e-05
7.30125e-05
7.03632e-05
6.79572e-05
6.57798e-05
6.38168e-05
6.20548e-05
6.04806e-05
5.90815e-05
5.78446e-05
5.67578e-05
5.58088e-05
5.49859e-05
5.42776e-05
5.36731e-05
5.31619e-05
5.27343e-05
5.2381e-05
5.20935e-05
5.18641e-05
5.16855e-05
5.1551e-05
5.14549e-05
5.13918e-05
5.13567e-05
5.13456e-05
5.1354e-05
5.13793e-05
5.14183e-05
5.14684e-05
5.15271e-05
5.15924e-05
5.16626e-05
5.17361e-05
5.18115e-05
5.18878e-05
5.1964e-05
5.20392e-05
5.21126e-05
5.21839e-05
5.22524e-05
5.23178e-05
5.23798e-05
5.24383e-05
5.2493e-05
5.25438e-05
5.25908e-05
5.26339e-05
5.26732e-05
5.27088e-05
5.27407e-05
5.27691e-05
5.27942e-05
5.28162e-05
5.28351e-05
5.28512e-05
5.28646e-05
5.28757e-05
5.28845e-05
5.28914e-05
5.28964e-05
5.28999e-05
5.2902e-05
5.29029e-05
5.29029e-05
5.2902e-05
0.000939677
0.00083568
0.000745816
0.000667915
0.000600169
0.000541066
0.000489343
0.000443936
0.000403953
0.00036864
0.000337357
0.000309565
0.000284804
0.000262681
0.000242862
0.000225059
0.000209027
0.000194554
0.000181458
0.00016958
0.000158784
0.000148951
0.00013998
0.00013178
0.000124274
0.000117393
0.00011108
0.000105281
9.99529e-05
9.50551e-05
9.05536e-05
8.64179e-05
8.26216e-05
7.9141e-05
7.59553e-05
7.30455e-05
7.03946e-05
6.79868e-05
6.58072e-05
6.38419e-05
6.20774e-05
6.05006e-05
5.90986e-05
5.7859e-05
5.67694e-05
5.58177e-05
5.49921e-05
5.42813e-05
5.36744e-05
5.3161e-05
5.27314e-05
5.23763e-05
5.20872e-05
5.18564e-05
5.16765e-05
5.1541e-05
5.1444e-05
5.13801e-05
5.13445e-05
5.13329e-05
5.1341e-05
5.1366e-05
5.1405e-05
5.1455e-05
5.15138e-05
5.15792e-05
5.16496e-05
5.17233e-05
5.1799e-05
5.18756e-05
5.19521e-05
5.20277e-05
5.21016e-05
5.21732e-05
5.22422e-05
5.2308e-05
5.23705e-05
5.24294e-05
5.24846e-05
5.2536e-05
5.25834e-05
5.2627e-05
5.26668e-05
5.27029e-05
5.27353e-05
5.27643e-05
5.27898e-05
5.28122e-05
5.28316e-05
5.28481e-05
5.2862e-05
5.28735e-05
5.28827e-05
5.28899e-05
5.28952e-05
5.28989e-05
5.29012e-05
5.29024e-05
5.29024e-05
5.29016e-05
0.000939677
0.000835681
0.000745818
0.000667917
0.000600172
0.00054107
0.000489348
0.000443943
0.000403962
0.000368649
0.000337369
0.000309578
0.000284819
0.000262697
0.00024288
0.000225079
0.000209049
0.000194577
0.000181482
0.000169606
0.000158811
0.000148981
0.00014001
0.000131812
0.000124307
0.000117427
0.000111115
0.000105317
9.9989e-05
9.50915e-05
9.05901e-05
8.64543e-05
8.26575e-05
7.91762e-05
7.59895e-05
7.30784e-05
7.04259e-05
6.80162e-05
6.58346e-05
6.38669e-05
6.20999e-05
6.05204e-05
5.91158e-05
5.78734e-05
5.6781e-05
5.58265e-05
5.49983e-05
5.4285e-05
5.36757e-05
5.31601e-05
5.27284e-05
5.23715e-05
5.20808e-05
5.18485e-05
5.16674e-05
5.15308e-05
5.14329e-05
5.13683e-05
5.13321e-05
5.132e-05
5.13278e-05
5.13526e-05
5.13914e-05
5.14414e-05
5.15002e-05
5.15658e-05
5.16363e-05
5.17103e-05
5.17863e-05
5.18632e-05
5.194e-05
5.20159e-05
5.20902e-05
5.21623e-05
5.22317e-05
5.2298e-05
5.2361e-05
5.24204e-05
5.2476e-05
5.25279e-05
5.25758e-05
5.262e-05
5.26602e-05
5.26968e-05
5.27297e-05
5.27592e-05
5.27852e-05
5.28081e-05
5.28279e-05
5.28449e-05
5.28592e-05
5.28711e-05
5.28806e-05
5.28881e-05
5.28938e-05
5.28978e-05
5.29003e-05
5.29016e-05
5.29018e-05
5.2901e-05
0.000939677
0.000835682
0.000745819
0.000667919
0.000600175
0.000541074
0.000489353
0.00044395
0.00040397
0.000368659
0.00033738
0.000309591
0.000284833
0.000262713
0.000242897
0.000225098
0.00020907
0.0001946
0.000181506
0.000169632
0.000158839
0.000149009
0.000140041
0.000131843
0.000124339
0.000117461
0.000111149
0.000105352
0.000100025
9.51276e-05
9.06262e-05
8.64903e-05
8.26931e-05
7.92112e-05
7.60234e-05
7.31111e-05
7.0457e-05
6.80455e-05
6.58617e-05
6.38918e-05
6.21223e-05
6.05402e-05
5.91328e-05
5.78877e-05
5.67925e-05
5.58353e-05
5.50045e-05
5.42886e-05
5.3677e-05
5.31592e-05
5.27255e-05
5.23667e-05
5.20744e-05
5.18406e-05
5.16582e-05
5.15206e-05
5.14217e-05
5.13563e-05
5.13195e-05
5.1307e-05
5.13144e-05
5.1339e-05
5.13777e-05
5.14276e-05
5.14865e-05
5.15521e-05
5.16228e-05
5.1697e-05
5.17733e-05
5.18505e-05
5.19277e-05
5.2004e-05
5.20787e-05
5.21512e-05
5.2221e-05
5.22878e-05
5.23512e-05
5.24111e-05
5.24672e-05
5.25196e-05
5.2568e-05
5.26127e-05
5.26535e-05
5.26905e-05
5.2724e-05
5.27539e-05
5.27804e-05
5.28037e-05
5.2824e-05
5.28415e-05
5.28562e-05
5.28685e-05
5.28784e-05
5.28862e-05
5.28922e-05
5.28964e-05
5.28992e-05
5.29006e-05
5.29009e-05
5.29002e-05
0.000939677
0.000835682
0.00074582
0.000667921
0.000600177
0.000541078
0.000489358
0.000443956
0.000403977
0.000368668
0.00033739
0.000309603
0.000284847
0.000262729
0.000242914
0.000225117
0.00020909
0.000194622
0.00018153
0.000169657
0.000158865
0.000149037
0.00014007
0.000131874
0.000124371
0.000117494
0.000111183
0.000105387
0.00010006
9.51632e-05
9.0662e-05
8.65259e-05
8.27283e-05
7.92457e-05
7.6057e-05
7.31434e-05
7.04878e-05
6.80744e-05
6.58886e-05
6.39164e-05
6.21445e-05
6.05598e-05
5.91497e-05
5.79018e-05
5.68039e-05
5.5844e-05
5.50105e-05
5.42922e-05
5.36782e-05
5.31582e-05
5.27225e-05
5.23619e-05
5.20679e-05
5.18327e-05
5.1649e-05
5.15103e-05
5.14105e-05
5.13444e-05
5.13069e-05
5.12939e-05
5.1301e-05
5.13253e-05
5.13639e-05
5.14138e-05
5.14726e-05
5.15384e-05
5.16093e-05
5.16836e-05
5.17602e-05
5.18377e-05
5.19152e-05
5.19919e-05
5.2067e-05
5.21399e-05
5.22102e-05
5.22774e-05
5.23413e-05
5.24017e-05
5.24583e-05
5.25111e-05
5.25601e-05
5.26052e-05
5.26465e-05
5.26841e-05
5.2718e-05
5.27484e-05
5.27754e-05
5.27992e-05
5.282e-05
5.28379e-05
5.2853e-05
5.28657e-05
5.2876e-05
5.28842e-05
5.28904e-05
5.28949e-05
5.28979e-05
5.28995e-05
5.28999e-05
5.28992e-05
0.000939678
0.000835683
0.000745821
0.000667923
0.00060018
0.000541082
0.000489363
0.000443962
0.000403985
0.000368677
0.000337401
0.000309615
0.00028486
0.000262744
0.000242931
0.000225135
0.00020911
0.000194643
0.000181553
0.000169681
0.000158891
0.000149065
0.000140099
0.000131904
0.000124403
0.000117526
0.000111216
0.000105421
0.000100095
9.51983e-05
9.06971e-05
8.65609e-05
8.2763e-05
7.92797e-05
7.609e-05
7.31752e-05
7.05181e-05
6.8103e-05
6.59152e-05
6.39407e-05
6.21663e-05
6.05791e-05
5.91664e-05
5.79158e-05
5.68152e-05
5.58526e-05
5.50166e-05
5.42957e-05
5.36794e-05
5.31572e-05
5.27195e-05
5.2357e-05
5.20614e-05
5.18247e-05
5.16398e-05
5.15e-05
5.13993e-05
5.13324e-05
5.12943e-05
5.12808e-05
5.12876e-05
5.13116e-05
5.135e-05
5.13998e-05
5.14587e-05
5.15246e-05
5.15956e-05
5.16702e-05
5.1747e-05