/*--------------------------------*- C++ -*----------------------------------*\
  =========                 |
  \\      /  F ield         | OpenFOAM: The Open Source CFD Toolbox
   \\    /   O peration     | Website:  https://openfoam.org
    \\  /    A nd           | Version:  11
     \\/     M anipulation  |
\*---------------------------------------------------------------------------*/
FoamFile
{
    format      ascii;
    class       volScalarField;
    location    "200";
    object      omega;
}
// * * * * * * * * * * * * * * * * * * * * * * * * * * * * * * * * * * * * * //

dimensions      [0 0 -1 0 0 0 0];

internalField   nonuniform List<scalar> 
10000
(
0.961699
0.892201
0.829105
0.771746
0.719532
0.671939
0.628495
0.588785
0.552436
0.519116
0.488528
0.460408
0.434517
0.410644
0.388599
0.368211
0.349326
0.331806
0.315528
0.300379
0.286257
0.273072
0.260739
0.249184
0.238338
0.228139
0.218531
0.20946
0.200882
0.192753
0.185035
0.177696
0.170704
0.164035
0.157665
0.151577
0.145755
0.140188
0.134868
0.129789
0.124945
0.120335
0.115956
0.111806
0.107883
0.104185
0.100707
0.0974448
0.0943923
0.091543
0.0888893
0.0864225
0.0841336
0.0820127
0.0800501
0.0782358
0.0765601
0.0750137
0.0735875
0.072273
0.071062
0.0699468
0.0689203
0.0679755
0.0671063
0.0663067
0.0655714
0.0648952
0.0642735
0.0637021
0.0631769
0.0626943
0.0622509
0.0618436
0.0614696
0.0611261
0.0608109
0.0605215
0.0602561
0.0600126
0.0597894
0.0595849
0.0593975
0.0592261
0.0590692
0.058926
0.0587952
0.0586762
0.0585679
0.0584699
0.0583813
0.0583018
0.0582309
0.0581682
0.0581138
0.0580674
0.0580292
0.0579995
0.0579786
0.0579672
0.961699
0.892201
0.829106
0.771747
0.719534
0.67194
0.628497
0.588787
0.552438
0.519118
0.488531
0.46041
0.434519
0.410647
0.388601
0.368213
0.349328
0.331809
0.315531
0.300381
0.28626
0.273075
0.260742
0.249188
0.238342
0.228144
0.218535
0.209465
0.200887
0.192759
0.185042
0.177704
0.170713
0.164044
0.157675
0.151588
0.145767
0.140201
0.134882
0.129803
0.12496
0.12035
0.115971
0.111822
0.107899
0.104201
0.100723
0.0974611
0.0944087
0.0915593
0.0889052
0.0864379
0.0841481
0.0820263
0.0800628
0.0782475
0.076571
0.0750238
0.0735969
0.0722818
0.0710703
0.0699546
0.0689275
0.0679822
0.0671126
0.0663125
0.0655768
0.0649002
0.0642782
0.0637064
0.0631809
0.062698
0.0622543
0.0618468
0.0614725
0.0611289
0.0608134
0.0605239
0.0602582
0.0600146
0.0597912
0.0595865
0.0593991
0.0592275
0.0590705
0.0589271
0.0587963
0.0586771
0.0585688
0.0584707
0.058382
0.0583024
0.0582315
0.0581688
0.0581143
0.0580679
0.0580297
0.0579999
0.057979
0.0579676
0.961699
0.892202
0.829107
0.771749
0.719536
0.671943
0.6285
0.58879
0.552442
0.519122
0.488534
0.460414
0.434523
0.410651
0.388606
0.368217
0.349333
0.331813
0.315535
0.300386
0.286265
0.27308
0.260748
0.249194
0.238349
0.228151
0.218543
0.209473
0.200896
0.192769
0.185053
0.177716
0.170726
0.164059
0.157691
0.151605
0.145786
0.140222
0.134904
0.129826
0.124984
0.120375
0.115997
0.111848
0.107926
0.104227
0.10075
0.0974871
0.0944344
0.0915845
0.0889298
0.0864616
0.0841708
0.0820479
0.080083
0.0782666
0.0765889
0.0750405
0.0736126
0.0722965
0.0710839
0.0699673
0.0689393
0.0679932
0.0671228
0.066322
0.0655855
0.0649083
0.0642857
0.0637133
0.0631873
0.0627039
0.0622598
0.0618518
0.0614772
0.0611331
0.0608173
0.0605275
0.0602615
0.0600176
0.059794
0.0595891
0.0594014
0.0592296
0.0590725
0.0589289
0.0587979
0.0586786
0.0585702
0.0584719
0.0583832
0.0583035
0.0582325
0.0581698
0.0581152
0.0580688
0.0580305
0.0580008
0.0579799
0.0579684
0.961699
0.892203
0.829108
0.771751
0.719539
0.671946
0.628504
0.588795
0.552446
0.519127
0.488539
0.460419
0.434529
0.410657
0.388612
0.368224
0.349339
0.33182
0.315542
0.300393
0.286272
0.273088
0.260756
0.249202
0.238358
0.22816
0.218553
0.209485
0.200909
0.192783
0.185068
0.177732
0.170744
0.164079
0.157713
0.151629
0.145812
0.140249
0.134933
0.129857
0.125017
0.120409
0.116032
0.111884
0.107962
0.104264
0.100786
0.0975228
0.0944695
0.0916188
0.088963
0.0864936
0.0842015
0.0820771
0.0801107
0.0782927
0.0766134
0.0750636
0.0736342
0.0723166
0.0711027
0.0699848
0.0689556
0.0680084
0.0671368
0.0663351
0.0655976
0.0649195
0.064296
0.0637229
0.0631961
0.0627121
0.0622673
0.0618587
0.0614835
0.061139
0.0608227
0.0605324
0.060266
0.0600218
0.0597978
0.0595926
0.0594046
0.0592325
0.0590751
0.0589313
0.0588002
0.0586807
0.0585721
0.0584737
0.0583849
0.0583051
0.0582339
0.0581712
0.0581165
0.05807
0.0580318
0.058002
0.0579811
0.0579697
0.961699
0.892203
0.829109
0.771752
0.719541
0.671949
0.628508
0.588799
0.552451
0.519132
0.488545
0.460426
0.434536
0.410664
0.388619
0.368231
0.349347
0.331828
0.31555
0.300402
0.286282
0.273097
0.260766
0.249213
0.238369
0.228173
0.218567
0.2095
0.200925
0.1928
0.185088
0.177754
0.170768
0.164105
0.157741
0.15166
0.145845
0.140285
0.134971
0.129897
0.125058
0.120452
0.116076
0.111929
0.108007
0.104309
0.100831
0.0975674
0.0945133
0.0916616
0.0890045
0.0865336
0.0842398
0.0821135
0.0801453
0.0783254
0.0766442
0.0750925
0.0736613
0.072342
0.0711264
0.0700069
0.0689762
0.0680275
0.0671546
0.0663516
0.0656129
0.0649337
0.0643091
0.063735
0.0632073
0.0627223
0.0622767
0.0618674
0.0614915
0.0611463
0.0608294
0.0605386
0.0602717
0.060027
0.0598026
0.0595969
0.0594086
0.0592362
0.0590785
0.0589344
0.058803
0.0586833
0.0585745
0.0584759
0.058387
0.058307
0.0582358
0.0581729
0.0581183
0.0580717
0.0580334
0.0580036
0.0579827
0.0579712
0.961699
0.892203
0.82911
0.771754
0.719543
0.671952
0.628512
0.588804
0.552457
0.519138
0.488552
0.460433
0.434543
0.410672
0.388627
0.36824
0.349356
0.331837
0.31556
0.300412
0.286292
0.273109
0.260779
0.249226
0.238384
0.228188
0.218583
0.209518
0.200945
0.192822
0.185111
0.17778
0.170796
0.164136
0.157775
0.151696
0.145884
0.140327
0.135016
0.129944
0.125108
0.120503
0.116129
0.111982
0.108061
0.104363
0.100884
0.0976203
0.0945652
0.0917121
0.0890534
0.0865807
0.0842849
0.0821566
0.0801862
0.078364
0.0766807
0.0751268
0.0736935
0.0723722
0.0711546
0.0700332
0.0690007
0.0680503
0.0671758
0.0663712
0.0656311
0.0649505
0.0643247
0.0637494
0.0632205
0.0627346
0.062288
0.0618778
0.061501
0.0611551
0.0608375
0.0605459
0.0602785
0.0600332
0.0598082
0.0596021
0.0594133
0.0592405
0.0590825
0.0589381
0.0588064
0.0586864
0.0585774
0.0584786
0.0583895
0.0583094
0.0582381
0.0581751
0.0581204
0.0580738
0.0580354
0.0580056
0.0579846
0.0579731
0.961699
0.892203
0.82911
0.771755
0.719545
0.671955
0.628515
0.588808
0.552462
0.519144
0.488559
0.46044
0.434551
0.41068
0.388636
0.368249
0.349366
0.331848
0.315571
0.300424
0.286305
0.273122
0.260793
0.249241
0.2384
0.228206
0.218602
0.209538
0.200967
0.192847
0.185139
0.17781
0.170829
0.164171
0.157814
0.151738
0.145929
0.140375
0.135067
0.129998
0.125164
0.120561
0.116188
0.112043
0.108122
0.104424
0.100945
0.0976805
0.0946241
0.0917695
0.089109
0.0866343
0.0843362
0.0822055
0.0802327
0.0784081
0.0767222
0.0751659
0.0737302
0.0724065
0.0711868
0.0700632
0.0690287
0.0680763
0.0671999
0.0663936
0.0656519
0.0649697
0.0643425
0.0637658
0.0632357
0.0627486
0.0623009
0.0618897
0.061512
0.0611651
0.0608467
0.0605544
0.0602862
0.0600403
0.0598147
0.0596081
0.0594188
0.0592455
0.0590871
0.0589423
0.0588103
0.05869
0.0585808
0.0584818
0.0583924
0.0583122
0.0582407
0.0581776
0.0581228
0.0580761
0.0580377
0.0580079
0.0579869
0.0579753
0.961699
0.892203
0.829111
0.771756
0.719547
0.671957
0.628518
0.588812
0.552467
0.51915
0.488565
0.460447
0.434559
0.410689
0.388646
0.368259
0.349377
0.331859
0.315584
0.300437
0.286319
0.273137
0.260808
0.249258
0.238418
0.228225
0.218624
0.209562
0.200993
0.192875
0.185169
0.177843
0.170866
0.164211
0.157857
0.151785
0.14598
0.140429
0.135124
0.130058
0.125227
0.120626
0.116255
0.11211
0.10819
0.104492
0.101013
0.0977471
0.0946894
0.0918331
0.0891706
0.0866935
0.084393
0.0822597
0.0802842
0.0784568
0.0767683
0.0752093
0.073771
0.0724447
0.0712225
0.0700966
0.0690598
0.0681053
0.0672269
0.0664186
0.0656751
0.0649912
0.0643623
0.0637841
0.0632527
0.0627642
0.0623153
0.0619029
0.0615241
0.0611763
0.0608569
0.0605638
0.0602949
0.0600482
0.059822
0.0596147
0.0594249
0.0592511
0.0590922
0.0589471
0.0588147
0.0586941
0.0585845
0.0584853
0.0583957
0.0583153
0.0582437
0.0581805
0.0581255
0.0580788
0.0580403
0.0580104
0.0579894
0.0579778
0.961699
0.892203
0.829111
0.771756
0.719548
0.671959
0.628521
0.588816
0.552472
0.519156
0.488572
0.460455
0.434567
0.410698
0.388655
0.36827
0.349388
0.331872
0.315597
0.300451
0.286333
0.273153
0.260825
0.249277
0.238438
0.228247
0.218647
0.209588
0.201021
0.192906
0.185203
0.17788
0.170906
0.164255
0.157905
0.151837
0.146035
0.140488
0.135187
0.130124
0.125295
0.120697
0.116327
0.112184
0.108264
0.104566
0.101086
0.0978195
0.0947603
0.0919021
0.0892373
0.0867578
0.0844546
0.0823185
0.0803401
0.0785098
0.0768183
0.0752565
0.0738153
0.0724863
0.0712614
0.0701329
0.0690936
0.0681368
0.0672562
0.0664458
0.0657003
0.0650146
0.064384
0.0638042
0.0632711
0.0627812
0.062331
0.0619174
0.0615374
0.0611885
0.0608681
0.0605741
0.0603043
0.0600568
0.0598299
0.059622
0.0594316
0.0592573
0.0590979
0.0589523
0.0588195
0.0586985
0.0585887
0.0584891
0.0583993
0.0583187
0.0582469
0.0581836
0.0581285
0.0580817
0.0580432
0.0580132
0.0579922
0.0579806
0.961699
0.892203
0.829111
0.771757
0.719549
0.671961
0.628524
0.588819
0.552476
0.519161
0.488578
0.460462
0.434575
0.410706
0.388665
0.368281
0.349399
0.331884
0.31561
0.300465
0.286349
0.273169
0.260844
0.249296
0.238459
0.22827
0.218673
0.209616
0.201052
0.192939
0.18524
0.17792
0.17095
0.164303
0.157956
0.151892
0.146095
0.140551
0.135253
0.130194
0.125368
0.120772
0.116404
0.112262
0.108343
0.104645
0.101165
0.0978968
0.094836
0.0919758
0.0893087
0.0868265
0.0845205
0.0823814
0.0803999
0.0785665
0.0768719
0.0753069
0.0738627
0.0725308
0.0713031
0.0701719
0.06913
0.0681707
0.0672877
0.0664751
0.0657275
0.0650397
0.0644073
0.0638257
0.063291
0.0627995
0.0623479
0.0619329
0.0615517
0.0612016
0.0608802
0.0605852
0.0603145
0.0600661
0.0598385
0.0596298
0.0594387
0.0592639
0.0591039
0.0589579
0.0588246
0.0587033
0.0585931
0.0584933
0.0584032
0.0583224
0.0582505
0.058187
0.0581318
0.0580849
0.0580463
0.0580163
0.0579952
0.0579835
0.961699
0.892203
0.829111
0.771757
0.71955
0.671962
0.628526
0.588822
0.55248
0.519166
0.488583
0.460468
0.434583
0.410715
0.388675
0.368291
0.349411
0.331897
0.315624
0.30048
0.286365
0.273187
0.260863
0.249317
0.238482
0.228295
0.2187
0.209645
0.201084
0.192975
0.185279
0.177963
0.170996
0.164353
0.158011
0.151951
0.146158
0.140619
0.135324
0.130268
0.125445
0.120852
0.116486
0.112345
0.108427
0.104729
0.101248
0.0979784
0.0949159
0.0920536
0.089384
0.0868991
0.0845901
0.0824478
0.0804631
0.0786264
0.0769286
0.0753603
0.073913
0.0725779
0.0713472
0.0702131
0.0691685
0.0682066
0.0673211
0.0665061
0.0657562
0.0650664
0.0644319
0.0638485
0.0633121
0.062819
0.0623658
0.0619494
0.0615669
0.0612156
0.060893
0.0605969
0.0603253
0.060076
0.0598476
0.0596382
0.0594464
0.0592709
0.0591104
0.0589638
0.0588301
0.0587084
0.0585979
0.0584977
0.0584074
0.0583264
0.0582542
0.0581906
0.0581353
0.0580883
0.0580496
0.0580195
0.0579984
0.0579867
0.961699
0.892203
0.82911
0.771757
0.71955
0.671963
0.628527
0.588825
0.552483
0.51917
0.488589
0.460474
0.43459
0.410723
0.388684
0.368301
0.349423
0.331909
0.315638
0.300496
0.286382
0.273205
0.260883
0.249339
0.238506
0.228321
0.218729
0.209676
0.201118
0.193012
0.18532
0.178007
0.171045
0.164406
0.158068
0.152013
0.146224
0.140689
0.135399
0.130346
0.125526
0.120935
0.116571
0.112432
0.108514
0.104816
0.101334
0.0980637
0.0949994
0.0921349
0.0894627
0.0869749
0.0846628
0.0825173
0.0805292
0.0786891
0.0769878
0.0754162
0.0739655
0.0726273
0.0713935
0.0702564
0.0692089
0.0682442
0.0673561
0.0665386
0.0657864
0.0650944
0.0644579
0.0638725
0.0633342
0.0628394
0.0623846
0.0619668
0.0615829
0.0612303
0.0609065
0.0606093
0.0603366
0.0600865
0.0598571
0.0596469
0.0594544
0.0592783
0.0591172
0.0589701
0.0588359
0.0587138
0.0586029
0.0585024
0.0584118
0.0583306
0.0582582
0.0581944
0.0581389
0.0580918
0.058053
0.0580229
0.0580017
0.05799
0.961699
0.892202
0.82911
0.771757
0.71955
0.671964
0.628528
0.588827
0.552486
0.519173
0.488593
0.46048
0.434597
0.410731
0.388693
0.368312
0.349434
0.331922
0.315652
0.300511
0.286399
0.273224
0.260903
0.249362
0.238531
0.228348
0.218758
0.209709
0.201154
0.193051
0.185363
0.178054
0.171096
0.164461
0.158128
0.152077
0.146292
0.140762
0.135476
0.130427
0.12561
0.121022
0.11666
0.112521
0.108604
0.104906
0.101424
0.098152
0.0950859
0.0922191
0.0895443
0.0870535
0.0847382
0.0825893
0.0805977
0.0787542
0.0770493
0.0754743
0.0740201
0.0726786
0.0714415
0.0703013
0.0692508
0.0682833
0.0673925
0.0665725
0.0658179
0.0651235
0.0644848
0.0638974
0.0633573
0.0628607
0.0624043
0.0619848
0.0615995
0.0612455
0.0609205
0.0606222
0.0603484
0.0600973
0.0598671
0.059656
0.0594628
0.059286
0.0591243
0.0589766
0.058842
0.0587194
0.0586081
0.0585073
0.0584164
0.0583349
0.0582623
0.0581983
0.0581427
0.0580955
0.0580566
0.0580264
0.0580052
0.0579934
0.961699
0.892202
0.82911
0.771756
0.71955
0.671964
0.628529
0.588828
0.552488
0.519177
0.488597
0.460485
0.434603
0.410739
0.388702
0.368321
0.349445
0.331934
0.315666
0.300527
0.286416
0.273243
0.260924
0.249384
0.238556
0.228376
0.218789
0.209742
0.201191
0.193091
0.185407
0.178102
0.171148
0.164518
0.15819
0.152143
0.146363
0.140837
0.135555
0.13051
0.125696
0.121111
0.116751
0.112614
0.108697
0.104999
0.101516
0.0982428
0.0951749
0.0923057
0.0896281
0.0871343
0.0848157
0.0826634
0.0806683
0.0788211
0.0771127
0.075534
0.0740764
0.0727314
0.071491
0.0703476
0.0692941
0.0683237
0.0674301
0.0666074
0.0658503
0.0651536
0.0645127
0.0639232
0.0633811
0.0628827
0.0624245
0.0620035
0.0616167
0.0612613
0.0609351
0.0606355
0.0603607
0.0601085
0.0598773
0.0596655
0.0594715
0.0592939
0.0591316
0.0589834
0.0588482
0.0587252
0.0586135
0.0585123
0.0584212
0.0583394
0.0582665
0.0582024
0.0581466
0.0580992
0.0580603
0.05803
0.0580087
0.0579969
0.961699
0.892202
0.829109
0.771756
0.71955
0.671964
0.62853
0.588829
0.55249
0.51918
0.488601
0.46049
0.434609
0.410746
0.38871
0.368331
0.349456
0.331947
0.315679
0.300542
0.286433
0.273262
0.260945
0.249408
0.238581
0.228404
0.21882
0.209777
0.201228
0.193133
0.185452
0.178152
0.171202
0.164577
0.158253
0.152211
0.146436
0.140914
0.135636
0.130594
0.125784
0.121202
0.116843
0.112708
0.108792
0.105094
0.10161
0.0983356
0.0952657
0.0923942
0.0897139
0.087217
0.084895
0.0827392
0.0807405
0.0788897
0.0771776
0.0755953
0.0741341
0.0727856
0.0715418
0.0703951
0.0693385
0.0683651
0.0674686
0.0666433
0.0658836
0.0651845
0.0645413
0.0639497
0.0634056
0.0629053
0.0624454
0.0620227
0.0616343
0.0612776
0.06095
0.0606492
0.0603732
0.06012
0.0598879
0.0596752
0.0594804
0.0593021
0.0591391
0.0589903
0.0588546
0.0587311
0.058619
0.0585175
0.058426
0.058344
0.0582709
0.0582065
0.0581506
0.0581031
0.058064
0.0580337
0.0580123
0.0580005
0.961698
0.892201
0.829109
0.771756
0.71955
0.671964
0.628531
0.588831
0.552492
0.519182
0.488605
0.460495
0.434614
0.410752
0.388718
0.36834
0.349467
0.331959
0.315693
0.300557
0.28645
0.273281
0.260966
0.249431
0.238607
0.228433
0.218851
0.209811
0.201267
0.193175
0.185498
0.178202
0.171257
0.164636
0.158317
0.15228
0.146509
0.140992
0.135718
0.130681
0.125874
0.121294
0.116938
0.112804
0.108889
0.10519
0.101706
0.0984299
0.0953581
0.0924841
0.089801
0.087301
0.0849757
0.0828164
0.080814
0.0789594
0.0772436
0.0756576
0.0741928
0.0728407
0.0715935
0.0704436
0.0693837
0.0684073
0.0675079
0.0666799
0.0659176
0.065216
0.0645705
0.0639767
0.0634305
0.0629283
0.0624666
0.0620423
0.0616523
0.0612941
0.0609652
0.0606632
0.0603861
0.0601318
0.0598987
0.0596851
0.0594895
0.0593105
0.0591468
0.0589974
0.0588612
0.0587372
0.0586247
0.0585228
0.058431
0.0583486
0.0582753
0.0582107
0.0581547
0.058107
0.0580678
0.0580374
0.058016
0.0580041
0.961698
0.892201
0.829109
0.771755
0.719549
0.671964
0.628531
0.588831
0.552493
0.519184
0.488608
0.460499
0.43462
0.410759
0.388725
0.368349
0.349477
0.331971
0.315706
0.300572
0.286467
0.2733
0.260987
0.249455
0.238633
0.228462
0.218883
0.209847
0.201305
0.193217
0.185544
0.178253
0.171312
0.164696
0.158382
0.15235
0.146584
0.141071
0.135802
0.130768
0.125964
0.121387
0.117033
0.1129
0.108986
0.105288
0.101802
0.0985251
0.0954514
0.0925751
0.0898892
0.087386
0.0850573
0.0828944
0.0808884
0.07903
0.0773105
0.0757207
0.0742523
0.0728967
0.071646
0.0704927
0.0694296
0.0684501
0.0675478
0.066717
0.0659521
0.065248
0.0646002
0.0640041
0.0634559
0.0629517
0.0624882
0.0620621
0.0616706
0.061311
0.0609807
0.0606774
0.0603991
0.0601438
0.0599097
0.0596952
0.0594987
0.059319
0.0591547
0.0590046
0.0588678
0.0587434
0.0586304
0.0585281
0.058436
0.0583533
0.0582798
0.058215
0.0581588
0.0581109
0.0580717
0.0580411
0.0580196
0.0580077
0.961698
0.892201
0.829108
0.771755
0.719549
0.671964
0.628531
0.588832
0.552495
0.519186
0.488611
0.460502
0.434624
0.410764
0.388732
0.368357
0.349487
0.331982
0.315719
0.300587
0.286484
0.273319
0.261008
0.249478
0.238659
0.228491
0.218915
0.209882
0.201344
0.19326
0.185591
0.178304
0.171368
0.164757
0.158447
0.15242
0.146659
0.14115
0.135885
0.130855
0.126055
0.121481
0.117129
0.112997
0.109084
0.105386
0.101899
0.098621
0.0955454
0.0926667
0.0899779
0.0874716
0.0851396
0.0829731
0.0809633
0.0791013
0.0773779
0.0757845
0.0743123
0.0729531
0.0716989
0.0705422
0.0694759
0.0684933
0.0675881
0.0667545
0.0659869
0.0652803
0.0646301
0.0640318
0.0634815
0.0629754
0.06251
0.0620823
0.0616891
0.061328
0.0609963
0.0606918
0.0604123
0.0601559
0.0599208
0.0597053
0.0595081
0.0593276
0.0591625
0.0590119
0.0588746
0.0587496
0.0586362
0.0585335
0.058441
0.0583581
0.0582843
0.0582193
0.0581628
0.0581149
0.0580755
0.0580448
0.0580233
0.0580113
0.961698
0.8922
0.829108
0.771754
0.719549
0.671964
0.628531
0.588833
0.552496
0.519188
0.488613
0.460506
0.434629
0.41077
0.388739
0.368366
0.349496
0.331993
0.315732
0.300602
0.2865
0.273337
0.261029
0.249501
0.238685
0.228519
0.218947
0.209917
0.201383
0.193303
0.185638
0.178355
0.171424
0.164817
0.158513
0.15249
0.146734
0.14123
0.135969
0.130943
0.126146
0.121575
0.117225
0.113095
0.109182
0.105484
0.101997
0.098717
0.0956395
0.0927584
0.0900669
0.0875575
0.0852221
0.083052
0.0810386
0.0791727
0.0774456
0.0758484
0.0743726
0.0730098
0.0717521
0.0705921
0.0695225
0.0685368
0.0676287
0.0667922
0.0660219
0.0653129
0.0646603
0.0640597
0.0635073
0.0629992
0.062532
0.0621025
0.0617078
0.0613451
0.061012
0.0607062
0.0604255
0.060168
0.0599319
0.0597156
0.0595175
0.0593362
0.0591705
0.0590192
0.0588813
0.0587558
0.058642
0.0585389
0.0584461
0.0583629
0.0582888
0.0582236
0.0581669
0.0581188
0.0580793
0.0580485
0.0580269
0.0580149
0.961698
0.8922
0.829107
0.771754
0.719548
0.671964
0.628531
0.588833
0.552497
0.51919
0.488615
0.460509
0.434633
0.410775
0.388746
0.368373
0.349505
0.332004
0.315745
0.300616
0.286517
0.273355
0.26105
0.249524
0.238711
0.228548
0.218979
0.209952
0.201422
0.193345
0.185685
0.178406
0.17148
0.164878
0.158578
0.15256
0.146808
0.141309
0.136053
0.13103
0.126237
0.121668
0.117321
0.113192
0.10928
0.105582
0.102094
0.0988129
0.0957335
0.0928501
0.0901558
0.0876433
0.0853045
0.0831309
0.0811138
0.0792443
0.0775134
0.0759125
0.0744329
0.0730666
0.0718054
0.070642
0.0695692
0.0685804
0.0676693
0.06683
0.0660571
0.0653455
0.0646905
0.0640877
0.0635332
0.0630231
0.062554
0.0621228
0.0617265
0.0613623
0.0610278
0.0607207
0.0604388
0.0601802
0.0599431
0.0597259
0.0595269
0.0593448
0.0591784
0.0590265
0.0588881
0.0587621
0.0586478
0.0585443
0.0584511
0.0583676
0.0582933
0.0582278
0.058171
0.0581227
0.058083
0.0580522
0.0580305
0.0580185
0.961698
0.8922
0.829107
0.771754
0.719548
0.671963
0.628531
0.588833
0.552497
0.519191
0.488618
0.460512
0.434637
0.41078
0.388752
0.368381
0.349514
0.332014
0.315757
0.30063
0.286532
0.273373
0.26107
0.249547
0.238736
0.228576
0.21901
0.209987
0.20146
0.193387
0.185731
0.178457
0.171535
0.164938
0.158642
0.15263
0.146882
0.141388
0.136136
0.131117
0.126327
0.121761
0.117416
0.113288
0.109377
0.105679
0.10219
0.0989082
0.0958271
0.0929413
0.0902443
0.0877287
0.0853866
0.0832095
0.0811888
0.0793155
0.077581
0.0759763
0.0744931
0.0731232
0.0718586
0.0706918
0.0696158
0.0686239
0.0677098
0.0668677
0.0660921
0.065378
0.0647207
0.0641157
0.063559
0.063047
0.062576
0.0621431
0.0617451
0.0613795
0.0610436
0.0607352
0.0604521
0.0601924
0.0599543
0.0597361
0.0595363
0.0593535
0.0591864
0.0590338
0.0588948
0.0587683
0.0586535
0.0585497
0.0584561
0.0583723
0.0582977
0.058232
0.058175
0.0581265
0.0580867
0.0580558
0.058034
0.058022
0.961698
0.8922
0.829107
0.771753
0.719547
0.671963
0.628531
0.588834
0.552498
0.519192
0.48862
0.460515
0.43464
0.410785
0.388757
0.368388
0.349523
0.332024
0.315768
0.300643
0.286548
0.273391
0.26109
0.249569
0.238761
0.228604
0.219041
0.210021
0.201498
0.193429
0.185777
0.178507
0.171589
0.164997
0.158706
0.152698
0.146956
0.141466
0.136218
0.131203
0.126416
0.121853
0.11751
0.113384
0.109473
0.105775
0.102286
0.0990027
0.0959198
0.0930317
0.0903321
0.0878135
0.0854681
0.0832876
0.0812632
0.0793863
0.0776481
0.0760398
0.074553
0.0731795
0.0719114
0.0707413
0.0696621
0.0686672
0.0677502
0.0669053
0.0661271
0.0654104
0.0647507
0.0641435
0.0635847
0.0630707
0.0625979
0.0621633
0.0617637
0.0613966
0.0610593
0.0607496
0.0604653
0.0602045
0.0599654
0.0597463
0.0595456
0.059362
0.0591942
0.0590411
0.0589015
0.0587745
0.0586592
0.058555
0.0584611
0.0583769
0.0583021
0.0582361
0.0581789
0.0581303
0.0580904
0.0580593
0.0580375
0.0580254
0.961698
0.892199
0.829106
0.771753
0.719547
0.671963
0.628531
0.588834
0.552499
0.519193
0.488621
0.460517
0.434644
0.410789
0.388763
0.368395
0.349531
0.332034
0.31578
0.300656
0.286563
0.273408
0.261109
0.249591
0.238786
0.228631
0.219071
0.210055
0.201535
0.19347
0.185822
0.178557
0.171643
0.165055
0.15877
0.152766
0.147028
0.141543
0.136298
0.131288
0.126504
0.121944
0.117602
0.113478
0.109568
0.10587
0.102381
0.099096
0.0960114
0.0931211
0.0904188
0.0878973
0.0855487
0.0833648
0.0813369
0.0794564
0.0777145
0.0761026
0.0746122
0.0732353
0.0719638
0.0707904
0.0697081
0.0687101
0.0677902
0.0669425
0.0661617
0.0654426
0.0647805
0.0641711
0.0636102
0.0630943
0.0626197
0.0621833
0.0617822
0.0614135
0.0610749
0.0607639
0.0604784
0.0602166
0.0599764
0.0597564
0.0595549
0.0593705
0.059202
0.0590482
0.058908
0.0587806
0.0586649
0.0585602
0.058466
0.0583815
0.0583064
0.0582402
0.0581828
0.058134
0.058094
0.0580628
0.0580409
0.0580287
0.961698
0.892199
0.829106
0.771752
0.719547
0.671962
0.628531
0.588834
0.552499
0.519194
0.488623
0.46052
0.434647
0.410793
0.388768
0.368401
0.349539
0.332043
0.31579
0.300669
0.286577
0.273424
0.261128
0.249612
0.238809
0.228658
0.219101
0.210088
0.201572
0.193511
0.185866
0.178605
0.171696
0.165113
0.158831
0.152833
0.147099
0.141618
0.136378
0.131371
0.126591
0.122033
0.117694
0.113571
0.109662
0.105964
0.102474
0.0991879
0.0961016
0.0932092
0.0905044
0.08798
0.0856282
0.0834409
0.0814096
0.0795256
0.0777801
0.0761647
0.0746708
0.0732904
0.0720156
0.0708389
0.0697535
0.0687525
0.0678297
0.0669793
0.0661959
0.0654744
0.06481
0.0641984
0.0636355
0.0631176
0.0626412
0.0622031
0.0618004
0.0614303
0.0610903
0.060778
0.0604914
0.0602284
0.0599873
0.0597663
0.059564
0.0593789
0.0592097
0.0590553
0.0589145
0.0587865
0.0586704
0.0585654
0.0584707
0.058386
0.0583106
0.0582442
0.0581866
0.0581376
0.0580974
0.0580662
0.0580442
0.058032
0.961697
0.892199
0.829105
0.771752
0.719546
0.671962
0.628531
0.588834
0.5525
0.519195
0.488624
0.460522
0.43465
0.410797
0.388773
0.368407
0.349546
0.332052
0.315801
0.300681
0.286591
0.273441
0.261146
0.249633
0.238833
0.228684
0.21913
0.21012
0.201607
0.19355
0.18591
0.178653
0.171748
0.165169
0.158892
0.152898
0.147169
0.141692
0.136456
0.131452
0.126675
0.12212
0.117783
0.113662
0.109753
0.106056
0.102565
0.0992781
0.0961902
0.0932957
0.0905884
0.0880612
0.0857064
0.0835158
0.0814811
0.0795936
0.0778447
0.0762257
0.0747284
0.0733446
0.0720665
0.0708867
0.0697982
0.0687942
0.0678687
0.0670156
0.0662297
0.0655057
0.064839
0.0642252
0.0636603
0.0631405
0.0626624
0.0622226
0.0618183
0.0614468
0.0611054
0.0607919
0.0605042
0.0602401
0.059998
0.0597762
0.059573
0.0593871
0.0592173
0.0590622
0.0589209
0.0587924
0.0586758
0.0585704
0.0584754
0.0583903
0.0583147
0.058248
0.0581902
0.0581411
0.0581008
0.0580694
0.0580474
0.0580351
0.961697
0.892199
0.829105
0.771751
0.719546
0.671962
0.62853
0.588834
0.5525
0.519196
0.488626
0.460524
0.434653
0.410801
0.388778
0.368413
0.349553
0.332061
0.315811
0.300693
0.286605
0.273456
0.261164
0.249653
0.238855
0.228709
0.219158
0.210151
0.201642
0.193588
0.185952
0.178699
0.171798
0.165224
0.158951
0.152961
0.147237
0.141764
0.136532
0.131532
0.126758
0.122205
0.117871
0.113751
0.109843
0.106145
0.102654
0.0993664
0.0962769
0.0933804
0.0906707
0.0881408
0.085783
0.0835893
0.0815513
0.0796604
0.077908
0.0762857
0.074785
0.0733979
0.0721166
0.0709337
0.0698421
0.0688353
0.0679069
0.0670513
0.0662628
0.0655365
0.0648676
0.0642517
0.0636848
0.0631631
0.0626832
0.0622418
0.061836
0.061463
0.0611203
0.0608056
0.0605167
0.0602516
0.0600085
0.0597858
0.0595818
0.0593952
0.0592247
0.059069
0.0589272
0.0587982
0.0586811
0.0585753
0.05848
0.0583946
0.0583186
0.0582518
0.0581938
0.0581445
0.0581041
0.0580726
0.0580505
0.0580382
0.961697
0.892198
0.829105
0.771751
0.719545
0.671961
0.62853
0.588834
0.5525
0.519197
0.488627
0.460526
0.434656
0.410805
0.388783
0.368419
0.34956
0.332069
0.315821
0.300704
0.286618
0.273471
0.261181
0.249672
0.238877
0.228734
0.219186
0.210182
0.201676
0.193626
0.185993
0.178744
0.171847
0.165277
0.159009
0.153023
0.147303
0.141834
0.136606
0.13161
0.126839
0.122289
0.117956
0.113837
0.10993
0.106233
0.102742
0.0994526
0.0963616
0.0934632
0.0907511
0.0882185
0.0858578
0.083661
0.0816198
0.0797256
0.07797
0.0763443
0.0748403
0.07345
0.0721656
0.0709796
0.0698851
0.0688755
0.0679444
0.0670862
0.0662953
0.0655666
0.0648955
0.0642776
0.0637087
0.0631852
0.0627036
0.0622606
0.0618533
0.0614789
0.0611349
0.060819
0.060529
0.0602629
0.0600188
0.0597952
0.0595904
0.0594031
0.0592319
0.0590756
0.0589332
0.0588038
0.0586863
0.0585801
0.0584844
0.0583987
0.0583225
0.0582554
0.0581972
0.0581478
0.0581072
0.0580756
0.0580534
0.0580411
0.961697
0.892198
0.829104
0.77175
0.719545
0.671961
0.62853
0.588834
0.552501
0.519198
0.488629
0.460528
0.434658
0.410808
0.388787
0.368424
0.349567
0.332077
0.31583
0.300715
0.286631
0.273486
0.261197
0.249691
0.238898
0.228757
0.219212
0.210211
0.201709
0.193662
0.186033
0.178787
0.171895
0.165329
0.159065
0.153083
0.147367
0.141902
0.136678
0.131685
0.126917
0.122369
0.118038
0.113921
0.110015
0.106318
0.102826
0.0995364
0.096444
0.0935437
0.0908294
0.0882942
0.0859308
0.083731
0.0816867
0.0797893
0.0780304
0.0764015
0.0748943
0.0735009
0.0722134
0.0710244
0.0699271
0.0689147
0.067981
0.0671203
0.066327
0.0655961
0.0649228
0.0643028
0.0637321
0.0632068
0.0627235
0.0622789
0.0618702
0.0614944
0.0611492
0.0608321
0.0605409
0.0602738
0.0600289
0.0598044
0.0595988
0.0594108
0.0592389
0.0590821
0.0589392
0.0588092
0.0586913
0.0585847
0.0584887
0.0584027
0.0583262
0.0582589
0.0582005
0.0581509
0.0581102
0.0580786
0.0580563
0.0580439
0.961697
0.892198
0.829104
0.77175
0.719545
0.671961
0.62853
0.588834
0.552501
0.519199
0.48863
0.46053
0.434661
0.410812
0.388791
0.36843
0.349573
0.332084
0.315839
0.300726
0.286643
0.2735
0.261213
0.249709
0.238919
0.22878
0.219238
0.21024
0.20174
0.193697
0.186071
0.178829
0.171941
0.165378
0.159119
0.153141
0.147429
0.141968
0.136747
0.131758
0.126993
0.122448
0.118118
0.114003
0.110098
0.1064
0.102908
0.0996177
0.0965239
0.0936218
0.0909054
0.0883678
0.0860016
0.0837989
0.0817516
0.0798511
0.0780891
0.0764571
0.0749468
0.0735503
0.0722599
0.0710681
0.0699679
0.0689529
0.0680166
0.0671534
0.0663578
0.0656247
0.0649494
0.0643275
0.0637549
0.0632278
0.0627429
0.0622968
0.0618866
0.0615095
0.061163
0.0608448
0.0605526
0.0602845
0.0600386
0.0598133
0.059607
0.0594182
0.0592457
0.0590883
0.0589449
0.0588145
0.0586961
0.0585892
0.0584928
0.0584065
0.0583298
0.0582623
0.0582037
0.058154
0.0581131
0.0580814
0.058059
0.0580466
0.961697
0.892198
0.829104
0.77175
0.719544
0.67196
0.62853
0.588834
0.552501
0.519199
0.488631
0.460531
0.434663
0.410815
0.388795
0.368434
0.349579
0.332092
0.315848
0.300736
0.286654
0.273513
0.261229
0.249726
0.238938
0.228802
0.219262
0.210267
0.201771
0.19373
0.186108
0.17887
0.171985
0.165427
0.159171
0.153197
0.147489
0.142032
0.136814
0.131828
0.127066
0.122523
0.118196
0.114081
0.110177
0.10648
0.102988
0.0996963
0.0966012
0.0936974
0.0909789
0.0884389
0.0860702
0.0838647
0.0818145
0.0799111
0.078146
0.076511
0.0749977
0.0735983
0.0723049
0.0711103
0.0700075
0.0689899
0.0680512
0.0671856
0.0663878
0.0656525
0.0649752
0.0643513
0.0637769
0.0632482
0.0627617
0.0623141
0.0619025
0.0615241
0.0611764
0.0608571
0.0605639
0.0602948
0.0600481
0.0598219
0.0596149
0.0594254
0.0592523
0.0590944
0.0589504
0.0588195
0.0587008
0.0585935
0.0584968
0.0584102
0.0583333
0.0582655
0.0582067
0.0581568
0.0581159
0.058084
0.0580616
0.0580492
0.961697
0.892197
0.829103
0.771749
0.719544
0.67196
0.628529
0.588834
0.552502
0.5192
0.488632
0.460533
0.434665
0.410818
0.388799
0.368439
0.349585
0.332098
0.315856
0.300745
0.286666
0.273526
0.261243
0.249743
0.238957
0.228823
0.219286
0.210293
0.2018
0.193762
0.186144
0.178909
0.172028
0.165473
0.159221
0.153251
0.147546
0.142093
0.136879
0.131895
0.127136
0.122595
0.11827
0.114157
0.110254
0.106557
0.103064
0.099772
0.0966757
0.0937703
0.0910498
0.0885076
0.0861363
0.0839282
0.0818752
0.0799689
0.078201
0.076563
0.0750469
0.0736446
0.0723485
0.0711512
0.0700458
0.0690257
0.0680846
0.0672167
0.0664167
0.0656794
0.0650001
0.0643744
0.0637983
0.0632679
0.0627799
0.0623308
0.0619179
0.0615383
0.0611894
0.060869
0.0605747
0.0603048
0.0600572
0.0598303
0.0596225
0.0594324
0.0592587
0.0591002
0.0589557
0.0588244
0.0587053
0.0585976
0.0585006
0.0584138
0.0583365
0.0582686
0.0582096
0.0581596
0.0581185
0.0580865
0.0580641
0.0580516
0.961697
0.892197
0.829103
0.771749
0.719543
0.67196
0.628529
0.588834
0.552502
0.5192
0.488633
0.460534