/*--------------------------------*- C++ -*----------------------------------*\
  =========                 |
  \\      /  F ield         | OpenFOAM: The Open Source CFD Toolbox
   \\    /   O peration     | Website:  https://openfoam.org
    \\  /    A nd           | Version:  11
     \\/     M anipulation  |
\*---------------------------------------------------------------------------*/
FoamFile
{
    format      ascii;
    class       volScalarField;
    location    "664";
    object      omega;
}
// * * * * * * * * * * * * * * * * * * * * * * * * * * * * * * * * * * * * * //

dimensions      [0 0 -1 0 0 0 0];

internalField   nonuniform List<scalar> 
10000
(
0.961692
0.892185
0.829085
0.771728
0.719523
0.671944
0.628523
0.588843
0.552532
0.519258
0.488724
0.460667
0.43485
0.41106
0.389109
0.368827
0.350062
0.332675
0.316546
0.301562
0.287625
0.274645
0.26254
0.251237
0.240671
0.230782
0.221515
0.21282
0.204654
0.196976
0.189748
0.182937
0.176512
0.170445
0.16471
0.159285
0.154146
0.149275
0.144654
0.140265
0.136093
0.132125
0.128347
0.124746
0.121313
0.118037
0.114908
0.111917
0.109056
0.106318
0.103695
0.101181
0.0987702
0.0964563
0.0942341
0.0920986
0.0900453
0.0880698
0.0861679
0.084336
0.0825703
0.0808676
0.0792246
0.0776385
0.0761063
0.0746255
0.0731935
0.071808
0.0704668
0.0691678
0.067909
0.0666884
0.0655043
0.0643549
0.0632387
0.0621541
0.0610995
0.0600737
0.0590753
0.058103
0.0571556
0.056232
0.0553313
0.0544523
0.0535944
0.0527568
0.0519391
0.051141
0.0503625
0.0496041
0.0488669
0.0481527
0.0474646
0.046807
0.0461866
0.0456129
0.0450994
0.0446653
0.0443371
0.0441511
0.961692
0.892185
0.829085
0.771728
0.719523
0.671944
0.628523
0.588843
0.552532
0.519258
0.488724
0.460667
0.43485
0.41106
0.389109
0.368827
0.350062
0.332675
0.316546
0.301562
0.287625
0.274645
0.26254
0.251237
0.240672
0.230782
0.221515
0.21282
0.204654
0.196976
0.189748
0.182937
0.176512
0.170445
0.164711
0.159285
0.154146
0.149275
0.144654
0.140265
0.136093
0.132125
0.128347
0.124747
0.121313
0.118037
0.114908
0.111917
0.109056
0.106318
0.103695
0.101181
0.0987704
0.0964565
0.0942343
0.0920989
0.0900456
0.08807
0.0861682
0.0843362
0.0825706
0.0808679
0.0792249
0.0776388
0.0761066
0.0746258
0.0731938
0.0718084
0.0704672
0.0691682
0.0679093
0.0666888
0.0655047
0.0643553
0.0632391
0.0621545
0.0611
0.0600742
0.0590758
0.0581035
0.0571562
0.0562326
0.0553318
0.0544529
0.053595
0.0527575
0.0519398
0.0511416
0.0503632
0.0496048
0.0488676
0.0481534
0.0474653
0.0468078
0.0461873
0.0456136
0.0451002
0.044666
0.0443378
0.0441518
0.961692
0.892185
0.829085
0.771728
0.719523
0.671944
0.628523
0.588843
0.552532
0.519258
0.488724
0.460667
0.43485
0.41106
0.389109
0.368827
0.350062
0.332675
0.316546
0.301562
0.287625
0.274645
0.26254
0.251238
0.240672
0.230782
0.221515
0.21282
0.204654
0.196976
0.189748
0.182937
0.176512
0.170445
0.164711
0.159285
0.154147
0.149276
0.144654
0.140265
0.136094
0.132125
0.128347
0.124747
0.121314
0.118037
0.114908
0.111917
0.109056
0.106318
0.103696
0.101182
0.0987708
0.0964569
0.0942347
0.0920993
0.090046
0.0880705
0.0861687
0.0843367
0.0825711
0.0808684
0.0792255
0.0776393
0.0761072
0.0746264
0.0731945
0.071809
0.0704679
0.0691689
0.0679101
0.0666895
0.0655055
0.0643562
0.06324
0.0621554
0.0611009
0.0600752
0.0590768
0.0581045
0.0571572
0.0562337
0.055333
0.0544541
0.0535962
0.0527587
0.051941
0.051143
0.0503645
0.0496062
0.048869
0.0481549
0.0474668
0.0468092
0.0461888
0.0456151
0.0451017
0.0446675
0.0443393
0.0441533
0.961692
0.892185
0.829085
0.771728
0.719523
0.671944
0.628523
0.588843
0.552532
0.519258
0.488724
0.460667
0.43485
0.41106
0.38911
0.368827
0.350062
0.332676
0.316546
0.301562
0.287625
0.274645
0.26254
0.251238
0.240672
0.230782
0.221515
0.212821
0.204655
0.196976
0.189748
0.182937
0.176512
0.170446
0.164711
0.159285
0.154147
0.149276
0.144654
0.140265
0.136094
0.132125
0.128347
0.124747
0.121314
0.118038
0.114908
0.111918
0.109057
0.106319
0.103696
0.101182
0.0987714
0.0964574
0.0942353
0.0920999
0.0900467
0.0880712
0.0861694
0.0843375
0.0825719
0.0808692
0.0792263
0.0776402
0.0761081
0.0746273
0.0731954
0.07181
0.0704689
0.06917
0.0679112
0.0666907
0.0655066
0.0643574
0.0632412
0.0621567
0.0611023
0.0600766
0.0590782
0.058106
0.0571587
0.0562353
0.0553346
0.0544558
0.053598
0.0527605
0.0519429
0.0511449
0.0503665
0.0496082
0.0488711
0.048157
0.0474689
0.0468114
0.046191
0.0456173
0.0451039
0.0446697
0.0443415
0.0441555
0.961692
0.892185
0.829085
0.771728
0.719523
0.671944
0.628523
0.588843
0.552532
0.519258
0.488724
0.460667
0.43485
0.41106
0.38911
0.368828
0.350062
0.332676
0.316546
0.301562
0.287625
0.274645
0.26254
0.251238
0.240672
0.230782
0.221515
0.212821
0.204655
0.196976
0.189749
0.182938
0.176513
0.170446
0.164711
0.159286
0.154147
0.149276
0.144655
0.140266
0.136094
0.132126
0.128348
0.124748
0.121315
0.118038
0.114909
0.111918
0.109058
0.106319
0.103697
0.101183
0.0987721
0.0964582
0.0942361
0.0921007
0.0900475
0.0880721
0.0861703
0.0843384
0.0825729
0.0808702
0.0792274
0.0776413
0.0761092
0.0746285
0.0731967
0.0718113
0.0704702
0.0691713
0.0679126
0.0666921
0.0655082
0.0643589
0.0632429
0.0621584
0.061104
0.0600784
0.0590801
0.058108
0.0571607
0.0562373
0.0553367
0.054458
0.0536003
0.0527629
0.0519453
0.0511474
0.050369
0.0496108
0.0488738
0.0481597
0.0474717
0.0468142
0.0461939
0.0456202
0.0451067
0.0446726
0.0443443
0.0441583
0.961692
0.892185
0.829085
0.771728
0.719523
0.671944
0.628523
0.588843
0.552532
0.519258
0.488724
0.460667
0.43485
0.41106
0.38911
0.368828
0.350062
0.332676
0.316546
0.301563
0.287626
0.274645
0.26254
0.251238
0.240672
0.230783
0.221515
0.212821
0.204655
0.196977
0.189749
0.182938
0.176513
0.170446
0.164712
0.159286
0.154148
0.149277
0.144655
0.140266
0.136095
0.132126
0.128348
0.124748
0.121315
0.118039
0.11491
0.111919
0.109058
0.10632
0.103698
0.101184
0.098773
0.0964592
0.0942371
0.0921018
0.0900486
0.0880732
0.0861714
0.0843396
0.0825741
0.0808715
0.0792287
0.0776427
0.0761106
0.07463
0.0731982
0.0718129
0.0704719
0.069173
0.0679143
0.0666939
0.06551
0.0643609
0.0632449
0.0621605
0.0611062
0.0600806
0.0590824
0.0581103
0.0571632
0.0562399
0.0553394
0.0544607
0.053603
0.0527658
0.0519483
0.0511504
0.0503722
0.049614
0.048877
0.0481631
0.0474751
0.0468177
0.0461973
0.0456237
0.0451102
0.0446761
0.0443478
0.0441618
0.961692
0.892185
0.829085
0.771728
0.719523
0.671944
0.628523
0.588843
0.552532
0.519258
0.488724
0.460667
0.43485
0.411061
0.38911
0.368828
0.350062
0.332676
0.316546
0.301563
0.287626
0.274645
0.26254
0.251238
0.240672
0.230783
0.221516
0.212821
0.204655
0.196977
0.189749
0.182938
0.176513
0.170447
0.164712
0.159286
0.154148
0.149277
0.144656
0.140267
0.136095
0.132127
0.128349
0.124749
0.121316
0.11804
0.114911
0.11192
0.109059
0.106321
0.103699
0.101185
0.098774
0.0964602
0.0942382
0.0921029
0.0900498
0.0880744
0.0861728
0.084341
0.0825755
0.080873
0.0792302
0.0776443
0.0761123
0.0746317
0.0731999
0.0718147
0.0704738
0.069175
0.0679164
0.0666961
0.0655122
0.0643631
0.0632472
0.0621629
0.0611087
0.0600832
0.0590851
0.0581131
0.0571661
0.0562428
0.0553424
0.0544639
0.0536063
0.0527691
0.0519518
0.051154
0.0503758
0.0496178
0.0488809
0.048167
0.0474791
0.0468217
0.0462014
0.0456278
0.0451143
0.0446802
0.0443519
0.0441658
0.961692
0.892185
0.829085
0.771728
0.719523
0.671944
0.628523
0.588843
0.552532
0.519258
0.488724
0.460667
0.43485
0.411061
0.38911
0.368828
0.350062
0.332676
0.316546
0.301563
0.287626
0.274645
0.262541
0.251238
0.240673
0.230783
0.221516
0.212822
0.204656
0.196977
0.18975
0.182939
0.176514
0.170447
0.164713
0.159287
0.154149
0.149278
0.144656
0.140268
0.136096
0.132128
0.12835
0.12475
0.121317
0.118041
0.114911
0.111921
0.10906
0.106322
0.1037
0.101186
0.0987752
0.0964615
0.0942395
0.0921043
0.0900512
0.0880759
0.0861743
0.0843426
0.0825771
0.0808747
0.079232
0.0776461
0.0761142
0.0746336
0.073202
0.0718168
0.0704759
0.0691772
0.0679187
0.0666984
0.0655147
0.0643657
0.0632499
0.0621656
0.0611115
0.0600861
0.0590881
0.0581162
0.0571693
0.0562462
0.0553459
0.0544674
0.05361
0.0527729
0.0519557
0.051158
0.05038
0.049622
0.0488852
0.0481714
0.0474836
0.0468263
0.046206
0.0456324
0.045119
0.0446848
0.0443566
0.0441705
0.961692
0.892185
0.829085
0.771728
0.719523
0.671944
0.628523
0.588843
0.552532
0.519258
0.488724
0.460667
0.43485
0.411061
0.38911
0.368828
0.350062
0.332676
0.316547
0.301563
0.287626
0.274646
0.262541
0.251239
0.240673
0.230783
0.221516
0.212822
0.204656
0.196978
0.18975
0.182939
0.176514
0.170448
0.164713
0.159288
0.154149
0.149278
0.144657
0.140268
0.136097
0.132129
0.128351
0.124751
0.121318
0.118042
0.114912
0.111922
0.109061
0.106323
0.103701
0.101187
0.0987765
0.0964629
0.0942409
0.0921058
0.0900527
0.0880775
0.0861759
0.0843443
0.0825789
0.0808765
0.0792339
0.0776481
0.0761162
0.0746358
0.0732042
0.0718191
0.0704783
0.0691797
0.0679212
0.0667011
0.0655174
0.0643685
0.0632528
0.0621687
0.0611146
0.0600894
0.0590915
0.0581197
0.0571729
0.0562499
0.0553497
0.0544714
0.0536141
0.0527772
0.0519601
0.0511625
0.0503846
0.0496268
0.0488901
0.0481764
0.0474886
0.0468313
0.0462111
0.0456376
0.0451242
0.04469
0.0443617
0.0441756
0.961692
0.892185
0.829085
0.771728
0.719523
0.671944
0.628523
0.588843
0.552532
0.519258
0.488724
0.460667
0.43485
0.411061
0.38911
0.368828
0.350062
0.332676
0.316547
0.301563
0.287626
0.274646
0.262541
0.251239
0.240673
0.230784
0.221517
0.212822
0.204657
0.196978
0.18975
0.18294
0.176515
0.170448
0.164714
0.159288
0.15415
0.149279
0.144658
0.140269
0.136098
0.13213
0.128352
0.124752
0.121319
0.118043
0.114914
0.111923
0.109063
0.106325
0.103702
0.101189
0.098778
0.0964644
0.0942425
0.0921074
0.0900544
0.0880792
0.0861778
0.0843462
0.0825809
0.0808785
0.079236
0.0776502
0.0761185
0.0746381
0.0732066
0.0718216
0.0704809
0.0691824
0.067924
0.066704
0.0655204
0.0643716
0.063256
0.062172
0.0611181
0.0600929
0.0590951
0.0581235
0.0571768
0.056254
0.0553539
0.0544757
0.0536186
0.0527818
0.0519648
0.0511674
0.0503896
0.0496319
0.0488953
0.0481817
0.0474941
0.0468369
0.0462167
0.0456432
0.0451298
0.0446957
0.0443674
0.0441812
0.961692
0.892185
0.829085
0.771728
0.719523
0.671944
0.628523
0.588843
0.552532
0.519258
0.488725
0.460667
0.43485
0.411061
0.38911
0.368828
0.350063
0.332676
0.316547
0.301564
0.287626
0.274646
0.262541
0.251239
0.240673
0.230784
0.221517
0.212823
0.204657
0.196979
0.189751
0.18294
0.176515
0.170449
0.164714
0.159289
0.154151
0.14928
0.144659
0.14027
0.136099
0.13213
0.128353
0.124753
0.12132
0.118044
0.114915
0.111924
0.109064
0.106326
0.103704
0.10119
0.0987795
0.096466
0.0942441
0.0921091
0.0900562
0.0880811
0.0861797
0.0843482
0.082583
0.0808807
0.0792383
0.0776526
0.0761209
0.0746406
0.0732092
0.0718243
0.0704837
0.0691853
0.067927
0.0667071
0.0655236
0.064375
0.0632594
0.0621755
0.0611218
0.0600967
0.0590991
0.0581276
0.057181
0.0562583
0.0553584
0.0544804
0.0536234
0.0527867
0.0519699
0.0511726
0.050395
0.0496374
0.048901
0.0481875
0.0474999
0.0468428
0.0462227
0.0456493
0.0451359
0.0447017
0.0443734
0.0441873
0.961692
0.892185
0.829085
0.771728
0.719523
0.671944
0.628523
0.588843
0.552532
0.519258
0.488725
0.460667
0.43485
0.411061
0.38911
0.368828
0.350063
0.332677
0.316547
0.301564
0.287627
0.274646
0.262542
0.25124
0.240674
0.230785
0.221517
0.212823
0.204657
0.196979
0.189752
0.182941
0.176516
0.170449
0.164715
0.15929
0.154151
0.149281
0.144659
0.140271
0.1361
0.132131
0.128354
0.124754
0.121321
0.118045
0.114916
0.111926
0.109065
0.106327
0.103705
0.101192
0.0987812
0.0964677
0.0942459
0.092111
0.0900581
0.0880831
0.0861818
0.0843503
0.0825852
0.080883
0.0792406
0.0776551
0.0761235
0.0746433
0.073212
0.0718272
0.0704867
0.0691884
0.0679302
0.0667104
0.065527
0.0643785
0.0632631
0.0621793
0.0611257
0.0601008
0.0591033
0.0581319
0.0571855
0.056263
0.0553632
0.0544853
0.0536285
0.052792
0.0519753
0.0511782
0.0504007
0.0496433
0.0489069
0.0481936
0.0475062
0.0468491
0.0462291
0.0456557
0.0451424
0.0447082
0.0443799
0.0441937
0.961692
0.892185
0.829085
0.771728
0.719523
0.671944
0.628523
0.588843
0.552532
0.519258
0.488725
0.460668
0.43485
0.411061
0.38911
0.368828
0.350063
0.332677
0.316547
0.301564
0.287627
0.274647
0.262542
0.25124
0.240674
0.230785
0.221518
0.212824
0.204658
0.19698
0.189752
0.182941
0.176517
0.17045
0.164716
0.15929
0.154152
0.149282
0.14466
0.140272
0.136101
0.132133
0.128355
0.124755
0.121322
0.118046
0.114917
0.111927
0.109067
0.106329
0.103707
0.101193
0.0987829
0.0964694
0.0942478
0.0921129
0.0900601
0.0880852
0.0861839
0.0843526
0.0825876
0.0808855
0.0792432
0.0776577
0.0761262
0.0746461
0.0732149
0.0718302
0.0704898
0.0691916
0.0679336
0.0667138
0.0655306
0.0643822
0.0632669
0.0621833
0.0611298
0.060105
0.0591076
0.0581364
0.0571902
0.0562678
0.0553682
0.0544905
0.0536338
0.0527975
0.051981
0.051184
0.0504067
0.0496494
0.0489132
0.0482
0.0475127
0.0468558
0.0462359
0.0456625
0.0451492
0.044715
0.0443867
0.0442005
0.961692
0.892185
0.829085
0.771728
0.719523
0.671944
0.628523
0.588843
0.552532
0.519258
0.488725
0.460668
0.43485
0.411061
0.38911
0.368828
0.350063
0.332677
0.316547
0.301564
0.287627
0.274647
0.262542
0.25124
0.240674
0.230785
0.221518
0.212824
0.204658
0.19698
0.189753
0.182942
0.176517
0.170451
0.164717
0.159291
0.154153
0.149282
0.144661
0.140273
0.136102
0.132134
0.128356
0.124756
0.121323
0.118048
0.114919
0.111928
0.109068
0.10633
0.103708
0.101195
0.0987846
0.0964713
0.0942497
0.0921149
0.0900622
0.0880874
0.0861862
0.0843549
0.08259
0.080888
0.0792458
0.0776604
0.076129
0.074649
0.0732179
0.0718333
0.070493
0.0691949
0.067937
0.0667174
0.0655343
0.064386
0.0632709
0.0621874
0.061134
0.0601094
0.0591122
0.0581412
0.0571951
0.0562728
0.0553734
0.0544959
0.0536393
0.0528032
0.0519869
0.0511901
0.0504129
0.0496558
0.0489198
0.0482067
0.0475195
0.0468627
0.0462429
0.0456695
0.0451563
0.0447222
0.0443938
0.0442076
0.961692
0.892185
0.829085
0.771728
0.719523
0.671944
0.628523
0.588843
0.552532
0.519258
0.488725
0.460668
0.43485
0.411061
0.389111
0.368829
0.350063
0.332677
0.316548
0.301564
0.287627
0.274647
0.262543
0.251241
0.240675
0.230786
0.221519
0.212825
0.204659
0.196981
0.189753
0.182943
0.176518
0.170451
0.164717
0.159292
0.154154
0.149283
0.144662
0.140274
0.136103
0.132135
0.128357
0.124757
0.121325
0.118049
0.11492
0.11193
0.10907
0.106332
0.10371
0.101197
0.0987865
0.0964732
0.0942517
0.092117
0.0900644
0.0880896
0.0861885
0.0843574
0.0825925
0.0808906
0.0792485
0.0776632
0.0761319
0.074652
0.073221
0.0718366
0.0704964
0.0691984
0.0679406
0.0667212
0.0655382
0.06439
0.063275
0.0621917
0.0611384
0.060114
0.0591169
0.058146
0.0572001
0.0562781
0.0553788
0.0545014
0.0536451
0.0528091
0.051993
0.0511964
0.0504194
0.0496624
0.0489266
0.0482136
0.0475266
0.0468699
0.0462501
0.0456769
0.0451637
0.0447296
0.0444012
0.044215
0.961692
0.892185
0.829085
0.771728
0.719523
0.671944
0.628523
0.588843
0.552532
0.519258
0.488725
0.460668
0.43485
0.411061
0.389111
0.368829
0.350063
0.332677
0.316548
0.301564
0.287628
0.274647
0.262543
0.251241
0.240675
0.230786
0.221519
0.212825
0.204659
0.196981
0.189754
0.182943
0.176519
0.170452
0.164718
0.159293
0.154155
0.149284
0.144663
0.140275
0.136104
0.132136
0.128358
0.124759
0.121326
0.11805
0.114922
0.111931
0.109071
0.106334
0.103712
0.101199
0.0987884
0.0964752
0.0942538
0.0921191
0.0900666
0.0880919
0.0861909
0.0843598
0.0825951
0.0808933
0.0792513
0.0776661
0.0761349
0.0746551
0.0732242
0.0718399
0.0704998
0.069202
0.0679443
0.066725
0.0655421
0.0643941
0.0632793
0.062196
0.061143
0.0601187
0.0591218
0.058151
0.0572053
0.0562834
0.0553843
0.0545071
0.053651
0.0528152
0.0519992
0.0512028
0.050426
0.0496692
0.0489335
0.0482208
0.0475338
0.0468773
0.0462576
0.0456844
0.0451712
0.0447372
0.0444088
0.0442225
0.961692
0.892185
0.829084
0.771728
0.719523
0.671944
0.628523
0.588843
0.552532
0.519258
0.488725
0.460668
0.43485
0.411061
0.389111
0.368829
0.350063
0.332677
0.316548
0.301565
0.287628
0.274648
0.262543
0.251241
0.240676
0.230786
0.221519
0.212826
0.20466
0.196982
0.189754
0.182944
0.176519
0.170453
0.164719
0.159294
0.154156
0.149285
0.144664
0.140276
0.136105
0.132137
0.128359
0.12476
0.121327
0.118052
0.114923
0.111933
0.109073
0.106335
0.103714
0.101201
0.0987903
0.0964772
0.0942558
0.0921213
0.0900689
0.0880943
0.0861934
0.0843624
0.0825977
0.080896
0.0792541
0.077669
0.076138
0.0746583
0.0732275
0.0718433
0.0705033
0.0692056
0.0679481
0.0667289
0.0655462
0.0643983
0.0632836
0.0622005
0.0611476
0.0601234
0.0591267
0.0581562
0.0572106
0.0562889
0.05539
0.0545129
0.053657
0.0528214
0.0520056
0.0512094
0.0504328
0.0496762
0.0489406
0.048228
0.0475412
0.0468848
0.0462652
0.0456921
0.045179
0.0447449
0.0444166
0.0442303
0.961692
0.892185
0.829084
0.771728
0.719523
0.671944
0.628523
0.588843
0.552532
0.519258
0.488725
0.460668
0.43485
0.411061
0.389111
0.368829
0.350063
0.332677
0.316548
0.301565
0.287628
0.274648
0.262543
0.251241
0.240676
0.230787
0.22152
0.212826
0.20466
0.196982
0.189755
0.182944
0.17652
0.170454
0.16472
0.159294
0.154157
0.149286
0.144665
0.140277
0.136106
0.132138
0.128361
0.124761
0.121329
0.118053
0.114925
0.111934
0.109075
0.106337
0.103715
0.101202
0.0987922
0.0964792
0.094258
0.0921235
0.0900712
0.0880966
0.0861958
0.084365
0.0826004
0.0808988
0.079257
0.077672
0.0761411
0.0746615
0.0732308
0.0718467
0.0705069
0.0692093
0.0679519
0.0667328
0.0655503
0.0644025
0.0632879
0.062205
0.0611523
0.0601283
0.0591317
0.0581613
0.0572159
0.0562944
0.0553957
0.0545189
0.0536631
0.0528277
0.0520121
0.0512161
0.0504396
0.0496832
0.0489479
0.0482354
0.0475488
0.0468925
0.046273
0.0457
0.0451869
0.0447529
0.0444245
0.0442382
0.961692
0.892185
0.829084
0.771728
0.719523
0.671944
0.628523
0.588843
0.552532
0.519258
0.488725
0.460668
0.43485
0.411061
0.389111
0.368829
0.350064
0.332678
0.316548
0.301565
0.287628
0.274648
0.262544
0.251242
0.240676
0.230787
0.22152
0.212826
0.204661
0.196983
0.189756
0.182945
0.176521
0.170454
0.16472
0.159295
0.154157
0.149287
0.144666
0.140278
0.136107
0.132139
0.128362
0.124762
0.12133
0.118055
0.114926
0.111936
0.109076
0.106339
0.103717
0.101204
0.0987942
0.0964813
0.0942601
0.0921257
0.0900735
0.0880991
0.0861983
0.0843676
0.0826031
0.0809016
0.0792599
0.077675
0.0761442
0.0746647
0.0732342
0.0718502
0.0705105
0.069213
0.0679557
0.0667368
0.0655544
0.0644068
0.0632924
0.0622096
0.061157
0.0601332
0.0591368
0.0581666
0.0572213
0.0563
0.0554014
0.0545248
0.0536692
0.052834
0.0520186
0.0512228
0.0504466
0.0496903
0.0489552
0.0482429
0.0475564
0.0469002
0.0462809
0.0457079
0.0451949
0.0447609
0.0444325
0.0442462
0.961692
0.892184
0.829084
0.771728
0.719523
0.671944
0.628523
0.588843
0.552532
0.519258
0.488725
0.460668
0.434851
0.411061
0.389111
0.368829
0.350064
0.332678
0.316548
0.301565
0.287628
0.274648
0.262544
0.251242
0.240677
0.230788
0.221521
0.212827
0.204661
0.196983
0.189756
0.182946
0.176521
0.170455
0.164721
0.159296
0.154158
0.149288
0.144667
0.140279
0.136108
0.132141
0.128363
0.124764
0.121332
0.118056
0.114928
0.111938
0.109078
0.106341
0.103719
0.101206
0.0987962
0.0964833
0.0942622
0.0921279
0.0900758
0.0881015
0.0862009
0.0843702
0.0826058
0.0809044
0.0792628
0.077678
0.0761473
0.074668
0.0732375
0.0718537
0.0705141
0.0692167
0.0679596
0.0667408
0.0655585
0.0644111
0.0632968
0.0622142
0.0611617
0.0601381
0.0591418
0.0581718
0.0572268
0.0563056
0.0554072
0.0545308
0.0536754
0.0528404
0.0520252
0.0512296
0.0504535
0.0496975
0.0489625
0.0482504
0.0475641
0.046908
0.0462888
0.0457159
0.045203
0.044769
0.0444406
0.0442542
0.961692
0.892184
0.829084
0.771727
0.719523
0.671944
0.628523
0.588843
0.552532
0.519258
0.488725
0.460668
0.434851
0.411061
0.389111
0.368829
0.350064
0.332678
0.316549
0.301565
0.287629
0.274649
0.262544
0.251242
0.240677
0.230788
0.221521
0.212827
0.204662
0.196984
0.189757
0.182946
0.176522
0.170456
0.164722
0.159297
0.154159
0.149289
0.144668
0.14028
0.136109
0.132142
0.128364
0.124765
0.121333
0.118057
0.114929
0.111939
0.10908
0.106342
0.103721
0.101208
0.0987982
0.0964854
0.0942644
0.0921302
0.0900781
0.0881039
0.0862034
0.0843728
0.0826085
0.0809072
0.0792657
0.0776811
0.0761505
0.0746712
0.0732409
0.0718571
0.0705177
0.0692205
0.0679635
0.0667448
0.0655627
0.0644153
0.0633012
0.0622188
0.0611665
0.060143
0.0591469
0.0581771
0.0572322
0.0563112
0.0554131
0.0545368
0.0536816
0.0528468
0.0520318
0.0512364
0.0504605
0.0497047
0.0489699
0.0482579
0.0475718
0.0469158
0.0462967
0.045724
0.0452111
0.0447771
0.0444487
0.0442623
0.961692
0.892184
0.829084
0.771727
0.719523
0.671944
0.628523
0.588843
0.552532
0.519258
0.488725
0.460668
0.434851
0.411061
0.389111
0.368829
0.350064
0.332678
0.316549
0.301566
0.287629
0.274649
0.262544
0.251243
0.240677
0.230788
0.221522
0.212828
0.204662
0.196984
0.189757
0.182947
0.176523
0.170457
0.164723
0.159298
0.15416
0.14929
0.144669
0.140281
0.13611
0.132143
0.128366
0.124766
0.121334
0.118059
0.114931
0.111941
0.109081
0.106344
0.103723
0.10121
0.0988001
0.0964874
0.0942665
0.0921324
0.0900804
0.0881063
0.0862059
0.0843754
0.0826112
0.08091
0.0792686
0.0776841
0.0761536
0.0746745
0.0732443
0.0718606
0.0705213
0.0692242
0.0679673
0.0667488
0.0655668
0.0644196
0.0633057
0.0622233
0.0611712
0.0601479
0.059152
0.0581823
0.0572376
0.0563168
0.0554188
0.0545428
0.0536878
0.0528531
0.0520384
0.0512431
0.0504675
0.0497118
0.0489772
0.0482654
0.0475794
0.0469237
0.0463047
0.045732
0.0452192
0.0447852
0.0444568
0.0442704
0.961692
0.892184
0.829084
0.771727
0.719523
0.671944
0.628523
0.588843
0.552532
0.519258
0.488725
0.460668
0.434851
0.411062
0.389111
0.368829
0.350064
0.332678
0.316549
0.301566
0.287629
0.274649
0.262545
0.251243
0.240678
0.230789
0.221522
0.212828
0.204663
0.196985
0.189758
0.182948
0.176523
0.170457
0.164723
0.159299
0.154161
0.149291
0.14467
0.140282
0.136111
0.132144
0.128367
0.124768
0.121336
0.11806
0.114932
0.111942
0.109083
0.106346
0.103724
0.101212
0.0988021
0.0964895
0.0942686
0.0921346
0.0900827
0.0881087
0.0862084
0.0843779
0.0826139
0.0809128
0.0792715
0.0776871
0.0761567
0.0746777
0.0732476
0.0718641
0.0705249
0.0692279
0.0679712
0.0667528
0.0655709
0.0644239
0.06331
0.0622279
0.0611759
0.0601527
0.059157
0.0581875
0.057243
0.0563224
0.0554246
0.0545487
0.0536939
0.0528595
0.0520449
0.0512499
0.0504744
0.0497189
0.0489845
0.0482729
0.0475871
0.0469314
0.0463126
0.04574
0.0452272
0.0447933
0.0444649
0.0442785
0.961692
0.892184
0.829084
0.771727
0.719523
0.671944
0.628523
0.588843
0.552532
0.519258
0.488725
0.460668
0.434851
0.411062
0.389111
0.368829
0.350064
0.332678
0.316549
0.301566
0.287629
0.274649
0.262545
0.251243
0.240678
0.230789
0.221522
0.212829
0.204663
0.196986
0.189758
0.182948
0.176524
0.170458
0.164724
0.159299
0.154162
0.149292
0.144671
0.140283
0.136113
0.132145
0.128368
0.124769
0.121337
0.118062
0.114934
0.111944
0.109084
0.106348
0.103726
0.101214
0.098804
0.0964915
0.0942707
0.0921368
0.090085
0.088111
0.0862108
0.0843805
0.0826165
0.0809155
0.0792744
0.07769
0.0761597
0.0746809
0.0732509
0.0718675
0.0705284
0.0692316
0.0679749
0.0667567
0.0655749
0.0644281
0.0633144
0.0622324
0.0611806
0.0601575
0.059162
0.0581926
0.0572483
0.0563278
0.0554303
0.0545546
0.0537
0.0528657
0.0520513
0.0512565
0.0504812
0.049726
0.0489917
0.0482803
0.0475946
0.0469392
0.0463204
0.0457479
0.0452352
0.0448013
0.044473
0.0442865
0.961692
0.892184
0.829084
0.771727
0.719523
0.671944
0.628523
0.588843
0.552532
0.519258
0.488725
0.460668
0.434851
0.411062
0.389111
0.368829
0.350064
0.332678
0.316549
0.301566
0.287629
0.274649
0.262545
0.251244
0.240678
0.230789
0.221523
0.212829
0.204664
0.196986
0.189759
0.182949
0.176525
0.170459
0.164725
0.1593
0.154163
0.149293
0.144672
0.140284
0.136114
0.132146
0.128369
0.12477
0.121338
0.118063
0.114935
0.111945
0.109086
0.106349
0.103728
0.101215
0.0988059
0.0964935
0.0942728
0.0921389
0.0900872
0.0881134
0.0862132
0.084383
0.0826191
0.0809182
0.0792772
0.0776929
0.0761628
0.074684
0.0732541
0.0718708
0.0705319
0.0692352
0.0679787
0.0667605
0.0655789
0.0644322
0.0633187
0.0622368
0.0611851
0.0601623
0.0591669
0.0581977
0.0572535
0.0563333
0.0554359
0.0545604
0.0537059
0.0528719
0.0520577
0.0512631
0.050488
0.0497329
0.0489989
0.0482876
0.0476021
0.0469468
0.0463281
0.0457557
0.0452431
0.0448093
0.0444809
0.0442944
0.961692
0.892184
0.829084
0.771727
0.719523
0.671944
0.628523
0.588843
0.552532
0.519258
0.488725
0.460668
0.434851
0.411062
0.389111
0.368829
0.350064
0.332678
0.316549
0.301566
0.28763
0.27465
0.262545
0.251244
0.240678
0.23079
0.221523
0.212829
0.204664
0.196987
0.189759
0.182949
0.176525
0.170459
0.164726
0.159301
0.154163
0.149293
0.144673
0.140285
0.136115
0.132147
0.12837
0.124771
0.12134
0.118064
0.114936
0.111947
0.109088
0.106351
0.10373
0.101217
0.0988078
0.0964954
0.0942748
0.0921411
0.0900894
0.0881157
0.0862156
0.0843855
0.0826217
0.0809209
0.0792799
0.0776958
0.0761657
0.0746871
0.0732573
0.0718741
0.0705353
0.0692387
0.0679823
0.0667643
0.0655829
0.0644362
0.0633229
0.0622411
0.0611896
0.0601669
0.0591717
0.0582027
0.0572587
0.0563386
0.0554414
0.0545661
0.0537118
0.052878
0.052064
0.0512695
0.0504947
0.0497398
0.0490059
0.0482948
0.0476095
0.0469543
0.0463358
0.0457635
0.0452509
0.0448171
0.0444887
0.0443022
0.961692
0.892184
0.829084
0.771727
0.719523
0.671944
0.628523
0.588843
0.552532
0.519258
0.488725
0.460668
0.434851
0.411062
0.389111
0.36883
0.350064
0.332679
0.316549
0.301566
0.28763
0.27465
0.262546
0.251244
0.240679
0.23079
0.221523
0.21283
0.204665
0.196987
0.18976
0.18295
0.176526
0.17046
0.164726
0.159302
0.154164
0.149294
0.144674
0.140286
0.136116
0.132148
0.128371
0.124773
0.121341
0.118066
0.114938
0.111948
0.109089
0.106352
0.103731
0.101219
0.0988096
0.0964973
0.0942768
0.0921431
0.0900916
0.0881179
0.0862179
0.0843879
0.0826242
0.0809235
0.0792826
0.0776986
0.0761686
0.0746901
0.0732604
0.0718774
0.0705386
0.0692422
0.0679859
0.066768
0.0655867
0.0644402
0.063327
0.0622454
0.061194
0.0601715
0.0591764
0.0582075
0.0572637
0.0563438
0.0554467
0.0545716
0.0537176
0.0528839
0.0520701
0.0512759
0.0505012
0.0497465
0.0490128
0.0483019
0.0476167
0.0469616
0.0463432
0.045771
0.0452585
0.0448247
0.0444964
0.0443099
0.961692
0.892184
0.829084
0.771727
0.719523
0.671944
0.628523
0.588843
0.552532
0.519258
0.488725
0.460668
0.434851
0.411062
0.389111
0.36883
0.350064
0.332679
0.31655
0.301567
0.28763
0.27465
0.262546
0.251244
0.240679
0.23079
0.221524
0.21283
0.204665
0.196987
0.18976
0.18295
0.176526
0.170461
0.164727
0.159302
0.154165
0.149295
0.144675
0.140287
0.136117
0.13215
0.128373
0.124774
0.121342
0.118067
0.114939
0.11195
0.109091
0.106354
0.103733
0.101221
0.0988114
0.0964992
0.0942787
0.0921451
0.0900937
0.0881201
0.0862202
0.0843902
0.0826267
0.080926
0.0792853
0.0777013
0.0761715
0.074693
0.0732635
0.0718805
0.0705419
0.0692455
0.0679894
0.0667716
0.0655904
0.0644441
0.063331
0.0622495
0.0611983
0.0601759
0.059181
0.0582123
0.0572686
0.0563489
0.055452
0.0545771
0.0537232
0.0528897
0.0520761
0.051282
0.0505075
0.049753
0.0490195
0.0483088
0.0476237
0.0469688
0.0463506
0.0457784
0.045266
0.0448322
0.0445039
0.0443174
0.961692
0.892184
0.829084
0.771727
0.719522
0.671944
0.628523
0.588843
0.552532
0.519258
0.488725
0.460668
0.434851
0.411062
0.389111
0.36883
0.350064
0.332679
0.31655
0.301567
0.28763
0.27465
0.262546
0.251245
0.240679
0.230791
0.221524
0.212831
0.204665
0.196988
0.189761
0.182951
0.176527
0.170461
0.164728
0.159303
0.154166
0.149296
0.144676
0.140288
0.136118
0.132151
0.128374
0.124775
0.121343
0.118068
0.114941
0.111951
0.109092
0.106355
0.103734
0.101222
0.0988131
0.096501
0.0942806
0.0921471
0.0900957
0.0881222
0.0862224
0.0843925
0.082629
0.0809285
0.0792878
0.077704
0.0761742
0.0746959
0.0732664
0.0718836
0.0705451
0.0692488
0.0679928
0.0667752
0.0655941
0.0644479
0.0633349
0.0622536
0.0612025
0.0601802
0.0591855
0.0582169
0.0572734
0.0563538
0.0554571
0.0545823
0.0537287
0.0528954
0.0520819
0.0512881
0.0505137
0.0497594
0.0490261
0.0483155
0.0476306
0.0469758
0.0463577
0.0457857
0.0452733
0.0448396
0.0445112
0.0443247
0.961692
0.892184
0.829084
0.771727
0.719522
0.671944
0.628523
0.588843
0.552532
0.519258
0.488725
0.460668
0.434851
0.411062
0.389111
0.36883
0.350064
0.332679
0.31655
0.301567
0.28763
0.27465
0.262546
0.251245
0.24068
0.230791
0.221524
0.212831
0.204666
0.196988
0.189761
0.182951
0.176528
0.170462
0.164728
0.159304
0.154166
0.149297
0.144676
0.140289
0.136119
0.132151
0.128375
0.124776
0.121344
0.118069
0.114942
0.111953
0.109093
0.106357
0.103736
0.101224
0.0988148
0.0965027
0.0942824
0.092149
0.0900977
0.0881242
0.0862245
0.0843948
0.0826313
0.0809309
0.0792903
0.0777066
0.0761769
0.0746986
0.0732693
0.0718865
0.0705481
0.069252
0.0679961
0.0667786
0.0655976
0.0644515
0.0633386
0.0622575
0.0612065
0.0601844
0.0591898
0.0582214
0.057278
0.0563586
0.0554621
0.0545875
0.053734
0.0529008
0.0520876
0.0512939
0.0505197
0.0497656
0.0490324
0.048322
0.0476373
0.0469826
0.0463646
0.0457927
0.0452803
0.0448467
0.0445183
0.0443318
0.961692
0.892184
0.829084
0.771727
0.719522
0.671944
0.628523
0.588843
0.552532
0.519258
0.488725
0.460668
0.434851
0.411062
0.389111
0.36883
0.350065
0.332679
0.31655
0.301567
0.28763
0.274651
0.262546
0.251245
0.24068
0.230791
0.221525
0.212831
0.204666
0.196989
0.189762
0.182952
0.176528
0.170462
0.164729
0.159304
0.154167
0.149297
0.144677
0.14029
0.136119
0.132152
0.128376
0.124777
0.121345
0.118071
0.114943
0.111954
0.109095
0.106358
0.103737
0.101226
0.0988164
0.0965044
0.0942842
0.0921508
0.0900996
0.0881262
0.0862266
0.0843969
0.0826335
0.0809332
0.0792927
0.077709
0.0761795
0.0747013
0.0732721
0.0718894
0.0705511
0.0692551
0.0679993
0.0667819
0.065601
0.064455
0.0633423
0.0622613
0.0612104
0.0601885
0.059194
0.0582257
0.0572825
0.0563632
0.0554669
0.0545924
0.0537391
0.0529061
0.052093
0.0512995
0.0505256
0.0497716
0.0490386
0.0483283
0.0476437
0.0469892
0.0463713
0.0457995
0.0452872
0.0448536
0.0445252
0.0443386
0.961692
0.892184
0.829084
0.771727
0.719522
0.671944
0.628523
0.588843
0.552532
0.519258
0.488725
0.460668
0.434851
0.411062
0.389111
0.36883
0.350065
0.332679
0.31655
0.301567
0.287631
0.274651
0.262547
0.251245
0.24068
0.230791
0.221525
0.212832
0.204667
0.196989
0.189762