/*--------------------------------*- C++ -*----------------------------------*\
  =========                 |
  \\      /  F ield         | OpenFOAM: The Open Source CFD Toolbox
   \\    /   O peration     | Website:  https://openfoam.org
    \\  /    A nd           | Version:  11
     \\/     M anipulation  |
\*---------------------------------------------------------------------------*/
FoamFile
{
    format      ascii;
    class       volScalarField;
    location    "458";
    object      k;
}
// * * * * * * * * * * * * * * * * * * * * * * * * * * * * * * * * * * * * * //

dimensions      [0 2 -2 0 0 0 0];

internalField   nonuniform List<scalar> 
10000
(
0.000939686
0.000835714
0.000745883
0.000668023
0.000600325
0.00054128
0.00048962
0.000444285
0.00040438
0.000369149
0.000337954
0.000310254
0.000285587
0.00026356
0.000243839
0.000226134
0.000210199
0.000195821
0.000182816
0.000171024
0.000160309
0.000150548
0.000141639
0.000133488
0.000126017
0.000119154
0.000112839
0.000107015
0.000101635
9.66568e-05
9.20415e-05
8.77559e-05
8.37697e-05
8.00562e-05
7.65914e-05
7.33539e-05
7.03243e-05
6.74854e-05
6.48213e-05
6.23182e-05
5.99633e-05
5.7745e-05
5.56528e-05
5.36774e-05
5.18102e-05
5.00432e-05
4.83694e-05
4.67822e-05
4.52758e-05
4.38447e-05
4.2484e-05
4.11892e-05
3.99561e-05
3.8781e-05
3.76604e-05
3.65912e-05
3.55705e-05
3.45958e-05
3.36646e-05
3.27747e-05
3.19243e-05
3.11116e-05
3.03351e-05
2.95932e-05
2.88847e-05
2.82086e-05
2.75638e-05
2.69495e-05
2.6365e-05
2.58095e-05
2.52825e-05
2.47834e-05
2.43119e-05
2.38674e-05
2.34496e-05
2.30581e-05
2.26925e-05
2.23522e-05
2.20368e-05
2.17458e-05
2.14785e-05
2.12342e-05
2.10121e-05
2.08113e-05
2.0631e-05
2.047e-05
2.03273e-05
2.02017e-05
2.00919e-05
1.99965e-05
1.99142e-05
1.98437e-05
1.97836e-05
1.97329e-05
1.96901e-05
1.96545e-05
1.96249e-05
1.96009e-05
1.95828e-05
1.95712e-05
0.000939686
0.000835715
0.000745883
0.000668023
0.000600326
0.00054128
0.000489621
0.000444286
0.00040438
0.000369149
0.000337954
0.000310254
0.000285587
0.000263561
0.000243839
0.000226134
0.000210199
0.000195821
0.000182816
0.000171025
0.000160309
0.000150548
0.000141639
0.000133489
0.000126017
0.000119155
0.000112839
0.000107015
0.000101636
9.66571e-05
9.20418e-05
8.77562e-05
8.377e-05
8.00565e-05
7.65918e-05
7.33543e-05
7.03247e-05
6.74857e-05
6.48217e-05
6.23186e-05
5.99636e-05
5.77453e-05
5.56532e-05
5.36779e-05
5.18106e-05
5.00436e-05
4.83698e-05
4.67827e-05
4.52763e-05
4.38452e-05
4.24845e-05
4.11897e-05
3.99566e-05
3.87815e-05
3.7661e-05
3.65918e-05
3.55711e-05
3.45964e-05
3.36652e-05
3.27754e-05
3.1925e-05
3.11124e-05
3.03358e-05
2.95939e-05
2.88855e-05
2.82094e-05
2.75646e-05
2.69503e-05
2.63658e-05
2.58103e-05
2.52833e-05
2.47843e-05
2.43127e-05
2.38683e-05
2.34505e-05
2.30589e-05
2.26933e-05
2.2353e-05
2.20376e-05
2.17466e-05
2.14792e-05
2.12349e-05
2.10128e-05
2.0812e-05
2.06317e-05
2.04707e-05
2.03279e-05
2.02022e-05
2.00923e-05
1.99968e-05
1.99144e-05
1.98438e-05
1.97837e-05
1.97329e-05
1.96902e-05
1.96544e-05
1.96249e-05
1.96009e-05
1.95827e-05
1.95712e-05
0.000939686
0.000835715
0.000745884
0.000668023
0.000600326
0.00054128
0.000489621
0.000444286
0.00040438
0.00036915
0.000337955
0.000310254
0.000285587
0.000263561
0.000243839
0.000226135
0.0002102
0.000195822
0.000182817
0.000171025
0.000160309
0.000150549
0.000141639
0.000133489
0.000126018
0.000119155
0.000112839
0.000107016
0.000101636
9.66576e-05
9.20424e-05
8.77567e-05
8.37706e-05
8.00571e-05
7.65924e-05
7.33549e-05
7.03253e-05
6.74863e-05
6.48224e-05
6.23193e-05
5.99643e-05
5.7746e-05
5.5654e-05
5.36786e-05
5.18113e-05
5.00444e-05
4.83706e-05
4.67835e-05
4.52771e-05
4.3846e-05
4.24854e-05
4.11906e-05
3.99575e-05
3.87825e-05
3.76619e-05
3.65928e-05
3.55721e-05
3.45974e-05
3.36662e-05
3.27764e-05
3.19261e-05
3.11134e-05
3.03369e-05
2.9595e-05
2.88866e-05
2.82105e-05
2.75658e-05
2.69515e-05
2.63669e-05
2.58114e-05
2.52844e-05
2.47853e-05
2.43138e-05
2.38693e-05
2.34515e-05
2.30599e-05
2.26942e-05
2.23539e-05
2.20384e-05
2.17473e-05
2.14799e-05
2.12356e-05
2.10134e-05
2.08126e-05
2.06322e-05
2.04711e-05
2.03283e-05
2.02025e-05
2.00925e-05
1.99969e-05
1.99144e-05
1.98438e-05
1.97837e-05
1.97328e-05
1.96901e-05
1.96543e-05
1.96248e-05
1.96009e-05
1.95827e-05
1.95711e-05
0.000939686
0.000835715
0.000745884
0.000668024
0.000600326
0.000541281
0.000489622
0.000444287
0.000404381
0.00036915
0.000337956
0.000310255
0.000285588
0.000263562
0.00024384
0.000226136
0.000210201
0.000195823
0.000182817
0.000171026
0.00016031
0.00015055
0.00014164
0.00013349
0.000126019
0.000119156
0.00011284
0.000107017
0.000101637
9.66585e-05
9.20433e-05
8.77576e-05
8.37715e-05
8.0058e-05
7.65933e-05
7.33558e-05
7.03262e-05
6.74873e-05
6.48233e-05
6.23203e-05
5.99654e-05
5.77471e-05
5.5655e-05
5.36797e-05
5.18124e-05
5.00455e-05
4.83717e-05
4.67847e-05
4.52783e-05
4.38473e-05
4.24866e-05
4.11919e-05
3.99588e-05
3.87838e-05
3.76633e-05
3.65941e-05
3.55735e-05
3.45988e-05
3.36677e-05
3.27779e-05
3.19276e-05
3.11149e-05
3.03384e-05
2.95965e-05
2.88881e-05
2.8212e-05
2.75673e-05
2.6953e-05
2.63684e-05
2.58129e-05
2.52859e-05
2.47868e-05
2.43152e-05
2.38706e-05
2.34527e-05
2.30611e-05
2.26953e-05
2.23549e-05
2.20394e-05
2.17482e-05
2.14808e-05
2.12363e-05
2.10141e-05
2.08132e-05
2.06327e-05
2.04715e-05
2.03286e-05
2.02027e-05
2.00926e-05
1.99969e-05
1.99144e-05
1.98437e-05
1.97835e-05
1.97326e-05
1.96899e-05
1.96542e-05
1.96246e-05
1.96007e-05
1.95825e-05
1.9571e-05
0.000939686
0.000835715
0.000745884
0.000668024
0.000600327
0.000541281
0.000489622
0.000444287
0.000404382
0.000369151
0.000337956
0.000310256
0.000285589
0.000263563
0.000243841
0.000226136
0.000210202
0.000195824
0.000182818
0.000171027
0.000160311
0.000150551
0.000141641
0.000133491
0.00012602
0.000119157
0.000112841
0.000107018
0.000101638
9.66596e-05
9.20444e-05
8.77587e-05
8.37726e-05
8.00592e-05
7.65945e-05
7.3357e-05
7.03275e-05
6.74885e-05
6.48246e-05
6.23216e-05
5.99667e-05
5.77484e-05
5.56564e-05
5.36811e-05
5.18139e-05
5.0047e-05
4.83732e-05
4.67862e-05
4.52799e-05
4.38489e-05
4.24882e-05
4.11935e-05
3.99605e-05
3.87855e-05
3.7665e-05
3.65959e-05
3.55753e-05
3.46007e-05
3.36695e-05
3.27798e-05
3.19295e-05
3.11169e-05
3.03403e-05
2.95985e-05
2.88901e-05
2.8214e-05
2.75692e-05
2.69549e-05
2.63703e-05
2.58148e-05
2.52877e-05
2.47886e-05
2.43169e-05
2.38723e-05
2.34544e-05
2.30626e-05
2.26967e-05
2.23562e-05
2.20406e-05
2.17493e-05
2.14817e-05
2.12371e-05
2.10148e-05
2.08138e-05
2.06332e-05
2.04719e-05
2.03289e-05
2.02029e-05
2.00926e-05
1.99969e-05
1.99142e-05
1.98435e-05
1.97833e-05
1.97324e-05
1.96896e-05
1.96539e-05
1.96244e-05
1.96005e-05
1.95823e-05
1.95707e-05
0.000939686
0.000835715
0.000745884
0.000668024
0.000600327
0.000541282
0.000489623
0.000444288
0.000404383
0.000369152
0.000337957
0.000310257
0.00028559
0.000263564
0.000243842
0.000226138
0.000210203
0.000195825
0.000182819
0.000171028
0.000160312
0.000150552
0.000141642
0.000133492
0.000126021
0.000119158
0.000112843
0.000107019
0.000101639
9.66609e-05
9.20457e-05
8.77601e-05
8.3774e-05
8.00606e-05
7.65959e-05
7.33585e-05
7.0329e-05
6.74901e-05
6.48262e-05
6.23231e-05
5.99683e-05
5.77501e-05
5.56581e-05
5.36828e-05
5.18156e-05
5.00488e-05
4.83751e-05
4.67881e-05
4.52818e-05
4.38508e-05
4.24902e-05
4.11955e-05
3.99626e-05
3.87876e-05
3.76672e-05
3.65981e-05
3.55776e-05
3.46029e-05
3.36718e-05
3.27821e-05
3.19318e-05
3.11192e-05
3.03427e-05
2.96009e-05
2.88925e-05
2.82164e-05
2.75716e-05
2.69573e-05
2.63727e-05
2.58171e-05
2.529e-05
2.47908e-05
2.4319e-05
2.38743e-05
2.34563e-05
2.30644e-05
2.26984e-05
2.23578e-05
2.2042e-05
2.17506e-05
2.14828e-05
2.12381e-05
2.10156e-05
2.08145e-05
2.06337e-05
2.04723e-05
2.03291e-05
2.0203e-05
2.00926e-05
1.99967e-05
1.9914e-05
1.98432e-05
1.9783e-05
1.9732e-05
1.96893e-05
1.96535e-05
1.9624e-05
1.96001e-05
1.95819e-05
1.95704e-05
0.000939686
0.000835715
0.000745885
0.000668025
0.000600328
0.000541282
0.000489624
0.000444289
0.000404384
0.000369153
0.000337958
0.000310258
0.000285591
0.000263565
0.000243843
0.000226139
0.000210204
0.000195826
0.000182821
0.000171029
0.000160314
0.000150553
0.000141644
0.000133493
0.000126022
0.00011916
0.000112844
0.00010702
0.000101641
9.66624e-05
9.20473e-05
8.77617e-05
8.37756e-05
8.00622e-05
7.65976e-05
7.33602e-05
7.03307e-05
6.74919e-05
6.4828e-05
6.2325e-05
5.99702e-05
5.7752e-05
5.56601e-05
5.36848e-05
5.18177e-05
5.00509e-05
4.83772e-05
4.67903e-05
4.5284e-05
4.38531e-05
4.24926e-05
4.11979e-05
3.9965e-05
3.87901e-05
3.76697e-05
3.66007e-05
3.55802e-05
3.46056e-05
3.36745e-05
3.27849e-05
3.19346e-05
3.1122e-05
3.03455e-05
2.96037e-05
2.88953e-05
2.82192e-05
2.75744e-05
2.69601e-05
2.63754e-05
2.58198e-05
2.52926e-05
2.47933e-05
2.43215e-05
2.38767e-05
2.34585e-05
2.30665e-05
2.27004e-05
2.23596e-05
2.20436e-05
2.1752e-05
2.14841e-05
2.12392e-05
2.10165e-05
2.08152e-05
2.06342e-05
2.04727e-05
2.03293e-05
2.02031e-05
2.00926e-05
1.99966e-05
1.99138e-05
1.98429e-05
1.97826e-05
1.97316e-05
1.96888e-05
1.96531e-05
1.96235e-05
1.95997e-05
1.95815e-05
1.95699e-05
0.000939686
0.000835715
0.000745885
0.000668025
0.000600328
0.000541283
0.000489624
0.00044429
0.000404384
0.000369154
0.000337959
0.000310259
0.000285592
0.000263566
0.000243845
0.00022614
0.000210205
0.000195827
0.000182822
0.000171031
0.000160315
0.000150555
0.000141645
0.000133495
0.000126024
0.000119161
0.000112846
0.000107022
0.000101643
9.66642e-05
9.20491e-05
8.77635e-05
8.37775e-05
8.00641e-05
7.65995e-05
7.33621e-05
7.03327e-05
6.74939e-05
6.48301e-05
6.23271e-05
5.99724e-05
5.77542e-05
5.56623e-05
5.36871e-05
5.18201e-05
5.00533e-05
4.83797e-05
4.67928e-05
4.52866e-05
4.38557e-05
4.24953e-05
4.12007e-05
3.99678e-05
3.8793e-05
3.76726e-05
3.66036e-05
3.55832e-05
3.46086e-05
3.36776e-05
3.2788e-05
3.19378e-05
3.11252e-05
3.03487e-05
2.96069e-05
2.88985e-05
2.82224e-05
2.75776e-05
2.69633e-05
2.63786e-05
2.58229e-05
2.52956e-05
2.47962e-05
2.43243e-05
2.38793e-05
2.3461e-05
2.30689e-05
2.27026e-05
2.23616e-05
2.20454e-05
2.17536e-05
2.14855e-05
2.12404e-05
2.10175e-05
2.08159e-05
2.06348e-05
2.0473e-05
2.03295e-05
2.02031e-05
2.00924e-05
1.99963e-05
1.99134e-05
1.98424e-05
1.97821e-05
1.97311e-05
1.96882e-05
1.96525e-05
1.9623e-05
1.95991e-05
1.95809e-05
1.95692e-05
0.000939686
0.000835715
0.000745885
0.000668026
0.000600329
0.000541284
0.000489625
0.00044429
0.000404385
0.000369155
0.000337961
0.00031026
0.000285594
0.000263567
0.000243846
0.000226142
0.000210207
0.000195829
0.000182824
0.000171032
0.000160317
0.000150556
0.000141647
0.000133497
0.000126026
0.000119163
0.000112848
0.000107024
0.000101644
9.66661e-05
9.2051e-05
8.77655e-05
8.37795e-05
8.00662e-05
7.66017e-05
7.33643e-05
7.03349e-05
6.74962e-05
6.48324e-05
6.23295e-05
5.99748e-05
5.77567e-05
5.56649e-05
5.36897e-05
5.18227e-05
5.0056e-05
4.83825e-05
4.67956e-05
4.52895e-05
4.38587e-05
4.24983e-05
4.12038e-05
3.9971e-05
3.87961e-05
3.76759e-05
3.66069e-05
3.55866e-05
3.46121e-05
3.36811e-05
3.27915e-05
3.19413e-05
3.11288e-05
3.03523e-05
2.96105e-05
2.89022e-05
2.8226e-05
2.75812e-05
2.69668e-05
2.6382e-05
2.58263e-05
2.52989e-05
2.47994e-05
2.43274e-05
2.38823e-05
2.34638e-05
2.30715e-05
2.2705e-05
2.23638e-05
2.20474e-05
2.17554e-05
2.1487e-05
2.12416e-05
2.10185e-05
2.08167e-05
2.06354e-05
2.04734e-05
2.03297e-05
2.02031e-05
2.00922e-05
1.9996e-05
1.9913e-05
1.98419e-05
1.97815e-05
1.97304e-05
1.96876e-05
1.96518e-05
1.96222e-05
1.95983e-05
1.95801e-05
1.95684e-05
0.000939686
0.000835716
0.000745885
0.000668026
0.000600329
0.000541284
0.000489626
0.000444291
0.000404386
0.000369156
0.000337962
0.000310262
0.000285595
0.000263569
0.000243847
0.000226143
0.000210208
0.00019583
0.000182825
0.000171034
0.000160318
0.000150558
0.000141649
0.000133499
0.000126028
0.000119165
0.000112849
0.000107026
0.000101647
9.66682e-05
9.20532e-05
8.77677e-05
8.37818e-05
8.00685e-05
7.6604e-05
7.33667e-05
7.03374e-05
6.74987e-05
6.48349e-05
6.23321e-05
5.99774e-05
5.77594e-05
5.56676e-05
5.36926e-05
5.18256e-05
5.0059e-05
4.83855e-05
4.67987e-05
4.52927e-05
4.38619e-05
4.25016e-05
4.12071e-05
3.99744e-05
3.87997e-05
3.76794e-05
3.66106e-05
3.55903e-05
3.46158e-05
3.36849e-05
3.27953e-05
3.19452e-05
3.11327e-05
3.03563e-05
2.96145e-05
2.89061e-05
2.823e-05
2.75851e-05
2.69707e-05
2.63859e-05
2.583e-05
2.53025e-05
2.48029e-05
2.43307e-05
2.38855e-05
2.34669e-05
2.30744e-05
2.27076e-05
2.23662e-05
2.20496e-05
2.17573e-05
2.14886e-05
2.1243e-05
2.10196e-05
2.08176e-05
2.0636e-05
2.04738e-05
2.03298e-05
2.0203e-05
2.0092e-05
1.99956e-05
1.99124e-05
1.98413e-05
1.97808e-05
1.97296e-05
1.96867e-05
1.9651e-05
1.96214e-05
1.95975e-05
1.95792e-05
1.95675e-05
0.000939686
0.000835716
0.000745886
0.000668026
0.00060033
0.000541285
0.000489627
0.000444292
0.000404387
0.000369157
0.000337963
0.000310263
0.000285596
0.00026357
0.000243849
0.000226145
0.00021021
0.000195832
0.000182827
0.000171036
0.00016032
0.00015056
0.000141651
0.000133501
0.00012603
0.000119167
0.000112852
0.000107028
0.000101649
9.66705e-05
9.20555e-05
8.77701e-05
8.37842e-05
8.0071e-05
7.66065e-05
7.33693e-05
7.034e-05
6.75014e-05
6.48377e-05
6.23349e-05
5.99803e-05
5.77624e-05
5.56706e-05
5.36956e-05
5.18288e-05
5.00622e-05
4.83888e-05
4.68021e-05
4.52961e-05
4.38654e-05
4.25052e-05
4.12108e-05
3.99781e-05
3.88035e-05
3.76833e-05
3.66145e-05
3.55943e-05
3.46199e-05
3.3689e-05
3.27995e-05
3.19494e-05
3.1137e-05
3.03606e-05
2.96188e-05
2.89104e-05
2.82343e-05
2.75894e-05
2.69749e-05
2.639e-05
2.58341e-05
2.53065e-05
2.48068e-05
2.43344e-05
2.3889e-05
2.34701e-05
2.30774e-05
2.27104e-05
2.23688e-05
2.20519e-05
2.17593e-05
2.14904e-05
2.12445e-05
2.10208e-05
2.08185e-05
2.06366e-05
2.04741e-05
2.03299e-05
2.02029e-05
2.00917e-05
1.99951e-05
1.99118e-05
1.98405e-05
1.97799e-05
1.97287e-05
1.96858e-05
1.965e-05
1.96204e-05
1.95964e-05
1.95782e-05
1.95664e-05
0.000939686
0.000835716
0.000745886
0.000668027
0.00060033
0.000541285
0.000489627
0.000444293
0.000404388
0.000369158
0.000337964
0.000310264
0.000285598
0.000263572
0.00024385
0.000226146
0.000210212
0.000195834
0.000182829
0.000171038
0.000160322
0.000150562
0.000141653
0.000133503
0.000126032
0.000119169
0.000112854
0.000107031
0.000101651
9.66729e-05
9.20579e-05
8.77726e-05
8.37867e-05
8.00736e-05
7.66092e-05
7.3372e-05
7.03428e-05
6.75042e-05
6.48406e-05
6.23379e-05
5.99834e-05
5.77655e-05
5.56739e-05
5.36989e-05
5.18321e-05
5.00656e-05
4.83923e-05
4.68057e-05
4.52998e-05
4.38692e-05
4.2509e-05
4.12147e-05
3.99822e-05
3.88076e-05
3.76875e-05
3.66188e-05
3.55986e-05
3.46243e-05
3.36935e-05
3.2804e-05
3.1954e-05
3.11415e-05
3.03652e-05
2.96234e-05
2.8915e-05
2.82389e-05
2.75939e-05
2.69794e-05
2.63944e-05
2.58384e-05
2.53107e-05
2.48108e-05
2.43383e-05
2.38927e-05
2.34737e-05
2.30807e-05
2.27135e-05
2.23715e-05
2.20544e-05
2.17615e-05
2.14922e-05
2.1246e-05
2.1022e-05
2.08194e-05
2.06372e-05
2.04745e-05
2.033e-05
2.02027e-05
2.00913e-05
1.99946e-05
1.99111e-05
1.98397e-05
1.9779e-05
1.97277e-05
1.96847e-05
1.96488e-05
1.96192e-05
1.95953e-05
1.9577e-05
1.95652e-05
0.000939686
0.000835716
0.000745886
0.000668027
0.00060033
0.000541286
0.000489628
0.000444294
0.000404389
0.000369159
0.000337965
0.000310265
0.000285599
0.000263573
0.000243852
0.000226148
0.000210213
0.000195836
0.000182831
0.00017104
0.000160324
0.000150564
0.000141655
0.000133505
0.000126034
0.000119172
0.000112856
0.000107033
0.000101654
9.66754e-05
9.20605e-05
8.77752e-05
8.37894e-05
8.00763e-05
7.6612e-05
7.33749e-05
7.03458e-05
6.75072e-05
6.48437e-05
6.23411e-05
5.99866e-05
5.77688e-05
5.56773e-05
5.37024e-05
5.18357e-05
5.00693e-05
4.83961e-05
4.68095e-05
4.53037e-05
4.38732e-05
4.25131e-05
4.12189e-05
3.99864e-05
3.88119e-05
3.76919e-05
3.66233e-05
3.56031e-05
3.46289e-05
3.36982e-05
3.28088e-05
3.19588e-05
3.11464e-05
3.037e-05
2.96283e-05
2.89199e-05
2.82437e-05
2.75988e-05
2.69842e-05
2.63991e-05
2.5843e-05
2.53152e-05
2.48151e-05
2.43425e-05
2.38967e-05
2.34774e-05
2.30842e-05
2.27167e-05
2.23744e-05
2.20569e-05
2.17637e-05
2.14942e-05
2.12476e-05
2.10233e-05
2.08204e-05
2.06379e-05
2.04748e-05
2.03301e-05
2.02025e-05
2.00909e-05
1.99939e-05
1.99103e-05
1.98387e-05
1.97779e-05
1.97266e-05
1.96835e-05
1.96476e-05
1.96179e-05
1.95939e-05
1.95756e-05
1.95638e-05
0.000939686
0.000835716
0.000745886
0.000668027
0.000600331
0.000541286
0.000489628
0.000444294
0.00040439
0.00036916
0.000337966
0.000310267
0.0002856
0.000263575
0.000243854
0.000226149
0.000210215
0.000195837
0.000182833
0.000171042
0.000160326
0.000150566
0.000141657
0.000133507
0.000126036
0.000119174
0.000112859
0.000107035
0.000101656
9.6678e-05
9.20632e-05
8.77779e-05
8.37922e-05
8.00792e-05
7.66149e-05
7.33779e-05
7.03489e-05
6.75104e-05
6.4847e-05
6.23444e-05
5.999e-05
5.77723e-05
5.56808e-05
5.37061e-05
5.18394e-05
5.00731e-05
4.84e-05
4.68135e-05
4.53078e-05
4.38774e-05
4.25174e-05
4.12233e-05
3.99909e-05
3.88165e-05
3.76966e-05
3.6628e-05
3.5608e-05
3.46338e-05
3.37031e-05
3.28138e-05
3.19638e-05
3.11515e-05
3.03752e-05
2.96334e-05
2.8925e-05
2.82488e-05
2.76038e-05
2.69892e-05
2.64041e-05
2.58478e-05
2.53199e-05
2.48197e-05
2.43468e-05
2.39008e-05
2.34813e-05
2.30878e-05
2.272e-05
2.23774e-05
2.20597e-05
2.17661e-05
2.14962e-05
2.12493e-05
2.10246e-05
2.08213e-05
2.06385e-05
2.04751e-05
2.03301e-05
2.02023e-05
2.00904e-05
1.99932e-05
1.99094e-05
1.98377e-05
1.97767e-05
1.97253e-05
1.96821e-05
1.96462e-05
1.96165e-05
1.95924e-05
1.95741e-05
1.95623e-05
0.000939687
0.000835716
0.000745886
0.000668027
0.000600331
0.000541287
0.000489629
0.000444295
0.000404391
0.000369161
0.000337967
0.000310268
0.000285602
0.000263576
0.000243855
0.000226151
0.000210217
0.000195839
0.000182835
0.000171044
0.000160328
0.000150568
0.000141659
0.000133509
0.000126039
0.000119176
0.000112861
0.000107038
0.000101659
9.66807e-05
9.20659e-05
8.77808e-05
8.37951e-05
8.00822e-05
7.6618e-05
7.33811e-05
7.03521e-05
6.75137e-05
6.48503e-05
6.23479e-05
5.99936e-05
5.7776e-05
5.56845e-05
5.37099e-05
5.18433e-05
5.00771e-05
4.84041e-05
4.68177e-05
4.53121e-05
4.38818e-05
4.25219e-05
4.12279e-05
3.99956e-05
3.88212e-05
3.77014e-05
3.6633e-05
3.5613e-05
3.46389e-05
3.37083e-05
3.2819e-05
3.19691e-05
3.11568e-05
3.03805e-05
2.96388e-05
2.89304e-05
2.82542e-05
2.76092e-05
2.69944e-05
2.64092e-05
2.58529e-05
2.53248e-05
2.48244e-05
2.43513e-05
2.39051e-05
2.34853e-05
2.30916e-05
2.27235e-05
2.23806e-05
2.20625e-05
2.17686e-05
2.14983e-05
2.1251e-05
2.1026e-05
2.08223e-05
2.06392e-05
2.04755e-05
2.03301e-05
2.0202e-05
2.00899e-05
1.99925e-05
1.99085e-05
1.98366e-05
1.97755e-05
1.97239e-05
1.96806e-05
1.96446e-05
1.96148e-05
1.95908e-05
1.95725e-05
1.95606e-05
0.000939687
0.000835716
0.000745886
0.000668028
0.000600332
0.000541287
0.00048963
0.000444296
0.000404392
0.000369162
0.000337968
0.000310269
0.000285603
0.000263577
0.000243857
0.000226153
0.000210219
0.000195841
0.000182836
0.000171046
0.00016033
0.000150571
0.000141661
0.000133512
0.000126041
0.000119179
0.000112864
0.000107041
0.000101661
9.66835e-05
9.20688e-05
8.77837e-05
8.37981e-05
8.00853e-05
7.66212e-05
7.33843e-05
7.03554e-05
6.75171e-05
6.48538e-05
6.23514e-05
5.99972e-05
5.77797e-05
5.56884e-05
5.37138e-05
5.18474e-05
5.00813e-05
4.84083e-05
4.68221e-05
4.53165e-05
4.38863e-05
4.25265e-05
4.12326e-05
4.00004e-05
3.88262e-05
3.77065e-05
3.66381e-05
3.56182e-05
3.46442e-05
3.37137e-05
3.28245e-05
3.19746e-05
3.11624e-05
3.03861e-05
2.96444e-05
2.8936e-05
2.82597e-05
2.76147e-05
2.69999e-05
2.64145e-05
2.58581e-05
2.53298e-05
2.48293e-05
2.4356e-05
2.39096e-05
2.34895e-05
2.30955e-05
2.27271e-05
2.23839e-05
2.20654e-05
2.17711e-05
2.15005e-05
2.12528e-05
2.10274e-05
2.08234e-05
2.06398e-05
2.04758e-05
2.03301e-05
2.02017e-05
2.00893e-05
1.99916e-05
1.99074e-05
1.98353e-05
1.97741e-05
1.97224e-05
1.9679e-05
1.96429e-05
1.96131e-05
1.9589e-05
1.95707e-05
1.95588e-05
0.000939687
0.000835716
0.000745887
0.000668028
0.000600332
0.000541288
0.00048963
0.000444297
0.000404392
0.000369163
0.000337969
0.00031027
0.000285604
0.000263579
0.000243858
0.000226154
0.00021022
0.000195843
0.000182838
0.000171048
0.000160332
0.000150573
0.000141664
0.000133514
0.000126043
0.000119181
0.000112866
0.000107043
0.000101664
9.66863e-05
9.20717e-05
8.77867e-05
8.38012e-05
8.00884e-05
7.66244e-05
7.33876e-05
7.03588e-05
6.75206e-05
6.48574e-05
6.23551e-05
6.0001e-05
5.77836e-05
5.56924e-05
5.37179e-05
5.18516e-05
5.00855e-05
4.84127e-05
4.68265e-05
4.53211e-05
4.3891e-05
4.25313e-05
4.12375e-05
4.00054e-05
3.88313e-05
3.77117e-05
3.66434e-05
3.56236e-05
3.46497e-05
3.37192e-05
3.28301e-05
3.19803e-05
3.11681e-05
3.03918e-05
2.96501e-05
2.89417e-05
2.82655e-05
2.76203e-05
2.70055e-05
2.64201e-05
2.58635e-05
2.53351e-05
2.48344e-05
2.43609e-05
2.39142e-05
2.34938e-05
2.30995e-05
2.27308e-05
2.23872e-05
2.20684e-05
2.17737e-05
2.15027e-05
2.12546e-05
2.10288e-05
2.08244e-05
2.06405e-05
2.04761e-05
2.03301e-05
2.02013e-05
2.00886e-05
1.99907e-05
1.99063e-05
1.9834e-05
1.97726e-05
1.97207e-05
1.96773e-05
1.96411e-05
1.96112e-05
1.95871e-05
1.95687e-05
1.95568e-05
0.000939687
0.000835716
0.000745887
0.000668028
0.000600332
0.000541288
0.000489631
0.000444297
0.000404393
0.000369164
0.00033797
0.000310271
0.000285605
0.00026358
0.00024386
0.000226156
0.000210222
0.000195845
0.00018284
0.00017105
0.000160334
0.000150575
0.000141666
0.000133516
0.000126046
0.000119184
0.000112869
0.000107046
0.000101667
9.66891e-05
9.20746e-05
8.77897e-05
8.38043e-05
8.00916e-05
7.66277e-05
7.3391e-05
7.03623e-05
6.75241e-05
6.4861e-05
6.23589e-05
6.00049e-05
5.77875e-05
5.56964e-05
5.3722e-05
5.18558e-05
5.00899e-05
4.84172e-05
4.68311e-05
4.53258e-05
4.38958e-05
4.25363e-05
4.12425e-05
4.00105e-05
3.88365e-05
3.7717e-05
3.66488e-05
3.56291e-05
3.46553e-05
3.37249e-05
3.28358e-05
3.19861e-05
3.11739e-05
3.03977e-05
2.9656e-05
2.89476e-05
2.82713e-05
2.76262e-05
2.70112e-05
2.64257e-05
2.5869e-05
2.53404e-05
2.48395e-05
2.43658e-05
2.39189e-05
2.34983e-05
2.31036e-05
2.27346e-05
2.23907e-05
2.20714e-05
2.17764e-05
2.1505e-05
2.12565e-05
2.10303e-05
2.08254e-05
2.06411e-05
2.04763e-05
2.033e-05
2.02009e-05
2.00879e-05
1.99897e-05
1.99051e-05
1.98326e-05
1.9771e-05
1.9719e-05
1.96754e-05
1.96392e-05
1.96092e-05
1.9585e-05
1.95666e-05
1.95547e-05
0.000939687
0.000835716
0.000745887
0.000668028
0.000600332
0.000541289
0.000489631
0.000444298
0.000404394
0.000369165
0.000337971
0.000310272
0.000285607
0.000263581
0.000243861
0.000226157
0.000210224
0.000195846
0.000182842
0.000171052
0.000160337
0.000150577
0.000141668
0.000133519
0.000126048
0.000119186
0.000112871
0.000107049
0.00010167
9.6692e-05
9.20776e-05
8.77927e-05
8.38074e-05
8.00948e-05
7.6631e-05
7.33944e-05
7.03658e-05
6.75278e-05
6.48648e-05
6.23627e-05
6.00088e-05
5.77916e-05
5.57005e-05
5.37263e-05
5.18602e-05
5.00944e-05
4.84217e-05
4.68358e-05
4.53306e-05
4.39007e-05
4.25413e-05
4.12477e-05
4.00158e-05
3.88419e-05
3.77224e-05
3.66544e-05
3.56348e-05
3.4661e-05
3.37307e-05
3.28417e-05
3.1992e-05
3.11799e-05
3.04037e-05
2.96621e-05
2.89536e-05
2.82773e-05
2.76321e-05
2.70171e-05
2.64315e-05
2.58746e-05
2.53459e-05
2.48448e-05
2.43709e-05
2.39237e-05
2.35028e-05
2.31078e-05
2.27384e-05
2.23942e-05
2.20745e-05
2.17791e-05
2.15073e-05
2.12584e-05
2.10317e-05
2.08265e-05
2.06418e-05
2.04766e-05
2.03299e-05
2.02005e-05
2.00872e-05
1.99887e-05
1.99038e-05
1.98311e-05
1.97693e-05
1.97172e-05
1.96735e-05
1.96371e-05
1.96071e-05
1.95828e-05
1.95644e-05
1.95525e-05
0.000939687
0.000835716
0.000745887
0.000668028
0.000600333
0.000541289
0.000489632
0.000444298
0.000404395
0.000369166
0.000337972
0.000310273
0.000285608
0.000263583
0.000243862
0.000226159
0.000210225
0.000195848
0.000182844
0.000171053
0.000160339
0.000150579
0.00014167
0.000133521
0.000126051
0.000119189
0.000112874
0.000107051
0.000101672
9.66949e-05
9.20806e-05
8.77958e-05
8.38106e-05
8.00981e-05
7.66344e-05
7.33979e-05
7.03693e-05
6.75314e-05
6.48685e-05
6.23665e-05
6.00128e-05
5.77956e-05
5.57047e-05
5.37306e-05
5.18646e-05
5.00989e-05
4.84264e-05
4.68405e-05
4.53355e-05
4.39057e-05
4.25464e-05
4.12529e-05
4.00211e-05
3.88473e-05
3.7728e-05
3.666e-05
3.56405e-05
3.46668e-05
3.37366e-05
3.28477e-05
3.19981e-05
3.1186e-05
3.04098e-05
2.96682e-05
2.89598e-05
2.82834e-05
2.76381e-05
2.7023e-05
2.64373e-05
2.58803e-05
2.53515e-05
2.48502e-05
2.4376e-05
2.39286e-05
2.35074e-05
2.31121e-05
2.27424e-05
2.23977e-05
2.20777e-05
2.17819e-05
2.15096e-05
2.12603e-05
2.10332e-05
2.08275e-05
2.06424e-05
2.04769e-05
2.03298e-05
2.02e-05
2.00864e-05
1.99876e-05
1.99024e-05
1.98295e-05
1.97675e-05
1.97153e-05
1.96714e-05
1.96349e-05
1.96048e-05
1.95805e-05
1.9562e-05
1.95501e-05
0.000939687
0.000835717
0.000745887
0.000668029
0.000600333
0.000541289
0.000489632
0.000444299
0.000404395
0.000369166
0.000337973
0.000310274
0.000285609
0.000263584
0.000243864
0.00022616
0.000210227
0.00019585
0.000182846
0.000171055
0.000160341
0.000150581
0.000141673
0.000133523
0.000126053
0.000119191
0.000112877
0.000107054
0.000101675
9.66978e-05
9.20836e-05
8.77989e-05
8.38138e-05
8.01014e-05
7.66377e-05
7.34013e-05
7.03729e-05
6.75351e-05
6.48723e-05
6.23704e-05
6.00167e-05
5.77997e-05
5.57089e-05
5.37349e-05
5.1869e-05
5.01034e-05
4.8431e-05
4.68453e-05
4.53404e-05
4.39108e-05
4.25515e-05
4.12581e-05
4.00265e-05
3.88528e-05
3.77336e-05
3.66657e-05
3.56463e-05
3.46727e-05
3.37426e-05
3.28537e-05
3.20042e-05
3.11921e-05
3.0416e-05
2.96744e-05
2.89659e-05
2.82895e-05
2.76442e-05
2.7029e-05
2.64432e-05
2.58861e-05
2.53571e-05
2.48556e-05
2.43812e-05
2.39335e-05
2.3512e-05
2.31164e-05
2.27463e-05
2.24013e-05
2.20809e-05
2.17846e-05
2.15119e-05
2.12622e-05
2.10347e-05
2.08286e-05
2.06431e-05
2.04771e-05
2.03296e-05
2.01995e-05
2.00855e-05
1.99865e-05
1.9901e-05
1.98279e-05
1.97657e-05
1.97133e-05
1.96693e-05
1.96327e-05
1.96025e-05
1.95781e-05
1.95596e-05
1.95476e-05
0.000939687
0.000835717
0.000745887
0.000668029
0.000600333
0.00054129
0.000489633
0.000444299
0.000404396
0.000369167
0.000337974
0.000310275
0.00028561
0.000263585
0.000243865
0.000226162
0.000210228
0.000195852
0.000182848
0.000171057
0.000160343
0.000150583
0.000141675
0.000133526
0.000126055
0.000119194
0.000112879
0.000107057
0.000101678
9.67007e-05
9.20865e-05
8.7802e-05
8.3817e-05
8.01047e-05
7.66411e-05
7.34048e-05
7.03765e-05
6.75388e-05
6.48761e-05
6.23743e-05
6.00208e-05
5.78039e-05
5.57132e-05
5.37393e-05
5.18735e-05
5.0108e-05
4.84358e-05
4.68502e-05
4.53453e-05
4.39158e-05
4.25567e-05
4.12634e-05
4.00319e-05
3.88583e-05
3.77392e-05
3.66714e-05
3.56521e-05
3.46786e-05
3.37486e-05
3.28598e-05
3.20103e-05
3.11983e-05
3.04222e-05
2.96806e-05
2.89721e-05
2.82957e-05
2.76503e-05
2.70351e-05
2.64492e-05
2.58919e-05
2.53627e-05
2.4861e-05
2.43864e-05
2.39384e-05
2.35167e-05
2.31208e-05
2.27503e-05
2.24049e-05
2.20841e-05
2.17874e-05
2.15143e-05
2.12641e-05
2.10362e-05
2.08297e-05
2.06437e-05
2.04773e-05
2.03294e-05
2.0199e-05
2.00847e-05
1.99853e-05
1.98996e-05
1.98262e-05
1.97638e-05
1.97112e-05
1.96671e-05
1.96303e-05
1.96001e-05
1.95756e-05
1.9557e-05
1.9545e-05
0.000939687
0.000835717
0.000745887
0.000668029
0.000600333
0.00054129
0.000489633
0.0004443
0.000404397
0.000369168
0.000337975
0.000310276
0.000285611
0.000263586
0.000243866
0.000226163
0.00021023
0.000195853
0.000182849
0.000171059
0.000160345
0.000150585
0.000141677
0.000133528
0.000126058
0.000119196
0.000112882
0.000107059
0.000101681
9.67035e-05
9.20895e-05
8.7805e-05
8.38201e-05
8.01079e-05
7.66445e-05
7.34083e-05
7.03801e-05
6.75425e-05
6.48799e-05
6.23782e-05
6.00248e-05
5.7808e-05
5.57174e-05
5.37436e-05
5.1878e-05
5.01126e-05
4.84405e-05
4.6855e-05
4.53503e-05
4.39209e-05
4.25619e-05
4.12687e-05
4.00373e-05
3.88639e-05
3.77449e-05
3.66772e-05
3.5658e-05
3.46846e-05
3.37546e-05
3.28659e-05
3.20165e-05
3.12045e-05
3.04284e-05
2.96868e-05
2.89784e-05
2.83019e-05
2.76565e-05
2.70412e-05
2.64551e-05
2.58977e-05
2.53684e-05
2.48665e-05
2.43917e-05
2.39434e-05
2.35213e-05
2.31251e-05
2.27543e-05
2.24085e-05
2.20873e-05
2.17902e-05
2.15167e-05
2.12661e-05
2.10377e-05
2.08307e-05
2.06443e-05
2.04775e-05
2.03293e-05
2.01984e-05
2.00838e-05
1.99841e-05
1.98981e-05
1.98245e-05
1.97619e-05
1.97091e-05
1.96648e-05
1.96279e-05
1.95975e-05
1.9573e-05
1.95544e-05
1.95424e-05
0.000939687
0.000835717
0.000745887
0.000668029
0.000600334
0.00054129
0.000489633
0.0004443
0.000404397
0.000369168
0.000337976
0.000310277
0.000285612
0.000263587
0.000243868
0.000226165
0.000210231
0.000195855
0.000182851
0.000171061
0.000160346
0.000150587
0.000141679
0.00013353
0.00012606
0.000119199
0.000112884
0.000107062
0.000101684
9.67063e-05
9.20924e-05
8.78081e-05
8.38233e-05
8.01112e-05
7.66478e-05
7.34117e-05
7.03836e-05
6.75461e-05
6.48837e-05
6.23821e-05
6.00288e-05
5.78121e-05
5.57217e-05
5.3748e-05
5.18824e-05
5.01172e-05
4.84452e-05
4.68598e-05
4.53552e-05
4.3926e-05
4.25671e-05
4.12741e-05
4.00427e-05
3.88694e-05
3.77505e-05
3.6683e-05
3.56638e-05
3.46905e-05
3.37606e-05
3.2872e-05
3.20226e-05
3.12107e-05
3.04347e-05
2.96931e-05
2.89846e-05
2.83081e-05
2.76627e-05
2.70472e-05
2.64611e-05
2.59036e-05
2.5374e-05
2.4872e-05
2.43969e-05
2.39484e-05
2.3526e-05
2.31295e-05
2.27583e-05
2.24121e-05
2.20905e-05
2.1793e-05
2.1519e-05
2.1268e-05
2.10391e-05
2.08318e-05
2.06449e-05
2.04777e-05
2.03291e-05
2.01978e-05
2.00829e-05
1.99829e-05
1.98966e-05
1.98227e-05
1.97599e-05
1.97069e-05
1.96625e-05
1.96255e-05
1.9595e-05
1.95704e-05
1.95517e-05
1.95396e-05
0.000939687
0.000835717
0.000745887
0.000668029
0.000600334
0.000541291
0.000489634
0.000444301
0.000404398
0.000369169
0.000337977
0.000310278
0.000285613
0.000263589
0.000243869
0.000226166
0.000210233
0.000195856
0.000182853
0.000171063
0.000160348
0.000150589
0.000141681
0.000133532
0.000126062
0.000119201
0.000112887
0.000107065
0.000101686
9.67091e-05
9.20953e-05
8.78111e-05
8.38264e-05
8.01144e-05
7.66511e-05
7.34151e-05
7.03871e-05
6.75498e-05
6.48874e-05
6.2386e-05
6.00327e-05
5.78162e-05
5.57259e-05
5.37523e-05
5.18869e-05
5.01218e-05
4.84499e-05
4.68646e-05
4.53601e-05
4.3931e-05
4.25722e-05
4.12793e-05
4.00481e-05
3.88749e-05
3.77561e-05
3.66887e-05
3.56697e-05
3.46964e-05
3.37666e-05
3.28781e-05
3.20287e-05
3.12169e-05
3.04409e-05
2.96993e-05