/*--------------------------------*- C++ -*----------------------------------*\
  =========                 |
  \\      /  F ield         | OpenFOAM: The Open Source CFD Toolbox
   \\    /   O peration     | Website:  https://openfoam.org
    \\  /    A nd           | Version:  11
     \\/     M anipulation  |
\*---------------------------------------------------------------------------*/
FoamFile
{
    format      ascii;
    class       volScalarField;
    location    "458";
    object      nut;
}
// * * * * * * * * * * * * * * * * * * * * * * * * * * * * * * * * * * * * * //

dimensions      [0 2 -1 0 0 0 0];

internalField   nonuniform List<scalar> 
10000
(
0.000977117
0.000936705
0.000899645
0.000865619
0.000834338
0.000805543
0.000779003
0.00075451
0.000731874
0.000710928
0.000691519
0.000673509
0.000656776
0.000641208
0.000626703
0.000613171
0.00060053
0.000588705
0.000577628
0.000567239
0.000557482
0.000548306
0.000539666
0.00053152
0.00052383
0.000516561
0.000509681
0.000503163
0.000496979
0.000491105
0.000485519
0.0004802
0.000475131
0.000470293
0.000465672
0.000461252
0.000457021
0.000452966
0.000449075
0.00044534
0.00044175
0.000438296
0.000434972
0.000431769
0.000428681
0.000425703
0.000422829
0.000420056
0.000417379
0.000414795
0.000412303
0.0004099
0.000407585
0.000405359
0.000403222
0.000401176
0.000399223
0.000397366
0.00039561
0.00039396
0.000392422
0.000391005
0.000389718
0.00038857
0.000387572
0.000386738
0.00038608
0.000385615
0.000385357
0.000385323
0.000385531
0.000385999
0.000386744
0.000387784
0.000389135
0.000390815
0.000392835
0.00039521
0.000397946
0.000401049
0.000404521
0.000408359
0.000412553
0.000417089
0.000421948
0.000427102
0.000432517
0.000438152
0.000443956
0.000449871
0.000455829
0.000461755
0.000467561
0.000473148
0.000478403
0.000483195
0.000487378
0.000490785
0.000493233
0.000494522
0.000977117
0.000936705
0.000899646
0.000865619
0.000834338
0.000805543
0.000779004
0.00075451
0.000731874
0.000710928
0.000691519
0.00067351
0.000656777
0.000641208
0.000626703
0.000613172
0.00060053
0.000588705
0.000577629
0.00056724
0.000557482
0.000548307
0.000539667
0.00053152
0.00052383
0.000516561
0.000509682
0.000503164
0.000496979
0.000491105
0.000485519
0.000480201
0.000475132
0.000470294
0.000465673
0.000461253
0.000457022
0.000452967
0.000449077
0.000445341
0.000441751
0.000438298
0.000434973
0.00043177
0.000428682
0.000425704
0.000422831
0.000420057
0.000417381
0.000414797
0.000412305
0.000409902
0.000407587
0.000405361
0.000403225
0.000401178
0.000399225
0.000397368
0.000395612
0.000393962
0.000392425
0.000391008
0.00038972
0.000388571
0.000387574
0.000386739
0.000386081
0.000385615
0.000385357
0.000385322
0.00038553
0.000385996
0.00038674
0.000387779
0.00038913
0.000390808
0.000392827
0.0003952
0.000397935
0.000401037
0.000404507
0.000408343
0.000412536
0.000417071
0.000421928
0.000427081
0.000432494
0.000438127
0.000443929
0.000449842
0.000455799
0.000461724
0.000467529
0.000473116
0.000478371
0.000483164
0.000487347
0.000490755
0.000493203
0.000494493
0.000977117
0.000936705
0.000899646
0.000865619
0.000834338
0.000805544
0.000779004
0.00075451
0.000731875
0.000710929
0.00069152
0.00067351
0.000656777
0.000641209
0.000626704
0.000613172
0.000600531
0.000588706
0.00057763
0.00056724
0.000557483
0.000548308
0.000539668
0.000531522
0.000523831
0.000516563
0.000509683
0.000503165
0.000496981
0.000491107
0.000485521
0.000480203
0.000475133
0.000470296
0.000465675
0.000461255
0.000457024
0.000452969
0.000449079
0.000445344
0.000441754
0.0004383
0.000434976
0.000431773
0.000428685
0.000425707
0.000422834
0.000420061
0.000417384
0.0004148
0.000412308
0.000409905
0.000407591
0.000405365
0.000403228
0.000401182
0.000399228
0.000397371
0.000395615
0.000393965
0.000392427
0.00039101
0.000389722
0.000388573
0.000387574
0.000386739
0.00038608
0.000385613
0.000385353
0.000385317
0.000385523
0.000385988
0.00038673
0.000387766
0.000389114
0.00039079
0.000392806
0.000395176
0.000397907
0.000401006
0.000404473
0.000408306
0.000412496
0.000417028
0.000421882
0.000427031
0.000432442
0.000438072
0.000443872
0.000449782
0.000455737
0.000461661
0.000467466
0.000473053
0.000478308
0.000483102
0.000487287
0.000490695
0.000493145
0.000494434
0.000977117
0.000936705
0.000899646
0.00086562
0.000834338
0.000805544
0.000779004
0.000754511
0.000731876
0.000710929
0.00069152
0.000673511
0.000656778
0.00064121
0.000626705
0.000613173
0.000600532
0.000588707
0.000577631
0.000567242
0.000557485
0.000548309
0.000539669
0.000531523
0.000523833
0.000516564
0.000509685
0.000503167
0.000496983
0.000491109
0.000485523
0.000480205
0.000475136
0.000470299
0.000465677
0.000461258
0.000457027
0.000452972
0.000449082
0.000445347
0.000441757
0.000438304
0.000434979
0.000431777
0.000428689
0.000425711
0.000422838
0.000420065
0.000417388
0.000414805
0.000412313
0.00040991
0.000407596
0.00040537
0.000403233
0.000401187
0.000399233
0.000397376
0.000395619
0.000393969
0.00039243
0.000391013
0.000389724
0.000388574
0.000387574
0.000386738
0.000386077
0.000385609
0.000385347
0.000385309
0.000385512
0.000385974
0.000386713
0.000387746
0.00038909
0.000390761
0.000392774
0.000395139
0.000397866
0.00040096
0.000404422
0.00040825
0.000412435
0.000416962
0.000421812
0.000426957
0.000432363
0.000437989
0.000443785
0.000449693
0.000455647
0.000461569
0.000467374
0.000472961
0.000478217
0.000483012
0.000487198
0.000490608
0.000493058
0.000494348
0.000977117
0.000936705
0.000899646
0.00086562
0.000834339
0.000805545
0.000779005
0.000754512
0.000731876
0.00071093
0.000691521
0.000673512
0.000656779
0.000641211
0.000626706
0.000613175
0.000600534
0.000588709
0.000577633
0.000567244
0.000557487
0.000548311
0.000539671
0.000531525
0.000523835
0.000516567
0.000509688
0.00050317
0.000496986
0.000491112
0.000485526
0.000480208
0.000475139
0.000470302
0.000465681
0.000461262
0.000457031
0.000452976
0.000449087
0.000445352
0.000441762
0.000438309
0.000434985
0.000431782
0.000428695
0.000425717
0.000422844
0.000420071
0.000417395
0.000414811
0.000412319
0.000409917
0.000407602
0.000405376
0.000403239
0.000401193
0.000399239
0.000397382
0.000395625
0.000393974
0.000392435
0.000391016
0.000389726
0.000388575
0.000387575
0.000386736
0.000386074
0.000385603
0.000385339
0.000385298
0.000385498
0.000385956
0.000386691
0.000387719
0.000389059
0.000390725
0.000392732
0.000395091
0.000397811
0.000400899
0.000404355
0.000408176
0.000412355
0.000416876
0.00042172
0.000426859
0.000432261
0.000437882
0.000443674
0.000449578
0.00045553
0.000461451
0.000467255
0.000472842
0.000478099
0.000482895
0.000487082
0.000490493
0.000492945
0.000494235
0.000977117
0.000936705
0.000899646
0.00086562
0.000834339
0.000805545
0.000779006
0.000754512
0.000731877
0.000710931
0.000691523
0.000673513
0.000656781
0.000641212
0.000626708
0.000613177
0.000600536
0.000588711
0.000577635
0.000567246
0.000557489
0.000548314
0.000539674
0.000531528
0.000523838
0.00051657
0.000509691
0.000503173
0.000496989
0.000491116
0.00048553
0.000480212
0.000475143
0.000470306
0.000465686
0.000461267
0.000457036
0.000452981
0.000449092
0.000445357
0.000441768
0.000438315
0.000434991
0.000431789
0.000428702
0.000425724
0.000422851
0.000420078
0.000417402
0.000414819
0.000412327
0.000409925
0.00040761
0.000405385
0.000403248
0.000401201
0.000399247
0.000397389
0.000395632
0.00039398
0.000392441
0.000391021
0.00038973
0.000388578
0.000387575
0.000386735
0.00038607
0.000385597
0.000385329
0.000385285
0.000385481
0.000385934
0.000386664
0.000387687
0.000389021
0.00039068
0.00039268
0.000395032
0.000397745
0.000400825
0.000404274
0.000408087
0.000412258
0.000416771
0.000421608
0.000426741
0.000432135
0.000437751
0.000443538
0.000449439
0.000455387
0.000461307
0.00046711
0.000472697
0.000477954
0.000482752
0.00048694
0.000490353
0.000492806
0.000494097
0.000977117
0.000936705
0.000899647
0.000865621
0.00083434
0.000805546
0.000779007
0.000754513
0.000731878
0.000710933
0.000691524
0.000673515
0.000656782
0.000641214
0.00062671
0.000613179
0.000600538
0.000588713
0.000577637
0.000567248
0.000557492
0.000548316
0.000539677
0.000531531
0.000523842
0.000516573
0.000509695
0.000503177
0.000496993
0.00049112
0.000485535
0.000480217
0.000475148
0.000470312
0.000465691
0.000461272
0.000457042
0.000452988
0.000449098
0.000445364
0.000441775
0.000438322
0.000434998
0.000431796
0.00042871
0.000425732
0.00042286
0.000420087
0.000417411
0.000414828
0.000412337
0.000409934
0.00040762
0.000405394
0.000403257
0.00040121
0.000399256
0.000397398
0.00039564
0.000393988
0.000392448
0.000391027
0.000389735
0.000388581
0.000387576
0.000386733
0.000386066
0.000385589
0.000385318
0.00038527
0.000385461
0.00038591
0.000386634
0.00038765
0.000388977
0.000390629
0.000392621
0.000394965
0.000397669
0.00040074
0.000404179
0.000407983
0.000412145
0.00041665
0.000421478
0.000426602
0.00043199
0.000437599
0.000443381
0.000449277
0.000455222
0.000461139
0.000466941
0.000472528
0.000477786
0.000482585
0.000486775
0.000490189
0.000492643
0.000493934
0.000977117
0.000936706
0.000899647
0.000865621
0.00083434
0.000805547
0.000779008
0.000754514
0.00073188
0.000710934
0.000691525
0.000673517
0.000656784
0.000641216
0.000626712
0.000613181
0.00060054
0.000588716
0.00057764
0.000567251
0.000557495
0.00054832
0.00053968
0.000531535
0.000523845
0.000516577
0.000509699
0.000503181
0.000496998
0.000491125
0.00048554
0.000480222
0.000475154
0.000470318
0.000465697
0.000461279
0.000457049
0.000452995
0.000449106
0.000445372
0.000441783
0.00043833
0.000435007
0.000431805
0.000428719
0.000425742
0.00042287
0.000420098
0.000417422
0.000414839
0.000412348
0.000409945
0.000407631
0.000405406
0.000403269
0.000401222
0.000399267
0.000397409
0.00039565
0.000393997
0.000392456
0.000391034
0.00038974
0.000388584
0.000387578
0.000386732
0.000386062
0.000385582
0.000385307
0.000385253
0.000385439
0.000385882
0.000386599
0.000387609
0.000388928
0.000390572
0.000392555
0.000394889
0.000397583
0.000400644
0.000404073
0.000407867
0.000412018
0.000416513
0.000421331
0.000426447
0.000431826
0.000437428
0.000443203
0.000449094
0.000455036
0.00046095
0.00046675
0.000472337
0.000477595
0.000482395
0.000486586
0.000490003
0.000492458
0.00049375
0.000977117
0.000936706
0.000899647
0.000865621
0.000834341
0.000805547
0.000779008
0.000754516
0.000731881
0.000710935
0.000691527
0.000673518
0.000656786
0.000641218
0.000626714
0.000613183
0.000600543
0.000588719
0.000577643
0.000567255
0.000557498
0.000548323
0.000539684
0.000531539
0.00052385
0.000516582
0.000509704
0.000503186
0.000497003
0.00049113
0.000485546
0.000480228
0.00047516
0.000470324
0.000465704
0.000461286
0.000457056
0.000453003
0.000449114
0.00044538
0.000441792
0.00043834
0.000435017
0.000431815
0.000428729
0.000425753
0.000422881
0.000420109
0.000417434
0.000414851
0.00041236
0.000409958
0.000407644
0.000405418
0.000403281
0.000401234
0.00039928
0.000397421
0.000395662
0.000394008
0.000392466
0.000391042
0.000389747
0.000388589
0.00038758
0.000386732
0.000386058
0.000385574
0.000385294
0.000385236
0.000385416
0.000385852
0.000386562
0.000387564
0.000388874
0.000390509
0.000392482
0.000394806
0.000397489
0.000400539
0.000403956
0.000407738
0.000411878
0.000416362
0.00042117
0.000426275
0.000431645
0.000437239
0.000443007
0.000448893
0.000454829
0.00046074
0.000466539
0.000472124
0.000477383
0.000482184
0.000486377
0.000489795
0.000492251
0.000493544
0.000977117
0.000936706
0.000899647
0.000865622
0.000834341
0.000805548
0.000779009
0.000754517
0.000731882
0.000710937
0.000691529
0.00067352
0.000656788
0.00064122
0.000626717
0.000613186
0.000600546
0.000588722
0.000577646
0.000567258
0.000557502
0.000548327
0.000539688
0.000531543
0.000523854
0.000516587
0.000509709
0.000503192
0.000497009
0.000491136
0.000485552
0.000480235
0.000475167
0.000470332
0.000465712
0.000461294
0.000457065
0.000453011
0.000449123
0.00044539
0.000441802
0.00043835
0.000435028
0.000431827
0.000428741
0.000425765
0.000422893
0.000420122
0.000417447
0.000414865
0.000412374
0.000409972
0.000407658
0.000405433
0.000403296
0.000401249
0.000399294
0.000397434
0.000395675
0.00039402
0.000392477
0.000391052
0.000389755
0.000388595
0.000387583
0.000386732
0.000386054
0.000385566
0.000385281
0.000385217
0.000385391
0.000385821
0.000386523
0.000387516
0.000388817
0.000390441
0.000392404
0.000394716
0.000397388
0.000400425
0.00040383
0.0004076
0.000411727
0.000416198
0.000420995
0.00042609
0.00043145
0.000437034
0.000442795
0.000448674
0.000454605
0.000460513
0.000466309
0.000471893
0.000477152
0.000481954
0.000486148
0.000489567
0.000492025
0.000493318
0.000977117
0.000936706
0.000899648
0.000865622
0.000834342
0.000805549
0.00077901
0.000754518
0.000731883
0.000710938
0.00069153
0.000673522
0.00065679
0.000641223
0.000626719
0.000613189
0.000600549
0.000588725
0.00057765
0.000567262
0.000557506
0.000548331
0.000539693
0.000531548
0.000523859
0.000516592
0.000509714
0.000503198
0.000497015
0.000491143
0.000485559
0.000480242
0.000475175
0.000470339
0.00046572
0.000461303
0.000457074
0.000453021
0.000449133
0.0004454
0.000441813
0.000438362
0.000435039
0.000431839
0.000428754
0.000425778
0.000422907
0.000420136
0.000417461
0.00041488
0.000412389
0.000409988
0.000407674
0.000405449
0.000403312
0.000401264
0.000399309
0.000397449
0.000395689
0.000394033
0.000392489
0.000391063
0.000389764
0.000388601
0.000387587
0.000386732
0.000386051
0.000385558
0.000385268
0.000385198
0.000385366
0.000385787
0.000386481
0.000387465
0.000388756
0.00039037
0.000392321
0.000394621
0.00039728
0.000400304
0.000403695
0.000407452
0.000411566
0.000416024
0.000420808
0.000425891
0.00043124
0.000436815
0.000442567
0.000448439
0.000454365
0.000460269
0.000466062
0.000471645
0.000476903
0.000481706
0.000485901
0.000489322
0.000491781
0.000493075
0.000977117
0.000936706
0.000899648
0.000865623
0.000834343
0.000805549
0.000779011
0.000754519
0.000731885
0.00071094
0.000691532
0.000673524
0.000656792
0.000641225
0.000626722
0.000613192
0.000600552
0.000588728
0.000577653
0.000567266
0.00055751
0.000548336
0.000539698
0.000531553
0.000523865
0.000516598
0.00050972
0.000503204
0.000497022
0.00049115
0.000485566
0.00048025
0.000475183
0.000470348
0.000465729
0.000461312
0.000457084
0.000453031
0.000449144
0.000445412
0.000441824
0.000438374
0.000435052
0.000431852
0.000428768
0.000425793
0.000422922
0.000420151
0.000417477
0.000414896
0.000412406
0.000410004
0.000407691
0.000405466
0.000403329
0.000401281
0.000399326
0.000397466
0.000395705
0.000394048
0.000392502
0.000391075
0.000389774
0.000388609
0.000387591
0.000386733
0.000386048
0.00038555
0.000385255
0.000385179
0.000385339
0.000385753
0.000386438
0.000387412
0.000388693
0.000390295
0.000392234
0.000394521
0.000397167
0.000400177
0.000403554
0.000407296
0.000411396
0.000415841
0.000420611
0.000425682
0.000431019
0.000436584
0.000442327
0.000448191
0.000454111
0.00046001
0.0004658
0.000471381
0.000476639
0.000481441
0.000485638
0.00048906
0.000491521
0.000492815
0.000977117
0.000936706
0.000899648
0.000865623
0.000834343
0.00080555
0.000779012
0.00075452
0.000731886
0.000710941
0.000691534
0.000673526
0.000656795
0.000641228
0.000626725
0.000613195
0.000600555
0.000588732
0.000577657
0.00056727
0.000557514
0.000548341
0.000539703
0.000531558
0.00052387
0.000516604
0.000509727
0.000503211
0.000497029
0.000491157
0.000485574
0.000480258
0.000475192
0.000470357
0.000465739
0.000461322
0.000457094
0.000453042
0.000449156
0.000445424
0.000441837
0.000438387
0.000435066
0.000431866
0.000428782
0.000425808
0.000422938
0.000420168
0.000417494
0.000414913
0.000412423
0.000410022
0.000407709
0.000405484
0.000403347
0.0004013
0.000399344
0.000397483
0.000395722
0.000394064
0.000392517
0.000391088
0.000389785
0.000388617
0.000387597
0.000386735
0.000386046
0.000385543
0.000385242
0.00038516
0.000385312
0.000385718
0.000386394
0.000387358
0.000388627
0.000390217
0.000392143
0.000394417
0.000397049
0.000400044
0.000403407
0.000407134
0.000411219
0.000415649
0.000420406
0.000425463
0.000430788
0.000436342
0.000442075
0.000447931
0.000453844
0.000459737
0.000465524
0.000471103
0.00047636
0.000481162
0.00048536
0.000488784
0.000491246
0.000492541
0.000977117
0.000936706
0.000899648
0.000865623
0.000834344
0.000805551
0.000779013
0.000754521
0.000731887
0.000710943
0.000691536
0.000673528
0.000656797
0.00064123
0.000626728
0.000613198
0.000600559
0.000588735
0.000577661
0.000567274
0.000557519
0.000548345
0.000539708
0.000531564
0.000523876
0.00051661
0.000509733
0.000503218
0.000497036
0.000491165
0.000485582
0.000480267
0.000475201
0.000470367
0.000465749
0.000461333
0.000457105
0.000453054
0.000449168
0.000445436
0.00044185
0.000438401
0.00043508
0.000431882
0.000428798
0.000425824
0.000422955
0.000420185
0.000417512
0.000414932
0.000412442
0.000410042
0.000407729
0.000405504
0.000403367
0.000401319
0.000399364
0.000397502
0.00039574
0.000394082
0.000392533
0.000391102
0.000389797
0.000388627
0.000387604
0.000386738
0.000386044
0.000385536
0.00038523
0.00038514
0.000385285
0.000385682
0.000386349
0.000387302
0.00038856
0.000390138
0.00039205
0.00039431
0.000396927
0.000399908
0.000403255
0.000406966
0.000411036
0.000415451
0.000420192
0.000425236
0.000430548
0.00043609
0.000441813
0.00044766
0.000453566
0.000459453
0.000465236
0.000470812
0.000476068
0.000480871
0.000485069
0.000488494
0.000490957
0.000492253
0.000977117
0.000936707
0.000899649
0.000865624
0.000834344
0.000805552
0.000779014
0.000754522
0.000731889
0.000710945
0.000691537
0.00067353
0.000656799
0.000641233
0.00062673
0.000613201
0.000600562
0.000588739
0.000577665
0.000567278
0.000557524
0.00054835
0.000539713
0.00053157
0.000523882
0.000516616
0.00050974
0.000503225
0.000497044
0.000491173
0.000485591
0.000480276
0.00047521
0.000470377
0.000465759
0.000461344
0.000457117
0.000453066
0.00044918
0.00044545
0.000441864
0.000438415
0.000435095
0.000431897
0.000428814
0.000425841
0.000422972
0.000420203
0.000417531
0.000414951
0.000412462
0.000410062
0.00040775
0.000405525
0.000403388
0.00040134
0.000399384
0.000397523
0.00039576
0.0003941
0.00039255
0.000391118
0.00038981
0.000388638
0.000387611
0.000386742
0.000386044
0.00038553
0.000385217
0.000385121
0.000385258
0.000385646
0.000386303
0.000387245
0.000388491
0.000390057
0.000391956
0.000394201
0.000396803
0.000399768
0.000403099
0.000406794
0.000410847
0.000415246
0.000419973
0.000425002
0.000430301
0.00043583
0.000441542
0.00044738
0.000453278
0.00045916
0.000464937
0.000470511
0.000475765
0.000480567
0.000484766
0.000488192
0.000490657
0.000491954
0.000977117
0.000936707
0.000899649
0.000865624
0.000834345
0.000805552
0.000779015
0.000754523
0.00073189
0.000710946
0.000691539
0.000673532
0.000656801
0.000641235
0.000626733
0.000613204
0.000600565
0.000588743
0.000577669
0.000567283
0.000557528
0.000548356
0.000539719
0.000531576
0.000523889
0.000516623
0.000509747
0.000503232
0.000497052
0.000491182
0.0004856
0.000480285
0.00047522
0.000470387
0.00046577
0.000461355
0.000457129
0.000453079
0.000449194
0.000445464
0.000441879
0.000438431
0.000435111
0.000431914
0.000428832
0.000425859
0.000422991
0.000420222
0.00041755
0.000414971
0.000412483
0.000410083
0.000407771
0.000405547
0.00040341
0.000401362
0.000399406
0.000397544
0.00039578
0.00039412
0.000392569
0.000391134
0.000389825
0.00038865
0.00038762
0.000386746
0.000386043
0.000385525
0.000385206
0.000385102
0.000385231
0.00038561
0.000386257
0.000387188
0.000388422
0.000389974
0.000391859
0.00039409
0.000396676
0.000399625
0.000402939
0.000406618
0.000410655
0.000415038
0.000419748
0.000424762
0.000430047
0.000435564
0.000441264
0.000447092
0.000452982
0.000458857
0.00046463
0.0004702
0.000475453
0.000480254
0.000484454
0.00048788
0.000490346
0.000491644
0.000977117
0.000936707
0.000899649
0.000865624
0.000834345
0.000805553
0.000779015
0.000754524
0.000731891
0.000710947
0.000691541
0.000673534
0.000656804
0.000641238
0.000626736
0.000613207
0.000600569
0.000588747
0.000577673
0.000567287
0.000557533
0.000548361
0.000539724
0.000531582
0.000523895
0.00051663
0.000509754
0.00050324
0.00049706
0.00049119
0.000485609
0.000480295
0.00047523
0.000470398
0.000465782
0.000461367
0.000457141
0.000453092
0.000449207
0.000445478
0.000441894
0.000438446
0.000435128
0.000431931
0.000428849
0.000425877
0.00042301
0.000420242
0.000417571
0.000414992
0.000412504
0.000410105
0.000407794
0.000405569
0.000403433
0.000401385
0.000399429
0.000397566
0.000395802
0.00039414
0.000392588
0.000391152
0.00038984
0.000388662
0.000387629
0.000386752
0.000386044
0.00038552
0.000385195
0.000385084
0.000385205
0.000385574
0.000386211
0.000387131
0.000388352
0.000389891
0.000391762
0.000393977
0.000396548
0.00039948
0.000402778
0.00040644
0.000410459
0.000414826
0.00041952
0.000424518
0.000429789
0.000435292
0.000440981
0.000446799
0.00045268
0.000458548
0.000464315
0.000469882
0.000475132
0.000479933
0.000484132
0.00048756
0.000490027
0.000491325
0.000977117
0.000936707
0.000899649
0.000865625
0.000834346
0.000805553
0.000779016
0.000754525
0.000731892
0.000710949
0.000691543
0.000673536
0.000656806
0.00064124
0.000626739
0.00061321
0.000600572
0.000588751
0.000577677
0.000567292
0.000557538
0.000548366
0.00053973
0.000531588
0.000523902
0.000516637
0.000509762
0.000503248
0.000497068
0.000491199
0.000485618
0.000480305
0.000475241
0.000470409
0.000465793
0.000461379
0.000457154
0.000453105
0.000449222
0.000445493
0.000441909
0.000438463
0.000435145
0.000431949
0.000428868
0.000425896
0.00042303
0.000420263
0.000417592
0.000415014
0.000412527
0.000410128
0.000407817
0.000405593
0.000403457
0.000401409
0.000399452
0.000397589
0.000395824
0.000394162
0.000392608
0.00039117
0.000389856
0.000388676
0.000387639
0.000386758
0.000386046
0.000385516
0.000385184
0.000385066
0.000385178
0.000385539
0.000386165
0.000387074
0.000388283
0.000389808
0.000391664
0.000393864
0.000396419
0.000399334
0.000402615
0.000406259
0.000410262
0.000414611
0.000419289
0.000424271
0.000429527
0.000435017
0.000440693
0.0004465
0.000452372
0.000458233
0.000463995
0.000469558
0.000474805
0.000479605
0.000483804
0.000487233
0.0004897
0.000491
0.000977118
0.000936707
0.00089965
0.000865625
0.000834346
0.000805554
0.000779017
0.000754526
0.000731894
0.00071095
0.000691544
0.000673538
0.000656808
0.000641243
0.000626742
0.000613213
0.000600576
0.000588754
0.000577682
0.000567296
0.000557543
0.000548371
0.000539736
0.000531594
0.000523908
0.000516644
0.000509769
0.000503256
0.000497077
0.000491208
0.000485628
0.000480315
0.000475251
0.00047042
0.000465805
0.000461392
0.000457167
0.000453119
0.000449236
0.000445508
0.000441925
0.000438479
0.000435162
0.000431967
0.000428887
0.000425916
0.00042305
0.000420284
0.000417614
0.000415036
0.00041255
0.000410151
0.000407841
0.000405617
0.000403481
0.000401434
0.000399477
0.000397614
0.000395848
0.000394184
0.000392629
0.00039119
0.000389874
0.00038869
0.00038765
0.000386765
0.000386048
0.000385513
0.000385174
0.000385049
0.000385153
0.000385504
0.000386119
0.000387017
0.000388213
0.000389725
0.000391567
0.000393751
0.000396289
0.000399188
0.000402451
0.000406078
0.000410063
0.000414395
0.000419056
0.000424022
0.000429263
0.000434738
0.000440402
0.000446198
0.000452061
0.000457914
0.00046367
0.000469228
0.000474473
0.000479271
0.00048347
0.000486899
0.000489368
0.000490668
0.000977118
0.000936707
0.00089965
0.000865625
0.000834346
0.000805555
0.000779018
0.000754527
0.000731895
0.000710952
0.000691546
0.00067354
0.00065681
0.000641245
0.000626744
0.000613217
0.000600579
0.000588758
0.000577686
0.000567301
0.000557548
0.000548377
0.000539741
0.0005316
0.000523915
0.000516651
0.000509777
0.000503264
0.000497085
0.000491217
0.000485637
0.000480325
0.000475262
0.000470432
0.000465817
0.000461405
0.000457181
0.000453133
0.000449251
0.000445523
0.000441941
0.000438496
0.00043518
0.000431985
0.000428906
0.000425936
0.000423071
0.000420305
0.000417636
0.000415059
0.000412573
0.000410176
0.000407865
0.000405642
0.000403506
0.000401459
0.000399502
0.000397638
0.000395872
0.000394208
0.000392651
0.00039121
0.000389891
0.000388705
0.000387662
0.000386773
0.000386051
0.00038551
0.000385165
0.000385032
0.000385128
0.00038547
0.000386075
0.000386961
0.000388144
0.000389642
0.000391469
0.000393638
0.00039616
0.000399042
0.000402288
0.000405897
0.000409864
0.000414178
0.000418822
0.000423772
0.000428997
0.000434458
0.000440109
0.000445894
0.000451747
0.000457592
0.000463342
0.000468896
0.000474137
0.000478934
0.000483133
0.000486562
0.000489031
0.000490332
0.000977118
0.000936707
0.00089965
0.000865626
0.000834347
0.000805555
0.000779018
0.000754528
0.000731896
0.000710953
0.000691547
0.000673542
0.000656812
0.000641248
0.000626747
0.00061322
0.000600583
0.000588762
0.00057769
0.000567305
0.000557553
0.000548382
0.000539747
0.000531606
0.000523921
0.000516658
0.000509785
0.000503272
0.000497094
0.000491226
0.000485647
0.000480335
0.000475273
0.000470443
0.000465829
0.000461417
0.000457194
0.000453147
0.000449266
0.000445539
0.000441958
0.000438513
0.000435198
0.000432004
0.000428925
0.000425956
0.000423092
0.000420327
0.000417658
0.000415083
0.000412597
0.0004102
0.00040789
0.000405667
0.000403532
0.000401484
0.000399527
0.000397664
0.000395897
0.000394231
0.000392674
0.000391231
0.00038991
0.000388721
0.000387674
0.000386781
0.000386055
0.000385508
0.000385157
0.000385017
0.000385104
0.000385436
0.000386031
0.000386905
0.000388076
0.00038956
0.000391373
0.000393526
0.000396031
0.000398896
0.000402124
0.000405716
0.000409665
0.000413962
0.000418588
0.000423522
0.000428731
0.000434178
0.000439816
0.000445589
0.000451432
0.000457269
0.000463012
0.000468561
0.000473799
0.000478594
0.000482792
0.000486222
0.000488692
0.000489993
0.000977118
0.000936707
0.00089965
0.000865626
0.000834347
0.000805556
0.000779019
0.000754529
0.000731897
0.000710954
0.000691549
0.000673543
0.000656814
0.00064125
0.00062675
0.000613223
0.000600586
0.000588766
0.000577694
0.00056731
0.000557558
0.000548387
0.000539753
0.000531612
0.000523928
0.000516665
0.000509792
0.00050328
0.000497103
0.000491236
0.000485657
0.000480346
0.000475284
0.000470455
0.000465841
0.00046143
0.000457208
0.000453162
0.000449281
0.000445555
0.000441974
0.000438531
0.000435216
0.000432023
0.000428945
0.000425977
0.000423113
0.000420349
0.000417681
0.000415106
0.000412621
0.000410225
0.000407916
0.000405693
0.000403558
0.000401511
0.000399554
0.000397689
0.000395922
0.000394256
0.000392697
0.000391252
0.000389929
0.000388738
0.000387688
0.000386791
0.000386059
0.000385507
0.00038515
0.000385002
0.000385081
0.000385404
0.000385988
0.000386851
0.000388009
0.00038948
0.000391277
0.000393415
0.000395904
0.000398752
0.000401962
0.000405536
0.000409467
0.000413746
0.000418355
0.000423272
0.000428466
0.000433898
0.000439523
0.000445284
0.000451117
0.000456945
0.000462681
0.000468225
0.00047346
0.000478253
0.00048245
0.00048588
0.000488351
0.000489653
0.000977118
0.000936707
0.00089965
0.000865626
0.000834348
0.000805556
0.00077902
0.00075453
0.000731898
0.000710956
0.00069155
0.000673545
0.000656816
0.000641252
0.000626752
0.000613225
0.000600589
0.000588769
0.000577698
0.000567314
0.000557563
0.000548393
0.000539758
0.000531618
0.000523935
0.000516672
0.0005098
0.000503288
0.000497111
0.000491245
0.000485667
0.000480356
0.000475295
0.000470466
0.000465854
0.000461443
0.000457221
0.000453176
0.000449296
0.000445571
0.000441991
0.000438548
0.000435234
0.000432042
0.000428965
0.000425998
0.000423135
0.000420372
0.000417705
0.00041513
0.000412646
0.00041025
0.000407941
0.000405719
0.000403584
0.000401537
0.00039958
0.000397715
0.000395947
0.00039428
0.00039272
0.000391274
0.000389949
0.000388755
0.000387701
0.0003868
0.000386064
0.000385507
0.000385143
0.000384988
0.000385059
0.000385373
0.000385946
0.000386797
0.000387943
0.0003894
0.000391183
0.000393306
0.000395778
0.000398609
0.000401802
0.000405358
0.000409272
0.000413532
0.000418124
0.000423025
0.000428202
0.00043362
0.000439231
0.00044498
0.000450803
0.000456622
0.000462352
0.00046789
0.000473122
0.000477912
0.000482108
0.000485538
0.000488009
0.000489312
0.000977118
0.000936707
0.00089965
0.000865626
0.000834348
0.000805557
0.00077902
0.00075453
0.000731899
0.000710957
0.000691552
0.000673547
0.000656818
0.000641255
0.000626755
0.000613228
0.000600592
0.000588773
0.000577702
0.000567318
0.000557567
0.000548398
0.000539764
0.000531624
0.000523941
0.000516679
0.000509807
0.000503296
0.00049712
0.000491254
0.000485676
0.000480367
0.000475306
0.000470478
0.000465866
0.000461456
0.000457235
0.000453191
0.000449311
0.000445587
0.000442008
0.000438566
0.000435253
0.000432061
0.000428985
0.000426019
0.000423156
0.000420394
0.000417728
0.000415154
0.000412671
0.000410275
0.000407967
0.000405746
0.000403611
0.000401564
0.000399607
0.000397742
0.000395973
0.000394305
0.000392744
0.000391296
0.000389969
0.000388772
0.000387716
0.000386811
0.00038607
0.000385507
0.000385137
0.000384975
0.000385038
0.000385342
0.000385906
0.000386745
0.000387879
0.000389322
0.000391091
0.000393198
0.000395654
0.000398468
0.000401644
0.000405182
0.000409078
0.000413321
0.000417896
0.000422779
0.000427941
0.000433344
0.000438942
0.000444679
0.000450491
0.000456301
0.000462024
0.000467557
0.000472784
0.000477572
0.000481768
0.000485197
0.000487669
0.000488972
0.000977118
0.000936707
0.00089965
0.000865627
0.000834348
0.000805557
0.000779021
0.000754531
0.0007319
0.000710958
0.000691553
0.000673549
0.00065682
0.000641257
0.000626757
0.000613231
0.000600596
0.000588776
0.000577706
0.000567323
0.000557572
0.000548403
0.000539769
0.00053163
0.000523947
0.000516686
0.000509815
0.000503304
0.000497128
0.000491263
0.000485686
0.000480377
0.000475317
0.000470489
0.000465878
0.000461469
0.000457249
0.000453205
0.000449326
0.000445603
0.000442024
0.000438583
0.000435271
0.00043208
0.000429005
0.000426039
0.000423178
0.000420417
0.000417751
0.000415178
0.000412695
0.000410301
0.000407993
0.000405772
0.000403637
0.000401591
0.000399633
0.000397768
0.000395999
0.000394331
0.000392768
0.000391318
0.000389989
0.00038879
0.00038773
0.000386822
0.000386077
0.000385509