/*--------------------------------*- C++ -*----------------------------------*\
  =========                 |
  \\      /  F ield         | OpenFOAM: The Open Source CFD Toolbox
   \\    /   O peration     | Website:  https://openfoam.org
    \\  /    A nd           | Version:  11
     \\/     M anipulation  |
\*---------------------------------------------------------------------------*/
FoamFile
{
    format      ascii;
    class       volScalarField;
    location    "1798";
    object      p;
}
// * * * * * * * * * * * * * * * * * * * * * * * * * * * * * * * * * * * * * //

dimensions      [0 2 -2 0 0 0 0];

internalField   nonuniform List<scalar> 
10000
(
1.12506e-15
1.09598e-15
1.14449e-15
1.24028e-15
1.34933e-15
1.46464e-15
1.58602e-15
1.71367e-15
1.84771e-15
1.98853e-15
2.13671e-15
2.29243e-15
2.4564e-15
2.62904e-15
2.81096e-15
3.00273e-15
3.2049e-15
3.41805e-15
3.64273e-15
3.87961e-15
4.12937e-15
4.39257e-15
4.66992e-15
4.9621e-15
5.26982e-15
5.59374e-15
5.93465e-15
6.29333e-15
6.67039e-15
7.06681e-15
7.48328e-15
7.92062e-15
8.37972e-15
8.86138e-15
9.3664e-15
9.8957e-15
1.04502e-14
1.10306e-14
1.16379e-14
1.2273e-14
1.29367e-14
1.36299e-14
1.43533e-14
1.51081e-14
1.58948e-14
1.67142e-14
1.75671e-14
1.84543e-14
1.93765e-14
2.0334e-14
2.13276e-14
2.23578e-14
2.3425e-14
2.45293e-14
2.5671e-14
2.685e-14
2.80665e-14
2.932e-14
3.061e-14
3.19361e-14
3.32972e-14
3.46923e-14
3.61198e-14
3.75782e-14
3.90653e-14
4.05785e-14
4.2115e-14
4.36712e-14
4.52432e-14
4.68264e-14
4.84155e-14
5.00043e-14
5.15861e-14
5.31529e-14
5.46957e-14
5.62044e-14
5.76675e-14
5.90721e-14
6.04035e-14
6.16451e-14
6.27783e-14
6.37821e-14
6.46328e-14
6.53036e-14
6.57643e-14
6.5981e-14
6.59151e-14
6.55229e-14
6.4755e-14
6.35546e-14
6.1857e-14
5.95864e-14
5.6654e-14
5.29511e-14
4.83432e-14
4.26672e-14
3.56797e-14
2.67304e-14
1.48439e-14
8.8833e-16
2.00548e-15
1.86972e-15
1.79985e-15
1.83758e-15
1.92123e-15
2.02771e-15
2.15138e-15
2.28945e-15
2.43986e-15
2.60176e-15
2.77493e-15
2.95906e-15
3.15443e-15
3.36139e-15
3.58041e-15
3.81197e-15
4.05655e-15
4.31465e-15
4.58695e-15
4.87417e-15
5.17703e-15
5.49608e-15
5.83214e-15
6.18596e-15
6.55834e-15
6.95e-15
7.36183e-15
7.79465e-15
8.2493e-15
8.72679e-15
9.22782e-15
9.75337e-15
1.03045e-14
1.08821e-14
1.14869e-14
1.21201e-14
1.27825e-14
1.34752e-14
1.41989e-14
1.49549e-14
1.57439e-14
1.65668e-14
1.74246e-14
1.83182e-14
1.92485e-14
2.02161e-14
2.12218e-14
2.22664e-14
2.33504e-14
2.44745e-14
2.5639e-14
2.68444e-14
2.8091e-14
2.93787e-14
3.07077e-14
3.20776e-14
3.34881e-14
3.49386e-14
3.64284e-14
3.79562e-14
3.95206e-14
4.11201e-14
4.27524e-14
4.44151e-14
4.61054e-14
4.78196e-14
4.95539e-14
5.13035e-14
5.30633e-14
5.48271e-14
5.65879e-14
5.83379e-14
6.00681e-14
6.17683e-14
6.34272e-14
6.50317e-14
6.65672e-14
6.80175e-14
6.93638e-14
7.05854e-14
7.16591e-14
7.25583e-14
7.32534e-14
7.37112e-14
7.38941e-14
7.37597e-14
7.32602e-14
7.23412e-14
7.09411e-14
6.89896e-14
6.64053e-14
6.3094e-14
5.8944e-14
5.38193e-14
4.7555e-14
3.99797e-14
3.08579e-14
1.91907e-14
2.88108e-15
-1.10788e-14
2.31124e-15
2.10694e-15
1.94922e-15
1.90844e-15
1.92661e-15
1.97764e-15
2.05316e-15
2.14842e-15
2.25984e-15
2.38506e-15
2.52299e-15
2.67281e-15
2.83407e-15
3.00668e-15
3.19079e-15
3.38663e-15
3.59428e-15
3.81404e-15
4.04641e-15
4.2918e-15
4.55074e-15
4.82368e-15
5.1112e-15
5.41391e-15
5.7323e-15
6.06693e-15
6.41859e-15
6.78781e-15
7.17531e-15
7.58178e-15
8.00785e-15
8.4543e-15
8.92185e-15
9.41115e-15
9.92296e-15
1.0458e-14
1.10169e-14
1.16005e-14
1.22094e-14
1.28444e-14
1.35061e-14
1.41952e-14
1.49123e-14
1.56582e-14
1.64332e-14
1.7238e-14
1.8073e-14
1.89385e-14
1.98351e-14
2.07628e-14
2.1722e-14
2.27127e-14
2.3735e-14
2.47885e-14
2.58731e-14
2.69882e-14
2.81333e-14
2.93075e-14
3.05098e-14
3.17388e-14
3.2993e-14
3.42706e-14
3.55692e-14
3.68864e-14
3.82191e-14
3.95639e-14
4.09168e-14
4.22732e-14
4.3628e-14
4.49754e-14
4.63087e-14
4.76204e-14
4.89021e-14
5.01442e-14
5.1336e-14
5.24656e-14
5.35194e-14
5.44824e-14
5.53376e-14
5.6066e-14
5.66464e-14
5.70547e-14
5.72644e-14
5.72456e-14
5.69645e-14
5.63832e-14
5.54592e-14
5.41442e-14
5.23838e-14
5.01159e-14
4.72694e-14
4.37623e-14
3.94988e-14
3.43631e-14
2.82236e-14
2.09754e-14
1.24739e-14
1.57015e-15
-1.41179e-14
-2.25492e-14
2.52775e-15
2.31464e-15
2.13698e-15
2.06327e-15
2.04782e-15
2.06896e-15
2.11852e-15
2.1912e-15
2.28285e-15
2.39063e-15
2.51284e-15
2.6482e-15
2.79596e-15
2.95573e-15
3.1274e-15
3.31093e-15
3.50646e-15
3.71391e-15
3.93371e-15
4.16613e-15
4.41156e-15
4.67036e-15
4.94315e-15
5.23029e-15
5.53223e-15
5.84944e-15
6.18254e-15
6.53202e-15
6.89848e-15
7.28255e-15
7.68474e-15
8.10578e-15
8.54622e-15
9.00665e-15
9.48771e-15
9.98991e-15
1.05139e-14
1.10603e-14
1.16297e-14
1.22226e-14
1.28396e-14
1.34812e-14
1.41479e-14
1.48403e-14
1.55585e-14
1.63032e-14
1.70744e-14
1.78726e-14
1.86978e-14
1.95501e-14
2.04296e-14
2.13362e-14
2.22695e-14
2.32292e-14
2.42149e-14
2.52259e-14
2.62613e-14
2.73201e-14
2.8401e-14
2.95024e-14
3.06225e-14
3.17593e-14
3.29101e-14
3.40724e-14
3.52427e-14
3.64174e-14
3.75923e-14
3.87625e-14
3.99227e-14
4.10667e-14
4.21878e-14
4.32782e-14
4.43291e-14
4.53311e-14
4.62731e-14
4.7143e-14
4.79274e-14
4.86109e-14
4.91768e-14
4.9606e-14
4.98776e-14
4.9968e-14
4.98509e-14
4.94969e-14
4.88732e-14
4.79431e-14
4.66654e-14
4.49939e-14
4.28766e-14
4.0255e-14
3.70623e-14
3.32233e-14
2.86512e-14
2.32436e-14
1.68904e-14
9.5281e-15
1.0512e-15
-9.80798e-15
-2.52579e-14
-3.14108e-14
2.68423e-15
2.4833e-15
2.30788e-15
2.22107e-15
2.18807e-15
2.1916e-15
2.22511e-15
2.28331e-15
2.36225e-15
2.45901e-15
2.57161e-15
2.69843e-15
2.83856e-15
2.99146e-15
3.1568e-15
3.33444e-15
3.52435e-15
3.7264e-15
3.94073e-15
4.16774e-15
4.40761e-15
4.66063e-15
4.9274e-15
5.20817e-15
5.50336e-15
5.81327e-15
6.13859e-15
6.47964e-15
6.83702e-15
7.21126e-15
7.60282e-15
8.01227e-15
8.44016e-15
8.88704e-15
9.35343e-15
9.83968e-15
1.03465e-14
1.08743e-14
1.14236e-14
1.19949e-14
1.25886e-14
1.32051e-14
1.38449e-14
1.45081e-14
1.51952e-14
1.59065e-14
1.66419e-14
1.74017e-14
1.81858e-14
1.89942e-14
1.98268e-14
2.06834e-14
2.15633e-14
2.24662e-14
2.33913e-14
2.43377e-14
2.53045e-14
2.62903e-14
2.72937e-14
2.83128e-14
2.93457e-14
3.03899e-14
3.14428e-14
3.25012e-14
3.35617e-14
3.46201e-14
3.56722e-14
3.67126e-14
3.77358e-14
3.87353e-14
3.9704e-14
4.06338e-14
4.15157e-14
4.23398e-14
4.30947e-14
4.37682e-14
4.43464e-14
4.48138e-14
4.51533e-14
4.53458e-14
4.53701e-14
4.52027e-14
4.48174e-14
4.41849e-14
4.32728e-14
4.20452e-14
4.04617e-14
3.84778e-14
3.60435e-14
3.31032e-14
2.95946e-14
2.54485e-14
2.05867e-14
1.49193e-14
8.35543e-15
8.65358e-16
-7.62239e-15
-1.84548e-14
-3.36753e-14
-3.85568e-14
2.78369e-15
2.59757e-15
2.43003e-15
2.33807e-15
2.29431e-15
2.28554e-15
2.30643e-15
2.35259e-15
2.42021e-15
2.50653e-15
2.60947e-15
2.7274e-15
2.85936e-15
3.00449e-15
3.16244e-15
3.33293e-15
3.51579e-15
3.7108e-15
3.91811e-15
4.13789e-15
4.37036e-15
4.61574e-15
4.87433e-15
5.14653e-15
5.43255e-15
5.73283e-15
6.04781e-15
6.37785e-15
6.7234e-15
7.08489e-15
7.46278e-15
7.85757e-15
8.26965e-15
8.69962e-15
9.14777e-15
9.61448e-15
1.01003e-14
1.06056e-14
1.11308e-14
1.16763e-14
1.22423e-14
1.28292e-14
1.34374e-14
1.40669e-14
1.4718e-14
1.53907e-14
1.60852e-14
1.68013e-14
1.75389e-14
1.8298e-14
1.9078e-14
1.98787e-14
2.06995e-14
2.15395e-14
2.2398e-14
2.3274e-14
2.4166e-14
2.50728e-14
2.59926e-14
2.69235e-14
2.78631e-14
2.8809e-14
2.97581e-14
3.07071e-14
3.16524e-14
3.25897e-14
3.35142e-14
3.44208e-14
3.53033e-14
3.61552e-14
3.69692e-14
3.77369e-14
3.84491e-14
3.90957e-14
3.96654e-14
4.01456e-14
4.05225e-14
4.07805e-14
4.09024e-14
4.08696e-14
4.06608e-14
4.0253e-14
3.96204e-14
3.87346e-14
3.75641e-14
3.60743e-14
3.42269e-14
3.19795e-14
2.92853e-14
2.6093e-14
2.2346e-14
1.79828e-14
1.29356e-14
7.12794e-15
4.88374e-16
-6.97722e-15
-1.5298e-14
-2.59423e-14
-4.1261e-14
-4.42856e-14
2.84307e-15
2.67118e-15
2.51354e-15
2.42086e-15
2.37107e-15
2.35392e-15
2.36529e-15
2.40149e-15
2.45938e-15
2.53627e-15
2.63006e-15
2.73936e-15
2.86296e-15
3.00002e-15
3.15012e-15
3.31277e-15
3.48778e-15
3.67494e-15
3.8743e-15
4.08582e-15
4.3098e-15
4.54636e-15
4.79553e-15
5.05778e-15
5.33343e-15
5.62269e-15
5.92587e-15
6.24333e-15
6.57542e-15
6.92256e-15
7.2851e-15
7.6634e-15
8.05794e-15
8.46912e-15
8.89712e-15
9.34236e-15
9.80512e-15
1.02859e-14
1.07849e-14
1.13024e-14
1.18385e-14
1.23936e-14
1.29678e-14
1.35612e-14
1.41739e-14
1.48059e-14
1.54569e-14
1.6127e-14
1.68158e-14
1.7523e-14
1.82481e-14
1.89907e-14
1.97499e-14
2.05249e-14
2.13146e-14
2.21179e-14
2.29332e-14
2.37592e-14
2.45937e-14
2.54347e-14
2.62798e-14
2.71262e-14
2.79707e-14
2.88099e-14
2.96399e-14
3.04563e-14
3.1254e-14
3.20279e-14
3.27715e-14
3.34784e-14
3.41408e-14
3.47505e-14
3.5298e-14
3.57734e-14
3.61651e-14
3.64607e-14
3.66464e-14
3.67068e-14
3.66251e-14
3.63826e-14
3.5959e-14
3.53317e-14
3.44758e-14
3.33639e-14
3.19662e-14
3.02497e-14
2.81783e-14
2.57129e-14
2.28105e-14
1.94246e-14
1.55051e-14
1.09987e-14
5.84833e-15
-9.33205e-18
-6.62798e-15
-1.39658e-14
-2.20046e-14
-3.23804e-14
-4.81769e-14
-4.89759e-14
2.87418e-15
2.71525e-15
2.56775e-15
2.47698e-15
2.42433e-15
2.40173e-15
2.40629e-15
2.43481e-15
2.48457e-15
2.55328e-15
2.63892e-15
2.74016e-15
2.85592e-15
2.98513e-15
3.12742e-15
3.2822e-15
3.44931e-15
3.62853e-15
3.81967e-15
4.02271e-15
4.23782e-15
4.46516e-15
4.7046e-15
4.95661e-15
5.22144e-15
5.49922e-15
5.79019e-15
6.09458e-15
6.4128e-15
6.74515e-15
7.09193e-15
7.45341e-15
7.82991e-15
8.22183e-15
8.62934e-15
9.05269e-15
9.4921e-15
9.94799e-15
1.04204e-14
1.09096e-14
1.14156e-14
1.19388e-14
1.24789e-14
1.30362e-14
1.36105e-14
1.42016e-14
1.48095e-14
1.54337e-14
1.6074e-14
1.67298e-14
1.74006e-14
1.80857e-14
1.87842e-14
1.94952e-14
2.02173e-14
2.09493e-14
2.16896e-14
2.24365e-14
2.31878e-14
2.39414e-14
2.46945e-14
2.54444e-14
2.61878e-14
2.6921e-14
2.76399e-14
2.834e-14
2.90163e-14
2.96632e-14
3.02745e-14
3.08433e-14
3.13621e-14
3.18225e-14
3.22151e-14
3.25298e-14
3.27553e-14
3.28792e-14
3.2888e-14
3.27665e-14
3.24984e-14
3.20655e-14
3.1448e-14
3.06243e-14
2.95705e-14
2.82607e-14
2.66667e-14
2.47574e-14
2.24996e-14
1.98573e-14
1.67916e-14
1.32611e-14
9.22233e-15
4.62999e-15
-5.62835e-16
-6.40749e-15
-1.29422e-14
-2.00929e-14
-2.77956e-14
-3.78539e-14
-5.41637e-14
-5.29785e-14
2.88314e-15
2.73569e-15
2.59777e-15
2.51032e-15
2.45684e-15
2.43103e-15
2.43074e-15
2.45311e-15
2.49622e-15
2.5579e-15
2.63627e-15
2.73012e-15
2.83844e-15
2.96013e-15
3.09476e-15
3.24187e-15
3.4011e-15
3.57224e-15
3.75503e-15
3.94939e-15
4.15539e-15
4.37321e-15
4.60275e-15
4.84425e-15
5.09788e-15
5.36379e-15
5.64226e-15
5.93332e-15
6.23738e-15
6.55454e-15
6.88517e-15
7.22948e-15
7.58781e-15
7.96016e-15
8.34681e-15
8.74806e-15
9.16394e-15
9.59466e-15
1.00404e-14
1.05012e-14
1.09771e-14
1.14682e-14
1.19743e-14
1.24956e-14
1.30316e-14
1.35823e-14
1.41472e-14
1.47261e-14
1.53183e-14
1.59235e-14
1.65407e-14
1.71693e-14
1.78082e-14
1.84563e-14
1.91122e-14
1.97745e-14
2.04417e-14
2.11116e-14
2.1782e-14
2.24507e-14
2.31149e-14
2.37716e-14
2.44175e-14
2.50486e-14
2.56609e-14
2.62497e-14
2.681e-14
2.7336e-14
2.78216e-14
2.82598e-14
2.8643e-14
2.89629e-14
2.92102e-14
2.93749e-14
2.94459e-14
2.9411e-14
2.92569e-14
2.8969e-14
2.85314e-14
2.79265e-14
2.71354e-14
2.61374e-14
2.491e-14
2.34286e-14
2.16669e-14
1.95962e-14
1.71859e-14
1.44034e-14
1.12138e-14
7.58098e-15
3.46739e-15
-1.16452e-15
-6.35252e-15
-1.21373e-14
-1.85434e-14
-2.54684e-14
-3.28007e-14
-4.24546e-14
-5.90407e-14
-5.63563e-14
2.87332e-15
2.73654e-15
2.60749e-15
2.52379e-15
2.47094e-15
2.44333e-15
2.43943e-15
2.45722e-15
2.49481e-15
2.55028e-15
2.62216e-15
2.70917e-15
2.81046e-15
2.92492e-15
3.05218e-15
3.19165e-15
3.34299e-15
3.50591e-15
3.68023e-15
3.86576e-15
4.0626e-15
4.27066e-15
4.48997e-15
4.72065e-15
4.96283e-15
5.21658e-15
5.48221e-15
5.75967e-15
6.0492e-15
6.35089e-15
6.66508e-15
6.99196e-15
7.33164e-15
7.68422e-15
8.04984e-15
8.42867e-15
8.82074e-15
9.22622e-15
9.64513e-15
1.00774e-14
1.05231e-14
1.09821e-14
1.14543e-14
1.19395e-14
1.24375e-14
1.2948e-14
1.34703e-14
1.40042e-14
1.4549e-14
1.51041e-14
1.56686e-14
1.62415e-14
1.68219e-14
1.74083e-14
1.79995e-14
1.85938e-14
1.91895e-14
1.97844e-14
2.03764e-14
2.09628e-14
2.15409e-14
2.21076e-14
2.26595e-14
2.31925e-14
2.37026e-14
2.4185e-14
2.46345e-14
2.50456e-14
2.54119e-14
2.57266e-14
2.59821e-14
2.617e-14
2.62814e-14
2.63065e-14
2.62342e-14
2.60528e-14
2.57494e-14
2.53098e-14
2.47186e-14
2.39593e-14
2.30137e-14
2.18622e-14
2.04836e-14
1.8855e-14
1.69519e-14
1.47481e-14
1.22157e-14
9.32548e-15
6.04639e-15
2.34698e-15
-1.80459e-15
-6.43922e-15
-1.15867e-14
-1.72789e-14
-2.35296e-14
-3.02155e-14
-3.71874e-14
-4.6428e-14
-6.29986e-14
-5.93259e-14
2.84787e-15
2.72049e-15
2.59982e-15
2.52027e-15
2.46868e-15
2.44026e-15
2.43381e-15
2.44801e-15
2.48096e-15
2.53107e-15
2.59709e-15
2.67783e-15
2.77244e-15
2.87999e-15
3.00006e-15
3.13193e-15
3.27541e-15
3.43019e-15
3.59589e-15
3.77247e-15
3.95999e-15
4.15816e-15
4.36705e-15
4.58665e-15
4.81719e-15
5.05856e-15
5.31103e-15
5.57466e-15
5.8494e-15
6.13539e-15
6.43297e-15
6.74211e-15
7.06292e-15
7.39553e-15
7.73987e-15
8.09615e-15
8.46433e-15
8.84445e-15
9.23643e-15
9.64025e-15
1.00557e-14
1.04828e-14
1.09211e-14
1.13706e-14
1.18308e-14
1.23013e-14
1.27816e-14
1.32711e-14
1.37691e-14
1.42749e-14
1.47874e-14
1.53058e-14
1.58288e-14
1.63549e-14
1.68828e-14
1.74108e-14
1.7937e-14
1.84591e-14
1.8975e-14
1.94819e-14
1.9977e-14
2.0457e-14
2.09185e-14
2.13575e-14
2.17698e-14
2.21507e-14
2.24949e-14
2.27969e-14
2.30504e-14
2.32487e-14
2.33842e-14
2.34488e-14
2.34336e-14
2.3329e-14
2.31245e-14
2.28086e-14
2.23688e-14
2.17916e-14
2.10624e-14
2.01652e-14
1.9083e-14
1.77974e-14
1.62886e-14
1.45352e-14
1.25149e-14
1.02035e-14
7.57603e-15
4.60626e-15
1.26702e-15
-2.46905e-15
-6.6288e-15
-1.12376e-14
-1.63188e-14
-2.18979e-14
-2.79818e-14
-3.44341e-14
-4.10889e-14
-5.00057e-14
-6.65495e-14
-6.21662e-14
2.80855e-15
2.68999e-15
2.57712e-15
2.50174e-15
2.45185e-15
2.42332e-15
2.41532e-15
2.42657e-15
2.45561e-15
2.50099e-15
2.56169e-15
2.6367e-15
2.72501e-15
2.82586e-15
2.93891e-15
3.06346e-15
3.19912e-15
3.34565e-15
3.5028e-15
3.6704e-15
3.84838e-15
4.03657e-15
4.23487e-15
4.44328e-15
4.66192e-15
4.89079e-15
5.12993e-15
5.37946e-15
5.63931e-15
5.90944e-15
6.19017e-15
6.4814e-15
6.78322e-15
7.09568e-15
7.41873e-15
7.75236e-15
8.09659e-15
8.45134e-15
8.81642e-15
9.19184e-15
9.57721e-15
9.97251e-15
1.03773e-14
1.07913e-14
1.12141e-14
1.16452e-14
1.2084e-14
1.25297e-14
1.29817e-14
1.34391e-14
1.39007e-14
1.43657e-14
1.48326e-14
1.52999e-14
1.57662e-14
1.62297e-14
1.66885e-14
1.71402e-14
1.75825e-14
1.80126e-14
1.84277e-14
1.88245e-14
1.91994e-14
1.95486e-14
1.98677e-14
2.0152e-14
2.03964e-14
2.05953e-14
2.07425e-14
2.08313e-14
2.08545e-14
2.08041e-14
2.06714e-14
2.04471e-14
2.01211e-14
1.96822e-14
1.91187e-14
1.84174e-14
1.75646e-14
1.65453e-14
1.53434e-14
1.39417e-14
1.23219e-14
1.04643e-14
8.34832e-15
5.95218e-15
3.25338e-15
2.28652e-16
-3.14585e-15
-6.89377e-15
-1.10378e-14
-1.55987e-14
-2.05951e-14
-2.6048e-14
-3.196e-14
-3.81871e-14
-4.45573e-14
-5.32102e-14
-6.97453e-14
-6.4673e-14
2.75729e-15
2.64682e-15
2.54128e-15
2.47008e-15
2.42223e-15
2.39408e-15
2.385e-15
2.39401e-15
2.41965e-15
2.46088e-15
2.51678e-15
2.58634e-15
2.66874e-15
2.76323e-15
2.86942e-15
2.98668e-15
3.11466e-15
3.25308e-15
3.40162e-15
3.56028e-15
3.72862e-15
3.90663e-15
4.09428e-15
4.29139e-15
4.49806e-15
4.71425e-15
4.94002e-15
5.17528e-15
5.42001e-15
5.67422e-15
5.9379e-15
6.21118e-15
6.49402e-15
6.78625e-15
7.0879e-15
7.39897e-15
7.71933e-15
8.04872e-15
8.38711e-15
8.7342e-15
9.08975e-15
9.45351e-15
9.82509e-15
1.02041e-14
1.059e-14
1.09822e-14
1.13801e-14
1.17828e-14
1.21897e-14
1.25996e-14
1.30115e-14
1.34243e-14
1.38365e-14
1.42467e-14
1.46532e-14
1.50542e-14
1.54476e-14
1.58313e-14
1.62027e-14
1.65589e-14
1.68972e-14
1.72143e-14
1.75065e-14
1.777e-14
1.80004e-14
1.81932e-14
1.83431e-14
1.84448e-14
1.84921e-14
1.84785e-14
1.8397e-14
1.82397e-14
1.79983e-14
1.76639e-14
1.72266e-14
1.66759e-14
1.60005e-14
1.51881e-14
1.42255e-14
1.30987e-14
1.17927e-14
1.02917e-14
8.57842e-15
6.63516e-15
4.44302e-15
1.98236e-15
-7.66961e-16
-3.82566e-15
-7.21446e-15
-1.09537e-14
-1.50628e-14
-1.95587e-14
-2.44567e-14
-2.97743e-14
-3.55114e-14
-4.15189e-14
-4.76208e-14
-5.60222e-14
-7.24931e-14
-6.67396e-14
2.69534e-15
2.59258e-15
2.49391e-15
2.42682e-15
2.38123e-15
2.3538e-15
2.34416e-15
2.35128e-15
2.37409e-15
2.41155e-15
2.46306e-15
2.52754e-15
2.60429e-15
2.69266e-15
2.79218e-15
2.90229e-15
3.02269e-15
3.15309e-15
3.2931e-15
3.44267e-15
3.60144e-15
3.76925e-15
3.94611e-15
4.13189e-15
4.32659e-15
4.53e-15
4.74218e-15
4.96311e-15
5.19271e-15
5.43083e-15
5.67753e-15
5.93286e-15
6.19661e-15
6.46871e-15
6.74906e-15
7.03758e-15
7.3341e-15
7.63833e-15
7.95016e-15
8.26925e-15
8.59523e-15
8.92781e-15
9.26661e-15
9.61108e-15
9.96061e-15
1.03147e-14
1.06724e-14
1.1033e-14
1.13957e-14
1.17592e-14
1.21226e-14
1.24846e-14
1.28437e-14
1.31983e-14
1.35469e-14
1.38874e-14
1.42178e-14
1.45358e-14
1.48389e-14
1.51243e-14
1.53891e-14
1.56299e-14
1.58433e-14
1.60253e-14
1.61717e-14
1.62778e-14
1.63387e-14
1.63489e-14
1.63026e-14
1.61934e-14
1.60145e-14
1.57584e-14
1.54168e-14
1.49815e-14
1.44428e-14
1.37908e-14
1.30148e-14
1.21033e-14
1.10438e-14
9.8233e-15
8.42779e-15
6.84254e-15
5.05193e-15
3.03967e-15
7.88651e-16
-1.71873e-15
-4.50055e-15
-7.5751e-15
-1.09605e-14
-1.46744e-14
-1.87331e-14
-2.31509e-14
-2.794e-14
-3.31159e-14
-3.86766e-14
-4.44689e-14
-5.03136e-14
-5.84673e-14
-7.48307e-14
-6.84488e-14
2.62409e-15
2.5284e-15
2.43644e-15
2.37348e-15
2.33018e-15
2.30373e-15
2.29376e-15
2.2994e-15
2.3197e-15
2.35391e-15
2.40132e-15
2.46098e-15
2.53236e-15
2.61481e-15
2.70784e-15
2.811e-15
2.92391e-15
3.04635e-15
3.17792e-15
3.3184e-15
3.46759e-15
3.62521e-15
3.79126e-15
3.96568e-15
4.14827e-15
4.3389e-15
4.53759e-15
4.74407e-15
4.95838e-15
5.18054e-15
5.41032e-15
5.64764e-15
5.8924e-15
6.14442e-15
6.40354e-15
6.66965e-15
6.9425e-15
7.22186e-15
7.50736e-15
7.7987e-15
8.09554e-15
8.39739e-15
8.70389e-15
9.01436e-15
9.32827e-15
9.64482e-15
9.96324e-15
1.02827e-14
1.06021e-14
1.09205e-14
1.12366e-14
1.15492e-14
1.18568e-14
1.21576e-14
1.24501e-14
1.27323e-14
1.3002e-14
1.32569e-14
1.34945e-14
1.3712e-14
1.39065e-14
1.40747e-14
1.4213e-14
1.43177e-14
1.43845e-14
1.44089e-14
1.4386e-14
1.43105e-14
1.41769e-14
1.39787e-14
1.37095e-14
1.33621e-14
1.29287e-14
1.24011e-14
1.17705e-14
1.10273e-14
1.01614e-14
9.16192e-15
8.01755e-15
6.71597e-15
5.24416e-15
3.5887e-15
1.73526e-15
-3.31031e-16
-2.62555e-15
-5.16411e-15
-7.96288e-15
-1.10379e-14
-1.44052e-14
-1.80798e-14
-2.20758e-14
-2.64051e-14
-3.10778e-14
-3.61077e-14
-4.14914e-14
-4.70725e-14
-5.26692e-14
-6.05789e-14
-7.68057e-14
-6.98584e-14
2.5444e-15
2.45568e-15
2.37007e-15
2.31118e-15
2.27037e-15
2.24494e-15
2.23475e-15
2.23924e-15
2.25739e-15
2.28863e-15
2.33226e-15
2.38747e-15
2.45372e-15
2.53036e-15
2.61714e-15
2.71348e-15
2.81903e-15
2.93353e-15
3.05665e-15
3.18809e-15
3.32773e-15
3.4752e-15
3.63061e-15
3.79361e-15
3.96407e-15
4.14194e-15
4.32703e-15
4.51918e-15
4.71835e-15
4.92449e-15
5.13734e-15
5.35681e-15
5.58262e-15
5.81477e-15
6.05283e-15
6.29671e-15
6.54615e-15
6.8008e-15
7.06031e-15
7.32435e-15
7.59244e-15
7.86409e-15
8.13881e-15
8.416e-15
8.6949e-15
8.97479e-15
9.25478e-15
9.53401e-15
9.81144e-15
1.00859e-14
1.03561e-14
1.06208e-14
1.08785e-14
1.11273e-14
1.13657e-14
1.15916e-14
1.18029e-14
1.19972e-14
1.21721e-14
1.23248e-14
1.24523e-14
1.25514e-14
1.26185e-14
1.265e-14
1.26416e-14
1.25891e-14
1.24876e-14
1.23321e-14
1.2117e-14
1.18363e-14
1.14837e-14
1.10523e-14
1.05348e-14
9.9234e-15
9.20965e-15
8.38469e-15
7.4389e-15
6.36222e-15
5.14402e-15
3.77291e-15
2.23703e-15
5.23965e-16
-1.37931e-15
-3.48624e-15
-5.81072e-15
-8.3669e-15
-1.11692e-14
-1.42317e-14
-1.75684e-14
-2.11925e-14
-2.5116e-14
-2.93489e-14
-3.38996e-14
-3.87805e-14
-4.39875e-14
-4.93614e-14
-5.47183e-14
-6.23878e-14
-7.8455e-14
-7.10038e-14
2.45718e-15
2.37537e-15
2.29598e-15
2.24108e-15
2.2027e-15
2.17849e-15
2.16826e-15
2.17178e-15
2.18808e-15
2.21652e-15
2.25667e-15
2.30761e-15
2.36893e-15
2.44005e-15
2.5207e-15
2.61035e-15
2.70865e-15
2.8153e-15
2.9301e-15
3.05268e-15
3.18274e-15
3.32015e-15
3.46479e-15
3.61643e-15
3.77487e-15
3.93998e-15
4.11158e-15
4.28953e-15
4.47361e-15
4.66378e-15
4.85987e-15
5.06156e-15
5.26859e-15
5.48091e-15
5.6982e-15
5.92016e-15
6.14646e-15
6.37674e-15
6.61064e-15
6.84782e-15
7.08774e-15
7.32974e-15
7.5733e-15
7.81782e-15
8.06252e-15
8.30661e-15
8.54917e-15
8.78922e-15
9.02571e-15
9.25757e-15
9.48338e-15
9.7016e-15
9.91101e-15
1.01097e-14
1.0296e-14
1.04679e-14
1.06232e-14
1.07595e-14
1.08745e-14
1.09653e-14
1.1029e-14
1.10624e-14
1.10622e-14
1.10246e-14
1.09455e-14
1.08208e-14
1.06457e-14
1.04155e-14
1.01247e-14
9.76764e-15
9.33823e-15
8.82998e-15
8.23583e-15
7.54854e-15
6.76005e-15
5.86212e-15
4.84575e-15
3.70164e-15
2.41982e-15
9.89916e-16
-5.98999e-16
-2.35829e-15
-4.29974e-15
-6.43551e-15
-8.77809e-15
-1.13401e-14
-1.41344e-14
-1.71734e-14
-2.04693e-14
-2.40337e-14
-2.7877e-14
-3.20072e-14
-3.64319e-14
-4.11624e-14
-4.61935e-14
-5.13644e-14
-5.64893e-14
-6.39224e-14
-7.98108e-14
-7.19126e-14
2.36349e-15
2.2885e-15
2.21509e-15
2.16418e-15
2.1282e-15
2.10523e-15
2.09533e-15
2.09794e-15
2.11251e-15
2.13849e-15
2.17531e-15
2.22213e-15
2.27863e-15
2.34449e-15
2.41924e-15
2.50236e-15
2.59348e-15
2.69247e-15
2.79893e-15
2.9127e-15
3.03338e-15
3.16077e-15
3.29474e-15
3.43502e-15
3.58156e-15
3.73398e-15
3.8922e-15
4.05603e-15
4.22521e-15
4.39957e-15
4.57897e-15
4.76301e-15
4.9515e-15
5.1443e-15
5.34098e-15
5.54129e-15
5.7448e-15
5.95117e-15
6.16e-15
6.37078e-15
6.58295e-15
6.79589e-15
7.00901e-15
7.22167e-15
7.43297e-15
7.64217e-15
7.84829e-15
8.0503e-15
8.2472e-15
8.43771e-15
8.62048e-15
8.79392e-15
8.95677e-15
9.10719e-15
9.24347e-15
9.36349e-15
9.46511e-15
9.54603e-15
9.60385e-15
9.63581e-15
9.63894e-15
9.6102e-15
9.5463e-15
9.44357e-15
9.29809e-15
9.10571e-15
8.86199e-15
8.56226e-15
8.20136e-15
7.77388e-15
7.27397e-15
6.69545e-15
6.03174e-15
5.27599e-15
4.42067e-15
3.45806e-15
2.37974e-15
1.17711e-15
-1.58844e-16
-1.63781e-15
-3.26977e-15
-5.06504e-15
-7.0343e-15
-9.18849e-15
-1.15388e-14
-1.40965e-14
-1.6873e-14
-1.98792e-14
-2.3126e-14
-2.66232e-14
-3.038e-14
-3.44033e-14
-3.86992e-14
-4.32785e-14
-4.81353e-14
-5.31075e-14
-5.80078e-14
-6.52085e-14
-8.09019e-14
-7.26087e-14
2.26418e-15
2.196e-15
2.12864e-15
2.08137e-15
2.04785e-15
2.02624e-15
2.01663e-15
2.01857e-15
2.03155e-15
2.05521e-15
2.08886e-15
2.13176e-15
2.18374e-15
2.2444e-15
2.31331e-15
2.39005e-15
2.4742e-15
2.56561e-15
2.66395e-15
2.76898e-15
2.88037e-15
2.99788e-15
3.12129e-15
3.25036e-15
3.385e-15
3.52493e-15
3.66991e-15
3.81972e-15
3.97407e-15
4.13277e-15
4.29563e-15
4.46231e-15
4.63257e-15
4.80609e-15
4.98251e-15
5.16149e-15
5.34264e-15
5.52556e-15
5.70975e-15
5.89465e-15
6.0797e-15
6.26422e-15
6.44764e-15
6.62922e-15
6.80808e-15
6.98335e-15
7.15407e-15
7.31921e-15
7.47769e-15
7.62823e-15
7.76942e-15
7.89978e-15
8.01784e-15
8.12184e-15
8.21004e-15
8.2804e-15
8.3308e-15
8.35892e-15
8.36232e-15
8.33837e-15
8.28414e-15
8.19663e-15
8.07269e-15
7.90877e-15
7.70099e-15
7.44541e-15
7.13778e-15
6.77358e-15
6.34789e-15
5.85561e-15
5.29119e-15
4.64876e-15
3.92218e-15
3.10492e-15
2.1901e-15
1.17051e-15
3.82885e-17
-1.21453e-15
-2.59617e-15
-4.11539e-15
-5.7814e-15
-7.60345e-15
-9.59134e-15
-1.17548e-14
-1.41038e-14
-1.66485e-14
-1.93988e-14
-2.23646e-14
-2.55552e-14
-2.89794e-14
-3.26451e-14
-3.65581e-14
-4.07237e-14
-4.5152e-14
-4.98366e-14
-5.46144e-14
-5.92975e-14
-6.627e-14
-8.17542e-14
-7.31136e-14
2.15997e-15
2.09906e-15
2.03748e-15
1.99374e-15
1.96249e-15
1.94219e-15
1.93299e-15
1.93443e-15
1.94601e-15
1.9674e-15
1.99791e-15
2.03719e-15
2.08485e-15
2.14047e-15
2.20366e-15
2.27412e-15
2.35152e-15
2.4355e-15
2.52574e-15
2.62219e-15
2.72439e-15
2.83214e-15
2.94516e-15
3.06324e-15
3.18612e-15
3.31371e-15
3.44556e-15
3.58149e-15
3.72117e-15
3.86446e-15
4.01109e-15
4.16063e-15
4.31286e-15
4.46747e-15
4.624e-15
4.78209e-15
4.94131e-15
5.1012e-15
5.26123e-15
5.42087e-15
5.57944e-15
5.73632e-15
5.89081e-15
6.04214e-15
6.18945e-15
6.33183e-15
6.46827e-15
6.59775e-15
6.71906e-15
6.83098e-15
6.93207e-15
7.02095e-15
7.09607e-15
7.15559e-15
7.19778e-15
7.22072e-15
7.22223e-15
7.20001e-15
7.1517e-15
7.07478e-15
6.96634e-15
6.82345e-15
6.64301e-15
6.42162e-15
6.15563e-15
5.84115e-15
5.47412e-15
5.05026e-15
4.56488e-15
4.01317e-15
3.38986e-15
2.68951e-15
1.90628e-15
1.03411e-15
6.66374e-17
-1.00294e-15
-2.18169e-15
-3.47701e-15
-4.89651e-15
-6.44808e-15
-8.14e-15
-9.98079e-15
-1.19792e-14
-1.41439e-14
-1.64839e-14
-1.9008e-14
-2.17252e-14
-2.46442e-14
-2.77731e-14
-3.11197e-14
-3.46908e-14
-3.84913e-14
-4.25259e-14
-4.68039e-14
-5.13188e-14
-5.59069e-14
-6.03798e-14
-6.71284e-14
-8.23915e-14
-7.34463e-14
2.05321e-15
1.99884e-15
1.94243e-15
1.90199e-15
1.87301e-15
1.85411e-15
1.84525e-15
1.84622e-15
1.85649e-15
1.87576e-15
1.90337e-15
1.93904e-15
1.9825e-15
2.03324e-15
2.09099e-15
2.15534e-15
2.22598e-15
2.30271e-15
2.38511e-15
2.47309e-15
2.56629e-15
2.66439e-15
2.76712e-15
2.87438e-15
2.98572e-15
3.10102e-15
3.21995e-15
3.34223e-15
3.46759e-15
3.59569e-15
3.72623e-15
3.85898e-15
3.99356e-15
4.12958e-15
4.26663e-15
4.4043e-15
4.54201e-15
4.67939e-15
4.81588e-15
4.95086e-15
5.08368e-15
5.21359e-15
5.33996e-15
5.46195e-15
5.57869e-15
5.68922e-15
5.79246e-15
5.88747e-15
5.973e-15
6.04772e-15
6.11038e-15
6.15937e-15
6.19323e-15
6.21012e-15
6.20836e-15
6.18601e-15
6.141e-15
6.07108e-15
5.97379e-15
5.84673e-15
5.68709e-15
5.49205e-15
5.25857e-15
4.98341e-15
4.66306e-15
4.29379e-15
3.87172e-15
3.3928e-15
2.8526e-15
2.24652e-15
1.5697e-15
8.16968e-16
-1.70328e-17
-9.37976e-16
-1.95181e-15
-3.06478e-15
-4.28335e-15
-5.6143e-15
-7.06452e-15
-8.64129e-15
-1.0352e-14
-1.22043e-14
-1.42061e-14
-1.63651e-14
-1.86893e-14
-2.11867e-14
-2.3865e-14
-2.67319e-14
-2.97947e-14
-3.30601e-14
-3.6534e-14
-4.02209e-14
-4.41244e-14
-4.82537e-14
-5.26018e-14
-5.70048e-14
-6.12744e-14
-6.78037e-14
-8.28354e-14
-7.36246e-14
1.94515e-15
1.89584e-15
1.84403e-15
1.80679e-15
1.78016e-15
1.76255e-15
1.75406e-15
1.75458e-15
1.76373e-15
1.78099e-15
1.80579e-15
1.8381e-15
1.87749e-15
1.92348e-15
1.97588e-15
2.03428e-15
2.09836e-15
2.16796e-15
2.24271e-15
2.32244e-15
2.40673e-15
2.4953e-15
2.58796e-15
2.68453e-15
2.78453e-15
2.88774e-15
2.99396e-15
3.10293e-15
3.21417e-15
3.32736e-15
3.44221e-15
3.55847e-15
3.67572e-15
3.79354e-15
3.91157e-15
4.0292e-15
4.14598e-15
4.26147e-15
4.37501e-15
4.48595e-15
4.59366e-15
4.69747e-15
4.79658e-15
4.89015e-15
4.97725e-15
5.05697e-15
5.12825e-15
5.19e-15
5.24105e-15
5.2801e-15
5.30578e-15
5.31659e-15
5.31092e-15
5.28713e-15
5.24349e-15
5.17806e-15
5.0888e-15
4.97359e-15
4.82994e-15
4.65551e-15
4.44771e-15
4.20369e-15
3.92054e-15
3.59514e-15
3.22407e-15
2.80401e-15
2.33109e-15
1.80151e-15
1.21104e-15
5.55426e-16
-1.6992e-16
-9.69763e-16
-1.84909e-15
-2.8132e-15
-3.86756e-15
-5.01791e-15
-6.27016e-15
-7.63044e-15
-9.10504e-15
-1.07006e-14
-1.24237e-14
-1.42812e-14
-1.62802e-14
-1.84275e-14
-2.07303e-14
-2.31955e-14
-2.58301e-14
-2.86408e-14
-3.1634e-14
-3.48156e-14
-3.81909e-14
-4.17634e-14
-4.55366e-14
-4.9519e-14
-5.37035e-14
-5.79265e-14
-6.19997e-14
-6.8314e-14
-8.31056e-14
-7.36647e-14
1.8353e-15
1.78891e-15
1.74214e-15
1.70855e-15
1.68433e-15
1.66811e-15
1.66016e-15
1.66037e-15
1.66835e-15
1.68369e-15
1.70595e-15
1.73493e-15
1.77028e-15
1.81181e-15
1.85906e-15
1.91168e-15
1.96935e-15
2.03196e-15
2.09918e-15
2.17078e-15
2.24637e-15
2.32571e-15
2.40845e-15
2.49447e-15
2.58333e-15
2.6748e-15
2.76859e-15
2.86437e-15
2.96179e-15
3.06036e-15
3.15991e-15
3.26008e-15
3.36037e-15
3.46046e-15
3.55987e-15
3.65797e-15
3.75436e-15
3.84853e-15
3.93984e-15
4.02743e-15
4.11074e-15
4.18926e-15
4.26201e-15
4.32808e-15
4.38658e-15
4.43657e-15
4.47704e-15
4.50685e-15
4.52477e-15
4.52954e-15
4.51978e-15
4.49405e-15
4.45077e-15
4.38809e-15
4.30458e-15
4.19819e-15
4.06698e-15
3.90888e-15
3.7215e-15
3.50246e-15
3.24934e-15
2.95938e-15
2.62975e-15
2.25746e-15
1.8394e-15
1.37225e-15
8.52405e-16
2.76286e-16
-3.60064e-16
-1.06067e-15
-1.82982e-15
-2.67185e-15
-3.59149e-15
-4.59361e-15
-5.68314e-15
-6.86538e-15
-8.14568e-15
-9.52964e-15
-1.1023e-14
-1.26316e-14
-1.43615e-14
-1.62186e-14
-1.82094e-14
-2.03399e-14
-2.26164e-14
-2.50451e-14
-2.76321e-14
-3.03833e-14
-3.33044e-14
-3.64005e-14
-3.96762e-14
-4.31346e-14
-4.67786e-14
-5.06164e-14
-5.4641e-14
-5.86887e-14
-6.25722e-14
-6.86764e-14
-8.32208e-14
-7.35817e-14
1.7217e-15
1.6801e-15
1.6384e-15
1.60826e-15
1.5863e-15
1.57162e-15
1.56427e-15
1.56424e-15
1.57112e-15
1.58456e-15
1.6044e-15
1.63019e-15
1.6618e-15
1.69879e-15
1.74103e-15
1.78798e-15
1.83946e-15
1.89538e-15
1.95521e-15
2.01888e-15
2.08594e-15
2.15617e-15
2.22923e-15
2.30495e-15
2.38295e-15
2.4629e-15
2.54451e-15
2.62745e-15
2.71131e-15
2.79568e-15
2.88025e-15
2.96476e-15
3.04857e-15
3.1313e-15
3.21255e-15
3.29177e-15
3.36835e-15
3.44176e-15
3.51139e-15
3.57644e-15
3.63626e-15
3.69028e-15
3.7375e-15
3.77704e-15
3.80797e-15
3.82937e-15
3.84022e-15
3.83936e-15
3.82551e-15
3.79745e-15
3.7538e-15
3.69315e-15
3.61394e-15
3.51433e-15
3.39289e-15
3.2477e-15
3.0768e-15
2.87818e-15
2.64954e-15
2.38857e-15
2.09289e-15
1.75994e-15
1.38697e-15
9.71078e-16
5.094e-16
-1.26926e-18
-5.64265e-16
-1.183e-15
-1.8612e-15
-2.60257e-15
-3.41106e-15
-4.2908e-15
-5.24607e-15
-6.28131e-15
-7.40114e-15
-8.6103e-15
-9.91362e-15
-1.13162e-14
-1.28232e-14
-1.44398e-14
-1.61714e-14
-1.80235e-14
-2.00014e-14
-2.21108e-14
-2.4357e-14
-2.67457e-14
-2.9282e-14
-3.19713e-14
-3.48184e-14
-3.78279e-14
-4.10038e-14
-4.43487e-14
-4.78652e-14
-5.15612e-14
-5.54295e-14
-5.93072e-14
-6.30076e-14
-6.89064e-14
-8.31982e-14
-7.33898e-14
1.60687e-15
1.57113e-15
1.53379e-15
1.50679e-15
1.487e-15
1.47379e-15
1.46712e-15
1.46679e-15
1.47263e-15
1.48436e-15
1.50186e-15
1.52457e-15
1.5525e-15
1.58518e-15
1.62255e-15
1.66397e-15
1.70943e-15
1.75872e-15
1.81139e-15
1.86731e-15
1.9261e-15
1.9874e-15
2.05104e-15
2.11675e-15
2.18409e-15
2.25284e-15
2.32256e-15
2.39296e-15
2.46363e-15
2.53417e-15
2.60414e-15
2.67336e-15
2.74113e-15
2.80707e-15
2.87072e-15
2.93159e-15
2.98894e-15
3.04225e-15
3.09087e-15