/*--------------------------------*- C++ -*----------------------------------*\
  =========                 |
  \\      /  F ield         | OpenFOAM: The Open Source CFD Toolbox
   \\    /   O peration     | Website:  https://openfoam.org
    \\  /    A nd           | Version:  11
     \\/     M anipulation  |
\*---------------------------------------------------------------------------*/
FoamFile
{
    format      ascii;
    class       volVectorField;
    location    "1210";
    object      U;
}
// * * * * * * * * * * * * * * * * * * * * * * * * * * * * * * * * * * * * * //

dimensions      [0 1 -1 0 0 0 0];

internalField   nonuniform List<vector> 
10000
(
(0.005 -7.13919e-11 0)
(0.005 -2.00889e-10 0)
(0.005 -3.25985e-10 0)
(0.005 -4.50143e-10 0)
(0.005 -5.75338e-10 0)
(0.005 -7.02935e-10 0)
(0.005 -8.33909e-10 0)
(0.005 -9.69009e-10 0)
(0.005 -1.10884e-09 0)
(0.005 -1.25392e-09 0)
(0.005 -1.40471e-09 0)
(0.005 -1.56163e-09 0)
(0.005 -1.72506e-09 0)
(0.005 -1.89538e-09 0)
(0.005 -2.07295e-09 0)
(0.005 -2.25812e-09 0)
(0.005 -2.45124e-09 0)
(0.005 -2.65265e-09 0)
(0.005 -2.8627e-09 0)
(0.005 -3.08172e-09 0)
(0.005 -3.31006e-09 0)
(0.005 -3.54807e-09 0)
(0.005 -3.79609e-09 0)
(0.005 -4.0545e-09 0)
(0.005 -4.32364e-09 0)
(0.005 -4.60388e-09 0)
(0.005 -4.89561e-09 0)
(0.005 -5.19921e-09 0)
(0.005 -5.51506e-09 0)
(0.005 -5.84357e-09 0)
(0.005 -6.18516e-09 0)
(0.005 -6.54025e-09 0)
(0.005 -6.90927e-09 0)
(0.005 -7.29268e-09 0)
(0.005 -7.69094e-09 0)
(0.00499999 -8.10454e-09 0)
(0.00499999 -8.53397e-09 0)
(0.00499999 -8.97974e-09 0)
(0.00499999 -9.44241e-09 0)
(0.00499999 -9.92253e-09 0)
(0.00499999 -1.04207e-08 0)
(0.00499999 -1.09375e-08 0)
(0.00499999 -1.14735e-08 0)
(0.00499999 -1.20296e-08 0)
(0.00499999 -1.26062e-08 0)
(0.00499999 -1.32043e-08 0)
(0.00499999 -1.38245e-08 0)
(0.00499999 -1.44676e-08 0)
(0.00499999 -1.51346e-08 0)
(0.00499999 -1.58263e-08 0)
(0.00499999 -1.65436e-08 0)
(0.00499998 -1.72876e-08 0)
(0.00499998 -1.80593e-08 0)
(0.00499998 -1.88599e-08 0)
(0.00499998 -1.96904e-08 0)
(0.00499998 -2.05522e-08 0)
(0.00499998 -2.14465e-08 0)
(0.00499998 -2.23747e-08 0)
(0.00499998 -2.33383e-08 0)
(0.00499997 -2.43388e-08 0)
(0.00499997 -2.53777e-08 0)
(0.00499997 -2.64568e-08 0)
(0.00499997 -2.75778e-08 0)
(0.00499997 -2.87425e-08 0)
(0.00499997 -2.99528e-08 0)
(0.00499996 -3.12107e-08 0)
(0.00499996 -3.25182e-08 0)
(0.00499996 -3.38774e-08 0)
(0.00499996 -3.52903e-08 0)
(0.00499996 -3.67592e-08 0)
(0.00499995 -3.82861e-08 0)
(0.00499995 -3.98732e-08 0)
(0.00499995 -4.15225e-08 0)
(0.00499995 -4.3236e-08 0)
(0.00499994 -4.50155e-08 0)
(0.00499994 -4.68624e-08 0)
(0.00499994 -4.87782e-08 0)
(0.00499994 -5.07636e-08 0)
(0.00499993 -5.28189e-08 0)
(0.00499993 -5.4944e-08 0)
(0.00499993 -5.71375e-08 0)
(0.00499992 -5.93973e-08 0)
(0.00499992 -6.17198e-08 0)
(0.00499992 -6.41001e-08 0)
(0.00499991 -6.65309e-08 0)
(0.00499991 -6.90031e-08 0)
(0.00499991 -7.15043e-08 0)
(0.0049999 -7.40192e-08 0)
(0.0049999 -7.65282e-08 0)
(0.0049999 -7.90075e-08 0)
(0.00499989 -8.14277e-08 0)
(0.00499989 -8.37537e-08 0)
(0.00499989 -8.59442e-08 0)
(0.00499988 -8.79509e-08 0)
(0.00499988 -8.97198e-08 0)
(0.00499988 -9.11947e-08 0)
(0.00499988 -9.23221e-08 0)
(0.00499987 -9.30518e-08 0)
(0.00499987 -9.33219e-08 0)
(0.00499987 -9.3336e-08 0)
(0.005 -6.22626e-11 0)
(0.005 -1.83659e-10 0)
(0.005 -3.03511e-10 0)
(0.005 -4.22877e-10 0)
(0.005 -5.43336e-10 0)
(0.005 -6.66075e-10 0)
(0.005 -7.91975e-10 0)
(0.005 -9.21726e-10 0)
(0.005 -1.05589e-09 0)
(0.005 -1.19496e-09 0)
(0.005 -1.33936e-09 0)
(0.005 -1.48947e-09 0)
(0.005 -1.64566e-09 0)
(0.005 -1.80829e-09 0)
(0.005 -1.97766e-09 0)
(0.005 -2.15413e-09 0)
(0.005 -2.33798e-09 0)
(0.005 -2.52955e-09 0)
(0.005 -2.72914e-09 0)
(0.005 -2.93706e-09 0)
(0.005 -3.15363e-09 0)
(0.005 -3.37914e-09 0)
(0.005 -3.61393e-09 0)
(0.005 -3.85831e-09 0)
(0.005 -4.11259e-09 0)
(0.005 -4.37712e-09 0)
(0.005 -4.65222e-09 0)
(0.005 -4.93824e-09 0)
(0.005 -5.23552e-09 0)
(0.005 -5.54442e-09 0)
(0.005 -5.86531e-09 0)
(0.005 -6.19856e-09 0)
(0.005 -6.54456e-09 0)
(0.005 -6.90371e-09 0)
(0.005 -7.27642e-09 0)
(0.00499999 -7.66312e-09 0)
(0.00499999 -8.06426e-09 0)
(0.00499999 -8.48029e-09 0)
(0.00499999 -8.91169e-09 0)
(0.00499999 -9.35898e-09 0)
(0.00499999 -9.82267e-09 0)
(0.00499999 -1.03033e-08 0)
(0.00499999 -1.08015e-08 0)
(0.00499999 -1.13178e-08 0)
(0.00499999 -1.18529e-08 0)
(0.00499999 -1.24074e-08 0)
(0.00499999 -1.29821e-08 0)
(0.00499999 -1.35777e-08 0)
(0.00499999 -1.4195e-08 0)
(0.00499999 -1.48348e-08 0)
(0.00499999 -1.54982e-08 0)
(0.00499998 -1.61859e-08 0)
(0.00499998 -1.6899e-08 0)
(0.00499998 -1.76385e-08 0)
(0.00499998 -1.84057e-08 0)
(0.00499998 -1.92017e-08 0)
(0.00499998 -2.00277e-08 0)
(0.00499998 -2.08852e-08 0)
(0.00499998 -2.17756e-08 0)
(0.00499997 -2.27004e-08 0)
(0.00499997 -2.36612e-08 0)
(0.00499997 -2.46596e-08 0)
(0.00499997 -2.56976e-08 0)
(0.00499997 -2.6777e-08 0)
(0.00499997 -2.78997e-08 0)
(0.00499996 -2.90679e-08 0)
(0.00499996 -3.02836e-08 0)
(0.00499996 -3.15492e-08 0)
(0.00499996 -3.28668e-08 0)
(0.00499996 -3.4239e-08 0)
(0.00499995 -3.56681e-08 0)
(0.00499995 -3.71565e-08 0)
(0.00499995 -3.87067e-08 0)
(0.00499995 -4.0321e-08 0)
(0.00499994 -4.20017e-08 0)
(0.00499994 -4.37511e-08 0)
(0.00499994 -4.55709e-08 0)
(0.00499994 -4.74628e-08 0)
(0.00499993 -4.94281e-08 0)
(0.00499993 -5.14674e-08 0)
(0.00499993 -5.35805e-08 0)
(0.00499992 -5.57666e-08 0)
(0.00499992 -5.80236e-08 0)
(0.00499992 -6.0348e-08 0)
(0.00499991 -6.27344e-08 0)
(0.00499991 -6.51757e-08 0)
(0.00499991 -6.76617e-08 0)
(0.0049999 -7.01796e-08 0)
(0.0049999 -7.27128e-08 0)
(0.0049999 -7.52403e-08 0)
(0.00499989 -7.77365e-08 0)
(0.00499989 -8.01702e-08 0)
(0.00499989 -8.25043e-08 0)
(0.00499988 -8.46955e-08 0)
(0.00499988 -8.66951e-08 0)
(0.00499988 -8.84491e-08 0)
(0.00499988 -8.98954e-08 0)
(0.00499987 -9.09691e-08 0)
(0.00499987 -9.16762e-08 0)
(0.00499987 -9.21663e-08 0)
(0.005 -5.49637e-11 0)
(0.005 -1.67706e-10 0)
(0.005 -2.81494e-10 0)
(0.005 -3.95791e-10 0)
(0.005 -5.11446e-10 0)
(0.005 -6.29354e-10 0)
(0.005 -7.50254e-10 0)
(0.005 -8.74757e-10 0)
(0.005 -1.00338e-09 0)
(0.005 -1.13656e-09 0)
(0.005 -1.27471e-09 0)
(0.005 -1.41818e-09 0)
(0.005 -1.56732e-09 0)
(0.005 -1.72243e-09 0)
(0.005 -1.88382e-09 0)
(0.005 -2.05179e-09 0)
(0.005 -2.22663e-09 0)
(0.005 -2.40861e-09 0)
(0.005 -2.59803e-09 0)
(0.005 -2.79515e-09 0)
(0.005 -3.00026e-09 0)
(0.005 -3.21364e-09 0)
(0.005 -3.43556e-09 0)
(0.005 -3.66631e-09 0)
(0.005 -3.90618e-09 0)
(0.005 -4.15545e-09 0)
(0.005 -4.41442e-09 0)
(0.005 -4.68339e-09 0)
(0.005 -4.96266e-09 0)
(0.005 -5.25256e-09 0)
(0.005 -5.55339e-09 0)
(0.005 -5.86548e-09 0)
(0.005 -6.18919e-09 0)
(0.005 -6.52485e-09 0)
(0.005 -6.87283e-09 0)
(0.00499999 -7.23351e-09 0)
(0.00499999 -7.60727e-09 0)
(0.00499999 -7.99453e-09 0)
(0.00499999 -8.39571e-09 0)
(0.00499999 -8.81125e-09 0)
(0.00499999 -9.24163e-09 0)
(0.00499999 -9.68734e-09 0)
(0.00499999 -1.01489e-08 0)
(0.00499999 -1.06268e-08 0)
(0.00499999 -1.11218e-08 0)
(0.00499999 -1.16343e-08 0)
(0.00499999 -1.21651e-08 0)
(0.00499999 -1.27148e-08 0)
(0.00499999 -1.32842e-08 0)
(0.00499999 -1.3874e-08 0)
(0.00499999 -1.44852e-08 0)
(0.00499998 -1.51186e-08 0)
(0.00499998 -1.57752e-08 0)
(0.00499998 -1.6456e-08 0)
(0.00499998 -1.71621e-08 0)
(0.00499998 -1.78947e-08 0)
(0.00499998 -1.8655e-08 0)
(0.00499998 -1.94444e-08 0)
(0.00499998 -2.02642e-08 0)
(0.00499998 -2.11161e-08 0)
(0.00499997 -2.20017e-08 0)
(0.00499997 -2.29226e-08 0)
(0.00499997 -2.38807e-08 0)
(0.00499997 -2.48779e-08 0)
(0.00499997 -2.59164e-08 0)
(0.00499997 -2.69983e-08 0)
(0.00499996 -2.81257e-08 0)
(0.00499996 -2.93013e-08 0)
(0.00499996 -3.05274e-08 0)
(0.00499996 -3.18066e-08 0)
(0.00499995 -3.31416e-08 0)
(0.00499995 -3.45351e-08 0)
(0.00499995 -3.599e-08 0)
(0.00499995 -3.7509e-08 0)
(0.00499994 -3.90949e-08 0)
(0.00499994 -4.07504e-08 0)
(0.00499994 -4.2478e-08 0)
(0.00499994 -4.42802e-08 0)
(0.00499993 -4.61588e-08 0)
(0.00499993 -4.81155e-08 0)
(0.00499993 -5.01513e-08 0)
(0.00499992 -5.22664e-08 0)
(0.00499992 -5.446e-08 0)
(0.00499992 -5.67302e-08 0)
(0.00499991 -5.90734e-08 0)
(0.00499991 -6.14842e-08 0)
(0.00499991 -6.39546e-08 0)
(0.0049999 -6.64741e-08 0)
(0.0049999 -6.90286e-08 0)
(0.0049999 -7.16002e-08 0)
(0.00499989 -7.41663e-08 0)
(0.00499989 -7.66989e-08 0)
(0.00499989 -7.91646e-08 0)
(0.00499988 -8.15235e-08 0)
(0.00499988 -8.37294e-08 0)
(0.00499988 -8.57297e-08 0)
(0.00499988 -8.74641e-08 0)
(0.00499987 -8.88763e-08 0)
(0.00499987 -8.9926e-08 0)
(0.00499987 -9.06208e-08 0)
(0.005 -4.99731e-11 0)
(0.005 -1.54904e-10 0)
(0.005 -2.62597e-10 0)
(0.005 -3.71771e-10 0)
(0.005 -4.82727e-10 0)
(0.005 -5.96048e-10 0)
(0.005 -7.12293e-10 0)
(0.005 -8.31967e-10 0)
(0.005 -9.55517e-10 0)
(0.005 -1.08335e-09 0)
(0.005 -1.21581e-09 0)
(0.005 -1.35325e-09 0)
(0.005 -1.49597e-09 0)
(0.005 -1.64426e-09 0)
(0.005 -1.79841e-09 0)
(0.005 -1.95867e-09 0)
(0.005 -2.12533e-09 0)
(0.005 -2.29862e-09 0)
(0.005 -2.4788e-09 0)
(0.005 -2.66613e-09 0)
(0.005 -2.86085e-09 0)
(0.005 -3.06321e-09 0)
(0.005 -3.27346e-09 0)
(0.005 -3.49185e-09 0)
(0.005 -3.71864e-09 0)
(0.005 -3.95407e-09 0)
(0.005 -4.19841e-09 0)
(0.005 -4.45192e-09 0)
(0.005 -4.71486e-09 0)
(0.005 -4.98751e-09 0)
(0.005 -5.27015e-09 0)
(0.005 -5.56307e-09 0)
(0.005 -5.86656e-09 0)
(0.005 -6.18092e-09 0)
(0.005 -6.50648e-09 0)
(0.005 -6.84356e-09 0)
(0.00499999 -7.19251e-09 0)
(0.00499999 -7.55369e-09 0)
(0.00499999 -7.92747e-09 0)
(0.00499999 -8.31425e-09 0)
(0.00499999 -8.71444e-09 0)
(0.00499999 -9.12849e-09 0)
(0.00499999 -9.55686e-09 0)
(0.00499999 -1.00001e-08 0)
(0.00499999 -1.04586e-08 0)
(0.00499999 -1.09331e-08 0)
(0.00499999 -1.1424e-08 0)
(0.00499999 -1.19322e-08 0)
(0.00499999 -1.24582e-08 0)
(0.00499999 -1.30027e-08 0)
(0.00499999 -1.35667e-08 0)
(0.00499998 -1.4151e-08 0)
(0.00499998 -1.47563e-08 0)
(0.00499998 -1.53839e-08 0)
(0.00499998 -1.60347e-08 0)
(0.00499998 -1.67098e-08 0)
(0.00499998 -1.74106e-08 0)
(0.00499998 -1.81382e-08 0)
(0.00499998 -1.88942e-08 0)
(0.00499998 -1.96801e-08 0)
(0.00499997 -2.04975e-08 0)
(0.00499997 -2.13482e-08 0)
(0.00499997 -2.22339e-08 0)
(0.00499997 -2.31568e-08 0)
(0.00499997 -2.41189e-08 0)
(0.00499997 -2.51226e-08 0)
(0.00499996 -2.61701e-08 0)
(0.00499996 -2.72641e-08 0)
(0.00499996 -2.84071e-08 0)
(0.00499996 -2.96021e-08 0)
(0.00499996 -3.08518e-08 0)
(0.00499995 -3.21593e-08 0)
(0.00499995 -3.35277e-08 0)
(0.00499995 -3.49602e-08 0)
(0.00499995 -3.646e-08 0)
(0.00499994 -3.80302e-08 0)
(0.00499994 -3.96739e-08 0)
(0.00499994 -4.13943e-08 0)
(0.00499993 -4.31939e-08 0)
(0.00499993 -4.50752e-08 0)
(0.00499993 -4.70401e-08 0)
(0.00499992 -4.90899e-08 0)
(0.00499992 -5.1225e-08 0)
(0.00499992 -5.34447e-08 0)
(0.00499992 -5.5747e-08 0)
(0.00499991 -5.8128e-08 0)
(0.00499991 -6.05816e-08 0)
(0.00499991 -6.30993e-08 0)
(0.0049999 -6.56691e-08 0)
(0.0049999 -6.82754e-08 0)
(0.0049999 -7.08981e-08 0)
(0.00499989 -7.35117e-08 0)
(0.00499989 -7.6085e-08 0)
(0.00499989 -7.858e-08 0)
(0.00499988 -8.09515e-08 0)
(0.00499988 -8.31457e-08 0)
(0.00499988 -8.50996e-08 0)
(0.00499988 -8.67422e-08 0)
(0.00499987 -8.79976e-08 0)
(0.00499987 -8.87004e-08 0)
(0.005 -4.599e-11 0)
(0.005 -1.43739e-10 0)
(0.005 -2.45261e-10 0)
(0.005 -3.49044e-10 0)
(0.005 -4.55056e-10 0)
(0.005 -5.63617e-10 0)
(0.005 -6.75107e-10 0)
(0.005 -7.89908e-10 0)
(0.005 -9.08387e-10 0)
(0.005 -1.03089e-09 0)
(0.005 -1.15773e-09 0)
(0.005 -1.28921e-09 0)
(0.005 -1.4256e-09 0)
(0.005 -1.56717e-09 0)
(0.005 -1.71418e-09 0)
(0.005 -1.86686e-09 0)
(0.005 -2.02546e-09 0)
(0.005 -2.19019e-09 0)
(0.005 -2.36129e-09 0)
(0.005 -2.53898e-09 0)
(0.005 -2.72348e-09 0)
(0.005 -2.91501e-09 0)
(0.005 -3.11378e-09 0)
(0.005 -3.32002e-09 0)
(0.005 -3.53394e-09 0)
(0.005 -3.75577e-09 0)
(0.005 -3.98572e-09 0)
(0.005 -4.22403e-09 0)
(0.005 -4.47091e-09 0)
(0.005 -4.72662e-09 0)
(0.005 -4.99138e-09 0)
(0.005 -5.26544e-09 0)
(0.005 -5.54906e-09 0)
(0.005 -5.8425e-09 0)
(0.005 -6.14603e-09 0)
(0.005 -6.45993e-09 0)
(0.00499999 -6.78451e-09 0)
(0.00499999 -7.12006e-09 0)
(0.00499999 -7.46693e-09 0)
(0.00499999 -7.82545e-09 0)
(0.00499999 -8.196e-09 0)
(0.00499999 -8.57896e-09 0)
(0.00499999 -8.97475e-09 0)
(0.00499999 -9.38381e-09 0)
(0.00499999 -9.80664e-09 0)
(0.00499999 -1.02437e-08 0)
(0.00499999 -1.06956e-08 0)
(0.00499999 -1.1163e-08 0)
(0.00499999 -1.16463e-08 0)
(0.00499999 -1.21465e-08 0)
(0.00499999 -1.26641e-08 0)
(0.00499998 -1.32001e-08 0)
(0.00499998 -1.37552e-08 0)
(0.00499998 -1.43305e-08 0)
(0.00499998 -1.4927e-08 0)
(0.00499998 -1.55458e-08 0)
(0.00499998 -1.61881e-08 0)
(0.00499998 -1.68552e-08 0)
(0.00499998 -1.75486e-08 0)
(0.00499998 -1.82697e-08 0)
(0.00499997 -1.90202e-08 0)
(0.00499997 -1.98019e-08 0)
(0.00499997 -2.06166e-08 0)
(0.00499997 -2.14665e-08 0)
(0.00499997 -2.23537e-08 0)
(0.00499997 -2.32806e-08 0)
(0.00499996 -2.42496e-08 0)
(0.00499996 -2.52635e-08 0)
(0.00499996 -2.6325e-08 0)
(0.00499996 -2.74372e-08 0)
(0.00499996 -2.86031e-08 0)
(0.00499995 -2.9826e-08 0)
(0.00499995 -3.11094e-08 0)
(0.00499995 -3.24567e-08 0)
(0.00499995 -3.38716e-08 0)
(0.00499994 -3.53578e-08 0)
(0.00499994 -3.69188e-08 0)
(0.00499994 -3.85583e-08 0)
(0.00499994 -4.02797e-08 0)
(0.00499993 -4.20862e-08 0)
(0.00499993 -4.39806e-08 0)
(0.00499993 -4.59651e-08 0)
(0.00499992 -4.80413e-08 0)
(0.00499992 -5.02097e-08 0)
(0.00499992 -5.24697e-08 0)
(0.00499991 -5.48188e-08 0)
(0.00499991 -5.72527e-08 0)
(0.00499991 -5.97645e-08 0)
(0.0049999 -6.23443e-08 0)
(0.0049999 -6.49784e-08 0)
(0.0049999 -6.76486e-08 0)
(0.00499989 -7.03315e-08 0)
(0.00499989 -7.29972e-08 0)
(0.00499989 -7.56086e-08 0)
(0.00499988 -7.812e-08 0)
(0.00499988 -8.0475e-08 0)
(0.00499988 -8.26037e-08 0)
(0.00499988 -8.44168e-08 0)
(0.00499987 -8.57956e-08 0)
(0.00499987 -8.65421e-08 0)
(0.005 -4.25323e-11 0)
(0.005 -1.33658e-10 0)
(0.005 -2.29118e-10 0)
(0.005 -3.27386e-10 0)
(0.005 -4.28261e-10 0)
(0.005 -5.31877e-10 0)
(0.005 -6.3846e-10 0)
(0.005 -7.4828e-10 0)
(0.005 -8.61616e-10 0)
(0.005 -9.78749e-10 0)
(0.005 -1.09995e-09 0)
(0.005 -1.22546e-09 0)
(0.005 -1.35555e-09 0)
(0.005 -1.49043e-09 0)
(0.005 -1.63034e-09 0)
(0.005 -1.77549e-09 0)
(0.005 -1.92608e-09 0)
(0.005 -2.08232e-09 0)
(0.005 -2.24442e-09 0)
(0.005 -2.41255e-09 0)
(0.005 -2.58692e-09 0)
(0.005 -2.76771e-09 0)
(0.005 -2.95511e-09 0)
(0.005 -3.1493e-09 0)
(0.005 -3.35048e-09 0)
(0.005 -3.55883e-09 0)
(0.005 -3.77454e-09 0)
(0.005 -3.9978e-09 0)
(0.005 -4.22879e-09 0)
(0.005 -4.46772e-09 0)
(0.005 -4.71479e-09 0)
(0.005 -4.9702e-09 0)
(0.005 -5.23417e-09 0)
(0.005 -5.50691e-09 0)
(0.005 -5.78865e-09 0)
(0.005 -6.07963e-09 0)
(0.00499999 -6.3801e-09 0)
(0.00499999 -6.69032e-09 0)
(0.00499999 -7.01058e-09 0)
(0.00499999 -7.34118e-09 0)
(0.00499999 -7.68242e-09 0)
(0.00499999 -8.03466e-09 0)
(0.00499999 -8.39826e-09 0)
(0.00499999 -8.77361e-09 0)
(0.00499999 -9.16115e-09 0)
(0.00499999 -9.56133e-09 0)
(0.00499999 -9.97465e-09 0)
(0.00499999 -1.04017e-08 0)
(0.00499999 -1.0843e-08 0)
(0.00499999 -1.12992e-08 0)
(0.00499999 -1.17711e-08 0)
(0.00499999 -1.22594e-08 0)
(0.00499998 -1.2765e-08 0)
(0.00499998 -1.32887e-08 0)
(0.00499998 -1.38317e-08 0)
(0.00499998 -1.43948e-08 0)
(0.00499998 -1.49794e-08 0)
(0.00499998 -1.55868e-08 0)
(0.00499998 -1.62183e-08 0)
(0.00499998 -1.68755e-08 0)
(0.00499997 -1.756e-08 0)
(0.00499997 -1.82736e-08 0)
(0.00499997 -1.90183e-08 0)
(0.00499997 -1.97962e-08 0)
(0.00499997 -2.06094e-08 0)
(0.00499997 -2.14606e-08 0)
(0.00499996 -2.23521e-08 0)
(0.00499996 -2.32869e-08 0)
(0.00499996 -2.42679e-08 0)
(0.00499996 -2.52982e-08 0)
(0.00499996 -2.63813e-08 0)
(0.00499995 -2.75206e-08 0)
(0.00499995 -2.87199e-08 0)
(0.00499995 -2.9983e-08 0)
(0.00499995 -3.13139e-08 0)
(0.00499994 -3.27167e-08 0)
(0.00499994 -3.41956e-08 0)
(0.00499994 -3.57547e-08 0)
(0.00499994 -3.73982e-08 0)
(0.00499993 -3.91299e-08 0)
(0.00499993 -4.09535e-08 0)
(0.00499993 -4.28722e-08 0)
(0.00499992 -4.48886e-08 0)
(0.00499992 -4.70043e-08 0)
(0.00499992 -4.92199e-08 0)
(0.00499991 -5.15345e-08 0)
(0.00499991 -5.39451e-08 0)
(0.00499991 -5.64465e-08 0)
(0.0049999 -5.90303e-08 0)
(0.0049999 -6.16846e-08 0)
(0.0049999 -6.43927e-08 0)
(0.0049999 -6.71325e-08 0)
(0.00499989 -6.9875e-08 0)
(0.00499989 -7.25832e-08 0)
(0.00499989 -7.52096e-08 0)
(0.00499988 -7.76943e-08 0)
(0.00499988 -7.99598e-08 0)
(0.00499988 -8.19027e-08 0)
(0.00499987 -8.33834e-08 0)
(0.00499987 -8.42356e-08 0)
(0.005 -3.94714e-11 0)
(0.005 -1.24503e-10 0)
(0.005 -2.14134e-10 0)
(0.005 -3.06921e-10 0)
(0.005 -4.02589e-10 0)
(0.005 -5.01158e-10 0)
(0.005 -6.02739e-10 0)
(0.005 -7.07504e-10 0)
(0.005 -8.15652e-10 0)
(0.005 -9.27399e-10 0)
(0.005 -1.04296e-09 0)
(0.005 -1.16255e-09 0)
(0.005 -1.28637e-09 0)
(0.005 -1.41463e-09 0)
(0.005 -1.54752e-09 0)
(0.005 -1.68523e-09 0)
(0.005 -1.82793e-09 0)
(0.005 -1.97581e-09 0)
(0.005 -2.12903e-09 0)
(0.005 -2.28775e-09 0)
(0.005 -2.45215e-09 0)
(0.005 -2.62237e-09 0)
(0.005 -2.79859e-09 0)
(0.005 -2.98095e-09 0)
(0.005 -3.1696e-09 0)
(0.005 -3.36471e-09 0)
(0.005 -3.56642e-09 0)
(0.005 -3.77489e-09 0)
(0.005 -3.99028e-09 0)
(0.005 -4.21275e-09 0)
(0.005 -4.44245e-09 0)
(0.005 -4.67955e-09 0)
(0.005 -4.92423e-09 0)
(0.005 -5.17666e-09 0)
(0.005 -5.43702e-09 0)
(0.005 -5.70552e-09 0)
(0.00499999 -5.98235e-09 0)
(0.00499999 -6.26775e-09 0)
(0.00499999 -6.56193e-09 0)
(0.00499999 -6.86515e-09 0)
(0.00499999 -7.17768e-09 0)
(0.00499999 -7.49982e-09 0)
(0.00499999 -7.83188e-09 0)
(0.00499999 -8.17421e-09 0)
(0.00499999 -8.52718e-09 0)
(0.00499999 -8.89122e-09 0)
(0.00499999 -9.26677e-09 0)
(0.00499999 -9.65434e-09 0)
(0.00499999 -1.00545e-08 0)
(0.00499999 -1.04678e-08 0)
(0.00499999 -1.08949e-08 0)
(0.00499999 -1.13366e-08 0)
(0.00499998 -1.17936e-08 0)
(0.00499998 -1.22669e-08 0)
(0.00499998 -1.27574e-08 0)
(0.00499998 -1.32661e-08 0)
(0.00499998 -1.37943e-08 0)
(0.00499998 -1.43433e-08 0)
(0.00499998 -1.49143e-08 0)
(0.00499998 -1.55089e-08 0)
(0.00499998 -1.61289e-08 0)
(0.00499997 -1.6776e-08 0)
(0.00499997 -1.74521e-08 0)
(0.00499997 -1.81595e-08 0)
(0.00499997 -1.89004e-08 0)
(0.00499997 -1.96774e-08 0)
(0.00499997 -2.04931e-08 0)
(0.00499996 -2.13504e-08 0)
(0.00499996 -2.22526e-08 0)
(0.00499996 -2.32028e-08 0)
(0.00499996 -2.42047e-08 0)
(0.00499996 -2.52621e-08 0)
(0.00499995 -2.63788e-08 0)
(0.00499995 -2.75592e-08 0)
(0.00499995 -2.88075e-08 0)
(0.00499995 -3.01283e-08 0)
(0.00499994 -3.15262e-08 0)
(0.00499994 -3.3006e-08 0)
(0.00499994 -3.45723e-08 0)
(0.00499993 -3.62298e-08 0)
(0.00499993 -3.79829e-08 0)
(0.00499993 -3.98355e-08 0)
(0.00499993 -4.17913e-08 0)
(0.00499992 -4.3853e-08 0)
(0.00499992 -4.60223e-08 0)
(0.00499992 -4.82994e-08 0)
(0.00499991 -5.06828e-08 0)
(0.00499991 -5.31686e-08 0)
(0.00499991 -5.57497e-08 0)
(0.0049999 -5.84156e-08 0)
(0.0049999 -6.11508e-08 0)
(0.0049999 -6.39341e-08 0)
(0.00499989 -6.67367e-08 0)
(0.00499989 -6.9521e-08 0)
(0.00499989 -7.22377e-08 0)
(0.00499988 -7.48227e-08 0)
(0.00499988 -7.71921e-08 0)
(0.00499988 -7.92339e-08 0)
(0.00499988 -8.08019e-08 0)
(0.00499987 -8.17317e-08 0)
(0.005 -3.67147e-11 0)
(0.005 -1.16113e-10 0)
(0.005 -2.00192e-10 0)
(0.005 -2.87618e-10 0)
(0.005 -3.78099e-10 0)
(0.005 -4.7159e-10 0)
(0.005 -5.68123e-10 0)
(0.005 -6.67792e-10 0)
(0.005 -7.70727e-10 0)
(0.005 -8.77084e-10 0)
(0.005 -9.87027e-10 0)
(0.005 -1.10073e-09 0)
(0.005 -1.21835e-09 0)
(0.005 -1.34007e-09 0)
(0.005 -1.46603e-09 0)
(0.005 -1.59641e-09 0)
(0.005 -1.73135e-09 0)
(0.005 -1.87101e-09 0)
(0.005 -2.01551e-09 0)
(0.005 -2.165e-09 0)
(0.005 -2.31962e-09 0)
(0.005 -2.47949e-09 0)
(0.005 -2.64474e-09 0)
(0.005 -2.8155e-09 0)
(0.005 -2.99189e-09 0)
(0.005 -3.17403e-09 0)
(0.005 -3.36205e-09 0)
(0.005 -3.55606e-09 0)
(0.005 -3.75618e-09 0)
(0.005 -3.96254e-09 0)
(0.005 -4.17526e-09 0)
(0.005 -4.39447e-09 0)
(0.005 -4.6203e-09 0)
(0.005 -4.85289e-09 0)
(0.005 -5.09238e-09 0)
(0.005 -5.33892e-09 0)
(0.00499999 -5.59268e-09 0)
(0.00499999 -5.85383e-09 0)
(0.00499999 -6.12255e-09 0)
(0.00499999 -6.39907e-09 0)
(0.00499999 -6.68359e-09 0)
(0.00499999 -6.97636e-09 0)
(0.00499999 -7.27767e-09 0)
(0.00499999 -7.58779e-09 0)
(0.00499999 -7.90707e-09 0)
(0.00499999 -8.23587e-09 0)
(0.00499999 -8.5746e-09 0)
(0.00499999 -8.92372e-09 0)
(0.00499999 -9.28372e-09 0)
(0.00499999 -9.65516e-09 0)
(0.00499999 -1.00387e-08 0)
(0.00499999 -1.04349e-08 0)
(0.00499998 -1.08447e-08 0)
(0.00499998 -1.12689e-08 0)
(0.00499998 -1.17083e-08 0)
(0.00499998 -1.21641e-08 0)
(0.00499998 -1.26374e-08 0)
(0.00499998 -1.31294e-08 0)
(0.00499998 -1.36415e-08 0)
(0.00499998 -1.41753e-08 0)
(0.00499998 -1.47324e-08 0)
(0.00499997 -1.53147e-08 0)
(0.00499997 -1.59241e-08 0)
(0.00499997 -1.65628e-08 0)
(0.00499997 -1.72333e-08 0)
(0.00499997 -1.7938e-08 0)
(0.00499997 -1.86798e-08 0)
(0.00499996 -1.94617e-08 0)
(0.00499996 -2.0287e-08 0)
(0.00499996 -2.11591e-08 0)
(0.00499996 -2.20818e-08 0)
(0.00499996 -2.30591e-08 0)
(0.00499995 -2.40953e-08 0)
(0.00499995 -2.51947e-08 0)
(0.00499995 -2.63621e-08 0)
(0.00499995 -2.76025e-08 0)
(0.00499994 -2.89209e-08 0)
(0.00499994 -3.03225e-08 0)
(0.00499994 -3.18127e-08 0)
(0.00499994 -3.33965e-08 0)
(0.00499993 -3.50793e-08 0)
(0.00499993 -3.68657e-08 0)
(0.00499993 -3.87602e-08 0)
(0.00499992 -4.07665e-08 0)
(0.00499992 -4.28873e-08 0)
(0.00499992 -4.51239e-08 0)
(0.00499992 -4.74758e-08 0)
(0.00499991 -4.99404e-08 0)
(0.00499991 -5.25118e-08 0)
(0.00499991 -5.51804e-08 0)
(0.0049999 -5.79316e-08 0)
(0.0049999 -6.07445e-08 0)
(0.0049999 -6.35906e-08 0)
(0.00499989 -6.64314e-08 0)
(0.00499989 -6.92155e-08 0)
(0.00499989 -7.18754e-08 0)
(0.00499988 -7.4322e-08 0)
(0.00499988 -7.64374e-08 0)
(0.00499988 -7.80701e-08 0)
(0.00499987 -7.90458e-08 0)
(0.005 -3.41917e-11 0)
(0.005 -1.08353e-10 0)
(0.005 -1.87162e-10 0)
(0.005 -2.69393e-10 0)
(0.005 -3.54768e-10 0)
(0.005 -4.43206e-10 0)
(0.005 -5.3469e-10 0)
(0.005 -6.29255e-10 0)
(0.005 -7.26976e-10 0)
(0.005 -8.27955e-10 0)
(0.005 -9.32308e-10 0)
(0.005 -1.04016e-09 0)
(0.005 -1.15165e-09 0)
(0.005 -1.26691e-09 0)
(0.005 -1.38606e-09 0)
(0.005 -1.50923e-09 0)
(0.005 -1.63655e-09 0)
(0.005 -1.76813e-09 0)
(0.005 -1.90409e-09 0)
(0.005 -2.04454e-09 0)
(0.005 -2.18958e-09 0)
(0.005 -2.33932e-09 0)
(0.005 -2.49385e-09 0)
(0.005 -2.65328e-09 0)
(0.005 -2.81769e-09 0)
(0.005 -2.98717e-09 0)
(0.005 -3.16182e-09 0)
(0.005 -3.34171e-09 0)
(0.005 -3.52694e-09 0)
(0.005 -3.7176e-09 0)
(0.005 -3.91376e-09 0)
(0.005 -4.11553e-09 0)
(0.005 -4.32299e-09 0)
(0.005 -4.53625e-09 0)
(0.005 -4.75541e-09 0)
(0.005 -4.98057e-09 0)
(0.005 -5.21186e-09 0)
(0.00499999 -5.44942e-09 0)
(0.00499999 -5.69338e-09 0)
(0.00499999 -5.94391e-09 0)
(0.00499999 -6.20119e-09 0)
(0.00499999 -6.46541e-09 0)
(0.00499999 -6.73681e-09 0)
(0.00499999 -7.01563e-09 0)
(0.00499999 -7.30217e-09 0)
(0.00499999 -7.59674e-09 0)
(0.00499999 -7.8997e-09 0)
(0.00499999 -8.21147e-09 0)
(0.00499999 -8.5325e-09 0)
(0.00499999 -8.86331e-09 0)
(0.00499999 -9.20447e-09 0)
(0.00499999 -9.55665e-09 0)
(0.00499999 -9.92056e-09 0)
(0.00499998 -1.0297e-08 0)
(0.00499998 -1.06869e-08 0)
(0.00499998 -1.10913e-08 0)
(0.00499998 -1.15113e-08 0)
(0.00499998 -1.19481e-08 0)
(0.00499998 -1.24031e-08 0)
(0.00499998 -1.28778e-08 0)
(0.00499998 -1.33739e-08 0)
(0.00499998 -1.38933e-08 0)
(0.00499997 -1.44379e-08 0)
(0.00499997 -1.50101e-08 0)
(0.00499997 -1.56121e-08 0)
(0.00499997 -1.62467e-08 0)
(0.00499997 -1.69168e-08 0)
(0.00499997 -1.76254e-08 0)
(0.00499996 -1.8376e-08 0)
(0.00499996 -1.91721e-08 0)
(0.00499996 -2.00177e-08 0)
(0.00499996 -2.09171e-08 0)
(0.00499996 -2.18746e-08 0)
(0.00499995 -2.28951e-08 0)
(0.00499995 -2.39835e-08 0)
(0.00499995 -2.51451e-08 0)
(0.00499995 -2.63855e-08 0)
(0.00499994 -2.77103e-08 0)
(0.00499994 -2.91253e-08 0)
(0.00499994 -3.06363e-08 0)
(0.00499994 -3.2249e-08 0)
(0.00499993 -3.3969e-08 0)
(0.00499993 -3.58015e-08 0)
(0.00499993 -3.77509e-08 0)
(0.00499992 -3.98209e-08 0)
(0.00499992 -4.20137e-08 0)
(0.00499992 -4.43299e-08 0)
(0.00499991 -4.67677e-08 0)
(0.00499991 -4.93221e-08 0)
(0.00499991 -5.19843e-08 0)
(0.00499991 -5.47404e-08 0)
(0.0049999 -5.75698e-08 0)
(0.0049999 -6.04438e-08 0)
(0.0049999 -6.33228e-08 0)
(0.00499989 -6.61539e-08 0)
(0.00499989 -6.88667e-08 0)
(0.00499989 -7.13685e-08 0)
(0.00499988 -7.35371e-08 0)
(0.00499988 -7.52165e-08 0)
(0.00499988 -7.62227e-08 0)
(0.005 -3.18567e-11 0)
(0.005 -1.01125e-10 0)
(0.005 -1.74936e-10 0)
(0.005 -2.52163e-10 0)
(0.005 -3.32552e-10 0)
(0.005 -4.16008e-10 0)
(0.005 -5.02484e-10 0)
(0.005 -5.91974e-10 0)
(0.005 -6.84506e-10 0)
(0.005 -7.80139e-10 0)
(0.005 -8.78947e-10 0)
(0.005 -9.81019e-10 0)
(0.005 -1.08645e-09 0)
(0.005 -1.19534e-09 0)
(0.005 -1.30778e-09 0)
(0.005 -1.42387e-09 0)
(0.005 -1.54371e-09 0)
(0.005 -1.66739e-09 0)
(0.005 -1.79499e-09 0)
(0.005 -1.9266e-09 0)
(0.005 -2.06229e-09 0)
(0.005 -2.20214e-09 0)
(0.005 -2.34622e-09 0)
(0.005 -2.4946e-09 0)
(0.005 -2.64733e-09 0)
(0.005 -2.80448e-09 0)
(0.005 -2.96611e-09 0)
(0.005 -3.13227e-09 0)
(0.005 -3.30301e-09 0)
(0.005 -3.47839e-09 0)
(0.005 -3.65846e-09 0)
(0.005 -3.84328e-09 0)
(0.005 -4.0329e-09 0)
(0.005 -4.22738e-09 0)
(0.005 -4.4268e-09 0)
(0.005 -4.63121e-09 0)
(0.005 -4.8407e-09 0)
(0.00499999 -5.05537e-09 0)
(0.00499999 -5.27531e-09 0)
(0.00499999 -5.50065e-09 0)
(0.00499999 -5.73151e-09 0)
(0.00499999 -5.96807e-09 0)
(0.00499999 -6.21049e-09 0)
(0.00499999 -6.45899e-09 0)
(0.00499999 -6.71381e-09 0)
(0.00499999 -6.97523e-09 0)
(0.00499999 -7.24357e-09 0)
(0.00499999 -7.51919e-09 0)
(0.00499999 -7.8025e-09 0)
(0.00499999 -8.09399e-09 0)
(0.00499999 -8.39419e-09 0)
(0.00499999 -8.70371e-09 0)
(0.00499999 -9.02326e-09 0)
(0.00499998 -9.35359e-09 0)
(0.00499998 -9.69561e-09 0)
(0.00499998 -1.00503e-08 0)
(0.00499998 -1.04187e-08 0)
(0.00499998 -1.08021e-08 0)
(0.00499998 -1.12019e-08 0)
(0.00499998 -1.16195e-08 0)
(0.00499998 -1.20566e-08 0)
(0.00499998 -1.25152e-08 0)
(0.00499997 -1.29972e-08 0)
(0.00499997 -1.35049e-08 0)
(0.00499997 -1.40408e-08 0)
(0.00499997 -1.46075e-08 0)
(0.00499997 -1.52081e-08 0)
(0.00499997 -1.58458e-08 0)
(0.00499996 -1.65239e-08 0)
(0.00499996 -1.72464e-08 0)
(0.00499996 -1.80173e-08 0)
(0.00499996 -1.88409e-08 0)
(0.00499996 -1.97221e-08 0)
(0.00499995 -2.06657e-08 0)
(0.00499995 -2.1677e-08 0)
(0.00499995 -2.27618e-08 0)
(0.00499995 -2.39259e-08 0)
(0.00499995 -2.51752e-08 0)
(0.00499994 -2.65161e-08 0)
(0.00499994 -2.7955e-08 0)
(0.00499994 -2.94981e-08 0)
(0.00499993 -3.11515e-08 0)
(0.00499993 -3.29212e-08 0)
(0.00499993 -3.48123e-08 0)
(0.00499993 -3.68292e-08 0)
(0.00499992 -3.8975e-08 0)
(0.00499992 -4.1251e-08 0)
(0.00499992 -4.36563e-08 0)
(0.00499991 -4.61866e-08 0)
(0.00499991 -4.88337e-08 0)
(0.00499991 -5.15841e-08 0)
(0.0049999 -5.44174e-08 0)
(0.0049999 -5.73045e-08 0)
(0.0049999 -6.02053e-08 0)
(0.0049999 -6.30652e-08 0)
(0.00499989 -6.58119e-08 0)
(0.00499989 -6.83499e-08 0)
(0.00499989 -7.0554e-08 0)
(0.00499988 -7.22649e-08 0)
(0.00499988 -7.32903e-08 0)
(0.005 -2.96793e-11 0)
(0.005 -9.43548e-11 0)
(0.005 -1.63427e-10 0)
(0.005 -2.35853e-10 0)
(0.005 -3.11403e-10 0)
(0.005 -3.89983e-10 0)
(0.005 -4.71527e-10 0)
(0.005 -5.56001e-10 0)
(0.005 -6.43398e-10 0)
(0.005 -7.33741e-10 0)
(0.005 -8.27068e-10 0)
(0.005 -9.23431e-10 0)
(0.005 -1.02289e-09 0)
(0.005 -1.12552e-09 0)
(0.005 -1.23137e-09 0)
(0.005 -1.34053e-09 0)
(0.005 -1.45305e-09 0)
(0.005 -1.569e-09 0)
(0.005 -1.68844e-09 0)
(0.005 -1.81143e-09 0)
(0.005 -1.938e-09 0)
(0.005 -2.06823e-09 0)
(0.005 -2.20213e-09 0)
(0.005 -2.33976e-09 0)
(0.005 -2.48115e-09 0)
(0.005 -2.62632e-09 0)
(0.005 -2.77531e-09 0)
(0.005 -2.92813e-09 0)
(0.005 -3.08482e-09 0)
(0.005 -3.24539e-09 0)
(0.005 -3.40986e-09 0)
(0.005 -3.57826e-09 0)
(0.005 -3.7506e-09 0)
(0.005 -3.9269e-09 0)
(0.005 -4.10721e-09 0)
(0.005 -4.29154e-09 0)
(0.005 -4.47995e-09 0)
(0.00499999 -4.67249e-09 0)
(0.00499999 -4.86921e-09 0)
(0.00499999 -5.0702e-09 0)
(0.00499999 -5.27555e-09 0)
(0.00499999 -5.48538e-09 0)
(0.00499999 -5.69983e-09 0)
(0.00499999 -5.91906e-09 0)
(0.00499999 -6.14327e-09 0)
(0.00499999 -6.37271e-09 0)
(0.00499999 -6.60764e-09 0)
(0.00499999 -6.84839e-09 0)
(0.00499999 -7.09534e-09 0)
(0.00499999 -7.34891e-09 0)
(0.00499999 -7.60963e-09 0)
(0.00499999 -7.87805e-09 0)
(0.00499999 -8.15483e-09 0)
(0.00499999 -8.44073e-09 0)
(0.00499998 -8.7366e-09 0)
(0.00499998 -9.04337e-09 0)
(0.00499998 -9.36215e-09 0)
(0.00499998 -9.69412e-09 0)
(0.00499998 -1.00407e-08 0)
(0.00499998 -1.04033e-08 0)
(0.00499998 -1.07836e-08 0)
(0.00499998 -1.11836e-08 0)
(0.00499998 -1.16052e-08 0)
(0.00499997 -1.20508e-08 0)
(0.00499997 -1.25229e-08 0)
(0.00499997 -1.30242e-08 0)
(0.00499997 -1.35578e-08 0)
(0.00499997 -1.41269e-08 0)
(0.00499997 -1.47352e-08 0)
(0.00499996 -1.53864e-08 0)
(0.00499996 -1.6085e-08 0)
(0.00499996 -1.68354e-08 0)
(0.00499996 -1.76424e-08 0)
(0.00499996 -1.85114e-08 0)
(0.00499995 -1.94479e-08 0)
(0.00499995 -2.04578e-08 0)
(0.00499995 -2.15472e-08 0)
(0.00499995 -2.27226e-08 0)
(0.00499994 -2.39907e-08 0)
(0.00499994 -2.53583e-08 0)
(0.00499994 -2.68321e-08 0)
(0.00499994 -2.84189e-08 0)
(0.00499993 -3.01251e-08 0)
(0.00499993 -3.19565e-08 0)
(0.00499993 -3.39181e-08 0)
(0.00499993 -3.60137e-08 0)
(0.00499992 -3.82453e-08 0)
(0.00499992 -4.06125e-08 0)
(0.00499992 -4.31118e-08 0)
(0.00499991 -4.57354e-08 0)
(0.00499991 -4.84701e-08 0)
(0.00499991 -5.12956e-08 0)
(0.0049999 -5.41825e-08 0)
(0.0049999 -5.70901e-08 0)
(0.0049999 -5.99629e-08 0)
(0.0049999 -6.27268e-08 0)
(0.00499989 -6.52845e-08 0)
(0.00499989 -6.75091e-08 0)
(0.00499989 -6.92386e-08 0)
(0.00499988 -7.02749e-08 0)
(0.005 -2.76384e-11 0)
(0.005 -8.79901e-11 0)
(0.005 -1.52566e-10 0)
(0.005 -2.20394e-10 0)
(0.005 -2.91271e-10 0)
(0.005 -3.65105e-10 0)
(0.005 -4.41822e-10 0)
(0.005 -5.21367e-10 0)
(0.005 -6.0371e-10 0)
(0.005 -6.88842e-10 0)
(0.005 -7.76771e-10 0)
(0.005 -8.67519e-10 0)
(0.005 -9.61116e-10 0)
(0.005 -1.0576e-09 0)
(0.005 -1.157e-09 0)
(0.005 -1.25938e-09 0)
(0.005 -1.36475e-09 0)
(0.005 -1.47316e-09 0)
(0.005 -1.58465e-09 0)
(0.005 -1.69924e-09 0)
(0.005 -1.81696e-09 0)
(0.005 -1.93782e-09 0)
(0.005 -2.06185e-09 0)
(0.005 -2.18906e-09 0)
(0.005 -2.31944e-09 0)
(0.005 -2.45301e-09 0)
(0.005 -2.58976e-09 0)
(0.005 -2.72969e-09 0)