/*--------------------------------*- C++ -*----------------------------------*\
  =========                 |
  \\      /  F ield         | OpenFOAM: The Open Source CFD Toolbox
   \\    /   O peration     | Website:  https://openfoam.org
    \\  /    A nd           | Version:  11
     \\/     M anipulation  |
\*---------------------------------------------------------------------------*/
FoamFile
{
    format      ascii;
    class       volScalarField;
    location    "164";
    object      nut;
}
// * * * * * * * * * * * * * * * * * * * * * * * * * * * * * * * * * * * * * //

dimensions      [0 2 -1 0 0 0 0];

internalField   nonuniform List<scalar> 
10000
(
0.000977082
0.000936581
0.00089941
0.000865246
0.000833802
0.000804818
0.000778063
0.000753329
0.000730429
0.000709199
0.000689489
0.00067117
0.000654124
0.000638252
0.000623465
0.000609689
0.000596862
0.000584935
0.000573869
0.000563638
0.000554229
0.000545637
0.000537873
0.000530953
0.000524907
0.000519773
0.000515594
0.00051242
0.000510305
0.000509299
0.000509451
0.000510803
0.000513384
0.000517212
0.000522286
0.000528588
0.000536081
0.000544708
0.000554395
0.000565053
0.000576577
0.000588854
0.000601765
0.00061519
0.000629007
0.000643097
0.000657346
0.000671646
0.000685895
0.000700003
0.000713889
0.00072748
0.000740717
0.000753548
0.000765934
0.00077784
0.000789237
0.000800114
0.000810457
0.000820259
0.000829519
0.000838241
0.000846432
0.000854101
0.000861262
0.00086793
0.000874121
0.000879856
0.000885152
0.00089003
0.000894511
0.000898616
0.000902365
0.000905781
0.000908883
0.000911692
0.000914227
0.000916509
0.000918555
0.000920384
0.000922012
0.000923456
0.000924732
0.000925854
0.000926837
0.000927693
0.000928437
0.000929078
0.000929628
0.000930097
0.000930494
0.000930828
0.000931107
0.000931338
0.000931526
0.000931677
0.000931795
0.000931882
0.000931942
0.000931973
0.000977082
0.000936582
0.000899412
0.000865249
0.000833805
0.000804822
0.000778067
0.000753333
0.000730434
0.000709204
0.000689495
0.000671176
0.000654131
0.000638259
0.000623473
0.000609697
0.000596871
0.000584944
0.000573879
0.000563649
0.00055424
0.000545649
0.000537884
0.000530965
0.000524919
0.000519784
0.000515604
0.00051243
0.000510313
0.000509304
0.000509454
0.000510802
0.000513379
0.000517202
0.000522271
0.000528568
0.000536056
0.000544678
0.00055436
0.000565012
0.000576532
0.000588806
0.000601716
0.000615139
0.000628955
0.000643044
0.00065729
0.000671588
0.000685835
0.000699941
0.000713825
0.000727417
0.000740654
0.000753488
0.000765875
0.000777784
0.000789184
0.000800063
0.000810409
0.000820215
0.000829478
0.000838203
0.000846396
0.000854068
0.000861232
0.000867903
0.000874097
0.000879834
0.000885132
0.000890012
0.000894495
0.000898601
0.000902353
0.00090577
0.000908873
0.000911683
0.00091422
0.000916503
0.00091855
0.000920379
0.000922008
0.000923453
0.000924729
0.000925852
0.000926835
0.000927692
0.000928436
0.000929077
0.000929627
0.000930096
0.000930494
0.000930828
0.000931107
0.000931338
0.000931526
0.000931677
0.000931795
0.000931883
0.000931942
0.000931974
0.000977083
0.000936584
0.000899415
0.000865253
0.00083381
0.000804828
0.000778074
0.000753342
0.000730443
0.000709214
0.000689506
0.000671188
0.000654144
0.000638273
0.000623487
0.000609713
0.000596888
0.000584961
0.000573897
0.000563667
0.000554259
0.000545668
0.000537904
0.000530984
0.000524937
0.0005198
0.000515618
0.00051244
0.000510318
0.000509305
0.000509447
0.000510788
0.000513356
0.000517169
0.000522227
0.000528513
0.000535989
0.000544599
0.000554269
0.000564911
0.000576421
0.000588686
0.000601589
0.000615006
0.000628817
0.000642901
0.000657144
0.000671438
0.000685684
0.000699789
0.000713674
0.000727267
0.000740508
0.000753345
0.000765738
0.000777652
0.000789058
0.000799943
0.000810295
0.000820107
0.000829377
0.000838108
0.000846307
0.000853985
0.000861155
0.000867831
0.000874031
0.000879772
0.000885076
0.00088996
0.000894448
0.000898558
0.000902313
0.000905734
0.000908841
0.000911654
0.000914194
0.000916479
0.000918528
0.00092036
0.000921991
0.000923438
0.000924716
0.00092584
0.000926825
0.000927683
0.000928428
0.00092907
0.000929622
0.000930092
0.00093049
0.000930825
0.000931105
0.000931336
0.000931525
0.000931677
0.000931795
0.000931883
0.000931943
0.000931975
0.000977084
0.000936587
0.000899419
0.000865259
0.000833818
0.000804837
0.000778085
0.000753353
0.000730457
0.000709229
0.000689522
0.000671205
0.000654162
0.000638293
0.000623509
0.000609736
0.000596912
0.000584987
0.000573923
0.000563695
0.000554287
0.000545696
0.000537931
0.00053101
0.000524962
0.000519822
0.000515636
0.000512453
0.000510325
0.000509303
0.000509435
0.000510764
0.000513319
0.000517117
0.00052216
0.000528428
0.000535887
0.000544479
0.000554133
0.000564758
0.000576253
0.000588505
0.000601395
0.000614803
0.000628605
0.000642682
0.00065692
0.000671211
0.000685454
0.000699559
0.000713445
0.000727042
0.000740287
0.000753131
0.00076553
0.000777452
0.000788866
0.00079976
0.000810121
0.000819942
0.000829221
0.000837961
0.00084617
0.000853857
0.000861035
0.000867719
0.000873927
0.000879676
0.000884987
0.000889879
0.000894372
0.000898489
0.00090225
0.000905676
0.000908788
0.000911606
0.00091415
0.00091644
0.000918493
0.000920328
0.000921962
0.000923412
0.000924693
0.00092582
0.000926807
0.000927668
0.000928415
0.000929059
0.000929612
0.000930083
0.000930483
0.00093082
0.000931101
0.000931333
0.000931523
0.000931676
0.000931795
0.000931884
0.000931944
0.000931976
0.000977085
0.000936589
0.000899424
0.000865266
0.000833827
0.000804848
0.000778098
0.000753368
0.000730474
0.000709248
0.000689543
0.000671227
0.000654187
0.000638319
0.000623537
0.000609765
0.000596943
0.00058502
0.000573957
0.00056373
0.000554323
0.000545733
0.000537968
0.000531046
0.000524995
0.000519851
0.00051566
0.00051247
0.000510333
0.0005093
0.00050942
0.000510734
0.000513272
0.000517051
0.000522073
0.00052832
0.000535756
0.000544326
0.000553958
0.000564562
0.000576037
0.00058827
0.000601145
0.000614538
0.000628329
0.000642397
0.000656628
0.000670914
0.000685155
0.00069926
0.000713149
0.000726749
0.000740001
0.000752852
0.00076526
0.000777191
0.000788616
0.000799521
0.000809894
0.000819726
0.000829017
0.000837769
0.000845989
0.000853687
0.000860876
0.000867571
0.000873789
0.000879549
0.000884869
0.000889769
0.000894272
0.000898397
0.000902165
0.000905599
0.000908717
0.000911541
0.000914091
0.000916386
0.000918445
0.000920285
0.000921923
0.000923377
0.000924662
0.000925792
0.000926782
0.000927646
0.000928396
0.000929043
0.000929598
0.000930072
0.000930474
0.000930812
0.000931095
0.000931329
0.00093152
0.000931674
0.000931795
0.000931884
0.000931945
0.000931977
0.000977085
0.000936592
0.000899429
0.000865274
0.000833837
0.000804861
0.000778113
0.000753386
0.000730493
0.00070927
0.000689567
0.000671254
0.000654216
0.00063835
0.00062357
0.000609801
0.000596981
0.00058506
0.000574
0.000563774
0.000554368
0.000545778
0.000538012
0.000531089
0.000525035
0.000519888
0.00051569
0.000512492
0.000510345
0.000509299
0.000509403
0.000510699
0.000513216
0.000516973
0.00052197
0.000528191
0.000535601
0.000544144
0.000553749
0.000564327
0.000575777
0.000587989
0.000600844
0.00061422
0.000627996
0.000642053
0.000656276
0.000670556
0.000684794
0.000698899
0.00071279
0.000726396
0.000739654
0.000752514
0.000764932
0.000776874
0.000788311
0.000799229
0.000809616
0.000819462
0.000828767
0.000837533
0.000845767
0.000853478
0.000860681
0.000867389
0.00087362
0.000879391
0.000884723
0.000889634
0.000894147
0.000898282
0.00090206
0.000905502
0.000908628
0.000911461
0.000914018
0.000916319
0.000918384
0.00092023
0.000921874
0.000923332
0.000924622
0.000925757
0.000926751
0.000927619
0.000928372
0.000929022
0.00092958
0.000930057
0.000930461
0.000930802
0.000931087
0.000931323
0.000931517
0.000931672
0.000931794
0.000931885
0.000931946
0.000931978
0.000977086
0.000936595
0.000899434
0.000865282
0.000833848
0.000804875
0.00077813
0.000753405
0.000730516
0.000709295
0.000689595
0.000671285
0.000654249
0.000638387
0.00062361
0.000609843
0.000597026
0.000585107
0.000574049
0.000563825
0.00055442
0.000545831
0.000538065
0.00053114
0.000525083
0.000519931
0.000515727
0.000512519
0.000510359
0.000509299
0.000509386
0.00051066
0.000513154
0.000516885
0.000521854
0.000528045
0.000535424
0.000543936
0.00055351
0.000564058
0.00057548
0.000587666
0.000600498
0.000613854
0.000627613
0.000641656
0.000655869
0.000670142
0.000684377
0.000698482
0.000712375
0.000725986
0.000739252
0.000752121
0.00076455
0.000776506
0.000787957
0.00079889
0.000809291
0.000819153
0.000828474
0.000837256
0.000845506
0.000853233
0.000860451
0.000867174
0.00087342
0.000879205
0.00088455
0.000889474
0.000893999
0.000898145
0.000901934
0.000905386
0.000908523
0.000911364
0.00091393
0.000916239
0.000918311
0.000920164
0.000921814
0.000923279
0.000924574
0.000925714
0.000926713
0.000927585
0.000928342
0.000928996
0.000929558
0.000930039
0.000930446
0.00093079
0.000931078
0.000931316
0.000931512
0.000931669
0.000931792
0.000931884
0.000931946
0.000931979
0.000977087
0.000936598
0.00089944
0.00086529
0.000833859
0.000804889
0.000778147
0.000753426
0.00073054
0.000709322
0.000689626
0.000671319
0.000654287
0.000638428
0.000623654
0.000609891
0.000597077
0.000585161
0.000574105
0.000563883
0.00055448
0.000545892
0.000538125
0.000531198
0.000525138
0.00051998
0.000515769
0.000512551
0.000510378
0.000509301
0.000509368
0.00051062
0.000513087
0.000516789
0.000521727
0.000527885
0.000535229
0.000543706
0.000553245
0.00056376
0.000575151
0.000587307
0.000600113
0.000613446
0.000627186
0.000641214
0.000655414
0.00066968
0.00068391
0.000698014
0.00071191
0.000725526
0.0007388
0.000751679
0.000764121
0.00077609
0.000787556
0.000798505
0.000808924
0.000818803
0.000828142
0.000836942
0.000845209
0.000852955
0.00086019
0.00086693
0.000873191
0.000878992
0.000884352
0.000889291
0.000893829
0.000897988
0.00090179
0.000905253
0.000908401
0.000911252
0.000913827
0.000916146
0.000918227
0.000920087
0.000921745
0.000923217
0.000924518
0.000925664
0.000926669
0.000927546
0.000928308
0.000928967
0.000929533
0.000930017
0.000930428
0.000930775
0.000931066
0.000931307
0.000931505
0.000931665
0.00093179
0.000931883
0.000931946
0.000931979
0.000977088
0.000936601
0.000899445
0.000865298
0.000833871
0.000804904
0.000778165
0.000753448
0.000730565
0.000709351
0.000689659
0.000671356
0.000654328
0.000638472
0.000623702
0.000609943
0.000597132
0.00058522
0.000574168
0.000563948
0.000554547
0.00054596
0.000538193
0.000531264
0.0005252
0.000520037
0.000515816
0.000512587
0.0005104
0.000509305
0.00050935
0.000510577
0.000513017
0.000516687
0.00052159
0.000527712
0.000535019
0.000543457
0.000552959
0.000563437
0.000574793
0.000586917
0.000599694
0.000613001
0.00062672
0.00064073
0.000654917
0.000669174
0.000683399
0.000697501
0.000711399
0.00072502
0.000738303
0.000751193
0.000763648
0.000775632
0.000787114
0.000798081
0.000808518
0.000818416
0.000827774
0.000836593
0.00084488
0.000852644
0.000859898
0.000866656
0.000872935
0.000878754
0.00088413
0.000889085
0.000893639
0.000897812
0.000901627
0.000905104
0.000908263
0.000911126
0.000913712
0.000916041
0.000918131
0.00092
0.000921666
0.000923146
0.000924454
0.000925607
0.000926618
0.000927501
0.000928268
0.000928932
0.000929503
0.000929992
0.000930407
0.000930758
0.000931052
0.000931296
0.000931497
0.000931659
0.000931786
0.000931881
0.000931945
0.000931978
0.000977089
0.000936604
0.00089945
0.000865306
0.000833882
0.000804919
0.000778184
0.00075347
0.000730592
0.000709382
0.000689694
0.000671395
0.000654371
0.00063852
0.000623754
0.00061
0.000597193
0.000585284
0.000574235
0.000564019
0.00055462
0.000546034
0.000538267
0.000531336
0.000525268
0.000520099
0.000515869
0.000512628
0.000510425
0.000509311
0.000509334
0.000510534
0.000512943
0.00051658
0.000521447
0.00052753
0.000534796
0.000543194
0.000552654
0.000563093
0.000574411
0.000586501
0.000599245
0.000612525
0.00062622
0.000640211
0.000654383
0.000668629
0.000682848
0.000696949
0.000710848
0.000724475
0.000737766
0.000750667
0.000763135
0.000775135
0.000786634
0.000797619
0.000808076
0.000817994
0.000827372
0.000836212
0.00084452
0.000852305
0.000859579
0.000866357
0.000872655
0.000878492
0.000883886
0.000888858
0.000893429
0.000897618
0.000901447
0.000904938
0.000908111
0.000910986
0.000913584
0.000915924
0.000918024
0.000919903
0.000921579
0.000923066
0.000924383
0.000925543
0.000926561
0.000927451
0.000928224
0.000928893
0.00092947
0.000929963
0.000930383
0.000930738
0.000931036
0.000931284
0.000931487
0.000931652
0.000931781
0.000931878
0.000931943
0.000931976
0.00097709
0.000936607
0.000899456
0.000865314
0.000833893
0.000804933
0.000778203
0.000753493
0.000730619
0.000709414
0.00068973
0.000671436
0.000654417
0.000638571
0.00062381
0.00061006
0.000597258
0.000585353
0.000574308
0.000564095
0.000554698
0.000546113
0.000538346
0.000531414
0.000525342
0.000520166
0.000515927
0.000512674
0.000510455
0.000509321
0.000509319
0.000510491
0.000512868
0.000516469
0.000521297
0.000527339
0.000534563
0.000542917
0.000552335
0.000562731
0.00057401
0.000586062
0.000598772
0.000612023
0.000625692
0.000639662
0.000653818
0.000668052
0.000682264
0.000696362
0.000710263
0.000723894
0.000737193
0.000750106
0.000762588
0.000774603
0.000786121
0.000797125
0.000807601
0.000817541
0.000826941
0.000835803
0.000844132
0.000851939
0.000859234
0.000866034
0.000872352
0.000878209
0.000883622
0.000888613
0.0008932
0.000897407
0.000901252
0.000904758
0.000907945
0.000910834
0.000913444
0.000915796
0.000917908
0.000919797
0.000921482
0.000922979
0.000924304
0.000925473
0.000926498
0.000927395
0.000928175
0.00092885
0.000929432
0.000929931
0.000930356
0.000930715
0.000931017
0.000931269
0.000931476
0.000931643
0.000931774
0.000931873
0.000931939
0.000931973
0.00097709
0.000936609
0.000899461
0.000865322
0.000833904
0.000804948
0.000778222
0.000753516
0.000730647
0.000709446
0.000689767
0.000671478
0.000654464
0.000638623
0.000623868
0.000610122
0.000597325
0.000585426
0.000574385
0.000564175
0.000554781
0.000546198
0.000538431
0.000531497
0.000525421
0.000520238
0.00051599
0.000512723
0.000510487
0.000509333
0.000509306
0.000510449
0.000512792
0.000516356
0.000521144
0.000527143
0.000534322
0.000542631
0.000552003
0.000562355
0.000573591
0.000585604
0.000598279
0.000611497
0.000625139
0.000639087
0.000653225
0.000667447
0.00068165
0.000695745
0.000709646
0.000723282
0.000736589
0.000749513
0.00076201
0.000774041
0.000785577
0.000796601
0.000807099
0.00081706
0.000826482
0.000835367
0.000843719
0.000851549
0.000858867
0.000865688
0.000872028
0.000877906
0.00088334
0.000888349
0.000892956
0.000897179
0.000901042
0.000904564
0.000907766
0.000910669
0.000913293
0.000915658
0.000917781
0.000919682
0.000921378
0.000922885
0.000924219
0.000925396
0.00092643
0.000927334
0.000928121
0.000928803
0.000929391
0.000929896
0.000930326
0.00093069
0.000930997
0.000931252
0.000931462
0.000931632
0.000931766
0.000931866
0.000931933
0.000931968
0.000977091
0.000936612
0.000899465
0.00086533
0.000833915
0.000804963
0.00077824
0.000753539
0.000730674
0.000709479
0.000689805
0.000671521
0.000654513
0.000638677
0.000623927
0.000610188
0.000597396
0.000585501
0.000574465
0.00056426
0.000554868
0.000546287
0.00053852
0.000531584
0.000525505
0.000520315
0.000516057
0.000512777
0.000510524
0.000509347
0.000509295
0.000510407
0.000512716
0.000516241
0.000520988
0.000526942
0.000534075
0.000542337
0.000551662
0.000561968
0.00057316
0.000585132
0.000597769
0.000610954
0.000624567
0.00063849
0.00065261
0.000666817
0.000681012
0.000695102
0.000709004
0.000722644
0.000735959
0.000748894
0.000761404
0.000773453
0.000785007
0.000796051
0.00080657
0.000816554
0.000826
0.000834908
0.000843284
0.000851137
0.000858479
0.000865323
0.000871686
0.000877585
0.00088304
0.00088807
0.000892696
0.000896938
0.000900818
0.000904357
0.000907575
0.000910494
0.000913132
0.00091551
0.000917646
0.000919559
0.000921266
0.000922783
0.000924127
0.000925313
0.000926356
0.000927268
0.000928063
0.000928752
0.000929346
0.000929857
0.000930292
0.000930662
0.000930973
0.000931233
0.000931447
0.00093162
0.000931756
0.000931858
0.000931926
0.000931961
0.000977092
0.000936614
0.00089947
0.000865337
0.000833926
0.000804977
0.000778258
0.000753562
0.000730702
0.000709511
0.000689843
0.000671565
0.000654562
0.000638733
0.000623988
0.000610255
0.000597469
0.00058558
0.000574548
0.000564347
0.000554959
0.000546379
0.000538613
0.000531676
0.000525592
0.000520396
0.000516128
0.000512834
0.000510563
0.000509364
0.000509285
0.000510367
0.00051264
0.000516126
0.00052083
0.000526739
0.000533824
0.000542037
0.000551314
0.000561572
0.000572719
0.000584648
0.000597246
0.000610396
0.000623978
0.000637876
0.000651976
0.000666168
0.000680353
0.000694438
0.000708339
0.000721983
0.000735306
0.000748252
0.000760776
0.000772841
0.000784414
0.000795479
0.00080602
0.000816027
0.000825496
0.000834428
0.000842829
0.000850706
0.000858072
0.00086494
0.000871326
0.000877248
0.000882724
0.000887775
0.000892421
0.000896683
0.000900582
0.000904138
0.000907373
0.000910308
0.000912961
0.000915353
0.000917502
0.000919428
0.000921147
0.000922675
0.00092403
0.000925225
0.000926277
0.000927197
0.000928
0.000928697
0.000929298
0.000929815
0.000930256
0.000930631
0.000930947
0.000931211
0.000931429
0.000931605
0.000931744
0.000931848
0.000931917
0.000931953
0.000977092
0.000936616
0.000899474
0.000865344
0.000833936
0.000804991
0.000778276
0.000753585
0.000730729
0.000709544
0.000689881
0.000671609
0.000654612
0.000638788
0.000624051
0.000610323
0.000597543
0.000585659
0.000574633
0.000564436
0.000555052
0.000546475
0.000538709
0.00053177
0.000525683
0.00052048
0.000516202
0.000512894
0.000510605
0.000509384
0.000509278
0.000510328
0.000512566
0.000516012
0.000520671
0.000526534
0.00053357
0.000541734
0.000550961
0.00056117
0.00057227
0.000584155
0.000596712
0.000609826
0.000623377
0.000637249
0.000651327
0.000665504
0.000679678
0.000693757
0.000707657
0.000721304
0.000734634
0.000747591
0.000760129
0.00077221
0.000783802
0.000794887
0.00080545
0.00081548
0.000824973
0.00083393
0.000842356
0.000850258
0.000857648
0.000864541
0.00087095
0.000876896
0.000882395
0.000887468
0.000892135
0.000896417
0.000900335
0.000903909
0.000907162
0.000910112
0.000912781
0.000915188
0.000917351
0.00091929
0.000921021
0.00092256
0.000923926
0.000925132
0.000926193
0.000927122
0.000927933
0.000928638
0.000929246
0.00092977
0.000930217
0.000930598
0.000930918
0.000931187
0.000931409
0.000931588
0.00093173
0.000931835
0.000931907
0.000931943
0.000977093
0.000936619
0.000899479
0.000865351
0.000833946
0.000805004
0.000778294
0.000753607
0.000730756
0.000709576
0.000689919
0.000671653
0.000654662
0.000638845
0.000624113
0.000610392
0.000597618
0.000585741
0.00057472
0.000564528
0.000555147
0.000546572
0.000538807
0.000531867
0.000525776
0.000520567
0.000516278
0.000512957
0.00051065
0.000509406
0.000509273
0.000510291
0.000512492
0.000515898
0.000520513
0.000526328
0.000533315
0.000541428
0.000550605
0.000560765
0.000571816
0.000583656
0.000596172
0.000609249
0.000622767
0.000636612
0.000650668
0.000664827
0.00067899
0.000693062
0.00070696
0.00072061
0.000733946
0.000746914
0.000759465
0.000771563
0.000783173
0.000794279
0.000804864
0.000814918
0.000824435
0.000833417
0.000841868
0.000849795
0.000857211
0.000864128
0.000870562
0.000876531
0.000882053
0.000887149
0.000891837
0.00089614
0.000900077
0.000903671
0.000906941
0.000909908
0.000912593
0.000915015
0.000917193
0.000919145
0.000920888
0.00092244
0.000923817
0.000925034
0.000926104
0.000927043
0.000927863
0.000928575
0.000929191
0.000929721
0.000930175
0.000930561
0.000930887
0.00093116
0.000931386
0.000931569
0.000931713
0.000931821
0.000931894
0.00093193
0.000977094
0.000936621
0.000899483
0.000865358
0.000833956
0.000805017
0.000778311
0.000753628
0.000730783
0.000709608
0.000689956
0.000671696
0.000654712
0.000638901
0.000624176
0.000610462
0.000597694
0.000585823
0.000574808
0.00056462
0.000555244
0.000546672
0.000538908
0.000531966
0.000525872
0.000520655
0.000516357
0.000513022
0.000510696
0.00050943
0.00050927
0.000510256
0.000512421
0.000515785
0.000520356
0.000526123
0.000533061
0.000541123
0.000550248
0.000560357
0.00057136
0.000583154
0.000595628
0.000608666
0.000622151
0.000635967
0.00065
0.000664142
0.000678292
0.000692357
0.000706253
0.000719905
0.000733247
0.000746224
0.000758789
0.000770903
0.000782532
0.000793658
0.000804265
0.000814342
0.000823884
0.000832891
0.000841367
0.00084932
0.000856761
0.000863703
0.000870162
0.000876155
0.000881701
0.000886819
0.000891529
0.000895853
0.000899811
0.000903423
0.000906712
0.000909697
0.000912398
0.000914836
0.000917028
0.000918994
0.000920751
0.000922315
0.000923703
0.000924931
0.000926012
0.00092696
0.000927788
0.000928509
0.000929133
0.00092967
0.00093013
0.000930522
0.000930854
0.000931132
0.000931361
0.000931548
0.000931695
0.000931805
0.000931879
0.000931916
0.000977094
0.000936623
0.000899487
0.000865364
0.000833965
0.00080503
0.000778328
0.000753649
0.000730809
0.000709639
0.000689994
0.00067174
0.000654761
0.000638957
0.000624239
0.000610531
0.00059777
0.000585905
0.000574896
0.000564714
0.000555341
0.000546772
0.000539009
0.000532067
0.000525968
0.000520746
0.000516438
0.000513088
0.000510745
0.000509456
0.000509269
0.000510223
0.000512351
0.000515674
0.0005202
0.00052592
0.000532807
0.000540818
0.000549891
0.00055995
0.000570903
0.000582651
0.000595081
0.000608081
0.000621532
0.000635319
0.000649328
0.000663451
0.000677588
0.000691645
0.000705538
0.000719191
0.000732539
0.000745526
0.000758103
0.000770233
0.00078188
0.000793026
0.000803656
0.000813756
0.000823323
0.000832355
0.000840856
0.000848835
0.000856301
0.000863269
0.000869753
0.00087577
0.00088134
0.000886481
0.000891214
0.000895559
0.000899537
0.000903169
0.000906476
0.000909479
0.000912197
0.00091465
0.000916858
0.000918838
0.000920608
0.000922185
0.000923585
0.000924824
0.000925915
0.000926873
0.000927711
0.00092844
0.000929071
0.000929616
0.000930083
0.000930481
0.000930818
0.0009311
0.000931334
0.000931525
0.000931674
0.000931787
0.000931862
0.0009319
0.000977095
0.000936625
0.000899491
0.00086537
0.000833974
0.000805043
0.000778344
0.00075367
0.000730834
0.00070967
0.00069003
0.000671782
0.00065481
0.000639013
0.000624301
0.0006106
0.000597846
0.000585987
0.000574984
0.000564807
0.000555439
0.000546872
0.000539111
0.000532168
0.000526066
0.000520837
0.000516519
0.000513156
0.000510795
0.000509484
0.000509269
0.000510191
0.000512283
0.000515566
0.000520047
0.000525719
0.000532556
0.000540515
0.000549537
0.000559544
0.000570448
0.000582148
0.000594536
0.000607496
0.000620912
0.000634669
0.000648654
0.000662758
0.000676881
0.000690929
0.000704818
0.000718472
0.000731826
0.000744821
0.000757411
0.000769556
0.000781221
0.000792387
0.000803039
0.000813162
0.000822753
0.00083181
0.000840337
0.000848341
0.000855833
0.000862826
0.000869336
0.000875378
0.000880971
0.000886136
0.000890891
0.000895257
0.000899256
0.000902908
0.000906234
0.000909255
0.00091199
0.00091446
0.000916683
0.000918677
0.000920461
0.000922051
0.000923463
0.000924713
0.000925815
0.000926783
0.00092763
0.000928367
0.000929007
0.000929559
0.000930033
0.000930437
0.000930779
0.000931067
0.000931305
0.000931499
0.000931652
0.000931766
0.000931843
0.000931882
0.000977095
0.000936627
0.000899494
0.000865376
0.000833982
0.000805055
0.00077836
0.00075369
0.000730859
0.0007097
0.000690066
0.000671824
0.000654858
0.000639068
0.000624363
0.000610669
0.000597921
0.000586069
0.000575072
0.0005649
0.000555537
0.000546973
0.000539213
0.000532269
0.000526164
0.000520929
0.000516602
0.000513225
0.000510847
0.000509513
0.000509272
0.000510162
0.000512218
0.00051546
0.000519897
0.000525521
0.000532308
0.000540216
0.000549185
0.000559142
0.000569996
0.000581649
0.000593993
0.000606913
0.000620294
0.000634021
0.000647981
0.000662065
0.000676174
0.000690213
0.000704097
0.000717752
0.000731109
0.000744113
0.000756715
0.000768875
0.000780558
0.000791743
0.000802416
0.000812563
0.000822178
0.000831259
0.000839812
0.000847842
0.00085536
0.000862378
0.000868912
0.000874979
0.000880597
0.000885784
0.000890562
0.000894951
0.00089897
0.000902643
0.000905988
0.000909027
0.000911779
0.000914265
0.000916504
0.000918513
0.000920311
0.000921914
0.000923338
0.000924599
0.000925712
0.00092669
0.000927546
0.000928292
0.00092894
0.0009295
0.00092998
0.000930391
0.000930739
0.000931031
0.000931274
0.000931471
0.000931627
0.000931744
0.000931822
0.000931862
0.000977096
0.000936629
0.000899498
0.000865382
0.000833991
0.000805066
0.000778375
0.000753709
0.000730883
0.000709729
0.000690101
0.000671865
0.000654906
0.000639122
0.000624424
0.000610736
0.000597996
0.00058615
0.000575159
0.000564993
0.000555633
0.000547073
0.000539314
0.00053237
0.000526262
0.000521021
0.000516684
0.000513295
0.000510899
0.000509544
0.000509276
0.000510135
0.000512154
0.000515357
0.00051975
0.000525327
0.000532064
0.000539921
0.000548839
0.000558744
0.000569549
0.000581155
0.000593454
0.000606335
0.00061968
0.000633377
0.000647311
0.000661375
0.000675469
0.000689498
0.000703378
0.000717032
0.000730394
0.000743405
0.000756018
0.000768192
0.000779892
0.000791097
0.000801791
0.000811961
0.000821599
0.000830705
0.000839283
0.000847338
0.000854882
0.000861926
0.000868485
0.000874576
0.000880218
0.000885429
0.000890229
0.00089464
0.00089868
0.000902373
0.000905737
0.000908794
0.000911564
0.000914067
0.000916321
0.000918345
0.000920157
0.000921773
0.000923209
0.000924482
0.000925606
0.000926594
0.00092746
0.000928215
0.000928871
0.000929438
0.000929926
0.000930343
0.000930696
0.000930994
0.000931241
0.000931442
0.000931601
0.00093172
0.0009318
0.000931839
0.000977096
0.00093663
0.000899501
0.000865387
0.000833999
0.000805077
0.00077839
0.000753728
0.000730906
0.000709758
0.000690135
0.000671905
0.000654952
0.000639174
0.000624483
0.000610803
0.000598069
0.00058623
0.000575245
0.000565084
0.000555729
0.000547172
0.000539415
0.00053247
0.00052636
0.000521113
0.000516767
0.000513364
0.000510951
0.000509575
0.000509281
0.000510109
0.000512094
0.000515256
0.000519606
0.000525136
0.000531825
0.000539631
0.000548498
0.000558352
0.000569108
0.000580667
0.000592922
0.000605763
0.000619073
0.000632738
0.000646647
0.000660691
0.000674769
0.000688788
0.000702662
0.000716315
0.00072968
0.000742699
0.000755323
0.000767511
0.000779228
0.000790451
0.000801166
0.000811358
0.000821019
0.00083015
0.000838752
0.000846833
0.000854402
0.000861471
0.000868055
0.000874171
0.000879836
0.000885071
0.000889894
0.000894326
0.000898388
0.0009021
0.000905484
0.000908559
0.000911347
0.000913866
0.000916136
0.000918174
0.00092
0.000921629
0.000923079
0.000924363
0.000925498
0.000926497
0.000927372
0.000928136
0.0009288
0.000929375
0.000929869
0.000930292
0.000930652
0.000930955
0.000931206
0.000931411
0.000931573
0.000931694
0.000931775
0.000931816
0.000977097
0.000936632
0.000899505
0.000865393
0.000834007
0.000805088
0.000778404
0.000753746
0.000730929
0.000709786
0.000690168
0.000671944
0.000654997
0.000639226
0.000624542
0.000610868
0.000598141
0.000586308
0.000575329
0.000565174
0.000555823
0.00054727
0.000539514
0.000532569
0.000526456
0.000521204
0.000516849
0.000513434
0.000511004
0.000509607
0.000509288
0.000510086
0.000512036
0.000515159
0.000519466
0.000524951
0.000531591
0.000539347
0.000548163
0.000557968
0.000568674
0.000580187
0.000592399
0.000605199
0.000618474
0.000632108
0.000645991
0.000660014
0.000674076
0.000688084
0.000701953
0.000715605
0.000728972
0.000741998
0.000754632
0.000766833
0.000778566
0.000789808
0.000800543
0.000810756
0.000820441
0.000829595
0.000838222
0.000846327
0.000853921
0.000861015
0.000867624
0.000873764
0.000879454
0.000884711
0.000889557
0.00089401
0.000898093
0.000901825
0.000905228
0.000908322
0.000911127
0.000913663
0.000915948
0.000918002
0.000919842
0.000921484
0.000922946
0.000924243
0.000925388
0.000926397
0.000927282
0.000928055
0.000928727
0.00092931
0.000929811
0.000930241
0.000930606
0.000930913
0.000931169
0.000931378
0.000931543
0.000931666
0.000931749
0.00093179
0.000977097
0.000936634
0.000899508
0.000865398
0.000834014
0.000805098
0.000778418
0.000753764
0.000730951
0.000709812
0.0006902
0.000671981
0.000655041
0.000639276
0.000624598
0.000610931
0.000598211
0.000586385
0.000575412
0.000565262
0.000555916
0.000547366
0.000539612
0.000532667
0.000526551
0.000521293
0.00051693
0.000513503
0.000511057
0.00050964
0.000509295
0.000510064
0.00051198
0.000515065
0.000519331
0.00052477
0.000531363
0.00053907
0.000547836
0.000557591
0.000568249
0.000579716
0.000591884
0.000604645
0.000617884
0.000631488
0.000645344
0.000659346
0.000673393
0.00068739
0.000701252
0.000714902
0.000728272
0.000741304
0.000753948
0.000766161
0.00077791
0.000789169
0.000799924
0.000810158
0.000819865
0.000829043
0.000837694
0.000845824
0.000853442
0.00086056
0.000867194
0.000873358
0.000879071
0.000884351
0.000889219
0.000893694
0.000897798
0.00090155
0.000904972
0.000908084
0.000910906
0.000913459
0.00091576
0.000917828
0.000919682
0.000921338
0.000922812
0.00092412
0.000925277
0.000926296
0.00092719
0.000927972
0.000928653
0.000929243
0.000929751
0.000930187
0.000930558
0.000930871
0.000931131
0.000931343
0.000931511
0.000931637
0.000931722
0.000931764
0.000977097
0.000936635
0.000899511
0.000865403
0.000834021
0.000805108
0.000778431
0.000753781
0.000730972
0.000709838
0.000690231
0.000672018
0.000655084
0.000639325
0.000624654
0.000610993
0.000598279
0.000586459
0.000575492
0.000565348
0.000556007
0.000547459
0.000539708
0.000532762
0.000526644
0.000521381
0.00051701
0.000513571
0.00051111
0.000509673
0.000509304
0.000510044
0.000511927
0.000514975
0.000519199
0.000524595
0.000531141
0.0005388
0.000547517
0.000557223
0.000567834
0.000579255
0.000591381
0.000604102
0.000617306
0.000630879
0.00064471
0.000658691
0.000672721
0.000686707
0.000700562
0.000714209
0.000727582
0.000740619
0.000753272
0.000765498
0.000777261
0.000788537
0.000799311
0.000809566
0.000819295
0.000828495
0.00083717
0.000845324
0.000852966
0.000860108
0.000866766
0.000872954