/*--------------------------------*- C++ -*----------------------------------*\
  =========                 |
  \\      /  F ield         | OpenFOAM: The Open Source CFD Toolbox
   \\    /   O peration     | Website:  https://openfoam.org
    \\  /    A nd           | Version:  11
     \\/     M anipulation  |
\*---------------------------------------------------------------------------*/
FoamFile
{
    format      ascii;
    class       volVectorField;
    location    "164";
    object      U;
}
// * * * * * * * * * * * * * * * * * * * * * * * * * * * * * * * * * * * * * //

dimensions      [0 1 -1 0 0 0 0];

internalField   nonuniform List<vector> 
10000
(
(0.00499923 -2.43404e-05 0)
(0.0049959 -7.0288e-05 0)
(0.00499146 -0.000115716 0)
(0.00498593 -0.00016163 0)
(0.00497937 -0.00020854 0)
(0.00497178 -0.000256769 0)
(0.0049631 -0.000306546 0)
(0.00495329 -0.000358045 0)
(0.00494229 -0.000411399 0)
(0.00493004 -0.000466713 0)
(0.00491648 -0.000524068 0)
(0.00490153 -0.000583524 0)
(0.00488513 -0.000645117 0)
(0.0048672 -0.000708865 0)
(0.00484767 -0.000774761 0)
(0.00482647 -0.000842772 0)
(0.00480352 -0.00091284 0)
(0.00477876 -0.000984872 0)
(0.00475211 -0.00105874 0)
(0.00472352 -0.0011343 0)
(0.00469292 -0.00121132 0)
(0.00466028 -0.00128958 0)
(0.00462555 -0.00136877 0)
(0.00458872 -0.00144855 0)
(0.00454977 -0.00152854 0)
(0.00450872 -0.00160829 0)
(0.0044656 -0.00168733 0)
(0.00442047 -0.00176514 0)
(0.0043734 -0.0018412 0)
(0.00432452 -0.00191495 0)
(0.00427394 -0.00198585 0)
(0.00422182 -0.00205338 0)
(0.00416835 -0.00211706 0)
(0.00411371 -0.00217648 0)
(0.00405811 -0.00223128 0)
(0.00400177 -0.00228119 0)
(0.00394489 -0.00232603 0)
(0.0038877 -0.00236572 0)
(0.00383041 -0.00240023 0)
(0.00377322 -0.00242967 0)
(0.00371651 -0.00245423 0)
(0.00366014 -0.00247424 0)
(0.00360336 -0.0024898 0)
(0.00354644 -0.00250084 0)
(0.0034896 -0.00250772 0)
(0.00343279 -0.00251066 0)
(0.00337674 -0.00250985 0)
(0.00332208 -0.00250569 0)
(0.00326856 -0.00249851 0)
(0.00321598 -0.00248845 0)
(0.00316469 -0.00247568 0)
(0.00311467 -0.00246059 0)
(0.00306522 -0.00244342 0)
(0.0030164 -0.00242426 0)
(0.00296828 -0.00240318 0)
(0.00292088 -0.0023803 0)
(0.00287421 -0.00235574 0)
(0.00282829 -0.0023296 0)
(0.00278312 -0.00230198 0)
(0.0027387 -0.00227297 0)
(0.00269503 -0.00224266 0)
(0.00265212 -0.00221111 0)
(0.00260996 -0.00217841 0)
(0.00256857 -0.00214462 0)
(0.00252795 -0.00210981 0)
(0.00248811 -0.00207405 0)
(0.00244905 -0.00203739 0)
(0.00241077 -0.00199991 0)
(0.0023733 -0.00196166 0)
(0.00233664 -0.00192271 0)
(0.0023008 -0.00188313 0)
(0.00226579 -0.00184297 0)
(0.00223163 -0.00180232 0)
(0.00219833 -0.00176124 0)
(0.0021659 -0.0017198 0)
(0.00213435 -0.00167808 0)
(0.00210371 -0.00163617 0)
(0.00207398 -0.00159414 0)
(0.00204519 -0.00155209 0)
(0.00201734 -0.0015101 0)
(0.00199046 -0.00146827 0)
(0.00196456 -0.00142671 0)
(0.00193965 -0.00138551 0)
(0.00191576 -0.00134479 0)
(0.00189291 -0.00130468 0)
(0.00187111 -0.00126529 0)
(0.00185038 -0.00122675 0)
(0.00183074 -0.00118922 0)
(0.00181222 -0.00115283 0)
(0.00179484 -0.00111775 0)
(0.00177861 -0.00108416 0)
(0.00176359 -0.00105225 0)
(0.00174978 -0.00102222 0)
(0.00173723 -0.000994302 0)
(0.00172599 -0.000968769 0)
(0.0017161 -0.00094592 0)
(0.00170765 -0.000926111 0)
(0.0017007 -0.000909764 0)
(0.00169521 -0.000897524 0)
(0.00169145 -0.000890722 0)
(0.0049997 -2.21525e-05 0)
(0.00499663 -6.60953e-05 0)
(0.00499233 -0.000110233 0)
(0.00498679 -0.000154985 0)
(0.00498021 -0.000200747 0)
(0.00497259 -0.000247798 0)
(0.00496389 -0.000296349 0)
(0.00495406 -0.000346561 0)
(0.00494304 -0.000398561 0)
(0.00493078 -0.000452449 0)
(0.00491721 -0.000508301 0)
(0.00490226 -0.000566173 0)
(0.00488586 -0.000626102 0)
(0.00486793 -0.000688101 0)
(0.0048484 -0.000752164 0)
(0.00482721 -0.000818259 0)
(0.00480427 -0.000886327 0)
(0.00477952 -0.000956281 0)
(0.00475289 -0.001028 0)
(0.00472432 -0.00110133 0)
(0.00469376 -0.00117607 0)
(0.00466115 -0.001252 0)
(0.00462646 -0.00132882 0)
(0.00458966 -0.00140622 0)
(0.00455076 -0.00148382 0)
(0.00450977 -0.00156121 0)
(0.00446671 -0.00163794 0)
(0.00442165 -0.00171352 0)
(0.00437466 -0.00178746 0)
(0.00432586 -0.00185922 0)
(0.00427537 -0.00192829 0)
(0.00422334 -0.00199419 0)
(0.00416996 -0.00205646 0)
(0.0041154 -0.00211468 0)
(0.00405988 -0.00216853 0)
(0.0040036 -0.00221773 0)
(0.00394676 -0.00226211 0)
(0.00388957 -0.00230157 0)
(0.0038322 -0.00233608 0)
(0.0037748 -0.0023657 0)
(0.00371751 -0.00239047 0)
(0.00366026 -0.00241035 0)
(0.00360306 -0.0024255 0)
(0.00354639 -0.00243635 0)
(0.00349034 -0.00244324 0)
(0.00343496 -0.00244668 0)
(0.00338025 -0.00244706 0)
(0.0033262 -0.00244437 0)
(0.00327286 -0.00243865 0)
(0.00322023 -0.00243011 0)
(0.00316843 -0.00241888 0)
(0.00311771 -0.00240499 0)
(0.00306788 -0.00238874 0)
(0.00301886 -0.00237041 0)
(0.00297062 -0.00235017 0)
(0.00292313 -0.00232814 0)
(0.00287641 -0.00230443 0)
(0.00283043 -0.00227914 0)
(0.00278522 -0.00225238 0)
(0.00274076 -0.00222422 0)
(0.00269705 -0.00219476 0)
(0.00265411 -0.00216407 0)
(0.00261192 -0.00213223 0)
(0.0025705 -0.0020993 0)
(0.00252986 -0.00206536 0)
(0.00248999 -0.00203047 0)
(0.0024509 -0.0019947 0)
(0.00241261 -0.0019581 0)
(0.00237511 -0.00192075 0)
(0.00233843 -0.00188271 0)
(0.00230257 -0.00184405 0)
(0.00226755 -0.00180483 0)
(0.00223337 -0.00176513 0)
(0.00220005 -0.00172501 0)
(0.00216761 -0.00168454 0)
(0.00213605 -0.00164382 0)
(0.0021054 -0.00160292 0)
(0.00207566 -0.00156191 0)
(0.00204685 -0.0015209 0)
(0.002019 -0.00147997 0)
(0.0019921 -0.00143922 0)
(0.00196619 -0.00139874 0)
(0.00194128 -0.00135866 0)
(0.00191738 -0.00131908 0)
(0.00189451 -0.00128011 0)
(0.00187269 -0.00124189 0)
(0.00185195 -0.00120455 0)
(0.00183229 -0.00116823 0)
(0.00181374 -0.00113308 0)
(0.00179633 -0.00109927 0)
(0.00178007 -0.00106698 0)
(0.00176499 -0.00103639 0)
(0.00175112 -0.00100772 0)
(0.0017385 -0.000981208 0)
(0.00172715 -0.000957126 0)
(0.00171711 -0.000935787 0)
(0.00170845 -0.000917556 0)
(0.00170116 -0.000902877 0)
(0.00169494 -0.000892373 0)
(0.00168996 -0.000887026 0)
(0.00499988 -2.03985e-05 0)
(0.00499732 -6.222e-05 0)
(0.00499334 -0.000104888 0)
(0.00498796 -0.000148411 0)
(0.00498144 -0.000193005 0)
(0.00497385 -0.000238886 0)
(0.00496515 -0.000286229 0)
(0.00495532 -0.000335181 0)
(0.0049443 -0.000385858 0)
(0.00493203 -0.000438354 0)
(0.00491846 -0.000492743 0)
(0.0049035 -0.000549077 0)
(0.0048871 -0.00060739 0)
(0.00486918 -0.000667696 0)
(0.00484967 -0.000729986 0)
(0.00482849 -0.00079423 0)
(0.00480558 -0.000860372 0)
(0.00478087 -0.000928325 0)
(0.00475428 -0.000997976 0)
(0.00472576 -0.00106917 0)
(0.00469525 -0.00114173 0)
(0.00466271 -0.00121543 0)
(0.00462811 -0.00128999 0)
(0.00459142 -0.00136512 0)
(0.00455264 -0.00144045 0)
(0.00451177 -0.0015156 0)
(0.00446887 -0.00159014 0)
(0.00442397 -0.00166361 0)
(0.00437717 -0.00173552 0)
(0.00432856 -0.0018054 0)
(0.00427828 -0.00187274 0)
(0.00422646 -0.00193708 0)
(0.00417329 -0.00199797 0)
(0.00411895 -0.00205504 0)
(0.00406363 -0.00210794 0)
(0.00400752 -0.00215642 0)
(0.00395082 -0.00220028 0)
(0.00389372 -0.00223942 0)
(0.00383639 -0.0022738 0)
(0.00377896 -0.00230341 0)
(0.00372156 -0.00232829 0)
(0.00366433 -0.00234854 0)
(0.00360742 -0.0023644 0)
(0.00355099 -0.00237616 0)
(0.00349512 -0.00238405 0)
(0.0034399 -0.00238833 0)
(0.00338532 -0.00238925 0)
(0.00333139 -0.00238701 0)
(0.00327816 -0.00238178 0)
(0.00322568 -0.00237379 0)
(0.00317395 -0.00236324 0)
(0.00312306 -0.00235023 0)
(0.003073 -0.00233489 0)
(0.00302378 -0.00231743 0)
(0.00297537 -0.00229803 0)
(0.00292775 -0.00227683 0)
(0.0028809 -0.00225394 0)
(0.00283481 -0.00222947 0)
(0.00278949 -0.00220353 0)
(0.00274494 -0.00217619 0)
(0.00270114 -0.00214755 0)
(0.00265811 -0.00211769 0)
(0.00261585 -0.00208667 0)
(0.00257436 -0.00205458 0)
(0.00253364 -0.00202148 0)
(0.0024937 -0.00198744 0)
(0.00245455 -0.00195252 0)
(0.0024162 -0.00191679 0)
(0.00237865 -0.00188032 0)
(0.00234192 -0.00184317 0)
(0.00230601 -0.0018054 0)
(0.00227094 -0.0017671 0)
(0.00223672 -0.00172832 0)
(0.00220336 -0.00168914 0)
(0.00217088 -0.00164964 0)
(0.00213929 -0.00160989 0)
(0.0021086 -0.00156998 0)
(0.00207883 -0.00152998 0)
(0.00204999 -0.00148999 0)
(0.0020221 -0.0014501 0)
(0.00199518 -0.00141041 0)
(0.00196924 -0.00137101 0)
(0.00194429 -0.00133202 0)
(0.00192036 -0.00129355 0)
(0.00189745 -0.00125572 0)
(0.00187559 -0.00121866 0)
(0.0018548 -0.00118249 0)
(0.00183509 -0.00114736 0)
(0.00181648 -0.00111344 0)
(0.00179899 -0.00108087 0)
(0.00178264 -0.00104984 0)
(0.00176745 -0.00102055 0)
(0.00175345 -0.000993208 0)
(0.00174064 -0.000968055 0)
(0.00172906 -0.000945362 0)
(0.00171871 -0.000925438 0)
(0.00170961 -0.000908642 0)
(0.00170168 -0.000895394 0)
(0.00169437 -0.000886257 0)
(0.00168785 -0.000881997 0)
(0.0049999 -1.91982e-05 0)
(0.00499779 -5.91155e-05 0)
(0.00499415 -0.000100293 0)
(0.00498904 -0.000142562 0)
(0.00498269 -0.000186008 0)
(0.0049752 -0.000230768 0)
(0.00496657 -0.000276979 0)
(0.00495678 -0.000324761 0)
(0.00494578 -0.00037422 0)
(0.00493353 -0.000425438 0)
(0.00491997 -0.000478485 0)
(0.00490502 -0.00053341 0)
(0.00488864 -0.000590244 0)
(0.00487074 -0.000648999 0)
(0.00485125 -0.000709668 0)
(0.00483011 -0.000772219 0)
(0.00480724 -0.000836597 0)
(0.00478257 -0.000902721 0)
(0.00475605 -0.00097048 0)
(0.0047276 -0.00103973 0)
(0.00469719 -0.00111029 0)
(0.00466476 -0.00118195 0)
(0.00463029 -0.00125445 0)
(0.00459375 -0.0013275 0)
(0.00455515 -0.00140077 0)
(0.00451448 -0.00147387 0)
(0.0044718 -0.00154641 0)
(0.00442715 -0.00161794 0)
(0.00438062 -0.00168802 0)
(0.00433229 -0.00175616 0)
(0.00428231 -0.00182191 0)
(0.00423081 -0.00188481 0)
(0.00417796 -0.00194444 0)
(0.00412392 -0.00200043 0)
(0.0040689 -0.00205244 0)
(0.00401306 -0.00210022 0)
(0.00395661 -0.00214357 0)
(0.00389972 -0.00218237 0)
(0.00384256 -0.00221655 0)
(0.00378527 -0.00224611 0)
(0.00372801 -0.00227108 0)
(0.00367094 -0.00229157 0)
(0.00361421 -0.00230779 0)
(0.00355794 -0.00232001 0)
(0.0035022 -0.00232843 0)
(0.00344707 -0.00233332 0)
(0.00339256 -0.0023349 0)
(0.0033387 -0.00233337 0)
(0.00328552 -0.00232889 0)
(0.00323306 -0.00232169 0)
(0.00318132 -0.00231192 0)
(0.00313034 -0.00229972 0)
(0.00308015 -0.00228521 0)
(0.00303078 -0.00226857 0)
(0.0029822 -0.00224997 0)
(0.00293442 -0.00222955 0)
(0.00288742 -0.00220743 0)
(0.0028412 -0.00218373 0)
(0.00279574 -0.00215855 0)
(0.00275106 -0.00213198 0)
(0.00270714 -0.0021041 0)
(0.002664 -0.00207501 0)
(0.00262162 -0.00204476 0)
(0.00258002 -0.00201344 0)
(0.00253921 -0.00198112 0)
(0.00249917 -0.00194786 0)
(0.00245994 -0.00191374 0)
(0.0024215 -0.00187881 0)
(0.00238387 -0.00184315 0)
(0.00234707 -0.00180682 0)
(0.00231109 -0.00176989 0)
(0.00227595 -0.00173243 0)
(0.00224167 -0.00169451 0)
(0.00220825 -0.0016562 0)
(0.00217572 -0.00161758 0)
(0.00214407 -0.00157873 0)
(0.00211333 -0.00153972 0)
(0.00208351 -0.00150065 0)
(0.00205463 -0.0014616 0)
(0.00202669 -0.00142267 0)
(0.00199972 -0.00138395 0)
(0.00197373 -0.00134554 0)
(0.00194873 -0.00130756 0)
(0.00192475 -0.00127011 0)
(0.00190178 -0.00123331 0)
(0.00187986 -0.0011973 0)
(0.00185899 -0.0011622 0)
(0.0018392 -0.00112816 0)
(0.00182049 -0.00109534 0)
(0.00180289 -0.00106389 0)
(0.0017864 -0.00103401 0)
(0.00177104 -0.00100587 0)
(0.00175682 -0.000979699 0)
(0.00174375 -0.000955728 0)
(0.00173183 -0.00093422 0)
(0.00172104 -0.000915467 0)
(0.00171137 -0.000899799 0)
(0.00170266 -0.000887577 0)
(0.00169428 -0.000879242 0)
(0.0016861 -0.000875579 0)
(0.00499991 -1.82264e-05 0)
(0.00499811 -5.63928e-05 0)
(0.00499479 -9.60572e-05 0)
(0.00498996 -0.000137 0)
(0.00498384 -0.000179228 0)
(0.00497652 -0.000222817 0)
(0.00496801 -0.000267862 0)
(0.0049583 -0.000314455 0)
(0.00494737 -0.000362684 0)
(0.00493517 -0.000412623 0)
(0.00492165 -0.00046433 0)
(0.00490674 -0.000517852 0)
(0.00489039 -0.000573215 0)
(0.00487253 -0.000630431 0)
(0.00485309 -0.000689491 0)
(0.004832 -0.000750364 0)
(0.0048092 -0.000812996 0)
(0.00478461 -0.00087731 0)
(0.00475818 -0.000943198 0)
(0.00472984 -0.00101052 0)
(0.00469956 -0.00107911 0)
(0.00466728 -0.00114876 0)
(0.00463298 -0.00121923 0)
(0.00459664 -0.00129024 0)
(0.00455826 -0.00136146 0)
(0.00451785 -0.00143255 0)
(0.00447545 -0.00150312 0)
(0.00443111 -0.00157275 0)
(0.00438491 -0.00164101 0)
(0.00433695 -0.00170745 0)
(0.00428734 -0.00177162 0)
(0.00423622 -0.0018331 0)
(0.00418376 -0.00189147 0)
(0.00413011 -0.00194637 0)
(0.00407545 -0.00199748 0)
(0.00401997 -0.00204453 0)
(0.00396385 -0.00208734 0)
(0.00390725 -0.00212577 0)
(0.00385036 -0.00215974 0)
(0.00379332 -0.00218925 0)
(0.00373629 -0.00221432 0)
(0.00367944 -0.00223506 0)
(0.0036229 -0.00225167 0)
(0.00356679 -0.00226434 0)
(0.00351117 -0.0022733 0)
(0.00345611 -0.00227878 0)
(0.00340165 -0.00228098 0)
(0.00334782 -0.00228011 0)
(0.00329465 -0.00227634 0)
(0.00324217 -0.00226985 0)
(0.00319039 -0.00226082 0)
(0.00313934 -0.00224936 0)
(0.00308905 -0.00223564 0)
(0.00303954 -0.00221979 0)
(0.00299082 -0.00220198 0)
(0.00294288 -0.00218234 0)
(0.00289573 -0.002161 0)
(0.00284935 -0.00213808 0)
(0.00280374 -0.00211366 0)
(0.00275891 -0.00208786 0)
(0.00271486 -0.00206075 0)
(0.00267158 -0.00203242 0)
(0.00262907 -0.00200295 0)
(0.00258735 -0.00197241 0)
(0.00254641 -0.00194087 0)
(0.00250627 -0.0019084 0)
(0.00246692 -0.00187507 0)
(0.00242838 -0.00184095 0)
(0.00239066 -0.0018061 0)
(0.00235376 -0.00177059 0)
(0.00231769 -0.0017345 0)
(0.00228248 -0.00169788 0)
(0.00224811 -0.00166082 0)
(0.00221462 -0.00162338 0)
(0.00218202 -0.00158564 0)
(0.0021503 -0.00154769 0)
(0.0021195 -0.00150959 0)
(0.00208962 -0.00147144 0)
(0.00206067 -0.00143333 0)
(0.00203267 -0.00139535 0)
(0.00200564 -0.00135759 0)
(0.00197958 -0.00132017 0)
(0.00195452 -0.00128318 0)
(0.00193046 -0.00124673 0)
(0.00190741 -0.00121096 0)
(0.0018854 -0.00117599 0)
(0.00186443 -0.00114194 0)
(0.00184452 -0.00110897 0)
(0.00182568 -0.00107722 0)
(0.00180792 -0.00104687 0)
(0.00179124 -0.00101808 0)
(0.00177566 -0.000991054 0)
(0.00176116 -0.000965994 0)
(0.00174775 -0.000943128 0)
(0.00173541 -0.000922704 0)
(0.0017241 -0.000904994 0)
(0.00171378 -0.000890289 0)
(0.00170425 -0.000878892 0)
(0.00169484 -0.000871143 0)
(0.00168513 -0.000867571 0)
(0.00499993 -1.73765e-05 0)
(0.00499834 -5.39209e-05 0)
(0.00499528 -9.20921e-05 0)
(0.00499073 -0.000131671 0)
(0.00498487 -0.000172626 0)
(0.00497775 -0.00021499 0)
(0.0049694 -0.000258822 0)
(0.00495983 -0.00030419 0)
(0.004949 -0.000351162 0)
(0.00493688 -0.000399798 0)
(0.00492344 -0.000450151 0)
(0.0049086 -0.000502259 0)
(0.00489232 -0.000556144 0)
(0.00487453 -0.000611817 0)
(0.00485516 -0.000669265 0)
(0.00483415 -0.000728461 0)
(0.00481144 -0.000789351 0)
(0.00478696 -0.000851859 0)
(0.00476065 -0.000915883 0)
(0.00473246 -0.000981292 0)
(0.00470234 -0.00104792 0)
(0.00467025 -0.00111558 0)
(0.00463617 -0.00118403 0)
(0.00460007 -0.00125301 0)
(0.00456196 -0.00132222 0)
(0.00452186 -0.00139131 0)
(0.00447979 -0.00145993 0)
(0.00443581 -0.00152767 0)
(0.00439 -0.00159413 0)
(0.00434244 -0.00165887 0)
(0.00429326 -0.00172148 0)
(0.00424259 -0.00178153 0)
(0.00419057 -0.00183864 0)
(0.00413736 -0.00189244 0)
(0.00408313 -0.00194263 0)
(0.00402807 -0.00198894 0)
(0.00397234 -0.00203118 0)
(0.00391611 -0.00206921 0)
(0.00385955 -0.00210294 0)
(0.00380282 -0.00213237 0)
(0.00374609 -0.00215753 0)
(0.00368949 -0.0021785 0)
(0.00363316 -0.00219545 0)
(0.00357721 -0.00220856 0)
(0.00352171 -0.00221804 0)
(0.00346674 -0.00222408 0)
(0.00341232 -0.00222688 0)
(0.00335852 -0.00222664 0)
(0.00330534 -0.00222353 0)
(0.00325283 -0.00221773 0)
(0.00320101 -0.0022094 0)
(0.00314989 -0.00219867 0)
(0.00309951 -0.0021857 0)
(0.00304988 -0.00217063 0)
(0.00300102 -0.0021536 0)
(0.00295293 -0.00213474 0)
(0.00290562 -0.00211418 0)
(0.00285908 -0.00209203 0)
(0.00281332 -0.00206839 0)
(0.00276833 -0.00204336 0)
(0.00272412 -0.00201703 0)
(0.00268069 -0.00198948 0)
(0.00263804 -0.00196079 0)
(0.00259618 -0.00193103 0)
(0.00255511 -0.00190029 0)
(0.00251484 -0.00186861 0)
(0.00247537 -0.00183609 0)
(0.00243671 -0.00180278 0)
(0.00239887 -0.00176876 0)
(0.00236187 -0.00173408 0)
(0.0023257 -0.00169883 0)
(0.00229039 -0.00166307 0)
(0.00225593 -0.00162687 0)
(0.00222236 -0.00159031 0)
(0.00218966 -0.00155346 0)
(0.00215787 -0.00151641 0)
(0.00212699 -0.00147923 0)
(0.00209703 -0.00144201 0)
(0.002068 -0.00140484 0)
(0.00203993 -0.00136781 0)
(0.00201281 -0.00133103 0)
(0.00198667 -0.00129458 0)
(0.00196152 -0.00125858 0)
(0.00193737 -0.00122315 0)
(0.00191422 -0.0011884 0)
(0.0018921 -0.00115445 0)
(0.001871 -0.00112145 0)
(0.00185095 -0.00108953 0)
(0.00183194 -0.00105885 0)
(0.00181398 -0.00102956 0)
(0.00179707 -0.00100184 0)
(0.00178121 -0.000975883 0)
(0.00176638 -0.00095188 0)
(0.00175258 -0.000930051 0)
(0.00173975 -0.000910626 0)
(0.00172786 -0.000893853 0)
(0.00171686 -0.000879985 0)
(0.00170649 -0.000869273 0)
(0.00169604 -0.000861986 0)
(0.00168512 -0.000858251 0)
(0.00499993 -1.66189e-05 0)
(0.0049985 -5.16576e-05 0)
(0.00499566 -8.83835e-05 0)
(0.00499137 -0.000126597 0)
(0.00498575 -0.000166252 0)
(0.00497886 -0.000207356 0)
(0.0049707 -0.000249941 0)
(0.00496129 -0.000294054 0)
(0.00495061 -0.000339745 0)
(0.00493861 -0.000387064 0)
(0.00492528 -0.000436051 0)
(0.00491055 -0.000486737 0)
(0.00489436 -0.000539144 0)
(0.00487667 -0.000593274 0)
(0.00485741 -0.000649118 0)
(0.00483651 -0.000706644 0)
(0.00481392 -0.000765803 0)
(0.00478958 -0.00082652 0)
(0.00476343 -0.000888698 0)
(0.00473541 -0.000952212 0)
(0.00470549 -0.00101691 0)
(0.00467363 -0.00108259 0)
(0.0046398 -0.00114905 0)
(0.00460399 -0.00121603 0)
(0.00456619 -0.00128325 0)
(0.00452643 -0.00135038 0)
(0.00448474 -0.00141708 0)
(0.00444117 -0.00148296 0)
(0.00439579 -0.00154764 0)
(0.00434869 -0.00161071 0)
(0.00429998 -0.00167177 0)
(0.00424979 -0.0017304 0)
(0.00419826 -0.00178624 0)
(0.00414554 -0.00183894 0)
(0.00409179 -0.00188819 0)
(0.00403719 -0.00193374 0)
(0.0039819 -0.00197538 0)
(0.00392608 -0.00201299 0)
(0.00386991 -0.00204646 0)
(0.00381355 -0.00207578 0)
(0.00375713 -0.00210098 0)
(0.00370081 -0.00212214 0)
(0.00364472 -0.00213939 0)
(0.00358895 -0.0021529 0)
(0.00353359 -0.00216284 0)
(0.00347871 -0.0021694 0)
(0.00342436 -0.00217278 0)
(0.00337058 -0.00217314 0)
(0.00331741 -0.00217067 0)
(0.00326487 -0.00216553 0)
(0.003213 -0.00215788 0)
(0.00316182 -0.00214787 0)
(0.00311134 -0.00213563 0)
(0.0030616 -0.00212131 0)
(0.00301261 -0.00210504 0)
(0.00296438 -0.00208695 0)
(0.00291692 -0.00206716 0)
(0.00287022 -0.00204578 0)
(0.0028243 -0.00202292 0)
(0.00277915 -0.00199867 0)
(0.00273478 -0.00197312 0)
(0.00269119 -0.00194635 0)
(0.00264839 -0.00191845 0)
(0.00260638 -0.00188948 0)
(0.00256516 -0.00185953 0)
(0.00252475 -0.00182866 0)
(0.00248515 -0.00179695 0)
(0.00244636 -0.00176446 0)
(0.0024084 -0.00173126 0)
(0.00237128 -0.00169743 0)
(0.002335 -0.00166302 0)
(0.00229957 -0.00162812 0)
(0.00226502 -0.00159279 0)
(0.00223134 -0.00155711 0)
(0.00219855 -0.00152116 0)
(0.00216666 -0.00148501 0)
(0.00213568 -0.00144875 0)
(0.00210563 -0.00141246 0)
(0.00207652 -0.00137624 0)
(0.00204835 -0.00134017 0)
(0.00202114 -0.00130435 0)
(0.0019949 -0.00126888 0)
(0.00196964 -0.00123387 0)
(0.00194538 -0.00119944 0)
(0.00192211 -0.0011657 0)
(0.00189984 -0.00113277 0)
(0.0018786 -0.00110079 0)
(0.00185837 -0.00106991 0)
(0.00183916 -0.00104026 0)
(0.00182096 -0.001012 0)
(0.00180379 -0.000985315 0)
(0.00178761 -0.000960373 0)
(0.00177241 -0.000937367 0)
(0.00175817 -0.000916502 0)
(0.00174483 -0.000897989 0)
(0.00173233 -0.00088205 0)
(0.00172063 -0.000868907 0)
(0.00170945 -0.000858764 0)
(0.00169795 -0.000851828 0)
(0.00168612 -0.000848026 0)
(0.00499994 -1.59298e-05 0)
(0.00499862 -4.95628e-05 0)
(0.00499596 -8.48996e-05 0)
(0.0049919 -0.000121767 0)
(0.00498651 -0.000160116 0)
(0.00497984 -0.000199939 0)
(0.0049719 -0.000241253 0)
(0.00496268 -0.000284089 0)
(0.00495216 -0.000328481 0)
(0.00494032 -0.000374466 0)
(0.00492713 -0.000422077 0)
(0.00491253 -0.000471338 0)
(0.00489648 -0.000522263 0)
(0.00487892 -0.000574855 0)
(0.00485979 -0.0006291 0)
(0.00483904 -0.000684968 0)
(0.00481661 -0.000742409 0)
(0.00479243 -0.000801353 0)
(0.00476647 -0.000861705 0)
(0.00473867 -0.000923345 0)
(0.00470898 -0.000986127 0)
(0.00467738 -0.00104987 0)
(0.00464384 -0.00111437 0)
(0.00460834 -0.00117939 0)
(0.0045709 -0.00124465 0)
(0.00453152 -0.00130984 0)
(0.00449024 -0.00137465 0)
(0.00444711 -0.0014387 0)
(0.0044022 -0.00150163 0)
(0.00435559 -0.00156305 0)
(0.00430739 -0.00162256 0)
(0.00425772 -0.00167979 0)
(0.00420671 -0.00173437 0)
(0.00415452 -0.00178595 0)
(0.00410128 -0.00183426 0)
(0.00404718 -0.00187902 0)
(0.00399237 -0.00192005 0)
(0.003937 -0.0019572 0)
(0.00388126 -0.00199039 0)
(0.00382528 -0.00201957 0)
(0.00376921 -0.00204477 0)
(0.0037132 -0.00206607 0)
(0.00365736 -0.00208357 0)
(0.00360179 -0.00209742 0)
(0.00354659 -0.00210778 0)
(0.00349183 -0.00211483 0)
(0.00343755 -0.00211873 0)
(0.00338381 -0.00211967 0)
(0.00333065 -0.00211781 0)
(0.0032781 -0.00211331 0)
(0.00322619 -0.00210632 0)
(0.00317494 -0.002097 0)
(0.00312438 -0.00208547 0)
(0.00307454 -0.00207188 0)
(0.00302543 -0.00205636 0)
(0.00297707 -0.00203902 0)
(0.00292946 -0.00202 0)
(0.00288261 -0.00199939 0)
(0.00283653 -0.0019773 0)
(0.00279122 -0.00195383 0)
(0.00274669 -0.00192906 0)
(0.00270294 -0.00190307 0)
(0.00265998 -0.00187596 0)
(0.00261781 -0.00184779 0)
(0.00257645 -0.00181864 0)
(0.00253589 -0.00178858 0)
(0.00249614 -0.00175769 0)
(0.00245722 -0.00172602 0)
(0.00241912 -0.00169366 0)
(0.00238187 -0.00166066 0)
(0.00234547 -0.00162711 0)
(0.00230993 -0.00159307 0)
(0.00227526 -0.00155862 0)
(0.00224147 -0.00152383 0)
(0.00220857 -0.00148877 0)
(0.00217657 -0.00145353 0)
(0.00214549 -0.00141819 0)
(0.00211534 -0.00138283 0)
(0.00208611 -0.00134754 0)
(0.00205784 -0.00131242 0)
(0.00203052 -0.00127757 0)
(0.00200417 -0.00124307 0)
(0.00197879 -0.00120905 0)
(0.00195439 -0.0011756 0)
(0.00193097 -0.00114286 0)
(0.00190855 -0.00111094 0)
(0.00188713 -0.00107996 0)
(0.0018667 -0.00105008 0)
(0.00184726 -0.00102144 0)
(0.00182881 -0.000994183 0)
(0.00181133 -0.000968482 0)
(0.00179481 -0.000944505 0)
(0.00177921 -0.000922436 0)
(0.0017645 -0.000902462 0)
(0.00175062 -0.00088478 0)
(0.00173751 -0.000869589 0)
(0.00172511 -0.00085708 0)
(0.00171317 -0.000847422 0)
(0.00170069 -0.00084077 0)
(0.00168808 -0.000837068 0)
(0.00499994 -1.52913e-05 0)
(0.00499871 -4.76022e-05 0)
(0.00499621 -8.16063e-05 0)
(0.00499234 -0.000117155 0)
(0.00498717 -0.000154204 0)
(0.00498072 -0.000192741 0)
(0.00497299 -0.000232772 0)
(0.00496397 -0.000274313 0)
(0.00495364 -0.000317391 0)
(0.00494198 -0.000362031 0)
(0.00492895 -0.000408257 0)
(0.00491452 -0.000456087 0)
(0.00489863 -0.000505531 0)
(0.00488123 -0.000556587 0)
(0.00486227 -0.00060924 0)
(0.00484169 -0.000663459 0)
(0.00481945 -0.000719196 0)
(0.00479548 -0.000776383 0)
(0.00476973 -0.000834929 0)
(0.00474217 -0.00089472 0)
(0.00471275 -0.000955616 0)
(0.00468144 -0.00101745 0)
(0.00464823 -0.00108002 0)
(0.00461309 -0.0011431 0)
(0.00457603 -0.00120643 0)
(0.00453706 -0.00126972 0)
(0.00449623 -0.00133267 0)
(0.00445357 -0.00139492 0)
(0.00440916 -0.00145612 0)
(0.00436307 -0.0015159 0)
(0.0043154 -0.00157389 0)
(0.00426628 -0.00162972 0)
(0.00421582 -0.00168303 0)
(0.00416417 -0.00173351 0)
(0.00411148 -0.00178085 0)
(0.0040579 -0.00182482 0)
(0.00400359 -0.00186521 0)
(0.00394871 -0.00190188 0)
(0.00389341 -0.00193473 0)
(0.00383784 -0.00196374 0)
(0.00378214 -0.0019889 0)
(0.00372645 -0.00201029 0)
(0.00367089 -0.00202799 0)
(0.00361555 -0.00204214 0)
(0.00356053 -0.00205287 0)
(0.0035059 -0.00206036 0)
(0.00345171 -0.00206476 0)
(0.00339803 -0.00206624 0)
(0.0033449 -0.00206495 0)
(0.00329234 -0.00206106 0)
(0.0032404 -0.00205472 0)
(0.00318911 -0.00204606 0)
(0.00313848 -0.00203523 0)
(0.00308855 -0.00202235 0)
(0.00303933 -0.00200756 0)
(0.00299084 -0.00199097 0)
(0.00294309 -0.0019727 0)
(0.0028961 -0.00195285 0)
(0.00284986 -0.00193153 0)
(0.0028044 -0.00190883 0)
(0.00275971 -0.00188484 0)
(0.0027158 -0.00185964 0)
(0.00267268 -0.00183332 0)
(0.00263035 -0.00180595 0)
(0.00258883 -0.0017776 0)
(0.00254812 -0.00174836 0)
(0.00250823 -0.00171828 0)
(0.00246916 -0.00168744 0)
(0.00243093 -0.00165592 0)
(0.00239354 -0.00162377 0)
(0.00235701 -0.00159108 0)
(0.00232134 -0.00155791 0)
(0.00228654 -0.00152433 0)
(0.00225263 -0.00149042 0)
(0.00221962 -0.00145627 0)
(0.0021875 -0.00142194 0)
(0.00215631 -0.00138751 0)
(0.00212604 -0.00135309 0)
(0.0020967 -0.00131874 0)
(0.0020683 -0.00128457 0)
(0.00204086 -0.00125067 0)
(0.00201437 -0.00121714 0)
(0.00198885 -0.00118409 0)
(0.0019643 -0.00115162 0)
(0.00194073 -0.00111986 0)
(0.00191813 -0.00108892 0)
(0.00189651 -0.00105894 0)
(0.00187585 -0.00103004 0)
(0.00185617 -0.00100237 0)
(0.00183743 -0.000976072 0)
(0.00181963 -0.000951313 0)
(0.00180274 -0.000928252 0)
(0.00178672 -0.000907061 0)
(0.00177153 -0.000887915 0)
(0.00175711 -0.000870993 0)
(0.00174339 -0.000856476 0)
(0.00173032 -0.000844531 0)
(0.00171766 -0.000835299 0)
(0.00170429 -0.000828897 0)
(0.00169099 -0.000825419 0)
(0.00499995 -1.46919e-05 0)
(0.00499878 -4.57507e-05 0)
(0.0049964 -7.8475e-05 0)
(0.00499271 -0.000112739 0)
(0.00498774 -0.000148504 0)
(0.0049815 -0.000185758 0)
(0.00497398 -0.0002245 0)
(0.00496516 -0.00026474 0)
(0.00495504 -0.000306494 0)
(0.00494357 -0.00034978 0)
(0.00493074 -0.000394615 0)
(0.00491649 -0.000441011 0)
(0.00490078 -0.000488973 0)
(0.00488357 -0.000538497 0)
(0.00486481 -0.000589565 0)
(0.00484444 -0.000642147 0)
(0.00482241 -0.000696194 0)
(0.00479867 -0.000751641 0)
(0.00477318 -0.000808401 0)
(0.00474589 -0.000866366 0)
(0.00471677 -0.000925401 0)
(0.00468578 -0.000985346 0)
(0.00465292 -0.00104601 0)
(0.00461816 -0.00110719 0)
(0.00458151 -0.00116862 0)
(0.00454299 -0.00123005 0)
(0.00450262 -0.00129116 0)
(0.00446046 -0.00135163 0)
(0.00441657 -0.00141113 0)
(0.00437102 -0.0014693 0)
(0.00432391 -0.00152577 0)
(0.00427535 -0.00158021 0)
(0.00422547 -0.00163226 0)
(0.00417439 -0.00168162 0)
(0.00412226 -0.00172799 0)
(0.00406922 -0.00177114 0)
(0.00401544 -0.00181086 0)
(0.00396105 -0.00184702 0)
(0.00390622 -0.00187952 0)
(0.00385108 -0.0019083 0)
(0.00379577 -0.00193339 0)
(0.00374042 -0.00195482 0)
(0.00368515 -0.00197267 0)
(0.00363006 -0.00198706 0)
(0.00357524 -0.00199813 0)
(0.00352076 -0.00200601 0)
(0.00346669 -0.00201087 0)
(0.00341309 -0.00201285 0)
(0.00335999 -0.00201212 0)
(0.00330745 -0.00200881 0)
(0.0032555 -0.00200309 0)
(0.00320417 -0.00199507 0)
(0.00315348 -0.00198491 0)
(0.00310347 -0.00197273 0)
(0.00305415 -0.00195865 0)
(0.00300555 -0.00194279 0)
(0.00295768 -0.00192526 0)
(0.00291054 -0.00190616 0)
(0.00286417 -0.0018856 0)
(0.00281855 -0.00186367 0)
(0.0027737 -0.00184046 0)
(0.00272964 -0.00181605 0)
(0.00268636 -0.00179052 0)
(0.00264388 -0.00176395 0)
(0.0026022 -0.00173641 0)
(0.00256134 -0.00170798 0)
(0.00252129 -0.00167873 0)
(0.00248208 -0.00164872 0)
(0.0024437 -0.00161804 0)
(0.00240617 -0.00158674 0)
(0.0023695 -0.00155491 0)
(0.0023337 -0.00152261 0)
(0.00229878 -0.00148991 0)
(0.00226474 -0.0014569 0)
(0.00223159 -0.00142364 0)
(0.00219936 -0.00139022 0)
(0.00216803 -0.00135672 0)
(0.00213764 -0.00132322 0)
(0.00210817 -0.00128981 0)
(0.00207964 -0.00125659 0)
(0.00205206 -0.00122364 0)
(0.00202543 -0.00119107 0)
(0.00199976 -0.00115898 0)
(0.00197504 -0.00112748 0)
(0.00195129 -0.00109669 0)
(0.0019285 -0.00106671 0)
(0.00190666 -0.00103769 0)
(0.00188577 -0.00100974 0)
(0.00186581 -0.000983016 0)
(0.00184677 -0.000957647 0)
(0.00182863 -0.000933789 0)
(0.00181136 -0.000911597 0)
(0.00179491 -0.000891231 0)
(0.00177924 -0.000872855 0)
(0.00176428 -0.000856634 0)
(0.00174997 -0.000842731 0)
(0.00173627 -0.000831296 0)
(0.00172292 -0.00082246 0)
(0.00170877 -0.000816341 0)
(0.00169475 -0.00081315 0)
(0.00499995 -1.41238e-05 0)
(0.00499884 -4.39897e-05 0)
(0.00499657 -7.54829e-05 0)
(0.00499302 -0.000108496 0)
(0.00498823 -0.000143 0)
(0.00498219 -0.000178981 0)
(0.00497488 -0.000216438 0)
(0.00496627 -0.000255374 0)
(0.00495636 -0.000295801 0)
(0.0049451 -0.00033773 0)
(0.00493247 -0.000381171 0)
(0.00491843 -0.000426133 0)
(0.00490293 -0.000472616 0)
(0.00488593 -0.000520612 0)
(0.00486739 -0.000570104 0)
(0.00484725 -0.000621058 0)
(0.00482546 -0.00067343 0)
(0.00480198 -0.000727155 0)
(0.00477677 -0.000782149 0)
(0.00474978 -0.00083831 0)
(0.00472098 -0.00089551 0)
(0.00469035 -0.000953596 0)
(0.00465786 -0.00101239 0)
(0.00462351 -0.00107169 0)
(0.0045873 -0.00113126 0)
(0.00454924 -0.00119084 0)
(0.00450937 -0.00125014 0)
(0.00446772 -0.00130886 0)
(0.00442437 -0.00136668 0)
(0.00437938 -0.00142325 0)
(0.00433284 -0.00147823 0)
(0.00428487 -0.00153128 0)
(0.00423557 -0.00158207 0)
(0.00418507 -0.0016303 0)
(0.00413351 -0.00167569 0)
(0.00408103 -0.001718 0)
(0.00402779 -0.00175704 0)
(0.00397391 -0.00179266 0)
(0.00391956 -0.00182476 0)
(0.00386486 -0.00185329 0)
(0.00380996 -0.00187825 0)
(0.00375497 -0.00189967 0)
(0.00370001 -0.00191763 0)
(0.00364518 -0.00193222 0)
(0.00359058 -0.00194357 0)
(0.00353627 -0.00195181 0)
(0.00348234 -0.00195708 0)
(0.00342883 -0.00195954 0)
(0.0033758 -0.00195932 0)
(0.00332329 -0.00195657 0)
(0.00327134 -0.00195143 0)
(0.00321998 -0.00194404 0)
(0.00316925 -0.00193453 0)
(0.00311918 -0.00192303 0)
(0.00306978 -0.00190964 0)
(0.00302107 -0.00189449 0)
(0.00297308 -0.00187769 0)
(0.00292582 -0.00185934 0)
(0.00287931 -0.00183953 0)
(0.00283355 -0.00181837 0)
(0.00278856 -0.00179593 0)
(0.00274434 -0.0017723 0)
(0.00270091 -0.00174756 0)
(0.00265827 -0.00172179 0)
(0.00261644 -0.00169506 0)
(0.00257542 -0.00166745 0)
(0.00253523 -0.00163902 0)
(0.00249586 -0.00160985 0)
(0.00245734 -0.00158001 0)
(0.00241967 -0.00154957 0)
(0.00238286 -0.00151861 0)
(0.00234692 -0.00148718 0)
(0.00231186 -0.00145536 0)
(0.00227768 -0.00142324 0)
(0.00224441 -0.00139089 0)
(0.00221203 -0.00135838 0)
(0.00218058 -0.00132579 0)
(0.00215004 -0.00129322 0)
(0.00212044 -0.00126075 0)
(0.00209177 -0.00122846 0)
(0.00206404 -0.00119646 0)
(0.00203725 -0.00116484 0)
(0.00201141 -0.0011337 0)