/*--------------------------------*- C++ -*----------------------------------*\
  =========                 |
  \\      /  F ield         | OpenFOAM: The Open Source CFD Toolbox
   \\    /   O peration     | Website:  https://openfoam.org
    \\  /    A nd           | Version:  11
     \\/     M anipulation  |
\*---------------------------------------------------------------------------*/
FoamFile
{
    format      ascii;
    class       volScalarField;
    location    "932";
    object      p;
}
// * * * * * * * * * * * * * * * * * * * * * * * * * * * * * * * * * * * * * //

dimensions      [0 2 -2 0 0 0 0];

internalField   nonuniform List<scalar> 
10000
(
4.54887e-11
4.37776e-11
4.51604e-11
4.86655e-11
5.28158e-11
5.72841e-11
6.20319e-11
6.70456e-11
7.23228e-11
7.78738e-11
8.37164e-11
8.98714e-11
9.63613e-11
1.0321e-10
1.10441e-10
1.18081e-10
1.26155e-10
1.3469e-10
1.43714e-10
1.53256e-10
1.63344e-10
1.7401e-10
1.85285e-10
1.97201e-10
2.09793e-10
2.23094e-10
2.37141e-10
2.51972e-10
2.67623e-10
2.84135e-10
3.01547e-10
3.19901e-10
3.3924e-10
3.59607e-10
3.81048e-10
4.03606e-10
4.27329e-10
4.52264e-10
4.78459e-10
5.05962e-10
5.34822e-10
5.65088e-10
5.96809e-10
6.30035e-10
6.64814e-10
7.01194e-10
7.39223e-10
7.78948e-10
8.20411e-10
8.63658e-10
9.08727e-10
9.55657e-10
1.00448e-09
1.05523e-09
1.10793e-09
1.1626e-09
1.21925e-09
1.27789e-09
1.33852e-09
1.40113e-09
1.4657e-09
1.53218e-09
1.60054e-09
1.67071e-09
1.74261e-09
1.81614e-09
1.89118e-09
1.96759e-09
2.04519e-09
2.12377e-09
2.2031e-09
2.2829e-09
2.36285e-09
2.44258e-09
2.52166e-09
2.59962e-09
2.67589e-09
2.74984e-09
2.82077e-09
2.88784e-09
2.95015e-09
3.00665e-09
3.05614e-09
3.0973e-09
3.1286e-09
3.14833e-09
3.15454e-09
3.14504e-09
3.1173e-09
3.06847e-09
2.99528e-09
2.89392e-09
2.75992e-09
2.5879e-09
2.37118e-09
2.10174e-09
1.76793e-09
1.33967e-09
7.69893e-10
6.18844e-11
8.24596e-11
7.64335e-11
7.28747e-11
7.39068e-11
7.69483e-11
8.1014e-11
8.58238e-11
9.12302e-11
9.7143e-11
1.03519e-10
1.10343e-10
1.17616e-10
1.25346e-10
1.33549e-10
1.42245e-10
1.51456e-10
1.61209e-10
1.71529e-10
1.82447e-10
1.93994e-10
2.06201e-10
2.19103e-10
2.32735e-10
2.47135e-10
2.62339e-10
2.78387e-10
2.95321e-10
3.13182e-10
3.32014e-10
3.51861e-10
3.72769e-10
3.94785e-10
4.17958e-10
4.42336e-10
4.6797e-10
4.94911e-10
5.2321e-10
5.5292e-10
5.84094e-10
6.16785e-10
6.51048e-10
6.86935e-10
7.24501e-10
7.63797e-10
8.04876e-10
8.47789e-10
8.92585e-10
9.39312e-10
9.88015e-10
1.03874e-09
1.09151e-09
1.14638e-09
1.20338e-09
1.26252e-09
1.32382e-09
1.3873e-09
1.45296e-09
1.52079e-09
1.59077e-09
1.66287e-09
1.73706e-09
1.81327e-09
1.89142e-09
1.97141e-09
2.05314e-09
2.13645e-09
2.22118e-09
2.30713e-09
2.39405e-09
2.48168e-09
2.56969e-09
2.65772e-09
2.74535e-09
2.83211e-09
2.91744e-09
3.00071e-09
3.08123e-09
3.15819e-09
3.23069e-09
3.29768e-09
3.35802e-09
3.4104e-09
3.45333e-09
3.48514e-09
3.50394e-09
3.5076e-09
3.49371e-09
3.45953e-09
3.40194e-09
3.31739e-09
3.20179e-09
3.05039e-09
2.85761e-09
2.61665e-09
2.31932e-09
1.95709e-09
1.51866e-09
9.56918e-10
1.6981e-10
-5.39875e-10
9.71716e-11
8.93288e-11
8.27629e-11
8.07911e-11
8.12596e-11
8.31159e-11
8.59951e-11
8.96754e-11
9.40049e-11
9.8892e-11
1.04285e-10
1.10154e-10
1.16486e-10
1.23279e-10
1.30536e-10
1.38267e-10
1.46485e-10
1.55209e-10
1.64456e-10
1.74249e-10
1.84613e-10
1.95571e-10
2.07151e-10
2.19381e-10
2.32292e-10
2.45913e-10
2.60277e-10
2.75417e-10
2.91367e-10
3.08163e-10
3.2584e-10
3.44434e-10
3.63985e-10
3.8453e-10
4.06108e-10
4.28758e-10
4.52521e-10
4.77437e-10
5.03546e-10
5.30889e-10
5.59505e-10
5.89434e-10
6.20715e-10
6.53387e-10
6.87487e-10
7.2305e-10
7.6011e-10
7.98699e-10
8.38846e-10
8.80576e-10
9.23913e-10
9.68874e-10
1.01547e-09
1.06372e-09
1.11361e-09
1.16514e-09
1.21831e-09
1.27308e-09
1.32942e-09
1.38729e-09
1.44662e-09
1.50736e-09
1.56941e-09
1.63266e-09
1.69699e-09
1.76225e-09
1.82826e-09
1.89482e-09
1.96169e-09
2.02861e-09
2.09527e-09
2.16131e-09
2.22634e-09
2.28989e-09
2.35147e-09
2.41047e-09
2.46625e-09
2.51807e-09
2.56508e-09
2.60636e-09
2.64084e-09
2.66733e-09
2.68451e-09
2.69086e-09
2.6847e-09
2.66412e-09
2.62698e-09
2.57084e-09
2.49297e-09
2.39023e-09
2.25903e-09
2.09527e-09
1.8941e-09
1.64973e-09
1.3555e-09
1.00599e-09
5.93539e-10
6.10046e-11
-7.0675e-10
-1.13591e-09
1.0886e-10
1.00754e-10
9.35947e-11
9.0462e-11
8.96739e-11
9.03688e-11
9.2214e-11
9.49799e-11
9.84971e-11
1.02654e-10
1.0738e-10
1.12629e-10
1.18376e-10
1.24605e-10
1.3131e-10
1.38493e-10
1.4616e-10
1.54323e-10
1.62995e-10
1.72193e-10
1.81935e-10
1.92244e-10
2.03142e-10
2.14652e-10
2.268e-10
2.39614e-10
2.53121e-10
2.6735e-10
2.82331e-10
2.98094e-10
3.14672e-10
3.32096e-10
3.50398e-10
3.69614e-10
3.89775e-10
4.10916e-10
4.33072e-10
4.56275e-10
4.80562e-10
5.05964e-10
5.32515e-10
5.60249e-10
5.89196e-10
6.19386e-10
6.5085e-10
6.83614e-10
7.17703e-10
7.5314e-10
7.89944e-10
8.28132e-10
8.67714e-10
9.087e-10
9.51092e-10
9.94886e-10
1.04007e-09
1.08663e-09
1.13454e-09
1.18376e-09
1.23425e-09
1.28595e-09
1.33878e-09
1.39267e-09
1.4475e-09
1.50317e-09
1.55952e-09
1.61639e-09
1.67359e-09
1.73091e-09
1.78809e-09
1.84486e-09
1.90088e-09
1.9558e-09
2.00919e-09
2.06061e-09
2.1095e-09
2.1553e-09
2.19733e-09
2.23485e-09
2.26703e-09
2.29292e-09
2.31148e-09
2.32154e-09
2.32177e-09
2.31072e-09
2.28674e-09
2.24797e-09
2.19235e-09
2.11755e-09
2.02095e-09
1.8996e-09
1.75014e-09
1.56877e-09
1.35113e-09
1.09204e-09
7.85916e-10
4.29397e-10
1.68506e-11
-5.14839e-10
-1.27135e-09
-1.58308e-09
1.18046e-10
1.10116e-10
1.03118e-10
9.95734e-11
9.81454e-11
9.81734e-11
9.93846e-11
1.0157e-10
1.04566e-10
1.08257e-10
1.12565e-10
1.17437e-10
1.22837e-10
1.28744e-10
1.35146e-10
1.42038e-10
1.49422e-10
1.57303e-10
1.65692e-10
1.74601e-10
1.84048e-10
1.94048e-10
2.04622e-10
2.15791e-10
2.27578e-10
2.40007e-10
2.53103e-10
2.66891e-10
2.81399e-10
2.96655e-10
3.12687e-10
3.29523e-10
3.47194e-10
3.65728e-10
3.85156e-10
4.05508e-10
4.26814e-10
4.49104e-10
4.72406e-10
4.96751e-10
5.22166e-10
5.48679e-10
5.76315e-10
6.05099e-10
6.35054e-10
6.66201e-10
6.98557e-10
7.32138e-10
7.66956e-10
8.0302e-10
8.40332e-10
8.78892e-10
9.18693e-10
9.59722e-10
1.00196e-09
1.04538e-09
1.08994e-09
1.13559e-09
1.18229e-09
1.22995e-09
1.27849e-09
1.32782e-09
1.37781e-09
1.42834e-09
1.47924e-09
1.53034e-09
1.58142e-09
1.63227e-09
1.6826e-09
1.73212e-09
1.78048e-09
1.82732e-09
1.87218e-09
1.9146e-09
1.95403e-09
1.98986e-09
2.0214e-09
2.04792e-09
2.06854e-09
2.08234e-09
2.08825e-09
2.0851e-09
2.07158e-09
2.04624e-09
2.00743e-09
1.95336e-09
1.882e-09
1.79111e-09
1.67816e-09
1.54036e-09
1.37457e-09
1.1773e-09
9.44603e-10
6.71937e-10
3.54691e-10
-8.69769e-12
-4.21829e-10
-9.52305e-10
-1.70291e-09
-1.93884e-09
1.24857e-10
1.17266e-10
1.10552e-10
1.06837e-10
1.05011e-10
1.04561e-10
1.05273e-10
1.06968e-10
1.09496e-10
1.12749e-10
1.16645e-10
1.21129e-10
1.26161e-10
1.31714e-10
1.3777e-10
1.44322e-10
1.51366e-10
1.58905e-10
1.66944e-10
1.75494e-10
1.84567e-10
1.94177e-10
2.04341e-10
2.15078e-10
2.26406e-10
2.38348e-10
2.50925e-10
2.64161e-10
2.78078e-10
2.92702e-10
3.08058e-10
3.24171e-10
3.41066e-10
3.58771e-10
3.77311e-10
3.96711e-10
4.16999e-10
4.38198e-10
4.60334e-10
4.83432e-10
5.07513e-10
5.326e-10
5.58713e-10
5.85871e-10
6.1409e-10
6.43385e-10
6.73766e-10
7.05243e-10
7.37819e-10
7.71496e-10
8.06268e-10
8.42127e-10
8.79057e-10
9.17035e-10
9.56033e-10
9.96013e-10
1.03693e-09
1.07872e-09
1.12132e-09
1.16464e-09
1.2086e-09
1.25307e-09
1.29794e-09
1.34304e-09
1.38823e-09
1.43329e-09
1.47802e-09
1.52216e-09
1.56544e-09
1.60754e-09
1.64811e-09
1.68676e-09
1.72305e-09
1.75647e-09
1.78649e-09
1.81248e-09
1.83376e-09
1.84957e-09
1.85907e-09
1.86131e-09
1.85525e-09
1.83973e-09
1.81347e-09
1.77505e-09
1.72289e-09
1.65525e-09
1.5702e-09
1.46562e-09
1.33916e-09
1.18821e-09
1.00995e-09
8.01252e-10
5.58712e-10
2.78451e-10
-4.31574e-11
-4.05788e-10
-8.10716e-10
-1.33275e-09
-2.09688e-09
-2.22967e-09
1.29923e-10
1.22714e-10
1.16326e-10
1.12584e-10
1.10524e-10
1.0974e-10
1.10065e-10
1.11353e-10
1.13473e-10
1.16324e-10
1.19829e-10
1.23933e-10
1.28593e-10
1.3378e-10
1.39472e-10
1.45659e-10
1.52334e-10
1.59495e-10
1.67147e-10
1.75294e-10
1.83948e-10
1.93119e-10
2.02821e-10
2.1307e-10
2.23882e-10
2.35276e-10
2.4727e-10
2.59886e-10
2.73142e-10
2.87062e-10
3.01666e-10
3.16977e-10
3.33016e-10
3.49806e-10
3.6737e-10
3.85729e-10
4.04904e-10
4.24917e-10
4.45788e-10
4.67536e-10
4.90179e-10
5.13733e-10
5.38214e-10
5.63634e-10
5.90003e-10
6.17331e-10
6.45621e-10
6.74875e-10
7.0509e-10
7.3626e-10
7.68373e-10
8.01412e-10
8.35352e-10
8.70164e-10
9.05809e-10
9.4224e-10
9.79401e-10
1.01723e-09
1.05563e-09
1.09454e-09
1.13383e-09
1.17338e-09
1.21306e-09
1.25272e-09
1.29216e-09
1.33119e-09
1.36957e-09
1.40706e-09
1.44336e-09
1.47816e-09
1.51108e-09
1.54174e-09
1.56967e-09
1.59439e-09
1.61535e-09
1.63191e-09
1.64342e-09
1.64911e-09
1.64814e-09
1.6396e-09
1.62246e-09
1.59561e-09
1.55779e-09
1.50765e-09
1.44368e-09
1.36424e-09
1.26751e-09
1.15152e-09
1.01411e-09
8.52947e-10
6.65498e-10
4.49085e-10
2.00827e-10
-8.24839e-11
-4.03571e-10
-7.60267e-10
-1.15145e-09
-1.66121e-09
-2.45423e-09
-2.47347e-09
1.33701e-10
1.26871e-10
1.20824e-10
1.1715e-10
1.14979e-10
1.13975e-10
1.14014e-10
1.14976e-10
1.16751e-10
1.19249e-10
1.224e-10
1.26149e-10
1.30453e-10
1.35282e-10
1.40614e-10
1.46435e-10
1.52735e-10
1.59511e-10
1.66763e-10
1.74496e-10
1.82715e-10
1.9143e-10
2.00653e-10
2.10395e-10
2.20671e-10
2.31496e-10
2.42886e-10
2.5486e-10
2.67433e-10
2.80625e-10
2.94454e-10
3.08939e-10
3.24099e-10
3.39952e-10
3.56516e-10
3.7381e-10
3.91852e-10
4.10657e-10
4.30242e-10
4.50621e-10
4.71808e-10
4.93813e-10
5.16647e-10
5.40317e-10
5.64828e-10
5.90182e-10
6.16377e-10
6.4341e-10
6.71269e-10
6.99943e-10
7.29413e-10
7.59652e-10
7.90632e-10
8.22313e-10
8.54649e-10
8.87585e-10
9.21058e-10
9.54992e-10
9.89299e-10
1.02388e-09
1.05862e-09
1.09339e-09
1.12804e-09
1.16241e-09
1.1963e-09
1.22951e-09
1.2618e-09
1.29291e-09
1.32254e-09
1.35037e-09
1.37603e-09
1.39911e-09
1.41916e-09
1.4357e-09
1.44817e-09
1.45595e-09
1.45839e-09
1.45473e-09
1.44417e-09
1.4258e-09
1.39864e-09
1.36161e-09
1.31353e-09
1.25308e-09
1.17887e-09
1.08934e-09
9.82814e-10
8.57487e-10
7.11407e-10
5.42493e-10
3.48552e-10
1.27314e-10
-1.2358e-10
-4.06721e-10
-7.2402e-10
-1.07162e-09
-1.4459e-09
-1.93916e-09
-2.75748e-09
-2.67707e-09
1.3645e-10
1.29962e-10
1.24254e-10
1.20707e-10
1.18505e-10
1.17367e-10
1.17196e-10
1.179e-10
1.19386e-10
1.21574e-10
1.24403e-10
1.2782e-10
1.31785e-10
1.36268e-10
1.41245e-10
1.467e-10
1.52622e-10
1.59007e-10
1.65853e-10
1.7316e-10
1.80934e-10
1.8918e-10
1.97908e-10
2.07128e-10
2.16852e-10
2.27091e-10
2.37861e-10
2.49174e-10
2.61046e-10
2.73492e-10
2.86528e-10
3.00169e-10
3.14431e-10
3.29328e-10
3.44876e-10
3.6109e-10
3.77982e-10
3.95565e-10
4.1385e-10
4.32849e-10
4.52569e-10
4.73018e-10
4.94199e-10
5.16116e-10
5.38768e-10
5.62151e-10
5.86259e-10
6.1108e-10
6.366e-10
6.62799e-10
6.89651e-10
7.17126e-10
7.45185e-10
7.73783e-10
8.02867e-10
8.32376e-10
8.62237e-10
8.92368e-10
9.22675e-10
9.5305e-10
9.83371e-10
1.0135e-09
1.04329e-09
1.07255e-09
1.10111e-09
1.12873e-09
1.15519e-09
1.1802e-09
1.20348e-09
1.22469e-09
1.24347e-09
1.25941e-09
1.27206e-09
1.28094e-09
1.2855e-09
1.28513e-09
1.2792e-09
1.26697e-09
1.24765e-09
1.22038e-09
1.18422e-09
1.13813e-09
1.08099e-09
1.01157e-09
9.28557e-10
8.30515e-10
7.15909e-10
5.83097e-10
4.30337e-10
2.55803e-10
5.76153e-11
-1.66111e-10
-4.1726e-10
-6.97864e-10
-1.00912e-09
-1.34564e-09
-1.7011e-09
-2.17203e-09
-2.99797e-09
-2.8457e-09
1.38364e-10
1.32112e-10
1.26748e-10
1.23375e-10
1.21199e-10
1.19985e-10
1.19664e-10
1.20162e-10
1.21402e-10
1.23318e-10
1.25853e-10
1.2896e-10
1.326e-10
1.36745e-10
1.41371e-10
1.46462e-10
1.52005e-10
1.57994e-10
1.64425e-10
1.71298e-10
1.78615e-10
1.86381e-10
1.94601e-10
2.03285e-10
2.1244e-10
2.22078e-10
2.32209e-10
2.42846e-10
2.53999e-10
2.65682e-10
2.77907e-10
2.90687e-10
3.04034e-10
3.17959e-10
3.32475e-10
3.47592e-10
3.6332e-10
3.79667e-10
3.96641e-10
4.14249e-10
4.32494e-10
4.51378e-10
4.70903e-10
4.91064e-10
5.11858e-10
5.33275e-10
5.55303e-10
5.77926e-10
6.01123e-10
6.24868e-10
6.49131e-10
6.73875e-10
6.99054e-10
7.24619e-10
7.50509e-10
7.76657e-10
8.02984e-10
8.29402e-10
8.55809e-10
8.82093e-10
9.08125e-10
9.33763e-10
9.58847e-10
9.83198e-10
1.00662e-09
1.02889e-09
1.04976e-09
1.06896e-09
1.0862e-09
1.10114e-09
1.11341e-09
1.12263e-09
1.12834e-09
1.13007e-09
1.12727e-09
1.11937e-09
1.10574e-09
1.08566e-09
1.0584e-09
1.02311e-09
9.78897e-10
9.24787e-10
8.59721e-10
7.82558e-10
6.92071e-10
5.86949e-10
4.65794e-10
3.27131e-10
1.69417e-10
-8.93544e-12
-2.09525e-10
-4.33897e-10
-6.83543e-10
-9.60051e-10
-1.26409e-09
-1.58927e-09
-1.92765e-09
-2.37924e-09
-3.20205e-09
-3.00562e-09
1.39608e-10
1.33416e-10
1.28443e-10
1.25275e-10
1.23154e-10
1.21903e-10
1.21473e-10
1.21805e-10
1.22836e-10
1.2451e-10
1.26775e-10
1.2959e-10
1.3292e-10
1.36737e-10
1.41018e-10
1.45746e-10
1.50909e-10
1.56498e-10
1.6251e-10
1.68941e-10
1.75793e-10
1.83067e-10
1.90769e-10
1.98904e-10
2.07479e-10
2.16502e-10
2.25982e-10
2.35927e-10
2.46348e-10
2.57254e-10
2.68654e-10
2.80559e-10
2.92977e-10
3.05918e-10
3.19389e-10
3.33399e-10
3.47952e-10
3.63054e-10
3.7871e-10
3.9492e-10
4.11686e-10
4.29005e-10
4.46873e-10
4.65283e-10
4.84225e-10
5.03686e-10
5.23648e-10
5.44091e-10
5.64989e-10
5.8631e-10
6.08019e-10
6.30072e-10
6.52421e-10
6.75009e-10
6.9777e-10
7.20632e-10
7.43509e-10
7.6631e-10
7.88927e-10
8.11242e-10
8.33122e-10
8.54421e-10
8.74974e-10
8.94599e-10
9.13095e-10
9.30238e-10
9.45784e-10
9.5946e-10
9.70969e-10
9.79983e-10
9.86141e-10
9.89049e-10
9.88274e-10
9.83344e-10
9.73741e-10
9.58903e-10
9.38216e-10
9.1101e-10
8.76561e-10
8.34083e-10
7.82726e-10
7.21571e-10
6.49632e-10
5.65853e-10
4.69104e-10
3.58188e-10
2.31844e-10
8.87558e-11
-7.24346e-11
-2.53102e-10
-4.546e-10
-6.78195e-10
-9.25072e-10
-1.19651e-09
-1.49285e-09
-1.80714e-09
-2.13088e-09
-2.56893e-09
-3.39513e-09
-3.16229e-09
1.39789e-10
1.3416e-10
1.29555e-10
1.26529e-10
1.24461e-10
1.23192e-10
1.22679e-10
1.22875e-10
1.23725e-10
1.2518e-10
1.27197e-10
1.29738e-10
1.3277e-10
1.36268e-10
1.4021e-10
1.44578e-10
1.49361e-10
1.5455e-10
1.60138e-10
1.66122e-10
1.72502e-10
1.79278e-10
1.86453e-10
1.9403e-10
2.02015e-10
2.10413e-10
2.1923e-10
2.28474e-10
2.38151e-10
2.48269e-10
2.58835e-10
2.69855e-10
2.81336e-10
2.93283e-10
3.05702e-10
3.18596e-10
3.3197e-10
3.45823e-10
3.60157e-10
3.7497e-10
3.90258e-10
4.06015e-10
4.22233e-10
4.38901e-10
4.56005e-10
4.73526e-10
4.91444e-10
5.09733e-10
5.28361e-10
5.47294e-10
5.6649e-10
5.85902e-10
6.05476e-10
6.2515e-10
6.44855e-10
6.64513e-10
6.84034e-10
7.03321e-10
7.22264e-10
7.4074e-10
7.58613e-10
7.75732e-10
7.91931e-10
8.07027e-10
8.20815e-10
8.33072e-10
8.43554e-10
8.5199e-10
8.58086e-10
8.61518e-10
8.61933e-10
8.58944e-10
8.52131e-10
8.41035e-10
8.25157e-10
8.03955e-10
7.7684e-10
7.43176e-10
7.02275e-10
6.53395e-10
5.95737e-10
5.28445e-10
4.50604e-10
3.61239e-10
2.59319e-10
1.43758e-10
1.34234e-11
-1.32855e-10
-2.96268e-10
-4.78004e-10
-6.79207e-10
-9.00922e-10
-1.1441e-09
-1.40979e-09
-1.69815e-09
-2.00185e-09
-2.31208e-09
-2.73801e-09
-3.56502e-09
-3.2941e-09
1.39131e-10
1.34363e-10
1.30075e-10
1.27178e-10
1.25173e-10
1.23903e-10
1.23329e-10
1.23412e-10
1.24104e-10
1.25362e-10
1.27148e-10
1.29429e-10
1.32176e-10
1.35364e-10
1.38972e-10
1.42986e-10
1.47391e-10
1.52178e-10
1.57341e-10
1.62875e-10
1.68779e-10
1.75051e-10
1.81692e-10
1.88705e-10
1.96092e-10
2.03857e-10
2.12005e-10
2.20539e-10
2.29466e-10
2.38788e-10
2.48512e-10
2.5864e-10
2.69178e-10
2.80127e-10
2.91489e-10
3.03266e-10
3.15458e-10
3.28063e-10
3.41077e-10
3.54496e-10
3.68312e-10
3.82517e-10
3.97097e-10
4.12037e-10
4.27321e-10
4.42925e-10
4.58824e-10
4.74989e-10
4.91384e-10
5.0797e-10
5.24702e-10
5.41527e-10
5.58388e-10
5.75219e-10
5.91946e-10
6.08487e-10
6.24751e-10
6.40634e-10
6.56024e-10
6.70796e-10
6.84811e-10
6.97916e-10
7.09943e-10
7.20708e-10
7.30006e-10
7.37618e-10
7.43298e-10
7.46781e-10
7.47776e-10
7.45967e-10
7.4101e-10
7.32527e-10
7.20113e-10
7.03324e-10
6.81682e-10
6.54669e-10
6.21723e-10
5.82242e-10
5.35578e-10
4.81033e-10
4.17862e-10
3.4527e-10
2.62413e-10
1.68398e-10
6.22865e-11
-5.69022e-11
-1.90182e-10
-3.38588e-10
-5.03165e-10
-6.84938e-10
-8.84879e-10
-1.10385e-09
-1.34263e-09
-1.60211e-09
-1.88231e-09
-2.1756e-09
-2.47297e-09
-2.88702e-09
-3.71199e-09
-3.40497e-09
1.38125e-10
1.33936e-10
1.29988e-10
1.27258e-10
1.25334e-10
1.2408e-10
1.23465e-10
1.23453e-10
1.24006e-10
1.25085e-10
1.26656e-10
1.28692e-10
1.31164e-10
1.3405e-10
1.37333e-10
1.40995e-10
1.45024e-10
1.49411e-10
1.54149e-10
1.59232e-10
1.64656e-10
1.70421e-10
1.76525e-10
1.82969e-10
1.89753e-10
1.96881e-10
2.04353e-10
2.12174e-10
2.20344e-10
2.28867e-10
2.37745e-10
2.46979e-10
2.5657e-10
2.66519e-10
2.76824e-10
2.87485e-10
2.98498e-10
3.09858e-10
3.21558e-10
3.33591e-10
3.45947e-10
3.58611e-10
3.71568e-10
3.84801e-10
3.98287e-10
4.12001e-10
4.25913e-10
4.39989e-10
4.54193e-10
4.68479e-10
4.82799e-10
4.97097e-10
5.11312e-10
5.25375e-10
5.39208e-10
5.52726e-10
5.65835e-10
5.78428e-10
5.90392e-10
6.01599e-10
6.11908e-10
6.21166e-10
6.29205e-10
6.35839e-10
6.40869e-10
6.44073e-10
6.45212e-10
6.44026e-10
6.40229e-10
6.33514e-10
6.23545e-10
6.09961e-10
5.92368e-10
5.70343e-10
5.43428e-10
5.1113e-10
4.72919e-10
4.28227e-10
3.76443e-10
3.1692e-10
2.48963e-10
1.71839e-10
8.47732e-11
-1.30498e-11
-1.22481e-10
-2.44401e-10
-3.79715e-10
-5.2934e-10
-6.94189e-10
-8.7515e-10
-1.07305e-09
-1.28861e-09
-1.52246e-09
-1.7754e-09
-2.04733e-09
-2.33042e-09
-2.61543e-09
-3.01781e-09
-3.83897e-09
-3.49909e-09
1.3677e-10
1.32994e-10
1.29371e-10
1.2682e-10
1.24991e-10
1.23767e-10
1.23126e-10
1.23037e-10
1.23466e-10
1.24381e-10
1.25752e-10
1.27553e-10
1.29761e-10
1.32355e-10
1.35317e-10
1.38633e-10
1.42291e-10
1.4628e-10
1.50593e-10
1.55225e-10
1.6017e-10
1.65425e-10
1.7099e-10
1.76862e-10
1.83042e-10
1.89529e-10
1.96324e-10
2.03427e-10
2.1084e-10
2.18561e-10
2.26592e-10
2.34931e-10
2.43576e-10
2.52527e-10
2.61778e-10
2.71327e-10
2.81166e-10
2.91289e-10
3.01685e-10
3.12345e-10
3.23253e-10
3.34394e-10
3.4575e-10
3.57298e-10
3.69014e-10
3.80868e-10
3.92828e-10
4.04857e-10
4.16914e-10
4.28951e-10
4.40917e-10
4.52753e-10
4.64393e-10
4.75767e-10
4.86794e-10
4.97386e-10
5.07446e-10
5.16868e-10
5.25535e-10
5.33318e-10
5.40076e-10
5.45657e-10
5.49891e-10
5.52597e-10
5.53576e-10
5.52611e-10
5.49467e-10
5.4389e-10
5.35603e-10
5.24307e-10
5.0968e-10
4.91372e-10
4.69008e-10
4.42183e-10
4.10462e-10
3.7338e-10
3.30437e-10
2.811e-10
2.24799e-10
1.60932e-10
8.8858e-11
7.90249e-12
-8.26435e-11
-1.8352e-10
-2.95497e-10
-4.19363e-10
-5.55926e-10
-7.05994e-10
-8.70369e-10
-1.04982e-09
-1.24506e-09
-1.45668e-09
-1.68522e-09
-1.93138e-09
-2.195e-09
-2.46807e-09
-2.74118e-09
-3.1321e-09
-3.94817e-09
-3.57872e-09
1.35048e-10
1.3161e-10
1.28289e-10
1.25921e-10
1.24195e-10
1.23011e-10
1.22355e-10
1.22201e-10
1.22519e-10
1.23282e-10
1.24465e-10
1.26043e-10
1.27996e-10
1.30305e-10
1.32955e-10
1.3593e-10
1.3922e-10
1.42814e-10
1.46705e-10
1.50886e-10
1.55353e-10
1.60099e-10
1.65124e-10
1.70425e-10
1.75999e-10
1.81845e-10
1.87962e-10
1.94349e-10
2.01003e-10
2.07924e-10
2.15109e-10
2.22556e-10
2.30259e-10
2.38216e-10
2.4642e-10
2.54863e-10
2.63538e-10
2.72435e-10
2.8154e-10
2.90841e-10
3.00321e-10
3.0996e-10
3.19738e-10
3.29629e-10
3.39605e-10
3.49635e-10
3.59683e-10
3.69709e-10
3.79669e-10
3.89512e-10
3.99185e-10
4.08626e-10
4.17767e-10
4.26534e-10
4.34846e-10
4.42612e-10
4.49734e-10
4.56105e-10
4.61605e-10
4.66108e-10
4.69471e-10
4.71544e-10
4.72159e-10
4.71137e-10
4.68281e-10
4.63381e-10
4.56208e-10
4.46513e-10
4.34029e-10
4.18469e-10
3.99522e-10
3.76855e-10
3.50109e-10
3.18901e-10
2.82819e-10
2.41424e-10
1.94249e-10
1.40795e-10
8.05345e-11
1.29085e-11
-6.26715e-11
-1.46824e-10
-2.40194e-10
-3.43452e-10
-4.57291e-10
-5.82419e-10
-7.19552e-10
-8.69406e-10
-1.03268e-09
-1.21005e-09
-1.40213e-09
-1.60941e-09
-1.83235e-09
-2.07158e-09
-2.32691e-09
-2.59014e-09
-2.85175e-09
-3.23143e-09
-4.04136e-09
-3.64544e-09
1.32992e-10
1.29847e-10
1.26806e-10
1.24615e-10
1.22994e-10
1.21856e-10
1.21192e-10
1.20982e-10
1.212e-10
1.21822e-10
1.22826e-10
1.2419e-10
1.25897e-10
1.2793e-10
1.30273e-10
1.32914e-10
1.35841e-10
1.39044e-10
1.42516e-10
1.4625e-10
1.50239e-10
1.54479e-10
1.58966e-10
1.63696e-10
1.68666e-10
1.73873e-10
1.79314e-10
1.84985e-10
1.90885e-10
1.97009e-10
2.03353e-10
2.09912e-10
2.1668e-10
2.2365e-10
2.30814e-10
2.38164e-10
2.45687e-10
2.53371e-10
2.61202e-10
2.69163e-10
2.77235e-10
2.85397e-10
2.93623e-10
3.01888e-10
3.10159e-10
3.18404e-10
3.26582e-10
3.34653e-10
3.42569e-10
3.50278e-10
3.57722e-10
3.64839e-10
3.71559e-10
3.77806e-10
3.83496e-10
3.88539e-10
3.92835e-10
3.96275e-10
3.98743e-10
4.00108e-10
4.00234e-10
3.98967e-10
3.96146e-10
3.91593e-10
3.85117e-10
3.76512e-10
3.65555e-10
3.52009e-10
3.35614e-10
3.16095e-10
2.93155e-10
2.66477e-10
2.3572e-10
2.00523e-10
1.60498e-10
1.15233e-10
6.42926e-11
7.21328e-12
-5.64935e-11
-1.27342e-10
-2.05872e-10
-2.92647e-10
-3.88254e-10
-4.93298e-10
-6.084e-10
-7.34194e-10
-8.71317e-10
-1.0204e-09
-1.18206e-09
-1.35688e-09
-1.5454e-09
-1.74803e-09
-1.96516e-09
-2.19739e-09
-2.44445e-09
-2.69807e-09
-2.94857e-09
-3.31721e-09
-4.1201e-09
-3.70057e-09
1.30628e-10
1.27746e-10
1.24967e-10
1.22948e-10
1.21431e-10
1.20343e-10
1.19677e-10
1.19418e-10
1.19543e-10
1.20032e-10
1.20866e-10
1.22025e-10
1.23494e-10
1.25257e-10
1.27301e-10
1.29612e-10
1.32182e-10
1.35e-10
1.38057e-10
1.41347e-10
1.44863e-10
1.48599e-10
1.52551e-10
1.56714e-10
1.61083e-10
1.65654e-10
1.70423e-10
1.75384e-10
1.80534e-10
1.85867e-10
1.91376e-10
1.97055e-10
2.02896e-10
2.0889e-10
2.15026e-10
2.21294e-10
2.2768e-10
2.3417e-10
2.40746e-10
2.47389e-10
2.54078e-10
2.60789e-10
2.67495e-10
2.74167e-10
2.80772e-10
2.87272e-10
2.93628e-10
2.99794e-10
3.05722e-10
3.11357e-10
3.1664e-10
3.21507e-10
3.25886e-10
3.297e-10
3.32865e-10
3.35289e-10
3.36872e-10
3.37505e-10
3.37072e-10
3.35446e-10
3.32488e-10
3.28051e-10
3.21974e-10
3.14084e-10
3.04196e-10
2.92111e-10
2.77612e-10
2.60471e-10
2.4044e-10
2.17256e-10
1.90635e-10
1.60278e-10
1.25863e-10
8.70487e-11
4.34732e-11
-5.24765e-12
-5.95197e-11
-1.19771e-10
-1.86452e-10
-2.60034e-10
-3.41011e-10
-4.29894e-10
-5.27214e-10
-6.33516e-10
-7.49358e-10
-8.75304e-10
-1.01192e-09
-1.15976e-09
-1.31938e-09
-1.49128e-09
-1.67593e-09
-1.87368e-09
-2.08487e-09
-2.31004e-09
-2.54893e-09
-2.79313e-09
-3.0329e-09
-3.39072e-09
-4.18581e-09
-3.74525e-09
1.27966e-10
1.25338e-10
1.2281e-10
1.20957e-10
1.19545e-10
1.18508e-10
1.17844e-10
1.17541e-10
1.17581e-10
1.17944e-10
1.18614e-10
1.19576e-10
1.20814e-10
1.22315e-10
1.24066e-10
1.26056e-10
1.28273e-10
1.30711e-10
1.33358e-10
1.3621e-10
1.39257e-10
1.42495e-10
1.45916e-10
1.49517e-10
1.5329e-10
1.5723e-10
1.61333e-10
1.6559e-10
1.69997e-10
1.74547e-10
1.7923e-10
1.84039e-10
1.88964e-10
1.93994e-10
1.99117e-10
2.0432e-10
2.09587e-10
2.14901e-10
2.20243e-10
2.25593e-10
2.30926e-10
2.36217e-10
2.41436e-10
2.46552e-10
2.5153e-10
2.56331e-10
2.60913e-10
2.65228e-10
2.69226e-10
2.72852e-10
2.76044e-10
2.78737e-10
2.80858e-10
2.82329e-10
2.83066e-10
2.82975e-10
2.81959e-10
2.79908e-10
2.76708e-10
2.72232e-10
2.66345e-10
2.58903e-10
2.49748e-10
2.38712e-10
2.25617e-10
2.10269e-10
1.92461e-10
1.71974e-10
1.48571e-10
1.22001e-10
9.19979e-11
5.82762e-11
2.05349e-11
-2.15459e-11
-6.83041e-11
-1.20096e-10
-1.77299e-10
-2.40305e-10
-3.09529e-10
-3.854e-10
-4.68369e-10
-5.58899e-10
-6.57467e-10
-7.64565e-10
-8.8069e-10
-1.00635e-09
-1.14203e-09
-1.28825e-09
-1.44547e-09
-1.61415e-09
-1.79468e-09
-1.98739e-09
-2.19255e-09
-2.41068e-09
-2.64149e-09
-2.8765e-09
-3.1059e-09
-3.45312e-09
-4.23975e-09
-3.78052e-09
1.2503e-10
1.22651e-10
1.20367e-10
1.18676e-10
1.17367e-10
1.16385e-10
1.15727e-10
1.15385e-10
1.15343e-10
1.15587e-10
1.16102e-10
1.16873e-10
1.17887e-10
1.19133e-10
1.20598e-10
1.22271e-10
1.24144e-10
1.26207e-10
1.28451e-10
1.3087e-10
1.33455e-10
1.36199e-10
1.39097e-10
1.42141e-10
1.45325e-10
1.48642e-10
1.52086e-10
1.55648e-10
1.59321e-10
1.63097e-10
1.66965e-10
1.70916e-10
1.74939e-10
1.7902e-10
1.83146e-10
1.87301e-10
1.91469e-10
1.9563e-10
1.99764e-10
2.03847e-10
2.07854e-10
2.11757e-10
2.15525e-10
2.19125e-10
2.2252e-10
2.25668e-10
2.28527e-10
2.31047e-10
2.33176e-10
2.34858e-10
2.36031e-10
2.36627e-10
2.36574e-10
2.35793e-10
2.34199e-10
2.31701e-10
2.28199e-10
2.23588e-10
2.17752e-10
2.10568e-10
2.01904e-10
1.91619e-10
1.7956e-10
1.65565e-10
1.4946e-10
1.3106e-10
1.10168e-10
8.65729e-11
6.00505e-11
3.03633e-11
-2.74096e-12
-3.95294e-11
-8.02845e-11
-1.25304e-10
-1.74903e-10
-2.2941e-10
-2.89173e-10
-3.54552e-10
-4.25925e-10
-5.03685e-10
-5.88238e-10
-6.80003e-10
-7.7941e-10
-8.86898e-10
-1.00291e-09
-1.1279e-09
-1.2623e-09
-1.40657e-09
-1.56111e-09
-1.72633e-09
-1.90257e-09
-2.09012e-09
-2.2892e-09
-2.50034e-09
-2.72319e-09
-2.94925e-09
-3.16864e-09
-3.50549e-09
-4.28306e-09
-3.80729e-09
1.21852e-10
1.19717e-10
1.1767e-10
1.16138e-10
1.14931e-10
1.14003e-10
1.13354e-10
1.12977e-10
1.1286e-10
1.12991e-10
1.13355e-10
1.13942e-10
1.1474e-10
1.15737e-10
1.16923e-10
1.18288e-10
1.19823e-10
1.21518e-10
1.23366e-10
1.25359e-10
1.27488e-10
1.29747e-10
1.32128e-10
1.34624e-10
1.37227e-10
1.39929e-10
1.42723e-10
1.456e-10
1.4855e-10
1.51564e-10
1.5463e-10
1.57738e-10
1.60873e-10
1.64023e-10
1.6717e-10
1.70299e-10
1.7339e-10
1.76422e-10
1.79374e-10
1.8222e-10
1.84933e-10
1.87483e-10
1.89838e-10
1.91963e-10
1.93819e-10
1.95364e-10
1.96553e-10
1.97336e-10
1.97659e-10
1.97465e-10
1.96691e-10
1.9527e-10
1.93127e-10
1.90186e-10
1.8636e-10
1.8156e-10
1.75687e-10
1.68636e-10
1.60294e-10
1.50542e-10
1.3925e-10
1.26281e-10
1.11488e-10
9.47136e-11
7.57915e-11
5.45441e-11
3.07829e-11
4.3079e-12
-2.5093e-11
-5.7644e-11
-9.35822e-11
-1.33158e-10
-1.76634e-10
-2.24287e-10
-2.76408e-10
-3.33302e-10
-3.95285e-10
-4.62688e-10
-5.35855e-10
-6.15141e-10
-7.00914e-10
-7.93551e-10
-8.93435e-10
-1.00096e-09
-1.11652e-09
-1.24052e-09
-1.37335e-09
-1.51539e-09
-1.66703e-09
-1.8286e-09
-2.00043e-09
-2.18275e-09
-2.37576e-09
-2.57996e-09
-2.795e-09
-3.01234e-09
-3.22207e-09
-3.54877e-09
-4.31679e-09
-3.82642e-09
1.1846e-10
1.16564e-10
1.14749e-10
1.13372e-10
1.12267e-10
1.11395e-10
1.10757e-10
1.10349e-10
1.10161e-10
1.10183e-10
1.10404e-10
1.10813e-10
1.11401e-10
1.12156e-10
1.13071e-10
1.14134e-10
1.15338e-10
1.16673e-10
1.18132e-10
1.19707e-10
1.21389e-10
1.2317e-10
1.25043e-10
1.26999e-10
1.29031e-10
1.31129e-10
1.33284e-10
1.35487e-10
1.37727e-10
1.39993e-10
1.42272e-10
1.44552e-10
1.46818e-10
1.49054e-10
1.51244e-10
1.53368e-10
1.55407e-10
1.57338e-10
1.59136e-10
1.60776e-10
1.62229e-10
1.63464e-10
1.64446e-10
1.6514e-10
1.65504e-10
1.65497e-10
1.65071e-10
1.64176e-10
1.62757e-10
1.60756e-10
1.58109e-10
1.54749e-10
1.50603e-10
1.45593e-10
1.39634e-10
1.32637e-10
1.24505e-10
1.15135e-10
1.04417e-10
9.22334e-11
7.84595e-11
6.29619e-11
4.55988e-11
2.62198e-11
4.66515e-12
-1.92345e-11
-4.56582e-11
-7.47954e-11
-1.06846e-10
-1.42021e-10
-1.80542e-10
-2.22641e-10
-2.68565e-10
-3.18568e-10
-3.72919e-10
-4.31896e-10
-4.95789e-10
-5.64899e-10
-6.39539e-10
-7.20027e-10
-8.06696e-10
-8.99882e-10
-9.9993e-10
-1.10719e-09
-1.22201e-09
-1.34475e-09
-1.47575e-09
-1.61536e-09
-1.76391e-09
-1.92171e-09
-2.08903e-09
-2.26609e-09
-2.45305e-09
-2.65041e-09
-2.8578e-09
-3.06666e-09
-3.26708e-09
-3.58386e-09
-4.34191e-09
-3.8387e-09
1.14885e-10
1.13222e-10
1.11635e-10
1.1041e-10
1.09404e-10
1.08588e-10
1.07963e-10
1.07527e-10
1.07272e-10
1.07191e-10
1.07273e-10
1.07511e-10
1.07896e-10
1.08417e-10
1.09067e-10
1.09836e-10
1.10717e-10
1.11701e-10
1.12779e-10
1.13944e-10
1.15188e-10
1.16501e-10
1.17876e-10
1.19303e-10
1.20774e-10
1.2228e-10
1.23809e-10
1.25351e-10
1.26895e-10
1.28428e-10
1.29936e-10
1.31406e-10
1.32822e-10
1.34166e-10
1.3542e-10
1.36564e-10
1.37577e-10
1.38434e-10
1.3911e-10
1.39578e-10
1.39807e-10
1.39765e-10
1.39416e-10
1.38723e-10
1.37645e-10
1.36138e-10
1.34153e-10
1.31641e-10
1.28545e-10
1.24806e-10
1.20361e-10
1.15144e-10
1.0908e-10
1.02092e-10
9.40982e-11
8.50087e-11
7.47291e-11
6.31587e-11
5.01902e-11
3.57097e-11
1.95959e-11
1.72044e-12
-1.80528e-11
-3.9868e-11
-6.38775e-11
-9.0242e-11
-1.19131e-10
-1.50724e-10
-1.85208e-10
-2.2278e-10
-2.63648e-10
-3.08027e-10
-3.56144e-10
-4.08235e-10
-4.64544e-10
-5.25327e-10
-5.90848e-10
-6.6138e-10
-7.37202e-10
-8.18604e-10
-9.05881e-10
-9.99335e-10
-1.09927e-09
-1.206e-09
-1.31983e-09
-1.44108e-09
-1.57006e-09
-1.70707e-09
-1.8524e-09
-2.00633e-09
-2.1691e-09
-2.34089e-09
-2.52187e-09
-2.7125e-09
-2.91241e-09
-3.11304e-09
-3.30447e-09
-3.61156e-09
-4.35929e-09
-3.84484e-09
1.11157e-10
1.09722e-10
1.08356e-10
1.07279e-10
1.06372e-10
1.05611e-10
1.05e-10
1.04539e-10
1.04221e-10
1.04041e-10
1.03991e-10
1.04064e-10
1.04251e-10
1.04546e-10
1.04939e-10
1.05422e-10
1.05988e-10
1.06629e-10
1.07336e-10
1.08101e-10
1.08915e-10
1.09771e-10
1.10658e-10
1.11568e-10
1.12491e-10
1.13416e-10
1.14333e-10
1.15229e-10
1.16093e-10
1.1691e-10
1.17666e-10
1.18346e-10
1.18932e-10
1.19406e-10
1.19749e-10
1.19939e-10
1.19953e-10
1.19767e-10
1.19353e-10
1.18684e-10
1.17726e-10
1.16447e-10
1.14811e-10
1.12779e-10
1.10308e-10
1.07354e-10
1.03869e-10
9.98007e-11
9.50932e-11
8.96874e-11
8.35203e-11
7.65246e-11
6.86285e-11
5.97553e-11
4.98229e-11
3.87444e-11
2.64271e-11
1.27727e-11
-2.32279e-12
-1.89699e-11
-3.72854e-11
-5.73928e-11
-7.94224e-11
-1.03512e-10
-1.29806e-10
-1.58456e-10
-1.89624e-10
-2.23476e-10
-2.60189e-10
-2.99946e-10
-3.4294e-10
-3.8937e-10
-4.39445e-10
-4.93381e-10
-5.51402e-10
-6.13739e-10
-6.80632e-10
-7.52326e-10
-8.29073e-10
-9.11132e-10
-9.98765e-10
-1.09224e-09
-1.19183e-09
-1.29781e-09
-1.41045e-09
-1.53003e-09
-1.65682e-09
-1.79109e-09
-1.9331e-09
-2.0831e-09
-2.2413e-09
-2.40786e-09
-2.58293e-09
-2.76696e-09
-2.95957e-09
-3.15222e-09
-3.335e-09
-3.63264e-09
-4.36977e-09
-3.84552e-09
1.07305e-10
1.06091e-10
1.0494e-10
1.04007e-10
1.03196e-10
1.02491e-10
1.01896e-10
1.01411e-10
1.01034e-10
1.0076e-10
1.00583e-10
1.00496e-10
1.00494e-10
1.00568e-10
1.00712e-10
1.00918e-10
1.01178e-10
1.01485e-10
1.0183e-10
1.02205e-10
1.02601e-10
1.0301e-10
1.03422e-10
1.03828e-10
1.04215e-10
1.04575e-10
1.04894e-10
1.05161e-10
1.05361e-10
1.0548e-10
1.05503e-10
1.05413e-10
1.05192e-10
1.0482e-10
1.04277e-10