/*--------------------------------*- C++ -*----------------------------------*\
  =========                 |
  \\      /  F ield         | OpenFOAM: The Open Source CFD Toolbox
   \\    /   O peration     | Website:  https://openfoam.org
    \\  /    A nd           | Version:  11
     \\/     M anipulation  |
\*---------------------------------------------------------------------------*/
FoamFile
{
    format      ascii;
    class       surfaceScalarField;
    location    "1776";
    object      phi;
}
// * * * * * * * * * * * * * * * * * * * * * * * * * * * * * * * * * * * * * //

dimensions      [0 3 -1 0 0 0 0];

internalField   nonuniform List<scalar> 
19800
(
2e-05
-2.28494e-16
2e-05
-6.46349e-16
2e-05
-1.04563e-15
2e-05
-1.44493e-15
2e-05
-1.85356e-15
2e-05
-2.27693e-15
2e-05
-2.71938e-15
2e-05
-3.18465e-15
2e-05
-3.67611e-15
2e-05
-4.1969e-15
2e-05
-4.75009e-15
2e-05
-5.33867e-15
2e-05
-5.96564e-15
2e-05
-6.63403e-15
2e-05
-7.34693e-15
2e-05
-8.10752e-15
2e-05
-8.91907e-15
2e-05
-9.78494e-15
2e-05
-1.07086e-14
2e-05
-1.16938e-14
2e-05
-1.27442e-14
2e-05
-1.38638e-14
2e-05
-1.50566e-14
2e-05
-1.6327e-14
2e-05
-1.76793e-14
2e-05
-1.91183e-14
2e-05
-2.06487e-14
2e-05
-2.22755e-14
2e-05
-2.4004e-14
2e-05
-2.58396e-14
2e-05
-2.7788e-14
2e-05
-2.9855e-14
2e-05
-3.20467e-14
2e-05
-3.43696e-14
2e-05
-3.68301e-14
2e-05
-3.9435e-14
2e-05
-4.21915e-14
2e-05
-4.51067e-14
2e-05
-4.81884e-14
2e-05
-5.14441e-14
2e-05
-5.48821e-14
2e-05
-5.85104e-14
2e-05
-6.23378e-14
2e-05
-6.6373e-14
2e-05
-7.06249e-14
2e-05
-7.51028e-14
2e-05
-7.98162e-14
2e-05
-8.47748e-14
2e-05
-8.99884e-14
2e-05
-9.54673e-14
2e-05
-1.01222e-13
2e-05
-1.07262e-13
2e-05
-1.13599e-13
2e-05
-1.20243e-13
2e-05
-1.27205e-13
2e-05
-1.34496e-13
2e-05
-1.42127e-13
2e-05
-1.5011e-13
2e-05
-1.58454e-13
2e-05
-1.67172e-13
2e-05
-1.76273e-13
2e-05
-1.85768e-13
2e-05
-1.95669e-13
2e-05
-2.05984e-13
2e-05
-2.16724e-13
2e-05
-2.27898e-13
2e-05
-2.39514e-13
2e-05
-2.51582e-13
2e-05
-2.64107e-13
2e-05
-2.77096e-13
2e-05
-2.90555e-13
2e-05
-3.04487e-13
2e-05
-3.18895e-13
2e-05
-3.3378e-13
2e-05
-3.49139e-13
2e-05
-3.6497e-13
2e-05
-3.81265e-13
2e-05
-3.98015e-13
2e-05
-4.15207e-13
2e-05
-4.32823e-13
2e-05
-4.5084e-13
2e-05
-4.69229e-13
2e-05
-4.87954e-13
2e-05
-5.06972e-13
2e-05
-5.26228e-13
2e-05
-5.45658e-13
2e-05
-5.65182e-13
2e-05
-5.84707e-13
2e-05
-6.04118e-13
2e-05
-6.23281e-13
2e-05
-6.42034e-13
2e-05
-6.60187e-13
2e-05
-6.77516e-13
2e-05
-6.93757e-13
2e-05
-7.08612e-13
2e-05
-7.21741e-13
2e-05
-7.32775e-13
2e-05
-7.41324e-13
2e-05
-7.47091e-13
-7.50302e-13
2e-05
-1.97536e-16
2e-05
-5.80888e-16
2e-05
-9.58068e-16
2e-05
-1.33862e-15
2e-05
-1.72893e-15
2e-05
-2.13357e-15
2e-05
-2.55646e-15
2e-05
-3.00107e-15
2e-05
-3.47061e-15
2e-05
-3.96809e-15
2e-05
-4.49643e-15
2e-05
-5.05852e-15
2e-05
-5.65724e-15
2e-05
-6.29549e-15
2e-05
-6.97626e-15
2e-05
-7.70259e-15
2e-05
-8.47762e-15
2e-05
-9.3046e-15
2e-05
-1.01869e-14
2e-05
-1.1128e-14
2e-05
-1.21315e-14
2e-05
-1.32013e-14
2e-05
-1.43412e-14
2e-05
-1.55554e-14
2e-05
-1.68481e-14
2e-05
-1.82239e-14
2e-05
-1.96873e-14
2e-05
-2.12433e-14
2e-05
-2.28967e-14
2e-05
-2.4653e-14
2e-05
-2.65175e-14
2e-05
-2.8496e-14
2e-05
-3.05942e-14
2e-05
-3.28184e-14
2e-05
-3.5175e-14
2e-05
-3.76704e-14
2e-05
-4.03115e-14
2e-05
-4.31055e-14
2e-05
-4.60595e-14
2e-05
-4.91812e-14
2e-05
-5.24784e-14
2e-05
-5.59591e-14
2e-05
-5.96316e-14
2e-05
-6.35044e-14
2e-05
-6.75864e-14
2e-05
-7.18865e-14
2e-05
-7.6414e-14
2e-05
-8.11784e-14
2e-05
-8.61893e-14
2e-05
-9.14567e-14
2e-05
-9.69906e-14
2e-05
-1.02801e-13
2e-05
-1.08899e-13
2e-05
-1.15295e-13
2e-05
-1.22e-13
2e-05
-1.29023e-13
2e-05
-1.36378e-13
2e-05
-1.44073e-13
2e-05
-1.52121e-13
2e-05
-1.60532e-13
2e-05
-1.69317e-13
2e-05
-1.78487e-13
2e-05
-1.88052e-13
2e-05
-1.98024e-13
2e-05
-2.08411e-13
2e-05
-2.19225e-13
2e-05
-2.30473e-13
2e-05
-2.42165e-13
2e-05
-2.54308e-13
2e-05
-2.66911e-13
2e-05
-2.79978e-13
2e-05
-2.93516e-13
2e-05
-3.07529e-13
2e-05
-3.22018e-13
2e-05
-3.36984e-13
2e-05
-3.52426e-13
2e-05
-3.68339e-13
2e-05
-3.84717e-13
2e-05
-4.0155e-13
2e-05
-4.18824e-13
2e-05
-4.3652e-13
2e-05
-4.54614e-13
2e-05
-4.73076e-13
2e-05
-4.91867e-13
2e-05
-5.10942e-13
2e-05
-5.30241e-13
2e-05
-5.49697e-13
2e-05
-5.69223e-13
2e-05
-5.88717e-13
2e-05
-6.08056e-13
2e-05
-6.27092e-13
2e-05
-6.45649e-13
2e-05
-6.6352e-13
2e-05
-6.8046e-13
2e-05
-6.96188e-13
2e-05
-7.10381e-13
2e-05
-7.22679e-13
2e-05
-7.32686e-13
2e-05
-7.40044e-13
-7.44683e-13
2e-05
-1.74222e-16
2e-05
-5.22933e-16
2e-05
-8.7488e-16
2e-05
-1.23464e-15
2e-05
-1.60564e-15
2e-05
-1.99112e-15
2e-05
-2.39431e-15
2e-05
-2.81831e-15
2e-05
-3.26605e-15
2e-05
-3.74039e-15
2e-05
-4.24409e-15
2e-05
-4.77991e-15
2e-05
-5.35062e-15
2e-05
-5.95899e-15
2e-05
-6.60789e-15
2e-05
-7.30024e-15
2e-05
-8.03904e-15
2e-05
-8.82743e-15
2e-05
-9.66862e-15
2e-05
-1.0566e-14
2e-05
-1.1523e-14
2e-05
-1.25433e-14
2e-05
-1.36307e-14
2e-05
-1.47892e-14
2e-05
-1.60228e-14
2e-05
-1.73358e-14
2e-05
-1.87328e-14
2e-05
-2.02183e-14
2e-05
-2.17973e-14
2e-05
-2.34748e-14
2e-05
-2.52561e-14
2e-05
-2.71466e-14
2e-05
-2.9152e-14
2e-05
-3.12783e-14
2e-05
-3.35316e-14
2e-05
-3.59182e-14
2e-05
-3.84449e-14
2e-05
-4.11183e-14
2e-05
-4.39457e-14
2e-05
-4.69343e-14
2e-05
-5.00916e-14
2e-05
-5.34257e-14
2e-05
-5.69444e-14
2e-05
-6.0656e-14
2e-05
-6.45692e-14
2e-05
-6.86928e-14
2e-05
-7.30356e-14
2e-05
-7.76071e-14
2e-05
-8.24166e-14
2e-05
-8.74739e-14
2e-05
-9.27888e-14
2e-05
-9.83715e-14
2e-05
-1.04232e-13
2e-05
-1.10381e-13
2e-05
-1.1683e-13
2e-05
-1.23588e-13
2e-05
-1.30667e-13
2e-05
-1.38077e-13
2e-05
-1.4583e-13
2e-05
-1.53936e-13
2e-05
-1.62407e-13
2e-05
-1.71254e-13
2e-05
-1.80487e-13
2e-05
-1.90116e-13
2e-05
-2.00153e-13
2e-05
-2.10608e-13
2e-05
-2.2149e-13
2e-05
-2.32808e-13
2e-05
-2.44572e-13
2e-05
-2.56789e-13
2e-05
-2.69468e-13
2e-05
-2.82613e-13
2e-05
-2.96232e-13
2e-05
-3.10327e-13
2e-05
-3.24901e-13
2e-05
-3.39955e-13
2e-05
-3.55487e-13
2e-05
-3.71494e-13
2e-05
-3.87968e-13
2e-05
-4.04899e-13
2e-05
-4.22272e-13
2e-05
-4.40069e-13
2e-05
-4.58264e-13
2e-05
-4.76825e-13
2e-05
-4.95712e-13
2e-05
-5.14874e-13
2e-05
-5.3425e-13
2e-05
-5.53765e-13
2e-05
-5.73325e-13
2e-05
-5.92819e-13
2e-05
-6.12112e-13
2e-05
-6.31038e-13
2e-05
-6.49405e-13
2e-05
-6.66978e-13
2e-05
-6.83486e-13
2e-05
-6.98607e-13
2e-05
-7.11966e-13
2e-05
-7.23122e-13
2e-05
-7.31614e-13
-7.37203e-13
2e-05
-1.55279e-16
2e-05
-4.72011e-16
2e-05
-7.97649e-16
2e-05
-1.13499e-15
2e-05
-1.48546e-15
2e-05
-1.85103e-15
2e-05
-2.23413e-15
2e-05
-2.63734e-15
2e-05
-3.0633e-15
2e-05
-3.5146e-15
2e-05
-3.99385e-15
2e-05
-4.50364e-15
2e-05
-5.04661e-15
2e-05
-5.6254e-15
2e-05
-6.24277e-15
2e-05
-6.90149e-15
2e-05
-7.60446e-15
2e-05
-8.35467e-15
2e-05
-9.15521e-15
2e-05
-1.00093e-14
2e-05
-1.09203e-14
2e-05
-1.18917e-14
2e-05
-1.29272e-14
2e-05
-1.40304e-14
2e-05
-1.52055e-14
2e-05
-1.64564e-14
2e-05
-1.77876e-14
2e-05
-1.92035e-14
2e-05
-2.07088e-14
2e-05
-2.23083e-14
2e-05
-2.40071e-14
2e-05
-2.58106e-14
2e-05
-2.77241e-14
2e-05
-2.97535e-14
2e-05
-3.19045e-14
2e-05
-3.41835e-14
2e-05
-3.65968e-14
2e-05
-3.91509e-14
2e-05
-4.18528e-14
2e-05
-4.47096e-14
2e-05
-4.77286e-14
2e-05
-5.09173e-14
2e-05
-5.42837e-14
2e-05
-5.78358e-14
2e-05
-6.15818e-14
2e-05
-6.55305e-14
2e-05
-6.96904e-14
2e-05
-7.40708e-14
2e-05
-7.86809e-14
2e-05
-8.35301e-14
2e-05
-8.86281e-14
2e-05
-9.39849e-14
2e-05
-9.96106e-14
2e-05
-1.05516e-13
2e-05
-1.1171e-13
2e-05
-1.18205e-13
2e-05
-1.25011e-13
2e-05
-1.32139e-13
2e-05
-1.39599e-13
2e-05
-1.47404e-13
2e-05
-1.55564e-13
2e-05
-1.64089e-13
2e-05
-1.72992e-13
2e-05
-1.82283e-13
2e-05
-1.91972e-13
2e-05
-2.02071e-13
2e-05
-2.12589e-13
2e-05
-2.23537e-13
2e-05
-2.34924e-13
2e-05
-2.4676e-13
2e-05
-2.59052e-13
2e-05
-2.71807e-13
2e-05
-2.85034e-13
2e-05
-2.98738e-13
2e-05
-3.12922e-13
2e-05
-3.27589e-13
2e-05
-3.42741e-13
2e-05
-3.58377e-13
2e-05
-3.74491e-13
2e-05
-3.91079e-13
2e-05
-4.08128e-13
2e-05
-4.25625e-13
2e-05
-4.43549e-13
2e-05
-4.61873e-13
2e-05
-4.80564e-13
2e-05
-4.99578e-13
2e-05
-5.18862e-13
2e-05
-5.38348e-13
2e-05
-5.57952e-13
2e-05
-5.77573e-13
2e-05
-5.97084e-13
2e-05
-6.16332e-13
2e-05
-6.35131e-13
2e-05
-6.53256e-13
2e-05
-6.70433e-13
2e-05
-6.86333e-13
2e-05
-7.00551e-13
2e-05
-7.12586e-13
2e-05
-7.21847e-13
-7.27848e-13
2e-05
-1.39225e-16
2e-05
-4.26745e-16
2e-05
-7.26404e-16
2e-05
-1.04058e-15
2e-05
-1.36966e-15
2e-05
-1.7146e-15
2e-05
-2.07712e-15
2e-05
-2.4593e-15
2e-05
-2.86337e-15
2e-05
-3.29168e-15
2e-05
-3.74662e-15
2e-05
-4.2306e-15
2e-05
-4.74611e-15
2e-05
-5.29568e-15
2e-05
-5.88189e-15
2e-05
-6.50741e-15
2e-05
-7.175e-15
2e-05
-7.88753e-15
2e-05
-8.64795e-15
2e-05
-9.45936e-15
2e-05
-1.03249e-14
2e-05
-1.12481e-14
2e-05
-1.22322e-14
2e-05
-1.3281e-14
2e-05
-1.43983e-14
2e-05
-1.5588e-14
2e-05
-1.68543e-14
2e-05
-1.82014e-14
2e-05
-1.96339e-14
2e-05
-2.11565e-14
2e-05
-2.27739e-14
2e-05
-2.44914e-14
2e-05
-2.63143e-14
2e-05
-2.82479e-14
2e-05
-3.0298e-14
2e-05
-3.24707e-14
2e-05
-3.4772e-14
2e-05
-3.72083e-14
2e-05
-3.97864e-14
2e-05
-4.2513e-14
2e-05
-4.53953e-14
2e-05
-4.84406e-14
2e-05
-5.16565e-14
2e-05
-5.5051e-14
2e-05
-5.8632e-14
2e-05
-6.24078e-14
2e-05
-6.63872e-14
2e-05
-7.05788e-14
2e-05
-7.49918e-14
2e-05
-7.96354e-14
2e-05
-8.45192e-14
2e-05
-8.96529e-14
2e-05
-9.50463e-14
2e-05
-1.0071e-13
2e-05
-1.06654e-13
2e-05
-1.12888e-13
2e-05
-1.19425e-13
2e-05
-1.26273e-13
2e-05
-1.33445e-13
2e-05
-1.40951e-13
2e-05
-1.48803e-13
2e-05
-1.57012e-13
2e-05
-1.65588e-13
2e-05
-1.74544e-13
2e-05
-1.83889e-13
2e-05
-1.93636e-13
2e-05
-2.03795e-13
2e-05
-2.14376e-13
2e-05
-2.2539e-13
2e-05
-2.36846e-13
2e-05
-2.48755e-13
2e-05
-2.61124e-13
2e-05
-2.73963e-13
2e-05
-2.87277e-13
2e-05
-3.01073e-13
2e-05
-3.15356e-13
2e-05
-3.3013e-13
2e-05
-3.45395e-13
2e-05
-3.6115e-13
2e-05
-3.77393e-13
2e-05
-3.94116e-13
2e-05
-4.11309e-13
2e-05
-4.28956e-13
2e-05
-4.47037e-13
2e-05
-4.65522e-13
2e-05
-4.84375e-13
2e-05
-5.03549e-13
2e-05
-5.22984e-13
2e-05
-5.42604e-13
2e-05
-5.62316e-13
2e-05
-5.82001e-13
2e-05
-6.01514e-13
2e-05
-6.20674e-13
2e-05
-6.39257e-13
2e-05
-6.56986e-13
2e-05
-6.73515e-13
2e-05
-6.88408e-13
2e-05
-7.01103e-13
2e-05
-7.10892e-13
-7.16853e-13
2e-05
-1.25266e-16
2e-05
-3.86017e-16
2e-05
-6.60659e-16
2e-05
-9.51672e-16
2e-05
-1.25892e-15
2e-05
-1.58276e-15
2e-05
-1.92432e-15
2e-05
-2.2852e-15
2e-05
-2.66728e-15
2e-05
-3.07262e-15
2e-05
-3.50337e-15
2e-05
-3.96177e-15
2e-05
-4.45012e-15
2e-05
-4.97081e-15
2e-05
-5.52628e-15
2e-05
-6.11908e-15
2e-05
-6.75182e-15
2e-05
-7.42723e-15
2e-05
-8.14815e-15
2e-05
-8.91752e-15
2e-05
-9.7384e-15
2e-05
-1.0614e-14
2e-05
-1.15477e-14
2e-05
-1.25429e-14
2e-05
-1.36033e-14
2e-05
-1.47327e-14
2e-05
-1.5935e-14
2e-05
-1.72145e-14
2e-05
-1.85753e-14
2e-05
-2.00221e-14
2e-05
-2.15595e-14
2e-05
-2.31924e-14
2e-05
-2.49259e-14
2e-05
-2.67652e-14
2e-05
-2.8716e-14
2e-05
-3.0784e-14
2e-05
-3.2975e-14
2e-05
-3.52954e-14
2e-05
-3.77514e-14
2e-05
-4.03499e-14
2e-05
-4.30975e-14
2e-05
-4.60015e-14
2e-05
-4.90693e-14
2e-05
-5.23085e-14
2e-05
-5.57268e-14
2e-05
-5.93325e-14
2e-05
-6.31339e-14
2e-05
-6.71396e-14
2e-05
-7.13584e-14
2e-05
-7.57994e-14
2e-05
-8.04721e-14
2e-05
-8.53858e-14
2e-05
-9.05504e-14
2e-05
-9.59759e-14
2e-05
-1.01673e-13
2e-05
-1.07651e-13
2e-05
-1.13921e-13
2e-05
-1.20494e-13
2e-05
-1.27381e-13
2e-05
-1.34593e-13
2e-05
-1.42141e-13
2e-05
-1.50037e-13
2e-05
-1.58291e-13
2e-05
-1.66916e-13
2e-05
-1.75922e-13
2e-05
-1.85321e-13
2e-05
-1.95125e-13
2e-05
-2.05343e-13
2e-05
-2.15989e-13
2e-05
-2.27071e-13
2e-05
-2.386e-13
2e-05
-2.50587e-13
2e-05
-2.6304e-13
2e-05
-2.75969e-13
2e-05
-2.8938e-13
2e-05
-3.03281e-13
2e-05
-3.17678e-13
2e-05
-3.32573e-13
2e-05
-3.47969e-13
2e-05
-3.63866e-13
2e-05
-3.8026e-13
2e-05
-3.97144e-13
2e-05
-4.14509e-13
2e-05
-4.32336e-13
2e-05
-4.50603e-13
2e-05
-4.69279e-13
2e-05
-4.88323e-13
2e-05
-5.07682e-13
2e-05
-5.27287e-13
2e-05
-5.47049e-13
2e-05
-5.66859e-13
2e-05
-5.86574e-13
2e-05
-6.06017e-13
2e-05
-6.24963e-13
2e-05
-6.43125e-13
2e-05
-6.60142e-13
2e-05
-6.75545e-13
2e-05
-6.88715e-13
2e-05
-6.98855e-13
-7.04651e-13
2e-05
-1.12856e-16
2e-05
-3.48993e-16
2e-05
-5.99842e-16
2e-05
-8.68135e-16
2e-05
-1.15357e-15
2e-05
-1.45612e-15
2e-05
-1.77649e-15
2e-05
-2.11592e-15
2e-05
-2.47595e-15
2e-05
-2.85835e-15
2e-05
-3.26505e-15
2e-05
-3.69809e-15
2e-05
-4.1596e-15
2e-05
-4.6518e-15
2e-05
-5.17699e-15
2e-05
-5.73757e-15
2e-05
-6.33604e-15
2e-05
-6.97497e-15
2e-05
-7.65707e-15
2e-05
-8.38514e-15
2e-05
-9.16211e-15
2e-05
-9.99105e-15
2e-05
-1.08751e-14
2e-05
-1.18177e-14
2e-05
-1.28223e-14
2e-05
-1.38925e-14
2e-05
-1.5032e-14
2e-05
-1.6245e-14
2e-05
-1.75355e-14
2e-05
-1.89079e-14
2e-05
-2.03666e-14
2e-05
-2.19164e-14
2e-05
-2.35621e-14
2e-05
-2.5309e-14
2e-05
-2.71622e-14
2e-05
-2.91273e-14
2e-05
-3.121e-14
2e-05
-3.34164e-14
2e-05
-3.57526e-14
2e-05
-3.82251e-14
2e-05
-4.08405e-14
2e-05
-4.36057e-14
2e-05
-4.65279e-14
2e-05
-4.96144e-14
2e-05
-5.2873e-14
2e-05
-5.63114e-14
2e-05
-5.99379e-14
2e-05
-6.37608e-14
2e-05
-6.77888e-14
2e-05
-7.20307e-14
2e-05
-7.64957e-14
2e-05
-8.11931e-14
2e-05
-8.61327e-14
2e-05
-9.13242e-14
2e-05
-9.67777e-14
2e-05
-1.02504e-13
2e-05
-1.08512e-13
2e-05
-1.14815e-13
2e-05
-1.21421e-13
2e-05
-1.28344e-13
2e-05
-1.35593e-13
2e-05
-1.43181e-13
2e-05
-1.51118e-13
2e-05
-1.59416e-13
2e-05
-1.68088e-13
2e-05
-1.77145e-13
2e-05
-1.86598e-13
2e-05
-1.96459e-13
2e-05
-2.0674e-13
2e-05
-2.17452e-13
2e-05
-2.28607e-13
2e-05
-2.40216e-13
2e-05
-2.52288e-13
2e-05
-2.64834e-13
2e-05
-2.77864e-13
2e-05
-2.91385e-13
2e-05
-3.05406e-13
2e-05
-3.19932e-13
2e-05
-3.34969e-13
2e-05
-3.50518e-13
2e-05
-3.6658e-13
2e-05
-3.83151e-13
2e-05
-4.00224e-13
2e-05
-4.17787e-13
2e-05
-4.35823e-13
2e-05
-4.54304e-13
2e-05
-4.73196e-13
2e-05
-4.92451e-13
2e-05
-5.12005e-13
2e-05
-5.31775e-13
2e-05
-5.51656e-13
2e-05
-5.71508e-13
2e-05
-5.91155e-13
2e-05
-6.10367e-13
2e-05
-6.28852e-13
2e-05
-6.46227e-13
2e-05
-6.61995e-13
2e-05
-6.7549e-13
2e-05
-6.85843e-13
-6.91586e-13
2e-05
-1.01637e-16
2e-05
-3.15058e-16
2e-05
-5.43403e-16
2e-05
-7.89703e-16
2e-05
-1.05364e-15
2e-05
-1.33498e-15
2e-05
-1.63416e-15
2e-05
-1.95212e-15
2e-05
-2.29013e-15
2e-05
-2.6497e-15
2e-05
-3.03253e-15
2e-05
-3.44047e-15
2e-05
-3.87548e-15
2e-05
-4.3396e-15
2e-05
-4.835e-15
2e-05
-5.36393e-15
2e-05
-5.92874e-15
2e-05
-6.53188e-15
2e-05
-7.17591e-15
2e-05
-7.86349e-15
2e-05
-8.59743e-15
2e-05
-9.38064e-15
2e-05
-1.02162e-14
2e-05
-1.11072e-14
2e-05
-1.2057e-14
2e-05
-1.30692e-14
2e-05
-1.41473e-14
2e-05
-1.52952e-14
2e-05
-1.65168e-14
2e-05
-1.78162e-14
2e-05
-1.91979e-14
2e-05
-2.06662e-14
2e-05
-2.2226e-14
2e-05
-2.38822e-14
2e-05
-2.56397e-14
2e-05
-2.75041e-14
2e-05
-2.94807e-14
2e-05
-3.15755e-14
2e-05
-3.37942e-14
2e-05
-3.61433e-14
2e-05
-3.8629e-14
2e-05
-4.12581e-14
2e-05
-4.40376e-14
2e-05
-4.69745e-14
2e-05
-5.00764e-14
2e-05
-5.33509e-14
2e-05
-5.68058e-14
2e-05
-6.04495e-14
2e-05
-6.42903e-14
2e-05
-6.83369e-14
2e-05
-7.25982e-14
2e-05
-7.70835e-14
2e-05
-8.18023e-14
2e-05
-8.67641e-14
2e-05
-9.19791e-14
2e-05
-9.74573e-14
2e-05
-1.03209e-13
2e-05
-1.09246e-13
2e-05
-1.15577e-13
2e-05
-1.22215e-13
2e-05
-1.29171e-13
2e-05
-1.36455e-13
2e-05
-1.44081e-13
2e-05
-1.52059e-13
2e-05
-1.60402e-13
2e-05
-1.69121e-13
2e-05
-1.78229e-13
2e-05
-1.87739e-13
2e-05
-1.97661e-13
2e-05
-2.08009e-13
2e-05
-2.18794e-13
2e-05
-2.30028e-13
2e-05
-2.41724e-13
2e-05
-2.53892e-13
2e-05
-2.66543e-13
2e-05
-2.79687e-13
2e-05
-2.93334e-13
2e-05
-3.07492e-13
2e-05
-3.22168e-13
2e-05
-3.37367e-13
2e-05
-3.53093e-13
2e-05
-3.69344e-13
2e-05
-3.86118e-13
2e-05
-4.03407e-13
2e-05
-4.21196e-13
2e-05
-4.39464e-13
2e-05
-4.58179e-13
2e-05
-4.77299e-13
2e-05
-4.96765e-13
2e-05
-5.16498e-13
2e-05
-5.36395e-13
2e-05
-5.56319e-13
2e-05
-5.76092e-13
2e-05
-5.95481e-13
2e-05
-6.14184e-13
2e-05
-6.31803e-13
2e-05
-6.47816e-13
2e-05
-6.61521e-13
2e-05
-6.71989e-13
-6.77812e-13
2e-05
-9.13711e-17
2e-05
-2.83742e-16
2e-05
-4.90879e-16
2e-05
-7.16058e-16
2e-05
-9.59032e-16
2e-05
-1.21948e-15
2e-05
-1.49766e-15
2e-05
-1.7943e-15
2e-05
-2.11043e-15
2e-05
-2.44735e-15
2e-05
-2.80656e-15
2e-05
-3.18972e-15
2e-05
-3.59861e-15
2e-05
-4.03512e-15
2e-05
-4.50126e-15
2e-05
-4.99914e-15
2e-05
-5.53096e-15
2e-05
-6.09904e-15
2e-05
-6.70581e-15
2e-05
-7.35379e-15
2e-05
-8.04564e-15
2e-05
-8.78413e-15
2e-05
-9.57216e-15
2e-05
-1.04128e-14
2e-05
-1.13092e-14
2e-05
-1.22646e-14
2e-05
-1.32827e-14
2e-05
-1.43669e-14
2e-05
-1.55211e-14
2e-05
-1.67493e-14
2e-05
-1.80557e-14
2e-05
-1.94445e-14
2e-05
-2.09203e-14
2e-05
-2.24878e-14
2e-05
-2.41519e-14
2e-05
-2.59177e-14
2e-05
-2.77906e-14
2e-05
-2.97761e-14
2e-05
-3.18801e-14
2e-05
-3.41084e-14
2e-05
-3.64674e-14
2e-05
-3.89634e-14
2e-05
-4.16033e-14
2e-05
-4.43939e-14
2e-05
-4.73425e-14
2e-05
-5.04565e-14
2e-05
-5.37437e-14
2e-05
-5.72119e-14
2e-05
-6.08695e-14
2e-05
-6.4725e-14
2e-05
-6.8787e-14
2e-05
-7.30646e-14
2e-05
-7.75671e-14
2e-05
-8.23041e-14
2e-05
-8.72854e-14
2e-05
-9.2521e-14
2e-05
-9.80214e-14
2e-05
-1.03797e-13
2e-05
-1.09859e-13
2e-05
-1.16218e-13
2e-05
-1.22885e-13
2e-05
-1.29873e-13
2e-05
-1.37193e-13
2e-05
-1.44856e-13
2e-05
-1.52876e-13
2e-05
-1.61264e-13
2e-05
-1.70033e-13
2e-05
-1.79196e-13
2e-05
-1.88766e-13
2e-05
-1.98754e-13
2e-05
-2.09175e-13
2e-05
-2.20041e-13
2e-05
-2.31364e-13
2e-05
-2.43157e-13
2e-05
-2.55433e-13
2e-05
-2.68203e-13
2e-05
-2.81478e-13
2e-05
-2.95268e-13
2e-05
-3.09583e-13
2e-05
-3.2443e-13
2e-05
-3.39815e-13
2e-05
-3.5574e-13
2e-05
-3.72206e-13
2e-05
-3.89208e-13
2e-05
-4.06734e-13
2e-05
-4.24768e-13
2e-05
-4.43282e-13
2e-05
-4.62237e-13
2e-05
-4.81577e-13
2e-05
-5.01227e-13
2e-05
-5.21086e-13
2e-05
-5.41018e-13
2e-05
-5.60843e-13
2e-05
-5.80324e-13
2e-05
-5.9915e-13
2e-05
-6.16912e-13
2e-05
-6.33069e-13
2e-05
-6.46898e-13
2e-05
-6.57439e-13
-6.63433e-13
2e-05
-8.19006e-17
2e-05
-2.5471e-16
2e-05
-4.41879e-16
2e-05
-6.46893e-16
2e-05
-8.69591e-16
2e-05
-1.10963e-15
2e-05
-1.36718e-15
2e-05
-1.64278e-15
2e-05
-1.9373e-15
2e-05
-2.25187e-15
2e-05
-2.58779e-15
2e-05
-2.94654e-15
2e-05
-3.32974e-15
2e-05
-3.73915e-15
2e-05
-4.17661e-15
2e-05
-4.64409e-15
2e-05
-5.14365e-15
2e-05
-5.67747e-15
2e-05
-6.24784e-15
2e-05
-6.85715e-15
2e-05
-7.50792e-15
2e-05
-8.20278e-15
2e-05
-8.9445e-15
2e-05
-9.73596e-15
2e-05
-1.05802e-14
2e-05
-1.14804e-14
2e-05
-1.24398e-14
2e-05
-1.3462e-14
2e-05
-1.45506e-14
2e-05
-1.57093e-14
2e-05
-1.69422e-14
2e-05
-1.82534e-14
2e-05
-1.96473e-14
2e-05
-2.11283e-14
2e-05
-2.27012e-14
2e-05
-2.4371e-14
2e-05
-2.61427e-14
2e-05
-2.80217e-14
2e-05
-3.00136e-14
2e-05
-3.21242e-14
2e-05
-3.43595e-14
2e-05
-3.67257e-14
2e-05
-3.92293e-14
2e-05
-4.18771e-14
2e-05
-4.46761e-14
2e-05
-4.76335e-14
2e-05
-5.07568e-14
2e-05
-5.40538e-14
2e-05
-5.75325e-14
2e-05
-6.12012e-14
2e-05
-6.50685e-14
2e-05
-6.91432e-14
2e-05
-7.34345e-14
2e-05
-7.79517e-14
2e-05
-8.27045e-14
2e-05
-8.7703e-14
2e-05
-9.29572e-14
2e-05
-9.84779e-14
2e-05
-1.04276e-13
2e-05
-1.10362e-13
2e-05
-1.16747e-13
2e-05
-1.23444e-13
2e-05
-1.30464e-13
2e-05
-1.37819e-13
2e-05
-1.45522e-13
2e-05
-1.53586e-13
2e-05
-1.62022e-13
2e-05
-1.70845e-13
2e-05
-1.80067e-13
2e-05
-1.89702e-13
2e-05
-1.99764e-13
2e-05
-2.10266e-13
2e-05
-2.21221e-13
2e-05
-2.32644e-13
2e-05
-2.44548e-13
2e-05
-2.56946e-13
2e-05
-2.69851e-13
2e-05
-2.83274e-13
2e-05
-2.97227e-13
2e-05
-3.11719e-13
2e-05
-3.26758e-13
2e-05
-3.42351e-13
2e-05
-3.58499e-13
2e-05
-3.75201e-13
2e-05
-3.92448e-13
2e-05
-4.10228e-13
2e-05
-4.28515e-13
2e-05
-4.47273e-13
2e-05
-4.6645e-13
2e-05
-4.85973e-13
2e-05
-5.05742e-13
2e-05
-5.2562e-13
2e-05
-5.45428e-13
2e-05
-5.64924e-13
2e-05
-5.83791e-13
2e-05
-6.01609e-13
2e-05
-6.17826e-13
2e-05
-6.31711e-13
2e-05
-6.42312e-13
-6.48482e-13
2e-05
-7.31232e-17
2e-05
-2.27698e-16
2e-05
-3.96088e-16
2e-05
-5.81921e-16
2e-05
-7.85127e-16
2e-05
-1.00538e-15
2e-05
-1.24278e-15
2e-05
-1.49777e-15
2e-05
-1.77108e-15
2e-05
-2.06368e-15
2e-05
-2.37671e-15
2e-05
-2.71152e-15
2e-05
-3.06956e-15
2e-05
-3.45243e-15
2e-05
-3.86184e-15
2e-05
-4.29961e-15
2e-05
-4.76767e-15
2e-05
-5.26807e-15
2e-05
-5.80296e-15
2e-05
-6.3746e-15
2e-05
-6.98536e-15
2e-05
-7.63775e-15
2e-05
-8.33437e-15
2e-05
-9.07799e-15
2e-05
-9.87148e-15
2e-05
-1.07179e-14
2e-05
-1.16203e-14
2e-05
-1.25821e-14
2e-05
-1.36068e-14
2e-05
-1.46979e-14
2e-05
-1.58594e-14
2e-05
-1.70951e-14
2e-05
-1.84092e-14
2e-05
-1.98061e-14
2e-05
-2.12904e-14
2e-05
-2.28666e-14
2e-05
-2.45398e-14
2e-05
-2.63152e-14
2e-05
-2.8198e-14
2e-05
-3.0194e-14
2e-05
-3.23088e-14
2e-05
-3.45485e-14
2e-05
-3.69195e-14
2e-05
-3.94282e-14
2e-05
-4.20814e-14
2e-05
-4.48862e-14
2e-05
-4.78499e-14
2e-05
-5.098e-14
2e-05
-5.42843e-14
2e-05
-5.7771e-14
2e-05
-6.14484e-14
2e-05
-6.53253e-14
2e-05
-6.94105e-14
2e-05
-7.37133e-14
2e-05
-7.82432e-14
2e-05
-8.30102e-14
2e-05
-8.80242e-14
2e-05
-9.32959e-14
2e-05
-9.88358e-14
2e-05
-1.04655e-13
2e-05
-1.10765e-13
2e-05
-1.17178e-13
2e-05
-1.23904e-13
2e-05
-1.30958e-13
2e-05
-1.3835e-13
2e-05
-1.46095e-13
2e-05
-1.54205e-13
2e-05
-1.62694e-13
2e-05
-1.71575e-13
2e-05
-1.80863e-13
2e-05
-1.90572e-13
2e-05
-2.00715e-13
2e-05
-2.11308e-13
2e-05
-2.22365e-13
2e-05
-2.33901e-13
2e-05
-2.45929e-13
2e-05
-2.58465e-13
2e-05
-2.71521e-13
2e-05
-2.8511e-13
2e-05
-2.99245e-13
2e-05
-3.13935e-13
2e-05
-3.29187e-13
2e-05
-3.45008e-13
2e-05
-3.61396e-13
2e-05
-3.78349e-13
2e-05
-3.95853e-13
2e-05
-4.13888e-13
2e-05
-4.32419e-13
2e-05
-4.51397e-13
2e-05
-4.70749e-13
2e-05
-4.90378e-13
2e-05
-5.10147e-13
2e-05
-5.29874e-13
2e-05
-5.49316e-13
2e-05
-5.6815e-13
2e-05
-5.85951e-13
2e-05
-6.02163e-13
2e-05
-6.16053e-13
2e-05
-6.26687e-13
-6.32953e-13
2e-05
-6.49553e-17
2e-05
-2.02511e-16
2e-05
-3.53249e-16
2e-05
-5.20889e-16
2e-05
-7.05449e-16
2e-05
-9.06626e-16
2e-05
-1.12449e-15
2e-05
-1.35941e-15
2e-05
-1.612e-15
2e-05
-1.88312e-15
2e-05
-2.17378e-15
2e-05
-2.48516e-15
2e-05
-2.81861e-15
2e-05
-3.17556e-15
2e-05
-3.5576e-15
2e-05
-3.96642e-15
2e-05
-4.40382e-15
2e-05
-4.87169e-15
2e-05
-5.37207e-15
2e-05
-5.90708e-15
2e-05
-6.47896e-15
2e-05
-7.09007e-15
2e-05
-7.7429e-15
2e-05
-8.44006e-15
2e-05
-9.18428e-15
2e-05
-9.97843e-15
2e-05
-1.08255e-14
2e-05
-1.17287e-14
2e-05
-1.26914e-14
2e-05
-1.37169e-14
2e-05
-1.4809e-14
2e-05
-1.59714e-14
2e-05
-1.72081e-14
2e-05
-1.85234e-14
2e-05
-1.99214e-14
2e-05
-2.14069e-14
2e-05
-2.29844e-14
2e-05
-2.46591e-14
2e-05
-2.6436e-14
2e-05
-2.83205e-14
2e-05
-3.03183e-14
2e-05
-3.24352e-14
2e-05
-3.46772e-14
2e-05
-3.70507e-14
2e-05
-3.95623e-14
2e-05
-4.22187e-14
2e-05
-4.50271e-14
2e-05
-4.79949e-14
2e-05
-5.11296e-14
2e-05
-5.44392e-14
2e-05
-5.79318e-14
2e-05
-6.16161e-14
2e-05
-6.55006e-14
2e-05
-6.95946e-14
2e-05
-7.39075e-14
2e-05
-7.84488e-14
2e-05
-8.32288e-14
2e-05
-8.82576e-14
2e-05
-9.3546e-14
2e-05
-9.91051e-14
2e-05
-1.04946e-13
2e-05
-1.11081e-13
2e-05
-1.17521e-13
2e-05
-1.24279e-13
2e-05
-1.31369e-13
2e-05
-1.38802e-13
2e-05
-1.46592e-13
2e-05
-1.54754e-13
2e-05
-1.63301e-13
2e-05
-1.72247e-13
2e-05
-1.81608e-13
2e-05
-1.91398e-13
2e-05
-2.01633e-13
2e-05
-2.12329e-13
2e-05
-2.23499e-13
2e-05
-2.35161e-13
2e-05
-2.47329e-13
2e-05
-2.60019e-13
2e-05
-2.73244e-13
2e-05
-2.87018e-13
2e-05
-3.01353e-13
2e-05
-3.16259e-13
2e-05
-3.31742e-13
2e-05
-3.47805e-13
2e-05
-3.64445e-13
2e-05
-3.81654e-13
2e-05
-3.99412e-13
2e-05
-4.17686e-13
2e-05
-4.3643e-13
2e-05
-4.55572e-13
2e-05
-4.75014e-13
2e-05
-4.94621e-13
2e-05
-5.1421e-13
2e-05
-5.33536e-13
2e-05
-5.52274e-13
2e-05
-5.69996e-13
2e-05
-5.86146e-13
2e-05
-5.99995e-13
2e-05
-6.1062e-13
-6.16907e-13
2e-05
-5.73463e-17
2e-05
-1.79006e-16
2e-05
-3.13162e-16
2e-05
-4.63585e-16
2e-05
-6.30372e-16
2e-05
-8.13253e-16
2e-05
-1.01227e-15
2e-05
-1.22774e-15
2e-05
-1.46022e-15
2e-05
-1.71043e-15
2e-05
-1.97929e-15
2e-05
-2.26786e-15
2e-05
-2.57735e-15
2e-05
-2.90908e-15
2e-05
-3.2645e-15
2e-05
-3.64517e-15
2e-05
-4.05276e-15
2e-05
-4.48905e-15
2e-05
-4.95593e-15
2e-05
-5.45541e-15
2e-05
-5.98958e-15
2e-05
-6.56069e-15
2e-05
-7.17108e-15
2e-05
-7.82321e-15
2e-05
-8.51969e-15
2e-05
-9.26324e-15
2e-05
-1.00567e-14
2e-05
-1.09032e-14
2e-05
-1.18057e-14
2e-05
-1.27677e-14
2e-05
-1.37926e-14
2e-05
-1.4884e-14
2e-05
-1.60457e-14
2e-05
-1.72818e-14
2e-05
-1.85964e-14
2e-05
-1.99938e-14
2e-05
-2.14787e-14
2e-05
-2.30558e-14
2e-05
-2.473e-14
2e-05
-2.65065e-14
2e-05
-2.83908e-14
2e-05
-3.03885e-14
2e-05
-3.25054e-14
2e-05
-3.47478e-14
2e-05
-3.71219e-14
2e-05
-3.96343e-14
2e-05
-4.22921e-14
2e-05
-4.51022e-14
2e-05
-4.80722e-14
2e-05
-5.12098e-14
2e-05
-5.4523e-14
2e-05
-5.802e-14
2e-05
-6.17096e-14
2e-05
-6.56006e-14
2e-05
-6.97023e-14
2e-05
-7.40242e-14
2e-05
-7.85763e-14
2e-05
-8.33688e-14
2e-05
-8.84123e-14
2e-05
-9.37177e-14
2e-05
-9.92965e-14
2e-05
-1.0516e-13
2e-05
-1.11321e-13
2e-05
-1.17791e-13
2e-05
-1.24584e-13
2e-05
-1.31712e-13
2e-05
-1.3919e-13
2e-05
-1.47031e-13
2e-05
-1.5525e-13
2e-05
-1.63861e-13
2e-05
-1.72881e-13
2e-05
-1.82323e-13
2e-05
-1.92206e-13
2e-05
-2.02543e-13
2e-05
-2.13353e-13
2e-05
-2.24651e-13
2e-05
-2.36453e-13
2e-05
-2.48776e-13
2e-05
-2.61636e-13
2e-05
-2.75047e-13
2e-05
-2.89022e-13
2e-05
-3.03573e-13
2e-05
-3.18709e-13
2e-05
-3.34434e-13
2e-05
-3.50747e-13
2e-05
-3.6764e-13
2e-05
-3.85097e-13
2e-05
-4.03087e-13
2e-05
-4.21563e-13
2e-05
-4.40456e-13
2e-05
-4.59669e-13
2e-05
-4.79067e-13
2e-05
-4.98466e-13
2e-05
-5.17621e-13
2e-05
-5.36207e-13
2e-05
-5.53797e-13
2e-05
-5.69834e-13
2e-05
-5.83597e-13
2e-05
-5.9417e-13
-6.00436e-13
2e-05
-5.02514e-17
2e-05
-1.57055e-16
2e-05
-2.75653e-16
2e-05
-4.0983e-16
2e-05
-5.59737e-16
2e-05
-7.25128e-16
2e-05
-9.06051e-16
2e-05
-1.10278e-15
2e-05
-1.3158e-15
2e-05
-1.54577e-15
2e-05
-1.79349e-15
2e-05
-2.05992e-15
2e-05
-2.34616e-15
2e-05
-2.65341e-15
2e-05
-2.983e-15
2e-05
-3.33638e-15
2e-05
-3.71509e-15
2e-05
-4.12078e-15
2e-05
-4.55524e-15
2e-05
-5.02032e-15
2e-05
-5.51801e-15
2e-05
-6.05042e-15
2e-05
-6.61976e-15
2e-05
-7.22836e-15
2e-05
-7.87869e-15
2e-05
-8.57333e-15
2e-05
-9.315e-15
2e-05
-1.01066e-14
2e-05
-1.09511e-14
2e-05
-1.18516e-14
2e-05
-1.28115e-14
2e-05
-1.38343e-14
2e-05
-1.49235e-14
2e-05
-1.60831e-14
2e-05
-1.73169e-14
2e-05
-1.86293e-14
2e-05
-2.00245e-14
2e-05
-2.15071e-14
2e-05
-2.3082e-14
2e-05
-2.4754e-14
2e-05
-2.65285e-14
2e-05
-2.84108e-14
2e-05
-3.04067e-14
2e-05
-3.2522e-14
2e-05
-3.4763e-14
2e-05
-3.7136e-14
2e-05
-3.96477e-14
2e-05
-4.23052e-14
2e-05
-4.51155e-14
2e-05
-4.80863e-14
2e-05
-5.12254e-14
2e-05
-5.45409e-14
2e-05
-5.80413e-14
2e-05
-6.17352e-14
2e-05
-6.56319e-14
2e-05
-6.97406e-14
2e-05
-7.40713e-14
2e-05
-7.8634e-14
2e-05
-8.34393e-14
2e-05
-8.8498e-14
2e-05
-9.38215e-14
2e-05
-9.94213e-14
2e-05
-1.0531e-13
2e-05
-1.11499e-13
2e-05
-1.18002e-13
2e-05
-1.24833e-13
2e-05
-1.32005e-13
2e-05
-1.39532e-13
2e-05
-1.47429e-13
2e-05
-1.55712e-13
2e-05
-1.64396e-13
2e-05
-1.73496e-13
2e-05
-1.83031e-13
2e-05
-1.93015e-13
2e-05
-2.03467e-13
2e-05
-2.14404e-13
2e-05
-2.25842e-13
2e-05
-2.378e-13
2e-05
-2.50293e-13
2e-05
-2.63337e-13
2e-05
-2.76948e-13
2e-05
-2.91138e-13
2e-05
-3.05917e-13
2e-05
-3.21291e-13
2e-05
-3.37261e-13
2e-05
-3.53821e-13
2e-05
-3.70954e-13
2e-05
-3.88633e-13
2e-05
-4.06811e-13
2e-05
-4.2542e-13
2e-05
-4.44365e-13
2e-05
-4.6351e-13
2e-05
-4.82672e-13
2e-05
-5.01608e-13
2e-05
-5.19992e-13
2e-05
-5.374e-13
2e-05
-5.53279e-13
2e-05
-5.66916e-13
2e-05
-5.77401e-13
-5.83617e-13
2e-05
-4.36381e-17
2e-05
-1.3657e-16
2e-05
-2.40584e-16
2e-05
-3.59459e-16
2e-05
-4.93379e-16
2e-05
-6.42133e-16
2e-05
-8.05756e-16
2e-05
-9.84501e-16
2e-05
-1.1788e-15
2e-05
-1.38923e-15
2e-05
-1.61653e-15
2e-05
-1.86157e-15
2e-05
-2.12532e-15
2e-05
-2.40889e-15
2e-05
-2.71351e-15
2e-05
-3.0405e-15
2e-05
-3.39129e-15
2e-05
-3.76743e-15
2e-05
-4.17056e-15
2e-05
-4.60243e-15
2e-05
-5.06491e-15
2e-05
-5.55998e-15
2e-05
-6.08971e-15
2e-05
-6.65632e-15
2e-05
-7.26212e-15
2e-05
-7.90958e-15
2e-05
-8.60128e-15
2e-05
-9.33992e-15
2e-05
-1.01284e-14
2e-05
-1.09697e-14
2e-05
-1.18669e-14
2e-05
-1.28235e-14
2e-05
-1.38428e-14
2e-05
-1.49285e-14
2e-05
-1.60845e-14
2e-05
-1.73147e-14
2e-05
-1.86233e-14
2e-05
-2.00148e-14
2e-05
-2.14937e-14
2e-05
-2.30649e-14
2e-05
-2.47333e-14
2e-05
-2.65042e-14
2e-05
-2.83831e-14
2e-05
-3.03757e-14
2e-05
-3.24879e-14
2e-05
-3.47261e-14
2e-05
-3.70966e-14
2e-05
-3.96063e-14
2e-05
-4.22622e-14
2e-05
-4.50716e-14
2e-05
-4.80422e-14
2e-05
-5.11818e-14
2e-05
-5.44988e-14
2e-05
-5.80018e-14
2e-05
-6.16996e-14
2e-05
-6.56017e-14
2e-05
-6.97175e-14
2e-05
-7.40572e-14
2e-05
-7.86311e-14
2e-05
-8.345e-14
2e-05
-8.85252e-14
2e-05
-9.38682e-14
2e-05
-9.94913e-14
2e-05
-1.05407e-13
2e-05
-1.11628e-13
2e-05
-1.18168e-13
2e-05
-1.25041e-13
2e-05
-1.32261e-13
2e-05
-1.39844e-13
2e-05
-1.47804e-13
2e-05
-1.56158e-13
2e-05
-1.64922e-13
2e-05
-1.74114e-13
2e-05
-1.8375e-13
2e-05
-1.93848e-13
2e-05
-2.04426e-13
2e-05
-2.15502e-13
2e-05
-2.27094e-13
2e-05
-2.39219e-13
2e-05
-2.51895e-13
2e-05
-2.65137e-13
2e-05
-2.78959e-13
2e-05
-2.93372e-13
2e-05
-3.08384e-13
2e-05
-3.23997e-13
2e-05
-3.40205e-13
2e-05
-3.56994e-13
2e-05
-3.74336e-13
2e-05
-3.92188e-13
2e-05
-4.10481e-13
2e-05
-4.29121e-13
2e-05
-4.47973e-13
2e-05
-4.66858e-13
2e-05
-4.8553e-13
2e-05
-5.03669e-13
2e-05
-5.20852e-13
2e-05
-5.36532e-13
2e-05
-5.50005e-13
2e-05
-5.60372e-13
-5.66517e-13
2e-05
-3.74793e-17
2e-05
-1.17473e-16
2e-05
-2.07846e-16
2e-05
-3.12339e-16
2e-05
-4.31168e-16
2e-05
-5.64136e-16
2e-05
-7.11287e-16
2e-05
-8.72847e-16
2e-05
-1.0492e-15
2e-05
-1.24088e-15
2e-05
-1.44854e-15
2e-05
-1.67296e-15
2e-05
-1.91505e-15
2e-05
-2.1758e-15
2e-05
-2.45634e-15
2e-05
-2.75789e-15
2e-05
-3.08177e-15
2e-05
-3.42943e-15
2e-05
-3.80238e-15
2e-05
-4.20227e-15
2e-05
-4.63084e-15
2e-05
-5.08994e-15
2e-05
-5.58155e-15
2e-05
-6.10774e-15
2e-05
-6.6707e-15
2e-05
-7.27276e-15
2e-05
-7.91635e-15
2e-05
-8.60407e-15
2e-05
-9.33862e-15
2e-05
-1.01229e-14
2e-05
-1.09598e-14
2e-05
-1.18526e-14
2e-05
-1.28046e-14
2e-05
-1.38192e-14
2e-05
-1.49002e-14
2e-05
-1.60513e-14
2e-05
-1.72766e-14
2e-05
-1.85803e-14
2e-05
-1.99667e-14
2e-05
-2.14406e-14
2e-05
-2.30068e-14
2e-05
-2.46703e-14
2e-05
-2.64363e-14
2e-05
-2.83105e-14
2e-05
-3.02986e-14
2e-05
-3.24066e-14
2e-05
-3.46408e-14
2e-05
-3.70078e-14
2e-05
-3.95145e-14
2e-05
-4.21679e-14
2e-05
-4.49755e-14
2e-05
-4.79451e-14
2e-05
-5.10848e-14
2e-05
-5.44029e-14
2e-05
-5.79083e-14
2e-05
-6.16101e-14
2e-05