/*--------------------------------*- C++ -*----------------------------------*\
  =========                 |
  \\      /  F ield         | OpenFOAM: The Open Source CFD Toolbox
   \\    /   O peration     | Website:  https://openfoam.org
    \\  /    A nd           | Version:  11
     \\/     M anipulation  |
\*---------------------------------------------------------------------------*/
FoamFile
{
    format      ascii;
    class       volVectorField;
    location    "1776";
    object      U;
}
// * * * * * * * * * * * * * * * * * * * * * * * * * * * * * * * * * * * * * //

dimensions      [0 1 -1 0 0 0 0];

internalField   nonuniform List<vector> 
10000
(
(0.005 -6.33319e-14 0)
(0.005 -1.73109e-13 0)
(0.005 -2.76465e-13 0)
(0.005 -3.79483e-13 0)
(0.005 -4.84804e-13 0)
(0.005 -5.93895e-13 0)
(0.005 -7.07911e-13 0)
(0.005 -8.27824e-13 0)
(0.005 -9.54505e-13 0)
(0.005 -1.08877e-12 0)
(0.005 -1.23139e-12 0)
(0.005 -1.38315e-12 0)
(0.005 -1.54482e-12 0)
(0.005 -1.71718e-12 0)
(0.005 -1.90101e-12 0)
(0.005 -2.09714e-12 0)
(0.005 -2.30641e-12 0)
(0.005 -2.52967e-12 0)
(0.005 -2.76783e-12 0)
(0.005 -3.02183e-12 0)
(0.005 -3.29263e-12 0)
(0.005 -3.58124e-12 0)
(0.005 -3.88872e-12 0)
(0.005 -4.21615e-12 0)
(0.005 -4.56467e-12 0)
(0.005 -4.93548e-12 0)
(0.005 -5.32981e-12 0)
(0.005 -5.74895e-12 0)
(0.005 -6.19423e-12 0)
(0.005 -6.66705e-12 0)
(0.005 -7.16886e-12 0)
(0.005 -7.70117e-12 0)
(0.005 -8.26552e-12 0)
(0.005 -8.86355e-12 0)
(0.005 -9.49694e-12 0)
(0.005 -1.01674e-11 0)
(0.005 -1.08768e-11 0)
(0.005 -1.1627e-11 0)
(0.005 -1.24198e-11 0)
(0.005 -1.32573e-11 0)
(0.005 -1.41416e-11 0)
(0.005 -1.50746e-11 0)
(0.005 -1.60587e-11 0)
(0.005 -1.70961e-11 0)
(0.005 -1.8189e-11 0)
(0.005 -1.93398e-11 0)
(0.005 -2.05508e-11 0)
(0.005 -2.18247e-11 0)
(0.005 -2.31638e-11 0)
(0.005 -2.45708e-11 0)
(0.005 -2.60482e-11 0)
(0.005 -2.75988e-11 0)
(0.005 -2.92251e-11 0)
(0.005 -3.09298e-11 0)
(0.005 -3.27159e-11 0)
(0.005 -3.45859e-11 0)
(0.005 -3.65426e-11 0)
(0.005 -3.85888e-11 0)
(0.005 -4.07273e-11 0)
(0.005 -4.29607e-11 0)
(0.005 -4.52918e-11 0)
(0.005 -4.77232e-11 0)
(0.005 -5.02574e-11 0)
(0.005 -5.2897e-11 0)
(0.005 -5.56442e-11 0)
(0.005 -5.85015e-11 0)
(0.005 -6.14707e-11 0)
(0.005 -6.45539e-11 0)
(0.005 -6.77527e-11 0)
(0.005 -7.10685e-11 0)
(0.005 -7.45024e-11 0)
(0.005 -7.80551e-11 0)
(0.005 -8.17271e-11 0)
(0.005 -8.55182e-11 0)
(0.005 -8.94276e-11 0)
(0.005 -9.34541e-11 0)
(0.005 -9.75955e-11 0)
(0.005 -1.01849e-10 0)
(0.005 -1.0621e-10 0)
(0.005 -1.10675e-10 0)
(0.005 -1.15236e-10 0)
(0.005 -1.19885e-10 0)
(0.005 -1.24613e-10 0)
(0.005 -1.29408e-10 0)
(0.005 -1.34254e-10 0)
(0.005 -1.39134e-10 0)
(0.005 -1.44027e-10 0)
(0.005 -1.48907e-10 0)
(0.005 -1.53745e-10 0)
(0.005 -1.58504e-10 0)
(0.005 -1.63141e-10 0)
(0.005 -1.67606e-10 0)
(0.005 -1.71839e-10 0)
(0.005 -1.75772e-10 0)
(0.005 -1.79326e-10 0)
(0.005 -1.82409e-10 0)
(0.005 -1.84924e-10 0)
(0.005 -1.86766e-10 0)
(0.005 -1.87866e-10 0)
(0.005 -1.88347e-10 0)
(0.005 -5.38684e-14 0)
(0.005 -1.54554e-13 0)
(0.005 -2.52106e-13 0)
(0.005 -3.50069e-13 0)
(0.005 -4.50366e-13 0)
(0.005 -5.54279e-13 0)
(0.005 -6.62864e-13 0)
(0.005 -7.77033e-13 0)
(0.005 -8.97614e-13 0)
(0.005 -1.02538e-12 0)
(0.005 -1.16109e-12 0)
(0.005 -1.30547e-12 0)
(0.005 -1.45926e-12 0)
(0.005 -1.62321e-12 0)
(0.005 -1.79808e-12 0)
(0.005 -1.98464e-12 0)
(0.005 -2.18371e-12 0)
(0.005 -2.39612e-12 0)
(0.005 -2.62271e-12 0)
(0.005 -2.86439e-12 0)
(0.005 -3.12209e-12 0)
(0.005 -3.39678e-12 0)
(0.005 -3.68945e-12 0)
(0.005 -4.00117e-12 0)
(0.005 -4.33302e-12 0)
(0.005 -4.68614e-12 0)
(0.005 -5.06173e-12 0)
(0.005 -5.46101e-12 0)
(0.005 -5.88528e-12 0)
(0.005 -6.33587e-12 0)
(0.005 -6.81418e-12 0)
(0.005 -7.32166e-12 0)
(0.005 -7.8598e-12 0)
(0.005 -8.43018e-12 0)
(0.005 -9.0344e-12 0)
(0.005 -9.67416e-12 0)
(0.005 -1.03512e-11 0)
(0.005 -1.10673e-11 0)
(0.005 -1.18243e-11 0)
(0.005 -1.26242e-11 0)
(0.005 -1.34689e-11 0)
(0.005 -1.43605e-11 0)
(0.005 -1.53011e-11 0)
(0.005 -1.62929e-11 0)
(0.005 -1.7338e-11 0)
(0.005 -1.84389e-11 0)
(0.005 -1.95977e-11 0)
(0.005 -2.0817e-11 0)
(0.005 -2.20991e-11 0)
(0.005 -2.34466e-11 0)
(0.005 -2.48621e-11 0)
(0.005 -2.6348e-11 0)
(0.005 -2.79071e-11 0)
(0.005 -2.95421e-11 0)
(0.005 -3.12556e-11 0)
(0.005 -3.30503e-11 0)
(0.005 -3.4929e-11 0)
(0.005 -3.68945e-11 0)
(0.005 -3.89494e-11 0)
(0.005 -4.10966e-11 0)
(0.005 -4.33387e-11 0)
(0.005 -4.56784e-11 0)
(0.005 -4.81183e-11 0)
(0.005 -5.0661e-11 0)
(0.005 -5.33089e-11 0)
(0.005 -5.60645e-11 0)
(0.005 -5.89299e-11 0)
(0.005 -6.19073e-11 0)
(0.005 -6.49984e-11 0)
(0.005 -6.82051e-11 0)
(0.005 -7.15287e-11 0)
(0.005 -7.49704e-11 0)
(0.005 -7.85308e-11 0)
(0.005 -8.22103e-11 0)
(0.005 -8.60088e-11 0)
(0.005 -8.99255e-11 0)
(0.005 -9.39592e-11 0)
(0.005 -9.81077e-11 0)
(0.005 -1.02368e-10 0)
(0.005 -1.06736e-10 0)
(0.005 -1.11207e-10 0)
(0.005 -1.15773e-10 0)
(0.005 -1.20426e-10 0)
(0.005 -1.25157e-10 0)
(0.005 -1.29952e-10 0)
(0.005 -1.34796e-10 0)
(0.005 -1.3967e-10 0)
(0.005 -1.44552e-10 0)
(0.005 -1.49414e-10 0)
(0.005 -1.54224e-10 0)
(0.005 -1.58943e-10 0)
(0.005 -1.63524e-10 0)
(0.005 -1.67915e-10 0)
(0.005 -1.72051e-10 0)
(0.005 -1.75859e-10 0)
(0.005 -1.79258e-10 0)
(0.005 -1.82156e-10 0)
(0.005 -1.84457e-10 0)
(0.005 -1.86077e-10 0)
(0.005 -1.87016e-10 0)
(0.005 -4.61733e-14 0)
(0.005 -1.37495e-13 0)
(0.005 -2.28655e-13 0)
(0.005 -3.21259e-13 0)
(0.005 -4.1646e-13 0)
(0.005 -5.15232e-13 0)
(0.005 -6.18476e-13 0)
(0.005 -7.27023e-13 0)
(0.005 -8.41642e-13 0)
(0.005 -9.6307e-13 0)
(0.005 -1.09202e-12 0)
(0.005 -1.2292e-12 0)
(0.005 -1.37531e-12 0)
(0.005 -1.53107e-12 0)
(0.005 -1.6972e-12 0)
(0.005 -1.87446e-12 0)
(0.005 -2.0636e-12 0)
(0.005 -2.26543e-12 0)
(0.005 -2.48076e-12 0)
(0.005 -2.71046e-12 0)
(0.005 -2.95542e-12 0)
(0.005 -3.21656e-12 0)
(0.005 -3.49485e-12 0)
(0.005 -3.7913e-12 0)
(0.005 -4.10695e-12 0)
(0.005 -4.4429e-12 0)
(0.005 -4.80029e-12 0)
(0.005 -5.1803e-12 0)
(0.005 -5.58418e-12 0)
(0.005 -6.01321e-12 0)
(0.005 -6.46873e-12 0)
(0.005 -6.95213e-12 0)
(0.005 -7.46486e-12 0)
(0.005 -8.00844e-12 0)
(0.005 -8.58441e-12 0)
(0.005 -9.1944e-12 0)
(0.005 -9.8401e-12 0)
(0.005 -1.05232e-11 0)
(0.005 -1.12456e-11 0)
(0.005 -1.2009e-11 0)
(0.005 -1.28155e-11 0)
(0.005 -1.3667e-11 0)
(0.005 -1.45655e-11 0)
(0.005 -1.55132e-11 0)
(0.005 -1.65122e-11 0)
(0.005 -1.75647e-11 0)
(0.005 -1.8673e-11 0)
(0.005 -1.98395e-11 0)
(0.005 -2.10666e-11 0)
(0.005 -2.23567e-11 0)
(0.005 -2.37122e-11 0)
(0.005 -2.51358e-11 0)
(0.005 -2.66301e-11 0)
(0.005 -2.81976e-11 0)
(0.005 -2.98411e-11 0)
(0.005 -3.15632e-11 0)
(0.005 -3.33666e-11 0)
(0.005 -3.52541e-11 0)
(0.005 -3.72285e-11 0)
(0.005 -3.92924e-11 0)
(0.005 -4.14486e-11 0)
(0.005 -4.36999e-11 0)
(0.005 -4.60488e-11 0)
(0.005 -4.84981e-11 0)
(0.005 -5.10503e-11 0)
(0.005 -5.37079e-11 0)
(0.005 -5.64733e-11 0)
(0.005 -5.93486e-11 0)
(0.005 -6.23362e-11 0)
(0.005 -6.54377e-11 0)
(0.005 -6.8655e-11 0)
(0.005 -7.19896e-11 0)
(0.005 -7.54425e-11 0)
(0.005 -7.90146e-11 0)
(0.005 -8.27062e-11 0)
(0.005 -8.65173e-11 0)
(0.005 -9.04471e-11 0)
(0.005 -9.44944e-11 0)
(0.005 -9.86571e-11 0)
(0.005 -1.02932e-10 0)
(0.005 -1.07315e-10 0)
(0.005 -1.11801e-10 0)
(0.005 -1.16383e-10 0)
(0.005 -1.21052e-10 0)
(0.005 -1.25797e-10 0)
(0.005 -1.30605e-10 0)
(0.005 -1.35459e-10 0)
(0.005 -1.4034e-10 0)
(0.005 -1.45224e-10 0)
(0.005 -1.5008e-10 0)
(0.005 -1.54873e-10 0)
(0.005 -1.59562e-10 0)
(0.005 -1.64096e-10 0)
(0.005 -1.68416e-10 0)
(0.005 -1.72454e-10 0)
(0.005 -1.7613e-10 0)
(0.005 -1.79353e-10 0)
(0.005 -1.8202e-10 0)
(0.005 -1.84034e-10 0)
(0.005 -1.85348e-10 0)
(0.005 -4.09612e-14 0)
(0.005 -1.23933e-13 0)
(0.005 -2.08588e-13 0)
(0.005 -2.95755e-13 0)
(0.005 -3.85973e-13 0)
(0.005 -4.79871e-13 0)
(0.005 -5.78157e-13 0)
(0.005 -6.81542e-13 0)
(0.005 -7.90725e-13 0)
(0.005 -9.06391e-13 0)
(0.005 -1.02921e-12 0)
(0.005 -1.15986e-12 0)
(0.005 -1.29901e-12 0)
(0.005 -1.44734e-12 0)
(0.005 -1.60555e-12 0)
(0.005 -1.77436e-12 0)
(0.005 -1.9545e-12 0)
(0.005 -2.14674e-12 0)
(0.005 -2.35187e-12 0)
(0.005 -2.5707e-12 0)
(0.005 -2.8041e-12 0)
(0.005 -3.05296e-12 0)
(0.005 -3.3182e-12 0)
(0.005 -3.60079e-12 0)
(0.005 -3.90174e-12 0)
(0.005 -4.2221e-12 0)
(0.005 -4.56297e-12 0)
(0.005 -4.9255e-12 0)
(0.005 -5.31087e-12 0)
(0.005 -5.72032e-12 0)
(0.005 -6.15515e-12 0)
(0.005 -6.6167e-12 0)
(0.005 -7.10637e-12 0)
(0.005 -7.62561e-12 0)
(0.005 -8.17593e-12 0)
(0.005 -8.7589e-12 0)
(0.005 -9.37614e-12 0)
(0.005 -1.00293e-11 0)
(0.005 -1.07202e-11 0)
(0.005 -1.14506e-11 0)
(0.005 -1.22223e-11 0)
(0.005 -1.30374e-11 0)
(0.005 -1.38977e-11 0)
(0.005 -1.48053e-11 0)
(0.005 -1.57623e-11 0)
(0.005 -1.6771e-11 0)
(0.005 -1.78335e-11 0)
(0.005 -1.8952e-11 0)
(0.005 -2.0129e-11 0)
(0.005 -2.13669e-11 0)
(0.005 -2.26681e-11 0)
(0.005 -2.4035e-11 0)
(0.005 -2.54703e-11 0)
(0.005 -2.69766e-11 0)
(0.005 -2.85564e-11 0)
(0.005 -3.02125e-11 0)
(0.005 -3.19475e-11 0)
(0.005 -3.37642e-11 0)
(0.005 -3.56653e-11 0)
(0.005 -3.76535e-11 0)
(0.005 -3.97317e-11 0)
(0.005 -4.19026e-11 0)
(0.005 -4.41688e-11 0)
(0.005 -4.65331e-11 0)
(0.005 -4.89982e-11 0)
(0.005 -5.15667e-11 0)
(0.005 -5.4241e-11 0)
(0.005 -5.70235e-11 0)
(0.005 -5.99167e-11 0)
(0.005 -6.29225e-11 0)
(0.005 -6.6043e-11 0)
(0.005 -6.928e-11 0)
(0.005 -7.26349e-11 0)
(0.005 -7.6109e-11 0)
(0.005 -7.97031e-11 0)
(0.005 -8.34176e-11 0)
(0.005 -8.72525e-11 0)
(0.005 -9.12072e-11 0)
(0.005 -9.52803e-11 0)
(0.005 -9.94697e-11 0)
(0.005 -1.03772e-10 0)
(0.005 -1.08184e-10 0)
(0.005 -1.12699e-10 0)
(0.005 -1.17309e-10 0)
(0.005 -1.22007e-10 0)
(0.005 -1.26779e-10 0)
(0.005 -1.31613e-10 0)
(0.005 -1.36489e-10 0)
(0.005 -1.41387e-10 0)
(0.005 -1.46278e-10 0)
(0.005 -1.51131e-10 0)
(0.005 -1.55907e-10 0)
(0.005 -1.60558e-10 0)
(0.005 -1.65027e-10 0)
(0.005 -1.69246e-10 0)
(0.005 -1.73135e-10 0)
(0.005 -1.76596e-10 0)
(0.005 -1.79512e-10 0)
(0.005 -1.81748e-10 0)
(0.005 -1.83244e-10 0)
(0.005 -3.66852e-14 0)
(0.005 -1.1205e-13 0)
(0.005 -1.90159e-13 0)
(0.005 -2.71611e-13 0)
(0.005 -3.5659e-13 0)
(0.005 -4.45439e-13 0)
(0.005 -5.3867e-13 0)
(0.005 -6.3686e-13 0)
(0.005 -7.40621e-13 0)
(0.005 -8.50571e-13 0)
(0.005 -9.67335e-13 0)
(0.005 -1.09154e-12 0)
(0.005 -1.22384e-12 0)
(0.005 -1.36486e-12 0)
(0.005 -1.51528e-12 0)
(0.005 -1.67578e-12 0)
(0.005 -1.84707e-12 0)
(0.005 -2.02988e-12 0)
(0.005 -2.22497e-12 0)
(0.005 -2.43312e-12 0)
(0.005 -2.65515e-12 0)
(0.005 -2.89192e-12 0)
(0.005 -3.14433e-12 0)
(0.005 -3.41329e-12 0)
(0.005 -3.69978e-12 0)
(0.005 -4.00481e-12 0)
(0.005 -4.32943e-12 0)
(0.005 -4.67475e-12 0)
(0.005 -5.0419e-12 0)
(0.005 -5.43209e-12 0)
(0.005 -5.84656e-12 0)
(0.005 -6.2866e-12 0)
(0.005 -6.75357e-12 0)
(0.005 -7.24886e-12 0)
(0.005 -7.77392e-12 0)
(0.005 -8.33028e-12 0)
(0.005 -8.9195e-12 0)
(0.005 -9.54322e-12 0)
(0.005 -1.02031e-11 0)
(0.005 -1.09009e-11 0)
(0.005 -1.16385e-11 0)
(0.005 -1.24176e-11 0)
(0.005 -1.32403e-11 0)
(0.005 -1.41084e-11 0)
(0.005 -1.50242e-11 0)
(0.005 -1.59896e-11 0)
(0.005 -1.70069e-11 0)
(0.005 -1.80782e-11 0)
(0.005 -1.92059e-11 0)
(0.005 -2.03924e-11 0)
(0.005 -2.16399e-11 0)
(0.005 -2.2951e-11 0)
(0.005 -2.43283e-11 0)
(0.005 -2.57741e-11 0)
(0.005 -2.72912e-11 0)
(0.005 -2.88822e-11 0)
(0.005 -3.05497e-11 0)
(0.005 -3.22966e-11 0)
(0.005 -3.41254e-11 0)
(0.005 -3.60391e-11 0)
(0.005 -3.80403e-11 0)
(0.005 -4.01318e-11 0)
(0.005 -4.23165e-11 0)
(0.005 -4.4597e-11 0)
(0.005 -4.69761e-11 0)
(0.005 -4.94566e-11 0)
(0.005 -5.20409e-11 0)
(0.005 -5.47318e-11 0)
(0.005 -5.75317e-11 0)
(0.005 -6.0443e-11 0)
(0.005 -6.34678e-11 0)
(0.005 -6.66083e-11 0)
(0.005 -6.98662e-11 0)
(0.005 -7.32432e-11 0)
(0.005 -7.67406e-11 0)
(0.005 -8.03593e-11 0)
(0.005 -8.40999e-11 0)
(0.005 -8.79624e-11 0)
(0.005 -9.19463e-11 0)
(0.005 -9.60501e-11 0)
(0.005 -1.00272e-10 0)
(0.005 -1.04608e-10 0)
(0.005 -1.09055e-10 0)
(0.005 -1.13606e-10 0)
(0.005 -1.18254e-10 0)
(0.005 -1.22988e-10 0)
(0.005 -1.27797e-10 0)
(0.005 -1.32663e-10 0)
(0.005 -1.37568e-10 0)
(0.005 -1.42487e-10 0)
(0.005 -1.4739e-10 0)
(0.005 -1.52238e-10 0)
(0.005 -1.56988e-10 0)
(0.005 -1.61582e-10 0)
(0.005 -1.65953e-10 0)
(0.005 -1.70015e-10 0)
(0.005 -1.73665e-10 0)
(0.005 -1.76768e-10 0)
(0.005 -1.7916e-10 0)
(0.005 -1.80677e-10 0)
(0.005 -3.29715e-14 0)
(0.005 -1.01364e-13 0)
(0.005 -1.73079e-13 0)
(0.005 -2.4871e-13 0)
(0.005 -3.28261e-13 0)
(0.005 -4.11879e-13 0)
(0.005 -4.99909e-13 0)
(0.005 -5.92806e-13 0)
(0.005 -6.91083e-13 0)
(0.005 -7.9529e-13 0)
(0.005 -9.05995e-13 0)
(0.005 -1.02378e-12 0)
(0.005 -1.14925e-12 0)
(0.005 -1.28301e-12 0)
(0.005 -1.4257e-12 0)
(0.005 -1.57796e-12 0)
(0.005 -1.74047e-12 0)
(0.005 -1.91393e-12 0)
(0.005 -2.09906e-12 0)
(0.005 -2.29662e-12 0)
(0.005 -2.50739e-12 0)
(0.005 -2.73218e-12 0)
(0.005 -2.97186e-12 0)
(0.005 -3.22731e-12 0)
(0.005 -3.49947e-12 0)
(0.005 -3.7893e-12 0)
(0.005 -4.09781e-12 0)
(0.005 -4.42607e-12 0)
(0.005 -4.77517e-12 0)
(0.005 -5.14626e-12 0)
(0.005 -5.54054e-12 0)
(0.005 -5.95926e-12 0)
(0.005 -6.40371e-12 0)
(0.005 -6.87525e-12 0)
(0.005 -7.37528e-12 0)
(0.005 -7.90525e-12 0)
(0.005 -8.46669e-12 0)
(0.005 -9.06117e-12 0)
(0.005 -9.69032e-12 0)
(0.005 -1.03558e-11 0)
(0.005 -1.10594e-11 0)
(0.005 -1.1803e-11 0)
(0.005 -1.25883e-11 0)
(0.005 -1.34174e-11 0)
(0.005 -1.42921e-11 0)
(0.005 -1.52147e-11 0)
(0.005 -1.61871e-11 0)
(0.005 -1.72116e-11 0)
(0.005 -1.82904e-11 0)
(0.005 -1.94258e-11 0)
(0.005 -2.06202e-11 0)
(0.005 -2.18759e-11 0)
(0.005 -2.31955e-11 0)
(0.005 -2.45814e-11 0)
(0.005 -2.60362e-11 0)
(0.005 -2.75626e-11 0)
(0.005 -2.91632e-11 0)
(0.005 -3.08407e-11 0)
(0.005 -3.25978e-11 0)
(0.005 -3.44374e-11 0)
(0.005 -3.63621e-11 0)
(0.005 -3.83749e-11 0)
(0.005 -4.04785e-11 0)
(0.005 -4.26757e-11 0)
(0.005 -4.49694e-11 0)
(0.005 -4.73624e-11 0)
(0.005 -4.98574e-11 0)
(0.005 -5.24571e-11 0)
(0.005 -5.51642e-11 0)
(0.005 -5.79813e-11 0)
(0.005 -6.09109e-11 0)
(0.005 -6.39552e-11 0)
(0.005 -6.71164e-11 0)
(0.005 -7.03966e-11 0)
(0.005 -7.37974e-11 0)
(0.005 -7.73203e-11 0)
(0.005 -8.09665e-11 0)
(0.005 -8.47365e-11 0)
(0.005 -8.86305e-11 0)
(0.005 -9.26481e-11 0)
(0.005 -9.6788e-11 0)
(0.005 -1.01048e-10 0)
(0.005 -1.05425e-10 0)
(0.005 -1.09914e-10 0)
(0.005 -1.14509e-10 0)
(0.005 -1.19201e-10 0)
(0.005 -1.2398e-10 0)
(0.005 -1.2883e-10 0)
(0.005 -1.33736e-10 0)
(0.005 -1.38673e-10 0)
(0.005 -1.43613e-10 0)
(0.005 -1.4852e-10 0)
(0.005 -1.5335e-10 0)
(0.005 -1.58047e-10 0)
(0.005 -1.62541e-10 0)
(0.005 -1.66742e-10 0)
(0.005 -1.70539e-10 0)
(0.005 -1.73782e-10 0)
(0.005 -1.76284e-10 0)
(0.005 -1.77746e-10 0)
(0.005 -2.96934e-14 0)
(0.005 -9.16797e-14 0)
(0.005 -1.57284e-13 0)
(0.005 -2.27157e-13 0)
(0.005 -3.01229e-13 0)
(0.005 -3.79528e-13 0)
(0.005 -4.62276e-13 0)
(0.005 -5.49819e-13 0)
(0.005 -6.42585e-13 0)
(0.005 -7.41049e-13 0)
(0.005 -8.4572e-13 0)
(0.005 -9.57135e-13 0)
(0.005 -1.07585e-12 0)
(0.005 -1.20243e-12 0)
(0.005 -1.33749e-12 0)
(0.005 -1.48163e-12 0)
(0.005 -1.63549e-12 0)
(0.005 -1.79974e-12 0)
(0.005 -1.97508e-12 0)
(0.005 -2.16221e-12 0)
(0.005 -2.36189e-12 0)
(0.005 -2.5749e-12 0)
(0.005 -2.80206e-12 0)
(0.005 -3.04422e-12 0)
(0.005 -3.30228e-12 0)
(0.005 -3.57715e-12 0)
(0.005 -3.86982e-12 0)
(0.005 -4.18129e-12 0)
(0.005 -4.51263e-12 0)
(0.005 -4.86493e-12 0)
(0.005 -5.23935e-12 0)
(0.005 -5.63708e-12 0)
(0.005 -6.05938e-12 0)
(0.005 -6.50754e-12 0)
(0.005 -6.98293e-12 0)
(0.005 -7.48694e-12 0)
(0.005 -8.02104e-12 0)
(0.005 -8.58675e-12 0)
(0.005 -9.18564e-12 0)
(0.005 -9.81935e-12 0)
(0.005 -1.04896e-11 0)
(0.005 -1.11981e-11 0)
(0.005 -1.19466e-11 0)
(0.005 -1.27372e-11 0)
(0.005 -1.35716e-11 0)
(0.005 -1.44519e-11 0)
(0.005 -1.53802e-11 0)
(0.005 -1.63586e-11 0)
(0.005 -1.73892e-11 0)
(0.005 -1.84744e-11 0)
(0.005 -1.96163e-11 0)
(0.005 -2.08175e-11 0)
(0.005 -2.20802e-11 0)
(0.005 -2.34071e-11 0)
(0.005 -2.48006e-11 0)
(0.005 -2.62633e-11 0)
(0.005 -2.77979e-11 0)
(0.005 -2.94071e-11 0)
(0.005 -3.10935e-11 0)
(0.005 -3.286e-11 0)
(0.005 -3.47094e-11 0)
(0.005 -3.66445e-11 0)
(0.005 -3.86681e-11 0)
(0.005 -4.07832e-11 0)
(0.005 -4.29926e-11 0)
(0.005 -4.52992e-11 0)
(0.005 -4.77059e-11 0)
(0.005 -5.02156e-11 0)
(0.005 -5.28311e-11 0)
(0.005 -5.55551e-11 0)
(0.005 -5.83903e-11 0)
(0.005 -6.13394e-11 0)
(0.005 -6.44049e-11 0)
(0.005 -6.7589e-11 0)
(0.005 -7.08939e-11 0)
(0.005 -7.43216e-11 0)
(0.005 -7.78736e-11 0)
(0.005 -8.15513e-11 0)
(0.005 -8.53554e-11 0)
(0.005 -8.92863e-11 0)
(0.005 -9.33435e-11 0)
(0.005 -9.75258e-11 0)
(0.005 -1.01831e-10 0)
(0.005 -1.06255e-10 0)
(0.005 -1.10794e-10 0)
(0.005 -1.1544e-10 0)
(0.005 -1.20183e-10 0)
(0.005 -1.25012e-10 0)
(0.005 -1.29909e-10 0)
(0.005 -1.34853e-10 0)
(0.005 -1.39818e-10 0)
(0.005 -1.44768e-10 0)
(0.005 -1.49659e-10 0)
(0.005 -1.54435e-10 0)
(0.005 -1.59022e-10 0)
(0.005 -1.63329e-10 0)
(0.005 -1.67233e-10 0)
(0.005 -1.70575e-10 0)
(0.005 -1.73145e-10 0)
(0.005 -1.74575e-10 0)
(0.005 -2.67531e-14 0)
(0.005 -8.28381e-14 0)
(0.005 -1.42655e-13 0)
(0.005 -2.06927e-13 0)
(0.005 -2.75568e-13 0)
(0.005 -3.48539e-13 0)
(0.005 -4.25977e-13 0)
(0.005 -5.08146e-13 0)
(0.005 -5.95394e-13 0)
(0.005 -6.88132e-13 0)
(0.005 -7.86811e-13 0)
(0.005 -8.91915e-13 0)
(0.005 -1.00396e-12 0)
(0.005 -1.12347e-12 0)
(0.005 -1.25101e-12 0)
(0.005 -1.38716e-12 0)
(0.005 -1.53253e-12 0)
(0.005 -1.68775e-12 0)
(0.005 -1.85346e-12 0)
(0.005 -2.03037e-12 0)
(0.005 -2.21917e-12 0)
(0.005 -2.42063e-12 0)
(0.005 -2.63552e-12 0)
(0.005 -2.86465e-12 0)
(0.005 -3.10887e-12 0)
(0.005 -3.36909e-12 0)
(0.005 -3.64622e-12 0)
(0.005 -3.94123e-12 0)
(0.005 -4.25515e-12 0)
(0.005 -4.58903e-12 0)
(0.005 -4.94397e-12 0)
(0.005 -5.32113e-12 0)
(0.005 -5.72171e-12 0)
(0.005 -6.14695e-12 0)
(0.005 -6.59817e-12 0)
(0.005 -7.07672e-12 0)
(0.005 -7.584e-12 0)
(0.005 -8.12149e-12 0)
(0.005 -8.69071e-12 0)
(0.005 -9.29323e-12 0)
(0.005 -9.9307e-12 0)
(0.005 -1.06048e-11 0)
(0.005 -1.13173e-11 0)
(0.005 -1.20701e-11 0)
(0.005 -1.28649e-11 0)
(0.005 -1.37038e-11 0)
(0.005 -1.45888e-11 0)
(0.005 -1.55219e-11 0)
(0.005 -1.65052e-11 0)
(0.005 -1.7541e-11 0)
(0.005 -1.86316e-11 0)
(0.005 -1.97791e-11 0)
(0.005 -2.09861e-11 0)
(0.005 -2.2255e-11 0)
(0.005 -2.35883e-11 0)
(0.005 -2.49885e-11 0)
(0.005 -2.64583e-11 0)
(0.005 -2.80003e-11 0)
(0.005 -2.96172e-11 0)
(0.005 -3.13119e-11 0)
(0.005 -3.30872e-11 0)
(0.005 -3.49459e-11 0)
(0.005 -3.68909e-11 0)
(0.005 -3.89251e-11 0)
(0.005 -4.10516e-11 0)
(0.005 -4.32732e-11 0)
(0.005 -4.5593e-11 0)
(0.005 -4.80139e-11 0)
(0.005 -5.0539e-11 0)
(0.005 -5.31712e-11 0)
(0.005 -5.59134e-11 0)
(0.005 -5.87685e-11 0)
(0.005 -6.17391e-11 0)
(0.005 -6.48282e-11 0)
(0.005 -6.8038e-11 0)
(0.005 -7.13711e-11 0)
(0.005 -7.48295e-11 0)
(0.005 -7.8415e-11 0)
(0.005 -8.21291e-11 0)
(0.005 -8.59728e-11 0)
(0.005 -8.99464e-11 0)
(0.005 -9.40496e-11 0)
(0.005 -9.82811e-11 0)
(0.005 -1.02638e-10 0)
(0.005 -1.07117e-10 0)
(0.005 -1.11712e-10 0)
(0.005 -1.16415e-10 0)
(0.005 -1.21213e-10 0)
(0.005 -1.26093e-10 0)
(0.005 -1.31034e-10 0)
(0.005 -1.36009e-10 0)
(0.005 -1.40986e-10 0)
(0.005 -1.45918e-10 0)
(0.005 -1.50748e-10 0)
(0.005 -1.55403e-10 0)
(0.005 -1.59784e-10 0)
(0.005 -1.63763e-10 0)
(0.005 -1.6717e-10 0)
(0.005 -1.69778e-10 0)
(0.005 -1.71217e-10 0)
(0.005 -2.40769e-14 0)
(0.005 -7.47042e-14 0)
(0.005 -1.2906e-13 0)
(0.005 -1.87936e-13 0)
(0.005 -2.51259e-13 0)
(0.005 -3.18956e-13 0)
(0.005 -3.91109e-13 0)
(0.005 -4.67919e-13 0)
(0.005 -5.49672e-13 0)
(0.005 -6.36719e-13 0)
(0.005 -7.29457e-13 0)
(0.005 -8.28322e-13 0)
(0.005 -9.33783e-13 0)
(0.005 -1.04633e-12 0)
(0.005 -1.16649e-12 0)
(0.005 -1.2948e-12 0)
(0.005 -1.43184e-12 0)
(0.005 -1.57819e-12 0)
(0.005 -1.73449e-12 0)
(0.005 -1.90138e-12 0)
(0.005 -2.07954e-12 0)
(0.005 -2.26969e-12 0)
(0.005 -2.47256e-12 0)
(0.005 -2.68894e-12 0)
(0.005 -2.91964e-12 0)
(0.005 -3.16551e-12 0)
(0.005 -3.42744e-12 0)
(0.005 -3.70635e-12 0)
(0.005 -4.00323e-12 0)
(0.005 -4.31908e-12 0)
(0.005 -4.65497e-12 0)
(0.005 -5.012e-12 0)
(0.005 -5.39132e-12 0)
(0.005 -5.79414e-12 0)
(0.005 -6.22171e-12 0)
(0.005 -6.67533e-12 0)
(0.005 -7.15638e-12 0)
(0.005 -7.66625e-12 0)
(0.005 -8.20641e-12 0)
(0.005 -8.77841e-12 0)
(0.005 -9.38381e-12 0)
(0.005 -1.00243e-11 0)
(0.005 -1.07015e-11 0)
(0.005 -1.14172e-11 0)
(0.005 -1.21733e-11 0)
(0.005 -1.29716e-11 0)
(0.005 -1.38141e-11 0)
(0.005 -1.47029e-11 0)
(0.005 -1.56399e-11 0)
(0.005 -1.66274e-11 0)
(0.005 -1.76676e-11 0)
(0.005 -1.87626e-11 0)
(0.005 -1.9915e-11 0)
(0.005 -2.1127e-11 0)
(0.005 -2.24013e-11 0)
(0.005 -2.37402e-11 0)
(0.005 -2.51464e-11 0)
(0.005 -2.66225e-11 0)
(0.005 -2.81713e-11 0)
(0.005 -2.97956e-11 0)
(0.005 -3.14981e-11 0)
(0.005 -3.32818e-11 0)
(0.005 -3.51496e-11 0)
(0.005 -3.71044e-11 0)
(0.005 -3.91493e-11 0)
(0.005 -4.12874e-11 0)
(0.005 -4.35217e-11 0)
(0.005 -4.58553e-11 0)
(0.005 -4.82914e-11 0)
(0.005 -5.08331e-11 0)
(0.005 -5.34835e-11 0)
(0.005 -5.62457e-11 0)
(0.005 -5.91228e-11 0)
(0.005 -6.21177e-11 0)
(0.005 -6.52333e-11 0)
(0.005 -6.84724e-11 0)
(0.005 -7.18375e-11 0)
(0.005 -7.53311e-11 0)
(0.005 -7.8955e-11 0)
(0.005 -8.27109e-11 0)
(0.005 -8.66e-11 0)
(0.005 -9.06225e-11 0)
(0.005 -9.47781e-11 0)
(0.005 -9.90651e-11 0)
(0.005 -1.03481e-10 0)
(0.005 -1.0802e-10 0)
(0.005 -1.12675e-10 0)
(0.005 -1.17436e-10 0)
(0.005 -1.22289e-10 0)
(0.005 -1.27215e-10 0)
(0.005 -1.32188e-10 0)
(0.005 -1.37173e-10 0)
(0.005 -1.42128e-10 0)
(0.005 -1.46992e-10 0)
(0.005 -1.51688e-10 0)
(0.005 -1.56117e-10 0)
(0.005 -1.60143e-10 0)
(0.005 -1.63589e-10 0)
(0.005 -1.66215e-10 0)
(0.005 -1.67687e-10 0)
(0.005 -2.16164e-14 0)
(0.005 -6.71778e-14 0)
(0.005 -1.1639e-13 0)
(0.005 -1.70103e-13 0)
(0.005 -2.28265e-13 0)
(0.005 -2.90789e-13 0)
(0.005 -3.57728e-13 0)
(0.005 -4.29234e-13 0)
(0.005 -5.05545e-13 0)
(0.005 -5.86959e-13 0)
(0.005 -6.73828e-13 0)
(0.005 -7.6654e-13 0)
(0.005 -8.65522e-13 0)
(0.005 -9.71229e-13 0)
(0.005 -1.08414e-12 0)
(0.005 -1.20477e-12 0)
(0.005 -1.33364e-12 0)
(0.005 -1.47133e-12 0)
(0.005 -1.61842e-12 0)
(0.005 -1.77552e-12 0)
(0.005 -1.94328e-12 0)
(0.005 -2.12238e-12 0)
(0.005 -2.31353e-12 0)
(0.005 -2.51745e-12 0)
(0.005 -2.73495e-12 0)
(0.005 -2.96681e-12 0)
(0.005 -3.2139e-12 0)
(0.005 -3.4771e-12 0)
(0.005 -3.75734e-12 0)
(0.005 -4.0556e-12 0)
(0.005 -4.37288e-12 0)
(0.005 -4.71026e-12 0)
(0.005 -5.06883e-12 0)
(0.005 -5.44975e-12 0)
(0.005 -5.85423e-12 0)
(0.005 -6.28352e-12 0)
(0.005 -6.73894e-12 0)
(0.005 -7.22184e-12 0)
(0.005 -7.73364e-12 0)
(0.005 -8.27581e-12 0)
(0.005 -8.84989e-12 0)
(0.005 -9.45746e-12 0)
(0.005 -1.01002e-11 0)
(0.005 -1.07798e-11 0)
(0.005 -1.1498e-11 0)
(0.005 -1.22567e-11 0)
(0.005 -1.30577e-11 0)
(0.005 -1.39031e-11 0)
(0.005 -1.47949e-11 0)
(0.005 -1.57351e-11 0)
(0.005 -1.6726e-11 0)
(0.005 -1.77697e-11 0)
(0.005 -1.88686e-11 0)
(0.005 -2.00251e-11 0)
(0.005 -2.12415e-11 0)
(0.005 -2.25204e-11 0)
(0.005 -2.38644e-11 0)
(0.005 -2.5276e-11 0)
(0.005 -2.67581e-11 0)
(0.005 -2.83134e-11 0)
(0.005 -2.99446e-11 0)
(0.005 -3.16548e-11 0)
(0.005 -3.34469e-11 0)
(0.005 -3.53238e-11 0)
(0.005 -3.72887e-11 0)
(0.005 -3.93448e-11 0)
(0.005 -4.14951e-11 0)
(0.005 -4.37429e-11 0)
(0.005 -4.60914e-11 0)
(0.005 -4.85441e-11 0)
(0.005 -5.1104e-11 0)
(0.005 -5.37746e-11 0)
(0.005 -5.65592e-11 0)
(0.005 -5.9461e-11 0)
(0.005 -6.24832e-11 0)
(0.005 -6.5629e-11 0)
(0.005 -6.89013e-11 0)
(0.005 -7.2303e-11 0)
(0.005 -7.58365e-11 0)
(0.005 -7.95041e-11 0)
(0.005 -8.33074e-11 0)
(0.005 -8.72476e-11 0)
(0.005 -9.1325e-11 0)
(0.005 -9.55386e-11 0)
(0.005 -9.98864e-11 0)
(0.005 -1.04364e-10 0)
(0.005 -1.08966e-10 0)
(0.005 -1.13682e-10 0)
(0.005 -1.18499e-10 0)
(0.005 -1.23398e-10 0)
(0.005 -1.28355e-10 0)
(0.005 -1.33335e-10 0)
(0.005 -1.38293e-10 0)
(0.005 -1.4317e-10 0)
(0.005 -1.47886e-10 0)
(0.005 -1.52339e-10 0)
(0.005 -1.5639e-10 0)
(0.005 -1.59858e-10 0)
(0.005 -1.625e-10 0)
(0.005 -1.64025e-10 0)
(0.005 -1.93401e-14 0)
(0.005 -6.0185e-14 0)
(0.005 -1.04558e-13 0)
(0.005 -1.53352e-13 0)
(0.005 -2.06538e-13 0)
(0.005 -2.64032e-13 0)
(0.005 -3.25865e-13 0)
(0.005 -3.92158e-13 0)
(0.005 -4.6311e-13 0)
(0.005 -5.38977e-13 0)
(0.005 -6.20067e-13 0)
(0.005 -7.06732e-13 0)
(0.005 -7.99354e-13 0)
(0.005 -8.98351e-13 0)
(0.005 -1.00417e-12 0)
(0.005 -1.11728e-12 0)
(0.005 -1.23818e-12 0)
(0.005 -1.36741e-12 0)
(0.005 -1.5055e-12 0)
(0.005 -1.65306e-12 0)
(0.005 -1.81068e-12 0)
(0.005 -1.97901e-12 0)
(0.005 -2.15873e-12 0)
(0.005 -2.35053e-12 0)
(0.005 -2.55515e-12 0)
(0.005 -2.77338e-12 0)
(0.005 -3.00601e-12 0)
(0.005 -3.25391e-12 0)
(0.005 -3.51795e-12 0)
(0.005 -3.79906e-12 0)
(0.005 -4.09823e-12 0)
(0.005 -4.41646e-12 0)
(0.005 -4.75482e-12 0)
(0.005 -5.11441e-12 0)
(0.005 -5.4964e-12 0)
(0.005 -5.90198e-12 0)
(0.005 -6.33243e-12 0)
(0.005 -6.78904e-12 0)
(0.005 -7.2732e-12 0)
(0.005 -7.78631e-12 0)
(0.005 -8.32986e-12 0)
(0.005 -8.90538e-12 0)
(0.005 -9.51448e-12 0)
(0.005 -1.01588e-11 0)
(0.005 -1.08401e-11 0)
(0.005 -1.15601e-11 0)
(0.005 -1.23207e-11 0)
(0.005 -1.31238e-11 0)
(0.005 -1.39714e-11 0)
(0.005 -1.48655e-11 0)
(0.005 -1.58083e-11 0)
(0.005 -1.68019e-11 0)
(0.005 -1.78487e-11 0)
(0.005 -1.89508e-11 0)
(0.005 -2.01108e-11 0)
(0.005 -2.13311e-11 0)
(0.005 -2.26143e-11 0)
(0.005 -2.39629e-11 0)
(0.005 -2.53798e-11 0)
(0.005 -2.68675e-11 0)
(0.005 -2.84291e-11 0)
(0.005 -3.00673e-11 0)
(0.005 -3.17853e-11 0)
(0.005 -3.35859e-11 0)
(0.005 -3.54725e-11 0)
(0.005 -3.7448e-11 0)
(0.005 -3.9516e-11 0)
(0.005 -4.16795e-11 0)
(0.005 -4.3942e-11 0)
(0.005 -4.6307e-11 0)
(0.005 -4.87779e-11 0)
(0.005 -5.13583e-11 0)
(0.005 -5.40515e-11 0)
(0.005 -5.68613e-11 0)
(0.005 -5.9791e-11 0)
(0.005 -6.28441e-11 0)
(0.005 -6.6024e-11 0)
(0.005 -6.93339e-11 0)
(0.005 -7.27768e-11 0)
(0.005 -7.63553e-11 0)
(0.005 -8.00718e-11 0)
(0.005 -8.39279e-11 0)
(0.005 -8.79245e-11 0)
(0.005 -9.20616e-11 0)
(0.005 -9.63376e-11 0)
(0.005 -1.00749e-10 0)
(0.005 -1.05291e-10 0)
(0.005 -1.09954e-10 0)
(0.005 -1.14726e-10 0)
(0.005 -1.19588e-10 0)
(0.005 -1.24515e-10 0)
(0.005 -1.29475e-10 0)
(0.005 -1.3442e-10 0)
(0.005 -1.39292e-10 0)
(0.005 -1.44008e-10 0)
(0.005 -1.48465e-10 0)
(0.005 -1.52523e-10 0)
(0.005 -1.55998e-10 0)
(0.005 -1.58655e-10 0)
(0.005 -1.60217e-10 0)
(0.005 -1.72256e-14 0)
(0.005 -5.36699e-14 0)
(0.005 -9.34927e-14 0)
(0.005 -1.37615e-13 0)
(0.005 -1.86032e-13 0)
(0.005 -2.38663e-13 0)
(0.005 -2.9553e-13 0)
(0.005 -3.56732e-13 0)
(0.005 -4.22436e-13 0)
(0.005 -4.92866e-13 0)
(0.005 -5.68294e-13 0)
(0.005 -6.49032e-13 0)
(0.005 -7.3543e-13 0)
(0.005 -8.27866e-13 0)
(0.005 -9.26753e-13 0)
(0.005 -1.03253e-12 0)
(0.005 -1.14566e-12 0)
(0.005 -1.26663e-12 0)
(0.005 -1.39598e-12 0)
(0.005 -1.53424e-12 0)
(0.005 -1.682e-12 0)
(0.005 -1.83986e-12 0)
(0.005 -2.00846e-12 0)
(0.005 -2.18847e-12 0)
(0.005 -2.38059e-12 0)
(0.005 -2.58556e-12 0)
(0.005 -2.80415e-12 0)
(0.005 -3.03716e-12 0)
(0.005 -3.28546e-12 0)
(0.005 -3.54992e-12 0)
(0.005 -3.83147e-12 0)
(0.005 -4.1311e-12 0)
(0.005 -4.44981e-12 0)
(0.005 -4.78867e-12 0)
(0.005 -5.14879e-12 0)
(0.005 -5.53133e-12 0)
(0.005 -5.9375e-12 0)
(0.005 -6.36856e-12 0)
(0.005 -6.82583e-12 0)
(0.005 -7.31068e-12 0)
(0.005 -7.82454e-12 0)
(0.005 -8.36888e-12 0)
(0.005 -8.94527e-12 0)
(0.005 -9.5553e-12 0)
(0.005 -1.02006e-11 0)
(0.005 -1.0883e-11 0)
(0.005 -1.16043e-11 0)
(0.005 -1.23662e-11 0)
(0.005 -1.31708e-11 0)
(0.005 -1.402e-11 0)
(0.005 -1.49159e-11 0)
(0.005 -1.58607e-11 0)
(0.005 -1.68566e-11 0)
(0.005 -1.79059e-11 0)
(0.005 -1.90108e-11 0)
(0.005 -2.0174e-11 0)
(0.005 -2.13979e-11 0)
(0.005 -2.2685e-11 0)
(0.005 -2.40382e-11 0)
(0.005 -2.546e-11 0)
(0.005 -2.69535e-11 0)
(0.005 -2.85215e-11 0)
(0.005 -3.01669e-11 0)
(0.005 -3.1893e-11 0)
(0.005 -3.37028e-11 0)
(0.005 -3.55996e-11 0)
(0.005 -3.75867e-11 0)
(0.005 -3.96676e-11 0)
(0.005 -4.18457e-11 0)
(0.005 -4.41246e-11 0)
(0.005 -4.65079e-11 0)
(0.005 -4.89993e-11 0)
(0.005 -5.16025e-11 0)
(0.005 -5.43212e-11 0)
(0.005 -5.71593e-11 0)
(0.005 -6.01204e-11 0)
(0.005 -6.32083e-11 0)
(0.005 -6.64265e-11 0)
(0.005 -6.97784e-11 0)
(0.005 -7.32672e-11 0)
(0.005 -7.68956e-11 0)
(0.005 -8.06658e-11 0)
(0.005 -8.45793e-11 0)
(0.005 -8.86365e-11 0)
(0.005 -9.28367e-11 0)
(0.005 -9.7177e-11 0)
(0.005 -1.01653e-10 0)
(0.005 -1.06255e-10 0)
(0.005 -1.10972e-10 0)
(0.005 -1.15787e-10 0)
(0.005 -1.20673e-10 0)
(0.005 -1.25598e-10 0)
(0.005 -1.30516e-10 0)
(0.005 -1.35366e-10 0)
(0.005 -1.40066e-10 0)
(0.005 -1.4451e-10 0)
(0.005 -1.48559e-10 0)
(0.005 -1.52029e-10 0)
(0.005 -1.54689e-10 0)
(0.005 -1.56261e-10 0)
(0.005 -1.52561e-14 0)
(0.005 -4.75912e-14 0)
(0.005 -8.3138e-14 0)
(0.005 -1.22835e-13 0)
(0.005 -1.66698e-13 0)
(0.005 -2.14655e-13 0)
(0.005 -2.6672e-13 0)
(0.005 -3.22977e-13 0)
(0.005 -3.8357e-13 0)
(0.005 -4.48697e-13 0)
(0.005 -5.18598e-13 0)
(0.005 -5.93553e-13 0)
(0.005 -6.73877e-13 0)
(0.005 -7.59918e-13 0)
(0.005 -8.52052e-13 0)
(0.005 -9.50687e-13 0)
(0.005 -1.05625e-12 0)
(0.005 -1.16921e-12 0)
(0.005 -1.29006e-12 0)
(0.005 -1.4193e-12 0)
(0.005 -1.55748e-12 0)
(0.005 -1.70518e-12 0)
(0.005 -1.86299e-12 0)
(0.005 -2.03156e-12 0)
(0.005 -2.21155e-12 0)
(0.005 -2.40366e-12 0)
(0.005 -2.60863e-12 0)
(0.005 -2.82722e-12 0)
(0.005 -3.06024e-12 0)
(0.005 -3.30855e-12 0)
(0.005 -3.57303e-12 0)
(0.005 -3.85461e-12 0)
(0.005 -4.15427e-12 0)
(0.005 -4.47302e-12 0)
(0.005 -4.81193e-12 0)
(0.005 -5.17212e-12 0)
(0.005 -5.55473e-12 0)
(0.005 -5.961e-12 0)
(0.005 -6.39218e-12 0)
(0.005 -6.8496e-12 0)
(0.005 -7.33464e-12 0)
(0.005 -7.84872e-12 0)
(0.005 -8.39334e-12 0)
(0.005 -8.97007e-12 0)
(0.005 -9.58051e-12 0)
(0.005 -1.02263e-11 0)
(0.005 -1.09093e-11 0)
(0.005 -1.16313e-11 0)
(0.005 -1.2394e-11 0)
(0.005 -1.31996e-11 0)
(0.005 -1.405e-11 0)
(0.005 -1.49473e-11 0)
(0.005 -1.58937e-11 0)
(0.005 -1.68915e-11 0)
(0.005 -1.79429e-11 0)
(0.005 -1.90504e-11 0)
(0.005 -2.02166e-11 0)
(0.005 -2.14438e-11 0)
(0.005 -2.27349e-11 0)
(0.005 -2.40925e-11 0)
(0.005 -2.55196e-11 0)
(0.005 -2.70189e-11 0)
(0.005 -2.85936e-11 0)
(0.005 -3.02468e-11 0)
(0.005 -3.19816e-11 0)
(0.005 -3.38013e-11 0)
(0.005 -3.57094e-11 0)
(0.005 -3.77093e-11 0)
(0.005 -3.98046e-11 0)
(0.005 -4.19989e-11 0)
(0.005 -4.42961e-11 0)
(0.005 -4.66999e-11 0)
(0.005 -4.92142e-11 0)
(0.005 -5.18431e-11 0)
(0.005 -5.45904e-11 0)
(0.005 -5.74602e-11 0)
(0.005 -6.04564e-11 0)
(0.005 -6.3583e-11 0)
(0.005 -6.68437e-11 0)
(0.005 -7.0242e-11 0)
(0.005 -7.37811e-11 0)
(0.005 -7.74636e-11 0)