/*--------------------------------*- C++ -*----------------------------------*\
  =========                 |
  \\      /  F ield         | OpenFOAM: The Open Source CFD Toolbox
   \\    /   O peration     | Website:  https://openfoam.org
    \\  /    A nd           | Version:  11
     \\/     M anipulation  |
\*---------------------------------------------------------------------------*/
FoamFile
{
    format      ascii;
    class       surfaceScalarField;
    location    "1438";
    object      phi;
}
// * * * * * * * * * * * * * * * * * * * * * * * * * * * * * * * * * * * * * //

dimensions      [0 3 -1 0 0 0 0];

internalField   nonuniform List<scalar> 
19800
(
2e-05
-1.81513e-14
2e-05
-5.32415e-14
2e-05
-8.80628e-14
2e-05
-1.23239e-13
2e-05
-1.59297e-13
2e-05
-1.96615e-13
2e-05
-2.35484e-13
2e-05
-2.76147e-13
2e-05
-3.18813e-13
2e-05
-3.63673e-13
2e-05
-4.10905e-13
2e-05
-4.60682e-13
2e-05
-5.13168e-13
2e-05
-5.6853e-13
2e-05
-6.2693e-13
2e-05
-6.88532e-13
2e-05
-7.535e-13
2e-05
-8.22e-13
2e-05
-8.94199e-13
2e-05
-9.70266e-13
2e-05
-1.05037e-12
2e-05
-1.13469e-12
2e-05
-1.2234e-12
2e-05
-1.31667e-12
2e-05
-1.41469e-12
2e-05
-1.51764e-12
2e-05
-1.6257e-12
2e-05
-1.73906e-12
2e-05
-1.8579e-12
2e-05
-1.98241e-12
2e-05
-2.11279e-12
2e-05
-2.24922e-12
2e-05
-2.39189e-12
2e-05
-2.54099e-12
2e-05
-2.69671e-12
2e-05
-2.85925e-12
2e-05
-3.02878e-12
2e-05
-3.2055e-12
2e-05
-3.38958e-12
2e-05
-3.58121e-12
2e-05
-3.78056e-12
2e-05
-3.9878e-12
2e-05
-4.2031e-12
2e-05
-4.42661e-12
2e-05
-4.6585e-12
2e-05
-4.8989e-12
2e-05
-5.14795e-12
2e-05
-5.40578e-12
2e-05
-5.6725e-12
2e-05
-5.94822e-12
2e-05
-6.23303e-12
2e-05
-6.527e-12
2e-05
-6.8302e-12
2e-05
-7.14267e-12
2e-05
-7.46443e-12
2e-05
-7.7955e-12
2e-05
-8.13585e-12
2e-05
-8.48545e-12
2e-05
-8.84423e-12
2e-05
-9.2121e-12
2e-05
-9.58894e-12
2e-05
-9.9746e-12
2e-05
-1.03689e-11
2e-05
-1.07716e-11
2e-05
-1.11824e-11
2e-05
-1.16011e-11
2e-05
-1.20273e-11
2e-05
-1.24606e-11
2e-05
-1.29005e-11
2e-05
-1.33465e-11
2e-05
-1.3798e-11
2e-05
-1.42544e-11
2e-05
-1.4715e-11
2e-05
-1.5179e-11
2e-05
-1.56454e-11
2e-05
-1.61133e-11
2e-05
-1.65816e-11
2e-05
-1.7049e-11
2e-05
-1.75142e-11
2e-05
-1.79757e-11
2e-05
-1.84318e-11
2e-05
-1.88809e-11
2e-05
-1.93208e-11
2e-05
-1.97494e-11
2e-05
-2.01643e-11
2e-05
-2.05628e-11
2e-05
-2.09422e-11
2e-05
-2.12994e-11
2e-05
-2.16313e-11
2e-05
-2.19347e-11
2e-05
-2.22053e-11
2e-05
-2.24379e-11
2e-05
-2.2626e-11
2e-05
-2.2765e-11
2e-05
-2.28541e-11
2e-05
-2.28961e-11
2e-05
-2.28942e-11
2e-05
-2.28477e-11
2e-05
-2.27705e-11
-2.2724e-11
2e-05
-1.61952e-14
2e-05
-4.92061e-14
2e-05
-8.26698e-14
2e-05
-1.16672e-13
2e-05
-1.51588e-13
2e-05
-1.87743e-13
2e-05
-2.25402e-13
2e-05
-2.6479e-13
2e-05
-3.06107e-13
2e-05
-3.49534e-13
2e-05
-3.95245e-13
2e-05
-4.43403e-13
2e-05
-4.94168e-13
2e-05
-5.477e-13
2e-05
-6.04154e-13
2e-05
-6.63688e-13
2e-05
-7.26461e-13
2e-05
-7.9263e-13
2e-05
-8.62355e-13
2e-05
-9.358e-13
2e-05
-1.01313e-12
2e-05
-1.09451e-12
2e-05
-1.1801e-12
2e-05
-1.27008e-12
2e-05
-1.36462e-12
2e-05
-1.46389e-12
2e-05
-1.56807e-12
2e-05
-1.67733e-12
2e-05
-1.79186e-12
2e-05
-1.91182e-12
2e-05
-2.03741e-12
2e-05
-2.16881e-12
2e-05
-2.30618e-12
2e-05
-2.44972e-12
2e-05
-2.5996e-12
2e-05
-2.756e-12
2e-05
-2.91911e-12
2e-05
-3.08908e-12
2e-05
-3.26611e-12
2e-05
-3.45034e-12
2e-05
-3.64196e-12
2e-05
-3.84113e-12
2e-05
-4.04799e-12
2e-05
-4.26269e-12
2e-05
-4.48539e-12
2e-05
-4.71621e-12
2e-05
-4.95529e-12
2e-05
-5.20274e-12
2e-05
-5.45867e-12
2e-05
-5.72317e-12
2e-05
-5.99634e-12
2e-05
-6.27823e-12
2e-05
-6.56891e-12
2e-05
-6.86842e-12
2e-05
-7.17678e-12
2e-05
-7.49399e-12
2e-05
-7.82004e-12
2e-05
-8.15489e-12
2e-05
-8.49849e-12
2e-05
-8.85074e-12
2e-05
-9.21154e-12
2e-05
-9.58074e-12
2e-05
-9.95817e-12
2e-05
-1.03436e-11
2e-05
-1.07369e-11
2e-05
-1.11377e-11
2e-05
-1.15456e-11
2e-05
-1.19604e-11
2e-05
-1.23816e-11
2e-05
-1.28088e-11
2e-05
-1.32414e-11
2e-05
-1.36788e-11
2e-05
-1.41205e-11
2e-05
-1.45657e-11
2e-05
-1.50135e-11
2e-05
-1.54632e-11
2e-05
-1.59137e-11
2e-05
-1.63641e-11
2e-05
-1.6813e-11
2e-05
-1.72592e-11
2e-05
-1.77013e-11
2e-05
-1.81377e-11
2e-05
-1.85667e-11
2e-05
-1.89864e-11
2e-05
-1.93947e-11
2e-05
-1.97894e-11
2e-05
-2.0168e-11
2e-05
-2.0528e-11
2e-05
-2.08665e-11
2e-05
-2.11802e-11
2e-05
-2.14649e-11
2e-05
-2.17162e-11
2e-05
-2.19309e-11
2e-05
-2.21066e-11
2e-05
-2.22417e-11
2e-05
-2.23387e-11
2e-05
-2.24003e-11
2e-05
-2.24283e-11
2e-05
-2.24322e-11
-2.2453e-11
2e-05
-1.47276e-14
2e-05
-4.56251e-14
2e-05
-7.75295e-14
2e-05
-1.10238e-13
2e-05
-1.43952e-13
2e-05
-1.78916e-13
2e-05
-2.15353e-13
2e-05
-2.53465e-13
2e-05
-2.93437e-13
2e-05
-3.35439e-13
2e-05
-3.79637e-13
2e-05
-4.26186e-13
2e-05
-4.75242e-13
2e-05
-5.26955e-13
2e-05
-5.81476e-13
2e-05
-6.38955e-13
2e-05
-6.99545e-13
2e-05
-7.63397e-13
2e-05
-8.30665e-13
2e-05
-9.01504e-13
2e-05
-9.7607e-13
2e-05
-1.05452e-12
2e-05
-1.13702e-12
2e-05
-1.22373e-12
2e-05
-1.31481e-12
2e-05
-1.41042e-12
2e-05
-1.51074e-12
2e-05
-1.61594e-12
2e-05
-1.72617e-12
2e-05
-1.84162e-12
2e-05
-1.96245e-12
2e-05
-2.08884e-12
2e-05
-2.22095e-12
2e-05
-2.35896e-12
2e-05
-2.50303e-12
2e-05
-2.65334e-12
2e-05
-2.81005e-12
2e-05
-2.97333e-12
2e-05
-3.14334e-12
2e-05
-3.32023e-12
2e-05
-3.50417e-12
2e-05
-3.69531e-12
2e-05
-3.89378e-12
2e-05
-4.09973e-12
2e-05
-4.3133e-12
2e-05
-4.53461e-12
2e-05
-4.76378e-12
2e-05
-5.00092e-12
2e-05
-5.24612e-12
2e-05
-5.49948e-12
2e-05
-5.76108e-12
2e-05
-6.03097e-12
2e-05
-6.30922e-12
2e-05
-6.59585e-12
2e-05
-6.89089e-12
2e-05
-7.19434e-12
2e-05
-7.50618e-12
2e-05
-7.82639e-12
2e-05
-8.1549e-12
2e-05
-8.49163e-12
2e-05
-8.83649e-12
2e-05
-9.18935e-12
2e-05
-9.55004e-12
2e-05
-9.91838e-12
2e-05
-1.02942e-11
2e-05
-1.06771e-11
2e-05
-1.1067e-11
2e-05
-1.14634e-11
2e-05
-1.18661e-11
2e-05
-1.22745e-11
2e-05
-1.26883e-11
2e-05
-1.31069e-11
2e-05
-1.35297e-11
2e-05
-1.39562e-11
2e-05
-1.43856e-11
2e-05
-1.48172e-11
2e-05
-1.52501e-11
2e-05
-1.56834e-11
2e-05
-1.6116e-11
2e-05
-1.6547e-11
2e-05
-1.6975e-11
2e-05
-1.73987e-11
2e-05
-1.78166e-11
2e-05
-1.82272e-11
2e-05
-1.86286e-11
2e-05
-1.9019e-11
2e-05
-1.93963e-11
2e-05
-1.97582e-11
2e-05
-2.01021e-11
2e-05
-2.04253e-11
2e-05
-2.07241e-11
2e-05
-2.09954e-11
2e-05
-2.12369e-11
2e-05
-2.14469e-11
2e-05
-2.16245e-11
2e-05
-2.17706e-11
2e-05
-2.18862e-11
2e-05
-2.1972e-11
2e-05
-2.20308e-11
-2.20767e-11
2e-05
-1.35521e-14
2e-05
-4.24681e-14
2e-05
-7.27418e-14
2e-05
-1.04056e-13
2e-05
-1.36492e-13
2e-05
-1.70216e-13
2e-05
-2.05403e-13
2e-05
-2.42225e-13
2e-05
-2.80846e-13
2e-05
-3.21426e-13
2e-05
-3.64117e-13
2e-05
-4.09067e-13
2e-05
-4.56424e-13
2e-05
-5.06332e-13
2e-05
-5.58934e-13
2e-05
-6.14376e-13
2e-05
-6.72801e-13
2e-05
-7.34355e-13
2e-05
-7.99185e-13
2e-05
-8.67439e-13
2e-05
-9.39266e-13
2e-05
-1.01482e-12
2e-05
-1.09425e-12
2e-05
-1.17771e-12
2e-05
-1.26535e-12
2e-05
-1.35735e-12
2e-05
-1.45384e-12
2e-05
-1.555e-12
2e-05
-1.66098e-12
2e-05
-1.77195e-12
2e-05
-1.88807e-12
2e-05
-2.00949e-12
2e-05
-2.13638e-12
2e-05
-2.26891e-12
2e-05
-2.40722e-12
2e-05
-2.55149e-12
2e-05
-2.70187e-12
2e-05
-2.8585e-12
2e-05
-3.02156e-12
2e-05
-3.19117e-12
2e-05
-3.3675e-12
2e-05
-3.55068e-12
2e-05
-3.74084e-12
2e-05
-3.93812e-12
2e-05
-4.14264e-12
2e-05
-4.35453e-12
2e-05
-4.57387e-12
2e-05
-4.80079e-12
2e-05
-5.03537e-12
2e-05
-5.27769e-12
2e-05
-5.52783e-12
2e-05
-5.78584e-12
2e-05
-6.05177e-12
2e-05
-6.32564e-12
2e-05
-6.60749e-12
2e-05
-6.89731e-12
2e-05
-7.19509e-12
2e-05
-7.50079e-12
2e-05
-7.81436e-12
2e-05
-8.13573e-12
2e-05
-8.4648e-12
2e-05
-8.80147e-12
2e-05
-9.14558e-12
2e-05
-9.49698e-12
2e-05
-9.85545e-12
2e-05
-1.02208e-11
2e-05
-1.05927e-11
2e-05
-1.0971e-11
2e-05
-1.13553e-11
2e-05
-1.17451e-11
2e-05
-1.21403e-11
2e-05
-1.25402e-11
2e-05
-1.29444e-11
2e-05
-1.33523e-11
2e-05
-1.37634e-11
2e-05
-1.4177e-11
2e-05
-1.45924e-11
2e-05
-1.50087e-11
2e-05
-1.54252e-11
2e-05
-1.58409e-11
2e-05
-1.62548e-11
2e-05
-1.66657e-11
2e-05
-1.70725e-11
2e-05
-1.74737e-11
2e-05
-1.78679e-11
2e-05
-1.82536e-11
2e-05
-1.86289e-11
2e-05
-1.89919e-11
2e-05
-1.93405e-11
2e-05
-1.96722e-11
2e-05
-1.99844e-11
2e-05
-2.02746e-11
2e-05
-2.05409e-11
2e-05
-2.0782e-11
2e-05
-2.09967e-11
2e-05
-2.11846e-11
2e-05
-2.1345e-11
2e-05
-2.14752e-11
2e-05
-2.15718e-11
-2.16223e-11
2e-05
-1.25649e-14
2e-05
-3.96573e-14
2e-05
-6.83119e-14
2e-05
-9.81817e-14
2e-05
-1.29281e-13
2e-05
-1.61717e-13
2e-05
-1.95619e-13
2e-05
-2.3113e-13
2e-05
-2.6839e-13
2e-05
-3.07543e-13
2e-05
-3.4873e-13
2e-05
-3.92089e-13
2e-05
-4.37758e-13
2e-05
-4.85874e-13
2e-05
-5.36575e-13
2e-05
-5.89997e-13
2e-05
-6.46278e-13
2e-05
-7.05556e-13
2e-05
-7.67972e-13
2e-05
-8.33667e-13
2e-05
-9.02783e-13
2e-05
-9.75463e-13
2e-05
-1.05185e-12
2e-05
-1.1321e-12
2e-05
-1.21635e-12
2e-05
-1.30476e-12
2e-05
-1.39747e-12
2e-05
-1.49464e-12
2e-05
-1.59641e-12
2e-05
-1.70295e-12
2e-05
-1.8144e-12
2e-05
-1.93091e-12
2e-05
-2.05264e-12
2e-05
-2.17974e-12
2e-05
-2.31237e-12
2e-05
-2.45066e-12
2e-05
-2.59477e-12
2e-05
-2.74484e-12
2e-05
-2.90102e-12
2e-05
-3.06344e-12
2e-05
-3.23224e-12
2e-05
-3.40755e-12
2e-05
-3.5895e-12
2e-05
-3.77821e-12
2e-05
-3.97379e-12
2e-05
-4.17635e-12
2e-05
-4.386e-12
2e-05
-4.60282e-12
2e-05
-4.8269e-12
2e-05
-5.05831e-12
2e-05
-5.29713e-12
2e-05
-5.54339e-12
2e-05
-5.79715e-12
2e-05
-6.05844e-12
2e-05
-6.32725e-12
2e-05
-6.60361e-12
2e-05
-6.88749e-12
2e-05
-7.17887e-12
2e-05
-7.47769e-12
2e-05
-7.78389e-12
2e-05
-8.09738e-12
2e-05
-8.41806e-12
2e-05
-8.74581e-12
2e-05
-9.08046e-12
2e-05
-9.42186e-12
2e-05
-9.7698e-12
2e-05
-1.0124e-11
2e-05
-1.04844e-11
2e-05
-1.08505e-11
2e-05
-1.1222e-11
2e-05
-1.15987e-11
2e-05
-1.19802e-11
2e-05
-1.23659e-11
2e-05
-1.27555e-11
2e-05
-1.31485e-11
2e-05
-1.35443e-11
2e-05
-1.39423e-11
2e-05
-1.43419e-11
2e-05
-1.47423e-11
2e-05
-1.51428e-11
2e-05
-1.55426e-11
2e-05
-1.59407e-11
2e-05
-1.63361e-11
2e-05
-1.67277e-11
2e-05
-1.71144e-11
2e-05
-1.74948e-11
2e-05
-1.78675e-11
2e-05
-1.82308e-11
2e-05
-1.85831e-11
2e-05
-1.89223e-11
2e-05
-1.92464e-11
2e-05
-1.95533e-11
2e-05
-1.98415e-11
2e-05
-2.01095e-11
2e-05
-2.03556e-11
2e-05
-2.05782e-11
2e-05
-2.07744e-11
2e-05
-2.09386e-11
2e-05
-2.10612e-11
-2.1119e-11
2e-05
-1.17077e-14
2e-05
-3.71244e-14
2e-05
-6.42105e-14
2e-05
-9.2628e-14
2e-05
-1.22359e-13
2e-05
-1.53471e-13
2e-05
-1.86059e-13
2e-05
-2.20236e-13
2e-05
-2.56122e-13
2e-05
-2.93843e-13
2e-05
-3.33526e-13
2e-05
-3.75299e-13
2e-05
-4.19291e-13
2e-05
-4.6563e-13
2e-05
-5.14445e-13
2e-05
-5.65867e-13
2e-05
-6.20026e-13
2e-05
-6.77054e-13
2e-05
-7.37084e-13
2e-05
-8.00249e-13
2e-05
-8.66686e-13
2e-05
-9.3653e-13
2e-05
-1.00992e-12
2e-05
-1.08699e-12
2e-05
-1.16789e-12
2e-05
-1.25276e-12
2e-05
-1.34173e-12
2e-05
-1.43496e-12
2e-05
-1.53258e-12
2e-05
-1.63474e-12
2e-05
-1.74158e-12
2e-05
-1.85325e-12
2e-05
-1.96988e-12
2e-05
-2.09163e-12
2e-05
-2.21864e-12
2e-05
-2.35103e-12
2e-05
-2.48896e-12
2e-05
-2.63256e-12
2e-05
-2.78195e-12
2e-05
-2.93727e-12
2e-05
-3.09865e-12
2e-05
-3.26621e-12
2e-05
-3.44006e-12
2e-05
-3.62031e-12
2e-05
-3.80708e-12
2e-05
-4.00046e-12
2e-05
-4.20054e-12
2e-05
-4.40741e-12
2e-05
-4.62114e-12
2e-05
-4.84181e-12
2e-05
-5.06947e-12
2e-05
-5.30416e-12
2e-05
-5.54593e-12
2e-05
-5.79481e-12
2e-05
-6.05079e-12
2e-05
-6.31389e-12
2e-05
-6.58408e-12
2e-05
-6.86135e-12
2e-05
-7.14565e-12
2e-05
-7.43691e-12
2e-05
-7.73505e-12
2e-05
-8.04e-12
2e-05
-8.35163e-12
2e-05
-8.66981e-12
2e-05
-8.99438e-12
2e-05
-9.32519e-12
2e-05
-9.66202e-12
2e-05
-1.00047e-11
2e-05
-1.03529e-11
2e-05
-1.07064e-11
2e-05
-1.1065e-11
2e-05
-1.14282e-11
2e-05
-1.17958e-11
2e-05
-1.21673e-11
2e-05
-1.25424e-11
2e-05
-1.29206e-11
2e-05
-1.33015e-11
2e-05
-1.36844e-11
2e-05
-1.40689e-11
2e-05
-1.44543e-11
2e-05
-1.48399e-11
2e-05
-1.52251e-11
2e-05
-1.5609e-11
2e-05
-1.59908e-11
2e-05
-1.63695e-11
2e-05
-1.67441e-11
2e-05
-1.71134e-11
2e-05
-1.74762e-11
2e-05
-1.78311e-11
2e-05
-1.81764e-11
2e-05
-1.85104e-11
2e-05
-1.88316e-11
2e-05
-1.91382e-11
2e-05
-1.94286e-11
2e-05
-1.97004e-11
2e-05
-1.99509e-11
2e-05
-2.01752e-11
2e-05
-2.03652e-11
2e-05
-2.05075e-11
-2.05815e-11
2e-05
-1.09436e-14
2e-05
-3.48159e-14
2e-05
-6.04012e-14
2e-05
-8.73864e-14
2e-05
-1.15742e-13
2e-05
-1.45512e-13
2e-05
-1.76765e-13
2e-05
-2.09591e-13
2e-05
-2.44092e-13
2e-05
-2.80374e-13
2e-05
-3.18554e-13
2e-05
-3.58746e-13
2e-05
-4.0107e-13
2e-05
-4.45646e-13
2e-05
-4.92594e-13
2e-05
-5.42037e-13
2e-05
-5.94099e-13
2e-05
-6.48903e-13
2e-05
-7.06577e-13
2e-05
-7.67246e-13
2e-05
-8.31039e-13
2e-05
-8.98086e-13
2e-05
-9.68516e-13
2e-05
-1.04246e-12
2e-05
-1.12006e-12
2e-05
-1.20143e-12
2e-05
-1.28672e-12
2e-05
-1.37606e-12
2e-05
-1.46959e-12
2e-05
-1.56744e-12
2e-05
-1.66974e-12
2e-05
-1.77664e-12
2e-05
-1.88826e-12
2e-05
-2.00474e-12
2e-05
-2.12621e-12
2e-05
-2.2528e-12
2e-05
-2.38465e-12
2e-05
-2.52186e-12
2e-05
-2.66458e-12
2e-05
-2.81292e-12
2e-05
-2.967e-12
2e-05
-3.12692e-12
2e-05
-3.2928e-12
2e-05
-3.46474e-12
2e-05
-3.64284e-12
2e-05
-3.82718e-12
2e-05
-4.01786e-12
2e-05
-4.21494e-12
2e-05
-4.4185e-12
2e-05
-4.6286e-12
2e-05
-4.84529e-12
2e-05
-5.06862e-12
2e-05
-5.29861e-12
2e-05
-5.53529e-12
2e-05
-5.77866e-12
2e-05
-6.02873e-12
2e-05
-6.28549e-12
2e-05
-6.5489e-12
2e-05
-6.81892e-12
2e-05
-7.09551e-12
2e-05
-7.37859e-12
2e-05
-7.66808e-12
2e-05
-7.96388e-12
2e-05
-8.26588e-12
2e-05
-8.57394e-12
2e-05
-8.88792e-12
2e-05
-9.20764e-12
2e-05
-9.53294e-12
2e-05
-9.86359e-12
2e-05
-1.01994e-11
2e-05
-1.05401e-11
2e-05
-1.08854e-11
2e-05
-1.12351e-11
2e-05
-1.15889e-11
2e-05
-1.19464e-11
2e-05
-1.23073e-11
2e-05
-1.26711e-11
2e-05
-1.30376e-11
2e-05
-1.34063e-11
2e-05
-1.37766e-11
2e-05
-1.41482e-11
2e-05
-1.45203e-11
2e-05
-1.48926e-11
2e-05
-1.52643e-11
2e-05
-1.56346e-11
2e-05
-1.60029e-11
2e-05
-1.63681e-11
2e-05
-1.67294e-11
2e-05
-1.70855e-11
2e-05
-1.74352e-11
2e-05
-1.77771e-11
2e-05
-1.81097e-11
2e-05
-1.84312e-11
2e-05
-1.87396e-11
2e-05
-1.9032e-11
2e-05
-1.93044e-11
2e-05
-1.95506e-11
2e-05
-1.97605e-11
2e-05
-1.99193e-11
-2.00102e-11
2e-05
-1.02495e-14
2e-05
-3.26903e-14
2e-05
-5.6848e-14
2e-05
-8.24378e-14
2e-05
-1.0943e-13
2e-05
-1.37854e-13
2e-05
-1.67764e-13
2e-05
-1.99231e-13
2e-05
-2.32338e-13
2e-05
-2.6718e-13
2e-05
-3.03857e-13
2e-05
-3.42475e-13
2e-05
-3.83142e-13
2e-05
-4.25969e-13
2e-05
-4.71068e-13
2e-05
-5.18555e-13
2e-05
-5.68545e-13
2e-05
-6.21156e-13
2e-05
-6.76506e-13
2e-05
-7.34715e-13
2e-05
-7.95904e-13
2e-05
-8.60195e-13
2e-05
-9.27712e-13
2e-05
-9.98578e-13
2e-05
-1.07292e-12
2e-05
-1.15086e-12
2e-05
-1.23253e-12
2e-05
-1.31805e-12
2e-05
-1.40755e-12
2e-05
-1.50116e-12
2e-05
-1.599e-12
2e-05
-1.70121e-12
2e-05
-1.8079e-12
2e-05
-1.9192e-12
2e-05
-2.03524e-12
2e-05
-2.15613e-12
2e-05
-2.28199e-12
2e-05
-2.41295e-12
2e-05
-2.54911e-12
2e-05
-2.69059e-12
2e-05
-2.83749e-12
2e-05
-2.98993e-12
2e-05
-3.14798e-12
2e-05
-3.31176e-12
2e-05
-3.48135e-12
2e-05
-3.65683e-12
2e-05
-3.83828e-12
2e-05
-4.02576e-12
2e-05
-4.21935e-12
2e-05
-4.41908e-12
2e-05
-4.62502e-12
2e-05
-4.8372e-12
2e-05
-5.05564e-12
2e-05
-5.28036e-12
2e-05
-5.51138e-12
2e-05
-5.74868e-12
2e-05
-5.99226e-12
2e-05
-6.24209e-12
2e-05
-6.49814e-12
2e-05
-6.76035e-12
2e-05
-7.02867e-12
2e-05
-7.30302e-12
2e-05
-7.58332e-12
2e-05
-7.86947e-12
2e-05
-8.16135e-12
2e-05
-8.45885e-12
2e-05
-8.76181e-12
2e-05
-9.0701e-12
2e-05
-9.38355e-12
2e-05
-9.70197e-12
2e-05
-1.00252e-11
2e-05
-1.0353e-11
2e-05
-1.06851e-11
2e-05
-1.10214e-11
2e-05
-1.13616e-11
2e-05
-1.17054e-11
2e-05
-1.20526e-11
2e-05
-1.24028e-11
2e-05
-1.27558e-11
2e-05
-1.31112e-11
2e-05
-1.34686e-11
2e-05
-1.38278e-11
2e-05
-1.41882e-11
2e-05
-1.45495e-11
2e-05
-1.4911e-11
2e-05
-1.52723e-11
2e-05
-1.56326e-11
2e-05
-1.59913e-11
2e-05
-1.63473e-11
2e-05
-1.66997e-11
2e-05
-1.70473e-11
2e-05
-1.73885e-11
2e-05
-1.77215e-11
2e-05
-1.80439e-11
2e-05
-1.83522e-11
2e-05
-1.86415e-11
2e-05
-1.89045e-11
2e-05
-1.91299e-11
2e-05
-1.93023e-11
-1.94051e-11
2e-05
-9.61079e-15
2e-05
-3.07172e-14
2e-05
-5.35196e-14
2e-05
-7.77601e-14
2e-05
-1.03413e-13
2e-05
-1.30504e-13
2e-05
-1.59073e-13
2e-05
-1.89179e-13
2e-05
-2.20892e-13
2e-05
-2.54295e-13
2e-05
-2.89475e-13
2e-05
-3.26527e-13
2e-05
-3.65549e-13
2e-05
-4.06643e-13
2e-05
-4.49914e-13
2e-05
-4.95469e-13
2e-05
-5.43415e-13
2e-05
-5.93863e-13
2e-05
-6.46924e-13
2e-05
-7.02712e-13
2e-05
-7.61338e-13
2e-05
-8.2292e-13
2e-05
-8.87572e-13
2e-05
-9.55412e-13
2e-05
-1.02656e-12
2e-05
-1.10112e-12
2e-05
-1.17923e-12
2e-05
-1.26101e-12
2e-05
-1.34656e-12
2e-05
-1.43601e-12
2e-05
-1.52947e-12
2e-05
-1.62707e-12
2e-05
-1.72893e-12
2e-05
-1.83515e-12
2e-05
-1.94585e-12
2e-05
-2.06115e-12
2e-05
-2.18116e-12
2e-05
-2.30598e-12
2e-05
-2.43571e-12
2e-05
-2.57047e-12
2e-05
-2.71035e-12
2e-05
-2.85544e-12
2e-05
-3.00584e-12
2e-05
-3.16163e-12
2e-05
-3.32288e-12
2e-05
-3.48968e-12
2e-05
-3.6621e-12
2e-05
-3.84019e-12
2e-05
-4.02401e-12
2e-05
-4.2136e-12
2e-05
-4.40902e-12
2e-05
-4.61029e-12
2e-05
-4.81743e-12
2e-05
-5.03047e-12
2e-05
-5.2494e-12
2e-05
-5.47422e-12
2e-05
-5.70492e-12
2e-05
-5.94148e-12
2e-05
-6.18386e-12
2e-05
-6.43202e-12
2e-05
-6.68591e-12
2e-05
-6.94547e-12
2e-05
-7.21062e-12
2e-05
-7.48128e-12
2e-05
-7.75735e-12
2e-05
-8.03874e-12
2e-05
-8.32533e-12
2e-05
-8.61699e-12
2e-05
-8.91361e-12
2e-05
-9.21504e-12
2e-05
-9.52114e-12
2e-05
-9.83176e-12
2e-05
-1.01467e-11
2e-05
-1.04659e-11
2e-05
-1.07891e-11
2e-05
-1.11161e-11
2e-05
-1.14468e-11
2e-05
-1.1781e-11
2e-05
-1.21185e-11
2e-05
-1.2459e-11
2e-05
-1.28025e-11
2e-05
-1.31485e-11
2e-05
-1.3497e-11
2e-05
-1.38475e-11
2e-05
-1.41998e-11
2e-05
-1.45534e-11
2e-05
-1.4908e-11
2e-05
-1.5263e-11
2e-05
-1.56176e-11
2e-05
-1.59709e-11
2e-05
-1.63219e-11
2e-05
-1.66691e-11
2e-05
-1.70104e-11
2e-05
-1.73431e-11
2e-05
-1.76633e-11
2e-05
-1.79653e-11
2e-05
-1.82409e-11
2e-05
-1.84782e-11
2e-05
-1.86611e-11
-1.87712e-11
2e-05
-9.01743e-15
2e-05
-2.88739e-14
2e-05
-5.03901e-14
2e-05
-7.33315e-14
2e-05
-9.76794e-14
2e-05
-1.23456e-13
2e-05
-1.50697e-13
2e-05
-1.79451e-13
2e-05
-2.09777e-13
2e-05
-2.41747e-13
2e-05
-2.75439e-13
2e-05
-3.10936e-13
2e-05
-3.48328e-13
2e-05
-3.87709e-13
2e-05
-4.29174e-13
2e-05
-4.72822e-13
2e-05
-5.18754e-13
2e-05
-5.67072e-13
2e-05
-6.17882e-13
2e-05
-6.71288e-13
2e-05
-7.27397e-13
2e-05
-7.86318e-13
2e-05
-8.48158e-13
2e-05
-9.13028e-13
2e-05
-9.81038e-13
2e-05
-1.0523e-12
2e-05
-1.12692e-12
2e-05
-1.20502e-12
2e-05
-1.28669e-12
2e-05
-1.37207e-12
2e-05
-1.46125e-12
2e-05
-1.55434e-12
2e-05
-1.65146e-12
2e-05
-1.75271e-12
2e-05
-1.85819e-12
2e-05
-1.96802e-12
2e-05
-2.08229e-12
2e-05
-2.20111e-12
2e-05
-2.32456e-12
2e-05
-2.45274e-12
2e-05
-2.58575e-12
2e-05
-2.72367e-12
2e-05
-2.86658e-12
2e-05
-3.01455e-12
2e-05
-3.16767e-12
2e-05
-3.32599e-12
2e-05
-3.48958e-12
2e-05
-3.65849e-12
2e-05
-3.83278e-12
2e-05
-4.01248e-12
2e-05
-4.19762e-12
2e-05
-4.38824e-12
2e-05
-4.58436e-12
2e-05
-4.78599e-12
2e-05
-4.99313e-12
2e-05
-5.20577e-12
2e-05
-5.42391e-12
2e-05
-5.64752e-12
2e-05
-5.87658e-12
2e-05
-6.11105e-12
2e-05
-6.35087e-12
2e-05
-6.596e-12
2e-05
-6.84638e-12
2e-05
-7.10194e-12
2e-05
-7.3626e-12
2e-05
-7.62828e-12
2e-05
-7.8989e-12
2e-05
-8.17435e-12
2e-05
-8.45455e-12
2e-05
-8.7394e-12
2e-05
-9.02879e-12
2e-05
-9.32263e-12
2e-05
-9.6208e-12
2e-05
-9.92321e-12
2e-05
-1.02298e-11
2e-05
-1.05404e-11
2e-05
-1.08549e-11
2e-05
-1.11733e-11
2e-05
-1.14954e-11
2e-05
-1.18213e-11
2e-05
-1.21507e-11
2e-05
-1.24836e-11
2e-05
-1.28199e-11
2e-05
-1.31594e-11
2e-05
-1.3502e-11
2e-05
-1.38474e-11
2e-05
-1.41954e-11
2e-05
-1.45456e-11
2e-05
-1.48974e-11
2e-05
-1.52499e-11
2e-05
-1.56023e-11
2e-05
-1.59528e-11
2e-05
-1.62996e-11
2e-05
-1.66394e-11
2e-05
-1.69679e-11
2e-05
-1.7279e-11
2e-05
-1.75637e-11
2e-05
-1.78097e-11
2e-05
-1.80002e-11
-1.8115e-11
2e-05
-8.46254e-15
2e-05
-2.71433e-14
2e-05
-4.74381e-14
2e-05
-6.91323e-14
2e-05
-9.22139e-14
2e-05
-1.16705e-13
2e-05
-1.42639e-13
2e-05
-1.70055e-13
2e-05
-1.99008e-13
2e-05
-2.29558e-13
2e-05
-2.61774e-13
2e-05
-2.95732e-13
2e-05
-3.31513e-13
2e-05
-3.692e-13
2e-05
-4.08883e-13
2e-05
-4.50652e-13
2e-05
-4.94602e-13
2e-05
-5.40826e-13
2e-05
-5.89424e-13
2e-05
-6.40492e-13
2e-05
-6.94131e-13
2e-05
-7.50441e-13
2e-05
-8.09526e-13
2e-05
-8.71486e-13
2e-05
-9.36425e-13
2e-05
-1.00445e-12
2e-05
-1.07565e-12
2e-05
-1.15015e-12
2e-05
-1.22804e-12
2e-05
-1.30943e-12
2e-05
-1.39442e-12
2e-05
-1.4831e-12
2e-05
-1.57559e-12
2e-05
-1.67198e-12
2e-05
-1.77237e-12
2e-05
-1.87685e-12
2e-05
-1.98553e-12
2e-05
-2.09848e-12
2e-05
-2.21579e-12
2e-05
-2.33756e-12
2e-05
-2.46387e-12
2e-05
-2.59478e-12
2e-05
-2.73038e-12
2e-05
-2.87074e-12
2e-05
-3.01592e-12
2e-05
-3.16597e-12
2e-05
-3.32096e-12
2e-05
-3.48093e-12
2e-05
-3.64592e-12
2e-05
-3.81598e-12
2e-05
-3.99112e-12
2e-05
-4.17137e-12
2e-05
-4.35676e-12
2e-05
-4.54727e-12
2e-05
-4.74293e-12
2e-05
-4.94373e-12
2e-05
-5.14964e-12
2e-05
-5.36065e-12
2e-05
-5.57675e-12
2e-05
-5.79788e-12
2e-05
-6.02403e-12
2e-05
-6.25513e-12
2e-05
-6.49114e-12
2e-05
-6.73201e-12
2e-05
-6.97767e-12
2e-05
-7.22807e-12
2e-05
-7.48314e-12
2e-05
-7.74282e-12
2e-05
-8.00704e-12
2e-05
-8.27574e-12
2e-05
-8.54885e-12
2e-05
-8.82632e-12
2e-05
-9.10811e-12
2e-05
-9.39416e-12
2e-05
-9.68444e-12
2e-05
-9.97892e-12
2e-05
-1.02776e-11
2e-05
-1.05804e-11
2e-05
-1.08875e-11
2e-05
-1.11987e-11
2e-05
-1.15142e-11
2e-05
-1.18339e-11
2e-05
-1.21579e-11
2e-05
-1.24861e-11
2e-05
-1.28185e-11
2e-05
-1.31552e-11
2e-05
-1.34958e-11
2e-05
-1.38401e-11
2e-05
-1.41877e-11
2e-05
-1.45379e-11
2e-05
-1.48896e-11
2e-05
-1.52414e-11
2e-05
-1.55908e-11
2e-05
-1.59348e-11
2e-05
-1.62686e-11
2e-05
-1.65856e-11
2e-05
-1.68765e-11
2e-05
-1.71284e-11
2e-05
-1.7324e-11
-1.74418e-11
2e-05
-7.94118e-15
2e-05
-2.55125e-14
2e-05
-4.46464e-14
2e-05
-6.51451e-14
2e-05
-8.70025e-14
2e-05
-1.10242e-13
2e-05
-1.34894e-13
2e-05
-1.60996e-13
2e-05
-1.88594e-13
2e-05
-2.17742e-13
2e-05
-2.48501e-13
2e-05
-2.80939e-13
2e-05
-3.15129e-13
2e-05
-3.51147e-13
2e-05
-3.89075e-13
2e-05
-4.28996e-13
2e-05
-4.70997e-13
2e-05
-5.15165e-13
2e-05
-5.61591e-13
2e-05
-6.10367e-13
2e-05
-6.61585e-13
2e-05
-7.1534e-13
2e-05
-7.71726e-13
2e-05
-8.30839e-13
2e-05
-8.92775e-13
2e-05
-9.5763e-13
2e-05
-1.0255e-12
2e-05
-1.09648e-12
2e-05
-1.17067e-12
2e-05
-1.24817e-12
2e-05
-1.32906e-12
2e-05
-1.41345e-12
2e-05
-1.50142e-12
2e-05
-1.59307e-12
2e-05
-1.68849e-12
2e-05
-1.78776e-12
2e-05
-1.89097e-12
2e-05
-1.99821e-12
2e-05
-2.10955e-12
2e-05
-2.22507e-12
2e-05
-2.34484e-12
2e-05
-2.46894e-12
2e-05
-2.59743e-12
2e-05
-2.73037e-12
2e-05
-2.86782e-12
2e-05
-3.00983e-12
2e-05
-3.15645e-12
2e-05
-3.30772e-12
2e-05
-3.46368e-12
2e-05
-3.62436e-12
2e-05
-3.78977e-12
2e-05
-3.95995e-12
2e-05
-4.1349e-12
2e-05
-4.31463e-12
2e-05
-4.49913e-12
2e-05
-4.68841e-12
2e-05
-4.88246e-12
2e-05
-5.08124e-12
2e-05
-5.28475e-12
2e-05
-5.49294e-12
2e-05
-5.7058e-12
2e-05
-5.92328e-12
2e-05
-6.14535e-12
2e-05
-6.37196e-12
2e-05
-6.60306e-12
2e-05
-6.83863e-12
2e-05
-7.07861e-12
2e-05
-7.32296e-12
2e-05
-7.57166e-12
2e-05
-7.82466e-12
2e-05
-8.08194e-12
2e-05
-8.3435e-12
2e-05
-8.60932e-12
2e-05
-8.87941e-12
2e-05
-9.15381e-12
2e-05
-9.43254e-12
2e-05
-9.71566e-12
2e-05
-1.00032e-11
2e-05
-1.02954e-11
2e-05
-1.05922e-11
2e-05
-1.08938e-11
2e-05
-1.12003e-11
2e-05
-1.15118e-11
2e-05
-1.18285e-11
2e-05
-1.21504e-11
2e-05
-1.24776e-11
2e-05
-1.281e-11
2e-05
-1.31476e-11
2e-05
-1.34898e-11
2e-05
-1.38361e-11
2e-05
-1.41854e-11
2e-05
-1.45362e-11
2e-05
-1.48861e-11
2e-05
-1.52317e-11
2e-05
-1.55681e-11
2e-05
-1.58883e-11
2e-05
-1.61827e-11
2e-05
-1.64381e-11
2e-05
-1.66369e-11
-1.67566e-11
2e-05
-7.44967e-15
2e-05
-2.39716e-14
2e-05
-4.20013e-14
2e-05
-6.13549e-14
2e-05
-8.20317e-14
2e-05
-1.04057e-13
2e-05
-1.27459e-13
2e-05
-1.52273e-13
2e-05
-1.7854e-13
2e-05
-2.06308e-13
2e-05
-2.35633e-13
2e-05
-2.66574e-13
2e-05
-2.99198e-13
2e-05
-3.33575e-13
2e-05
-3.69778e-13
2e-05
-4.07883e-13
2e-05
-4.47971e-13
2e-05
-4.90123e-13
2e-05
-5.34422e-13
2e-05
-5.80953e-13
2e-05
-6.29802e-13
2e-05
-6.81057e-13
2e-05
-7.34805e-13
2e-05
-7.91137e-13
2e-05
-8.50139e-13
2e-05
-9.11903e-13
2e-05
-9.76517e-13
2e-05
-1.04407e-12
2e-05
-1.11465e-12
2e-05
-1.18835e-12
2e-05
-1.26526e-12
2e-05
-1.34546e-12
2e-05
-1.42903e-12
2e-05
-1.51606e-12
2e-05
-1.60664e-12
2e-05
-1.70084e-12
2e-05
-1.79874e-12
2e-05
-1.90041e-12
2e-05
-2.00594e-12
2e-05
-2.11538e-12
2e-05
-2.2288e-12
2e-05
-2.34627e-12
2e-05
-2.46785e-12
2e-05
-2.59359e-12
2e-05
-2.72353e-12
2e-05
-2.85773e-12
2e-05
-2.99623e-12
2e-05
-3.13906e-12
2e-05
-3.28625e-12
2e-05
-3.43782e-12
2e-05
-3.5938e-12
2e-05
-3.75421e-12
2e-05
-3.91904e-12
2e-05
-4.08831e-12
2e-05
-4.26201e-12
2e-05
-4.44013e-12
2e-05
-4.62266e-12
2e-05
-4.8096e-12
2e-05
-5.00091e-12
2e-05
-5.19657e-12
2e-05
-5.39656e-12
2e-05
-5.60085e-12
2e-05
-5.80941e-12
2e-05
-6.02221e-12
2e-05
-6.23921e-12
2e-05
-6.46041e-12
2e-05
-6.68576e-12
2e-05
-6.91527e-12
2e-05
-7.14891e-12
2e-05
-7.38668e-12
2e-05
-7.6286e-12
2e-05
-7.8747e-12
2e-05
-8.125e-12
2e-05
-8.37957e-12
2e-05
-8.63848e-12
2e-05
-8.90184e-12
2e-05
-9.16975e-12
2e-05
-9.44236e-12
2e-05
-9.71985e-12
2e-05
-1.00024e-11
2e-05
-1.02902e-11
2e-05
-1.05835e-11
2e-05
-1.08824e-11
2e-05
-1.11873e-11
2e-05
-1.14984e-11
2e-05
-1.18156e-11
2e-05
-1.21392e-11
2e-05
-1.2469e-11
2e-05
-1.28047e-11
2e-05
-1.31457e-11
2e-05
-1.3491e-11
2e-05
-1.3839e-11
2e-05
-1.41873e-11
2e-05
-1.45323e-11
2e-05
-1.48689e-11
2e-05
-1.51899e-11
2e-05
-1.54856e-11
2e-05
-1.57425e-11
2e-05
-1.59428e-11
-1.60633e-11
2e-05
-6.98521e-15
2e-05
-2.25126e-14
2e-05
-3.94911e-14
2e-05
-5.77489e-14
2e-05
-7.72893e-14
2e-05
-9.8139e-14
2e-05
-1.20326e-13
2e-05
-1.43883e-13
2e-05
-1.68848e-13
2e-05
-1.95264e-13
2e-05
-2.2318e-13
2e-05
-2.52652e-13
2e-05
-2.83739e-13
2e-05
-3.16504e-13
2e-05
-3.51014e-13
2e-05
-3.87339e-13
2e-05
-4.25553e-13
2e-05
-4.6573e-13
2e-05
-5.07947e-13
2e-05
-5.52283e-13
2e-05
-5.98817e-13
2e-05
-6.4763e-13
2e-05
-6.98804e-13
2e-05
-7.52421e-13
2e-05
-8.08563e-13
2e-05
-8.67314e-13
2e-05
-9.28755e-13
2e-05
-9.92969e-13
2e-05
-1.06004e-12
2e-05
-1.13004e-12
2e-05
-1.20307e-12
2e-05
-1.27919e-12
2e-05
-1.35848e-12
2e-05
-1.44103e-12
2e-05
-1.5269e-12
2e-05
-1.61617e-12
2e-05
-1.70891e-12
2e-05
-1.80518e-12
2e-05
-1.90506e-12
2e-05
-2.0086e-12
2e-05
-2.11587e-12
2e-05
-2.22691e-12
2e-05
-2.34178e-12
2e-05
-2.46053e-12
2e-05
-2.5832e-12
2e-05
-2.70983e-12
2e-05
-2.84045e-12
2e-05
-2.9751e-12
2e-05
-3.1138e-12
2e-05
-3.25656e-12
2e-05
-3.40341e-12
2e-05
-3.55435e-12
2e-05
-3.7094e-12
2e-05
-3.86854e-12
2e-05
-4.03178e-12
2e-05
-4.19911e-12
2e-05
-4.37052e-12
2e-05
-4.546e-12
2e-05
-4.72552e-12
2e-05
-4.90906e-12
2e-05
-5.09662e-12
2e-05
-5.28815e-12
2e-05
-5.48366e-12
2e-05
-5.6831e-12
2e-05
-5.88648e-12
2e-05
-6.09378e-12
2e-05
-6.305e-12
2e-05
-6.52014e-12
2e-05
-6.73921e-12
2e-05
-6.96225e-12
2e-05
-7.18929e-12
2e-05
-7.42039e-12
2e-05
-7.65564e-12
2e-05
-7.89513e-12
2e-05
-8.13898e-12
2e-05
-8.38735e-12
2e-05
-8.6404e-12
2e-05
-8.89835e-12
2e-05
-9.16143e-12
2e-05
-9.42989e-12
2e-05
-9.70402e-12
2e-05
-9.98412e-12
2e-05
-1.02705e-11
2e-05
-1.05634e-11
2e-05
-1.08632e-11
2e-05
-1.11701e-11
2e-05
-1.14841e-11
2e-05
-1.18053e-11
2e-05
-1.21334e-11
2e-05
-1.2468e-11
2e-05
-1.28078e-11
2e-05
-1.31514e-11
2e-05
-1.34962e-11
2e-05
-1.38386e-11
2e-05
-1.41734e-11
2e-05
-1.44933e-11
2e-05
-1.47883e-11
2e-05
-1.50451e-11
2e-05
-1.52455e-11
-1.5366e-11
2e-05
-6.54558e-15
2e-05
-2.11294e-14
2e-05
-3.71068e-14
2e-05
-5.43162e-14
2e-05
-7.27643e-14
2e-05
-9.24789e-14
2e-05
-1.13488e-13
2e-05
-1.35822e-13
2e-05
-1.59517e-13
2e-05
-1.84611e-13
2e-05
-2.11149e-13
2e-05
-2.39182e-13
2e-05
-2.68763e-13
2e-05
-2.99949e-13
2e-05
-3.32801e-13
2e-05
-3.67384e-13
2e-05
-4.03765e-13
2e-05
-4.42011e-13
2e-05
-4.82195e-13
2e-05
-5.24387e-13
2e-05
-5.68662e-13
2e-05
-6.15094e-13
2e-05
-6.63758e-13
2e-05
-7.14731e-13
2e-05
-7.68087e-13
2e-05
-8.23904e-13
2e-05
-8.82257e-13
2e-05
-9.43222e-13
2e-05
-1.00688e-12
2e-05
-1.07329e-12
2e-05
-1.14254e-12
2e-05
-1.2147e-12
2e-05
-1.28984e-12
2e-05
-1.36803e-12
2e-05
-1.44934e-12
2e-05
-1.53382e-12
2e-05
-1.62156e-12
2e-05
-1.7126e-12
2e-05
-1.807e-12
2e-05
-1.90483e-12
2e-05
-2.00612e-12
2e-05
-2.11094e-12
2e-05
-2.21932e-12
2e-05
-2.33131e-12
2e-05
-2.44694e-12
2e-05
-2.56624e-12
2e-05
-2.68925e-12
2e-05
-2.81599e-12
2e-05
-2.94647e-12
2e-05
-3.08072e-12
2e-05
-3.21875e-12
2e-05
-3.36055e-12
2e-05
-3.50614e-12
2e-05
-3.65551e-12
2e-05
-3.80866e-12
2e-05
-3.96557e-12
2e-05
-4.12624e-12
2e-05
-4.29066e-12
2e-05
-4.45881e-12
2e-05
-4.63067e-12
2e-05
-4.80622e-12
2e-05
-4.98546e-12
2e-05
-5.16837e-12
2e-05
-5.35494e-12
2e-05
-5.54517e-12
2e-05
-5.73907e-12
2e-05
-5.93664e-12
2e-05
-6.13791e-12
2e-05
-6.34292e-12
2e-05
-6.55172e-12
2e-05
-6.76437e-12
2e-05
-6.98097e-12
2e-05
-7.20164e-12
2e-05
-7.4265e-12
2e-05
-7.65572e-12
2e-05
-7.88951e-12
2e-05
-8.12808e-12
2e-05
-8.3717e-12
2e-05
-8.62065e-12
2e-05
-8.87525e-12
2e-05
-9.13585e-12
2e-05
-9.40282e-12
2e-05
-9.67653e-12
2e-05
-9.95735e-12
2e-05
-1.02456e-11
2e-05
-1.05416e-11
2e-05
-1.08456e-11
2e-05
-1.11575e-11
2e-05
-1.14772e-11
2e-05
-1.18041e-11
2e-05
-1.21372e-11
2e-05
-1.2475e-11
2e-05
-1.28148e-11
2e-05
-1.31529e-11
2e-05
-1.34841e-11
2e-05
-1.38011e-11
2e-05
-1.40938e-11
2e-05
-1.43488e-11
2e-05
-1.45482e-11
-1.4668e-11
2e-05
-6.12904e-15
2e-05
-1.98166e-14
2e-05
-3.48402e-14
2e-05
-5.10472e-14
2e-05
-6.84466e-14
2e-05
-8.70674e-14
2e-05
-1.06937e-13
2e-05
-1.28085e-13
2e-05
-1.50543e-13
2e-05
-1.74349e-13
2e-05
-1.99543e-13
2e-05
-2.2617e-13
2e-05
-2.54279e-13
2e-05
-2.83922e-13
2e-05
-3.15155e-13
2e-05
-3.48036e-13
2e-05
-3.82626e-13
2e-05
-4.18988e-13
2e-05
-4.57187e-13
2e-05
-4.9729e-13
2e-05
-5.39363e-13
2e-05
-5.83476e-13
2e-05
-6.29697e-13
2e-05
-6.78096e-13
2e-05
-7.28743e-13
2e-05
-7.81708e-13
2e-05
-8.37061e-13
2e-05
-8.94871e-13
2e-05
-9.55208e-13
2e-05
-1.01814e-12
2e-05
-1.08373e-12
2e-05
-1.15205e-12
2e-05
-1.22316e-12
2e-05
-1.29713e-12
2e-05
-1.37401e-12
2e-05
-1.45387e-12
2e-05
-1.53676e-12
2e-05
-1.62273e-12
2e-05
-1.71184e-12
2e-05
-1.80413e-12
2e-05
-1.89966e-12
2e-05
-1.99845e-12
2e-05
-2.10056e-12
2e-05
-2.20601e-12
2e-05
-2.31484e-12
2e-05
-2.42708e-12
2e-05
-2.54273e-12
2e-05
-2.66184e-12
2e-05
-2.7844e-12
2e-05
-2.91044e-12
2e-05
-3.03995e-12
2e-05
-3.17294e-12
2e-05
-3.30942e-12
2e-05
-3.44937e-12
2e-05
-3.59279e-12
2e-05
-3.73967e-12
2e-05
-3.89e-12
2e-05