/*--------------------------------*- C++ -*----------------------------------*\
  =========                 |
  \\      /  F ield         | OpenFOAM: The Open Source CFD Toolbox
   \\    /   O peration     | Website:  https://openfoam.org
    \\  /    A nd           | Version:  11
     \\/     M anipulation  |
\*---------------------------------------------------------------------------*/
FoamFile
{
    format      ascii;
    class       volVectorField;
    location    "1666";
    object      U;
}
// * * * * * * * * * * * * * * * * * * * * * * * * * * * * * * * * * * * * * //

dimensions      [0 1 -1 0 0 0 0];

internalField   nonuniform List<vector> 
10000
(
(0.005 -2.6018e-13 0)
(0.005 -7.28112e-13 0)
(0.005 -1.18165e-12 0)
(0.005 -1.63654e-12 0)
(0.005 -2.10197e-12 0)
(0.005 -2.58454e-12 0)
(0.005 -3.08932e-12 0)
(0.005 -3.62051e-12 0)
(0.005 -4.18183e-12 0)
(0.005 -4.77668e-12 0)
(0.005 -5.40832e-12 0)
(0.005 -6.07996e-12 0)
(0.005 -6.79475e-12 0)
(0.005 -7.55588e-12 0)
(0.005 -8.36661e-12 0)
(0.005 -9.23023e-12 0)
(0.005 -1.01501e-11 0)
(0.005 -1.11298e-11 0)
(0.005 -1.21729e-11 0)
(0.005 -1.3283e-11 0)
(0.005 -1.44641e-11 0)
(0.005 -1.572e-11 0)
(0.005 -1.7055e-11 0)
(0.005 -1.84732e-11 0)
(0.005 -1.99791e-11 0)
(0.005 -2.15772e-11 0)
(0.005 -2.32722e-11 0)
(0.005 -2.50691e-11 0)
(0.005 -2.69727e-11 0)
(0.005 -2.89884e-11 0)
(0.005 -3.11215e-11 0)
(0.005 -3.33774e-11 0)
(0.005 -3.5762e-11 0)
(0.005 -3.82809e-11 0)
(0.005 -4.09404e-11 0)
(0.005 -4.37465e-11 0)
(0.005 -4.67055e-11 0)
(0.005 -4.98241e-11 0)
(0.005 -5.31087e-11 0)
(0.005 -5.65663e-11 0)
(0.005 -6.02037e-11 0)
(0.005 -6.40281e-11 0)
(0.005 -6.80465e-11 0)
(0.005 -7.22664e-11 0)
(0.005 -7.66951e-11 0)
(0.005 -8.13402e-11 0)
(0.005 -8.62091e-11 0)
(0.005 -9.13096e-11 0)
(0.005 -9.66493e-11 0)
(0.005 -1.02236e-10 0)
(0.005 -1.08077e-10 0)
(0.005 -1.14181e-10 0)
(0.005 -1.20554e-10 0)
(0.005 -1.27205e-10 0)
(0.005 -1.34141e-10 0)
(0.005 -1.41369e-10 0)
(0.005 -1.48896e-10 0)
(0.005 -1.56729e-10 0)
(0.005 -1.64875e-10 0)
(0.005 -1.7334e-10 0)
(0.005 -1.8213e-10 0)
(0.005 -1.9125e-10 0)
(0.005 -2.00705e-10 0)
(0.005 -2.105e-10 0)
(0.005 -2.20637e-10 0)
(0.005 -2.3112e-10 0)
(0.005 -2.41952e-10 0)
(0.005 -2.53132e-10 0)
(0.005 -2.6466e-10 0)
(0.005 -2.76536e-10 0)
(0.005 -2.88757e-10 0)
(0.005 -3.01318e-10 0)
(0.005 -3.14213e-10 0)
(0.005 -3.27435e-10 0)
(0.005 -3.40972e-10 0)
(0.005 -3.54812e-10 0)
(0.005 -3.6894e-10 0)
(0.005 -3.83337e-10 0)
(0.005 -3.97981e-10 0)
(0.005 -4.12845e-10 0)
(0.005 -4.27899e-10 0)
(0.005 -4.43106e-10 0)
(0.005 -4.58425e-10 0)
(0.005 -4.73808e-10 0)
(0.005 -4.89197e-10 0)
(0.005 -5.04528e-10 0)
(0.005 -5.19725e-10 0)
(0.005 -5.34701e-10 0)
(0.005 -5.49355e-10 0)
(0.005 -5.63573e-10 0)
(0.005 -5.77221e-10 0)
(0.005 -5.90145e-10 0)
(0.005 -6.02173e-10 0)
(0.005 -6.13106e-10 0)
(0.005 -6.22727e-10 0)
(0.005 -6.30801e-10 0)
(0.005 -6.37091e-10 0)
(0.005 -6.41376e-10 0)
(0.005 -6.43576e-10 0)
(0.005 -6.4404e-10 0)
(0.005 -2.22251e-13 0)
(0.005 -6.56341e-13 0)
(0.005 -1.08801e-12 0)
(0.005 -1.52297e-12 0)
(0.005 -1.96867e-12 0)
(0.005 -2.43096e-12 0)
(0.005 -2.91452e-12 0)
(0.005 -3.42331e-12 0)
(0.005 -3.96084e-12 0)
(0.005 -4.53038e-12 0)
(0.005 -5.13507e-12 0)
(0.005 -5.77796e-12 0)
(0.005 -6.4621e-12 0)
(0.005 -7.19056e-12 0)
(0.005 -7.96644e-12 0)
(0.005 -8.79294e-12 0)
(0.005 -9.67329e-12 0)
(0.005 -1.06109e-11 0)
(0.005 -1.16091e-11 0)
(0.005 -1.26716e-11 0)
(0.005 -1.3802e-11 0)
(0.005 -1.50042e-11 0)
(0.005 -1.62821e-11 0)
(0.005 -1.76398e-11 0)
(0.005 -1.90815e-11 0)
(0.005 -2.06116e-11 0)
(0.005 -2.22347e-11 0)
(0.005 -2.39554e-11 0)
(0.005 -2.57785e-11 0)
(0.005 -2.77092e-11 0)
(0.005 -2.97524e-11 0)
(0.005 -3.19137e-11 0)
(0.005 -3.41983e-11 0)
(0.005 -3.6612e-11 0)
(0.005 -3.91606e-11 0)
(0.005 -4.18501e-11 0)
(0.005 -4.46865e-11 0)
(0.005 -4.76762e-11 0)
(0.005 -5.08255e-11 0)
(0.005 -5.4141e-11 0)
(0.005 -5.76295e-11 0)
(0.005 -6.12977e-11 0)
(0.005 -6.51527e-11 0)
(0.005 -6.92015e-11 0)
(0.005 -7.34513e-11 0)
(0.005 -7.79094e-11 0)
(0.005 -8.25831e-11 0)
(0.005 -8.748e-11 0)
(0.005 -9.26074e-11 0)
(0.005 -9.79729e-11 0)
(0.005 -1.03584e-10 0)
(0.005 -1.09448e-10 0)
(0.005 -1.15573e-10 0)
(0.005 -1.21966e-10 0)
(0.005 -1.28634e-10 0)
(0.005 -1.35585e-10 0)
(0.005 -1.42825e-10 0)
(0.005 -1.50362e-10 0)
(0.005 -1.58202e-10 0)
(0.005 -1.66351e-10 0)
(0.005 -1.74816e-10 0)
(0.005 -1.83602e-10 0)
(0.005 -1.92714e-10 0)
(0.005 -2.02157e-10 0)
(0.005 -2.11934e-10 0)
(0.005 -2.2205e-10 0)
(0.005 -2.32506e-10 0)
(0.005 -2.43304e-10 0)
(0.005 -2.54446e-10 0)
(0.005 -2.65931e-10 0)
(0.005 -2.77756e-10 0)
(0.005 -2.8992e-10 0)
(0.005 -3.02418e-10 0)
(0.005 -3.15243e-10 0)
(0.005 -3.28387e-10 0)
(0.005 -3.41839e-10 0)
(0.005 -3.55588e-10 0)
(0.005 -3.69616e-10 0)
(0.005 -3.83906e-10 0)
(0.005 -3.98435e-10 0)
(0.005 -4.13175e-10 0)
(0.005 -4.28097e-10 0)
(0.005 -4.43164e-10 0)
(0.005 -4.58334e-10 0)
(0.005 -4.73556e-10 0)
(0.005 -4.88774e-10 0)
(0.005 -5.03921e-10 0)
(0.005 -5.18919e-10 0)
(0.005 -5.33681e-10 0)
(0.005 -5.48101e-10 0)
(0.005 -5.62061e-10 0)
(0.005 -5.75424e-10 0)
(0.005 -5.88033e-10 0)
(0.005 -5.99712e-10 0)
(0.005 -6.10266e-10 0)
(0.005 -6.19485e-10 0)
(0.005 -6.27144e-10 0)
(0.005 -6.32995e-10 0)
(0.005 -6.36888e-10 0)
(0.005 -6.39225e-10 0)
(0.005 -1.91921e-13 0)
(0.005 -5.89936e-13 0)
(0.005 -9.96418e-13 0)
(0.005 -1.41031e-12 0)
(0.005 -1.83601e-12 0)
(0.005 -2.27817e-12 0)
(0.005 -2.74085e-12 0)
(0.005 -3.22766e-12 0)
(0.005 -3.74192e-12 0)
(0.005 -4.28673e-12 0)
(0.005 -4.86509e-12 0)
(0.005 -5.47992e-12 0)
(0.005 -6.13416e-12 0)
(0.005 -6.83074e-12 0)
(0.005 -7.57265e-12 0)
(0.005 -8.36296e-12 0)
(0.005 -9.20478e-12 0)
(0.005 -1.01013e-11 0)
(0.005 -1.1056e-11 0)
(0.005 -1.20721e-11 0)
(0.005 -1.31533e-11 0)
(0.005 -1.43032e-11 0)
(0.005 -1.55256e-11 0)
(0.005 -1.68244e-11 0)
(0.005 -1.82038e-11 0)
(0.005 -1.96678e-11 0)
(0.005 -2.1221e-11 0)
(0.005 -2.28678e-11 0)
(0.005 -2.46129e-11 0)
(0.005 -2.6461e-11 0)
(0.005 -2.84172e-11 0)
(0.005 -3.04865e-11 0)
(0.005 -3.26743e-11 0)
(0.005 -3.4986e-11 0)
(0.005 -3.74273e-11 0)
(0.005 -4.00037e-11 0)
(0.005 -4.27213e-11 0)
(0.005 -4.55862e-11 0)
(0.005 -4.86044e-11 0)
(0.005 -5.17824e-11 0)
(0.005 -5.51267e-11 0)
(0.005 -5.86439e-11 0)
(0.005 -6.23407e-11 0)
(0.005 -6.6224e-11 0)
(0.005 -7.03008e-11 0)
(0.005 -7.45781e-11 0)
(0.005 -7.90632e-11 0)
(0.005 -8.37632e-11 0)
(0.005 -8.86854e-11 0)
(0.005 -9.38372e-11 0)
(0.005 -9.9226e-11 0)
(0.005 -1.04859e-10 0)
(0.005 -1.10744e-10 0)
(0.005 -1.16887e-10 0)
(0.005 -1.23297e-10 0)
(0.005 -1.2998e-10 0)
(0.005 -1.36944e-10 0)
(0.005 -1.44195e-10 0)
(0.005 -1.51739e-10 0)
(0.005 -1.59584e-10 0)
(0.005 -1.67736e-10 0)
(0.005 -1.76199e-10 0)
(0.005 -1.8498e-10 0)
(0.005 -1.94083e-10 0)
(0.005 -2.03514e-10 0)
(0.005 -2.13275e-10 0)
(0.005 -2.2337e-10 0)
(0.005 -2.33801e-10 0)
(0.005 -2.4457e-10 0)
(0.005 -2.55677e-10 0)
(0.005 -2.67122e-10 0)
(0.005 -2.78903e-10 0)
(0.005 -2.91018e-10 0)
(0.005 -3.03461e-10 0)
(0.005 -3.16226e-10 0)
(0.005 -3.29305e-10 0)
(0.005 -3.42688e-10 0)
(0.005 -3.56362e-10 0)
(0.005 -3.7031e-10 0)
(0.005 -3.84515e-10 0)
(0.005 -3.98954e-10 0)
(0.005 -4.136e-10 0)
(0.005 -4.28423e-10 0)
(0.005 -4.43385e-10 0)
(0.005 -4.58444e-10 0)
(0.005 -4.7355e-10 0)
(0.005 -4.88644e-10 0)
(0.005 -5.03659e-10 0)
(0.005 -5.18515e-10 0)
(0.005 -5.3312e-10 0)
(0.005 -5.47368e-10 0)
(0.005 -5.61134e-10 0)
(0.005 -5.74277e-10 0)
(0.005 -5.86634e-10 0)
(0.005 -5.98024e-10 0)
(0.005 -6.08244e-10 0)
(0.005 -6.17069e-10 0)
(0.005 -6.24246e-10 0)
(0.005 -6.29624e-10 0)
(0.005 -6.33269e-10 0)
(0.005 -1.712e-13 0)
(0.005 -5.3675e-13 0)
(0.005 -9.17919e-13 0)
(0.005 -1.31054e-12 0)
(0.005 -1.71672e-12 0)
(0.005 -2.13979e-12 0)
(0.005 -2.58306e-12 0)
(0.005 -3.04969e-12 0)
(0.005 -3.5427e-12 0)
(0.005 -4.06501e-12 0)
(0.005 -4.61944e-12 0)
(0.005 -5.2088e-12 0)
(0.005 -5.8359e-12 0)
(0.005 -6.50356e-12 0)
(0.005 -7.21466e-12 0)
(0.005 -7.97213e-12 0)
(0.005 -8.77899e-12 0)
(0.005 -9.63835e-12 0)
(0.005 -1.05534e-11 0)
(0.005 -1.15274e-11 0)
(0.005 -1.25639e-11 0)
(0.005 -1.36663e-11 0)
(0.005 -1.48383e-11 0)
(0.005 -1.60837e-11 0)
(0.005 -1.74064e-11 0)
(0.005 -1.88105e-11 0)
(0.005 -2.03003e-11 0)
(0.005 -2.18799e-11 0)
(0.005 -2.3554e-11 0)
(0.005 -2.53272e-11 0)
(0.005 -2.72042e-11 0)
(0.005 -2.91901e-11 0)
(0.005 -3.129e-11 0)
(0.005 -3.3509e-11 0)
(0.005 -3.58526e-11 0)
(0.005 -3.83264e-11 0)
(0.005 -4.0936e-11 0)
(0.005 -4.36874e-11 0)
(0.005 -4.65866e-11 0)
(0.005 -4.96397e-11 0)
(0.005 -5.28529e-11 0)
(0.005 -5.62328e-11 0)
(0.005 -5.97858e-11 0)
(0.005 -6.35187e-11 0)
(0.005 -6.74382e-11 0)
(0.005 -7.15512e-11 0)
(0.005 -7.58647e-11 0)
(0.005 -8.03858e-11 0)
(0.005 -8.51215e-11 0)
(0.005 -9.0079e-11 0)
(0.005 -9.52656e-11 0)
(0.005 -1.00688e-10 0)
(0.005 -1.06355e-10 0)
(0.005 -1.12272e-10 0)
(0.005 -1.18447e-10 0)
(0.005 -1.24887e-10 0)
(0.005 -1.31599e-10 0)
(0.005 -1.38589e-10 0)
(0.005 -1.45865e-10 0)
(0.005 -1.53433e-10 0)
(0.005 -1.61299e-10 0)
(0.005 -1.69469e-10 0)
(0.005 -1.77949e-10 0)
(0.005 -1.86744e-10 0)
(0.005 -1.95858e-10 0)
(0.005 -2.05297e-10 0)
(0.005 -2.15063e-10 0)
(0.005 -2.25159e-10 0)
(0.005 -2.35589e-10 0)
(0.005 -2.46352e-10 0)
(0.005 -2.57451e-10 0)
(0.005 -2.68884e-10 0)
(0.005 -2.80649e-10 0)
(0.005 -2.92744e-10 0)
(0.005 -3.05163e-10 0)
(0.005 -3.17901e-10 0)
(0.005 -3.3095e-10 0)
(0.005 -3.44298e-10 0)
(0.005 -3.57934e-10 0)
(0.005 -3.71842e-10 0)
(0.005 -3.86002e-10 0)
(0.005 -4.00393e-10 0)
(0.005 -4.14989e-10 0)
(0.005 -4.29756e-10 0)
(0.005 -4.44659e-10 0)
(0.005 -4.59654e-10 0)
(0.005 -4.74689e-10 0)
(0.005 -4.89705e-10 0)
(0.005 -5.0463e-10 0)
(0.005 -5.19381e-10 0)
(0.005 -5.33862e-10 0)
(0.005 -5.47958e-10 0)
(0.005 -5.61537e-10 0)
(0.005 -5.74444e-10 0)
(0.005 -5.865e-10 0)
(0.005 -5.97496e-10 0)
(0.005 -6.07188e-10 0)
(0.005 -6.15279e-10 0)
(0.005 -6.21469e-10 0)
(0.005 -6.25747e-10 0)
(0.005 -1.5466e-13 0)
(0.005 -4.90433e-13 0)
(0.005 -8.46027e-13 0)
(0.005 -1.2163e-12 0)
(0.005 -1.60198e-12 0)
(0.005 -2.00529e-12 0)
(0.005 -2.42876e-12 0)
(0.005 -2.87506e-12 0)
(0.005 -3.34686e-12 0)
(0.005 -3.84682e-12 0)
(0.005 -4.37759e-12 0)
(0.005 -4.94181e-12 0)
(0.005 -5.54215e-12 0)
(0.005 -6.18132e-12 0)
(0.005 -6.86207e-12 0)
(0.005 -7.58721e-12 0)
(0.005 -8.35966e-12 0)
(0.005 -9.18237e-12 0)
(0.005 -1.00584e-11 0)
(0.005 -1.0991e-11 0)
(0.005 -1.19835e-11 0)
(0.005 -1.30391e-11 0)
(0.005 -1.41615e-11 0)
(0.005 -1.53543e-11 0)
(0.005 -1.66213e-11 0)
(0.005 -1.79663e-11 0)
(0.005 -1.93935e-11 0)
(0.005 -2.0907e-11 0)
(0.005 -2.25112e-11 0)
(0.005 -2.42105e-11 0)
(0.005 -2.60096e-11 0)
(0.005 -2.79133e-11 0)
(0.005 -2.99264e-11 0)
(0.005 -3.20541e-11 0)
(0.005 -3.43015e-11 0)
(0.005 -3.66741e-11 0)
(0.005 -3.91774e-11 0)
(0.005 -4.1817e-11 0)
(0.005 -4.45987e-11 0)
(0.005 -4.75286e-11 0)
(0.005 -5.06127e-11 0)
(0.005 -5.38572e-11 0)
(0.005 -5.72685e-11 0)
(0.005 -6.08531e-11 0)
(0.005 -6.46176e-11 0)
(0.005 -6.85686e-11 0)
(0.005 -7.27129e-11 0)
(0.005 -7.70575e-11 0)
(0.005 -8.16093e-11 0)
(0.005 -8.63752e-11 0)
(0.005 -9.13624e-11 0)
(0.005 -9.6578e-11 0)
(0.005 -1.02029e-10 0)
(0.005 -1.07723e-10 0)
(0.005 -1.13666e-10 0)
(0.005 -1.19866e-10 0)
(0.005 -1.26329e-10 0)
(0.005 -1.33063e-10 0)
(0.005 -1.40074e-10 0)
(0.005 -1.47368e-10 0)
(0.005 -1.54953e-10 0)
(0.005 -1.62834e-10 0)
(0.005 -1.71016e-10 0)
(0.005 -1.79507e-10 0)
(0.005 -1.88309e-10 0)
(0.005 -1.97429e-10 0)
(0.005 -2.0687e-10 0)
(0.005 -2.16636e-10 0)
(0.005 -2.2673e-10 0)
(0.005 -2.37154e-10 0)
(0.005 -2.4791e-10 0)
(0.005 -2.58998e-10 0)
(0.005 -2.70417e-10 0)
(0.005 -2.82167e-10 0)
(0.005 -2.94244e-10 0)
(0.005 -3.06643e-10 0)
(0.005 -3.1936e-10 0)
(0.005 -3.32385e-10 0)
(0.005 -3.45709e-10 0)
(0.005 -3.5932e-10 0)
(0.005 -3.73201e-10 0)
(0.005 -3.87335e-10 0)
(0.005 -4.01699e-10 0)
(0.005 -4.16267e-10 0)
(0.005 -4.31007e-10 0)
(0.005 -4.45881e-10 0)
(0.005 -4.60844e-10 0)
(0.005 -4.75843e-10 0)
(0.005 -4.90814e-10 0)
(0.005 -5.05683e-10 0)
(0.005 -5.20359e-10 0)
(0.005 -5.34737e-10 0)
(0.005 -5.4869e-10 0)
(0.005 -5.62066e-10 0)
(0.005 -5.74684e-10 0)
(0.005 -5.86322e-10 0)
(0.005 -5.96708e-10 0)
(0.005 -6.05495e-10 0)
(0.005 -6.12263e-10 0)
(0.005 -6.16607e-10 0)
(0.005 -1.40331e-13 0)
(0.005 -4.48717e-13 0)
(0.005 -7.79246e-13 0)
(0.005 -1.12672e-12 0)
(0.005 -1.49114e-12 0)
(0.005 -1.87395e-12 0)
(0.005 -2.27705e-12 0)
(0.005 -2.70261e-12 0)
(0.005 -3.15293e-12 0)
(0.005 -3.63041e-12 0)
(0.005 -4.13747e-12 0)
(0.005 -4.67658e-12 0)
(0.005 -5.25026e-12 0)
(0.005 -5.86107e-12 0)
(0.005 -6.51164e-12 0)
(0.005 -7.20467e-12 0)
(0.005 -7.94292e-12 0)
(0.005 -8.72927e-12 0)
(0.005 -9.56665e-12 0)
(0.005 -1.04581e-11 0)
(0.005 -1.14068e-11 0)
(0.005 -1.24161e-11 0)
(0.005 -1.34892e-11 0)
(0.005 -1.46298e-11 0)
(0.005 -1.58414e-11 0)
(0.005 -1.71278e-11 0)
(0.005 -1.84929e-11 0)
(0.005 -1.99408e-11 0)
(0.005 -2.14756e-11 0)
(0.005 -2.31017e-11 0)
(0.005 -2.48234e-11 0)
(0.005 -2.66454e-11 0)
(0.005 -2.85724e-11 0)
(0.005 -3.06094e-11 0)
(0.005 -3.27614e-11 0)
(0.005 -3.50335e-11 0)
(0.005 -3.74311e-11 0)
(0.005 -3.99597e-11 0)
(0.005 -4.26249e-11 0)
(0.005 -4.54325e-11 0)
(0.005 -4.83883e-11 0)
(0.005 -5.14984e-11 0)
(0.005 -5.4769e-11 0)
(0.005 -5.82063e-11 0)
(0.005 -6.18168e-11 0)
(0.005 -6.56069e-11 0)
(0.005 -6.95833e-11 0)
(0.005 -7.37526e-11 0)
(0.005 -7.81217e-11 0)
(0.005 -8.26973e-11 0)
(0.005 -8.74865e-11 0)
(0.005 -9.24962e-11 0)
(0.005 -9.77333e-11 0)
(0.005 -1.03205e-10 0)
(0.005 -1.08918e-10 0)
(0.005 -1.14879e-10 0)
(0.005 -1.21096e-10 0)
(0.005 -1.27575e-10 0)
(0.005 -1.34322e-10 0)
(0.005 -1.41345e-10 0)
(0.005 -1.4865e-10 0)
(0.005 -1.56243e-10 0)
(0.005 -1.64131e-10 0)
(0.005 -1.72318e-10 0)
(0.005 -1.8081e-10 0)
(0.005 -1.89613e-10 0)
(0.005 -1.98731e-10 0)
(0.005 -2.08168e-10 0)
(0.005 -2.17928e-10 0)
(0.005 -2.28014e-10 0)
(0.005 -2.38428e-10 0)
(0.005 -2.49173e-10 0)
(0.005 -2.60248e-10 0)
(0.005 -2.71653e-10 0)
(0.005 -2.83388e-10 0)
(0.005 -2.95449e-10 0)
(0.005 -3.07833e-10 0)
(0.005 -3.20534e-10 0)
(0.005 -3.33545e-10 0)
(0.005 -3.46856e-10 0)
(0.005 -3.60455e-10 0)
(0.005 -3.74327e-10 0)
(0.005 -3.88454e-10 0)
(0.005 -4.02815e-10 0)
(0.005 -4.17381e-10 0)
(0.005 -4.32121e-10 0)
(0.005 -4.46995e-10 0)
(0.005 -4.61957e-10 0)
(0.005 -4.7695e-10 0)
(0.005 -4.91904e-10 0)
(0.005 -5.06737e-10 0)
(0.005 -5.21347e-10 0)
(0.005 -5.35611e-10 0)
(0.005 -5.49377e-10 0)
(0.005 -5.62456e-10 0)
(0.005 -5.74614e-10 0)
(0.005 -5.85548e-10 0)
(0.005 -5.94859e-10 0)
(0.005 -6.02041e-10 0)
(0.005 -6.06207e-10 0)
(0.005 -1.27694e-13 0)
(0.005 -4.10952e-13 0)
(0.005 -7.17453e-13 0)
(0.005 -1.04232e-12 0)
(0.005 -1.38525e-12 0)
(0.005 -1.74719e-12 0)
(0.005 -2.12957e-12 0)
(0.005 -2.53412e-12 0)
(0.005 -2.96283e-12 0)
(0.005 -3.41778e-12 0)
(0.005 -3.9012e-12 0)
(0.005 -4.41535e-12 0)
(0.005 -4.96259e-12 0)
(0.005 -5.54534e-12 0)
(0.005 -6.16608e-12 0)
(0.005 -6.82739e-12 0)
(0.005 -7.53191e-12 0)
(0.005 -8.28237e-12 0)
(0.005 -9.0816e-12 0)
(0.005 -9.93253e-12 0)
(0.005 -1.08382e-11 0)
(0.005 -1.18017e-11 0)
(0.005 -1.28263e-11 0)
(0.005 -1.39154e-11 0)
(0.005 -1.50724e-11 0)
(0.005 -1.63011e-11 0)
(0.005 -1.76051e-11 0)
(0.005 -1.89882e-11 0)
(0.005 -2.04547e-11 0)
(0.005 -2.20084e-11 0)
(0.005 -2.36539e-11 0)
(0.005 -2.53955e-11 0)
(0.005 -2.72377e-11 0)
(0.005 -2.91853e-11 0)
(0.005 -3.12431e-11 0)
(0.005 -3.34162e-11 0)
(0.005 -3.57097e-11 0)
(0.005 -3.81289e-11 0)
(0.005 -4.06792e-11 0)
(0.005 -4.33662e-11 0)
(0.005 -4.61956e-11 0)
(0.005 -4.91732e-11 0)
(0.005 -5.23051e-11 0)
(0.005 -5.55972e-11 0)
(0.005 -5.90558e-11 0)
(0.005 -6.26873e-11 0)
(0.005 -6.64981e-11 0)
(0.005 -7.04946e-11 0)
(0.005 -7.46835e-11 0)
(0.005 -7.90716e-11 0)
(0.005 -8.36655e-11 0)
(0.005 -8.84722e-11 0)
(0.005 -9.34983e-11 0)
(0.005 -9.87509e-11 0)
(0.005 -1.04237e-10 0)
(0.005 -1.09963e-10 0)
(0.005 -1.15936e-10 0)
(0.005 -1.22163e-10 0)
(0.005 -1.28651e-10 0)
(0.005 -1.35406e-10 0)
(0.005 -1.42435e-10 0)
(0.005 -1.49744e-10 0)
(0.005 -1.5734e-10 0)
(0.005 -1.65228e-10 0)
(0.005 -1.73414e-10 0)
(0.005 -1.81904e-10 0)
(0.005 -1.90703e-10 0)
(0.005 -1.99815e-10 0)
(0.005 -2.09245e-10 0)
(0.005 -2.18996e-10 0)
(0.005 -2.29073e-10 0)
(0.005 -2.39477e-10 0)
(0.005 -2.50211e-10 0)
(0.005 -2.61275e-10 0)
(0.005 -2.7267e-10 0)
(0.005 -2.84395e-10 0)
(0.005 -2.96448e-10 0)
(0.005 -3.08825e-10 0)
(0.005 -3.21522e-10 0)
(0.005 -3.34532e-10 0)
(0.005 -3.47846e-10 0)
(0.005 -3.61453e-10 0)
(0.005 -3.75337e-10 0)
(0.005 -3.89481e-10 0)
(0.005 -4.03863e-10 0)
(0.005 -4.18455e-10 0)
(0.005 -4.33223e-10 0)
(0.005 -4.48125e-10 0)
(0.005 -4.6311e-10 0)
(0.005 -4.78114e-10 0)
(0.005 -4.93058e-10 0)
(0.005 -5.07844e-10 0)
(0.005 -5.22351e-10 0)
(0.005 -5.36423e-10 0)
(0.005 -5.49864e-10 0)
(0.005 -5.62423e-10 0)
(0.005 -5.73769e-10 0)
(0.005 -5.83454e-10 0)
(0.005 -5.90895e-10 0)
(0.005 -5.94972e-10 0)
(0.005 -1.16364e-13 0)
(0.005 -3.76483e-13 0)
(0.005 -6.60174e-13 0)
(0.005 -9.63002e-13 0)
(0.005 -1.28459e-12 0)
(0.005 -1.62559e-12 0)
(0.005 -1.98709e-12 0)
(0.005 -2.37053e-12 0)
(0.005 -2.77755e-12 0)
(0.005 -3.21001e-12 0)
(0.005 -3.66989e-12 0)
(0.005 -4.15927e-12 0)
(0.005 -4.68035e-12 0)
(0.005 -5.23538e-12 0)
(0.005 -5.82671e-12 0)
(0.005 -6.45677e-12 0)
(0.005 -7.12808e-12 0)
(0.005 -7.84324e-12 0)
(0.005 -8.60495e-12 0)
(0.005 -9.41602e-12 0)
(0.005 -1.02793e-11 0)
(0.005 -1.11979e-11 0)
(0.005 -1.21748e-11 0)
(0.005 -1.32133e-11 0)
(0.005 -1.43168e-11 0)
(0.005 -1.54887e-11 0)
(0.005 -1.67326e-11 0)
(0.005 -1.80522e-11 0)
(0.005 -1.94515e-11 0)
(0.005 -2.09343e-11 0)
(0.005 -2.25048e-11 0)
(0.005 -2.41673e-11 0)
(0.005 -2.59262e-11 0)
(0.005 -2.7786e-11 0)
(0.005 -2.97514e-11 0)
(0.005 -3.18272e-11 0)
(0.005 -3.40184e-11 0)
(0.005 -3.63301e-11 0)
(0.005 -3.87675e-11 0)
(0.005 -4.1336e-11 0)
(0.005 -4.40412e-11 0)
(0.005 -4.68886e-11 0)
(0.005 -4.98841e-11 0)
(0.005 -5.30335e-11 0)
(0.005 -5.6343e-11 0)
(0.005 -5.98186e-11 0)
(0.005 -6.34665e-11 0)
(0.005 -6.72932e-11 0)
(0.005 -7.13051e-11 0)
(0.005 -7.55087e-11 0)
(0.005 -7.99107e-11 0)
(0.005 -8.45177e-11 0)
(0.005 -8.93365e-11 0)
(0.005 -9.43738e-11 0)
(0.005 -9.96364e-11 0)
(0.005 -1.05131e-10 0)
(0.005 -1.10865e-10 0)
(0.005 -1.16845e-10 0)
(0.005 -1.23077e-10 0)
(0.005 -1.29568e-10 0)
(0.005 -1.36326e-10 0)
(0.005 -1.43356e-10 0)
(0.005 -1.50664e-10 0)
(0.005 -1.58258e-10 0)
(0.005 -1.66142e-10 0)
(0.005 -1.74324e-10 0)
(0.005 -1.82808e-10 0)
(0.005 -1.916e-10 0)
(0.005 -2.00704e-10 0)
(0.005 -2.10126e-10 0)
(0.005 -2.19869e-10 0)
(0.005 -2.29937e-10 0)
(0.005 -2.40333e-10 0)
(0.005 -2.51059e-10 0)
(0.005 -2.62117e-10 0)
(0.005 -2.73508e-10 0)
(0.005 -2.85232e-10 0)
(0.005 -2.97287e-10 0)
(0.005 -3.09671e-10 0)
(0.005 -3.22378e-10 0)
(0.005 -3.35405e-10 0)
(0.005 -3.48741e-10 0)
(0.005 -3.62376e-10 0)
(0.005 -3.76295e-10 0)
(0.005 -3.9048e-10 0)
(0.005 -4.04909e-10 0)
(0.005 -4.1955e-10 0)
(0.005 -4.34367e-10 0)
(0.005 -4.49313e-10 0)
(0.005 -4.64328e-10 0)
(0.005 -4.79336e-10 0)
(0.005 -4.94242e-10 0)
(0.005 -5.08923e-10 0)
(0.005 -5.23219e-10 0)
(0.005 -5.36928e-10 0)
(0.005 -5.4978e-10 0)
(0.005 -5.6142e-10 0)
(0.005 -5.71363e-10 0)
(0.005 -5.78958e-10 0)
(0.005 -5.83081e-10 0)
(0.005 -1.06049e-13 0)
(0.005 -3.44754e-13 0)
(0.005 -6.06881e-13 0)
(0.005 -8.88429e-13 0)
(0.005 -1.18906e-12 0)
(0.005 -1.50929e-12 0)
(0.005 -1.84998e-12 0)
(0.005 -2.21231e-12 0)
(0.005 -2.5977e-12 0)
(0.005 -3.00775e-12 0)
(0.005 -3.44425e-12 0)
(0.005 -3.90909e-12 0)
(0.005 -4.40429e-12 0)
(0.005 -4.93196e-12 0)
(0.005 -5.4943e-12 0)
(0.005 -6.09361e-12 0)
(0.005 -6.73227e-12 0)
(0.005 -7.41275e-12 0)
(0.005 -8.13763e-12 0)
(0.005 -8.90956e-12 0)
(0.005 -9.73133e-12 0)
(0.005 -1.06058e-11 0)
(0.005 -1.1536e-11 0)
(0.005 -1.25249e-11 0)
(0.005 -1.35758e-11 0)
(0.005 -1.4692e-11 0)
(0.005 -1.5877e-11 0)
(0.005 -1.71344e-11 0)
(0.005 -1.84677e-11 0)
(0.005 -1.9881e-11 0)
(0.005 -2.1378e-11 0)
(0.005 -2.2963e-11 0)
(0.005 -2.46402e-11 0)
(0.005 -2.64139e-11 0)
(0.005 -2.82886e-11 0)
(0.005 -3.0269e-11 0)
(0.005 -3.23598e-11 0)
(0.005 -3.45661e-11 0)
(0.005 -3.68928e-11 0)
(0.005 -3.93451e-11 0)
(0.005 -4.19284e-11 0)
(0.005 -4.46481e-11 0)
(0.005 -4.75099e-11 0)
(0.005 -5.05194e-11 0)
(0.005 -5.36824e-11 0)
(0.005 -5.70051e-11 0)
(0.005 -6.04933e-11 0)
(0.005 -6.41534e-11 0)
(0.005 -6.79915e-11 0)
(0.005 -7.20142e-11 0)
(0.005 -7.62278e-11 0)
(0.005 -8.06388e-11 0)
(0.005 -8.5254e-11 0)
(0.005 -9.008e-11 0)
(0.005 -9.51235e-11 0)
(0.005 -1.00391e-10 0)
(0.005 -1.0589e-10 0)
(0.005 -1.11627e-10 0)
(0.005 -1.17608e-10 0)
(0.005 -1.2384e-10 0)
(0.005 -1.30331e-10 0)
(0.005 -1.37086e-10 0)
(0.005 -1.44112e-10 0)
(0.005 -1.51416e-10 0)
(0.005 -1.59005e-10 0)
(0.005 -1.66883e-10 0)
(0.005 -1.75057e-10 0)
(0.005 -1.83534e-10 0)
(0.005 -1.92318e-10 0)
(0.005 -2.01414e-10 0)
(0.005 -2.10828e-10 0)
(0.005 -2.20564e-10 0)
(0.005 -2.30626e-10 0)
(0.005 -2.41018e-10 0)
(0.005 -2.51743e-10 0)
(0.005 -2.62802e-10 0)
(0.005 -2.74199e-10 0)
(0.005 -2.85932e-10 0)
(0.005 -2.98001e-10 0)
(0.005 -3.10406e-10 0)
(0.005 -3.23141e-10 0)
(0.005 -3.36202e-10 0)
(0.005 -3.4958e-10 0)
(0.005 -3.63264e-10 0)
(0.005 -3.77241e-10 0)
(0.005 -3.91489e-10 0)
(0.005 -4.05982e-10 0)
(0.005 -4.20689e-10 0)
(0.005 -4.35564e-10 0)
(0.005 -4.50551e-10 0)
(0.005 -4.65576e-10 0)
(0.005 -4.80545e-10 0)
(0.005 -4.95333e-10 0)
(0.005 -5.09778e-10 0)
(0.005 -5.23667e-10 0)
(0.005 -5.36718e-10 0)
(0.005 -5.48555e-10 0)
(0.005 -5.58664e-10 0)
(0.005 -5.66344e-10 0)
(0.005 -5.70613e-10 0)
(0.005 -9.6559e-14 0)
(0.005 -3.1536e-13 0)
(0.005 -5.57132e-13 0)
(0.005 -8.18266e-13 0)
(0.005 -1.09851e-12 0)
(0.005 -1.39833e-12 0)
(0.005 -1.71844e-12 0)
(0.005 -2.05983e-12 0)
(0.005 -2.42373e-12 0)
(0.005 -2.81155e-12 0)
(0.005 -3.22489e-12 0)
(0.005 -3.66546e-12 0)
(0.005 -4.13513e-12 0)
(0.005 -4.63584e-12 0)
(0.005 -5.16966e-12 0)
(0.005 -5.73874e-12 0)
(0.005 -6.34534e-12 0)
(0.005 -6.9918e-12 0)
(0.005 -7.68055e-12 0)
(0.005 -8.41414e-12 0)
(0.005 -9.19521e-12 0)
(0.005 -1.00265e-11 0)
(0.005 -1.09109e-11 0)
(0.005 -1.18512e-11 0)
(0.005 -1.28507e-11 0)
(0.005 -1.39125e-11 0)
(0.005 -1.50398e-11 0)
(0.005 -1.62361e-11 0)
(0.005 -1.7505e-11 0)
(0.005 -1.88502e-11 0)
(0.005 -2.02753e-11 0)
(0.005 -2.17845e-11 0)
(0.005 -2.33817e-11 0)
(0.005 -2.50711e-11 0)
(0.005 -2.6857e-11 0)
(0.005 -2.87441e-11 0)
(0.005 -3.07367e-11 0)
(0.005 -3.28398e-11 0)
(0.005 -3.50581e-11 0)
(0.005 -3.73966e-11 0)
(0.005 -3.98606e-11 0)
(0.005 -4.24553e-11 0)
(0.005 -4.51861e-11 0)
(0.005 -4.80586e-11 0)
(0.005 -5.10783e-11 0)
(0.005 -5.42512e-11 0)
(0.005 -5.7583e-11 0)
(0.005 -6.10799e-11 0)
(0.005 -6.47479e-11 0)
(0.005 -6.85932e-11 0)
(0.005 -7.26223e-11 0)
(0.005 -7.68414e-11 0)
(0.005 -8.12571e-11 0)
(0.005 -8.5876e-11 0)
(0.005 -9.07047e-11 0)
(0.005 -9.57499e-11 0)
(0.005 -1.01018e-10 0)
(0.005 -1.06516e-10 0)
(0.005 -1.12251e-10 0)
(0.005 -1.1823e-10 0)
(0.005 -1.24459e-10 0)
(0.005 -1.30945e-10 0)
(0.005 -1.37694e-10 0)
(0.005 -1.44714e-10 0)
(0.005 -1.52011e-10 0)
(0.005 -1.59591e-10 0)
(0.005 -1.67461e-10 0)
(0.005 -1.75628e-10 0)
(0.005 -1.84096e-10 0)
(0.005 -1.92872e-10 0)
(0.005 -2.01962e-10 0)
(0.005 -2.1137e-10 0)
(0.005 -2.21103e-10 0)
(0.005 -2.31164e-10 0)
(0.005 -2.41559e-10 0)
(0.005 -2.52289e-10 0)
(0.005 -2.6336e-10 0)
(0.005 -2.74772e-10 0)
(0.005 -2.86527e-10 0)
(0.005 -2.98626e-10 0)
(0.005 -3.11067e-10 0)
(0.005 -3.23847e-10 0)
(0.005 -3.36961e-10 0)
(0.005 -3.504e-10 0)
(0.005 -3.64153e-10 0)
(0.005 -3.78204e-10 0)
(0.005 -3.92529e-10 0)
(0.005 -4.07098e-10 0)
(0.005 -4.2187e-10 0)
(0.005 -4.3679e-10 0)
(0.005 -4.51787e-10 0)
(0.005 -4.66765e-10 0)
(0.005 -4.81599e-10 0)
(0.005 -4.96122e-10 0)
(0.005 -5.10113e-10 0)
(0.005 -5.23281e-10 0)
(0.005 -5.35236e-10 0)
(0.005 -5.45449e-10 0)
(0.005 -5.53218e-10 0)
(0.005 -5.57698e-10 0)
(0.005 -8.77698e-14 0)
(0.005 -2.88002e-13 0)
(0.005 -5.10572e-13 0)
(0.005 -7.52207e-13 0)
(0.005 -1.01275e-12 0)
(0.005 -1.29266e-12 0)
(0.005 -1.59256e-12 0)
(0.005 -1.91331e-12 0)
(0.005 -2.256e-12 0)
(0.005 -2.62186e-12 0)
(0.005 -3.01233e-12 0)
(0.005 -3.42898e-12 0)
(0.005 -3.8735e-12 0)
(0.005 -4.3477e-12 0)
(0.005 -4.85351e-12 0)
(0.005 -5.39294e-12 0)
(0.005 -5.96811e-12 0)
(0.005 -6.58124e-12 0)
(0.005 -7.23464e-12 0)
(0.005 -7.93072e-12 0)
(0.005 -8.67199e-12 0)
(0.005 -9.46106e-12 0)
(0.005 -1.03006e-11 0)
(0.005 -1.11936e-11 0)
(0.005 -1.21428e-11 0)
(0.005 -1.31513e-11 0)
(0.005 -1.42223e-11 0)
(0.005 -1.53591e-11 0)
(0.005 -1.6565e-11 0)
(0.005 -1.78436e-11 0)
(0.005 -1.91986e-11 0)
(0.005 -2.06336e-11 0)
(0.005 -2.21526e-11 0)
(0.005 -2.37597e-11 0)
(0.005 -2.5459e-11 0)
(0.005 -2.72548e-11 0)
(0.005 -2.91515e-11 0)
(0.005 -3.11537e-11 0)
(0.005 -3.32661e-11 0)
(0.005 -3.54935e-11 0)
(0.005 -3.7841e-11 0)
(0.005 -4.03135e-11 0)
(0.005 -4.29163e-11 0)
(0.005 -4.56548e-11 0)
(0.005 -4.85345e-11 0)
(0.005 -5.15609e-11 0)
(0.005 -5.47399e-11 0)
(0.005 -5.80772e-11 0)
(0.005 -6.15788e-11 0)
(0.005 -6.52508e-11 0)
(0.005 -6.90994e-11 0)
(0.005 -7.31309e-11 0)
(0.005 -7.73515e-11 0)
(0.005 -8.17678e-11 0)
(0.005 -8.63864e-11 0)
(0.005 -9.12137e-11 0)
(0.005 -9.62565e-11 0)
(0.005 -1.01522e-10 0)
(0.005 -1.07016e-10 0)
(0.005 -1.12745e-10 0)
(0.005 -1.18718e-10 0)
(0.005 -1.2494e-10 0)
(0.005 -1.31418e-10 0)
(0.005 -1.38159e-10 0)
(0.005 -1.4517e-10 0)
(0.005 -1.52458e-10 0)
(0.005 -1.6003e-10 0)
(0.005 -1.67891e-10 0)
(0.005 -1.76049e-10 0)
(0.005 -1.8451e-10 0)
(0.005 -1.93281e-10 0)
(0.005 -2.02367e-10 0)
(0.005 -2.11774e-10 0)
(0.005 -2.21509e-10 0)
(0.005 -2.31576e-10 0)
(0.005 -2.4198e-10 0)
(0.005 -2.52726e-10 0)
(0.005 -2.63818e-10 0)
(0.005 -2.75258e-10 0)
(0.005 -2.8705e-10 0)
(0.005 -2.99193e-10 0)
(0.005 -3.11686e-10 0)
(0.005 -3.24528e-10 0)
(0.005 -3.37712e-10 0)
(0.005 -3.51229e-10 0)
(0.005 -3.65065e-10 0)
(0.005 -3.79199e-10 0)
(0.005 -3.93605e-10 0)
(0.005 -4.08242e-10 0)
(0.005 -4.23058e-10 0)
(0.005 -4.37983e-10 0)
(0.005 -4.5292e-10 0)
(0.005 -4.67742e-10 0)
(0.005 -4.82279e-10 0)
(0.005 -4.96306e-10 0)
(0.005 -5.09522e-10 0)
(0.005 -5.2153e-10 0)
(0.005 -5.31799e-10 0)
(0.005 -5.39642e-10 0)
(0.005 -5.44252e-10 0)
(0.005 -7.95929e-14 0)
(0.005 -2.62458e-13 0)
(0.005 -4.66919e-13 0)
(0.005 -6.89978e-13 0)
(0.005 -9.31581e-13 0)
(0.005 -1.19218e-12 0)
(0.005 -1.47236e-12 0)
(0.005 -1.7729e-12 0)
(0.005 -2.09475e-12 0)
(0.005 -2.43902e-12 0)
(0.005 -2.80701e-12 0)
(0.005 -3.20014e-12 0)
(0.005 -3.61997e-12 0)
(0.005 -4.06816e-12 0)
(0.005 -4.54651e-12 0)
(0.005 -5.05689e-12 0)
(0.005 -5.60132e-12 0)
(0.005 -6.18186e-12 0)
(0.005 -6.80071e-12 0)
(0.005 -7.46015e-12 0)
(0.005 -8.16256e-12 0)
(0.005 -8.91043e-12 0)
(0.005 -9.70635e-12 0)
(0.005 -1.0553e-11 0)
(0.005 -1.14532e-11 0)
(0.005 -1.24098e-11 0)
(0.005 -1.34259e-11 0)
(0.005 -1.45046e-11 0)
(0.005 -1.56491e-11 0)
(0.005 -1.68628e-11 0)
(0.005 -1.81493e-11 0)
(0.005 -1.95121e-11 0)
(0.005 -2.09549e-11 0)
(0.005 -2.24818e-11 0)
(0.005 -2.40965e-11 0)
(0.005 -2.58033e-11 0)
(0.005 -2.76065e-11 0)
(0.005 -2.95104e-11 0)
(0.005 -3.15195e-11 0)
(0.005 -3.36385e-11 0)
(0.005 -3.58722e-11 0)
(0.005 -3.82256e-11 0)
(0.005 -4.07036e-11 0)
(0.005 -4.33114e-11 0)
(0.005 -4.60544e-11 0)
(0.005 -4.8938e-11 0)
(0.005 -5.19678e-11 0)
(0.005 -5.51494e-11 0)
(0.005 -5.84886e-11 0)
(0.005 -6.19914e-11 0)
(0.005 -6.56639e-11 0)
(0.005 -6.9512e-11 0)
(0.005 -7.35422e-11 0)
(0.005 -7.77607e-11 0)
(0.005 -8.21739e-11 0)
(0.005 -8.67885e-11 0)
(0.005 -9.16109e-11 0)
(0.005 -9.6648e-11 0)
(0.005 -1.01906e-10 0)
(0.005 -1.07393e-10 0)
(0.005 -1.13115e-10 0)
(0.005 -1.19078e-10 0)
(0.005 -1.25291e-10 0)
(0.005 -1.31759e-10 0)
(0.005 -1.38491e-10 0)
(0.005 -1.45492e-10 0)
(0.005 -1.5277e-10 0)
(0.005 -1.60333e-10 0)
(0.005 -1.68186e-10 0)
(0.005 -1.76338e-10 0)
(0.005 -1.84794e-10 0)
(0.005 -1.93562e-10 0)
(0.005 -2.02649e-10 0)
(0.005 -2.12061e-10 0)
(0.005 -2.21804e-10 0)
(0.005 -2.31884e-10 0)
(0.005 -2.42308e-10 0)
(0.005 -2.5308e-10 0)
(0.005 -2.64205e-10 0)
(0.005 -2.75687e-10 0)
(0.005 -2.87528e-10 0)
(0.005 -2.9973e-10 0)
(0.005 -3.12292e-10 0)
(0.005 -3.25209e-10 0)
(0.005 -3.38476e-10 0)
(0.005 -3.5208e-10 0)
(0.005 -3.66003e-10 0)
(0.005 -3.8022e-10 0)
(0.005 -3.94692e-10 0)
(0.005 -4.09369e-10 0)
(0.005 -4.2418e-10 0)
(0.005 -4.39029e-10 0)
(0.005 -4.53788e-10 0)
(0.005 -4.68283e-10 0)
(0.005 -4.82287e-10 0)
(0.005 -4.95494e-10 0)
(0.005 -5.07503e-10 0)
(0.005 -5.17784e-10 0)
(0.005 -5.25659e-10 0)
(0.005 -5.30315e-10 0)
(0.005 -7.19642e-14 0)
(0.005 -2.3856e-13 0)
(0.005 -4.25941e-13 0)
(0.005 -6.31344e-13 0)
(0.005 -8.54797e-13 0)
(0.005 -1.09677e-12 0)
(0.005 -1.35782e-12 0)
(0.005 -1.63865e-12 0)
(0.005 -1.94014e-12 0)
(0.005 -2.26328e-12 0)
(0.005 -2.60925e-12 0)
(0.005 -2.97934e-12 0)
(0.005 -3.37497e-12 0)
(0.005 -3.79771e-12 0)
(0.005 -4.2492e-12 0)
(0.005 -4.73121e-12 0)
(0.005 -5.24561e-12 0)
(0.005 -5.79435e-12 0)
(0.005 -6.3795e-12 0)
(0.005 -7.00322e-12 0)
(0.005 -7.66776e-12 0)
(0.005 -8.37549e-12 0)
(0.005 -9.12887e-12 0)
(0.005 -9.93044e-12 0)
(0.005 -1.07829e-11 0)
(0.005 -1.1689e-11 0)
(0.005 -1.26516e-11 0)
(0.005 -1.36737e-11 0)
(0.005 -1.47585e-11 0)
(0.005 -1.59091e-11 0)
(0.005 -1.71289e-11 0)
(0.005 -1.84214e-11 0)
(0.005 -1.97901e-11 0)
(0.005 -2.12388e-11 0)
(0.005 -2.27713e-11 0)
(0.005 -2.43915e-11 0)
(0.005 -2.61036e-11 0)
(0.005 -2.79117e-11 0)
(0.005 -2.98203e-11 0)
(0.005 -3.18338e-11 0)
(0.005 -3.39568e-11 0)
(0.005 -3.61941e-11 0)
(0.005 -3.85505e-11 0)
(0.005 -4.10311e-11 0)
(0.005 -4.3641e-11 0)
(0.005 -4.63855e-11 0)
(0.005 -4.92699e-11 0)
(0.005 -5.22998e-11 0)
(0.005 -5.54808e-11 0)
(0.005 -5.88187e-11 0)
(0.005 -6.23194e-11 0)
(0.005 -6.59889e-11 0)
(0.005 -6.98334e-11 0)
(0.005 -7.38589e-11 0)
(0.005 -7.8072e-11 0)
(0.005 -8.2479e-11 0)
(0.005 -8.70864e-11 0)
(0.005 -9.1901e-11 0)
(0.005 -9.69294e-11 0)
(0.005 -1.02178e-10 0)
(0.005 -1.07655e-10 0)
(0.005 -1.13366e-10 0)
(0.005 -1.19319e-10 0)
(0.005 -1.25521e-10 0)
(0.005 -1.31978e-10 0)
(0.005 -1.38699e-10 0)
(0.005 -1.45691e-10 0)
(0.005 -1.5296e-10 0)
(0.005 -1.60515e-10 0)
(0.005 -1.68362e-10 0)
(0.005 -1.76509e-10 0)
(0.005 -1.84965e-10 0)
(0.005 -1.93735e-10 0)
(0.005 -2.02828e-10 0)
(0.005 -2.1225e-10 0)
(0.005 -2.2201e-10 0)
(0.005 -2.32113e-10 0)
(0.005 -2.42566e-10 0)
(0.005 -2.53375e-10 0)
(0.005 -2.64546e-10 0)
(0.005 -2.76082e-10 0)