/*--------------------------------*- C++ -*----------------------------------*\
  =========                 |
  \\      /  F ield         | OpenFOAM: The Open Source CFD Toolbox
   \\    /   O peration     | Website:  https://openfoam.org
    \\  /    A nd           | Version:  11
     \\/     M anipulation  |
\*---------------------------------------------------------------------------*/
FoamFile
{
    format      ascii;
    class       volScalarField;
    location    "1174";
    object      p;
}
// * * * * * * * * * * * * * * * * * * * * * * * * * * * * * * * * * * * * * //

dimensions      [0 2 -2 0 0 0 0];

internalField   nonuniform List<scalar> 
10000
(
2.31411e-12
2.2566e-12
2.34608e-12
2.52611e-12
2.73225e-12
2.95035e-12
3.17988e-12
3.42089e-12
3.6735e-12
3.93824e-12
4.21584e-12
4.50714e-12
4.81301e-12
5.13438e-12
5.4722e-12
5.82746e-12
6.20115e-12
6.59433e-12
7.00806e-12
7.44343e-12
7.90158e-12
8.38367e-12
8.89089e-12
9.42447e-12
9.98567e-12
1.05758e-11
1.11962e-11
1.18482e-11
1.25332e-11
1.32527e-11
1.40082e-11
1.48012e-11
1.56331e-11
1.65057e-11
1.74205e-11
1.83791e-11
1.93833e-11
2.04347e-11
2.15349e-11
2.26858e-11
2.3889e-11
2.51463e-11
2.64594e-11
2.78299e-11
2.92597e-11
3.07502e-11
3.23032e-11
3.39202e-11
3.56026e-11
3.7352e-11
3.91694e-11
4.10562e-11
4.30134e-11
4.50418e-11
4.7142e-11
4.93145e-11
5.15595e-11
5.38769e-11
5.62661e-11
5.87264e-11
6.12564e-11
6.38545e-11
6.65183e-11
6.92448e-11
7.20304e-11
7.48707e-11
7.77605e-11
8.06934e-11
8.36621e-11
8.66581e-11
8.96713e-11
9.26902e-11
9.57017e-11
9.86908e-11
1.0164e-10
1.0453e-10
1.07338e-10
1.10039e-10
1.12605e-10
1.15004e-10
1.17198e-10
1.19147e-10
1.20805e-10
1.2212e-10
1.23033e-10
1.23479e-10
1.23383e-10
1.22661e-10
1.21219e-10
1.18949e-10
1.1573e-10
1.11421e-10
1.05856e-10
9.88375e-11
9.01162e-11
7.93707e-11
6.62119e-11
5.02598e-11
2.81961e-11
1.85674e-12
4.33401e-12
4.07364e-12
3.93569e-12
4.0033e-12
4.15969e-12
4.36018e-12
4.59347e-12
4.85369e-12
5.13701e-12
5.44147e-12
5.76629e-12
6.11129e-12
6.47672e-12
6.86308e-12
7.27107e-12
7.70152e-12
8.15536e-12
8.63362e-12
9.13739e-12
9.66783e-12
1.02262e-11
1.08136e-11
1.14316e-11
1.20814e-11
1.27644e-11
1.34822e-11
1.42362e-11
1.50279e-11
1.58591e-11
1.67312e-11
1.7646e-11
1.86051e-11
1.96104e-11
2.06635e-11
2.17664e-11
2.29207e-11
2.41285e-11
2.53914e-11
2.67115e-11
2.80906e-11
2.95305e-11
3.10332e-11
3.26005e-11
3.42341e-11
3.5936e-11
3.77077e-11
3.9551e-11
4.14675e-11
4.34585e-11
4.55254e-11
4.76694e-11
4.98915e-11
5.21926e-11
5.45732e-11
5.70337e-11
5.9574e-11
6.2194e-11
6.48928e-11
6.76693e-11
7.05219e-11
7.34484e-11
7.6446e-11
7.95112e-11
8.26396e-11
8.5826e-11
8.90643e-11
9.23472e-11
9.56662e-11
9.90114e-11
1.02371e-10
1.05733e-10
1.09082e-10
1.124e-10
1.15668e-10
1.18864e-10
1.21962e-10
1.24936e-10
1.27752e-10
1.30375e-10
1.32764e-10
1.34874e-10
1.36653e-10
1.38043e-10
1.38981e-10
1.39393e-10
1.39198e-10
1.38304e-10
1.36606e-10
1.33988e-10
1.30316e-10
1.25437e-10
1.19174e-10
1.11321e-10
1.01626e-10
8.97791e-11
7.54505e-11
5.82575e-11
3.66755e-11
5.65612e-12
-2.16239e-11
5.26452e-12
4.88009e-12
4.57579e-12
4.49369e-12
4.52499e-12
4.6197e-12
4.76144e-12
4.94051e-12
5.15004e-12
5.38575e-12
5.6451e-12
5.92659e-12
6.22941e-12
6.55326e-12
6.89812e-12
7.26426e-12
7.65211e-12
8.06223e-12
8.49531e-12
8.95213e-12
9.43354e-12
9.94045e-12
1.04738e-11
1.10348e-11
1.16243e-11
1.22435e-11
1.28936e-11
1.35758e-11
1.42913e-11
1.50414e-11
1.58274e-11
1.66507e-11
1.75125e-11
1.84142e-11
1.93574e-11
2.03432e-11
2.13733e-11
2.24489e-11
2.35715e-11
2.47425e-11
2.59633e-11
2.72353e-11
2.85599e-11
2.99382e-11
3.13715e-11
3.28611e-11
3.4408e-11
3.60132e-11
3.76776e-11
3.9402e-11
4.1187e-11
4.3033e-11
4.49402e-11
4.69088e-11
4.89383e-11
5.10284e-11
5.3178e-11
5.53861e-11
5.76509e-11
5.99703e-11
6.23418e-11
6.4762e-11
6.7227e-11
6.97324e-11
7.22726e-11
7.48414e-11
7.74314e-11
8.00342e-11
8.26402e-11
8.52381e-11
8.78155e-11
9.03579e-11
9.28493e-11
9.52713e-11
9.76031e-11
9.98216e-11
1.01901e-10
1.03811e-10
1.05519e-10
1.06989e-10
1.08178e-10
1.09041e-10
1.09526e-10
1.09574e-10
1.09122e-10
1.08095e-10
1.06413e-10
1.03983e-10
1.00702e-10
9.64528e-11
9.11006e-11
8.44915e-11
7.64451e-11
6.67433e-11
5.51318e-11
4.13868e-11
2.51937e-11
4.50811e-12
-2.44719e-11
-4.35764e-11
6.02979e-12
5.62881e-12
5.28706e-12
5.14263e-12
5.1104e-12
5.14828e-12
5.24063e-12
5.37698e-12
5.54941e-12
5.75256e-12
5.98292e-12
6.23817e-12
6.51686e-12
6.81812e-12
7.14148e-12
7.48683e-12
7.85426e-12
8.24408e-12
8.65672e-12
9.09273e-12
9.55276e-12
1.00375e-11
1.05479e-11
1.10846e-11
1.16487e-11
1.2241e-11
1.28626e-11
1.35145e-11
1.41978e-11
1.49136e-11
1.5663e-11
1.64472e-11
1.72673e-11
1.81245e-11
1.902e-11
1.9955e-11
2.09308e-11
2.19485e-11
2.30092e-11
2.41142e-11
2.52647e-11
2.64616e-11
2.77061e-11
2.89992e-11
3.03418e-11
3.17349e-11
3.31791e-11
3.46752e-11
3.62237e-11
3.7825e-11
3.94793e-11
4.11868e-11
4.29471e-11
4.476e-11
4.66248e-11
4.85405e-11
5.05057e-11
5.25189e-11
5.45778e-11
5.66798e-11
5.88219e-11
6.10002e-11
6.32104e-11
6.54474e-11
6.77053e-11
6.99771e-11
7.2255e-11
7.45302e-11
7.67922e-11
7.90297e-11
8.12294e-11
8.33767e-11
8.54548e-11
8.74451e-11
8.93266e-11
9.10758e-11
9.26663e-11
9.40686e-11
9.525e-11
9.61737e-11
9.67987e-11
9.70795e-11
9.6965e-11
9.63987e-11
9.53173e-11
9.36501e-11
9.13186e-11
8.82345e-11
8.42992e-11
7.94015e-11
7.34163e-11
6.62014e-11
5.75931e-11
4.73966e-11
3.53976e-11
2.14582e-11
5.35253e-12
-1.53186e-11
-4.47405e-11
-5.84981e-11
6.68401e-12
6.29963e-12
5.96233e-12
5.79379e-12
5.72816e-12
5.73273e-12
5.79452e-12
5.90377e-12
6.05263e-12
6.23549e-12
6.4484e-12
6.68863e-12
6.95429e-12
7.24415e-12
7.55744e-12
7.89376e-12
8.25296e-12
8.63514e-12
9.04055e-12
9.46956e-12
9.92269e-12
1.04005e-11
1.09037e-11
1.1433e-11
1.19892e-11
1.25731e-11
1.31856e-11
1.38276e-11
1.45002e-11
1.52042e-11
1.59407e-11
1.67107e-11
1.75152e-11
1.83554e-11
1.92321e-11
2.01466e-11
2.10998e-11
2.20928e-11
2.31266e-11
2.42022e-11
2.53205e-11
2.64825e-11
2.7689e-11
2.89408e-11
3.02387e-11
3.15832e-11
3.29749e-11
3.44142e-11
3.59014e-11
3.74365e-11
3.90195e-11
4.06502e-11
4.2328e-11
4.40522e-11
4.58217e-11
4.76352e-11
4.9491e-11
5.13869e-11
5.33204e-11
5.52885e-11
5.72874e-11
5.93129e-11
6.13603e-11
6.34237e-11
6.54967e-11
6.75719e-11
6.96408e-11
7.16939e-11
7.37204e-11
7.5708e-11
7.7643e-11
7.951e-11
8.12917e-11
8.29687e-11
8.45195e-11
8.592e-11
8.71432e-11
8.81592e-11
8.89348e-11
8.94327e-11
8.9612e-11
8.94269e-11
8.88267e-11
8.77551e-11
8.61497e-11
8.39413e-11
8.1053e-11
7.73996e-11
7.28864e-11
6.74081e-11
6.08477e-11
5.30754e-11
4.3945e-11
3.3287e-11
2.09284e-11
6.82498e-12
-9.10744e-12
-2.95697e-11
-6.02922e-11
-6.85333e-11
7.22618e-12
6.86583e-12
6.54257e-12
6.36402e-12
6.27787e-12
6.25892e-12
6.29699e-12
6.38361e-12
6.51156e-12
6.6754e-12
6.87114e-12
7.09583e-12
7.34739e-12
7.62431e-12
7.92561e-12
8.25066e-12
8.59913e-12
8.97093e-12
9.36612e-12
9.78495e-12
1.02278e-11
1.0695e-11
1.11873e-11
1.17051e-11
1.22492e-11
1.28202e-11
1.3419e-11
1.40464e-11
1.47031e-11
1.539e-11
1.61081e-11
1.68582e-11
1.76411e-11
1.84579e-11
1.93094e-11
2.01966e-11
2.11202e-11
2.20813e-11
2.30806e-11
2.41189e-11
2.5197e-11
2.63157e-11
2.74755e-11
2.86771e-11
2.99209e-11
3.12074e-11
3.25368e-11
3.39093e-11
3.53248e-11
3.67832e-11
3.82842e-11
3.98271e-11
4.14112e-11
4.30353e-11
4.46981e-11
4.63978e-11
4.81324e-11
4.98993e-11
5.16957e-11
5.35179e-11
5.53621e-11
5.72234e-11
5.90967e-11
6.09757e-11
6.28535e-11
6.47223e-11
6.6573e-11
6.83958e-11
7.01793e-11
7.19108e-11
7.35762e-11
7.51596e-11
7.66435e-11
7.8008e-11
7.92313e-11
8.02891e-11
8.11542e-11
8.17967e-11
8.21834e-11
8.22775e-11
8.20382e-11
8.14207e-11
8.03751e-11
7.88466e-11
7.67748e-11
7.40929e-11
7.07277e-11
6.65984e-11
6.16163e-11
5.56843e-11
4.86965e-11
4.05382e-11
3.10845e-11
2.01949e-11
7.73974e-12
-6.23554e-12
-2.16665e-11
-4.13947e-11
-7.22853e-11
-7.64204e-11
7.68853e-12
7.35291e-12
7.04687e-12
6.86643e-12
6.76853e-12
6.73353e-12
6.75369e-12
6.82196e-12
6.93198e-12
7.07872e-12
7.25834e-12
7.46792e-12
7.70526e-12
7.96873e-12
8.2572e-12
8.56988e-12
8.90629e-12
9.26617e-12
9.64945e-12
1.00562e-11
1.04868e-11
1.09413e-11
1.14204e-11
1.19244e-11
1.24539e-11
1.30095e-11
1.35919e-11
1.42017e-11
1.48397e-11
1.55065e-11
1.6203e-11
1.69298e-11
1.76878e-11
1.84778e-11
1.93004e-11
2.01565e-11
2.10468e-11
2.19719e-11
2.29326e-11
2.39295e-11
2.49632e-11
2.60342e-11
2.7143e-11
2.82898e-11
2.94751e-11
3.06989e-11
3.19613e-11
3.32622e-11
3.46014e-11
3.59784e-11
3.73925e-11
3.8843e-11
4.03287e-11
4.18481e-11
4.33997e-11
4.49813e-11
4.65906e-11
4.82247e-11
4.98803e-11
5.15535e-11
5.32399e-11
5.49346e-11
5.66319e-11
5.83251e-11
6.00071e-11
6.16695e-11
6.33031e-11
6.48976e-11
6.64413e-11
6.79212e-11
6.9323e-11
7.06306e-11
7.18261e-11
7.28896e-11
7.37994e-11
7.45309e-11
7.50575e-11
7.53493e-11
7.53737e-11
7.50945e-11
7.4472e-11
7.34623e-11
7.20176e-11
7.00849e-11
6.76066e-11
6.45195e-11
6.07544e-11
5.62364e-11
5.08839e-11
4.4609e-11
3.7318e-11
2.89119e-11
1.92865e-11
8.32792e-12
-4.05731e-12
-1.77597e-11
-3.26207e-11
-5.16199e-11
-8.23419e-11
-8.40997e-11
8.09368e-12
7.78113e-12
7.49291e-12
7.31539e-12
7.21185e-12
7.16658e-12
7.17384e-12
7.22787e-12
7.32319e-12
7.4553e-12
7.62063e-12
7.81639e-12
8.04037e-12
8.29093e-12
8.56683e-12
8.86718e-12
9.19138e-12
9.53907e-12
9.91006e-12
1.03043e-11
1.0722e-11
1.11633e-11
1.16284e-11
1.21179e-11
1.2632e-11
1.31714e-11
1.37365e-11
1.43279e-11
1.49462e-11
1.5592e-11
1.6266e-11
1.69687e-11
1.77009e-11
1.84631e-11
1.9256e-11
2.00802e-11
2.09362e-11
2.18247e-11
2.2746e-11
2.37008e-11
2.46894e-11
2.57121e-11
2.67693e-11
2.7861e-11
2.89873e-11
3.01483e-11
3.13437e-11
3.25732e-11
3.38362e-11
3.51322e-11
3.64602e-11
3.78192e-11
3.92076e-11
4.06239e-11
4.20661e-11
4.35318e-11
4.50183e-11
4.65225e-11
4.80408e-11
4.9569e-11
5.11024e-11
5.26357e-11
5.41629e-11
5.56771e-11
5.71709e-11
5.86355e-11
6.00617e-11
6.14386e-11
6.27545e-11
6.39963e-11
6.51493e-11
6.61975e-11
6.71229e-11
6.79058e-11
6.85245e-11
6.89547e-11
6.91702e-11
6.91417e-11
6.88373e-11
6.82217e-11
6.72567e-11
6.58999e-11
6.41054e-11
6.1823e-11
5.8998e-11
5.55711e-11
5.14783e-11
4.66504e-11
4.10134e-11
3.44889e-11
2.69947e-11
1.84467e-11
8.75866e-12
-2.16182e-12
-1.43817e-11
-2.77495e-11
-4.20605e-11
-6.04797e-11
-9.12179e-11
-9.10519e-11
8.45333e-12
8.16162e-12
7.89041e-12
7.71831e-12
7.61296e-12
7.56146e-12
7.55958e-12
7.60264e-12
7.68599e-12
7.80565e-12
7.95839e-12
8.14159e-12
8.35313e-12
8.59139e-12
8.85508e-12
9.14327e-12
9.45528e-12
9.79065e-12
1.01491e-11
1.05305e-11
1.09349e-11
1.13624e-11
1.18132e-11
1.22875e-11
1.27857e-11
1.33082e-11
1.38553e-11
1.44277e-11
1.50257e-11
1.56498e-11
1.63005e-11
1.69785e-11
1.76841e-11
1.84179e-11
1.91804e-11
1.9972e-11
2.07932e-11
2.16444e-11
2.2526e-11
2.34382e-11
2.43813e-11
2.53555e-11
2.63609e-11
2.73974e-11
2.84649e-11
2.95631e-11
3.06918e-11
3.18503e-11
3.30379e-11
3.42538e-11
3.54968e-11
3.67655e-11
3.80583e-11
3.93734e-11
4.07084e-11
4.20609e-11
4.34277e-11
4.48056e-11
4.61906e-11
4.75783e-11
4.89638e-11
5.03415e-11
5.17051e-11
5.30477e-11
5.43613e-11
5.56374e-11
5.6866e-11
5.80367e-11
5.91372e-11
6.01546e-11
6.10741e-11
6.18797e-11
6.25536e-11
6.30763e-11
6.34263e-11
6.35801e-11
6.35116e-11
6.31926e-11
6.25921e-11
6.16761e-11
6.04077e-11
5.87468e-11
5.66495e-11
5.40685e-11
5.09527e-11
4.72468e-11
4.28919e-11
3.78249e-11
3.19795e-11
2.5286e-11
1.76732e-11
9.06976e-12
-5.95003e-13
-1.13967e-11
-2.3383e-11
-3.63726e-11
-5.01323e-11
-6.79841e-11
-9.8587e-11
-9.65838e-11
8.7746e-12
8.5016e-12
8.24616e-12
8.08062e-12
7.97584e-12
7.92087e-12
7.91257e-12
7.94719e-12
8.02074e-12
8.12977e-12
8.27137e-12
8.44313e-12
8.64307e-12
8.86959e-12
9.12144e-12
9.39764e-12
9.69748e-12
1.00204e-11
1.03661e-11
1.07344e-11
1.11252e-11
1.15384e-11
1.19743e-11
1.24329e-11
1.29146e-11
1.34196e-11
1.39482e-11
1.45008e-11
1.50778e-11
1.56795e-11
1.63064e-11
1.69588e-11
1.76372e-11
1.8342e-11
1.90735e-11
1.9832e-11
2.06178e-11
2.14313e-11
2.22725e-11
2.31418e-11
2.40391e-11
2.49645e-11
2.59179e-11
2.68991e-11
2.79077e-11
2.89435e-11
3.00058e-11
3.10938e-11
3.22067e-11
3.33433e-11
3.45023e-11
3.56822e-11
3.68811e-11
3.80968e-11
3.9327e-11
4.05688e-11
4.1819e-11
4.3074e-11
4.43297e-11
4.55815e-11
4.68242e-11
4.8052e-11
4.92585e-11
5.04366e-11
5.15782e-11
5.26745e-11
5.37156e-11
5.46909e-11
5.55883e-11
5.63947e-11
5.70955e-11
5.76749e-11
5.81153e-11
5.83976e-11
5.85007e-11
5.84017e-11
5.80754e-11
5.74945e-11
5.6629e-11
5.54467e-11
5.39122e-11
5.19874e-11
4.96313e-11
4.67993e-11
4.3444e-11
3.95144e-11
3.49567e-11
2.97139e-11
2.37267e-11
1.69338e-11
9.27375e-12
6.8645e-13
-8.88634e-12
-1.95069e-11
-3.12086e-11
-4.37886e-11
-5.69936e-11
-7.42666e-11
-1.04595e-10
-1.00949e-10
9.0625e-12
8.80632e-12
8.56545e-12
8.40699e-12
8.30425e-12
8.2477e-12
8.235e-12
8.26311e-12
8.32862e-12
8.42852e-12
8.56024e-12
8.72156e-12
8.91065e-12
9.126e-12
9.36638e-12
9.63082e-12
9.91856e-12
1.0229e-11
1.05619e-11
1.09168e-11
1.12936e-11
1.16922e-11
1.21128e-11
1.25553e-11
1.302e-11
1.35069e-11
1.40165e-11
1.45488e-11
1.51042e-11
1.5683e-11
1.62855e-11
1.69119e-11
1.75626e-11
1.82378e-11
1.89377e-11
1.96627e-11
2.04127e-11
2.11881e-11
2.19888e-11
2.28148e-11
2.36662e-11
2.45427e-11
2.54441e-11
2.63702e-11
2.73203e-11
2.82939e-11
2.92903e-11
3.03086e-11
3.13476e-11
3.24061e-11
3.34826e-11
3.45753e-11
3.56821e-11
3.68007e-11
3.79286e-11
3.90627e-11
4.01995e-11
4.13354e-11
4.2466e-11
4.35866e-11
4.46918e-11
4.57758e-11
4.68319e-11
4.78528e-11
4.88306e-11
4.97563e-11
5.062e-11
5.14111e-11
5.21175e-11
5.27264e-11
5.32233e-11
5.35927e-11
5.38174e-11
5.38787e-11
5.37561e-11
5.34275e-11
5.28686e-11
5.20532e-11
5.09528e-11
4.95365e-11
4.7771e-11
4.56204e-11
4.30463e-11
4.00073e-11
3.64596e-11
3.23566e-11
2.76493e-11
2.22865e-11
1.62155e-11
9.3828e-12
1.73524e-12
-6.77764e-12
-1.62039e-11
-2.65955e-11
-3.79751e-11
-5.01243e-11
-6.27754e-11
-7.94638e-11
-1.0942e-10
-1.04345e-10
9.32075e-12
9.07986e-12
8.85251e-12
8.70128e-12
8.60149e-12
8.54468e-12
8.52907e-12
8.55215e-12
8.61103e-12
8.70306e-12
8.82596e-12
8.97773e-12
9.15668e-12
9.36138e-12
9.59066e-12
9.84357e-12
1.01193e-11
1.04174e-11
1.07372e-11
1.10786e-11
1.14412e-11
1.18251e-11
1.223e-11
1.2656e-11
1.31033e-11
1.35719e-11
1.40619e-11
1.45735e-11
1.5107e-11
1.56624e-11
1.62401e-11
1.68401e-11
1.74626e-11
1.81079e-11
1.8776e-11
1.94671e-11
2.01811e-11
2.09182e-11
2.16782e-11
2.2461e-11
2.32664e-11
2.40942e-11
2.49439e-11
2.58151e-11
2.67072e-11
2.76193e-11
2.85507e-11
2.95002e-11
3.04665e-11
3.14483e-11
3.24437e-11
3.3451e-11
3.44679e-11
3.5492e-11
3.65203e-11
3.75498e-11
3.8577e-11
3.95978e-11
4.06078e-11
4.16023e-11
4.25756e-11
4.35219e-11
4.44344e-11
4.53059e-11
4.61282e-11
4.68925e-11
4.7589e-11
4.8207e-11
4.87348e-11
4.91595e-11
4.94672e-11
4.96426e-11
4.9669e-11
4.95283e-11
4.92007e-11
4.8665e-11
4.78979e-11
4.68744e-11
4.55674e-11
4.39479e-11
4.19844e-11
3.96434e-11
3.68892e-11
3.36836e-11
2.99864e-11
2.57551e-11
2.09454e-11
1.55117e-11
9.40723e-12
2.5852e-12
-5.00003e-12
-1.3391e-11
-2.26274e-11
-3.27532e-11
-4.37831e-11
-5.54875e-11
-6.75888e-11
-8.3689e-11
-1.13193e-10
-1.06888e-10
9.55221e-12
9.32538e-12
9.11063e-12
8.96664e-12
8.87039e-12
8.81422e-12
8.7968e-12
8.81601e-12
8.86937e-12
8.95456e-12
9.06954e-12
9.21253e-12
9.38197e-12
9.57652e-12
9.79508e-12
1.00367e-11
1.03006e-11
1.05863e-11
1.08932e-11
1.12209e-11
1.15693e-11
1.1938e-11
1.23271e-11
1.27365e-11
1.3166e-11
1.36159e-11
1.40861e-11
1.45767e-11
1.50879e-11
1.56197e-11
1.61721e-11
1.67454e-11
1.73396e-11
1.79548e-11
1.85908e-11
1.92479e-11
1.99258e-11
2.06245e-11
2.13438e-11
2.20835e-11
2.28432e-11
2.36226e-11
2.4421e-11
2.52379e-11
2.60726e-11
2.69241e-11
2.77913e-11
2.86732e-11
2.95682e-11
3.04748e-11
3.13911e-11
3.23151e-11
3.32445e-11
3.41766e-11
3.51084e-11
3.60368e-11
3.69579e-11
3.78679e-11
3.87621e-11
3.96356e-11
4.04828e-11
4.12978e-11
4.20738e-11
4.28035e-11
4.34789e-11
4.40911e-11
4.46305e-11
4.50866e-11
4.54478e-11
4.57017e-11
4.58346e-11
4.58316e-11
4.56767e-11
4.53524e-11
4.48398e-11
4.41185e-11
4.31664e-11
4.19598e-11
4.04732e-11
3.86792e-11
3.65485e-11
3.405e-11
3.11506e-11
2.78152e-11
2.40071e-11
1.96879e-11
1.48178e-11
9.3559e-12
3.26116e-12
-3.50733e-12
-1.09888e-11
-1.92191e-11
-2.82312e-11
-3.80628e-11
-4.87226e-11
-5.99733e-11
-7.15304e-11
-8.70399e-11
-1.1602e-10
-1.08664e-10
9.75923e-12
9.5455e-12
9.34262e-12
9.20574e-12
9.11337e-12
9.05849e-12
9.04005e-12
9.05629e-12
9.10502e-12
9.18421e-12
9.29205e-12
9.42693e-12
9.58741e-12
9.77227e-12
9.98045e-12
1.02111e-11
1.04633e-11
1.07367e-11
1.10306e-11
1.13447e-11
1.16787e-11
1.20323e-11
1.24054e-11
1.27978e-11
1.32095e-11
1.36404e-11
1.40906e-11
1.456e-11
1.50486e-11
1.55565e-11
1.60836e-11
1.663e-11
1.71957e-11
1.77806e-11
1.83846e-11
1.90076e-11
1.96494e-11
2.03099e-11
2.09887e-11
2.16855e-11
2.23999e-11
2.31312e-11
2.38789e-11
2.46423e-11
2.54204e-11
2.62122e-11
2.70165e-11
2.7832e-11
2.86573e-11
2.94905e-11
3.03296e-11
3.11726e-11
3.2017e-11
3.28599e-11
3.36985e-11
3.45292e-11
3.53484e-11
3.61518e-11
3.6935e-11
3.76929e-11
3.84199e-11
3.91101e-11
3.97566e-11
4.03523e-11
4.08892e-11
4.13586e-11
4.1751e-11
4.20561e-11
4.22628e-11
4.23587e-11
4.23308e-11
4.21647e-11
4.1845e-11
4.13548e-11
4.06763e-11
3.979e-11
3.8675e-11
3.73089e-11
3.56679e-11
3.37263e-11
3.1457e-11
2.88312e-11
2.58184e-11
2.23866e-11
1.85025e-11
1.41313e-11
9.23737e-12
3.78457e-12
-2.26341e-12
-8.94217e-12
-1.62855e-11
-2.43236e-11
-3.30842e-11
-4.25996e-11
-5.28743e-11
-6.36658e-11
-7.46856e-11
-8.96026e-11
-1.17993e-10
-1.09747e-10
9.94382e-12
9.74238e-12
9.55074e-12
9.42086e-12
9.33258e-12
9.27943e-12
9.26058e-12
9.27451e-12
9.31932e-12
9.39321e-12
9.49455e-12
9.62188e-12
9.77392e-12
9.9495e-12
1.01476e-11
1.03675e-11
1.06083e-11
1.08695e-11
1.11505e-11
1.1451e-11
1.17705e-11
1.21089e-11
1.24659e-11
1.28413e-11
1.3235e-11
1.36468e-11
1.40768e-11
1.45248e-11
1.49908e-11
1.54747e-11
1.59764e-11
1.64959e-11
1.7033e-11
1.75876e-11
1.81596e-11
1.87486e-11
1.93546e-11
1.99771e-11
2.06157e-11
2.127e-11
2.19394e-11
2.26234e-11
2.33211e-11
2.40317e-11
2.47542e-11
2.54874e-11
2.62301e-11
2.69809e-11
2.7738e-11
2.84997e-11
2.92638e-11
3.00282e-11
3.07902e-11
3.15471e-11
3.22956e-11
3.30324e-11
3.37536e-11
3.44551e-11
3.51322e-11
3.57799e-11
3.63926e-11
3.69644e-11
3.74886e-11
3.7958e-11
3.83648e-11
3.87006e-11
3.89559e-11
3.91209e-11
3.91846e-11
3.91352e-11
3.89602e-11
3.86456e-11
3.81768e-11
3.75378e-11
3.67116e-11
3.56797e-11
3.44226e-11
3.29192e-11
3.11473e-11
2.90832e-11
2.67016e-11
2.39761e-11
2.08789e-11
1.73808e-11
1.34516e-11
9.06019e-12
4.17475e-12
-1.23682e-12
-7.2064e-12
-1.3765e-11
-2.09417e-11
-2.87621e-11
-3.72493e-11
-4.64318e-11
-5.63105e-11
-6.66401e-11
-7.71302e-11
-9.14535e-11
-1.19194e-10
-1.10202e-10
1.01077e-11
9.91796e-12
9.73704e-12
9.61399e-12
9.5299e-12
9.47878e-12
9.45996e-12
9.47213e-12
9.51359e-12
9.58274e-12
9.67812e-12
9.79842e-12
9.94243e-12
1.01091e-11
1.02975e-11
1.05069e-11
1.07364e-11
1.09856e-11
1.12538e-11
1.15407e-11
1.18459e-11
1.2169e-11
1.25099e-11
1.28682e-11
1.32438e-11
1.36365e-11
1.40463e-11
1.44728e-11
1.49161e-11
1.5376e-11
1.58523e-11
1.63448e-11
1.68534e-11
1.73779e-11
1.7918e-11
1.84733e-11
1.90436e-11
1.96285e-11
2.02273e-11
2.08397e-11
2.14649e-11
2.21021e-11
2.27506e-11
2.34094e-11
2.40774e-11
2.47534e-11
2.54359e-11
2.61235e-11
2.68143e-11
2.75065e-11
2.8198e-11
2.88863e-11
2.95688e-11
3.02426e-11
3.09046e-11
3.15512e-11
3.21787e-11
3.27827e-11
3.33586e-11
3.39016e-11
3.4406e-11
3.48659e-11
3.52747e-11
3.56255e-11
3.59106e-11
3.61217e-11
3.62497e-11
3.6285e-11
3.62171e-11
3.60347e-11
3.57256e-11
3.52767e-11
3.4674e-11
3.39023e-11
3.29455e-11
3.17865e-11
3.04068e-11
2.87868e-11
2.69059e-11
2.47422e-11
2.22725e-11
1.94725e-11
1.6317e-11
1.27795e-11
8.83291e-12
4.44927e-12
-3.99682e-13
-5.74231e-12
-1.16066e-11
-1.80195e-11
-2.50062e-11
-3.25882e-11
-4.07849e-11
-4.96217e-11
-5.90966e-11
-6.89636e-11
-7.89321e-11
-9.2661e-11
-1.19696e-10
-1.10088e-10
1.02526e-11
1.00739e-11
9.90325e-12
9.78688e-12
9.70704e-12
9.65817e-12
9.63971e-12
9.65053e-12
9.68909e-12
9.75397e-12
9.84385e-12
9.95753e-12
1.00939e-11
1.02521e-11
1.04311e-11
1.06301e-11
1.08486e-11
1.10859e-11
1.13415e-11
1.16149e-11
1.19058e-11
1.22137e-11
1.25384e-11
1.28797e-11
1.32373e-11
1.36109e-11
1.40004e-11
1.44055e-11
1.48262e-11
1.52621e-11
1.5713e-11
1.61788e-11
1.6659e-11
1.71536e-11
1.7662e-11
1.8184e-11
1.8719e-11
1.92666e-11
1.98263e-11
2.03973e-11
2.09789e-11
2.15703e-11
2.21706e-11
2.27787e-11
2.33934e-11
2.40135e-11
2.46374e-11
2.52635e-11
2.589e-11
2.65149e-11
2.7136e-11
2.77508e-11
2.83567e-11
2.89507e-11
2.95297e-11
3.009e-11
3.06278e-11
3.1139e-11
3.16189e-11
3.20625e-11
3.24645e-11
3.28189e-11
3.31194e-11
3.33591e-11
3.35306e-11
3.36258e-11
3.3636e-11
3.35519e-11
3.33633e-11
3.30596e-11
3.26291e-11
3.20593e-11
3.1337e-11
3.04479e-11
2.93769e-11
2.81079e-11
2.66238e-11
2.49065e-11
2.29368e-11
2.06946e-11
1.81587e-11
1.53071e-11
1.21168e-11
8.56397e-12
4.62432e-12
2.72949e-13
-4.51522e-12
-9.76517e-12
-1.55014e-11
-2.17474e-11
-2.85248e-11
-3.58517e-11
-4.37447e-11
-5.22262e-11
-6.12923e-11
-7.06975e-11
-8.01526e-11
-9.3287e-11
-1.19567e-10
-1.0946e-10
1.03797e-11
1.02118e-11
1.0051e-11
9.94114e-12
9.86556e-12
9.81907e-12
9.80123e-12
9.81101e-12
9.84704e-12
9.90804e-12
9.99281e-12
1.01003e-11
1.02294e-11
1.03793e-11
1.05492e-11
1.07382e-11
1.09459e-11
1.11715e-11
1.14146e-11
1.16746e-11
1.19513e-11
1.22441e-11
1.25528e-11
1.28771e-11
1.32167e-11
1.35712e-11
1.39406e-11
1.43244e-11
1.47225e-11
1.51346e-11
1.55604e-11
1.59995e-11
1.64517e-11
1.69166e-11
1.73937e-11
1.78827e-11
1.8383e-11
1.88939e-11
1.9415e-11
1.99453e-11
2.04842e-11
2.10308e-11
2.15839e-11
2.21425e-11
2.27053e-11
2.32709e-11
2.38378e-11
2.44043e-11
2.49685e-11
2.55283e-11
2.60815e-11
2.66256e-11
2.71579e-11
2.76753e-11
2.81748e-11
2.86527e-11
2.91051e-11
2.9528e-11
2.99168e-11
3.02666e-11
3.0572e-11
3.08273e-11
3.10263e-11
3.11624e-11
3.12282e-11
3.12161e-11
3.11176e-11
3.09239e-11
3.06252e-11
3.02114e-11
2.96715e-11
2.89936e-11
2.81653e-11
2.71732e-11
2.60033e-11
2.46405e-11
2.30689e-11
2.1272e-11
1.9232e-11
1.69306e-11
1.43485e-11
1.14657e-11
8.26161e-12
4.71481e-12
8.0356e-13
-3.49421e-12
-8.20065e-12
-1.33377e-11
-1.89268e-11
-2.49883e-11
-3.15407e-11
-3.85995e-11
-4.61785e-11
-5.42979e-11
-6.29522e-11
-7.18976e-11
-8.08478e-11
-9.33881e-11
-1.18868e-10
-1.08365e-10
1.04907e-11
1.0333e-11
1.01817e-11
1.00782e-11
1.00069e-11
9.96288e-12
9.94582e-12
9.95482e-12
9.98862e-12
1.00461e-11
1.01261e-11
1.02276e-11
1.03498e-11
1.04918e-11
1.06528e-11
1.08321e-11
1.10291e-11
1.12433e-11
1.1474e-11
1.17209e-11
1.19835e-11
1.22613e-11
1.25541e-11
1.28616e-11
1.31833e-11
1.35189e-11
1.38683e-11
1.4231e-11
1.46067e-11
1.49951e-11
1.5396e-11
1.58088e-11
1.62332e-11
1.66688e-11
1.71151e-11
1.75716e-11
1.80376e-11
1.85126e-11
1.89958e-11
1.94863e-11
1.99834e-11
2.04861e-11
2.09932e-11
2.15035e-11
2.20158e-11
2.25286e-11
2.30403e-11
2.3549e-11
2.4053e-11
2.45501e-11
2.50379e-11
2.55141e-11
2.59757e-11
2.64199e-11
2.68435e-11
2.72428e-11
2.76142e-11
2.79534e-11
2.8256e-11
2.85172e-11
2.87319e-11
2.88943e-11
2.89985e-11
2.90381e-11
2.9006e-11
2.88948e-11
2.86966e-11
2.84027e-11
2.80041e-11
2.74909e-11
2.6853e-11
2.60791e-11
2.51576e-11
2.40761e-11
2.28214e-11
2.13796e-11
1.97363e-11
1.7876e-11
1.57826e-11
1.34395e-11
1.08292e-11
7.93376e-12
4.73453e-12
1.21253e-12
-2.65157e-12
-6.87728e-12
-1.14841e-11
-1.64912e-11
-2.19172e-11
-2.77797e-11
-3.40947e-11
-4.08751e-11
-4.81326e-11
-5.58853e-11
-6.41265e-11
-7.26153e-11
-8.10692e-11
-9.30166e-11
-1.17656e-10
-1.06853e-10
1.05866e-11
1.04388e-11
1.02968e-11
1.01995e-11
1.01323e-11
1.00909e-11
1.00747e-11
1.00832e-11
1.0115e-11
1.01691e-11
1.02446e-11
1.03406e-11
1.04561e-11
1.05904e-11
1.07428e-11
1.09127e-11
1.10993e-11
1.13022e-11
1.15208e-11
1.17547e-11
1.20034e-11
1.22664e-11
1.25435e-11
1.28343e-11
1.31383e-11
1.34552e-11
1.37848e-11
1.41265e-11
1.44801e-11
1.48453e-11
1.52215e-11
1.56083e-11
1.60054e-11
1.64122e-11
1.68281e-11
1.72527e-11
1.76851e-11
1.81248e-11
1.85709e-11
1.90226e-11
1.94789e-11
1.99388e-11
2.04011e-11
2.08646e-11
2.13278e-11
2.17894e-11
2.22476e-11
2.27007e-11
2.31466e-11
2.35833e-11
2.40084e-11
2.44194e-11
2.48135e-11
2.51878e-11
2.5539e-11
2.58637e-11
2.61581e-11
2.64182e-11
2.66395e-11
2.68175e-11
2.6947e-11
2.70227e-11
2.70387e-11
2.69887e-11
2.68661e-11
2.66639e-11
2.63743e-11
2.59893e-11
2.55003e-11
2.48981e-11
2.41728e-11
2.33144e-11
2.23117e-11
2.11533e-11
1.9827e-11
1.83202e-11
1.66194e-11
1.47106e-11
1.25793e-11
1.02103e-11
7.58799e-12
4.69619e-12
1.51835e-12
-1.96238e-12
-5.76307e-12
-9.90087e-12
-1.43928e-11
-1.92556e-11
-2.45054e-11
-3.01574e-11
-3.62251e-11
-4.27195e-11
-4.96502e-11
-5.70335e-11
-6.48619e-11
-7.28983e-11
-8.08647e-11
-9.22212e-11
-1.15985e-10
-1.04967e-10
1.06686e-11
1.05305e-11
1.03974e-11
1.03062e-11
1.02432e-11
1.02043e-11
1.01892e-11
1.01972e-11
1.02272e-11
1.02783e-11
1.03495e-11
1.04401e-11
1.05493e-11
1.06762e-11
1.08203e-11
1.09809e-11
1.11574e-11
1.13492e-11
1.15559e-11
1.1777e-11
1.2012e-11
1.22605e-11
1.25221e-11
1.27964e-11
1.30829e-11
1.33814e-11
1.36914e-11
1.40125e-11
1.43443e-11
1.46865e-11
1.50384e-11
1.53998e-11
1.57699e-11
1.61484e-11
1.65346e-11
1.69279e-11
1.73275e-11
1.77326e-11
1.81426e-11
1.85563e-11
1.89729e-11
1.93912e-11
1.981e-11
2.0228e-11
2.06439e-11
2.1056e-11
2.14626e-11
2.1862e-11
2.22521e-11
2.26308e-11
2.29957e-11
2.33444e-11
2.3674e-11
2.39817e-11
2.42642e-11
2.45181e-11
2.47397e-11
2.49252e-11
2.50701e-11
2.517e-11
2.52199e-11
2.52147e-11
2.51487e-11
2.5016e-11
2.48101e-11
2.45245e-11
2.41517e-11
2.36842e-11
2.31139e-11
2.24321e-11
2.16298e-11
2.06974e-11
1.96247e-11
1.84011e-11
1.70155e-11
1.54563e-11
1.37111e-11
1.17674e-11
9.61208e-12
7.23141e-12
4.61144e-12
1.7378e-12
-1.40415e-12
-4.82928e-12
-8.55257e-12
-1.2589e-11
-1.69533e-11
-2.166e-11
-2.6723e-11
-3.21552e-11
-3.79682e-11
-4.4171e-11
-5.07716e-11
-5.77847e-11
-6.52019e-11
-7.27908e-11
-8.0279e-11
-9.10475e-11
-1.13906e-10
-1.02749e-10
1.07381e-11
1.06092e-11
1.04848e-11
1.03994e-11
1.03406e-11
1.03042e-11
1.02902e-11
1.02979e-11
1.03263e-11
1.03746e-11
1.04418e-11
1.05273e-11
1.06303e-11
1.07501e-11
1.08861e-11
1.10377e-11
1.12043e-11
1.13853e-11
1.15804e-11
1.17889e-11
1.20105e-11
1.22446e-11
1.2491e-11
1.2749e-11
1.30184e-11
1.32987e-11
1.35894e-11
1.38902e-11
1.42006e-11
1.45202e-11
1.48483e-11
1.51846e-11
1.55284e-11
1.58792e-11
1.62363e-11
1.6599e-11
1.69665e-11
1.7338e-11
1.77127e-11
1.80896e-11
1.84676e-11
1.88455e-11
1.92222e-11
1.95963e-11
1.99663e-11
2.03307e-11
2.06876e-11
2.10354e-11
2.1372e-11
2.16951e-11
2.20025e-11
2.22917e-11
2.25599e-11
2.28043e-11
2.30216e-11
2.32086e-11
2.33616e-11
2.34767e-11
2.35499e-11
2.35767e-11
2.35525e-11
2.34721e-11
2.33302e-11
2.31212e-11
2.2839e-11
2.24772e-11
2.20289e-11
2.14871e-11
2.08441e-11
2.00918e-11
1.92219e-11
1.82255e-11
1.70931e-11
1.58152e-11
1.43815e-11
1.27814e-11
1.10039e-11
9.03758e-12
6.87063e-12
4.49094e-12
1.88607e-12
-9.56653e-13
-4.05011e-12
-7.4073e-12
-1.10413e-11
-1.49649e-11
-1.9191e-11
-2.3732e-11
-2.85998e-11
-3.38053e-11
-3.93581e-11
-4.52658e-11
-5.15348e-11
-5.81782e-11
-6.51872e-11
-7.23343e-11
-7.93538e-11
-8.95384e-11
-1.11467e-10
-1.0024e-10
1.07959e-11
1.0676e-11
1.05601e-11
1.04805e-11
1.04256e-11
1.03918e-11
1.0379e-11
1.03864e-11
1.04134e-11
1.04589e-11
1.05224e-11
1.0603e-11
1.07001e-11
1.0813e-11
1.09411e-11
1.1084e-11
1.12409e-11
1.14114e-11
1.15951e-11
1.17913e-11
1.19997e-11
1.22198e-11
1.24512e-11
1.26933e-11
1.29458e-11
1.32083e-11
1.34802e-11
1.3761e-11
1.40504e-11
1.43478e-11
1.46527e-11
1.49644e-11
1.52825e-11
1.56062e-11
1.59349e-11
1.62677e-11
1.6604e-11
1.69429e-11
1.72833e-11
1.76244e-11
1.7965e-11
1.83039e-11
1.86399e-11
1.89715e-11
1.92974e-11
1.96158e-11
1.99251e-11
2.02233e-11
2.05086e-11
2.07786e-11
2.10312e-11
2.12637e-11
2.14736e-11
2.16579e-11
2.18136e-11
2.19373e-11
2.20257e-11
2.20749e-11
2.20809e-11
2.20396e-11
2.19463e-11
2.17962e-11
2.15844e-11
2.13053e-11
2.09533e-11
2.05222e-11
2.00058e-11
1.93973e-11
1.86897e-11
1.78754e-11
1.69467e-11
1.58955e-11
1.47132e-11
1.33908e-11
1.19193e-11
1.02889e-11
8.48978e-12
6.51179e-12
4.3444e-12
1.9769e-12
-6.01656e-13
-3.40238e-12
-6.43648e-12
-9.7152e-12
-1.32498e-11
-1.70513e-11
-2.11307e-11
-2.54984e-11
-3.01644e-11
-3.51381e-11
-4.04274e-11
-4.60381e-11
-5.19754e-11
-5.82512e-11
-6.48558e-11
-7.1568e-11
-7.81285e-11
-8.77346e-11
-1.08714e-10
-9.7477e-11
1.08433e-11
1.07321e-11
1.06243e-11
1.05503e-11
1.04993e-11
1.04681e-11
1.04564e-11
1.04638e-11
1.04893e-11
1.05324e-11
1.05922e-11
1.06681e-11
1.07595e-11
1.08657e-11
1.09863e-11
1.11206e-11
1.12682e-11
1.14285e-11
1.1601e-11
1.17852e-11
1.19808e-11
1.21871e-11
1.24038e-11
1.26304e-11
1.28664e-11
1.31113e-11
1.33647e-11
1.36261e-11
1.3895e-11
1.41707e-11
1.44528e-11
1.47407e-11
1.50336e-11
1.53309e-11
1.56319e-11
1.59358e-11
1.62418e-11
1.65489e-11
1.68562e-11
1.71626e-11
1.7467e-11
1.77682e-11
1.80649e-11
1.83557e-11
1.86391e-11
1.89135e-11
1.9177e-11
1.94279e-11
1.96641e-11
1.98836e-11
2.00839e-11
2.02626e-11
2.04171e-11
2.05446e-11
2.06421e-11
2.07063e-11
2.0734e-11
2.07214e-11
2.06647e-11
2.05599e-11
2.04026e-11
2.01882e-11
1.9912e-11
1.95687e-11
1.91531e-11
1.86594e-11
1.80817e-11
1.74138e-11
1.66491e-11
1.57807e-11
1.48015e-11
1.3704e-11
1.24804e-11
1.11227e-11
9.6226e-12
7.97146e-12
6.16048e-12
4.18063e-12
2.02268e-12
-3.22777e-13
-2.86528e-12
-5.61444e-12
-8.57991e-12
-1.17713e-11
-1.51982e-11
-1.887e-11
-2.27958e-11
-2.69845e-11
-3.14442e-11
-3.61828e-11
-4.12065e-11
-4.652e-11
-5.21271e-11
-5.80384e-11
-6.42439e-11
-7.05284e-11
-7.66404e-11
-8.56743e-11
-1.0569e-10
-9.44975e-11
1.08811e-11
1.07783e-11
1.06784e-11
1.06098e-11
1.05627e-11
1.0534e-11
1.05235e-11
1.05308e-11
1.05551e-11
1.05958e-11
1.06521e-11
1.07235e-11
1.08095e-11
1.09093e-11
1.10225e-11
1.11486e-11
1.1287e-11
1.14373e-11
1.1599e-11
1.17715e-11
1.19545e-11
1.21474e-11
1.23498e-11
1.25612e-11
1.2781e-11
1.30089e-11
1.32443e-11
1.34867e-11
1.37355e-11
1.39902e-11
1.42501e-11
1.45147e-11
1.47832e-11
1.50549e-11
1.5329e-11
1.56048e-11
1.58814e-11
1.61578e-11
1.6433e-11
1.67059e-11
1.69755e-11
1.72404e-11
1.74993e-11
1.77509e-11
1.79935e-11