/*--------------------------------*- C++ -*----------------------------------*\
  =========                 |
  \\      /  F ield         | OpenFOAM: The Open Source CFD Toolbox
   \\    /   O peration     | Website:  https://openfoam.org
    \\  /    A nd           | Version:  11
     \\/     M anipulation  |
\*---------------------------------------------------------------------------*/
FoamFile
{
    format      ascii;
    class       volScalarField;
    location    "652";
    object      omega;
}
// * * * * * * * * * * * * * * * * * * * * * * * * * * * * * * * * * * * * * //

dimensions      [0 0 -1 0 0 0 0];

internalField   nonuniform List<scalar> 
10000
(
0.961692
0.892185
0.829085
0.771728
0.719523
0.671944
0.628523
0.588843
0.552532
0.519257
0.488724
0.460667
0.434849
0.41106
0.389109
0.368827
0.350061
0.332675
0.316545
0.301561
0.287624
0.274643
0.262538
0.251236
0.24067
0.23078
0.221513
0.212818
0.204652
0.196973
0.189745
0.182934
0.176509
0.170442
0.164707
0.159281
0.154142
0.149271
0.144649
0.14026
0.136088
0.132119
0.128341
0.12474
0.121307
0.11803
0.1149
0.111909
0.109048
0.106309
0.103686
0.101171
0.0987597
0.0964452
0.0942224
0.0920863
0.0900323
0.0880561
0.0861535
0.0843208
0.0825543
0.0808507
0.0792069
0.0776197
0.0760866
0.0746047
0.0731716
0.0717849
0.0704425
0.0691421
0.0678818
0.0666598
0.065474
0.064323
0.0632049
0.0621184
0.0610618
0.0600338
0.0590331
0.0580583
0.0571083
0.056182
0.0552783
0.0543964
0.0535353
0.0526945
0.0518734
0.0510718
0.0502898
0.0495279
0.0487873
0.0480699
0.0473787
0.0467184
0.0460956
0.0455201
0.0450053
0.0445704
0.0442417
0.0440557
0.961692
0.892185
0.829085
0.771728
0.719523
0.671944
0.628523
0.588843
0.552532
0.519257
0.488724
0.460667
0.434849
0.41106
0.389109
0.368827
0.350061
0.332675
0.316545
0.301561
0.287624
0.274643
0.262539
0.251236
0.24067
0.23078
0.221513
0.212818
0.204652
0.196973
0.189745
0.182934
0.176509
0.170442
0.164707
0.159281
0.154142
0.149271
0.144649
0.14026
0.136088
0.132119
0.128341
0.12474
0.121307
0.11803
0.1149
0.111909
0.109048
0.106309
0.103686
0.101171
0.0987599
0.0964454
0.0942226
0.0920866
0.0900326
0.0880564
0.0861538
0.0843211
0.0825546
0.080851
0.0792072
0.0776201
0.0760869
0.074605
0.0731719
0.0717853
0.0704429
0.0691425
0.0678823
0.0666602
0.0654745
0.0643234
0.0632054
0.0621189
0.0610623
0.0600343
0.0590336
0.0580589
0.0571089
0.0561826
0.055279
0.054397
0.053536
0.0526951
0.0518741
0.0510725
0.0502905
0.0495287
0.0487881
0.0480707
0.0473795
0.0467192
0.0460965
0.0455209
0.0450062
0.0445712
0.0442426
0.0440565
0.961692
0.892185
0.829085
0.771728
0.719523
0.671944
0.628523
0.588843
0.552532
0.519257
0.488724
0.460667
0.434849
0.41106
0.389109
0.368827
0.350061
0.332675
0.316545
0.301561
0.287624
0.274644
0.262539
0.251236
0.24067
0.23078
0.221513
0.212818
0.204652
0.196974
0.189745
0.182934
0.176509
0.170442
0.164707
0.159281
0.154143
0.149271
0.144649
0.14026
0.136088
0.13212
0.128341
0.124741
0.121307
0.11803
0.114901
0.111909
0.109048
0.106309
0.103686
0.101172
0.0987603
0.0964458
0.0942231
0.092087
0.0900331
0.0880569
0.0861543
0.0843216
0.0825551
0.0808516
0.0792078
0.0776207
0.0760875
0.0746057
0.0731726
0.071786
0.0704436
0.0691433
0.067883
0.066661
0.0654753
0.0643243
0.0632063
0.0621198
0.0610633
0.0600354
0.0590347
0.05806
0.05711
0.0561838
0.0552802
0.0543983
0.0535373
0.0526965
0.0518754
0.0510739
0.050292
0.0495301
0.0487896
0.0480722
0.0473811
0.0467208
0.0460981
0.0455225
0.0450078
0.0445728
0.0442441
0.0440581
0.961692
0.892185
0.829085
0.771728
0.719523
0.671944
0.628523
0.588843
0.552532
0.519257
0.488724
0.460667
0.434849
0.41106
0.389109
0.368827
0.350061
0.332675
0.316545
0.301561
0.287624
0.274644
0.262539
0.251236
0.24067
0.230781
0.221513
0.212819
0.204652
0.196974
0.189746
0.182934
0.176509
0.170442
0.164708
0.159282
0.154143
0.149272
0.14465
0.140261
0.136089
0.13212
0.128341
0.124741
0.121307
0.118031
0.114901
0.11191
0.109049
0.10631
0.103687
0.101172
0.0987609
0.0964465
0.0942237
0.0920877
0.0900338
0.0880576
0.0861551
0.0843224
0.082556
0.0808524
0.0792086
0.0776216
0.0760885
0.0746067
0.0731736
0.0717871
0.0704447
0.0691444
0.0678842
0.0666622
0.0654766
0.0643256
0.0632077
0.0621212
0.0610647
0.0600368
0.0590362
0.0580615
0.0571117
0.0561855
0.0552819
0.0544001
0.0535391
0.0526984
0.0518774
0.0510759
0.0502941
0.0495323
0.0487918
0.0480744
0.0473834
0.0467231
0.0461004
0.0455249
0.0450101
0.0445751
0.0442465
0.0440604
0.961692
0.892185
0.829085
0.771728
0.719523
0.671944
0.628523
0.588843
0.552532
0.519258
0.488724
0.460667
0.434849
0.41106
0.389109
0.368827
0.350061
0.332675
0.316545
0.301562
0.287624
0.274644
0.262539
0.251236
0.24067
0.230781
0.221513
0.212819
0.204653
0.196974
0.189746
0.182935
0.17651
0.170443
0.164708
0.159282
0.154143
0.149272
0.14465
0.140261
0.136089
0.13212
0.128342
0.124741
0.121308
0.118031
0.114902
0.11191
0.109049
0.106311
0.103687
0.101173
0.0987617
0.0964473
0.0942246
0.0920886
0.0900347
0.0880585
0.086156
0.0843234
0.082557
0.0808535
0.0792098
0.0776228
0.0760897
0.0746079
0.0731749
0.0717884
0.0704461
0.0691459
0.0678857
0.0666638
0.0654782
0.0643273
0.0632094
0.062123
0.0610666
0.0600388
0.0590382
0.0580636
0.0571138
0.0561877
0.0552842
0.0544024
0.0535416
0.0527009
0.05188
0.0510786
0.0502968
0.0495351
0.0487947
0.0480774
0.0473863
0.0467261
0.0461034
0.0455279
0.0450132
0.0445782
0.0442495
0.0440634
0.961692
0.892185
0.829085
0.771728
0.719523
0.671944
0.628523
0.588843
0.552532
0.519258
0.488724
0.460667
0.434849
0.41106
0.389109
0.368827
0.350061
0.332675
0.316545
0.301562
0.287625
0.274644
0.262539
0.251237
0.240671
0.230781
0.221514
0.212819
0.204653
0.196974
0.189746
0.182935
0.17651
0.170443
0.164708
0.159282
0.154144
0.149272
0.144651
0.140261
0.13609
0.132121
0.128343
0.124742
0.121309
0.118032
0.114902
0.111911
0.10905
0.106311
0.103688
0.101174
0.0987627
0.0964483
0.0942256
0.0920896
0.0900358
0.0880597
0.0861573
0.0843247
0.0825583
0.0808549
0.0792112
0.0776242
0.0760912
0.0746095
0.0731766
0.0717901
0.0704478
0.0691476
0.0678876
0.0666657
0.0654802
0.0643293
0.0632115
0.0621252
0.0610689
0.0600411
0.0590406
0.0580661
0.0571164
0.0561904
0.055287
0.0544053
0.0535445
0.052704
0.0518832
0.0510819
0.0503002
0.0495386
0.0487982
0.048081
0.04739
0.0467298
0.0461072
0.0455316
0.0450169
0.0445819
0.0442532
0.0440671
0.961692
0.892185
0.829085
0.771728
0.719523
0.671944
0.628523
0.588843
0.552532
0.519258
0.488724
0.460667
0.43485
0.41106
0.389109
0.368827
0.350061
0.332675
0.316546
0.301562
0.287625
0.274644
0.262539
0.251237
0.240671
0.230781
0.221514
0.212819
0.204653
0.196975
0.189747
0.182936
0.176511
0.170443
0.164709
0.159283
0.154144
0.149273
0.144651
0.140262
0.13609
0.132122
0.128343
0.124743
0.121309
0.118033
0.114903
0.111912
0.109051
0.106312
0.103689
0.101175
0.0987638
0.0964494
0.0942268
0.0920909
0.0900371
0.0880611
0.0861587
0.0843261
0.0825598
0.0808565
0.0792128
0.0776259
0.0760929
0.0746113
0.0731784
0.071792
0.0704498
0.0691497
0.0678897
0.0666679
0.0654825
0.0643317
0.063214
0.0621278
0.0610715
0.0600439
0.0590435
0.0580691
0.0571195
0.0561936
0.0552903
0.0544087
0.053548
0.0527076
0.0518869
0.0510857
0.0503041
0.0495426
0.0488023
0.0480851
0.0473942
0.0467341
0.0461115
0.045536
0.0450213
0.0445863
0.0442576
0.0440715
0.961692
0.892185
0.829085
0.771728
0.719523
0.671944
0.628523
0.588843
0.552532
0.519258
0.488724
0.460667
0.43485
0.41106
0.389109
0.368827
0.350062
0.332675
0.316546
0.301562
0.287625
0.274644
0.26254
0.251237
0.240671
0.230782
0.221514
0.21282
0.204654
0.196975
0.189747
0.182936
0.176511
0.170444
0.164709
0.159283
0.154145
0.149274
0.144652
0.140263
0.136091
0.132123
0.128344
0.124744
0.12131
0.118034
0.114904
0.111913
0.109052
0.106314
0.103691
0.101176
0.0987651
0.0964508
0.0942282
0.0920923
0.0900386
0.0880626
0.0861603
0.0843278
0.0825616
0.0808582
0.0792147
0.0776278
0.0760949
0.0746134
0.0731806
0.0717942
0.0704521
0.0691521
0.0678922
0.0666705
0.0654851
0.0643344
0.0632168
0.0621307
0.0610745
0.060047
0.0590467
0.0580724
0.0571229
0.0561971
0.055294
0.0544125
0.053552
0.0527117
0.0518911
0.05109
0.0503085
0.0495471
0.0488069
0.0480899
0.047399
0.046739
0.0461164
0.045541
0.0450262
0.0445912
0.0442625
0.0440764
0.961692
0.892185
0.829085
0.771728
0.719523
0.671944
0.628523
0.588843
0.552532
0.519258
0.488724
0.460667
0.43485
0.41106
0.38911
0.368828
0.350062
0.332676
0.316546
0.301562
0.287625
0.274645
0.26254
0.251237
0.240671
0.230782
0.221515
0.21282
0.204654
0.196976
0.189748
0.182937
0.176512
0.170445
0.16471
0.159284
0.154145
0.149274
0.144653
0.140264
0.136092
0.132123
0.128345
0.124745
0.121311
0.118035
0.114905
0.111914
0.109053
0.106315
0.103692
0.101178
0.0987665
0.0964522
0.0942297
0.0920939
0.0900402
0.0880643
0.086162
0.0843296
0.0825635
0.0808602
0.0792167
0.07763
0.0760971
0.0746156
0.0731829
0.0717967
0.0704547
0.0691547
0.0678949
0.0666733
0.065488
0.0643375
0.0632199
0.0621339
0.0610779
0.0600505
0.0590503
0.0580761
0.0571268
0.0562011
0.0552981
0.0544168
0.0535564
0.0527162
0.0518957
0.0510948
0.0503134
0.0495521
0.0488121
0.0480951
0.0474044
0.0467444
0.0461219
0.0455465
0.0450318
0.0445968
0.044268
0.0440819
0.961692
0.892185
0.829085
0.771728
0.719523
0.671944
0.628523
0.588843
0.552532
0.519258
0.488724
0.460667
0.43485
0.41106
0.38911
0.368828
0.350062
0.332676
0.316546
0.301563
0.287625
0.274645
0.26254
0.251238
0.240672
0.230782
0.221515
0.212821
0.204655
0.196976
0.189748
0.182937
0.176512
0.170445
0.164711
0.159285
0.154146
0.149275
0.144653
0.140264
0.136093
0.132124
0.128346
0.124746
0.121312
0.118036
0.114907
0.111915
0.109055
0.106316
0.103693
0.101179
0.098768
0.0964538
0.0942314
0.0920956
0.090042
0.0880662
0.086164
0.0843316
0.0825656
0.0808624
0.079219
0.0776323
0.0760996
0.0746181
0.0731855
0.0717994
0.0704574
0.0691576
0.0678979
0.0666763
0.0654912
0.0643408
0.0632234
0.0621374
0.0610815
0.0600542
0.0590542
0.0580802
0.057131
0.0562054
0.0553025
0.0544214
0.0535611
0.0527211
0.0519008
0.0511
0.0503188
0.0495576
0.0488177
0.0481009
0.0474102
0.0467503
0.0461279
0.0455525
0.0450378
0.0446028
0.044274
0.0440879
0.961692
0.892185
0.829085
0.771728
0.719523
0.671944
0.628523
0.588843
0.552532
0.519258
0.488724
0.460667
0.43485
0.411061
0.38911
0.368828
0.350062
0.332676
0.316546
0.301563
0.287626
0.274645
0.26254
0.251238
0.240672
0.230783
0.221515
0.212821
0.204655
0.196977
0.189749
0.182938
0.176513
0.170446
0.164711
0.159285
0.154147
0.149276
0.144654
0.140265
0.136094
0.132125
0.128347
0.124747
0.121314
0.118037
0.114908
0.111917
0.109056
0.106318
0.103695
0.101181
0.0987697
0.0964555
0.0942331
0.0920975
0.090044
0.0880682
0.0861661
0.0843338
0.0825678
0.0808647
0.0792214
0.0776348
0.0761021
0.0746208
0.0731883
0.0718022
0.0704604
0.0691607
0.0679011
0.0666796
0.0654946
0.0643443
0.063227
0.0621412
0.0610854
0.0600583
0.0590584
0.0580845
0.0571354
0.0562101
0.0553073
0.0544263
0.0535662
0.0527264
0.0519062
0.0511056
0.0503245
0.0495635
0.0488237
0.048107
0.0474165
0.0467566
0.0461343
0.0455589
0.0450443
0.0446093
0.0442805
0.0440943
0.961692
0.892185
0.829085
0.771728
0.719523
0.671944
0.628523
0.588843
0.552532
0.519258
0.488724
0.460667
0.43485
0.411061
0.38911
0.368828
0.350062
0.332676
0.316547
0.301563
0.287626
0.274645
0.262541
0.251238
0.240673
0.230783
0.221516
0.212822
0.204655
0.196977
0.189749
0.182938
0.176513
0.170447
0.164712
0.159286
0.154148
0.149277
0.144655
0.140266
0.136095
0.132126
0.128348
0.124748
0.121315
0.118038
0.114909
0.111918
0.109057
0.106319
0.103696
0.101183
0.0987714
0.0964574
0.094235
0.0920995
0.090046
0.0880703
0.0861683
0.0843361
0.0825702
0.0808672
0.0792239
0.0776374
0.0761049
0.0746236
0.0731912
0.0718053
0.0704636
0.0691639
0.0679044
0.0666831
0.0654982
0.064348
0.0632309
0.0621452
0.0610896
0.0600626
0.0590628
0.0580891
0.0571402
0.056215
0.0553124
0.0544316
0.0535716
0.0527319
0.051912
0.0511115
0.0503306
0.0495698
0.0488301
0.0481135
0.0474231
0.0467634
0.0461411
0.0455658
0.0450511
0.0446162
0.0442874
0.0441012
0.961692
0.892185
0.829085
0.771728
0.719523
0.671944
0.628523
0.588843
0.552532
0.519258
0.488724
0.460667
0.43485
0.411061
0.38911
0.368828
0.350062
0.332676
0.316547
0.301563
0.287626
0.274646
0.262541
0.251239
0.240673
0.230783
0.221516
0.212822
0.204656
0.196978
0.18975
0.182939
0.176514
0.170447
0.164713
0.159287
0.154149
0.149278
0.144656
0.140267
0.136096
0.132128
0.128349
0.124749
0.121316
0.11804
0.114911
0.11192
0.109059
0.106321
0.103698
0.101184
0.0987732
0.0964593
0.094237
0.0921015
0.0900481
0.0880725
0.0861706
0.0843385
0.0825727
0.0808697
0.0792266
0.0776402
0.0761077
0.0746266
0.0731943
0.0718085
0.0704669
0.0691674
0.067908
0.0666868
0.065502
0.064352
0.063235
0.0621494
0.061094
0.0600671
0.0590675
0.0580939
0.0571452
0.0562201
0.0553177
0.0544371
0.0535773
0.0527378
0.051918
0.0511177
0.050337
0.0495763
0.0488368
0.0481204
0.0474301
0.0467705
0.0461482
0.045573
0.0450584
0.0446234
0.0442946
0.0441084
0.961692
0.892185
0.829085
0.771728
0.719523
0.671944
0.628523
0.588843
0.552532
0.519258
0.488724
0.460667
0.43485
0.411061
0.38911
0.368828
0.350062
0.332676
0.316547
0.301563
0.287626
0.274646
0.262541
0.251239
0.240673
0.230784
0.221517
0.212822
0.204657
0.196978
0.18975
0.18294
0.176515
0.170448
0.164714
0.159288
0.15415
0.149279
0.144657
0.140268
0.136097
0.132129
0.128351
0.124751
0.121318
0.118041
0.114912
0.111921
0.109061
0.106322
0.1037
0.101186
0.0987751
0.0964612
0.0942391
0.0921037
0.0900504
0.0880748
0.086173
0.084341
0.0825752
0.0808724
0.0792294
0.0776431
0.0761107
0.0746297
0.0731975
0.0718118
0.0704703
0.0691709
0.0679117
0.0666906
0.065506
0.0643561
0.0632392
0.0621538
0.0610985
0.0600718
0.0590724
0.058099
0.0571504
0.0562255
0.0553233
0.0544428
0.0535832
0.0527439
0.0519243
0.0511242
0.0503436
0.0495831
0.0488438
0.0481275
0.0474373
0.0467778
0.0461557
0.0455805
0.045066
0.044631
0.0443022
0.0441159
0.961692
0.892185
0.829085
0.771728
0.719523
0.671944
0.628523
0.588843
0.552532
0.519258
0.488725
0.460667
0.43485
0.411061
0.38911
0.368828
0.350063
0.332677
0.316547
0.301564
0.287627
0.274646
0.262542
0.251239
0.240674
0.230784
0.221517
0.212823
0.204657
0.196979
0.189751
0.18294
0.176515
0.170449
0.164714
0.159289
0.15415
0.14928
0.144658
0.140269
0.136098
0.13213
0.128352
0.124752
0.121319
0.118043
0.114914
0.111923
0.109062
0.106324
0.103702
0.101188
0.0987771
0.0964633
0.0942412
0.0921059
0.0900527
0.0880772
0.0861754
0.0843435
0.0825779
0.0808752
0.0792322
0.0776461
0.0761138
0.0746329
0.0732008
0.0718152
0.0704739
0.0691746
0.0679155
0.0666946
0.0655101
0.0643603
0.0632436
0.0621583
0.0611032
0.0600766
0.0590774
0.0581041
0.0571557
0.056231
0.055329
0.0544487
0.0535893
0.0527502
0.0519308
0.0511309
0.0503505
0.0495902
0.048851
0.0481349
0.0474449
0.0467855
0.0461634
0.0455883
0.0450738
0.0446388
0.04431
0.0441237
0.961692
0.892185
0.829085
0.771728
0.719523
0.671944
0.628523
0.588843
0.552532
0.519258
0.488725
0.460668
0.43485
0.411061
0.38911
0.368828
0.350063
0.332677
0.316547
0.301564
0.287627
0.274647
0.262542
0.25124
0.240674
0.230785
0.221518
0.212823
0.204658
0.196979
0.189752
0.182941
0.176516
0.17045
0.164715
0.15929
0.154151
0.149281
0.144659
0.140271
0.136099
0.132131
0.128353
0.124753
0.12132
0.118044
0.114915
0.111924
0.109064
0.106326
0.103703
0.10119
0.0987791
0.0964654
0.0942434
0.0921081
0.090055
0.0880797
0.086178
0.0843462
0.0825807
0.0808781
0.0792352
0.0776491
0.076117
0.0746362
0.0732043
0.0718188
0.0704775
0.0691784
0.0679194
0.0666986
0.0655143
0.0643646
0.063248
0.062163
0.061108
0.0600816
0.0590825
0.0581095
0.0571612
0.0562367
0.0553349
0.0544548
0.0535956
0.0527567
0.0519375
0.0511377
0.0503575
0.0495974
0.0488584
0.0481425
0.0474526
0.0467933
0.0461714
0.0455964
0.0450819
0.0446469
0.0443181
0.0441318
0.961692
0.892185
0.829085
0.771728
0.719523
0.671944
0.628523
0.588843
0.552532
0.519258
0.488725
0.460668
0.43485
0.411061
0.38911
0.368828
0.350063
0.332677
0.316547
0.301564
0.287627
0.274647
0.262542
0.25124
0.240674
0.230785
0.221518
0.212824
0.204658
0.19698
0.189752
0.182942
0.176517
0.17045
0.164716
0.159291
0.154152
0.149282
0.14466
0.140272
0.1361
0.132132
0.128354
0.124755
0.121322
0.118046
0.114917
0.111926
0.109066
0.106328
0.103705
0.101192
0.0987812
0.0964675
0.0942456
0.0921105
0.0900574
0.0880822
0.0861806
0.0843489
0.0825835
0.080881
0.0792382
0.0776522
0.0761202
0.0746396
0.0732077
0.0718224
0.0704812
0.0691822
0.0679234
0.0667027
0.0655185
0.064369
0.0632526
0.0621677
0.0611129
0.0600867
0.0590878
0.0581149
0.0571668
0.0562425
0.0553409
0.054461
0.053602
0.0527633
0.0519442
0.0511447
0.0503647
0.0496048
0.048866
0.0481502
0.0474605
0.0468013
0.0461795
0.0456046
0.0450901
0.0446552
0.0443264
0.04414
0.961692
0.892185
0.829085
0.771728
0.719523
0.671944
0.628523
0.588843
0.552532
0.519258
0.488725
0.460668
0.43485
0.411061
0.389111
0.368829
0.350063
0.332677
0.316548
0.301564
0.287627
0.274647
0.262543
0.25124
0.240675
0.230786
0.221519
0.212825
0.204659
0.196981
0.189753
0.182942
0.176518
0.170451
0.164717
0.159291
0.154153
0.149283
0.144661
0.140273
0.136102
0.132134
0.128356
0.124756
0.121323
0.118047
0.114918
0.111928
0.109067
0.10633
0.103707
0.101194
0.0987832
0.0964697
0.0942479
0.0921128
0.0900599
0.0880847
0.0861832
0.0843516
0.0825863
0.0808839
0.0792413
0.0776554
0.0761235
0.074643
0.0732112
0.071826
0.070485
0.0691862
0.0679274
0.0667069
0.0655229
0.0643735
0.0632573
0.0621725
0.0611178
0.0600918
0.0590931
0.0581204
0.0571725
0.0562484
0.0553469
0.0544673
0.0536085
0.0527699
0.0519511
0.0511518
0.050372
0.0496123
0.0488737
0.0481581
0.0474685
0.0468095
0.0461878
0.0456129
0.0450985
0.0446636
0.0443348
0.0441484
0.961692
0.892185
0.829084
0.771728
0.719523
0.671944
0.628523
0.588843
0.552532
0.519258
0.488725
0.460668
0.43485
0.411061
0.389111
0.368829
0.350063
0.332677
0.316548
0.301565
0.287628
0.274647
0.262543
0.251241
0.240675
0.230786
0.221519
0.212825
0.204659
0.196981
0.189754
0.182943
0.176518
0.170452
0.164718
0.159292
0.154154
0.149284
0.144662
0.140274
0.136103
0.132135
0.128357
0.124757
0.121325
0.118049
0.11492
0.111929
0.109069
0.106331
0.103709
0.101196
0.0987853
0.0964719
0.0942501
0.0921152
0.0900623
0.0880873
0.0861859
0.0843544
0.0825892
0.0808869
0.0792443
0.0776586
0.0761268
0.0746464
0.0732148
0.0718297
0.0704888
0.0691901
0.0679315
0.0667112
0.0655272
0.0643781
0.0632619
0.0621774
0.0611229
0.060097
0.0590984
0.0581259
0.0571783
0.0562543
0.0553531
0.0544736
0.053615
0.0527767
0.0519581
0.051159
0.0503794
0.0496199
0.0488814
0.048166
0.0474766
0.0468177
0.0461961
0.0456213
0.045107
0.0446721
0.0443433
0.0441569
0.961692
0.892185
0.829084
0.771728
0.719523
0.671944
0.628523
0.588843
0.552532
0.519258
0.488725
0.460668
0.43485
0.411061
0.389111
0.368829
0.350063
0.332677
0.316548
0.301565
0.287628
0.274648
0.262543
0.251241
0.240676
0.230786
0.221519
0.212826
0.20466
0.196982
0.189754
0.182944
0.176519
0.170453
0.164719
0.159293
0.154155
0.149285
0.144664
0.140275
0.136104
0.132136
0.128358
0.124759
0.121326
0.11805
0.114922
0.111931
0.109071
0.106333
0.103711
0.101198
0.0987874
0.0964741
0.0942524
0.0921175
0.0900648
0.0880898
0.0861885
0.0843571
0.082592
0.0808899
0.0792474
0.0776618
0.0761301
0.0746498
0.0732184
0.0718334
0.0704926
0.0691941
0.0679356
0.0667154
0.0655316
0.0643826
0.0632667
0.0621822
0.0611279
0.0601022
0.0591038
0.0581315
0.057184
0.0562603
0.0553592
0.05448
0.0536216
0.0527835
0.0519651
0.0511662
0.0503868
0.0496275
0.0488893
0.048174
0.0474847
0.046826
0.0462045
0.0456299
0.0451156
0.0446807
0.0443519
0.0441655
0.961692
0.892184
0.829084
0.771728
0.719523
0.671944
0.628523
0.588843
0.552532
0.519258
0.488725
0.460668
0.43485
0.411061
0.389111
0.368829
0.350063
0.332677
0.316548
0.301565
0.287628
0.274648
0.262543
0.251242
0.240676
0.230787
0.22152
0.212826
0.20466
0.196982
0.189755
0.182944
0.17652
0.170453
0.164719
0.159294
0.154156
0.149286
0.144665
0.140276
0.136105
0.132137
0.12836
0.12476
0.121328
0.118052
0.114923
0.111933
0.109073
0.106335
0.103713
0.1012
0.0987895
0.0964763
0.0942547
0.0921199
0.0900673
0.0880924
0.0861912
0.0843599
0.0825949
0.0808928
0.0792505
0.077665
0.0761335
0.0746533
0.0732219
0.0718371
0.0704965
0.069198
0.0679397
0.0667197
0.065536
0.0643871
0.0632714
0.0621871
0.0611329
0.0601074
0.0591092
0.0581371
0.0571898
0.0562662
0.0553654
0.0544863
0.0536282
0.0527903
0.0519721
0.0511734
0.0503943
0.0496351
0.0488971
0.048182
0.0474929
0.0468344
0.046213
0.0456384
0.0451242
0.0446893
0.0443605
0.044174
0.961692
0.892184
0.829084
0.771727
0.719523
0.671944
0.628523
0.588843
0.552532
0.519258
0.488725
0.460668
0.43485
0.411061
0.389111
0.368829
0.350064
0.332678
0.316548
0.301565
0.287628
0.274648
0.262544
0.251242
0.240676
0.230787
0.22152
0.212826
0.204661
0.196983
0.189756
0.182945
0.176521
0.170454
0.16472
0.159295
0.154157
0.149287
0.144666
0.140277
0.136106
0.132139
0.128361
0.124762
0.121329
0.118053
0.114925
0.111935
0.109074
0.106337
0.103715
0.101202
0.0987916
0.0964784
0.094257
0.0921223
0.0900697
0.088095
0.0861939
0.0843627
0.0825978
0.0808958
0.0792536
0.0776682
0.0761368
0.0746567
0.0732255
0.0718408
0.0705003
0.069202
0.0679438
0.0667239
0.0655404
0.0643917
0.063276
0.062192
0.0611379
0.0601126
0.0591146
0.0581426
0.0571955
0.0562722
0.0553716
0.0544927
0.0536347
0.052797
0.0519791
0.0511806
0.0504017
0.0496427
0.0489049
0.04819
0.0475011
0.0468427
0.0462214
0.0456469
0.0451327
0.0446979
0.0443691
0.0441826
0.961692
0.892184
0.829084
0.771727
0.719523
0.671944
0.628523
0.588843
0.552532
0.519258
0.488725
0.460668
0.434851
0.411061
0.389111
0.368829
0.350064
0.332678
0.316549
0.301565
0.287629
0.274648
0.262544
0.251242
0.240677
0.230788
0.221521
0.212827
0.204661
0.196983
0.189756
0.182946
0.176521
0.170455
0.164721
0.159296
0.154158
0.149288
0.144667
0.140279
0.136108
0.13214
0.128362
0.124763
0.121331
0.118055
0.114926
0.111936
0.109076
0.106339
0.103717
0.101204
0.0987937
0.0964806
0.0942592
0.0921246
0.0900722
0.0880975
0.0861965
0.0843654
0.0826006
0.0808988
0.0792567
0.0776714
0.0761401
0.0746601
0.073229
0.0718444
0.0705041
0.0692059
0.0679479
0.0667281
0.0655448
0.0643962
0.0632807
0.0621968
0.0611429
0.0601178
0.0591199
0.0581481
0.0572012
0.0562781
0.0553776
0.054499
0.0536412
0.0528038
0.051986
0.0511878
0.050409
0.0496503
0.0489126
0.0481979
0.0475092
0.0468509
0.0462298
0.0456554
0.0451413
0.0447065
0.0443777
0.0441912
0.961692
0.892184
0.829084
0.771727
0.719523
0.671944
0.628523
0.588843
0.552532
0.519258
0.488725
0.460668
0.434851
0.411061
0.389111
0.368829
0.350064
0.332678
0.316549
0.301565
0.287629
0.274649
0.262544
0.251242
0.240677
0.230788
0.221521
0.212827
0.204662
0.196984
0.189757
0.182946
0.176522
0.170456
0.164722
0.159297
0.154159
0.149289
0.144668
0.14028
0.136109
0.132141
0.128364
0.124764
0.121332
0.118056
0.114928
0.111938
0.109078
0.106341
0.103719
0.101206
0.0987958
0.0964827
0.0942615
0.092127
0.0900746
0.0881
0.0861991
0.0843681
0.0826034
0.0809017
0.0792597
0.0776745
0.0761433
0.0746635
0.0732325
0.071848
0.0705078
0.0692098
0.0679519
0.0667322
0.0655491
0.0644006
0.0632853
0.0622015
0.0611479
0.0601229
0.0591252
0.0581536
0.0572069
0.0562839
0.0553837
0.0545052
0.0536477
0.0528104
0.0519929
0.0511948
0.0504163
0.0496578
0.0489203
0.0482058
0.0475172
0.0468591
0.0462381
0.0456638
0.0451498
0.044715
0.0443862
0.0441997
0.961692
0.892184
0.829084
0.771727
0.719523
0.671944
0.628523
0.588843
0.552532
0.519258
0.488725
0.460668
0.434851
0.411061
0.389111
0.368829
0.350064
0.332678
0.316549
0.301566
0.287629
0.274649
0.262545
0.251243
0.240677
0.230788
0.221522
0.212828
0.204662
0.196985
0.189757
0.182947
0.176523
0.170457
0.164723
0.159298
0.15416
0.14929
0.144669
0.140281
0.13611
0.132142
0.128365
0.124766
0.121333
0.118058
0.114929
0.111939
0.10908
0.106342
0.103721
0.101208
0.0987978
0.0964849
0.0942637
0.0921293
0.090077
0.0881025
0.0862017
0.0843708
0.0826062
0.0809046
0.0792627
0.0776776
0.0761465
0.0746668
0.0732359
0.0718516
0.0705115
0.0692136
0.0679558
0.0667363
0.0655533
0.064405
0.0632898
0.0622062
0.0611527
0.0601279
0.0591304
0.058159
0.0572124
0.0562897
0.0553896
0.0545114
0.053654
0.052817
0.0519997
0.0512018
0.0504235
0.0496652
0.0489279
0.0482136
0.0475252
0.0468672
0.0462463
0.0456721
0.0451581
0.0447234
0.0443946
0.0442081
0.961692
0.892184
0.829084
0.771727
0.719523
0.671944
0.628523
0.588843
0.552532
0.519258
0.488725
0.460668
0.434851
0.411062
0.389111
0.368829
0.350064
0.332678
0.316549
0.301566
0.287629
0.274649
0.262545
0.251243
0.240678
0.230789
0.221522
0.212828
0.204663
0.196985
0.189758
0.182948
0.176523
0.170457
0.164723
0.159298
0.154161
0.149291
0.14467
0.140282
0.136111
0.132144
0.128366
0.124767
0.121335
0.118059
0.114931
0.111941
0.109081
0.106344
0.103722
0.10121
0.0987998
0.0964869
0.0942658
0.0921315
0.0900793
0.0881049
0.0862042
0.0843734
0.0826089
0.0809074
0.0792656
0.0776806
0.0761497
0.0746701
0.0732393
0.0718551
0.0705151
0.0692173
0.0679597
0.0667403
0.0655574
0.0644093
0.0632943
0.0622108
0.0611575
0.0601328
0.0591355
0.0581643
0.0572179
0.0562953
0.0553955
0.0545174
0.0536603
0.0528234
0.0520063
0.0512087
0.0504306
0.0496725
0.0489354
0.0482212
0.047533
0.0468752
0.0462544
0.0456803
0.0451664
0.0447317
0.0444029
0.0442163
0.961692
0.892184
0.829084
0.771727
0.719523
0.671944
0.628523
0.588843
0.552532
0.519258
0.488725
0.460668
0.434851
0.411062
0.389111
0.368829
0.350064
0.332678
0.316549
0.301566
0.287629
0.274649
0.262545
0.251243
0.240678
0.230789
0.221522
0.212829
0.204663
0.196986
0.189758
0.182948
0.176524
0.170458
0.164724
0.159299
0.154162
0.149292
0.144671
0.140283
0.136112
0.132145
0.128367
0.124768
0.121336
0.118061
0.114932
0.111943
0.109083
0.106346
0.103724
0.101212
0.0988017
0.0964889
0.0942679
0.0921337
0.0900816
0.0881073
0.0862067
0.084376
0.0826116
0.0809101
0.0792685
0.0776836
0.0761528
0.0746733
0.0732426
0.0718585
0.0705187
0.069221
0.0679635
0.0667443
0.0655615
0.0644135
0.0632986
0.0622153
0.0611621
0.0601376
0.0591405
0.0581694
0.0572233
0.0563009
0.0554012
0.0545233
0.0536664
0.0528297
0.0520128
0.0512154
0.0504375
0.0496796
0.0489427
0.0482287
0.0475407
0.046883
0.0462624
0.0456883
0.0451745
0.0447399
0.0444111
0.0442245
0.961692
0.892184
0.829084
0.771727
0.719523
0.671944
0.628523
0.588843
0.552532
0.519258
0.488725
0.460668
0.434851
0.411062
0.389111
0.368829
0.350064
0.332678
0.316549
0.301566
0.28763
0.27465
0.262545
0.251244
0.240678
0.230789
0.221523
0.212829
0.204664
0.196986
0.189759
0.182949
0.176525
0.170459
0.164725
0.1593
0.154162
0.149292
0.144672
0.140284
0.136113
0.132146
0.128369
0.124769
0.121337
0.118062
0.114934
0.111944
0.109085
0.106348
0.103726
0.101213
0.0988036
0.0964909
0.09427
0.0921358
0.0900838
0.0881096
0.0862091
0.0843785
0.0826142
0.0809128
0.0792713
0.0776865
0.0761558
0.0746764
0.0732458
0.0718618
0.0705221
0.0692246
0.0679672
0.0667481
0.0655655
0.0644176
0.0633029
0.0622197
0.0611667
0.0601423
0.0591454
0.0581745
0.0572285
0.0563063
0.0554068
0.0545291
0.0536724
0.0528359
0.0520192
0.051222
0.0504443
0.0496865
0.0489499
0.0482361
0.0475482
0.0468906
0.0462701
0.0456962
0.0451824
0.0447478
0.044419
0.0442324
0.961692
0.892184
0.829084
0.771727
0.719523
0.671944
0.628523
0.588843
0.552532
0.519258
0.488725
0.460668
0.434851
0.411062
0.389111
0.36883
0.350064
0.332678
0.316549
0.301566
0.28763
0.27465
0.262546
0.251244
0.240679
0.23079
0.221523
0.21283
0.204664
0.196987
0.18976
0.182949
0.176525
0.170459
0.164726
0.159301
0.154163
0.149293
0.144673
0.140285
0.136114
0.132147
0.12837
0.124771
0.121339
0.118063
0.114935
0.111946
0.109086
0.106349
0.103728
0.101215
0.0988055
0.0964928
0.094272
0.0921379
0.090086
0.0881118
0.0862114
0.0843809
0.0826167
0.0809154
0.079274
0.0776893
0.0761587
0.0746794
0.073249
0.0718651
0.0705255
0.0692281
0.0679708
0.0667518
0.0655693
0.0644216
0.063307
0.062224
0.0611711
0.0601469
0.0591501
0.0581794
0.0572335
0.0563115
0.0554122
0.0545347
0.0536782
0.0528419
0.0520254
0.0512284
0.0504509
0.0496933
0.0489568
0.0482432
0.0475555
0.0468981
0.0462777
0.0457039
0.0451902
0.0447556
0.0444268
0.0442401
0.961692
0.892184
0.829084
0.771727
0.719522
0.671944
0.628523
0.588843
0.552532
0.519258
0.488725
0.460668
0.434851
0.411062
0.389111
0.36883
0.350064
0.332679
0.316549
0.301566
0.28763
0.27465
0.262546
0.251244
0.240679
0.23079
0.221524
0.21283
0.204665
0.196987
0.18976
0.18295
0.176526
0.17046
0.164726
0.159302
0.154164
0.149294
0.144674
0.140286
0.136115
0.132148
0.128371
0.124772
0.12134
0.118065
0.114937
0.111947
0.109088
0.106351
0.103729
0.101217
0.0988072
0.0964947
0.0942739
0.0921399
0.0900881
0.088114
0.0862137
0.0843833
0.0826191
0.080918
0.0792766
0.077692
0.0761615
0.0746823
0.073252
0.0718682
0.0705287
0.0692314
0.0679743
0.0667554
0.0655731
0.0644255
0.063311
0.0622282
0.0611754
0.0601514
0.0591547
0.0581841
0.0572385
0.0563166
0.0554175
0.0545401
0.0536838
0.0528477
0.0520314
0.0512346
0.0504572
0.0496999
0.0489636
0.0482501
0.0475626
0.0469053
0.046285
0.0457113
0.0451977
0.0447631
0.0444343
0.0442477
0.961692
0.892184
0.829084
0.771727
0.719522
0.671944
0.628523
0.588843
0.552532
0.519258
0.488725
0.460668
0.434851
0.411062
0.389111
0.36883
0.350064
0.332679
0.31655
0.301567
0.28763
0.27465
0.262546
0.251244
0.240679
0.23079
0.221524
0.21283
0.204665
0.196988
0.189761
0.18295
0.176526
0.170461
0.164727
0.159302
0.154165
0.149295
0.144674
0.140287
0.136116
0.132149
0.128372
0.124773
0.121341
0.118066
0.114938
0.111948
0.109089
0.106352
0.103731
0.101219
0.098809
0.0964965
0.0942758
0.0921419
0.0900901
0.0881161
0.0862159
0.0843855
0.0826215
0.0809204
0.0792791
0.0776947
0.0761642
0.0746851
0.0732549
0.0718713
0.0705319
0.0692347
0.0679777
0.0667589
0.0655767
0.0644292
0.0633149
0.0622321
0.0611795
0.0601556
0.0591591
0.0581887
0.0572432
0.0563215
0.0554225
0.0545454
0.0536892
0.0528533
0.0520372
0.0512406
0.0504634
0.0497063
0.0489701
0.0482568
0.0475694
0.0469123
0.0462922
0.0457185
0.0452049
0.0447704
0.0444416
0.044255
0.961692
0.892184
0.829084
0.771727
0.719522
0.671944
0.628523
0.588843
0.552532
0.519258
0.488725
0.460668
0.434851
0.411062
0.389111
0.36883
0.350064
0.332679
0.31655
0.301567
0.28763
0.27465
0.262546
0.251245
0.240679
0.230791
0.221524
0.212831