/*--------------------------------*- C++ -*----------------------------------*\
  =========                 |
  \\      /  F ield         | OpenFOAM: The Open Source CFD Toolbox
   \\    /   O peration     | Website:  https://openfoam.org
    \\  /    A nd           | Version:  11
     \\/     M anipulation  |
\*---------------------------------------------------------------------------*/
FoamFile
{
    format      ascii;
    class       volScalarField;
    location    "380";
    object      k;
}
// * * * * * * * * * * * * * * * * * * * * * * * * * * * * * * * * * * * * * //

dimensions      [0 2 -2 0 0 0 0];

internalField   nonuniform List<scalar> 
10000
(
0.000939684
0.000835709
0.000745872
0.000668006
0.000600301
0.000541248
0.00048958
0.000444236
0.000404321
0.00036908
0.000337874
0.000310162
0.000285484
0.000263446
0.000243712
0.000225995
0.000210047
0.000195655
0.000182637
0.000170832
0.000160102
0.000150327
0.000141403
0.000133237
0.000125751
0.000118873
0.000112541
0.000106702
0.000101306
9.63115e-05
9.16799e-05
8.73777e-05
8.3375e-05
7.9645e-05
7.61637e-05
7.29098e-05
6.98641e-05
6.70093e-05
6.43299e-05
6.1812e-05
5.94429e-05
5.72114e-05
5.51072e-05
5.31211e-05
5.12447e-05
4.94704e-05
4.77915e-05
4.62018e-05
4.46958e-05
4.32685e-05
4.19154e-05
4.06325e-05
3.94162e-05
3.82633e-05
3.7171e-05
3.61367e-05
3.51582e-05
3.42335e-05
3.33609e-05
3.25388e-05
3.17659e-05
3.10408e-05
3.03625e-05
2.97298e-05
2.91417e-05
2.85971e-05
2.80949e-05
2.7634e-05
2.72132e-05
2.68311e-05
2.64864e-05
2.61773e-05
2.59026e-05
2.56604e-05
2.54492e-05
2.5267e-05
2.51119e-05
2.49819e-05
2.4875e-05
2.47891e-05
2.47221e-05
2.46723e-05
2.46378e-05
2.46166e-05
2.46071e-05
2.46073e-05
2.46156e-05
2.46309e-05
2.46515e-05
2.46761e-05
2.47033e-05
2.47319e-05
2.47607e-05
2.47884e-05
2.4814e-05
2.48365e-05
2.4855e-05
2.48688e-05
2.48774e-05
2.48806e-05
0.000939685
0.000835709
0.000745873
0.000668006
0.000600302
0.000541248
0.00048958
0.000444236
0.000404321
0.00036908
0.000337875
0.000310163
0.000285484
0.000263446
0.000243712
0.000225995
0.000210047
0.000195656
0.000182637
0.000170832
0.000160102
0.000150327
0.000141403
0.000133238
0.000125751
0.000118873
0.000112542
0.000106702
0.000101307
9.6312e-05
9.16804e-05
8.73782e-05
8.33755e-05
7.96455e-05
7.61643e-05
7.29104e-05
6.98647e-05
6.70099e-05
6.43305e-05
6.18126e-05
5.94436e-05
5.72121e-05
5.5108e-05
5.31219e-05
5.12455e-05
4.94712e-05
4.77924e-05
4.62027e-05
4.46968e-05
4.32695e-05
4.19164e-05
4.06336e-05
3.94173e-05
3.82644e-05
3.71722e-05
3.61379e-05
3.51594e-05
3.42348e-05
3.33622e-05
3.25401e-05
3.17672e-05
3.10422e-05
3.03639e-05
2.97312e-05
2.91431e-05
2.85985e-05
2.80963e-05
2.76354e-05
2.72145e-05
2.68324e-05
2.64877e-05
2.61787e-05
2.5904e-05
2.56619e-05
2.54506e-05
2.52683e-05
2.5113e-05
2.49829e-05
2.48757e-05
2.47896e-05
2.47226e-05
2.46727e-05
2.46381e-05
2.46168e-05
2.46073e-05
2.46074e-05
2.46156e-05
2.46309e-05
2.46515e-05
2.46761e-05
2.47033e-05
2.47319e-05
2.47606e-05
2.47883e-05
2.4814e-05
2.48364e-05
2.48549e-05
2.48687e-05
2.48774e-05
2.48806e-05
0.000939685
0.000835709
0.000745873
0.000668007
0.000600302
0.000541249
0.000489581
0.000444237
0.000404322
0.000369081
0.000337876
0.000310164
0.000285485
0.000263447
0.000243713
0.000225996
0.000210048
0.000195657
0.000182638
0.000170833
0.000160103
0.000150328
0.000141404
0.000133239
0.000125752
0.000118874
0.000112543
0.000106703
0.000101308
9.63129e-05
9.16813e-05
8.73792e-05
8.33765e-05
7.96465e-05
7.61653e-05
7.29114e-05
6.98657e-05
6.7011e-05
6.43316e-05
6.18137e-05
5.94447e-05
5.72133e-05
5.51092e-05
5.31231e-05
5.12467e-05
4.94725e-05
4.77937e-05
4.62041e-05
4.46982e-05
4.32709e-05
4.19179e-05
4.0635e-05
3.94188e-05
3.8266e-05
3.71737e-05
3.61395e-05
3.5161e-05
3.42364e-05
3.33638e-05
3.25417e-05
3.17688e-05
3.10438e-05
3.03654e-05
2.97327e-05
2.91445e-05
2.85998e-05
2.80976e-05
2.76366e-05
2.72157e-05
2.68335e-05
2.64886e-05
2.61796e-05
2.59048e-05
2.56627e-05
2.54513e-05
2.52689e-05
2.51134e-05
2.49831e-05
2.48758e-05
2.47896e-05
2.47224e-05
2.46724e-05
2.46377e-05
2.46165e-05
2.46068e-05
2.4607e-05
2.46152e-05
2.46304e-05
2.46511e-05
2.46756e-05
2.47029e-05
2.47315e-05
2.47602e-05
2.4788e-05
2.48136e-05
2.48361e-05
2.48547e-05
2.48685e-05
2.48772e-05
2.48804e-05
0.000939685
0.000835709
0.000745874
0.000668008
0.000600303
0.00054125
0.000489582
0.000444238
0.000404323
0.000369082
0.000337877
0.000310165
0.000285487
0.000263448
0.000243715
0.000225997
0.00021005
0.000195658
0.000182639
0.000170834
0.000160104
0.00015033
0.000141405
0.00013324
0.000125754
0.000118876
0.000112544
0.000106705
0.000101309
9.63143e-05
9.16827e-05
8.73806e-05
8.33779e-05
7.96479e-05
7.61667e-05
7.29129e-05
6.98672e-05
6.70125e-05
6.43332e-05
6.18153e-05
5.94464e-05
5.72149e-05
5.51109e-05
5.31248e-05
5.12485e-05
4.94743e-05
4.77956e-05
4.6206e-05
4.47001e-05
4.32729e-05
4.19199e-05
4.06371e-05
3.94209e-05
3.82681e-05
3.71758e-05
3.61416e-05
3.51631e-05
3.42385e-05
3.33659e-05
3.25438e-05
3.17708e-05
3.10457e-05
3.03673e-05
2.97345e-05
2.91462e-05
2.86014e-05
2.8099e-05
2.76379e-05
2.72168e-05
2.68345e-05
2.64895e-05
2.61804e-05
2.59055e-05
2.56631e-05
2.54516e-05
2.5269e-05
2.51134e-05
2.49829e-05
2.48754e-05
2.47891e-05
2.47218e-05
2.46717e-05
2.46369e-05
2.46156e-05
2.4606e-05
2.46061e-05
2.46143e-05
2.46295e-05
2.46502e-05
2.46748e-05
2.47021e-05
2.47307e-05
2.47596e-05
2.47874e-05
2.48131e-05
2.48357e-05
2.48543e-05
2.48682e-05
2.48769e-05
2.48801e-05
0.000939685
0.00083571
0.000745874
0.000668008
0.000600304
0.000541251
0.000489584
0.00044424
0.000404325
0.000369084
0.000337878
0.000310167
0.000285488
0.00026345
0.000243716
0.000225999
0.000210051
0.00019566
0.000182641
0.000170836
0.000160106
0.000150331
0.000141407
0.000133242
0.000125755
0.000118877
0.000112546
0.000106706
0.000101311
9.6316e-05
9.16845e-05
8.73824e-05
8.33797e-05
7.96498e-05
7.61686e-05
7.29148e-05
6.98692e-05
6.70145e-05
6.43352e-05
6.18174e-05
5.94485e-05
5.72171e-05
5.51131e-05
5.31271e-05
5.12508e-05
4.94767e-05
4.7798e-05
4.62084e-05
4.47026e-05
4.32754e-05
4.19225e-05
4.06397e-05
3.94235e-05
3.82707e-05
3.71785e-05
3.61443e-05
3.51658e-05
3.42411e-05
3.33685e-05
3.25463e-05
3.17733e-05
3.10481e-05
3.03696e-05
2.97366e-05
2.91482e-05
2.86033e-05
2.81007e-05
2.76394e-05
2.72182e-05
2.68356e-05
2.64904e-05
2.61811e-05
2.5906e-05
2.56635e-05
2.54517e-05
2.52689e-05
2.51131e-05
2.49824e-05
2.48747e-05
2.47882e-05
2.47208e-05
2.46706e-05
2.46358e-05
2.46144e-05
2.46047e-05
2.46048e-05
2.4613e-05
2.46283e-05
2.4649e-05
2.46736e-05
2.4701e-05
2.47297e-05
2.47586e-05
2.47865e-05
2.48123e-05
2.4835e-05
2.48537e-05
2.48677e-05
2.48764e-05
2.48796e-05
0.000939685
0.00083571
0.000745875
0.000668009
0.000600305
0.000541252
0.000489585
0.000444241
0.000404326
0.000369086
0.00033788
0.000310169
0.00028549
0.000263452
0.000243718
0.000226001
0.000210053
0.000195662
0.000182643
0.000170838
0.000160108
0.000150333
0.000141409
0.000133244
0.000125757
0.000118879
0.000112548
0.000106709
0.000101313
9.63182e-05
9.16867e-05
8.73846e-05
8.3382e-05
7.96521e-05
7.61709e-05
7.29172e-05
6.98716e-05
6.70169e-05
6.43377e-05
6.182e-05
5.94511e-05
5.72198e-05
5.51158e-05
5.31299e-05
5.12537e-05
4.94796e-05
4.78009e-05
4.62115e-05
4.47057e-05
4.32786e-05
4.19256e-05
4.06429e-05
3.94268e-05
3.8274e-05
3.71818e-05
3.61475e-05
3.51691e-05
3.42444e-05
3.33717e-05
3.25495e-05
3.17763e-05
3.1051e-05
3.03723e-05
2.97393e-05
2.91507e-05
2.86055e-05
2.81028e-05
2.76412e-05
2.72197e-05
2.68369e-05
2.64914e-05
2.61818e-05
2.59065e-05
2.56637e-05
2.54517e-05
2.52686e-05
2.51126e-05
2.49816e-05
2.48738e-05
2.4787e-05
2.47195e-05
2.46692e-05
2.46342e-05
2.46128e-05
2.46031e-05
2.46031e-05
2.46113e-05
2.46267e-05
2.46474e-05
2.46722e-05
2.46996e-05
2.47284e-05
2.47574e-05
2.47854e-05
2.48114e-05
2.48342e-05
2.4853e-05
2.4867e-05
2.48758e-05
2.4879e-05
0.000939685
0.00083571
0.000745875
0.00066801
0.000600306
0.000541254
0.000489587
0.000444243
0.000404328
0.000369087
0.000337882
0.000310171
0.000285492
0.000263454
0.00024372
0.000226003
0.000210055
0.000195664
0.000182645
0.00017084
0.00016011
0.000150336
0.000141411
0.000133246
0.00012576
0.000118882
0.00011255
0.000106711
0.000101315
9.63207e-05
9.16892e-05
8.73872e-05
8.33846e-05
7.96548e-05
7.61737e-05
7.292e-05
6.98745e-05
6.70199e-05
6.43407e-05
6.1823e-05
5.94542e-05
5.7223e-05
5.51191e-05
5.31332e-05
5.12571e-05
4.94831e-05
4.78045e-05
4.62151e-05
4.47093e-05
4.32823e-05
4.19294e-05
4.06467e-05
3.94306e-05
3.82779e-05
3.71856e-05
3.61514e-05
3.51729e-05
3.42481e-05
3.33754e-05
3.25531e-05
3.17799e-05
3.10544e-05
3.03756e-05
2.97423e-05
2.91535e-05
2.86081e-05
2.8105e-05
2.76432e-05
2.72214e-05
2.68383e-05
2.64925e-05
2.61825e-05
2.59069e-05
2.56638e-05
2.54515e-05
2.52681e-05
2.51118e-05
2.49806e-05
2.48725e-05
2.47856e-05
2.47179e-05
2.46674e-05
2.46324e-05
2.46108e-05
2.46011e-05
2.46011e-05
2.46094e-05
2.46247e-05
2.46455e-05
2.46704e-05
2.46979e-05
2.47269e-05
2.4756e-05
2.47841e-05
2.48102e-05
2.48331e-05
2.4852e-05
2.48662e-05
2.4875e-05
2.48782e-05
0.000939685
0.000835711
0.000745876
0.000668011
0.000600307
0.000541255
0.000489588
0.000444245
0.00040433
0.000369089
0.000337884
0.000310173
0.000285495
0.000263456
0.000243723
0.000226006
0.000210058
0.000195667
0.000182648
0.000170843
0.000160113
0.000150338
0.000141414
0.000133249
0.000125762
0.000118885
0.000112553
0.000106714
0.000101318
9.63236e-05
9.16921e-05
8.73901e-05
8.33876e-05
7.96578e-05
7.61768e-05
7.29232e-05
6.98777e-05
6.70232e-05
6.43441e-05
6.18265e-05
5.94578e-05
5.72266e-05
5.51228e-05
5.3137e-05
5.12609e-05
4.9487e-05
4.78085e-05
4.62192e-05
4.47135e-05
4.32865e-05
4.19337e-05
4.06511e-05
3.9435e-05
3.82823e-05
3.71901e-05
3.61558e-05
3.51773e-05
3.42525e-05
3.33797e-05
3.25573e-05
3.17839e-05
3.10582e-05
3.03792e-05
2.97457e-05
2.91566e-05
2.8611e-05
2.81076e-05
2.76454e-05
2.72233e-05
2.68398e-05
2.64936e-05
2.61833e-05
2.59073e-05
2.56638e-05
2.54511e-05
2.52674e-05
2.51108e-05
2.49793e-05
2.4871e-05
2.47838e-05
2.47159e-05
2.46653e-05
2.46301e-05
2.46085e-05
2.45987e-05
2.45988e-05
2.4607e-05
2.46224e-05
2.46433e-05
2.46683e-05
2.46959e-05
2.4725e-05
2.47543e-05
2.47826e-05
2.48088e-05
2.48319e-05
2.48509e-05
2.48651e-05
2.4874e-05
2.48772e-05
0.000939685
0.000835711
0.000745876
0.000668011
0.000600308
0.000541256
0.00048959
0.000444246
0.000404332
0.000369091
0.000337886
0.000310175
0.000285497
0.000263459
0.000243725
0.000226008
0.000210061
0.000195669
0.000182651
0.000170846
0.000160116
0.000150341
0.000141417
0.000133252
0.000125765
0.000118888
0.000112556
0.000106717
0.000101321
9.63268e-05
9.16954e-05
8.73934e-05
8.3391e-05
7.96613e-05
7.61803e-05
7.29268e-05
6.98814e-05
6.70269e-05
6.43479e-05
6.18304e-05
5.94618e-05
5.72307e-05
5.5127e-05
5.31413e-05
5.12653e-05
4.94915e-05
4.78131e-05
4.62238e-05
4.47182e-05
4.32913e-05
4.19386e-05
4.0656e-05
3.944e-05
3.82873e-05
3.71951e-05
3.61608e-05
3.51822e-05
3.42574e-05
3.33844e-05
3.25619e-05
3.17884e-05
3.10626e-05
3.03833e-05
2.97495e-05
2.91602e-05
2.86142e-05
2.81105e-05
2.76479e-05
2.72253e-05
2.68414e-05
2.64948e-05
2.61841e-05
2.59076e-05
2.56637e-05
2.54507e-05
2.52666e-05
2.51096e-05
2.49778e-05
2.48692e-05
2.47818e-05
2.47137e-05
2.46629e-05
2.46276e-05
2.46059e-05
2.45961e-05
2.45961e-05
2.46044e-05
2.46199e-05
2.46408e-05
2.46659e-05
2.46937e-05
2.47229e-05
2.47524e-05
2.47808e-05
2.48072e-05
2.48304e-05
2.48495e-05
2.48639e-05
2.48728e-05
2.4876e-05
0.000939685
0.000835711
0.000745877
0.000668012
0.000600309
0.000541257
0.000489591
0.000444248
0.000404334
0.000369093
0.000337889
0.000310178
0.000285499
0.000263462
0.000243728
0.000226011
0.000210063
0.000195672
0.000182654
0.000170848
0.000160119
0.000150344
0.00014142
0.000133255
0.000125769
0.000118891
0.00011256
0.00010672
0.000101325
9.63303e-05
9.16989e-05
8.73971e-05
8.33947e-05
7.9665e-05
7.61842e-05
7.29307e-05
6.98854e-05
6.70311e-05
6.43521e-05
6.18347e-05
5.94662e-05
5.72352e-05
5.51316e-05
5.3146e-05
5.12702e-05
4.94965e-05
4.78181e-05
4.6229e-05
4.47235e-05
4.32966e-05
4.1944e-05
4.06614e-05
3.94455e-05
3.82928e-05
3.72006e-05
3.61663e-05
3.51877e-05
3.42627e-05
3.33897e-05
3.2567e-05
3.17933e-05
3.10673e-05
3.03878e-05
2.97537e-05
2.9164e-05
2.86177e-05
2.81136e-05
2.76506e-05
2.72276e-05
2.68432e-05
2.64962e-05
2.61849e-05
2.5908e-05
2.56637e-05
2.54502e-05
2.52657e-05
2.51083e-05
2.49761e-05
2.48672e-05
2.47795e-05
2.47111e-05
2.46602e-05
2.46248e-05
2.4603e-05
2.45931e-05
2.45931e-05
2.46014e-05
2.4617e-05
2.4638e-05
2.46632e-05
2.46912e-05
2.47206e-05
2.47502e-05
2.47788e-05
2.48053e-05
2.48287e-05
2.4848e-05
2.48624e-05
2.48714e-05
2.48746e-05
0.000939685
0.000835711
0.000745877
0.000668013
0.00060031
0.000541258
0.000489592
0.000444249
0.000404335
0.000369095
0.000337891
0.00031018
0.000285502
0.000263464
0.000243731
0.000226014
0.000210066
0.000195675
0.000182657
0.000170852
0.000160122
0.000150347
0.000141423
0.000133258
0.000125772
0.000118894
0.000112563
0.000106724
0.000101328
9.6334e-05
9.17028e-05
8.7401e-05
8.33987e-05
7.96691e-05
7.61884e-05
7.2935e-05
6.98898e-05
6.70355e-05
6.43567e-05
6.18394e-05
5.9471e-05
5.72402e-05
5.51366e-05
5.31512e-05
5.12754e-05
4.95019e-05
4.78236e-05
4.62346e-05
4.47292e-05
4.33024e-05
4.19498e-05
4.06674e-05
3.94514e-05
3.82988e-05
3.72066e-05
3.61723e-05
3.51936e-05
3.42686e-05
3.33955e-05
3.25726e-05
3.17987e-05
3.10724e-05
3.03927e-05
2.97583e-05
2.91682e-05
2.86215e-05
2.81169e-05
2.76535e-05
2.723e-05
2.68451e-05
2.64976e-05
2.61858e-05
2.59084e-05
2.56635e-05
2.54496e-05
2.52646e-05
2.51068e-05
2.49742e-05
2.48649e-05
2.4777e-05
2.47084e-05
2.46572e-05
2.46216e-05
2.45998e-05
2.45898e-05
2.45898e-05
2.45982e-05
2.46138e-05
2.4635e-05
2.46603e-05
2.46884e-05
2.47179e-05
2.47477e-05
2.47765e-05
2.48033e-05
2.48268e-05
2.48462e-05
2.48608e-05
2.48698e-05
2.4873e-05
0.000939685
0.000835712
0.000745877
0.000668013
0.000600311
0.000541259
0.000489594
0.000444251
0.000404337
0.000369097
0.000337893
0.000310182
0.000285504
0.000263467
0.000243733
0.000226017
0.000210069
0.000195678
0.00018266
0.000170855
0.000160125
0.000150351
0.000141427
0.000133262
0.000125776
0.000118898
0.000112567
0.000106728
0.000101332
9.6338e-05
9.17068e-05
8.74052e-05
8.3403e-05
7.96735e-05
7.61928e-05
7.29396e-05
6.98945e-05
6.70404e-05
6.43617e-05
6.18445e-05
5.94762e-05
5.72455e-05
5.51421e-05
5.31568e-05
5.12811e-05
4.95077e-05
4.78296e-05
4.62406e-05
4.47353e-05
4.33087e-05
4.19562e-05
4.06738e-05
3.94579e-05
3.83053e-05
3.72131e-05
3.61788e-05
3.52e-05
3.42749e-05
3.34016e-05
3.25786e-05
3.18045e-05
3.1078e-05
3.03979e-05
2.97632e-05
2.91727e-05
2.86256e-05
2.81205e-05
2.76566e-05
2.72326e-05
2.68472e-05
2.64991e-05
2.61868e-05
2.59088e-05
2.56634e-05
2.54489e-05
2.52635e-05
2.51052e-05
2.49722e-05
2.48626e-05
2.47743e-05
2.47054e-05
2.4654e-05
2.46183e-05
2.45963e-05
2.45863e-05
2.45863e-05
2.45946e-05
2.46103e-05
2.46316e-05
2.46571e-05
2.46853e-05
2.4715e-05
2.4745e-05
2.4774e-05
2.48009e-05
2.48246e-05
2.48442e-05
2.48589e-05
2.4868e-05
2.48712e-05
0.000939685
0.000835712
0.000745878
0.000668014
0.000600312
0.00054126
0.000489595
0.000444252
0.000404339
0.000369099
0.000337895
0.000310184
0.000285507
0.000263469
0.000243736
0.000226019
0.000210072
0.000195681
0.000182663
0.000170858
0.000160129
0.000150354
0.00014143
0.000133265
0.000125779
0.000118902
0.000112571
0.000106732
0.000101336
9.63422e-05
9.17112e-05
8.74096e-05
8.34075e-05
7.96781e-05
7.61976e-05
7.29444e-05
6.98995e-05
6.70455e-05
6.43669e-05
6.18499e-05
5.94817e-05
5.72511e-05
5.51479e-05
5.31627e-05
5.12872e-05
4.95139e-05
4.78359e-05
4.62471e-05
4.47419e-05
4.33154e-05
4.19629e-05
4.06806e-05
3.94648e-05
3.83122e-05
3.722e-05
3.61856e-05
3.52069e-05
3.42816e-05
3.34082e-05
3.2585e-05
3.18107e-05
3.10839e-05
3.04035e-05
2.97684e-05
2.91775e-05
2.86299e-05
2.81244e-05
2.76599e-05
2.72353e-05
2.68494e-05
2.65007e-05
2.61878e-05
2.59092e-05
2.56632e-05
2.54482e-05
2.52622e-05
2.51035e-05
2.49701e-05
2.486e-05
2.47714e-05
2.47022e-05
2.46506e-05
2.46147e-05
2.45926e-05
2.45825e-05
2.45825e-05
2.45909e-05
2.46066e-05
2.4628e-05
2.46536e-05
2.4682e-05
2.47119e-05
2.47421e-05
2.47713e-05
2.47984e-05
2.48223e-05
2.4842e-05
2.48568e-05
2.4866e-05
2.48692e-05
0.000939685
0.000835712
0.000745878
0.000668014
0.000600312
0.000541261
0.000489596
0.000444254
0.00040434
0.000369101
0.000337897
0.000310187
0.000285509
0.000263472
0.000243739
0.000226022
0.000210075
0.000195684
0.000182666
0.000170862
0.000160132
0.000150358
0.000141434
0.000133269
0.000125783
0.000118906
0.000112575
0.000106736
0.000101341
9.63466e-05
9.17157e-05
8.74142e-05
8.34122e-05
7.9683e-05
7.62026e-05
7.29496e-05
6.99048e-05
6.70509e-05
6.43725e-05
6.18556e-05
5.94876e-05
5.72571e-05
5.5154e-05
5.3169e-05
5.12936e-05
4.95205e-05
4.78426e-05
4.62539e-05
4.47489e-05
4.33224e-05
4.19701e-05
4.06879e-05
3.94721e-05
3.83195e-05
3.72273e-05
3.61929e-05
3.52141e-05
3.42888e-05
3.34152e-05
3.25918e-05
3.18172e-05
3.10901e-05
3.04094e-05
2.97739e-05
2.91826e-05
2.86345e-05
2.81285e-05
2.76634e-05
2.72383e-05
2.68517e-05
2.65024e-05
2.61889e-05
2.59097e-05
2.56631e-05
2.54475e-05
2.52609e-05
2.51017e-05
2.49678e-05
2.48573e-05
2.47683e-05
2.46988e-05
2.4647e-05
2.46109e-05
2.45886e-05
2.45785e-05
2.45784e-05
2.45868e-05
2.46027e-05
2.46241e-05
2.46499e-05
2.46784e-05
2.47086e-05
2.47389e-05
2.47683e-05
2.47956e-05
2.48197e-05
2.48395e-05
2.48544e-05
2.48637e-05
2.4867e-05
0.000939685
0.000835712
0.000745878
0.000668015
0.000600313
0.000541262
0.000489597
0.000444255
0.000404342
0.000369103
0.000337899
0.000310189
0.000285512
0.000263474
0.000243742
0.000226025
0.000210078
0.000195688
0.00018267
0.000170865
0.000160136
0.000150361
0.000141438
0.000133273
0.000125787
0.00011891
0.000112579
0.00010674
0.000101345
9.63512e-05
9.17204e-05
8.7419e-05
8.34172e-05
7.96881e-05
7.62078e-05
7.29549e-05
6.99103e-05
6.70566e-05
6.43783e-05
6.18615e-05
5.94937e-05
5.72634e-05
5.51605e-05
5.31756e-05
5.13004e-05
4.95274e-05
4.78497e-05
4.62611e-05
4.47562e-05
4.33299e-05
4.19776e-05
4.06955e-05
3.94797e-05
3.83272e-05
3.7235e-05
3.62006e-05
3.52217e-05
3.42962e-05
3.34225e-05
3.25989e-05
3.18241e-05
3.10967e-05
3.04156e-05
2.97797e-05
2.91879e-05
2.86393e-05
2.81327e-05
2.76671e-05
2.72413e-05
2.68541e-05
2.65042e-05
2.619e-05
2.59101e-05
2.56629e-05
2.54467e-05
2.52596e-05
2.50998e-05
2.49654e-05
2.48545e-05
2.47651e-05
2.46953e-05
2.46432e-05
2.46069e-05
2.45845e-05
2.45742e-05
2.45742e-05
2.45826e-05
2.45985e-05
2.46201e-05
2.46459e-05
2.46747e-05
2.4705e-05
2.47355e-05
2.47651e-05
2.47926e-05
2.48168e-05
2.48369e-05
2.48519e-05
2.48613e-05
2.48646e-05
0.000939685
0.000835712
0.000745879
0.000668015
0.000600314
0.000541263
0.000489598
0.000444256
0.000404343
0.000369105
0.000337901
0.000310191
0.000285514
0.000263477
0.000243744
0.000226028
0.000210081
0.000195691
0.000182673
0.000170868
0.000160139
0.000150365
0.000141442
0.000133277
0.000125791
0.000118914
0.000112583
0.000106745
0.00010135
9.63559e-05
9.17252e-05
8.7424e-05
8.34223e-05
7.96934e-05
7.62132e-05
7.29605e-05
6.9916e-05
6.70624e-05
6.43843e-05
6.18677e-05
5.95001e-05
5.727e-05
5.51672e-05
5.31824e-05
5.13074e-05
4.95346e-05
4.7857e-05
4.62686e-05
4.47638e-05
4.33376e-05
4.19855e-05
4.07034e-05
3.94877e-05
3.83352e-05
3.7243e-05
3.62086e-05
3.52296e-05
3.4304e-05
3.34301e-05
3.26063e-05
3.18312e-05
3.11035e-05
3.0422e-05
2.97857e-05
2.91935e-05
2.86443e-05
2.81372e-05
2.7671e-05
2.72445e-05
2.68567e-05
2.6506e-05
2.61912e-05
2.59107e-05
2.56628e-05
2.54459e-05
2.52582e-05
2.50979e-05
2.4963e-05
2.48516e-05
2.47618e-05
2.46917e-05
2.46393e-05
2.46027e-05
2.45802e-05
2.45698e-05
2.45697e-05
2.45782e-05
2.45941e-05
2.46158e-05
2.46418e-05
2.46707e-05
2.47011e-05
2.47319e-05
2.47617e-05
2.47894e-05
2.48138e-05
2.4834e-05
2.48491e-05
2.48586e-05
2.48619e-05
0.000939686
0.000835712
0.000745879
0.000668016
0.000600314
0.000541264
0.000489599
0.000444258
0.000404345
0.000369106
0.000337903
0.000310193
0.000285516
0.000263479
0.000243747
0.000226031
0.000210084
0.000195694
0.000182676
0.000170872
0.000160143
0.000150369
0.000141445
0.000133281
0.000125795
0.000118918
0.000112588
0.000106749
0.000101354
9.63607e-05
9.17302e-05
8.74291e-05
8.34276e-05
7.96988e-05
7.62188e-05
7.29662e-05
6.99219e-05
6.70685e-05
6.43906e-05
6.18742e-05
5.95067e-05
5.72767e-05
5.51741e-05
5.31896e-05
5.13147e-05
4.9542e-05
4.78646e-05
4.62764e-05
4.47717e-05
4.33456e-05
4.19936e-05
4.07116e-05
3.9496e-05
3.83435e-05
3.72513e-05
3.62168e-05
3.52377e-05
3.43121e-05
3.3438e-05
3.2614e-05
3.18386e-05
3.11106e-05
3.04287e-05
2.9792e-05
2.91992e-05
2.86495e-05
2.81418e-05
2.7675e-05
2.72479e-05
2.68593e-05
2.6508e-05
2.61925e-05
2.59112e-05
2.56627e-05
2.54451e-05
2.52568e-05
2.50959e-05
2.49605e-05
2.48486e-05
2.47584e-05
2.46879e-05
2.46352e-05
2.45984e-05
2.45757e-05
2.45653e-05
2.45651e-05
2.45735e-05
2.45895e-05
2.46113e-05
2.46374e-05
2.46665e-05
2.46971e-05
2.47281e-05
2.47581e-05
2.47859e-05
2.48105e-05
2.48309e-05
2.48462e-05
2.48557e-05
2.48591e-05
0.000939686
0.000835712
0.000745879
0.000668016
0.000600315
0.000541265
0.0004896
0.000444259
0.000404346
0.000369108
0.000337905
0.000310195
0.000285518
0.000263482
0.000243749
0.000226034
0.000210087
0.000195697
0.000182679
0.000170875
0.000160146
0.000150373
0.000141449
0.000133285
0.0001258
0.000118923
0.000112592
0.000106754
0.000101359
9.63656e-05
9.17352e-05
8.74343e-05
8.3433e-05
7.97043e-05
7.62245e-05
7.29721e-05
6.9928e-05
6.70747e-05
6.4397e-05
6.18808e-05
5.95134e-05
5.72837e-05
5.51813e-05
5.31969e-05
5.13222e-05
4.95497e-05
4.78725e-05
4.62844e-05
4.47798e-05
4.33539e-05
4.2002e-05
4.072e-05
3.95045e-05
3.83521e-05
3.72599e-05
3.62253e-05
3.52462e-05
3.43204e-05
3.34461e-05
3.26219e-05
3.18462e-05
3.11178e-05
3.04356e-05
2.97984e-05
2.92052e-05
2.86549e-05
2.81466e-05
2.76791e-05
2.72513e-05
2.68621e-05
2.651e-05
2.61938e-05
2.59118e-05
2.56626e-05
2.54444e-05
2.52554e-05
2.50939e-05
2.49579e-05
2.48455e-05
2.47549e-05
2.4684e-05
2.4631e-05
2.4594e-05
2.45711e-05
2.45605e-05
2.45603e-05
2.45687e-05
2.45848e-05
2.46066e-05
2.46329e-05
2.46621e-05
2.46929e-05
2.47241e-05
2.47543e-05
2.47823e-05
2.48071e-05
2.48276e-05
2.4843e-05
2.48527e-05
2.48561e-05
0.000939686
0.000835713
0.000745879
0.000668016
0.000600315
0.000541265
0.000489601
0.00044426
0.000404348
0.000369109
0.000337906
0.000310197
0.00028552
0.000263484
0.000243752
0.000226036
0.00021009
0.0001957
0.000182683
0.000170879
0.00016015
0.000150376
0.000141453
0.000133289
0.000125804
0.000118927
0.000112597
0.000106758
0.000101364
9.63706e-05
9.17404e-05
8.74396e-05
8.34384e-05
7.971e-05
7.62303e-05
7.29781e-05
6.99341e-05
6.70811e-05
6.44036e-05
6.18875e-05
5.95204e-05
5.72908e-05
5.51886e-05
5.32044e-05
5.13299e-05
4.95575e-05
4.78805e-05
4.62925e-05
4.47882e-05
4.33623e-05
4.20105e-05
4.07287e-05
3.95132e-05
3.83608e-05
3.72686e-05
3.6234e-05
3.52548e-05
3.43289e-05
3.34545e-05
3.263e-05
3.1854e-05
3.11253e-05
3.04427e-05
2.9805e-05
2.92112e-05
2.86604e-05
2.81515e-05
2.76833e-05
2.72549e-05
2.68649e-05
2.65121e-05
2.61951e-05
2.59125e-05
2.56625e-05
2.54436e-05
2.5254e-05
2.50918e-05
2.49553e-05
2.48424e-05
2.47513e-05
2.46801e-05
2.46268e-05
2.45895e-05
2.45664e-05
2.45557e-05
2.45554e-05
2.45638e-05
2.45799e-05
2.46018e-05
2.46282e-05
2.46576e-05
2.46886e-05
2.47199e-05
2.47503e-05
2.47785e-05
2.48034e-05
2.48241e-05
2.48397e-05
2.48494e-05
2.48529e-05
0.000939686
0.000835713
0.00074588
0.000668017
0.000600316
0.000541266
0.000489602
0.000444261
0.000404349
0.000369111
0.000337908
0.000310199
0.000285522
0.000263486
0.000243754
0.000226039
0.000210093
0.000195703
0.000182686
0.000170882
0.000160153
0.00015038
0.000141457
0.000133293
0.000125808
0.000118931
0.000112601
0.000106763
0.000101369
9.63756e-05
9.17456e-05
8.7445e-05
8.3444e-05
7.97157e-05
7.62363e-05
7.29842e-05
6.99404e-05
6.70876e-05
6.44102e-05
6.18944e-05
5.95274e-05
5.72981e-05
5.5196e-05
5.3212e-05
5.13377e-05
4.95656e-05
4.78887e-05
4.63009e-05
4.47967e-05
4.3371e-05
4.20193e-05
4.07375e-05
3.95221e-05
3.83697e-05
3.72775e-05
3.62429e-05
3.52636e-05
3.43375e-05
3.34629e-05
3.26382e-05
3.1862e-05
3.11329e-05
3.04498e-05
2.98117e-05
2.92174e-05
2.8666e-05
2.81565e-05
2.76877e-05
2.72585e-05
2.68678e-05
2.65143e-05
2.61966e-05
2.59131e-05
2.56625e-05
2.54429e-05
2.52526e-05
2.50898e-05
2.49527e-05
2.48393e-05
2.47477e-05
2.46761e-05
2.46224e-05
2.45849e-05
2.45616e-05
2.45507e-05
2.45504e-05
2.45588e-05
2.45749e-05
2.45969e-05
2.46234e-05
2.46529e-05
2.4684e-05
2.47155e-05
2.47461e-05
2.47745e-05
2.47996e-05
2.48205e-05
2.48361e-05
2.4846e-05
2.48495e-05
0.000939686
0.000835713
0.00074588
0.000668017
0.000600316
0.000541267
0.000489603
0.000444262
0.00040435
0.000369112
0.000337909
0.0003102
0.000285524
0.000263488
0.000243757
0.000226041
0.000210096
0.000195706
0.000182689
0.000170885
0.000160157
0.000150384
0.000141461
0.000133297
0.000125812
0.000118936
0.000112606
0.000106768
0.000101374
9.63807e-05
9.17508e-05
8.74504e-05
8.34496e-05
7.97215e-05
7.62422e-05
7.29904e-05
6.99468e-05
6.70941e-05
6.4417e-05
6.19013e-05
5.95346e-05
5.73054e-05
5.52036e-05
5.32198e-05
5.13457e-05
4.95737e-05
4.7897e-05
4.63094e-05
4.48053e-05
4.33797e-05
4.20282e-05
4.07465e-05
3.95311e-05
3.83788e-05
3.72866e-05
3.62519e-05
3.52725e-05
3.43463e-05
3.34715e-05
3.26466e-05
3.187e-05
3.11406e-05
3.04571e-05
2.98185e-05
2.92237e-05
2.86718e-05
2.81616e-05
2.76921e-05
2.72622e-05
2.68708e-05
2.65165e-05
2.6198e-05
2.59139e-05
2.56625e-05
2.54421e-05
2.52512e-05
2.50877e-05
2.495e-05
2.48361e-05
2.47441e-05
2.4672e-05
2.4618e-05
2.45802e-05
2.45567e-05
2.45457e-05
2.45453e-05
2.45537e-05
2.45698e-05
2.45919e-05
2.46184e-05
2.46481e-05
2.46794e-05
2.47111e-05
2.47418e-05
2.47704e-05
2.47957e-05
2.48167e-05
2.48325e-05
2.48424e-05
2.48459e-05
0.000939686
0.000835713
0.00074588
0.000668017
0.000600317
0.000541267
0.000489603
0.000444263
0.000404351
0.000369113
0.000337911
0.000310202
0.000285526
0.00026349
0.000243759
0.000226044
0.000210098
0.000195709
0.000182692
0.000170888
0.00016016
0.000150387
0.000141465
0.000133301
0.000125816
0.00011894
0.00011261
0.000106773
0.000101379
9.63857e-05
9.1756e-05
8.74558e-05
8.34552e-05
7.97273e-05
7.62482e-05
7.29966e-05
6.99532e-05
6.71007e-05
6.44238e-05
6.19083e-05
5.95418e-05
5.73129e-05
5.52112e-05
5.32276e-05
5.13537e-05
4.95819e-05
4.79054e-05
4.63179e-05
4.4814e-05
4.33886e-05
4.20371e-05
4.07556e-05
3.95403e-05
3.8388e-05
3.72957e-05
3.6261e-05
3.52815e-05
3.43552e-05
3.34802e-05
3.2655e-05
3.18782e-05
3.11484e-05
3.04645e-05
2.98254e-05
2.92301e-05
2.86776e-05
2.81667e-05
2.76966e-05
2.7266e-05
2.68738e-05
2.65188e-05
2.61996e-05
2.59146e-05
2.56625e-05
2.54414e-05
2.52498e-05
2.50857e-05
2.49474e-05
2.48329e-05
2.47404e-05
2.46679e-05
2.46136e-05
2.45755e-05
2.45518e-05
2.45406e-05
2.45402e-05
2.45484e-05
2.45646e-05
2.45867e-05
2.46134e-05
2.46432e-05
2.46746e-05
2.47065e-05
2.47374e-05
2.47661e-05
2.47916e-05
2.48127e-05
2.48286e-05
2.48386e-05
2.48422e-05
0.000939686
0.000835713
0.00074588
0.000668018
0.000600317
0.000541268
0.000489604
0.000444264
0.000404352
0.000369115
0.000337912
0.000310204
0.000285528
0.000263493
0.000243761
0.000226046
0.000210101
0.000195712
0.000182695
0.000170892
0.000160164
0.000150391
0.000141468
0.000133305
0.00012582
0.000118944
0.000112615
0.000106777
0.000101383
9.63907e-05
9.17612e-05
8.74612e-05
8.34608e-05
7.97331e-05
7.62542e-05
7.30028e-05
6.99596e-05
6.71074e-05
6.44306e-05
6.19154e-05
5.95491e-05
5.73203e-05
5.52189e-05
5.32355e-05
5.13618e-05
4.95902e-05
4.79138e-05
4.63265e-05
4.48228e-05
4.33975e-05
4.20461e-05
4.07647e-05
3.95494e-05
3.83972e-05
3.73049e-05
3.62702e-05
3.52906e-05
3.43641e-05
3.3489e-05
3.26635e-05
3.18864e-05
3.11563e-05
3.0472e-05
2.98324e-05
2.92365e-05
2.86834e-05
2.81719e-05
2.77011e-05
2.72698e-05
2.68769e-05
2.65211e-05
2.62011e-05
2.59154e-05
2.56625e-05
2.54407e-05
2.52484e-05
2.50837e-05
2.49448e-05
2.48298e-05
2.47368e-05
2.46639e-05
2.46092e-05
2.45708e-05
2.45468e-05
2.45355e-05
2.4535e-05
2.45432e-05
2.45593e-05
2.45815e-05
2.46083e-05
2.46382e-05
2.46698e-05
2.47018e-05
2.47328e-05
2.47618e-05
2.47874e-05
2.48086e-05
2.48247e-05
2.48347e-05
2.48383e-05
0.000939686
0.000835713
0.00074588
0.000668018
0.000600317
0.000541268
0.000489605
0.000444264
0.000404353
0.000369116
0.000337914
0.000310205
0.00028553
0.000263494
0.000243763
0.000226049
0.000210103
0.000195714
0.000182698
0.000170895
0.000160167
0.000150394
0.000141472
0.000133309
0.000125824
0.000118948
0.000112619
0.000106782
0.000101388
9.63957e-05
9.17664e-05
8.74666e-05
8.34664e-05
7.97389e-05
7.62602e-05
7.3009e-05
6.9966e-05
6.7114e-05
6.44375e-05
6.19224e-05
5.95563e-05
5.73278e-05
5.52266e-05
5.32434e-05
5.13699e-05
4.95984e-05
4.79223e-05
4.63352e-05
4.48315e-05
4.34064e-05
4.20552e-05
4.07738e-05
3.95586e-05
3.84064e-05
3.73142e-05
3.62794e-05
3.52997e-05
3.43731e-05
3.34977e-05
3.26721e-05
3.18946e-05
3.11641e-05
3.04794e-05
2.98394e-05
2.9243e-05
2.86893e-05
2.81772e-05
2.77057e-05
2.72737e-05
2.688e-05
2.65235e-05
2.62027e-05
2.59163e-05
2.56626e-05
2.54401e-05
2.52471e-05
2.50817e-05
2.49422e-05
2.48266e-05
2.47331e-05
2.46598e-05
2.46047e-05
2.45661e-05
2.45419e-05
2.45304e-05
2.45297e-05
2.45379e-05
2.4554e-05
2.45763e-05
2.46031e-05
2.46331e-05
2.46648e-05
2.4697e-05
2.47282e-05
2.47573e-05
2.4783e-05
2.48044e-05
2.48206e-05
2.48308e-05
2.48344e-05
0.000939686
0.000835713
0.000745881
0.000668018
0.000600318
0.000541269
0.000489605
0.000444265
0.000404354
0.000369117
0.000337915
0.000310207
0.000285532
0.000263496
0.000243765
0.000226051
0.000210106
0.000195717
0.000182701
0.000170898
0.00016017
0.000150398
0.000141476
0.000133313
0.000125828
0.000118953
0.000112623
0.000106786
0.000101393
9.64007e-05
9.17716e-05
8.7472e-05
8.34719e-05
7.97446e-05
7.62662e-05
7.30152e-05
6.99724e-05
6.71206e-05
6.44443e-05
6.19295e-05
5.95636e-05
5.73352e-05
5.52342e-05
5.32512e-05
5.13779e-05
4.96067e-05
4.79307e-05
4.63438e-05
4.48403e-05
4.34153e-05
4.20642e-05
4.07829e-05
3.95678e-05
3.84156e-05
3.73233e-05
3.62885e-05
3.53087e-05
3.4382e-05
3.35065e-05
3.26806e-05
3.19028e-05
3.1172e-05
3.04868e-05
2.98463e-05
2.92494e-05