/*--------------------------------*- C++ -*----------------------------------*\
  =========                 |
  \\      /  F ield         | OpenFOAM: The Open Source CFD Toolbox
   \\    /   O peration     | Website:  https://openfoam.org
    \\  /    A nd           | Version:  11
     \\/     M anipulation  |
\*---------------------------------------------------------------------------*/
FoamFile
{
    format      ascii;
    class       volScalarField;
    location    "90";
    object      k;
}
// * * * * * * * * * * * * * * * * * * * * * * * * * * * * * * * * * * * * * //

dimensions      [0 2 -2 0 0 0 0];

internalField   nonuniform List<scalar> 
10000
(
0.000939641
0.000835545
0.000745561
0.00066753
0.000599655
0.000540437
0.000488626
0.000443175
0.000403205
0.000367981
0.000336881
0.000309385
0.000285051
0.000263507
0.000244433
0.00022756
0.000212652
0.000199507
0.000187943
0.000177801
0.000168934
0.000161211
0.000154507
0.000148711
0.000143717
0.000139429
0.000135759
0.000132628
0.000129963
0.000127701
0.000125786
0.000124166
0.0001228
0.00012165
0.000120685
0.000119877
0.000119201
0.000118637
0.000118167
0.000117775
0.000117448
0.000117176
0.000116949
0.00011676
0.000116601
0.000116468
0.000116355
0.000116259
0.000116176
0.000116104
0.00011604
0.000115983
0.00011593
0.000115881
0.000115835
0.00011579
0.000115747
0.000115705
0.000115663
0.000115622
0.000115581
0.00011554
0.0001155
0.000115459
0.000115419
0.000115378
0.000115339
0.000115299
0.00011526
0.000115222
0.000115184
0.000115147
0.000115111
0.000115075
0.000115041
0.000115007
0.000114974
0.000114943
0.000114912
0.000114882
0.000114853
0.000114826
0.000114799
0.000114773
0.000114749
0.000114725
0.000114702
0.000114681
0.00011466
0.000114641
0.000114623
0.000114606
0.000114591
0.000114577
0.000114564
0.000114553
0.000114544
0.000114537
0.000114532
0.000114529
0.000939642
0.000835549
0.000745568
0.000667539
0.000599666
0.000540449
0.000488639
0.000443189
0.00040322
0.000367996
0.000336897
0.000309402
0.000285069
0.000263524
0.000244451
0.000227578
0.000212671
0.000199525
0.000187961
0.000177819
0.000168952
0.000161228
0.000154524
0.000148727
0.000143732
0.000139443
0.000135773
0.00013264
0.000129975
0.000127713
0.000125797
0.000124177
0.000122812
0.000121662
0.000120697
0.000119888
0.000119211
0.000118646
0.000118175
0.000117782
0.000117455
0.000117182
0.000116955
0.000116765
0.000116607
0.000116473
0.00011636
0.000116264
0.000116181
0.000116109
0.000116045
0.000115987
0.000115934
0.000115885
0.000115839
0.000115794
0.000115751
0.000115709
0.000115667
0.000115625
0.000115584
0.000115543
0.000115502
0.000115462
0.000115421
0.000115381
0.000115341
0.000115301
0.000115262
0.000115224
0.000115186
0.000115149
0.000115113
0.000115077
0.000115042
0.000115009
0.000114976
0.000114944
0.000114913
0.000114883
0.000114854
0.000114827
0.0001148
0.000114774
0.000114749
0.000114726
0.000114703
0.000114682
0.000114661
0.000114642
0.000114624
0.000114607
0.000114591
0.000114577
0.000114565
0.000114554
0.000114544
0.000114537
0.000114532
0.000114529
0.000939644
0.000835556
0.00074558
0.000667555
0.000599684
0.000540471
0.000488663
0.000443214
0.000403247
0.000368024
0.000336926
0.000309431
0.000285099
0.000263555
0.000244482
0.000227609
0.000212701
0.000199555
0.00018799
0.000177847
0.000168979
0.000161253
0.000154547
0.000148748
0.000143752
0.000139461
0.000135789
0.000132655
0.000129989
0.000127725
0.000125808
0.000124188
0.000122821
0.000121672
0.000120706
0.000119896
0.000119219
0.000118653
0.000118181
0.000117788
0.00011746
0.000117187
0.000116959
0.000116769
0.00011661
0.000116477
0.000116364
0.000116267
0.000116184
0.000116112
0.000116048
0.00011599
0.000115937
0.000115888
0.000115841
0.000115797
0.000115754
0.000115711
0.000115669
0.000115628
0.000115587
0.000115546
0.000115505
0.000115464
0.000115423
0.000115383
0.000115343
0.000115303
0.000115264
0.000115226
0.000115188
0.000115151
0.000115114
0.000115079
0.000115044
0.00011501
0.000114977
0.000114945
0.000114915
0.000114885
0.000114856
0.000114828
0.000114801
0.000114775
0.00011475
0.000114727
0.000114704
0.000114682
0.000114662
0.000114643
0.000114625
0.000114608
0.000114592
0.000114578
0.000114565
0.000114554
0.000114545
0.000114538
0.000114533
0.00011453
0.000939645
0.000835563
0.000745593
0.000667574
0.000599709
0.000540499
0.000488695
0.000443249
0.000403283
0.000368063
0.000336966
0.000309473
0.000285141
0.000263597
0.000244525
0.000227651
0.000212743
0.000199596
0.00018803
0.000177885
0.000169014
0.000161286
0.000154578
0.000148777
0.000143777
0.000139484
0.000135809
0.000132673
0.000130004
0.000127739
0.00012582
0.000124199
0.000122831
0.000121681
0.000120714
0.000119904
0.000119226
0.000118659
0.000118186
0.000117792
0.000117464
0.00011719
0.000116963
0.000116772
0.000116613
0.000116479
0.000116366
0.00011627
0.000116187
0.000116114
0.00011605
0.000115992
0.00011594
0.00011589
0.000115844
0.000115799
0.000115756
0.000115713
0.000115671
0.00011563
0.000115589
0.000115548
0.000115507
0.000115466
0.000115425
0.000115385
0.000115345
0.000115305
0.000115266
0.000115228
0.00011519
0.000115152
0.000115116
0.00011508
0.000115046
0.000115012
0.000114979
0.000114947
0.000114916
0.000114886
0.000114857
0.000114829
0.000114802
0.000114776
0.000114752
0.000114728
0.000114705
0.000114684
0.000114663
0.000114644
0.000114626
0.000114609
0.000114593
0.000114579
0.000114566
0.000114555
0.000114546
0.000114539
0.000114534
0.000114531
0.000939647
0.000835571
0.000745608
0.000667595
0.000599736
0.000540532
0.000488732
0.00044329
0.000403329
0.000368111
0.000337017
0.000309525
0.000285194
0.000263651
0.000244579
0.000227705
0.000212796
0.000199648
0.00018808
0.000177932
0.000169059
0.000161328
0.000154617
0.000148812
0.000143809
0.000139512
0.000135834
0.000132695
0.000130023
0.000127755
0.000125834
0.000124211
0.000122842
0.00012169
0.000120722
0.000119911
0.000119232
0.000118664
0.000118191
0.000117796
0.000117467
0.000117193
0.000116965
0.000116775
0.000116616
0.000116482
0.000116368
0.000116272
0.000116189
0.000116116
0.000116052
0.000115994
0.000115941
0.000115892
0.000115846
0.000115801
0.000115758
0.000115715
0.000115673
0.000115632
0.000115591
0.00011555
0.000115509
0.000115468
0.000115427
0.000115387
0.000115347
0.000115307
0.000115268
0.000115229
0.000115191
0.000115154
0.000115118
0.000115082
0.000115047
0.000115013
0.00011498
0.000114948
0.000114918
0.000114888
0.000114859
0.000114831
0.000114804
0.000114778
0.000114753
0.000114729
0.000114707
0.000114685
0.000114664
0.000114645
0.000114627
0.00011461
0.000114594
0.00011458
0.000114567
0.000114556
0.000114547
0.00011454
0.000114535
0.000114532
0.000939649
0.000835578
0.000745622
0.000667617
0.000599765
0.000540568
0.000488774
0.000443337
0.00040338
0.000368166
0.000337075
0.000309586
0.000285257
0.000263715
0.000244643
0.00022777
0.00021286
0.00019971
0.00018814
0.000177989
0.000169113
0.000161378
0.000154662
0.000148853
0.000143846
0.000139545
0.000135863
0.00013272
0.000130045
0.000127774
0.00012585
0.000124224
0.000122853
0.0001217
0.00012073
0.000119918
0.000119237
0.000118669
0.000118195
0.000117799
0.00011747
0.000117196
0.000116967
0.000116777
0.000116617
0.000116483
0.00011637
0.000116273
0.00011619
0.000116118
0.000116054
0.000115996
0.000115943
0.000115894
0.000115847
0.000115803
0.000115759
0.000115717
0.000115675
0.000115634
0.000115592
0.000115551
0.00011551
0.000115469
0.000115429
0.000115388
0.000115348
0.000115309
0.00011527
0.000115231
0.000115193
0.000115156
0.000115119
0.000115084
0.000115049
0.000115015
0.000114982
0.00011495
0.000114919
0.000114889
0.00011486
0.000114832
0.000114805
0.000114779
0.000114755
0.000114731
0.000114708
0.000114686
0.000114666
0.000114646
0.000114628
0.000114611
0.000114596
0.000114581
0.000114569
0.000114558
0.000114548
0.000114541
0.000114536
0.000114533
0.000939651
0.000835586
0.000745636
0.000667639
0.000599795
0.000540605
0.000488818
0.000443388
0.000403436
0.000368227
0.00033714
0.000309654
0.000285327
0.000263787
0.000244716
0.000227842
0.000212932
0.00019978
0.000188207
0.000178054
0.000169173
0.000161434
0.000154714
0.0001489
0.000143887
0.000139582
0.000135895
0.000132748
0.000130069
0.000127794
0.000125867
0.000124239
0.000122865
0.000121709
0.000120738
0.000119924
0.000119243
0.000118673
0.000118198
0.000117802
0.000117472
0.000117197
0.000116969
0.000116778
0.000116618
0.000116484
0.000116371
0.000116274
0.000116191
0.000116118
0.000116054
0.000115997
0.000115944
0.000115895
0.000115848
0.000115804
0.00011576
0.000115718
0.000115676
0.000115635
0.000115594
0.000115553
0.000115512
0.000115471
0.00011543
0.00011539
0.00011535
0.00011531
0.000115271
0.000115232
0.000115194
0.000115157
0.000115121
0.000115085
0.00011505
0.000115016
0.000114983
0.000114952
0.000114921
0.000114891
0.000114862
0.000114834
0.000114807
0.000114781
0.000114756
0.000114732
0.000114709
0.000114688
0.000114667
0.000114648
0.00011463
0.000114613
0.000114597
0.000114583
0.00011457
0.000114559
0.00011455
0.000114543
0.000114537
0.000114535
0.000939653
0.000835593
0.00074565
0.00066766
0.000599824
0.000540642
0.000488863
0.00044344
0.000403494
0.000368291
0.000337209
0.000309726
0.000285403
0.000263865
0.000244796
0.000227922
0.00021301
0.000199857
0.000188282
0.000178124
0.00016924
0.000161496
0.00015477
0.000148951
0.000143933
0.000139622
0.00013593
0.000132778
0.000130094
0.000127815
0.000125885
0.000124253
0.000122877
0.000121719
0.000120746
0.00011993
0.000119247
0.000118677
0.000118201
0.000117804
0.000117473
0.000117198
0.000116969
0.000116778
0.000116618
0.000116484
0.00011637
0.000116274
0.000116191
0.000116118
0.000116054
0.000115997
0.000115944
0.000115895
0.000115848
0.000115804
0.000115761
0.000115719
0.000115677
0.000115635
0.000115594
0.000115553
0.000115513
0.000115472
0.000115431
0.000115391
0.000115351
0.000115311
0.000115272
0.000115234
0.000115196
0.000115158
0.000115122
0.000115086
0.000115052
0.000115018
0.000114985
0.000114953
0.000114922
0.000114892
0.000114863
0.000114835
0.000114808
0.000114782
0.000114757
0.000114734
0.000114711
0.000114689
0.000114669
0.000114649
0.000114631
0.000114614
0.000114598
0.000114584
0.000114572
0.000114561
0.000114551
0.000114544
0.000114539
0.000114536
0.000939655
0.000835599
0.000745663
0.000667681
0.000599853
0.000540679
0.000488908
0.000443493
0.000403554
0.000368357
0.000337281
0.000309803
0.000285483
0.000263948
0.00024488
0.000228007
0.000213095
0.000199939
0.000188362
0.0001782
0.000169311
0.000161562
0.000154831
0.000149005
0.000143982
0.000139665
0.000135967
0.00013281
0.000130121
0.000127838
0.000125904
0.000124269
0.00012289
0.000121729
0.000120754
0.000119936
0.000119251
0.000118679
0.000118202
0.000117805
0.000117473
0.000117198
0.000116968
0.000116777
0.000116617
0.000116483
0.000116369
0.000116273
0.00011619
0.000116117
0.000116053
0.000115996
0.000115943
0.000115894
0.000115848
0.000115804
0.000115761
0.000115718
0.000115677
0.000115636
0.000115595
0.000115554
0.000115513
0.000115472
0.000115432
0.000115392
0.000115352
0.000115312
0.000115273
0.000115234
0.000115197
0.000115159
0.000115123
0.000115087
0.000115053
0.000115019
0.000114986
0.000114954
0.000114923
0.000114893
0.000114864
0.000114836
0.000114809
0.000114783
0.000114759
0.000114735
0.000114712
0.00011469
0.00011467
0.000114651
0.000114632
0.000114615
0.0001146
0.000114586
0.000114573
0.000114562
0.000114553
0.000114546
0.00011454
0.000114538
0.000939656
0.000835605
0.000745675
0.0006677
0.00059988
0.000540715
0.000488953
0.000443545
0.000403615
0.000368425
0.000337354
0.000309882
0.000285567
0.000264034
0.000244968
0.000228096
0.000213183
0.000200026
0.000188445
0.000178281
0.000169387
0.000161632
0.000154895
0.000149063
0.000144033
0.00013971
0.000136006
0.000132843
0.000130149
0.000127861
0.000125923
0.000124284
0.000122902
0.000121738
0.00012076
0.000119941
0.000119255
0.000118681
0.000118203
0.000117804
0.000117473
0.000117196
0.000116967
0.000116775
0.000116615
0.000116481
0.000116367
0.000116271
0.000116188
0.000116115
0.000116052
0.000115994
0.000115942
0.000115893
0.000115847
0.000115803
0.00011576
0.000115718
0.000115676
0.000115635
0.000115594
0.000115553
0.000115513
0.000115472
0.000115432
0.000115392
0.000115352
0.000115312
0.000115273
0.000115235
0.000115197
0.00011516
0.000115123
0.000115088
0.000115053
0.000115019
0.000114986
0.000114955
0.000114924
0.000114894
0.000114865
0.000114837
0.00011481
0.000114784
0.00011476
0.000114736
0.000114713
0.000114692
0.000114671
0.000114652
0.000114634
0.000114617
0.000114601
0.000114587
0.000114575
0.000114564
0.000114554
0.000114547
0.000114542
0.000114539
0.000939658
0.000835611
0.000745687
0.000667719
0.000599907
0.000540751
0.000488997
0.000443598
0.000403675
0.000368492
0.000337429
0.000309962
0.000285651
0.000264123
0.000245059
0.000228187
0.000213274
0.000200116
0.000188532
0.000178364
0.000169465
0.000161705
0.000154961
0.000149123
0.000144086
0.000139757
0.000136047
0.000132878
0.000130178
0.000127885
0.000125942
0.000124299
0.000122914
0.000121747
0.000120767
0.000119945
0.000119257
0.000118682
0.000118203
0.000117803
0.000117471
0.000117194
0.000116964
0.000116772
0.000116612
0.000116477
0.000116364
0.000116268
0.000116185
0.000116113
0.000116049
0.000115992
0.000115939
0.000115891
0.000115845
0.000115801
0.000115758
0.000115716
0.000115675
0.000115634
0.000115593
0.000115552
0.000115512
0.000115471
0.000115431
0.000115391
0.000115351
0.000115312
0.000115273
0.000115235
0.000115197
0.00011516
0.000115123
0.000115088
0.000115053
0.00011502
0.000114987
0.000114955
0.000114924
0.000114894
0.000114865
0.000114838
0.000114811
0.000114785
0.00011476
0.000114737
0.000114714
0.000114693
0.000114672
0.000114653
0.000114635
0.000114618
0.000114603
0.000114588
0.000114576
0.000114565
0.000114556
0.000114549
0.000114543
0.000114541
0.000939659
0.000835617
0.000745698
0.000667737
0.000599933
0.000540785
0.000489039
0.000443649
0.000403735
0.000368559
0.000337503
0.000310042
0.000285737
0.000264212
0.000245151
0.000228281
0.000213368
0.000200208
0.000188621
0.000178449
0.000169545
0.000161779
0.000155029
0.000149184
0.000144141
0.000139804
0.000136088
0.000132913
0.000130208
0.000127909
0.000125961
0.000124315
0.000122925
0.000121755
0.000120773
0.000119949
0.000119259
0.000118682
0.000118202
0.000117801
0.000117468
0.000117191
0.00011696
0.000116768
0.000116608
0.000116473
0.00011636
0.000116263
0.000116181
0.000116109
0.000116045
0.000115988
0.000115936
0.000115887
0.000115842
0.000115798
0.000115755
0.000115714
0.000115673
0.000115632
0.000115591
0.000115551
0.00011551
0.00011547
0.00011543
0.00011539
0.00011535
0.000115311
0.000115272
0.000115234
0.000115196
0.000115159
0.000115123
0.000115088
0.000115053
0.000115019
0.000114987
0.000114955
0.000114924
0.000114894
0.000114866
0.000114838
0.000114811
0.000114786
0.000114761
0.000114737
0.000114715
0.000114693
0.000114673
0.000114654
0.000114636
0.000114619
0.000114604
0.00011459
0.000114577
0.000114566
0.000114557
0.00011455
0.000114545
0.000114542
0.000939661
0.000835622
0.000745709
0.000667754
0.000599957
0.000540817
0.000489081
0.000443699
0.000403793
0.000368626
0.000337576
0.000310122
0.000285822
0.000264301
0.000245243
0.000228374
0.000213462
0.0002003
0.000188712
0.000178535
0.000169627
0.000161855
0.000155099
0.000149247
0.000144196
0.000139853
0.00013613
0.000132948
0.000130237
0.000127933
0.000125981
0.000124329
0.000122936
0.000121763
0.000120778
0.000119951
0.000119259
0.000118682
0.0001182
0.000117798
0.000117464
0.000117186
0.000116955
0.000116763
0.000116602
0.000116468
0.000116354
0.000116258
0.000116175
0.000116104
0.00011604
0.000115983
0.000115932
0.000115883
0.000115838
0.000115794
0.000115752
0.000115711
0.00011567
0.000115629
0.000115589
0.000115548
0.000115508
0.000115468
0.000115428
0.000115388
0.000115349
0.00011531
0.000115271
0.000115233
0.000115195
0.000115158
0.000115122
0.000115087
0.000115052
0.000115019
0.000114986
0.000114954
0.000114924
0.000114894
0.000114865
0.000114838
0.000114811
0.000114786
0.000114761
0.000114738
0.000114715
0.000114694
0.000114674
0.000114655
0.000114637
0.00011462
0.000114605
0.000114591
0.000114578
0.000114567
0.000114558
0.000114551
0.000114546
0.000114543
0.000939662
0.000835627
0.000745719
0.000667771
0.000599981
0.000540849
0.00048912
0.000443747
0.00040385
0.00036869
0.000337648
0.000310201
0.000285906
0.00026439
0.000245335
0.000228468
0.000213556
0.000200393
0.000188802
0.000178622
0.000169708
0.000161931
0.000155168
0.00014931
0.000144252
0.000139902
0.000136171
0.000132983
0.000130266
0.000127957
0.000125999
0.000124344
0.000122947
0.00012177
0.000120782
0.000119953
0.000119259
0.00011868
0.000118196
0.000117794
0.000117459
0.000117181
0.000116949
0.000116757
0.000116596
0.000116461
0.000116348
0.000116252
0.000116169
0.000116098
0.000116035
0.000115978
0.000115926
0.000115878
0.000115833
0.00011579
0.000115748
0.000115707
0.000115666
0.000115626
0.000115585
0.000115545
0.000115505
0.000115465
0.000115426
0.000115386
0.000115347
0.000115308
0.000115269
0.000115231
0.000115194
0.000115157
0.000115121
0.000115086
0.000115051
0.000115018
0.000114985
0.000114954
0.000114923
0.000114893
0.000114865
0.000114837
0.000114811
0.000114785
0.000114761
0.000114738
0.000114715
0.000114694
0.000114674
0.000114655
0.000114637
0.000114621
0.000114605
0.000114592
0.000114579
0.000114568
0.000114559
0.000114552
0.000114547
0.000114544
0.000939663
0.000835632
0.000745729
0.000667786
0.000600003
0.000540879
0.000489159
0.000443794
0.000403905
0.000368753
0.000337719
0.000310278
0.000285989
0.000264478
0.000245426
0.000228561
0.000213649
0.000200486
0.000188892
0.000178708
0.00016979
0.000162007
0.000155238
0.000149372
0.000144308
0.00013995
0.000136213
0.000133018
0.000130295
0.00012798
0.000126018
0.000124358
0.000122957
0.000121777
0.000120785
0.000119954
0.000119258
0.000118677
0.000118192
0.000117789
0.000117453
0.000117174
0.000116942
0.000116749
0.000116588
0.000116454
0.000116341
0.000116244
0.000116162
0.000116091
0.000116028
0.000115972
0.00011592
0.000115873
0.000115828
0.000115785
0.000115743
0.000115702
0.000115662
0.000115621
0.000115581
0.000115542
0.000115502
0.000115462
0.000115422
0.000115383
0.000115344
0.000115305
0.000115267
0.000115229
0.000115191
0.000115155
0.000115119
0.000115084
0.00011505
0.000115016
0.000114984
0.000114952
0.000114922
0.000114892
0.000114864
0.000114837
0.00011481
0.000114785
0.00011476
0.000114737
0.000114715
0.000114694
0.000114674
0.000114655
0.000114637
0.000114621
0.000114606
0.000114592
0.00011458
0.000114569
0.00011456
0.000114553
0.000114548
0.000114545
0.000939664
0.000835637
0.000745738
0.000667801
0.000600025
0.000540908
0.000489196
0.000443839
0.000403958
0.000368814
0.000337787
0.000310353
0.00028607
0.000264564
0.000245515
0.000228652
0.000213741
0.000200577
0.000188981
0.000178794
0.000169871
0.000162082
0.000155307
0.000149435
0.000144363
0.000139998
0.000136254
0.000133053
0.000130324
0.000128003
0.000126035
0.000124371
0.000122966
0.000121782
0.000120788
0.000119954
0.000119256
0.000118673
0.000118187
0.000117783
0.000117446
0.000117167
0.000116934
0.000116741
0.00011658
0.000116445
0.000116332
0.000116236
0.000116154
0.000116083
0.00011602
0.000115964
0.000115913
0.000115866
0.000115821
0.000115778
0.000115737
0.000115696
0.000115656
0.000115616
0.000115577
0.000115537
0.000115498
0.000115458
0.000115419
0.000115379
0.00011534
0.000115302
0.000115263
0.000115226
0.000115189
0.000115152
0.000115116
0.000115081
0.000115047
0.000115014
0.000114982
0.000114951
0.00011492
0.000114891
0.000114863
0.000114835
0.000114809
0.000114784
0.00011476
0.000114737
0.000114715
0.000114694
0.000114674
0.000114655
0.000114638
0.000114621
0.000114606
0.000114593
0.00011458
0.00011457
0.000114561
0.000114554
0.000114549
0.000114546
0.000939665
0.000835641
0.000745746
0.000667815
0.000600045
0.000540936
0.000489231
0.000443882
0.000404009
0.000368874
0.000337854
0.000310426
0.000286149
0.000264647
0.000245602
0.000228742
0.000213831
0.000200667
0.000189069
0.000178878
0.000169951
0.000162156
0.000155375
0.000149496
0.000144418
0.000140046
0.000136295
0.000133087
0.000130352
0.000128026
0.000126053
0.000124383
0.000122974
0.000121787
0.00012079
0.000119954
0.000119254
0.000118669
0.000118181
0.000117776
0.000117438
0.000117158
0.000116925
0.000116732
0.000116571
0.000116436
0.000116323
0.000116227
0.000116145
0.000116074
0.000116012
0.000115956
0.000115905
0.000115858
0.000115814
0.000115771
0.00011573
0.00011569
0.00011565
0.000115611
0.000115571
0.000115532
0.000115493
0.000115453
0.000115414
0.000115375
0.000115336
0.000115298
0.00011526
0.000115222
0.000115185
0.000115149
0.000115113
0.000115079
0.000115045
0.000115012
0.000114979
0.000114948
0.000114918
0.000114889
0.000114861
0.000114834
0.000114808
0.000114783
0.000114759
0.000114736
0.000114714
0.000114693
0.000114673
0.000114655
0.000114637
0.000114621
0.000114606
0.000114593
0.000114581
0.00011457
0.000114561
0.000114554
0.000114549
0.000114547
0.000939666
0.000835645
0.000745755
0.000667829
0.000600065
0.000540962
0.000489265
0.000443923
0.000404058
0.00036893
0.000337918
0.000310497
0.000286226
0.000264729
0.000245687
0.000228829
0.000213919
0.000200754
0.000189154
0.00017896
0.000170029
0.000162229
0.000155442
0.000149556
0.000144471
0.000140092
0.000136335
0.00013312
0.000130379
0.000128047
0.000126069
0.000124395
0.000122982
0.000121791
0.000120791
0.000119952
0.00011925
0.000118664
0.000118175
0.000117768
0.000117429
0.000117149
0.000116915
0.000116722
0.00011656
0.000116426
0.000116312
0.000116217
0.000116135
0.000116064
0.000116002
0.000115947
0.000115896
0.00011585
0.000115806
0.000115764
0.000115723
0.000115683
0.000115644
0.000115604
0.000115565
0.000115526
0.000115487
0.000115448
0.000115409
0.00011537
0.000115332
0.000115293
0.000115256
0.000115218
0.000115181
0.000115145
0.00011511
0.000115075
0.000115042
0.000115009
0.000114977
0.000114946
0.000114916
0.000114887
0.000114859
0.000114832
0.000114806
0.000114781
0.000114757
0.000114734
0.000114713
0.000114692
0.000114672
0.000114654
0.000114637
0.000114621
0.000114606
0.000114593
0.000114581
0.00011457
0.000114562
0.000114555
0.00011455
0.000114547
0.000939667
0.000835649
0.000745763
0.000667841
0.000600084
0.000540987
0.000489297
0.000443963
0.000404106
0.000368985
0.00033798
0.000310565
0.0002863
0.000264807
0.00024577
0.000228914
0.000214005
0.000200839
0.000189238
0.000179041
0.000170105
0.0001623
0.000155507
0.000149615
0.000144523
0.000140138
0.000136374
0.000133153
0.000130405
0.000128068
0.000126084
0.000124406
0.000122989
0.000121795
0.000120791
0.00011995
0.000119246
0.000118657
0.000118167
0.000117759
0.00011742
0.000117138
0.000116905
0.000116711
0.000116549
0.000116414
0.000116301
0.000116206
0.000116124
0.000116054
0.000115992
0.000115937
0.000115887
0.000115841
0.000115797
0.000115755
0.000115715
0.000115675
0.000115636
0.000115597
0.000115558
0.00011552
0.000115481
0.000115442
0.000115403
0.000115365
0.000115326
0.000115288
0.000115251
0.000115214
0.000115177
0.000115141
0.000115106
0.000115071
0.000115038
0.000115005
0.000114973
0.000114943
0.000114913
0.000114884
0.000114856
0.000114829
0.000114804
0.000114779
0.000114755
0.000114733
0.000114711
0.000114691
0.000114671
0.000114653
0.000114636
0.00011462
0.000114606
0.000114592
0.000114581
0.00011457
0.000114562
0.000114555
0.00011455
0.000114547
0.000939668
0.000835653
0.00074577
0.000667854
0.000600101
0.000541011
0.000489328
0.000444001
0.000404151
0.000369038
0.000338039
0.000310631
0.000286371
0.000264883
0.000245849
0.000228996
0.000214088
0.000200922
0.000189319
0.000179119
0.000170179
0.00016237
0.000155571
0.000149672
0.000144574
0.000140182
0.000136411
0.000133184
0.00013043
0.000128087
0.000126099
0.000124416
0.000122995
0.000121797
0.000120791
0.000119947
0.00011924
0.00011865
0.000118159
0.000117749
0.000117409
0.000117127
0.000116893
0.000116699
0.000116537
0.000116403
0.00011629
0.000116194
0.000116113
0.000116043
0.000115981
0.000115927
0.000115877
0.000115831
0.000115788
0.000115746
0.000115706
0.000115667
0.000115628
0.000115589
0.000115551
0.000115513
0.000115474
0.000115436
0.000115397
0.000115359
0.000115321
0.000115283
0.000115246
0.000115209
0.000115172
0.000115137
0.000115101
0.000115067
0.000115034
0.000115001
0.00011497
0.000114939
0.000114909
0.000114881
0.000114853
0.000114827
0.000114801
0.000114776
0.000114753
0.000114731
0.000114709
0.000114689
0.00011467
0.000114652
0.000114635
0.000114619
0.000114605
0.000114592
0.00011458
0.00011457
0.000114561
0.000114555
0.00011455
0.000114547
0.000939669
0.000835657
0.000745777
0.000667865
0.000600118
0.000541034
0.000489357
0.000444037
0.000404194
0.000369088
0.000338096
0.000310694
0.000286439
0.000264956
0.000245926
0.000229075
0.000214168
0.000201002
0.000189397
0.000179195
0.000170251
0.000162437
0.000155632
0.000149728
0.000144623
0.000140225
0.000136447
0.000133214
0.000130455
0.000128106
0.000126113
0.000124425
0.000123
0.000121799
0.00012079
0.000119943
0.000119235
0.000118643
0.00011815
0.000117739
0.000117398
0.000117116
0.000116881
0.000116686
0.000116525
0.00011639
0.000116277
0.000116182
0.000116101
0.000116031
0.00011597
0.000115915
0.000115866
0.00011582
0.000115778
0.000115737
0.000115697
0.000115658
0.000115619
0.000115581
0.000115543
0.000115505
0.000115467
0.000115429
0.00011539
0.000115352
0.000115315
0.000115277
0.00011524
0.000115203
0.000115167
0.000115131
0.000115097
0.000115063
0.000115029
0.000114997
0.000114966
0.000114935
0.000114906
0.000114877
0.00011485
0.000114823
0.000114798
0.000114774
0.00011475
0.000114728
0.000114707
0.000114687
0.000114668
0.00011465
0.000114634
0.000114618
0.000114604
0.000114591
0.000114579
0.000114569
0.000114561
0.000114554
0.000114549
0.000114547
0.00093967
0.00083566
0.000745784
0.000667876
0.000600134
0.000541056
0.000489385
0.000444072
0.000404235
0.000369136
0.00033815
0.000310755
0.000286505
0.000265027
0.000245999
0.000229151
0.000214245
0.000201079
0.000189473
0.000179268
0.000170321
0.000162502
0.000155692
0.000149782
0.000144671
0.000140266
0.000136482
0.000133243
0.000130478
0.000128124
0.000126126
0.000124434
0.000123005
0.000121801
0.000120788
0.000119939
0.000119228
0.000118635
0.00011814
0.000117729
0.000117387
0.000117103
0.000116868
0.000116673
0.000116512
0.000116377
0.000116264
0.000116169
0.000116088
0.000116019
0.000115958
0.000115904
0.000115855
0.000115809
0.000115767
0.000115726
0.000115687
0.000115648
0.00011561
0.000115572
0.000115535
0.000115497
0.000115459
0.000115421
0.000115383
0.000115345
0.000115308
0.000115271
0.000115234
0.000115197
0.000115161
0.000115126
0.000115091
0.000115058
0.000115025
0.000114992
0.000114961
0.000114931
0.000114902
0.000114873
0.000114846
0.00011482
0.000114795
0.000114771
0.000114748
0.000114726
0.000114705
0.000114685
0.000114666
0.000114648
0.000114632
0.000114617
0.000114603
0.00011459
0.000114578
0.000114569
0.00011456
0.000114554
0.000114549
0.000114546
0.000939671
0.000835663
0.000745791
0.000667887
0.00060015
0.000541076
0.000489412
0.000444105
0.000404275
0.000369181
0.000338202
0.000310812
0.000286568
0.000265094
0.00024607
0.000229224
0.000214319
0.000201153
0.000189546
0.000179338
0.000170388
0.000162564
0.000155749
0.000149834
0.000144717
0.000140306
0.000136516
0.000133271
0.0001305
0.000128141
0.000126138
0.000124442
0.000123009
0.000121801
0.000120786
0.000119934
0.000119221
0.000118626
0.00011813
0.000117717
0.000117375
0.000117091
0.000116855
0.00011666
0.000116498
0.000116363
0.00011625
0.000116156
0.000116075
0.000116006
0.000115945
0.000115891
0.000115843
0.000115798
0.000115756
0.000115716
0.000115677
0.000115638
0.000115601
0.000115563
0.000115526
0.000115488
0.000115451
0.000115413
0.000115376
0.000115338
0.000115301
0.000115264
0.000115227
0.000115191
0.000115155
0.00011512
0.000115086
0.000115052
0.000115019
0.000114987
0.000114956
0.000114926
0.000114897
0.000114869
0.000114842
0.000114816
0.000114791
0.000114767
0.000114745
0.000114723
0.000114702
0.000114682
0.000114664
0.000114646
0.00011463
0.000114615
0.000114601
0.000114589
0.000114577
0.000114568
0.000114559
0.000114553
0.000114548
0.000114545
0.000939672
0.000835666
0.000745797
0.000667897
0.000600164
0.000541096
0.000489437
0.000444136
0.000404312
0.000369225
0.000338252
0.000310867
0.000286628
0.000265158
0.000246138
0.000229293
0.00021439
0.000201224
0.000189616
0.000179406
0.000170452
0.000162624
0.000155804
0.000149883
0.000144761
0.000140344
0.000136548
0.000133297
0.000130521
0.000128157
0.000126149
0.000124449
0.000123012
0.000121801
0.000120783
0.000119929
0.000119214
0.000118617
0.00011812
0.000117706
0.000117362
0.000117078
0.000116842
0.000116646
0.000116484
0.000116349
0.000116237
0.000116142
0.000116061
0.000115992
0.000115932
0.000115879
0.00011583
0.000115786
0.000115744
0.000115704
0.000115666
0.000115628
0.000115591
0.000115554
0.000115516
0.000115479
0.000115442
0.000115405
0.000115368
0.00011533
0.000115293
0.000115257
0.00011522
0.000115184
0.000115149
0.000115114
0.00011508
0.000115046
0.000115014
0.000114982
0.000114951
0.000114922
0.000114893
0.000114865
0.000114838
0.000114812
0.000114788
0.000114764
0.000114741
0.00011472
0.000114699
0.00011468
0.000114661
0.000114644
0.000114628
0.000114613
0.000114599
0.000114587
0.000114576
0.000114566
0.000114558
0.000114552
0.000114547
0.000114544
0.000939673
0.000835669
0.000745803
0.000667906
0.000600178
0.000541115
0.000489461
0.000444166
0.000404348
0.000369266
0.000338299
0.00031092
0.000286685
0.000265219
0.000246202
0.00022936
0.000214458
0.000201292
0.000189683
0.000179471
0.000170514
0.000162682
0.000155857
0.000149931
0.000144803
0.00014038
0.000136579
0.000133323
0.000130541
0.000128172
0.00012616
0.000124455
0.000123015
0.000121801
0.00012078
0.000119923
0.000119206
0.000118608
0.000118109
0.000117694
0.00011735
0.000117064
0.000116828
0.000116632
0.00011647
0.000116335
0.000116222
0.000116128
0.000116048
0.000115979
0.000115919
0.000115866
0.000115818
0.000115774
0.000115732
0.000115693
0.000115655
0.000115617
0.00011558
0.000115544
0.000115507
0.00011547
0.000115433
0.000115396