/*--------------------------------*- C++ -*----------------------------------*\
  =========                 |
  \\      /  F ield         | OpenFOAM: The Open Source CFD Toolbox
   \\    /   O peration     | Website:  https://openfoam.org
    \\  /    A nd           | Version:  11
     \\/     M anipulation  |
\*---------------------------------------------------------------------------*/
FoamFile
{
    format      ascii;
    class       volScalarField;
    location    "338";
    object      p;
}
// * * * * * * * * * * * * * * * * * * * * * * * * * * * * * * * * * * * * * //

dimensions      [0 2 -2 0 0 0 0];

internalField   nonuniform List<scalar> 
10000
(
6.20092e-08
6.06964e-08
6.26902e-08
6.69183e-08
7.1819e-08
7.70233e-08
8.24999e-08
8.82384e-08
9.42325e-08
1.00487e-07
1.07011e-07
1.13819e-07
1.20924e-07
1.2834e-07
1.36082e-07
1.44163e-07
1.526e-07
1.61406e-07
1.70596e-07
1.80183e-07
1.90181e-07
2.00605e-07
2.11466e-07
2.22778e-07
2.34552e-07
2.46801e-07
2.59534e-07
2.72762e-07
2.86492e-07
3.00734e-07
3.15492e-07
3.30772e-07
3.46576e-07
3.62906e-07
3.7976e-07
3.97134e-07
4.15021e-07
4.33412e-07
4.52294e-07
4.71648e-07
4.91453e-07
5.11682e-07
5.32303e-07
5.53279e-07
5.74566e-07
5.96111e-07
6.17858e-07
6.39741e-07
6.61685e-07
6.83609e-07
7.05423e-07
7.27029e-07
7.4832e-07
7.69182e-07
7.89495e-07
8.09129e-07
8.2795e-07
8.45811e-07
8.62555e-07
8.78005e-07
8.91926e-07
9.0394e-07
9.1304e-07
9.18e-07
9.27098e-07
9.39656e-07
9.4812e-07
9.53624e-07
9.58202e-07
9.58267e-07
9.55052e-07
9.51695e-07
9.45533e-07
9.37027e-07
9.31638e-07
9.27117e-07
9.18975e-07
9.08019e-07
8.94909e-07
8.7983e-07
8.62856e-07
8.44018e-07
8.2332e-07
8.00738e-07
7.76228e-07
7.4973e-07
7.21165e-07
6.90432e-07
6.57405e-07
6.21926e-07
5.83797e-07
5.42767e-07
4.98504e-07
4.50553e-07
3.98303e-07
3.41081e-07
2.77863e-07
2.03697e-07
1.05529e-07
2.66121e-09
1.23433e-07
1.17866e-07
1.14245e-07
1.15636e-07
1.19268e-07
1.23995e-07
1.29516e-07
1.35675e-07
1.42367e-07
1.49538e-07
1.57157e-07
1.65214e-07
1.73704e-07
1.8263e-07
1.91999e-07
2.0182e-07
2.12104e-07
2.22862e-07
2.34108e-07
2.45855e-07
2.58115e-07
2.70903e-07
2.84231e-07
2.98113e-07
3.1256e-07
3.27584e-07
3.43197e-07
3.59407e-07
3.76225e-07
3.93657e-07
4.11709e-07
4.30385e-07
4.49688e-07
4.69617e-07
4.9017e-07
5.11339e-07
5.33117e-07
5.5549e-07
5.78442e-07
6.01949e-07
6.25986e-07
6.5052e-07
6.7551e-07
7.00912e-07
7.26671e-07
7.52725e-07
7.79002e-07
8.05424e-07
8.31898e-07
8.58323e-07
8.84589e-07
9.10574e-07
9.36143e-07
9.61156e-07
9.85461e-07
1.0089e-06
1.0313e-06
1.05249e-06
1.07228e-06
1.09049e-06
1.10694e-06
1.12135e-06
1.13326e-06
1.14319e-06
1.15672e-06
1.16644e-06
1.16678e-06
1.16308e-06
1.16079e-06
1.16177e-06
1.16489e-06
1.16718e-06
1.16345e-06
1.15202e-06
1.13949e-06
1.12808e-06
1.11443e-06
1.09821e-06
1.07962e-06
1.05871e-06
1.03548e-06
1.00993e-06
9.82031e-07
9.51739e-07
9.18982e-07
8.83666e-07
8.45671e-07
8.04849e-07
7.61017e-07
7.13945e-07
6.63347e-07
6.08856e-07
5.49988e-07
4.86073e-07
4.16229e-07
3.39643e-07
2.54893e-07
1.52297e-07
1.02652e-08
-9.35434e-08
1.59466e-07
1.51152e-07
1.43644e-07
1.41437e-07
1.42037e-07
1.44192e-07
1.47488e-07
1.51682e-07
1.56603e-07
1.6214e-07
1.68224e-07
1.74814e-07
1.81883e-07
1.89416e-07
1.97405e-07
2.05846e-07
2.14743e-07
2.24097e-07
2.33914e-07
2.44203e-07
2.5497e-07
2.66223e-07
2.77973e-07
2.90228e-07
3.02996e-07
3.16287e-07
3.30109e-07
3.44468e-07
3.59373e-07
3.74827e-07
3.90837e-07
4.07405e-07
4.24532e-07
4.42218e-07
4.60459e-07
4.79251e-07
4.98584e-07
5.18448e-07
5.38826e-07
5.59698e-07
5.81039e-07
6.0282e-07
6.25004e-07
6.47546e-07
6.70397e-07
6.93496e-07
7.16775e-07
7.40156e-07
7.63551e-07
7.86859e-07
8.0997e-07
8.32763e-07
8.55104e-07
8.76853e-07
8.97857e-07
9.17961e-07
9.37002e-07
9.54817e-07
9.71249e-07
9.86158e-07
9.99434e-07
1.011e-06
1.02081e-06
1.02952e-06
1.03936e-06
1.04924e-06
1.05509e-06
1.05752e-06
1.05707e-06
1.05274e-06
1.04479e-06
1.03399e-06
1.01958e-06
1.00251e-06
9.85883e-07
9.69569e-07
9.52063e-07
9.32877e-07
9.11906e-07
8.89081e-07
8.64347e-07
8.37666e-07
8.08998e-07
7.78281e-07
7.45439e-07
7.10374e-07
6.72966e-07
6.33065e-07
5.90488e-07
5.45008e-07
4.96342e-07
4.44134e-07
3.87922e-07
3.27071e-07
2.60809e-07
1.88706e-07
1.09771e-07
1.23476e-08
-1.27524e-07
-1.86289e-07
1.92252e-07
1.82863e-07
1.74521e-07
1.70876e-07
1.69949e-07
1.70723e-07
1.72818e-07
1.75978e-07
1.80008e-07
1.84775e-07
1.90188e-07
1.96189e-07
2.02734e-07
2.09797e-07
2.17361e-07
2.25413e-07
2.33949e-07
2.42967e-07
2.52467e-07
2.62453e-07
2.72929e-07
2.83901e-07
2.95374e-07
3.07357e-07
3.19855e-07
3.32875e-07
3.46424e-07
3.60509e-07
3.75134e-07
3.90305e-07
4.06024e-07
4.22295e-07
4.39117e-07
4.56489e-07
4.74408e-07
4.92868e-07
5.11859e-07
5.3137e-07
5.51383e-07
5.71879e-07
5.92831e-07
6.14207e-07
6.3597e-07
6.58074e-07
6.80466e-07
7.03083e-07
7.25853e-07
7.48692e-07
7.71508e-07
7.94194e-07
8.16632e-07
8.38694e-07
8.60238e-07
8.81114e-07
9.01163e-07
9.2022e-07
9.38118e-07
9.54694e-07
9.69792e-07
9.83282e-07
9.95066e-07
1.00509e-06
1.01334e-06
1.02012e-06
1.02613e-06
1.03113e-06
1.03349e-06
1.03289e-06
1.02919e-06
1.02188e-06
1.01112e-06
9.97536e-07
9.81243e-07
9.62948e-07
9.43845e-07
9.23954e-07
9.0279e-07
8.80095e-07
8.5576e-07
8.29709e-07
8.01881e-07
7.7223e-07
7.40708e-07
7.07249e-07
6.71771e-07
6.34175e-07
5.94335e-07
5.521e-07
5.07283e-07
4.59658e-07
4.08946e-07
3.54805e-07
2.96801e-07
2.34353e-07
1.66827e-07
9.41829e-08
1.59318e-08
-8.10261e-08
-2.23053e-07
-2.53024e-07
2.22044e-07
2.12667e-07
2.04395e-07
2.00173e-07
1.98431e-07
1.98391e-07
1.99743e-07
2.02249e-07
2.0572e-07
2.10017e-07
2.1504e-07
2.20721e-07
2.27009e-07
2.33868e-07
2.41274e-07
2.4921e-07
2.57665e-07
2.66633e-07
2.76111e-07
2.86099e-07
2.96599e-07
3.07614e-07
3.19148e-07
3.31206e-07
3.43794e-07
3.56916e-07
3.70578e-07
3.84785e-07
3.99542e-07
4.14851e-07
4.30716e-07
4.47137e-07
4.64115e-07
4.81647e-07
4.99728e-07
5.18352e-07
5.37508e-07
5.57183e-07
5.77358e-07
5.98013e-07
6.19118e-07
6.4064e-07
6.62539e-07
6.84766e-07
7.07264e-07
7.29966e-07
7.52797e-07
7.75667e-07
7.98477e-07
8.21114e-07
8.43454e-07
8.65359e-07
8.86681e-07
9.0726e-07
9.26929e-07
9.45516e-07
9.62848e-07
9.78754e-07
9.93076e-07
1.00568e-06
1.01645e-06
1.02531e-06
1.03223e-06
1.03729e-06
1.0407e-06
1.04222e-06
1.04118e-06
1.03733e-06
1.03061e-06
1.02087e-06
1.00821e-06
9.92882e-07
9.75048e-07
9.55097e-07
9.33588e-07
9.107e-07
8.86323e-07
8.60353e-07
8.32734e-07
8.03412e-07
7.72335e-07
7.39461e-07
7.04744e-07
6.68118e-07
6.29502e-07
5.88794e-07
5.45869e-07
5.00577e-07
4.52734e-07
4.02119e-07
3.48467e-07
2.91461e-07
2.30707e-07
1.65692e-07
9.59195e-08
2.16921e-08
-5.71125e-08
-1.55078e-07
-3.00933e-07
-3.08838e-07
2.48934e-07
2.39984e-07
2.31975e-07
2.27476e-07
2.25215e-07
2.24591e-07
2.25364e-07
2.27329e-07
2.3031e-07
2.34175e-07
2.38825e-07
2.44185e-07
2.502e-07
2.5683e-07
2.64045e-07
2.71823e-07
2.80151e-07
2.89018e-07
2.98418e-07
3.08348e-07
3.18808e-07
3.29798e-07
3.41321e-07
3.53379e-07
3.65977e-07
3.79118e-07
3.92806e-07
4.07045e-07
4.21838e-07
4.37188e-07
4.53095e-07
4.69561e-07
4.86583e-07
5.04159e-07
5.22283e-07
5.40946e-07
5.60137e-07
5.79842e-07
6.00041e-07
6.20711e-07
6.41821e-07
6.63336e-07
6.85214e-07
7.07402e-07
7.29842e-07
7.52463e-07
7.75184e-07
7.97914e-07
8.20548e-07
8.42967e-07
8.65043e-07
8.86631e-07
9.07577e-07
9.27716e-07
9.46874e-07
9.64873e-07
9.81533e-07
9.9668e-07
1.01015e-06
1.02179e-06
1.03148e-06
1.03913e-06
1.04466e-06
1.04808e-06
1.04939e-06
1.04843e-06
1.04486e-06
1.03852e-06
1.02936e-06
1.01736e-06
1.00258e-06
9.85179e-07
9.65324e-07
9.43279e-07
9.19386e-07
8.93823e-07
8.6661e-07
8.3773e-07
8.07171e-07
7.74902e-07
7.40888e-07
7.05096e-07
6.67486e-07
6.27997e-07
5.86553e-07
5.43056e-07
4.97388e-07
4.49406e-07
3.98935e-07
3.45772e-07
2.89674e-07
2.30359e-07
1.67486e-07
1.00616e-07
2.93791e-08
-4.56609e-08
-1.24481e-07
-2.23209e-07
-3.717e-07
-3.61201e-07
2.73847e-07
2.65383e-07
2.57703e-07
2.53106e-07
2.50528e-07
2.49496e-07
2.49829e-07
2.51356e-07
2.53924e-07
2.57409e-07
2.61717e-07
2.66773e-07
2.72522e-07
2.78919e-07
2.85933e-07
2.93538e-07
3.01717e-07
3.10458e-07
3.19751e-07
3.29591e-07
3.39976e-07
3.50904e-07
3.62375e-07
3.74391e-07
3.86954e-07
4.00067e-07
4.13731e-07
4.27951e-07
4.42726e-07
4.58059e-07
4.7395e-07
4.90398e-07
5.07401e-07
5.24954e-07
5.4305e-07
5.6168e-07
5.80832e-07
6.00489e-07
6.2063e-07
6.41231e-07
6.62259e-07
6.83678e-07
7.05441e-07
7.27496e-07
7.4978e-07
7.7222e-07
7.94732e-07
8.1722e-07
8.39577e-07
8.6168e-07
8.83394e-07
9.04572e-07
9.25055e-07
9.44672e-07
9.63246e-07
9.80592e-07
9.96527e-07
1.01087e-06
1.02345e-06
1.03411e-06
1.0427e-06
1.04912e-06
1.05328e-06
1.05513e-06
1.0546e-06
1.05159e-06
1.0459e-06
1.03742e-06
1.02613e-06
1.01201e-06
9.95161e-07
9.75698e-07
9.53785e-07
9.29634e-07
9.03478e-07
8.75477e-07
8.45701e-07
8.14185e-07
7.8095e-07
7.45992e-07
7.09288e-07
6.70821e-07
6.30558e-07
5.88449e-07
5.44424e-07
4.98397e-07
4.50258e-07
3.99876e-07
3.47095e-07
2.91731e-07
2.33571e-07
1.72376e-07
1.07859e-07
3.96519e-08
-3.24996e-08
-1.07845e-07
-1.86352e-07
-2.85305e-07
-4.33323e-07
-4.09094e-07
2.97347e-07
2.89336e-07
2.81994e-07
2.7741e-07
2.74656e-07
2.73354e-07
2.73367e-07
2.74557e-07
2.76791e-07
2.79959e-07
2.83973e-07
2.88762e-07
2.9427e-07
3.00454e-07
3.07279e-07
3.14718e-07
3.22753e-07
3.31367e-07
3.40551e-07
3.50297e-07
3.60599e-07
3.71456e-07
3.82866e-07
3.94829e-07
4.07344e-07
4.20415e-07
4.34041e-07
4.48223e-07
4.62964e-07
4.78262e-07
4.94116e-07
5.10526e-07
5.27487e-07
5.44992e-07
5.63036e-07
5.81606e-07
6.0069e-07
6.20268e-07
6.4032e-07
6.60818e-07
6.81729e-07
7.03014e-07
7.24625e-07
7.46506e-07
7.68593e-07
7.9081e-07
8.13071e-07
8.35276e-07
8.57314e-07
8.7906e-07
9.00376e-07
9.2111e-07
9.411e-07
9.60172e-07
9.78143e-07
9.94826e-07
1.01003e-06
1.02357e-06
1.03528e-06
1.04497e-06
1.0525e-06
1.05775e-06
1.06061e-06
1.06099e-06
1.05882e-06
1.05401e-06
1.04645e-06
1.03607e-06
1.02285e-06
1.00682e-06
9.88045e-07
9.66654e-07
9.42792e-07
9.16633e-07
8.88361e-07
8.58119e-07
8.26001e-07
7.92074e-07
7.56385e-07
7.18949e-07
6.79761e-07
6.38815e-07
5.96092e-07
5.51552e-07
5.05137e-07
4.56772e-07
4.06361e-07
3.53788e-07
2.98916e-07
2.41588e-07
1.81623e-07
1.18823e-07
5.29569e-08
-1.62746e-08
-8.90252e-08
-1.64392e-07
-2.42338e-07
-3.40807e-07
-4.86086e-07
-4.50919e-07
3.19712e-07
3.12103e-07
3.05075e-07
3.00558e-07
2.9772e-07
2.96243e-07
2.96026e-07
2.96958e-07
2.98925e-07
3.01831e-07
3.05596e-07
3.10152e-07
3.15446e-07
3.21436e-07
3.28086e-07
3.35369e-07
3.43264e-07
3.51755e-07
3.60828e-07
3.70477e-07
3.80693e-07
3.91472e-07
4.02812e-07
4.14712e-07
4.27169e-07
4.40185e-07
4.53759e-07
4.67892e-07
4.82581e-07
4.97828e-07
5.13628e-07
5.2998e-07
5.46879e-07
5.64317e-07
5.82285e-07
6.00771e-07
6.19761e-07
6.39235e-07
6.59169e-07
6.79535e-07
7.00298e-07
7.21417e-07
7.42842e-07
7.64516e-07
7.86371e-07
8.0833e-07
8.30304e-07
8.52192e-07
8.73878e-07
8.95235e-07
9.16124e-07
9.36388e-07
9.55864e-07
9.74373e-07
9.9173e-07
1.00775e-06
1.02222e-06
1.03498e-06
1.04582e-06
1.05458e-06
1.0611e-06
1.06523e-06
1.06687e-06
1.06591e-06
1.06227e-06
1.05588e-06
1.04666e-06
1.03457e-06
1.01961e-06
1.00182e-06
9.81277e-07
9.58091e-07
9.32397e-07
9.04349e-07
8.74103e-07
8.41795e-07
8.0753e-07
7.71393e-07
7.3345e-07
6.93733e-07
6.52253e-07
6.09017e-07
5.64018e-07
5.17231e-07
4.68609e-07
4.18089e-07
3.65593e-07
3.11021e-07
2.5426e-07
1.95178e-07
1.33626e-07
6.94491e-08
2.46401e-09
-6.75669e-08
-1.40713e-07
-2.15957e-07
-2.93299e-07
-3.91343e-07
-5.34191e-07
-4.89665e-07
3.41107e-07
3.33845e-07
3.27097e-07
3.22672e-07
3.19803e-07
3.18216e-07
3.17835e-07
3.18571e-07
3.20326e-07
3.23015e-07
3.26567e-07
3.30921e-07
3.36025e-07
3.41838e-07
3.48325e-07
3.5546e-07
3.6322e-07
3.71589e-07
3.80552e-07
3.90099e-07
4.00223e-07
4.10918e-07
4.2218e-07
4.34007e-07
4.46395e-07
4.59344e-07
4.72853e-07
4.86919e-07
5.01543e-07
5.1672e-07
5.32449e-07
5.48724e-07
5.65539e-07
5.82888e-07
6.00758e-07
6.19137e-07
6.38008e-07
6.5735e-07
6.7714e-07
6.97345e-07
7.1793e-07
7.38853e-07
7.6006e-07
7.81495e-07
8.03086e-07
8.24755e-07
8.4641e-07
8.67948e-07
8.89253e-07
9.10194e-07
9.3063e-07
9.50403e-07
9.69345e-07
9.87278e-07
1.00401e-06
1.01936e-06
1.03312e-06
1.04509e-06
1.0551e-06
1.06296e-06
1.0685e-06
1.07159e-06
1.07209e-06
1.0699e-06
1.06493e-06
1.05712e-06
1.04641e-06
1.03279e-06
1.01625e-06
9.96862e-07
9.74686e-07
9.49833e-07
9.2243e-07
8.92617e-07
8.60537e-07
8.26322e-07
7.90084e-07
7.51918e-07
7.11904e-07
6.7009e-07
6.265e-07
5.81153e-07
5.34058e-07
4.85199e-07
4.34545e-07
3.82049e-07
3.27647e-07
2.7126e-07
2.12795e-07
1.52147e-07
8.92013e-08
2.38384e-08
-4.40788e-08
-1.14738e-07
-1.8814e-07
-2.63172e-07
-3.399e-07
-4.37833e-07
-5.79883e-07
-5.26675e-07
3.61643e-07
3.54677e-07
3.48175e-07
3.43851e-07
3.40984e-07
3.39331e-07
3.38834e-07
3.3942e-07
3.41005e-07
3.43516e-07
3.46888e-07
3.51065e-07
3.55999e-07
3.61652e-07
3.67989e-07
3.74984e-07
3.82614e-07
3.90863e-07
3.99715e-07
4.09159e-07
4.19187e-07
4.29791e-07
4.40968e-07
4.52712e-07
4.65021e-07
4.77892e-07
4.91322e-07
5.0531e-07
5.19852e-07
5.34945e-07
5.50585e-07
5.66765e-07
5.83479e-07
6.00718e-07
6.18469e-07
6.36719e-07
6.55448e-07
6.74636e-07
6.94256e-07
7.14275e-07
7.34657e-07
7.55355e-07
7.76319e-07
7.97486e-07
8.18786e-07
8.40138e-07
8.61448e-07
8.82611e-07
9.0351e-07
9.24012e-07
9.43975e-07
9.63239e-07
9.81636e-07
9.98985e-07
1.0151e-06
1.02977e-06
1.04282e-06
1.05404e-06
1.06323e-06
1.07023e-06
1.07485e-06
1.07694e-06
1.07638e-06
1.07306e-06
1.06688e-06
1.05779e-06
1.04574e-06
1.03073e-06
1.01277e-06
9.91911e-07
9.68232e-07
9.41837e-07
9.12847e-07
8.81396e-07
8.47619e-07
8.11646e-07
7.73592e-07
7.33562e-07
6.91646e-07
6.47905e-07
6.02374e-07
5.55086e-07
5.0606e-07
4.55297e-07
4.02777e-07
3.4847e-07
2.92328e-07
2.34291e-07
1.74289e-07
1.12241e-07
4.80634e-08
-1.83281e-08
-8.703e-08
-1.58185e-07
-2.31735e-07
-3.06436e-07
-3.82296e-07
-4.79848e-07
-6.23189e-07
-5.5927e-07
3.81395e-07
3.74682e-07
3.68396e-07
3.64172e-07
3.61327e-07
3.59637e-07
3.59059e-07
3.59531e-07
3.60982e-07
3.63345e-07
3.66564e-07
3.70587e-07
3.75371e-07
3.80877e-07
3.87075e-07
3.93938e-07
4.01444e-07
4.09575e-07
4.18316e-07
4.27656e-07
4.37584e-07
4.48094e-07
4.59178e-07
4.70832e-07
4.83053e-07
4.95835e-07
5.09176e-07
5.23073e-07
5.3752e-07
5.52515e-07
5.68051e-07
5.84121e-07
6.00717e-07
6.17828e-07
6.35442e-07
6.53543e-07
6.72111e-07
6.91123e-07
7.10551e-07
7.30363e-07
7.50518e-07
7.70971e-07
7.91667e-07
8.12544e-07
8.3353e-07
8.54541e-07
8.75484e-07
8.96252e-07
9.16726e-07
9.36774e-07
9.5625e-07
9.74995e-07
9.92838e-07
1.0096e-06
1.02509e-06
1.0391e-06
1.05145e-06
1.06193e-06
1.07034e-06
1.07651e-06
1.08025e-06
1.08141e-06
1.07987e-06
1.0755e-06
1.06822e-06
1.05796e-06
1.0447e-06
1.02843e-06
1.00917e-06
9.86966e-07
9.61907e-07
9.34091e-07
9.03635e-07
8.7067e-07
8.35326e-07
7.97733e-07
7.58009e-07
7.16266e-07
6.72604e-07
6.27093e-07
5.79778e-07
5.30705e-07
4.79906e-07
4.27393e-07
3.73162e-07
3.17196e-07
2.59466e-07
1.99929e-07
1.38536e-07
7.52306e-08
9.95565e-09
-5.73407e-08
-1.26719e-07
-1.98283e-07
-2.71919e-07
-3.46224e-07
-4.21019e-07
-5.17937e-07
-6.64402e-07
-5.88117e-07
4.00416e-07
3.9392e-07
3.87824e-07
3.83697e-07
3.80884e-07
3.79178e-07
3.78544e-07
3.7893e-07
3.80272e-07
3.82514e-07
3.85602e-07
3.89491e-07
3.9414e-07
3.99514e-07
4.05584e-07
4.12322e-07
4.19709e-07
4.27725e-07
4.36356e-07
4.4559e-07
4.55416e-07
4.65826e-07
4.76813e-07
4.88371e-07
5.00494e-07
5.1318e-07
5.26422e-07
5.40216e-07
5.54557e-07
5.69441e-07
5.84859e-07
6.00804e-07
6.17267e-07
6.34236e-07
6.51696e-07
6.69631e-07
6.8802e-07
7.06839e-07
7.26057e-07
7.45642e-07
7.65551e-07
7.85738e-07
8.06148e-07
8.26716e-07
8.47368e-07
8.68022e-07
8.88581e-07
9.08938e-07
9.28974e-07
9.48554e-07
9.67533e-07
9.85752e-07
1.00304e-06
1.01921e-06
1.03408e-06
1.04745e-06
1.05911e-06
1.06887e-06
1.07653e-06
1.0819e-06
1.08482e-06
1.08511e-06
1.08264e-06
1.0773e-06
1.06901e-06
1.0577e-06
1.04333e-06
1.02591e-06
1.00546e-06
9.8203e-07
9.55705e-07
9.26582e-07
8.94776e-07
8.60415e-07
8.23628e-07
7.84545e-07
7.43287e-07
6.99971e-07
6.54706e-07
6.07568e-07
5.58616e-07
5.07904e-07
4.55476e-07
4.01358e-07
3.45558e-07
2.88075e-07
2.28893e-07
1.6799e-07
1.05335e-07
4.08923e-08
-2.53702e-08
-9.34774e-08
-1.6346e-07
-2.35394e-07
-3.09124e-07
-3.83106e-07
-4.56985e-07
-5.53686e-07
-7.04635e-07
-6.17275e-07
4.18745e-07
4.12439e-07
4.06509e-07
4.02474e-07
3.997e-07
3.97991e-07
3.97318e-07
3.97638e-07
3.98894e-07
4.01033e-07
4.0401e-07
4.07781e-07
4.1231e-07
4.17564e-07
4.23514e-07
4.30135e-07
4.37407e-07
4.45311e-07
4.53834e-07
4.62961e-07
4.72683e-07
4.8299e-07
4.93874e-07
5.0533e-07
5.1735e-07
5.2993e-07
5.43064e-07
5.56747e-07
5.70972e-07
5.85733e-07
6.01022e-07
6.1683e-07
6.33146e-07
6.49958e-07
6.67251e-07
6.85005e-07
7.032e-07
7.21809e-07
7.40802e-07
7.60143e-07
7.79791e-07
7.99696e-07
8.19803e-07
8.40046e-07
8.6035e-07
8.80632e-07
9.00794e-07
9.20729e-07
9.40315e-07
9.5942e-07
9.77897e-07
9.95586e-07
1.01232e-06
1.02791e-06
1.04216e-06
1.05489e-06
1.06589e-06
1.07496e-06
1.08189e-06
1.08651e-06
1.08864e-06
1.08811e-06
1.08478e-06
1.07855e-06
1.06933e-06
1.05704e-06
1.04166e-06
1.02319e-06
1.00166e-06
9.77108e-07
9.49623e-07
9.193e-07
8.86253e-07
8.50608e-07
8.12495e-07
7.72042e-07
7.29376e-07
6.84617e-07
6.37879e-07
5.8925e-07
5.38795e-07
4.86579e-07
4.32657e-07
3.77066e-07
3.19829e-07
2.60956e-07
2.00448e-07
1.38298e-07
7.44925e-08
9.0155e-09
-5.81452e-08
-1.26992e-07
-1.97534e-07
-2.69829e-07
-3.437e-07
-4.17484e-07
-4.90704e-07
-5.87715e-07
-7.44246e-07
-6.47603e-07
4.36414e-07
4.30273e-07
4.24492e-07
4.20542e-07
4.17809e-07
4.16106e-07
4.15408e-07
4.15677e-07
4.16862e-07
4.18916e-07
4.21796e-07
4.25464e-07
4.29885e-07
4.35029e-07
4.40867e-07
4.47378e-07
4.5454e-07
4.62335e-07
4.7075e-07
4.79771e-07
4.89386e-07
4.99587e-07
5.10366e-07
5.21714e-07
5.33625e-07
5.46093e-07
5.59111e-07
5.72674e-07
5.86773e-07
6.01402e-07
6.16551e-07
6.32211e-07
6.4837e-07
6.65013e-07
6.82125e-07
6.99686e-07
7.17673e-07
7.36059e-07
7.54813e-07
7.73898e-07
7.9327e-07
8.12881e-07
8.32672e-07
8.52578e-07
8.72523e-07
8.92421e-07
9.12177e-07
9.31681e-07
9.50812e-07
9.69437e-07
9.8741e-07
1.00457e-06
1.02075e-06
1.03576e-06
1.04942e-06
1.06152e-06
1.07187e-06
1.08027e-06
1.08651e-06
1.09041e-06
1.09179e-06
1.09049e-06
1.08637e-06
1.07931e-06
1.06922e-06
1.05604e-06
1.03974e-06
1.02031e-06
9.97786e-07
9.72209e-07
9.4366e-07
9.12237e-07
8.78052e-07
8.41229e-07
8.01897e-07
7.60188e-07
7.1623e-07
6.70147e-07
6.2206e-07
5.72063e-07
5.20229e-07
4.66633e-07
4.11341e-07
3.544e-07
2.95845e-07
2.35699e-07
1.73978e-07
1.10687e-07
4.58295e-08
-2.05938e-08
-8.85784e-08
-1.58109e-07
-2.29179e-07
-3.01838e-07
-3.75897e-07
-4.49593e-07
-5.22349e-07
-6.19943e-07
-7.82316e-07
-6.77297e-07
4.53446e-07
4.47451e-07
4.41802e-07
4.37932e-07
4.35241e-07
4.33549e-07
4.32836e-07
4.33066e-07
4.34193e-07
4.36175e-07
4.38971e-07
4.42547e-07
4.46871e-07
4.51913e-07
4.57648e-07
4.64053e-07
4.71109e-07
4.78798e-07
4.87107e-07
4.96021e-07
5.05529e-07
5.15622e-07
5.26291e-07
5.37527e-07
5.49324e-07
5.61674e-07
5.7457e-07
5.88005e-07
6.01971e-07
6.16459e-07
6.31459e-07
6.46961e-07
6.62952e-07
6.79417e-07
6.96338e-07
7.13695e-07
7.31463e-07
7.49616e-07
7.68119e-07
7.86936e-07
8.06023e-07
8.25328e-07
8.44793e-07
8.64353e-07
8.8393e-07
9.03438e-07
9.22781e-07
9.41849e-07
9.60522e-07
9.78666e-07
9.96135e-07
1.01277e-06
1.0284e-06
1.04285e-06
1.05591e-06
1.06741e-06
1.07714e-06
1.08489e-06
1.09046e-06
1.09368e-06
1.09436e-06
1.09233e-06
1.08747e-06
1.07964e-06
1.06875e-06
1.05475e-06
1.0376e-06
1.0173e-06
9.93859e-07
9.67342e-07
9.3782e-07
9.05389e-07
8.70161e-07
8.32257e-07
7.91809e-07
7.48949e-07
7.03806e-07
6.56509e-07
6.07185e-07
5.55934e-07
5.02837e-07
4.47976e-07
3.91428e-07
3.33249e-07
2.73485e-07
2.12173e-07
1.49338e-07
8.50022e-08
1.91802e-08
-4.81128e-08
-1.16858e-07
-1.87026e-07
-2.58599e-07
-3.31623e-07
-4.05904e-07
-4.79591e-07
-5.52013e-07
-6.50293e-07
-8.18337e-07
-7.05568e-07
4.6986e-07
4.63997e-07
4.58467e-07
4.5467e-07
4.52021e-07
4.50344e-07
4.49621e-07
4.49821e-07
4.50901e-07
4.5282e-07
4.55544e-07
4.59037e-07
4.63272e-07
4.6822e-07
4.73858e-07
4.80163e-07
4.87117e-07
4.94703e-07
5.02906e-07
5.11714e-07
5.21115e-07
5.31098e-07
5.41655e-07
5.52776e-07
5.64454e-07
5.76681e-07
5.89449e-07
6.0275e-07
6.16575e-07
6.30915e-07
6.4576e-07
6.61096e-07
6.76911e-07
6.93188e-07
7.09909e-07
7.27052e-07
7.44593e-07
7.62503e-07
7.80748e-07
7.99288e-07
8.1808e-07
8.37072e-07
8.56205e-07
8.75411e-07
8.94614e-07
9.13727e-07
9.32653e-07
9.51284e-07
9.69498e-07
9.87162e-07
1.00413e-06
1.02025e-06
1.03534e-06
1.04923e-06
1.06172e-06
1.07263e-06
1.08175e-06
1.08888e-06
1.09382e-06
1.09639e-06
1.0964e-06
1.09369e-06
1.08813e-06
1.07958e-06
1.06796e-06
1.05321e-06
1.03528e-06
1.01416e-06
9.89896e-07
9.62518e-07
9.32106e-07
8.98753e-07
8.62569e-07
8.23677e-07
7.82206e-07
7.38291e-07
6.92063e-07
6.43655e-07
5.93198e-07
5.40798e-07
4.86543e-07
4.30522e-07
3.72822e-07
3.13508e-07
2.52636e-07
1.90253e-07
1.26398e-07
6.11012e-08
-5.6079e-09
-7.37027e-08
-1.43153e-07
-2.13918e-07
-2.8597e-07
-3.59355e-07
-4.33877e-07
-5.07604e-07
-5.79774e-07
-6.78754e-07
-8.52123e-07
-7.32176e-07
4.85674e-07
4.79928e-07
4.74506e-07
4.70778e-07
4.68169e-07
4.66509e-07
4.65782e-07
4.65959e-07
4.66998e-07
4.68864e-07
4.71523e-07
4.74942e-07
4.79096e-07
4.83957e-07
4.89502e-07
4.95712e-07
5.02568e-07
5.10053e-07
5.18153e-07
5.26855e-07
5.36147e-07
5.46019e-07
5.56462e-07
5.67465e-07
5.79021e-07
5.91121e-07
6.03756e-07
6.16918e-07
6.30598e-07
6.44784e-07
6.59465e-07
6.74629e-07
6.9026e-07
7.06343e-07
7.22857e-07
7.3978e-07
7.57086e-07
7.74746e-07
7.92725e-07
8.10982e-07
8.29474e-07
8.48147e-07
8.66941e-07
8.8579e-07
9.04616e-07
9.23332e-07
9.41841e-07
9.60034e-07
9.77791e-07
9.94979e-07
1.01145e-06
1.02706e-06
1.04162e-06
1.05496e-06
1.0669e-06
1.07724e-06
1.08577e-06
1.0923e-06
1.09664e-06
1.09859e-06
1.09797e-06
1.09463e-06
1.08841e-06
1.0792e-06
1.0669e-06
1.05144e-06
1.03279e-06
1.01094e-06
9.85914e-07
9.57749e-07
9.26522e-07
8.92325e-07
8.55268e-07
8.15471e-07
7.73065e-07
7.28184e-07
6.80964e-07
6.31538e-07
5.80043e-07
5.26591e-07
4.71275e-07
4.14192e-07
3.55435e-07
2.9508e-07
2.33191e-07
1.69825e-07
1.05031e-07
3.88518e-08
-2.86747e-08
-9.75105e-08
-1.67615e-07
-2.38938e-07
-3.11445e-07
-3.85182e-07
-4.5995e-07
-5.3374e-07
-6.05703e-07
-7.05346e-07
-8.83606e-07
-7.57026e-07
5.00901e-07
4.95262e-07
4.89939e-07
4.86274e-07
4.83705e-07
4.82063e-07
4.81335e-07
4.81493e-07
4.82498e-07
4.84317e-07
4.86917e-07
4.9027e-07
4.94348e-07
4.99128e-07
5.04587e-07
5.10705e-07
5.17466e-07
5.24852e-07
5.32851e-07
5.41447e-07
5.50631e-07
5.60392e-07
5.70718e-07
5.81601e-07
5.93032e-07
6.05002e-07
6.17501e-07
6.3052e-07
6.44048e-07
6.58075e-07
6.72589e-07
6.87575e-07
7.03018e-07
7.189e-07
7.35201e-07
7.51898e-07
7.68964e-07
7.86369e-07
8.04077e-07
8.22047e-07
8.40234e-07
8.58584e-07
8.77038e-07
8.95527e-07
9.13974e-07
9.32293e-07
9.50386e-07
9.68144e-07
9.85449e-07
1.00217e-06
1.01815e-06
1.03325e-06
1.0473e-06
1.06011e-06
1.07151e-06
1.08129e-06
1.08926e-06
1.09523e-06
1.09898e-06
1.10035e-06
1.09914e-06
1.09519e-06
1.08836e-06
1.07853e-06
1.0656e-06
1.0495e-06
1.03019e-06
1.00766e-06
9.81931e-07
9.53045e-07
9.21073e-07
8.86105e-07
8.48249e-07
8.07625e-07
7.64364e-07
7.18601e-07
6.70472e-07
6.20116e-07
5.67671e-07
5.13256e-07
4.56968e-07
3.98911e-07
3.39185e-07
2.77874e-07
2.15052e-07
1.50783e-07
8.51254e-08
1.8132e-08
-5.0149e-08
-1.19671e-07
-1.90383e-07
-2.62228e-07
-3.35164e-07
-4.09237e-07
-4.84244e-07
-5.58104e-07
-6.29882e-07
-7.30119e-07
-9.1279e-07
-7.80092e-07
5.15553e-07
5.10013e-07
5.04781e-07
5.01175e-07
4.98643e-07
4.9702e-07
4.96293e-07
4.96436e-07
4.97412e-07
4.99189e-07
5.01737e-07
5.05028e-07
5.09036e-07
5.13739e-07
5.19116e-07
5.25147e-07
5.31815e-07
5.39106e-07
5.47004e-07
5.55497e-07
5.64572e-07
5.7422e-07
5.8443e-07
5.95191e-07
6.06495e-07
6.18332e-07
6.30692e-07
6.43564e-07
6.56938e-07
6.70803e-07
6.85144e-07
6.99948e-07
7.15198e-07
7.30876e-07
7.46961e-07
7.63428e-07
7.8025e-07
7.97395e-07
8.14829e-07
8.32509e-07
8.50388e-07
8.68415e-07
8.86527e-07
9.04657e-07
9.22727e-07
9.4065e-07
9.5833e-07
9.75658e-07
9.92515e-07
1.00877e-06
1.02428e-06
1.03889e-06
1.05243e-06
1.06473e-06
1.0756e-06
1.08485e-06
1.09228e-06
1.09769e-06
1.1009e-06
1.10171e-06
1.09994e-06
1.09542e-06
1.08803e-06
1.07762e-06
1.0641e-06
1.0474e-06
1.02748e-06
1.00433e-06
9.77963e-07
9.48418e-07
9.15764e-07
8.80091e-07
8.41505e-07
8.00126e-07
7.56084e-07
7.09515e-07
6.60556e-07
6.09349e-07
5.56035e-07
5.00737e-07
4.43559e-07
3.84609e-07
3.23995e-07
2.61806e-07
1.98125e-07
1.33025e-07
6.65729e-08
-1.17102e-09
-7.01493e-08
-1.40306e-07
-2.11584e-07
-2.83915e-07
-3.57254e-07
-4.31643e-07
-5.06876e-07
-5.808e-07
-6.52402e-07
-7.53154e-07
-9.39743e-07
-8.01407e-07
5.29643e-07
5.24192e-07
5.19044e-07
5.15494e-07
5.12997e-07
5.11393e-07
5.10669e-07
5.108e-07
5.11751e-07
5.13491e-07
5.1599e-07
5.19224e-07
5.23167e-07
5.27798e-07
5.33096e-07
5.39043e-07
5.45622e-07
5.52819e-07
5.60618e-07
5.69008e-07
5.77976e-07
5.87512e-07
5.97604e-07
6.08243e-07
6.19418e-07
6.3112e-07
6.43338e-07
6.56062e-07
6.6928e-07
6.82978e-07
6.97145e-07
7.11764e-07
7.26818e-07
7.42289e-07
7.58154e-07
7.74388e-07
7.90963e-07
8.07848e-07
8.25006e-07
8.42394e-07
8.59967e-07
8.77669e-07
8.9544e-07
9.13212e-07
9.30907e-07
9.48439e-07
9.65711e-07
9.82615e-07
9.99033e-07
1.01483e-06
1.02988e-06
1.04401e-06
1.05706e-06
1.06886e-06
1.07922e-06
1.08795e-06
1.09486e-06
1.09976e-06
1.10244e-06
1.10272e-06
1.10042e-06
1.09537e-06
1.08744e-06
1.07649e-06
1.06243e-06
1.04518e-06
1.0247e-06
1.00098e-06
9.74024e-07
9.43876e-07
9.106e-07
8.74283e-07
8.35031e-07
7.92962e-07
7.48206e-07
7.00901e-07
6.51184e-07
5.99198e-07
5.45089e-07
4.88984e-07
4.3099e-07
3.71222e-07
3.09791e-07
2.46797e-07
1.82326e-07
1.16461e-07
4.92757e-08
-1.91616e-08
-8.87852e-08
-1.59532e-07
-2.31334e-07
-3.0412e-07
-3.77835e-07
-4.5252e-07
-5.27959e-07
-6.01938e-07
-6.73366e-07
-7.74555e-07
-9.64575e-07
-8.2105e-07
5.43179e-07
5.37812e-07
5.32742e-07
5.29243e-07
5.26781e-07
5.25195e-07
5.24475e-07
5.24595e-07
5.25524e-07
5.2723e-07
5.29686e-07
5.32866e-07
5.36748e-07
5.4131e-07
5.46533e-07
5.52399e-07
5.58892e-07
5.65997e-07
5.73699e-07
5.81987e-07
5.90849e-07
6.00272e-07
6.10247e-07
6.20763e-07
6.31809e-07
6.43375e-07
6.55451e-07
6.68024e-07
6.81083e-07
6.94614e-07
7.08604e-07
7.23036e-07
7.37893e-07
7.53155e-07
7.68798e-07
7.84798e-07
8.01127e-07
8.1775e-07
8.34632e-07
8.51729e-07
8.68995e-07
8.86375e-07
9.03808e-07
9.21225e-07
9.3855e-07
9.55696e-07
9.72566e-07
9.89053e-07
1.00504e-06
1.0204e-06
1.03498e-06
1.04865e-06
1.06122e-06
1.07254e-06
1.08241e-06
1.09065e-06
1.09707e-06
1.10146e-06
1.10364e-06
1.10342e-06
1.10062e-06
1.09508e-06
1.08664e-06
1.07519e-06
1.06063e-06
1.04287e-06
1.02187e-06
9.97624e-07
9.7013e-07
9.39428e-07
9.05583e-07
8.68679e-07
8.28819e-07
7.8612e-07
7.40714e-07
6.92736e-07
6.42326e-07
5.89629e-07
5.34793e-07
4.77949e-07
4.19208e-07
3.58688e-07
2.96508e-07
2.32773e-07
1.67576e-07
1.01005e-07
3.31423e-08
-3.59365e-08
-1.06158e-07
-1.77452e-07
-2.49744e-07
-3.22954e-07
-3.97019e-07
-4.71978e-07
-5.47607e-07
-6.21629e-07
-6.92887e-07
-7.94441e-07
-9.87429e-07
-8.39126e-07
5.56171e-07
5.50882e-07
5.45885e-07
5.42435e-07
5.40004e-07
5.38437e-07
5.37721e-07
5.37833e-07
5.38742e-07
5.40417e-07
5.42832e-07
5.45962e-07
5.49786e-07
5.54283e-07
5.59434e-07
5.65222e-07
5.71631e-07
5.78645e-07
5.86253e-07
5.94441e-07
6.03196e-07
6.12508e-07
6.22366e-07
6.32759e-07
6.43676e-07
6.55106e-07
6.67038e-07
6.7946e-07
6.9236e-07
7.05723e-07
7.19535e-07
7.3378e-07
7.48438e-07
7.6349e-07
7.78912e-07
7.94678e-07
8.10759e-07
8.27122e-07
8.43729e-07
8.60537e-07
8.77499e-07
8.94559e-07
9.11658e-07
9.28726e-07
9.45686e-07
9.62452e-07
9.78928e-07
9.95008e-07
1.01057e-06
1.0255e-06
1.03964e-06
1.05285e-06
1.06497e-06
1.07582e-06
1.08522e-06
1.09299e-06
1.09893e-06
1.10284e-06
1.10455e-06
1.10385e-06
1.10058e-06
1.09457e-06
1.08567e-06
1.07375e-06
1.05871e-06
1.04049e-06
1.01901e-06
9.9428e-07
9.66292e-07
9.35085e-07
9.00719e-07
8.63278e-07
8.22863e-07
7.79591e-07
7.33591e-07
6.84999e-07
6.33957e-07
5.8061e-07
5.25108e-07
4.67587e-07
4.08161e-07
3.46952e-07
2.84084e-07
2.19666e-07
1.53799e-07
8.65772e-08
1.8088e-08
-5.15853e-08
-1.22363e-07
-1.94166e-07
-2.66915e-07
-3.40521e-07
-4.14914e-07
-4.90129e-07
-5.65931e-07
-6.39987e-07
-7.11081e-07
-8.12943e-07
-1.00846e-06
-8.55758e-07
5.68627e-07
5.63411e-07
5.58482e-07
5.55078e-07
5.52678e-07
5.51128e-07
5.50417e-07
5.50523e-07
5.51413e-07
5.53059e-07
5.55436e-07
5.58519e-07
5.62288e-07
5.66723e-07
5.71805e-07
5.77517e-07
5.83844e-07
5.90771e-07
5.98286e-07
6.06375e-07
6.15026e-07
6.24228e-07
6.33969e-07
6.4424e-07
6.55028e-07
6.66322e-07
6.78111e-07
6.90382e-07
7.03122e-07
7.16317e-07
7.29952e-07
7.44008e-07
7.58469e-07
7.73311e-07
7.88513e-07
8.04046e-07
8.19881e-07
8.35985e-07
8.5232e-07
8.68841e-07
8.85503e-07
9.02248e-07
9.19018e-07
9.35742e-07
9.52344e-07
9.68738e-07
9.84829e-07
1.00051e-06
1.01567e-06
1.03017e-06
1.04389e-06
1.05666e-06
1.06833e-06
1.07873e-06
1.08768e-06
1.09499e-06
1.10048e-06
1.10394e-06
1.1052e-06
1.10405e-06
1.10034e-06
1.09388e-06
1.08454e-06
1.07219e-06
1.05672e-06
1.03805e-06
1.01614e-06
9.90962e-07
9.62521e-07
9.30852e-07
8.96011e-07
8.58081e-07
8.1716e-07
7.73364e-07
7.26822e-07
6.7767e-07
6.2605e-07
5.72109e-07
5.15999e-07
4.57858e-07
3.97803e-07
3.35961e-07
2.7246e-07
2.07414e-07
1.40928e-07
7.3104e-08
4.03428e-09
-6.61913e-08
-1.37486e-07
-2.09766e-07
-2.82942e-07
-3.56919e-07
-4.31622e-07
-5.07076e-07
-5.83039e-07
-6.57124e-07
-7.28069e-07
-8.30194e-07
-1.02785e-06
-8.71078e-07
5.80556e-07
5.75408e-07
5.70544e-07
5.67183e-07
5.64812e-07
5.63279e-07
5.62573e-07
5.62672e-07
5.63545e-07
5.65165e-07
5.67506e-07
5.70545e-07
5.74262e-07
5.78637e-07
5.83652e-07
5.89291e-07
5.95539e-07
6.02381e-07
6.09804e-07
6.17796e-07
6.26344e-07
6.35437e-07
6.45064e-07
6.55213e-07
6.65873e-07
6.77032e-07
6.88678e-07
7.00799e-07
7.1338e-07
7.26408e-07
7.39865e-07
7.53736e-07
7.67999e-07
7.82634e-07
7.97616e-07
8.12919e-07
8.28511e-07
8.44359e-07
8.60425e-07
8.76665e-07
8.9303e-07
9.09466e-07
9.25913e-07
9.423e-07
9.58553e-07
9.74584e-07
9.903e-07
1.0056e-06