/*--------------------------------*- C++ -*----------------------------------*\
  =========                 |
  \\      /  F ield         | OpenFOAM: The Open Source CFD Toolbox
   \\    /   O peration     | Website:  https://openfoam.org
    \\  /    A nd           | Version:  11
     \\/     M anipulation  |
\*---------------------------------------------------------------------------*/
FoamFile
{
    format      ascii;
    class       surfaceScalarField;
    location    "690";
    object      phi;
}
// * * * * * * * * * * * * * * * * * * * * * * * * * * * * * * * * * * * * * //

dimensions      [0 3 -1 0 0 0 0];

internalField   nonuniform List<scalar> 
19800
(
2e-05
-1.31187e-10
1.99999e-05
-3.79276e-10
1.99999e-05
-6.22606e-10
1.99998e-05
-8.67939e-10
1.99997e-05
-1.12149e-09
1.99996e-05
-1.38787e-09
1.99995e-05
-1.6708e-09
1.99994e-05
-1.97345e-09
1.99993e-05
-2.29872e-09
1.99991e-05
-2.64937e-09
1.99989e-05
-3.02806e-09
1.99988e-05
-3.43746e-09
1.99986e-05
-3.88026e-09
1.99983e-05
-4.35923e-09
1.99981e-05
-4.87718e-09
1.99978e-05
-5.43704e-09
1.99975e-05
-6.04183e-09
1.99972e-05
-6.69471e-09
1.99969e-05
-7.39893e-09
1.99965e-05
-8.15789e-09
1.99961e-05
-8.97515e-09
1.99956e-05
-9.85439e-09
1.99952e-05
-1.07995e-08
1.99947e-05
-1.18144e-08
1.99941e-05
-1.29033e-08
1.99935e-05
-1.40705e-08
1.99929e-05
-1.53206e-08
1.99922e-05
-1.66582e-08
1.99914e-05
-1.80882e-08
1.99906e-05
-1.96157e-08
1.99898e-05
-2.12459e-08
1.99889e-05
-2.29842e-08
1.99879e-05
-2.48363e-08
1.99869e-05
-2.68079e-08
1.99858e-05
-2.89051e-08
1.99846e-05
-3.11341e-08
1.99833e-05
-3.35013e-08
1.9982e-05
-3.60132e-08
1.99805e-05
-3.86766e-08
1.9979e-05
-4.14985e-08
1.99774e-05
-4.44861e-08
1.99757e-05
-4.76467e-08
1.99739e-05
-5.09877e-08
1.99719e-05
-5.45169e-08
1.99699e-05
-5.82421e-08
1.99677e-05
-6.21713e-08
1.99655e-05
-6.63125e-08
1.9963e-05
-7.06741e-08
1.99605e-05
-7.52644e-08
1.99578e-05
-8.00919e-08
1.99549e-05
-8.51651e-08
1.99519e-05
-9.04927e-08
1.99488e-05
-9.60832e-08
1.99454e-05
-1.01945e-07
1.99419e-05
-1.08088e-07
1.99382e-05
-1.14519e-07
1.99344e-05
-1.21248e-07
1.99303e-05
-1.28283e-07
1.9926e-05
-1.35632e-07
1.99216e-05
-1.43302e-07
1.99169e-05
-1.51303e-07
1.9912e-05
-1.59641e-07
1.99069e-05
-1.68324e-07
1.99015e-05
-1.77358e-07
1.98959e-05
-1.86749e-07
1.98901e-05
-1.96503e-07
1.9884e-05
-2.06625e-07
1.98777e-05
-2.17119e-07
1.98711e-05
-2.27987e-07
1.98643e-05
-2.39232e-07
1.98572e-05
-2.50855e-07
1.98498e-05
-2.62856e-07
1.98422e-05
-2.75232e-07
1.98343e-05
-2.87979e-07
1.98262e-05
-3.01093e-07
1.98178e-05
-3.14565e-07
1.98091e-05
-3.28386e-07
1.98002e-05
-3.42541e-07
1.97911e-05
-3.57016e-07
1.97817e-05
-3.7179e-07
1.97722e-05
-3.86839e-07
1.97624e-05
-4.02136e-07
1.97525e-05
-4.17645e-07
1.97424e-05
-4.33328e-07
1.97322e-05
-4.49137e-07
1.9722e-05
-4.65017e-07
1.97117e-05
-4.80903e-07
1.97014e-05
-4.96721e-07
1.96912e-05
-5.1238e-07
1.96811e-05
-5.27777e-07
1.96712e-05
-5.42791e-07
1.96616e-05
-5.5728e-07
1.96524e-05
-5.71079e-07
1.96437e-05
-5.83995e-07
1.96356e-05
-5.95807e-07
1.96282e-05
-6.06265e-07
1.96218e-05
-6.15086e-07
1.96165e-05
-6.21961e-07
1.96126e-05
-6.2662e-07
-6.29151e-07
2e-05
-1.10417e-10
1.99999e-05
-3.36718e-10
1.99999e-05
-5.65689e-10
1.99998e-05
-7.98584e-10
1.99997e-05
-1.04004e-09
1.99996e-05
-1.2941e-09
1.99995e-05
-1.56417e-09
1.99994e-05
-1.85325e-09
1.99993e-05
-2.16411e-09
1.99991e-05
-2.4994e-09
1.9999e-05
-2.8617e-09
1.99988e-05
-3.2536e-09
1.99986e-05
-3.67771e-09
1.99983e-05
-4.13671e-09
1.99981e-05
-4.63334e-09
1.99978e-05
-5.17043e-09
1.99975e-05
-5.75093e-09
1.99972e-05
-6.3779e-09
1.99969e-05
-7.0545e-09
1.99965e-05
-7.78404e-09
1.99961e-05
-8.56998e-09
1.99957e-05
-9.4159e-09
1.99952e-05
-1.03255e-08
1.99947e-05
-1.13028e-08
1.99941e-05
-1.23517e-08
1.99935e-05
-1.34766e-08
1.99929e-05
-1.46817e-08
1.99922e-05
-1.59717e-08
1.99915e-05
-1.73513e-08
1.99907e-05
-1.88254e-08
1.99898e-05
-2.03992e-08
1.99889e-05
-2.20779e-08
1.9988e-05
-2.3867e-08
1.99869e-05
-2.57722e-08
1.99858e-05
-2.77994e-08
1.99846e-05
-2.99546e-08
1.99834e-05
-3.2244e-08
1.9982e-05
-3.46742e-08
1.99806e-05
-3.72517e-08
1.99791e-05
-3.99833e-08
1.99775e-05
-4.28761e-08
1.99758e-05
-4.59372e-08
1.9974e-05
-4.91739e-08
1.9972e-05
-5.25938e-08
1.997e-05
-5.62046e-08
1.99679e-05
-6.0014e-08
1.99656e-05
-6.40302e-08
1.99632e-05
-6.82611e-08
1.99606e-05
-7.27151e-08
1.99579e-05
-7.74004e-08
1.99551e-05
-8.23254e-08
1.99521e-05
-8.74988e-08
1.99489e-05
-9.29289e-08
1.99456e-05
-9.86245e-08
1.99421e-05
-1.04594e-07
1.99384e-05
-1.10846e-07
1.99346e-05
-1.17389e-07
1.99305e-05
-1.24232e-07
1.99263e-05
-1.31382e-07
1.99218e-05
-1.38847e-07
1.99172e-05
-1.46637e-07
1.99123e-05
-1.54757e-07
1.99072e-05
-1.63216e-07
1.99018e-05
-1.72021e-07
1.98963e-05
-1.81177e-07
1.98904e-05
-1.9069e-07
1.98844e-05
-2.00567e-07
1.98781e-05
-2.1081e-07
1.98715e-05
-2.21424e-07
1.98647e-05
-2.32412e-07
1.98576e-05
-2.43776e-07
1.98503e-05
-2.55514e-07
1.98427e-05
-2.67628e-07
1.98348e-05
-2.80114e-07
1.98267e-05
-2.92968e-07
1.98183e-05
-3.06183e-07
1.98097e-05
-3.19752e-07
1.98008e-05
-3.33663e-07
1.97917e-05
-3.47902e-07
1.97823e-05
-3.62452e-07
1.97728e-05
-3.77292e-07
1.9763e-05
-3.92397e-07
1.97531e-05
-4.07736e-07
1.97431e-05
-4.23274e-07
1.97329e-05
-4.38969e-07
1.97227e-05
-4.54769e-07
1.97124e-05
-4.70616e-07
1.97021e-05
-4.86441e-07
1.96919e-05
-5.02162e-07
1.96818e-05
-5.17683e-07
1.96719e-05
-5.32891e-07
1.96623e-05
-5.47654e-07
1.9653e-05
-5.61817e-07
1.96442e-05
-5.75199e-07
1.9636e-05
-5.87592e-07
1.96285e-05
-5.98756e-07
1.96218e-05
-6.08416e-07
1.96161e-05
-6.16258e-07
1.96114e-05
-6.21961e-07
-6.25344e-07
2e-05
-9.48397e-11
1.99999e-05
-2.98974e-10
1.99999e-05
-5.11495e-10
1.99998e-05
-7.30747e-10
1.99997e-05
-9.59521e-10
1.99997e-05
-1.201e-09
1.99995e-05
-1.45814e-09
1.99994e-05
-1.73367e-09
1.99993e-05
-2.0302e-09
1.99991e-05
-2.35024e-09
1.9999e-05
-2.69629e-09
1.99988e-05
-3.07084e-09
1.99986e-05
-3.47642e-09
1.99984e-05
-3.91561e-09
1.99981e-05
-4.39109e-09
1.99979e-05
-4.9056e-09
1.99976e-05
-5.46199e-09
1.99973e-05
-6.06324e-09
1.99969e-05
-6.71243e-09
1.99965e-05
-7.41277e-09
1.99961e-05
-8.16761e-09
1.99957e-05
-8.98044e-09
1.99952e-05
-9.8549e-09
1.99947e-05
-1.07948e-08
1.99942e-05
-1.1804e-08
1.99936e-05
-1.28867e-08
1.9993e-05
-1.40472e-08
1.99923e-05
-1.52898e-08
1.99915e-05
-1.66193e-08
1.99908e-05
-1.80404e-08
1.99899e-05
-1.95581e-08
1.9989e-05
-2.11776e-08
1.99881e-05
-2.29041e-08
1.9987e-05
-2.47433e-08
1.99859e-05
-2.67009e-08
1.99848e-05
-2.87827e-08
1.99835e-05
-3.0995e-08
1.99822e-05
-3.33439e-08
1.99808e-05
-3.58359e-08
1.99793e-05
-3.84777e-08
1.99777e-05
-4.12762e-08
1.9976e-05
-4.42383e-08
1.99742e-05
-4.73713e-08
1.99722e-05
-5.06825e-08
1.99702e-05
-5.41795e-08
1.99681e-05
-5.78699e-08
1.99658e-05
-6.17617e-08
1.99634e-05
-6.58626e-08
1.99609e-05
-7.01809e-08
1.99582e-05
-7.47248e-08
1.99554e-05
-7.95025e-08
1.99524e-05
-8.45224e-08
1.99493e-05
-8.9793e-08
1.9946e-05
-9.53228e-08
1.99425e-05
-1.0112e-07
1.99388e-05
-1.07194e-07
1.9935e-05
-1.13552e-07
1.9931e-05
-1.20203e-07
1.99267e-05
-1.27155e-07
1.99223e-05
-1.34417e-07
1.99177e-05
-1.41996e-07
1.99128e-05
-1.499e-07
1.99077e-05
-1.58136e-07
1.99024e-05
-1.66712e-07
1.98969e-05
-1.75633e-07
1.98911e-05
-1.84907e-07
1.98851e-05
-1.94539e-07
1.98788e-05
-2.04533e-07
1.98723e-05
-2.14895e-07
1.98655e-05
-2.25626e-07
1.98584e-05
-2.3673e-07
1.98511e-05
-2.48209e-07
1.98436e-05
-2.60061e-07
1.98357e-05
-2.72285e-07
1.98276e-05
-2.84879e-07
1.98193e-05
-2.97838e-07
1.98107e-05
-3.11155e-07
1.98019e-05
-3.24821e-07
1.97928e-05
-3.38824e-07
1.97835e-05
-3.53149e-07
1.9774e-05
-3.67778e-07
1.97643e-05
-3.8269e-07
1.97544e-05
-3.97856e-07
1.97443e-05
-4.13246e-07
1.97342e-05
-4.2882e-07
1.9724e-05
-4.44535e-07
1.97137e-05
-4.60336e-07
1.97034e-05
-4.76159e-07
1.96932e-05
-4.9193e-07
1.9683e-05
-5.07559e-07
1.96731e-05
-5.22942e-07
1.96634e-05
-5.37954e-07
1.9654e-05
-5.52448e-07
1.96451e-05
-5.66253e-07
1.96367e-05
-5.79164e-07
1.96288e-05
-5.90943e-07
1.96217e-05
-6.01308e-07
1.96154e-05
-6.0992e-07
1.96098e-05
-6.16395e-07
-6.20373e-07
2e-05
-8.24785e-11
2e-05
-2.65719e-10
1.99999e-05
-4.61101e-10
1.99998e-05
-6.65713e-10
1.99998e-05
-8.81066e-10
1.99997e-05
-1.10951e-09
1.99996e-05
-1.35347e-09
1.99994e-05
-1.61536e-09
1.99993e-05
-1.89757e-09
1.99992e-05
-2.20245e-09
1.9999e-05
-2.53237e-09
1.99988e-05
-2.88972e-09
1.99986e-05
-3.27694e-09
1.99984e-05
-3.69654e-09
1.99982e-05
-4.15108e-09
1.99979e-05
-4.64324e-09
1.99976e-05
-5.17578e-09
1.99973e-05
-5.75158e-09
1.9997e-05
-6.37362e-09
1.99966e-05
-7.04505e-09
1.99962e-05
-7.76909e-09
1.99958e-05
-8.54915e-09
1.99953e-05
-9.38876e-09
1.99948e-05
-1.02916e-08
1.99943e-05
-1.12615e-08
1.99937e-05
-1.23025e-08
1.9993e-05
-1.34187e-08
1.99924e-05
-1.46144e-08
1.99916e-05
-1.58942e-08
1.99909e-05
-1.72628e-08
1.999e-05
-1.87249e-08
1.99891e-05
-2.02856e-08
1.99882e-05
-2.19501e-08
1.99872e-05
-2.37239e-08
1.99861e-05
-2.56124e-08
1.99849e-05
-2.76215e-08
1.99837e-05
-2.97571e-08
1.99824e-05
-3.20254e-08
1.9981e-05
-3.44327e-08
1.99795e-05
-3.69854e-08
1.99779e-05
-3.96903e-08
1.99762e-05
-4.25543e-08
1.99744e-05
-4.55843e-08
1.99725e-05
-4.87877e-08
1.99705e-05
-5.21718e-08
1.99684e-05
-5.57441e-08
1.99661e-05
-5.95123e-08
1.99637e-05
-6.34842e-08
1.99612e-05
-6.76679e-08
1.99586e-05
-7.20713e-08
1.99558e-05
-7.67027e-08
1.99528e-05
-8.15703e-08
1.99497e-05
-8.66825e-08
1.99464e-05
-9.20476e-08
1.9943e-05
-9.76741e-08
1.99394e-05
-1.0357e-07
1.99356e-05
-1.09745e-07
1.99316e-05
-1.16206e-07
1.99274e-05
-1.22962e-07
1.9923e-05
-1.30021e-07
1.99184e-05
-1.37391e-07
1.99136e-05
-1.45079e-07
1.99085e-05
-1.53094e-07
1.99032e-05
-1.61442e-07
1.98977e-05
-1.70131e-07
1.9892e-05
-1.79167e-07
1.9886e-05
-1.88555e-07
1.98798e-05
-1.98302e-07
1.98733e-05
-2.08411e-07
1.98666e-05
-2.18888e-07
1.98596e-05
-2.29734e-07
1.98523e-05
-2.40952e-07
1.98448e-05
-2.52543e-07
1.9837e-05
-2.64507e-07
1.9829e-05
-2.76842e-07
1.98207e-05
-2.89545e-07
1.98121e-05
-3.0261e-07
1.98034e-05
-3.1603e-07
1.97943e-05
-3.29796e-07
1.97851e-05
-3.43895e-07
1.97756e-05
-3.58311e-07
1.97659e-05
-3.73026e-07
1.97561e-05
-3.88016e-07
1.97461e-05
-4.03252e-07
1.9736e-05
-4.18701e-07
1.97258e-05
-4.34321e-07
1.97155e-05
-4.50065e-07
1.97052e-05
-4.65874e-07
1.9695e-05
-4.81678e-07
1.96848e-05
-4.97396e-07
1.96748e-05
-5.12927e-07
1.9665e-05
-5.28155e-07
1.96555e-05
-5.42938e-07
1.96463e-05
-5.57108e-07
1.96376e-05
-5.70461e-07
1.96294e-05
-5.82753e-07
1.96218e-05
-5.93686e-07
1.96148e-05
-6.02886e-07
1.96083e-05
-6.09912e-07
-6.14357e-07
2e-05
-7.21446e-11
2e-05
-2.36217e-10
1.99999e-05
-4.14629e-10
1.99999e-05
-6.04133e-10
1.99998e-05
-8.05515e-10
1.99997e-05
-1.02048e-09
1.99996e-05
-1.25098e-09
1.99995e-05
-1.49907e-09
1.99993e-05
-1.76691e-09
1.99992e-05
-2.05666e-09
1.9999e-05
-2.37055e-09
1.99989e-05
-2.71086e-09
1.99987e-05
-3.07992e-09
1.99984e-05
-3.48013e-09
1.99982e-05
-3.91399e-09
1.99979e-05
-4.38406e-09
1.99977e-05
-4.89304e-09
1.99974e-05
-5.44369e-09
1.9997e-05
-6.03894e-09
1.99967e-05
-6.68179e-09
1.99963e-05
-7.37541e-09
1.99958e-05
-8.1231e-09
1.99954e-05
-8.92827e-09
1.99949e-05
-9.7945e-09
1.99943e-05
-1.07255e-08
1.99938e-05
-1.17253e-08
1.99931e-05
-1.27977e-08
1.99925e-05
-1.39471e-08
1.99918e-05
-1.51778e-08
1.9991e-05
-1.64943e-08
1.99902e-05
-1.79015e-08
1.99893e-05
-1.94041e-08
1.99883e-05
-2.10072e-08
1.99873e-05
-2.27162e-08
1.99863e-05
-2.45364e-08
1.99851e-05
-2.64735e-08
1.99839e-05
-2.85333e-08
1.99826e-05
-3.07218e-08
1.99812e-05
-3.30451e-08
1.99797e-05
-3.55097e-08
1.99782e-05
-3.8122e-08
1.99765e-05
-4.08888e-08
1.99747e-05
-4.38169e-08
1.99728e-05
-4.69135e-08
1.99709e-05
-5.01857e-08
1.99688e-05
-5.3641e-08
1.99665e-05
-5.72869e-08
1.99642e-05
-6.1131e-08
1.99617e-05
-6.51813e-08
1.99591e-05
-6.94456e-08
1.99563e-05
-7.3932e-08
1.99534e-05
-7.86487e-08
1.99503e-05
-8.36038e-08
1.99471e-05
-8.88058e-08
1.99436e-05
-9.42629e-08
1.99401e-05
-9.99834e-08
1.99363e-05
-1.05976e-07
1.99323e-05
-1.12248e-07
1.99282e-05
-1.1881e-07
1.99238e-05
-1.25667e-07
1.99193e-05
-1.3283e-07
1.99145e-05
-1.40305e-07
1.99095e-05
-1.481e-07
1.99043e-05
-1.56223e-07
1.98988e-05
-1.6468e-07
1.98931e-05
-1.73479e-07
1.98872e-05
-1.82626e-07
1.9881e-05
-1.92127e-07
1.98746e-05
-2.01986e-07
1.98679e-05
-2.12208e-07
1.9861e-05
-2.22798e-07
1.98538e-05
-2.33758e-07
1.98463e-05
-2.45089e-07
1.98386e-05
-2.56793e-07
1.98307e-05
-2.6887e-07
1.98224e-05
-2.81316e-07
1.98139e-05
-2.94129e-07
1.98052e-05
-3.07303e-07
1.97963e-05
-3.20831e-07
1.97871e-05
-3.34701e-07
1.97776e-05
-3.48902e-07
1.9768e-05
-3.63417e-07
1.97582e-05
-3.78225e-07
1.97483e-05
-3.93301e-07
1.97382e-05
-4.08616e-07
1.9728e-05
-4.24133e-07
1.97178e-05
-4.39807e-07
1.97075e-05
-4.55585e-07
1.96972e-05
-4.71403e-07
1.9687e-05
-4.87184e-07
1.96769e-05
-5.02833e-07
1.9667e-05
-5.18237e-07
1.96573e-05
-5.33259e-07
1.96479e-05
-5.47731e-07
1.96389e-05
-5.61447e-07
1.96303e-05
-5.74154e-07
1.96222e-05
-5.85533e-07
1.96144e-05
-5.95177e-07
1.96071e-05
-6.02582e-07
-6.07341e-07
2e-05
-6.32132e-11
2e-05
-2.09766e-10
1.99999e-05
-3.71812e-10
1.99999e-05
-5.46198e-10
1.99998e-05
-7.33353e-10
1.99997e-05
-9.34546e-10
1.99996e-05
-1.15134e-09
1.99995e-05
-1.38549e-09
1.99994e-05
-1.63889e-09
1.99992e-05
-1.91353e-09
1.99991e-05
-2.21149e-09
1.99989e-05
-2.5349e-09
1.99987e-05
-2.88599e-09
1.99985e-05
-3.26705e-09
1.99982e-05
-3.68049e-09
1.9998e-05
-4.12879e-09
1.99977e-05
-4.61452e-09
1.99974e-05
-5.14039e-09
1.99971e-05
-5.70921e-09
1.99967e-05
-6.3239e-09
1.99963e-05
-6.98753e-09
1.99959e-05
-7.70329e-09
1.99955e-05
-8.47451e-09
1.9995e-05
-9.30465e-09
1.99944e-05
-1.01974e-08
1.99939e-05
-1.11564e-08
1.99933e-05
-1.21856e-08
1.99926e-05
-1.32893e-08
1.99919e-05
-1.44715e-08
1.99911e-05
-1.57367e-08
1.99903e-05
-1.70896e-08
1.99895e-05
-1.85349e-08
1.99885e-05
-2.00774e-08
1.99875e-05
-2.17225e-08
1.99865e-05
-2.34752e-08
1.99853e-05
-2.53412e-08
1.99841e-05
-2.73262e-08
1.99828e-05
-2.94358e-08
1.99815e-05
-3.16762e-08
1.998e-05
-3.40536e-08
1.99785e-05
-3.65744e-08
1.99768e-05
-3.92451e-08
1.99751e-05
-4.20725e-08
1.99732e-05
-4.50635e-08
1.99713e-05
-4.82252e-08
1.99692e-05
-5.15648e-08
1.9967e-05
-5.50897e-08
1.99647e-05
-5.88075e-08
1.99622e-05
-6.27259e-08
1.99596e-05
-6.68526e-08
1.99569e-05
-7.11956e-08
1.9954e-05
-7.57629e-08
1.9951e-05
-8.05627e-08
1.99478e-05
-8.56032e-08
1.99444e-05
-9.08926e-08
1.99409e-05
-9.64392e-08
1.99371e-05
-1.02251e-07
1.99332e-05
-1.08337e-07
1.99291e-05
-1.14706e-07
1.99248e-05
-1.21364e-07
1.99203e-05
-1.28321e-07
1.99156e-05
-1.35584e-07
1.99106e-05
-1.43162e-07
1.99055e-05
-1.51061e-07
1.99001e-05
-1.5929e-07
1.98945e-05
-1.67854e-07
1.98886e-05
-1.76761e-07
1.98825e-05
-1.86017e-07
1.98761e-05
-1.95628e-07
1.98695e-05
-2.05599e-07
1.98627e-05
-2.15933e-07
1.98555e-05
-2.26635e-07
1.98482e-05
-2.37708e-07
1.98405e-05
-2.49154e-07
1.98326e-05
-2.60972e-07
1.98245e-05
-2.73162e-07
1.98161e-05
-2.85723e-07
1.98074e-05
-2.9865e-07
1.97985e-05
-3.11938e-07
1.97894e-05
-3.25578e-07
1.978e-05
-3.3956e-07
1.97705e-05
-3.5387e-07
1.97608e-05
-3.6849e-07
1.97509e-05
-3.83399e-07
1.97408e-05
-3.98571e-07
1.97307e-05
-4.13971e-07
1.97204e-05
-4.29561e-07
1.97101e-05
-4.4529e-07
1.96998e-05
-4.61099e-07
1.96895e-05
-4.76914e-07
1.96794e-05
-4.92646e-07
1.96693e-05
-5.08184e-07
1.96594e-05
-5.23392e-07
1.96498e-05
-5.38103e-07
1.96405e-05
-5.52105e-07
1.96314e-05
-5.65134e-07
1.96228e-05
-5.76854e-07
1.96144e-05
-5.86827e-07
1.96063e-05
-5.94501e-07
-5.99421e-07
2e-05
-5.52999e-11
2e-05
-1.85813e-10
1.99999e-05
-3.32293e-10
1.99999e-05
-4.91857e-10
1.99998e-05
-6.64795e-10
1.99997e-05
-8.52107e-10
1.99996e-05
-1.05507e-09
1.99995e-05
-1.27519e-09
1.99994e-05
-1.51413e-09
1.99993e-05
-1.7737e-09
1.99991e-05
-2.05582e-09
1.99989e-05
-2.36248e-09
1.99987e-05
-2.6958e-09
1.99985e-05
-3.05797e-09
1.99983e-05
-3.45128e-09
1.9998e-05
-3.87811e-09
1.99978e-05
-4.34096e-09
1.99975e-05
-4.84244e-09
1.99971e-05
-5.38525e-09
1.99968e-05
-5.97224e-09
1.99964e-05
-6.60636e-09
1.9996e-05
-7.29071e-09
1.99956e-05
-8.02851e-09
1.99951e-05
-8.82313e-09
1.99946e-05
-9.67809e-09
1.9994e-05
-1.05971e-08
1.99934e-05
-1.15838e-08
1.99927e-05
-1.26424e-08
1.99921e-05
-1.37769e-08
1.99913e-05
-1.49916e-08
1.99905e-05
-1.6291e-08
1.99897e-05
-1.76798e-08
1.99887e-05
-1.91626e-08
1.99878e-05
-2.07446e-08
1.99867e-05
-2.24309e-08
1.99856e-05
-2.42269e-08
1.99844e-05
-2.61379e-08
1.99832e-05
-2.81699e-08
1.99818e-05
-3.03285e-08
1.99804e-05
-3.262e-08
1.99788e-05
-3.50505e-08
1.99772e-05
-3.76265e-08
1.99755e-05
-4.03545e-08
1.99737e-05
-4.32413e-08
1.99718e-05
-4.62939e-08
1.99697e-05
-4.95193e-08
1.99675e-05
-5.29248e-08
1.99653e-05
-5.65178e-08
1.99628e-05
-6.03059e-08
1.99603e-05
-6.42967e-08
1.99576e-05
-6.84981e-08
1.99547e-05
-7.29179e-08
1.99517e-05
-7.75643e-08
1.99486e-05
-8.24452e-08
1.99453e-05
-8.75689e-08
1.99418e-05
-9.29437e-08
1.99381e-05
-9.85777e-08
1.99342e-05
-1.04479e-07
1.99302e-05
-1.10657e-07
1.99259e-05
-1.17118e-07
1.99215e-05
-1.23872e-07
1.99168e-05
-1.30926e-07
1.9912e-05
-1.38288e-07
1.99069e-05
-1.45966e-07
1.99015e-05
-1.53967e-07
1.9896e-05
-1.62299e-07
1.98902e-05
-1.70969e-07
1.98842e-05
-1.79982e-07
1.98779e-05
-1.89347e-07
1.98713e-05
-1.99067e-07
1.98646e-05
-2.09148e-07
1.98575e-05
-2.19594e-07
1.98502e-05
-2.3041e-07
1.98427e-05
-2.41597e-07
1.98348e-05
-2.53158e-07
1.98268e-05
-2.65093e-07
1.98184e-05
-2.77401e-07
1.98099e-05
-2.90079e-07
1.98011e-05
-3.03125e-07
1.9792e-05
-3.16532e-07
1.97828e-05
-3.30291e-07
1.97733e-05
-3.44391e-07
1.97636e-05
-3.58817e-07
1.97537e-05
-3.7355e-07
1.97437e-05
-3.88567e-07
1.97336e-05
-4.03837e-07
1.97234e-05
-4.19325e-07
1.97131e-05
-4.34985e-07
1.97027e-05
-4.50759e-07
1.96924e-05
-4.66579e-07
1.96821e-05
-4.82357e-07
1.96719e-05
-4.97984e-07
1.96618e-05
-5.13326e-07
1.9652e-05
-5.28212e-07
1.96423e-05
-5.42427e-07
1.96328e-05
-5.55697e-07
1.96237e-05
-5.67669e-07
1.96147e-05
-5.77881e-07
1.9606e-05
-5.85751e-07
-5.90697e-07
2e-05
-4.81696e-11
2e-05
-1.63933e-10
1.99999e-05
-2.95718e-10
1.99999e-05
-4.40946e-10
1.99998e-05
-5.99887e-10
1.99997e-05
-7.73388e-10
1.99996e-05
-9.62532e-10
1.99995e-05
-1.16862e-09
1.99994e-05
-1.39313e-09
1.99993e-05
-1.63771e-09
1.99991e-05
-1.9041e-09
1.9999e-05
-2.19419e-09
1.99988e-05
-2.50996e-09
1.99986e-05
-2.8535e-09
1.99983e-05
-3.22699e-09
1.99981e-05
-3.63271e-09
1.99978e-05
-4.07307e-09
1.99975e-05
-4.55058e-09
1.99972e-05
-5.06784e-09
1.99969e-05
-5.62761e-09
1.99965e-05
-6.23275e-09
1.99961e-05
-6.88624e-09
1.99957e-05
-7.59122e-09
1.99952e-05
-8.35096e-09
1.99947e-05
-9.16885e-09
1.99941e-05
-1.00484e-08
1.99935e-05
-1.09935e-08
1.99929e-05
-1.20077e-08
1.99922e-05
-1.30953e-08
1.99915e-05
-1.42604e-08
1.99907e-05
-1.55072e-08
1.99899e-05
-1.68404e-08
1.9989e-05
-1.82645e-08
1.9988e-05
-1.97845e-08
1.9987e-05
-2.14054e-08
1.99859e-05
-2.31324e-08
1.99847e-05
-2.49708e-08
1.99835e-05
-2.69262e-08
1.99822e-05
-2.90044e-08
1.99808e-05
-3.12113e-08
1.99793e-05
-3.35529e-08
1.99777e-05
-3.60355e-08
1.9976e-05
-3.86656e-08
1.99742e-05
-4.14498e-08
1.99723e-05
-4.43948e-08
1.99703e-05
-4.75077e-08
1.99681e-05
-5.07956e-08
1.99659e-05
-5.42656e-08
1.99635e-05
-5.79252e-08
1.9961e-05
-6.1782e-08
1.99583e-05
-6.58437e-08
1.99555e-05
-7.0118e-08
1.99526e-05
-7.4613e-08
1.99495e-05
-7.93365e-08
1.99462e-05
-8.42967e-08
1.99428e-05
-8.95017e-08
1.99392e-05
-9.49598e-08
1.99354e-05
-1.00679e-07
1.99314e-05
-1.06668e-07
1.99272e-05
-1.12935e-07
1.99228e-05
-1.19488e-07
1.99182e-05
-1.26334e-07
1.99134e-05
-1.33483e-07
1.99084e-05
-1.40942e-07
1.99031e-05
-1.48719e-07
1.98977e-05
-1.56821e-07
1.98919e-05
-1.65255e-07
1.9886e-05
-1.74029e-07
1.98798e-05
-1.83149e-07
1.98733e-05
-1.9262e-07
1.98666e-05
-2.0245e-07
1.98597e-05
-2.12642e-07
1.98525e-05
-2.23201e-07
1.9845e-05
-2.34131e-07
1.98373e-05
-2.45435e-07
1.98293e-05
-2.57113e-07
1.98211e-05
-2.69168e-07
1.98126e-05
-2.81597e-07
1.98039e-05
-2.94399e-07
1.97949e-05
-3.07569e-07
1.97857e-05
-3.211e-07
1.97763e-05
-3.34984e-07
1.97667e-05
-3.49208e-07
1.97569e-05
-3.63755e-07
1.97469e-05
-3.78605e-07
1.97368e-05
-3.93732e-07
1.97266e-05
-4.091e-07
1.97163e-05
-4.24668e-07
1.97059e-05
-4.40382e-07
1.96955e-05
-4.56174e-07
1.96851e-05
-4.7196e-07
1.96748e-05
-4.87633e-07
1.96645e-05
-5.03057e-07
1.96543e-05
-5.18059e-07
1.96443e-05
-5.3242e-07
1.96345e-05
-5.45858e-07
1.96248e-05
-5.58008e-07
1.96153e-05
-5.68392e-07
1.9606e-05
-5.76397e-07
-5.81255e-07
2e-05
-4.16716e-11
2e-05
-1.43818e-10
1.99999e-05
-2.61778e-10
1.99999e-05
-3.93263e-10
1.99998e-05
-5.38574e-10
1.99998e-05
-6.98484e-10
1.99997e-05
-8.73946e-10
1.99996e-05
-1.06611e-09
1.99994e-05
-1.2763e-09
1.99993e-05
-1.506e-09
1.99992e-05
-1.75684e-09
1.9999e-05
-2.03057e-09
1.99988e-05
-2.32904e-09
1.99986e-05
-2.65423e-09
1.99984e-05
-3.00823e-09
1.99982e-05
-3.39322e-09
1.99979e-05
-3.8115e-09
1.99976e-05
-4.26549e-09
1.99973e-05
-4.75769e-09
1.9997e-05
-5.29077e-09
1.99966e-05
-5.86749e-09
1.99962e-05
-6.49074e-09
1.99958e-05
-7.16354e-09
1.99953e-05
-7.88906e-09
1.99948e-05
-8.67059e-09
1.99943e-05
-9.51159e-09
1.99937e-05
-1.04156e-08
1.99931e-05
-1.13865e-08
1.99924e-05
-1.2428e-08
1.99917e-05
-1.35443e-08
1.99909e-05
-1.47396e-08
1.99901e-05
-1.60182e-08
1.99892e-05
-1.73847e-08
1.99883e-05
-1.88438e-08
1.99873e-05
-2.04004e-08
1.99862e-05
-2.20596e-08
1.99851e-05
-2.38266e-08
1.99839e-05
-2.57069e-08
1.99826e-05
-2.77059e-08
1.99812e-05
-2.98296e-08
1.99797e-05
-3.20838e-08
1.99781e-05
-3.44746e-08
1.99765e-05
-3.70084e-08
1.99747e-05
-3.96916e-08
1.99729e-05
-4.25309e-08
1.99709e-05
-4.55331e-08
1.99688e-05
-4.87051e-08
1.99666e-05
-5.2054e-08
1.99642e-05
-5.55872e-08
1.99618e-05
-5.9312e-08
1.99592e-05
-6.32361e-08
1.99564e-05
-6.73671e-08
1.99535e-05
-7.17128e-08
1.99505e-05
-7.62811e-08
1.99472e-05
-8.10801e-08
1.99439e-05
-8.61178e-08
1.99403e-05
-9.14024e-08
1.99366e-05
-9.6942e-08
1.99326e-05
-1.02745e-07
1.99285e-05
-1.0882e-07
1.99242e-05
-1.15174e-07
1.99197e-05
-1.21816e-07
1.9915e-05
-1.28755e-07
1.991e-05
-1.35997e-07
1.99049e-05
-1.43552e-07
1.98995e-05
-1.51426e-07
1.98938e-05
-1.59627e-07
1.9888e-05
-1.68163e-07
1.98819e-05
-1.7704e-07
1.98755e-05
-1.86265e-07
1.98689e-05
-1.95844e-07
1.9862e-05
-2.05784e-07
1.98549e-05
-2.16088e-07
1.98476e-05
-2.26761e-07
1.98399e-05
-2.37808e-07
1.9832e-05
-2.4923e-07
1.98239e-05
-2.6103e-07
1.98155e-05
-2.73208e-07
1.98069e-05
-2.85763e-07
1.9798e-05
-2.98692e-07
1.97889e-05
-3.11991e-07
1.97796e-05
-3.25653e-07
1.977e-05
-3.39666e-07
1.97603e-05
-3.54017e-07
1.97504e-05
-3.68688e-07
1.97403e-05
-3.83654e-07
1.97301e-05
-3.98884e-07
1.97197e-05
-4.14337e-07
1.97093e-05
-4.29964e-07
1.96989e-05
-4.45697e-07
1.96883e-05
-4.61454e-07
1.96778e-05
-4.77129e-07
1.96674e-05
-4.92584e-07
1.9657e-05
-5.07647e-07
1.96466e-05
-5.22093e-07
1.96364e-05
-5.35634e-07
1.96263e-05
-5.47899e-07
1.96163e-05
-5.58396e-07
1.96064e-05
-5.66496e-07
-5.71246e-07
2e-05
-3.57059e-11
2e-05
-1.25237e-10
1.99999e-05
-2.30216e-10
1.99999e-05
-3.48604e-10
1.99998e-05
-4.80755e-10
1.99998e-05
-6.2741e-10
1.99997e-05
-7.89438e-10
1.99996e-05
-9.67878e-10
1.99995e-05
-1.16393e-09
1.99993e-05
-1.37896e-09
1.99992e-05
-1.61446e-09
1.9999e-05
-1.87207e-09
1.99989e-05
-2.15352e-09
1.99987e-05
-2.46069e-09
1.99985e-05
-2.79556e-09
1.99982e-05
-3.16022e-09
1.9998e-05
-3.55686e-09
1.99977e-05
-3.9878e-09
1.99974e-05
-4.45548e-09
1.99971e-05
-4.96243e-09
1.99967e-05
-5.51132e-09
1.99963e-05
-6.10496e-09
1.99959e-05
-6.74626e-09
1.99955e-05
-7.43829e-09
1.9995e-05
-8.18423e-09
1.99944e-05
-8.98742e-09
1.99939e-05
-9.85135e-09
1.99933e-05
-1.07796e-08
1.99926e-05
-1.17761e-08
1.99919e-05
-1.28446e-08
1.99912e-05
-1.39893e-08
1.99904e-05
-1.52144e-08
1.99895e-05
-1.65244e-08
1.99886e-05
-1.79238e-08
1.99876e-05
-1.94174e-08
1.99866e-05
-2.10102e-08
1.99854e-05
-2.27071e-08
1.99842e-05
-2.45136e-08
1.9983e-05
-2.6435e-08
1.99816e-05
-2.8477e-08
1.99802e-05
-3.06453e-08
1.99787e-05
-3.2946e-08
1.9977e-05
-3.53852e-08
1.99753e-05
-3.79692e-08
1.99735e-05
-4.07046e-08
1.99715e-05
-4.35979e-08
1.99695e-05
-4.6656e-08
1.99673e-05
-4.98858e-08
1.9965e-05
-5.32946e-08
1.99626e-05
-5.68897e-08
1.99601e-05
-6.06783e-08
1.99574e-05
-6.46682e-08
1.99545e-05
-6.8867e-08
1.99515e-05
-7.32826e-08
1.99484e-05
-7.79228e-08
1.9945e-05
-8.27956e-08
1.99415e-05
-8.79092e-08
1.99379e-05
-9.32717e-08
1.9934e-05
-9.88914e-08
1.993e-05
-1.04776e-07
1.99257e-05
-1.10935e-07
1.99213e-05
-1.17375e-07
1.99166e-05
-1.24106e-07
1.99118e-05
-1.31134e-07
1.99067e-05
-1.38469e-07
1.99014e-05
-1.46118e-07
1.98959e-05
-1.54089e-07
1.98901e-05
-1.62389e-07
1.98841e-05
-1.71026e-07
1.98778e-05
-1.80006e-07
1.98713e-05
-1.89337e-07
1.98645e-05
-1.99025e-07
1.98575e-05
-2.09074e-07
1.98503e-05
-2.19492e-07
1.98427e-05
-2.30282e-07
1.9835e-05
-2.41447e-07
1.98269e-05
-2.52991e-07
1.98186e-05
-2.64916e-07
1.98101e-05
-2.77221e-07
1.98013e-05
-2.89906e-07
1.97923e-05
-3.02967e-07
1.9783e-05
-3.16398e-07
1.97735e-05
-3.30192e-07
1.97639e-05
-3.44336e-07
1.9754e-05
-3.58814e-07
1.97439e-05
-3.73604e-07
1.97337e-05
-3.88676e-07
1.97234e-05
-4.03993e-07
1.97129e-05
-4.19505e-07
1.97024e-05
-4.35148e-07
1.96918e-05
-4.5084e-07
1.96811e-05
-4.66474e-07
1.96704e-05
-4.81915e-07
1.96598e-05
-4.96986e-07
1.96491e-05
-5.11462e-07
1.96386e-05
-5.25049e-07
1.9628e-05
-5.3737e-07
1.96176e-05
-5.47931e-07
1.96072e-05
-5.56098e-07
-5.60804e-07
2e-05
-3.02033e-11
2e-05
-1.08023e-10
1.99999e-05
-2.00827e-10
1.99999e-05
-3.06784e-10
1.99999e-05
-4.26308e-10
1.99998e-05
-5.60128e-10
1.99997e-05
-7.09061e-10
1.99996e-05
-8.74067e-10
1.99995e-05
-1.05625e-09
1.99994e-05
-1.25686e-09
1.99992e-05
-1.4773e-09
1.99991e-05
-1.71907e-09
1.99989e-05
-1.98383e-09
1.99987e-05
-2.27333e-09
1.99985e-05
-2.58947e-09
1.99983e-05
-2.93422e-09
1.99981e-05
-3.30969e-09
1.99978e-05
-3.71811e-09
1.99975e-05
-4.16179e-09
1.99972e-05
-4.6432e-09
1.99968e-05
-5.16491e-09
1.99964e-05
-5.72961e-09
1.9996e-05
-6.34013e-09
1.99956e-05
-6.99942e-09
1.99951e-05
-7.71057e-09
1.99946e-05
-8.47682e-09
1.99941e-05
-9.30152e-09
1.99935e-05
-1.01882e-08
1.99928e-05
-1.11405e-08
1.99922e-05
-1.21623e-08
1.99914e-05
-1.32575e-08
1.99906e-05
-1.44303e-08
1.99898e-05
-1.5685e-08
1.99889e-05
-1.70259e-08
1.99879e-05
-1.84578e-08
1.99869e-05
-1.99855e-08
1.99858e-05
-2.16138e-08
1.99847e-05
-2.33479e-08
1.99834e-05
-2.51932e-08
1.99821e-05
-2.71551e-08
1.99807e-05
-2.92393e-08
1.99792e-05
-3.14516e-08
1.99776e-05
-3.3798e-08
1.99759e-05
-3.62846e-08
1.99741e-05
-3.89179e-08
1.99722e-05
-4.17043e-08
1.99702e-05
-4.46506e-08
1.99681e-05
-4.77635e-08
1.99659e-05
-5.10501e-08
1.99635e-05
-5.45176e-08
1.9961e-05
-5.81731e-08
1.99584e-05
-6.20243e-08
1.99556e-05
-6.60786e-08
1.99526e-05
-7.03439e-08
1.99495e-05
-7.48278e-08
1.99463e-05
-7.95384e-08
1.99429e-05
-8.44836e-08
1.99393e-05
-8.96716e-08
1.99355e-05
-9.51105e-08
1.99315e-05
-1.00809e-07
1.99273e-05
-1.06774e-07
1.9923e-05
-1.13015e-07
1.99184e-05
-1.1954e-07
1.99136e-05
-1.26358e-07
1.99086e-05
-1.33475e-07
1.99034e-05
-1.40901e-07
1.9898e-05
-1.48644e-07
1.98923e-05
-1.56711e-07
1.98864e-05
-1.65109e-07
1.98802e-05
-1.73847e-07
1.98738e-05
-1.82931e-07
1.98672e-05
-1.92368e-07
1.98603e-05
-2.02165e-07
1.98531e-05
-2.12327e-07
1.98457e-05
-2.2286e-07
1.9838e-05
-2.33768e-07
1.98301e-05
-2.45055e-07
1.98219e-05
-2.56723e-07
1.98134e-05
-2.68775e-07
1.98047e-05
-2.81211e-07
1.97958e-05
-2.94028e-07
1.97866e-05
-3.07222e-07
1.97772e-05
-3.20788e-07
1.97676e-05
-3.34714e-07
1.97578e-05
-3.48985e-07
1.97477e-05
-3.63582e-07
1.97375e-05
-3.78478e-07
1.97272e-05
-3.93635e-07
1.97167e-05
-4.09005e-07
1.97061e-05
-4.24528e-07
1.96953e-05
-4.40119e-07
1.96845e-05
-4.55675e-07
1.96737e-05
-4.71058e-07
1.96628e-05
-4.86091e-07
1.96519e-05
-5.00546e-07
1.96409e-05
-5.14129e-07
1.963e-05
-5.26458e-07
1.96191e-05
-5.37041e-07
1.96083e-05
-5.45249e-07
-5.49957e-07
2e-05
-2.51148e-11
2e-05
-9.20483e-11
2e-05
-1.73442e-10
1.99999e-05
-2.67641e-10
1.99999e-05
-3.75108e-10
1.99998e-05
-4.96574e-10
1.99997e-05
-6.32824e-10
1.99996e-05
-7.84757e-10
1.99995e-05
-9.53402e-10
1.99994e-05
-1.13992e-09
1.99993e-05
-1.34561e-09
1.99991e-05
-1.5719e-09
1.9999e-05
-1.82032e-09
1.99988e-05
-2.09255e-09
1.99986e-05
-2.39038e-09
1.99984e-05
-2.71568e-09
1.99981e-05
-3.07049e-09
1.99979e-05
-3.45691e-09
1.99976e-05
-3.87719e-09
1.99973e-05
-4.33368e-09
1.99969e-05
-4.82886e-09
1.99966e-05
-5.36533e-09
1.99962e-05
-5.94581e-09
1.99958e-05
-6.57315e-09
1.99953e-05
-7.25035e-09
1.99948e-05
-7.98053e-09
1.99943e-05
-8.76694e-09
1.99937e-05
-9.61299e-09
1.99931e-05
-1.05222e-08
1.99924e-05
-1.14984e-08
1.99917e-05
-1.25452e-08
1.99909e-05
-1.36669e-08
1.99901e-05
-1.48674e-08
1.99892e-05
-1.61512e-08
1.99883e-05
-1.75228e-08
1.99873e-05
-1.89867e-08
1.99862e-05
-2.05479e-08
1.99851e-05
-2.22113e-08
1.99839e-05
-2.3982e-08
1.99826e-05
-2.58655e-08
1.99812e-05
-2.78672e-08
1.99798e-05
-2.99929e-08
1.99782e-05
-3.22483e-08
1.99766e-05
-3.46395e-08
1.99748e-05
-3.71728e-08
1.9973e-05
-3.98544e-08
1.9971e-05
-4.26909e-08
1.99689e-05
-4.56891e-08
1.99668e-05
-4.88557e-08
1.99644e-05
-5.21979e-08
1.9962e-05
-5.57227e-08
1.99594e-05
-5.94376e-08
1.99567e-05
-6.335e-08
1.99538e-05
-6.74674e-08
1.99508e-05
-7.17977e-08
1.99476e-05
-7.63486e-08
1.99442e-05
-8.11282e-08
1.99407e-05
-8.61444e-08
1.9937e-05
-9.14054e-08
1.99331e-05
-9.69193e-08
1.9929e-05
-1.02695e-07
1.99247e-05
-1.08739e-07
1.99203e-05
-1.15062e-07
1.99156e-05
-1.2167e-07
1.99107e-05
-1.28574e-07
1.99055e-05
-1.35779e-07
1.99002e-05
-1.43296e-07
1.98946e-05
-1.51131e-07
1.98888e-05
-1.59294e-07
1.98827e-05
-1.67791e-07
1.98764e-05
-1.76629e-07
1.98699e-05
-1.85817e-07
1.98631e-05
-1.95362e-07
1.9856e-05
-2.05269e-07
1.98487e-05
-2.15544e-07
1.98411e-05
-2.26193e-07
1.98333e-05
-2.37222e-07
1.98252e-05
-2.48632e-07
1.98169e-05
-2.60427e-07
1.98083e-05
-2.72609e-07
1.97994e-05
-2.85176e-07
1.97903e-05
-2.98126e-07
1.9781e-05
-3.11453e-07
1.97714e-05
-3.25149e-07
1.97616e-05
-3.39201e-07
1.97516e-05
-3.53589e-07
1.97415e-05
-3.68288e-07
1.97311e-05
-3.83263e-07
1.97205e-05
-3.98468e-07
1.97099e-05
-4.1384e-07
1.9699e-05
-4.29299e-07
1.96881e-05
-4.4474e-07
1.96771e-05