/*--------------------------------*- C++ -*----------------------------------*\
  =========                 |
  \\      /  F ield         | OpenFOAM: The Open Source CFD Toolbox
   \\    /   O peration     | Website:  https://openfoam.org
    \\  /    A nd           | Version:  11
     \\/     M anipulation  |
\*---------------------------------------------------------------------------*/
FoamFile
{
    format      ascii;
    class       volScalarField;
    location    "634";
    object      k;
}
// * * * * * * * * * * * * * * * * * * * * * * * * * * * * * * * * * * * * * //

dimensions      [0 2 -2 0 0 0 0];

internalField   nonuniform List<scalar> 
10000
(
0.000939687
0.000835718
0.000745891
0.000668034
0.000600342
0.000541301
0.000489647
0.000444318
0.000404419
0.000369195
0.000338008
0.000310315
0.000285655
0.000263637
0.000243923
0.000226227
0.000210301
0.000195932
0.000182935
0.000171153
0.000160447
0.000150696
0.000141796
0.000133656
0.000126195
0.000119343
0.000113038
0.000107226
0.000101857
9.68903e-05
9.22868e-05
8.80131e-05
8.40392e-05
8.03383e-05
7.68863e-05
7.36617e-05
7.06453e-05
6.78198e-05
6.51694e-05
6.26801e-05
6.03391e-05
5.81349e-05
5.6057e-05
5.40959e-05
5.22429e-05
5.04902e-05
4.88306e-05
4.72575e-05
4.57648e-05
4.43472e-05
4.29995e-05
4.17172e-05
4.04959e-05
3.93317e-05
3.82211e-05
3.71607e-05
3.61474e-05
3.51784e-05
3.42511e-05
3.3363e-05
3.25118e-05
3.16956e-05
3.09123e-05
3.01603e-05
2.94377e-05
2.87431e-05
2.80751e-05
2.74323e-05
2.68135e-05
2.62175e-05
2.56434e-05
2.50902e-05
2.45569e-05
2.40428e-05
2.3547e-05
2.3069e-05
2.2608e-05
2.21636e-05
2.17351e-05
2.13222e-05
2.09244e-05
2.05415e-05
2.0173e-05
1.98188e-05
1.94786e-05
1.91524e-05
1.88399e-05
1.85413e-05
1.82566e-05
1.7986e-05
1.77297e-05
1.74882e-05
1.72623e-05
1.70527e-05
1.68611e-05
1.66892e-05
1.65397e-05
1.64165e-05
1.63245e-05
1.62712e-05
0.000939687
0.000835718
0.000745891
0.000668034
0.000600342
0.000541301
0.000489648
0.000444318
0.000404419
0.000369195
0.000338008
0.000310315
0.000285655
0.000263637
0.000243923
0.000226227
0.000210301
0.000195932
0.000182935
0.000171153
0.000160447
0.000150696
0.000141796
0.000133656
0.000126195
0.000119343
0.000113038
0.000107226
0.000101857
9.68904e-05
9.22869e-05
8.80133e-05
8.40394e-05
8.03384e-05
7.68864e-05
7.36619e-05
7.06455e-05
6.78199e-05
6.51695e-05
6.26802e-05
6.03393e-05
5.81351e-05
5.60572e-05
5.40961e-05
5.22431e-05
5.04904e-05
4.88308e-05
4.72576e-05
4.5765e-05
4.43474e-05
4.29997e-05
4.17174e-05
4.04961e-05
3.9332e-05
3.82214e-05
3.71609e-05
3.61477e-05
3.51787e-05
3.42513e-05
3.33632e-05
3.25121e-05
3.16959e-05
3.09126e-05
3.01605e-05
2.9438e-05
2.87434e-05
2.80754e-05
2.74326e-05
2.68138e-05
2.62179e-05
2.56438e-05
2.50905e-05
2.45572e-05
2.40431e-05
2.35473e-05
2.30693e-05
2.26083e-05
2.21639e-05
2.17354e-05
2.13225e-05
2.09248e-05
2.05418e-05
2.01734e-05
1.98191e-05
1.9479e-05
1.91527e-05
1.88403e-05
1.85417e-05
1.82569e-05
1.79863e-05
1.773e-05
1.74885e-05
1.72625e-05
1.7053e-05
1.68613e-05
1.66894e-05
1.654e-05
1.64167e-05
1.63247e-05
1.62714e-05
0.000939687
0.000835718
0.000745891
0.000668035
0.000600342
0.000541301
0.000489648
0.000444319
0.00040442
0.000369196
0.000338008
0.000310315
0.000285655
0.000263637
0.000243924
0.000226227
0.000210301
0.000195932
0.000182936
0.000171153
0.000160447
0.000150696
0.000141797
0.000133656
0.000126196
0.000119344
0.000113039
0.000107226
0.000101858
9.68906e-05
9.22872e-05
8.80135e-05
8.40396e-05
8.03387e-05
7.68867e-05
7.36621e-05
7.06458e-05
6.78202e-05
6.51698e-05
6.26806e-05
6.03396e-05
5.81354e-05
5.60575e-05
5.40964e-05
5.22434e-05
5.04908e-05
4.88311e-05
4.7258e-05
4.57654e-05
4.43478e-05
4.30002e-05
4.17178e-05
4.04965e-05
3.93324e-05
3.82218e-05
3.71614e-05
3.61481e-05
3.51791e-05
3.42518e-05
3.33637e-05
3.25126e-05
3.16964e-05
3.09131e-05
3.01611e-05
2.94385e-05
2.87439e-05
2.80759e-05
2.74331e-05
2.68144e-05
2.62184e-05
2.56444e-05
2.50911e-05
2.45578e-05
2.40437e-05
2.3548e-05
2.30699e-05
2.2609e-05
2.21645e-05
2.17361e-05
2.13232e-05
2.09254e-05
2.05425e-05
2.0174e-05
1.98198e-05
1.94796e-05
1.91533e-05
1.88409e-05
1.85423e-05
1.82576e-05
1.79869e-05
1.77306e-05
1.74891e-05
1.72631e-05
1.70535e-05
1.68618e-05
1.66899e-05
1.65404e-05
1.64171e-05
1.63252e-05
1.62718e-05
0.000939687
0.000835718
0.000745891
0.000668035
0.000600342
0.000541301
0.000489648
0.000444319
0.00040442
0.000369196
0.000338008
0.000310315
0.000285656
0.000263637
0.000243924
0.000226228
0.000210301
0.000195932
0.000182936
0.000171154
0.000160447
0.000150697
0.000141797
0.000133657
0.000126196
0.000119344
0.000113039
0.000107226
0.000101858
9.6891e-05
9.22875e-05
8.80139e-05
8.404e-05
8.03391e-05
7.68871e-05
7.36625e-05
7.06462e-05
6.78207e-05
6.51703e-05
6.2681e-05
6.03401e-05
5.81359e-05
5.6058e-05
5.40969e-05
5.2244e-05
5.04913e-05
4.88317e-05
4.72586e-05
4.5766e-05
4.43484e-05
4.30007e-05
4.17184e-05
4.04972e-05
3.9333e-05
3.82225e-05
3.71621e-05
3.61488e-05
3.51798e-05
3.42525e-05
3.33644e-05
3.25133e-05
3.16971e-05
3.09139e-05
3.01619e-05
2.94393e-05
2.87448e-05
2.80768e-05
2.7434e-05
2.68152e-05
2.62193e-05
2.56452e-05
2.5092e-05
2.45588e-05
2.40446e-05
2.35489e-05
2.30709e-05
2.26099e-05
2.21655e-05
2.17371e-05
2.13242e-05
2.09264e-05
2.05434e-05
2.0175e-05
1.98207e-05
1.94805e-05
1.91543e-05
1.88418e-05
1.85432e-05
1.82584e-05
1.79877e-05
1.77314e-05
1.74899e-05
1.72638e-05
1.70543e-05
1.68625e-05
1.66906e-05
1.65411e-05
1.64177e-05
1.63258e-05
1.62724e-05
0.000939687
0.000835718
0.000745891
0.000668035
0.000600342
0.000541301
0.000489648
0.000444319
0.00040442
0.000369196
0.000338008
0.000310315
0.000285656
0.000263637
0.000243924
0.000226228
0.000210302
0.000195932
0.000182936
0.000171154
0.000160448
0.000150697
0.000141797
0.000133657
0.000126196
0.000119344
0.000113039
0.000107227
0.000101858
9.68914e-05
9.2288e-05
8.80144e-05
8.40405e-05
8.03396e-05
7.68876e-05
7.36631e-05
7.06467e-05
6.78212e-05
6.51709e-05
6.26816e-05
6.03407e-05
5.81365e-05
5.60586e-05
5.40976e-05
5.22446e-05
5.0492e-05
4.88324e-05
4.72593e-05
4.57667e-05
4.43492e-05
4.30015e-05
4.17192e-05
4.0498e-05
3.93339e-05
3.82233e-05
3.71629e-05
3.61497e-05
3.51807e-05
3.42534e-05
3.33654e-05
3.25143e-05
3.16981e-05
3.09149e-05
3.01629e-05
2.94404e-05
2.87458e-05
2.80779e-05
2.74351e-05
2.68163e-05
2.62205e-05
2.56464e-05
2.50932e-05
2.45599e-05
2.40458e-05
2.35501e-05
2.30721e-05
2.26112e-05
2.21667e-05
2.17383e-05
2.13254e-05
2.09277e-05
2.05447e-05
2.01762e-05
1.9822e-05
1.94818e-05
1.91555e-05
1.8843e-05
1.85443e-05
1.82596e-05
1.79889e-05
1.77325e-05
1.74909e-05
1.72649e-05
1.70553e-05
1.68635e-05
1.66915e-05
1.65419e-05
1.64186e-05
1.63266e-05
1.62732e-05
0.000939687
0.000835718
0.000745891
0.000668035
0.000600342
0.000541301
0.000489648
0.000444319
0.00040442
0.000369196
0.000338009
0.000310315
0.000285656
0.000263638
0.000243924
0.000226228
0.000210302
0.000195933
0.000182937
0.000171154
0.000160448
0.000150697
0.000141798
0.000133658
0.000126197
0.000119345
0.00011304
0.000107227
0.000101859
9.6892e-05
9.22886e-05
8.8015e-05
8.40411e-05
8.03402e-05
7.68882e-05
7.36637e-05
7.06474e-05
6.78219e-05
6.51716e-05
6.26824e-05
6.03414e-05
5.81373e-05
5.60594e-05
5.40984e-05
5.22455e-05
5.04928e-05
4.88333e-05
4.72602e-05
4.57677e-05
4.43501e-05
4.30025e-05
4.17202e-05
4.0499e-05
3.93349e-05
3.82244e-05
3.7164e-05
3.61508e-05
3.51819e-05
3.42546e-05
3.33666e-05
3.25155e-05
3.16994e-05
3.09162e-05
3.01642e-05
2.94417e-05
2.87472e-05
2.80792e-05
2.74365e-05
2.68177e-05
2.62219e-05
2.56478e-05
2.50946e-05
2.45614e-05
2.40473e-05
2.35516e-05
2.30736e-05
2.26127e-05
2.21683e-05
2.17398e-05
2.13269e-05
2.09292e-05
2.05462e-05
2.01777e-05
1.98235e-05
1.94833e-05
1.9157e-05
1.88445e-05
1.85458e-05
1.8261e-05
1.79902e-05
1.77338e-05
1.74922e-05
1.72661e-05
1.70564e-05
1.68646e-05
1.66925e-05
1.6543e-05
1.64196e-05
1.63275e-05
1.62741e-05
0.000939687
0.000835718
0.000745891
0.000668035
0.000600342
0.000541302
0.000489648
0.000444319
0.00040442
0.000369196
0.000338009
0.000310316
0.000285656
0.000263638
0.000243925
0.000226229
0.000210302
0.000195933
0.000182937
0.000171155
0.000160449
0.000150698
0.000141798
0.000133658
0.000126197
0.000119345
0.00011304
0.000107228
0.00010186
9.68927e-05
9.22893e-05
8.80157e-05
8.40418e-05
8.03409e-05
7.6889e-05
7.36645e-05
7.06482e-05
6.78227e-05
6.51724e-05
6.26832e-05
6.03423e-05
5.81382e-05
5.60604e-05
5.40993e-05
5.22465e-05
5.04938e-05
4.88343e-05
4.72613e-05
4.57687e-05
4.43512e-05
4.30036e-05
4.17214e-05
4.05002e-05
3.93361e-05
3.82256e-05
3.71653e-05
3.61521e-05
3.51832e-05
3.4256e-05
3.33679e-05
3.25169e-05
3.17008e-05
3.09176e-05
3.01657e-05
2.94432e-05
2.87487e-05
2.80808e-05
2.74381e-05
2.68194e-05
2.62235e-05
2.56495e-05
2.50963e-05
2.45631e-05
2.40491e-05
2.35534e-05
2.30754e-05
2.26145e-05
2.21701e-05
2.17416e-05
2.13288e-05
2.0931e-05
2.0548e-05
2.01795e-05
1.98253e-05
1.9485e-05
1.91587e-05
1.88462e-05
1.85475e-05
1.82626e-05
1.79918e-05
1.77354e-05
1.74937e-05
1.72675e-05
1.70578e-05
1.68659e-05
1.66938e-05
1.65442e-05
1.64207e-05
1.63286e-05
1.62752e-05
0.000939687
0.000835719
0.000745891
0.000668035
0.000600342
0.000541302
0.000489648
0.000444319
0.00040442
0.000369197
0.000338009
0.000310316
0.000285657
0.000263638
0.000243925
0.000226229
0.000210303
0.000195934
0.000182937
0.000171155
0.000160449
0.000150698
0.000141799
0.000133659
0.000126198
0.000119346
0.000113041
0.000107229
0.00010186
9.68934e-05
9.229e-05
8.80164e-05
8.40426e-05
8.03418e-05
7.68899e-05
7.36654e-05
7.06491e-05
6.78237e-05
6.51734e-05
6.26842e-05
6.03433e-05
5.81392e-05
5.60614e-05
5.41004e-05
5.22476e-05
5.0495e-05
4.88355e-05
4.72625e-05
4.577e-05
4.43525e-05
4.30049e-05
4.17227e-05
4.05015e-05
3.93375e-05
3.8227e-05
3.71667e-05
3.61536e-05
3.51847e-05
3.42575e-05
3.33695e-05
3.25185e-05
3.17024e-05
3.09193e-05
3.01674e-05
2.94449e-05
2.87505e-05
2.80826e-05
2.74399e-05
2.68212e-05
2.62254e-05
2.56514e-05
2.50983e-05
2.45651e-05
2.4051e-05
2.35554e-05
2.30774e-05
2.26165e-05
2.21721e-05
2.17437e-05
2.13308e-05
2.09331e-05
2.05501e-05
2.01816e-05
1.98273e-05
1.9487e-05
1.91607e-05
1.88481e-05
1.85494e-05
1.82645e-05
1.79936e-05
1.77371e-05
1.74954e-05
1.72691e-05
1.70594e-05
1.68674e-05
1.66952e-05
1.65455e-05
1.6422e-05
1.63299e-05
1.62764e-05
0.000939687
0.000835719
0.000745891
0.000668035
0.000600342
0.000541302
0.000489649
0.00044432
0.000404421
0.000369197
0.000338009
0.000310316
0.000285657
0.000263639
0.000243925
0.000226229
0.000210303
0.000195934
0.000182938
0.000171156
0.00016045
0.000150699
0.0001418
0.000133659
0.000126199
0.000119347
0.000113042
0.000107229
0.000101861
9.68942e-05
9.22909e-05
8.80173e-05
8.40435e-05
8.03427e-05
7.68908e-05
7.36664e-05
7.06501e-05
6.78247e-05
6.51745e-05
6.26853e-05
6.03445e-05
5.81404e-05
5.60626e-05
5.41017e-05
5.22488e-05
5.04963e-05
4.88368e-05
4.72638e-05
4.57713e-05
4.43539e-05
4.30064e-05
4.17242e-05
4.0503e-05
3.93391e-05
3.82286e-05
3.71684e-05
3.61552e-05
3.51864e-05
3.42592e-05
3.33713e-05
3.25203e-05
3.17043e-05
3.09212e-05
3.01693e-05
2.94469e-05
2.87525e-05
2.80846e-05
2.74419e-05
2.68233e-05
2.62275e-05
2.56536e-05
2.51004e-05
2.45673e-05
2.40533e-05
2.35576e-05
2.30797e-05
2.26188e-05
2.21744e-05
2.1746e-05
2.13331e-05
2.09353e-05
2.05524e-05
2.01838e-05
1.98295e-05
1.94893e-05
1.91629e-05
1.88503e-05
1.85515e-05
1.82665e-05
1.79956e-05
1.7739e-05
1.74973e-05
1.72709e-05
1.70611e-05
1.68691e-05
1.66968e-05
1.6547e-05
1.64234e-05
1.63313e-05
1.62778e-05
0.000939687
0.000835719
0.000745891
0.000668035
0.000600342
0.000541302
0.000489649
0.00044432
0.000404421
0.000369197
0.00033801
0.000310317
0.000285658
0.000263639
0.000243926
0.00022623
0.000210304
0.000195935
0.000182939
0.000171157
0.00016045
0.0001507
0.0001418
0.00013366
0.000126199
0.000119347
0.000113043
0.00010723
0.000101862
9.68951e-05
9.22918e-05
8.80183e-05
8.40445e-05
8.03437e-05
7.68919e-05
7.36675e-05
7.06513e-05
6.78259e-05
6.51756e-05
6.26865e-05
6.03457e-05
5.81416e-05
5.60639e-05
5.4103e-05
5.22502e-05
5.04977e-05
4.88382e-05
4.72653e-05
4.57729e-05
4.43554e-05
4.30079e-05
4.17258e-05
4.05047e-05
3.93408e-05
3.82303e-05
3.71701e-05
3.6157e-05
3.51882e-05
3.42611e-05
3.33732e-05
3.25223e-05
3.17063e-05
3.09232e-05
3.01714e-05
2.9449e-05
2.87546e-05
2.80868e-05
2.74442e-05
2.68256e-05
2.62298e-05
2.56559e-05
2.51028e-05
2.45697e-05
2.40557e-05
2.35601e-05
2.30821e-05
2.26213e-05
2.21769e-05
2.17485e-05
2.13356e-05
2.09378e-05
2.05548e-05
2.01863e-05
1.9832e-05
1.94917e-05
1.91653e-05
1.88526e-05
1.85538e-05
1.82688e-05
1.79978e-05
1.77412e-05
1.74993e-05
1.72729e-05
1.7063e-05
1.68708e-05
1.66985e-05
1.65486e-05
1.6425e-05
1.63328e-05
1.62792e-05
0.000939687
0.000835719
0.000745891
0.000668035
0.000600342
0.000541302
0.000489649
0.00044432
0.000404421
0.000369197
0.00033801
0.000310317
0.000285658
0.00026364
0.000243926
0.00022623
0.000210304
0.000195935
0.000182939
0.000171157
0.000160451
0.0001507
0.000141801
0.000133661
0.0001262
0.000119348
0.000113044
0.000107231
0.000101863
9.68961e-05
9.22928e-05
8.80193e-05
8.40456e-05
8.03448e-05
7.6893e-05
7.36686e-05
7.06524e-05
6.78271e-05
6.51769e-05
6.26878e-05
6.0347e-05
5.8143e-05
5.60653e-05
5.41044e-05
5.22517e-05
5.04992e-05
4.88398e-05
4.72669e-05
4.57745e-05
4.43571e-05
4.30097e-05
4.17275e-05
4.05065e-05
3.93426e-05
3.82322e-05
3.7172e-05
3.6159e-05
3.51902e-05
3.42632e-05
3.33753e-05
3.25244e-05
3.17084e-05
3.09254e-05
3.01736e-05
2.94513e-05
2.8757e-05
2.80892e-05
2.74466e-05
2.6828e-05
2.62323e-05
2.56584e-05
2.51054e-05
2.45723e-05
2.40583e-05
2.35627e-05
2.30848e-05
2.26239e-05
2.21796e-05
2.17512e-05
2.13383e-05
2.09405e-05
2.05575e-05
2.0189e-05
1.98346e-05
1.94943e-05
1.91678e-05
1.88552e-05
1.85563e-05
1.82712e-05
1.80002e-05
1.77434e-05
1.75015e-05
1.7275e-05
1.7065e-05
1.68728e-05
1.67003e-05
1.65504e-05
1.64267e-05
1.63344e-05
1.62808e-05
0.000939687
0.000835719
0.000745891
0.000668035
0.000600343
0.000541302
0.000489649
0.00044432
0.000404421
0.000369198
0.00033801
0.000310317
0.000285658
0.00026364
0.000243927
0.000226231
0.000210305
0.000195936
0.00018294
0.000171158
0.000160452
0.000150701
0.000141802
0.000133662
0.000126201
0.000119349
0.000113044
0.000107232
0.000101864
9.68971e-05
9.22938e-05
8.80204e-05
8.40467e-05
8.0346e-05
7.68942e-05
7.36699e-05
7.06537e-05
6.78284e-05
6.51782e-05
6.26892e-05
6.03484e-05
5.81445e-05
5.60668e-05
5.4106e-05
5.22532e-05
5.05008e-05
4.88414e-05
4.72686e-05
4.57762e-05
4.43589e-05
4.30115e-05
4.17294e-05
4.05084e-05
3.93445e-05
3.82342e-05
3.71741e-05
3.61611e-05
3.51924e-05
3.42653e-05
3.33775e-05
3.25267e-05
3.17108e-05
3.09278e-05
3.0176e-05
2.94537e-05
2.87595e-05
2.80917e-05
2.74492e-05
2.68307e-05
2.6235e-05
2.56611e-05
2.51081e-05
2.4575e-05
2.40611e-05
2.35655e-05
2.30876e-05
2.26268e-05
2.21825e-05
2.17541e-05
2.13412e-05
2.09434e-05
2.05604e-05
2.01918e-05
1.98375e-05
1.94971e-05
1.91706e-05
1.88579e-05
1.85589e-05
1.82738e-05
1.80027e-05
1.77459e-05
1.75038e-05
1.72772e-05
1.70671e-05
1.68748e-05
1.67023e-05
1.65522e-05
1.64284e-05
1.63361e-05
1.62825e-05
0.000939687
0.000835719
0.000745891
0.000668035
0.000600343
0.000541302
0.000489649
0.00044432
0.000404422
0.000369198
0.000338011
0.000310318
0.000285659
0.000263641
0.000243927
0.000226231
0.000210305
0.000195936
0.000182941
0.000171159
0.000160452
0.000150702
0.000141803
0.000133663
0.000126202
0.00011935
0.000113045
0.000107233
0.000101865
9.68982e-05
9.2295e-05
8.80215e-05
8.40479e-05
8.03472e-05
7.68954e-05
7.36712e-05
7.06551e-05
6.78298e-05
6.51797e-05
6.26906e-05
6.03499e-05
5.8146e-05
5.60684e-05
5.41076e-05
5.22549e-05
5.05025e-05
4.88432e-05
4.72704e-05
4.57781e-05
4.43608e-05
4.30134e-05
4.17314e-05
4.05104e-05
3.93466e-05
3.82363e-05
3.71762e-05
3.61633e-05
3.51946e-05
3.42676e-05
3.33799e-05
3.25291e-05
3.17132e-05
3.09303e-05
3.01786e-05
2.94563e-05
2.87621e-05
2.80944e-05
2.74519e-05
2.68334e-05
2.62378e-05
2.5664e-05
2.5111e-05
2.4578e-05
2.40641e-05
2.35685e-05
2.30907e-05
2.26298e-05
2.21855e-05
2.17571e-05
2.13442e-05
2.09465e-05
2.05634e-05
2.01949e-05
1.98405e-05
1.95001e-05
1.91735e-05
1.88607e-05
1.85617e-05
1.82765e-05
1.80053e-05
1.77484e-05
1.75063e-05
1.72796e-05
1.70693e-05
1.68769e-05
1.67043e-05
1.65541e-05
1.64303e-05
1.63379e-05
1.62842e-05
0.000939687
0.000835719
0.000745891
0.000668035
0.000600343
0.000541303
0.000489649
0.000444321
0.000404422
0.000369198
0.000338011
0.000310318
0.000285659
0.000263641
0.000243928
0.000226232
0.000210306
0.000195937
0.000182941
0.000171159
0.000160453
0.000150703
0.000141803
0.000133663
0.000126203
0.000119351
0.000113046
0.000107234
0.000101866
9.68993e-05
9.22961e-05
8.80227e-05
8.40491e-05
8.03485e-05
7.68968e-05
7.36725e-05
7.06565e-05
6.78312e-05
6.51811e-05
6.26922e-05
6.03515e-05
5.81476e-05
5.607e-05
5.41093e-05
5.22566e-05
5.05043e-05
4.8845e-05
4.72722e-05
4.578e-05
4.43627e-05
4.30154e-05
4.17334e-05
4.05125e-05
3.93488e-05
3.82385e-05
3.71785e-05
3.61656e-05
3.5197e-05
3.42701e-05
3.33823e-05
3.25316e-05
3.17158e-05
3.09329e-05
3.01812e-05
2.94591e-05
2.87649e-05
2.80972e-05
2.74548e-05
2.68363e-05
2.62408e-05
2.5667e-05
2.5114e-05
2.4581e-05
2.40672e-05
2.35716e-05
2.30938e-05
2.2633e-05
2.21887e-05
2.17603e-05
2.13474e-05
2.09497e-05
2.05666e-05
2.0198e-05
1.98436e-05
1.95031e-05
1.91765e-05
1.88637e-05
1.85646e-05
1.82793e-05
1.8008e-05
1.7751e-05
1.75088e-05
1.7282e-05
1.70717e-05
1.68792e-05
1.67064e-05
1.65562e-05
1.64322e-05
1.63397e-05
1.6286e-05
0.000939687
0.000835719
0.000745891
0.000668035
0.000600343
0.000541303
0.00048965
0.000444321
0.000404422
0.000369199
0.000338011
0.000310319
0.00028566
0.000263642
0.000243928
0.000226233
0.000210307
0.000195938
0.000182942
0.00017116
0.000160454
0.000150704
0.000141804
0.000133664
0.000126204
0.000119352
0.000113047
0.000107235
0.000101867
9.69004e-05
9.22973e-05
8.8024e-05
8.40504e-05
8.03498e-05
7.68981e-05
7.36739e-05
7.06579e-05
6.78327e-05
6.51827e-05
6.26937e-05
6.03531e-05
5.81493e-05
5.60718e-05
5.4111e-05
5.22585e-05
5.05061e-05
4.88469e-05
4.72742e-05
4.5782e-05
4.43648e-05
4.30175e-05
4.17356e-05
4.05147e-05
3.9351e-05
3.82408e-05
3.71809e-05
3.6168e-05
3.51995e-05
3.42726e-05
3.33849e-05
3.25342e-05
3.17185e-05
3.09356e-05
3.0184e-05
2.94619e-05
2.87677e-05
2.81001e-05
2.74578e-05
2.68394e-05
2.62438e-05
2.56701e-05
2.51172e-05
2.45842e-05
2.40704e-05
2.35749e-05
2.30971e-05
2.26363e-05
2.2192e-05
2.17636e-05
2.13508e-05
2.0953e-05
2.05699e-05
2.02013e-05
1.98468e-05
1.95063e-05
1.91797e-05
1.88668e-05
1.85676e-05
1.82823e-05
1.80109e-05
1.77538e-05
1.75115e-05
1.72846e-05
1.70741e-05
1.68814e-05
1.67086e-05
1.65582e-05
1.64342e-05
1.63416e-05
1.62879e-05
0.000939687
0.000835719
0.000745891
0.000668036
0.000600343
0.000541303
0.00048965
0.000444321
0.000404422
0.000369199
0.000338012
0.000310319
0.00028566
0.000263642
0.000243929
0.000226233
0.000210307
0.000195938
0.000182943
0.000171161
0.000160455
0.000150704
0.000141805
0.000133665
0.000126205
0.000119353
0.000113048
0.000107236
0.000101868
9.69016e-05
9.22985e-05
8.80253e-05
8.40517e-05
8.03511e-05
7.68995e-05
7.36754e-05
7.06594e-05
6.78342e-05
6.51843e-05
6.26954e-05
6.03548e-05
5.8151e-05
5.60735e-05
5.41129e-05
5.22603e-05
5.05081e-05
4.88489e-05
4.72762e-05
4.5784e-05
4.43669e-05
4.30197e-05
4.17378e-05
4.0517e-05
3.93533e-05
3.82432e-05
3.71833e-05
3.61705e-05
3.5202e-05
3.42752e-05
3.33876e-05
3.25369e-05
3.17212e-05
3.09385e-05
3.01869e-05
2.94648e-05
2.87707e-05
2.81032e-05
2.74608e-05
2.68425e-05
2.6247e-05
2.56733e-05
2.51204e-05
2.45875e-05
2.40737e-05
2.35783e-05
2.31005e-05
2.26397e-05
2.21954e-05
2.1767e-05
2.13542e-05
2.09564e-05
2.05733e-05
2.02047e-05
1.98502e-05
1.95096e-05
1.91829e-05
1.887e-05
1.85707e-05
1.82853e-05
1.80138e-05
1.77566e-05
1.75142e-05
1.72872e-05
1.70766e-05
1.68838e-05
1.67108e-05
1.65604e-05
1.64362e-05
1.63436e-05
1.62898e-05
0.000939687
0.000835719
0.000745891
0.000668036
0.000600343
0.000541303
0.00048965
0.000444321
0.000404423
0.000369199
0.000338012
0.000310319
0.000285661
0.000263642
0.000243929
0.000226234
0.000210308
0.000195939
0.000182943
0.000171161
0.000160456
0.000150705
0.000141806
0.000133666
0.000126206
0.000119354
0.00011305
0.000107237
0.000101869
9.69028e-05
9.22998e-05
8.80266e-05
8.40531e-05
8.03525e-05
7.6901e-05
7.36769e-05
7.06609e-05
6.78358e-05
6.51859e-05
6.2697e-05
6.03565e-05
5.81528e-05
5.60753e-05
5.41147e-05
5.22622e-05
5.051e-05
4.88509e-05
4.72783e-05
4.57862e-05
4.43691e-05
4.30219e-05
4.17401e-05
4.05193e-05
3.93557e-05
3.82457e-05
3.71858e-05
3.61731e-05
3.52046e-05
3.42778e-05
3.33903e-05
3.25397e-05
3.17241e-05
3.09414e-05
3.01898e-05
2.94678e-05
2.87738e-05
2.81063e-05
2.7464e-05
2.68457e-05
2.62502e-05
2.56766e-05
2.51238e-05
2.45909e-05
2.40771e-05
2.35817e-05
2.31039e-05
2.26432e-05
2.21989e-05
2.17706e-05
2.13577e-05
2.09599e-05
2.05768e-05
2.02081e-05
1.98536e-05
1.9513e-05
1.91862e-05
1.88732e-05
1.85739e-05
1.82884e-05
1.80168e-05
1.77595e-05
1.7517e-05
1.72898e-05
1.70791e-05
1.68862e-05
1.67131e-05
1.65625e-05
1.64383e-05
1.63456e-05
1.62918e-05
0.000939687
0.000835719
0.000745891
0.000668036
0.000600343
0.000541303
0.00048965
0.000444322
0.000404423
0.0003692
0.000338012
0.00031032
0.000285661
0.000263643
0.00024393
0.000226234
0.000210308
0.00019594
0.000182944
0.000171162
0.000160456
0.000150706
0.000141807
0.000133667
0.000126207
0.000119355
0.000113051
0.000107239
0.000101871
9.69041e-05
9.23011e-05
8.80279e-05
8.40544e-05
8.0354e-05
7.69024e-05
7.36784e-05
7.06625e-05
6.78374e-05
6.51875e-05
6.26987e-05
6.03583e-05
5.81546e-05
5.60772e-05
5.41166e-05
5.22642e-05
5.0512e-05
4.88529e-05
4.72804e-05
4.57883e-05
4.43713e-05
4.30242e-05
4.17424e-05
4.05217e-05
3.93582e-05
3.82482e-05
3.71883e-05
3.61757e-05
3.52073e-05
3.42806e-05
3.33931e-05
3.25426e-05
3.1727e-05
3.09443e-05
3.01928e-05
2.94709e-05
2.87769e-05
2.81095e-05
2.74672e-05
2.6849e-05
2.62536e-05
2.568e-05
2.51272e-05
2.45944e-05
2.40806e-05
2.35852e-05
2.31075e-05
2.26467e-05
2.22025e-05
2.17741e-05
2.13613e-05
2.09635e-05
2.05803e-05
2.02116e-05
1.98571e-05
1.95165e-05
1.91896e-05
1.88765e-05
1.85771e-05
1.82915e-05
1.80199e-05
1.77625e-05
1.75198e-05
1.72925e-05
1.70817e-05
1.68887e-05
1.67154e-05
1.65647e-05
1.64404e-05
1.63476e-05
1.62938e-05
0.000939687
0.000835719
0.000745891
0.000668036
0.000600343
0.000541303
0.00048965
0.000444322
0.000404423
0.0003692
0.000338013
0.00031032
0.000285661
0.000263643
0.000243931
0.000226235
0.000210309
0.00019594
0.000182945
0.000171163
0.000160457
0.000150707
0.000141808
0.000133668
0.000126208
0.000119356
0.000113052
0.00010724
0.000101872
9.69053e-05
9.23024e-05
8.80292e-05
8.40558e-05
8.03554e-05
7.69039e-05
7.36799e-05
7.06641e-05
6.7839e-05
6.51892e-05
6.27005e-05
6.036e-05
5.81564e-05
5.60791e-05
5.41185e-05
5.22662e-05
5.05141e-05
4.8855e-05
4.72825e-05
4.57905e-05
4.43735e-05
4.30265e-05
4.17448e-05
4.05241e-05
3.93607e-05
3.82507e-05
3.71909e-05
3.61783e-05
3.521e-05
3.42833e-05
3.33959e-05
3.25455e-05
3.17299e-05
3.09473e-05
3.01959e-05
2.9474e-05
2.87801e-05
2.81127e-05
2.74705e-05
2.68523e-05
2.6257e-05
2.56834e-05
2.51307e-05
2.45979e-05
2.40842e-05
2.35888e-05
2.31111e-05
2.26504e-05
2.22061e-05
2.17778e-05
2.13649e-05
2.09671e-05
2.0584e-05
2.02152e-05
1.98606e-05
1.95199e-05
1.91931e-05
1.88799e-05
1.85804e-05
1.82947e-05
1.8023e-05
1.77654e-05
1.75226e-05
1.72953e-05
1.70843e-05
1.68911e-05
1.67178e-05
1.65669e-05
1.64425e-05
1.63496e-05
1.62957e-05
0.000939687
0.000835719
0.000745892
0.000668036
0.000600343
0.000541303
0.00048965
0.000444322
0.000404423
0.0003692
0.000338013
0.000310321
0.000285662
0.000263644
0.000243931
0.000226235
0.00021031
0.000195941
0.000182945
0.000171164
0.000160458
0.000150708
0.000141809
0.000133669
0.000126209
0.000119357
0.000113053
0.000107241
0.000101873
9.69066e-05
9.23036e-05
8.80306e-05
8.40572e-05
8.03568e-05
7.69054e-05
7.36814e-05
7.06656e-05
6.78407e-05
6.51909e-05
6.27022e-05
6.03618e-05
5.81582e-05
5.6081e-05
5.41205e-05
5.22682e-05
5.05161e-05
4.88571e-05
4.72847e-05
4.57927e-05
4.43758e-05
4.30288e-05
4.17472e-05
4.05266e-05
3.93632e-05
3.82533e-05
3.71936e-05
3.6181e-05
3.52127e-05
3.42861e-05
3.33988e-05
3.25484e-05
3.17329e-05
3.09504e-05
3.0199e-05
2.94772e-05
2.87833e-05
2.81159e-05
2.74738e-05
2.68557e-05
2.62604e-05
2.56869e-05
2.51342e-05
2.46014e-05
2.40877e-05
2.35924e-05
2.31147e-05
2.2654e-05
2.22098e-05
2.17814e-05
2.13686e-05
2.09707e-05
2.05876e-05
2.02188e-05
1.98642e-05
1.95235e-05
1.91965e-05
1.88833e-05
1.85837e-05
1.82979e-05
1.80261e-05
1.77684e-05
1.75255e-05
1.7298e-05
1.70869e-05
1.68936e-05
1.67201e-05
1.65692e-05
1.64446e-05
1.63517e-05
1.62978e-05
0.000939687
0.000835719
0.000745892
0.000668036
0.000600343
0.000541303
0.000489651
0.000444322
0.000404424
0.0003692
0.000338013
0.000310321
0.000285662
0.000263644
0.000243932
0.000226236
0.00021031
0.000195942
0.000182946
0.000171165
0.000160459
0.000150709
0.00014181
0.00013367
0.00012621
0.000119358
0.000113054
0.000107242
0.000101874
9.69078e-05
9.23049e-05
8.80319e-05
8.40586e-05
8.03583e-05
7.69069e-05
7.3683e-05
7.06672e-05
6.78423e-05
6.51926e-05
6.2704e-05
6.03636e-05
5.81601e-05
5.60829e-05
5.41225e-05
5.22702e-05
5.05182e-05
4.88593e-05
4.72869e-05
4.5795e-05
4.43781e-05
4.30312e-05
4.17496e-05
4.05291e-05
3.93657e-05
3.82558e-05
3.71962e-05
3.61837e-05
3.52155e-05
3.4289e-05
3.34016e-05
3.25513e-05
3.17359e-05
3.09534e-05
3.02021e-05
2.94803e-05
2.87865e-05
2.81192e-05
2.74772e-05
2.68591e-05
2.62638e-05
2.56904e-05
2.51377e-05
2.4605e-05
2.40913e-05
2.3596e-05
2.31184e-05
2.26577e-05
2.22135e-05
2.17851e-05
2.13723e-05
2.09744e-05
2.05913e-05
2.02225e-05
1.98678e-05
1.9527e-05
1.92e-05
1.88867e-05
1.85871e-05
1.83012e-05
1.80292e-05
1.77715e-05
1.75284e-05
1.73008e-05
1.70895e-05
1.68961e-05
1.67225e-05
1.65714e-05
1.64467e-05
1.63537e-05
1.62998e-05
0.000939687
0.000835719
0.000745892
0.000668036
0.000600344
0.000541304
0.000489651
0.000444322
0.000404424
0.000369201
0.000338014
0.000310321
0.000285663
0.000263645
0.000243932
0.000226236
0.000210311
0.000195942
0.000182947
0.000171165
0.00016046
0.00015071
0.000141811
0.000133671
0.000126211
0.000119359
0.000113055
0.000107243
0.000101875
9.6909e-05
9.23062e-05
8.80332e-05
8.406e-05
8.03597e-05
7.69084e-05
7.36845e-05
7.06688e-05
6.7844e-05
6.51943e-05
6.27057e-05
6.03654e-05
5.8162e-05
5.60848e-05
5.41244e-05
5.22722e-05
5.05203e-05
4.88614e-05
4.72891e-05
4.57972e-05
4.43804e-05
4.30335e-05
4.1752e-05
4.05315e-05
3.93682e-05
3.82584e-05
3.71989e-05
3.61864e-05
3.52183e-05
3.42918e-05
3.34045e-05
3.25543e-05
3.17389e-05
3.09565e-05
3.02053e-05
2.94835e-05
2.87898e-05
2.81225e-05
2.74805e-05
2.68625e-05
2.62673e-05
2.56939e-05
2.51412e-05
2.46086e-05
2.4095e-05
2.35997e-05
2.3122e-05
2.26614e-05
2.22172e-05
2.17889e-05
2.1376e-05
2.09781e-05
2.05949e-05
2.02261e-05
1.98714e-05
1.95306e-05
1.92035e-05
1.88901e-05
1.85904e-05
1.83044e-05
1.80323e-05
1.77745e-05
1.75313e-05
1.73035e-05
1.70922e-05
1.68986e-05
1.67248e-05
1.65736e-05
1.64489e-05
1.63558e-05
1.63017e-05
0.000939687
0.000835719
0.000745892
0.000668036
0.000600344
0.000541304
0.000489651
0.000444322
0.000404424
0.000369201
0.000338014
0.000310322
0.000285663
0.000263645
0.000243933
0.000226237
0.000210311
0.000195943
0.000182948
0.000171166
0.00016046
0.00015071
0.000141811
0.000133672
0.000126212
0.00011936
0.000113056
0.000107244
0.000101877
9.69103e-05
9.23075e-05
8.80346e-05
8.40614e-05
8.03611e-05
7.69099e-05
7.36861e-05
7.06704e-05
6.78456e-05
6.5196e-05
6.27074e-05
6.03672e-05
5.81638e-05
5.60867e-05
5.41264e-05
5.22742e-05
5.05223e-05
4.88635e-05
4.72912e-05
4.57995e-05
4.43827e-05
4.30359e-05
4.17544e-05
4.0534e-05
3.93707e-05
3.8261e-05
3.72015e-05
3.61891e-05
3.5221e-05
3.42946e-05
3.34074e-05
3.25572e-05
3.17419e-05
3.09596e-05
3.02084e-05
2.94867e-05
2.8793e-05
2.81258e-05
2.74839e-05
2.68659e-05
2.62707e-05
2.56973e-05
2.51448e-05
2.46121e-05
2.40986e-05
2.36033e-05
2.31257e-05
2.26651e-05
2.22209e-05
2.17926e-05
2.13797e-05
2.09818e-05
2.05986e-05
2.02298e-05
1.9875e-05
1.95341e-05
1.9207e-05
1.88935e-05
1.85937e-05
1.83077e-05
1.80355e-05
1.77775e-05
1.75342e-05
1.73063e-05
1.70948e-05
1.69011e-05
1.67272e-05
1.65759e-05
1.6451e-05
1.63578e-05
1.63037e-05
0.000939687
0.000835719
0.000745892
0.000668036
0.000600344
0.000541304
0.000489651
0.000444323
0.000404424
0.000369201
0.000338014
0.000310322
0.000285663
0.000263646
0.000243933
0.000226238
0.000210312
0.000195944
0.000182948
0.000171167
0.000160461
0.000150711
0.000141812
0.000133673
0.000126213
0.000119361
0.000113057
0.000107245
0.000101878
9.69115e-05
9.23088e-05
8.80359e-05
8.40628e-05
8.03626e-05
7.69113e-05
7.36876e-05
7.0672e-05
6.78472e-05
6.51977e-05
6.27092e-05
6.0369e-05
5.81656e-05
5.60886e-05
5.41283e-05
5.22762e-05
5.05244e-05
4.88656e-05
4.72934e-05
4.58017e-05
4.4385e-05
4.30382e-05
4.17568e-05
4.05364e-05
3.93732e-05
3.82636e-05
3.72041e-05
3.61918e-05
3.52238e-05
3.42974e-05
3.34103e-05
3.25601e-05
3.17449e-05
3.09626e-05
3.02115e-05
2.94899e-05
2.87962e-05
2.81291e-05
2.74872e-05
2.68693e-05
2.62741e-05
2.57008e-05
2.51483e-05
2.46157e-05
2.41022e-05
2.36069e-05
2.31293e-05
2.26687e-05
2.22245e-05
2.17962e-05
2.13834e-05
2.09855e-05
2.06023e-05
2.02334e-05
1.98786e-05
1.95377e-05
1.92105e-05
1.88969e-05
1.8597e-05
1.83109e-05
1.80386e-05
1.77805e-05
1.75371e-05
1.7309e-05
1.70974e-05
1.69035e-05
1.67295e-05
1.65781e-05
1.64531e-05
1.63598e-05
1.63057e-05
0.000939687
0.000835719
0.000745892
0.000668036
0.000600344
0.000541304
0.000489651
0.000444323
0.000404425
0.000369201
0.000338015
0.000310322
0.000285664
0.000263646
0.000243933
0.000226238
0.000210313
0.000195944
0.000182949
0.000171167
0.000160462
0.000150712
0.000141813
0.000133674
0.000126214
0.000119362
0.000113058
0.000107246
0.000101879
9.69127e-05
9.231e-05
8.80372e-05
8.40641e-05
8.0364e-05
7.69128e-05
7.36891e-05
7.06736e-05
6.78488e-05
6.51993e-05
6.27109e-05
6.03708e-05
5.81675e-05
5.60904e-05
5.41302e-05
5.22782e-05
5.05264e-05
4.88677e-05
4.72955e-05
4.58039e-05
4.43872e-05
4.30405e-05
4.17592e-05
4.05389e-05
3.93757e-05
3.82661e-05
3.72067e-05
3.61945e-05
3.52265e-05
3.43002e-05
3.34131e-05
3.25631e-05
3.17479e-05
3.09656e-05
3.02146e-05
2.9493e-05