/*--------------------------------*- C++ -*----------------------------------*\
  =========                 |
  \\      /  F ield         | OpenFOAM: The Open Source CFD Toolbox
   \\    /   O peration     | Website:  https://openfoam.org
    \\  /    A nd           | Version:  11
     \\/     M anipulation  |
\*---------------------------------------------------------------------------*/
FoamFile
{
    format      ascii;
    class       volScalarField;
    location    "634";
    object      nut;
}
// * * * * * * * * * * * * * * * * * * * * * * * * * * * * * * * * * * * * * //

dimensions      [0 2 -1 0 0 0 0];

internalField   nonuniform List<scalar> 
10000
(
0.000977118
0.00093671
0.000899656
0.000865635
0.000834361
0.000805575
0.000779045
0.000754562
0.000731939
0.000711007
0.000691613
0.000673621
0.000656907
0.00064136
0.000626878
0.000613371
0.000600757
0.000588961
0.000577916
0.00056756
0.000557839
0.000548702
0.000540103
0.000532001
0.000524357
0.000517137
0.00051031
0.000503847
0.000497721
0.000491908
0.000486386
0.000481135
0.000476136
0.000471372
0.000466827
0.000462487
0.000458338
0.000454368
0.000450565
0.000446918
0.000443419
0.000440058
0.000436825
0.000433715
0.000430718
0.000427829
0.000425041
0.000422349
0.000419746
0.000417227
0.000414789
0.000412427
0.000410136
0.000407912
0.000405753
0.000403655
0.000401615
0.00039963
0.000397697
0.000395816
0.000393983
0.000392197
0.000390457
0.00038876
0.000387107
0.000385497
0.000383929
0.000382403
0.00038092
0.00037948
0.000378083
0.000376732
0.000375428
0.000374174
0.000372971
0.000371822
0.000370732
0.000369705
0.000368744
0.000367855
0.000367044
0.000366317
0.000365679
0.000365139
0.000364703
0.000364379
0.000364174
0.000364096
0.00036415
0.000364341
0.000364674
0.000365146
0.000365754
0.000366486
0.00036732
0.000368221
0.000369135
0.000369986
0.000370661
0.000371017
0.000977118
0.00093671
0.000899656
0.000865635
0.000834361
0.000805575
0.000779045
0.000754562
0.000731939
0.000711007
0.000691614
0.000673622
0.000656908
0.00064136
0.000626878
0.000613371
0.000600757
0.000588961
0.000577916
0.000567561
0.000557839
0.000548702
0.000540103
0.000532001
0.000524357
0.000517138
0.000510311
0.000503847
0.000497721
0.000491908
0.000486387
0.000481136
0.000476137
0.000471373
0.000466828
0.000462488
0.000458339
0.000454368
0.000450565
0.000446919
0.00044342
0.000440058
0.000436826
0.000433715
0.000430719
0.00042783
0.000425042
0.00042235
0.000419747
0.000417229
0.00041479
0.000412428
0.000410137
0.000407913
0.000405754
0.000403656
0.000401616
0.000399631
0.000397699
0.000395818
0.000393985
0.000392199
0.000390458
0.000388762
0.000387109
0.000385499
0.000383931
0.000382405
0.000380922
0.000379482
0.000378085
0.000376734
0.000375431
0.000374176
0.000372973
0.000371824
0.000370734
0.000369707
0.000368746
0.000367857
0.000367046
0.000366318
0.000365681
0.000365141
0.000364704
0.00036438
0.000364175
0.000364096
0.00036415
0.000364341
0.000364673
0.000365145
0.000365753
0.000366484
0.000367318
0.000368218
0.000369133
0.000369983
0.000370658
0.000371014
0.000977118
0.00093671
0.000899656
0.000865635
0.000834361
0.000805575
0.000779045
0.000754562
0.000731939
0.000711007
0.000691614
0.000673622
0.000656908
0.00064136
0.000626879
0.000613372
0.000600758
0.000588962
0.000577916
0.000567561
0.00055784
0.000548703
0.000540104
0.000532002
0.000524358
0.000517138
0.000510311
0.000503848
0.000497722
0.000491909
0.000486387
0.000481136
0.000476138
0.000471374
0.000466829
0.000462489
0.00045834
0.000454369
0.000450567
0.00044692
0.000443421
0.00044006
0.000436828
0.000433717
0.000430721
0.000427832
0.000425044
0.000422351
0.000419749
0.000417231
0.000414793
0.00041243
0.000410139
0.000407916
0.000405757
0.000403659
0.000401619
0.000399634
0.000397702
0.000395821
0.000393988
0.000392202
0.000390462
0.000388766
0.000387113
0.000385503
0.000383935
0.000382409
0.000380926
0.000379486
0.000378089
0.000376738
0.000375435
0.00037418
0.000372977
0.000371828
0.000370738
0.000369711
0.00036875
0.000367861
0.000367049
0.000366322
0.000365684
0.000365143
0.000364707
0.000364382
0.000364176
0.000364097
0.00036415
0.000364341
0.000364672
0.000365144
0.000365751
0.000366481
0.000367314
0.000368214
0.000369128
0.000369978
0.000370652
0.000371008
0.000977118
0.00093671
0.000899656
0.000865635
0.000834361
0.000805575
0.000779045
0.000754562
0.000731939
0.000711007
0.000691614
0.000673622
0.000656908
0.000641361
0.000626879
0.000613372
0.000600758
0.000588962
0.000577917
0.000567562
0.000557841
0.000548703
0.000540105
0.000532002
0.000524359
0.000517139
0.000510312
0.000503849
0.000497723
0.00049191
0.000486389
0.000481138
0.000476139
0.000471375
0.00046683
0.00046249
0.000458341
0.000454371
0.000450569
0.000446922
0.000443423
0.000440062
0.00043683
0.00043372
0.000430723
0.000427834
0.000425047
0.000422354
0.000419752
0.000417234
0.000414796
0.000412434
0.000410143
0.00040792
0.000405761
0.000403663
0.000401623
0.000399638
0.000397706
0.000395825
0.000393992
0.000392207
0.000390467
0.000388771
0.000387118
0.000385508
0.00038394
0.000382415
0.000380931
0.000379491
0.000378095
0.000376744
0.00037544
0.000374186
0.000372983
0.000371834
0.000370744
0.000369716
0.000368755
0.000367866
0.000367054
0.000366326
0.000365688
0.000365147
0.00036471
0.000364384
0.000364178
0.000364098
0.00036415
0.00036434
0.00036467
0.000365141
0.000365747
0.000366477
0.000367308
0.000368208
0.000369121
0.00036997
0.000370644
0.000370999
0.000977118
0.00093671
0.000899656
0.000865635
0.000834361
0.000805575
0.000779045
0.000754563
0.00073194
0.000711008
0.000691614
0.000673622
0.000656908
0.000641361
0.000626879
0.000613373
0.000600759
0.000588963
0.000577918
0.000567562
0.000557841
0.000548704
0.000540106
0.000532003
0.00052436
0.00051714
0.000510314
0.00050385
0.000497725
0.000491912
0.00048639
0.00048114
0.000476141
0.000471377
0.000466832
0.000462493
0.000458344
0.000454374
0.000450571
0.000446925
0.000443426
0.000440065
0.000436833
0.000433723
0.000430727
0.000427838
0.00042505
0.000422358
0.000419756
0.000417238
0.0004148
0.000412438
0.000410147
0.000407924
0.000405766
0.000403668
0.000401628
0.000399644
0.000397712
0.000395831
0.000393999
0.000392213
0.000390473
0.000388777
0.000387125
0.000385515
0.000383947
0.000382422
0.000380939
0.000379499
0.000378103
0.000376752
0.000375448
0.000374193
0.00037299
0.000371842
0.000370752
0.000369724
0.000368762
0.000367873
0.000367061
0.000366332
0.000365693
0.000365151
0.000364714
0.000364388
0.00036418
0.000364099
0.00036415
0.000364339
0.000364668
0.000365137
0.000365742
0.00036647
0.000367301
0.000368199
0.000369111
0.00036996
0.000370633
0.000370988
0.000977118
0.00093671
0.000899656
0.000865635
0.000834361
0.000805575
0.000779045
0.000754563
0.00073194
0.000711008
0.000691615
0.000673623
0.000656909
0.000641362
0.00062688
0.000613373
0.000600759
0.000588964
0.000577919
0.000567563
0.000557842
0.000548705
0.000540107
0.000532005
0.000524361
0.000517142
0.000510315
0.000503852
0.000497726
0.000491914
0.000486392
0.000481142
0.000476143
0.000471379
0.000466835
0.000462495
0.000458347
0.000454377
0.000450574
0.000446928
0.00044343
0.000440069
0.000436837
0.000433727
0.000430731
0.000427842
0.000425055
0.000422363
0.000419761
0.000417243
0.000414805
0.000412444
0.000410153
0.00040793
0.000405772
0.000403674
0.000401635
0.000399651
0.000397719
0.000395838
0.000394006
0.000392221
0.000390481
0.000388786
0.000387133
0.000385524
0.000383956
0.000382431
0.000380948
0.000379508
0.000378112
0.000376762
0.000375458
0.000374203
0.000373
0.000371851
0.000370761
0.000369733
0.000368771
0.000367881
0.000367069
0.000366339
0.0003657
0.000365157
0.000364719
0.000364392
0.000364183
0.000364101
0.00036415
0.000364338
0.000364665
0.000365133
0.000365736
0.000366463
0.000367292
0.000368188
0.0003691
0.000369947
0.000370619
0.000370974
0.000977118
0.00093671
0.000899656
0.000865635
0.000834361
0.000805575
0.000779045
0.000754563
0.00073194
0.000711008
0.000691615
0.000673623
0.00065691
0.000641362
0.000626881
0.000613374
0.00060076
0.000588964
0.00057792
0.000567564
0.000557844
0.000548707
0.000540108
0.000532006
0.000524363
0.000517144
0.000510317
0.000503854
0.000497728
0.000491916
0.000486395
0.000481144
0.000476146
0.000471382
0.000466838
0.000462498
0.00045835
0.00045438
0.000450578
0.000446932
0.000443434
0.000440073
0.000436841
0.000433731
0.000430736
0.000427847
0.00042506
0.000422368
0.000419766
0.000417249
0.000414812
0.00041245
0.00041016
0.000407937
0.000405779
0.000403682
0.000401643
0.000399659
0.000397728
0.000395847
0.000394015
0.00039223
0.000390491
0.000388795
0.000387143
0.000385534
0.000383967
0.000382442
0.000380959
0.000379519
0.000378124
0.000376773
0.000375469
0.000374215
0.000373011
0.000371863
0.000370772
0.000369744
0.000368782
0.000367891
0.000367078
0.000366348
0.000365708
0.000365165
0.000364725
0.000364396
0.000364187
0.000364103
0.000364151
0.000364336
0.000364662
0.000365128
0.000365729
0.000366454
0.000367281
0.000368176
0.000369086
0.000369931
0.000370603
0.000370957
0.000977118
0.00093671
0.000899656
0.000865636
0.000834361
0.000805576
0.000779046
0.000754563
0.000731941
0.000711009
0.000691616
0.000673624
0.00065691
0.000641363
0.000626882
0.000613375
0.000600761
0.000588966
0.000577921
0.000567566
0.000557845
0.000548708
0.00054011
0.000532008
0.000524365
0.000517146
0.000510319
0.000503856
0.000497731
0.000491919
0.000486398
0.000481147
0.000476149
0.000471386
0.000466841
0.000462502
0.000458354
0.000454384
0.000450582
0.000446937
0.000443438
0.000440078
0.000436846
0.000433737
0.000430741
0.000427853
0.000425066
0.000422375
0.000419773
0.000417256
0.000414819
0.000412458
0.000410168
0.000407945
0.000405788
0.000403691
0.000401652
0.000399668
0.000397737
0.000395857
0.000394025
0.000392241
0.000390502
0.000388807
0.000387155
0.000385546
0.000383979
0.000382454
0.000380972
0.000379532
0.000378137
0.000376786
0.000375482
0.000374228
0.000373024
0.000371876
0.000370785
0.000369756
0.000368794
0.000367903
0.000367089
0.000366359
0.000365717
0.000365173
0.000364732
0.000364402
0.000364191
0.000364105
0.000364151
0.000364335
0.000364659
0.000365122
0.000365721
0.000366444
0.000367269
0.000368162
0.00036907
0.000369914
0.000370585
0.000370938
0.000977118
0.00093671
0.000899656
0.000865636
0.000834362
0.000805576
0.000779046
0.000754564
0.000731941
0.000711009
0.000691616
0.000673624
0.000656911
0.000641364
0.000626882
0.000613376
0.000600762
0.000588967
0.000577922
0.000567567
0.000557847
0.00054871
0.000540112
0.00053201
0.000524367
0.000517148
0.000510322
0.000503859
0.000497734
0.000491922
0.000486401
0.00048115
0.000476152
0.000471389
0.000466845
0.000462506
0.000458358
0.000454389
0.000450587
0.000446942
0.000443443
0.000440083
0.000436852
0.000433743
0.000430747
0.00042786
0.000425073
0.000422382
0.00041978
0.000417264
0.000414827
0.000412466
0.000410176
0.000407955
0.000405797
0.0004037
0.000401662
0.000399679
0.000397748
0.000395868
0.000394037
0.000392253
0.000390514
0.000388819
0.000387168
0.000385559
0.000383992
0.000382468
0.000380986
0.000379547
0.000378151
0.000376801
0.000375497
0.000374242
0.000373039
0.00037189
0.000370799
0.00036977
0.000368807
0.000367916
0.000367102
0.00036637
0.000365728
0.000365182
0.00036474
0.000364408
0.000364196
0.000364108
0.000364152
0.000364333
0.000364655
0.000365116
0.000365712
0.000366433
0.000367255
0.000368146
0.000369052
0.000369894
0.000370564
0.000370917
0.000977118
0.00093671
0.000899656
0.000865636
0.000834362
0.000805576
0.000779046
0.000754564
0.000731941
0.00071101
0.000691617
0.000673625
0.000656912
0.000641365
0.000626883
0.000613377
0.000600763
0.000588968
0.000577923
0.000567569
0.000557848
0.000548712
0.000540114
0.000532012
0.000524369
0.00051715
0.000510324
0.000503862
0.000497737
0.000491925
0.000486404
0.000481154
0.000476156
0.000471393
0.00046685
0.00046251
0.000458363
0.000454394
0.000450592
0.000446947
0.000443449
0.000440089
0.000436858
0.000433749
0.000430754
0.000427867
0.000425081
0.00042239
0.000419789
0.000417272
0.000414836
0.000412475
0.000410186
0.000407965
0.000405807
0.000403711
0.000401673
0.00039969
0.00039776
0.000395881
0.00039405
0.000392266
0.000390527
0.000388833
0.000387182
0.000385574
0.000384007
0.000382483
0.000381001
0.000379562
0.000378167
0.000376817
0.000375513
0.000374259
0.000373055
0.000371906
0.000370815
0.000369786
0.000368823
0.000367931
0.000367115
0.000366383
0.00036574
0.000365192
0.000364749
0.000364416
0.000364201
0.000364111
0.000364153
0.000364332
0.000364651
0.000365109
0.000365703
0.00036642
0.00036724
0.000368129
0.000369032
0.000369873
0.000370541
0.000370893
0.000977118
0.00093671
0.000899656
0.000865636
0.000834362
0.000805576
0.000779047
0.000754564
0.000731942
0.00071101
0.000691617
0.000673626
0.000656912
0.000641365
0.000626884
0.000613378
0.000600765
0.000588969
0.000577925
0.00056757
0.00055785
0.000548714
0.000540116
0.000532014
0.000524372
0.000517153
0.000510327
0.000503865
0.00049774
0.000491928
0.000486408
0.000481158
0.00047616
0.000471398
0.000466854
0.000462515
0.000458368
0.000454399
0.000450598
0.000446953
0.000443455
0.000440096
0.000436865
0.000433756
0.000430762
0.000427875
0.000425089
0.000422398
0.000419797
0.000417282
0.000414846
0.000412485
0.000410196
0.000407975
0.000405819
0.000403723
0.000401685
0.000399703
0.000397773
0.000395894
0.000394064
0.00039228
0.000390542
0.000388848
0.000387198
0.00038559
0.000384024
0.0003825
0.000381018
0.00037958
0.000378185
0.000376835
0.000375531
0.000374277
0.000373073
0.000371924
0.000370833
0.000369803
0.000368839
0.000367946
0.00036713
0.000366397
0.000365752
0.000365204
0.000364759
0.000364424
0.000364207
0.000364115
0.000364154
0.000364331
0.000364647
0.000365102
0.000365693
0.000366407
0.000367224
0.00036811
0.000369011
0.00036985
0.000370516
0.000370868
0.000977118
0.00093671
0.000899656
0.000865636
0.000834362
0.000805576
0.000779047
0.000754565
0.000731942
0.000711011
0.000691618
0.000673626
0.000656913
0.000641366
0.000626885
0.000613379
0.000600766
0.000588971
0.000577926
0.000567572
0.000557852
0.000548716
0.000540118
0.000532017
0.000524374
0.000517156
0.00051033
0.000503868
0.000497743
0.000491932
0.000486411
0.000481162
0.000476164
0.000471402
0.000466859
0.00046252
0.000458373
0.000454405
0.000450604
0.000446959
0.000443462
0.000440103
0.000436873
0.000433764
0.00043077
0.000427883
0.000425098
0.000422407
0.000419807
0.000417291
0.000414856
0.000412496
0.000410208
0.000407987
0.000405831
0.000403735
0.000401698
0.000399716
0.000397787
0.000395908
0.000394079
0.000392296
0.000390558
0.000388865
0.000387214
0.000385607
0.000384041
0.000382518
0.000381037
0.000379598
0.000378203
0.000376854
0.00037555
0.000374296
0.000373092
0.000371943
0.000370851
0.000369821
0.000368857
0.000367963
0.000367146
0.000366412
0.000365766
0.000365216
0.000364769
0.000364432
0.000364213
0.000364119
0.000364156
0.000364329
0.000364642
0.000365095
0.000365682
0.000366393
0.000367207
0.00036809
0.000368988
0.000369825
0.00037049
0.000370841
0.000977118
0.00093671
0.000899656
0.000865636
0.000834362
0.000805577
0.000779047
0.000754565
0.000731943
0.000711011
0.000691618
0.000673627
0.000656914
0.000641367
0.000626886
0.00061338
0.000600767
0.000588972
0.000577928
0.000567574
0.000557854
0.000548718
0.00054012
0.000532019
0.000524377
0.000517159
0.000510333
0.000503871
0.000497747
0.000491936
0.000486415
0.000481166
0.000476169
0.000471407
0.000466864
0.000462526
0.000458379
0.000454411
0.00045061
0.000446966
0.000443469
0.00044011
0.00043688
0.000433772
0.000430778
0.000427892
0.000425107
0.000422417
0.000419817
0.000417302
0.000414867
0.000412507
0.00041022
0.000407999
0.000405844
0.000403749
0.000401712
0.00039973
0.000397802
0.000395924
0.000394094
0.000392312
0.000390575
0.000388882
0.000387232
0.000385625
0.00038406
0.000382537
0.000381056
0.000379618
0.000378223
0.000376874
0.000375571
0.000374316
0.000373113
0.000371963
0.000370871
0.000369841
0.000368876
0.000367982
0.000367164
0.000366428
0.000365781
0.00036523
0.000364781
0.000364442
0.00036422
0.000364124
0.000364158
0.000364328
0.000364638
0.000365087
0.000365671
0.000366379
0.000367189
0.000368069
0.000368964
0.000369799
0.000370462
0.000370812
0.000977119
0.000936711
0.000899656
0.000865636
0.000834362
0.000805577
0.000779047
0.000754565
0.000731943
0.000711012
0.000691619
0.000673628
0.000656915
0.000641368
0.000626888
0.000613382
0.000600769
0.000588974
0.00057793
0.000567576
0.000557856
0.00054872
0.000540123
0.000532022
0.00052438
0.000517162
0.000510336
0.000503875
0.000497751
0.00049194
0.00048642
0.000481171
0.000476174
0.000471412
0.00046687
0.000462532
0.000458385
0.000454417
0.000450617
0.000446973
0.000443477
0.000440118
0.000436888
0.000433781
0.000430787
0.000427901
0.000425117
0.000422427
0.000419828
0.000417313
0.000414879
0.00041252
0.000410232
0.000408013
0.000405857
0.000403763
0.000401727
0.000399746
0.000397817
0.00039594
0.000394111
0.000392329
0.000390593
0.0003889
0.000387251
0.000385644
0.00038408
0.000382557
0.000381077
0.000379639
0.000378245
0.000376895
0.000375592
0.000374338
0.000373134
0.000371985
0.000370892
0.000369861
0.000368896
0.000368001
0.000367182
0.000366445
0.000365797
0.000365244
0.000364793
0.000364452
0.000364228
0.000364129
0.00036416
0.000364327
0.000364633
0.000365079
0.000365659
0.000366363
0.000367171
0.000368046
0.000368939
0.000369771
0.000370433
0.000370782
0.000977119
0.000936711
0.000899656
0.000865636
0.000834363
0.000805577
0.000779048
0.000754566
0.000731944
0.000711012
0.00069162
0.000673629
0.000656916
0.000641369
0.000626889
0.000613383
0.00060077
0.000588975
0.000577932
0.000567578
0.000557858
0.000548722
0.000540125
0.000532025
0.000524383
0.000517165
0.00051034
0.000503878
0.000497754
0.000491944
0.000486424
0.000481175
0.000476179
0.000471417
0.000466875
0.000462538
0.000458391
0.000454424
0.000450624
0.00044698
0.000443484
0.000440126
0.000436897
0.00043379
0.000430797
0.000427911
0.000425127
0.000422438
0.000419839
0.000417325
0.000414891
0.000412532
0.000410245
0.000408026
0.000405871
0.000403778
0.000401742
0.000399761
0.000397834
0.000395957
0.000394129
0.000392347
0.000390611
0.000388919
0.000387271
0.000385664
0.0003841
0.000382578
0.000381098
0.000379661
0.000378267
0.000376918
0.000375615
0.00037436
0.000373157
0.000372007
0.000370914
0.000369883
0.000368917
0.000368021
0.000367201
0.000366463
0.000365813
0.000365259
0.000364806
0.000364463
0.000364236
0.000364134
0.000364162
0.000364326
0.000364629
0.000365071
0.000365647
0.000366348
0.000367151
0.000368023
0.000368913
0.000369742
0.000370402
0.000370751
0.000977119
0.000936711
0.000899657
0.000865636
0.000834363
0.000805577
0.000779048
0.000754566
0.000731944
0.000711013
0.00069162
0.000673629
0.000656917
0.00064137
0.00062689
0.000613384
0.000600771
0.000588977
0.000577933
0.00056758
0.00055786
0.000548725
0.000540128
0.000532027
0.000524386
0.000517168
0.000510343
0.000503882
0.000497758
0.000491948
0.000486429
0.00048118
0.000476184
0.000471423
0.000466881
0.000462544
0.000458398
0.000454431
0.000450631
0.000446988
0.000443492
0.000440134
0.000436906
0.000433799
0.000430806
0.000427921
0.000425138
0.000422449
0.000419851
0.000417337
0.000414903
0.000412545
0.000410259
0.00040804
0.000405886
0.000403793
0.000401758
0.000399778
0.000397851
0.000395975
0.000394147
0.000392366
0.000390631
0.000388939
0.000387291
0.000385685
0.000384122
0.0003826
0.00038112
0.000379683
0.00037829
0.000376941
0.000375638
0.000374384
0.00037318
0.00037203
0.000370938
0.000369906
0.000368939
0.000368042
0.000367222
0.000366482
0.000365831
0.000365274
0.000364819
0.000364474
0.000364245
0.00036414
0.000364165
0.000364325
0.000364624
0.000365062
0.000365635
0.000366331
0.000367131
0.000368
0.000368886
0.000369712
0.00037037
0.000370718
0.000977119
0.000936711
0.000899657
0.000865637
0.000834363
0.000805577
0.000779048
0.000754566
0.000731944
0.000711013
0.000691621
0.00067363
0.000656917
0.000641371
0.000626891
0.000613386
0.000600773
0.000588979
0.000577935
0.000567582
0.000557862
0.000548727
0.00054013
0.00053203
0.000524389
0.000517171
0.000510347
0.000503886
0.000497763
0.000491952
0.000486434
0.000481185
0.000476189
0.000471429
0.000466887
0.00046255
0.000458404
0.000454438
0.000450638
0.000446996
0.0004435
0.000440143
0.000436915
0.000433808
0.000430816
0.000427932
0.000425148
0.000422461
0.000419862
0.000417349
0.000414916
0.000412559
0.000410273
0.000408055
0.000405901
0.000403809
0.000401774
0.000399795
0.000397868
0.000395993
0.000394166
0.000392385
0.000390651
0.00038896
0.000387312
0.000385707
0.000384144
0.000382623
0.000381144
0.000379707
0.000378314
0.000376965
0.000375663
0.000374408
0.000373205
0.000372055
0.000370961
0.000369929
0.000368962
0.000368064
0.000367243
0.000366502
0.000365849
0.000365291
0.000364834
0.000364486
0.000364254
0.000364146
0.000364168
0.000364325
0.00036462
0.000365054
0.000365623
0.000366315
0.00036711
0.000367975
0.000368858
0.000369682
0.000370338
0.000370685
0.000977119
0.000936711
0.000899657
0.000865637
0.000834363
0.000805578
0.000779048
0.000754567
0.000731945
0.000711014
0.000691622
0.000673631
0.000656918
0.000641372
0.000626892
0.000613387
0.000600774
0.00058898
0.000577937
0.000567584
0.000557865
0.00054873
0.000540133
0.000532033
0.000524392
0.000517175
0.00051035
0.00050389
0.000497767
0.000491957
0.000486438
0.00048119
0.000476195
0.000471434
0.000466893
0.000462557
0.000458411
0.000454445
0.000450646
0.000447004
0.000443509
0.000440152
0.000436924
0.000433818
0.000430827
0.000427942
0.00042516
0.000422472
0.000419875
0.000417362
0.00041493
0.000412573
0.000410287
0.00040807
0.000405917
0.000403825
0.000401791
0.000399812
0.000397887
0.000396011
0.000394185
0.000392405
0.000390671
0.000388981
0.000387334
0.000385729
0.000384167
0.000382646
0.000381167
0.000379731
0.000378338
0.00037699
0.000375688
0.000374433
0.00037323
0.00037208
0.000370986
0.000369953
0.000368985
0.000368087
0.000367264
0.000366522
0.000365868
0.000365307
0.000364848
0.000364498
0.000364264
0.000364152
0.000364171
0.000364324
0.000364616
0.000365046
0.00036561
0.000366298
0.000367089
0.000367951
0.00036883
0.000369651
0.000370305
0.00037065
0.000977119
0.000936711
0.000899657
0.000865637
0.000834363
0.000805578
0.000779049
0.000754567
0.000731945
0.000711014
0.000691622
0.000673632
0.000656919
0.000641373
0.000626893
0.000613388
0.000600776
0.000588982
0.000577939
0.000567586
0.000557867
0.000548732
0.000540136
0.000532036
0.000524395
0.000517178
0.000510354
0.000503894
0.000497771
0.000491962
0.000486443
0.000481196
0.0004762
0.00047144
0.000466899
0.000462563
0.000458418
0.000454452
0.000450654
0.000447012
0.000443518
0.000440161
0.000436934
0.000433828
0.000430837
0.000427953
0.000425171
0.000422484
0.000419887
0.000417375
0.000414943
0.000412587
0.000410302
0.000408085
0.000405933
0.000403841
0.000401808
0.00039983
0.000397905
0.000396031
0.000394205
0.000392426
0.000390692
0.000389003
0.000387356
0.000385752
0.00038419
0.00038267
0.000381192
0.000379756
0.000378363
0.000377015
0.000375713
0.000374459
0.000373256
0.000372105
0.000371011
0.000369978
0.000369009
0.00036811
0.000367286
0.000366543
0.000365887
0.000365325
0.000364864
0.000364511
0.000364274
0.000364159
0.000364174
0.000364324
0.000364611
0.000365037
0.000365598
0.000366281
0.000367068
0.000367925
0.000368801
0.000369619
0.000370271
0.000370616
0.000977119
0.000936711
0.000899657
0.000865637
0.000834363
0.000805578
0.000779049
0.000754568
0.000731946
0.000711015
0.000691623
0.000673632
0.00065692
0.000641374
0.000626894
0.00061339
0.000600777
0.000588984
0.000577941
0.000567588
0.000557869
0.000548735
0.000540138
0.000532039
0.000524398
0.000517182
0.000510358
0.000503898
0.000497775
0.000491966
0.000486448
0.000481201
0.000476206
0.000471446
0.000466906
0.00046257
0.000458425
0.00045446
0.000450662
0.00044702
0.000443526
0.00044017
0.000436943
0.000433838
0.000430848
0.000427964
0.000425183
0.000422496
0.0004199
0.000417388
0.000414957
0.000412601
0.000410317
0.000408101
0.000405949
0.000403858
0.000401826
0.000399848
0.000397924
0.00039605
0.000394225
0.000392446
0.000390713
0.000389025
0.000387379
0.000385775
0.000384214
0.000382694
0.000381217
0.000379781
0.000378389
0.000377041
0.000375739
0.000374485
0.000373282
0.000372131
0.000371037
0.000370003
0.000369034
0.000368134
0.000367309
0.000366564
0.000365907
0.000365343
0.000364879
0.000364524
0.000364284
0.000364166
0.000364178
0.000364324
0.000364607
0.000365029
0.000365585
0.000366264
0.000367047
0.0003679
0.000368772
0.000369587
0.000370237
0.000370581
0.000977119
0.000936711
0.000899657
0.000865637
0.000834363
0.000805578
0.000779049
0.000754568
0.000731946
0.000711015
0.000691623
0.000673633
0.000656921
0.000641375
0.000626896
0.000613391
0.000600779
0.000588985
0.000577942
0.00056759
0.000557871
0.000548737
0.000540141
0.000532042
0.000524401
0.000517185
0.000510362
0.000503902
0.00049778
0.000491971
0.000486453
0.000481206
0.000476212
0.000471452
0.000466912
0.000462576
0.000458432
0.000454467
0.00045067
0.000447029
0.000443535
0.000440179
0.000436953
0.000433848
0.000430858
0.000427976
0.000425194
0.000422509
0.000419913
0.000417402
0.000414971
0.000412616
0.000410332
0.000408117
0.000405965
0.000403875
0.000401843
0.000399867
0.000397943
0.00039607
0.000394245
0.000392467
0.000390735
0.000389047
0.000387402
0.000385799
0.000384238
0.000382719
0.000381242
0.000379807
0.000378415
0.000377067
0.000375766
0.000374512
0.000373308
0.000372158
0.000371063
0.000370029
0.000369059
0.000368158
0.000367332
0.000366586
0.000365927
0.000365361
0.000364895
0.000364537
0.000364295
0.000364174
0.000364182
0.000364324
0.000364603
0.000365021
0.000365572
0.000366247
0.000367026
0.000367875
0.000368743
0.000369555
0.000370202
0.000370545
0.000977119
0.000936711
0.000899657
0.000865637
0.000834364
0.000805578
0.00077905
0.000754568
0.000731947
0.000711016
0.000691624
0.000673634
0.000656922
0.000641376
0.000626897
0.000613392
0.00060078
0.000588987
0.000577944
0.000567592
0.000557873
0.000548739
0.000540144
0.000532045
0.000524405
0.000517189
0.000510365
0.000503906
0.000497784
0.000491975
0.000486458
0.000481211
0.000476217
0.000471458
0.000466918
0.000462583
0.000458439
0.000454475
0.000450677
0.000447037
0.000443544
0.000440189
0.000436963
0.000433859
0.000430869
0.000427987
0.000425206
0.000422521
0.000419926
0.000417415
0.000414985
0.00041263
0.000410348
0.000408133
0.000405982
0.000403892
0.000401861
0.000399885
0.000397962
0.000396089
0.000394266
0.000392489
0.000390757
0.000389069
0.000387425
0.000385823
0.000384262
0.000382744
0.000381267
0.000379833
0.000378441
0.000377094
0.000375793
0.000374539
0.000373335
0.000372184
0.00037109
0.000370055
0.000369084
0.000368183
0.000367355
0.000366608
0.000365947
0.000365379
0.000364912
0.000364551
0.000364305
0.000364182
0.000364186
0.000364324
0.0003646
0.000365013
0.00036556
0.00036623
0.000367004
0.000367849
0.000368714
0.000369522
0.000370168
0.00037051
0.000977119
0.000936711
0.000899657
0.000865637
0.000834364
0.000805579
0.00077905
0.000754568
0.000731947
0.000711016
0.000691625
0.000673635
0.000656923
0.000641377
0.000626898
0.000613393
0.000600782
0.000588988
0.000577946
0.000567594
0.000557876
0.000548742
0.000540146
0.000532048
0.000524408
0.000517192
0.000510369
0.00050391
0.000497788
0.00049198
0.000486463
0.000481217
0.000476223
0.000471464
0.000466925
0.00046259
0.000458447
0.000454482
0.000450685
0.000447045
0.000443553
0.000440198
0.000436973
0.000433869
0.00043088
0.000427998
0.000425218
0.000422533
0.000419938
0.000417429
0.000414999
0.000412645
0.000410363
0.000408149
0.000405999
0.00040391
0.000401879
0.000399904
0.000397981
0.000396109
0.000394286
0.00039251
0.000390779
0.000389092
0.000387448
0.000385847
0.000384287
0.000382769
0.000381293
0.000379858
0.000378467
0.000377121
0.000375819
0.000374566
0.000373362
0.000372211
0.000371116
0.000370081
0.00036911
0.000368207
0.000367379
0.00036663
0.000365968
0.000365398
0.000364928
0.000364565
0.000364317
0.000364189
0.00036419
0.000364325
0.000364596
0.000365005
0.000365548
0.000366214
0.000366983
0.000367824
0.000368685
0.00036949
0.000370134
0.000370474
0.000977119
0.000936711
0.000899657
0.000865637
0.000834364
0.000805579
0.00077905
0.000754569
0.000731947
0.000711017
0.000691625
0.000673635
0.000656923
0.000641378
0.000626899
0.000613395
0.000600783
0.00058899
0.000577948
0.000567596
0.000557878
0.000548744
0.000540149
0.00053205
0.000524411
0.000517195
0.000510373
0.000503914
0.000497792
0.000491985
0.000486468
0.000481222
0.000476228
0.00047147
0.000466931
0.000462597
0.000458454
0.00045449
0.000450693
0.000447054
0.000443561
0.000440207
0.000436982
0.000433879
0.00043089
0.000428009
0.00042523
0.000422546
0.000419951
0.000417442
0.000415013
0.00041266
0.000410378
0.000408164
0.000406015
0.000403927
0.000401897
0.000399922
0.000398
0.000396129
0.000394307
0.000392531
0.000390801
0.000389114
0.000387471
0.00038587
0.000384311
0.000382794
0.000381318
0.000379884
0.000378494
0.000377147
0.000375846
0.000374593
0.000373389
0.000372238
0.000371143
0.000370107
0.000369135
0.000368232
0.000367403
0.000366653
0.000365988
0.000365417
0.000364945
0.000364579
0.000364328
0.000364198
0.000364195
0.000364326
0.000364593
0.000364998
0.000365536
0.000366197
0.000366962
0.000367799
0.000368656
0.000369458
0.000370099
0.000370439
0.000977119
0.000936711
0.000899657
0.000865637
0.000834364
0.000805579
0.00077905
0.000754569
0.000731948
0.000711017
0.000691626
0.000673636
0.000656924
0.000641379
0.0006269
0.000613396
0.000600784
0.000588992
0.00057795
0.000567598
0.00055788
0.000548747
0.000540152
0.000532053
0.000524414
0.000517199
0.000510376
0.000503918
0.000497797
0.000491989
0.000486473
0.000481227
0.000476234
0.000471476
0.000466937
0.000462603
0.000458461
0.000454497
0.000450701
0.000447062
0.00044357
0.000440216
0.000436992
0.000433889
0.000430901
0.000428021
0.000425241
0.000422558
0.000419964
0.000417456
0.000415027
0.000412674
0.000410393
0.00040818
0.000406032
0.000403944
0.000401915
0.000399941
0.000398019
0.000396149
0.000394327
0.000392552
0.000390823
0.000389137
0.000387494
0.000385894