/*--------------------------------*- C++ -*----------------------------------*\
  =========                 |
  \\      /  F ield         | OpenFOAM: The Open Source CFD Toolbox
   \\    /   O peration     | Website:  https://openfoam.org
    \\  /    A nd           | Version:  11
     \\/     M anipulation  |
\*---------------------------------------------------------------------------*/
FoamFile
{
    format      ascii;
    class       volScalarField;
    location    "474";
    object      k;
}
// * * * * * * * * * * * * * * * * * * * * * * * * * * * * * * * * * * * * * //

dimensions      [0 2 -2 0 0 0 0];

internalField   nonuniform List<scalar> 
10000
(
0.000939686
0.000835715
0.000745885
0.000668025
0.000600328
0.000541284
0.000489625
0.000444291
0.000404387
0.000369158
0.000337964
0.000310265
0.0002856
0.000263575
0.000243855
0.000226151
0.000210218
0.000195842
0.000182838
0.000171049
0.000160334
0.000150576
0.000141668
0.00013352
0.00012605
0.00011919
0.000112876
0.000107054
0.000101677
9.67004e-05
9.20873e-05
8.78038e-05
8.38199e-05
8.01087e-05
7.66463e-05
7.34111e-05
7.03838e-05
6.75472e-05
6.48856e-05
6.23849e-05
6.00324e-05
5.78165e-05
5.57267e-05
5.37537e-05
5.18887e-05
5.0124e-05
4.84523e-05
4.68672e-05
4.53627e-05
4.39333e-05
4.25742e-05
4.12807e-05
4.00486e-05
3.88743e-05
3.77541e-05
3.66848e-05
3.56637e-05
3.46879e-05
3.3755e-05
3.28628e-05
3.20093e-05
3.11926e-05
3.04111e-05
2.96632e-05
2.89477e-05
2.82633e-05
2.76088e-05
2.69835e-05
2.63863e-05
2.58167e-05
2.52739e-05
2.47573e-05
2.42665e-05
2.38011e-05
2.33606e-05
2.29447e-05
2.2553e-05
2.21853e-05
2.18411e-05
2.152e-05
2.12217e-05
2.09455e-05
2.06911e-05
2.04578e-05
2.02448e-05
2.00513e-05
1.98766e-05
1.97198e-05
1.95798e-05
1.94556e-05
1.93461e-05
1.92501e-05
1.91664e-05
1.9094e-05
1.9032e-05
1.89793e-05
1.89354e-05
1.89e-05
1.88734e-05
1.88573e-05
0.000939686
0.000835715
0.000745885
0.000668025
0.000600328
0.000541284
0.000489626
0.000444292
0.000404387
0.000369158
0.000337964
0.000310265
0.0002856
0.000263575
0.000243855
0.000226152
0.000210218
0.000195842
0.000182838
0.000171049
0.000160335
0.000150576
0.000141668
0.00013352
0.000126051
0.00011919
0.000112876
0.000107055
0.000101677
9.67006e-05
9.20876e-05
8.78041e-05
8.38202e-05
8.0109e-05
7.66465e-05
7.34114e-05
7.03842e-05
6.75476e-05
6.4886e-05
6.23853e-05
6.00327e-05
5.78168e-05
5.57271e-05
5.3754e-05
5.18891e-05
5.01243e-05
4.84527e-05
4.68676e-05
4.53631e-05
4.39338e-05
4.25746e-05
4.12811e-05
4.00491e-05
3.88748e-05
3.77546e-05
3.66854e-05
3.56642e-05
3.46884e-05
3.37555e-05
3.28634e-05
3.20099e-05
3.11932e-05
3.04117e-05
2.96639e-05
2.89484e-05
2.82639e-05
2.76095e-05
2.69842e-05
2.63871e-05
2.58174e-05
2.52746e-05
2.47581e-05
2.42673e-05
2.38019e-05
2.33614e-05
2.29455e-05
2.25538e-05
2.2186e-05
2.18418e-05
2.15207e-05
2.12223e-05
2.09462e-05
2.06918e-05
2.04584e-05
2.02454e-05
2.00519e-05
1.98772e-05
1.97204e-05
1.95803e-05
1.94561e-05
1.93464e-05
1.92503e-05
1.91666e-05
1.90942e-05
1.9032e-05
1.89793e-05
1.89354e-05
1.88999e-05
1.88734e-05
1.88573e-05
0.000939686
0.000835715
0.000745885
0.000668025
0.000600329
0.000541284
0.000489626
0.000444292
0.000404388
0.000369158
0.000337965
0.000310266
0.0002856
0.000263575
0.000243855
0.000226152
0.000210219
0.000195842
0.000182839
0.000171049
0.000160335
0.000150577
0.000141669
0.00013352
0.000126051
0.00011919
0.000112877
0.000107055
0.000101678
9.67012e-05
9.20881e-05
8.78046e-05
8.38207e-05
8.01095e-05
7.66471e-05
7.34119e-05
7.03847e-05
6.75482e-05
6.48866e-05
6.23859e-05
6.00334e-05
5.78175e-05
5.57277e-05
5.37547e-05
5.18898e-05
5.0125e-05
4.84534e-05
4.68683e-05
4.53638e-05
4.39345e-05
4.25754e-05
4.12819e-05
4.00499e-05
3.88756e-05
3.77554e-05
3.66862e-05
3.56651e-05
3.46893e-05
3.37565e-05
3.28643e-05
3.20109e-05
3.11942e-05
3.04127e-05
2.96649e-05
2.89494e-05
2.8265e-05
2.76106e-05
2.69853e-05
2.63881e-05
2.58185e-05
2.52757e-05
2.47591e-05
2.42683e-05
2.38029e-05
2.33624e-05
2.29464e-05
2.25547e-05
2.21869e-05
2.18427e-05
2.15215e-05
2.12231e-05
2.09469e-05
2.06924e-05
2.0459e-05
2.0246e-05
2.00525e-05
1.98778e-05
1.97208e-05
1.95807e-05
1.94564e-05
1.93467e-05
1.92505e-05
1.91667e-05
1.90942e-05
1.9032e-05
1.89793e-05
1.89354e-05
1.88999e-05
1.88734e-05
1.88572e-05
0.000939686
0.000835715
0.000745885
0.000668026
0.000600329
0.000541284
0.000489626
0.000444293
0.000404388
0.000369159
0.000337965
0.000310266
0.000285601
0.000263576
0.000243856
0.000226153
0.00021022
0.000195843
0.00018284
0.00017105
0.000160336
0.000150577
0.00014167
0.000133521
0.000126052
0.000119191
0.000112877
0.000107056
0.000101678
9.67019e-05
9.20889e-05
8.78054e-05
8.38215e-05
8.01104e-05
7.66479e-05
7.34128e-05
7.03856e-05
6.7549e-05
6.48875e-05
6.23868e-05
6.00343e-05
5.78184e-05
5.57287e-05
5.37557e-05
5.18908e-05
5.01261e-05
4.84545e-05
4.68694e-05
4.53649e-05
4.39357e-05
4.25766e-05
4.12831e-05
4.00511e-05
3.88768e-05
3.77567e-05
3.66875e-05
3.56664e-05
3.46906e-05
3.37578e-05
3.28657e-05
3.20122e-05
3.11956e-05
3.04141e-05
2.96663e-05
2.89508e-05
2.82664e-05
2.7612e-05
2.69867e-05
2.63896e-05
2.58199e-05
2.52771e-05
2.47605e-05
2.42697e-05
2.38042e-05
2.33637e-05
2.29477e-05
2.2556e-05
2.21881e-05
2.18438e-05
2.15226e-05
2.12241e-05
2.09478e-05
2.06932e-05
2.04597e-05
2.02466e-05
2.00531e-05
1.98783e-05
1.97213e-05
1.95811e-05
1.94567e-05
1.93469e-05
1.92506e-05
1.91667e-05
1.90942e-05
1.9032e-05
1.89793e-05
1.89353e-05
1.88998e-05
1.88733e-05
1.88572e-05
0.000939686
0.000835716
0.000745885
0.000668026
0.00060033
0.000541285
0.000489627
0.000444293
0.000404389
0.000369159
0.000337966
0.000310267
0.000285602
0.000263577
0.000243857
0.000226154
0.00021022
0.000195844
0.00018284
0.000171051
0.000160337
0.000150578
0.00014167
0.000133522
0.000126053
0.000119192
0.000112878
0.000107057
0.000101679
9.67029e-05
9.20899e-05
8.78065e-05
8.38226e-05
8.01114e-05
7.6649e-05
7.34139e-05
7.03867e-05
6.75502e-05
6.48886e-05
6.2388e-05
6.00355e-05
5.78197e-05
5.573e-05
5.3757e-05
5.18921e-05
5.01274e-05
4.84558e-05
4.68708e-05
4.53664e-05
4.39371e-05
4.25781e-05
4.12846e-05
4.00527e-05
3.88784e-05
3.77583e-05
3.66892e-05
3.56681e-05
3.46923e-05
3.37595e-05
3.28674e-05
3.2014e-05
3.11974e-05
3.0416e-05
2.96682e-05
2.89527e-05
2.82683e-05
2.76139e-05
2.69886e-05
2.63915e-05
2.58218e-05
2.52789e-05
2.47623e-05
2.42715e-05
2.3806e-05
2.33654e-05
2.29493e-05
2.25575e-05
2.21896e-05
2.18451e-05
2.15238e-05
2.12253e-05
2.09489e-05
2.06942e-05
2.04606e-05
2.02474e-05
2.00537e-05
1.98788e-05
1.97217e-05
1.95815e-05
1.94569e-05
1.93471e-05
1.92507e-05
1.91668e-05
1.90942e-05
1.90319e-05
1.89792e-05
1.89352e-05
1.88997e-05
1.88732e-05
1.8857e-05
0.000939686
0.000835716
0.000745886
0.000668026
0.00060033
0.000541285
0.000489628
0.000444294
0.00040439
0.00036916
0.000337967
0.000310268
0.000285602
0.000263578
0.000243858
0.000226155
0.000210221
0.000195845
0.000182841
0.000171052
0.000160338
0.000150579
0.000141672
0.000133523
0.000126054
0.000119193
0.00011288
0.000107058
0.00010168
9.67041e-05
9.20911e-05
8.78077e-05
8.38239e-05
8.01127e-05
7.66504e-05
7.34153e-05
7.03881e-05
6.75516e-05
6.48901e-05
6.23895e-05
6.0037e-05
5.78212e-05
5.57315e-05
5.37586e-05
5.18937e-05
5.01291e-05
4.84575e-05
4.68725e-05
4.53682e-05
4.39389e-05
4.25799e-05
4.12865e-05
4.00546e-05
3.88804e-05
3.77603e-05
3.66912e-05
3.56701e-05
3.46944e-05
3.37617e-05
3.28696e-05
3.20162e-05
3.11996e-05
3.04182e-05
2.96705e-05
2.8955e-05
2.82706e-05
2.76162e-05
2.69909e-05
2.63937e-05
2.58241e-05
2.52812e-05
2.47645e-05
2.42737e-05
2.38081e-05
2.33674e-05
2.29513e-05
2.25594e-05
2.21913e-05
2.18468e-05
2.15254e-05
2.12267e-05
2.09502e-05
2.06954e-05
2.04616e-05
2.02483e-05
2.00545e-05
1.98795e-05
1.97222e-05
1.95818e-05
1.94572e-05
1.93472e-05
1.92508e-05
1.91667e-05
1.90941e-05
1.90318e-05
1.8979e-05
1.8935e-05
1.88996e-05
1.8873e-05
1.88568e-05
0.000939686
0.000835716
0.000745886
0.000668027
0.00060033
0.000541286
0.000489628
0.000444295
0.00040439
0.000369161
0.000337968
0.000310269
0.000285603
0.000263579
0.000243859
0.000226156
0.000210222
0.000195846
0.000182843
0.000171053
0.000160339
0.00015058
0.000141673
0.000133524
0.000126055
0.000119195
0.000112881
0.000107059
0.000101682
9.67056e-05
9.20926e-05
8.78092e-05
8.38254e-05
8.01143e-05
7.66519e-05
7.34168e-05
7.03897e-05
6.75532e-05
6.48918e-05
6.23912e-05
6.00388e-05
5.7823e-05
5.57334e-05
5.37605e-05
5.18956e-05
5.0131e-05
4.84595e-05
4.68746e-05
4.53702e-05
4.39411e-05
4.25821e-05
4.12887e-05
4.00569e-05
3.88827e-05
3.77626e-05
3.66936e-05
3.56726e-05
3.46969e-05
3.37642e-05
3.28722e-05
3.20188e-05
3.12023e-05
3.04209e-05
2.96731e-05
2.89577e-05
2.82733e-05
2.76189e-05
2.69936e-05
2.63964e-05
2.58267e-05
2.52838e-05
2.47671e-05
2.42762e-05
2.38105e-05
2.33698e-05
2.29535e-05
2.25615e-05
2.21934e-05
2.18487e-05
2.15271e-05
2.12283e-05
2.09516e-05
2.06967e-05
2.04628e-05
2.02492e-05
2.00553e-05
1.98801e-05
1.97228e-05
1.95822e-05
1.94575e-05
1.93474e-05
1.92508e-05
1.91667e-05
1.9094e-05
1.90317e-05
1.89788e-05
1.89348e-05
1.88993e-05
1.88728e-05
1.88565e-05
0.000939686
0.000835716
0.000745886
0.000668027
0.000600331
0.000541287
0.000489629
0.000444295
0.000404391
0.000369162
0.000337969
0.00031027
0.000285604
0.00026358
0.00024386
0.000226157
0.000210224
0.000195847
0.000182844
0.000171054
0.00016034
0.000150582
0.000141674
0.000133526
0.000126057
0.000119196
0.000112882
0.000107061
0.000101683
9.67072e-05
9.20942e-05
8.78109e-05
8.38271e-05
8.0116e-05
7.66537e-05
7.34186e-05
7.03916e-05
6.75551e-05
6.48937e-05
6.23931e-05
6.00408e-05
5.7825e-05
5.57355e-05
5.37626e-05
5.18978e-05
5.01333e-05
4.84618e-05
4.68769e-05
4.53726e-05
4.39435e-05
4.25846e-05
4.12913e-05
4.00595e-05
3.88853e-05
3.77653e-05
3.66963e-05
3.56754e-05
3.46997e-05
3.37671e-05
3.28751e-05
3.20218e-05
3.12052e-05
3.04239e-05
2.96762e-05
2.89607e-05
2.82764e-05
2.7622e-05
2.69966e-05
2.63995e-05
2.58297e-05
2.52868e-05
2.477e-05
2.4279e-05
2.38133e-05
2.33724e-05
2.29561e-05
2.2564e-05
2.21957e-05
2.18508e-05
2.15291e-05
2.12301e-05
2.09533e-05
2.06981e-05
2.0464e-05
2.02503e-05
2.00562e-05
1.98808e-05
1.97233e-05
1.95826e-05
1.94577e-05
1.93475e-05
1.92508e-05
1.91666e-05
1.90938e-05
1.90314e-05
1.89786e-05
1.89345e-05
1.8899e-05
1.88724e-05
1.88561e-05
0.000939687
0.000835716
0.000745886
0.000668027
0.000600331
0.000541287
0.00048963
0.000444296
0.000404392
0.000369163
0.00033797
0.000310271
0.000285606
0.000263581
0.000243861
0.000226158
0.000210225
0.000195849
0.000182845
0.000171056
0.000160342
0.000150583
0.000141676
0.000133527
0.000126058
0.000119198
0.000112884
0.000107063
0.000101685
9.67089e-05
9.2096e-05
8.78127e-05
8.38289e-05
8.01179e-05
7.66557e-05
7.34206e-05
7.03936e-05
6.75572e-05
6.48958e-05
6.23953e-05
6.0043e-05
5.78273e-05
5.57378e-05
5.3765e-05
5.19003e-05
5.01358e-05
4.84644e-05
4.68795e-05
4.53753e-05
4.39462e-05
4.25873e-05
4.12941e-05
4.00623e-05
3.88883e-05
3.77683e-05
3.66994e-05
3.56785e-05
3.47029e-05
3.37703e-05
3.28783e-05
3.20251e-05
3.12086e-05
3.04273e-05
2.96796e-05
2.89641e-05
2.82798e-05
2.76254e-05
2.7e-05
2.64029e-05
2.58331e-05
2.52901e-05
2.47733e-05
2.42822e-05
2.38164e-05
2.33754e-05
2.29589e-05
2.25667e-05
2.21982e-05
2.18532e-05
2.15313e-05
2.12321e-05
2.0955e-05
2.06997e-05
2.04654e-05
2.02514e-05
2.00571e-05
1.98816e-05
1.97239e-05
1.9583e-05
1.94579e-05
1.93475e-05
1.92507e-05
1.91664e-05
1.90936e-05
1.90311e-05
1.89782e-05
1.89341e-05
1.88985e-05
1.88719e-05
1.88556e-05
0.000939687
0.000835716
0.000745886
0.000668028
0.000600332
0.000541288
0.00048963
0.000444297
0.000404393
0.000369164
0.000337971
0.000310272
0.000285607
0.000263582
0.000243862
0.000226159
0.000210226
0.00019585
0.000182847
0.000171057
0.000160343
0.000150585
0.000141677
0.000133529
0.00012606
0.000119199
0.000112886
0.000107064
0.000101687
9.67109e-05
9.2098e-05
8.78147e-05
8.3831e-05
8.012e-05
7.66578e-05
7.34228e-05
7.03959e-05
6.75595e-05
6.48982e-05
6.23977e-05
6.00454e-05
5.78298e-05
5.57404e-05
5.37676e-05
5.19029e-05
5.01385e-05
4.84671e-05
4.68824e-05
4.53782e-05
4.39492e-05
4.25904e-05
4.12972e-05
4.00655e-05
3.88915e-05
3.77716e-05
3.67027e-05
3.56819e-05
3.47064e-05
3.37738e-05
3.28819e-05
3.20287e-05
3.12123e-05
3.0431e-05
2.96833e-05
2.89679e-05
2.82836e-05
2.76292e-05
2.70038e-05
2.64066e-05
2.58368e-05
2.52937e-05
2.47768e-05
2.42857e-05
2.38197e-05
2.33786e-05
2.29621e-05
2.25696e-05
2.2201e-05
2.18558e-05
2.15337e-05
2.12342e-05
2.0957e-05
2.07014e-05
2.04668e-05
2.02527e-05
2.00581e-05
1.98824e-05
1.97244e-05
1.95834e-05
1.94581e-05
1.93476e-05
1.92506e-05
1.91662e-05
1.90932e-05
1.90307e-05
1.89777e-05
1.89336e-05
1.8898e-05
1.88713e-05
1.88549e-05
0.000939687
0.000835716
0.000745887
0.000668028
0.000600332
0.000541288
0.000489631
0.000444297
0.000404394
0.000369165
0.000337972
0.000310273
0.000285608
0.000263583
0.000243864
0.000226161
0.000210228
0.000195852
0.000182848
0.000171059
0.000160345
0.000150587
0.000141679
0.000133531
0.000126062
0.000119201
0.000112888
0.000107066
0.000101689
9.67129e-05
9.21001e-05
8.78169e-05
8.38332e-05
8.01223e-05
7.66601e-05
7.34252e-05
7.03983e-05
6.7562e-05
6.49007e-05
6.24003e-05
6.00481e-05
5.78325e-05
5.57431e-05
5.37704e-05
5.19058e-05
5.01415e-05
4.84702e-05
4.68854e-05
4.53813e-05
4.39524e-05
4.25937e-05
4.13006e-05
4.0069e-05
3.8895e-05
3.77752e-05
3.67064e-05
3.56856e-05
3.47102e-05
3.37776e-05
3.28858e-05
3.20326e-05
3.12162e-05
3.0435e-05
2.96873e-05
2.8972e-05
2.82876e-05
2.76333e-05
2.70079e-05
2.64106e-05
2.58408e-05
2.52976e-05
2.47807e-05
2.42894e-05
2.38234e-05
2.33821e-05
2.29654e-05
2.25728e-05
2.22039e-05
2.18585e-05
2.15362e-05
2.12365e-05
2.0959e-05
2.07032e-05
2.04684e-05
2.0254e-05
2.00592e-05
1.98832e-05
1.9725e-05
1.95837e-05
1.94583e-05
1.93476e-05
1.92505e-05
1.91659e-05
1.90928e-05
1.90302e-05
1.89771e-05
1.89329e-05
1.88973e-05
1.88706e-05
1.88542e-05
0.000939687
0.000835716
0.000745887
0.000668028
0.000600332
0.000541289
0.000489631
0.000444298
0.000404395
0.000369166
0.000337973
0.000310274
0.000285609
0.000263585
0.000243865
0.000226162
0.000210229
0.000195853
0.00018285
0.000171061
0.000160347
0.000150588
0.000141681
0.000133533
0.000126064
0.000119203
0.00011289
0.000107069
0.000101691
9.67151e-05
9.21024e-05
8.78192e-05
8.38356e-05
8.01247e-05
7.66626e-05
7.34277e-05
7.04008e-05
6.75646e-05
6.49034e-05
6.24031e-05
6.00509e-05
5.78354e-05
5.57461e-05
5.37734e-05
5.19089e-05
5.01446e-05
4.84734e-05
4.68887e-05
4.53847e-05
4.39559e-05
4.25972e-05
4.13042e-05
4.00726e-05
3.88987e-05
3.7779e-05
3.67103e-05
3.56896e-05
3.47142e-05
3.37817e-05
3.289e-05
3.20368e-05
3.12205e-05
3.04393e-05
2.96917e-05
2.89763e-05
2.8292e-05
2.76376e-05
2.70122e-05
2.64149e-05
2.5845e-05
2.53019e-05
2.47848e-05
2.42934e-05
2.38273e-05
2.33859e-05
2.2969e-05
2.25762e-05
2.22071e-05
2.18615e-05
2.15389e-05
2.1239e-05
2.09612e-05
2.07051e-05
2.047e-05
2.02553e-05
2.00603e-05
1.9884e-05
1.97256e-05
1.95841e-05
1.94584e-05
1.93475e-05
1.92502e-05
1.91655e-05
1.90923e-05
1.90296e-05
1.89765e-05
1.89322e-05
1.88965e-05
1.88698e-05
1.88533e-05
0.000939687
0.000835716
0.000745887
0.000668028
0.000600333
0.000541289
0.000489632
0.000444299
0.000404395
0.000369167
0.000337974
0.000310275
0.00028561
0.000263586
0.000243866
0.000226164
0.000210231
0.000195855
0.000182852
0.000171062
0.000160349
0.00015059
0.000141683
0.000133535
0.000126066
0.000119205
0.000112892
0.000107071
0.000101693
9.67174e-05
9.21047e-05
8.78216e-05
8.3838e-05
8.01272e-05
7.66651e-05
7.34304e-05
7.04036e-05
6.75674e-05
6.49062e-05
6.2406e-05
6.00539e-05
5.78384e-05
5.57492e-05
5.37766e-05
5.19122e-05
5.0148e-05
4.84768e-05
4.68922e-05
4.53883e-05
4.39595e-05
4.26009e-05
4.1308e-05
4.00765e-05
3.89027e-05
3.77831e-05
3.67144e-05
3.56938e-05
3.47185e-05
3.37861e-05
3.28944e-05
3.20413e-05
3.1225e-05
3.04438e-05
2.96963e-05
2.89809e-05
2.82966e-05
2.76422e-05
2.70168e-05
2.64195e-05
2.58496e-05
2.53063e-05
2.47892e-05
2.42977e-05
2.38314e-05
2.33898e-05
2.29727e-05
2.25797e-05
2.22105e-05
2.18646e-05
2.15418e-05
2.12415e-05
2.09635e-05
2.07071e-05
2.04717e-05
2.02567e-05
2.00614e-05
1.98848e-05
1.97262e-05
1.95844e-05
1.94585e-05
1.93474e-05
1.92499e-05
1.91651e-05
1.90917e-05
1.90289e-05
1.89757e-05
1.89313e-05
1.88956e-05
1.88688e-05
1.88523e-05
0.000939687
0.000835717
0.000745887
0.000668029
0.000600333
0.00054129
0.000489632
0.000444299
0.000404396
0.000369167
0.000337975
0.000310276
0.000285612
0.000263587
0.000243868
0.000226165
0.000210232
0.000195856
0.000182853
0.000171064
0.00016035
0.000150592
0.000141685
0.000133537
0.000126068
0.000119208
0.000112894
0.000107073
0.000101696
9.67198e-05
9.21072e-05
8.78241e-05
8.38406e-05
8.01298e-05
7.66678e-05
7.34331e-05
7.04064e-05
6.75703e-05
6.49092e-05
6.2409e-05
6.0057e-05
5.78416e-05
5.57525e-05
5.378e-05
5.19156e-05
5.01515e-05
4.84804e-05
4.68959e-05
4.53921e-05
4.39634e-05
4.26049e-05
4.1312e-05
4.00806e-05
3.89069e-05
3.77874e-05
3.67188e-05
3.56982e-05
3.4723e-05
3.37907e-05
3.2899e-05
3.2046e-05
3.12298e-05
3.04486e-05
2.97011e-05
2.89858e-05
2.83015e-05
2.76471e-05
2.70217e-05
2.64243e-05
2.58543e-05
2.5311e-05
2.47938e-05
2.43021e-05
2.38357e-05
2.3394e-05
2.29767e-05
2.25835e-05
2.2214e-05
2.18678e-05
2.15447e-05
2.12442e-05
2.09659e-05
2.07092e-05
2.04735e-05
2.02582e-05
2.00625e-05
1.98857e-05
1.97267e-05
1.95847e-05
1.94586e-05
1.93472e-05
1.92496e-05
1.91646e-05
1.90911e-05
1.90281e-05
1.89748e-05
1.89303e-05
1.88945e-05
1.88677e-05
1.88512e-05
0.000939687
0.000835717
0.000745887
0.000668029
0.000600333
0.00054129
0.000489633
0.0004443
0.000404397
0.000369168
0.000337976
0.000310278
0.000285613
0.000263589
0.000243869
0.000226167
0.000210234
0.000195858
0.000182855
0.000171066
0.000160352
0.000150594
0.000141687
0.000133539
0.00012607
0.00011921
0.000112896
0.000107075
0.000101698
9.67223e-05
9.21097e-05
8.78267e-05
8.38433e-05
8.01326e-05
7.66706e-05
7.3436e-05
7.04093e-05
6.75733e-05
6.49123e-05
6.24122e-05
6.00602e-05
5.7845e-05
5.57559e-05
5.37835e-05
5.19192e-05
5.01551e-05
4.84842e-05
4.68998e-05
4.5396e-05
4.39674e-05
4.2609e-05
4.13162e-05
4.00849e-05
3.89113e-05
3.77918e-05
3.67233e-05
3.57028e-05
3.47277e-05
3.37954e-05
3.29039e-05
3.20509e-05
3.12347e-05
3.04537e-05
2.97062e-05
2.89909e-05
2.83066e-05
2.76522e-05
2.70267e-05
2.64293e-05
2.58593e-05
2.53159e-05
2.47985e-05
2.43068e-05
2.38402e-05
2.33983e-05
2.29808e-05
2.25874e-05
2.22176e-05
2.18712e-05
2.15478e-05
2.1247e-05
2.09684e-05
2.07113e-05
2.04753e-05
2.02597e-05
2.00637e-05
1.98866e-05
1.97273e-05
1.9585e-05
1.94586e-05
1.9347e-05
1.92492e-05
1.9164e-05
1.90903e-05
1.90272e-05
1.89737e-05
1.89292e-05
1.88934e-05
1.88665e-05
1.88499e-05
0.000939687
0.000835717
0.000745887
0.000668029
0.000600334
0.00054129
0.000489634
0.000444301
0.000404398
0.000369169
0.000337977
0.000310279
0.000285614
0.00026359
0.00024387
0.000226168
0.000210236
0.00019586
0.000182857
0.000171068
0.000160354
0.000150596
0.000141689
0.000133541
0.000126072
0.000119212
0.000112899
0.000107078
0.000101701
9.67248e-05
9.21123e-05
8.78294e-05
8.3846e-05
8.01354e-05
7.66735e-05
7.3439e-05
7.04124e-05
6.75764e-05
6.49155e-05
6.24154e-05
6.00636e-05
5.78484e-05
5.57594e-05
5.37871e-05
5.19229e-05
5.01589e-05
4.8488e-05
4.69037e-05
4.54e-05
4.39715e-05
4.26132e-05
4.13205e-05
4.00893e-05
3.89158e-05
3.77964e-05
3.6728e-05
3.57076e-05
3.47326e-05
3.38004e-05
3.29089e-05
3.2056e-05
3.12399e-05
3.04589e-05
2.97114e-05
2.89961e-05
2.83118e-05
2.76574e-05
2.7032e-05
2.64345e-05
2.58644e-05
2.53209e-05
2.48035e-05
2.43116e-05
2.38448e-05
2.34028e-05
2.29851e-05
2.25914e-05
2.22214e-05
2.18747e-05
2.1551e-05
2.12499e-05
2.09709e-05
2.07135e-05
2.04772e-05
2.02612e-05
2.00649e-05
1.98874e-05
1.97279e-05
1.95852e-05
1.94586e-05
1.93467e-05
1.92487e-05
1.91633e-05
1.90894e-05
1.90262e-05
1.89726e-05
1.8928e-05
1.88921e-05
1.88651e-05
1.88485e-05
0.000939687
0.000835717
0.000745888
0.000668029
0.000600334
0.000541291
0.000489634
0.000444301
0.000404398
0.00036917
0.000337978
0.00031028
0.000285615
0.000263591
0.000243872
0.00022617
0.000210237
0.000195861
0.000182859
0.000171069
0.000160356
0.000150598
0.000141691
0.000133543
0.000126074
0.000119214
0.000112901
0.00010708
0.000101703
9.67274e-05
9.21149e-05
8.78321e-05
8.38488e-05
8.01383e-05
7.66765e-05
7.3442e-05
7.04155e-05
6.75796e-05
6.49187e-05
6.24188e-05
6.0067e-05
5.78519e-05
5.5763e-05
5.37908e-05
5.19267e-05
5.01628e-05
4.8492e-05
4.69078e-05
4.54042e-05
4.39758e-05
4.26176e-05
4.1325e-05
4.00939e-05
3.89205e-05
3.78012e-05
3.67329e-05
3.57126e-05
3.47376e-05
3.38055e-05
3.29141e-05
3.20613e-05
3.12452e-05
3.04642e-05
2.97168e-05
2.90015e-05
2.83173e-05
2.76629e-05
2.70374e-05
2.64399e-05
2.58697e-05
2.53261e-05
2.48086e-05
2.43165e-05
2.38496e-05
2.34074e-05
2.29895e-05
2.25955e-05
2.22252e-05
2.18783e-05
2.15543e-05
2.12528e-05
2.09735e-05
2.07158e-05
2.04791e-05
2.02628e-05
2.00661e-05
1.98883e-05
1.97284e-05
1.95855e-05
1.94585e-05
1.93464e-05
1.92481e-05
1.91625e-05
1.90885e-05
1.90251e-05
1.89714e-05
1.89267e-05
1.88906e-05
1.88636e-05
1.8847e-05
0.000939687
0.000835717
0.000745888
0.00066803
0.000600334
0.000541291
0.000489634
0.000444302
0.000404399
0.000369171
0.000337979
0.000310281
0.000285616
0.000263592
0.000243873
0.000226171
0.000210239
0.000195863
0.00018286
0.000171071
0.000160358
0.0001506
0.000141693
0.000133545
0.000126077
0.000119217
0.000112904
0.000107083
0.000101706
9.673e-05
9.21176e-05
8.78348e-05
8.38516e-05
8.01412e-05
7.66795e-05
7.34451e-05
7.04186e-05
6.75828e-05
6.49221e-05
6.24222e-05
6.00705e-05
5.78555e-05
5.57667e-05
5.37946e-05
5.19306e-05
5.01668e-05
4.84961e-05
4.6912e-05
4.54085e-05
4.39802e-05
4.26221e-05
4.13296e-05
4.00986e-05
3.89253e-05
3.78061e-05
3.67378e-05
3.57176e-05
3.47427e-05
3.38107e-05
3.29194e-05
3.20666e-05
3.12506e-05
3.04697e-05
2.97223e-05
2.90071e-05
2.83228e-05
2.76684e-05
2.70429e-05
2.64454e-05
2.58751e-05
2.53314e-05
2.48138e-05
2.43216e-05
2.38545e-05
2.34121e-05
2.29939e-05
2.25998e-05
2.22292e-05
2.1882e-05
2.15576e-05
2.12558e-05
2.09762e-05
2.07181e-05
2.0481e-05
2.02643e-05
2.00673e-05
1.98891e-05
1.97289e-05
1.95857e-05
1.94584e-05
1.93461e-05
1.92475e-05
1.91617e-05
1.90875e-05
1.90239e-05
1.897e-05
1.89252e-05
1.88891e-05
1.8862e-05
1.88454e-05
0.000939687
0.000835717
0.000745888
0.00066803
0.000600335
0.000541291
0.000489635
0.000444302
0.0004044
0.000369172
0.000337979
0.000310282
0.000285617
0.000263593
0.000243874
0.000226172
0.00021024
0.000195865
0.000182862
0.000171073
0.00016036
0.000150602
0.000141695
0.000133547
0.000126079
0.000119219
0.000112906
0.000107085
0.000101708
9.67326e-05
9.21203e-05
8.78376e-05
8.38545e-05
8.01441e-05
7.66825e-05
7.34482e-05
7.04219e-05
6.75861e-05
6.49255e-05
6.24257e-05
6.00741e-05
5.78592e-05
5.57705e-05
5.37984e-05
5.19345e-05
5.01708e-05
4.85002e-05
4.69162e-05
4.54129e-05
4.39846e-05
4.26266e-05
4.13343e-05
4.01034e-05
3.89301e-05
3.7811e-05
3.67429e-05
3.57228e-05
3.4748e-05
3.38161e-05
3.29248e-05
3.20721e-05
3.12562e-05
3.04753e-05
2.97279e-05
2.90128e-05
2.83285e-05
2.76741e-05
2.70485e-05
2.6451e-05
2.58806e-05
2.53369e-05
2.48191e-05
2.43268e-05
2.38595e-05
2.34169e-05
2.29985e-05
2.26041e-05
2.22332e-05
2.18857e-05
2.1561e-05
2.12589e-05
2.09789e-05
2.07204e-05
2.0483e-05
2.02659e-05
2.00685e-05
1.989e-05
1.97294e-05
1.95859e-05
1.94583e-05
1.93456e-05
1.92468e-05
1.91608e-05
1.90864e-05
1.90226e-05
1.89686e-05
1.89237e-05
1.88875e-05
1.88603e-05
1.88437e-05
0.000939687
0.000835717
0.000745888
0.00066803
0.000600335
0.000541292
0.000489635
0.000444303
0.0004044
0.000369172
0.00033798
0.000310283
0.000285618
0.000263595
0.000243876
0.000226174
0.000210242
0.000195866
0.000182864
0.000171075
0.000160362
0.000150604
0.000141697
0.000133549
0.000126081
0.000119221
0.000112908
0.000107088
0.000101711
9.67353e-05
9.2123e-05
8.78404e-05
8.38574e-05
8.01471e-05
7.66856e-05
7.34513e-05
7.04251e-05
6.75895e-05
6.49289e-05
6.24292e-05
6.00777e-05
5.78629e-05
5.57743e-05
5.38023e-05
5.19385e-05
5.01749e-05
4.85045e-05
4.69206e-05
4.54173e-05
4.39892e-05
4.26313e-05
4.1339e-05
4.01082e-05
3.89351e-05
3.78161e-05
3.6748e-05
3.5728e-05
3.47533e-05
3.38215e-05
3.29303e-05
3.20777e-05
3.12618e-05
3.0481e-05
2.97337e-05
2.90185e-05
2.83343e-05
2.76798e-05
2.70542e-05
2.64566e-05
2.58862e-05
2.53424e-05
2.48245e-05
2.4332e-05
2.38646e-05
2.34217e-05
2.30031e-05
2.26084e-05
2.22373e-05
2.18894e-05
2.15645e-05
2.1262e-05
2.09816e-05
2.07228e-05
2.0485e-05
2.02675e-05
2.00697e-05
1.98908e-05
1.97299e-05
1.9586e-05
1.94581e-05
1.93452e-05
1.92461e-05
1.91598e-05
1.90852e-05
1.90213e-05
1.89671e-05
1.8922e-05
1.88857e-05
1.88585e-05
1.88418e-05
0.000939687
0.000835717
0.000745888
0.00066803
0.000600335
0.000541292
0.000489636
0.000444303
0.000404401
0.000369173
0.000337981
0.000310283
0.000285619
0.000263596
0.000243877
0.000226175
0.000210243
0.000195868
0.000182865
0.000171077
0.000160363
0.000150606
0.000141699
0.000133552
0.000126083
0.000119224
0.000112911
0.00010709
0.000101713
9.67379e-05
9.21258e-05
8.78432e-05
8.38603e-05
8.01501e-05
7.66887e-05
7.34545e-05
7.04284e-05
6.75928e-05
6.49323e-05
6.24328e-05
6.00814e-05
5.78666e-05
5.57781e-05
5.38063e-05
5.19426e-05
5.01791e-05
4.85087e-05
4.69249e-05
4.54217e-05
4.39937e-05
4.26359e-05
4.13438e-05
4.01131e-05
3.89401e-05
3.78212e-05
3.67532e-05
3.57333e-05
3.47587e-05
3.3827e-05
3.29358e-05
3.20833e-05
3.12675e-05
3.04867e-05
2.97394e-05
2.90243e-05
2.83401e-05
2.76856e-05
2.706e-05
2.64623e-05
2.58919e-05
2.53479e-05
2.48299e-05
2.43373e-05
2.38697e-05
2.34266e-05
2.30078e-05
2.26128e-05
2.22414e-05
2.18933e-05
2.15679e-05
2.12651e-05
2.09843e-05
2.07251e-05
2.04869e-05
2.02691e-05
2.0071e-05
1.98917e-05
1.97304e-05
1.95861e-05
1.94579e-05
1.93447e-05
1.92453e-05
1.91588e-05
1.90839e-05
1.90198e-05
1.89655e-05
1.89203e-05
1.88839e-05
1.88566e-05
1.88399e-05
0.000939687
0.000835717
0.000745888
0.00066803
0.000600335
0.000541292
0.000489636
0.000444304
0.000404401
0.000369174
0.000337982
0.000310284
0.00028562
0.000263597
0.000243878
0.000226176
0.000210244
0.000195869
0.000182867
0.000171078
0.000160365
0.000150608
0.000141701
0.000133554
0.000126085
0.000119226
0.000112913
0.000107092
0.000101716
9.67405e-05
9.21285e-05
8.78461e-05
8.38632e-05
8.01531e-05
7.66917e-05
7.34577e-05
7.04316e-05
6.75962e-05
6.49358e-05
6.24363e-05
6.0085e-05
5.78704e-05
5.57819e-05
5.38102e-05
5.19466e-05
5.01832e-05
4.8513e-05
4.69293e-05
4.54262e-05
4.39983e-05
4.26406e-05
4.13486e-05
4.0118e-05
3.89451e-05
3.78263e-05
3.67585e-05
3.57386e-05
3.47641e-05
3.38325e-05
3.29414e-05
3.2089e-05
3.12732e-05
3.04925e-05
2.97452e-05
2.90301e-05
2.83459e-05
2.76915e-05
2.70658e-05
2.64681e-05
2.58976e-05
2.53535e-05
2.48354e-05
2.43426e-05
2.38748e-05
2.34315e-05
2.30125e-05
2.26173e-05
2.22456e-05
2.18971e-05
2.15714e-05
2.12682e-05
2.09871e-05
2.07275e-05
2.04889e-05
2.02707e-05
2.00722e-05
1.98925e-05
1.97308e-05
1.95862e-05
1.94577e-05
1.93441e-05
1.92445e-05
1.91577e-05
1.90826e-05
1.90183e-05
1.89638e-05
1.89185e-05
1.8882e-05
1.88547e-05
1.88378e-05
0.000939687
0.000835717
0.000745888
0.00066803
0.000600336
0.000541293
0.000489637
0.000444304
0.000404402
0.000369174
0.000337983
0.000310285
0.000285621
0.000263598
0.000243879
0.000226178
0.000210246
0.000195871
0.000182868
0.00017108
0.000160367
0.00015061
0.000141703
0.000133556
0.000126088
0.000119228
0.000112915
0.000107095
0.000101718
9.67431e-05
9.21312e-05
8.78488e-05
8.38661e-05
8.01561e-05
7.66948e-05
7.34608e-05
7.04349e-05
6.75995e-05
6.49392e-05
6.24399e-05
6.00887e-05
5.78741e-05
5.57858e-05
5.38142e-05
5.19507e-05
5.01874e-05
4.85173e-05
4.69337e-05
4.54307e-05
4.40029e-05
4.26453e-05
4.13534e-05
4.01229e-05
3.89501e-05
3.78314e-05
3.67637e-05
3.5744e-05
3.47696e-05
3.3838e-05
3.2947e-05
3.20946e-05
3.12789e-05
3.04983e-05
2.97511e-05
2.9036e-05
2.83518e-05
2.76973e-05
2.70716e-05
2.64739e-05
2.59033e-05
2.53591e-05
2.48408e-05
2.43479e-05
2.38799e-05
2.34365e-05
2.30172e-05
2.26217e-05
2.22497e-05
2.19009e-05
2.15749e-05
2.12714e-05
2.09898e-05
2.07299e-05
2.04909e-05
2.02723e-05
2.00733e-05
1.98933e-05
1.97312e-05
1.95863e-05
1.94574e-05
1.93436e-05
1.92436e-05
1.91566e-05
1.90813e-05
1.90168e-05
1.89621e-05
1.89166e-05
1.888e-05
1.88526e-05
1.88357e-05
0.000939687
0.000835717
0.000745888
0.000668031
0.000600336
0.000541293
0.000489637
0.000444305
0.000404403
0.000369175
0.000337983
0.000310286
0.000285622
0.000263599
0.00024388
0.000226179
0.000210247
0.000195872
0.00018287
0.000171082
0.000160369
0.000150612
0.000141705
0.000133558
0.00012609
0.00011923
0.000112918
0.000107097
0.000101721
9.67457e-05
9.21338e-05
8.78516e-05
8.38689e-05
8.0159e-05
7.66978e-05
7.3464e-05
7.04381e-05
6.76029e-05
6.49427e-05
6.24434e-05
6.00923e-05
5.78779e-05
5.57896e-05
5.38181e-05
5.19547e-05
5.01916e-05
4.85215e-05
4.6938e-05
4.54352e-05
4.40075e-05
4.265e-05
4.13582e-05
4.01279e-05
3.89551e-05
3.78366e-05
3.67689e-05
3.57493e-05
3.4775e-05
3.38435e-05
3.29526e-05
3.21003e-05
3.12847e-05
3.0504e-05
2.97569e-05
2.90418e-05
2.83576e-05
2.77032e-05
2.70774e-05
2.64796e-05
2.59089e-05
2.53647e-05
2.48463e-05
2.43532e-05
2.38851e-05
2.34414e-05
2.30219e-05
2.26261e-05
2.22538e-05
2.19047e-05
2.15784e-05
2.12745e-05
2.09926e-05
2.07322e-05
2.04928e-05
2.02738e-05
2.00745e-05
1.98941e-05
1.97317e-05
1.95863e-05
1.94571e-05
1.93429e-05
1.92427e-05
1.91554e-05
1.90799e-05
1.90152e-05
1.89603e-05
1.89147e-05
1.8878e-05
1.88505e-05
1.88336e-05
0.000939687
0.000835717
0.000745888
0.000668031
0.000600336
0.000541293
0.000489637
0.000444305
0.000404403
0.000369176
0.000337984
0.000310287
0.000285623
0.0002636
0.000243882
0.00022618
0.000210248
0.000195874
0.000182871
0.000171083
0.00016037
0.000150613
0.000141707
0.00013356
0.000126092
0.000119232
0.00011292
0.0001071
0.000101723
9.67482e-05
9.21365e-05
8.78543e-05
8.38717e-05
8.01619e-05
7.67009e-05
7.34671e-05
7.04413e-05
6.76062e-05
6.49461e-05
6.24469e-05
6.00959e-05
5.78816e-05
5.57934e-05
5.3822e-05
5.19587e-05
5.01957e-05
4.85257e-05
4.69424e-05
4.54396e-05
4.40121e-05
4.26547e-05
4.1363e-05
4.01328e-05
3.89601e-05
3.78417e-05
3.67741e-05
3.57546e-05
3.47804e-05
3.3849e-05
3.29582e-05
3.21059e-05
3.12904e-05
3.05098e-05
2.97627e-05
2.90476e-05
2.83634e-05