/*--------------------------------*- C++ -*----------------------------------*\
  =========                 |
  \\      /  F ield         | OpenFOAM: The Open Source CFD Toolbox
   \\    /   O peration     | Website:  https://openfoam.org
    \\  /    A nd           | Version:  11
     \\/     M anipulation  |
\*---------------------------------------------------------------------------*/
FoamFile
{
    format      ascii;
    class       volScalarField;
    location    "474";
    object      nut;
}
// * * * * * * * * * * * * * * * * * * * * * * * * * * * * * * * * * * * * * //

dimensions      [0 2 -1 0 0 0 0];

internalField   nonuniform List<scalar> 
10000
(
0.000977117
0.000936706
0.000899647
0.000865622
0.000834342
0.000805549
0.000779011
0.000754519
0.000731886
0.000710943
0.000691537
0.00067353
0.000656801
0.000641236
0.000626736
0.000613209
0.000600573
0.000588753
0.000577683
0.0005673
0.00055755
0.000548381
0.000539749
0.000531611
0.00052393
0.00051667
0.000509801
0.000503292
0.000497119
0.000491257
0.000485683
0.000480377
0.000475321
0.000470497
0.000465889
0.000461484
0.000457267
0.000453227
0.000449352
0.000445632
0.000442057
0.000438619
0.000435309
0.000432119
0.000429044
0.000426078
0.000423214
0.000420448
0.000417776
0.000415193
0.000412698
0.000410287
0.000407959
0.000405712
0.000403546
0.000401461
0.000399458
0.000397539
0.000395705
0.00039396
0.000392309
0.000390757
0.00038931
0.000387975
0.00038676
0.000385676
0.000384732
0.000383941
0.000383315
0.000382867
0.000382614
0.000382569
0.00038275
0.000383173
0.000383854
0.00038481
0.000386056
0.000387606
0.000389473
0.000391668
0.000394199
0.000397068
0.000400276
0.000403819
0.000407685
0.000411859
0.000416317
0.000421028
0.000425955
0.000431048
0.00043625
0.000441491
0.000446691
0.000451755
0.000456572
0.000461012
0.000464926
0.000468143
0.000470472
0.000471704
0.000977117
0.000936706
0.000899647
0.000865622
0.000834342
0.000805549
0.000779011
0.00075452
0.000731887
0.000710943
0.000691537
0.000673531
0.000656801
0.000641237
0.000626736
0.000613209
0.000600573
0.000588754
0.000577683
0.0005673
0.00055755
0.000548382
0.000539749
0.000531612
0.00052393
0.000516671
0.000509801
0.000503293
0.00049712
0.000491257
0.000485683
0.000480378
0.000475321
0.000470497
0.00046589
0.000461485
0.000457268
0.000453228
0.000449354
0.000445633
0.000442059
0.00043862
0.00043531
0.000432121
0.000429046
0.000426079
0.000423215
0.00042045
0.000417777
0.000415195
0.0004127
0.000410289
0.000407961
0.000405714
0.000403548
0.000401464
0.00039946
0.000397541
0.000395707
0.000393963
0.000392312
0.000390759
0.000389312
0.000387977
0.000386762
0.000385678
0.000384734
0.000383942
0.000383315
0.000382868
0.000382614
0.000382569
0.000382749
0.000383171
0.000383851
0.000384806
0.000386051
0.0003876
0.000389466
0.00039166
0.000394188
0.000397056
0.000400263
0.000403805
0.00040767
0.000411842
0.000416299
0.000421009
0.000425934
0.000431025
0.000436226
0.000441466
0.000446665
0.000451728
0.000456543
0.000460983
0.000464898
0.000468115
0.000470444
0.000471676
0.000977117
0.000936706
0.000899648
0.000865622
0.000834342
0.000805549
0.000779012
0.00075452
0.000731887
0.000710943
0.000691537
0.000673531
0.000656802
0.000641237
0.000626737
0.00061321
0.000600574
0.000588754
0.000577684
0.000567301
0.000557551
0.000548383
0.00053975
0.000531613
0.000523931
0.000516672
0.000509802
0.000503294
0.000497121
0.000491259
0.000485685
0.000480379
0.000475323
0.000470499
0.000465892
0.000461487
0.00045727
0.00045323
0.000449356
0.000445636
0.000442061
0.000438622
0.000435312
0.000432123
0.000429048
0.000426082
0.000423218
0.000420452
0.00041778
0.000415198
0.000412703
0.000410293
0.000407964
0.000405718
0.000403552
0.000401467
0.000399464
0.000397544
0.00039571
0.000393966
0.000392315
0.000390762
0.000389315
0.000387979
0.000386764
0.000385679
0.000384734
0.000383942
0.000383314
0.000382866
0.00038261
0.000382564
0.000382743
0.000383163
0.000383841
0.000384794
0.000386036
0.000387583
0.000389447
0.000391638
0.000394164
0.000397029
0.000400233
0.000403771
0.000407633
0.000411803
0.000416257
0.000420965
0.000425887
0.000430976
0.000436174
0.000441413
0.000446611
0.000451672
0.000456487
0.000460928
0.000464842
0.00046806
0.00047039
0.000471622
0.000977117
0.000936706
0.000899648
0.000865622
0.000834343
0.00080555
0.000779012
0.000754521
0.000731888
0.000710944
0.000691538
0.000673532
0.000656803
0.000641238
0.000626738
0.000613211
0.000600575
0.000588756
0.000577685
0.000567302
0.000557552
0.000548384
0.000539752
0.000531614
0.000523933
0.000516673
0.000509804
0.000503296
0.000497123
0.000491261
0.000485687
0.000480381
0.000475325
0.000470502
0.000465894
0.000461489
0.000457273
0.000453233
0.000449359
0.000445639
0.000442064
0.000438626
0.000435316
0.000432127
0.000429052
0.000426086
0.000423222
0.000420457
0.000417785
0.000415203
0.000412708
0.000410297
0.000407969
0.000405723
0.000403557
0.000401472
0.000399469
0.000397549
0.000395715
0.00039397
0.000392319
0.000390766
0.000389318
0.000387982
0.000386766
0.00038568
0.000384735
0.000383941
0.000383312
0.000382862
0.000382605
0.000382557
0.000382733
0.000383151
0.000383826
0.000384776
0.000386015
0.000387558
0.000389417
0.000391604
0.000394126
0.000396987
0.000400186
0.00040372
0.000407578
0.000411744
0.000416194
0.000420898
0.000425817
0.000430903
0.000436098
0.000441334
0.00044653
0.000451591
0.000456406
0.000460846
0.000464761
0.00046798
0.00047031
0.000471543
0.000977117
0.000936706
0.000899648
0.000865623
0.000834343
0.00080555
0.000779013
0.000754521
0.000731888
0.000710945
0.000691539
0.000673533
0.000656804
0.000641239
0.000626739
0.000613212
0.000600576
0.000588757
0.000577687
0.000567304
0.000557554
0.000548386
0.000539754
0.000531616
0.000523935
0.000516676
0.000509807
0.000503299
0.000497126
0.000491264
0.00048569
0.000480384
0.000475328
0.000470505
0.000465898
0.000461493
0.000457277
0.000453237
0.000449363
0.000445643
0.000442068
0.00043863
0.000435321
0.000432132
0.000429057
0.000426091
0.000423228
0.000420462
0.00041779
0.000415209
0.000412714
0.000410303
0.000407976
0.000405729
0.000403563
0.000401478
0.000399475
0.000397555
0.000395721
0.000393976
0.000392324
0.000390771
0.000389322
0.000387986
0.000386769
0.000385682
0.000384735
0.00038394
0.000383309
0.000382857
0.000382598
0.000382547
0.00038272
0.000383134
0.000383806
0.000384752
0.000385986
0.000387524
0.000389379
0.000391561
0.000394077
0.000396932
0.000400126
0.000403654
0.000407506
0.000411666
0.000416111
0.00042081
0.000425725
0.000430807
0.000435999
0.000441233
0.000446426
0.000451486
0.0004563
0.000460741
0.000464656
0.000467876
0.000470207
0.00047144
0.000977117
0.000936706
0.000899648
0.000865623
0.000834343
0.000805551
0.000779013
0.000754522
0.000731889
0.000710946
0.00069154
0.000673534
0.000656805
0.000641241
0.000626741
0.000613214
0.000600578
0.000588759
0.000577688
0.000567306
0.000557556
0.000548388
0.000539756
0.000531619
0.000523938
0.000516678
0.000509809
0.000503302
0.000497129
0.000491267
0.000485693
0.000480388
0.000475332
0.000470509
0.000465902
0.000461497
0.000457281
0.000453242
0.000449368
0.000445648
0.000442074
0.000438636
0.000435326
0.000432138
0.000429064
0.000426098
0.000423234
0.000420469
0.000417798
0.000415216
0.000412721
0.000410311
0.000407983
0.000405737
0.000403571
0.000401486
0.000399483
0.000397563
0.000395729
0.000393983
0.000392331
0.000390777
0.000389328
0.00038799
0.000386773
0.000385684
0.000384736
0.000383939
0.000383306
0.000382851
0.000382589
0.000382535
0.000382705
0.000383115
0.000383782
0.000384722
0.000385952
0.000387484
0.000389333
0.000391508
0.000394017
0.000396865
0.000400052
0.000403573
0.000407419
0.000411572
0.000416011
0.000420704
0.000425613
0.000430691
0.000435879
0.000441109
0.0004463
0.000451358
0.000456172
0.000460612
0.000464529
0.000467748
0.00047008
0.000471313
0.000977117
0.000936706
0.000899648
0.000865623
0.000834344
0.000805551
0.000779014
0.000754523
0.00073189
0.000710947
0.000691541
0.000673535
0.000656806
0.000641242
0.000626742
0.000613216
0.00060058
0.000588761
0.000577691
0.000567308
0.000557558
0.000548391
0.000539759
0.000531622
0.000523941
0.000516682
0.000509813
0.000503305
0.000497133
0.000491271
0.000485698
0.000480392
0.000475337
0.000470514
0.000465907
0.000461503
0.000457287
0.000453248
0.000449374
0.000445654
0.00044208
0.000438643
0.000435333
0.000432145
0.000429071
0.000426105
0.000423243
0.000420478
0.000417806
0.000415225
0.00041273
0.00041032
0.000407993
0.000405746
0.000403581
0.000401496
0.000399492
0.000397572
0.000395738
0.000393992
0.00039234
0.000390785
0.000389335
0.000387996
0.000386777
0.000385688
0.000384737
0.000383938
0.000383303
0.000382845
0.00038258
0.000382521
0.000382687
0.000383092
0.000383754
0.000384689
0.000385912
0.000387438
0.000389279
0.000391446
0.000393948
0.000396788
0.000399967
0.00040348
0.000407317
0.000411463
0.000415894
0.00042058
0.000425483
0.000430555
0.000435739
0.000440965
0.000446153
0.000451209
0.000456022
0.000460463
0.000464379
0.000467599
0.000469931
0.000471165
0.000977117
0.000936706
0.000899649
0.000865624
0.000834344
0.000805552
0.000779015
0.000754524
0.000731891
0.000710948
0.000691542
0.000673537
0.000656808
0.000641244
0.000626744
0.000613218
0.000600582
0.000588763
0.000577693
0.000567311
0.000557561
0.000548394
0.000539762
0.000531625
0.000523944
0.000516685
0.000509817
0.000503309
0.000497137
0.000491275
0.000485702
0.000480397
0.000475342
0.000470519
0.000465913
0.000461509
0.000457293
0.000453254
0.00044938
0.000445662
0.000442088
0.00043865
0.000435341
0.000432153
0.00042908
0.000426114
0.000423252
0.000420487
0.000417816
0.000415235
0.000412741
0.000410331
0.000408004
0.000405757
0.000403592
0.000401507
0.000399504
0.000397583
0.000395748
0.000394002
0.000392349
0.000390794
0.000389343
0.000388003
0.000386783
0.000385691
0.000384739
0.000383938
0.0003833
0.000382838
0.000382569
0.000382507
0.000382667
0.000383067
0.000383723
0.000384652
0.000385867
0.000387385
0.000389219
0.000391378
0.00039387
0.000396701
0.000399871
0.000403374
0.000407203
0.000411339
0.000415762
0.000420441
0.000425336
0.000430402
0.00043558
0.000440802
0.000445987
0.000451041
0.000455853
0.000460292
0.000464209
0.00046743
0.000469762
0.000470996
0.000977117
0.000936707
0.000899649
0.000865624
0.000834345
0.000805553
0.000779016
0.000754525
0.000731892
0.000710949
0.000691544
0.000673538
0.00065681
0.000641246
0.000626746
0.00061322
0.000600585
0.000588766
0.000577696
0.000567314
0.000557564
0.000548397
0.000539765
0.000531629
0.000523948
0.000516689
0.000509821
0.000503314
0.000497142
0.00049128
0.000485708
0.000480403
0.000475348
0.000470525
0.000465919
0.000461515
0.0004573
0.000453262
0.000449388
0.00044567
0.000442096
0.000438659
0.00043535
0.000432163
0.00042909
0.000426125
0.000423262
0.000420498
0.000417827
0.000415246
0.000412753
0.000410343
0.000408016
0.00040577
0.000403604
0.000401519
0.000399516
0.000397596
0.000395761
0.000394014
0.000392361
0.000390805
0.000389353
0.000388012
0.00038679
0.000385696
0.000384742
0.000383937
0.000383296
0.000382832
0.000382558
0.000382491
0.000382646
0.00038304
0.00038369
0.000384611
0.000385819
0.000387328
0.000389153
0.000391302
0.000393785
0.000396606
0.000399765
0.000403258
0.000407077
0.000411203
0.000415617
0.000420286
0.000425174
0.000430233
0.000435405
0.000440621
0.000445803
0.000450854
0.000455665
0.000460104
0.00046402
0.000467241
0.000469574
0.000470808
0.000977117
0.000936707
0.000899649
0.000865624
0.000834345
0.000805553
0.000779016
0.000754526
0.000731893
0.000710951
0.000691545
0.00067354
0.000656811
0.000641248
0.000626748
0.000613222
0.000600587
0.000588768
0.000577699
0.000567317
0.000557568
0.0005484
0.000539769
0.000531633
0.000523952
0.000516694
0.000509826
0.000503319
0.000497147
0.000491286
0.000485713
0.000480409
0.000475354
0.000470532
0.000465926
0.000461523
0.000457308
0.00045327
0.000449397
0.000445678
0.000442105
0.000438669
0.00043536
0.000432173
0.0004291
0.000426136
0.000423274
0.00042051
0.00041784
0.000415259
0.000412766
0.000410356
0.000408029
0.000405784
0.000403618
0.000401534
0.00039953
0.00039761
0.000395774
0.000394027
0.000392373
0.000390816
0.000389363
0.000388021
0.000386797
0.000385702
0.000384745
0.000383938
0.000383293
0.000382825
0.000382547
0.000382474
0.000382624
0.000383012
0.000383654
0.000384567
0.000385767
0.000387267
0.000389082
0.000391221
0.000393693
0.000396503
0.000399651
0.000403133
0.00040694
0.000411056
0.000415459
0.000420119
0.000424998
0.000430049
0.000435214
0.000440426
0.000445603
0.000450651
0.000455459
0.000459898
0.000463814
0.000467035
0.000469369
0.000470603
0.000977117
0.000936707
0.000899649
0.000865625
0.000834346
0.000805554
0.000779017
0.000754527
0.000731895
0.000710952
0.000691547
0.000673542
0.000656813
0.00064125
0.000626751
0.000613225
0.00060059
0.000588771
0.000577702
0.00056732
0.000557571
0.000548404
0.000539773
0.000531637
0.000523957
0.000516699
0.000509831
0.000503324
0.000497153
0.000491292
0.00048572
0.000480416
0.000475361
0.000470539
0.000465934
0.000461531
0.000457316
0.000453278
0.000449406
0.000445688
0.000442115
0.000438679
0.000435371
0.000432185
0.000429112
0.000426148
0.000423287
0.000420523
0.000417853
0.000415273
0.00041278
0.000410371
0.000408044
0.000405799
0.000403634
0.000401549
0.000399546
0.000397625
0.000395789
0.000394042
0.000392387
0.00039083
0.000389375
0.000388031
0.000386806
0.000385709
0.000384749
0.000383939
0.000383291
0.000382818
0.000382535
0.000382457
0.000382601
0.000382982
0.000383616
0.000384521
0.000385711
0.000387202
0.000389006
0.000391134
0.000393595
0.000396393
0.000399529
0.000402999
0.000406794
0.000410899
0.000415291
0.000419941
0.00042481
0.000429853
0.00043501
0.000440216
0.000445388
0.000450433
0.000455239
0.000459676
0.000463591
0.000466813
0.000469147
0.000470381
0.000977118
0.000936707
0.00089965
0.000865625
0.000834346
0.000805555
0.000779018
0.000754528
0.000731896
0.000710953
0.000691548
0.000673544
0.000656815
0.000641252
0.000626753
0.000613227
0.000600593
0.000588775
0.000577705
0.000567324
0.000557575
0.000548408
0.000539778
0.000531642
0.000523962
0.000516704
0.000509836
0.00050333
0.000497159
0.000491298
0.000485727
0.000480423
0.000475369
0.000470547
0.000465942
0.000461539
0.000457325
0.000453288
0.000449416
0.000445698
0.000442126
0.00043869
0.000435383
0.000432197
0.000429125
0.000426161
0.0004233
0.000420537
0.000417868
0.000415288
0.000412795
0.000410387
0.000408061
0.000405815
0.00040365
0.000401566
0.000399562
0.000397642
0.000395806
0.000394058
0.000392402
0.000390844
0.000389389
0.000388043
0.000386816
0.000385716
0.000384754
0.000383941
0.000383289
0.000382811
0.000382523
0.00038244
0.000382577
0.000382951
0.000383577
0.000384473
0.000385654
0.000387134
0.000388927
0.000391044
0.000393492
0.000396278
0.000399401
0.000402858
0.000406641
0.000410733
0.000415113
0.000419752
0.000424611
0.000429645
0.000434794
0.000439993
0.00044516
0.000450201
0.000455004
0.000459439
0.000463354
0.000466576
0.00046891
0.000470144
0.000977118
0.000936707
0.00089965
0.000865626
0.000834347
0.000805555
0.000779019
0.000754529
0.000731897
0.000710955
0.00069155
0.000673545
0.000656817
0.000641254
0.000626756
0.00061323
0.000600596
0.000588778
0.000577709
0.000567328
0.000557579
0.000548413
0.000539782
0.000531646
0.000523967
0.000516709
0.000509842
0.000503336
0.000497165
0.000491305
0.000485734
0.00048043
0.000475377
0.000470556
0.000465951
0.000461549
0.000457335
0.000453298
0.000449426
0.000445709
0.000442138
0.000438702
0.000435396
0.00043221
0.000429138
0.000426175
0.000423315
0.000420552
0.000417883
0.000415304
0.000412812
0.000410404
0.000408078
0.000405833
0.000403668
0.000401584
0.00039958
0.00039766
0.000395824
0.000394075
0.000392419
0.00039086
0.000389403
0.000388056
0.000386827
0.000385725
0.00038476
0.000383943
0.000383287
0.000382805
0.000382512
0.000382423
0.000382553
0.000382919
0.000383537
0.000384423
0.000385594
0.000387064
0.000388845
0.000390949
0.000393385
0.000396158
0.000399267
0.000402711
0.000406481
0.00041056
0.000414927
0.000419554
0.000424403
0.000429426
0.000434567
0.000439759
0.00044492
0.000449956
0.000454757
0.00045919
0.000463104
0.000466325
0.00046866
0.000469894
0.000977118
0.000936707
0.00089965
0.000865626
0.000834347
0.000805556
0.00077902
0.00075453
0.000731898
0.000710956
0.000691552
0.000673547
0.000656819
0.000641257
0.000626758
0.000613233
0.000600599
0.000588781
0.000577712
0.000567332
0.000557583
0.000548417
0.000539787
0.000531651
0.000523972
0.000516715
0.000509848
0.000503343
0.000497172
0.000491312
0.000485741
0.000480438
0.000475385
0.000470564
0.00046596
0.000461558
0.000457345
0.000453309
0.000449437
0.000445721
0.00044215
0.000438715
0.000435409
0.000432224
0.000429153
0.00042619
0.00042333
0.000420568
0.0004179
0.000415321
0.00041283
0.000410422
0.000408096
0.000405852
0.000403687
0.000401603
0.0003996
0.000397679
0.000395842
0.000394094
0.000392437
0.000390877
0.000389419
0.00038807
0.000386839
0.000385734
0.000384766
0.000383946
0.000383286
0.0003828
0.000382501
0.000382405
0.000382528
0.000382886
0.000383496
0.000384373
0.000385533
0.000386991
0.000388761
0.000390852
0.000393275
0.000396033
0.000399129
0.000402559
0.000406314
0.00041038
0.000414735
0.000419349
0.000424186
0.000429199
0.000434331
0.000439515
0.00044467
0.000449701
0.000454498
0.000458929
0.000462842
0.000466063
0.000468398
0.000469633
0.000977118
0.000936707
0.00089965
0.000865626
0.000834348
0.000805556
0.00077902
0.00075453
0.000731899
0.000710958
0.000691553
0.000673549
0.000656821
0.000641259
0.000626761
0.000613236
0.000600602
0.000588784
0.000577716
0.000567336
0.000557588
0.000548422
0.000539792
0.000531657
0.000523978
0.000516721
0.000509855
0.000503349
0.000497179
0.00049132
0.000485749
0.000480447
0.000475394
0.000470574
0.00046597
0.000461568
0.000457356
0.00045332
0.000449449
0.000445733
0.000442163
0.000438729
0.000435423
0.000432238
0.000429168
0.000426206
0.000423347
0.000420585
0.000417917
0.000415339
0.000412848
0.000410441
0.000408116
0.000405872
0.000403707
0.000401623
0.00039962
0.000397699
0.000395863
0.000394113
0.000392456
0.000390895
0.000389435
0.000388085
0.000386852
0.000385745
0.000384774
0.00038395
0.000383286
0.000382794
0.00038249
0.000382388
0.000382504
0.000382854
0.000383454
0.000384321
0.000385471
0.000386917
0.000388674
0.000390753
0.000393162
0.000395906
0.000398987
0.000402403
0.000406143
0.000410195
0.000414536
0.000419137
0.000423962
0.000428964
0.000434087
0.000439263
0.000444411
0.000449437
0.00045423
0.000458658
0.00046257
0.00046579
0.000468125
0.00046936
0.000977118
0.000936707
0.00089965
0.000865626
0.000834348
0.000805557
0.000779021
0.000754531
0.0007319
0.000710959
0.000691555
0.000673551
0.000656824
0.000641261
0.000626763
0.000613239
0.000600605
0.000588788
0.00057772
0.00056734
0.000557592
0.000548426
0.000539797
0.000531662
0.000523984
0.000516727
0.000509861
0.000503356
0.000497187
0.000491328
0.000485757
0.000480455
0.000475403
0.000470583
0.00046598
0.000461579
0.000457367
0.000453331
0.000449461
0.000445746
0.000442176
0.000438742
0.000435437
0.000432253
0.000429184
0.000426222
0.000423364
0.000420603
0.000417936
0.000415358
0.000412867
0.000410461
0.000408136
0.000405892
0.000403728
0.000401645
0.000399642
0.00039772
0.000395884
0.000394134
0.000392476
0.000390914
0.000389453
0.000388101
0.000386866
0.000385757
0.000384782
0.000383955
0.000383286
0.00038279
0.00038248
0.000382371
0.00038248
0.000382821
0.000383412
0.000384269
0.000385408
0.000386842
0.000388586
0.000390651
0.000393046
0.000395776
0.000398843
0.000402243
0.000405969
0.000410005
0.000414332
0.00041892
0.000423733
0.000428723
0.000433836
0.000439003
0.000444144
0.000449165
0.000453953
0.000458379
0.000462289
0.000465508
0.000467843
0.000469078
0.000977118
0.000936707
0.000899651
0.000865627
0.000834349
0.000805558
0.000779022
0.000754532
0.000731901
0.00071096
0.000691556
0.000673553
0.000656826
0.000641264
0.000626766
0.000613241
0.000600608
0.000588791
0.000577724
0.000567344
0.000557596
0.000548431
0.000539802
0.000531668
0.00052399
0.000516733
0.000509868
0.000503363
0.000497194
0.000491336
0.000485766
0.000480464
0.000475412
0.000470593
0.00046599
0.00046159
0.000457378
0.000453343
0.000449474
0.000445759
0.00044219
0.000438757
0.000435452
0.000432269
0.0004292
0.000426239
0.000423381
0.000420621
0.000417955
0.000415378
0.000412888
0.000410481
0.000408157
0.000405914
0.00040375
0.000401667
0.000399664
0.000397743
0.000395906
0.000394156
0.000392497
0.000390934
0.000389472
0.000388119
0.000386881
0.000385769
0.000384792
0.000383961
0.000383288
0.000382786
0.00038247
0.000382355
0.000382456
0.000382789
0.00038337
0.000384217
0.000385344
0.000386766
0.000388498
0.000390549
0.000392929
0.000395644
0.000398696
0.000402081
0.000405791
0.000409813
0.000414125
0.000418699
0.000423499
0.000428478
0.00043358
0.000438738
0.000443871
0.000448886
0.00045367
0.000458092
0.000462
0.000465219
0.000467554
0.000468789
0.000977118
0.000936708
0.000899651
0.000865627
0.000834349
0.000805558
0.000779022
0.000754533
0.000731903
0.000710961
0.000691558
0.000673554
0.000656828
0.000641266
0.000626768
0.000613244
0.000600611
0.000588795
0.000577727
0.000567348
0.000557601
0.000548436
0.000539807
0.000531673
0.000523995
0.00051674
0.000509874
0.000503371
0.000497202
0.000491344
0.000485774
0.000480473
0.000475422
0.000470603
0.000466001
0.000461601
0.00045739
0.000453356
0.000449487
0.000445773
0.000442204
0.000438772
0.000435468
0.000432285
0.000429217
0.000426257
0.0004234
0.00042064
0.000417974
0.000415398
0.000412908
0.000410503
0.000408179
0.000405936
0.000403773
0.00040169
0.000399687
0.000397766
0.000395929
0.000394178
0.000392519
0.000390955
0.000389492
0.000388137
0.000386897
0.000385782
0.000384802
0.000383967
0.00038329
0.000382783
0.000382461
0.000382339
0.000382432
0.000382757
0.000383329
0.000384165
0.00038528
0.000386691
0.000388409
0.000390446
0.000392812
0.000395511
0.000398547
0.000401917
0.000405611
0.000409618
0.000413915
0.000418475
0.000423261
0.000428228
0.000433319
0.000438468
0.000443593
0.000448601
0.00045338
0.000457799
0.000461705
0.000464923
0.000467258
0.000468493
0.000977118
0.000936708
0.000899651
0.000865627
0.000834349
0.000805559
0.000779023
0.000754534
0.000731904
0.000710963
0.000691559
0.000673556
0.00065683
0.000641268
0.000626771
0.000613247
0.000600614
0.000588798
0.000577731
0.000567352
0.000557605
0.000548441
0.000539812
0.000531679
0.000524001
0.000516746
0.000509881
0.000503378
0.000497209
0.000491352
0.000485783
0.000480482
0.000475431
0.000470613
0.000466012
0.000461612
0.000457402
0.000453368
0.0004495
0.000445787
0.000442218
0.000438787
0.000435484
0.000432302
0.000429234
0.000426275
0.000423418
0.000420659
0.000417994
0.000415419
0.00041293
0.000410525
0.000408202
0.000405959
0.000403797
0.000401714
0.000399711
0.00039779
0.000395952
0.000394202
0.000392541
0.000390976
0.000389512
0.000388155
0.000386914
0.000385796
0.000384813
0.000383974
0.000383292
0.00038278
0.000382453
0.000382324
0.000382409
0.000382725
0.000383287
0.000384113
0.000385217
0.000386615
0.000388319
0.000390343
0.000392694
0.000395378
0.000398398
0.000401751
0.00040543
0.000409421
0.000413703
0.000418249
0.000423021
0.000427975
0.000433055
0.000438194
0.000443311
0.000448313
0.000453087
0.000457502
0.000461406
0.000464622
0.000466956
0.000468192
0.000977118
0.000936708
0.000899651
0.000865628
0.00083435
0.000805559
0.000779024
0.000754535
0.000731905
0.000710964
0.000691561
0.000673558
0.000656832
0.00064127
0.000626773
0.00061325
0.000600618
0.000588802
0.000577735
0.000567356
0.00055761
0.000548446
0.000539818
0.000531684
0.000524008
0.000516753
0.000509888
0.000503385
0.000497217
0.00049136
0.000485792
0.000480492
0.000475441
0.000470624
0.000466023
0.000461624
0.000457414
0.000453381
0.000449513
0.000445801
0.000442233
0.000438802
0.0004355
0.000432319
0.000429252
0.000426293
0.000423437
0.000420679
0.000418015
0.00041544
0.000412952
0.000410547
0.000408225
0.000405983
0.00040382
0.000401738
0.000399735
0.000397814
0.000395977
0.000394226
0.000392565
0.000390999
0.000389533
0.000388175
0.000386931
0.000385811
0.000384824
0.000383982
0.000383296
0.000382779
0.000382445
0.000382309
0.000382387
0.000382694
0.000383247
0.000384062
0.000385154
0.000386539
0.00038823
0.00039024
0.000392576
0.000395245
0.000398249
0.000401586
0.000405249
0.000409224
0.00041349
0.000418021
0.00042278
0.000427721
0.00043279
0.000437918
0.000443027
0.000448021
0.00045279
0.000457201
0.000461103
0.000464318
0.000466652
0.000467887
0.000977118
0.000936708
0.000899651
0.000865628
0.00083435
0.00080556
0.000779024
0.000754536
0.000731906
0.000710965
0.000691562
0.000673559
0.000656833
0.000641273
0.000626776
0.000613253
0.000600621
0.000588805
0.000577739
0.00056736
0.000557614
0.00054845
0.000539823
0.00053169
0.000524014
0.000516759
0.000509895
0.000503393
0.000497225
0.000491368
0.000485801
0.000480501
0.000475451
0.000470634
0.000466034
0.000461636
0.000457427
0.000453394
0.000449527
0.000445815
0.000442248
0.000438818
0.000435516
0.000432336
0.00042927
0.000426312
0.000423457
0.000420699
0.000418035
0.000415461
0.000412974
0.00041057
0.000408248
0.000406007
0.000403845
0.000401762
0.00039976
0.000397839
0.000396001
0.00039425
0.000392589
0.000391022
0.000389555
0.000388195
0.000386949
0.000385827
0.000384837
0.00038399
0.0003833
0.000382778
0.000382438
0.000382295
0.000382365
0.000382664
0.000383207
0.000384011
0.000385092
0.000386464
0.000388142
0.000390137
0.000392458
0.000395112
0.0003981
0.000401421
0.000405068
0.000409026
0.000413277
0.000417793
0.000422538
0.000427466
0.000432523
0.000437641
0.000442741
0.000447729
0.000452491
0.000456899
0.000460797
0.000464011
0.000466344
0.00046758
0.000977118
0.000936708
0.000899651
0.000865628
0.00083435
0.00080556
0.000779025
0.000754536
0.000731907
0.000710966
0.000691564
0.000673561
0.000656835
0.000641275
0.000626778
0.000613255
0.000600624
0.000588808
0.000577742
0.000567364
0.000557619
0.000548455
0.000539828
0.000531696
0.00052402
0.000516766
0.000509902
0.0005034
0.000497233
0.000491377
0.000485809
0.000480511
0.000475461
0.000470645
0.000466045
0.000461647
0.000457439
0.000453407
0.000449541
0.000445829
0.000442263
0.000438834
0.000435533
0.000432353
0.000429288
0.000426331
0.000423476
0.00042072
0.000418057
0.000415483
0.000412996
0.000410593
0.000408272
0.000406031
0.00040387
0.000401788
0.000399785
0.000397864
0.000396027
0.000394275
0.000392613
0.000391045
0.000389577
0.000388215
0.000386968
0.000385843
0.00038485
0.000384
0.000383305
0.000382777
0.000382431
0.000382282
0.000382344
0.000382634
0.000383168
0.000383961
0.000385031
0.000386391
0.000388055
0.000390036
0.000392342
0.00039498
0.000397952
0.000401257
0.000404887
0.00040883
0.000413065
0.000417566
0.000422297
0.000427212
0.000432257
0.000437365
0.000442455
0.000447435
0.000452192
0.000456595
0.000460491
0.000463703
0.000466036
0.000467271
0.000977118
0.000936708
0.000899652
0.000865628
0.000834351
0.000805561
0.000779026
0.000754537
0.000731907
0.000710967
0.000691565
0.000673563
0.000656837
0.000641277
0.000626781
0.000613258
0.000600627
0.000588812
0.000577746
0.000567368
0.000557623
0.00054846
0.000539833
0.000531701
0.000524026
0.000516772
0.000509909
0.000503407
0.000497241
0.000491385
0.000485818
0.00048052
0.000475471
0.000470655
0.000466056
0.000461659
0.000457451
0.00045342
0.000449555
0.000445844
0.000442278
0.00043885
0.00043555
0.000432371
0.000429306
0.000426349
0.000423496
0.00042074
0.000418078
0.000415505
0.000413019
0.000410617
0.000408296
0.000406056
0.000403895
0.000401813
0.000399811
0.00039789
0.000396052
0.0003943
0.000392638
0.000391069
0.0003896
0.000388237
0.000386987
0.000385859
0.000384863
0.000384009
0.00038331
0.000382778
0.000382426
0.00038227
0.000382324
0.000382605
0.00038313
0.000383913
0.00038497
0.000386318
0.000387969
0.000389935
0.000392227
0.000394849
0.000397806
0.000401094
0.000404708
0.000408635
0.000412855
0.00041734
0.000422056
0.000426958
0.000431991
0.000437088
0.00044217
0.000447142
0.000451893
0.000456292
0.000460184
0.000463395
0.000465727
0.000466962
0.000977118
0.000936708
0.000899652
0.000865628
0.000834351
0.000805561
0.000779026
0.000754538
0.000731908
0.000710969
0.000691566
0.000673564
0.000656839
0.000641279
0.000626783
0.000613261
0.00060063
0.000588815
0.00057775
0.000567372
0.000557627
0.000548465
0.000539838
0.000531707
0.000524032
0.000516778
0.000509916
0.000503415
0.000497249
0.000491394
0.000485827
0.000480529
0.000475481
0.000470666
0.000466067
0.000461671
0.000457464
0.000453433
0.000449568
0.000445858
0.000442294
0.000438866
0.000435566
0.000432388
0.000429324
0.000426368
0.000423516
0.000420761
0.000418099
0.000415527
0.000413042
0.00041064
0.00040832
0.00040608
0.00040392
0.000401838
0.000399837
0.000397916
0.000396078
0.000394326
0.000392662
0.000391093
0.000389623
0.000388258
0.000387006
0.000385876
0.000384877
0.00038402
0.000383316
0.000382778
0.000382421
0.000382258
0.000382305
0.000382578
0.000383093
0.000383865
0.000384912
0.000386247
0.000387885
0.000389837
0.000392113
0.00039472
0.000397661
0.000400934
0.000404531
0.000408442
0.000412646
0.000417117
0.000421818
0.000426707
0.000431728
0.000436814
0.000441887
0.000446851
0.000451596
0.00045599
0.000459879
0.000463088
0.000465419
0.000466655
0.000977118
0.000936708
0.000899652
0.000865629
0.000834351
0.000805561
0.000779027
0.000754539
0.000731909
0.00071097
0.000691567
0.000673566
0.000656841
0.000641281
0.000626785
0.000613263
0.000600632
0.000588818
0.000577753
0.000567376
0.000557632
0.000548469
0.000539843
0.000531712
0.000524037
0.000516785
0.000509923
0.000503422
0.000497256
0.000491402
0.000485836
0.000480539
0.000475491
0.000470676
0.000466078
0.000461683
0.000457476
0.000453446
0.000449582
0.000445873
0.000442309
0.000438882
0.000435583
0.000432405
0.000429342
0.000426387
0.000423535
0.000420781
0.00041812
0.000415549
0.000413065
0.000410664
0.000408344
0.000406105
0.000403945
0.000401864
0.000399863
0.000397942
0.000396104
0.000394351
0.000392688
0.000391117
0.000389646
0.00038828
0.000387026
0.000385893
0.000384891