/*--------------------------------*- C++ -*----------------------------------*\
  =========                 |
  \\      /  F ield         | OpenFOAM: The Open Source CFD Toolbox
   \\    /   O peration     | Website:  https://openfoam.org
    \\  /    A nd           | Version:  11
     \\/     M anipulation  |
\*---------------------------------------------------------------------------*/
FoamFile
{
    format      ascii;
    class       surfaceScalarField;
    location    "1784";
    object      phi;
}
// * * * * * * * * * * * * * * * * * * * * * * * * * * * * * * * * * * * * * //

dimensions      [0 3 -1 0 0 0 0];

internalField   nonuniform List<scalar> 
19800
(
2e-05
-2.06004e-16
2e-05
-5.82366e-16
2e-05
-9.41695e-16
2e-05
-1.30084e-15
2e-05
-1.6682e-15
2e-05
-2.04867e-15
2e-05
-2.44615e-15
2e-05
-2.86402e-15
2e-05
-3.30532e-15
2e-05
-3.77287e-15
2e-05
-4.26944e-15
2e-05
-4.79772e-15
2e-05
-5.36041e-15
2e-05
-5.96023e-15
2e-05
-6.59998e-15
2e-05
-7.28251e-15
2e-05
-8.01076e-15
2e-05
-8.78778e-15
2e-05
-9.61671e-15
2e-05
-1.05008e-14
2e-05
-1.14435e-14
2e-05
-1.24484e-14
2e-05
-1.35191e-14
2e-05
-1.46595e-14
2e-05
-1.58736e-14
2e-05
-1.71655e-14
2e-05
-1.85397e-14
2e-05
-2.00006e-14
2e-05
-2.15531e-14
2e-05
-2.32019e-14
2e-05
-2.49523e-14
2e-05
-2.68095e-14
2e-05
-2.8779e-14
2e-05
-3.08667e-14
2e-05
-3.30785e-14
2e-05
-3.54204e-14
2e-05
-3.7899e-14
2e-05
-4.05209e-14
2e-05
-4.32928e-14
2e-05
-4.6222e-14
2e-05
-4.93157e-14
2e-05
-5.25813e-14
2e-05
-5.60268e-14
2e-05
-5.96601e-14
2e-05
-6.34894e-14
2e-05
-6.75231e-14
2e-05
-7.17699e-14
2e-05
-7.62387e-14
2e-05
-8.09385e-14
2e-05
-8.58785e-14
2e-05
-9.10682e-14
2e-05
-9.65172e-14
2e-05
-1.02235e-13
2e-05
-1.08232e-13
2e-05
-1.14518e-13
2e-05
-1.21103e-13
2e-05
-1.27997e-13
2e-05
-1.3521e-13
2e-05
-1.42752e-13
2e-05
-1.50634e-13
2e-05
-1.58866e-13
2e-05
-1.67457e-13
2e-05
-1.76418e-13
2e-05
-1.85757e-13
2e-05
-1.95484e-13
2e-05
-2.05607e-13
2e-05
-2.16135e-13
2e-05
-2.27076e-13
2e-05
-2.38436e-13
2e-05
-2.50222e-13
2e-05
-2.62439e-13
2e-05
-2.7509e-13
2e-05
-2.88179e-13
2e-05
-3.01706e-13
2e-05
-3.15671e-13
2e-05
-3.30071e-13
2e-05
-3.44901e-13
2e-05
-3.60152e-13
2e-05
-3.75812e-13
2e-05
-3.91866e-13
2e-05
-4.08294e-13
2e-05
-4.25071e-13
2e-05
-4.42163e-13
2e-05
-4.59532e-13
2e-05
-4.77128e-13
2e-05
-4.94894e-13
2e-05
-5.12756e-13
2e-05
-5.30631e-13
2e-05
-5.48413e-13
2e-05
-5.65979e-13
2e-05
-5.83181e-13
2e-05
-5.99846e-13
2e-05
-6.15765e-13
2e-05
-6.30699e-13
2e-05
-6.4437e-13
2e-05
-6.56466e-13
2e-05
-6.66644e-13
2e-05
-6.74543e-13
2e-05
-6.79884e-13
-6.82863e-13
2e-05
-1.77975e-16
2e-05
-5.23105e-16
2e-05
-8.62433e-16
2e-05
-1.20461e-15
2e-05
-1.55538e-15
2e-05
-1.91889e-15
2e-05
-2.29867e-15
2e-05
-2.69785e-15
2e-05
-3.1193e-15
2e-05
-3.56575e-15
2e-05
-4.03983e-15
2e-05
-4.54413e-15
2e-05
-5.08123e-15
2e-05
-5.65378e-15
2e-05
-6.26443e-15
2e-05
-6.91594e-15
2e-05
-7.61113e-15
2e-05
-8.35293e-15
2e-05
-9.14436e-15
2e-05
-9.98857e-15
2e-05
-1.08888e-14
2e-05
-1.18486e-14
2e-05
-1.28714e-14
2e-05
-1.39609e-14
2e-05
-1.5121e-14
2e-05
-1.63557e-14
2e-05
-1.76692e-14
2e-05
-1.90659e-14
2e-05
-2.05504e-14
2e-05
-2.21273e-14
2e-05
-2.38017e-14
2e-05
-2.55786e-14
2e-05
-2.74635e-14
2e-05
-2.94617e-14
2e-05
-3.15792e-14
2e-05
-3.38219e-14
2e-05
-3.6196e-14
2e-05
-3.87078e-14
2e-05
-4.13641e-14
2e-05
-4.41717e-14
2e-05
-4.71377e-14
2e-05
-5.02694e-14
2e-05
-5.35744e-14
2e-05
-5.70605e-14
2e-05
-6.07356e-14
2e-05
-6.4608e-14
2e-05
-6.86861e-14
2e-05
-7.29787e-14
2e-05
-7.74944e-14
2e-05
-8.22425e-14
2e-05
-8.72322e-14
2e-05
-9.24728e-14
2e-05
-9.7974e-14
2e-05
-1.03746e-13
2e-05
-1.09797e-13
2e-05
-1.16139e-13
2e-05
-1.22781e-13
2e-05
-1.29734e-13
2e-05
-1.37007e-13
2e-05
-1.4461e-13
2e-05
-1.52555e-13
2e-05
-1.6085e-13
2e-05
-1.69506e-13
2e-05
-1.78533e-13
2e-05
-1.87939e-13
2e-05
-1.97735e-13
2e-05
-2.07928e-13
2e-05
-2.18527e-13
2e-05
-2.2954e-13
2e-05
-2.40974e-13
2e-05
-2.52835e-13
2e-05
-2.65128e-13
2e-05
-2.77857e-13
2e-05
-2.91024e-13
2e-05
-3.04631e-13
2e-05
-3.18677e-13
2e-05
-3.33159e-13
2e-05
-3.4807e-13
2e-05
-3.63404e-13
2e-05
-3.79146e-13
2e-05
-3.95282e-13
2e-05
-4.11789e-13
2e-05
-4.28641e-13
2e-05
-4.45803e-13
2e-05
-4.63233e-13
2e-05
-4.8088e-13
2e-05
-4.98679e-13
2e-05
-5.16553e-13
2e-05
-5.3441e-13
2e-05
-5.52135e-13
2e-05
-5.69594e-13
2e-05
-5.86625e-13
2e-05
-6.03037e-13
2e-05
-6.18605e-13
2e-05
-6.33069e-13
2e-05
-6.46132e-13
2e-05
-6.57459e-13
2e-05
-6.66683e-13
2e-05
-6.73469e-13
-6.77748e-13
2e-05
-1.5687e-16
2e-05
-4.70643e-16
2e-05
-7.87128e-16
2e-05
-1.11048e-15
2e-05
-1.44378e-15
2e-05
-1.78994e-15
2e-05
-2.15189e-15
2e-05
-2.5324e-15
2e-05
-2.93413e-15
2e-05
-3.35964e-15
2e-05
-3.81141e-15
2e-05
-4.29193e-15
2e-05
-4.80368e-15
2e-05
-5.34918e-15
2e-05
-5.93098e-15
2e-05
-6.55172e-15
2e-05
-7.21411e-15
2e-05
-7.92096e-15
2e-05
-8.67518e-15
2e-05
-9.4798e-15
2e-05
-1.0338e-14
2e-05
-1.12529e-14
2e-05
-1.22281e-14
2e-05
-1.32671e-14
2e-05
-1.43737e-14
2e-05
-1.55516e-14
2e-05
-1.68049e-14
2e-05
-1.81378e-14
2e-05
-1.95548e-14
2e-05
-2.10604e-14
2e-05
-2.26593e-14
2e-05
-2.43565e-14
2e-05
-2.61573e-14
2e-05
-2.80668e-14
2e-05
-3.00907e-14
2e-05
-3.22348e-14
2e-05
-3.4505e-14
2e-05
-3.69076e-14
2e-05
-3.9449e-14
2e-05
-4.21359e-14
2e-05
-4.49751e-14
2e-05
-4.79738e-14
2e-05
-5.11393e-14
2e-05
-5.44792e-14
2e-05
-5.80012e-14
2e-05
-6.17134e-14
2e-05
-6.5624e-14
2e-05
-6.97414e-14
2e-05
-7.40744e-14
2e-05
-7.86318e-14
2e-05
-8.34227e-14
2e-05
-8.84564e-14
2e-05
-9.37422e-14
2e-05
-9.92898e-14
2e-05
-1.05109e-13
2e-05
-1.11209e-13
2e-05
-1.17601e-13
2e-05
-1.24295e-13
2e-05
-1.313e-13
2e-05
-1.38627e-13
2e-05
-1.46286e-13
2e-05
-1.54287e-13
2e-05
-1.62641e-13
2e-05
-1.71357e-13
2e-05
-1.80445e-13
2e-05
-1.89914e-13
2e-05
-1.99774e-13
2e-05
-2.10034e-13
2e-05
-2.20702e-13
2e-05
-2.31785e-13
2e-05
-2.43292e-13
2e-05
-2.55228e-13
2e-05
-2.67598e-13
2e-05
-2.80407e-13
2e-05
-2.93657e-13
2e-05
-3.0735e-13
2e-05
-3.21484e-13
2e-05
-3.36057e-13
2e-05
-3.51063e-13
2e-05
-3.66494e-13
2e-05
-3.82335e-13
2e-05
-3.98572e-13
2e-05
-4.1518e-13
2e-05
-4.32132e-13
2e-05
-4.4939e-13
2e-05
-4.66911e-13
2e-05
-4.84637e-13
2e-05
-5.025e-13
2e-05
-5.20416e-13
2e-05
-5.38281e-13
2e-05
-5.55972e-13
2e-05
-5.73338e-13
2e-05
-5.90199e-13
2e-05
-6.06343e-13
2e-05
-6.21516e-13
2e-05
-6.35422e-13
2e-05
-6.47713e-13
2e-05
-6.57982e-13
2e-05
-6.65798e-13
-6.70937e-13
2e-05
-1.39724e-16
2e-05
-4.24548e-16
2e-05
-7.17217e-16
2e-05
-1.02027e-15
2e-05
-1.33499e-15
2e-05
-1.66314e-15
2e-05
-2.0069e-15
2e-05
-2.3686e-15
2e-05
-2.75061e-15
2e-05
-3.15526e-15
2e-05
-3.5849e-15
2e-05
-4.04186e-15
2e-05
-4.5285e-15
2e-05
-5.04722e-15
2e-05
-5.60047e-15
2e-05
-6.19078e-15
2e-05
-6.82073e-15
2e-05
-7.49301e-15
2e-05
-8.21043e-15
2e-05
-8.97587e-15
2e-05
-9.79236e-15
2e-05
-1.0663e-14
2e-05
-1.15912e-14
2e-05
-1.25802e-14
2e-05
-1.36337e-14
2e-05
-1.47554e-14
2e-05
-1.59491e-14
2e-05
-1.7219e-14
2e-05
-1.85691e-14
2e-05
-2.00041e-14
2e-05
-2.15283e-14
2e-05
-2.31467e-14
2e-05
-2.48641e-14
2e-05
-2.66858e-14
2e-05
-2.8617e-14
2e-05
-3.06635e-14
2e-05
-3.2831e-14
2e-05
-3.51254e-14
2e-05
-3.75531e-14
2e-05
-4.01205e-14
2e-05
-4.28342e-14
2e-05
-4.57011e-14
2e-05
-4.87285e-14
2e-05
-5.19235e-14
2e-05
-5.52939e-14
2e-05
-5.88474e-14
2e-05
-6.25921e-14
2e-05
-6.65362e-14
2e-05
-7.06882e-14
2e-05
-7.50567e-14
2e-05
-7.96507e-14
2e-05
-8.44793e-14
2e-05
-8.95518e-14
2e-05
-9.48775e-14
2e-05
-1.00466e-13
2e-05
-1.06328e-13
2e-05
-1.12472e-13
2e-05
-1.18909e-13
2e-05
-1.25649e-13
2e-05
-1.32701e-13
2e-05
-1.40077e-13
2e-05
-1.47787e-13
2e-05
-1.55841e-13
2e-05
-1.64249e-13
2e-05
-1.7302e-13
2e-05
-1.82166e-13
2e-05
-1.91696e-13
2e-05
-2.01619e-13
2e-05
-2.11944e-13
2e-05
-2.2268e-13
2e-05
-2.33835e-13
2e-05
-2.45416e-13
2e-05
-2.5743e-13
2e-05
-2.69882e-13
2e-05
-2.82777e-13
2e-05
-2.96118e-13
2e-05
-3.09906e-13
2e-05
-3.24141e-13
2e-05
-3.3882e-13
2e-05
-3.53938e-13
2e-05
-3.69484e-13
2e-05
-3.85446e-13
2e-05
-4.01807e-13
2e-05
-4.18543e-13
2e-05
-4.35623e-13
2e-05
-4.53007e-13
2e-05
-4.70648e-13
2e-05
-4.88484e-13
2e-05
-5.06439e-13
2e-05
-5.24418e-13
2e-05
-5.42307e-13
2e-05
-5.59964e-13
2e-05
-5.77218e-13
2e-05
-5.93862e-13
2e-05
-6.09643e-13
2e-05
-6.24256e-13
2e-05
-6.37329e-13
2e-05
-6.48396e-13
2e-05
-6.56912e-13
-6.62421e-13
2e-05
-1.25192e-16
2e-05
-3.83571e-16
2e-05
-6.52727e-16
2e-05
-9.34816e-16
2e-05
-1.23016e-15
2e-05
-1.53964e-15
2e-05
-1.86478e-15
2e-05
-2.20745e-15
2e-05
-2.56965e-15
2e-05
-2.95349e-15
2e-05
-3.36112e-15
2e-05
-3.79472e-15
2e-05
-4.25652e-15
2e-05
-4.74878e-15
2e-05
-5.27383e-15
2e-05
-5.83408e-15
2e-05
-6.43201e-15
2e-05
-7.07018e-15
2e-05
-7.75127e-15
2e-05
-8.47806e-15
2e-05
-9.25342e-15
2e-05
-1.00804e-14
2e-05
-1.09621e-14
2e-05
-1.19018e-14
2e-05
-1.2903e-14
2e-05
-1.39692e-14
2e-05
-1.51041e-14
2e-05
-1.63117e-14
2e-05
-1.75959e-14
2e-05
-1.89611e-14
2e-05
-2.04117e-14
2e-05
-2.19521e-14
2e-05
-2.35873e-14
2e-05
-2.53223e-14
2e-05
-2.71621e-14
2e-05
-2.91122e-14
2e-05
-3.11782e-14
2e-05
-3.33659e-14
2e-05
-3.56812e-14
2e-05
-3.81306e-14
2e-05
-4.07204e-14
2e-05
-4.34572e-14
2e-05
-4.63482e-14
2e-05
-4.94002e-14
2e-05
-5.26209e-14
2e-05
-5.60177e-14
2e-05
-5.95985e-14
2e-05
-6.33713e-14
2e-05
-6.73445e-14
2e-05
-7.15265e-14
2e-05
-7.5926e-14
2e-05
-8.05521e-14
2e-05
-8.54137e-14
2e-05
-9.05203e-14
2e-05
-9.58813e-14
2e-05
-1.01507e-13
2e-05
-1.07406e-13
2e-05
-1.13589e-13
2e-05
-1.20066e-13
2e-05
-1.26848e-13
2e-05
-1.33945e-13
2e-05
-1.41366e-13
2e-05
-1.49123e-13
2e-05
-1.57226e-13
2e-05
-1.65686e-13
2e-05
-1.74511e-13
2e-05
-1.83714e-13
2e-05
-1.93303e-13
2e-05
-2.03289e-13
2e-05
-2.13681e-13
2e-05
-2.24487e-13
2e-05
-2.35716e-13
2e-05
-2.47377e-13
2e-05
-2.59475e-13
2e-05
-2.72017e-13
2e-05
-2.85008e-13
2e-05
-2.98452e-13
2e-05
-3.12349e-13
2e-05
-3.26701e-13
2e-05
-3.41504e-13
2e-05
-3.56753e-13
2e-05
-3.72438e-13
2e-05
-3.88547e-13
2e-05
-4.05059e-13
2e-05
-4.21951e-13
2e-05
-4.39188e-13
2e-05
-4.56728e-13
2e-05
-4.74517e-13
2e-05
-4.92485e-13
2e-05
-5.10546e-13
2e-05
-5.28592e-13
2e-05
-5.46489e-13
2e-05
-5.6407e-13
2e-05
-5.8113e-13
2e-05
-5.97411e-13
2e-05
-6.12596e-13
2e-05
-6.26282e-13
2e-05
-6.37948e-13
2e-05
-6.46945e-13
-6.52416e-13
2e-05
-1.12555e-16
2e-05
-3.46702e-16
2e-05
-5.93215e-16
2e-05
-8.54336e-16
2e-05
-1.12994e-15
2e-05
-1.42032e-15
2e-05
-1.72648e-15
2e-05
-2.04987e-15
2e-05
-2.39217e-15
2e-05
-2.75522e-15
2e-05
-3.14097e-15
2e-05
-3.55141e-15
2e-05
-3.98863e-15
2e-05
-4.45475e-15
2e-05
-4.95199e-15
2e-05
-5.48261e-15
2e-05
-6.04899e-15
2e-05
-6.65357e-15
2e-05
-7.2989e-15
2e-05
-7.98763e-15
2e-05
-8.72252e-15
2e-05
-9.50646e-15
2e-05
-1.03425e-14
2e-05
-1.12336e-14
2e-05
-1.21833e-14
2e-05
-1.31949e-14
2e-05
-1.42719e-14
2e-05
-1.54182e-14
2e-05
-1.66375e-14
2e-05
-1.79341e-14
2e-05
-1.93121e-14
2e-05
-2.07759e-14
2e-05
-2.23302e-14
2e-05
-2.39797e-14
2e-05
-2.57295e-14
2e-05
-2.75847e-14
2e-05
-2.95508e-14
2e-05
-3.16333e-14
2e-05
-3.38381e-14
2e-05
-3.61712e-14
2e-05
-3.86389e-14
2e-05
-4.12477e-14
2e-05
-4.40042e-14
2e-05
-4.69155e-14
2e-05
-4.99887e-14
2e-05
-5.32311e-14
2e-05
-5.66504e-14
2e-05
-6.02546e-14
2e-05
-6.40516e-14
2e-05
-6.80497e-14
2e-05
-7.22577e-14
2e-05
-7.66841e-14
2e-05
-8.1338e-14
2e-05
-8.62285e-14
2e-05
-9.13652e-14
2e-05
-9.67575e-14
2e-05
-1.02415e-13
2e-05
-1.08348e-13
2e-05
-1.14567e-13
2e-05
-1.21082e-13
2e-05
-1.27902e-13
2e-05
-1.35039e-13
2e-05
-1.42504e-13
2e-05
-1.50306e-13
2e-05
-1.58457e-13
2e-05
-1.66967e-13
2e-05
-1.75846e-13
2e-05
-1.85106e-13
2e-05
-1.94756e-13
2e-05
-2.04807e-13
2e-05
-2.15269e-13
2e-05
-2.2615e-13
2e-05
-2.3746e-13
2e-05
-2.49207e-13
2e-05
-2.61399e-13
2e-05
-2.74042e-13
2e-05
-2.87142e-13
2e-05
-3.00703e-13
2e-05
-3.14727e-13
2e-05
-3.29215e-13
2e-05
-3.44164e-13
2e-05
-3.59568e-13
2e-05
-3.75418e-13
2e-05
-3.917e-13
2e-05
-4.08392e-13
2e-05
-4.25467e-13
2e-05
-4.42888e-13
2e-05
-4.60606e-13
2e-05
-4.78559e-13
2e-05
-4.96665e-13
2e-05
-5.14823e-13
2e-05
-5.32903e-13
2e-05
-5.5074e-13
2e-05
-5.68128e-13
2e-05
-5.84803e-13
2e-05
-6.00431e-13
2e-05
-6.14579e-13
2e-05
-6.26677e-13
2e-05
-6.35991e-13
-6.41314e-13
2e-05
-1.01323e-16
2e-05
-3.13192e-16
2e-05
-5.38165e-16
2e-05
-7.78725e-16
2e-05
-1.03458e-15
2e-05
-1.30569e-15
2e-05
-1.59269e-15
2e-05
-1.89666e-15
2e-05
-2.21901e-15
2e-05
-2.56131e-15
2e-05
-2.92529e-15
2e-05
-3.31278e-15
2e-05
-3.7257e-15
2e-05
-4.16605e-15
2e-05
-4.63588e-15
2e-05
-5.13736e-15
2e-05
-5.67271e-15
2e-05
-6.24427e-15
2e-05
-6.85446e-15
2e-05
-7.50581e-15
2e-05
-8.20095e-15
2e-05
-8.94264e-15
2e-05
-9.73375e-15
2e-05
-1.05773e-14
2e-05
-1.14764e-14
2e-05
-1.24343e-14
2e-05
-1.34545e-14
2e-05
-1.45406e-14
2e-05
-1.56963e-14
2e-05
-1.69254e-14
2e-05
-1.82321e-14
2e-05
-1.96207e-14
2e-05
-2.10955e-14
2e-05
-2.26611e-14
2e-05
-2.43225e-14
2e-05
-2.60845e-14
2e-05
-2.79524e-14
2e-05
-2.99317e-14
2e-05
-3.20279e-14
2e-05
-3.42468e-14
2e-05
-3.65946e-14
2e-05
-3.90775e-14
2e-05
-4.17021e-14
2e-05
-4.4475e-14
2e-05
-4.74032e-14
2e-05
-5.0494e-14
2e-05
-5.37547e-14
2e-05
-5.7193e-14
2e-05
-6.08168e-14
2e-05
-6.46343e-14
2e-05
-6.86539e-14
2e-05
-7.2884e-14
2e-05
-7.73336e-14
2e-05
-8.20118e-14
2e-05
-8.69278e-14
2e-05
-9.2091e-14
2e-05
-9.75113e-14
2e-05
-1.03198e-13
2e-05
-1.09163e-13
2e-05
-1.15414e-13
2e-05
-1.21963e-13
2e-05
-1.2882e-13
2e-05
-1.35997e-13
2e-05
-1.43503e-13
2e-05
-1.5135e-13
2e-05
-1.59548e-13
2e-05
-1.68109e-13
2e-05
-1.77044e-13
2e-05
-1.86363e-13
2e-05
-1.96078e-13
2e-05
-2.06198e-13
2e-05
-2.16735e-13
2e-05
-2.27699e-13
2e-05
-2.39098e-13
2e-05
-2.50942e-13
2e-05
-2.6324e-13
2e-05
-2.75998e-13
2e-05
-2.89223e-13
2e-05
-3.02919e-13
2e-05
-3.1709e-13
2e-05
-3.31736e-13
2e-05
-3.46854e-13
2e-05
-3.62439e-13
2e-05
-3.7848e-13
2e-05
-3.9496e-13
2e-05
-4.11858e-13
2e-05
-4.29139e-13
2e-05
-4.46761e-13
2e-05
-4.64666e-13
2e-05
-4.82778e-13
2e-05
-5.00999e-13
2e-05
-5.19202e-13
2e-05
-5.37224e-13
2e-05
-5.54853e-13
2e-05
-5.7182e-13
2e-05
-5.87772e-13
2e-05
-6.02251e-13
2e-05
-6.14644e-13
2e-05
-6.24151e-13
-6.29427e-13
2e-05
-9.11653e-17
2e-05
-2.82475e-16
2e-05
-4.87083e-16
2e-05
-7.07739e-16
2e-05
-9.44139e-16
2e-05
-1.19606e-15
2e-05
-1.46388e-15
2e-05
-1.74843e-15
2e-05
-2.05085e-15
2e-05
-2.37249e-15
2e-05
-2.71488e-15
2e-05
-3.07966e-15
2e-05
-3.4686e-15
2e-05
-3.88354e-15
2e-05
-4.32642e-15
2e-05
-4.79925e-15
2e-05
-5.30414e-15
2e-05
-5.84331e-15
2e-05
-6.41905e-15
2e-05
-7.03376e-15
2e-05
-7.68995e-15
2e-05
-8.39025e-15
2e-05
-9.13739e-15
2e-05
-9.93425e-15
2e-05
-1.07838e-14
2e-05
-1.16892e-14
2e-05
-1.26538e-14
2e-05
-1.36809e-14
2e-05
-1.47742e-14
2e-05
-1.59373e-14
2e-05
-1.71742e-14
2e-05
-1.8489e-14
2e-05
-1.9886e-14
2e-05
-2.13695e-14
2e-05
-2.29442e-14
2e-05
-2.46149e-14
2e-05
-2.63867e-14
2e-05
-2.82648e-14
2e-05
-3.02545e-14
2e-05
-3.23616e-14
2e-05
-3.45919e-14
2e-05
-3.69514e-14
2e-05
-3.94466e-14
2e-05
-4.20839e-14
2e-05
-4.487e-14
2e-05
-4.7812e-14
2e-05
-5.09172e-14
2e-05
-5.41929e-14
2e-05
-5.7647e-14
2e-05
-6.12873e-14
2e-05
-6.51221e-14
2e-05
-6.91597e-14
2e-05
-7.3409e-14
2e-05
-7.78787e-14
2e-05
-8.25781e-14
2e-05
-8.75166e-14
2e-05
-9.27037e-14
2e-05
-9.81493e-14
2e-05
-1.03863e-13
2e-05
-1.09856e-13
2e-05
-1.16139e-13
2e-05
-1.22721e-13
2e-05
-1.29614e-13
2e-05
-1.36829e-13
2e-05
-1.44377e-13
2e-05
-1.52269e-13
2e-05
-1.60517e-13
2e-05
-1.69131e-13
2e-05
-1.78124e-13
2e-05
-1.87508e-13
2e-05
-1.97292e-13
2e-05
-2.07489e-13
2e-05
-2.18109e-13
2e-05
-2.29164e-13
2e-05
-2.40664e-13
2e-05
-2.52618e-13
2e-05
-2.65036e-13
2e-05
-2.77925e-13
2e-05
-2.91293e-13
2e-05
-3.05145e-13
2e-05
-3.19485e-13
2e-05
-3.34311e-13
2e-05
-3.49623e-13
2e-05
-3.65413e-13
2e-05
-3.81669e-13
2e-05
-3.9837e-13
2e-05
-4.1549e-13
2e-05
-4.32988e-13
2e-05
-4.50812e-13
2e-05
-4.68889e-13
2e-05
-4.87123e-13
2e-05
-5.0539e-13
2e-05
-5.23525e-13
2e-05
-5.41313e-13
2e-05
-5.58477e-13
2e-05
-5.7465e-13
2e-05
-5.8935e-13
2e-05
-6.01934e-13
2e-05
-6.11545e-13
-6.16896e-13
2e-05
-8.18737e-17
2e-05
-2.54135e-16
2e-05
-4.39548e-16
2e-05
-6.41092e-16
2e-05
-8.58523e-16
2e-05
-1.09154e-15
2e-05
-1.34036e-15
2e-05
-1.60562e-15
2e-05
-1.88824e-15
2e-05
-2.1894e-15
2e-05
-2.51042e-15
2e-05
-2.85278e-15
2e-05
-3.21809e-15
2e-05
-3.60805e-15
2e-05
-4.02445e-15
2e-05
-4.46918e-15
2e-05
-4.94424e-15
2e-05
-5.45169e-15
2e-05
-5.99371e-15
2e-05
-6.57258e-15
2e-05
-7.19068e-15
2e-05
-7.85051e-15
2e-05
-8.55468e-15
2e-05
-9.30592e-15
2e-05
-1.01071e-14
2e-05
-1.09612e-14
2e-05
-1.18713e-14
2e-05
-1.28409e-14
2e-05
-1.38731e-14
2e-05
-1.49718e-14
2e-05
-1.61405e-14
2e-05
-1.73832e-14
2e-05
-1.87041e-14
2e-05
-2.01073e-14
2e-05
-2.15973e-14
2e-05
-2.31788e-14
2e-05
-2.48566e-14
2e-05
-2.66358e-14
2e-05
-2.85215e-14
2e-05
-3.05192e-14
2e-05
-3.26346e-14
2e-05
-3.48735e-14
2e-05
-3.72421e-14
2e-05
-3.97468e-14
2e-05
-4.2394e-14
2e-05
-4.51905e-14
2e-05
-4.81435e-14
2e-05
-5.12602e-14
2e-05
-5.45481e-14
2e-05
-5.8015e-14
2e-05
-6.1669e-14
2e-05
-6.55182e-14
2e-05
-6.95713e-14
2e-05
-7.3837e-14
2e-05
-7.83243e-14
2e-05
-8.30426e-14
2e-05
-8.80013e-14
2e-05
-9.32103e-14
2e-05
-9.86795e-14
2e-05
-1.04419e-13
2e-05
-1.1044e-13
2e-05
-1.16753e-13
2e-05
-1.23368e-13
2e-05
-1.30297e-13
2e-05
-1.37551e-13
2e-05
-1.45142e-13
2e-05
-1.53082e-13
2e-05
-1.61382e-13
2e-05
-1.70054e-13
2e-05
-1.7911e-13
2e-05
-1.88563e-13
2e-05
-1.98424e-13
2e-05
-2.08706e-13
2e-05
-2.1942e-13
2e-05
-2.30578e-13
2e-05
-2.42192e-13
2e-05
-2.54271e-13
2e-05
-2.66825e-13
2e-05
-2.79864e-13
2e-05
-2.93396e-13
2e-05
-3.07424e-13
2e-05
-3.21954e-13
2e-05
-3.36984e-13
2e-05
-3.52512e-13
2e-05
-3.68528e-13
2e-05
-3.85015e-13
2e-05
-4.01951e-13
2e-05
-4.19297e-13
2e-05
-4.37005e-13
2e-05
-4.55005e-13
2e-05
-4.73203e-13
2e-05
-4.91475e-13
2e-05
-5.09656e-13
2e-05
-5.27527e-13
2e-05
-5.44802e-13
2e-05
-5.61103e-13
2e-05
-5.75933e-13
2e-05
-5.88627e-13
2e-05
-5.98305e-13
-6.03815e-13
2e-05
-7.33038e-17
2e-05
-2.2786e-16
2e-05
-3.95207e-16
2e-05
-5.78503e-16
2e-05
-7.7759e-16
2e-05
-9.92144e-16
2e-05
-1.22229e-15
2e-05
-1.46853e-15
2e-05
-1.73161e-15
2e-05
-2.01253e-15
2e-05
-2.31248e-15
2e-05
-2.63277e-15
2e-05
-2.97486e-15
2e-05
-3.34029e-15
2e-05
-3.73075e-15
2e-05
-4.14799e-15
2e-05
-4.59385e-15
2e-05
-5.07031e-15
2e-05
-5.57941e-15
2e-05
-6.12329e-15
2e-05
-6.70423e-15
2e-05
-7.32458e-15
2e-05
-7.98683e-15
2e-05
-8.69359e-15
2e-05
-9.44757e-15
2e-05
-1.02516e-14
2e-05
-1.11088e-14
2e-05
-1.20221e-14
2e-05
-1.29949e-14
2e-05
-1.40307e-14
2e-05
-1.51329e-14
2e-05
-1.63054e-14
2e-05
-1.75521e-14
2e-05
-1.8877e-14
2e-05
-2.02845e-14
2e-05
-2.1779e-14
2e-05
-2.33651e-14
2e-05
-2.50478e-14
2e-05
-2.6832e-14
2e-05
-2.8723e-14
2e-05
-3.07263e-14
2e-05
-3.28476e-14
2e-05
-3.50927e-14
2e-05
-3.74679e-14
2e-05
-3.99795e-14
2e-05
-4.26341e-14
2e-05
-4.54385e-14
2e-05
-4.83999e-14
2e-05
-5.15256e-14
2e-05
-5.48232e-14
2e-05
-5.83005e-14
2e-05
-6.19657e-14
2e-05
-6.58271e-14
2e-05
-6.98934e-14
2e-05
-7.41735e-14
2e-05
-7.86765e-14
2e-05
-8.34119e-14
2e-05
-8.83894e-14
2e-05
-9.3619e-14
2e-05
-9.91109e-14
2e-05
-1.04876e-13
2e-05
-1.10924e-13
2e-05
-1.17267e-13
2e-05
-1.23916e-13
2e-05
-1.30883e-13
2e-05
-1.38178e-13
2e-05
-1.45815e-13
2e-05
-1.53806e-13
2e-05
-1.62163e-13
2e-05
-1.70898e-13
2e-05
-1.80024e-13
2e-05
-1.89555e-13
2e-05
-1.99502e-13
2e-05
-2.09879e-13
2e-05
-2.20699e-13
2e-05
-2.31974e-13
2e-05
-2.43715e-13
2e-05
-2.55935e-13
2e-05
-2.68645e-13
2e-05
-2.81852e-13
2e-05
-2.95566e-13
2e-05
-3.09792e-13
2e-05
-3.24533e-13
2e-05
-3.39787e-13
2e-05
-3.55548e-13
2e-05
-3.71803e-13
2e-05
-3.8853e-13
2e-05
-4.05697e-13
2e-05
-4.23255e-13
2e-05
-4.41137e-13
2e-05
-4.59252e-13
2e-05
-4.77474e-13
2e-05
-4.95637e-13
2e-05
-5.1352e-13
2e-05
-5.30829e-13
2e-05
-5.4718e-13
2e-05
-5.62064e-13
2e-05
-5.74809e-13
2e-05
-5.84542e-13
-5.9021e-13
2e-05
-6.53628e-17
2e-05
-2.03416e-16
2e-05
-3.53773e-16
2e-05
-5.19714e-16
2e-05
-7.0117e-16
2e-05
-8.97824e-16
2e-05
-1.10975e-15
2e-05
-1.33735e-15
2e-05
-1.58124e-15
2e-05
-1.8423e-15
2e-05
-2.12155e-15
2e-05
-2.42019e-15
2e-05
-2.73951e-15
2e-05
-3.08095e-15
2e-05
-3.44603e-15
2e-05
-3.83641e-15
2e-05
-4.25379e-15
2e-05
-4.70002e-15
2e-05
-5.17703e-15
2e-05
-5.68683e-15
2e-05
-6.23158e-15
2e-05
-6.8135e-15
2e-05
-7.43497e-15
2e-05
-8.09843e-15
2e-05
-8.8065e-15
2e-05
-9.56189e-15
2e-05
-1.03674e-14
2e-05
-1.12262e-14
2e-05
-1.21412e-14
2e-05
-1.31157e-14
2e-05
-1.41533e-14
2e-05
-1.52574e-14
2e-05
-1.64319e-14
2e-05
-1.76807e-14
2e-05
-1.90079e-14
2e-05
-2.04177e-14
2e-05
-2.19146e-14
2e-05
-2.35034e-14
2e-05
-2.51888e-14
2e-05
-2.6976e-14
2e-05
-2.88702e-14
2e-05
-3.08769e-14
2e-05
-3.30018e-14
2e-05
-3.5251e-14
2e-05
-3.76305e-14
2e-05
-4.01468e-14
2e-05
-4.28065e-14
2e-05
-4.56166e-14
2e-05
-4.85843e-14
2e-05
-5.17168e-14
2e-05
-5.5022e-14
2e-05
-5.85077e-14
2e-05
-6.21822e-14
2e-05
-6.6054e-14
2e-05
-7.01319e-14
2e-05
-7.44248e-14
2e-05
-7.89422e-14
2e-05
-8.36938e-14
2e-05
-8.86893e-14
2e-05
-9.3939e-14
2e-05
-9.94536e-14
2e-05
-1.05244e-13
2e-05
-1.1132e-13
2e-05
-1.17695e-13
2e-05
-1.2438e-13
2e-05
-1.31386e-13
2e-05
-1.38727e-13
2e-05
-1.46414e-13
2e-05
-1.54461e-13
2e-05
-1.6288e-13
2e-05
-1.71685e-13
2e-05
-1.8089e-13
2e-05
-1.90507e-13
2e-05
-2.00551e-13
2e-05
-2.11036e-13
2e-05
-2.21974e-13
2e-05
-2.3338e-13
2e-05
-2.45266e-13
2e-05
-2.57644e-13
2e-05
-2.70526e-13
2e-05
-2.83921e-13
2e-05
-2.97837e-13
2e-05
-3.12279e-13
2e-05
-3.27247e-13
2e-05
-3.42738e-13
2e-05
-3.58742e-13
2e-05
-3.75238e-13
2e-05
-3.92197e-13
2e-05
-4.09572e-13
2e-05
-4.27298e-13
2e-05
-4.45284e-13
2e-05
-4.63404e-13
2e-05
-4.81492e-13
2e-05
-4.99323e-13
2e-05
-5.16601e-13
2e-05
-5.32935e-13
2e-05
-5.47813e-13
2e-05
-5.60562e-13
2e-05
-5.70323e-13
-5.76077e-13
2e-05
-5.79713e-17
2e-05
-1.8063e-16
2e-05
-3.15019e-16
2e-05
-4.64502e-16
2e-05
-6.29089e-16
2e-05
-8.08489e-16
2e-05
-1.00275e-15
2e-05
-1.21219e-15
2e-05
-1.43736e-15
2e-05
-1.67899e-15
2e-05
-1.93801e-15
2e-05
-2.21547e-15
2e-05
-2.51255e-15
2e-05
-2.83056e-15
2e-05
-3.1709e-15
2e-05
-3.5351e-15
2e-05
-3.92475e-15
2e-05
-4.34157e-15
2e-05
-4.78736e-15
2e-05
-5.26405e-15
2e-05
-5.77363e-15
2e-05
-6.31823e-15
2e-05
-6.90009e-15
2e-05
-7.52153e-15
2e-05
-8.18503e-15
2e-05
-8.89317e-15
2e-05
-9.64866e-15
2e-05
-1.04543e-14
2e-05
-1.13132e-14
2e-05
-1.22284e-14
2e-05
-1.32032e-14
2e-05
-1.4241e-14
2e-05
-1.53455e-14
2e-05
-1.65203e-14
2e-05
-1.77695e-14
2e-05
-1.90971e-14
2e-05
-2.05075e-14
2e-05
-2.2005e-14
2e-05
-2.35945e-14
2e-05
-2.52808e-14
2e-05
-2.7069e-14
2e-05
-2.89645e-14
2e-05
-3.09726e-14
2e-05
-3.30993e-14
2e-05
-3.53504e-14
2e-05
-3.77323e-14
2e-05
-4.02513e-14
2e-05
-4.29143e-14
2e-05
-4.57282e-14
2e-05
-4.87002e-14
2e-05
-5.18378e-14
2e-05
-5.51489e-14
2e-05
-5.86415e-14
2e-05
-6.23239e-14
2e-05
-6.62048e-14
2e-05
-7.02932e-14
2e-05
-7.45982e-14
2e-05
-7.91294e-14
2e-05
-8.38967e-14
2e-05
-8.89103e-14
2e-05
-9.41806e-14
2e-05
-9.97185e-14
2e-05
-1.05535e-13
2e-05
-1.11642e-13
2e-05
-1.18051e-13
2e-05
-1.24774e-13
2e-05
-1.31825e-13
2e-05
-1.39214e-13
2e-05
-1.46957e-13
2e-05
-1.55066e-13
2e-05
-1.63555e-13
2e-05
-1.72439e-13
2e-05
-1.81731e-13
2e-05
-1.91445e-13
2e-05
-2.01598e-13
2e-05
-2.12203e-13
2e-05
-2.23274e-13
2e-05
-2.34826e-13
2e-05
-2.46873e-13
2e-05
-2.59426e-13
2e-05
-2.72498e-13
2e-05
-2.86097e-13
2e-05
-3.00231e-13
2e-05
-3.14902e-13
2e-05
-3.30108e-13
2e-05
-3.45841e-13
2e-05
-3.62084e-13
2e-05
-3.78808e-13
2e-05
-3.95969e-13
2e-05
-4.13501e-13
2e-05
-4.31315e-13
2e-05
-4.49287e-13
2e-05
-4.67247e-13
2e-05
-4.84971e-13
2e-05
-5.0216e-13
2e-05
-5.1842e-13
2e-05
-5.33239e-13
2e-05
-5.45949e-13
2e-05
-5.55701e-13
-5.61473e-13
2e-05
-5.10889e-17
2e-05
-1.59366e-16
2e-05
-2.78752e-16
2e-05
-4.1267e-16
2e-05
-5.61185e-16
2e-05
-7.24037e-16
2e-05
-9.01258e-16
2e-05
-1.09312e-15
2e-05
-1.30009e-15
2e-05
-1.52283e-15
2e-05
-1.76214e-15
2e-05
-2.01898e-15
2e-05
-2.29441e-15
2e-05
-2.58962e-15
2e-05
-2.9059e-15
2e-05
-3.24464e-15
2e-05
-3.60735e-15
2e-05
-3.99562e-15
2e-05
-4.41114e-15
2e-05
-4.85569e-15
2e-05
-5.33119e-15
2e-05
-5.83962e-15
2e-05
-6.38309e-15
2e-05
-6.96383e-15
2e-05
-7.58416e-15
2e-05
-8.24654e-15
2e-05
-8.95354e-15
2e-05
-9.70789e-15
2e-05
-1.05124e-14
2e-05
-1.13701e-14
2e-05
-1.22841e-14
2e-05
-1.32577e-14
2e-05
-1.42943e-14
2e-05
-1.53975e-14
2e-05
-1.65711e-14
2e-05
-1.78191e-14
2e-05
-1.91456e-14
2e-05
-2.05548e-14
2e-05
-2.20513e-14
2e-05
-2.36399e-14
2e-05
-2.53253e-14
2e-05
-2.71128e-14
2e-05
-2.90077e-14
2e-05
-3.10156e-14
2e-05
-3.31422e-14
2e-05
-3.53936e-14
2e-05
-3.77762e-14
2e-05
-4.02964e-14
2e-05
-4.2961e-14
2e-05
-4.57771e-14
2e-05
-4.87521e-14
2e-05
-5.18935e-14
2e-05
-5.52093e-14
2e-05
-5.87076e-14
2e-05
-6.23971e-14
2e-05
-6.62864e-14
2e-05
-7.03847e-14
2e-05
-7.47015e-14
2e-05
-7.92466e-14
2e-05
-8.403e-14
2e-05
-8.90623e-14
2e-05
-9.43543e-14
2e-05
-9.99172e-14
2e-05
-1.05763e-13
2e-05
-1.11902e-13
2e-05
-1.18349e-13
2e-05
-1.25115e-13
2e-05
-1.32213e-13
2e-05
-1.39658e-13
2e-05
-1.47462e-13
2e-05
-1.55641e-13
2e-05
-1.64208e-13
2e-05
-1.73179e-13
2e-05
-1.82569e-13
2e-05
-1.92393e-13
2e-05
-2.02666e-13
2e-05
-2.13405e-13
2e-05
-2.24623e-13
2e-05
-2.36337e-13
2e-05
-2.48559e-13
2e-05
-2.61303e-13
2e-05
-2.74579e-13
2e-05
-2.88396e-13
2e-05
-3.02758e-13
2e-05
-3.17665e-13
2e-05
-3.33111e-13
2e-05
-3.49079e-13
2e-05
-3.65542e-13
2e-05
-3.82457e-13
2e-05
-3.99762e-13
2e-05
-4.17365e-13
2e-05
-4.35144e-13
2e-05
-4.5293e-13
2e-05
-4.70497e-13
2e-05
-4.87545e-13
2e-05
-5.03682e-13
2e-05
-5.18397e-13
2e-05
-5.31028e-13
2e-05
-5.40732e-13
-5.46482e-13
2e-05
-4.46732e-17
2e-05
-1.39513e-16
2e-05
-2.4483e-16
2e-05
-3.64053e-16
2e-05
-4.97305e-16
2e-05
-6.4435e-16
2e-05
-8.05212e-16
2e-05
-9.8013e-16
2e-05
-1.16952e-15
2e-05
-1.37396e-15
2e-05
-1.59417e-15
2e-05
-1.831e-15
2e-05
-2.08541e-15
2e-05
-2.3585e-15
2e-05
-2.65144e-15
2e-05
-2.96552e-15
2e-05
-3.30214e-15
2e-05
-3.66276e-15
2e-05
-4.04896e-15
2e-05
-4.46244e-15
2e-05
-4.90496e-15
2e-05
-5.37841e-15
2e-05
-5.88479e-15
2e-05
-6.42617e-15
2e-05
-7.00478e-15
2e-05
-7.62294e-15
2e-05
-8.2831e-15
2e-05
-8.98782e-15
2e-05
-9.73984e-15
2e-05
-1.0542e-14
2e-05
-1.13972e-14
2e-05
-1.23087e-14
2e-05
-1.32798e-14
2e-05
-1.43138e-14
2e-05
-1.54144e-14
2e-05
-1.65853e-14
2e-05
-1.78306e-14
2e-05
-1.91544e-14
2e-05
-2.05611e-14
2e-05
-2.2055e-14
2e-05
-2.36411e-14
2e-05
-2.53242e-14
2e-05
-2.71095e-14
2e-05
-2.90023e-14
2e-05
-3.10084e-14
2e-05
-3.31335e-14
2e-05
-3.53838e-14
2e-05
-3.77657e-14
2e-05
-4.02857e-14
2e-05
-4.29507e-14
2e-05
-4.57679e-14
2e-05
-4.87448e-14
2e-05
-5.18891e-14
2e-05
-5.52088e-14
2e-05
-5.87124e-14
2e-05
-6.24084e-14
2e-05
-6.6306e-14
2e-05
-7.04144e-14
2e-05
-7.47434e-14
2e-05
-7.93029e-14
2e-05
-8.41036e-14
2e-05
-8.91561e-14
2e-05
-9.44717e-14
2e-05
-1.00062e-13
2e-05
-1.05939e-13
2e-05
-1.12115e-13
2e-05
-1.18603e-13
2e-05
-1.25417e-13
2e-05
-1.32569e-13
2e-05
-1.40075e-13
2e-05
-1.47948e-13
2e-05
-1.56205e-13
2e-05
-1.64859e-13
2e-05
-1.73928e-13
2e-05
-1.83426e-13
2e-05
-1.93371e-13
2e-05
-2.03778e-13
2e-05
-2.14663e-13
2e-05
-2.26043e-13
2e-05
-2.37932e-13
2e-05
-2.50343e-13
2e-05
-2.6329e-13
2e-05
-2.76781e-13
2e-05
-2.90823e-13
2e-05
-3.05417e-13
2e-05
-3.20558e-13
2e-05
-3.3623e-13
2e-05
-3.52408e-13
2e-05
-3.69051e-13
2e-05
-3.86095e-13
2e-05
-4.03452e-13
2e-05
-4.20999e-13
2e-05
-4.38568e-13
2e-05
-4.55932e-13
2e-05
-4.72795e-13
2e-05
-4.88765e-13
2e-05
-5.03335e-13
2e-05
-5.15848e-13
2e-05
-5.25471e-13
-5.31175e-13
2e-05
-3.86922e-17
2e-05
-1.20988e-16
2e-05
-2.13121e-16
2e-05
-3.18512e-16
2e-05
-4.37313e-16
2e-05
-5.69315e-16
2e-05
-7.14545e-16
2e-05
-8.73208e-16
2e-05
-1.04568e-15
2e-05
-1.23248e-15
2e-05
-1.43424e-15
2e-05
-1.65173e-15
2e-05
-1.88584e-15
2e-05
-2.13753e-15
2e-05
-2.40791e-15
2e-05
-2.69816e-15
2e-05
-3.00955e-15
2e-05
-3.34346e-15
2e-05
-3.70137e-15
2e-05
-4.08484e-15
2e-05
-4.49555e-15
2e-05
-4.93526e-15
2e-05
-5.40584e-15
2e-05
-5.90928e-15
2e-05
-6.44766e-15
2e-05
-7.02318e-15
2e-05
-7.63817e-15
2e-05
-8.29506e-15
2e-05
-8.99644e-15
2e-05
-9.74501e-15
2e-05
-1.05436e-14
2e-05
-1.13952e-14
2e-05
-1.2303e-14
2e-05
-1.32703e-14
2e-05
-1.43004e-14
2e-05
-1.53971e-14
2e-05
-1.65642e-14
2e-05
-1.78055e-14
2e-05
-1.91253e-14
2e-05
-2.0528e-14
2e-05
-2.20181e-14
2e-05
-2.36003e-14
2e-05
-2.52798e-14
2e-05
-2.70615e-14
2e-05
-2.89511e-14
2e-05
-3.09542e-14
2e-05
-3.30766e-14
2e-05
-3.53247e-14
2e-05
-3.77048e-14
2e-05
-4.02236e-14
2e-05
-4.28881e-14
2e-05
-4.57057e-14
2e-05
-4.86839e-14
2e-05
-5.18305e-14
2e-05
-5.51539e-14
2e-05
-5.86625e-14
2e-05
-6.23653e-14
2e-05
-6.62715e-14
2e-05
-7.03906e-14
2e-05
-7.47327e-14
2e-05
-7.93081e-14
2e-05
-8.41276e-14
2e-05
-8.92025e-14
2e-05
-9.45442e-14
2e-05
-1.00165e-13
2e-05
-1.06077e-13
2e-05
-1.12294e-13
2e-05
-1.18829e-13
2e-05
-1.25695e-13
2e-05
-1.32908e-13
2e-05
-1.40482e-13
2e-05
-1.48432e-13
2e-05
-1.56775e-13
2e-05
-1.65527e-13
2e-05
-1.74703e-13
2e-05
-1.84321e-13
2e-05
-1.94398e-13
2e-05
-2.04951e-13
2e-05
-2.15996e-13
2e-05
-2.27548e-13
2e-05
-2.39624e-13
2e-05
-2.52235e-13
2e-05
-2.65393e-13
2e-05
-2.79104e-13
2e-05
-2.93372e-13
2e-05
-3.08191e-13
2e-05
-3.23548e-13
2e-05
-3.39419e-13
2e-05
-3.55762e-13
2e-05
-3.72517e-13
2e-05
-3.89595e-13
2e-05
-4.06874e-13
2e-05
-4.24187e-13
2e-05
-4.4131e-13
2e-05
-4.57947e-13
2e-05
-4.7371e-13
2e-05
-4.88097e-13
2e-05
-5.0046e-13
2e-05
-5.09973e-13
-5.15612e-13
2e-05
-3.31219e-17
2e-05
-1.03726e-16
2e-05
-1.83525e-16
2e-05
-2.75916e-16
2e-05
-3.81081e-16
2e-05
-4.98826e-16
2e-05
-6.2917e-16
2e-05
-7.72306e-16
2e-05
-9.2857e-16
2e-05
-1.09843e-15
2e-05
-1.28245e-15
2e-05
-1.48132e-15
2e-05
-1.69586e-15
2e-05
-1.92695e-15
2e-05
-2.17558e-15
2e-05
-2.44286e-15
2e-05
-2.72995e-15
2e-05
-3.03814e-15
2e-05
-3.3688e-15
2e-05
-3.72339e-15
2e-05
-4.10347e-15
2e-05
-4.5107e-15
2e-05
-4.94685e-15
2e-05
-5.41378e-15
2e-05
-5.91345e-15
2e-05
-6.44796e-15
2e-05
-7.01949e-15
2e-05
-7.63037e-15
2e-05
-8.28304e-15
2e-05
-8.98007e-15
2e-05
-9.72417e-15
2e-05
-1.05182e-14
2e-05
-1.13651e-14
2e-05
-1.22681e-14
2e-05
-1.32305e-14
2e-05
-1.42557e-14
2e-05
-1.53473e-14
2e-05
-1.65093e-14
2e-05
-1.77455e-14
2e-05
-1.90602e-14
2e-05
-2.04578e-14
2e-05
-2.19429e-14
2e-05
-2.35202e-14
2e-05
-2.51948e-14
2e-05
-2.6972e-14
2e-05
-2.88573e-14
2e-05
-3.08564e-14
2e-05
-3.29753e-14
2e-05
-3.52203e-14
2e-05
-3.75979e-14
2e-05
-4.01149e-14
2e-05
-4.27784e-14
2e-05
-4.55959e-14
2e-05
-4.85752e-14
2e-05
-5.17241e-14
2e-05
-5.50513e-14