/*--------------------------------*- C++ -*----------------------------------*\
  =========                 |
  \\      /  F ield         | OpenFOAM: The Open Source CFD Toolbox
   \\    /   O peration     | Website:  https://openfoam.org
    \\  /    A nd           | Version:  11
     \\/     M anipulation  |
\*---------------------------------------------------------------------------*/
FoamFile
{
    format      ascii;
    class       volScalarField;
    location    "1658";
    object      p;
}
// * * * * * * * * * * * * * * * * * * * * * * * * * * * * * * * * * * * * * //

dimensions      [0 2 -2 0 0 0 0];

internalField   nonuniform List<scalar> 
10000
(
6.56193e-15
6.39448e-15
6.65814e-15
7.1929e-15
7.80717e-15
8.45849e-15
9.14521e-15
9.86744e-15
1.06257e-14
1.14218e-14
1.22578e-14
1.31363e-14
1.40602e-14
1.50321e-14
1.60551e-14
1.71319e-14
1.82657e-14
1.94597e-14
2.0717e-14
2.20407e-14
2.34343e-14
2.49012e-14
2.64447e-14
2.80685e-14
2.97761e-14
3.15713e-14
3.34577e-14
3.54393e-14
3.752e-14
3.97036e-14
4.19943e-14
4.43961e-14
4.69131e-14
4.95495e-14
5.23094e-14
5.51973e-14
5.82172e-14
6.13733e-14
6.46699e-14
6.81111e-14
7.17011e-14
7.54439e-14
7.93435e-14
8.34037e-14
8.76282e-14
9.20205e-14
9.65838e-14
1.01321e-13
1.06236e-13
1.1133e-13
1.16605e-13
1.22063e-13
1.27706e-13
1.33533e-13
1.39545e-13
1.45742e-13
1.52121e-13
1.5868e-13
1.65416e-13
1.72324e-13
1.794e-13
1.86636e-13
1.94023e-13
2.01551e-13
2.09209e-13
2.16982e-13
2.24854e-13
2.32806e-13
2.40818e-13
2.48863e-13
2.56914e-13
2.64938e-13
2.729e-13
2.80758e-13
2.88466e-13
2.9597e-13
3.03213e-13
3.10127e-13
3.16638e-13
3.22661e-13
3.28102e-13
3.32854e-13
3.36797e-13
3.39797e-13
3.41701e-13
3.4234e-13
3.41518e-13
3.39018e-13
3.34592e-13
3.27954e-13
3.1878e-13
3.06688e-13
2.91228e-13
2.71842e-13
2.47777e-13
2.1805e-13
1.8212e-13
1.39757e-13
7.90268e-14
5.36599e-15
1.19223e-14
1.11723e-14
1.07571e-14
1.09555e-14
1.14213e-14
1.20201e-14
1.27174e-14
1.34961e-14
1.43448e-14
1.52579e-14
1.62331e-14
1.72698e-14
1.8369e-14
1.95321e-14
2.07614e-14
2.20594e-14
2.34289e-14
2.48728e-14
2.63946e-14
2.79975e-14
2.96851e-14
3.1461e-14
3.3329e-14
3.52933e-14
3.73576e-14
3.95261e-14
4.1803e-14
4.41926e-14
4.66993e-14
4.93274e-14
5.20816e-14
5.49663e-14
5.79862e-14
6.11457e-14
6.44497e-14
6.79027e-14
7.15094e-14
7.52743e-14
7.9202e-14
8.3297e-14
8.75636e-14
9.20063e-14
9.66291e-14
1.01436e-13
1.0643e-13
1.11616e-13
1.16997e-13
1.22574e-13
1.28352e-13
1.34331e-13
1.40513e-13
1.469e-13
1.53491e-13
1.60287e-13
1.67285e-13
1.74485e-13
1.81882e-13
1.89472e-13
1.97251e-13
2.05211e-13
2.13343e-13
2.21639e-13
2.30085e-13
2.38668e-13
2.4737e-13
2.56175e-13
2.65058e-13
2.73996e-13
2.82961e-13
2.91918e-13
3.00833e-13
3.09663e-13
3.18362e-13
3.26877e-13
3.35149e-13
3.4311e-13
3.50686e-13
3.57792e-13
3.64336e-13
3.70209e-13
3.75295e-13
3.79458e-13
3.82551e-13
3.84404e-13
3.84829e-13
3.83613e-13
3.80515e-13
3.75263e-13
3.67548e-13
3.57015e-13
3.43258e-13
3.25803e-13
3.04091e-13
2.77436e-13
2.44986e-13
2.05894e-13
1.59593e-13
1.01551e-13
1.5297e-14
-5.70621e-14
1.40607e-14
1.29516e-14
1.20443e-14
1.17978e-14
1.18907e-14
1.2173e-14
1.25953e-14
1.31287e-14
1.37532e-14
1.44559e-14
1.52294e-14
1.60692e-14
1.6973e-14
1.794e-14
1.897e-14
2.00641e-14
2.12234e-14
2.24497e-14
2.37448e-14
2.51112e-14
2.65511e-14
2.80674e-14
2.96626e-14
3.13397e-14
3.31019e-14
3.49521e-14
3.68936e-14
3.89298e-14
4.10639e-14
4.32992e-14
4.56394e-14
4.80879e-14
5.0648e-14
5.33235e-14
5.61177e-14
5.90342e-14
6.20765e-14
6.52479e-14
6.85518e-14
7.19913e-14
7.55697e-14
7.929e-14
8.31551e-14
8.71676e-14
9.13299e-14
9.56442e-14
1.00112e-13
1.04736e-13
1.09516e-13
1.14453e-13
1.19548e-13
1.248e-13
1.30208e-13
1.3577e-13
1.41485e-13
1.47349e-13
1.53358e-13
1.59506e-13
1.65788e-13
1.72196e-13
1.78719e-13
1.85349e-13
1.92073e-13
1.98875e-13
2.05741e-13
2.1265e-13
2.19583e-13
2.26514e-13
2.33416e-13
2.40258e-13
2.47006e-13
2.53619e-13
2.60056e-13
2.66265e-13
2.72192e-13
2.77775e-13
2.82945e-13
2.87626e-13
2.91729e-13
2.9516e-13
2.97809e-13
2.99557e-13
3.00268e-13
2.99791e-13
2.97957e-13
2.94574e-13
2.8943e-13
2.8228e-13
2.72853e-13
2.60836e-13
2.45872e-13
2.27551e-13
2.05394e-13
1.78826e-13
1.47187e-13
1.09985e-13
6.67054e-14
1.16407e-14
-6.89452e-14
-1.13997e-13
1.57293e-14
1.45531e-14
1.35377e-14
1.3108e-14
1.30121e-14
1.31241e-14
1.33973e-14
1.38008e-14
1.4311e-14
1.49123e-14
1.5594e-14
1.63495e-14
1.71744e-14
1.80662e-14
1.90236e-14
2.00461e-14
2.11342e-14
2.22886e-14
2.35107e-14
2.4802e-14
2.61642e-14
2.75996e-14
2.91103e-14
3.06986e-14
3.23671e-14
3.41185e-14
3.59555e-14
3.78809e-14
3.98974e-14
4.20081e-14
4.42157e-14
4.65233e-14
4.8934e-14
5.14505e-14
5.40758e-14
5.6813e-14
5.96648e-14
6.26341e-14
6.57235e-14
6.89355e-14
7.22727e-14
7.57375e-14
7.93319e-14
8.30579e-14
8.69171e-14
9.09108e-14
9.50402e-14
9.9306e-14
1.03708e-13
1.08247e-13
1.12922e-13
1.17731e-13
1.22672e-13
1.27744e-13
1.32942e-13
1.38263e-13
1.43701e-13
1.4925e-13
1.54902e-13
1.60649e-13
1.66481e-13
1.72385e-13
1.78348e-13
1.84356e-13
1.90389e-13
1.96429e-13
2.02453e-13
2.08435e-13
2.14347e-13
2.20158e-13
2.2583e-13
2.31325e-13
2.36596e-13
2.41595e-13
2.46265e-13
2.50544e-13
2.54363e-13
2.57644e-13
2.60301e-13
2.62238e-13
2.63348e-13
2.63512e-13
2.62597e-13
2.60455e-13
2.56921e-13
2.51809e-13
2.44912e-13
2.35998e-13
2.24805e-13
2.11039e-13
1.94366e-13
1.74407e-13
1.50729e-13
1.2282e-13
9.01279e-14
5.23394e-14
8.96706e-15
-4.63826e-14
-1.25309e-13
-1.58209e-13
1.706e-14
1.59213e-14
1.49208e-14
1.44211e-14
1.42257e-14
1.42375e-14
1.44179e-14
1.4738e-14
1.51747e-14
1.57114e-14
1.63363e-14
1.70413e-14
1.78211e-14
1.86717e-14
1.95912e-14
2.05781e-14
2.16323e-14
2.27538e-14
2.39434e-14
2.52021e-14
2.65312e-14
2.79325e-14
2.94078e-14
3.09589e-14
3.25881e-14
3.42977e-14
3.60901e-14
3.79677e-14
3.99329e-14
4.19883e-14
4.41365e-14
4.638e-14
4.87215e-14
5.11634e-14
5.37084e-14
5.63589e-14
5.91173e-14
6.19861e-14
6.49672e-14
6.80629e-14
7.12751e-14
7.46058e-14
7.80563e-14
8.16281e-14
8.5322e-14
8.91388e-14
9.30791e-14
9.71428e-14
1.01329e-13
1.05638e-13
1.10067e-13
1.14615e-13
1.19278e-13
1.24053e-13
1.28937e-13
1.33923e-13
1.39006e-13
1.44178e-13
1.4943e-13
1.54754e-13
1.60137e-13
1.65566e-13
1.71028e-13
1.76504e-13
1.81976e-13
1.87424e-13
1.92822e-13
1.98144e-13
2.03361e-13
2.08439e-13
2.1334e-13
2.18022e-13
2.2244e-13
2.26541e-13
2.30269e-13
2.3356e-13
2.36342e-13
2.38537e-13
2.40059e-13
2.40809e-13
2.4068e-13
2.39554e-13
2.37298e-13
2.33763e-13
2.28788e-13
2.22189e-13
2.13765e-13
2.03291e-13
1.90515e-13
1.75157e-13
1.56905e-13
1.3541e-13
1.10281e-13
8.10641e-14
4.73008e-14
8.83645e-15
-3.46885e-14
-9.00904e-14
-1.67871e-13
-1.93822e-13
1.80492e-14
1.698e-14
1.60224e-14
1.54934e-14
1.52364e-14
1.5177e-14
1.52849e-14
1.55349e-14
1.59058e-14
1.63816e-14
1.69504e-14
1.76034e-14
1.83347e-14
1.91396e-14
2.00155e-14
2.09604e-14
2.1973e-14
2.30534e-14
2.42017e-14
2.54184e-14
2.67043e-14
2.80608e-14
2.94894e-14
3.09916e-14
3.25692e-14
3.42241e-14
3.59583e-14
3.7774e-14
3.96732e-14
4.1658e-14
4.37306e-14
4.58934e-14
4.81484e-14
5.04977e-14
5.29436e-14
5.5488e-14
5.81331e-14
6.08805e-14
6.3732e-14
6.66893e-14
6.97538e-14
7.29266e-14
7.62089e-14
7.96014e-14
8.31045e-14
8.67182e-14
9.04423e-14
9.42763e-14
9.82189e-14
1.02269e-13
1.06423e-13
1.10679e-13
1.15034e-13
1.19483e-13
1.24021e-13
1.28641e-13
1.33338e-13
1.38102e-13
1.42924e-13
1.47793e-13
1.52697e-13
1.57622e-13
1.62552e-13
1.6747e-13
1.72354e-13
1.77184e-13
1.81934e-13
1.86576e-13
1.9108e-13
1.9541e-13
1.99528e-13
2.03391e-13
2.06954e-13
2.10161e-13
2.12957e-13
2.15277e-13
2.17049e-13
2.18194e-13
2.18626e-13
2.18249e-13
2.16955e-13
2.14628e-13
2.11138e-13
2.0634e-13
2.00077e-13
1.92173e-13
1.82435e-13
1.7065e-13
1.56581e-13
1.39971e-13
1.20534e-13
9.79612e-14
7.19098e-14
4.19933e-14
7.84846e-15
-3.05017e-14
-7.32135e-14
-1.27713e-13
-2.06011e-13
-2.22355e-13
1.87999e-14
1.78048e-14
1.68994e-14
1.63651e-14
1.60726e-14
1.5964e-14
1.60164e-14
1.6209e-14
1.6523e-14
1.69435e-14
1.74592e-14
1.80615e-14
1.87441e-14
1.95019e-14
2.03317e-14
2.1231e-14
2.21984e-14
2.32332e-14
2.43353e-14
2.55046e-14
2.67416e-14
2.80473e-14
2.94228e-14
3.08692e-14
3.2388e-14
3.39807e-14
3.56491e-14
3.73948e-14
3.92196e-14
4.11253e-14
4.31135e-14
4.51863e-14
4.73454e-14
4.95925e-14
5.19293e-14
5.43574e-14
5.68785e-14
5.94939e-14
6.22049e-14
6.50124e-14
6.79176e-14
7.09211e-14
7.40234e-14
7.72247e-14
8.05249e-14
8.39233e-14
8.74192e-14
9.10112e-14
9.46976e-14
9.84762e-14
1.02344e-13
1.06297e-13
1.10332e-13
1.14443e-13
1.18624e-13
1.22869e-13
1.27169e-13
1.31516e-13
1.35899e-13
1.40306e-13
1.44725e-13
1.4914e-13
1.53536e-13
1.57892e-13
1.62189e-13
1.66404e-13
1.7051e-13
1.74478e-13
1.78278e-13
1.81874e-13
1.85227e-13
1.88293e-13
1.91026e-13
1.93372e-13
1.95274e-13
1.96666e-13
1.9748e-13
1.97637e-13
1.9705e-13
1.95626e-13
1.93261e-13
1.8984e-13
1.85237e-13
1.79315e-13
1.71922e-13
1.62893e-13
1.52045e-13
1.39179e-13
1.2408e-13
1.06513e-13
8.62258e-14
6.29487e-14
3.63934e-14
6.238e-15
-2.77913e-14
-6.54915e-14
-1.06783e-13
-1.59924e-13
-2.40571e-13
-2.45672e-13
1.93814e-14
1.84563e-14
1.76054e-14
1.708e-14
1.677e-14
1.66294e-14
1.66413e-14
1.67886e-14
1.70552e-14
1.74279e-14
1.78961e-14
1.84515e-14
1.90879e-14
1.98002e-14
2.05848e-14
2.14389e-14
2.23608e-14
2.33495e-14
2.44044e-14
2.5525e-14
2.67117e-14
2.7965e-14
2.92857e-14
3.06745e-14
3.21326e-14
3.36612e-14
3.52617e-14
3.69355e-14
3.86838e-14
4.05082e-14
4.24101e-14
4.43909e-14
4.64521e-14
4.85951e-14
5.0821e-14
5.31312e-14
5.55268e-14
5.80088e-14
6.05779e-14
6.32348e-14
6.59799e-14
6.88135e-14
7.17356e-14
7.47458e-14
7.78434e-14
8.10273e-14
8.42962e-14
8.7648e-14
9.10806e-14
9.45908e-14
9.81752e-14
1.0183e-13
1.05549e-13
1.09328e-13
1.13159e-13
1.17036e-13
1.20948e-13
1.24888e-13
1.28844e-13
1.32802e-13
1.3675e-13
1.40672e-13
1.44551e-13
1.48367e-13
1.52098e-13
1.55722e-13
1.59211e-13
1.62536e-13
1.65666e-13
1.68565e-13
1.71193e-13
1.73507e-13
1.75459e-13
1.76998e-13
1.78066e-13
1.78598e-13
1.78526e-13
1.77773e-13
1.76256e-13
1.73882e-13
1.70551e-13
1.66153e-13
1.60567e-13
1.53663e-13
1.45296e-13
1.35313e-13
1.23543e-13
1.09804e-13
9.39018e-14
7.56261e-14
5.4757e-14
3.1066e-14
4.31528e-15
-2.57565e-14
-5.93447e-14
-9.60838e-14
-1.35661e-13
-1.87147e-13
-2.7024e-13
-2.65353e-13
1.98298e-14
1.89687e-14
1.81698e-14
1.7661e-14
1.7345e-14
1.71844e-14
1.71669e-14
1.72787e-14
1.75061e-14
1.78374e-14
1.82632e-14
1.87756e-14
1.93687e-14
2.00373e-14
2.07778e-14
2.15874e-14
2.2464e-14
2.34064e-14
2.44135e-14
2.54848e-14
2.66202e-14
2.782e-14
2.90846e-14
3.04145e-14
3.18105e-14
3.32736e-14
3.48047e-14
3.64051e-14
3.80754e-14
3.98171e-14
4.16311e-14
4.35186e-14
4.54807e-14
4.75183e-14
4.96322e-14
5.18236e-14
5.40928e-14
5.64408e-14
5.88676e-14
6.13735e-14
6.39587e-14
6.66227e-14
6.93652e-14
7.21851e-14
7.50815e-14
7.80528e-14
8.10968e-14
8.42113e-14
8.73932e-14
9.0639e-14
9.39448e-14
9.73055e-14
1.00716e-13
1.04169e-13
1.07659e-13
1.11176e-13
1.14712e-13
1.18256e-13
1.21796e-13
1.2532e-13
1.28813e-13
1.32259e-13
1.3564e-13
1.38936e-13
1.42125e-13
1.45184e-13
1.48085e-13
1.50798e-13
1.53292e-13
1.55531e-13
1.57476e-13
1.59083e-13
1.60306e-13
1.61092e-13
1.61384e-13
1.61122e-13
1.60236e-13
1.58652e-13
1.56289e-13
1.53059e-13
1.48864e-13
1.43601e-13
1.37154e-13
1.29401e-13
1.20206e-13
1.09426e-13
9.69055e-14
8.24796e-14
6.59729e-14
4.72016e-14
2.59764e-14
2.10684e-15
-2.45982e-14
-5.43457e-14
-8.72624e-14
-1.22839e-13
-1.60515e-13
-2.09874e-13
-2.94123e-13
-2.81765e-13
2.01675e-14
1.93642e-14
1.86138e-14
1.81248e-14
1.781e-14
1.76378e-14
1.75991e-14
1.76829e-14
1.78775e-14
1.8173e-14
1.85607e-14
1.90335e-14
1.95857e-14
2.02126e-14
2.09103e-14
2.1676e-14
2.25075e-14
2.34033e-14
2.43623e-14
2.53836e-14
2.6467e-14
2.76122e-14
2.88196e-14
3.00894e-14
3.1422e-14
3.28181e-14
3.42786e-14
3.58038e-14
3.73949e-14
3.90525e-14
4.07772e-14
4.257e-14
4.44317e-14
4.63627e-14
4.83637e-14
5.04351e-14
5.25773e-14
5.47905e-14
5.70746e-14
5.94294e-14
6.18545e-14
6.43493e-14
6.69127e-14
6.95435e-14
7.224e-14
7.50002e-14
7.78216e-14
8.07013e-14
8.36358e-14
8.66211e-14
8.96526e-14
9.2725e-14
9.58322e-14
9.89673e-14
1.02122e-13
1.05289e-13
1.08458e-13
1.11617e-13
1.14754e-13
1.17857e-13
1.2091e-13
1.23897e-13
1.26799e-13
1.29597e-13
1.32267e-13
1.34786e-13
1.37126e-13
1.39258e-13
1.4115e-13
1.42766e-13
1.44068e-13
1.45012e-13
1.45552e-13
1.45638e-13
1.45214e-13
1.44219e-13
1.42587e-13
1.40247e-13
1.37121e-13
1.33123e-13
1.28161e-13
1.22138e-13
1.14944e-13
1.06464e-13
9.65736e-14
8.51408e-14
7.2024e-14
5.70747e-14
4.01372e-14
2.10517e-14
-3.4304e-16
-2.42035e-14
-5.06812e-14
-7.9938e-14
-1.12047e-13
-1.46393e-13
-1.82234e-13
-2.29475e-13
-3.13466e-13
-2.96278e-13
2.04105e-14
1.96593e-14
1.89539e-14
1.84863e-14
1.81771e-14
1.79989e-14
1.79451e-14
1.80067e-14
1.81739e-14
1.84379e-14
1.87913e-14
1.92277e-14
1.97415e-14
2.03282e-14
2.09844e-14
2.17071e-14
2.2494e-14
2.33433e-14
2.4254e-14
2.52249e-14
2.62554e-14
2.73454e-14
2.84946e-14
2.97034e-14
3.09716e-14
3.22998e-14
3.36883e-14
3.51375e-14
3.66481e-14
3.82204e-14
3.9855e-14
4.15522e-14
4.33125e-14
4.51362e-14
4.70235e-14
4.89745e-14
5.09893e-14
5.30675e-14
5.52088e-14
5.74128e-14
5.96784e-14
6.20047e-14
6.43902e-14
6.68332e-14
6.93317e-14
7.18831e-14
7.44845e-14
7.71327e-14
7.98236e-14
8.25528e-14
8.53152e-14
8.81049e-14
9.09155e-14
9.37396e-14
9.6569e-14
9.93945e-14
1.02206e-13
1.04992e-13
1.0774e-13
1.10436e-13
1.13066e-13
1.15611e-13
1.18053e-13
1.20373e-13
1.22547e-13
1.24552e-13
1.2636e-13
1.27941e-13
1.29264e-13
1.30294e-13
1.30992e-13
1.31317e-13
1.31223e-13
1.3066e-13
1.29575e-13
1.27908e-13
1.25597e-13
1.22573e-13
1.1876e-13
1.14079e-13
1.08442e-13
1.01756e-13
9.39209e-14
8.48283e-14
7.43643e-14
6.24077e-14
4.88311e-14
3.35015e-14
1.6282e-14
-2.96598e-15
-2.43788e-14
-4.80847e-14
-7.42036e-14
-1.02864e-13
-1.34105e-13
-1.67247e-13
-2.01471e-13
-2.47063e-13
-3.30845e-13
-3.10142e-13
2.05707e-14
1.98671e-14
1.92035e-14
1.87578e-14
1.84569e-14
1.82767e-14
1.82122e-14
1.8256e-14
1.84e-14
1.86365e-14
1.89589e-14
1.93614e-14
1.9839e-14
2.03874e-14
2.10034e-14
2.16838e-14
2.24265e-14
2.32297e-14
2.40921e-14
2.50124e-14
2.59899e-14
2.70241e-14
2.81147e-14
2.92616e-14
3.04648e-14
3.17242e-14
3.304e-14
3.44124e-14
3.58418e-14
3.73282e-14
3.88719e-14
4.04729e-14
4.21314e-14
4.38473e-14
4.56207e-14
4.74513e-14
4.93386e-14
5.12822e-14
5.32814e-14
5.53351e-14
5.74422e-14
5.96013e-14
6.18105e-14
6.40678e-14
6.63706e-14
6.87161e-14
7.1101e-14
7.35215e-14
7.59732e-14
7.84513e-14
8.09503e-14
8.34638e-14
8.59851e-14
8.85063e-14
9.10189e-14
9.35132e-14
9.59789e-14
9.84042e-14
1.00776e-13
1.03081e-13
1.05302e-13
1.07424e-13
1.09427e-13
1.1129e-13
1.12992e-13
1.14509e-13
1.15812e-13
1.16873e-13
1.17661e-13
1.18141e-13
1.18276e-13
1.18024e-13
1.17341e-13
1.1618e-13
1.14488e-13
1.1221e-13
1.09283e-13
1.05643e-13
1.01218e-13
9.59334e-14
8.97062e-14
8.24494e-14
7.40698e-14
6.44683e-14
5.354e-14
4.11751e-14
2.72589e-14
1.16732e-14
-5.70203e-15
-2.49865e-14
-4.62957e-14
-6.97346e-14
-9.53991e-14
-1.23395e-13
-1.53738e-13
-1.85715e-13
-2.18474e-13
-2.62685e-13
-3.46282e-13
-3.22131e-13
2.06575e-14
1.99978e-14
1.93731e-14
1.89493e-14
1.86585e-14
1.84789e-14
1.84069e-14
1.84367e-14
1.85608e-14
1.87728e-14
1.90672e-14
1.94382e-14
1.98816e-14
2.03933e-14
2.09702e-14
2.16094e-14
2.23085e-14
2.3066e-14
2.38803e-14
2.475e-14
2.56743e-14
2.66525e-14
2.76842e-14
2.87689e-14
2.99065e-14
3.10966e-14
3.23393e-14
3.36345e-14
3.49822e-14
3.63823e-14
3.78347e-14
3.93393e-14
4.08958e-14
4.25041e-14
4.41637e-14
4.58741e-14
4.76344e-14
4.94441e-14
5.1302e-14
5.32067e-14
5.51568e-14
5.71504e-14
5.91855e-14
6.12595e-14
6.33696e-14
6.55125e-14
6.76846e-14
6.98817e-14
7.20992e-14
7.43318e-14
7.65735e-14
7.88177e-14
8.10574e-14
8.32843e-14
8.54897e-14
8.76634e-14
8.97949e-14
9.18721e-14
9.38819e-14
9.58101e-14
9.76409e-14
9.93572e-14
1.0094e-13
1.0237e-13
1.03623e-13
1.04677e-13
1.05504e-13
1.06076e-13
1.06361e-13
1.06327e-13
1.05936e-13
1.0515e-13
1.03924e-13
1.02213e-13
9.99677e-14
9.7133e-14
9.36515e-14
8.94608e-14
8.44941e-14
7.86798e-14
7.19417e-14
6.41985e-14
5.5364e-14
4.53474e-14
3.40533e-14
2.13822e-14
7.23163e-15
-8.50324e-15
-2.59276e-14
-4.51445e-14
-6.6252e-14
-8.93366e-14
-1.14476e-13
-1.41759e-13
-1.71188e-13
-2.02023e-13
-2.33395e-13
-2.76279e-13
-3.59404e-13
-3.31876e-13
2.06787e-14
2.00599e-14
1.94719e-14
1.90697e-14
1.87899e-14
1.86129e-14
1.8536e-14
1.85541e-14
1.86612e-14
1.88514e-14
1.91199e-14
1.94616e-14
1.98726e-14
2.0349e-14
2.08881e-14
2.1487e-14
2.21433e-14
2.28555e-14
2.3622e-14
2.44414e-14
2.53125e-14
2.62347e-14
2.72073e-14
2.82297e-14
2.93014e-14
3.04221e-14
3.15915e-14
3.28092e-14
3.4075e-14
3.53888e-14
3.67499e-14
3.81582e-14
3.9613e-14
4.11139e-14
4.26601e-14
4.4251e-14
4.58853e-14
4.75621e-14
4.928e-14
5.10373e-14
5.28321e-14
5.46626e-14
5.6526e-14
5.84196e-14
6.03402e-14
6.22843e-14
6.42479e-14
6.62264e-14
6.8215e-14
7.0208e-14
7.21991e-14
7.41815e-14
7.61477e-14
7.80893e-14
7.99972e-14
8.18613e-14
8.36705e-14
8.54126e-14
8.70746e-14
8.86419e-14
9.0099e-14
9.14286e-14
9.26121e-14
9.36291e-14
9.44579e-14
9.50743e-14
9.54527e-14
9.5565e-14
9.53808e-14
9.48674e-14
9.39892e-14
9.27082e-14
9.09832e-14
8.87698e-14
8.60203e-14
8.26835e-14
7.87045e-14
7.40245e-14
6.85809e-14
6.23067e-14
5.51309e-14
4.69786e-14
3.77705e-14
2.74235e-14
1.58512e-14
2.96408e-15
-1.13295e-14
-2.71221e-14
-4.45057e-14
-6.35695e-14
-8.43967e-14
-1.07059e-13
-1.3162e-13
-1.58156e-13
-1.86661e-13
-2.16375e-13
-2.46414e-13
-2.87988e-13
-3.70424e-13
-3.39803e-13
2.06409e-14
2.00604e-14
1.95074e-14
1.91263e-14
1.88582e-14
1.86851e-14
1.8605e-14
1.86136e-14
1.87058e-14
1.88764e-14
1.9121e-14
1.94353e-14
1.98154e-14
2.0258e-14
2.07604e-14
2.13199e-14
2.19343e-14
2.26019e-14
2.3321e-14
2.40903e-14
2.49085e-14
2.57749e-14
2.66884e-14
2.76485e-14
2.86544e-14
2.97056e-14
3.08016e-14
3.1942e-14
3.31262e-14
3.43537e-14
3.56239e-14
3.69361e-14
3.82897e-14
3.96838e-14
4.11175e-14
4.25898e-14
4.40994e-14
4.56447e-14
4.72242e-14
4.88359e-14
5.04778e-14
5.21475e-14
5.38421e-14
5.55586e-14
5.72935e-14
5.9043e-14
6.08026e-14
6.25677e-14
6.43331e-14
6.60928e-14
6.78404e-14
6.95686e-14
7.12699e-14
7.29356e-14
7.45563e-14
7.61217e-14
7.76208e-14
7.90413e-14
8.03698e-14
8.15921e-14
8.26924e-14
8.36537e-14
8.44576e-14
8.50839e-14
8.55112e-14
8.57161e-14
8.56731e-14
8.53551e-14
8.47327e-14
8.3774e-14
8.24449e-14
8.07088e-14
7.85263e-14
7.58549e-14
7.26495e-14
6.88615e-14
6.44392e-14
5.93275e-14
5.34678e-14
4.67977e-14
3.92517e-14
3.07607e-14
2.12523e-14
1.06508e-14
-1.12204e-15
-1.41464e-14
-2.85039e-14
-4.42762e-14
-6.15439e-14
-8.03841e-14
-1.00868e-13
-1.23055e-13
-1.46997e-13
-1.72764e-13
-2.0034e-13
-2.28951e-13
-2.57703e-13
-2.97985e-13
-3.79583e-13
-3.46195e-13
2.05502e-14
2.0006e-14
1.94863e-14
1.91259e-14
1.88698e-14
1.87014e-14
1.86194e-14
1.86203e-14
1.86993e-14
1.88519e-14
1.90743e-14
1.93627e-14
1.97135e-14
2.01237e-14
2.05906e-14
2.11116e-14
2.16848e-14
2.23085e-14
2.29808e-14
2.37005e-14
2.44662e-14
2.52769e-14
2.61316e-14
2.70296e-14
2.797e-14
2.8952e-14
2.9975e-14
3.10382e-14
3.21411e-14
3.32828e-14
3.44625e-14
3.56795e-14
3.69326e-14
3.82209e-14
3.95432e-14
4.08982e-14
4.22844e-14
4.36999e-14
4.5143e-14
4.66115e-14
4.8103e-14
4.96148e-14
5.11438e-14
5.26868e-14
5.424e-14
5.57993e-14
5.73599e-14
5.89171e-14
6.04654e-14
6.19985e-14
6.35097e-14
6.49919e-14
6.64371e-14
6.78364e-14
6.91802e-14
7.04585e-14
7.16598e-14
7.2772e-14
7.37817e-14
7.46746e-14
7.54353e-14
7.60467e-14
7.64908e-14
7.67479e-14
7.67969e-14
7.66149e-14
7.61773e-14
7.54577e-14
7.44276e-14
7.30565e-14
7.13117e-14
6.9158e-14
6.65579e-14
6.34713e-14
5.98551e-14
5.56639e-14
5.08491e-14
4.53592e-14
3.91396e-14
3.21327e-14
2.42781e-14
1.55124e-14
5.76952e-15
-5.01908e-15
-1.69238e-14
-3.00165e-14
-4.43698e-14
-6.00557e-14
-7.71448e-14
-9.57039e-14
-1.15794e-13
-1.37465e-13
-1.6076e-13
-1.85741e-13
-2.12388e-13
-2.39916e-13
-2.67421e-13
-3.06429e-13
-3.87071e-13
-3.51232e-13
2.0412e-14
1.99025e-14
1.94145e-14
1.90743e-14
1.88303e-14
1.86673e-14
1.85844e-14
1.85789e-14
1.86461e-14
1.87823e-14
1.8984e-14
1.92478e-14
1.95706e-14
1.99495e-14
2.03819e-14
2.08655e-14
2.13984e-14
2.19789e-14
2.2605e-14
2.32756e-14
2.39893e-14
2.47449e-14
2.55412e-14
2.63776e-14
2.72528e-14
2.8166e-14
2.91164e-14
3.01031e-14
3.11253e-14
3.21818e-14
3.32719e-14
3.43944e-14
3.55481e-14
3.67318e-14
3.7944e-14
3.91833e-14
4.04479e-14
4.17356e-14
4.30446e-14
4.43724e-14
4.57163e-14
4.70734e-14
4.84404e-14
4.98137e-14
5.11895e-14
5.25633e-14
5.39303e-14
5.52854e-14
5.66229e-14
5.79363e-14
5.92188e-14
6.04632e-14
6.16611e-14
6.28038e-14
6.38815e-14
6.48841e-14
6.58001e-14
6.66174e-14
6.73229e-14
6.79022e-14
6.83401e-14
6.86198e-14
6.87238e-14
6.86328e-14
6.8326e-14
6.77815e-14
6.69751e-14
6.58816e-14
6.44736e-14
6.27218e-14
6.05949e-14
5.80594e-14
5.50798e-14
5.16181e-14
4.7634e-14
4.30845e-14
3.79246e-14
3.21061e-14
2.55785e-14
1.82888e-14
1.01815e-14
1.19874e-15
-8.71956e-15
-1.96353e-14
-3.16118e-14
-4.47132e-14
-5.90039e-14
-7.45476e-14
-9.1406e-14
-1.09637e-13
-1.29294e-13
-1.50417e-13
-1.73044e-13
-1.97231e-13
-2.22953e-13
-2.49418e-13
-2.75714e-13
-3.13467e-13
-3.93053e-13
-3.55055e-13
2.02313e-14
1.97551e-14
1.92976e-14
1.89769e-14
1.87449e-14
1.85878e-14
1.85049e-14
1.84937e-14
1.85503e-14
1.86715e-14
1.88537e-14
1.90943e-14
1.93902e-14
1.97389e-14
2.01379e-14
2.0585e-14
2.10785e-14
2.16165e-14
2.21972e-14
2.28195e-14
2.34817e-14
2.41827e-14
2.49213e-14
2.56965e-14
2.65072e-14
2.73523e-14
2.82308e-14
2.91416e-14
3.00839e-14
3.10563e-14
3.20577e-14
3.30869e-14
3.41425e-14
3.5223e-14
3.63268e-14
3.74522e-14
3.85971e-14
3.97594e-14
4.09368e-14
4.21267e-14
4.3326e-14
4.45318e-14
4.57406e-14
4.69485e-14
4.81515e-14
4.93448e-14
5.05237e-14
5.16826e-14
5.28158e-14
5.39167e-14
5.49784e-14
5.59933e-14
5.69532e-14
5.78491e-14
5.86714e-14
5.94098e-14
6.00531e-14
6.05891e-14
6.10047e-14
6.1286e-14
6.14178e-14
6.13839e-14
6.11671e-14
6.07485e-14
6.01081e-14
5.92245e-14
5.80746e-14
5.66341e-14
5.48766e-14
5.27743e-14
5.02974e-14
4.74143e-14
4.40911e-14
4.02923e-14
3.59801e-14
3.11145e-14
2.56533e-14
1.9552e-14
1.27641e-14
5.24074e-15
-3.0686e-15
-1.22167e-14
-2.22578e-14
-3.32479e-14
-4.52436e-14
-5.83022e-14
-7.24807e-14
-8.78352e-14
-1.0442e-13
-1.22286e-13
-1.41477e-13
-1.6203e-13
-1.83974e-13
-2.07363e-13
-2.32167e-13
-2.5759e-13
-2.82715e-13
-3.19232e-13
-3.97679e-13
-3.57788e-13
2.0013e-14
1.95685e-14
1.91404e-14
1.88387e-14
1.86187e-14
1.84678e-14
1.83854e-14
1.83693e-14
1.84162e-14
1.85233e-14
1.86873e-14
1.89057e-14
1.91758e-14
1.94953e-14
1.9862e-14
2.02736e-14
2.07285e-14
2.12248e-14
2.1761e-14
2.23357e-14
2.29473e-14
2.35944e-14
2.42759e-14
2.49908e-14
2.57377e-14
2.65155e-14
2.73229e-14
2.81589e-14
2.90222e-14
2.99115e-14
3.08255e-14
3.17627e-14
3.27216e-14
3.37007e-14
3.46979e-14
3.57114e-14
3.6739e-14
3.77784e-14
3.88269e-14
3.98818e-14
4.094e-14
4.19983e-14
4.30528e-14
4.40998e-14
4.51347e-14
4.61529e-14
4.71493e-14
4.81184e-14
4.9054e-14
4.99497e-14
5.07983e-14
5.15924e-14
5.23235e-14
5.29827e-14
5.35603e-14
5.40461e-14
5.44291e-14
5.46971e-14
5.48373e-14
5.48359e-14
5.46782e-14
5.43485e-14
5.38296e-14
5.31034e-14
5.21508e-14
5.0951e-14
4.94819e-14
4.772e-14
4.56403e-14
4.32165e-14
4.04201e-14
3.72215e-14
3.35888e-14
2.94886e-14
2.48857e-14
1.97427e-14
1.40208e-14
7.67879e-15
6.73952e-16
-7.03831e-15
-1.55041e-14
-2.47712e-14
-3.48888e-14
-4.59069e-14
-5.78761e-14
-7.08476e-14
-8.48718e-14
-9.99982e-14
-1.16274e-13
-1.33744e-13
-1.52447e-13
-1.72412e-13
-1.93665e-13
-2.16256e-13
-2.40153e-13
-2.64556e-13
-2.88546e-13
-3.23849e-13
-4.01084e-13
-3.59541e-13
1.97612e-14
1.93473e-14
1.89475e-14
1.86643e-14
1.84562e-14
1.83116e-14
1.823e-14
1.82097e-14
1.82479e-14
1.83416e-14
1.84885e-14
1.86857e-14
1.89311e-14
1.92223e-14
1.95575e-14
1.99346e-14
2.03519e-14
2.08075e-14
2.13e-14
2.18278e-14
2.23896e-14
2.29837e-14
2.36091e-14
2.42645e-14
2.49486e-14
2.56599e-14
2.63973e-14
2.71595e-14
2.79451e-14
2.87526e-14
2.95806e-14
3.04274e-14
3.12915e-14
3.21709e-14
3.30636e-14
3.39675e-14
3.48802e-14
3.57993e-14
3.6722e-14
3.76453e-14
3.85659e-14
3.94805e-14
4.0385e-14
4.12756e-14
4.21475e-14
4.2996e-14
4.38159e-14
4.46014e-14
4.53464e-14
4.60443e-14
4.6688e-14
4.72699e-14
4.77815e-14
4.82139e-14
4.85576e-14
4.88025e-14
4.89375e-14
4.89507e-14
4.88297e-14
4.85608e-14
4.81298e-14
4.75212e-14
4.67186e-14
4.57046e-14
4.44604e-14
4.29663e-14
4.12012e-14
3.91426e-14
3.67669e-14
3.40489e-14
3.09621e-14
2.74784e-14
2.35679e-14
1.91995e-14
1.43405e-14
8.95633e-15
3.01097e-15
-3.53328e-15
-1.07155e-14
-1.85764e-14
-2.71578e-14
-3.65028e-14
-4.66558e-14
-5.76614e-14
-6.95649e-14
-8.24116e-14
-9.62461e-14
-1.11112e-13
-1.27051e-13
-1.44102e-13
-1.62298e-13
-1.81664e-13
-2.02222e-13
-2.24019e-13
-2.47022e-13
-2.70427e-13
-2.93319e-13
-3.27428e-13
-4.03388e-13
-3.60414e-13
1.94803e-14
1.90958e-14
1.87233e-14
1.84582e-14
1.82617e-14
1.81232e-14
1.80428e-14
1.8019e-14
1.8049e-14
1.81303e-14
1.82607e-14
1.84378e-14
1.86594e-14
1.89234e-14
1.92281e-14
1.95714e-14
1.9952e-14
2.0368e-14
2.08176e-14
2.12996e-14
2.18124e-14
2.23546e-14
2.29248e-14
2.35217e-14
2.41438e-14
2.479e-14
2.54585e-14
2.61482e-14
2.68574e-14
2.75847e-14
2.83282e-14
2.90865e-14
2.98575e-14
3.06393e-14
3.14298e-14
3.22265e-14
3.30271e-14
3.38289e-14
3.46289e-14
3.5424e-14
3.62108e-14
3.69857e-14
3.77447e-14
3.84836e-14
3.91978e-14
3.98822e-14
4.05315e-14
4.114e-14
4.17014e-14
4.22091e-14
4.2656e-14
4.30342e-14
4.33356e-14
4.35513e-14
4.36719e-14
4.36872e-14
4.35865e-14
4.33581e-14
4.29897e-14
4.24682e-14
4.17795e-14
4.0909e-14
3.98405e-14
3.85574e-14
3.70417e-14
3.52745e-14
3.32356e-14
3.09039e-14
2.82568e-14
2.52708e-14
2.19207e-14
1.81803e-14
1.40217e-14
9.41617e-15
4.33319e-15
-1.25908e-15
-7.3937e-15
-1.41051e-14
-2.14291e-14
-2.94024e-14
-3.8063e-14
-4.74496e-14
-5.76019e-14
-6.856e-14
-8.03639e-14
-9.30539e-14
-1.06669e-13
-1.21249e-13
-1.36828e-13
-1.53442e-13
-1.71118e-13
-1.89879e-13
-2.09743e-13
-2.30753e-13
-2.52875e-13
-2.75308e-13
-2.97135e-13
-3.30073e-13
-4.04706e-13
-3.60498e-13
1.91739e-14
1.88178e-14
1.84717e-14
1.82241e-14
1.80391e-14
1.7907e-14
1.7828e-14
1.7801e-14
1.78233e-14
1.78929e-14
1.80076e-14
1.81653e-14
1.8364e-14
1.86018e-14
1.88769e-14
1.91876e-14
1.95324e-14
1.99096e-14
2.03174e-14
2.07545e-14
2.12194e-14
2.17106e-14
2.22267e-14
2.27662e-14
2.33277e-14
2.39098e-14
2.45109e-14
2.51294e-14
2.57638e-14
2.64125e-14
2.70735e-14
2.7745e-14
2.84251e-14
2.91115e-14
2.98022e-14
3.04944e-14
3.11857e-14
3.18732e-14
3.25539e-14
3.32245e-14
3.38814e-14
3.45209e-14
3.5139e-14
3.57312e-14
3.62928e-14
3.68188e-14
3.73038e-14
3.77418e-14
3.81268e-14
3.84519e-14
3.87099e-14
3.88933e-14
3.89939e-14
3.90029e-14
3.89109e-14
3.8708e-14
3.83836e-14
3.79263e-14
3.73242e-14
3.65645e-14
3.56336e-14
3.45173e-14
3.32002e-14
3.16662e-14
2.98981e-14
2.7878e-14
2.55867e-14
2.30042e-14
2.01092e-14
1.68795e-14
1.32917e-14
9.32134e-15
4.94246e-15
1.28306e-16
-5.14908e-15
-1.0919e-14
-1.72117e-14
-2.40586e-14
-3.14922e-14
-3.95456e-14
-4.8253e-14
-5.76492e-14
-6.77697e-14
-7.86499e-14
-9.03256e-14
-1.02832e-13
-1.16204e-13
-1.30476e-13
-1.45679e-13
-1.61842e-13
-1.78991e-13
-1.97144e-13
-2.16316e-13
-2.36549e-13
-2.57807e-13
-2.79291e-13
-3.0009e-13
-3.31879e-13
-4.0514e-13
-3.59878e-13
1.88457e-14
1.85172e-14
1.81968e-14
1.79662e-14
1.77922e-14
1.76665e-14
1.75892e-14
1.75592e-14
1.75745e-14
1.76329e-14
1.77326e-14
1.78717e-14
1.80483e-14
1.82608e-14
1.85074e-14
1.87864e-14
1.90963e-14
1.94357e-14
1.98027e-14
2.0196e-14
2.06141e-14
2.10554e-14
2.15186e-14
2.2002e-14
2.25041e-14
2.30235e-14
2.35586e-14
2.41077e-14
2.46689e-14
2.52406e-14
2.5821e-14
2.64079e-14
2.69993e-14
2.75928e-14
2.81862e-14
2.87768e-14
2.93618e-14
2.99383e-14
3.05032e-14
3.10529e-14
3.15841e-14
3.20926e-14
3.25744e-14
3.3025e-14
3.34395e-14
3.3813e-14
3.41398e-14
3.4414e-14
3.46296e-14
3.47797e-14
3.48572e-14
3.48545e-14
3.47635e-14
3.45756e-14
3.42815e-14
3.38715e-14
3.33353e-14
3.26618e-14
3.18392e-14
3.08554e-14
2.96972e-14
2.83508e-14
2.68016e-14
2.50341e-14
2.3032e-14
2.07783e-14
1.82548e-14
1.54426e-14
1.23217e-14
8.87149e-15
5.06999e-15
8.94423e-16
-3.67915e-15
-8.67536e-15
-1.412e-14
-2.00399e-14
-2.64624e-14
-3.34162e-14
-4.09305e-14
-4.90353e-14
-5.77611e-14
-6.7139e-14
-7.72005e-14
-8.79771e-14
-9.95004e-14
-1.11802e-13
-1.24911e-13
-1.38858e-13
-1.53671e-13
-1.69375e-13
-1.85993e-13
-2.03538e-13
-2.22025e-13
-2.41492e-13
-2.61905e-13
-2.82466e-13
-3.02269e-13
-3.32935e-13
-4.04787e-13
-3.58633e-13
1.84996e-14
1.81977e-14
1.7902e-14
1.76878e-14
1.75248e-14
1.74053e-14
1.73298e-14
1.72972e-14
1.73058e-14
1.73536e-14
1.7439e-14
1.75602e-14
1.77156e-14
1.79036e-14
1.81226e-14
1.83708e-14
1.8647e-14
1.89495e-14
1.92768e-14
1.96275e-14
1.99999e-14
2.03926e-14
2.0804e-14
2.12327e-14
2.16769e-14
2.21352e-14
2.26058e-14
2.3087e-14
2.35769e-14
2.40738e-14
2.45755e-14
2.508e-14
2.5585e-14
2.60882e-14
2.6587e-14
2.70789e-14
2.75608e-14
2.80298e-14
2.84824e-14
2.89154e-14
2.93249e-14
2.97069e-14
3.00573e-14
3.03713e-14
3.06443e-14
3.08711e-14
3.1046e-14
3.11633e-14
3.12167e-14
3.11994e-14
3.11044e-14
3.09243e-14
3.06508e-14
3.02757e-14
2.97899e-14
2.91838e-14
2.84473e-14
2.75698e-14
2.65397e-14
2.53455e-14
2.39744e-14
2.24131e-14
2.06476e-14
1.86634e-14
1.64448e-14
1.39758e-14
1.12392e-14
8.21732e-15
4.8914e-15
1.24212e-15
-2.7509e-15
-7.1086e-15
-1.18531e-14
-1.70071e-14
-2.25943e-14
-2.86388e-14
-3.51657e-14
-4.22006e-14
-4.97701e-14
-5.79008e-14
-6.66201e-14
-7.59556e-14
-8.5935e-14
-9.65862e-14
-1.07937e-13
-1.20015e-13
-1.32846e-13
-1.46456e-13
-1.60871e-13
-1.76111e-13
-1.92196e-13
-2.09138e-13
-2.26948e-13
-2.45664e-13
-2.65249e-13
-2.84913e-13
-3.03755e-13
-3.33321e-13
-4.03738e-13
-3.56839e-13
1.81388e-14
1.78626e-14
1.75908e-14
1.73926e-14
1.72403e-14
1.7127e-14
1.70533e-14
1.70183e-14
1.70205e-14
1.70582e-14
1.713e-14
1.72341e-14
1.73691e-14
1.75334e-14
1.77256e-14
1.79441e-14
1.81876e-14
1.84544e-14
1.87431e-14
1.90522e-14
1.93802e-14
1.97255e-14
2.00866e-14
2.04619e-14
2.08497e-14
2.12485e-14
2.16564e-14
2.20716e-14
2.24921e-14
2.29161e-14
2.33413e-14
2.37658e-14
2.4187e-14
2.46025e-14
2.50097e-14
2.54059e-14
2.5788e-14
2.6153e-14
2.64971e-14
2.68172e-14
2.71094e-14