/*--------------------------------*- C++ -*----------------------------------*\
  =========                 |
  \\      /  F ield         | OpenFOAM: The Open Source CFD Toolbox
   \\    /   O peration     | Website:  https://openfoam.org
    \\  /    A nd           | Version:  11
     \\/     M anipulation  |
\*---------------------------------------------------------------------------*/
FoamFile
{
    format      ascii;
    class       volVectorField;
    location    "814";
    object      U;
}
// * * * * * * * * * * * * * * * * * * * * * * * * * * * * * * * * * * * * * //

dimensions      [0 1 -1 0 0 0 0];

internalField   nonuniform List<vector> 
10000
(
(0.005 -6.14204e-09 0)
(0.005 -1.63768e-08 0)
(0.00499999 -2.58129e-08 0)
(0.00499999 -3.49529e-08 0)
(0.00499999 -4.41178e-08 0)
(0.00499998 -5.35437e-08 0)
(0.00499998 -6.34096e-08 0)
(0.00499997 -7.38636e-08 0)
(0.00499997 -8.50358e-08 0)
(0.00499996 -9.70472e-08 0)
(0.00499995 -1.10014e-07 0)
(0.00499994 -1.24053e-07 0)
(0.00499993 -1.3928e-07 0)
(0.00499992 -1.55816e-07 0)
(0.00499991 -1.73785e-07 0)
(0.00499989 -1.93316e-07 0)
(0.00499988 -2.14545e-07 0)
(0.00499986 -2.37614e-07 0)
(0.00499985 -2.62672e-07 0)
(0.00499983 -2.89877e-07 0)
(0.00499981 -3.19396e-07 0)
(0.00499979 -3.51402e-07 0)
(0.00499976 -3.86082e-07 0)
(0.00499974 -4.2363e-07 0)
(0.00499971 -4.64252e-07 0)
(0.00499968 -5.08163e-07 0)
(0.00499965 -5.55594e-07 0)
(0.00499961 -6.06784e-07 0)
(0.00499957 -6.61987e-07 0)
(0.00499953 -7.21469e-07 0)
(0.00499949 -7.8551e-07 0)
(0.00499944 -8.54403e-07 0)
(0.00499939 -9.28457e-07 0)
(0.00499934 -1.008e-06 0)
(0.00499928 -1.09336e-06 0)
(0.00499922 -1.1849e-06 0)
(0.00499916 -1.28299e-06 0)
(0.00499909 -1.38801e-06 0)
(0.00499901 -1.50037e-06 0)
(0.00499893 -1.6205e-06 0)
(0.00499885 -1.74883e-06 0)
(0.00499876 -1.88582e-06 0)
(0.00499866 -2.03194e-06 0)
(0.00499856 -2.18768e-06 0)
(0.00499845 -2.35357e-06 0)
(0.00499834 -2.53013e-06 0)
(0.00499822 -2.71791e-06 0)
(0.00499809 -2.91747e-06 0)
(0.00499795 -3.12941e-06 0)
(0.00499781 -3.35433e-06 0)
(0.00499766 -3.59286e-06 0)
(0.0049975 -3.84563e-06 0)
(0.00499732 -4.1133e-06 0)
(0.00499714 -4.39654e-06 0)
(0.00499695 -4.69606e-06 0)
(0.00499675 -5.01255e-06 0)
(0.00499654 -5.34674e-06 0)
(0.00499632 -5.69935e-06 0)
(0.00499609 -6.07113e-06 0)
(0.00499584 -6.46284e-06 0)
(0.00499558 -6.87523e-06 0)
(0.00499531 -7.30908e-06 0)
(0.00499503 -7.76515e-06 0)
(0.00499473 -8.24421e-06 0)
(0.00499442 -8.74702e-06 0)
(0.00499409 -9.27435e-06 0)
(0.00499375 -9.82694e-06 0)
(0.00499339 -1.04055e-05 0)
(0.00499302 -1.10108e-05 0)
(0.00499263 -1.16434e-05 0)
(0.00499223 -1.2304e-05 0)
(0.00499181 -1.29932e-05 0)
(0.00499137 -1.37115e-05 0)
(0.00499092 -1.44594e-05 0)
(0.00499045 -1.52372e-05 0)
(0.00498997 -1.60451e-05 0)
(0.00498946 -1.68834e-05 0)
(0.00498894 -1.77519e-05 0)
(0.00498841 -1.86505e-05 0)
(0.00498786 -1.95788e-05 0)
(0.0049873 -2.0536e-05 0)
(0.00498672 -2.15211e-05 0)
(0.00498613 -2.25327e-05 0)
(0.00498553 -2.35689e-05 0)
(0.00498492 -2.46274e-05 0)
(0.0049843 -2.57051e-05 0)
(0.00498368 -2.67981e-05 0)
(0.00498305 -2.79014e-05 0)
(0.00498243 -2.90092e-05 0)
(0.00498181 -3.01139e-05 0)
(0.00498119 -3.12066e-05 0)
(0.00498059 -3.2276e-05 0)
(0.00498001 -3.33088e-05 0)
(0.00497945 -3.42889e-05 0)
(0.00497892 -3.51969e-05 0)
(0.00497844 -3.60103e-05 0)
(0.004978 -3.67025e-05 0)
(0.00497763 -3.72435e-05 0)
(0.00497733 -3.76055e-05 0)
(0.00497709 -3.77881e-05 0)
(0.005 -4.82596e-09 0)
(0.005 -1.38974e-08 0)
(0.005 -2.25757e-08 0)
(0.00499999 -3.10211e-08 0)
(0.00499999 -3.94999e-08 0)
(0.00499998 -4.82211e-08 0)
(0.00499998 -5.73491e-08 0)
(0.00499997 -6.70225e-08 0)
(0.00499997 -7.73646e-08 0)
(0.00499996 -8.84904e-08 0)
(0.00499995 -1.00511e-07 0)
(0.00499994 -1.13538e-07 0)
(0.00499993 -1.27683e-07 0)
(0.00499992 -1.4306e-07 0)
(0.00499991 -1.59789e-07 0)
(0.0049999 -1.77994e-07 0)
(0.00499988 -1.97805e-07 0)
(0.00499987 -2.19357e-07 0)
(0.00499985 -2.42796e-07 0)
(0.00499983 -2.68272e-07 0)
(0.00499981 -2.95944e-07 0)
(0.00499979 -3.25982e-07 0)
(0.00499976 -3.58563e-07 0)
(0.00499974 -3.93875e-07 0)
(0.00499971 -4.32117e-07 0)
(0.00499968 -4.73496e-07 0)
(0.00499965 -5.18234e-07 0)
(0.00499961 -5.66563e-07 0)
(0.00499958 -6.18727e-07 0)
(0.00499954 -6.74985e-07 0)
(0.00499949 -7.35605e-07 0)
(0.00499945 -8.00874e-07 0)
(0.0049994 -8.7109e-07 0)
(0.00499934 -9.46566e-07 0)
(0.00499929 -1.02763e-06 0)
(0.00499923 -1.11463e-06 0)
(0.00499916 -1.20792e-06 0)
(0.00499909 -1.30788e-06 0)
(0.00499902 -1.4149e-06 0)
(0.00499894 -1.52939e-06 0)
(0.00499885 -1.65179e-06 0)
(0.00499877 -1.78253e-06 0)
(0.00499867 -1.92208e-06 0)
(0.00499857 -2.07092e-06 0)
(0.00499846 -2.22955e-06 0)
(0.00499835 -2.39849e-06 0)
(0.00499823 -2.57829e-06 0)
(0.0049981 -2.76948e-06 0)
(0.00499796 -2.97266e-06 0)
(0.00499782 -3.18841e-06 0)
(0.00499767 -3.41735e-06 0)
(0.00499751 -3.6601e-06 0)
(0.00499734 -3.91732e-06 0)
(0.00499716 -4.18967e-06 0)
(0.00499697 -4.47784e-06 0)
(0.00499677 -4.78252e-06 0)
(0.00499656 -5.10443e-06 0)
(0.00499634 -5.44429e-06 0)
(0.0049961 -5.80285e-06 0)
(0.00499586 -6.18086e-06 0)
(0.0049956 -6.57907e-06 0)
(0.00499533 -6.99827e-06 0)
(0.00499505 -7.43923e-06 0)
(0.00499475 -7.90272e-06 0)
(0.00499444 -8.38952e-06 0)
(0.00499411 -8.9004e-06 0)
(0.00499377 -9.43614e-06 0)
(0.00499342 -9.99749e-06 0)
(0.00499305 -1.05852e-05 0)
(0.00499266 -1.11999e-05 0)
(0.00499226 -1.18424e-05 0)
(0.00499184 -1.25132e-05 0)
(0.00499141 -1.3213e-05 0)
(0.00499095 -1.39423e-05 0)
(0.00499049 -1.47015e-05 0)
(0.00499 -1.5491e-05 0)
(0.0049895 -1.6311e-05 0)
(0.00498898 -1.71617e-05 0)
(0.00498845 -1.80429e-05 0)
(0.0049879 -1.89545e-05 0)
(0.00498734 -1.98958e-05 0)
(0.00498677 -2.08662e-05 0)
(0.00498618 -2.18644e-05 0)
(0.00498558 -2.28889e-05 0)
(0.00498497 -2.39377e-05 0)
(0.00498435 -2.50079e-05 0)
(0.00498373 -2.60961e-05 0)
(0.00498311 -2.71979e-05 0)
(0.00498248 -2.83078e-05 0)
(0.00498186 -2.9419e-05 0)
(0.00498124 -3.0523e-05 0)
(0.00498064 -3.16096e-05 0)
(0.00498006 -3.26662e-05 0)
(0.00497949 -3.36775e-05 0)
(0.00497896 -3.46255e-05 0)
(0.00497847 -3.54888e-05 0)
(0.00497802 -3.62422e-05 0)
(0.00497763 -3.6857e-05 0)
(0.00497729 -3.73027e-05 0)
(0.00497698 -3.75601e-05 0)
(0.005 -3.77133e-09 0)
(0.005 -1.15947e-08 0)
(0.005 -1.9397e-08 0)
(0.00499999 -2.71106e-08 0)
(0.00499999 -3.48955e-08 0)
(0.00499998 -4.2918e-08 0)
(0.00499998 -5.13209e-08 0)
(0.00499997 -6.02303e-08 0)
(0.00499997 -6.97615e-08 0)
(0.00499996 -8.00232e-08 0)
(0.00499995 -9.11214e-08 0)
(0.00499994 -1.03162e-07 0)
(0.00499993 -1.16251e-07 0)
(0.00499992 -1.305e-07 0)
(0.00499991 -1.46022e-07 0)
(0.0049999 -1.62936e-07 0)
(0.00499988 -1.81367e-07 0)
(0.00499987 -2.01445e-07 0)
(0.00499985 -2.23309e-07 0)
(0.00499983 -2.47104e-07 0)
(0.00499981 -2.72983e-07 0)
(0.00499979 -3.01108e-07 0)
(0.00499977 -3.31651e-07 0)
(0.00499974 -3.64793e-07 0)
(0.00499971 -4.00724e-07 0)
(0.00499968 -4.39646e-07 0)
(0.00499965 -4.81772e-07 0)
(0.00499962 -5.27326e-07 0)
(0.00499958 -5.76544e-07 0)
(0.00499954 -6.29675e-07 0)
(0.0049995 -6.86982e-07 0)
(0.00499945 -7.48739e-07 0)
(0.0049994 -8.15236e-07 0)
(0.00499935 -8.86776e-07 0)
(0.00499929 -9.63679e-07 0)
(0.00499923 -1.04628e-06 0)
(0.00499917 -1.13492e-06 0)
(0.0049991 -1.22998e-06 0)
(0.00499903 -1.33183e-06 0)
(0.00499895 -1.44087e-06 0)
(0.00499886 -1.55753e-06 0)
(0.00499878 -1.68223e-06 0)
(0.00499868 -1.81542e-06 0)
(0.00499858 -1.95759e-06 0)
(0.00499847 -2.10921e-06 0)
(0.00499836 -2.27079e-06 0)
(0.00499824 -2.44286e-06 0)
(0.00499811 -2.62597e-06 0)
(0.00499798 -2.82068e-06 0)
(0.00499784 -3.02757e-06 0)
(0.00499769 -3.24725e-06 0)
(0.00499753 -3.48033e-06 0)
(0.00499736 -3.72746e-06 0)
(0.00499718 -3.98929e-06 0)
(0.00499699 -4.2665e-06 0)
(0.00499679 -4.55978e-06 0)
(0.00499658 -4.86983e-06 0)
(0.00499636 -5.19739e-06 0)
(0.00499613 -5.54319e-06 0)
(0.00499589 -5.90798e-06 0)
(0.00499563 -6.29252e-06 0)
(0.00499537 -6.69759e-06 0)
(0.00499509 -7.12397e-06 0)
(0.00499479 -7.57244e-06 0)
(0.00499448 -8.0438e-06 0)
(0.00499416 -8.53883e-06 0)
(0.00499382 -9.05832e-06 0)
(0.00499347 -9.60305e-06 0)
(0.0049931 -1.01738e-05 0)
(0.00499272 -1.07713e-05 0)
(0.00499232 -1.13963e-05 0)
(0.0049919 -1.20494e-05 0)
(0.00499147 -1.27313e-05 0)
(0.00499102 -1.34427e-05 0)
(0.00499055 -1.4184e-05 0)
(0.00499007 -1.49557e-05 0)
(0.00498957 -1.57581e-05 0)
(0.00498906 -1.65916e-05 0)
(0.00498853 -1.7456e-05 0)
(0.00498799 -1.83514e-05 0)
(0.00498743 -1.92775e-05 0)
(0.00498685 -2.02336e-05 0)
(0.00498627 -2.12189e-05 0)
(0.00498567 -2.22319e-05 0)
(0.00498506 -2.32711e-05 0)
(0.00498445 -2.43339e-05 0)
(0.00498383 -2.54172e-05 0)
(0.0049832 -2.65172e-05 0)
(0.00498258 -2.76288e-05 0)
(0.00498195 -2.87456e-05 0)
(0.00498134 -2.986e-05 0)
(0.00498073 -3.09621e-05 0)
(0.00498014 -3.20402e-05 0)
(0.00497957 -3.30798e-05 0)
(0.00497903 -3.40634e-05 0)
(0.00497852 -3.49704e-05 0)
(0.00497806 -3.57756e-05 0)
(0.00497763 -3.64496e-05 0)
(0.00497724 -3.69595e-05 0)
(0.00497686 -3.72756e-05 0)
(0.005 -3.04566e-09 0)
(0.005 -9.75242e-09 0)
(0.005 -1.66783e-08 0)
(0.00499999 -2.36553e-08 0)
(0.00499999 -3.0765e-08 0)
(0.00499999 -3.81275e-08 0)
(0.00499998 -4.58588e-08 0)
(0.00499997 -5.40688e-08 0)
(0.00499997 -6.28621e-08 0)
(0.00499996 -7.23402e-08 0)
(0.00499995 -8.2603e-08 0)
(0.00499994 -9.37509e-08 0)
(0.00499993 -1.05886e-07 0)
(0.00499992 -1.19115e-07 0)
(0.00499991 -1.33545e-07 0)
(0.0049999 -1.49291e-07 0)
(0.00499988 -1.66474e-07 0)
(0.00499987 -1.85218e-07 0)
(0.00499985 -2.05656e-07 0)
(0.00499983 -2.27929e-07 0)
(0.00499981 -2.52184e-07 0)
(0.00499979 -2.78578e-07 0)
(0.00499977 -3.07275e-07 0)
(0.00499974 -3.3845e-07 0)
(0.00499972 -3.72288e-07 0)
(0.00499969 -4.08983e-07 0)
(0.00499966 -4.48742e-07 0)
(0.00499962 -4.9178e-07 0)
(0.00499959 -5.38327e-07 0)
(0.00499955 -5.88625e-07 0)
(0.0049995 -6.42926e-07 0)
(0.00499946 -7.01499e-07 0)
(0.00499941 -7.64623e-07 0)
(0.00499936 -8.32594e-07 0)
(0.0049993 -9.05722e-07 0)
(0.00499924 -9.84331e-07 0)
(0.00499918 -1.06876e-06 0)
(0.00499911 -1.15937e-06 0)
(0.00499904 -1.25653e-06 0)
(0.00499896 -1.36063e-06 0)
(0.00499888 -1.47207e-06 0)
(0.00499879 -1.59129e-06 0)
(0.0049987 -1.71872e-06 0)
(0.0049986 -1.85482e-06 0)
(0.00499849 -2.00007e-06 0)
(0.00499838 -2.15497e-06 0)
(0.00499826 -2.32003e-06 0)
(0.00499814 -2.49579e-06 0)
(0.004998 -2.68281e-06 0)
(0.00499786 -2.88165e-06 0)
(0.00499771 -3.09292e-06 0)
(0.00499755 -3.31721e-06 0)
(0.00499739 -3.55517e-06 0)
(0.00499721 -3.80744e-06 0)
(0.00499703 -4.07469e-06 0)
(0.00499683 -4.35761e-06 0)
(0.00499662 -4.65689e-06 0)
(0.00499641 -4.97326e-06 0)
(0.00499618 -5.30746e-06 0)
(0.00499594 -5.66022e-06 0)
(0.00499568 -6.03233e-06 0)
(0.00499542 -6.42454e-06 0)
(0.00499514 -6.83766e-06 0)
(0.00499485 -7.27246e-06 0)
(0.00499454 -7.72977e-06 0)
(0.00499422 -8.21036e-06 0)
(0.00499389 -8.71506e-06 0)
(0.00499354 -9.24466e-06 0)
(0.00499317 -9.79996e-06 0)
(0.00499279 -1.03817e-05 0)
(0.0049924 -1.09907e-05 0)
(0.00499198 -1.16277e-05 0)
(0.00499155 -1.22934e-05 0)
(0.00499111 -1.29884e-05 0)
(0.00499065 -1.37133e-05 0)
(0.00499017 -1.44687e-05 0)
(0.00498968 -1.52551e-05 0)
(0.00498917 -1.60727e-05 0)
(0.00498864 -1.69217e-05 0)
(0.0049881 -1.78023e-05 0)
(0.00498754 -1.87142e-05 0)
(0.00498698 -1.96571e-05 0)
(0.00498639 -2.06302e-05 0)
(0.0049858 -2.16326e-05 0)
(0.0049852 -2.26625e-05 0)
(0.00498458 -2.37181e-05 0)
(0.00498396 -2.47964e-05 0)
(0.00498334 -2.5894e-05 0)
(0.00498271 -2.70061e-05 0)
(0.00498209 -2.8127e-05 0)
(0.00498147 -2.92492e-05 0)
(0.00498086 -3.03636e-05 0)
(0.00498027 -3.14588e-05 0)
(0.00497969 -3.25208e-05 0)
(0.00497913 -3.35323e-05 0)
(0.00497861 -3.44725e-05 0)
(0.00497811 -3.53156e-05 0)
(0.00497765 -3.60299e-05 0)
(0.00497721 -3.65781e-05 0)
(0.00497675 -3.69279e-05 0)
(0.005 -2.47034e-09 0)
(0.005 -8.15166e-09 0)
(0.005 -1.4194e-08 0)
(0.00499999 -2.04003e-08 0)
(0.00499999 -2.68038e-08 0)
(0.00499999 -3.34857e-08 0)
(0.00499998 -4.05353e-08 0)
(0.00499998 -4.8044e-08 0)
(0.00499997 -5.61041e-08 0)
(0.00499996 -6.48077e-08 0)
(0.00499995 -7.42477e-08 0)
(0.00499995 -8.45187e-08 0)
(0.00499994 -9.57175e-08 0)
(0.00499993 -1.07944e-07 0)
(0.00499991 -1.21304e-07 0)
(0.0049999 -1.35905e-07 0)
(0.00499989 -1.51863e-07 0)
(0.00499987 -1.69299e-07 0)
(0.00499986 -1.88339e-07 0)
(0.00499984 -2.09119e-07 0)
(0.00499982 -2.3178e-07 0)
(0.0049998 -2.56474e-07 0)
(0.00499977 -2.83359e-07 0)
(0.00499975 -3.12604e-07 0)
(0.00499972 -3.44387e-07 0)
(0.00499969 -3.78895e-07 0)
(0.00499966 -4.16328e-07 0)
(0.00499963 -4.56896e-07 0)
(0.00499959 -5.00819e-07 0)
(0.00499955 -5.48332e-07 0)
(0.00499951 -5.9968e-07 0)
(0.00499947 -6.55122e-07 0)
(0.00499942 -7.14931e-07 0)
(0.00499937 -7.79393e-07 0)
(0.00499931 -8.48808e-07 0)
(0.00499925 -9.23493e-07 0)
(0.00499919 -1.00378e-06 0)
(0.00499912 -1.09001e-06 0)
(0.00499905 -1.18255e-06 0)
(0.00499898 -1.28179e-06 0)
(0.0049989 -1.38811e-06 0)
(0.00499881 -1.50192e-06 0)
(0.00499872 -1.62367e-06 0)
(0.00499862 -1.75381e-06 0)
(0.00499852 -1.89279e-06 0)
(0.00499841 -2.04111e-06 0)
(0.00499829 -2.19927e-06 0)
(0.00499816 -2.36779e-06 0)
(0.00499803 -2.54724e-06 0)
(0.00499789 -2.73815e-06 0)
(0.00499775 -2.94113e-06 0)
(0.00499759 -3.15676e-06 0)
(0.00499743 -3.38568e-06 0)
(0.00499725 -3.62853e-06 0)
(0.00499707 -3.88596e-06 0)
(0.00499688 -4.15866e-06 0)
(0.00499667 -4.44732e-06 0)
(0.00499646 -4.75265e-06 0)
(0.00499623 -5.0754e-06 0)
(0.00499599 -5.41631e-06 0)
(0.00499574 -5.77614e-06 0)
(0.00499548 -6.15567e-06 0)
(0.00499521 -6.55569e-06 0)
(0.00499492 -6.977e-06 0)
(0.00499462 -7.42041e-06 0)
(0.0049943 -7.88675e-06 0)
(0.00499397 -8.37683e-06 0)
(0.00499362 -8.89147e-06 0)
(0.00499326 -9.43149e-06 0)
(0.00499289 -9.99771e-06 0)
(0.0049925 -1.05909e-05 0)
(0.00499209 -1.12119e-05 0)
(0.00499166 -1.18614e-05 0)
(0.00499122 -1.25402e-05 0)
(0.00499077 -1.32489e-05 0)
(0.00499029 -1.39881e-05 0)
(0.00498981 -1.47584e-05 0)
(0.0049893 -1.55602e-05 0)
(0.00498878 -1.63939e-05 0)
(0.00498824 -1.72595e-05 0)
(0.00498769 -1.81573e-05 0)
(0.00498713 -1.90868e-05 0)
(0.00498655 -2.00476e-05 0)
(0.00498596 -2.10388e-05 0)
(0.00498536 -2.20592e-05 0)
(0.00498475 -2.31069e-05 0)
(0.00498413 -2.41795e-05 0)
(0.00498351 -2.52738e-05 0)
(0.00498289 -2.63853e-05 0)
(0.00498226 -2.75087e-05 0)
(0.00498164 -2.8637e-05 0)
(0.00498103 -2.97613e-05 0)
(0.00498042 -3.08706e-05 0)
(0.00497983 -3.1951e-05 0)
(0.00497926 -3.29853e-05 0)
(0.00497872 -3.39521e-05 0)
(0.00497819 -3.48246e-05 0)
(0.0049777 -3.55687e-05 0)
(0.0049772 -3.61427e-05 0)
(0.00497667 -3.65109e-05 0)
(0.005 -1.97761e-09 0)
(0.005 -6.71273e-09 0)
(0.005 -1.18919e-08 0)
(0.00499999 -1.73152e-08 0)
(0.00499999 -2.299e-08 0)
(0.00499999 -2.89698e-08 0)
(0.00499998 -3.53213e-08 0)
(0.00499998 -4.21185e-08 0)
(0.00499997 -4.94404e-08 0)
(0.00499996 -5.7369e-08 0)
(0.00499996 -6.59893e-08 0)
(0.00499995 -7.53891e-08 0)
(0.00499994 -8.56593e-08 0)
(0.00499993 -9.6895e-08 0)
(0.00499992 -1.09195e-07 0)
(0.0049999 -1.22665e-07 0)
(0.00499989 -1.37412e-07 0)
(0.00499987 -1.53554e-07 0)
(0.00499986 -1.71213e-07 0)
(0.00499984 -1.90517e-07 0)
(0.00499982 -2.11603e-07 0)
(0.0049998 -2.34616e-07 0)
(0.00499978 -2.5971e-07 0)
(0.00499975 -2.87046e-07 0)
(0.00499973 -3.16797e-07 0)
(0.0049997 -3.49142e-07 0)
(0.00499967 -3.84275e-07 0)
(0.00499964 -4.22398e-07 0)
(0.0049996 -4.63726e-07 0)
(0.00499956 -5.08483e-07 0)
(0.00499952 -5.56908e-07 0)
(0.00499948 -6.09252e-07 0)
(0.00499943 -6.65778e-07 0)
(0.00499938 -7.26766e-07 0)
(0.00499933 -7.92506e-07 0)
(0.00499927 -8.63305e-07 0)
(0.00499921 -9.39486e-07 0)
(0.00499914 -1.02138e-06 0)
(0.00499907 -1.10935e-06 0)
(0.004999 -1.20376e-06 0)
(0.00499892 -1.305e-06 0)
(0.00499883 -1.41347e-06 0)
(0.00499874 -1.5296e-06 0)
(0.00499865 -1.65381e-06 0)
(0.00499854 -1.78658e-06 0)
(0.00499843 -1.92837e-06 0)
(0.00499832 -2.07969e-06 0)
(0.0049982 -2.24104e-06 0)
(0.00499807 -2.41296e-06 0)
(0.00499793 -2.59602e-06 0)
(0.00499779 -2.79077e-06 0)
(0.00499763 -2.99781e-06 0)
(0.00499747 -3.21776e-06 0)
(0.0049973 -3.45125e-06 0)
(0.00499712 -3.69894e-06 0)
(0.00499693 -3.96149e-06 0)
(0.00499673 -4.2396e-06 0)
(0.00499652 -4.53398e-06 0)
(0.00499629 -4.84535e-06 0)
(0.00499606 -5.17447e-06 0)
(0.00499582 -5.5221e-06 0)
(0.00499556 -5.88902e-06 0)
(0.00499529 -6.27602e-06 0)
(0.004995 -6.68391e-06 0)
(0.0049947 -7.11351e-06 0)
(0.00499439 -7.56565e-06 0)
(0.00499407 -8.04117e-06 0)
(0.00499373 -8.54091e-06 0)
(0.00499337 -9.06571e-06 0)
(0.004993 -9.61642e-06 0)
(0.00499261 -1.01939e-05 0)
(0.00499221 -1.07989e-05 0)
(0.00499179 -1.14323e-05 0)
(0.00499136 -1.20948e-05 0)
(0.00499091 -1.27872e-05 0)
(0.00499044 -1.35102e-05 0)
(0.00498996 -1.42644e-05 0)
(0.00498946 -1.50503e-05 0)
(0.00498894 -1.58684e-05 0)
(0.00498841 -1.67191e-05 0)
(0.00498787 -1.76023e-05 0)
(0.00498731 -1.85181e-05 0)
(0.00498674 -1.94662e-05 0)
(0.00498615 -2.04459e-05 0)
(0.00498556 -2.14561e-05 0)
(0.00498495 -2.24953e-05 0)
(0.00498434 -2.35613e-05 0)
(0.00498372 -2.46511e-05 0)
(0.00498309 -2.57608e-05 0)
(0.00498247 -2.6885e-05 0)
(0.00498184 -2.80173e-05 0)
(0.00498122 -2.9149e-05 0)
(0.00498061 -3.02692e-05 0)
(0.00498001 -3.13641e-05 0)
(0.00497942 -3.24163e-05 0)
(0.00497885 -3.34039e-05 0)
(0.0049783 -3.42988e-05 0)
(0.00497777 -3.5065e-05 0)
(0.00497723 -3.56571e-05 0)
(0.00497663 -3.6027e-05 0)
(0.005 -1.54555e-09 0)
(0.005 -5.41582e-09 0)
(0.005 -9.77075e-09 0)
(0.005 -1.44213e-08 0)
(0.00499999 -1.93631e-08 0)
(0.00499999 -2.46322e-08 0)
(0.00499998 -3.02778e-08 0)
(0.00499998 -3.6359e-08 0)
(0.00499997 -4.29425e-08 0)
(0.00499997 -5.01e-08 0)
(0.00499996 -5.79082e-08 0)
(0.00499995 -6.64476e-08 0)
(0.00499994 -7.58031e-08 0)
(0.00499993 -8.60638e-08 0)
(0.00499992 -9.73236e-08 0)
(0.00499991 -1.09681e-07 0)
(0.00499989 -1.23242e-07 0)
(0.00499988 -1.38115e-07 0)
(0.00499986 -1.54418e-07 0)
(0.00499985 -1.72275e-07 0)
(0.00499983 -1.91817e-07 0)
(0.00499981 -2.13183e-07 0)
(0.00499978 -2.3652e-07 0)
(0.00499976 -2.61984e-07 0)
(0.00499973 -2.8974e-07 0)
(0.00499971 -3.19964e-07 0)
(0.00499968 -3.5284e-07 0)
(0.00499964 -3.88564e-07 0)
(0.00499961 -4.27343e-07 0)
(0.00499957 -4.69395e-07 0)
(0.00499953 -5.1495e-07 0)
(0.00499949 -5.64252e-07 0)
(0.00499944 -6.17555e-07 0)
(0.00499939 -6.75129e-07 0)
(0.00499934 -7.37258e-07 0)
(0.00499929 -8.0424e-07 0)
(0.00499923 -8.76385e-07 0)
(0.00499916 -9.54024e-07 0)
(0.00499909 -1.0375e-06 0)
(0.00499902 -1.12717e-06 0)
(0.00499894 -1.22341e-06 0)
(0.00499886 -1.32662e-06 0)
(0.00499877 -1.43721e-06 0)
(0.00499867 -1.5556e-06 0)
(0.00499857 -1.68225e-06 0)
(0.00499847 -1.81763e-06 0)
(0.00499836 -1.9622e-06 0)
(0.00499824 -2.11649e-06 0)
(0.00499811 -2.28102e-06 0)
(0.00499797 -2.45633e-06 0)
(0.00499783 -2.64298e-06 0)
(0.00499768 -2.84155e-06 0)
(0.00499752 -3.05267e-06 0)
(0.00499736 -3.27694e-06 0)
(0.00499718 -3.51502e-06 0)
(0.00499699 -3.76757e-06 0)
(0.00499679 -4.03527e-06 0)
(0.00499659 -4.31884e-06 0)
(0.00499637 -4.619e-06 0)
(0.00499614 -4.93649e-06 0)
(0.0049959 -5.27207e-06 0)
(0.00499564 -5.62654e-06 0)
(0.00499538 -6.00068e-06 0)
(0.0049951 -6.39531e-06 0)
(0.00499481 -6.81125e-06 0)
(0.0049945 -7.24936e-06 0)
(0.00499418 -7.71048e-06 0)
(0.00499384 -8.19547e-06 0)
(0.00499349 -8.7052e-06 0)
(0.00499313 -9.24054e-06 0)
(0.00499275 -9.80237e-06 0)
(0.00499235 -1.03915e-05 0)
(0.00499194 -1.10089e-05 0)
(0.00499151 -1.16553e-05 0)
(0.00499107 -1.23315e-05 0)
(0.00499061 -1.30382e-05 0)
(0.00499013 -1.37763e-05 0)
(0.00498964 -1.45463e-05 0)
(0.00498913 -1.53488e-05 0)
(0.00498861 -1.61842e-05 0)
(0.00498807 -1.70528e-05 0)
(0.00498752 -1.79547e-05 0)
(0.00498695 -1.88897e-05 0)
(0.00498637 -1.98573e-05 0)
(0.00498578 -2.08568e-05 0)
(0.00498518 -2.18866e-05 0)
(0.00498456 -2.2945e-05 0)
(0.00498395 -2.40292e-05 0)
(0.00498332 -2.51354e-05 0)
(0.00498269 -2.62587e-05 0)
(0.00498207 -2.73926e-05 0)
(0.00498144 -2.85289e-05 0)
(0.00498082 -2.96566e-05 0)
(0.0049802 -3.07619e-05 0)
(0.0049796 -3.18272e-05 0)
(0.00497901 -3.28299e-05 0)
(0.00497843 -3.37409e-05 0)
(0.00497786 -3.45225e-05 0)
(0.00497728 -3.51268e-05 0)
(0.00497663 -3.54869e-05 0)
(0.005 -1.15976e-09 0)
(0.005 -4.23961e-09 0)
(0.005 -7.81606e-09 0)
(0.005 -1.17171e-08 0)
(0.00499999 -1.59351e-08 0)
(0.00499999 -2.04956e-08 0)
(0.00499998 -2.54354e-08 0)
(0.00499998 -3.08017e-08 0)
(0.00499997 -3.66502e-08 0)
(0.00499997 -4.30433e-08 0)
(0.00499996 -5.00493e-08 0)
(0.00499995 -5.77416e-08 0)
(0.00499994 -6.61985e-08 0)
(0.00499993 -7.55033e-08 0)
(0.00499992 -8.57442e-08 0)
(0.00499991 -9.70148e-08 0)
(0.0049999 -1.09414e-07 0)
(0.00499988 -1.23048e-07 0)
(0.00499987 -1.38027e-07 0)
(0.00499985 -1.54471e-07 0)
(0.00499983 -1.72504e-07 0)
(0.00499981 -1.9226e-07 0)
(0.00499979 -2.13881e-07 0)
(0.00499977 -2.37516e-07 0)
(0.00499974 -2.63324e-07 0)
(0.00499972 -2.91475e-07 0)
(0.00499969 -3.22145e-07 0)
(0.00499965 -3.55524e-07 0)
(0.00499962 -3.91811e-07 0)
(0.00499958 -4.31218e-07 0)
(0.00499955 -4.73966e-07 0)
(0.0049995 -5.20292e-07 0)
(0.00499946 -5.70441e-07 0)
(0.00499941 -6.24676e-07 0)
(0.00499936 -6.83271e-07 0)
(0.0049993 -7.46514e-07 0)
(0.00499925 -8.1471e-07 0)
(0.00499918 -8.88176e-07 0)
(0.00499912 -9.67248e-07 0)
(0.00499904 -1.05227e-06 0)
(0.00499897 -1.14362e-06 0)
(0.00499889 -1.24168e-06 0)
(0.0049988 -1.34684e-06 0)
(0.00499871 -1.45953e-06 0)
(0.00499861 -1.58018e-06 0)
(0.00499851 -1.70926e-06 0)
(0.0049984 -1.84722e-06 0)
(0.00499828 -1.99458e-06 0)
(0.00499815 -2.15185e-06 0)
(0.00499802 -2.31955e-06 0)
(0.00499788 -2.49825e-06 0)
(0.00499774 -2.68852e-06 0)
(0.00499758 -2.89095e-06 0)
(0.00499742 -3.10616e-06 0)
(0.00499724 -3.3348e-06 0)
(0.00499706 -3.57752e-06 0)
(0.00499687 -3.83499e-06 0)
(0.00499666 -4.10793e-06 0)
(0.00499645 -4.39705e-06 0)
(0.00499623 -4.7031e-06 0)
(0.00499599 -5.02683e-06 0)
(0.00499574 -5.36903e-06 0)
(0.00499548 -5.7305e-06 0)
(0.00499521 -6.11206e-06 0)
(0.00499492 -6.51454e-06 0)
(0.00499462 -6.9388e-06 0)
(0.0049943 -7.38571e-06 0)
(0.00499397 -7.85613e-06 0)
(0.00499363 -8.35097e-06 0)
(0.00499327 -8.87111e-06 0)
(0.0049929 -9.41745e-06 0)
(0.00499251 -9.9909e-06 0)
(0.00499211 -1.05924e-05 0)
(0.00499168 -1.12227e-05 0)
(0.00499125 -1.18827e-05 0)
(0.00499079 -1.25734e-05 0)
(0.00499033 -1.32954e-05 0)
(0.00498984 -1.40494e-05 0)
(0.00498934 -1.48362e-05 0)
(0.00498882 -1.56562e-05 0)
(0.00498829 -1.65099e-05 0)
(0.00498774 -1.73975e-05 0)
(0.00498718 -1.8319e-05 0)
(0.00498661 -1.9274e-05 0)
(0.00498602 -2.0262e-05 0)
(0.00498542 -2.12816e-05 0)
(0.00498482 -2.23313e-05 0)
(0.0049842 -2.34085e-05 0)
(0.00498358 -2.45096e-05 0)
(0.00498295 -2.563e-05 0)
(0.00498232 -2.67632e-05 0)
(0.00498168 -2.79012e-05 0)
(0.00498105 -2.9033e-05 0)
(0.00498043 -3.01448e-05 0)
(0.0049798 -3.12185e-05 0)
(0.00497919 -3.2231e-05 0)
(0.00497858 -3.31524e-05 0)
(0.00497798 -3.39437e-05 0)
(0.00497736 -3.45554e-05 0)
(0.00497667 -3.49083e-05 0)
(0.005 -8.10337e-10 0)
(0.005 -3.16537e-09 0)
(0.005 -6.01046e-09 0)
(0.005 -9.19278e-09 0)
(0.00499999 -1.27055e-08 0)
(0.00499999 -1.65683e-08 0)
(0.00499999 -2.08096e-08 0)
(0.00499998 -2.54675e-08 0)
(0.00499997 -3.05885e-08 0)
(0.00499997 -3.62268e-08 0)
(0.00499996 -4.24427e-08 0)
(0.00499995 -4.93028e-08 0)
(0.00499995 -5.68789e-08 0)
(0.00499994 -6.52483e-08 0)
(0.00499992 -7.44936e-08 0)
(0.00499991 -8.47029e-08 0)
(0.0049999 -9.59701e-08 0)
(0.00499989 -1.08395e-07 0)
(0.00499987 -1.22084e-07 0)
(0.00499986 -1.3715e-07 0)
(0.00499984 -1.53714e-07 0)
(0.00499982 -1.71902e-07 0)
(0.0049998 -1.91851e-07 0)
(0.00499978 -2.13704e-07 0)
(0.00499975 -2.37614e-07 0)
(0.00499972 -2.63743e-07 0)
(0.0049997 -2.92263e-07 0)
(0.00499967 -3.23356e-07 0)
(0.00499963 -3.57214e-07 0)
(0.0049996 -3.9404e-07 0)
(0.00499956 -4.34051e-07 0)
(0.00499952 -4.77472e-07 0)
(0.00499947 -5.24544e-07 0)
(0.00499943 -5.75519e-07 0)
(0.00499938 -6.30663e-07 0)
(0.00499932 -6.90256e-07 0)
(0.00499927 -7.54593e-07 0)
(0.00499921 -8.23983e-07 0)
(0.00499914 -8.98752e-07 0)
(0.00499907 -9.7924e-07 0)
(0.004999 -1.0658e-06 0)
(0.00499892 -1.15882e-06 0)
(0.00499883 -1.25867e-06 0)
(0.00499874 -1.36578e-06 0)
(0.00499865 -1.48056e-06 0)
(0.00499855 -1.60347e-06 0)
(0.00499844 -1.73497e-06 0)
(0.00499833 -1.87554e-06 0)
(0.0049982 -2.0257e-06 0)
(0.00499808 -2.18595e-06 0)
(0.00499794 -2.35686e-06 0)
(0.0049978 -2.53897e-06 0)
(0.00499765 -2.7329e-06 0)
(0.00499748 -2.93923e-06 0)
(0.00499732 -3.1586e-06 0)
(0.00499714 -3.39167e-06 0)
(0.00499695 -3.63911e-06 0)
(0.00499675 -3.9016e-06 0)
(0.00499654 -4.17988e-06 0)
(0.00499632 -4.47468e-06 0)
(0.00499609 -4.78676e-06 0)
(0.00499585 -5.1169e-06 0)
(0.00499559 -5.4659e-06 0)
(0.00499532 -5.83459e-06 0)
(0.00499504 -6.22382e-06 0)
(0.00499475 -6.63443e-06 0)
(0.00499444 -7.06732e-06 0)
(0.00499412 -7.52336e-06 0)
(0.00499378 -8.00348e-06 0)
(0.00499343 -8.50859e-06 0)
(0.00499306 -9.03962e-06 0)
(0.00499268 -9.5975e-06 0)
(0.00499228 -1.01832e-05 0)
(0.00499187 -1.07975e-05 0)
(0.00499144 -1.14415e-05 0)
(0.004991 -1.21161e-05 0)
(0.00499054 -1.28219e-05 0)
(0.00499006 -1.356e-05 0)
(0.00498956 -1.43309e-05 0)
(0.00498905 -1.51354e-05 0)
(0.00498853 -1.5974e-05 0)
(0.00498799 -1.68469e-05 0)
(0.00498744 -1.77544e-05 0)
(0.00498687 -1.86962e-05 0)
(0.00498629 -1.96719e-05 0)
(0.00498569 -2.06804e-05 0)
(0.00498509 -2.17203e-05 0)
(0.00498447 -2.2789e-05 0)
(0.00498385 -2.38834e-05 0)
(0.00498322 -2.49987e-05 0)
(0.00498258 -2.61289e-05 0)
(0.00498195 -2.72658e-05 0)
(0.00498131 -2.83984e-05 0)
(0.00498067 -2.95128e-05 0)
(0.00498003 -3.05907e-05 0)
(0.00497939 -3.16084e-05 0)
(0.00497876 -3.25352e-05 0)
(0.00497813 -3.33315e-05 0)
(0.00497747 -3.39468e-05 0)
(0.00497674 -3.42983e-05 0)
(0.005 -4.92183e-10 0)
(0.005 -2.17845e-09 0)
(0.005 -4.33915e-09 0)
(0.005 -6.83806e-09 0)
(0.00499999 -9.67082e-09 0)
(0.00499999 -1.2854e-08 0)
(0.00499999 -1.64108e-08 0)
(0.00499998 -2.03724e-08 0)
(0.00499998 -2.4778e-08 0)
(0.00499997 -2.96745e-08 0)
(0.00499996 -3.51154e-08 0)
(0.00499996 -4.11605e-08 0)
(0.00499995 -4.78757e-08 0)
(0.00499994 -5.53322e-08 0)
(0.00499993 -6.36071e-08 0)
(0.00499992 -7.27832e-08 0)
(0.0049999 -8.29488e-08 0)
(0.00499989 -9.41986e-08 0)
(0.00499988 -1.06634e-07 0)
(0.00499986 -1.20361e-07 0)
(0.00499984 -1.35497e-07 0)
(0.00499983 -1.52161e-07 0)
(0.00499981 -1.70485e-07 0)
(0.00499978 -1.90607e-07 0)
(0.00499976 -2.12672e-07 0)
(0.00499973 -2.36837e-07 0)
(0.00499971 -2.63267e-07 0)
(0.00499968 -2.92136e-07 0)
(0.00499965 -3.23631e-07 0)
(0.00499961 -3.57948e-07 0)
(0.00499957 -3.95294e-07 0)
(0.00499953 -4.35889e-07 0)
(0.00499949 -4.79965e-07 0)
(0.00499945 -5.27765e-07 0)
(0.0049994 -5.79548e-07 0)
(0.00499935 -6.35586e-07 0)
(0.00499929 -6.96163e-07 0)
(0.00499923 -7.61581e-07 0)
(0.00499917 -8.32155e-07 0)
(0.0049991 -9.08216e-07 0)
(0.00499903 -9.90112e-07 0)
(0.00499895 -1.07821e-06 0)
(0.00499887 -1.17288e-06 0)
(0.00499878 -1.27454e-06 0)
(0.00499869 -1.3836e-06 0)
(0.00499859 -1.50048e-06 0)
(0.00499849 -1.62566e-06 0)
(0.00499838 -1.7596e-06 0)
(0.00499826 -1.9028e-06 0)
(0.00499813 -2.05577e-06 0)
(0.004998 -2.21905e-06 0)
(0.00499786 -2.3932e-06 0)
(0.00499771 -2.57879e-06 0)
(0.00499756 -2.77643e-06 0)
(0.00499739 -2.98673e-06 0)
(0.00499722 -3.21034e-06 0)
(0.00499703 -3.44794e-06 0)
(0.00499684 -3.7002e-06 0)
(0.00499664 -3.96784e-06 0)
(0.00499642 -4.2516e-06 0)
(0.0049962 -4.55223e-06 0)
(0.00499596 -4.87053e-06 0)
(0.00499571 -5.20728e-06 0)
(0.00499545 -5.56332e-06 0)
(0.00499517 -5.93949e-06 0)
(0.00499489 -6.33667e-06 0)
(0.00499459 -6.75573e-06 0)
(0.00499427 -7.1976e-06 0)
(0.00499394 -7.66319e-06 0)
(0.0049936 -8.15345e-06 0)
(0.00499324 -8.66932e-06 0)
(0.00499286 -9.21178e-06 0)
(0.00499248 -9.78178e-06 0)
(0.00499207 -1.03803e-05 0)
(0.00499165 -1.10083e-05 0)
(0.00499121 -1.16667e-05 0)
(0.00499076 -1.23565e-05 0)
(0.00499029 -1.30784e-05 0)
(0.0049898 -1.38334e-05 0)
(0.0049893 -1.46222e-05 0)
(0.00498879 -1.54452e-05 0)
(0.00498825 -1.63031e-05 0)
(0.0049877 -1.71961e-05 0)
(0.00498714 -1.81241e-05 0)
(0.00498657 -1.90867e-05 0)
(0.00498598 -2.00831e-05 0)
(0.00498538 -2.11119e-05 0)
(0.00498476 -2.21708e-05 0)
(0.00498414 -2.32567e-05 0)
(0.00498351 -2.4365e-05 0)
(0.00498287 -2.54898e-05 0)
(0.00498223 -2.66228e-05 0)
(0.00498158 -2.77532e-05 0)
(0.00498093 -2.88667e-05 0)
(0.00498027 -2.99449e-05 0)
(0.00497962 -3.09637e-05 0)
(0.00497897 -3.18919e-05 0)
(0.00497831 -3.26892e-05 0)
(0.00497761 -3.33046e-05 0)
(0.00497685 -3.36548e-05 0)
(0.005 -2.05195e-10 0)
(0.005 -1.26865e-09 0)
(0.005 -2.79081e-09 0)
(0.005 -4.64388e-09 0)
(0.00499999 -6.82631e-09 0)
(0.00499999 -9.35362e-09 0)
(0.00499999 -1.22454e-08 0)
(0.00499998 -1.55279e-08 0)
(0.00499998 -1.92347e-08 0)
(0.00499997 -2.34064e-08 0)
(0.00499997 -2.80906e-08 0)
(0.00499996 -3.3341e-08 0)
(0.00499995 -3.92176e-08 0)
(0.00499994 -4.57861e-08 0)
(0.00499993 -5.3118e-08 0)
(0.00499992 -6.12908e-08 0)
(0.00499991 -7.03877e-08 0)
(0.0049999 -8.0498e-08 0)
(0.00499988 -9.17174e-08 0)
(0.00499987 -1.04148e-07 0)
(0.00499985 -1.179e-07 0)
(0.00499983 -1.33088e-07 0)
(0.00499981 -1.49838e-07 0)
(0.00499979 -1.68281e-07 0)
(0.00499977 -1.88559e-07 0)
(0.00499974 -2.1082e-07 0)
(0.00499972 -2.35223e-07 0)
(0.00499969 -2.61937e-07 0)
(0.00499966 -2.9114e-07 0)
(0.00499963 -3.23022e-07 0)
(0.00499959 -3.57783e-07 0)
(0.00499955 -3.95635e-07 0)
(0.00499951 -4.36801e-07 0)
(0.00499947 -4.81519e-07 0)
(0.00499942 -5.30037e-07 0)
(0.00499937 -5.82619e-07 0)
(0.00499932 -6.39542e-07 0)
(0.00499926 -7.01097e-07 0)
(0.0049992 -7.67591e-07 0)
(0.00499913 -8.39346e-07 0)
(0.00499906 -9.167e-07 0)
(0.00499899 -1.00001e-06 0)
(0.00499891 -1.08964e-06 0)
(0.00499882 -1.18599e-06 0)
(0.00499873 -1.28946e-06 0)
(0.00499864 -1.40048e-06 0)
(0.00499854 -1.51949e-06 0)
(0.00499843 -1.64697e-06 0)
(0.00499831 -1.78338e-06 0)
(0.00499819 -1.92925e-06 0)
(0.00499807 -2.08508e-06 0)
(0.00499793 -2.25144e-06 0)
(0.00499779 -2.4289e-06 0)
(0.00499763 -2.61803e-06 0)
(0.00499747 -2.81946e-06 0)
(0.0049973 -3.03383e-06 0)
(0.00499713 -3.26179e-06 0)
(0.00499694 -3.50403e-06 0)
(0.00499674 -3.76125e-06 0)
(0.00499653 -4.03419e-06 0)
(0.00499631 -4.32361e-06 0)
(0.00499608 -4.63027e-06 0)