/*--------------------------------*- C++ -*----------------------------------*\
  =========                 |
  \\      /  F ield         | OpenFOAM: The Open Source CFD Toolbox
   \\    /   O peration     | Website:  https://openfoam.org
    \\  /    A nd           | Version:  11
     \\/     M anipulation  |
\*---------------------------------------------------------------------------*/
FoamFile
{
    format      ascii;
    class       volScalarField;
    location    "28";
    object      k;
}
// * * * * * * * * * * * * * * * * * * * * * * * * * * * * * * * * * * * * * //

dimensions      [0 2 -2 0 0 0 0];

internalField   nonuniform List<scalar> 
10000
(
0.000940606
0.000839247
0.000752911
0.000679526
0.000617337
0.000564833
0.000520687
0.000483725
0.000452898
0.000427277
0.000406042
0.00038848
0.000373978
0.000362016
0.000352155
0.000344032
0.000337343
0.000331837
0.000327306
0.000323579
0.00032052
0.000318014
0.000315961
0.000314278
0.000312897
0.000311764
0.000310834
0.000310069
0.000309439
0.000308918
0.000308486
0.000308126
0.000307824
0.00030757
0.000307353
0.000307168
0.000307008
0.00030687
0.000306748
0.000306641
0.000306547
0.000306462
0.000306386
0.000306317
0.000306255
0.000306199
0.000306148
0.000306101
0.000306058
0.000306019
0.000305983
0.00030595
0.000305919
0.000305891
0.000305865
0.000305841
0.000305818
0.000305798
0.000305779
0.000305761
0.000305745
0.00030573
0.000305716
0.000305703
0.000305691
0.00030568
0.000305669
0.00030566
0.000305651
0.000305642
0.000305634
0.000305627
0.00030562
0.000305614
0.000305608
0.000305602
0.000305597
0.000305591
0.000305587
0.000305582
0.000305577
0.000305573
0.000305569
0.000305565
0.000305561
0.000305557
0.000305553
0.00030555
0.000305546
0.000305542
0.000305539
0.000305536
0.000305533
0.00030553
0.000305527
0.000305524
0.000305522
0.000305521
0.000305519
0.000305519
0.000940601
0.000839249
0.000752921
0.000679543
0.000617359
0.000564858
0.000520714
0.000483753
0.000452927
0.000427306
0.000406071
0.000388508
0.000374005
0.000362042
0.000352182
0.000344058
0.000337368
0.000331862
0.000327332
0.000323607
0.000320549
0.00031804
0.000315983
0.000314297
0.000312914
0.00031178
0.000310849
0.000310084
0.000309453
0.000308931
0.000308499
0.000308138
0.000307835
0.00030758
0.000307363
0.000307177
0.000307017
0.000306878
0.000306756
0.000306649
0.000306554
0.000306469
0.000306393
0.000306324
0.000306261
0.000306205
0.000306153
0.000306106
0.000306063
0.000306023
0.000305987
0.000305954
0.000305923
0.000305894
0.000305868
0.000305844
0.000305822
0.000305801
0.000305782
0.000305764
0.000305748
0.000305732
0.000305718
0.000305705
0.000305693
0.000305682
0.000305671
0.000305661
0.000305652
0.000305644
0.000305636
0.000305628
0.000305622
0.000305615
0.000305609
0.000305603
0.000305598
0.000305592
0.000305588
0.000305583
0.000305578
0.000305574
0.00030557
0.000305566
0.000305562
0.000305558
0.000305554
0.00030555
0.000305547
0.000305543
0.00030554
0.000305536
0.000305533
0.00030553
0.000305527
0.000305525
0.000305523
0.000305521
0.00030552
0.000305519
0.000940595
0.000839251
0.000752936
0.000679568
0.000617391
0.000564894
0.000520752
0.000483791
0.000452964
0.000427341
0.000406103
0.000388538
0.000374033
0.000362068
0.000352205
0.00034408
0.000337389
0.000331881
0.00032735
0.000323626
0.000320567
0.000318057
0.000315999
0.000314311
0.000312927
0.000311792
0.00031086
0.000310094
0.000309463
0.000308941
0.000308508
0.000308147
0.000307845
0.000307589
0.000307372
0.000307187
0.000307026
0.000306887
0.000306765
0.000306658
0.000306562
0.000306477
0.0003064
0.000306331
0.000306269
0.000306212
0.00030616
0.000306113
0.00030607
0.00030603
0.000305993
0.00030596
0.000305928
0.0003059
0.000305873
0.000305849
0.000305826
0.000305805
0.000305786
0.000305768
0.000305751
0.000305736
0.000305722
0.000305709
0.000305696
0.000305685
0.000305674
0.000305664
0.000305655
0.000305646
0.000305638
0.000305631
0.000305624
0.000305617
0.000305611
0.000305605
0.000305599
0.000305594
0.000305589
0.000305584
0.00030558
0.000305575
0.000305571
0.000305567
0.000305563
0.000305559
0.000305555
0.000305551
0.000305548
0.000305544
0.00030554
0.000305537
0.000305534
0.000305531
0.000305528
0.000305525
0.000305523
0.000305521
0.00030552
0.000305519
0.000940591
0.000839254
0.000752952
0.000679596
0.000617429
0.000564938
0.000520799
0.000483838
0.000453009
0.000427384
0.000406142
0.000388573
0.000374065
0.000362096
0.00035223
0.000344101
0.000337408
0.000331899
0.000327367
0.000323642
0.000320582
0.000318071
0.000316011
0.000314322
0.000312937
0.000311802
0.000310869
0.000310103
0.000309472
0.00030895
0.000308517
0.000308156
0.000307853
0.000307598
0.000307381
0.000307195
0.000307035
0.000306896
0.000306774
0.000306667
0.000306571
0.000306486
0.00030641
0.00030634
0.000306278
0.000306221
0.000306169
0.000306121
0.000306078
0.000306038
0.000306001
0.000305967
0.000305935
0.000305906
0.00030588
0.000305855
0.000305832
0.000305811
0.000305791
0.000305773
0.000305756
0.000305741
0.000305726
0.000305713
0.0003057
0.000305689
0.000305678
0.000305668
0.000305658
0.000305649
0.000305641
0.000305634
0.000305626
0.00030562
0.000305613
0.000305607
0.000305602
0.000305596
0.000305591
0.000305586
0.000305582
0.000305577
0.000305573
0.000305569
0.000305564
0.00030556
0.000305556
0.000305553
0.000305549
0.000305545
0.000305542
0.000305538
0.000305535
0.000305532
0.000305529
0.000305526
0.000305524
0.000305522
0.000305521
0.00030552
0.000940588
0.000839256
0.000752966
0.000679625
0.000617469
0.000564987
0.000520852
0.000483893
0.000453062
0.000427433
0.000406187
0.000388614
0.0003741
0.000362127
0.000352257
0.000344125
0.000337428
0.000331917
0.000327383
0.000323656
0.000320595
0.000318082
0.000316021
0.000314331
0.000312946
0.000311809
0.000310877
0.00031011
0.000309479
0.000308957
0.000308524
0.000308164
0.000307861
0.000307606
0.00030739
0.000307204
0.000307045
0.000306906
0.000306784
0.000306676
0.000306581
0.000306496
0.000306419
0.00030635
0.000306287
0.00030623
0.000306178
0.00030613
0.000306086
0.000306046
0.000306009
0.000305975
0.000305943
0.000305914
0.000305887
0.000305862
0.000305839
0.000305817
0.000305798
0.000305779
0.000305762
0.000305746
0.000305731
0.000305718
0.000305705
0.000305693
0.000305682
0.000305672
0.000305662
0.000305653
0.000305645
0.000305637
0.00030563
0.000305623
0.000305616
0.00030561
0.000305604
0.000305599
0.000305594
0.000305589
0.000305584
0.000305579
0.000305575
0.00030557
0.000305566
0.000305562
0.000305558
0.000305554
0.00030555
0.000305546
0.000305543
0.000305539
0.000305536
0.000305533
0.00030553
0.000305527
0.000305525
0.000305523
0.000305522
0.000305521
0.000940585
0.000839257
0.000752978
0.000679651
0.000617508
0.000565035
0.000520907
0.000483949
0.000453118
0.000427486
0.000406236
0.000388658
0.000374139
0.00036216
0.000352286
0.000344149
0.000337449
0.000331934
0.000327397
0.000323668
0.000320605
0.000318091
0.000316029
0.000314338
0.000312952
0.000311815
0.000310882
0.000310115
0.000309484
0.000308963
0.00030853
0.00030817
0.000307868
0.000307614
0.000307398
0.000307213
0.000307053
0.000306914
0.000306793
0.000306686
0.000306591
0.000306506
0.000306429
0.00030636
0.000306297
0.00030624
0.000306188
0.00030614
0.000306096
0.000306055
0.000306018
0.000305983
0.000305952
0.000305922
0.000305895
0.00030587
0.000305846
0.000305824
0.000305804
0.000305785
0.000305768
0.000305752
0.000305737
0.000305723
0.00030571
0.000305698
0.000305687
0.000305676
0.000305666
0.000305657
0.000305648
0.00030564
0.000305633
0.000305626
0.000305619
0.000305613
0.000305607
0.000305601
0.000305596
0.000305591
0.000305586
0.000305581
0.000305577
0.000305572
0.000305568
0.000305564
0.00030556
0.000305556
0.000305552
0.000305548
0.000305544
0.000305541
0.000305537
0.000305534
0.000305531
0.000305528
0.000305526
0.000305524
0.000305522
0.000305522
0.000940583
0.000839258
0.000752988
0.000679673
0.000617543
0.000565081
0.000520959
0.000484005
0.000453174
0.000427539
0.000406285
0.000388702
0.000374178
0.000362194
0.000352314
0.000344173
0.000337468
0.00033195
0.00032741
0.000323679
0.000320613
0.000318097
0.000316034
0.000314342
0.000312955
0.000311818
0.000310885
0.000310118
0.000309487
0.000308966
0.000308534
0.000308174
0.000307873
0.000307619
0.000307404
0.000307219
0.00030706
0.000306922
0.000306801
0.000306695
0.0003066
0.000306515
0.000306438
0.000306369
0.000306307
0.000306249
0.000306197
0.000306149
0.000306105
0.000306064
0.000306027
0.000305992
0.00030596
0.00030593
0.000305903
0.000305877
0.000305853
0.000305831
0.000305811
0.000305792
0.000305774
0.000305758
0.000305743
0.000305728
0.000305715
0.000305703
0.000305691
0.00030568
0.00030567
0.000305661
0.000305652
0.000305644
0.000305636
0.000305629
0.000305622
0.000305616
0.00030561
0.000305604
0.000305599
0.000305594
0.000305588
0.000305584
0.000305579
0.000305574
0.00030557
0.000305566
0.000305562
0.000305557
0.000305553
0.00030555
0.000305546
0.000305542
0.000305539
0.000305535
0.000305532
0.000305529
0.000305527
0.000305525
0.000305523
0.000305523
0.000940581
0.000839258
0.000752996
0.000679692
0.000617574
0.000565121
0.000521007
0.000484057
0.000453227
0.000427591
0.000406333
0.000388745
0.000374215
0.000362226
0.000352341
0.000344195
0.000337486
0.000331964
0.000327421
0.000323686
0.000320619
0.000318101
0.000316035
0.000314342
0.000312955
0.000311817
0.000310884
0.000310118
0.000309487
0.000308966
0.000308535
0.000308176
0.000307876
0.000307623
0.000307408
0.000307224
0.000307066
0.000306928
0.000306808
0.000306702
0.000306607
0.000306523
0.000306447
0.000306378
0.000306315
0.000306258
0.000306206
0.000306158
0.000306113
0.000306073
0.000306035
0.000306
0.000305968
0.000305938
0.00030591
0.000305884
0.00030586
0.000305838
0.000305817
0.000305798
0.00030578
0.000305764
0.000305748
0.000305734
0.00030572
0.000305708
0.000305696
0.000305685
0.000305675
0.000305665
0.000305656
0.000305648
0.00030564
0.000305632
0.000305626
0.000305619
0.000305613
0.000305607
0.000305601
0.000305596
0.000305591
0.000305586
0.000305581
0.000305577
0.000305572
0.000305568
0.000305563
0.000305559
0.000305555
0.000305551
0.000305547
0.000305543
0.00030554
0.000305536
0.000305533
0.00030553
0.000305528
0.000305526
0.000305524
0.000305524
0.000940579
0.000839257
0.000753001
0.000679707
0.0006176
0.000565157
0.00052105
0.000484104
0.000453276
0.000427638
0.000406378
0.000388785
0.00037425
0.000362256
0.000352365
0.000344214
0.000337501
0.000331975
0.000327428
0.000323691
0.000320621
0.000318101
0.000316034
0.00031434
0.000312951
0.000311814
0.00031088
0.000310114
0.000309484
0.000308964
0.000308533
0.000308175
0.000307876
0.000307623
0.00030741
0.000307227
0.000307069
0.000306933
0.000306813
0.000306707
0.000306613
0.000306529
0.000306454
0.000306385
0.000306323
0.000306266
0.000306213
0.000306165
0.000306121
0.00030608
0.000306043
0.000306008
0.000305975
0.000305945
0.000305917
0.000305891
0.000305867
0.000305845
0.000305824
0.000305804
0.000305786
0.000305769
0.000305753
0.000305739
0.000305725
0.000305712
0.0003057
0.000305689
0.000305679
0.000305669
0.00030566
0.000305651
0.000305643
0.000305636
0.000305629
0.000305622
0.000305615
0.000305609
0.000305604
0.000305598
0.000305593
0.000305588
0.000305583
0.000305578
0.000305574
0.000305569
0.000305565
0.000305561
0.000305557
0.000305553
0.000305549
0.000305545
0.000305541
0.000305538
0.000305534
0.000305532
0.000305529
0.000305527
0.000305525
0.000305525
0.000940578
0.000839256
0.000753005
0.000679719
0.000617621
0.000565188
0.000521088
0.000484147
0.000453319
0.000427681
0.000406418
0.000388821
0.000374282
0.000362282
0.000352387
0.000344231
0.000337513
0.000331983
0.000327433
0.000323692
0.00032062
0.000318098
0.000316029
0.000314334
0.000312945
0.000311807
0.000310873
0.000310108
0.000309478
0.000308958
0.000308529
0.000308171
0.000307873
0.000307622
0.000307409
0.000307227
0.00030707
0.000306935
0.000306816
0.000306711
0.000306618
0.000306534
0.000306459
0.000306391
0.000306329
0.000306272
0.00030622
0.000306172
0.000306128
0.000306087
0.000306049
0.000306014
0.000305982
0.000305952
0.000305923
0.000305897
0.000305873
0.00030585
0.000305829
0.00030581
0.000305791
0.000305774
0.000305758
0.000305743
0.000305729
0.000305716
0.000305704
0.000305693
0.000305682
0.000305672
0.000305663
0.000305654
0.000305646
0.000305638
0.000305631
0.000305624
0.000305618
0.000305612
0.000305606
0.0003056
0.000305595
0.00030559
0.000305585
0.00030558
0.000305576
0.000305571
0.000305567
0.000305562
0.000305558
0.000305554
0.00030555
0.000305546
0.000305542
0.000305539
0.000305536
0.000305533
0.00030553
0.000305528
0.000305526
0.000305525
0.000940576
0.000839255
0.000753008
0.000679729
0.00061764
0.000565214
0.000521121
0.000484183
0.000453358
0.00042772
0.000406454
0.000388854
0.00037431
0.000362305
0.000352405
0.000344244
0.000337522
0.000331987
0.000327434
0.00032369
0.000320615
0.000318091
0.000316021
0.000314325
0.000312935
0.000311796
0.000310863
0.000310097
0.000309468
0.00030895
0.000308521
0.000308165
0.000307867
0.000307617
0.000307405
0.000307225
0.000307069
0.000306934
0.000306816
0.000306712
0.00030662
0.000306537
0.000306462
0.000306395
0.000306333
0.000306277
0.000306225
0.000306177
0.000306133
0.000306093
0.000306055
0.00030602
0.000305987
0.000305957
0.000305929
0.000305903
0.000305878
0.000305855
0.000305834
0.000305814
0.000305796
0.000305779
0.000305762
0.000305747
0.000305733
0.00030572
0.000305708
0.000305696
0.000305686
0.000305675
0.000305666
0.000305657
0.000305649
0.000305641
0.000305634
0.000305627
0.00030562
0.000305614
0.000305608
0.000305602
0.000305597
0.000305592
0.000305587
0.000305582
0.000305577
0.000305572
0.000305568
0.000305563
0.000305559
0.000305555
0.000305551
0.000305547
0.000305543
0.00030554
0.000305536
0.000305534
0.000305531
0.000305529
0.000305527
0.000305526
0.000940575
0.000839253
0.00075301
0.000679736
0.000617654
0.000565236
0.000521148
0.000484215
0.000453392
0.000427753
0.000406486
0.000388882
0.000374334
0.000362325
0.000352419
0.000344254
0.000337527
0.000331989
0.000327432
0.000323685
0.000320607
0.000318081
0.00031601
0.000314312
0.000312922
0.000311783
0.00031085
0.000310084
0.000309456
0.000308938
0.00030851
0.000308155
0.000307859
0.00030761
0.000307399
0.00030722
0.000307065
0.000306932
0.000306815
0.000306712
0.00030662
0.000306538
0.000306464
0.000306397
0.000306336
0.00030628
0.000306229
0.000306181
0.000306138
0.000306097
0.000306059
0.000306025
0.000305992
0.000305962
0.000305934
0.000305907
0.000305883
0.00030586
0.000305838
0.000305818
0.0003058
0.000305782
0.000305766
0.000305751
0.000305737
0.000305723
0.000305711
0.000305699
0.000305688
0.000305678
0.000305669
0.00030566
0.000305651
0.000305643
0.000305636
0.000305629
0.000305622
0.000305616
0.00030561
0.000305604
0.000305598
0.000305593
0.000305588
0.000305583
0.000305578
0.000305574
0.000305569
0.000305565
0.00030556
0.000305556
0.000305552
0.000305548
0.000305544
0.000305541
0.000305537
0.000305534
0.000305532
0.00030553
0.000305528
0.000305527
0.000940573
0.000839252
0.000753011
0.000679742
0.000617666
0.000565254
0.000521172
0.000484243
0.000453421
0.000427782
0.000406513
0.000388906
0.000374354
0.00036234
0.00035243
0.000344261
0.00033753
0.000331987
0.000327427
0.000323677
0.000320597
0.000318069
0.000315995
0.000314297
0.000312905
0.000311766
0.000310833
0.000310068
0.00030944
0.000308923
0.000308496
0.000308142
0.000307847
0.0003076
0.00030739
0.000307212
0.000307059
0.000306927
0.000306811
0.000306709
0.000306618
0.000306537
0.000306464
0.000306398
0.000306337
0.000306282
0.000306231
0.000306184
0.00030614
0.0003061
0.000306063
0.000306028
0.000305995
0.000305965
0.000305937
0.000305911
0.000305886
0.000305863
0.000305842
0.000305822
0.000305803
0.000305786
0.000305769
0.000305754
0.000305739
0.000305726
0.000305713
0.000305702
0.000305691
0.00030568
0.000305671
0.000305662
0.000305653
0.000305645
0.000305637
0.00030563
0.000305623
0.000305617
0.000305611
0.000305605
0.000305599
0.000305594
0.000305589
0.000305584
0.000305579
0.000305574
0.00030557
0.000305565
0.000305561
0.000305557
0.000305553
0.000305549
0.000305545
0.000305541
0.000305538
0.000305535
0.000305532
0.00030553
0.000305529
0.000305528
0.000940572
0.00083925
0.000753011
0.000679747
0.000617676
0.000565269
0.000521192
0.000484266
0.000453446
0.000427807
0.000406536
0.000388926
0.00037437
0.000362352
0.000352438
0.000344264
0.000337529
0.000331983
0.000327419
0.000323666
0.000320584
0.000318053
0.000315979
0.000314279
0.000312887
0.000311747
0.000310814
0.00031005
0.000309422
0.000308906
0.00030848
0.000308127
0.000307834
0.000307587
0.000307379
0.000307203
0.000307051
0.00030692
0.000306805
0.000306704
0.000306614
0.000306534
0.000306462
0.000306396
0.000306337
0.000306282
0.000306231
0.000306185
0.000306142
0.000306102
0.000306065
0.00030603
0.000305998
0.000305968
0.00030594
0.000305913
0.000305889
0.000305866
0.000305844
0.000305824
0.000305805
0.000305788
0.000305771
0.000305756
0.000305742
0.000305728
0.000305715
0.000305704
0.000305692
0.000305682
0.000305672
0.000305663
0.000305654
0.000305646
0.000305639
0.000305631
0.000305624
0.000305618
0.000305612
0.000305606
0.0003056
0.000305595
0.00030559
0.000305585
0.00030558
0.000305575
0.00030557
0.000305566
0.000305562
0.000305557
0.000305553
0.000305549
0.000305545
0.000305542
0.000305538
0.000305535
0.000305533
0.000305531
0.000305529
0.000305528
0.000940571
0.000839248
0.000753011
0.00067975
0.000617684
0.000565282
0.000521209
0.000484285
0.000453466
0.000427827
0.000406555
0.000388942
0.000374383
0.000362361
0.000352443
0.000344265
0.000337526
0.000331976
0.000327409
0.000323653
0.000320568
0.000318036
0.000315959
0.000314258
0.000312865
0.000311726
0.000310793
0.000310029
0.000309402
0.000308887
0.000308462
0.00030811
0.000307818
0.000307573
0.000307366
0.000307191
0.00030704
0.00030691
0.000306797
0.000306697
0.000306609
0.00030653
0.000306458
0.000306394
0.000306335
0.00030628
0.000306231
0.000306185
0.000306142
0.000306102
0.000306065
0.000306031
0.000305999
0.000305969
0.000305941
0.000305915
0.00030589
0.000305868
0.000305846
0.000305826
0.000305807
0.00030579
0.000305773
0.000305758
0.000305743
0.00030573
0.000305717
0.000305705
0.000305694
0.000305683
0.000305673
0.000305664
0.000305655
0.000305647
0.000305639
0.000305632
0.000305625
0.000305619
0.000305612
0.000305606
0.000305601
0.000305595
0.00030559
0.000305585
0.00030558
0.000305575
0.000305571
0.000305566
0.000305562
0.000305558
0.000305553
0.000305549
0.000305546
0.000305542
0.000305539
0.000305536
0.000305533
0.000305531
0.000305529
0.000305528
0.00094057
0.000839247
0.000753011
0.000679753
0.00061769
0.000565292
0.000521222
0.000484301
0.000453484
0.000427844
0.00040657
0.000388955
0.000374393
0.000362367
0.000352445
0.000344263
0.00033752
0.000331967
0.000327396
0.000323638
0.00032055
0.000318016
0.000315938
0.000314236
0.000312842
0.000311702
0.000310769
0.000310006
0.000309379
0.000308865
0.000308441
0.000308091
0.0003078
0.000307556
0.000307351
0.000307177
0.000307028
0.000306899
0.000306787
0.000306689
0.000306602
0.000306523
0.000306453
0.000306389
0.000306331
0.000306278
0.000306228
0.000306183
0.000306141
0.000306102
0.000306065
0.000306031
0.000305999
0.000305969
0.000305942
0.000305916
0.000305891
0.000305868
0.000305847
0.000305827
0.000305808
0.000305791
0.000305774
0.000305759
0.000305744
0.00030573
0.000305718
0.000305706
0.000305694
0.000305684
0.000305674
0.000305665
0.000305656
0.000305648
0.00030564
0.000305632
0.000305625
0.000305619
0.000305613
0.000305607
0.000305601
0.000305595
0.00030559
0.000305585
0.00030558
0.000305575
0.000305571
0.000305566
0.000305562
0.000305558
0.000305553
0.00030555
0.000305546
0.000305542
0.000305539
0.000305536
0.000305533
0.000305531
0.00030553
0.000305529
0.000940569
0.000839245
0.00075301
0.000679755
0.000617695
0.000565301
0.000521234
0.000484315
0.000453498
0.000427858
0.000406583
0.000388965
0.0003744
0.000362371
0.000352445
0.000344259
0.000337513
0.000331956
0.000327382
0.000323621
0.000320531
0.000317995
0.000315915
0.000314212
0.000312818
0.000311677
0.000310744
0.000309981
0.000309355
0.000308842
0.000308419
0.00030807
0.00030778
0.000307538
0.000307334
0.000307162
0.000307014
0.000306887
0.000306776
0.000306679
0.000306593
0.000306516
0.000306446
0.000306383
0.000306326
0.000306273
0.000306225
0.00030618
0.000306138
0.0003061
0.000306064
0.00030603
0.000305998
0.000305969
0.000305941
0.000305915
0.000305891
0.000305869
0.000305847
0.000305827
0.000305808
0.000305791
0.000305774
0.000305759
0.000305744
0.000305731
0.000305718
0.000305706
0.000305695
0.000305684
0.000305674
0.000305665
0.000305656
0.000305648
0.00030564
0.000305632
0.000305625
0.000305619
0.000305612
0.000305606
0.000305601
0.000305595
0.00030559
0.000305585
0.00030558
0.000305575
0.000305571
0.000305566
0.000305562
0.000305557
0.000305553
0.000305549
0.000305546
0.000305542
0.000305539
0.000305536
0.000305533
0.000305531
0.00030553
0.000305529
0.000940569
0.000839244
0.000753009
0.000679756
0.000617699
0.000565308
0.000521243
0.000484326
0.00045351
0.00042787
0.000406593
0.000388973
0.000374405
0.000362372
0.000352443
0.000344253
0.000337503
0.000331943
0.000327367
0.000323603
0.00032051
0.000317972
0.000315891
0.000314187
0.000312792
0.000311651
0.000310718
0.000309955
0.00030933
0.000308818
0.000308396
0.000308048
0.000307759
0.000307518
0.000307316
0.000307145
0.000306999
0.000306873
0.000306764
0.000306668
0.000306583
0.000306507
0.000306438
0.000306376
0.00030632
0.000306268
0.00030622
0.000306176
0.000306135
0.000306097
0.000306061
0.000306028
0.000305997
0.000305968
0.00030594
0.000305915
0.00030589
0.000305868
0.000305847
0.000305827
0.000305808
0.000305791
0.000305774
0.000305759
0.000305744
0.000305731
0.000305718
0.000305706
0.000305694
0.000305684
0.000305674
0.000305664
0.000305656
0.000305647
0.000305639
0.000305632
0.000305625
0.000305618
0.000305612
0.000305606
0.0003056
0.000305595
0.000305589
0.000305584
0.000305579
0.000305575
0.00030557
0.000305566
0.000305561
0.000305557
0.000305553
0.000305549
0.000305545
0.000305542
0.000305539
0.000305536
0.000305533
0.000305531
0.000305529
0.000305529
0.000940568
0.000839242
0.000753008
0.000679756
0.000617702
0.000565313
0.000521251
0.000484335
0.00045352
0.000427879
0.0004066
0.000388979
0.000374407
0.000362372
0.000352439
0.000344246
0.000337493
0.000331929
0.00032735
0.000323583
0.000320489
0.000317949
0.000315866
0.000314161
0.000312765
0.000311624
0.000310691
0.000309928
0.000309304
0.000308792
0.000308371
0.000308024
0.000307737
0.000307498
0.000307297
0.000307127
0.000306982
0.000306858
0.00030675
0.000306655
0.000306571
0.000306497
0.000306429
0.000306368
0.000306313
0.000306262
0.000306215
0.000306171
0.000306131
0.000306093
0.000306058
0.000306025
0.000305994
0.000305965
0.000305938
0.000305913
0.000305889
0.000305867
0.000305846
0.000305826
0.000305807
0.00030579
0.000305773
0.000305758
0.000305743
0.00030573
0.000305717
0.000305705
0.000305694
0.000305683
0.000305673
0.000305664
0.000305655
0.000305647
0.000305639
0.000305631
0.000305624
0.000305618
0.000305611
0.000305605
0.000305599
0.000305594
0.000305589
0.000305584
0.000305579
0.000305574
0.000305569
0.000305565
0.000305561
0.000305556
0.000305552
0.000305549
0.000305545
0.000305541
0.000305538
0.000305535
0.000305533
0.000305531
0.000305529
0.000305528
0.000940567
0.000839241
0.000753007
0.000679757
0.000617705
0.000565318
0.000521257
0.000484343
0.000453528
0.000427886
0.000406606
0.000388982
0.000374408
0.00036237
0.000352433
0.000344237
0.000337481
0.000331915
0.000327332
0.000323563
0.000320467
0.000317925
0.000315841
0.000314134
0.000312738
0.000311597
0.000310664
0.000309901
0.000309277
0.000308766
0.000308346
0.000308
0.000307714
0.000307476
0.000307277
0.000307108
0.000306965
0.000306842
0.000306735
0.000306642
0.000306559
0.000306486
0.000306419
0.000306359
0.000306305
0.000306254
0.000306208
0.000306165
0.000306126
0.000306088
0.000306054
0.000306021
0.000305991
0.000305962
0.000305936
0.00030591
0.000305887
0.000305865
0.000305844
0.000305824
0.000305806
0.000305788
0.000305772
0.000305757
0.000305742
0.000305729
0.000305716
0.000305704
0.000305693
0.000305682
0.000305672
0.000305663
0.000305654
0.000305646
0.000305638
0.00030563
0.000305623
0.000305617
0.00030561
0.000305604
0.000305598
0.000305593
0.000305588
0.000305583
0.000305578
0.000305573
0.000305569
0.000305564
0.00030556
0.000305556
0.000305552
0.000305548
0.000305544
0.000305541
0.000305538
0.000305535
0.000305532
0.00030553
0.000305529
0.000305528
0.000940566
0.000839239
0.000753006
0.000679757
0.000617706
0.000565321
0.000521262
0.000484349
0.000453534
0.000427892
0.00040661
0.000388984
0.000374408
0.000362367
0.000352427
0.000344228
0.000337468
0.000331899
0.000327314
0.000323543
0.000320444
0.000317901
0.000315815
0.000314108
0.000312711
0.000311569
0.000310636
0.000309873
0.00030925
0.00030874
0.000308321
0.000307976
0.000307691
0.000307454
0.000307256
0.000307089
0.000306947
0.000306825
0.00030672
0.000306628
0.000306546
0.000306474
0.000306409
0.00030635
0.000306296
0.000306247
0.000306201
0.000306159
0.00030612
0.000306083
0.000306049
0.000306017
0.000305987
0.000305959
0.000305932
0.000305908
0.000305884
0.000305862
0.000305842
0.000305822
0.000305804
0.000305786
0.00030577
0.000305755
0.000305741
0.000305727
0.000305714
0.000305702
0.000305691
0.000305681
0.000305671
0.000305661
0.000305652
0.000305644
0.000305636
0.000305629
0.000305622
0.000305615
0.000305609
0.000305603
0.000305597
0.000305592
0.000305586
0.000305581
0.000305577
0.000305572
0.000305567
0.000305563
0.000305559
0.000305555
0.000305551
0.000305547
0.000305543
0.00030554
0.000305537
0.000305534
0.000305532
0.00030553
0.000305528
0.000305527
0.000940566
0.000839238
0.000753005
0.000679756
0.000617707
0.000565324
0.000521266
0.000484353
0.000453538
0.000427896
0.000406613
0.000388985
0.000374406
0.000362362
0.00035242
0.000344218
0.000337456
0.000331884
0.000327296
0.000323523
0.000320422
0.000317876
0.00031579
0.000314081
0.000312684
0.000311541
0.000310608
0.000309846
0.000309223
0.000308713
0.000308295
0.000307951
0.000307667
0.000307432
0.000307235
0.000307069
0.000306928
0.000306808
0.000306704
0.000306613
0.000306533
0.000306461
0.000306397
0.000306339
0.000306286
0.000306238
0.000306193
0.000306152
0.000306113
0.000306077
0.000306044
0.000306012
0.000305983
0.000305955
0.000305929
0.000305904
0.000305881
0.000305859
0.000305839
0.00030582
0.000305801
0.000305784
0.000305768
0.000305753
0.000305739
0.000305725
0.000305713
0.000305701
0.000305689
0.000305679
0.000305669
0.00030566
0.000305651
0.000305643
0.000305635
0.000305627
0.00030562
0.000305614
0.000305607
0.000305601
0.000305596
0.00030559
0.000305585
0.00030558
0.000305575
0.000305571
0.000305566
0.000305562
0.000305558
0.000305554
0.00030555
0.000305546
0.000305543
0.000305539
0.000305536
0.000305533
0.000305531
0.000305529
0.000305528
0.000305527
0.000940565
0.000839237
0.000753004
0.000679756
0.000617708
0.000565326
0.000521269
0.000484357
0.000453542
0.000427899
0.000406615
0.000388985
0.000374404
0.000362357
0.000352412
0.000344207
0.000337442
0.000331868
0.000327278
0.000323502
0.000320399
0.000317853
0.000315765
0.000314055
0.000312657
0.000311514
0.000310581
0.000309818
0.000309196
0.000308687
0.00030827
0.000307927
0.000307644
0.000307409
0.000307214
0.000307049
0.00030691
0.00030679
0.000306688
0.000306598
0.000306519
0.000306449
0.000306386
0.000306329
0.000306277
0.000306229
0.000306185
0.000306144
0.000306106
0.000306071
0.000306038
0.000306007
0.000305978
0.00030595
0.000305925
0.0003059
0.000305878
0.000305856
0.000305836
0.000305817
0.000305799
0.000305782
0.000305766
0.000305751
0.000305736
0.000305723
0.00030571
0.000305699
0.000305687
0.000305677
0.000305667
0.000305658
0.000305649
0.000305641
0.000305633
0.000305626
0.000305619
0.000305612
0.000305606
0.0003056
0.000305594
0.000305589
0.000305583
0.000305579
0.000305574
0.000305569
0.000305565
0.00030556
0.000305556
0.000305552
0.000305549
0.000305545
0.000305541
0.000305538
0.000305535
0.000305533
0.00030553
0.000305528
0.000305527
0.000305526
0.000940565
0.000839236
0.000753002
0.000679755
0.000617708
0.000565327
0.000521271
0.00048436
0.000453545
0.000427901
0.000406615
0.000388984
0.000374401
0.000362352
0.000352404
0.000344197
0.000337429
0.000331852
0.00032726
0.000323482
0.000320377
0.000317829
0.00031574
0.000314029
0.00031263
0.000311487
0.000310553
0.000309792
0.000309169
0.000308661
0.000308244
0.000307902
0.00030762
0.000307387
0.000307192
0.000307029
0.000306891
0.000306773
0.000306671
0.000306583
0.000306505
0.000306436
0.000306374
0.000306318
0.000306267
0.00030622
0.000306177
0.000306137
0.000306099
0.000306064
0.000306032
0.000306001
0.000305973
0.000305946
0.00030592
0.000305896
0.000305874
0.000305852
0.000305832
0.000305813
0.000305796
0.000305779
0.000305763
0.000305748
0.000305734
0.000305721
0.000305708
0.000305696
0.000305685
0.000305675
0.000305665
0.000305656
0.000305647
0.000305639
0.000305631
0.000305624
0.000305617
0.00030561
0.000305604
0.000305598
0.000305592
0.000305587
0.000305582
0.000305577
0.000305572
0.000305568
0.000305563
0.000305559
0.000305555
0.000305551
0.000305547
0.000305544
0.00030554
0.000305537
0.000305534
0.000305532
0.000305529
0.000305527
0.000305526
0.000305525
0.000940564
0.000839234
0.000753001
0.000679754
0.000617708
0.000565328
0.000521273
0.000484362
0.000453546
0.000427902
0.000406615
0.000388982
0.000374397
0.000362345
0.000352396
0.000344186
0.000337416
0.000331836
0.000327242
0.000323462
0.000320356
0.000317806
0.000315716
0.000314004
0.000312604
0.000311461
0.000310527
0.000309765
0.000309143
0.000308635
0.000308219
0.000307878
0.000307597
0.000307365
0.000307171
0.000307009
0.000306872
0.000306755
0.000306655
0.000306567
0.000306491
0.000306423
0.000306362
0.000306306
0.000306256
0.00030621
0.000306168
0.000306128
0.000306092
0.000306058
0.000306026
0.000305996
0.000305967
0.000305941
0.000305916
0.000305892
0.00030587
0.000305849
0.000305829
0.00030581
0.000305792
0.000305776
0.00030576
0.000305745
0.000305731
0.000305718