/*--------------------------------*- C++ -*----------------------------------*\
  =========                 |
  \\      /  F ield         | OpenFOAM: The Open Source CFD Toolbox
   \\    /   O peration     | Website:  https://openfoam.org
    \\  /    A nd           | Version:  11
     \\/     M anipulation  |
\*---------------------------------------------------------------------------*/
FoamFile
{
    format      ascii;
    class       surfaceScalarField;
    location    "28";
    object      phi;
}
// * * * * * * * * * * * * * * * * * * * * * * * * * * * * * * * * * * * * * //

dimensions      [0 3 -1 0 0 0 0];

internalField   nonuniform List<scalar> 
19800
(
1.98818e-05
-8.13818e-07
1.96844e-05
-2.39691e-06
1.94344e-05
-3.94469e-06
1.91376e-05
-5.45297e-06
1.88004e-05
-6.92014e-06
1.84286e-05
-8.33696e-06
1.80273e-05
-9.69002e-06
1.76013e-05
-1.09651e-05
1.71551e-05
-1.21497e-05
1.66932e-05
-1.3234e-05
1.62196e-05
-1.42118e-05
1.57381e-05
-1.50801e-05
1.52517e-05
-1.58388e-05
1.47635e-05
-1.64899e-05
1.42762e-05
-1.70371e-05
1.37929e-05
-1.74852e-05
1.33164e-05
-1.78397e-05
1.28396e-05
-1.81043e-05
1.23501e-05
-1.82845e-05
1.18577e-05
-1.83889e-05
1.13817e-05
-1.84271e-05
1.09313e-05
-1.84006e-05
1.05002e-05
-1.83111e-05
1.00799e-05
-1.81665e-05
9.66897e-06
-1.79753e-05
9.26894e-06
-1.77435e-05
8.88085e-06
-1.74758e-05
8.50531e-06
-1.71773e-05
8.14277e-06
-1.68526e-05
7.79351e-06
-1.65063e-05
7.45768e-06
-1.61426e-05
7.1353e-06
-1.57652e-05
6.82633e-06
-1.53776e-05
6.53062e-06
-1.4983e-05
6.24795e-06
-1.45839e-05
5.97808e-06
-1.41828e-05
5.72066e-06
-1.37819e-05
5.47536e-06
-1.33827e-05
5.24178e-06
-1.29869e-05
5.0195e-06
-1.25956e-05
4.80812e-06
-1.22099e-05
4.60717e-06
-1.18307e-05
4.41623e-06
-1.14585e-05
4.23485e-06
-1.10939e-05
4.0626e-06
-1.07372e-05
3.89903e-06
-1.03887e-05
3.74373e-06
-1.00486e-05
3.59628e-06
-9.71688e-06
3.45629e-06
-9.39368e-06
3.32338e-06
-9.07892e-06
3.19718e-06
-8.77252e-06
3.07733e-06
-8.47436e-06
2.96351e-06
-8.1843e-06
2.8554e-06
-7.90217e-06
2.75268e-06
-7.6278e-06
2.65509e-06
-7.36097e-06
2.56234e-06
-7.10148e-06
2.47419e-06
-6.84911e-06
2.39039e-06
-6.60365e-06
2.31072e-06
-6.36488e-06
2.23497e-06
-6.13257e-06
2.16294e-06
-5.90651e-06
2.09444e-06
-5.68648e-06
2.02929e-06
-5.47226e-06
1.96734e-06
-5.26366e-06
1.90842e-06
-5.06047e-06
1.8524e-06
-4.8625e-06
1.79915e-06
-4.66956e-06
1.74853e-06
-4.48148e-06
1.70042e-06
-4.29809e-06
1.65472e-06
-4.11923e-06
1.61133e-06
-3.94476e-06
1.57015e-06
-3.77456e-06
1.53108e-06
-3.60849e-06
1.49404e-06
-3.44647e-06
1.45895e-06
-3.28842e-06
1.42575e-06
-3.13426e-06
1.39435e-06
-2.98396e-06
1.36468e-06
-2.8375e-06
1.3367e-06
-2.69488e-06
1.31034e-06
-2.55613e-06
1.28554e-06
-2.42132e-06
1.26226e-06
-2.29053e-06
1.24043e-06
-2.16389e-06
1.22003e-06
-2.04156e-06
1.201e-06
-1.92372e-06
1.1833e-06
-1.81061e-06
1.1669e-06
-1.70247e-06
1.15176e-06
-1.59963e-06
1.13784e-06
-1.50241e-06
1.12513e-06
-1.4112e-06
1.1136e-06
-1.3264e-06
1.10323e-06
-1.24847e-06
1.09401e-06
-1.17792e-06
1.08592e-06
-1.11528e-06
1.07898e-06
-1.06114e-06
1.07319e-06
-1.01617e-06
1.06855e-06
-9.81103e-07
1.06502e-06
-9.56932e-07
-9.44222e-07
1.99124e-05
-7.26248e-07
1.97273e-05
-2.21175e-06
1.94789e-05
-3.69632e-06
1.91819e-05
-5.15596e-06
1.88443e-05
-6.58257e-06
1.84721e-05
-7.96473e-06
1.80703e-05
-9.2882e-06
1.76436e-05
-1.05385e-05
1.71968e-05
-1.17029e-05
1.6734e-05
-1.27713e-05
1.62595e-05
-1.37373e-05
1.57768e-05
-1.45974e-05
1.5289e-05
-1.5351e-05
1.47989e-05
-1.59998e-05
1.43088e-05
-1.6547e-05
1.38204e-05
-1.69968e-05
1.3334e-05
-1.73533e-05
1.28503e-05
-1.76206e-05
1.23711e-05
-1.78053e-05
1.19001e-05
-1.79179e-05
1.14371e-05
-1.79641e-05
1.0984e-05
-1.79475e-05
1.05439e-05
-1.78711e-05
1.01176e-05
-1.77401e-05
9.70385e-06
-1.75616e-05
9.30242e-06
-1.73421e-05
8.91352e-06
-1.70869e-05
8.53751e-06
-1.68013e-05
8.17466e-06
-1.64898e-05
7.82518e-06
-1.61568e-05
7.48916e-06
-1.58066e-05
7.16662e-06
-1.54427e-05
6.85746e-06
-1.50685e-05
6.56156e-06
-1.4687e-05
6.27868e-06
-1.4301e-05
6.00855e-06
-1.39127e-05
5.75086e-06
-1.35242e-05
5.50525e-06
-1.31371e-05
5.27132e-06
-1.27529e-05
5.04868e-06
-1.2373e-05
4.83689e-06
-1.19982e-05
4.63551e-06
-1.16293e-05
4.44412e-06
-1.12671e-05
4.26226e-06
-1.0912e-05
4.08951e-06
-1.05644e-05
3.92543e-06
-1.02246e-05
3.7696e-06
-9.89273e-06
3.62162e-06
-9.5689e-06
3.48109e-06
-9.25315e-06
3.34764e-06
-8.94546e-06
3.22089e-06
-8.64576e-06
3.10049e-06
-8.35396e-06
2.98613e-06
-8.06993e-06
2.87747e-06
-7.79352e-06
2.77422e-06
-7.52455e-06
2.6761e-06
-7.26284e-06
2.58283e-06
-7.00821e-06
2.49416e-06
-6.76045e-06
2.40986e-06
-6.51935e-06
2.32971e-06
-6.28472e-06
2.25347e-06
-6.05634e-06
2.18097e-06
-5.83401e-06
2.11202e-06
-5.61752e-06
2.04643e-06
-5.40668e-06
1.98405e-06
-5.20128e-06
1.92473e-06
-5.00114e-06
1.86831e-06
-4.80608e-06
1.81467e-06
-4.61592e-06
1.76368e-06
-4.43049e-06
1.71522e-06
-4.24963e-06
1.66918e-06
-4.07319e-06
1.62546e-06
-3.90104e-06
1.58396e-06
-3.73306e-06
1.54459e-06
-3.56912e-06
1.50727e-06
-3.40915e-06
1.47191e-06
-3.25306e-06
1.43844e-06
-3.10079e-06
1.40679e-06
-2.95231e-06
1.37689e-06
-2.8076e-06
1.34869e-06
-2.66667e-06
1.32212e-06
-2.52956e-06
1.29712e-06
-2.39632e-06
1.27365e-06
-2.26706e-06
1.25165e-06
-2.1419e-06
1.23108e-06
-2.02099e-06
1.2119e-06
-1.90454e-06
1.19406e-06
-1.79276e-06
1.17752e-06
-1.68594e-06
1.16225e-06
-1.58436e-06
1.14821e-06
-1.48838e-06
1.13538e-06
-1.39837e-06
1.12373e-06
-1.31475e-06
1.11324e-06
-1.23798e-06
1.10388e-06
-1.16857e-06
1.09565e-06
-1.10705e-06
1.08853e-06
-1.05402e-06
1.0825e-06
-1.01014e-06
1.0775e-06
-9.76102e-07
1.07328e-06
-9.52713e-07
-9.40683e-07
1.99355e-05
-6.61709e-07
1.97712e-05
-2.04748e-06
1.95351e-05
-3.46023e-06
1.92454e-05
-4.86622e-06
1.89123e-05
-6.24952e-06
1.8543e-05
-7.5954e-06
1.8143e-05
-8.88824e-06
1.77175e-05
-1.0113e-05
1.72712e-05
-1.12565e-05
1.68084e-05
-1.23086e-05
1.63334e-05
-1.32622e-05
1.58496e-05
-1.41136e-05
1.53604e-05
-1.48617e-05
1.48683e-05
-1.55077e-05
1.43755e-05
-1.60543e-05
1.38839e-05
-1.65051e-05
1.3395e-05
-1.68644e-05
1.29113e-05
-1.71369e-05
1.24351e-05
-1.73291e-05
1.19665e-05
-1.74493e-05
1.15057e-05
-1.75033e-05
1.10539e-05
-1.74957e-05
1.06128e-05
-1.74301e-05
1.01841e-05
-1.73114e-05
9.76815e-06
-1.71457e-05
9.36508e-06
-1.6939e-05
8.97502e-06
-1.66969e-05
8.59816e-06
-1.64244e-05
8.23468e-06
-1.61263e-05
7.88469e-06
-1.58068e-05
7.54823e-06
-1.54701e-05
7.22526e-06
-1.51197e-05
6.91569e-06
-1.47589e-05
6.61935e-06
-1.43907e-05
6.336e-06
-1.40177e-05
6.06537e-06
-1.36421e-05
5.80712e-06
-1.32659e-05
5.56091e-06
-1.28909e-05
5.32633e-06
-1.25184e-05
5.10298e-06
-1.21496e-05
4.89043e-06
-1.17856e-05
4.68826e-06
-1.14271e-05
4.49603e-06
-1.10749e-05
4.3133e-06
-1.07293e-05
4.13965e-06
-1.03908e-05
3.97464e-06
-1.00596e-05
3.81786e-06
-9.73595e-06
3.66891e-06
-9.41995e-06
3.5274e-06
-9.11164e-06
3.39296e-06
-8.81101e-06
3.26521e-06
-8.51802e-06
3.14383e-06
-8.23258e-06
3.02847e-06
-7.95458e-06
2.91883e-06
-7.68388e-06
2.81461e-06
-7.42032e-06
2.71552e-06
-7.16376e-06
2.62131e-06
-6.91399e-06
2.53171e-06
-6.67085e-06
2.4465e-06
-6.43414e-06
2.36544e-06
-6.20367e-06
2.28834e-06
-5.97924e-06
2.21499e-06
-5.76066e-06
2.1452e-06
-5.54774e-06
2.07881e-06
-5.34029e-06
2.01565e-06
-5.13812e-06
1.95556e-06
-4.94106e-06
1.89841e-06
-4.74893e-06
1.84407e-06
-4.56157e-06
1.79239e-06
-4.37881e-06
1.74327e-06
-4.20051e-06
1.6966e-06
-4.02652e-06
1.65228e-06
-3.85671e-06
1.61019e-06
-3.69097e-06
1.57027e-06
-3.5292e-06
1.53241e-06
-3.37129e-06
1.49654e-06
-3.21719e-06
1.46259e-06
-3.06684e-06
1.43048e-06
-2.9202e-06
1.40015e-06
-2.77727e-06
1.37153e-06
-2.63805e-06
1.34457e-06
-2.50259e-06
1.3192e-06
-2.37096e-06
1.29538e-06
-2.24324e-06
1.27306e-06
-2.11957e-06
1.25218e-06
-2.00011e-06
1.2327e-06
-1.88506e-06
1.21458e-06
-1.77465e-06
1.19779e-06
-1.66914e-06
1.18227e-06
-1.56884e-06
1.16799e-06
-1.4741e-06
1.15493e-06
-1.3853e-06
1.14304e-06
-1.30286e-06
1.1323e-06
-1.22724e-06
1.12267e-06
-1.15894e-06
1.11413e-06
-1.0985e-06
1.10663e-06
-1.04652e-06
1.10009e-06
-1.0036e-06
1.09442e-06
-9.70425e-07
1.08937e-06
-9.47671e-07
-9.36073e-07
1.99485e-05
-6.10184e-07
1.98046e-05
-1.90363e-06
1.95865e-05
-3.24208e-06
1.93102e-05
-4.58995e-06
1.8987e-05
-5.92633e-06
1.8625e-05
-7.23333e-06
1.82304e-05
-8.4937e-06
1.78089e-05
-9.69151e-06
1.73655e-05
-1.08131e-05
1.69048e-05
-1.18478e-05
1.64309e-05
-1.27883e-05
1.59476e-05
-1.36303e-05
1.5458e-05
-1.43722e-05
1.49652e-05
-1.50149e-05
1.44714e-05
-1.55605e-05
1.39787e-05
-1.60125e-05
1.34893e-05
-1.6375e-05
1.30054e-05
-1.6653e-05
1.25289e-05
-1.68527e-05
1.20604e-05
-1.69808e-05
1.16e-05
-1.7043e-05
1.11485e-05
-1.70441e-05
1.07072e-05
-1.69887e-05
1.02775e-05
-1.68817e-05
9.86028e-06
-1.67285e-05
9.45599e-06
-1.65347e-05
9.06486e-06
-1.63057e-05
8.68708e-06
-1.60466e-05
8.3228e-06
-1.5762e-05
7.97207e-06
-1.54561e-05
7.63491e-06
-1.51329e-05
7.31125e-06
-1.4796e-05
7.00097e-06
-1.44486e-05
6.70388e-06
-1.40936e-05
6.41973e-06
-1.37335e-05
6.14824e-06
-1.33706e-05
5.88907e-06
-1.30067e-05
5.64186e-06
-1.26437e-05
5.40623e-06
-1.22827e-05
5.18177e-06
-1.19252e-05
4.96805e-06
-1.15719e-05
4.76466e-06
-1.12237e-05
4.57115e-06
-1.08814e-05
4.38711e-06
-1.05452e-05
4.2121e-06
-1.02158e-05
4.0457e-06
-9.8932e-06
3.88752e-06
-9.57777e-06
3.73714e-06
-9.26958e-06
3.5942e-06
-8.96869e-06
3.45831e-06
-8.67512e-06
3.32912e-06
-8.38883e-06
3.20629e-06
-8.10975e-06
3.0895e-06
-7.83779e-06
2.97844e-06
-7.57281e-06
2.87281e-06
-7.3147e-06
2.77234e-06
-7.06328e-06
2.67676e-06
-6.81842e-06
2.58583e-06
-6.57992e-06
2.4993e-06
-6.34761e-06
2.41696e-06
-6.12133e-06
2.33861e-06
-5.90088e-06
2.26403e-06
-5.68608e-06
2.19306e-06
-5.47676e-06
2.12552e-06
-5.27274e-06
2.06124e-06
-5.07384e-06
2.00007e-06
-4.87989e-06
1.94187e-06
-4.69074e-06
1.88651e-06
-4.50621e-06
1.83386e-06
-4.32616e-06
1.7838e-06
-4.15045e-06
1.73623e-06
-3.97894e-06
1.69103e-06
-3.81152e-06
1.64812e-06
-3.64806e-06
1.60739e-06
-3.48847e-06
1.56877e-06
-3.33267e-06
1.53218e-06
-3.1806e-06
1.49753e-06
-3.03219e-06
1.46476e-06
-2.88743e-06
1.4338e-06
-2.74631e-06
1.40459e-06
-2.60884e-06
1.37706e-06
-2.47507e-06
1.35117e-06
-2.34506e-06
1.32684e-06
-2.21892e-06
1.30404e-06
-2.09677e-06
1.28272e-06
-1.97879e-06
1.26282e-06
-1.86516e-06
1.2443e-06
-1.75613e-06
1.22712e-06
-1.65196e-06
1.21123e-06
-1.55296e-06
1.1966e-06
-1.45947e-06
1.18319e-06
-1.37189e-06
1.17095e-06
-1.29062e-06
1.15984e-06
-1.21613e-06
1.14982e-06
-1.14892e-06
1.14083e-06
-1.08951e-06
1.1328e-06
-1.03849e-06
1.12564e-06
-9.96443e-07
1.11921e-06
-9.6399e-07
1.1133e-06
-9.41764e-07
-9.30462e-07
1.99566e-05
-5.66742e-07
1.98298e-05
-1.77685e-06
1.96301e-05
-3.04243e-06
1.93703e-05
-4.33012e-06
1.90607e-05
-5.61676e-06
1.87097e-05
-6.88228e-06
1.8324e-05
-8.108e-06
1.79096e-05
-9.27709e-06
1.74717e-05
-1.03753e-05
1.70153e-05
-1.13914e-05
1.65446e-05
-1.23176e-05
1.60635e-05
-1.31492e-05
1.55755e-05
-1.38842e-05
1.50835e-05
-1.45228e-05
1.45901e-05
-1.50671e-05
1.40977e-05
-1.55201e-05
1.36086e-05
-1.58859e-05
1.31248e-05
-1.61693e-05
1.26481e-05
-1.63759e-05
1.2179e-05
-1.65117e-05
1.17183e-05
-1.65823e-05
1.12667e-05
-1.65925e-05
1.08253e-05
-1.65473e-05
1.03952e-05
-1.64516e-05
9.97725e-06
-1.63105e-05
9.5721e-06
-1.61295e-05
9.18008e-06
-1.59137e-05
8.80143e-06
-1.5668e-05
8.43627e-06
-1.53968e-05
8.08467e-06
-1.51045e-05
7.74663e-06
-1.47949e-05
7.42205e-06
-1.44715e-05
7.1108e-06
-1.41374e-05
6.81268e-06
-1.37955e-05
6.52742e-06
-1.34483e-05
6.25475e-06
-1.30979e-05
5.99432e-06
-1.27463e-05
5.74578e-06
-1.23951e-05
5.50873e-06
-1.20457e-05
5.28277e-06
-1.16992e-05
5.0675e-06
-1.13566e-05
4.86249e-06
-1.10187e-05
4.66731e-06
-1.06862e-05
4.48154e-06
-1.03595e-05
4.30477e-06
-1.0039e-05
4.13658e-06
-9.72501e-06
3.97657e-06
-9.41776e-06
3.82436e-06
-9.11737e-06
3.67957e-06
-8.8239e-06
3.54183e-06
-8.53738e-06
3.41079e-06
-8.2578e-06
3.28612e-06
-7.98508e-06
3.1675e-06
-7.71917e-06
3.05463e-06
-7.45994e-06
2.94722e-06
-7.20728e-06
2.84498e-06
-6.96105e-06
2.74767e-06
-6.7211e-06
2.65504e-06
-6.48728e-06
2.56685e-06
-6.25942e-06
2.48288e-06
-6.03736e-06
2.40293e-06
-5.82093e-06
2.32681e-06
-5.60996e-06
2.25433e-06
-5.40428e-06
2.18533e-06
-5.20373e-06
2.11963e-06
-5.00814e-06
2.05708e-06
-4.81735e-06
1.99756e-06
-4.63121e-06
1.94091e-06
-4.44956e-06
1.88702e-06
-4.27227e-06
1.83577e-06
-4.0992e-06
1.78705e-06
-3.93022e-06
1.74075e-06
-3.76522e-06
1.69678e-06
-3.60409e-06
1.65504e-06
-3.44674e-06
1.61545e-06
-3.29309e-06
1.57793e-06
-3.14308e-06
1.5424e-06
-2.99667e-06
1.50879e-06
-2.85382e-06
1.47703e-06
-2.71455e-06
1.44706e-06
-2.57887e-06
1.41882e-06
-2.44682e-06
1.39224e-06
-2.31848e-06
1.36727e-06
-2.19395e-06
1.34386e-06
-2.07336e-06
1.32196e-06
-1.95688e-06
1.30151e-06
-1.84471e-06
1.28248e-06
-1.73709e-06
1.2648e-06
-1.63428e-06
1.24844e-06
-1.5366e-06
1.23335e-06
-1.44438e-06
1.21948e-06
-1.35802e-06
1.20678e-06
-1.27792e-06
1.1952e-06
-1.20455e-06
1.18468e-06
-1.1384e-06
1.17515e-06
-1.07998e-06
1.16651e-06
-1.02985e-06
1.15865e-06
-9.88586e-07
1.15143e-06
-9.56766e-07
1.14465e-06
-9.34988e-07
-9.23916e-07
1.99622e-05
-5.2897e-07
1.98491e-05
-1.66377e-06
1.96667e-05
-2.85993e-06
1.9424e-05
-4.08748e-06
1.91301e-05
-5.32284e-06
1.87926e-05
-6.54485e-06
1.84185e-05
-7.73389e-06
1.80139e-05
-8.8724e-06
1.75841e-05
-9.94552e-06
1.71343e-05
-1.09416e-05
1.66689e-05
-1.18522e-05
1.6192e-05
-1.26723e-05
1.57072e-05
-1.33994e-05
1.52176e-05
-1.40333e-05
1.47262e-05
-1.45756e-05
1.42353e-05
-1.50292e-05
1.37472e-05
-1.53979e-05
1.32641e-05
-1.56861e-05
1.27875e-05
-1.58992e-05
1.23183e-05
-1.60426e-05
1.18575e-05
-1.61215e-05
1.14059e-05
-1.61409e-05
1.09645e-05
-1.61059e-05
1.05341e-05
-1.60213e-05
1.01158e-05
-1.58922e-05
9.71007e-06
-1.57238e-05
9.31734e-06
-1.5521e-05
8.93788e-06
-1.52885e-05
8.57185e-06
-1.50308e-05
8.21932e-06
-1.4752e-05
7.88027e-06
-1.44558e-05
7.55461e-06
-1.41458e-05
7.24219e-06
-1.3825e-05
6.94281e-06
-1.34961e-05
6.6562e-06
-1.31617e-05
6.38208e-06
-1.28238e-05
6.12011e-06
-1.24843e-05
5.86993e-06
-1.21449e-05
5.63115e-06
-1.18069e-05
5.40339e-06
-1.14714e-05
5.18623e-06
-1.11395e-05
4.97926e-06
-1.08118e-05
4.78207e-06
-1.0489e-05
4.59423e-06
-1.01716e-05
4.41535e-06
-9.8601e-06
4.24502e-06
-9.55468e-06
4.08285e-06
-9.25559e-06
3.92845e-06
-8.96297e-06
3.78146e-06
-8.67691e-06
3.64152e-06
-8.39744e-06
3.50829e-06
-8.12456e-06
3.38144e-06
-7.85823e-06
3.26066e-06
-7.59838e-06
3.14564e-06
-7.34492e-06
3.03611e-06
-7.09775e-06
2.93179e-06
-6.85673e-06
2.83243e-06
-6.62174e-06
2.73778e-06
-6.39264e-06
2.64762e-06
-6.16926e-06
2.56173e-06
-5.95147e-06
2.47991e-06
-5.73911e-06
2.40195e-06
-5.53201e-06
2.32769e-06
-5.33002e-06
2.25695e-06
-5.13299e-06
2.18957e-06
-4.94076e-06
2.1254e-06
-4.75318e-06
2.0643e-06
-4.57011e-06
2.00613e-06
-4.3914e-06
1.95078e-06
-4.21691e-06
1.89811e-06
-4.04653e-06
1.84802e-06
-3.88014e-06
1.80042e-06
-3.71761e-06
1.75519e-06
-3.55886e-06
1.71225e-06
-3.40379e-06
1.67151e-06
-3.25235e-06
1.63289e-06
-3.10446e-06
1.59631e-06
-2.96009e-06
1.5617e-06
-2.81922e-06
1.52899e-06
-2.68184e-06
1.49811e-06
-2.54799e-06
1.46901e-06
-2.41772e-06
1.44162e-06
-2.29109e-06
1.41588e-06
-2.16821e-06
1.39174e-06
-2.04922e-06
1.36915e-06
-1.93429e-06
1.34805e-06
-1.82361e-06
1.32839e-06
-1.71743e-06
1.31012e-06
-1.61601e-06
1.29318e-06
-1.51966e-06
1.27754e-06
-1.42873e-06
1.26312e-06
-1.3436e-06
1.24987e-06
-1.26468e-06
1.23773e-06
-1.19241e-06
1.22663e-06
-1.12729e-06
1.21647e-06
-1.06982e-06
1.20716e-06
-1.02054e-06
1.19857e-06
-9.79996e-07
1.19055e-06
-9.48747e-07
1.18292e-06
-9.27362e-07
-9.16485e-07
1.99663e-05
-4.95304e-07
1.98644e-05
-1.56187e-06
1.96973e-05
-2.69279e-06
1.94714e-05
-3.86155e-06
1.91938e-05
-5.04526e-06
1.88714e-05
-6.22251e-06
1.85108e-05
-7.37328e-06
1.8118e-05
-8.47953e-06
1.76984e-05
-9.52596e-06
1.72572e-05
-1.05004e-05
1.67992e-05
-1.13941e-05
1.63283e-05
-1.22015e-05
1.58485e-05
-1.29196e-05
1.5363e-05
-1.35478e-05
1.48748e-05
-1.40874e-05
1.43866e-05
-1.4541e-05
1.39006e-05
-1.49119e-05
1.34189e-05
-1.52045e-05
1.29431e-05
-1.54235e-05
1.24745e-05
-1.5574e-05
1.20141e-05
-1.5661e-05
1.15628e-05
-1.56896e-05
1.11215e-05
-1.56646e-05
1.06913e-05
-1.5591e-05
1.02728e-05
-1.54737e-05
9.86672e-06
-1.53177e-05
9.47345e-06
-1.51277e-05
9.09331e-06
-1.49084e-05
8.72645e-06
-1.4664e-05
8.37297e-06
-1.43985e-05
8.03285e-06
-1.41157e-05
7.706e-06
-1.3819e-05
7.39228e-06
-1.35112e-05
7.09146e-06
-1.31953e-05
6.80331e-06
-1.28735e-05
6.52753e-06
-1.2548e-05
6.26378e-06
-1.22206e-05
6.01172e-06
-1.18929e-05
5.77096e-06
-1.15662e-05
5.54113e-06
-1.12416e-05
5.32181e-06
-1.09201e-05
5.11261e-06
-1.06026e-05
4.91312e-06
-1.02895e-05
4.72294e-06
-9.98145e-06
4.54166e-06
-9.67882e-06
4.36889e-06
-9.38192e-06
4.20426e-06
-9.09096e-06
4.04738e-06
-8.8061e-06
3.89791e-06
-8.52743e-06
3.75548e-06
-8.25502e-06
3.61976e-06
-7.98885e-06
3.49044e-06
-7.72891e-06
3.36721e-06
-7.47515e-06
3.24977e-06
-7.22748e-06
3.13785e-06
-6.98582e-06
3.03117e-06
-6.75006e-06
2.92949e-06
-6.52006e-06
2.83257e-06
-6.29571e-06
2.74018e-06
-6.07687e-06
2.65211e-06
-5.8634e-06
2.56815e-06
-5.65515e-06
2.48813e-06
-5.45198e-06
2.41185e-06
-5.25374e-06
2.33914e-06
-5.06029e-06
2.26986e-06
-4.87148e-06
2.20385e-06
-4.68717e-06
2.14096e-06
-4.50722e-06
2.08106e-06
-4.3315e-06
2.02404e-06
-4.15989e-06
1.96977e-06
-3.99226e-06
1.91813e-06
-3.8285e-06
1.86904e-06
-3.66851e-06
1.82238e-06
-3.5122e-06
1.77807e-06
-3.35948e-06
1.73602e-06
-3.2103e-06
1.69615e-06
-3.06458e-06
1.65837e-06
-2.92231e-06
1.62262e-06
-2.78346e-06
1.58882e-06
-2.64805e-06
1.55692e-06
-2.51609e-06
1.52683e-06
-2.38763e-06
1.49851e-06
-2.26277e-06
1.47189e-06
-2.14159e-06
1.44691e-06
-2.02425e-06
1.42353e-06
-1.9109e-06
1.40167e-06
-1.80176e-06
1.38129e-06
-1.69705e-06
1.36234e-06
-1.59706e-06
1.34475e-06
-1.50207e-06
1.32846e-06
-1.41245e-06
1.31341e-06
-1.32855e-06
1.29954e-06
-1.25081e-06
1.28677e-06
-1.17964e-06
1.27502e-06
-1.11554e-06
1.26419e-06
-1.05899e-06
1.25417e-06
-1.01052e-06
1.24482e-06
-9.70653e-07
1.23601e-06
-9.39933e-07
1.22756e-06
-9.18908e-07
-9.08209e-07
1.99695e-05
-4.64809e-07
1.98769e-05
-1.46923e-06
1.97233e-05
-2.53921e-06
1.9513e-05
-3.65131e-06
1.92517e-05
-4.78386e-06
1.8945e-05
-5.91586e-06
1.8599e-05
-7.02729e-06
1.82194e-05
-8.09994e-06
1.78117e-05
-9.11823e-06
1.73809e-05
-1.00697e-05
1.69319e-05
-1.09451e-05
1.64688e-05
-1.17384e-05
1.59955e-05
-1.24463e-05
1.55156e-05
-1.30679e-05
1.5032e-05
-1.36039e-05
1.45476e-05
-1.40565e-05
1.40647e-05
-1.4429e-05
1.35853e-05
-1.47251e-05
1.31113e-05
-1.49495e-05
1.2644e-05
-1.51067e-05
1.21846e-05
-1.52016e-05
1.1734e-05
-1.52391e-05
1.12934e-05
-1.5224e-05
1.08635e-05
-1.51611e-05
1.04452e-05
-1.50554e-05
1.0039e-05
-1.49115e-05
9.64537e-06
-1.47341e-05
9.26467e-06
-1.45277e-05
8.89708e-06
-1.42964e-05
8.54268e-06
-1.40441e-05
8.20148e-06
-1.37745e-05
7.87339e-06
-1.34909e-05
7.55827e-06
-1.31961e-05
7.25591e-06
-1.28929e-05
6.96608e-06
-1.25837e-05
6.68847e-06
-1.22704e-05
6.42278e-06
-1.19549e-05
6.16865e-06
-1.16387e-05
5.92571e-06
-1.13232e-05
5.69359e-06
-1.10095e-05
5.47191e-06
-1.06985e-05
5.26025e-06
-1.03909e-05
5.05824e-06
-1.00875e-05
4.86547e-06
-9.78868e-06
4.68156e-06
-9.49491e-06
4.50613e-06
-9.20648e-06
4.33879e-06
-8.92362e-06
4.1792e-06
-8.6465e-06
4.027e-06
-8.37523e-06
3.88184e-06
-8.10986e-06
3.74341e-06
-7.85042e-06
3.61139e-06
-7.59689e-06
3.48547e-06
-7.34923e-06
3.36537e-06
-7.10739e-06
3.25082e-06
-6.87127e-06
3.14156e-06
-6.64079e-06
3.03734e-06
-6.41584e-06
2.93792e-06
-6.1963e-06
2.84309e-06
-5.98204e-06
2.75263e-06
-5.77294e-06
2.66634e-06
-5.56886e-06
2.58404e-06
-5.36968e-06
2.50554e-06
-5.17525e-06
2.43068e-06
-4.98543e-06
2.35931e-06
-4.8001e-06
2.29126e-06
-4.61912e-06
2.22641e-06
-4.44237e-06
2.16461e-06
-4.26971e-06
2.10575e-06
-4.10103e-06
2.04971e-06
-3.93622e-06
1.99637e-06
-3.77517e-06
1.94564e-06
-3.61778e-06
1.89741e-06
-3.46397e-06
1.85159e-06
-3.31366e-06
1.80809e-06
-3.1668e-06
1.76683e-06
-3.02332e-06
1.72773e-06
-2.88321e-06
1.69071e-06
-2.74645e-06
1.65572e-06
-2.61305e-06
1.62266e-06
-2.48303e-06
1.59149e-06
-2.35646e-06
1.56213e-06
-2.23341e-06
1.53453e-06
-2.11399e-06
1.50863e-06
-1.99834e-06
1.48436e-06
-1.88663e-06
1.46166e-06
-1.77907e-06
1.44049e-06
-1.67588e-06
1.42077e-06
-1.57733e-06
1.40244e-06
-1.48374e-06
1.38544e-06
-1.39545e-06
1.3697e-06
-1.31281e-06
1.35514e-06
-1.23625e-06
1.34168e-06
-1.16619e-06
1.32924e-06
-1.10309e-06
1.31769e-06
-1.04745e-06
1.30694e-06
-9.9976e-07
1.29683e-06
-9.60549e-07
1.28723e-06
-9.30333e-07
1.27797e-06
-9.0965e-07
-8.99119e-07
1.99721e-05
-4.36949e-07
1.98874e-05
-1.38446e-06
1.97457e-05
-2.39756e-06
1.95499e-05
-3.45547e-06
1.9304e-05
-4.538e-06
1.9013e-05
-5.62487e-06
1.86822e-05
-6.69641e-06
1.83167e-05
-7.73451e-06
1.7922e-05
-8.72349e-06
1.75029e-05
-9.65063e-06
1.70643e-05
-1.05064e-05
1.66104e-05
-1.12844e-05
1.61451e-05
-1.1981e-05
1.5672e-05
-1.25948e-05
1.51944e-05
-1.31262e-05
1.47149e-05
-1.3577e-05
1.42361e-05
-1.39501e-05
1.37601e-05
-1.42491e-05
1.32887e-05
-1.44781e-05
1.28235e-05
-1.46414e-05
1.23657e-05
-1.47438e-05
1.19165e-05
-1.47899e-05
1.14769e-05
-1.47844e-05
1.10478e-05
-1.4732e-05
1.06299e-05
-1.46375e-05
1.02239e-05
-1.45055e-05
9.83014e-06
-1.43404e-05
9.44907e-06
-1.41466e-05
9.08086e-06
-1.39282e-05
8.72562e-06
-1.36889e-05
8.38337e-06
-1.34323e-05
8.05403e-06
-1.31615e-05
7.73748e-06
-1.28796e-05
7.43352e-06
-1.2589e-05
7.14192e-06
-1.22921e-05
6.86239e-06
-1.19909e-05
6.59463e-06
-1.16871e-05
6.33829e-06
-1.13824e-05
6.09304e-06
-1.1078e-05
5.85848e-06
-1.07749e-05
5.63426e-06
-1.04742e-05
5.41999e-06
-1.01766e-05
5.21528e-06
-9.88277e-06
5.01975e-06
-9.59315e-06
4.83303e-06
-9.30819e-06
4.65474e-06
-9.02819e-06
4.48452e-06
-8.75341e-06
4.32203e-06
-8.48401e-06
4.16691e-06
-8.22011e-06
4.01884e-06
-7.96179e-06
3.8775e-06
-7.70908e-06
3.74258e-06
-7.46197e-06
3.6138e-06
-7.22045e-06
3.49086e-06
-6.98445e-06
3.37351e-06
-6.75392e-06
3.26148e-06
-6.52877e-06
3.15454e-06
-6.3089e-06
3.05245e-06
-6.09421e-06
2.955e-06
-5.88459e-06
2.86197e-06
-5.67992e-06
2.77318e-06
-5.48007e-06
2.68843e-06
-5.28493e-06
2.60755e-06
-5.09437e-06
2.53038e-06
-4.90826e-06
2.45676e-06
-4.72647e-06
2.38653e-06
-4.5489e-06
2.31956e-06
-4.3754e-06
2.25572e-06
-4.20587e-06
2.19489e-06
-4.04019e-06
2.13694e-06
-3.87827e-06
2.08176e-06
-3.71999e-06
2.02926e-06
-3.56528e-06
1.97933e-06
-3.41404e-06
1.93188e-06
-3.26621e-06
1.88681e-06
-3.12173e-06
1.84406e-06
-2.98057e-06
1.80353e-06
-2.84268e-06
1.76515e-06
-2.70807e-06
1.72885e-06
-2.57675e-06
1.69456e-06
-2.44874e-06
1.6622e-06
-2.32411e-06
1.63173e-06
-2.20293e-06
1.60306e-06
-2.08533e-06
1.57615e-06
-1.97143e-06
1.55092e-06
-1.8614e-06
1.52731e-06
-1.75546e-06
1.50526e-06
-1.65383e-06
1.48471e-06
-1.55678e-06
1.46558e-06
-1.46462e-06
1.44781e-06
-1.37768e-06
1.43132e-06
-1.29632e-06
1.41602e-06
-1.22095e-06
1.40184e-06
-1.152e-06
1.38866e-06
-1.08991e-06
1.37638e-06
-1.03516e-06
1.36487e-06
-9.88254e-07
1.354e-06
-9.49682e-07
1.34363e-06
-9.19957e-07
1.33358e-06
-8.99606e-07
-8.89239e-07
1.99744e-05
-4.11394e-07
1.98964e-05
-1.30646e-06
1.97653e-05
-2.26643e-06
1.95826e-05
-3.27278e-06
1.93514e-05
-4.30679e-06
1.90756e-05
-5.34912e-06
1.87599e-05
-6.38069e-06
1.84091e-05
-7.38367e-06
1.8028e-05
-8.34245e-06
1.76216e-05
-9.24422e-06
1.71945e-05
-1.00792e-05
1.67508e-05
-1.08408e-05
1.62947e-05
-1.15249e-05
1.58297e-05
-1.21298e-05
1.5359e-05
-1.26555e-05
1.48855e-05
-1.31036e-05
1.44118e-05
-1.34764e-05
1.39401e-05
-1.37774e-05
1.34723e-05
-1.40102e-05
1.30099e-05
-1.41791e-05
1.25545e-05
-1.42884e-05
1.21073e-05
-1.43426e-05
1.16692e-05
-1.43463e-05
1.12412e-05
-1.4304e-05
1.08241e-05
-1.42204e-05
1.04186e-05
-1.40999e-05
1.0025e-05
-1.39468e-05
9.64373e-06
-1.37654e-05
9.27506e-06
-1.35595e-05
8.9191e-06
-1.33329e-05
8.57588e-06
-1.3089e-05
8.24534e-06
-1.2831e-05
7.92737e-06
-1.25616e-05
7.6218e-06
-1.22834e-05
7.32839e-06
-1.19987e-05
7.04688e-06
-1.17094e-05
6.77698e-06
-1.14172e-05
6.51836e-06
-1.11238e-05
6.27069e-06
-1.08303e-05
6.0336e-06
-1.05378e-05
5.80673e-06
-1.02474e-05
5.58972e-06
-9.95962e-06
5.38219e-06
-9.67524e-06
5.18378e-06
-9.39474e-06
4.99411e-06
-9.11852e-06
4.81284e-06
-8.84692e-06
4.6396e-06
-8.58017e-06
4.47407e-06
-8.31847e-06
4.3159e-06
-8.06194e-06
4.16477e-06
-7.81067e-06
4.02039e-06
-7.56469e-06
3.88244e-06
-7.32402e-06
3.75064e-06
-7.08865e-06
3.62472e-06
-6.85853e-06
3.50442e-06
-6.63362e-06
3.38948e-06
-6.41383e-06
3.27968e-06
-6.1991e-06
3.17478e-06
-5.98931e-06
3.07457e-06
-5.78438e-06
2.97885e-06
-5.58419e-06
2.88742e-06
-5.38864e-06
2.8001e-06
-5.19761e-06
2.71671e-06
-5.01098e-06
2.6371e-06
-4.82864e-06
2.5611e-06
-4.65048e-06
2.48857e-06
-4.47637e-06
2.41937e-06
-4.3062e-06
2.35337e-06
-4.13987e-06
2.29044e-06
-3.97727e-06
2.23047e-06
-3.8183e-06
2.17336e-06
-3.66287e-06
2.11898e-06
-3.5109e-06
2.06725e-06
-3.36231e-06
2.01806e-06
-3.21703e-06
1.97134e-06
-3.07501e-06
1.927e-06
-2.93622e-06
1.88495e-06
-2.80063e-06
1.84512e-06
-2.66824e-06
1.80743e-06
-2.53906e-06
1.77182e-06
-2.41313e-06
1.73821e-06
-2.2905e-06
1.70654e-06
-2.17126e-06
1.67674e-06
-2.05553e-06
1.64874e-06
-1.94343e-06
1.62249e-06
-1.83515e-06
1.5979e-06
-1.73088e-06
1.57493e-06
-1.63085e-06
1.55348e-06
-1.53534e-06
1.53351e-06
-1.44464e-06
1.51492e-06
-1.35908e-06
1.49763e-06
-1.27903e-06
1.48156e-06
-1.20488e-06
1.46661e-06
-1.13705e-06
1.45267e-06
-1.07597e-06
1.43963e-06
-1.02213e-06
1.42737e-06
-9.7599e-07
1.41574e-06
-9.38053e-07
1.4046e-06
-9.08815e-07
1.39378e-06
-8.88793e-07
-8.78589e-07
1.99765e-05
-3.87889e-07
1.99044e-05
-1.23435e-06
1.97826e-05
-2.14463e-06
1.96118e-05
-3.10202e-06
1.93943e-05
-4.08923e-06
1.91331e-05
-5.08796e-06
1.88323e-05
-6.07983e-06
1.84961e-05
-7.04747e-06
1.81291e-05
-7.97547e-06
1.77359e-05
-8.85103e-06
1.73209e-05
-9.66431e-06
1.68885e-05
-1.04084e-05
1.64424e-05
-1.10789e-05
1.59864e-05
-1.16738e-05
1.55237e-05
-1.21928e-05
1.50571e-05
-1.26371e-05
1.45894e-05
-1.30087e-05
1.41229e-05
-1.33108e-05
1.36594e-05
-1.35468e-05
1.32007e-05
-1.37205e-05
1.27484e-05
-1.38361e-05
1.23036e-05
-1.38979e-05
1.18676e-05
-1.39103e-05
1.14412e-05
-1.38777e-05
1.10253e-05
-1.38045e-05
1.06204e-05
-1.36951e-05
1.02273e-05
-1.35536e-05
9.84607e-06
-1.33842e-05
9.47713e-06
-1.31906e-05
9.1206e-06
-1.29764e-05
8.77652e-06
-1.2745e-05
8.44486e-06
-1.24993e-05
8.12553e-06
-1.22423e-05
7.81837e-06
-1.19762e-05
7.52317e-06
-1.17035e-05
7.23968e-06
-1.14259e-05
6.96762e-06
-1.11452e-05
6.70669e-06
-1.08629e-05
6.45655e-06
-1.05802e-05
6.21687e-06
-1.02982e-05
5.98729e-06
-1.00178e-05
5.76747e-06
-9.7398e-06
5.55705e-06
-9.46482e-06
5.35567e-06
-9.19336e-06
5.16298e-06
-8.92583e-06
4.97863e-06
-8.66257e-06
4.80229e-06
-8.40383e-06
4.63362e-06
-8.1498e-06
4.47231e-06
-7.90063e-06
4.31803e-06
-7.65639e-06
4.1705e-06
-7.41715e-06
4.02941e-06
-7.18294e-06
3.8945e-06
-6.95374e-06
3.7655e-06
-6.72953e-06
3.64215e-06
-6.51027e-06
3.52421e-06
-6.29589e-06
3.41145e-06
-6.08633e-06
3.30363e-06
-5.8815e-06
3.20057e-06
-5.68131e-06
3.10205e-06
-5.48567e-06
3.00788e-06
-5.29447e-06
2.91788e-06
-5.10761e-06
2.83189e-06
-4.92499e-06
2.74973e-06
-4.74649e-06
2.67126e-06
-4.57201e-06
2.59634e-06
-4.40144e-06
2.52481e-06
-4.23467e-06
2.45656e-06
-4.07162e-06
2.39145e-06
-3.91217e-06
2.32938e-06
-3.75623e-06
2.27023e-06
-3.60372e-06
2.2139e-06
-3.45457e-06
2.16028e-06
-3.30869e-06
2.10929e-06
-3.16604e-06
2.06084e-06
-3.02656e-06
2.01483e-06
-2.89021e-06
1.97119e-06
-2.75699e-06
1.92983e-06
-2.62689e-06
1.8907e-06
-2.49992e-06
1.8537e-06
-2.37613e-06
1.81877e-06
-2.25557e-06
1.78584e-06
-2.13834e-06
1.75485e-06
-2.02453e-06
1.72572e-06
-1.9143e-06
1.69838e-06
-1.80781e-06
1.67277e-06
-1.70527e-06
1.64882e-06
-1.6069e-06
1.62644e-06
-1.51296e-06
1.60557e-06
-1.42377e-06
1.58612e-06
-1.33963e-06
1.568e-06
-1.26092e-06
1.55112e-06
-1.188e-06
1.53539e-06
-1.12131e-06
1.52067e-06
-1.06126e-06
1.50687e-06
-1.00832e-06
1.49385e-06
-9.62965e-07
1.48146e-06
-9.25666e-07
1.46956e-06
-8.96917e-07
1.45799e-06
-8.77225e-07
-8.67187e-07
1.99783e-05
-3.66205e-07
1.99114e-05
-1.16746e-06
1.97979e-05
-2.03114e-06
1.9638e-05
-2.9421e-06
1.94331e-05
-3.88434e-06
1.91858e-05
-4.84063e-06
1.88993e-05
-5.79336e-06
1.85776e-05
-6.72571e-06
1.82247e-05
-7.62259e-06
1.7845e-05
-8.47133e-06
1.74427e-05
-9.26205e-06
1.7022e-05
-9.98765e-06
1.65867e-05
-1.06436e-05
1.61405e-05
-1.12275e-05
1.56865e-05
-1.17388e-05
1.52277e-05
-1.21783e-05
1.47668e-05
-1.25479e-05
1.43061e-05
-1.28501e-05
1.38477e-05
-1.30884e-05
1.33934e-05
-1.32662e-05
1.29447e-05
-1.33874e-05
1.25031e-05
-1.34562e-05
1.20695e-05
-1.34767e-05
1.16452e-05
-1.34533e-05
1.12308e-05
-1.33901e-05
1.08271e-05
-1.32914e-05
1.04346e-05
-1.31611e-05
1.00537e-05
-1.30033e-05
9.68473e-06
-1.28216e-05
9.32779e-06
-1.26195e-05
8.983e-06
-1.24002e-05
8.65035e-06
-1.21667e-05
8.32975e-06
-1.19217e-05
8.02107e-06
-1.16676e-05
7.72413e-06
-1.14065e-05
7.43869e-06
-1.11404e-05
7.16449e-06
-1.0871e-05
6.90125e-06
-1.05996e-05
6.64864e-06
-1.03276e-05
6.40636e-06
-1.00559e-05
6.17406e-06
-9.7855e-06
5.95141e-06
-9.51715e-06
5.73806e-06
-9.25147e-06
5.53368e-06
-8.98898e-06
5.33793e-06
-8.73008e-06
5.15046e-06
-8.47511e-06
4.97096e-06
-8.22433e-06
4.79911e-06
-7.97795e-06
4.63459e-06
-7.73611e-06
4.47711e-06
-7.49891e-06
4.32637e-06
-7.26641e-06
4.18209e-06
-7.03866e-06
4.04401e-06
-6.81565e-06
3.91186e-06
-6.59738e-06
3.78539e-06
-6.3838e-06
3.66437e-06
-6.17488e-06
3.54858e-06
-5.97053e-06
3.43779e-06
-5.77071e-06
3.33179e-06
-5.57532e-06
3.2304e-06
-5.38428e-06
3.13342e-06
-5.19749e-06
3.04068e-06
-5.01487e-06
2.95201e-06
-4.83632e-06
2.86725e-06
-4.66173e-06
2.78624e-06
-4.491e-06
2.70885e-06
-4.32404e-06
2.63493e-06
-4.16075e-06
2.56435e-06
-4.00104e-06
2.497e-06
-3.84482e-06
2.43276e-06
-3.69199e-06
2.37152e-06
-3.54248e-06
2.31317e-06
-3.39621e-06
2.25761e-06
-3.25313e-06
2.20475e-06
-3.11318e-06
2.15449e-06
-2.9763e-06
2.10676e-06
-2.84248e-06
2.06148e-06
-2.7117e-06
2.01855e-06
-2.58396e-06
1.9779e-06
-2.45928e-06
1.93947e-06
-2.3377e-06
1.90317e-06
-2.21928e-06
1.86894e-06
-2.10411e-06
1.83671e-06
-1.9923e-06
1.8064e-06
-1.88399e-06
1.77794e-06
-1.77935e-06
1.75126e-06
-1.67859e-06
1.72629e-06
-1.58192e-06
1.70295e-06
-1.48962e-06