/*--------------------------------*- C++ -*----------------------------------*\
  =========                 |
  \\      /  F ield         | OpenFOAM: The Open Source CFD Toolbox
   \\    /   O peration     | Website:  https://openfoam.org
    \\  /    A nd           | Version:  11
     \\/     M anipulation  |
\*---------------------------------------------------------------------------*/
FoamFile
{
    format      ascii;
    class       volScalarField;
    location    "554";
    object      omega;
}
// * * * * * * * * * * * * * * * * * * * * * * * * * * * * * * * * * * * * * //

dimensions      [0 0 -1 0 0 0 0];

internalField   nonuniform List<scalar> 
10000
(
0.961692
0.892185
0.829085
0.771728
0.719523
0.671944
0.628523
0.588842
0.55253
0.519255
0.488721
0.460663
0.434844
0.411054
0.389102
0.368818
0.350051
0.332663
0.316531
0.301546
0.287606
0.274623
0.262516
0.251211
0.240643
0.23075
0.22148
0.212782
0.204613
0.196931
0.189699
0.182884
0.176455
0.170384
0.164645
0.159214
0.154071
0.149194
0.144567
0.140173
0.135995
0.13202
0.128235
0.124628
0.121188
0.117904
0.114767
0.111768
0.108898
0.106151
0.103518
0.100995
0.098573
0.0962479
0.0940139
0.0918661
0.0897997
0.0878103
0.0858938
0.0840464
0.0822643
0.0805441
0.0788826
0.0772768
0.0757236
0.0742204
0.0727646
0.0713537
0.0699853
0.0686572
0.0673672
0.0661135
0.0648939
0.0637067
0.06255
0.0614224
0.0603221
0.0592477
0.0581979
0.0571715
0.0561672
0.0551841
0.0542214
0.0532786
0.0523552
0.0514511
0.0505666
0.0497022
0.0488591
0.0480389
0.047244
0.0464777
0.0457445
0.0450503
0.0444027
0.0438122
0.0432921
0.0428603
0.0425401
0.0423618
0.961692
0.892185
0.829085
0.771728
0.719523
0.671944
0.628523
0.588842
0.55253
0.519255
0.488721
0.460663
0.434844
0.411054
0.389102
0.368818
0.350051
0.332663
0.316531
0.301546
0.287606
0.274624
0.262516
0.251211
0.240643
0.23075
0.22148
0.212782
0.204613
0.196931
0.189699
0.182884
0.176455
0.170384
0.164645
0.159214
0.154071
0.149195
0.144567
0.140173
0.135995
0.13202
0.128236
0.124629
0.121188
0.117904
0.114767
0.111768
0.108898
0.106151
0.103519
0.100995
0.0985734
0.0962483
0.0940143
0.0918665
0.0898001
0.0878108
0.0858943
0.0840469
0.0822648
0.0805447
0.0788832
0.0772774
0.0757243
0.0742211
0.0727653
0.0713544
0.069986
0.068658
0.0673681
0.0661143
0.0648948
0.0637076
0.0625511
0.0614234
0.0603232
0.0592489
0.0581992
0.0571727
0.0561685
0.0551855
0.0542229
0.0532801
0.0523568
0.0514527
0.0505682
0.0497039
0.0488608
0.0480407
0.0472458
0.0464795
0.0457463
0.0450521
0.0444045
0.0438139
0.0432938
0.042862
0.0425418
0.0423634
0.961692
0.892185
0.829085
0.771728
0.719523
0.671944
0.628523
0.588842
0.55253
0.519255
0.488721
0.460663
0.434844
0.411054
0.389102
0.368818
0.350051
0.332663
0.316531
0.301546
0.287607
0.274624
0.262517
0.251212
0.240643
0.230751
0.22148
0.212783
0.204613
0.196931
0.189699
0.182885
0.176455
0.170384
0.164645
0.159215
0.154071
0.149195
0.144568
0.140173
0.135996
0.132021
0.128236
0.124629
0.121189
0.117905
0.114768
0.111769
0.108899
0.106152
0.10352
0.100996
0.0985741
0.0962491
0.0940151
0.0918674
0.089801
0.0878117
0.0858953
0.0840479
0.0822659
0.0805458
0.0788843
0.0772785
0.0757255
0.0742223
0.0727666
0.0713558
0.0699875
0.0686595
0.0673696
0.066116
0.0648965
0.0637094
0.0625529
0.0614254
0.0603252
0.059251
0.0582014
0.057175
0.0561709
0.055188
0.0542255
0.0532828
0.0523596
0.0514557
0.0505713
0.049707
0.048864
0.0480439
0.0472491
0.0464829
0.0457497
0.0450554
0.0444079
0.0438173
0.0432971
0.0428653
0.042545
0.0423667
0.961692
0.892185
0.829085
0.771728
0.719523
0.671944
0.628523
0.588842
0.55253
0.519255
0.488721
0.460663
0.434845
0.411054
0.389102
0.368818
0.350051
0.332663
0.316532
0.301546
0.287607
0.274624
0.262517
0.251212
0.240643
0.230751
0.221481
0.212783
0.204614
0.196932
0.1897
0.182885
0.176456
0.170385
0.164646
0.159215
0.154072
0.149196
0.144569
0.140174
0.135996
0.132022
0.128237
0.12463
0.12119
0.117906
0.114769
0.111769
0.1089
0.106153
0.103521
0.100997
0.0985752
0.0962502
0.0940163
0.0918686
0.0898023
0.087813
0.0858967
0.0840493
0.0822674
0.0805473
0.0788859
0.0772802
0.0757272
0.0742242
0.0727685
0.0713577
0.0699895
0.0686616
0.0673719
0.0661183
0.0648989
0.0637119
0.0625555
0.0614281
0.0603281
0.0592541
0.0582045
0.0571784
0.0561744
0.0551916
0.0542293
0.0532867
0.0523636
0.0514599
0.0505756
0.0497115
0.0488686
0.0480486
0.0472539
0.0464877
0.0457546
0.0450603
0.0444128
0.0438222
0.043302
0.0428701
0.0425498
0.0423714
0.961692
0.892185
0.829085
0.771728
0.719523
0.671944
0.628523
0.588842
0.552531
0.519256
0.488721
0.460663
0.434845
0.411054
0.389102
0.368819
0.350051
0.332663
0.316532
0.301546
0.287607
0.274624
0.262517
0.251212
0.240644
0.230751
0.221481
0.212784
0.204614
0.196932
0.189701
0.182886
0.176457
0.170385
0.164646
0.159216
0.154073
0.149196
0.144569
0.140175
0.135997
0.132023
0.128238
0.124631
0.121191
0.117907
0.11477
0.111771
0.108901
0.106154
0.103522
0.100998
0.0985767
0.0962517
0.0940179
0.0918702
0.089804
0.0878148
0.0858985
0.0840512
0.0822693
0.0805493
0.078888
0.0772824
0.0757295
0.0742265
0.0727709
0.0713603
0.0699922
0.0686644
0.0673748
0.0661213
0.0649021
0.0637152
0.062559
0.0614317
0.0603319
0.059258
0.0582087
0.0571827
0.0561789
0.0551963
0.0542341
0.0532918
0.0523689
0.0514653
0.0505812
0.0497173
0.0488745
0.0480547
0.0472601
0.046494
0.0457609
0.0450667
0.0444191
0.0438285
0.0433082
0.0428763
0.0425559
0.0423775
0.961692
0.892185
0.829085
0.771728
0.719523
0.671944
0.628523
0.588843
0.552531
0.519256
0.488722
0.460663
0.434845
0.411055
0.389102
0.368819
0.350052
0.332664
0.316532
0.301547
0.287608
0.274625
0.262518
0.251213
0.240644
0.230752
0.221482
0.212784
0.204615
0.196933
0.189701
0.182886
0.176457
0.170386
0.164647
0.159217
0.154073
0.149197
0.14457
0.140176
0.135998
0.132024
0.128239
0.124632
0.121192
0.117908
0.114771
0.111772
0.108903
0.106156
0.103524
0.101
0.0985784
0.0962535
0.0940198
0.0918722
0.089806
0.0878169
0.0859007
0.0840535
0.0822717
0.0805518
0.0788906
0.077285
0.0757322
0.0742294
0.0727739
0.0713634
0.0699954
0.0686677
0.0673783
0.066125
0.0649059
0.0637192
0.0625632
0.0614361
0.0603365
0.0592628
0.0582137
0.0571879
0.0561843
0.055202
0.0542401
0.053298
0.0523753
0.0514719
0.050588
0.0497243
0.0488817
0.048062
0.0472675
0.0465016
0.0457685
0.0450743
0.0444268
0.0438361
0.0433158
0.0428838
0.0425634
0.0423849
0.961692
0.892185
0.829085
0.771728
0.719523
0.671944
0.628523
0.588843
0.552531
0.519256
0.488722
0.460664
0.434845
0.411055
0.389103
0.368819
0.350052
0.332664
0.316533
0.301547
0.287608
0.274625
0.262518
0.251213
0.240645
0.230753
0.221482
0.212785
0.204616
0.196934
0.189702
0.182887
0.176458
0.170387
0.164648
0.159218
0.154075
0.149198
0.144572
0.140177
0.136
0.132025
0.12824
0.124634
0.121194
0.11791
0.114773
0.111774
0.108905
0.106157
0.103525
0.101002
0.0985805
0.0962556
0.094022
0.0918744
0.0898084
0.0878193
0.0859032
0.0840561
0.0822744
0.0805546
0.0788936
0.0772881
0.0757354
0.0742327
0.0727774
0.071367
0.0699992
0.0686717
0.0673824
0.0661293
0.0649104
0.0637239
0.0625681
0.0614412
0.0603418
0.0592683
0.0582195
0.0571939
0.0561906
0.0552086
0.0542469
0.0533051
0.0523827
0.0514796
0.050596
0.0497324
0.0488901
0.0480705
0.0472762
0.0465104
0.0457774
0.0450833
0.0444357
0.043845
0.0433247
0.0428926
0.0425721
0.0423935
0.961692
0.892185
0.829085
0.771728
0.719523
0.671944
0.628523
0.588843
0.552531
0.519256
0.488722
0.460664
0.434846
0.411055
0.389103
0.36882
0.350052
0.332665
0.316533
0.301548
0.287609
0.274626
0.262519
0.251214
0.240646
0.230753
0.221483
0.212786
0.204616
0.196934
0.189703
0.182888
0.176459
0.170388
0.164649
0.159219
0.154076
0.1492
0.144573
0.140178
0.136001
0.132027
0.128242
0.124635
0.121195
0.117912
0.114775
0.111776
0.108907
0.10616
0.103528
0.101004
0.0985828
0.096258
0.0940245
0.091877
0.0898111
0.0878221
0.0859061
0.0840591
0.0822775
0.0805579
0.0788969
0.0772916
0.0757391
0.0742365
0.0727814
0.0713711
0.0700035
0.0686761
0.067387
0.0661341
0.0649154
0.0637292
0.0625736
0.061447
0.0603478
0.0592746
0.058226
0.0572008
0.0561978
0.055216
0.0542547
0.0533131
0.052391
0.0514882
0.0506049
0.0497416
0.0488995
0.0480802
0.047286
0.0465203
0.0457874
0.0450933
0.0444458
0.043855
0.0433346
0.0429024
0.0425819
0.0424032
0.961692
0.892185
0.829085
0.771728
0.719523
0.671944
0.628523
0.588843
0.552531
0.519256
0.488722
0.460664
0.434846
0.411055
0.389103
0.36882
0.350053
0.332665
0.316534
0.301548
0.287609
0.274627
0.262519
0.251215
0.240646
0.230754
0.221484
0.212787
0.204617
0.196935
0.189704
0.182889
0.17646
0.170389
0.164651
0.15922
0.154077
0.149201
0.144574
0.14018
0.136003
0.132028
0.128244
0.124637
0.121197
0.117913
0.114777
0.111778
0.108909
0.106162
0.10353
0.101007
0.0985853
0.0962607
0.0940272
0.0918799
0.089814
0.0878252
0.0859093
0.0840625
0.082281
0.0805615
0.0789007
0.0772955
0.0757431
0.0742407
0.0727857
0.0713757
0.0700082
0.0686811
0.0673922
0.0661395
0.064921
0.063735
0.0625797
0.0614534
0.0603545
0.0592816
0.0582333
0.0572084
0.0562057
0.0552242
0.0542632
0.053322
0.0524002
0.0514977
0.0506147
0.0497517
0.0489099
0.0480908
0.0472968
0.0465312
0.0457984
0.0451044
0.0444569
0.0438661
0.0433456
0.0429134
0.0425927
0.042414
0.961692
0.892185
0.829085
0.771728
0.719523
0.671944
0.628523
0.588843
0.552531
0.519256
0.488722
0.460664
0.434846
0.411056
0.389104
0.36882
0.350053
0.332665
0.316534
0.301549
0.28761
0.274627
0.26252
0.251215
0.240647
0.230755
0.221485
0.212787
0.204618
0.196936
0.189705
0.18289
0.176462
0.170391
0.164652
0.159222
0.154079
0.149203
0.144576
0.140182
0.136004
0.13203
0.128246
0.124639
0.121199
0.117916
0.114779
0.11178
0.108911
0.106164
0.103533
0.101009
0.0985881
0.0962636
0.0940302
0.091883
0.0898173
0.0878286
0.0859128
0.0840661
0.0822848
0.0805654
0.0789047
0.0772998
0.0757475
0.0742453
0.0727905
0.0713806
0.0700134
0.0686865
0.0673978
0.0661453
0.0649271
0.0637414
0.0625863
0.0614603
0.0603617
0.0592891
0.0582411
0.0572166
0.0562142
0.0552331
0.0542725
0.0533316
0.0524102
0.051508
0.0506253
0.0497627
0.0489211
0.0481022
0.0473085
0.046543
0.0458104
0.0451164
0.0444689
0.0438781
0.0433576
0.0429252
0.0426044
0.0424256
0.961692
0.892185
0.829085
0.771728
0.719523
0.671944
0.628523
0.588843
0.552531
0.519257
0.488723
0.460665
0.434846
0.411056
0.389104
0.368821
0.350054
0.332666
0.316535
0.301549
0.28761
0.274628
0.262521
0.251216
0.240648
0.230756
0.221486
0.212788
0.204619
0.196938
0.189706
0.182892
0.176463
0.170392
0.164653
0.159223
0.15408
0.149204
0.144578
0.140183
0.136006
0.132032
0.128248
0.124641
0.121201
0.117918
0.114781
0.111783
0.108914
0.106167
0.103535
0.101012
0.0985911
0.0962667
0.0940334
0.0918864
0.0898207
0.0878322
0.0859165
0.08407
0.0822888
0.0805696
0.0789091
0.0773043
0.0757522
0.0742502
0.0727956
0.0713859
0.0700189
0.0686922
0.0674038
0.0661516
0.0649337
0.0637482
0.0625934
0.0614677
0.0603694
0.0592972
0.0582496
0.0572253
0.0562234
0.0552427
0.0542824
0.0533419
0.0524209
0.0515191
0.0506367
0.0497744
0.0489331
0.0481145
0.047321
0.0465557
0.0458232
0.0451293
0.0444818
0.043891
0.0433704
0.0429379
0.042617
0.0424381
0.961692
0.892185
0.829085
0.771728
0.719523
0.671944
0.628523
0.588843
0.552531
0.519257
0.488723
0.460665
0.434847
0.411056
0.389104
0.368821
0.350054
0.332666
0.316535
0.30155
0.287611
0.274629
0.262522
0.251217
0.240649
0.230757
0.221487
0.212789
0.20462
0.196939
0.189707
0.182893
0.176464
0.170393
0.164655
0.159225
0.154082
0.149206
0.144579
0.140185
0.136008
0.132034
0.12825
0.124643
0.121204
0.11792
0.114784
0.111785
0.108916
0.10617
0.103538
0.101015
0.0985942
0.09627
0.0940368
0.0918899
0.0898244
0.087836
0.0859205
0.0840741
0.0822931
0.080574
0.0789137
0.0773091
0.0757572
0.0742554
0.072801
0.0713916
0.0700247
0.0686983
0.0674101
0.0661582
0.0649406
0.0637554
0.0626009
0.0614755
0.0603776
0.0593057
0.0582585
0.0572346
0.056233
0.0552527
0.0542929
0.0533528
0.0524321
0.0515307
0.0506487
0.0497868
0.0489458
0.0481275
0.0473342
0.0465691
0.0458367
0.0451429
0.0444954
0.0439046
0.0433839
0.0429513
0.0426304
0.0424514
0.961692
0.892185
0.829085
0.771728
0.719523
0.671944
0.628523
0.588843
0.552532
0.519257
0.488723
0.460665
0.434847
0.411057
0.389105
0.368822
0.350055
0.332667
0.316536
0.301551
0.287612
0.274629
0.262522
0.251218
0.24065
0.230758
0.221488
0.21279
0.204621
0.19694
0.189709
0.182894
0.176466
0.170395
0.164656
0.159226
0.154083
0.149208
0.144581
0.140187
0.13601
0.132036
0.128252
0.124646
0.121206
0.117923
0.114786
0.111788
0.108919
0.106173
0.103541
0.101018
0.0985976
0.0962734
0.0940404
0.0918936
0.0898283
0.08784
0.0859247
0.0840784
0.0822976
0.0805787
0.0789186
0.0773141
0.0757625
0.0742608
0.0728067
0.0713975
0.0700309
0.0687047
0.0674168
0.0661651
0.0649478
0.0637629
0.0626088
0.0614838
0.0603862
0.0593147
0.0582678
0.0572444
0.0562432
0.0552633
0.0543038
0.0533642
0.0524439
0.0515429
0.0506613
0.0497997
0.0489591
0.048141
0.047348
0.0465831
0.0458509
0.0451572
0.0445097
0.0439188
0.0433981
0.0429655
0.0426444
0.0424653
0.961692
0.892185
0.829085
0.771728
0.719523
0.671944
0.628524
0.588843
0.552532
0.519257
0.488723
0.460665
0.434847
0.411057
0.389105
0.368822
0.350055
0.332667
0.316536
0.301551
0.287612
0.27463
0.262523
0.251219
0.24065
0.230758
0.221489
0.212792
0.204623
0.196941
0.18971
0.182896
0.176467
0.170396
0.164658
0.159228
0.154085
0.14921
0.144583
0.140189
0.136012
0.132038
0.128254
0.124648
0.121209
0.117925
0.114789
0.111791
0.108922
0.106176
0.103544
0.101022
0.098601
0.096277
0.0940441
0.0918975
0.0898323
0.0878442
0.085929
0.0840829
0.0823022
0.0805835
0.0789236
0.0773194
0.0757679
0.0742665
0.0728125
0.0714036
0.0700373
0.0687114
0.0674237
0.0661724
0.0649553
0.0637708
0.062617
0.0614923
0.0603951
0.059324
0.0582775
0.0572545
0.0562537
0.0552742
0.0543152
0.053376
0.0524562
0.0515556
0.0506744
0.0498131
0.0489728
0.0481551
0.0473623
0.0465977
0.0458656
0.045172
0.0445246
0.0439336
0.0434129
0.0429801
0.0426589
0.0424798
0.961692
0.892185
0.829085
0.771728
0.719523
0.671944
0.628524
0.588843
0.552532
0.519257
0.488723
0.460665
0.434847
0.411057
0.389105
0.368822
0.350055
0.332668
0.316537
0.301552
0.287613
0.274631
0.262524
0.251219
0.240651
0.230759
0.22149
0.212793
0.204624
0.196942
0.189711
0.182897
0.176469
0.170398
0.16466
0.15923
0.154087
0.149211
0.144585
0.140191
0.136014
0.132041
0.128257
0.124651
0.121211
0.117928
0.114792
0.111794
0.108925
0.106179
0.103548
0.101025
0.0986045
0.0962806
0.0940479
0.0919014
0.0898364
0.0878484
0.0859335
0.0840875
0.082307
0.0805885
0.0789288
0.0773248
0.0757735
0.0742723
0.0728186
0.0714099
0.0700439
0.0687182
0.0674309
0.0661798
0.0649631
0.0637789
0.0626255
0.0615011
0.0604043
0.0593336
0.0582875
0.0572649
0.0562646
0.0552855
0.054327
0.0533882
0.0524688
0.0515686
0.0506878
0.049827
0.048987
0.0481696
0.0473771
0.0466127
0.0458808
0.0451872
0.0445399
0.043949
0.0434281
0.0429953
0.042674
0.0424947
0.961692
0.892185
0.829085
0.771728
0.719523
0.671944
0.628524
0.588843
0.552532
0.519257
0.488723
0.460666
0.434847
0.411057
0.389106
0.368823
0.350056
0.332668
0.316537
0.301552
0.287614
0.274631
0.262525
0.25122
0.240652
0.23076
0.221491
0.212794
0.204625
0.196944
0.189713
0.182898
0.17647
0.1704
0.164661
0.159231
0.154089
0.149213
0.144587
0.140193
0.136017
0.132043
0.128259
0.124653
0.121214
0.117931
0.114795
0.111797
0.108928
0.106182
0.103551
0.101028
0.0986082
0.0962844
0.0940519
0.0919055
0.0898406
0.0878528
0.085938
0.0840923
0.082312
0.0805937
0.0789341
0.0773303
0.0757793
0.0742783
0.0728249
0.0714164
0.0700506
0.0687253
0.0674382
0.0661875
0.0649711
0.0637872
0.0626341
0.0615101
0.0604137
0.0593434
0.0582977
0.0572756
0.0562757
0.0552971
0.054339
0.0534007
0.0524817
0.051582
0.0507016
0.0498412
0.0490016
0.0481845
0.0473923
0.0466281
0.0458963
0.0452029
0.0445556
0.0439647
0.0434437
0.0430108
0.0426894
0.0425101
0.961692
0.892185
0.829085
0.771728
0.719523
0.671944
0.628524
0.588843
0.552532
0.519257
0.488723
0.460666
0.434848
0.411058
0.389106
0.368823
0.350056
0.332669
0.316538
0.301553
0.287614
0.274632
0.262525
0.251221
0.240653
0.230761
0.221492
0.212795
0.204626
0.196945
0.189714
0.1829
0.176472
0.170401
0.164663
0.159233
0.154091
0.149215
0.144589
0.140196
0.136019
0.132045
0.128262
0.124656
0.121216
0.117934
0.114798
0.1118
0.108931
0.106185
0.103555
0.101032
0.0986119
0.0962883
0.0940559
0.0919097
0.089845
0.0878573
0.0859427
0.0840971
0.082317
0.0805989
0.0789396
0.077336
0.0757852
0.0742845
0.0728312
0.071423
0.0700575
0.0687324
0.0674457
0.0661953
0.0649792
0.0637957
0.0626429
0.0615194
0.0604233
0.0593534
0.0583082
0.0572864
0.056287
0.0553089
0.0543512
0.0534133
0.0524949
0.0515956
0.0507157
0.0498556
0.0490164
0.0481997
0.0474077
0.0466438
0.0459122
0.0452189
0.0445716
0.0439807
0.0434597
0.0430267
0.0427052
0.0425257
0.961692
0.892185
0.829085
0.771728
0.719523
0.671944
0.628524
0.588843
0.552532
0.519257
0.488723
0.460666
0.434848
0.411058
0.389106
0.368823
0.350056
0.332669
0.316538
0.301553
0.287615
0.274633
0.262526
0.251222
0.240654
0.230762
0.221493
0.212796
0.204627
0.196946
0.189715
0.182901
0.176473
0.170403
0.164665
0.159235
0.154092
0.149217
0.144591
0.140198
0.136021
0.132048
0.128264
0.124658
0.121219
0.117936
0.114801
0.111803
0.108935
0.106189
0.103558
0.101036
0.0986156
0.0962922
0.0940599
0.0919139
0.0898493
0.0878619
0.0859474
0.084102
0.0823221
0.0806042
0.0789451
0.0773417
0.0757911
0.0742907
0.0728377
0.0714297
0.0700645
0.0687397
0.0674533
0.0662032
0.0649874
0.0638043
0.0626519
0.0615287
0.0604331
0.0593635
0.0583187
0.0572974
0.0562984
0.0553208
0.0543636
0.0534262
0.0525082
0.0516094
0.0507299
0.0498702
0.0490314
0.048215
0.0474234
0.0466597
0.0459283
0.0452351
0.0445879
0.0439969
0.0434759
0.0430428
0.0427212
0.0425416
0.961692
0.892185
0.829085
0.771728
0.719523
0.671944
0.628524
0.588843
0.552532
0.519257
0.488724
0.460666
0.434848
0.411058
0.389106
0.368824
0.350057
0.33267
0.316539
0.301554
0.287615
0.274633
0.262527
0.251223
0.240655
0.230763
0.221494
0.212797
0.204628
0.196947
0.189717
0.182903
0.176475
0.170404
0.164666
0.159237
0.154094
0.149219
0.144593
0.1402
0.136023
0.13205
0.128267
0.124661
0.121222
0.117939
0.114804
0.111806
0.108938
0.106192
0.103561
0.101039
0.0986194
0.0962961
0.094064
0.0919181
0.0898538
0.0878665
0.0859522
0.084107
0.0823273
0.0806096
0.0789507
0.0773475
0.0757971
0.0742969
0.0728442
0.0714365
0.0700716
0.0687471
0.0674609
0.0662111
0.0649957
0.0638129
0.0626609
0.0615381
0.0604429
0.0593738
0.0583294
0.0573085
0.05631
0.0553328
0.0543761
0.0534392
0.0525216
0.0516233
0.0507442
0.049885
0.0490466
0.0482305
0.0474392
0.0466757
0.0459445
0.0452515
0.0446043
0.0440134
0.0434923
0.0430591
0.0427373
0.0425577
0.961692
0.892185
0.829085
0.771728
0.719523
0.671944
0.628524
0.588843
0.552532
0.519257
0.488724
0.460666
0.434848
0.411058
0.389107
0.368824
0.350057
0.33267
0.316539
0.301554
0.287616
0.274634
0.262528
0.251224
0.240656
0.230764
0.221495
0.212798
0.20463
0.196949
0.189718
0.182904
0.176476
0.170406
0.164668
0.159239
0.154096
0.149221
0.144595
0.140202
0.136026
0.132052
0.128269
0.124663
0.121225
0.117942
0.114806
0.111809
0.108941
0.106196
0.103565
0.101043
0.0986232
0.0963
0.0940681
0.0919224
0.0898582
0.0878711
0.085957
0.084112
0.0823325
0.080615
0.0789563
0.0773533
0.0758032
0.0743032
0.0728507
0.0714433
0.0700786
0.0687544
0.0674686
0.0662191
0.0650041
0.0638216
0.06267
0.0615475
0.0604527
0.059384
0.0583401
0.0573197
0.0563216
0.0553449
0.0543886
0.0534522
0.0525351
0.0516372
0.0507586
0.0498998
0.0490618
0.0482461
0.047455
0.0466918
0.0459608
0.0452679
0.0446208
0.0440299
0.0435088
0.0430754
0.0427536
0.0425739
0.961692
0.892185
0.829085
0.771728
0.719523
0.671944
0.628524
0.588843
0.552532
0.519257
0.488724
0.460666
0.434848
0.411058
0.389107
0.368824
0.350058
0.33267
0.31654
0.301555
0.287617
0.274635
0.262528
0.251224
0.240657
0.230765
0.221496
0.212799
0.204631
0.19695
0.189719
0.182905
0.176478
0.170407
0.16467
0.15924
0.154098
0.149223
0.144597
0.140204
0.136028
0.132055
0.128272
0.124666
0.121227
0.117945
0.114809
0.111812
0.108944
0.106199
0.103568
0.101047
0.098627
0.096304
0.0940722
0.0919267
0.0898626
0.0878757
0.0859618
0.084117
0.0823376
0.0806203
0.0789619
0.0773591
0.0758092
0.0743095
0.0728573
0.0714501
0.0700857
0.0687618
0.0674763
0.0662271
0.0650124
0.0638303
0.062679
0.061557
0.0604626
0.0593943
0.0583508
0.0573308
0.0563332
0.0553569
0.0544012
0.0534652
0.0525486
0.0516512
0.050773
0.0499146
0.049077
0.0482616
0.0474709
0.046708
0.0459772
0.0452844
0.0446374
0.0440464
0.0435253
0.0430919
0.0427699
0.0425901
0.961692
0.892185
0.829085
0.771728
0.719523
0.671944
0.628524
0.588843
0.552532
0.519257
0.488724
0.460666
0.434848
0.411059
0.389107
0.368824
0.350058
0.332671
0.31654
0.301555
0.287617
0.274635
0.262529
0.251225
0.240657
0.230766
0.221497
0.2128
0.204632
0.196951
0.189721
0.182907
0.176479
0.170409
0.164671
0.159242
0.1541
0.149225
0.1446
0.140206
0.13603
0.132057
0.128274
0.124669
0.12123
0.117948
0.114812
0.111815
0.108948
0.106202
0.103572
0.10105
0.0986308
0.0963079
0.0940763
0.0919309
0.089867
0.0878803
0.0859665
0.0841219
0.0823428
0.0806257
0.0789674
0.0773649
0.0758153
0.0743158
0.0728638
0.0714569
0.0700928
0.0687692
0.0674839
0.0662351
0.0650207
0.063839
0.0626881
0.0615664
0.0604724
0.0594045
0.0583615
0.0573419
0.0563448
0.055369
0.0544137
0.0534782
0.052562
0.051665
0.0507873
0.0499294
0.0490921
0.0482772
0.0474867
0.0467241
0.0459935
0.0453008
0.0446539
0.044063
0.0435417
0.0431082
0.0427862
0.0426063
0.961692
0.892185
0.829085
0.771728
0.719523
0.671944
0.628524
0.588843
0.552532
0.519258
0.488724
0.460666
0.434849
0.411059
0.389107
0.368825
0.350058
0.332671
0.316541
0.301556
0.287618
0.274636
0.26253
0.251226
0.240658
0.230767
0.221498
0.212801
0.204633
0.196952
0.189722
0.182908
0.17648
0.170411
0.164673
0.159244
0.154102
0.149227
0.144602
0.140209
0.136033
0.13206
0.128276
0.124671
0.121233
0.117951
0.114815
0.111818
0.108951
0.106206
0.103575
0.101054
0.0986345
0.0963118
0.0940804
0.0919351
0.0898714
0.0878849
0.0859713
0.0841269
0.0823479
0.080631
0.078973
0.0773707
0.0758212
0.074322
0.0728703
0.0714637
0.0700998
0.0687765
0.0674916
0.066243
0.065029
0.0638476
0.062697
0.0615757
0.0604821
0.0594147
0.058372
0.057353
0.0563562
0.0553809
0.0544261
0.053491
0.0525754
0.0516788
0.0508016
0.049944
0.0491072
0.0482926
0.0475025
0.04674
0.0460097
0.0453171
0.0446703
0.0440794
0.0435581
0.0431245
0.0428024
0.0426224
0.961692
0.892185
0.829085
0.771728
0.719523
0.671944
0.628524
0.588843
0.552532
0.519258
0.488724
0.460667
0.434849
0.411059
0.389108
0.368825
0.350058
0.332671
0.316541
0.301556
0.287618
0.274636
0.26253
0.251226
0.240659
0.230768
0.221499
0.212802
0.204634
0.196953
0.189723
0.18291
0.176482
0.170412
0.164674
0.159245
0.154104
0.149229
0.144604
0.140211
0.136035
0.132062
0.128279
0.124674
0.121235
0.117953
0.114818
0.111821
0.108954
0.106209
0.103579
0.101057
0.0986382
0.0963157
0.0940844
0.0919393
0.0898758
0.0878894
0.085976
0.0841317
0.082353
0.0806363
0.0789784
0.0773764
0.0758272
0.0743281
0.0728767
0.0714703
0.0701067
0.0687837
0.0674991
0.0662509
0.0650371
0.0638561
0.0627059
0.061585
0.0604917
0.0594247
0.0583825
0.0573638
0.0563676
0.0553927
0.0544383
0.0535038
0.0525886
0.0516925
0.0508156
0.0499585
0.0491221
0.0483078
0.047518
0.0467559
0.0460257
0.0453333
0.0446865
0.0440957
0.0435743
0.0431407
0.0428184
0.0426383
0.961692
0.892185
0.829085
0.771728
0.719523
0.671944
0.628524
0.588843
0.552532
0.519258
0.488724
0.460667
0.434849
0.411059
0.389108
0.368825
0.350059
0.332672
0.316541
0.301557
0.287619
0.274637
0.262531
0.251227
0.24066
0.230769
0.2215
0.212803
0.204635
0.196955
0.189724
0.182911
0.176483
0.170414
0.164676
0.159247
0.154105
0.149231
0.144606
0.140213
0.136037
0.132064
0.128281
0.124676
0.121238
0.117956
0.114821
0.111824
0.108957
0.106212
0.103582
0.101061
0.0986419
0.0963195
0.0940883
0.0919434
0.08988
0.0878938
0.0859806
0.0841365
0.082358
0.0806415
0.0789838
0.077382
0.075833
0.0743342
0.072883
0.0714769
0.0701136
0.0687908
0.0675065
0.0662586
0.0650452
0.0638645
0.0627146
0.0615941
0.0605012
0.0594346
0.0583928
0.0573746
0.0563788
0.0554043
0.0544504
0.0535163
0.0526016
0.0517059
0.0508295
0.0499728
0.0491368
0.0483229
0.0475334
0.0467715
0.0460415
0.0453493
0.0447026
0.0441117
0.0435904
0.0431566
0.0428342
0.0426541
0.961692
0.892185
0.829085
0.771728
0.719523
0.671944
0.628524
0.588843
0.552532
0.519258
0.488724
0.460667
0.434849
0.411059
0.389108
0.368825
0.350059
0.332672
0.316542
0.301557
0.287619
0.274638
0.262532
0.251228
0.24066
0.230769
0.2215
0.212804
0.204636
0.196956
0.189726
0.182912
0.176485
0.170415
0.164678
0.159249
0.154107
0.149233
0.144607
0.140215
0.136039
0.132066
0.128284
0.124679
0.121241
0.117959
0.114824
0.111827
0.10896
0.106215
0.103586
0.101064
0.0986455
0.0963232
0.0940922
0.0919475
0.0898842
0.0878982
0.0859851
0.0841413
0.0823629
0.0806466
0.0789891
0.0773875
0.0758387
0.0743402
0.0728892
0.0714833
0.0701203
0.0687978
0.0675138
0.0662662
0.0650531
0.0638727
0.0627232
0.061603
0.0605106
0.0594443
0.0584029
0.0573851
0.0563898
0.0554158
0.0544623
0.0535286
0.0526143
0.0517191
0.0508432
0.0499869
0.0491512
0.0483377
0.0475485
0.0467869
0.0460571
0.045365
0.0447184
0.0441276
0.0436062
0.0431723
0.0428498
0.0426696
0.961692
0.892185
0.829085
0.771728
0.719523
0.671944
0.628524
0.588843
0.552532
0.519258
0.488724
0.460667
0.434849
0.411059
0.389108
0.368826
0.350059
0.332672
0.316542
0.301558
0.28762
0.274638
0.262532
0.251229
0.240661
0.23077
0.221501
0.212805
0.204637
0.196957
0.189727
0.182913
0.176486
0.170416
0.164679
0.15925
0.154109
0.149234
0.144609
0.140217
0.136041
0.132069
0.128286
0.124681
0.121243
0.117961
0.114827
0.11183
0.108963
0.106218
0.103589
0.101068
0.098649
0.0963269
0.094096
0.0919514
0.0898884
0.0879025
0.0859896
0.0841459
0.0823677
0.0806516
0.0789943
0.0773929
0.0758443
0.074346
0.0728953
0.0714897
0.0701269
0.0688046
0.0675209
0.0662736
0.0650608
0.0638808
0.0627316
0.0616118
0.0605197
0.0594539
0.0584129
0.0573955
0.0564005
0.0554269
0.0544739
0.0535407
0.0526268
0.0517321
0.0508566
0.0500007
0.0491654
0.0483522
0.0475633
0.0468019
0.0460724
0.0453804
0.0447339
0.0441431
0.0436217
0.0431878
0.0428652
0.0426848
0.961692
0.892185
0.829085
0.771728
0.719523
0.671944
0.628524
0.588843
0.552532
0.519258
0.488724
0.460667
0.434849
0.41106
0.389108
0.368826
0.35006
0.332673
0.316542
0.301558
0.28762
0.274639
0.262533
0.251229
0.240662
0.230771
0.221502
0.212806
0.204638
0.196958
0.189728
0.182915
0.176487
0.170418
0.164681
0.159252
0.15411
0.149236
0.144611
0.140219
0.136043
0.132071
0.128288
0.124683
0.121245
0.117964
0.114829
0.111833
0.108966
0.106221
0.103592
0.101071
0.0986524
0.0963304
0.0940997
0.0919553
0.0898924
0.0879066
0.0859939
0.0841504
0.0823724
0.0806564
0.0789994
0.0773981
0.0758498
0.0743517
0.0729012
0.0714958
0.0701333
0.0688113
0.0675279
0.0662809
0.0650684
0.0638886
0.0627398
0.0616204
0.0605286
0.0594631
0.0584225
0.0574056
0.056411
0.0554379
0.0544853
0.0535525
0.0526391
0.0517447
0.0508696
0.0500141
0.0491792
0.0483663
0.0475778
0.0468167
0.0460873
0.0453955
0.0447491
0.0441583
0.0436368
0.0432028
0.0428801
0.0426997
0.961692
0.892185
0.829085
0.771728
0.719523
0.671944
0.628524
0.588843
0.552532
0.519258
0.488724
0.460667
0.434849
0.41106
0.389109
0.368826
0.35006
0.332673
0.316543
0.301558
0.28762
0.274639
0.262533
0.25123
0.240663
0.230772
0.221503
0.212807
0.204639
0.196959
0.189729
0.182916
0.176489
0.170419
0.164682
0.159253
0.154112
0.149238
0.144613
0.14022
0.136045
0.132073
0.12829
0.124686
0.121248
0.117966
0.114832
0.111835
0.108969
0.106224
0.103595
0.101074
0.0986557
0.0963339
0.0941033
0.091959
0.0898963
0.0879107
0.0859981
0.0841548
0.0823769
0.0806612
0.0790043
0.0774033
0.0758552
0.0743572
0.072907
0.0715018
0.0701395
0.0688178
0.0675346
0.0662879
0.0650757
0.0638963
0.0627478
0.0616287
0.0605373
0.0594722
0.058432
0.0574154
0.0564212
0.0554485
0.0544963
0.053564
0.0526509
0.051757
0.0508823
0.0500272
0.0491927
0.0483801
0.0475919
0.046831
0.0461018
0.0454102
0.0447638
0.0441731
0.0436516
0.0432175
0.0428948
0.0427142
0.961692
0.892185
0.829085
0.771728
0.719523
0.671944
0.628524
0.588843
0.552532
0.519258
0.488724
0.460667
0.434849
0.41106
0.389109
0.368826
0.35006
0.332673
0.316543
0.301559
0.287621
0.27464
0.262534
0.25123
0.240663
0.230772
0.221504
0.212808
0.20464
0.19696
0.18973
0.182917
0.17649
0.17042
0.164683
0.159255
0.154113
0.149239
0.144615
0.140222
0.136047
0.132075
0.128292
0.124688
0.12125
0.117969
0.114834
0.111838
0.108971
0.106227
0.103598
0.101077
0.0986589
0.0963372
0.0941068
0.0919626
0.0899
0.0879146
0.0860022
0.084159
0.0823813
0.0806658
0.0790091
0.0774082
0.0758603
0.0743626
0.0729125
0.0715076
0.0701456
0.0688241
0.0675412
0.0662947
0.0650829
0.0639037
0.0627556
0.0616367
0.0605457
0.0594809
0.0584411
0.0574249
0.0564311
0.0554588
0.054507
0.0535751
0.0526625
0.051769
0.0508946
0.0500399
0.0492057
0.0483935
0.0476056
0.0468449
0.046116
0.0454245
0.0447782
0.0441874
0.0436659
0.0432318
0.0429089
0.0427283
0.961692
0.892185
0.829085
0.771728
0.719523
0.671944
0.628524
0.588843
0.552532
0.519258
0.488724
0.460667
0.434849
0.41106
0.389109
0.368826
0.35006
0.332674
0.316543
0.301559
0.287621
0.27464
0.262534
0.251231
0.240664
0.230773
0.221504
0.212809
0.204641
0.196961
0.189731
0.182918
0.176491
0.170422
0.164685
0.159256
0.154115
0.149241
0.144616
0.140224
0.136049
0.132077
0.128294
0.12469
0.121252
0.117971
0.114837
0.111841
0.108974
0.10623
0.103601
0.10108
0.098662
0.0963405
0.0941102
0.0919662
0.0899037
0.0879184
0.0860062
0.0841631
0.0823856
0.0806702
0.0790137
0.077413
0.0758653
0.0743678
0.0729179
0.0715133
0.0701514
0.0688302
0.0675475
0.0663013
0.0650897
0.0639109
0.062763
0.0616445
0.0605538
0.0594894
0.0584499
0.0574341
0.0564407
0.0554688
0.0545174
0.0535858
0.0526736
0.0517805
0.0509066
0.0500522
0.0492184
0.0484065
0.0476188
0.0468584
0.0461296
0.0454383
0.0447921
0.0442014
0.0436798
0.0432457
0.0429227
0.042742
0.961692
0.892185
0.829085
0.771728
0.719523
0.671944
0.628523
0.588843
0.552532
0.519258
0.488724
0.460667
0.43485
0.41106
0.389109
0.368827
0.35006
0.332674
0.316544
0.30156
0.287622
0.27464
0.262535
0.251231
0.240664
0.230774
0.221505