/*--------------------------------*- C++ -*----------------------------------*\
  =========                 |
  \\      /  F ield         | OpenFOAM: The Open Source CFD Toolbox
   \\    /   O peration     | Website:  https://openfoam.org
    \\  /    A nd           | Version:  11
     \\/     M anipulation  |
\*---------------------------------------------------------------------------*/
FoamFile
{
    format      ascii;
    class       volVectorField;
    location    "844";
    object      U;
}
// * * * * * * * * * * * * * * * * * * * * * * * * * * * * * * * * * * * * * //

dimensions      [0 1 -1 0 0 0 0];

internalField   nonuniform List<vector> 
10000
(
(0.005 -4.30852e-09 0)
(0.005 -1.1154e-08 0)
(0.005 -1.72097e-08 0)
(0.00499999 -2.30523e-08 0)
(0.00499999 -2.89235e-08 0)
(0.00499999 -3.49535e-08 0)
(0.00499999 -4.12449e-08 0)
(0.00499998 -4.78844e-08 0)
(0.00499998 -5.49502e-08 0)
(0.00499997 -6.25162e-08 0)
(0.00499997 -7.06546e-08 0)
(0.00499996 -7.94375e-08 0)
(0.00499995 -8.89383e-08 0)
(0.00499995 -9.92322e-08 0)
(0.00499994 -1.10397e-07 0)
(0.00499993 -1.22515e-07 0)
(0.00499992 -1.35671e-07 0)
(0.00499991 -1.49954e-07 0)
(0.0049999 -1.6546e-07 0)
(0.00499988 -1.82288e-07 0)
(0.00499987 -2.00544e-07 0)
(0.00499985 -2.2034e-07 0)
(0.00499984 -2.41793e-07 0)
(0.00499982 -2.65029e-07 0)
(0.0049998 -2.90179e-07 0)
(0.00499978 -3.17384e-07 0)
(0.00499976 -3.46791e-07 0)
(0.00499974 -3.78556e-07 0)
(0.00499971 -4.12843e-07 0)
(0.00499968 -4.49827e-07 0)
(0.00499965 -4.8969e-07 0)
(0.00499962 -5.32626e-07 0)
(0.00499959 -5.78838e-07 0)
(0.00499955 -6.28538e-07 0)
(0.00499951 -6.81952e-07 0)
(0.00499947 -7.39314e-07 0)
(0.00499943 -8.00874e-07 0)
(0.00499938 -8.66888e-07 0)
(0.00499933 -9.3763e-07 0)
(0.00499927 -1.01338e-06 0)
(0.00499922 -1.09444e-06 0)
(0.00499916 -1.18112e-06 0)
(0.00499909 -1.27374e-06 0)
(0.00499902 -1.37263e-06 0)
(0.00499895 -1.47816e-06 0)
(0.00499887 -1.59067e-06 0)
(0.00499879 -1.71056e-06 0)
(0.0049987 -1.83822e-06 0)
(0.00499861 -1.97404e-06 0)
(0.00499851 -2.11846e-06 0)
(0.0049984 -2.27191e-06 0)
(0.00499829 -2.43484e-06 0)
(0.00499817 -2.60772e-06 0)
(0.00499805 -2.79102e-06 0)
(0.00499792 -2.98524e-06 0)
(0.00499778 -3.19087e-06 0)
(0.00499764 -3.40845e-06 0)
(0.00499749 -3.63848e-06 0)
(0.00499733 -3.88152e-06 0)
(0.00499716 -4.13812e-06 0)
(0.00499698 -4.40883e-06 0)
(0.00499679 -4.69421e-06 0)
(0.0049966 -4.99485e-06 0)
(0.00499639 -5.31131e-06 0)
(0.00499618 -5.64417e-06 0)
(0.00499595 -5.99401e-06 0)
(0.00499572 -6.3614e-06 0)
(0.00499547 -6.74691e-06 0)
(0.00499522 -7.15108e-06 0)
(0.00499495 -7.57445e-06 0)
(0.00499467 -8.01754e-06 0)
(0.00499438 -8.48084e-06 0)
(0.00499408 -8.96479e-06 0)
(0.00499377 -9.46979e-06 0)
(0.00499344 -9.99621e-06 0)
(0.00499311 -1.05443e-05 0)
(0.00499276 -1.11143e-05 0)
(0.0049924 -1.17062e-05 0)
(0.00499203 -1.23201e-05 0)
(0.00499165 -1.29557e-05 0)
(0.00499126 -1.36127e-05 0)
(0.00499086 -1.42905e-05 0)
(0.00499045 -1.49882e-05 0)
(0.00499003 -1.57046e-05 0)
(0.00498961 -1.64382e-05 0)
(0.00498918 -1.71868e-05 0)
(0.00498875 -1.79479e-05 0)
(0.00498831 -1.87181e-05 0)
(0.00498788 -1.94932e-05 0)
(0.00498745 -2.0268e-05 0)
(0.00498702 -2.1036e-05 0)
(0.0049866 -2.17896e-05 0)
(0.0049862 -2.2519e-05 0)
(0.00498581 -2.32127e-05 0)
(0.00498544 -2.3857e-05 0)
(0.0049851 -2.44355e-05 0)
(0.0049848 -2.49294e-05 0)
(0.00498454 -2.53169e-05 0)
(0.00498433 -2.55777e-05 0)
(0.00498416 -2.57104e-05 0)
(0.005 -3.43516e-09 0)
(0.005 -9.44111e-09 0)
(0.005 -1.49613e-08 0)
(0.00499999 -2.03388e-08 0)
(0.00499999 -2.57473e-08 0)
(0.00499999 -3.13e-08 0)
(0.00499999 -3.70901e-08 0)
(0.00499998 -4.31986e-08 0)
(0.00499998 -4.96995e-08 0)
(0.00499997 -5.66631e-08 0)
(0.00499997 -6.4158e-08 0)
(0.00499996 -7.2253e-08 0)
(0.00499995 -8.10179e-08 0)
(0.00499995 -9.05244e-08 0)
(0.00499994 -1.00847e-07 0)
(0.00499993 -1.12064e-07 0)
(0.00499992 -1.24256e-07 0)
(0.00499991 -1.3751e-07 0)
(0.0049999 -1.51915e-07 0)
(0.00499988 -1.67568e-07 0)
(0.00499987 -1.84569e-07 0)
(0.00499986 -2.03026e-07 0)
(0.00499984 -2.23052e-07 0)
(0.00499982 -2.44767e-07 0)
(0.0049998 -2.68298e-07 0)
(0.00499978 -2.9378e-07 0)
(0.00499976 -3.21354e-07 0)
(0.00499974 -3.5117e-07 0)
(0.00499971 -3.83388e-07 0)
(0.00499968 -4.18175e-07 0)
(0.00499965 -4.55707e-07 0)
(0.00499962 -4.96171e-07 0)
(0.00499959 -5.39764e-07 0)
(0.00499955 -5.86691e-07 0)
(0.00499951 -6.37171e-07 0)
(0.00499947 -6.9143e-07 0)
(0.00499943 -7.4971e-07 0)
(0.00499938 -8.12262e-07 0)
(0.00499933 -8.79348e-07 0)
(0.00499928 -9.51246e-07 0)
(0.00499922 -1.02824e-06 0)
(0.00499916 -1.11064e-06 0)
(0.00499909 -1.19875e-06 0)
(0.00499903 -1.29291e-06 0)
(0.00499895 -1.39346e-06 0)
(0.00499887 -1.50075e-06 0)
(0.00499879 -1.61515e-06 0)
(0.0049987 -1.73705e-06 0)
(0.00499861 -1.86685e-06 0)
(0.00499851 -2.00496e-06 0)
(0.00499841 -2.15181e-06 0)
(0.0049983 -2.30784e-06 0)
(0.00499818 -2.47351e-06 0)
(0.00499806 -2.6493e-06 0)
(0.00499793 -2.83568e-06 0)
(0.00499779 -3.03315e-06 0)
(0.00499765 -3.24224e-06 0)
(0.0049975 -3.46346e-06 0)
(0.00499734 -3.69735e-06 0)
(0.00499717 -3.94446e-06 0)
(0.00499699 -4.20535e-06 0)
(0.00499681 -4.48058e-06 0)
(0.00499661 -4.77073e-06 0)
(0.00499641 -5.07638e-06 0)
(0.00499619 -5.39812e-06 0)
(0.00499597 -5.73653e-06 0)
(0.00499574 -6.0922e-06 0)
(0.00499549 -6.46571e-06 0)
(0.00499524 -6.85763e-06 0)
(0.00499497 -7.26853e-06 0)
(0.00499469 -7.69896e-06 0)
(0.0049944 -8.14944e-06 0)
(0.0049941 -8.62046e-06 0)
(0.00499379 -9.11247e-06 0)
(0.00499347 -9.62589e-06 0)
(0.00499313 -1.01611e-05 0)
(0.00499279 -1.07183e-05 0)
(0.00499243 -1.12977e-05 0)
(0.00499206 -1.18993e-05 0)
(0.00499168 -1.25232e-05 0)
(0.00499129 -1.31691e-05 0)
(0.00499089 -1.38365e-05 0)
(0.00499049 -1.45247e-05 0)
(0.00499007 -1.52328e-05 0)
(0.00498965 -1.59594e-05 0)
(0.00498922 -1.67027e-05 0)
(0.00498879 -1.74603e-05 0)
(0.00498835 -1.82292e-05 0)
(0.00498792 -1.90057e-05 0)
(0.00498748 -1.97848e-05 0)
(0.00498706 -2.05607e-05 0)
(0.00498664 -2.1326e-05 0)
(0.00498623 -2.20718e-05 0)
(0.00498584 -2.27871e-05 0)
(0.00498547 -2.34591e-05 0)
(0.00498513 -2.40723e-05 0)
(0.00498482 -2.46086e-05 0)
(0.00498454 -2.50472e-05 0)
(0.0049843 -2.53663e-05 0)
(0.00498409 -2.55513e-05 0)
(0.005 -2.72266e-09 0)
(0.005 -7.86977e-09 0)
(0.005 -1.28018e-08 0)
(0.005 -1.76861e-08 0)
(0.00499999 -2.26259e-08 0)
(0.00499999 -2.77053e-08 0)
(0.00499999 -3.30033e-08 0)
(0.00499998 -3.85929e-08 0)
(0.00499998 -4.45429e-08 0)
(0.00499997 -5.09193e-08 0)
(0.00499997 -5.77873e-08 0)
(0.00499996 -6.52121e-08 0)
(0.00499995 -7.32604e-08 0)
(0.00499995 -8.20004e-08 0)
(0.00499994 -9.15033e-08 0)
(0.00499993 -1.01843e-07 0)
(0.00499992 -1.13098e-07 0)
(0.00499991 -1.2535e-07 0)
(0.0049999 -1.38685e-07 0)
(0.00499989 -1.53195e-07 0)
(0.00499987 -1.68978e-07 0)
(0.00499986 -1.86135e-07 0)
(0.00499984 -2.04775e-07 0)
(0.00499982 -2.25014e-07 0)
(0.0049998 -2.46973e-07 0)
(0.00499978 -2.70782e-07 0)
(0.00499976 -2.96578e-07 0)
(0.00499974 -3.24504e-07 0)
(0.00499971 -3.54715e-07 0)
(0.00499969 -3.87372e-07 0)
(0.00499966 -4.22645e-07 0)
(0.00499963 -4.60714e-07 0)
(0.00499959 -5.0177e-07 0)
(0.00499956 -5.46011e-07 0)
(0.00499952 -5.93649e-07 0)
(0.00499948 -6.44905e-07 0)
(0.00499943 -7.0001e-07 0)
(0.00499939 -7.5921e-07 0)
(0.00499934 -8.2276e-07 0)
(0.00499928 -8.90927e-07 0)
(0.00499923 -9.63994e-07 0)
(0.00499917 -1.04225e-06 0)
(0.0049991 -1.12601e-06 0)
(0.00499903 -1.21559e-06 0)
(0.00499896 -1.31132e-06 0)
(0.00499888 -1.41356e-06 0)
(0.0049988 -1.52266e-06 0)
(0.00499872 -1.639e-06 0)
(0.00499862 -1.76297e-06 0)
(0.00499853 -1.89499e-06 0)
(0.00499842 -2.03546e-06 0)
(0.00499831 -2.18483e-06 0)
(0.0049982 -2.34355e-06 0)
(0.00499808 -2.51207e-06 0)
(0.00499795 -2.69089e-06 0)
(0.00499781 -2.88049e-06 0)
(0.00499767 -3.08139e-06 0)
(0.00499752 -3.2941e-06 0)
(0.00499736 -3.51916e-06 0)
(0.00499719 -3.75712e-06 0)
(0.00499702 -4.00853e-06 0)
(0.00499683 -4.27397e-06 0)
(0.00499664 -4.55401e-06 0)
(0.00499644 -4.84923e-06 0)
(0.00499622 -5.16024e-06 0)
(0.004996 -5.48763e-06 0)
(0.00499577 -5.832e-06 0)
(0.00499553 -6.19395e-06 0)
(0.00499527 -6.57407e-06 0)
(0.00499501 -6.97296e-06 0)
(0.00499473 -7.39118e-06 0)
(0.00499445 -7.8293e-06 0)
(0.00499415 -8.28785e-06 0)
(0.00499384 -8.76734e-06 0)
(0.00499352 -9.26823e-06 0)
(0.00499318 -9.79094e-06 0)
(0.00499284 -1.03358e-05 0)
(0.00499248 -1.09031e-05 0)
(0.00499212 -1.1493e-05 0)
(0.00499174 -1.21056e-05 0)
(0.00499135 -1.27406e-05 0)
(0.00499096 -1.3398e-05 0)
(0.00499055 -1.4077e-05 0)
(0.00499014 -1.4777e-05 0)
(0.00498971 -1.54968e-05 0)
(0.00498929 -1.62348e-05 0)
(0.00498886 -1.69889e-05 0)
(0.00498842 -1.77564e-05 0)
(0.00498799 -1.85338e-05 0)
(0.00498756 -1.93167e-05 0)
(0.00498713 -2.00996e-05 0)
(0.00498671 -2.08756e-05 0)
(0.0049863 -2.16362e-05 0)
(0.0049859 -2.23711e-05 0)
(0.00498552 -2.30678e-05 0)
(0.00498517 -2.37112e-05 0)
(0.00498484 -2.42835e-05 0)
(0.00498455 -2.47632e-05 0)
(0.00498427 -2.51271e-05 0)
(0.00498401 -2.53541e-05 0)
(0.005 -2.24388e-09 0)
(0.005 -6.62131e-09 0)
(0.005 -1.0955e-08 0)
(0.005 -1.534e-08 0)
(0.00499999 -1.98224e-08 0)
(0.00499999 -2.44546e-08 0)
(0.00499999 -2.92971e-08 0)
(0.00499998 -3.4412e-08 0)
(0.00499998 -3.98609e-08 0)
(0.00499997 -4.57052e-08 0)
(0.00499997 -5.20058e-08 0)
(0.00499996 -5.88247e-08 0)
(0.00499996 -6.6225e-08 0)
(0.00499995 -7.42719e-08 0)
(0.00499994 -8.30334e-08 0)
(0.00499993 -9.25803e-08 0)
(0.00499992 -1.02987e-07 0)
(0.00499991 -1.14333e-07 0)
(0.0049999 -1.267e-07 0)
(0.00499989 -1.40176e-07 0)
(0.00499987 -1.54855e-07 0)
(0.00499986 -1.70835e-07 0)
(0.00499984 -1.8822e-07 0)
(0.00499983 -2.07122e-07 0)
(0.00499981 -2.27658e-07 0)
(0.00499979 -2.49952e-07 0)
(0.00499977 -2.74137e-07 0)
(0.00499974 -3.00352e-07 0)
(0.00499972 -3.28744e-07 0)
(0.00499969 -3.59471e-07 0)
(0.00499966 -3.92696e-07 0)
(0.00499963 -4.28595e-07 0)
(0.0049996 -4.67351e-07 0)
(0.00499956 -5.09157e-07 0)
(0.00499953 -5.54219e-07 0)
(0.00499948 -6.02751e-07 0)
(0.00499944 -6.54978e-07 0)
(0.0049994 -7.11137e-07 0)
(0.00499935 -7.71479e-07 0)
(0.00499929 -8.36264e-07 0)
(0.00499924 -9.05765e-07 0)
(0.00499918 -9.8027e-07 0)
(0.00499911 -1.06008e-06 0)
(0.00499905 -1.1455e-06 0)
(0.00499897 -1.23687e-06 0)
(0.0049989 -1.33451e-06 0)
(0.00499882 -1.4388e-06 0)
(0.00499873 -1.5501e-06 0)
(0.00499864 -1.66878e-06 0)
(0.00499854 -1.79526e-06 0)
(0.00499844 -1.92995e-06 0)
(0.00499833 -2.07327e-06 0)
(0.00499822 -2.22566e-06 0)
(0.0049981 -2.3876e-06 0)
(0.00499797 -2.55955e-06 0)
(0.00499784 -2.742e-06 0)
(0.0049977 -2.93545e-06 0)
(0.00499755 -3.14043e-06 0)
(0.00499739 -3.35747e-06 0)
(0.00499722 -3.58711e-06 0)
(0.00499705 -3.82991e-06 0)
(0.00499687 -4.08644e-06 0)
(0.00499668 -4.35728e-06 0)
(0.00499648 -4.64303e-06 0)
(0.00499627 -4.94428e-06 0)
(0.00499605 -5.26164e-06 0)
(0.00499582 -5.59573e-06 0)
(0.00499558 -5.94715e-06 0)
(0.00499532 -6.31652e-06 0)
(0.00499506 -6.70445e-06 0)
(0.00499479 -7.11155e-06 0)
(0.00499451 -7.5384e-06 0)
(0.00499421 -7.98559e-06 0)
(0.0049939 -8.45364e-06 0)
(0.00499358 -8.94309e-06 0)
(0.00499325 -9.45439e-06 0)
(0.00499291 -9.98798e-06 0)
(0.00499256 -1.05442e-05 0)
(0.0049922 -1.11233e-05 0)
(0.00499182 -1.17254e-05 0)
(0.00499144 -1.23505e-05 0)
(0.00499104 -1.29985e-05 0)
(0.00499064 -1.3669e-05 0)
(0.00499023 -1.43614e-05 0)
(0.00498981 -1.50747e-05 0)
(0.00498938 -1.58074e-05 0)
(0.00498896 -1.65579e-05 0)
(0.00498852 -1.73236e-05 0)
(0.00498809 -1.81012e-05 0)
(0.00498766 -1.88868e-05 0)
(0.00498723 -1.96751e-05 0)
(0.0049868 -2.04595e-05 0)
(0.00498639 -2.12319e-05 0)
(0.00498599 -2.19823e-05 0)
(0.0049856 -2.26983e-05 0)
(0.00498523 -2.33648e-05 0)
(0.00498489 -2.39633e-05 0)
(0.00498457 -2.44709e-05 0)
(0.00498426 -2.48607e-05 0)
(0.00498394 -2.51108e-05 0)
(0.005 -1.85243e-09 0)
(0.005 -5.52781e-09 0)
(0.005 -9.26046e-09 0)
(0.005 -1.31221e-08 0)
(0.00499999 -1.71251e-08 0)
(0.00499999 -2.12955e-08 0)
(0.00499999 -2.56752e-08 0)
(0.00499998 -3.0314e-08 0)
(0.00499998 -3.52651e-08 0)
(0.00499997 -4.05835e-08 0)
(0.00499997 -4.63255e-08 0)
(0.00499996 -5.25489e-08 0)
(0.00499996 -5.93133e-08 0)
(0.00499995 -6.66805e-08 0)
(0.00499994 -7.47151e-08 0)
(0.00499993 -8.34847e-08 0)
(0.00499992 -9.30605e-08 0)
(0.00499991 -1.03518e-07 0)
(0.0049999 -1.14935e-07 0)
(0.00499989 -1.27398e-07 0)
(0.00499988 -1.40995e-07 0)
(0.00499986 -1.5582e-07 0)
(0.00499985 -1.71974e-07 0)
(0.00499983 -1.89565e-07 0)
(0.00499981 -2.08704e-07 0)
(0.00499979 -2.29512e-07 0)
(0.00499977 -2.52115e-07 0)
(0.00499975 -2.76649e-07 0)
(0.00499972 -3.03256e-07 0)
(0.0049997 -3.32087e-07 0)
(0.00499967 -3.63302e-07 0)
(0.00499964 -3.97068e-07 0)
(0.00499961 -4.33565e-07 0)
(0.00499957 -4.7298e-07 0)
(0.00499953 -5.1551e-07 0)
(0.00499949 -5.61364e-07 0)
(0.00499945 -6.10762e-07 0)
(0.00499941 -6.63934e-07 0)
(0.00499936 -7.21122e-07 0)
(0.0049993 -7.8258e-07 0)
(0.00499925 -8.48576e-07 0)
(0.00499919 -9.19388e-07 0)
(0.00499913 -9.95308e-07 0)
(0.00499906 -1.07664e-06 0)
(0.00499899 -1.16371e-06 0)
(0.00499892 -1.25685e-06 0)
(0.00499884 -1.3564e-06 0)
(0.00499875 -1.46273e-06 0)
(0.00499866 -1.57621e-06 0)
(0.00499857 -1.69724e-06 0)
(0.00499847 -1.82623e-06 0)
(0.00499836 -1.96359e-06 0)
(0.00499825 -2.10976e-06 0)
(0.00499813 -2.26521e-06 0)
(0.004998 -2.43039e-06 0)
(0.00499787 -2.60579e-06 0)
(0.00499773 -2.79191e-06 0)
(0.00499758 -2.98927e-06 0)
(0.00499743 -3.1984e-06 0)
(0.00499727 -3.41983e-06 0)
(0.00499709 -3.65414e-06 0)
(0.00499691 -3.90189e-06 0)
(0.00499673 -4.16366e-06 0)
(0.00499653 -4.44005e-06 0)
(0.00499632 -4.73166e-06 0)
(0.0049961 -5.03912e-06 0)
(0.00499588 -5.36305e-06 0)
(0.00499564 -5.70407e-06 0)
(0.00499539 -6.06282e-06 0)
(0.00499513 -6.43992e-06 0)
(0.00499486 -6.83601e-06 0)
(0.00499458 -7.25171e-06 0)
(0.00499429 -7.68763e-06 0)
(0.00499398 -8.14434e-06 0)
(0.00499367 -8.62243e-06 0)
(0.00499334 -9.12241e-06 0)
(0.00499301 -9.64476e-06 0)
(0.00499266 -1.01899e-05 0)
(0.0049923 -1.07582e-05 0)
(0.00499193 -1.13498e-05 0)
(0.00499155 -1.1965e-05 0)
(0.00499116 -1.26036e-05 0)
(0.00499075 -1.32654e-05 0)
(0.00499035 -1.39499e-05 0)
(0.00498993 -1.46564e-05 0)
(0.00498951 -1.53836e-05 0)
(0.00498908 -1.61299e-05 0)
(0.00498865 -1.68931e-05 0)
(0.00498821 -1.76702e-05 0)
(0.00498778 -1.84574e-05 0)
(0.00498735 -1.92498e-05 0)
(0.00498692 -2.0041e-05 0)
(0.0049865 -2.08231e-05 0)
(0.00498609 -2.15862e-05 0)
(0.0049857 -2.2318e-05 0)
(0.00498532 -2.30029e-05 0)
(0.00498495 -2.36218e-05 0)
(0.00498461 -2.415e-05 0)
(0.00498426 -2.45575e-05 0)
(0.00498389 -2.48169e-05 0)
(0.005 -1.5121e-09 0)
(0.005 -4.54704e-09 0)
(0.005 -7.69418e-09 0)
(0.005 -1.1024e-08 0)
(0.00499999 -1.4532e-08 0)
(0.00499999 -1.82255e-08 0)
(0.00499999 -2.21312e-08 0)
(0.00499998 -2.62868e-08 0)
(0.00499998 -3.07368e-08 0)
(0.00499998 -3.55291e-08 0)
(0.00499997 -4.07147e-08 0)
(0.00499996 -4.63468e-08 0)
(0.00499996 -5.24811e-08 0)
(0.00499995 -5.91757e-08 0)
(0.00499994 -6.64917e-08 0)
(0.00499993 -7.44931e-08 0)
(0.00499993 -8.32478e-08 0)
(0.00499992 -9.28272e-08 0)
(0.0049999 -1.03307e-07 0)
(0.00499989 -1.14769e-07 0)
(0.00499988 -1.27296e-07 0)
(0.00499986 -1.40981e-07 0)
(0.00499985 -1.5592e-07 0)
(0.00499983 -1.72214e-07 0)
(0.00499982 -1.89973e-07 0)
(0.0049998 -2.09311e-07 0)
(0.00499978 -2.30352e-07 0)
(0.00499975 -2.53225e-07 0)
(0.00499973 -2.78067e-07 0)
(0.0049997 -3.05024e-07 0)
(0.00499968 -3.3425e-07 0)
(0.00499965 -3.65908e-07 0)
(0.00499961 -4.0017e-07 0)
(0.00499958 -4.37218e-07 0)
(0.00499954 -4.77243e-07 0)
(0.0049995 -5.20449e-07 0)
(0.00499946 -5.67047e-07 0)
(0.00499942 -6.17261e-07 0)
(0.00499937 -6.71328e-07 0)
(0.00499932 -7.29493e-07 0)
(0.00499926 -7.92018e-07 0)
(0.00499921 -8.59173e-07 0)
(0.00499914 -9.31245e-07 0)
(0.00499908 -1.00853e-06 0)
(0.00499901 -1.09134e-06 0)
(0.00499894 -1.18001e-06 0)
(0.00499886 -1.27487e-06 0)
(0.00499877 -1.37628e-06 0)
(0.00499869 -1.4846e-06 0)
(0.00499859 -1.60023e-06 0)
(0.00499849 -1.72357e-06 0)
(0.00499839 -1.85502e-06 0)
(0.00499828 -1.99502e-06 0)
(0.00499816 -2.14403e-06 0)
(0.00499804 -2.3025e-06 0)
(0.00499791 -2.4709e-06 0)
(0.00499777 -2.64975e-06 0)
(0.00499763 -2.83955e-06 0)
(0.00499747 -3.04082e-06 0)
(0.00499731 -3.25412e-06 0)
(0.00499715 -3.47999e-06 0)
(0.00499697 -3.71901e-06 0)
(0.00499678 -3.97176e-06 0)
(0.00499659 -4.23885e-06 0)
(0.00499638 -4.52089e-06 0)
(0.00499617 -4.81851e-06 0)
(0.00499595 -5.13233e-06 0)
(0.00499571 -5.463e-06 0)
(0.00499547 -5.81116e-06 0)
(0.00499521 -6.17748e-06 0)
(0.00499495 -6.5626e-06 0)
(0.00499467 -6.96717e-06 0)
(0.00499438 -7.39183e-06 0)
(0.00499408 -7.83722e-06 0)
(0.00499377 -8.30394e-06 0)
(0.00499345 -8.79257e-06 0)
(0.00499312 -9.30365e-06 0)
(0.00499277 -9.83767e-06 0)
(0.00499242 -1.03951e-05 0)
(0.00499205 -1.09761e-05 0)
(0.00499167 -1.15811e-05 0)
(0.00499129 -1.22101e-05 0)
(0.00499089 -1.28629e-05 0)
(0.00499049 -1.35393e-05 0)
(0.00499007 -1.42385e-05 0)
(0.00498965 -1.49597e-05 0)
(0.00498923 -1.57012e-05 0)
(0.0049888 -1.64612e-05 0)
(0.00498836 -1.72369e-05 0)
(0.00498793 -1.80246e-05 0)
(0.0049875 -1.88195e-05 0)
(0.00498707 -1.96157e-05 0)
(0.00498664 -2.04054e-05 0)
(0.00498622 -2.11785e-05 0)
(0.00498582 -2.19226e-05 0)
(0.00498542 -2.26219e-05 0)
(0.00498504 -2.32562e-05 0)
(0.00498467 -2.37997e-05 0)
(0.00498429 -2.42196e-05 0)
(0.00498387 -2.44772e-05 0)
(0.005 -1.21183e-09 0)
(0.005 -3.66091e-09 0)
(0.005 -6.25049e-09 0)
(0.005 -9.0564e-09 0)
(0.00499999 -1.20668e-08 0)
(0.00499999 -1.52776e-08 0)
(0.00499999 -1.87039e-08 0)
(0.00499999 -2.23734e-08 0)
(0.00499998 -2.6322e-08 0)
(0.00499998 -3.05909e-08 0)
(0.00499997 -3.52255e-08 0)
(0.00499997 -4.02741e-08 0)
(0.00499996 -4.5788e-08 0)
(0.00499995 -5.18215e-08 0)
(0.00499994 -5.8432e-08 0)
(0.00499994 -6.56799e-08 0)
(0.00499993 -7.36296e-08 0)
(0.00499992 -8.2349e-08 0)
(0.00499991 -9.19104e-08 0)
(0.0049999 -1.0239e-07 0)
(0.00499988 -1.13871e-07 0)
(0.00499987 -1.26438e-07 0)
(0.00499985 -1.40185e-07 0)
(0.00499984 -1.5521e-07 0)
(0.00499982 -1.71616e-07 0)
(0.0049998 -1.89514e-07 0)
(0.00499978 -2.09023e-07 0)
(0.00499976 -2.30266e-07 0)
(0.00499974 -2.53377e-07 0)
(0.00499971 -2.78496e-07 0)
(0.00499968 -3.05772e-07 0)
(0.00499965 -3.35361e-07 0)
(0.00499962 -3.67431e-07 0)
(0.00499959 -4.02157e-07 0)
(0.00499955 -4.39725e-07 0)
(0.00499952 -4.8033e-07 0)
(0.00499947 -5.24179e-07 0)
(0.00499943 -5.7149e-07 0)
(0.00499938 -6.22491e-07 0)
(0.00499933 -6.77423e-07 0)
(0.00499928 -7.36538e-07 0)
(0.00499922 -8.00101e-07 0)
(0.00499916 -8.6839e-07 0)
(0.0049991 -9.41698e-07 0)
(0.00499903 -1.02033e-06 0)
(0.00499896 -1.1046e-06 0)
(0.00499888 -1.19484e-06 0)
(0.0049988 -1.29141e-06 0)
(0.00499872 -1.39467e-06 0)
(0.00499862 -1.50498e-06 0)
(0.00499853 -1.62276e-06 0)
(0.00499842 -1.7484e-06 0)
(0.00499832 -1.88233e-06 0)
(0.0049982 -2.02499e-06 0)
(0.00499808 -2.17685e-06 0)
(0.00499795 -2.33837e-06 0)
(0.00499782 -2.51005e-06 0)
(0.00499768 -2.6924e-06 0)
(0.00499753 -2.88593e-06 0)
(0.00499737 -3.0912e-06 0)
(0.0049972 -3.30875e-06 0)
(0.00499703 -3.53916e-06 0)
(0.00499685 -3.78302e-06 0)
(0.00499666 -4.04094e-06 0)
(0.00499646 -4.31352e-06 0)
(0.00499625 -4.60141e-06 0)
(0.00499603 -4.90524e-06 0)
(0.0049958 -5.22567e-06 0)
(0.00499556 -5.56337e-06 0)
(0.00499531 -5.919e-06 0)
(0.00499504 -6.29325e-06 0)
(0.00499477 -6.68678e-06 0)
(0.00499449 -7.10028e-06 0)
(0.00499419 -7.5344e-06 0)
(0.00499389 -7.98981e-06 0)
(0.00499357 -8.46712e-06 0)
(0.00499324 -8.96694e-06 0)
(0.0049929 -9.48983e-06 0)
(0.00499255 -1.00363e-05 0)
(0.00499219 -1.06067e-05 0)
(0.00499182 -1.12014e-05 0)
(0.00499144 -1.18205e-05 0)
(0.00499104 -1.24641e-05 0)
(0.00499064 -1.3132e-05 0)
(0.00499023 -1.38236e-05 0)
(0.00498982 -1.45381e-05 0)
(0.00498939 -1.52742e-05 0)
(0.00498897 -1.60301e-05 0)
(0.00498853 -1.68033e-05 0)
(0.0049881 -1.75901e-05 0)
(0.00498766 -1.83862e-05 0)
(0.00498723 -1.91854e-05 0)
(0.0049868 -1.99802e-05 0)
(0.00498637 -2.07604e-05 0)
(0.00498595 -2.15135e-05 0)
(0.00498554 -2.22232e-05 0)
(0.00498514 -2.28684e-05 0)
(0.00498474 -2.34223e-05 0)
(0.00498434 -2.38504e-05 0)
(0.00498389 -2.41014e-05 0)
(0.005 -9.43831e-10 0)
(0.005 -2.85441e-09 0)
(0.005 -4.91904e-09 0)
(0.005 -7.21813e-09 0)
(0.00499999 -9.73777e-09 0)
(0.00499999 -1.24674e-08 0)
(0.00499999 -1.54144e-08 0)
(0.00499999 -1.85985e-08 0)
(0.00499998 -2.20483e-08 0)
(0.00499998 -2.57987e-08 0)
(0.00499997 -2.98892e-08 0)
(0.00499997 -3.43635e-08 0)
(0.00499996 -3.92684e-08 0)
(0.00499995 -4.46542e-08 0)
(0.00499995 -5.05744e-08 0)
(0.00499994 -5.70859e-08 0)
(0.00499993 -6.42493e-08 0)
(0.00499992 -7.2129e-08 0)
(0.00499991 -8.07937e-08 0)
(0.0049999 -9.03164e-08 0)
(0.00499989 -1.00775e-07 0)
(0.00499987 -1.12252e-07 0)
(0.00499986 -1.24836e-07 0)
(0.00499984 -1.38621e-07 0)
(0.00499983 -1.53707e-07 0)
(0.00499981 -1.702e-07 0)
(0.00499979 -1.88213e-07 0)
(0.00499977 -2.07866e-07 0)
(0.00499974 -2.29287e-07 0)
(0.00499972 -2.52611e-07 0)
(0.00499969 -2.77981e-07 0)
(0.00499966 -3.05549e-07 0)
(0.00499963 -3.35477e-07 0)
(0.0049996 -3.67933e-07 0)
(0.00499957 -4.03098e-07 0)
(0.00499953 -4.41161e-07 0)
(0.00499949 -4.82323e-07 0)
(0.00499945 -5.26794e-07 0)
(0.0049994 -5.74796e-07 0)
(0.00499935 -6.26564e-07 0)
(0.0049993 -6.82342e-07 0)
(0.00499924 -7.4239e-07 0)
(0.00499919 -8.06977e-07 0)
(0.00499912 -8.76388e-07 0)
(0.00499906 -9.50921e-07 0)
(0.00499899 -1.03089e-06 0)
(0.00499891 -1.11661e-06 0)
(0.00499883 -1.20844e-06 0)
(0.00499875 -1.30672e-06 0)
(0.00499866 -1.41183e-06 0)
(0.00499856 -1.52415e-06 0)
(0.00499846 -1.64409e-06 0)
(0.00499836 -1.77206e-06 0)
(0.00499825 -1.90851e-06 0)
(0.00499813 -2.05388e-06 0)
(0.004998 -2.20864e-06 0)
(0.00499787 -2.37328e-06 0)
(0.00499773 -2.54831e-06 0)
(0.00499759 -2.73424e-06 0)
(0.00499743 -2.93161e-06 0)
(0.00499727 -3.14099e-06 0)
(0.0049971 -3.36293e-06 0)
(0.00499692 -3.59804e-06 0)
(0.00499673 -3.84692e-06 0)
(0.00499654 -4.11019e-06 0)
(0.00499633 -4.38849e-06 0)
(0.00499612 -4.68247e-06 0)
(0.00499589 -4.99281e-06 0)
(0.00499566 -5.32017e-06 0)
(0.00499541 -5.66525e-06 0)
(0.00499515 -6.02874e-06 0)
(0.00499489 -6.41134e-06 0)
(0.00499461 -6.81377e-06 0)
(0.00499432 -7.23671e-06 0)
(0.00499402 -7.68087e-06 0)
(0.00499371 -8.14691e-06 0)
(0.00499338 -8.63549e-06 0)
(0.00499305 -9.14722e-06 0)
(0.0049927 -9.68266e-06 0)
(0.00499235 -1.02423e-05 0)
(0.00499198 -1.08265e-05 0)
(0.0049916 -1.14356e-05 0)
(0.00499122 -1.20697e-05 0)
(0.00499082 -1.27287e-05 0)
(0.00499041 -1.34122e-05 0)
(0.00499 -1.41195e-05 0)
(0.00498958 -1.48494e-05 0)
(0.00498915 -1.56003e-05 0)
(0.00498872 -1.63698e-05 0)
(0.00498829 -1.71544e-05 0)
(0.00498785 -1.79499e-05 0)
(0.00498741 -1.87502e-05 0)
(0.00498697 -1.95476e-05 0)
(0.00498654 -2.03323e-05 0)
(0.00498611 -2.10911e-05 0)
(0.00498568 -2.18074e-05 0)
(0.00498526 -2.24596e-05 0)
(0.00498484 -2.30198e-05 0)
(0.00498441 -2.34523e-05 0)
(0.00498393 -2.36997e-05 0)
(0.005 -7.00473e-10 0)
(0.005 -2.11572e-09 0)
(0.005 -3.6888e-09 0)
(0.005 -5.50287e-09 0)
(0.005 -7.54458e-09 0)
(0.00499999 -9.8007e-09 0)
(0.00499999 -1.22735e-08 0)
(0.00499999 -1.49768e-08 0)
(0.00499998 -1.79331e-08 0)
(0.00499998 -2.11716e-08 0)
(0.00499997 -2.47267e-08 0)
(0.00499997 -2.86372e-08 0)
(0.00499996 -3.29456e-08 0)
(0.00499996 -3.76982e-08 0)
(0.00499995 -4.29445e-08 0)
(0.00499994 -4.87378e-08 0)
(0.00499993 -5.51351e-08 0)
(0.00499992 -6.21972e-08 0)
(0.00499991 -6.9989e-08 0)
(0.0049999 -7.858e-08 0)
(0.00499989 -8.80441e-08 0)
(0.00499988 -9.84604e-08 0)
(0.00499986 -1.09913e-07 0)
(0.00499985 -1.22492e-07 0)
(0.00499983 -1.36293e-07 0)
(0.00499981 -1.51418e-07 0)
(0.00499979 -1.67975e-07 0)
(0.00499977 -1.8608e-07 0)
(0.00499975 -2.05855e-07 0)
(0.00499973 -2.2743e-07 0)
(0.0049997 -2.50944e-07 0)
(0.00499967 -2.76544e-07 0)
(0.00499964 -3.04383e-07 0)
(0.00499961 -3.34627e-07 0)
(0.00499958 -3.6745e-07 0)
(0.00499954 -4.03034e-07 0)
(0.0049995 -4.41574e-07 0)
(0.00499946 -4.83275e-07 0)
(0.00499942 -5.28351e-07 0)
(0.00499937 -5.77031e-07 0)
(0.00499932 -6.29552e-07 0)
(0.00499927 -6.86167e-07 0)
(0.00499921 -7.47138e-07 0)
(0.00499915 -8.12744e-07 0)
(0.00499908 -8.83274e-07 0)
(0.00499902 -9.59034e-07 0)
(0.00499894 -1.04034e-06 0)
(0.00499886 -1.12753e-06 0)
(0.00499878 -1.22095e-06 0)
(0.0049987 -1.32096e-06 0)
(0.0049986 -1.42795e-06 0)
(0.00499851 -1.54231e-06 0)
(0.0049984 -1.66445e-06 0)
(0.00499829 -1.7948e-06 0)
(0.00499818 -1.93382e-06 0)
(0.00499806 -2.08195e-06 0)
(0.00499793 -2.2397e-06 0)
(0.00499779 -2.40754e-06 0)
(0.00499765 -2.58602e-06 0)
(0.0049975 -2.77565e-06 0)
(0.00499734 -2.97699e-06 0)
(0.00499718 -3.19062e-06 0)
(0.004997 -3.41713e-06 0)
(0.00499682 -3.65712e-06 0)
(0.00499663 -3.91123e-06 0)
(0.00499643 -4.1801e-06 0)
(0.00499621 -4.46438e-06 0)
(0.00499599 -4.76476e-06 0)
(0.00499576 -5.08192e-06 0)
(0.00499552 -5.41657e-06 0)
(0.00499527 -5.76943e-06 0)
(0.00499501 -6.14122e-06 0)
(0.00499474 -6.53268e-06 0)
(0.00499445 -6.94452e-06 0)
(0.00499416 -7.37749e-06 0)
(0.00499385 -7.8323e-06 0)
(0.00499354 -8.30964e-06 0)
(0.00499321 -8.81018e-06 0)
(0.00499287 -9.33455e-06 0)
(0.00499252 -9.8833e-06 0)
(0.00499215 -1.04569e-05 0)
(0.00499178 -1.10557e-05 0)
(0.0049914 -1.168e-05 0)
(0.00499101 -1.23296e-05 0)
(0.00499061 -1.30045e-05 0)
(0.0049902 -1.37039e-05 0)
(0.00498978 -1.44268e-05 0)
(0.00498935 -1.51718e-05 0)
(0.00498892 -1.59363e-05 0)
(0.00498849 -1.67174e-05 0)
(0.00498805 -1.75105e-05 0)
(0.00498761 -1.83099e-05 0)
(0.00498716 -1.91078e-05 0)
(0.00498672 -1.98942e-05 0)
(0.00498628 -2.06557e-05 0)
(0.00498584 -2.13755e-05 0)
(0.0049854 -2.20313e-05 0)
(0.00498496 -2.25945e-05 0)
(0.0049845 -2.30286e-05 0)
(0.00498399 -2.3275e-05 0)
(0.005 -4.71135e-10 0)
(0.005 -1.43759e-09 0)
(0.005 -2.552e-09 0)
(0.005 -3.90433e-09 0)
(0.005 -5.48496e-09 0)
(0.00499999 -7.27987e-09 0)
(0.00499999 -9.28806e-09 0)
(0.00499999 -1.15189e-08 0)
(0.00499998 -1.39902e-08 0)
(0.00499998 -1.67261e-08 0)
(0.00499998 -1.97564e-08 0)
(0.00499997 -2.31153e-08 0)
(0.00499996 -2.68413e-08 0)
(0.00499996 -3.09765e-08 0)
(0.00499995 -3.55668e-08 0)
(0.00499994 -4.06618e-08 0)
(0.00499994 -4.63146e-08 0)
(0.00499993 -5.25826e-08 0)
(0.00499992 -5.95272e-08 0)
(0.00499991 -6.7214e-08 0)
(0.00499989 -7.57134e-08 0)
(0.00499988 -8.51004e-08 0)
(0.00499987 -9.54555e-08 0)
(0.00499985 -1.06864e-07 0)
(0.00499984 -1.19418e-07 0)
(0.00499982 -1.33216e-07 0)
(0.0049998 -1.48359e-07 0)
(0.00499978 -1.64961e-07 0)
(0.00499976 -1.83138e-07 0)
(0.00499974 -2.03016e-07 0)
(0.00499971 -2.24727e-07 0)
(0.00499969 -2.48413e-07 0)
(0.00499966 -2.74224e-07 0)
(0.00499963 -3.02317e-07 0)
(0.00499959 -3.32863e-07 0)
(0.00499956 -3.66036e-07 0)
(0.00499952 -4.02027e-07 0)
(0.00499948 -4.41032e-07 0)
(0.00499944 -4.8326e-07 0)
(0.00499939 -5.28934e-07 0)
(0.00499934 -5.78284e-07 0)
(0.00499929 -6.31554e-07 0)
(0.00499923 -6.89003e-07 0)
(0.00499918 -7.509e-07 0)
(0.00499911 -8.17529e-07 0)
(0.00499905 -8.89187e-07 0)
(0.00499898 -9.66185e-07 0)
(0.0049989 -1.04885e-06 0)
(0.00499882 -1.13752e-06 0)
(0.00499874 -1.23256e-06 0)
(0.00499865 -1.33434e-06 0)
(0.00499855 -1.44325e-06 0)
(0.00499845 -1.55969e-06 0)
(0.00499835 -1.68409e-06 0)
(0.00499823 -1.81689e-06 0)
(0.00499811 -1.95855e-06 0)
(0.00499799 -2.10954e-06 0)
(0.00499786 -2.27036e-06 0)
(0.00499772 -2.44152e-06 0)
(0.00499757 -2.62357e-06 0)
(0.00499742 -2.81704e-06 0)
(0.00499726 -3.02251e-06 0)
(0.00499709 -3.24058e-06 0)
(0.00499691 -3.47185e-06 0)
(0.00499672 -3.71696e-06 0)
(0.00499653 -3.97654e-06 0)
(0.00499632 -4.25128e-06 0)
(0.0049961 -4.54185e-06 0)
(0.00499588 -4.84896e-06 0)
(0.00499564 -5.17333e-06 0)
(0.0049954 -5.51568e-06 0)
(0.00499514 -5.87677e-06 0)
(0.00499488 -6.25735e-06 0)
(0.0049946 -6.65818e-06 0)
(0.00499431 -7.08001e-06 0)
(0.00499401 -7.52361e-06 0)
(0.0049937 -7.98972e-06 0)
(0.00499338 -8.47904e-06 0)
(0.00499304 -8.99226e-06 0)
(0.0049927 -9.52999e-06 0)
(0.00499234 -1.00928e-05 0)
(0.00499197 -1.06811e-05 0)
(0.0049916 -1.12951e-05 0)
(0.00499121 -1.1935e-05 0)
(0.00499081 -1.26007e-05 0)
(0.00499041 -1.32915e-05 0)
(0.00498999 -1.40066e-05 0)
(0.00498957 -1.47445e-05 0)
(0.00498914 -1.55031e-05 0)
(0.0049887 -1.62791e-05 0)
(0.00498826 -1.70683e-05 0)
(0.00498781 -1.78648e-05 0)
(0.00498737 -1.8661e-05 0)
(0.00498691 -1.94466e-05 0)
(0.00498646 -2.02082e-05 0)
(0.00498601 -2.09286e-05 0)
(0.00498556 -2.15852e-05 0)
(0.0049851 -2.21488e-05 0)
(0.00498462 -2.25819e-05 0)
(0.00498409 -2.28273e-05 0)
(0.005 -2.58202e-10 0)
(0.005 -8.15599e-10 0)
(0.005 -1.50026e-09 0)
(0.005 -2.41542e-09 0)
(0.005 -3.5552e-09 0)
(0.00499999 -4.90519e-09 0)
(0.00499999 -6.46235e-09 0)
(0.00499999 -8.23291e-09 0)
(0.00499998 -1.02307e-08 0)
(0.00499998 -1.2476e-08 0)
(0.00499998 -1.49944e-08 0)
(0.00499997 -1.7816e-08 0)
(0.00499997 -2.09754e-08 0)
(0.00499996 -2.45108e-08 0)
(0.00499995 -2.84645e-08 0)
(0.00499995 -3.28823e-08 0)
(0.00499994 -3.7814e-08 0)
(0.00499993 -4.33133e-08 0)
(0.00499992 -4.94379e-08 0)
(0.00499991 -5.625e-08 0)
(0.0049999 -6.38161e-08 0)
(0.00499989 -7.22076e-08 0)
(0.00499987 -8.1501e-08 0)
(0.00499986 -9.17781e-08 0)
(0.00499984 -1.03126e-07 0)
(0.00499983 -1.15639e-07 0)
(0.00499981 -1.29415e-07 0)
(0.00499979 -1.44562e-07 0)
(0.00499977 -1.61192e-07 0)
(0.00499975 -1.79425e-07 0)
(0.00499972 -1.9939e-07 0)
(0.0049997 -2.21223e-07 0)
(0.00499967 -2.45068e-07 0)
(0.00499964 -2.71077e-07 0)
(0.00499961 -2.99414e-07 0)
(0.00499957 -3.3025e-07 0)
(0.00499954 -3.63767e-07 0)
(0.0049995 -4.00156e-07 0)
(0.00499946 -4.39621e-07 0)
(0.00499941 -4.82375e-07 0)
(0.00499937 -5.28645e-07 0)
(0.00499932 -5.78668e-07 0)
(0.00499926 -6.32693e-07 0)
(0.00499921 -6.90985e-07 0)
(0.00499914 -7.53819e-07 0)
(0.00499908 -8.21486e-07 0)
(0.00499901 -8.94291e-07 0)
(0.00499894 -9.72553e-07 0)
(0.00499886 -1.05661e-06 0)
(0.00499878 -1.1468e-06 0)
(0.00499869 -1.2435e-06 0)
(0.0049986 -1.3471e-06 0)
(0.0049985 -1.45798e-06 0)
(0.0049984 -1.57657e-06 0)
(0.00499829 -1.7033e-06 0)
(0.00499818 -1.83863e-06 0)
(0.00499806 -1.98303e-06 0)
(0.00499793 -2.13698e-06 0)
(0.00499779 -2.301e-06 0)
(0.00499765 -2.47562e-06 0)
(0.0049975 -2.66139e-06 0)
(0.00499734 -2.85887e-06 0)
(0.00499718 -3.06867e-06 0)
(0.004997 -3.29138e-06 0)