/*--------------------------------*- C++ -*----------------------------------*\
  =========                 |
  \\      /  F ield         | OpenFOAM: The Open Source CFD Toolbox
   \\    /   O peration     | Website:  https://openfoam.org
    \\  /    A nd           | Version:  11
     \\/     M anipulation  |
\*---------------------------------------------------------------------------*/
FoamFile
{
    format      ascii;
    class       volScalarField;
    location    "758";
    object      p;
}
// * * * * * * * * * * * * * * * * * * * * * * * * * * * * * * * * * * * * * //

dimensions      [0 2 -2 0 0 0 0];

internalField   nonuniform List<scalar> 
10000
(
3.89138e-10
3.78679e-10
3.96505e-10
4.31515e-10
4.71438e-10
5.13644e-10
5.58142e-10
6.05016e-10
6.54348e-10
7.06282e-10
7.60996e-10
8.18686e-10
8.79554e-10
9.43812e-10
1.01168e-09
1.08338e-09
1.15914e-09
1.23921e-09
1.32382e-09
1.41323e-09
1.50769e-09
1.60747e-09
1.71284e-09
1.82408e-09
1.94148e-09
2.06534e-09
2.19594e-09
2.33362e-09
2.47867e-09
2.63143e-09
2.79222e-09
2.96139e-09
3.13927e-09
3.32622e-09
3.5226e-09
3.72876e-09
3.94506e-09
4.17187e-09
4.40955e-09
4.65849e-09
4.91903e-09
5.19156e-09
5.47643e-09
5.774e-09
6.08461e-09
6.40861e-09
6.74633e-09
7.09807e-09
7.46413e-09
7.84479e-09
8.2403e-09
8.65087e-09
9.07669e-09
9.51791e-09
9.97464e-09
1.04469e-08
1.09348e-08
1.14381e-08
1.19568e-08
1.24906e-08
1.30393e-08
1.36024e-08
1.41793e-08
1.47696e-08
1.53722e-08
1.59864e-08
1.66109e-08
1.72445e-08
1.78855e-08
1.85323e-08
1.91826e-08
1.98342e-08
2.04843e-08
2.11298e-08
2.17671e-08
2.23922e-08
2.30005e-08
2.35869e-08
2.41454e-08
2.46695e-08
2.51516e-08
2.55833e-08
2.5955e-08
2.62558e-08
2.64735e-08
2.65942e-08
2.66022e-08
2.64796e-08
2.6206e-08
2.57581e-08
2.51089e-08
2.4227e-08
2.30754e-08
2.16087e-08
1.97705e-08
1.74929e-08
1.46774e-08
1.10645e-08
6.24094e-09
3.74987e-10
6.68033e-10
6.18693e-10
5.93472e-10
6.07438e-10
6.38188e-10
6.77288e-10
7.2272e-10
7.73461e-10
8.28845e-10
8.88553e-10
9.52476e-10
1.02063e-09
1.09309e-09
1.17001e-09
1.25155e-09
1.33792e-09
1.42934e-09
1.52605e-09
1.62831e-09
1.73637e-09
1.85054e-09
1.97108e-09
2.09831e-09
2.23254e-09
2.37409e-09
2.52328e-09
2.68046e-09
2.84598e-09
3.02019e-09
3.20347e-09
3.39617e-09
3.59867e-09
3.81137e-09
4.03466e-09
4.26892e-09
4.51456e-09
4.77197e-09
5.04157e-09
5.32374e-09
5.6189e-09
5.92744e-09
6.24976e-09
6.58623e-09
6.93723e-09
7.30314e-09
7.68429e-09
8.08102e-09
8.49364e-09
8.92242e-09
9.36764e-09
9.8295e-09
1.03082e-08
1.08038e-08
1.13165e-08
1.18463e-08
1.23931e-08
1.29569e-08
1.35374e-08
1.41343e-08
1.47473e-08
1.53758e-08
1.60192e-08
1.66768e-08
1.73475e-08
1.80303e-08
1.87239e-08
1.94266e-08
2.01367e-08
2.08521e-08
2.15704e-08
2.2289e-08
2.30046e-08
2.37137e-08
2.44124e-08
2.5096e-08
2.57595e-08
2.63969e-08
2.70017e-08
2.75665e-08
2.80829e-08
2.85415e-08
2.89316e-08
2.92414e-08
2.94572e-08
2.95639e-08
2.95442e-08
2.93785e-08
2.90448e-08
2.85177e-08
2.77683e-08
2.67632e-08
2.54636e-08
2.38234e-08
2.17864e-08
1.92842e-08
1.62462e-08
1.25794e-08
7.87608e-09
1.20923e-09
-4.7291e-09
7.37633e-10
6.62855e-10
6.05696e-10
5.91165e-10
5.98062e-10
6.16964e-10
6.44842e-10
6.79913e-10
7.20919e-10
7.67079e-10
8.17942e-10
8.73257e-10
9.32902e-10
9.96851e-10
1.06514e-09
1.13784e-09
1.21509e-09
1.29702e-09
1.3838e-09
1.47561e-09
1.57266e-09
1.67515e-09
1.78332e-09
1.8974e-09
2.01763e-09
2.14427e-09
2.27757e-09
2.41782e-09
2.56528e-09
2.72024e-09
2.88298e-09
3.0538e-09
3.23299e-09
3.42086e-09
3.6177e-09
3.82382e-09
4.03952e-09
4.2651e-09
4.50088e-09
4.74713e-09
5.00416e-09
5.27224e-09
5.55166e-09
5.84266e-09
6.14552e-09
6.46045e-09
6.78767e-09
7.12738e-09
7.47973e-09
7.84487e-09
8.22289e-09
8.61386e-09
9.0178e-09
9.43467e-09
9.86439e-09
1.03068e-08
1.07617e-08
1.12288e-08
1.17077e-08
1.21979e-08
1.26988e-08
1.32098e-08
1.37299e-08
1.42582e-08
1.47935e-08
1.53345e-08
1.58796e-08
1.64271e-08
1.69749e-08
1.75207e-08
1.80619e-08
1.85955e-08
1.91181e-08
1.96261e-08
2.0115e-08
2.05802e-08
2.10161e-08
2.14168e-08
2.17754e-08
2.20843e-08
2.23349e-08
2.25176e-08
2.26215e-08
2.26345e-08
2.2543e-08
2.23314e-08
2.19826e-08
2.14769e-08
2.07921e-08
1.99029e-08
1.87802e-08
1.73909e-08
1.56958e-08
1.3648e-08
1.11939e-08
8.29263e-09
4.89234e-09
5.11258e-10
-5.966e-09
-9.44213e-09
7.74207e-10
6.9635e-10
6.32025e-10
6.05517e-10
6.00243e-10
6.08247e-10
6.26615e-10
6.53397e-10
6.87115e-10
7.26774e-10
7.71729e-10
8.21565e-10
8.7603e-10
9.34987e-10
9.98381e-10
1.06622e-09
1.13855e-09
1.21546e-09
1.29707e-09
1.38351e-09
1.47494e-09
1.57154e-09
1.67348e-09
1.78097e-09
1.89421e-09
2.01342e-09
2.13881e-09
2.27064e-09
2.40912e-09
2.55451e-09
2.70705e-09
2.86699e-09
3.03458e-09
3.21009e-09
3.39376e-09
3.58586e-09
3.78663e-09
3.99634e-09
4.21523e-09
4.44353e-09
4.6815e-09
4.92934e-09
5.18728e-09
5.45552e-09
5.73424e-09
6.02361e-09
6.32378e-09
6.63486e-09
6.95694e-09
7.29009e-09
7.63432e-09
7.98962e-09
8.35593e-09
8.73313e-09
9.12104e-09
9.51943e-09
9.92798e-09
1.03463e-08
1.07739e-08
1.12102e-08
1.16546e-08
1.21061e-08
1.25639e-08
1.30269e-08
1.34938e-08
1.39631e-08
1.44332e-08
1.49022e-08
1.53679e-08
1.58281e-08
1.62798e-08
1.67202e-08
1.71456e-08
1.75523e-08
1.7936e-08
1.82916e-08
1.86139e-08
1.88967e-08
1.91331e-08
1.93157e-08
1.94358e-08
1.9484e-08
1.94496e-08
1.93206e-08
1.90839e-08
1.87245e-08
1.82257e-08
1.75688e-08
1.67327e-08
1.56935e-08
1.44246e-08
1.28956e-08
1.10716e-08
8.91191e-09
6.37284e-09
3.4344e-09
6.80517e-11
-4.26948e-09
-1.07684e-08
-1.28988e-08
7.88603e-10
7.15662e-10
6.52257e-10
6.21082e-10
6.09402e-10
6.10989e-10
6.23423e-10
6.44881e-10
6.73891e-10
7.09395e-10
7.50664e-10
7.97194e-10
8.4865e-10
9.04821e-10
9.65589e-10
1.0309e-09
1.10077e-09
1.17523e-09
1.25436e-09
1.33826e-09
1.42706e-09
1.5209e-09
1.61993e-09
1.72433e-09
1.83428e-09
1.94995e-09
2.07156e-09
2.1993e-09
2.33339e-09
2.47404e-09
2.62147e-09
2.7759e-09
2.93755e-09
3.10664e-09
3.28341e-09
3.46807e-09
3.66084e-09
3.86194e-09
4.07158e-09
4.28995e-09
4.51726e-09
4.75367e-09
4.99937e-09
5.2545e-09
5.5192e-09
5.79358e-09
6.07772e-09
6.3717e-09
6.67554e-09
6.98925e-09
7.31276e-09
7.64601e-09
7.98885e-09
8.34109e-09
8.70248e-09
9.0727e-09
9.45135e-09
9.83796e-09
1.02319e-08
1.06326e-08
1.10392e-08
1.14508e-08
1.18664e-08
1.22847e-08
1.27043e-08
1.31237e-08
1.35411e-08
1.39546e-08
1.43617e-08
1.47601e-08
1.51468e-08
1.55186e-08
1.5872e-08
1.6203e-08
1.6507e-08
1.67791e-08
1.70137e-08
1.72047e-08
1.7345e-08
1.74271e-08
1.74423e-08
1.73811e-08
1.72329e-08
1.69859e-08
1.6627e-08
1.61415e-08
1.55133e-08
1.47242e-08
1.37541e-08
1.25805e-08
1.11786e-08
9.52077e-09
7.57607e-09
5.30904e-09
2.68468e-09
-3.02538e-10
-3.66927e-09
-8.00195e-09
-1.44228e-08
-1.57813e-08
7.82272e-10
7.15022e-10
6.54688e-10
6.21735e-10
6.06179e-10
6.03245e-10
6.11052e-10
6.2802e-10
6.52792e-10
6.84344e-10
7.21928e-10
7.65002e-10
8.13185e-10
8.66216e-10
9.23929e-10
9.86231e-10
1.05308e-09
1.12449e-09
1.2005e-09
1.28118e-09
1.36661e-09
1.45692e-09
1.55224e-09
1.65269e-09
1.75844e-09
1.86964e-09
1.98647e-09
2.1091e-09
2.23771e-09
2.37249e-09
2.51363e-09
2.66132e-09
2.81574e-09
2.9771e-09
3.14558e-09
3.32137e-09
3.50464e-09
3.69559e-09
3.89437e-09
4.10115e-09
4.31607e-09
4.53928e-09
4.7709e-09
5.01103e-09
5.25975e-09
5.51713e-09
5.7832e-09
6.05796e-09
6.34139e-09
6.63343e-09
6.93396e-09
7.24284e-09
7.55986e-09
7.88475e-09
8.2172e-09
8.55681e-09
8.9031e-09
9.25551e-09
9.6134e-09
9.97599e-09
1.03424e-08
1.07117e-08
1.10826e-08
1.14539e-08
1.18241e-08
1.21916e-08
1.25544e-08
1.29105e-08
1.32575e-08
1.35927e-08
1.39133e-08
1.42159e-08
1.44969e-08
1.47522e-08
1.49772e-08
1.51669e-08
1.53157e-08
1.54174e-08
1.5465e-08
1.5451e-08
1.53668e-08
1.52031e-08
1.49495e-08
1.45944e-08
1.41252e-08
1.35278e-08
1.27868e-08
1.1885e-08
1.08036e-08
9.52213e-09
8.01797e-09
6.26677e-09
4.24197e-09
1.91387e-09
-7.44267e-10
-3.72575e-09
-7.03801e-09
-1.12909e-08
-1.74903e-08
-1.83028e-08
7.6137e-10
6.99547e-10
6.42989e-10
6.09913e-10
5.92203e-10
5.86193e-10
5.90487e-10
6.03777e-10
6.24864e-10
6.52803e-10
6.86874e-10
7.26534e-10
7.71382e-10
8.21132e-10
8.75585e-10
9.34616e-10
9.98154e-10
1.06617e-09
1.13869e-09
1.21573e-09
1.29737e-09
1.3837e-09
1.4748e-09
1.5708e-09
1.67182e-09
1.77799e-09
1.88946e-09
2.00637e-09
2.12888e-09
2.25715e-09
2.39133e-09
2.53158e-09
2.67807e-09
2.83095e-09
2.99038e-09
3.15651e-09
3.32949e-09
3.50945e-09
3.69653e-09
3.89085e-09
4.09252e-09
4.30162e-09
4.51825e-09
4.74244e-09
4.97424e-09
5.21367e-09
5.46069e-09
5.71528e-09
5.97733e-09
6.24673e-09
6.52331e-09
6.80686e-09
7.09711e-09
7.39374e-09
7.69635e-09
8.00448e-09
8.31758e-09
8.63503e-09
8.95609e-09
9.27993e-09
9.6056e-09
9.93201e-09
1.02579e-08
1.0582e-08
1.09027e-08
1.12182e-08
1.15267e-08
1.18259e-08
1.21134e-08
1.23865e-08
1.26422e-08
1.28771e-08
1.30876e-08
1.32696e-08
1.34184e-08
1.35291e-08
1.35961e-08
1.36132e-08
1.35736e-08
1.34699e-08
1.32936e-08
1.30357e-08
1.26862e-08
1.2234e-08
1.16669e-08
1.09717e-08
1.01339e-08
9.13758e-09
7.96553e-09
6.59917e-09
5.01861e-09
3.20284e-09
1.12961e-09
-1.22529e-09
-3.88126e-09
-6.82138e-09
-1.00466e-08
-1.41952e-08
-2.01892e-08
-2.05016e-08
7.30081e-10
6.73282e-10
6.20644e-10
5.88395e-10
5.69711e-10
5.6174e-10
5.63482e-10
5.73876e-10
5.91889e-10
6.16672e-10
6.4756e-10
6.8403e-10
7.25686e-10
7.72229e-10
8.23444e-10
8.79185e-10
9.39356e-10
1.00391e-09
1.07282e-09
1.14612e-09
1.22383e-09
1.30602e-09
1.39277e-09
1.48415e-09
1.58027e-09
1.68124e-09
1.78717e-09
1.89819e-09
2.01442e-09
2.13598e-09
2.26302e-09
2.39566e-09
2.53404e-09
2.67827e-09
2.82848e-09
2.98479e-09
3.14732e-09
3.31616e-09
3.49141e-09
3.67316e-09
3.86146e-09
4.05638e-09
4.25794e-09
4.46616e-09
4.68104e-09
4.90252e-09
5.13055e-09
5.36503e-09
5.60582e-09
5.85275e-09
6.10559e-09
6.36408e-09
6.62789e-09
6.89663e-09
7.16986e-09
7.44704e-09
7.72758e-09
8.01077e-09
8.29582e-09
8.58183e-09
8.86779e-09
9.15256e-09
9.43484e-09
9.71319e-09
9.986e-09
1.02515e-08
1.05076e-08
1.07522e-08
1.09827e-08
1.11965e-08
1.13905e-08
1.15612e-08
1.17051e-08
1.1818e-08
1.18954e-08
1.19323e-08
1.19232e-08
1.1862e-08
1.17421e-08
1.15563e-08
1.12964e-08
1.09536e-08
1.05185e-08
9.98037e-09
9.32789e-09
8.54857e-09
7.62893e-09
6.55445e-09
5.30955e-09
3.8777e-09
2.24157e-09
3.83389e-10
-1.7151e-09
-4.07324e-09
-6.70406e-09
-9.58044e-09
-1.26935e-08
-1.67186e-08
-2.26336e-08
-2.23338e-08
6.90594e-10
6.38454e-10
5.89619e-10
5.5869e-10
5.39772e-10
5.30611e-10
5.30516e-10
5.38635e-10
5.54084e-10
5.76117e-10
6.04129e-10
6.37636e-10
6.76253e-10
7.19688e-10
7.67717e-10
8.2018e-10
8.76965e-10
9.38003e-10
1.00326e-09
1.07272e-09
1.14641e-09
1.22436e-09
1.30663e-09
1.39327e-09
1.48436e-09
1.57999e-09
1.68025e-09
1.78524e-09
1.89505e-09
2.00978e-09
2.12955e-09
2.25444e-09
2.38457e-09
2.52003e-09
2.66091e-09
2.80731e-09
2.95929e-09
3.11693e-09
3.28028e-09
3.4494e-09
3.6243e-09
3.80502e-09
3.99153e-09
4.18381e-09
4.38181e-09
4.58544e-09
4.7946e-09
5.00914e-09
5.22888e-09
5.45358e-09
5.68299e-09
5.91677e-09
6.15455e-09
6.3959e-09
6.6403e-09
6.88717e-09
7.13586e-09
7.38561e-09
7.63557e-09
7.8848e-09
8.13221e-09
8.37662e-09
8.61668e-09
8.85089e-09
9.07762e-09
9.29501e-09
9.50102e-09
9.69339e-09
9.86963e-09
1.0027e-08
1.01624e-08
1.02725e-08
1.03537e-08
1.04018e-08
1.04124e-08
1.03806e-08
1.03011e-08
1.01678e-08
9.97443e-09
9.71389e-09
9.37847e-09
8.95979e-09
8.44871e-09
7.83534e-09
7.10896e-09
6.25802e-09
5.27014e-09
4.13211e-09
2.83e-09
1.34923e-09
-3.25103e-10
-2.20786e-09
-4.31375e-09
-6.65806e-09
-9.24848e-09
-1.20476e-08
-1.50323e-08
-1.89222e-08
-2.48808e-08
-2.38806e-08
6.44265e-10
5.96592e-10
5.51374e-10
5.21972e-10
5.03264e-10
4.93433e-10
4.92017e-10
4.98331e-10
5.11621e-10
5.31238e-10
5.56639e-10
5.87381e-10
6.23105e-10
6.63525e-10
7.08421e-10
7.57624e-10
8.11012e-10
8.68501e-10
9.30038e-10
9.95598e-10
1.06518e-09
1.13879e-09
1.21647e-09
1.29826e-09
1.3842e-09
1.47437e-09
1.56883e-09
1.66765e-09
1.77091e-09
1.87868e-09
1.99104e-09
2.10807e-09
2.22984e-09
2.35641e-09
2.48786e-09
2.62423e-09
2.76558e-09
2.91193e-09
3.06333e-09
3.21977e-09
3.38125e-09
3.54775e-09
3.71922e-09
3.8956e-09
4.07679e-09
4.26267e-09
4.45308e-09
4.64785e-09
4.84673e-09
5.04947e-09
5.25573e-09
5.46517e-09
5.67734e-09
5.89177e-09
6.10789e-09
6.32509e-09
6.54265e-09
6.75976e-09
6.97555e-09
7.18901e-09
7.39901e-09
7.60433e-09
7.80358e-09
7.99524e-09
8.17762e-09
8.34884e-09
8.50685e-09
8.64936e-09
8.77389e-09
8.87768e-09
8.95769e-09
9.01061e-09
9.0328e-09
9.02025e-09
8.96862e-09
8.8731e-09
8.72849e-09
8.52908e-09
8.26866e-09
7.94049e-09
7.53723e-09
7.05093e-09
6.47298e-09
5.79413e-09
5.00442e-09
4.09322e-09
3.04923e-09
1.86056e-09
5.1479e-10
-1.00081e-09
-2.69901e-09
-4.59216e-09
-6.69206e-09
-9.01089e-09
-1.15526e-08
-1.42712e-08
-1.7132e-08
-2.09084e-08
-2.6988e-08
-2.53786e-08
5.92352e-10
5.48944e-10
5.07085e-10
4.79272e-10
4.61034e-10
4.50881e-10
4.48517e-10
4.53383e-10
4.64838e-10
4.82314e-10
5.05332e-10
5.3349e-10
5.66454e-10
6.03956e-10
6.45777e-10
6.91749e-10
7.41743e-10
7.95663e-10
8.53445e-10
9.15048e-10
9.8045e-10
1.04965e-09
1.12266e-09
1.1995e-09
1.2802e-09
1.3648e-09
1.45336e-09
1.54591e-09
1.64252e-09
1.74322e-09
1.84808e-09
1.95715e-09
2.07046e-09
2.18807e-09
2.31e-09
2.43629e-09
2.56695e-09
2.70199e-09
2.8414e-09
2.98515e-09
3.13322e-09
3.28553e-09
3.44202e-09
3.60257e-09
3.76706e-09
3.93533e-09
4.10718e-09
4.28238e-09
4.46067e-09
4.64174e-09
4.82523e-09
5.01072e-09
5.19775e-09
5.3858e-09
5.57426e-09
5.76246e-09
5.94966e-09
6.13501e-09
6.31758e-09
6.49635e-09
6.67014e-09
6.8377e-09
6.99761e-09
7.14833e-09
7.28814e-09
7.41516e-09
7.52732e-09
7.62235e-09
7.69776e-09
7.75082e-09
7.77854e-09
7.77766e-09
7.74459e-09
7.67545e-09
7.56598e-09
7.41156e-09
7.20714e-09
6.94726e-09
6.62598e-09
6.23687e-09
5.773e-09
5.22687e-09
4.59045e-09
3.85513e-09
3.01171e-09
2.05048e-09
9.61177e-10
-2.66862e-10
-1.64463e-09
-3.18325e-09
-4.89364e-09
-6.78607e-09
-8.87012e-09
-1.11558e-08
-1.36447e-08
-1.62847e-08
-1.90328e-08
-2.27222e-08
-2.89796e-08
-2.6883e-08
5.36485e-10
4.96532e-10
4.57638e-10
4.31394e-10
4.13789e-10
4.0356e-10
4.00528e-10
4.04228e-10
4.14109e-10
4.29677e-10
4.5051e-10
4.76244e-10
5.06576e-10
5.41252e-10
5.80062e-10
6.22841e-10
6.69456e-10
7.19803e-10
7.73809e-10
8.31418e-10
8.92597e-10
9.57326e-10
1.0256e-09
1.09742e-09
1.17281e-09
1.25177e-09
1.33435e-09
1.42056e-09
1.51043e-09
1.604e-09
1.70129e-09
1.80233e-09
1.90714e-09
2.01573e-09
2.12811e-09
2.24429e-09
2.36424e-09
2.48796e-09
2.61539e-09
2.7465e-09
2.8812e-09
3.0194e-09
3.16101e-09
3.30586e-09
3.45381e-09
3.60465e-09
3.75816e-09
3.91407e-09
4.07208e-09
4.23184e-09
4.39295e-09
4.55497e-09
4.71739e-09
4.87964e-09
5.0411e-09
5.20106e-09
5.35873e-09
5.51323e-09
5.66362e-09
5.80882e-09
5.94765e-09
6.07882e-09
6.2009e-09
6.31234e-09
6.4114e-09
6.49621e-09
6.56471e-09
6.61464e-09
6.64354e-09
6.64872e-09
6.62724e-09
6.5759e-09
6.49124e-09
6.36947e-09
6.20647e-09
5.99779e-09
5.73861e-09
5.4237e-09
5.04742e-09
4.60369e-09
4.08599e-09
3.4873e-09
2.80016e-09
2.01659e-09
1.12817e-09
1.26036e-10
-9.99062e-10
-2.25667e-09
-3.65651e-09
-5.20828e-09
-6.92136e-09
-8.80434e-09
-1.08651e-08
-1.31123e-08
-1.55462e-08
-1.811e-08
-2.07539e-08
-2.43692e-08
-3.08131e-08
-2.82957e-08
4.77579e-10
4.39568e-10
4.03466e-10
3.7888e-10
3.62081e-10
3.51989e-10
3.48518e-10
3.51282e-10
3.59806e-10
3.73664e-10
3.92482e-10
4.15938e-10
4.43754e-10
4.75693e-10
5.11559e-10
5.51188e-10
5.94447e-10
6.41229e-10
6.91451e-10
7.45048e-10
8.01973e-10
8.62195e-10
9.2569e-10
9.92448e-10
1.06246e-09
1.13574e-09
1.21228e-09
1.29209e-09
1.37519e-09
1.46157e-09
1.55125e-09
1.64422e-09
1.74049e-09
1.84005e-09
1.94288e-09
2.04894e-09
2.15821e-09
2.27064e-09
2.38615e-09
2.50467e-09
2.6261e-09
2.75031e-09
2.87717e-09
3.0065e-09
3.1381e-09
3.27175e-09
3.40719e-09
3.54412e-09
3.6822e-09
3.82105e-09
3.96024e-09
4.0993e-09
4.23767e-09
4.37478e-09
4.50995e-09
4.64244e-09
4.77145e-09
4.89608e-09
5.01534e-09
5.12814e-09
5.23329e-09
5.32948e-09
5.41528e-09
5.48912e-09
5.54927e-09
5.59388e-09
5.6209e-09
5.6281e-09
5.61307e-09
5.57316e-09
5.50551e-09
5.40702e-09
5.27432e-09
5.10376e-09
4.89138e-09
4.63292e-09
4.32379e-09
3.95901e-09
3.53326e-09
3.04083e-09
2.47561e-09
1.83106e-09
1.10028e-09
2.75937e-10
-6.49674e-10
-1.68459e-09
-2.83715e-09
-4.11587e-09
-5.52933e-09
-7.08602e-09
-8.79403e-09
-1.06606e-08
-1.26924e-08
-1.48972e-08
-1.72744e-08
-1.97635e-08
-2.23087e-08
-2.58537e-08
-3.2469e-08
-2.95775e-08
4.13626e-10
3.78496e-10
3.45239e-10
3.22317e-10
3.0644e-10
2.96669e-10
2.92948e-10
2.9496e-10
3.02307e-10
3.14619e-10
3.31571e-10
3.52875e-10
3.7828e-10
4.07568e-10
4.40554e-10
4.77081e-10
5.17015e-10
5.60248e-10
6.0669e-10
6.56269e-10
7.08927e-10
7.64619e-10
8.23311e-10
8.84974e-10
9.49588e-10
1.01714e-09
1.08761e-09
1.161e-09
1.23729e-09
1.31646e-09
1.39851e-09
1.48342e-09
1.57115e-09
1.66168e-09
1.75497e-09
1.85096e-09
1.94959e-09
2.05079e-09
2.15446e-09
2.2605e-09
2.36878e-09
2.47915e-09
2.59143e-09
2.70543e-09
2.82093e-09
2.93766e-09
3.05534e-09
3.17363e-09
3.29218e-09
3.41056e-09
3.52832e-09
3.64496e-09
3.75991e-09
3.87254e-09
3.98216e-09
4.08802e-09
4.18928e-09
4.28503e-09
4.37425e-09
4.45585e-09
4.52863e-09
4.59127e-09
4.64233e-09
4.68026e-09
4.70335e-09
4.70976e-09
4.69746e-09
4.66428e-09
4.60785e-09
4.5256e-09
4.41476e-09
4.27231e-09
4.09501e-09
3.87936e-09
3.62157e-09
3.3176e-09
2.96306e-09
2.55329e-09
2.08326e-09
1.54764e-09
9.40718e-10
2.56466e-10
-5.11501e-10
-1.36989e-09
-2.32572e-09
-3.38627e-09
-4.55902e-09
-5.85156e-09
-7.27149e-09
-8.82624e-09
-1.05228e-08
-1.23674e-08
-1.43657e-08
-1.65248e-08
-1.88438e-08
-2.12588e-08
-2.37084e-08
-2.71824e-08
-3.39447e-08
-3.07203e-08
3.45526e-10
3.14303e-10
2.83646e-10
2.62336e-10
2.47459e-10
2.38127e-10
2.34285e-10
2.35684e-10
2.41992e-10
2.52893e-10
2.68102e-10
2.87365e-10
3.10455e-10
3.37172e-10
3.67342e-10
4.00815e-10
4.37462e-10
4.77171e-10
5.19848e-10
5.65415e-10
6.13805e-10
6.64962e-10
7.18839e-10
7.75395e-10
8.34595e-10
8.96407e-10
9.60803e-10
1.02775e-09
1.09723e-09
1.1692e-09
1.24363e-09
1.32047e-09
1.39969e-09
1.48123e-09
1.56502e-09
1.651e-09
1.73907e-09
1.82914e-09
1.92108e-09
2.01477e-09
2.11005e-09
2.20675e-09
2.30467e-09
2.40359e-09
2.50324e-09
2.60336e-09
2.70361e-09
2.80365e-09
2.90309e-09
3.00148e-09
3.09835e-09
3.19315e-09
3.28531e-09
3.37417e-09
3.45903e-09
3.53911e-09
3.61356e-09
3.68144e-09
3.74174e-09
3.79336e-09
3.83508e-09
3.8656e-09
3.88349e-09
3.8872e-09
3.87505e-09
3.84523e-09
3.79576e-09
3.7245e-09
3.62917e-09
3.50725e-09
3.35608e-09
3.17276e-09
2.95418e-09
2.69698e-09
2.39758e-09
2.05213e-09
1.65649e-09
1.20628e-09
6.96808e-10
1.23081e-10
-5.20174e-10
-1.23853e-09
-2.03785e-09
-2.92426e-09
-3.90413e-09
-4.98402e-09
-6.17065e-09
-7.47078e-09
-8.89113e-09
-1.04382e-08
-1.21182e-08
-1.39363e-08
-1.58974e-08
-1.80081e-08
-2.02673e-08
-2.26081e-08
-2.49635e-08
-2.83632e-08
-3.52438e-08
-3.17236e-08
2.7604e-10
2.47641e-10
2.19343e-10
1.99592e-10
1.85727e-10
1.76873e-10
1.72985e-10
1.73868e-10
1.79243e-10
1.88839e-10
2.02409e-10
2.19726e-10
2.40586e-10
2.64805e-10
2.92222e-10
3.22694e-10
3.56093e-10
3.9231e-10
4.31247e-10
4.72819e-10
5.16953e-10
5.63583e-10
6.12651e-10
6.64103e-10
7.17891e-10
7.7397e-10
8.32294e-10
8.92819e-10
9.55498e-10
1.02028e-09
1.08712e-09
1.15594e-09
1.2267e-09
1.2993e-09
1.37367e-09
1.44972e-09
1.52733e-09
1.60638e-09
1.68674e-09
1.76824e-09
1.85071e-09
1.93395e-09
2.01774e-09
2.10183e-09
2.18595e-09
2.26978e-09
2.35299e-09
2.43519e-09
2.51597e-09
2.59488e-09
2.6714e-09
2.74498e-09
2.81502e-09
2.88085e-09
2.94175e-09
2.99692e-09
3.0455e-09
3.08656e-09
3.11907e-09
3.14192e-09
3.15392e-09
3.15376e-09
3.14003e-09
3.1112e-09
3.06562e-09
3.00152e-09
2.91697e-09
2.80989e-09
2.67807e-09
2.51908e-09
2.33037e-09
2.10914e-09
1.85244e-09
1.55707e-09
1.21964e-09
8.36516e-10
4.03815e-10
-8.25759e-11
-6.27028e-10
-1.23416e-09
-1.90886e-09
-2.65624e-09
-3.48167e-09
-4.39072e-09
-5.38916e-09
-6.48291e-09
-7.67798e-09
-8.98039e-09
-1.03961e-08
-1.19308e-08
-1.35899e-08
-1.53779e-08
-1.72989e-08
-1.9359e-08
-2.15569e-08
-2.38228e-08
-2.60844e-08
-2.94046e-08
-3.63718e-08
-3.25883e-08
2.05086e-10
1.78855e-10
1.52793e-10
1.34581e-10
1.21705e-10
1.13344e-10
1.0946e-10
1.09898e-10
1.14424e-10
1.22803e-10
1.3482e-10
1.50274e-10
1.6898e-10
1.90771e-10
2.15497e-10
2.4302e-10
2.73218e-10
3.05981e-10
3.41209e-10
3.78814e-10
4.18716e-10
4.60839e-10
5.05116e-10
5.51483e-10
5.9988e-10
6.50247e-10
7.02524e-10
7.56652e-10
8.12569e-10
8.70208e-10
9.29499e-10
9.90365e-10
1.05272e-09
1.11648e-09
1.18152e-09
1.24775e-09
1.31503e-09
1.38321e-09
1.45214e-09
1.52164e-09
1.59151e-09
1.66153e-09
1.73145e-09
1.80101e-09
1.86991e-09
1.93782e-09
2.00437e-09
2.06918e-09
2.13179e-09
2.19174e-09
2.24849e-09
2.30149e-09
2.3501e-09
2.39366e-09
2.43141e-09
2.46257e-09
2.48626e-09
2.50154e-09
2.50739e-09
2.50271e-09
2.48631e-09
2.45689e-09
2.41308e-09
2.35336e-09
2.27614e-09
2.17967e-09
2.06208e-09
1.92138e-09
1.75541e-09
1.56186e-09
1.33826e-09
1.08197e-09
7.90163e-10
4.59828e-10
8.77527e-11
-3.29477e-10
-7.95487e-10
-1.31411e-09
-1.88942e-09
-2.52567e-09
-3.22736e-09
-3.99918e-09
-4.84602e-09
-5.77295e-09
-6.78517e-09
-7.88802e-09
-9.08686e-09
-1.03871e-08
-1.17939e-08
-1.33124e-08
-1.49472e-08
-1.67022e-08
-1.85808e-08
-2.05888e-08
-2.27241e-08
-2.49144e-08
-2.70821e-08
-3.03162e-08
-3.73339e-08
-3.33142e-08
1.322e-10
1.08235e-10
8.43928e-11
6.76716e-11
5.57693e-11
4.79166e-11
4.40809e-11
4.41349e-11
4.78804e-11
5.51177e-11
6.56574e-11
7.93217e-11
9.59449e-11
1.15374e-10
1.37468e-10
1.62097e-10
1.89143e-10
2.18497e-10
2.50057e-10
2.83732e-10
3.19434e-10
3.57083e-10
3.96602e-10
4.37918e-10
4.80957e-10
5.25649e-10
5.7192e-10
6.19699e-10
6.68906e-10
7.19461e-10
7.71278e-10
8.24262e-10
8.78312e-10
9.33317e-10
9.89156e-10
1.04569e-09
1.10279e-09
1.16027e-09
1.21796e-09
1.27566e-09
1.33317e-09
1.39022e-09
1.44657e-09
1.50192e-09
1.55595e-09
1.60832e-09
1.65864e-09
1.70651e-09
1.75146e-09
1.793e-09
1.83059e-09
1.86366e-09
1.89155e-09
1.9136e-09
1.92905e-09
1.9371e-09
1.93687e-09
1.92743e-09
1.90776e-09
1.87677e-09
1.83328e-09
1.77603e-09
1.70365e-09
1.61467e-09
1.50754e-09
1.38056e-09
1.23193e-09
1.05972e-09
8.61864e-10
6.36148e-10
3.8022e-10
9.1568e-11
-2.32481e-10
-5.9477e-10
-9.98315e-10
-1.44631e-09
-1.94214e-09
-2.48936e-09
-3.09173e-09
-3.75319e-09
-4.47784e-09
-5.26999e-09
-6.13407e-09
-7.07467e-09
-8.0965e-09
-9.20434e-09
-1.0403e-08
-1.16972e-08
-1.30917e-08
-1.45909e-08
-1.61988e-08
-1.79187e-08
-1.97535e-08
-2.17083e-08
-2.37805e-08
-2.58952e-08
-2.79693e-08
-3.11098e-08
-3.81365e-08
-3.39042e-08
5.77096e-11
3.60933e-11
1.44619e-11
-7.85822e-13
-1.17231e-11
-1.90531e-11
-2.28038e-11
-2.30817e-11
-2.0055e-11
-1.38942e-11
-4.76374e-12
7.17924e-12
2.17858e-11
3.89161e-11
5.84388e-11
8.02311e-11
1.04178e-10
1.30172e-10
1.58111e-10
1.879e-10
2.19448e-10
2.52666e-10
2.87472e-10
3.23781e-10
3.61511e-10
4.0058e-10
4.40904e-10
4.82395e-10
5.24963e-10
5.68512e-10
6.12941e-10
6.5814e-10
7.03993e-10
7.50373e-10
7.9714e-10
8.44144e-10
8.9122e-10
9.38189e-10
9.84852e-10
1.031e-09
1.07638e-09
1.12076e-09
1.16383e-09
1.20531e-09
1.24485e-09
1.28209e-09
1.31662e-09
1.34803e-09
1.37584e-09
1.39954e-09
1.41859e-09
1.43239e-09
1.4403e-09
1.44162e-09
1.43561e-09
1.42145e-09
1.39829e-09
1.36518e-09
1.32112e-09
1.26504e-09
1.19577e-09
1.11207e-09
1.01261e-09
8.95973e-10
7.6063e-10
6.04954e-10
4.27207e-10
2.25533e-10
-2.04349e-12
-2.57628e-10
-5.43458e-10
-8.6191e-10
-1.21551e-09
-1.60691e-09
-2.03896e-09
-2.51462e-09
-3.03704e-09
-3.60952e-09
-4.2355e-09
-4.91861e-09
-5.66261e-09
-6.4714e-09
-7.34903e-09
-8.29963e-09
-9.32745e-09
-1.04368e-08
-1.16319e-08
-1.2917e-08
-1.42964e-08
-1.57739e-08
-1.73529e-08
-1.90364e-08
-2.08265e-08
-2.27281e-08
-2.47379e-08
-2.67789e-08
-2.87628e-08
-3.18081e-08
-3.88081e-08
-3.43999e-08
-1.79472e-11
-3.72021e-11
-5.66389e-11
-7.04388e-11
-8.04208e-11
-8.72178e-11
-9.08543e-11
-9.14209e-11
-8.90599e-11
-8.3917e-11
-7.61341e-11
-6.58493e-11
-5.31963e-11
-3.83029e-11
-2.12912e-11
-2.27749e-12
1.86271e-11
4.13163e-11
6.56882e-11
9.16448e-11
1.19091e-10
1.47933e-10
1.7808e-10
2.09441e-10
2.41925e-10
2.75437e-10
3.09884e-10
3.45166e-10
3.8118e-10
4.17818e-10
4.54963e-10
4.92494e-10
5.30277e-10
5.68171e-10
6.06022e-10
6.43663e-10
6.80914e-10
7.17578e-10
7.53442e-10
7.88275e-10
8.21824e-10
8.53817e-10
8.83954e-10
9.11915e-10
9.37349e-10
9.59876e-10
9.79088e-10
9.94538e-10
1.00575e-09
1.0122e-09
1.01334e-09
1.00855e-09
9.97203e-10
9.7859e-10
9.51964e-10
9.16521e-10
8.71398e-10
8.15669e-10
7.48345e-10
6.68364e-10
5.74591e-10
4.65815e-10
3.40742e-10
1.97989e-10
3.60853e-11
-1.46538e-10
-3.51549e-10
-5.80722e-10
-8.35941e-10
-1.11921e-09
-1.43263e-09
-1.77847e-09
-2.15907e-09
-2.57695e-09
-3.03474e-09
-3.5352e-09
-4.08124e-09
-4.6759e-09
-5.32236e-09
-6.02392e-09
-6.78402e-09
-7.60621e-09
-8.49413e-09
-9.45152e-09
-1.04822e-08
-1.159e-08
-1.27788e-08
-1.40524e-08
-1.54144e-08
-1.68683e-08
-1.84172e-08
-2.00634e-08
-2.18089e-08
-2.36582e-08
-2.56076e-08
-2.75789e-08
-2.94816e-08
-3.24457e-08
-3.94118e-08
-3.48627e-08
-9.43474e-11
-1.11288e-10
-1.28568e-10
-1.40937e-10
-1.49974e-10
-1.56235e-10
-1.59737e-10
-1.60558e-10
-1.58818e-10
-1.54641e-10
-1.4815e-10
-1.39464e-10
-1.28704e-10
-1.15987e-10
-1.01425e-10
-8.51298e-11
-6.72075e-11
-4.7763e-11
-2.68983e-11
-4.7135e-12
1.86927e-11
4.32223e-11
6.87777e-11
9.52603e-11
1.2257e-10
1.50606e-10
1.79261e-10
2.08426e-10
2.37987e-10
2.67823e-10
2.97806e-10
3.27799e-10
3.57657e-10
3.87223e-10
4.16331e-10
4.44798e-10
4.7243e-10
4.99016e-10
5.24328e-10
5.4812e-10
5.70124e-10
5.90054e-10
6.07597e-10
6.22418e-10
6.34154e-10
6.42413e-10
6.46773e-10
6.4678e-10
6.41945e-10
6.31741e-10
6.15604e-10
5.92928e-10
5.63061e-10
5.25307e-10
4.78919e-10
4.23097e-10
3.56989e-10
2.79681e-10
1.90199e-10
8.75038e-11
-2.95116e-11
-1.62027e-10
-3.11298e-10
-4.78659e-10
-6.65528e-10
-8.73411e-10
-1.1039e-09
-1.3587e-09
-1.63958e-09
-1.94845e-09
-2.2873e-09
-2.65824e-09
-3.06348e-09
-3.50536e-09
-3.98633e-09
-4.50894e-09
-5.07588e-09
-5.68994e-09
-6.35404e-09
-7.07118e-09
-7.84449e-09
-8.67719e-09
-9.57256e-09
-1.0534e-08
-1.15649e-08
-1.26687e-08
-1.38488e-08
-1.51087e-08
-1.64516e-08
-1.78807e-08
-1.93985e-08
-2.10072e-08
-2.27085e-08
-2.45067e-08
-2.63982e-08
-2.83041e-08
-3.01335e-08
-3.30301e-08
-3.9974e-08
-3.52922e-08
-1.71126e-10
-1.85806e-10
-2.00974e-10
-2.11943e-10
-2.2005e-10
-2.25775e-10
-2.2913e-10
-2.30178e-10
-2.29021e-10
-2.25765e-10
-2.20513e-10
-2.13371e-10
-2.04446e-10
-1.93845e-10
-1.81672e-10
-1.68032e-10
-1.53028e-10
-1.36764e-10
-1.19341e-10
-1.0086e-10
-8.14237e-11
-6.11342e-11
-4.00946e-11
-1.84101e-11
3.81215e-12
2.64614e-11
4.94231e-11
7.25777e-11
9.58001e-11
1.18958e-10
1.41913e-10
1.64515e-10
1.86607e-10
2.0802e-10
2.28574e-10
2.48073e-10
2.6631e-10
2.83061e-10
2.98083e-10
3.11119e-10
3.21888e-10
3.3009e-10
3.354e-10
3.37472e-10
3.3593e-10
3.30374e-10
3.20372e-10
3.0546e-10
2.85143e-10
2.58889e-10
2.26129e-10
1.86254e-10
1.38613e-10
8.25129e-11
1.72108e-11
-5.80837e-11
-1.44213e-10
-2.42074e-10
-3.52622e-10
-4.76871e-10
-6.159e-10
-7.70851e-10
-9.4294e-10
-1.13345e-09
-1.34375e-09
-1.57527e-09
-1.82954e-09
-2.10816e-09
-2.41283e-09
-2.74534e-09
-3.10756e-09
-3.50147e-09
-3.92913e-09
-4.39272e-09
-4.8945e-09
-5.43684e-09
-6.0222e-09
-6.65314e-09
-7.33232e-09
-8.06247e-09
-8.84644e-09
-9.68711e-09
-1.05875e-08
-1.15505e-08
-1.25794e-08
-1.36771e-08
-1.48468e-08
-1.60914e-08
-1.74139e-08
-1.88171e-08
-2.03034e-08
-2.18746e-08
-2.35323e-08
-2.52807e-08
-2.71164e-08
-2.89601e-08
-3.07209e-08
-3.35543e-08
-4.04703e-08
-3.56567e-08
-2.47948e-10
-2.60433e-10
-2.73541e-10
-2.83135e-10
-2.90326e-10
-2.9552e-10
-2.98719e-10
-2.99973e-10
-2.99368e-10
-2.96991e-10
-2.92931e-10
-2.87281e-10
-2.80135e-10
-2.7159e-10
-2.61743e-10
-2.50695e-10
-2.38543e-10
-2.2539e-10
-2.11337e-10
-1.96486e-10
-1.80943e-10
-1.64812e-10
-1.48203e-10
-1.31227e-10
-1.13996e-10
-9.66303e-11
-7.92521e-11
-6.19899e-11
-4.49787e-11
-2.83605e-11
-1.22856e-11
3.08672e-12
1.75871e-11
3.1035e-11
4.32379e-11
5.39897e-11
6.307e-11
7.02426e-11
7.52544e-11
7.78342e-11
7.7691e-11
7.45129e-11
6.79656e-11
5.76912e-11
4.33061e-11
2.43998e-11
5.33315e-13
-2.87627e-11
-6.39897e-11
-1.05683e-10
-1.54413e-10
-2.10789e-10
-2.75459e-10
-3.49113e-10
-4.32486e-10
-5.26357e-10
-6.31555e-10
-7.48958e-10
-8.79501e-10
-1.02417e-09
-1.18401e-09
-1.36013e-09
-1.5537e-09
-1.76596e-09
-1.9982e-09
-2.25181e-09
-2.52823e-09
-2.82898e-09
-3.15566e-09
-3.50995e-09
-3.89362e-09
-4.30851e-09
-4.75653e-09
-5.23971e-09
-5.76013e-09
-6.31997e-09
-6.92149e-09
-7.56703e-09
-8.259e-09
-8.99989e-09
-9.79226e-09
-1.06387e-08
-1.15419e-08
-1.25046e-08
-1.35296e-08
-1.46195e-08
-1.57772e-08
-1.70053e-08
-1.83065e-08
-1.96833e-08
-2.11378e-08
-2.26717e-08
-2.42864e-08
-2.59863e-08
-2.7768e-08
-2.9552e-08
-3.12474e-08
-3.40192e-08
-4.09013e-08
-3.59647e-08
-3.24495e-10
-3.3485e-10
-3.45952e-10
-3.54205e-10
-3.605e-10
-3.65169e-10
-3.68205e-10
-3.69649e-10
-3.69567e-10
-3.68034e-10
-3.65122e-10
-3.60913e-10
-3.55491e-10
-3.48942e-10
-3.41359e-10
-3.32836e-10
-3.23467e-10
-3.13352e-10
-3.02592e-10
-2.91292e-10
-2.79557e-10
-2.67497e-10
-2.55224e-10
-2.42856e-10
-2.30511e-10
-2.18315e-10
-2.064e-10
-1.949e-10
-1.83961e-10
-1.73732e-10
-1.64376e-10
-1.5606e-10
-1.48964e-10
-1.43279e-10
-1.3921e-10
-1.36971e-10
-1.36796e-10
-1.3893e-10
-1.43638e-10
-1.51201e-10
-1.6192e-10
-1.76117e-10
-1.94136e-10
-2.16342e-10
-2.43127e-10
-2.74909e-10
-3.12133e-10
-3.55272e-10
-4.04831e-10
-4.61347e-10
-5.25392e-10
-5.97571e-10
-6.7853e-10
-7.6895e-10
-8.69557e-10
-9.81119e-10
-1.10445e-09
-1.2404e-09
-1.38989e-09
-1.55387e-09
-1.73336e-09
-1.92943e-09
-2.14319e-09
-2.37584e-09
-2.62861e-09
-2.90282e-09
-3.19983e-09
-3.52109e-09
-3.86811e-09
-4.24245e-09
-4.64577e-09
-5.07977e-09
-5.54625e-09
-6.04707e-09
-6.58414e-09
-7.15946e-09
-7.7751e-09
-8.43319e-09
-9.13591e-09
-9.88552e-09
-1.06843e-08
-1.15347e-08
-1.24389e-08
-1.33996e-08
-1.44191e-08
-1.54998e-08
-1.66444e-08
-1.78551e-08
-1.91343e-08
-2.04843e-08
-2.19071e-08
-2.34041e-08
-2.49767e-08
-2.66291e-08
-2.83583e-08
-3.00845e-08
-3.17169e-08
-3.44284e-08
-4.12721e-08
-3.62232e-08
-4.00456e-10
-4.08767e-10
-4.17921e-10
-4.24863e-10
-4.3028e-10
-4.34432e-10
-4.37304e-10
-4.38922e-10
-4.3934e-10
-4.38615e-10
-4.36811e-10
-4.33994e-10
-4.30241e-10