/*--------------------------------*- C++ -*----------------------------------*\
  =========                 |
  \\      /  F ield         | OpenFOAM: The Open Source CFD Toolbox
   \\    /   O peration     | Website:  https://openfoam.org
    \\  /    A nd           | Version:  11
     \\/     M anipulation  |
\*---------------------------------------------------------------------------*/
FoamFile
{
    format      ascii;
    class       volVectorField;
    location    "758";
    object      U;
}
// * * * * * * * * * * * * * * * * * * * * * * * * * * * * * * * * * * * * * //

dimensions      [0 1 -1 0 0 0 0];

internalField   nonuniform List<vector> 
10000
(
(0.005 -1.35118e-08 0)
(0.00499999 -3.65723e-08 0)
(0.00499999 -5.8272e-08 0)
(0.00499998 -7.96801e-08 0)
(0.00499997 -1.01477e-07 0)
(0.00499997 -1.24166e-07 0)
(0.00499995 -1.48137e-07 0)
(0.00499994 -1.73718e-07 0)
(0.00499993 -2.01202e-07 0)
(0.00499991 -2.30863e-07 0)
(0.0049999 -2.62968e-07 0)
(0.00499988 -2.97782e-07 0)
(0.00499986 -3.35574e-07 0)
(0.00499984 -3.76622e-07 0)
(0.00499981 -4.21208e-07 0)
(0.00499978 -4.69629e-07 0)
(0.00499975 -5.22194e-07 0)
(0.00499972 -5.79224e-07 0)
(0.00499969 -6.41056e-07 0)
(0.00499965 -7.08044e-07 0)
(0.00499961 -7.80559e-07 0)
(0.00499956 -8.58989e-07 0)
(0.00499951 -9.43741e-07 0)
(0.00499946 -1.03524e-06 0)
(0.0049994 -1.13394e-06 0)
(0.00499934 -1.24031e-06 0)
(0.00499928 -1.35484e-06 0)
(0.0049992 -1.47805e-06 0)
(0.00499913 -1.61047e-06 0)
(0.00499905 -1.75267e-06 0)
(0.00499896 -1.90524e-06 0)
(0.00499886 -2.06878e-06 0)
(0.00499876 -2.24395e-06 0)
(0.00499865 -2.43142e-06 0)
(0.00499854 -2.63186e-06 0)
(0.00499841 -2.84602e-06 0)
(0.00499828 -3.07463e-06 0)
(0.00499814 -3.31849e-06 0)
(0.00499799 -3.5784e-06 0)
(0.00499783 -3.8552e-06 0)
(0.00499766 -4.14976e-06 0)
(0.00499748 -4.46298e-06 0)
(0.00499728 -4.79578e-06 0)
(0.00499708 -5.14912e-06 0)
(0.00499686 -5.524e-06 0)
(0.00499663 -5.92141e-06 0)
(0.00499639 -6.34241e-06 0)
(0.00499613 -6.78806e-06 0)
(0.00499585 -7.25947e-06 0)
(0.00499557 -7.75775e-06 0)
(0.00499526 -8.28405e-06 0)
(0.00499494 -8.83955e-06 0)
(0.00499459 -9.42543e-06 0)
(0.00499423 -1.00429e-05 0)
(0.00499385 -1.06932e-05 0)
(0.00499346 -1.13776e-05 0)
(0.00499303 -1.20972e-05 0)
(0.00499259 -1.28535e-05 0)
(0.00499213 -1.36476e-05 0)
(0.00499164 -1.44808e-05 0)
(0.00499113 -1.53544e-05 0)
(0.00499059 -1.62695e-05 0)
(0.00499003 -1.72276e-05 0)
(0.00498944 -1.82297e-05 0)
(0.00498882 -1.9277e-05 0)
(0.00498817 -2.03707e-05 0)
(0.0049875 -2.15118e-05 0)
(0.0049868 -2.27015e-05 0)
(0.00498607 -2.39405e-05 0)
(0.0049853 -2.52299e-05 0)
(0.00498451 -2.65703e-05 0)
(0.00498369 -2.79624e-05 0)
(0.00498283 -2.94067e-05 0)
(0.00498194 -3.09035e-05 0)
(0.00498102 -3.24529e-05 0)
(0.00498007 -3.40548e-05 0)
(0.00497909 -3.57088e-05 0)
(0.00497808 -3.74143e-05 0)
(0.00497704 -3.91701e-05 0)
(0.00497597 -4.09747e-05 0)
(0.00497488 -4.28262e-05 0)
(0.00497376 -4.47219e-05 0)
(0.00497261 -4.66584e-05 0)
(0.00497145 -4.86317e-05 0)
(0.00497027 -5.06365e-05 0)
(0.00496907 -5.26665e-05 0)
(0.00496787 -5.4714e-05 0)
(0.00496666 -5.67694e-05 0)
(0.00496545 -5.88214e-05 0)
(0.00496425 -6.08561e-05 0)
(0.00496307 -6.28567e-05 0)
(0.00496191 -6.48033e-05 0)
(0.00496079 -6.66718e-05 0)
(0.00495972 -6.84336e-05 0)
(0.00495871 -7.00549e-05 0)
(0.00495778 -7.1496e-05 0)
(0.00495695 -7.27114e-05 0)
(0.00495624 -7.36493e-05 0)
(0.00495567 -7.4264e-05 0)
(0.00495522 -7.45661e-05 0)
(0.005 -1.08176e-08 0)
(0.005 -3.14956e-08 0)
(0.00499999 -5.16446e-08 0)
(0.00499998 -7.16317e-08 0)
(0.00499998 -9.20237e-08 0)
(0.00499997 -1.1327e-07 0)
(0.00499996 -1.35729e-07 0)
(0.00499994 -1.59711e-07 0)
(0.00499993 -1.85495e-07 0)
(0.00499992 -2.13341e-07 0)
(0.0049999 -2.43508e-07 0)
(0.00499988 -2.7625e-07 0)
(0.00499986 -3.11826e-07 0)
(0.00499984 -3.50502e-07 0)
(0.00499981 -3.92553e-07 0)
(0.00499979 -4.38263e-07 0)
(0.00499976 -4.87929e-07 0)
(0.00499972 -5.41863e-07 0)
(0.00499969 -6.00389e-07 0)
(0.00499965 -6.63849e-07 0)
(0.00499961 -7.32601e-07 0)
(0.00499956 -8.07021e-07 0)
(0.00499952 -8.87502e-07 0)
(0.00499946 -9.74458e-07 0)
(0.00499941 -1.06832e-06 0)
(0.00499935 -1.16955e-06 0)
(0.00499928 -1.27862e-06 0)
(0.00499921 -1.39603e-06 0)
(0.00499913 -1.5223e-06 0)
(0.00499905 -1.65798e-06 0)
(0.00499896 -1.80363e-06 0)
(0.00499887 -1.95987e-06 0)
(0.00499877 -2.1273e-06 0)
(0.00499866 -2.30658e-06 0)
(0.00499854 -2.49838e-06 0)
(0.00499842 -2.70341e-06 0)
(0.00499829 -2.9224e-06 0)
(0.00499815 -3.15611e-06 0)
(0.004998 -3.40532e-06 0)
(0.00499784 -3.67086e-06 0)
(0.00499767 -3.95357e-06 0)
(0.00499749 -4.25433e-06 0)
(0.0049973 -4.57404e-06 0)
(0.00499709 -4.91364e-06 0)
(0.00499688 -5.2741e-06 0)
(0.00499665 -5.6564e-06 0)
(0.0049964 -6.06157e-06 0)
(0.00499614 -6.49066e-06 0)
(0.00499587 -6.94474e-06 0)
(0.00499558 -7.42492e-06 0)
(0.00499528 -7.93233e-06 0)
(0.00499496 -8.46811e-06 0)
(0.00499462 -9.03345e-06 0)
(0.00499426 -9.62953e-06 0)
(0.00499388 -1.02576e-05 0)
(0.00499348 -1.09188e-05 0)
(0.00499306 -1.16145e-05 0)
(0.00499262 -1.23458e-05 0)
(0.00499216 -1.31141e-05 0)
(0.00499167 -1.39207e-05 0)
(0.00499116 -1.47667e-05 0)
(0.00499062 -1.56534e-05 0)
(0.00499006 -1.65822e-05 0)
(0.00498947 -1.75541e-05 0)
(0.00498886 -1.85705e-05 0)
(0.00498822 -1.96324e-05 0)
(0.00498754 -2.07411e-05 0)
(0.00498684 -2.18976e-05 0)
(0.00498611 -2.31029e-05 0)
(0.00498535 -2.43579e-05 0)
(0.00498456 -2.56636e-05 0)
(0.00498374 -2.70206e-05 0)
(0.00498289 -2.84296e-05 0)
(0.004982 -2.9891e-05 0)
(0.00498109 -3.14051e-05 0)
(0.00498014 -3.2972e-05 0)
(0.00497916 -3.45916e-05 0)
(0.00497815 -3.62633e-05 0)
(0.00497712 -3.79865e-05 0)
(0.00497605 -3.97598e-05 0)
(0.00497496 -4.15818e-05 0)
(0.00497384 -4.34501e-05 0)
(0.0049727 -4.5362e-05 0)
(0.00497153 -4.73139e-05 0)
(0.00497035 -4.93011e-05 0)
(0.00496916 -5.1318e-05 0)
(0.00496796 -5.33576e-05 0)
(0.00496675 -5.54114e-05 0)
(0.00496554 -5.7469e-05 0)
(0.00496434 -5.95175e-05 0)
(0.00496316 -6.15415e-05 0)
(0.004962 -6.35224e-05 0)
(0.00496088 -6.54379e-05 0)
(0.0049598 -6.72611e-05 0)
(0.00495878 -6.89603e-05 0)
(0.00495784 -7.04985e-05 0)
(0.00495698 -7.18326e-05 0)
(0.00495624 -7.2913e-05 0)
(0.00495558 -7.36887e-05 0)
(0.004955 -7.41319e-05 0)
(0.005 -8.65639e-09 0)
(0.005 -2.67839e-08 0)
(0.00499999 -4.51409e-08 0)
(0.00499999 -6.363e-08 0)
(0.00499998 -8.26012e-08 0)
(0.00499997 -1.02416e-07 0)
(0.00499996 -1.2339e-07 0)
(0.00499995 -1.45806e-07 0)
(0.00499993 -1.69928e-07 0)
(0.00499992 -1.96003e-07 0)
(0.0049999 -2.24279e-07 0)
(0.00499988 -2.55001e-07 0)
(0.00499986 -2.88416e-07 0)
(0.00499984 -3.24782e-07 0)
(0.00499982 -3.64363e-07 0)
(0.00499979 -4.07432e-07 0)
(0.00499976 -4.54277e-07 0)
(0.00499973 -5.05198e-07 0)
(0.00499969 -5.60509e-07 0)
(0.00499965 -6.20538e-07 0)
(0.00499961 -6.85632e-07 0)
(0.00499957 -7.56155e-07 0)
(0.00499952 -8.32485e-07 0)
(0.00499947 -9.15025e-07 0)
(0.00499941 -1.00419e-06 0)
(0.00499935 -1.10043e-06 0)
(0.00499929 -1.2042e-06 0)
(0.00499922 -1.31598e-06 0)
(0.00499914 -1.43628e-06 0)
(0.00499906 -1.56564e-06 0)
(0.00499897 -1.7046e-06 0)
(0.00499888 -1.85374e-06 0)
(0.00499878 -2.01367e-06 0)
(0.00499867 -2.18503e-06 0)
(0.00499856 -2.36845e-06 0)
(0.00499843 -2.56464e-06 0)
(0.0049983 -2.77431e-06 0)
(0.00499816 -2.99818e-06 0)
(0.00499801 -3.23704e-06 0)
(0.00499786 -3.49168e-06 0)
(0.00499769 -3.76292e-06 0)
(0.00499751 -4.05163e-06 0)
(0.00499732 -4.35868e-06 0)
(0.00499711 -4.68499e-06 0)
(0.0049969 -5.0315e-06 0)
(0.00499667 -5.39919e-06 0)
(0.00499643 -5.78906e-06 0)
(0.00499617 -6.20214e-06 0)
(0.0049959 -6.63947e-06 0)
(0.00499562 -7.10216e-06 0)
(0.00499531 -7.5913e-06 0)
(0.00499499 -8.10804e-06 0)
(0.00499466 -8.65353e-06 0)
(0.0049943 -9.22895e-06 0)
(0.00499392 -9.8355e-06 0)
(0.00499353 -1.04744e-05 0)
(0.00499311 -1.11469e-05 0)
(0.00499267 -1.18542e-05 0)
(0.00499221 -1.25976e-05 0)
(0.00499173 -1.33784e-05 0)
(0.00499122 -1.41978e-05 0)
(0.00499069 -1.50571e-05 0)
(0.00499013 -1.59576e-05 0)
(0.00498955 -1.69005e-05 0)
(0.00498894 -1.7887e-05 0)
(0.0049883 -1.89183e-05 0)
(0.00498763 -1.99957e-05 0)
(0.00498693 -2.11202e-05 0)
(0.00498621 -2.2293e-05 0)
(0.00498545 -2.3515e-05 0)
(0.00498467 -2.47871e-05 0)
(0.00498385 -2.61103e-05 0)
(0.004983 -2.74853e-05 0)
(0.00498212 -2.89126e-05 0)
(0.00498121 -3.03927e-05 0)
(0.00498027 -3.19258e-05 0)
(0.00497929 -3.35121e-05 0)
(0.00497829 -3.51514e-05 0)
(0.00497726 -3.6843e-05 0)
(0.0049762 -3.85862e-05 0)
(0.00497511 -4.03796e-05 0)
(0.00497399 -4.22215e-05 0)
(0.00497286 -4.41095e-05 0)
(0.0049717 -4.60404e-05 0)
(0.00497052 -4.80103e-05 0)
(0.00496933 -5.00142e-05 0)
(0.00496813 -5.20459e-05 0)
(0.00496692 -5.40975e-05 0)
(0.00496571 -5.61595e-05 0)
(0.00496451 -5.82203e-05 0)
(0.00496333 -6.02654e-05 0)
(0.00496216 -6.22776e-05 0)
(0.00496103 -6.42357e-05 0)
(0.00495993 -6.61143e-05 0)
(0.0049589 -6.78832e-05 0)
(0.00495792 -6.95064e-05 0)
(0.00495703 -7.09409e-05 0)
(0.00495622 -7.2136e-05 0)
(0.00495546 -7.30344e-05 0)
(0.00495475 -7.3584e-05 0)
(0.005 -7.17551e-09 0)
(0.005 -2.3014e-08 0)
(0.00499999 -3.9577e-08 0)
(0.00499999 -5.65583e-08 0)
(0.00499998 -7.41466e-08 0)
(0.00499997 -9.26089e-08 0)
(0.00499996 -1.12206e-07 0)
(0.00499995 -1.33188e-07 0)
(0.00499993 -1.55797e-07 0)
(0.00499992 -1.80266e-07 0)
(0.0049999 -2.06829e-07 0)
(0.00499989 -2.3572e-07 0)
(0.00499987 -2.67181e-07 0)
(0.00499984 -3.01455e-07 0)
(0.00499982 -3.38799e-07 0)
(0.00499979 -3.79478e-07 0)
(0.00499976 -4.23769e-07 0)
(0.00499973 -4.7196e-07 0)
(0.0049997 -5.24357e-07 0)
(0.00499966 -5.81278e-07 0)
(0.00499962 -6.43057e-07 0)
(0.00499957 -7.10046e-07 0)
(0.00499953 -7.82615e-07 0)
(0.00499948 -8.6115e-07 0)
(0.00499942 -9.46059e-07 0)
(0.00499936 -1.03777e-06 0)
(0.0049993 -1.13673e-06 0)
(0.00499923 -1.24341e-06 0)
(0.00499915 -1.35829e-06 0)
(0.00499907 -1.48191e-06 0)
(0.00499898 -1.61479e-06 0)
(0.00499889 -1.7575e-06 0)
(0.00499879 -1.91062e-06 0)
(0.00499869 -2.07477e-06 0)
(0.00499857 -2.2506e-06 0)
(0.00499845 -2.43876e-06 0)
(0.00499832 -2.63995e-06 0)
(0.00499818 -2.8549e-06 0)
(0.00499804 -3.08435e-06 0)
(0.00499788 -3.32909e-06 0)
(0.00499771 -3.58991e-06 0)
(0.00499754 -3.86766e-06 0)
(0.00499735 -4.1632e-06 0)
(0.00499715 -4.47744e-06 0)
(0.00499693 -4.81128e-06 0)
(0.00499671 -5.16569e-06 0)
(0.00499647 -5.54165e-06 0)
(0.00499622 -5.94016e-06 0)
(0.00499595 -6.36228e-06 0)
(0.00499566 -6.80905e-06 0)
(0.00499536 -7.28159e-06 0)
(0.00499505 -7.781e-06 0)
(0.00499471 -8.30844e-06 0)
(0.00499436 -8.86506e-06 0)
(0.00499399 -9.45206e-06 0)
(0.00499359 -1.00707e-05 0)
(0.00499318 -1.07221e-05 0)
(0.00499275 -1.14075e-05 0)
(0.00499229 -1.21283e-05 0)
(0.00499181 -1.28856e-05 0)
(0.00499131 -1.36808e-05 0)
(0.00499078 -1.45152e-05 0)
(0.00499023 -1.53899e-05 0)
(0.00498965 -1.63063e-05 0)
(0.00498904 -1.72656e-05 0)
(0.00498841 -1.8269e-05 0)
(0.00498775 -1.93179e-05 0)
(0.00498706 -2.04133e-05 0)
(0.00498634 -2.15563e-05 0)
(0.00498559 -2.27481e-05 0)
(0.00498481 -2.39897e-05 0)
(0.004984 -2.5282e-05 0)
(0.00498316 -2.66259e-05 0)
(0.00498228 -2.8022e-05 0)
(0.00498138 -2.9471e-05 0)
(0.00498044 -3.09733e-05 0)
(0.00497948 -3.25291e-05 0)
(0.00497848 -3.41385e-05 0)
(0.00497745 -3.58011e-05 0)
(0.0049764 -3.75164e-05 0)
(0.00497532 -3.92835e-05 0)
(0.00497421 -4.11008e-05 0)
(0.00497308 -4.29664e-05 0)
(0.00497193 -4.48777e-05 0)
(0.00497075 -4.68311e-05 0)
(0.00496957 -4.88221e-05 0)
(0.00496837 -5.08453e-05 0)
(0.00496716 -5.28934e-05 0)
(0.00496595 -5.49578e-05 0)
(0.00496475 -5.70275e-05 0)
(0.00496356 -5.9089e-05 0)
(0.00496238 -6.1126e-05 0)
(0.00496124 -6.31181e-05 0)
(0.00496013 -6.50409e-05 0)
(0.00495906 -6.68644e-05 0)
(0.00495805 -6.85524e-05 0)
(0.0049571 -7.00605e-05 0)
(0.00495623 -7.13343e-05 0)
(0.00495536 -7.23099e-05 0)
(0.00495451 -7.29254e-05 0)
(0.005 -6.00367e-09 0)
(0.005 -1.97362e-08 0)
(0.00499999 -3.44908e-08 0)
(0.00499999 -4.98943e-08 0)
(0.00499998 -6.60357e-08 0)
(0.00499997 -8.31027e-08 0)
(0.00499996 -1.01301e-07 0)
(0.00499995 -1.20845e-07 0)
(0.00499994 -1.41948e-07 0)
(0.00499992 -1.64827e-07 0)
(0.00499991 -1.89701e-07 0)
(0.00499989 -2.16793e-07 0)
(0.00499987 -2.46331e-07 0)
(0.00499985 -2.78552e-07 0)
(0.00499982 -3.137e-07 0)
(0.0049998 -3.52032e-07 0)
(0.00499977 -3.93814e-07 0)
(0.00499974 -4.39326e-07 0)
(0.0049997 -4.88861e-07 0)
(0.00499967 -5.42728e-07 0)
(0.00499963 -6.0125e-07 0)
(0.00499958 -6.64767e-07 0)
(0.00499954 -7.33637e-07 0)
(0.00499948 -8.08236e-07 0)
(0.00499943 -8.88957e-07 0)
(0.00499937 -9.76215e-07 0)
(0.00499931 -1.07044e-06 0)
(0.00499924 -1.1721e-06 0)
(0.00499916 -1.28166e-06 0)
(0.00499909 -1.39963e-06 0)
(0.004999 -1.52653e-06 0)
(0.00499891 -1.6629e-06 0)
(0.00499881 -1.80932e-06 0)
(0.00499871 -1.96639e-06 0)
(0.00499859 -2.13472e-06 0)
(0.00499848 -2.31498e-06 0)
(0.00499835 -2.50783e-06 0)
(0.00499821 -2.71398e-06 0)
(0.00499807 -2.93416e-06 0)
(0.00499791 -3.16914e-06 0)
(0.00499775 -3.4197e-06 0)
(0.00499757 -3.68665e-06 0)
(0.00499739 -3.97086e-06 0)
(0.00499719 -4.27318e-06 0)
(0.00499698 -4.59453e-06 0)
(0.00499675 -4.93585e-06 0)
(0.00499652 -5.29809e-06 0)
(0.00499627 -5.68224e-06 0)
(0.004996 -6.08934e-06 0)
(0.00499572 -6.52043e-06 0)
(0.00499543 -6.97658e-06 0)
(0.00499511 -7.4589e-06 0)
(0.00499478 -7.96852e-06 0)
(0.00499443 -8.5066e-06 0)
(0.00499407 -9.0743e-06 0)
(0.00499368 -9.67283e-06 0)
(0.00499327 -1.03034e-05 0)
(0.00499284 -1.09673e-05 0)
(0.00499239 -1.16657e-05 0)
(0.00499192 -1.23999e-05 0)
(0.00499142 -1.31711e-05 0)
(0.0049909 -1.39808e-05 0)
(0.00499035 -1.48301e-05 0)
(0.00498978 -1.57203e-05 0)
(0.00498918 -1.66527e-05 0)
(0.00498855 -1.76286e-05 0)
(0.0049879 -1.86492e-05 0)
(0.00498721 -1.97157e-05 0)
(0.0049865 -2.08294e-05 0)
(0.00498576 -2.19913e-05 0)
(0.00498499 -2.32026e-05 0)
(0.00498419 -2.44643e-05 0)
(0.00498335 -2.57773e-05 0)
(0.00498249 -2.71424e-05 0)
(0.00498159 -2.85605e-05 0)
(0.00498066 -3.0032e-05 0)
(0.00497971 -3.15575e-05 0)
(0.00497872 -3.31371e-05 0)
(0.0049777 -3.47707e-05 0)
(0.00497666 -3.64581e-05 0)
(0.00497558 -3.81986e-05 0)
(0.00497448 -3.9991e-05 0)
(0.00497336 -4.18338e-05 0)
(0.00497221 -4.37247e-05 0)
(0.00497105 -4.56607e-05 0)
(0.00496986 -4.76379e-05 0)
(0.00496867 -4.96512e-05 0)
(0.00496746 -5.16941e-05 0)
(0.00496626 -5.37585e-05 0)
(0.00496505 -5.58343e-05 0)
(0.00496385 -5.79087e-05 0)
(0.00496267 -5.99659e-05 0)
(0.0049615 -6.19863e-05 0)
(0.00496037 -6.39456e-05 0)
(0.00495927 -6.5814e-05 0)
(0.00495822 -6.75541e-05 0)
(0.00495722 -6.91196e-05 0)
(0.00495627 -7.04514e-05 0)
(0.00495532 -7.1477e-05 0)
(0.00495432 -7.21362e-05 0)
(0.005 -4.99641e-09 0)
(0.005 -1.6791e-08 0)
(0.00499999 -2.97777e-08 0)
(0.00499999 -4.35769e-08 0)
(0.00499998 -5.82241e-08 0)
(0.00499997 -7.38506e-08 0)
(0.00499996 -9.0616e-08 0)
(0.00499995 -1.08698e-07 0)
(0.00499994 -1.28284e-07 0)
(0.00499993 -1.49571e-07 0)
(0.00499991 -1.7276e-07 0)
(0.00499989 -1.98061e-07 0)
(0.00499987 -2.25691e-07 0)
(0.00499985 -2.55875e-07 0)
(0.00499983 -2.88848e-07 0)
(0.0049998 -3.24855e-07 0)
(0.00499977 -3.64154e-07 0)
(0.00499974 -4.07013e-07 0)
(0.00499971 -4.53715e-07 0)
(0.00499967 -5.04559e-07 0)
(0.00499963 -5.59856e-07 0)
(0.00499959 -6.19936e-07 0)
(0.00499955 -6.85144e-07 0)
(0.0049995 -7.55844e-07 0)
(0.00499944 -8.32417e-07 0)
(0.00499938 -9.15264e-07 0)
(0.00499932 -1.00481e-06 0)
(0.00499925 -1.10149e-06 0)
(0.00499918 -1.20577e-06 0)
(0.0049991 -1.31814e-06 0)
(0.00499902 -1.4391e-06 0)
(0.00499893 -1.56919e-06 0)
(0.00499883 -1.70897e-06 0)
(0.00499873 -1.85901e-06 0)
(0.00499862 -2.01992e-06 0)
(0.0049985 -2.19233e-06 0)
(0.00499838 -2.37691e-06 0)
(0.00499824 -2.57433e-06 0)
(0.0049981 -2.78532e-06 0)
(0.00499795 -3.01061e-06 0)
(0.00499779 -3.25098e-06 0)
(0.00499761 -3.50722e-06 0)
(0.00499743 -3.78016e-06 0)
(0.00499723 -4.07066e-06 0)
(0.00499703 -4.37961e-06 0)
(0.00499681 -4.70792e-06 0)
(0.00499658 -5.05653e-06 0)
(0.00499633 -5.42642e-06 0)
(0.00499607 -5.8186e-06 0)
(0.00499579 -6.2341e-06 0)
(0.0049955 -6.67397e-06 0)
(0.00499519 -7.1393e-06 0)
(0.00499487 -7.63122e-06 0)
(0.00499452 -8.15085e-06 0)
(0.00499416 -8.69936e-06 0)
(0.00499378 -9.27795e-06 0)
(0.00499338 -9.88781e-06 0)
(0.00499295 -1.05302e-05 0)
(0.00499251 -1.12063e-05 0)
(0.00499204 -1.19175e-05 0)
(0.00499155 -1.2665e-05 0)
(0.00499103 -1.345e-05 0)
(0.0049905 -1.4274e-05 0)
(0.00498993 -1.51381e-05 0)
(0.00498934 -1.60437e-05 0)
(0.00498872 -1.69921e-05 0)
(0.00498807 -1.79846e-05 0)
(0.0049874 -1.90224e-05 0)
(0.0049867 -2.01067e-05 0)
(0.00498596 -2.12388e-05 0)
(0.0049852 -2.24198e-05 0)
(0.00498441 -2.36509e-05 0)
(0.00498358 -2.4933e-05 0)
(0.00498273 -2.62672e-05 0)
(0.00498184 -2.76543e-05 0)
(0.00498093 -2.9095e-05 0)
(0.00497998 -3.05899e-05 0)
(0.004979 -3.21394e-05 0)
(0.00497799 -3.37437e-05 0)
(0.00497696 -3.54028e-05 0)
(0.00497589 -3.71162e-05 0)
(0.0049748 -3.88832e-05 0)
(0.00497369 -4.07025e-05 0)
(0.00497255 -4.25721e-05 0)
(0.00497139 -4.44896e-05 0)
(0.00497021 -4.64515e-05 0)
(0.00496902 -4.84532e-05 0)
(0.00496782 -5.04888e-05 0)
(0.00496661 -5.25508e-05 0)
(0.0049654 -5.46295e-05 0)
(0.00496419 -5.67128e-05 0)
(0.004963 -5.87854e-05 0)
(0.00496181 -6.0828e-05 0)
(0.00496066 -6.28165e-05 0)
(0.00495953 -6.47204e-05 0)
(0.00495843 -6.65016e-05 0)
(0.00495737 -6.81113e-05 0)
(0.00495635 -6.94866e-05 0)
(0.00495532 -7.05486e-05 0)
(0.00495419 -7.12269e-05 0)
(0.005 -4.11134e-09 0)
(0.005 -1.41358e-08 0)
(0.00499999 -2.5434e-08 0)
(0.00499999 -3.76486e-08 0)
(0.00499998 -5.07918e-08 0)
(0.00499998 -6.49584e-08 0)
(0.00499997 -8.0273e-08 0)
(0.00499996 -9.68822e-08 0)
(0.00499994 -1.14949e-07 0)
(0.00499993 -1.34648e-07 0)
(0.00499991 -1.56166e-07 0)
(0.0049999 -1.79696e-07 0)
(0.00499988 -2.05443e-07 0)
(0.00499986 -2.33621e-07 0)
(0.00499983 -2.64453e-07 0)
(0.00499981 -2.98174e-07 0)
(0.00499978 -3.35031e-07 0)
(0.00499975 -3.75282e-07 0)
(0.00499972 -4.19202e-07 0)
(0.00499968 -4.67075e-07 0)
(0.00499964 -5.19203e-07 0)
(0.0049996 -5.75905e-07 0)
(0.00499956 -6.37514e-07 0)
(0.00499951 -7.04382e-07 0)
(0.00499945 -7.76877e-07 0)
(0.0049994 -8.55388e-07 0)
(0.00499934 -9.40324e-07 0)
(0.00499927 -1.03211e-06 0)
(0.0049992 -1.1312e-06 0)
(0.00499912 -1.23806e-06 0)
(0.00499904 -1.35319e-06 0)
(0.00499895 -1.4771e-06 0)
(0.00499886 -1.61033e-06 0)
(0.00499876 -1.75345e-06 0)
(0.00499865 -1.90705e-06 0)
(0.00499853 -2.07174e-06 0)
(0.00499841 -2.24817e-06 0)
(0.00499828 -2.43699e-06 0)
(0.00499814 -2.63892e-06 0)
(0.00499799 -2.85467e-06 0)
(0.00499783 -3.085e-06 0)
(0.00499766 -3.33068e-06 0)
(0.00499748 -3.59252e-06 0)
(0.00499729 -3.87137e-06 0)
(0.00499709 -4.16808e-06 0)
(0.00499687 -4.48357e-06 0)
(0.00499664 -4.81874e-06 0)
(0.0049964 -5.17457e-06 0)
(0.00499614 -5.55203e-06 0)
(0.00499587 -5.95214e-06 0)
(0.00499558 -6.37594e-06 0)
(0.00499528 -6.82451e-06 0)
(0.00499496 -7.29894e-06 0)
(0.00499462 -7.80037e-06 0)
(0.00499427 -8.32993e-06 0)
(0.00499389 -8.88882e-06 0)
(0.0049935 -9.47822e-06 0)
(0.00499308 -1.00994e-05 0)
(0.00499264 -1.07535e-05 0)
(0.00499218 -1.14419e-05 0)
(0.0049917 -1.21658e-05 0)
(0.00499119 -1.29266e-05 0)
(0.00499066 -1.37255e-05 0)
(0.0049901 -1.45638e-05 0)
(0.00498952 -1.54429e-05 0)
(0.00498891 -1.63641e-05 0)
(0.00498828 -1.73287e-05 0)
(0.00498761 -1.83379e-05 0)
(0.00498692 -1.93932e-05 0)
(0.0049862 -2.04957e-05 0)
(0.00498544 -2.16466e-05 0)
(0.00498466 -2.28473e-05 0)
(0.00498385 -2.40987e-05 0)
(0.004983 -2.5402e-05 0)
(0.00498213 -2.67581e-05 0)
(0.00498122 -2.8168e-05 0)
(0.00498029 -2.96323e-05 0)
(0.00497932 -3.11517e-05 0)
(0.00497833 -3.27266e-05 0)
(0.0049773 -3.43571e-05 0)
(0.00497625 -3.6043e-05 0)
(0.00497516 -3.77839e-05 0)
(0.00497406 -3.95788e-05 0)
(0.00497293 -4.14263e-05 0)
(0.00497178 -4.3324e-05 0)
(0.0049706 -4.52691e-05 0)
(0.00496942 -4.72573e-05 0)
(0.00496822 -4.92832e-05 0)
(0.00496701 -5.13398e-05 0)
(0.00496579 -5.34179e-05 0)
(0.00496458 -5.55058e-05 0)
(0.00496337 -5.75885e-05 0)
(0.00496217 -5.96469e-05 0)
(0.00496098 -6.16567e-05 0)
(0.00495982 -6.35872e-05 0)
(0.00495868 -6.53988e-05 0)
(0.00495757 -6.70408e-05 0)
(0.00495648 -6.84475e-05 0)
(0.00495537 -6.9535e-05 0)
(0.00495412 -7.02094e-05 0)
(0.005 -3.32098e-09 0)
(0.005 -1.17255e-08 0)
(0.005 -2.14285e-08 0)
(0.00499999 -3.21057e-08 0)
(0.00499998 -4.37622e-08 0)
(0.00499998 -5.64717e-08 0)
(0.00499997 -7.03336e-08 0)
(0.00499996 -8.54701e-08 0)
(0.00499995 -1.02022e-07 0)
(0.00499993 -1.20145e-07 0)
(0.00499992 -1.40008e-07 0)
(0.0049999 -1.61791e-07 0)
(0.00499988 -1.85684e-07 0)
(0.00499986 -2.1189e-07 0)
(0.00499984 -2.40621e-07 0)
(0.00499981 -2.72101e-07 0)
(0.00499979 -3.06565e-07 0)
(0.00499976 -3.44263e-07 0)
(0.00499973 -3.85457e-07 0)
(0.00499969 -4.30421e-07 0)
(0.00499965 -4.79447e-07 0)
(0.00499961 -5.32842e-07 0)
(0.00499957 -5.90926e-07 0)
(0.00499952 -6.5404e-07 0)
(0.00499947 -7.22541e-07 0)
(0.00499941 -7.96805e-07 0)
(0.00499935 -8.77225e-07 0)
(0.00499929 -9.64217e-07 0)
(0.00499922 -1.05822e-06 0)
(0.00499914 -1.15968e-06 0)
(0.00499906 -1.26908e-06 0)
(0.00499898 -1.38693e-06 0)
(0.00499889 -1.51375e-06 0)
(0.00499879 -1.65008e-06 0)
(0.00499868 -1.7965e-06 0)
(0.00499857 -1.95361e-06 0)
(0.00499845 -2.12204e-06 0)
(0.00499832 -2.30243e-06 0)
(0.00499818 -2.49546e-06 0)
(0.00499804 -2.70184e-06 0)
(0.00499788 -2.9223e-06 0)
(0.00499771 -3.15761e-06 0)
(0.00499754 -3.40855e-06 0)
(0.00499735 -3.67594e-06 0)
(0.00499715 -3.96063e-06 0)
(0.00499694 -4.26351e-06 0)
(0.00499672 -4.58547e-06 0)
(0.00499648 -4.92746e-06 0)
(0.00499623 -5.29044e-06 0)
(0.00499596 -5.67541e-06 0)
(0.00499568 -6.08341e-06 0)
(0.00499538 -6.51547e-06 0)
(0.00499507 -6.9727e-06 0)
(0.00499474 -7.45619e-06 0)
(0.00499439 -7.96709e-06 0)
(0.00499402 -8.50657e-06 0)
(0.00499363 -9.07582e-06 0)
(0.00499322 -9.67605e-06 0)
(0.00499279 -1.03085e-05 0)
(0.00499234 -1.09744e-05 0)
(0.00499186 -1.16752e-05 0)
(0.00499137 -1.24119e-05 0)
(0.00499084 -1.31861e-05 0)
(0.0049903 -1.39989e-05 0)
(0.00498972 -1.48518e-05 0)
(0.00498913 -1.57461e-05 0)
(0.0049885 -1.66831e-05 0)
(0.00498785 -1.76641e-05 0)
(0.00498716 -1.86906e-05 0)
(0.00498645 -1.97637e-05 0)
(0.00498571 -2.08849e-05 0)
(0.00498494 -2.20553e-05 0)
(0.00498414 -2.32762e-05 0)
(0.00498331 -2.45488e-05 0)
(0.00498245 -2.58741e-05 0)
(0.00498155 -2.72532e-05 0)
(0.00498063 -2.86869e-05 0)
(0.00497968 -3.01761e-05 0)
(0.00497869 -3.17212e-05 0)
(0.00497768 -3.33227e-05 0)
(0.00497663 -3.49807e-05 0)
(0.00497556 -3.66949e-05 0)
(0.00497447 -3.84647e-05 0)
(0.00497335 -4.02888e-05 0)
(0.0049722 -4.21655e-05 0)
(0.00497104 -4.4092e-05 0)
(0.00496985 -4.60646e-05 0)
(0.00496865 -4.80783e-05 0)
(0.00496744 -5.01264e-05 0)
(0.00496622 -5.22002e-05 0)
(0.004965 -5.42881e-05 0)
(0.00496378 -5.63754e-05 0)
(0.00496256 -5.84431e-05 0)
(0.00496135 -6.04667e-05 0)
(0.00496015 -6.2415e-05 0)
(0.00495896 -6.42473e-05 0)
(0.0049578 -6.59117e-05 0)
(0.00495665 -6.73397e-05 0)
(0.00495546 -6.84439e-05 0)
(0.00495413 -6.90989e-05 0)
(0.005 -2.60547e-09 0)
(0.005 -9.52128e-09 0)
(0.005 -1.77256e-08 0)
(0.00499999 -2.69274e-08 0)
(0.00499999 -3.71334e-08 0)
(0.00499998 -4.84062e-08 0)
(0.00499997 -6.08281e-08 0)
(0.00499996 -7.45028e-08 0)
(0.00499995 -8.95525e-08 0)
(0.00499994 -1.06116e-07 0)
(0.00499992 -1.24345e-07 0)
(0.0049999 -1.44407e-07 0)
(0.00499989 -1.66479e-07 0)
(0.00499987 -1.90751e-07 0)
(0.00499985 -2.17423e-07 0)
(0.00499982 -2.46709e-07 0)
(0.0049998 -2.78834e-07 0)
(0.00499977 -3.14036e-07 0)
(0.00499974 -3.52565e-07 0)
(0.0049997 -3.94687e-07 0)
(0.00499967 -4.40682e-07 0)
(0.00499963 -4.90844e-07 0)
(0.00499958 -5.45485e-07 0)
(0.00499954 -6.04931e-07 0)
(0.00499949 -6.69528e-07 0)
(0.00499943 -7.39639e-07 0)
(0.00499937 -8.15645e-07 0)
(0.00499931 -8.97947e-07 0)
(0.00499924 -9.86967e-07 0)
(0.00499917 -1.08315e-06 0)
(0.00499909 -1.18695e-06 0)
(0.00499901 -1.29887e-06 0)
(0.00499892 -1.4194e-06 0)
(0.00499882 -1.54909e-06 0)
(0.00499872 -1.68849e-06 0)
(0.00499861 -1.83818e-06 0)
(0.00499849 -1.99876e-06 0)
(0.00499836 -2.17089e-06 0)
(0.00499823 -2.3552e-06 0)
(0.00499809 -2.55239e-06 0)
(0.00499793 -2.76318e-06 0)
(0.00499777 -2.98831e-06 0)
(0.0049976 -3.22855e-06 0)
(0.00499742 -3.48471e-06 0)
(0.00499722 -3.7576e-06 0)
(0.00499702 -4.0481e-06 0)
(0.0049968 -4.35709e-06 0)
(0.00499656 -4.68549e-06 0)
(0.00499632 -5.03426e-06 0)
(0.00499606 -5.40436e-06 0)
(0.00499578 -5.79682e-06 0)
(0.00499549 -6.21266e-06 0)
(0.00499518 -6.65297e-06 0)
(0.00499486 -7.11883e-06 0)
(0.00499452 -7.61138e-06 0)
(0.00499415 -8.13177e-06 0)
(0.00499377 -8.68118e-06 0)
(0.00499337 -9.26081e-06 0)
(0.00499295 -9.87191e-06 0)
(0.00499251 -1.05157e-05 0)
(0.00499204 -1.11936e-05 0)
(0.00499156 -1.19067e-05 0)
(0.00499104 -1.26564e-05 0)
(0.00499051 -1.34441e-05 0)
(0.00498994 -1.42712e-05 0)
(0.00498936 -1.51389e-05 0)
(0.00498874 -1.60486e-05 0)
(0.0049881 -1.70018e-05 0)
(0.00498743 -1.79997e-05 0)
(0.00498673 -1.90438e-05 0)
(0.004986 -2.01354e-05 0)
(0.00498524 -2.12758e-05 0)
(0.00498446 -2.24664e-05 0)
(0.00498364 -2.37084e-05 0)
(0.00498279 -2.5003e-05 0)
(0.00498191 -2.63513e-05 0)
(0.004981 -2.77543e-05 0)
(0.00498006 -2.92131e-05 0)
(0.00497909 -3.07283e-05 0)
(0.00497808 -3.23004e-05 0)
(0.00497705 -3.39299e-05 0)
(0.00497599 -3.56166e-05 0)
(0.00497491 -3.73603e-05 0)
(0.0049738 -3.91599e-05 0)
(0.00497266 -4.1014e-05 0)
(0.0049715 -4.29202e-05 0)
(0.00497032 -4.4875e-05 0)
(0.00496912 -4.68738e-05 0)
(0.00496791 -4.89102e-05 0)
(0.00496669 -5.09757e-05 0)
(0.00496546 -5.3059e-05 0)
(0.00496422 -5.51456e-05 0)
(0.00496298 -5.72164e-05 0)
(0.00496174 -5.92467e-05 0)
(0.00496051 -6.12046e-05 0)
(0.00495929 -6.3049e-05 0)
(0.00495807 -6.47265e-05 0)
(0.00495687 -6.61674e-05 0)
(0.00495561 -6.72821e-05 0)
(0.0049542 -6.7926e-05 0)
(0.005 -1.95214e-09 0)
(0.005 -7.49589e-09 0)
(0.005 -1.42958e-08 0)
(0.00499999 -2.20922e-08 0)
(0.00499999 -3.08974e-08 0)
(0.00499998 -4.07682e-08 0)
(0.00499997 -5.17761e-08 0)
(0.00499996 -6.40109e-08 0)
(0.00499995 -7.75798e-08 0)
(0.00499994 -9.26067e-08 0)
(0.00499992 -1.0923e-07 0)
(0.00499991 -1.27603e-07 0)
(0.00499989 -1.47889e-07 0)
(0.00499987 -1.70268e-07 0)
(0.00499985 -1.94927e-07 0)
(0.00499983 -2.22071e-07 0)
(0.0049998 -2.51912e-07 0)
(0.00499978 -2.84678e-07 0)
(0.00499975 -3.20609e-07 0)
(0.00499971 -3.5996e-07 0)
(0.00499968 -4.02999e-07 0)
(0.00499964 -4.50011e-07 0)
(0.0049996 -5.01294e-07 0)
(0.00499955 -5.57164e-07 0)
(0.0049995 -6.17953e-07 0)
(0.00499945 -6.84014e-07 0)
(0.00499939 -7.55713e-07 0)
(0.00499933 -8.3344e-07 0)
(0.00499927 -9.17601e-07 0)
(0.0049992 -1.00863e-06 0)
(0.00499912 -1.10696e-06 0)
(0.00499904 -1.21309e-06 0)
(0.00499895 -1.32748e-06 0)
(0.00499886 -1.45068e-06 0)
(0.00499876 -1.58321e-06 0)
(0.00499865 -1.72564e-06 0)
(0.00499853 -1.87857e-06 0)
(0.00499841 -2.0426e-06 0)
(0.00499828 -2.21839e-06 0)
(0.00499814 -2.40659e-06 0)
(0.00499799 -2.60792e-06 0)
(0.00499784 -2.82309e-06 0)
(0.00499767 -3.05285e-06 0)
(0.00499749 -3.298e-06 0)
(0.0049973 -3.55934e-06 0)
(0.0049971 -3.83771e-06 0)
(0.00499688 -4.13398e-06 0)
(0.00499666 -4.44907e-06 0)
(0.00499642 -4.78389e-06 0)
(0.00499616 -5.1394e-06 0)
(0.00499589 -5.51662e-06 0)
(0.00499561 -5.91655e-06 0)
(0.00499531 -6.34024e-06 0)
(0.00499499 -6.78879e-06 0)
(0.00499466 -7.26331e-06 0)
(0.0049943 -7.76494e-06 0)
(0.00499393 -8.29484e-06 0)
(0.00499354 -8.85423e-06 0)
(0.00499313 -9.44433e-06 0)
(0.00499269 -1.00664e-05 0)
(0.00499224 -1.07217e-05 0)
(0.00499176 -1.14115e-05 0)
(0.00499126 -1.21372e-05 0)
(0.00499073 -1.29001e-05 0)
(0.00499018 -1.37016e-05 0)
(0.0049896 -1.45431e-05 0)
(0.004989 -1.54259e-05 0)
(0.00498837 -1.63515e-05 0)
(0.00498771 -1.73212e-05 0)
(0.00498703 -1.83366e-05 0)
(0.00498631 -1.93988e-05 0)
(0.00498557 -2.05095e-05 0)
(0.00498479 -2.16699e-05 0)
(0.00498399 -2.28814e-05 0)
(0.00498315 -2.41453e-05 0)
(0.00498229 -2.54629e-05 0)
(0.00498139 -2.68352e-05 0)
(0.00498046 -2.82633e-05 0)
(0.00497951 -2.97482e-05 0)
(0.00497852 -3.12906e-05 0)
(0.0049775 -3.28909e-05 0)
(0.00497645 -3.45494e-05 0)
(0.00497538 -3.6266e-05 0)
(0.00497427 -3.80399e-05 0)
(0.00497314 -3.98698e-05 0)
(0.00497199 -4.17537e-05 0)
(0.00497082 -4.36885e-05 0)
(0.00496962 -4.56696e-05 0)
(0.00496841 -4.7691e-05 0)
(0.00496718 -4.97444e-05 0)
(0.00496594 -5.18187e-05 0)
(0.00496469 -5.38994e-05 0)
(0.00496343 -5.59673e-05 0)
(0.00496217 -5.79976e-05 0)
(0.00496091 -5.9958e-05 0)
(0.00495964 -6.18066e-05 0)
(0.00495839 -6.34893e-05 0)
(0.00495713 -6.49358e-05 0)
(0.0049558 -6.60566e-05 0)
(0.00495433 -6.66997e-05 0)
(0.005 -1.35217e-09 0)
(0.005 -5.6295e-09 0)
(0.005 -1.11153e-08 0)
(0.00499999 -1.75804e-08 0)
(0.00499999 -2.50432e-08 0)
(0.00499998 -3.3558e-08 0)
(0.00499997 -4.31892e-08 0)
(0.00499996 -5.40163e-08 0)
(0.00499995 -6.61351e-08 0)
(0.00499994 -7.96566e-08 0)
(0.00499993 -9.47071e-08 0)
(0.00499991 -1.11427e-07 0)
(0.0049999 -1.29969e-07 0)
(0.00499988 -1.50499e-07 0)
(0.00499986 -1.73196e-07 0)
(0.00499984 -1.98252e-07 0)
(0.00499981 -2.25869e-07 0)
(0.00499979 -2.56265e-07 0)
(0.00499976 -2.89668e-07 0)
(0.00499972 -3.26323e-07 0)
(0.00499969 -3.66488e-07 0)
(0.00499965 -4.10435e-07 0)
(0.00499961 -4.58451e-07 0)
(0.00499957 -5.10842e-07 0)
(0.00499952 -5.67928e-07 0)
(0.00499947 -6.30046e-07 0)
(0.00499941 -6.97554e-07 0)
(0.00499936 -7.70826e-07 0)
(0.00499929 -8.50256e-07 0)
(0.00499922 -9.36259e-07 0)
(0.00499915 -1.02927e-06 0)
(0.00499907 -1.12975e-06 0)
(0.00499898 -1.23816e-06 0)
(0.00499889 -1.35503e-06 0)
(0.0049988 -1.48086e-06 0)
(0.00499869 -1.61622e-06 0)
(0.00499858 -1.76166e-06 0)
(0.00499846 -1.9178e-06 0)
(0.00499834 -2.08526e-06 0)
(0.0049982 -2.26469e-06 0)
(0.00499806 -2.45677e-06 0)
(0.0049979 -2.6622e-06 0)
(0.00499774 -2.88173e-06 0)
(0.00499756 -3.11612e-06 0)
(0.00499738 -3.36615e-06 0)
(0.00499718 -3.63266e-06 0)
(0.00499698 -3.91649e-06 0)
(0.00499675 -4.21854e-06 0)
(0.00499652 -4.5397e-06 0)
(0.00499627 -4.88094e-06 0)
(0.00499601 -5.24322e-06 0)
(0.00499573 -5.62754e-06 0)
(0.00499544 -6.03496e-06 0)
(0.00499513 -6.46653e-06 0)
(0.0049948 -6.92336e-06 0)
(0.00499446 -7.40657e-06 0)
(0.0049941 -7.91733e-06 0)
(0.00499371 -8.45683e-06 0)
(0.00499331 -9.02629e-06 0)
(0.00499289 -9.62694e-06 0)