/*--------------------------------*- C++ -*----------------------------------*\
  =========                 |
  \\      /  F ield         | OpenFOAM: The Open Source CFD Toolbox
   \\    /   O peration     | Website:  https://openfoam.org
    \\  /    A nd           | Version:  11
     \\/     M anipulation  |
\*---------------------------------------------------------------------------*/
FoamFile
{
    format      ascii;
    class       volScalarField;
    location    "78";
    object      k;
}
// * * * * * * * * * * * * * * * * * * * * * * * * * * * * * * * * * * * * * //

dimensions      [0 2 -2 0 0 0 0];

internalField   nonuniform List<scalar> 
10000
(
0.000939646
0.000835565
0.000745605
0.000667613
0.000599797
0.000540667
0.000488981
0.000443699
0.000403954
0.000369015
0.000338272
0.000311207
0.000287385
0.000266434
0.000248032
0.000231903
0.000217802
0.00020551
0.000194831
0.000185586
0.00017761
0.000170753
0.000164876
0.000159856
0.000155578
0.000151941
0.000148856
0.000146243
0.000144033
0.000142165
0.000140589
0.00013926
0.000138142
0.000137201
0.000136411
0.000135746
0.000135188
0.000134717
0.00013432
0.000133984
0.0001337
0.000133458
0.000133251
0.000133074
0.000132921
0.000132787
0.00013267
0.000132565
0.000132472
0.000132387
0.000132308
0.000132236
0.000132168
0.000132104
0.000132043
0.000131985
0.000131928
0.000131874
0.000131821
0.00013177
0.00013172
0.000131672
0.000131625
0.00013158
0.000131535
0.000131492
0.000131451
0.000131411
0.000131372
0.000131334
0.000131298
0.000131263
0.000131229
0.000131197
0.000131166
0.000131136
0.000131107
0.00013108
0.000131053
0.000131028
0.000131004
0.000130981
0.000130959
0.000130937
0.000130917
0.000130898
0.000130879
0.000130862
0.000130845
0.00013083
0.000130815
0.000130802
0.000130789
0.000130778
0.000130767
0.000130758
0.000130751
0.000130745
0.000130741
0.000130739
0.000939647
0.00083557
0.000745614
0.000667624
0.00059981
0.000540682
0.000488997
0.000443716
0.000403972
0.000369034
0.000338291
0.000311228
0.000287406
0.000266455
0.000248054
0.000231925
0.000217823
0.000205531
0.000194852
0.000185606
0.000177629
0.000170771
0.000164894
0.000159872
0.000155593
0.000151956
0.000148869
0.000146256
0.000144045
0.000142178
0.000140602
0.000139273
0.000138155
0.000137214
0.000136422
0.000135757
0.000135197
0.000134725
0.000134327
0.000133991
0.000133706
0.000133464
0.000133258
0.00013308
0.000132927
0.000132793
0.000132675
0.000132571
0.000132477
0.000132391
0.000132313
0.000132241
0.000132173
0.000132108
0.000132047
0.000131988
0.000131932
0.000131878
0.000131825
0.000131773
0.000131724
0.000131675
0.000131628
0.000131582
0.000131538
0.000131495
0.000131453
0.000131413
0.000131374
0.000131336
0.0001313
0.000131265
0.000131231
0.000131198
0.000131167
0.000131137
0.000131109
0.000131081
0.000131055
0.000131029
0.000131005
0.000130982
0.00013096
0.000130938
0.000130918
0.000130899
0.00013088
0.000130863
0.000130846
0.00013083
0.000130816
0.000130802
0.000130789
0.000130778
0.000130768
0.000130759
0.000130751
0.000130746
0.000130741
0.000130739
0.000939649
0.000835578
0.000745627
0.000667642
0.000599832
0.000540708
0.000489026
0.000443747
0.000404004
0.000369068
0.000338326
0.000311263
0.000287442
0.000266491
0.000248089
0.00023196
0.000217857
0.000205564
0.000194883
0.000185635
0.000177656
0.000170796
0.000164916
0.000159893
0.000155612
0.000151973
0.000148885
0.000146269
0.000144058
0.000142189
0.000140613
0.000139284
0.000138165
0.000137223
0.000136431
0.000135765
0.000135204
0.000134732
0.000134333
0.000133997
0.000133711
0.000133469
0.000133262
0.000133084
0.000132931
0.000132797
0.000132679
0.000132574
0.00013248
0.000132395
0.000132317
0.000132244
0.000132176
0.000132112
0.00013205
0.000131992
0.000131935
0.000131881
0.000131828
0.000131776
0.000131726
0.000131678
0.000131631
0.000131585
0.00013154
0.000131497
0.000131455
0.000131415
0.000131376
0.000131338
0.000131302
0.000131267
0.000131233
0.0001312
0.000131169
0.000131139
0.00013111
0.000131083
0.000131056
0.000131031
0.000131006
0.000130983
0.000130961
0.00013094
0.000130919
0.0001309
0.000130881
0.000130864
0.000130847
0.000130831
0.000130817
0.000130803
0.00013079
0.000130779
0.000130769
0.00013076
0.000130752
0.000130746
0.000130742
0.00013074
0.000939651
0.000835586
0.000745643
0.000667665
0.000599862
0.000540742
0.000489064
0.000443789
0.000404049
0.000369115
0.000338374
0.000311312
0.000287492
0.000266541
0.000248139
0.000232008
0.000217904
0.000205608
0.000194924
0.000185674
0.000177692
0.000170828
0.000164946
0.000159919
0.000155635
0.000151993
0.000148903
0.000146285
0.000144072
0.000142202
0.000140624
0.000139295
0.000138175
0.000137232
0.000136439
0.000135771
0.00013521
0.000134737
0.000134338
0.000134001
0.000133716
0.000133473
0.000133266
0.000133088
0.000132934
0.0001328
0.000132682
0.000132578
0.000132484
0.000132398
0.00013232
0.000132247
0.000132179
0.000132114
0.000132053
0.000131994
0.000131938
0.000131883
0.00013183
0.000131779
0.000131729
0.00013168
0.000131633
0.000131587
0.000131543
0.0001315
0.000131458
0.000131417
0.000131378
0.00013134
0.000131304
0.000131269
0.000131235
0.000131202
0.000131171
0.000131141
0.000131112
0.000131084
0.000131058
0.000131032
0.000131008
0.000130985
0.000130962
0.000130941
0.000130921
0.000130901
0.000130883
0.000130865
0.000130848
0.000130833
0.000130818
0.000130804
0.000130791
0.00013078
0.00013077
0.000130761
0.000130753
0.000130747
0.000130743
0.000130741
0.000939653
0.000835595
0.000745661
0.000667691
0.000599895
0.000540783
0.00048911
0.00044384
0.000404104
0.000369173
0.000338435
0.000311375
0.000287555
0.000266604
0.000248201
0.000232068
0.000217962
0.000205664
0.000194977
0.000185722
0.000177736
0.000170869
0.000164982
0.000159951
0.000155664
0.000152018
0.000148925
0.000146304
0.000144088
0.000142216
0.000140637
0.000139306
0.000138184
0.00013724
0.000136446
0.000135778
0.000135216
0.000134742
0.000134342
0.000134005
0.000133719
0.000133476
0.000133269
0.000133091
0.000132937
0.000132803
0.000132685
0.00013258
0.000132486
0.000132401
0.000132322
0.00013225
0.000132182
0.000132117
0.000132056
0.000131997
0.000131941
0.000131886
0.000131833
0.000131782
0.000131732
0.000131683
0.000131636
0.00013159
0.000131545
0.000131502
0.00013146
0.00013142
0.000131381
0.000131343
0.000131306
0.000131271
0.000131237
0.000131204
0.000131173
0.000131143
0.000131114
0.000131086
0.00013106
0.000131034
0.00013101
0.000130987
0.000130964
0.000130943
0.000130922
0.000130903
0.000130884
0.000130867
0.00013085
0.000130834
0.000130819
0.000130805
0.000130793
0.000130781
0.000130771
0.000130762
0.000130754
0.000130748
0.000130744
0.000130742
0.000939655
0.000835604
0.000745678
0.000667717
0.00059993
0.000540826
0.000489161
0.000443897
0.000404166
0.000369239
0.000338505
0.000311447
0.000287629
0.000266678
0.000248274
0.00023214
0.000218031
0.00020573
0.000195039
0.00018578
0.000177789
0.000170916
0.000165024
0.000159989
0.000155697
0.000152047
0.000148949
0.000146325
0.000144106
0.000142232
0.00014065
0.000139317
0.000138194
0.000137249
0.000136453
0.000135784
0.000135221
0.000134746
0.000134346
0.000134009
0.000133722
0.000133479
0.000133272
0.000133094
0.00013294
0.000132805
0.000132688
0.000132583
0.000132489
0.000132403
0.000132325
0.000132252
0.000132184
0.00013212
0.000132058
0.000132
0.000131943
0.000131888
0.000131835
0.000131784
0.000131734
0.000131686
0.000131638
0.000131592
0.000131548
0.000131505
0.000131463
0.000131422
0.000131383
0.000131345
0.000131308
0.000131273
0.000131239
0.000131207
0.000131175
0.000131145
0.000131116
0.000131088
0.000131062
0.000131036
0.000131012
0.000130988
0.000130966
0.000130945
0.000130924
0.000130905
0.000130886
0.000130868
0.000130851
0.000130836
0.000130821
0.000130807
0.000130794
0.000130783
0.000130772
0.000130763
0.000130756
0.00013075
0.000130745
0.000130743
0.000939658
0.000835613
0.000745695
0.000667744
0.000599966
0.000540871
0.000489215
0.000443959
0.000404234
0.000369312
0.000338582
0.000311527
0.000287711
0.00026676
0.000248356
0.000232221
0.000218109
0.000205804
0.000195108
0.000185844
0.000177848
0.000170969
0.000165072
0.000160031
0.000155733
0.000152078
0.000148976
0.000146348
0.000144126
0.000142248
0.000140664
0.000139329
0.000138204
0.000137257
0.00013646
0.00013579
0.000135225
0.00013475
0.00013435
0.000134011
0.000133725
0.000133481
0.000133274
0.000133095
0.000132941
0.000132807
0.000132689
0.000132584
0.00013249
0.000132405
0.000132327
0.000132254
0.000132186
0.000132122
0.00013206
0.000132002
0.000131945
0.000131891
0.000131838
0.000131786
0.000131736
0.000131688
0.000131641
0.000131595
0.00013155
0.000131507
0.000131465
0.000131424
0.000131385
0.000131347
0.000131311
0.000131275
0.000131242
0.000131209
0.000131177
0.000131147
0.000131118
0.00013109
0.000131064
0.000131038
0.000131014
0.00013099
0.000130968
0.000130946
0.000130926
0.000130906
0.000130888
0.00013087
0.000130853
0.000130837
0.000130822
0.000130808
0.000130796
0.000130784
0.000130774
0.000130765
0.000130757
0.000130751
0.000130747
0.000130744
0.00093966
0.000835621
0.000745711
0.000667769
0.000600002
0.000540917
0.00048927
0.000444022
0.000404305
0.00036939
0.000338665
0.000311613
0.000287799
0.00026685
0.000248446
0.000232309
0.000218194
0.000205885
0.000195184
0.000185915
0.000177912
0.000171027
0.000165124
0.000160076
0.000155773
0.000152112
0.000149005
0.000146373
0.000144146
0.000142265
0.000140678
0.00013934
0.000138213
0.000137264
0.000136466
0.000135794
0.000135229
0.000134753
0.000134352
0.000134013
0.000133726
0.000133483
0.000133275
0.000133096
0.000132942
0.000132808
0.00013269
0.000132585
0.000132491
0.000132406
0.000132328
0.000132255
0.000132187
0.000132123
0.000132062
0.000132003
0.000131947
0.000131892
0.000131839
0.000131788
0.000131738
0.00013169
0.000131643
0.000131597
0.000131552
0.000131509
0.000131467
0.000131426
0.000131387
0.000131349
0.000131313
0.000131278
0.000131244
0.000131211
0.000131179
0.000131149
0.00013112
0.000131092
0.000131066
0.00013104
0.000131016
0.000130992
0.00013097
0.000130948
0.000130928
0.000130908
0.000130889
0.000130872
0.000130855
0.000130839
0.000130824
0.00013081
0.000130797
0.000130786
0.000130775
0.000130766
0.000130758
0.000130752
0.000130748
0.000130746
0.000939662
0.000835629
0.000745727
0.000667794
0.000600037
0.000540962
0.000489324
0.000444086
0.000404377
0.000369469
0.00033875
0.000311704
0.000287893
0.000266945
0.000248541
0.000232402
0.000218285
0.000205971
0.000195266
0.00018599
0.000177981
0.000171089
0.000165179
0.000160124
0.000155814
0.000152148
0.000149036
0.000146398
0.000144167
0.000142283
0.000140692
0.000139352
0.000138222
0.000137271
0.000136471
0.000135798
0.000135232
0.000134755
0.000134353
0.000134014
0.000133727
0.000133483
0.000133275
0.000133096
0.000132942
0.000132808
0.00013269
0.000132585
0.000132491
0.000132406
0.000132328
0.000132256
0.000132188
0.000132124
0.000132063
0.000132004
0.000131948
0.000131893
0.000131841
0.000131789
0.00013174
0.000131691
0.000131644
0.000131598
0.000131554
0.000131511
0.000131469
0.000131428
0.000131389
0.000131351
0.000131315
0.000131279
0.000131245
0.000131213
0.000131181
0.000131151
0.000131122
0.000131094
0.000131067
0.000131042
0.000131017
0.000130994
0.000130971
0.00013095
0.000130929
0.00013091
0.000130891
0.000130873
0.000130856
0.00013084
0.000130826
0.000130812
0.000130799
0.000130787
0.000130777
0.000130768
0.00013076
0.000130754
0.00013075
0.000130747
0.000939663
0.000835637
0.000745742
0.000667818
0.000600071
0.000541006
0.000489379
0.00044415
0.00040445
0.00036955
0.000338838
0.000311796
0.000287989
0.000267043
0.000248639
0.000232499
0.000218379
0.000206061
0.00019535
0.000186068
0.000178053
0.000171154
0.000165236
0.000160175
0.000155858
0.000152185
0.000149067
0.000146425
0.000144189
0.0001423
0.000140706
0.000139362
0.000138231
0.000137278
0.000136476
0.000135801
0.000135234
0.000134756
0.000134354
0.000134014
0.000133726
0.000133482
0.000133274
0.000133095
0.000132941
0.000132807
0.000132689
0.000132584
0.00013249
0.000132405
0.000132327
0.000132255
0.000132187
0.000132123
0.000132063
0.000132004
0.000131948
0.000131894
0.000131841
0.00013179
0.00013174
0.000131692
0.000131645
0.000131599
0.000131555
0.000131512
0.00013147
0.000131429
0.00013139
0.000131352
0.000131316
0.000131281
0.000131247
0.000131214
0.000131183
0.000131152
0.000131123
0.000131096
0.000131069
0.000131043
0.000131019
0.000130995
0.000130973
0.000130951
0.000130931
0.000130911
0.000130892
0.000130875
0.000130858
0.000130842
0.000130827
0.000130813
0.0001308
0.000130789
0.000130778
0.000130769
0.000130762
0.000130756
0.000130751
0.000130749
0.000939665
0.000835644
0.000745756
0.000667841
0.000600103
0.000541048
0.000489432
0.000444213
0.000404523
0.000369631
0.000338925
0.00031189
0.000288086
0.000267143
0.00024874
0.000232598
0.000218476
0.000206154
0.000195438
0.00018615
0.000178127
0.000171221
0.000165295
0.000160227
0.000155903
0.000152223
0.000149099
0.000146451
0.000144211
0.000142318
0.00014072
0.000139373
0.000138238
0.000137283
0.00013648
0.000135804
0.000135235
0.000134756
0.000134353
0.000134012
0.000133724
0.00013348
0.000133271
0.000133093
0.000132938
0.000132804
0.000132687
0.000132582
0.000132489
0.000132404
0.000132326
0.000132254
0.000132186
0.000132123
0.000132062
0.000132004
0.000131948
0.000131894
0.000131841
0.00013179
0.000131741
0.000131692
0.000131645
0.0001316
0.000131555
0.000131512
0.000131471
0.00013143
0.000131391
0.000131353
0.000131317
0.000131282
0.000131248
0.000131215
0.000131184
0.000131153
0.000131125
0.000131097
0.00013107
0.000131044
0.00013102
0.000130996
0.000130974
0.000130952
0.000130932
0.000130912
0.000130894
0.000130876
0.000130859
0.000130843
0.000130828
0.000130814
0.000130802
0.00013079
0.00013078
0.000130771
0.000130763
0.000130757
0.000130753
0.00013075
0.000939667
0.00083565
0.000745769
0.000667863
0.000600134
0.00054109
0.000489483
0.000444275
0.000404594
0.000369711
0.000339013
0.000311983
0.000288184
0.000267243
0.000248841
0.000232699
0.000218574
0.000206248
0.000195527
0.000186232
0.000178202
0.000171289
0.000165356
0.000160279
0.000155948
0.000152262
0.000149131
0.000146478
0.000144232
0.000142335
0.000140733
0.000139383
0.000138245
0.000137288
0.000136482
0.000135805
0.000135235
0.000134755
0.000134351
0.00013401
0.000133721
0.000133476
0.000133268
0.000133089
0.000132935
0.000132801
0.000132683
0.000132579
0.000132486
0.000132401
0.000132323
0.000132252
0.000132184
0.000132121
0.00013206
0.000132002
0.000131946
0.000131893
0.00013184
0.000131789
0.00013174
0.000131692
0.000131645
0.0001316
0.000131555
0.000131513
0.000131471
0.000131431
0.000131391
0.000131354
0.000131317
0.000131282
0.000131248
0.000131216
0.000131184
0.000131154
0.000131125
0.000131097
0.000131071
0.000131045
0.000131021
0.000130997
0.000130975
0.000130953
0.000130933
0.000130913
0.000130895
0.000130877
0.00013086
0.000130844
0.00013083
0.000130816
0.000130803
0.000130791
0.000130781
0.000130772
0.000130764
0.000130758
0.000130754
0.000130752
0.000939669
0.000835657
0.000745782
0.000667883
0.000600164
0.000541129
0.000489533
0.000444335
0.000404663
0.000369789
0.000339099
0.000312075
0.000288281
0.000267344
0.000248942
0.0002328
0.000218672
0.000206343
0.000195616
0.000186315
0.000178278
0.000171357
0.000165416
0.000160332
0.000155994
0.0001523
0.000149163
0.000146504
0.000144253
0.000142351
0.000140745
0.000139392
0.000138251
0.000137291
0.000136484
0.000135805
0.000135233
0.000134752
0.000134347
0.000134006
0.000133717
0.000133472
0.000133263
0.000133085
0.00013293
0.000132797
0.000132679
0.000132575
0.000132482
0.000132397
0.00013232
0.000132248
0.000132181
0.000132118
0.000132058
0.000132
0.000131944
0.000131891
0.000131839
0.000131788
0.000131739
0.000131691
0.000131644
0.000131599
0.000131555
0.000131512
0.00013147
0.00013143
0.000131391
0.000131354
0.000131317
0.000131282
0.000131248
0.000131216
0.000131184
0.000131154
0.000131125
0.000131098
0.000131071
0.000131046
0.000131021
0.000130998
0.000130975
0.000130954
0.000130934
0.000130914
0.000130895
0.000130878
0.000130861
0.000130845
0.000130831
0.000130817
0.000130804
0.000130792
0.000130782
0.000130773
0.000130766
0.00013076
0.000130755
0.000130753
0.00093967
0.000835663
0.000745794
0.000667903
0.000600192
0.000541167
0.000489581
0.000444393
0.000404731
0.000369866
0.000339183
0.000312166
0.000288377
0.000267443
0.000249043
0.0002329
0.00021877
0.000206437
0.000195705
0.000186398
0.000178354
0.000171425
0.000165477
0.000160385
0.000156039
0.000152339
0.000149195
0.00014653
0.000144274
0.000142367
0.000140757
0.0001394
0.000138257
0.000137294
0.000136484
0.000135803
0.000135231
0.000134749
0.000134343
0.000134001
0.000133712
0.000133466
0.000133258
0.000133079
0.000132925
0.000132791
0.000132674
0.00013257
0.000132477
0.000132393
0.000132316
0.000132244
0.000132177
0.000132114
0.000132054
0.000131997
0.000131942
0.000131888
0.000131836
0.000131786
0.000131737
0.000131689
0.000131643
0.000131597
0.000131554
0.000131511
0.000131469
0.000131429
0.00013139
0.000131353
0.000131317
0.000131282
0.000131248
0.000131215
0.000131184
0.000131154
0.000131125
0.000131098
0.000131071
0.000131046
0.000131021
0.000130998
0.000130976
0.000130954
0.000130934
0.000130914
0.000130896
0.000130878
0.000130862
0.000130846
0.000130831
0.000130818
0.000130805
0.000130793
0.000130783
0.000130774
0.000130767
0.000130761
0.000130756
0.000130754
0.000939672
0.000835669
0.000745806
0.000667922
0.000600219
0.000541204
0.000489627
0.000444448
0.000404796
0.00036994
0.000339265
0.000312255
0.00028847
0.00026754
0.000249141
0.000232998
0.000218867
0.00020653
0.000195793
0.00018648
0.000178429
0.000171493
0.000165537
0.000160438
0.000156084
0.000152377
0.000149226
0.000146555
0.000144293
0.000142382
0.000140768
0.000139407
0.000138261
0.000137296
0.000136484
0.000135801
0.000135227
0.000134744
0.000134338
0.000133995
0.000133705
0.00013346
0.000133251
0.000133072
0.000132918
0.000132784
0.000132667
0.000132564
0.000132471
0.000132387
0.00013231
0.000132239
0.000132173
0.00013211
0.00013205
0.000131993
0.000131938
0.000131885
0.000131833
0.000131783
0.000131734
0.000131687
0.00013164
0.000131595
0.000131552
0.000131509
0.000131468
0.000131428
0.000131389
0.000131352
0.000131315
0.000131281
0.000131247
0.000131215
0.000131183
0.000131153
0.000131125
0.000131097
0.000131071
0.000131045
0.000131021
0.000130998
0.000130975
0.000130954
0.000130934
0.000130914
0.000130896
0.000130879
0.000130862
0.000130846
0.000130832
0.000130818
0.000130806
0.000130794
0.000130784
0.000130775
0.000130768
0.000130762
0.000130757
0.000130755
0.000939673
0.000835674
0.000745817
0.00066794
0.000600245
0.000541238
0.000489671
0.000444502
0.000404859
0.000370011
0.000339344
0.000312341
0.000288562
0.000267634
0.000249238
0.000233095
0.000218962
0.000206621
0.00019588
0.000186561
0.000178503
0.00017156
0.000165596
0.000160489
0.000156128
0.000152413
0.000149257
0.000146579
0.000144312
0.000142396
0.000140778
0.000139413
0.000138264
0.000137296
0.000136482
0.000135798
0.000135222
0.000134738
0.000134331
0.000133988
0.000133697
0.000133452
0.000133243
0.000133064
0.00013291
0.000132776
0.00013266
0.000132556
0.000132464
0.00013238
0.000132304
0.000132233
0.000132167
0.000132104
0.000132045
0.000131988
0.000131933
0.000131881
0.000131829
0.000131779
0.000131731
0.000131683
0.000131637
0.000131593
0.000131549
0.000131507
0.000131466
0.000131426
0.000131387
0.00013135
0.000131314
0.000131279
0.000131245
0.000131213
0.000131182
0.000131152
0.000131124
0.000131096
0.00013107
0.000131044
0.00013102
0.000130997
0.000130975
0.000130954
0.000130933
0.000130914
0.000130896
0.000130878
0.000130862
0.000130846
0.000130832
0.000130818
0.000130806
0.000130795
0.000130785
0.000130776
0.000130768
0.000130762
0.000130758
0.000130756
0.000939674
0.000835679
0.000745827
0.000667957
0.00060027
0.000541271
0.000489713
0.000444553
0.000404919
0.00037008
0.000339421
0.000312424
0.00028865
0.000267726
0.000249332
0.000233189
0.000219054
0.000206711
0.000195965
0.00018664
0.000178576
0.000171625
0.000165654
0.000160539
0.000156171
0.000152449
0.000149286
0.000146603
0.00014433
0.000142409
0.000140787
0.000139419
0.000138266
0.000137296
0.00013648
0.000135794
0.000135217
0.000134732
0.000134323
0.000133979
0.000133689
0.000133443
0.000133234
0.000133055
0.000132901
0.000132768
0.000132651
0.000132548
0.000132456
0.000132373
0.000132296
0.000132226
0.00013216
0.000132098
0.000132039
0.000131983
0.000131928
0.000131876
0.000131824
0.000131775
0.000131727
0.00013168
0.000131634
0.000131589
0.000131546
0.000131504
0.000131463
0.000131423
0.000131385
0.000131347
0.000131311
0.000131277
0.000131243
0.000131211
0.00013118
0.000131151
0.000131122
0.000131095
0.000131068
0.000131043
0.000131019
0.000130996
0.000130974
0.000130953
0.000130933
0.000130914
0.000130895
0.000130878
0.000130862
0.000130846
0.000130832
0.000130818
0.000130806
0.000130795
0.000130785
0.000130776
0.000130769
0.000130763
0.000130759
0.000130756
0.000939676
0.000835684
0.000745837
0.000667973
0.000600293
0.000541303
0.000489753
0.000444602
0.000404977
0.000370146
0.000339494
0.000312504
0.000288735
0.000267815
0.000249423
0.00023328
0.000219144
0.000206798
0.000196047
0.000186717
0.000178646
0.000171689
0.00016571
0.000160588
0.000156213
0.000152484
0.000149314
0.000146625
0.000144347
0.000142421
0.000140795
0.000139423
0.000138267
0.000137295
0.000136476
0.000135788
0.00013521
0.000134724
0.000134315
0.00013397
0.000133679
0.000133433
0.000133224
0.000133045
0.000132891
0.000132758
0.000132641
0.000132539
0.000132447
0.000132364
0.000132288
0.000132218
0.000132153
0.000132091
0.000132032
0.000131976
0.000131922
0.00013187
0.000131819
0.00013177
0.000131722
0.000131675
0.000131629
0.000131585
0.000131542
0.0001315
0.000131459
0.00013142
0.000131381
0.000131344
0.000131309
0.000131274
0.000131241
0.000131209
0.000131178
0.000131148
0.00013112
0.000131093
0.000131066
0.000131041
0.000131017
0.000130994
0.000130973
0.000130952
0.000130932
0.000130913
0.000130894
0.000130877
0.000130861
0.000130846
0.000130832
0.000130818
0.000130806
0.000130795
0.000130785
0.000130776
0.000130769
0.000130763
0.000130759
0.000130757
0.000939677
0.000835689
0.000745847
0.000667988
0.000600315
0.000541333
0.000489791
0.000444649
0.000405032
0.000370209
0.000339565
0.00031258
0.000288817
0.0002679
0.00024951
0.000233368
0.000219231
0.000206882
0.000196127
0.000186792
0.000178715
0.000171751
0.000165765
0.000160636
0.000156253
0.000152518
0.000149342
0.000146646
0.000144363
0.000142432
0.000140802
0.000139427
0.000138268
0.000137292
0.000136472
0.000135782
0.000135202
0.000134715
0.000134305
0.00013396
0.000133668
0.000133422
0.000133213
0.000133034
0.00013288
0.000132747
0.000132631
0.000132529
0.000132437
0.000132355
0.000132279
0.00013221
0.000132145
0.000132083
0.000132025
0.000131969
0.000131915
0.000131863
0.000131813
0.000131764
0.000131716
0.00013167
0.000131624
0.00013158
0.000131537
0.000131496
0.000131455
0.000131416
0.000131378
0.000131341
0.000131305
0.000131271
0.000131238
0.000131206
0.000131175
0.000131146
0.000131117
0.00013109
0.000131064
0.000131039
0.000131015
0.000130993
0.000130971
0.00013095
0.00013093
0.000130911
0.000130893
0.000130876
0.00013086
0.000130845
0.000130831
0.000130818
0.000130806
0.000130795
0.000130785
0.000130776
0.000130769
0.000130763
0.000130759
0.000130757
0.000939678
0.000835693
0.000745856
0.000668002
0.000600336
0.000541361
0.000489828
0.000444693
0.000405084
0.000370269
0.000339632
0.000312654
0.000288895
0.000267983
0.000249594
0.000233453
0.000219314
0.000206963
0.000196204
0.000186864
0.000178781
0.00017181
0.000165817
0.000160681
0.000156292
0.00015255
0.000149367
0.000146666
0.000144378
0.000142443
0.000140808
0.000139429
0.000138267
0.000137289
0.000136467
0.000135775
0.000135194
0.000134705
0.000134295
0.000133949
0.000133657
0.00013341
0.000133201
0.000133022
0.000132869
0.000132736
0.00013262
0.000132518
0.000132427
0.000132344
0.000132269
0.0001322
0.000132136
0.000132075
0.000132017
0.000131961
0.000131908
0.000131856
0.000131806
0.000131758
0.00013171
0.000131664
0.000131619
0.000131575
0.000131532
0.000131491
0.00013145
0.000131411
0.000131373
0.000131337
0.000131301
0.000131267
0.000131234
0.000131202
0.000131172
0.000131143
0.000131114
0.000131087
0.000131062
0.000131037
0.000131013
0.00013099
0.000130969
0.000130948
0.000130928
0.00013091
0.000130892
0.000130875
0.000130859
0.000130844
0.00013083
0.000130817
0.000130805
0.000130794
0.000130784
0.000130776
0.000130769
0.000130763
0.000130759
0.000130757
0.000939679
0.000835698
0.000745864
0.000668016
0.000600356
0.000541388
0.000489862
0.000444735
0.000405134
0.000370327
0.000339696
0.000312724
0.00028897
0.000268061
0.000249675
0.000233534
0.000219395
0.000207041
0.000196279
0.000186933
0.000178845
0.000171868
0.000165868
0.000160725
0.000156329
0.000152581
0.000149392
0.000146685
0.000144392
0.000142452
0.000140813
0.000139431
0.000138266
0.000137285
0.000136461
0.000135767
0.000135185
0.000134695
0.000134284
0.000133937
0.000133645
0.000133398
0.000133188
0.00013301
0.000132856
0.000132724
0.000132608
0.000132506
0.000132415
0.000132334
0.000132259
0.00013219
0.000132126
0.000132065
0.000132008
0.000131953
0.0001319
0.000131849
0.000131799
0.00013175
0.000131703
0.000131657
0.000131613
0.000131569
0.000131527
0.000131485
0.000131445
0.000131406
0.000131369
0.000131332
0.000131297
0.000131263
0.00013123
0.000131199
0.000131168
0.000131139
0.000131111
0.000131084
0.000131058
0.000131034
0.00013101
0.000130988
0.000130966
0.000130946
0.000130926
0.000130908
0.00013089
0.000130873
0.000130858
0.000130843
0.000130829
0.000130816
0.000130804
0.000130793
0.000130784
0.000130775
0.000130768
0.000130763
0.000130759
0.000130756
0.00093968
0.000835702
0.000745872
0.000668029
0.000600375
0.000541413
0.000489895
0.000444775
0.000405182
0.000370381
0.000339757
0.000312791
0.000289042
0.000268136
0.000249752
0.000233612
0.000219472
0.000207116
0.00019635
0.000187
0.000178906
0.000171923
0.000165917
0.000160767
0.000156365
0.00015261
0.000149415
0.000146703
0.000144405
0.00014246
0.000140818
0.000139432
0.000138264
0.000137281
0.000136454
0.000135759
0.000135175
0.000134684
0.000134272
0.000133925
0.000133632
0.000133385
0.000133175
0.000132997
0.000132843
0.000132711
0.000132596
0.000132494
0.000132404
0.000132322
0.000132248
0.00013218
0.000132116
0.000132056
0.000131999
0.000131944
0.000131891
0.00013184
0.000131791
0.000131743
0.000131696
0.000131651
0.000131606
0.000131563
0.000131521
0.00013148
0.00013144
0.000131401
0.000131364
0.000131327
0.000131292
0.000131258
0.000131226
0.000131194
0.000131164
0.000131135
0.000131107
0.000131081
0.000131055
0.000131031
0.000131007
0.000130985
0.000130964
0.000130943
0.000130924
0.000130905
0.000130888
0.000130871
0.000130856
0.000130841
0.000130827
0.000130815
0.000130803
0.000130792
0.000130783
0.000130775
0.000130768
0.000130762
0.000130758
0.000130756
0.000939681
0.000835705
0.00074588
0.000668041
0.000600393
0.000541438
0.000489926
0.000444813
0.000405227
0.000370433
0.000339815
0.000312855
0.00028911
0.000268208
0.000249826
0.000233686
0.000219545
0.000207187
0.000196418
0.000187064
0.000178965
0.000171976
0.000165963
0.000160808
0.000156398
0.000152638
0.000149438
0.00014672
0.000144417
0.000142468
0.000140821
0.000139432
0.000138261
0.000137276
0.000136447
0.00013575
0.000135164
0.000134673
0.000134259
0.000133912
0.000133619
0.000133371
0.000133162
0.000132983
0.00013283
0.000132698
0.000132583
0.000132481
0.000132391
0.00013231
0.000132236
0.000132168
0.000132105
0.000132045
0.000131989
0.000131934
0.000131882
0.000131832
0.000131783
0.000131735
0.000131688
0.000131643
0.000131599
0.000131556
0.000131514
0.000131473
0.000131434
0.000131395
0.000131358
0.000131322
0.000131287
0.000131253
0.000131221
0.00013119
0.00013116
0.000131131
0.000131103
0.000131077
0.000131051
0.000131027
0.000131004
0.000130982
0.00013096
0.00013094
0.000130921
0.000130903
0.000130886
0.000130869
0.000130854
0.000130839
0.000130826
0.000130813
0.000130802
0.000130791
0.000130782
0.000130774
0.000130767
0.000130761
0.000130757
0.000130755
0.000939682
0.000835709
0.000745887
0.000668053
0.00060041
0.00054146
0.000489955
0.000444849
0.000405269
0.000370482
0.000339871
0.000312915
0.000289175
0.000268276
0.000249896
0.000233757
0.000219616
0.000207255
0.000196483
0.000187125
0.000179021
0.000172026
0.000166008
0.000160846
0.000156431
0.000152664
0.000149458
0.000146736
0.000144427
0.000142474
0.000140824
0.000139431
0.000138258
0.00013727
0.000136439
0.00013574
0.000135154
0.000134661
0.000134247
0.000133898
0.000133605
0.000133357
0.000133148
0.000132969
0.000132816
0.000132684
0.000132569
0.000132468
0.000132378
0.000132298
0.000132224
0.000132157
0.000132094
0.000132035
0.000131978
0.000131924
0.000131873
0.000131823
0.000131774
0.000131727
0.00013168
0.000131635
0.000131592
0.000131549
0.000131507
0.000131467
0.000131427
0.000131389
0.000131352
0.000131316
0.000131282
0.000131248
0.000131216
0.000131185
0.000131155
0.000131126
0.000131099
0.000131073
0.000131047
0.000131023
0.000131
0.000130978
0.000130957
0.000130937
0.000130918
0.0001309
0.000130883
0.000130867
0.000130852
0.000130837
0.000130824
0.000130811
0.0001308
0.00013079
0.00013078
0.000130772
0.000130766
0.00013076
0.000130756
0.000130754
0.000939683
0.000835712
0.000745894
0.000668064
0.000600426
0.000541482
0.000489982
0.000444883
0.00040531
0.000370529
0.000339923
0.000312972
0.000289237
0.000268341
0.000249963
0.000233825
0.000219682
0.00020732
0.000196545
0.000187183
0.000179074
0.000172074
0.00016605
0.000160882
0.000156461
0.000152689
0.000149478
0.00014675
0.000144437
0.00014248
0.000140826
0.00013943
0.000138254
0.000137263
0.00013643
0.00013573
0.000135142
0.000134648
0.000134234
0.000133885
0.000133591
0.000133343
0.000133133
0.000132954
0.000132802
0.00013267
0.000132555
0.000132455
0.000132365
0.000132285
0.000132212
0.000132145
0.000132082
0.000132023
0.000131968
0.000131914
0.000131863
0.000131813
0.000131765
0.000131718
0.000131672
0.000131627
0.000131584
0.000131541
0.0001315
0.00013146
0.000131421