/*--------------------------------*- C++ -*----------------------------------*\
  =========                 |
  \\      /  F ield         | OpenFOAM: The Open Source CFD Toolbox
   \\    /   O peration     | Website:  https://openfoam.org
    \\  /    A nd           | Version:  11
     \\/     M anipulation  |
\*---------------------------------------------------------------------------*/
FoamFile
{
    format      ascii;
    class       volVectorField;
    location    "1346";
    object      U;
}
// * * * * * * * * * * * * * * * * * * * * * * * * * * * * * * * * * * * * * //

dimensions      [0 1 -1 0 0 0 0];

internalField   nonuniform List<vector> 
10000
(
(0.005 -1.51065e-11 0)
(0.005 -4.296e-11 0)
(0.005 -7.02297e-11 0)
(0.005 -9.76333e-11 0)
(0.005 -1.25584e-10 0)
(0.005 -1.54374e-10 0)
(0.005 -1.84219e-10 0)
(0.005 -2.1529e-10 0)
(0.005 -2.47734e-10 0)
(0.005 -2.8168e-10 0)
(0.005 -3.17245e-10 0)
(0.005 -3.54542e-10 0)
(0.005 -3.93677e-10 0)
(0.005 -4.34753e-10 0)
(0.005 -4.77872e-10 0)
(0.005 -5.23134e-10 0)
(0.005 -5.7064e-10 0)
(0.005 -6.20488e-10 0)
(0.005 -6.72777e-10 0)
(0.005 -7.27608e-10 0)
(0.005 -7.85079e-10 0)
(0.005 -8.4529e-10 0)
(0.005 -9.08341e-10 0)
(0.005 -9.74334e-10 0)
(0.005 -1.04337e-09 0)
(0.005 -1.11554e-09 0)
(0.005 -1.19096e-09 0)
(0.005 -1.26973e-09 0)
(0.005 -1.35194e-09 0)
(0.005 -1.43769e-09 0)
(0.005 -1.52709e-09 0)
(0.005 -1.62024e-09 0)
(0.005 -1.71723e-09 0)
(0.005 -1.81816e-09 0)
(0.005 -1.92313e-09 0)
(0.005 -2.03224e-09 0)
(0.005 -2.14557e-09 0)
(0.005 -2.26323e-09 0)
(0.005 -2.38529e-09 0)
(0.005 -2.51185e-09 0)
(0.005 -2.64299e-09 0)
(0.005 -2.7788e-09 0)
(0.005 -2.91934e-09 0)
(0.005 -3.0647e-09 0)
(0.005 -3.21495e-09 0)
(0.005 -3.37014e-09 0)
(0.005 -3.53035e-09 0)
(0.005 -3.69563e-09 0)
(0.005 -3.86603e-09 0)
(0.005 -4.0416e-09 0)
(0.005 -4.22237e-09 0)
(0.005 -4.40838e-09 0)
(0.005 -4.59965e-09 0)
(0.005 -4.79619e-09 0)
(0.005 -4.99803e-09 0)
(0.005 -5.20516e-09 0)
(0.005 -5.41756e-09 0)
(0.005 -5.63523e-09 0)
(0.005 -5.85813e-09 0)
(0.005 -6.08623e-09 0)
(0.00499999 -6.31946e-09 0)
(0.00499999 -6.55776e-09 0)
(0.00499999 -6.80105e-09 0)
(0.00499999 -7.04923e-09 0)
(0.00499999 -7.3022e-09 0)
(0.00499999 -7.55981e-09 0)
(0.00499999 -7.82191e-09 0)
(0.00499999 -8.08832e-09 0)
(0.00499999 -8.35885e-09 0)
(0.00499999 -8.63326e-09 0)
(0.00499999 -8.91128e-09 0)
(0.00499999 -9.19262e-09 0)
(0.00499999 -9.47694e-09 0)
(0.00499999 -9.76385e-09 0)
(0.00499999 -1.00529e-08 0)
(0.00499999 -1.03436e-08 0)
(0.00499999 -1.06354e-08 0)
(0.00499999 -1.09276e-08 0)
(0.00499999 -1.12195e-08 0)
(0.00499999 -1.15102e-08 0)
(0.00499999 -1.17989e-08 0)
(0.00499999 -1.20843e-08 0)
(0.00499999 -1.23652e-08 0)
(0.00499998 -1.26403e-08 0)
(0.00499998 -1.29078e-08 0)
(0.00499998 -1.3166e-08 0)
(0.00499998 -1.34128e-08 0)
(0.00499998 -1.36458e-08 0)
(0.00499998 -1.38625e-08 0)
(0.00499998 -1.40605e-08 0)
(0.00499998 -1.42376e-08 0)
(0.00499998 -1.43912e-08 0)
(0.00499998 -1.45128e-08 0)
(0.00499998 -1.45981e-08 0)
(0.00499998 -1.46438e-08 0)
(0.00499998 -1.46441e-08 0)
(0.00499998 -1.45993e-08 0)
(0.00499998 -1.4514e-08 0)
(0.00499998 -1.44033e-08 0)
(0.00499998 -1.43163e-08 0)
(0.005 -1.33087e-11 0)
(0.005 -3.95593e-11 0)
(0.005 -6.57932e-11 0)
(0.005 -9.22518e-11 0)
(0.005 -1.19268e-10 0)
(0.005 -1.47099e-10 0)
(0.005 -1.75941e-10 0)
(0.005 -2.05955e-10 0)
(0.005 -2.3728e-10 0)
(0.005 -2.70038e-10 0)
(0.005 -3.04342e-10 0)
(0.005 -3.40296e-10 0)
(0.005 -3.78003e-10 0)
(0.005 -4.17561e-10 0)
(0.005 -4.59067e-10 0)
(0.005 -5.02615e-10 0)
(0.005 -5.483e-10 0)
(0.005 -5.96215e-10 0)
(0.005 -6.46454e-10 0)
(0.005 -6.9911e-10 0)
(0.005 -7.54277e-10 0)
(0.005 -8.12048e-10 0)
(0.005 -8.72517e-10 0)
(0.005 -9.35778e-10 0)
(0.005 -1.00192e-09 0)
(0.005 -1.07105e-09 0)
(0.005 -1.14325e-09 0)
(0.005 -1.21862e-09 0)
(0.005 -1.29724e-09 0)
(0.005 -1.37922e-09 0)
(0.005 -1.46465e-09 0)
(0.005 -1.55361e-09 0)
(0.005 -1.6462e-09 0)
(0.005 -1.7425e-09 0)
(0.005 -1.84261e-09 0)
(0.005 -1.94662e-09 0)
(0.005 -2.05459e-09 0)
(0.005 -2.16663e-09 0)
(0.005 -2.28281e-09 0)
(0.005 -2.40321e-09 0)
(0.005 -2.5279e-09 0)
(0.005 -2.65695e-09 0)
(0.005 -2.79044e-09 0)
(0.005 -2.92843e-09 0)
(0.005 -3.07098e-09 0)
(0.005 -3.21816e-09 0)
(0.005 -3.37e-09 0)
(0.005 -3.52657e-09 0)
(0.005 -3.6879e-09 0)
(0.005 -3.85403e-09 0)
(0.005 -4.025e-09 0)
(0.005 -4.20082e-09 0)
(0.005 -4.38153e-09 0)
(0.005 -4.56713e-09 0)
(0.005 -4.75763e-09 0)
(0.005 -4.95303e-09 0)
(0.005 -5.15331e-09 0)
(0.005 -5.35847e-09 0)
(0.005 -5.56846e-09 0)
(0.005 -5.78326e-09 0)
(0.00499999 -6.00282e-09 0)
(0.00499999 -6.22708e-09 0)
(0.00499999 -6.45597e-09 0)
(0.00499999 -6.6894e-09 0)
(0.00499999 -6.92729e-09 0)
(0.00499999 -7.16952e-09 0)
(0.00499999 -7.41596e-09 0)
(0.00499999 -7.66647e-09 0)
(0.00499999 -7.92089e-09 0)
(0.00499999 -8.17902e-09 0)
(0.00499999 -8.44065e-09 0)
(0.00499999 -8.70555e-09 0)
(0.00499999 -8.97343e-09 0)
(0.00499999 -9.24399e-09 0)
(0.00499999 -9.51688e-09 0)
(0.00499999 -9.79169e-09 0)
(0.00499999 -1.0068e-08 0)
(0.00499999 -1.03452e-08 0)
(0.00499999 -1.06228e-08 0)
(0.00499999 -1.09001e-08 0)
(0.00499999 -1.11762e-08 0)
(0.00499999 -1.14504e-08 0)
(0.00499999 -1.17216e-08 0)
(0.00499998 -1.19887e-08 0)
(0.00499998 -1.22503e-08 0)
(0.00499998 -1.25049e-08 0)
(0.00499998 -1.27509e-08 0)
(0.00499998 -1.29863e-08 0)
(0.00499998 -1.32092e-08 0)
(0.00499998 -1.34169e-08 0)
(0.00499998 -1.36058e-08 0)
(0.00499998 -1.37709e-08 0)
(0.00499998 -1.39097e-08 0)
(0.00499998 -1.40192e-08 0)
(0.00499998 -1.40979e-08 0)
(0.00499998 -1.41489e-08 0)
(0.00499998 -1.4174e-08 0)
(0.00499998 -1.41703e-08 0)
(0.00499998 -1.41426e-08 0)
(0.00499998 -1.41327e-08 0)
(0.005 -1.18715e-11 0)
(0.005 -3.64105e-11 0)
(0.005 -6.14491e-11 0)
(0.005 -8.69079e-11 0)
(0.005 -1.12976e-10 0)
(0.005 -1.39852e-10 0)
(0.005 -1.67706e-10 0)
(0.005 -1.96683e-10 0)
(0.005 -2.26912e-10 0)
(0.005 -2.58508e-10 0)
(0.005 -2.91576e-10 0)
(0.005 -3.26219e-10 0)
(0.005 -3.62532e-10 0)
(0.005 -4.00609e-10 0)
(0.005 -4.40541e-10 0)
(0.005 -4.82417e-10 0)
(0.005 -5.26326e-10 0)
(0.005 -5.72358e-10 0)
(0.005 -6.206e-10 0)
(0.005 -6.71139e-10 0)
(0.005 -7.24064e-10 0)
(0.005 -7.79462e-10 0)
(0.005 -8.3742e-10 0)
(0.005 -8.98025e-10 0)
(0.005 -9.61366e-10 0)
(0.005 -1.02753e-09 0)
(0.005 -1.0966e-09 0)
(0.005 -1.16867e-09 0)
(0.005 -1.24382e-09 0)
(0.005 -1.32214e-09 0)
(0.005 -1.40371e-09 0)
(0.005 -1.48861e-09 0)
(0.005 -1.57693e-09 0)
(0.005 -1.66875e-09 0)
(0.005 -1.76416e-09 0)
(0.005 -1.86322e-09 0)
(0.005 -1.96601e-09 0)
(0.005 -2.07261e-09 0)
(0.005 -2.18309e-09 0)
(0.005 -2.29752e-09 0)
(0.005 -2.41597e-09 0)
(0.005 -2.5385e-09 0)
(0.005 -2.66517e-09 0)
(0.005 -2.79604e-09 0)
(0.005 -2.93116e-09 0)
(0.005 -3.07058e-09 0)
(0.005 -3.21434e-09 0)
(0.005 -3.36249e-09 0)
(0.005 -3.51506e-09 0)
(0.005 -3.67209e-09 0)
(0.005 -3.83359e-09 0)
(0.005 -3.9996e-09 0)
(0.005 -4.17012e-09 0)
(0.005 -4.34516e-09 0)
(0.005 -4.52472e-09 0)
(0.005 -4.70881e-09 0)
(0.005 -4.89741e-09 0)
(0.005 -5.0905e-09 0)
(0.005 -5.28806e-09 0)
(0.005 -5.49005e-09 0)
(0.00499999 -5.69644e-09 0)
(0.00499999 -5.90718e-09 0)
(0.00499999 -6.1222e-09 0)
(0.00499999 -6.34143e-09 0)
(0.00499999 -6.56481e-09 0)
(0.00499999 -6.79224e-09 0)
(0.00499999 -7.02362e-09 0)
(0.00499999 -7.25884e-09 0)
(0.00499999 -7.49776e-09 0)
(0.00499999 -7.74024e-09 0)
(0.00499999 -7.98611e-09 0)
(0.00499999 -8.2352e-09 0)
(0.00499999 -8.48728e-09 0)
(0.00499999 -8.74214e-09 0)
(0.00499999 -8.99948e-09 0)
(0.00499999 -9.25902e-09 0)
(0.00499999 -9.52041e-09 0)
(0.00499999 -9.78325e-09 0)
(0.00499999 -1.00471e-08 0)
(0.00499999 -1.03114e-08 0)
(0.00499999 -1.05756e-08 0)
(0.00499999 -1.0839e-08 0)
(0.00499999 -1.11007e-08 0)
(0.00499998 -1.136e-08 0)
(0.00499998 -1.16158e-08 0)
(0.00499998 -1.18667e-08 0)
(0.00499998 -1.21116e-08 0)
(0.00499998 -1.23488e-08 0)
(0.00499998 -1.25764e-08 0)
(0.00499998 -1.27923e-08 0)
(0.00499998 -1.29933e-08 0)
(0.00499998 -1.3177e-08 0)
(0.00499998 -1.33412e-08 0)
(0.00499998 -1.34833e-08 0)
(0.00499998 -1.36017e-08 0)
(0.00499998 -1.36961e-08 0)
(0.00499998 -1.37672e-08 0)
(0.00499998 -1.38157e-08 0)
(0.00499998 -1.38448e-08 0)
(0.00499998 -1.38712e-08 0)
(0.005 -1.08886e-11 0)
(0.005 -3.38858e-11 0)
(0.005 -5.77214e-11 0)
(0.005 -8.21685e-11 0)
(0.005 -1.07308e-10 0)
(0.005 -1.33277e-10 0)
(0.005 -1.60211e-10 0)
(0.005 -1.88232e-10 0)
(0.005 -2.17458e-10 0)
(0.005 -2.47993e-10 0)
(0.005 -2.79938e-10 0)
(0.005 -3.13388e-10 0)
(0.005 -3.48434e-10 0)
(0.005 -3.85164e-10 0)
(0.005 -4.23665e-10 0)
(0.005 -4.64021e-10 0)
(0.005 -5.06318e-10 0)
(0.005 -5.50639e-10 0)
(0.005 -5.97065e-10 0)
(0.005 -6.45681e-10 0)
(0.005 -6.96568e-10 0)
(0.005 -7.49809e-10 0)
(0.005 -8.05485e-10 0)
(0.005 -8.63678e-10 0)
(0.005 -9.2447e-10 0)
(0.005 -9.87941e-10 0)
(0.005 -1.05417e-09 0)
(0.005 -1.12324e-09 0)
(0.005 -1.19523e-09 0)
(0.005 -1.27022e-09 0)
(0.005 -1.34829e-09 0)
(0.005 -1.42951e-09 0)
(0.005 -1.51395e-09 0)
(0.005 -1.6017e-09 0)
(0.005 -1.69283e-09 0)
(0.005 -1.7874e-09 0)
(0.005 -1.88548e-09 0)
(0.005 -1.98714e-09 0)
(0.005 -2.09245e-09 0)
(0.005 -2.20147e-09 0)
(0.005 -2.31425e-09 0)
(0.005 -2.43085e-09 0)
(0.005 -2.55133e-09 0)
(0.005 -2.67573e-09 0)
(0.005 -2.8041e-09 0)
(0.005 -2.93648e-09 0)
(0.005 -3.0729e-09 0)
(0.005 -3.21342e-09 0)
(0.005 -3.35804e-09 0)
(0.005 -3.5068e-09 0)
(0.005 -3.65972e-09 0)
(0.005 -3.8168e-09 0)
(0.005 -3.97808e-09 0)
(0.005 -4.14353e-09 0)
(0.005 -4.31318e-09 0)
(0.005 -4.487e-09 0)
(0.005 -4.665e-09 0)
(0.005 -4.84715e-09 0)
(0.005 -5.03342e-09 0)
(0.005 -5.2238e-09 0)
(0.005 -5.41824e-09 0)
(0.00499999 -5.6167e-09 0)
(0.00499999 -5.81914e-09 0)
(0.00499999 -6.0255e-09 0)
(0.00499999 -6.23572e-09 0)
(0.00499999 -6.44973e-09 0)
(0.00499999 -6.66744e-09 0)
(0.00499999 -6.88878e-09 0)
(0.00499999 -7.11364e-09 0)
(0.00499999 -7.34191e-09 0)
(0.00499999 -7.57349e-09 0)
(0.00499999 -7.80822e-09 0)
(0.00499999 -8.04596e-09 0)
(0.00499999 -8.28654e-09 0)
(0.00499999 -8.52977e-09 0)
(0.00499999 -8.77543e-09 0)
(0.00499999 -9.02326e-09 0)
(0.00499999 -9.27299e-09 0)
(0.00499999 -9.52427e-09 0)
(0.00499999 -9.77674e-09 0)
(0.00499999 -1.00299e-08 0)
(0.00499999 -1.02834e-08 0)
(0.00499999 -1.05364e-08 0)
(0.00499999 -1.07884e-08 0)
(0.00499998 -1.10385e-08 0)
(0.00499998 -1.12858e-08 0)
(0.00499998 -1.15291e-08 0)
(0.00499998 -1.17672e-08 0)
(0.00499998 -1.19984e-08 0)
(0.00499998 -1.22208e-08 0)
(0.00499998 -1.24322e-08 0)
(0.00499998 -1.26304e-08 0)
(0.00499998 -1.28138e-08 0)
(0.00499998 -1.29805e-08 0)
(0.00499998 -1.3129e-08 0)
(0.00499998 -1.32583e-08 0)
(0.00499998 -1.33678e-08 0)
(0.00499998 -1.34558e-08 0)
(0.00499998 -1.35207e-08 0)
(0.00499998 -1.35514e-08 0)
(0.005 -1.01028e-11 0)
(0.005 -3.16835e-11 0)
(0.005 -5.43009e-11 0)
(0.005 -7.76829e-11 0)
(0.005 -1.01845e-10 0)
(0.005 -1.26872e-10 0)
(0.005 -1.52863e-10 0)
(0.005 -1.7992e-10 0)
(0.005 -2.0814e-10 0)
(0.005 -2.3762e-10 0)
(0.005 -2.6845e-10 0)
(0.005 -3.0072e-10 0)
(0.005 -3.34513e-10 0)
(0.005 -3.69913e-10 0)
(0.005 -4.07002e-10 0)
(0.005 -4.4586e-10 0)
(0.005 -4.86566e-10 0)
(0.005 -5.29199e-10 0)
(0.005 -5.73836e-10 0)
(0.005 -6.20556e-10 0)
(0.005 -6.69434e-10 0)
(0.005 -7.20548e-10 0)
(0.005 -7.73975e-10 0)
(0.005 -8.2979e-10 0)
(0.005 -8.88069e-10 0)
(0.005 -9.48887e-10 0)
(0.005 -1.01232e-09 0)
(0.005 -1.07844e-09 0)
(0.005 -1.14731e-09 0)
(0.005 -1.21902e-09 0)
(0.005 -1.29364e-09 0)
(0.005 -1.37122e-09 0)
(0.005 -1.45185e-09 0)
(0.005 -1.53559e-09 0)
(0.005 -1.6225e-09 0)
(0.005 -1.71264e-09 0)
(0.005 -1.80609e-09 0)
(0.005 -1.90289e-09 0)
(0.005 -2.0031e-09 0)
(0.005 -2.10679e-09 0)
(0.005 -2.21399e-09 0)
(0.005 -2.32475e-09 0)
(0.005 -2.43913e-09 0)
(0.005 -2.55717e-09 0)
(0.005 -2.67889e-09 0)
(0.005 -2.80434e-09 0)
(0.005 -2.93355e-09 0)
(0.005 -3.06654e-09 0)
(0.005 -3.20335e-09 0)
(0.005 -3.34397e-09 0)
(0.005 -3.48844e-09 0)
(0.005 -3.63676e-09 0)
(0.005 -3.78893e-09 0)
(0.005 -3.94496e-09 0)
(0.005 -4.10485e-09 0)
(0.005 -4.26858e-09 0)
(0.005 -4.43614e-09 0)
(0.005 -4.60753e-09 0)
(0.005 -4.78271e-09 0)
(0.005 -4.96166e-09 0)
(0.005 -5.14435e-09 0)
(0.00499999 -5.33075e-09 0)
(0.00499999 -5.52082e-09 0)
(0.00499999 -5.71452e-09 0)
(0.00499999 -5.91179e-09 0)
(0.00499999 -6.11259e-09 0)
(0.00499999 -6.31687e-09 0)
(0.00499999 -6.52456e-09 0)
(0.00499999 -6.73559e-09 0)
(0.00499999 -6.94989e-09 0)
(0.00499999 -7.16739e-09 0)
(0.00499999 -7.388e-09 0)
(0.00499999 -7.61163e-09 0)
(0.00499999 -7.83816e-09 0)
(0.00499999 -8.06747e-09 0)
(0.00499999 -8.29944e-09 0)
(0.00499999 -8.5339e-09 0)
(0.00499999 -8.77067e-09 0)
(0.00499999 -9.00954e-09 0)
(0.00499999 -9.25026e-09 0)
(0.00499999 -9.49254e-09 0)
(0.00499999 -9.73602e-09 0)
(0.00499999 -9.98028e-09 0)
(0.00499999 -1.02248e-08 0)
(0.00499998 -1.04691e-08 0)
(0.00499998 -1.07123e-08 0)
(0.00499998 -1.09536e-08 0)
(0.00499998 -1.11919e-08 0)
(0.00499998 -1.1426e-08 0)
(0.00499998 -1.16544e-08 0)
(0.00499998 -1.18752e-08 0)
(0.00499998 -1.20869e-08 0)
(0.00499998 -1.22877e-08 0)
(0.00499998 -1.24761e-08 0)
(0.00499998 -1.26503e-08 0)
(0.00499998 -1.28086e-08 0)
(0.00499998 -1.29486e-08 0)
(0.00499998 -1.30657e-08 0)
(0.00499998 -1.31526e-08 0)
(0.00499998 -1.31922e-08 0)
(0.005 -9.42009e-12 0)
(0.005 -2.96944e-11 0)
(0.005 -5.11147e-11 0)
(0.005 -7.34065e-11 0)
(0.005 -9.65516e-11 0)
(0.005 -1.20599e-10 0)
(0.005 -1.45617e-10 0)
(0.005 -1.71685e-10 0)
(0.005 -1.98885e-10 0)
(0.005 -2.27299e-10 0)
(0.005 -2.57009e-10 0)
(0.005 -2.88095e-10 0)
(0.005 -3.20636e-10 0)
(0.005 -3.5471e-10 0)
(0.005 -3.90392e-10 0)
(0.005 -4.27757e-10 0)
(0.005 -4.6688e-10 0)
(0.005 -5.07834e-10 0)
(0.005 -5.50691e-10 0)
(0.005 -5.95525e-10 0)
(0.005 -6.42407e-10 0)
(0.005 -6.91408e-10 0)
(0.005 -7.426e-10 0)
(0.005 -7.96052e-10 0)
(0.005 -8.51835e-10 0)
(0.005 -9.10017e-10 0)
(0.005 -9.70667e-10 0)
(0.005 -1.03385e-09 0)
(0.005 -1.09964e-09 0)
(0.005 -1.1681e-09 0)
(0.005 -1.23928e-09 0)
(0.005 -1.31326e-09 0)
(0.005 -1.3901e-09 0)
(0.005 -1.46986e-09 0)
(0.005 -1.55259e-09 0)
(0.005 -1.63834e-09 0)
(0.005 -1.72719e-09 0)
(0.005 -1.81917e-09 0)
(0.005 -1.91433e-09 0)
(0.005 -2.01272e-09 0)
(0.005 -2.11439e-09 0)
(0.005 -2.21937e-09 0)
(0.005 -2.32771e-09 0)
(0.005 -2.43943e-09 0)
(0.005 -2.55457e-09 0)
(0.005 -2.67316e-09 0)
(0.005 -2.79521e-09 0)
(0.005 -2.92076e-09 0)
(0.005 -3.04981e-09 0)
(0.005 -3.18238e-09 0)
(0.005 -3.31848e-09 0)
(0.005 -3.45812e-09 0)
(0.005 -3.60128e-09 0)
(0.005 -3.74798e-09 0)
(0.005 -3.89821e-09 0)
(0.005 -4.05195e-09 0)
(0.005 -4.2092e-09 0)
(0.005 -4.36993e-09 0)
(0.005 -4.53413e-09 0)
(0.005 -4.70178e-09 0)
(0.005 -4.87285e-09 0)
(0.00499999 -5.04732e-09 0)
(0.00499999 -5.22515e-09 0)
(0.00499999 -5.40632e-09 0)
(0.00499999 -5.59079e-09 0)
(0.00499999 -5.77854e-09 0)
(0.00499999 -5.96952e-09 0)
(0.00499999 -6.16371e-09 0)
(0.00499999 -6.36106e-09 0)
(0.00499999 -6.56155e-09 0)
(0.00499999 -6.76513e-09 0)
(0.00499999 -6.97176e-09 0)
(0.00499999 -7.1814e-09 0)
(0.00499999 -7.39401e-09 0)
(0.00499999 -7.60954e-09 0)
(0.00499999 -7.82793e-09 0)
(0.00499999 -8.04911e-09 0)
(0.00499999 -8.273e-09 0)
(0.00499999 -8.49951e-09 0)
(0.00499999 -8.7285e-09 0)
(0.00499999 -8.95982e-09 0)
(0.00499999 -9.19327e-09 0)
(0.00499999 -9.42861e-09 0)
(0.00499999 -9.66552e-09 0)
(0.00499998 -9.9036e-09 0)
(0.00499998 -1.01424e-08 0)
(0.00499998 -1.03811e-08 0)
(0.00499998 -1.06192e-08 0)
(0.00499998 -1.08555e-08 0)
(0.00499998 -1.10888e-08 0)
(0.00499998 -1.13179e-08 0)
(0.00499998 -1.15412e-08 0)
(0.00499998 -1.17572e-08 0)
(0.00499998 -1.19642e-08 0)
(0.00499998 -1.216e-08 0)
(0.00499998 -1.2342e-08 0)
(0.00499998 -1.25062e-08 0)
(0.00499998 -1.26459e-08 0)
(0.00499998 -1.27505e-08 0)
(0.00499998 -1.28081e-08 0)
(0.005 -8.81584e-12 0)
(0.005 -2.78871e-11 0)
(0.005 -4.81556e-11 0)
(0.005 -6.93627e-11 0)
(0.005 -9.14761e-11 0)
(0.005 -1.14522e-10 0)
(0.005 -1.38547e-10 0)
(0.005 -1.6361e-10 0)
(0.005 -1.89778e-10 0)
(0.005 -2.1712e-10 0)
(0.005 -2.45708e-10 0)
(0.005 -2.75614e-10 0)
(0.005 -3.0691e-10 0)
(0.005 -3.39666e-10 0)
(0.005 -3.73953e-10 0)
(0.005 -4.0984e-10 0)
(0.005 -4.47396e-10 0)
(0.005 -4.8669e-10 0)
(0.005 -5.27789e-10 0)
(0.005 -5.7076e-10 0)
(0.005 -6.15671e-10 0)
(0.005 -6.62586e-10 0)
(0.005 -7.11572e-10 0)
(0.005 -7.62693e-10 0)
(0.005 -8.16013e-10 0)
(0.005 -8.71596e-10 0)
(0.005 -9.29504e-10 0)
(0.005 -9.89799e-10 0)
(0.005 -1.05254e-09 0)
(0.005 -1.11779e-09 0)
(0.005 -1.1856e-09 0)
(0.005 -1.25603e-09 0)
(0.005 -1.32913e-09 0)
(0.005 -1.40497e-09 0)
(0.005 -1.48358e-09 0)
(0.005 -1.56502e-09 0)
(0.005 -1.64933e-09 0)
(0.005 -1.73656e-09 0)
(0.005 -1.82675e-09 0)
(0.005 -1.91994e-09 0)
(0.005 -2.01616e-09 0)
(0.005 -2.11546e-09 0)
(0.005 -2.21785e-09 0)
(0.005 -2.32337e-09 0)
(0.005 -2.43203e-09 0)
(0.005 -2.54387e-09 0)
(0.005 -2.6589e-09 0)
(0.005 -2.77712e-09 0)
(0.005 -2.89856e-09 0)
(0.005 -3.02322e-09 0)
(0.005 -3.1511e-09 0)
(0.005 -3.2822e-09 0)
(0.005 -3.41652e-09 0)
(0.005 -3.55406e-09 0)
(0.005 -3.6948e-09 0)
(0.005 -3.83874e-09 0)
(0.005 -3.98585e-09 0)
(0.005 -4.13613e-09 0)
(0.005 -4.28956e-09 0)
(0.005 -4.44612e-09 0)
(0.005 -4.60579e-09 0)
(0.00499999 -4.76855e-09 0)
(0.00499999 -4.93438e-09 0)
(0.00499999 -5.10326e-09 0)
(0.00499999 -5.27518e-09 0)
(0.00499999 -5.45012e-09 0)
(0.00499999 -5.62806e-09 0)
(0.00499999 -5.809e-09 0)
(0.00499999 -5.99294e-09 0)
(0.00499999 -6.17986e-09 0)
(0.00499999 -6.36977e-09 0)
(0.00499999 -6.56268e-09 0)
(0.00499999 -6.75859e-09 0)
(0.00499999 -6.95753e-09 0)
(0.00499999 -7.1595e-09 0)
(0.00499999 -7.36452e-09 0)
(0.00499999 -7.57262e-09 0)
(0.00499999 -7.7838e-09 0)
(0.00499999 -7.99806e-09 0)
(0.00499999 -8.21541e-09 0)
(0.00499999 -8.43582e-09 0)
(0.00499999 -8.65923e-09 0)
(0.00499999 -8.88556e-09 0)
(0.00499999 -9.11465e-09 0)
(0.00499999 -9.3463e-09 0)
(0.00499998 -9.5802e-09 0)
(0.00499998 -9.81593e-09 0)
(0.00499998 -1.00529e-08 0)
(0.00499998 -1.02905e-08 0)
(0.00499998 -1.05277e-08 0)
(0.00499998 -1.07634e-08 0)
(0.00499998 -1.09963e-08 0)
(0.00499998 -1.12248e-08 0)
(0.00499998 -1.1447e-08 0)
(0.00499998 -1.16603e-08 0)
(0.00499998 -1.18612e-08 0)
(0.00499998 -1.20443e-08 0)
(0.00499998 -1.22018e-08 0)
(0.00499998 -1.2322e-08 0)
(0.00499998 -1.23935e-08 0)
(0.005 -8.27145e-12 0)
(0.005 -2.62297e-11 0)
(0.005 -4.53999e-11 0)
(0.005 -6.55448e-11 0)
(0.005 -8.6629e-11 0)
(0.005 -1.08666e-10 0)
(0.005 -1.31686e-10 0)
(0.005 -1.55734e-10 0)
(0.005 -1.80862e-10 0)
(0.005 -2.07129e-10 0)
(0.005 -2.34596e-10 0)
(0.005 -2.63327e-10 0)
(0.005 -2.93385e-10 0)
(0.005 -3.24834e-10 0)
(0.005 -3.57741e-10 0)
(0.005 -3.92167e-10 0)
(0.005 -4.28176e-10 0)
(0.005 -4.65832e-10 0)
(0.005 -5.05198e-10 0)
(0.005 -5.46334e-10 0)
(0.005 -5.89303e-10 0)
(0.005 -6.34165e-10 0)
(0.005 -6.8098e-10 0)
(0.005 -7.29808e-10 0)
(0.005 -7.80707e-10 0)
(0.005 -8.33734e-10 0)
(0.005 -8.88947e-10 0)
(0.005 -9.464e-10 0)
(0.005 -1.00615e-09 0)
(0.005 -1.06824e-09 0)
(0.005 -1.13274e-09 0)
(0.005 -1.19968e-09 0)
(0.005 -1.26912e-09 0)
(0.005 -1.34111e-09 0)
(0.005 -1.41568e-09 0)
(0.005 -1.49288e-09 0)
(0.005 -1.57274e-09 0)
(0.005 -1.65532e-09 0)
(0.005 -1.74063e-09 0)
(0.005 -1.82872e-09 0)
(0.005 -1.91961e-09 0)
(0.005 -2.01332e-09 0)
(0.005 -2.10989e-09 0)
(0.005 -2.20933e-09 0)
(0.005 -2.31166e-09 0)
(0.005 -2.41689e-09 0)
(0.005 -2.52503e-09 0)
(0.005 -2.63609e-09 0)
(0.005 -2.75007e-09 0)
(0.005 -2.86699e-09 0)
(0.005 -2.98682e-09 0)
(0.005 -3.10958e-09 0)
(0.005 -3.23525e-09 0)
(0.005 -3.36382e-09 0)
(0.005 -3.49529e-09 0)
(0.005 -3.62964e-09 0)
(0.005 -3.76685e-09 0)
(0.005 -3.90691e-09 0)
(0.005 -4.04981e-09 0)
(0.005 -4.19553e-09 0)
(0.005 -4.34406e-09 0)
(0.005 -4.49538e-09 0)
(0.00499999 -4.64948e-09 0)
(0.00499999 -4.80636e-09 0)
(0.00499999 -4.96601e-09 0)
(0.00499999 -5.12844e-09 0)
(0.00499999 -5.29365e-09 0)
(0.00499999 -5.46165e-09 0)
(0.00499999 -5.63247e-09 0)
(0.00499999 -5.80614e-09 0)
(0.00499999 -5.98269e-09 0)
(0.00499999 -6.16218e-09 0)
(0.00499999 -6.34466e-09 0)
(0.00499999 -6.53021e-09 0)
(0.00499999 -6.71889e-09 0)
(0.00499999 -6.9108e-09 0)
(0.00499999 -7.10604e-09 0)
(0.00499999 -7.30471e-09 0)
(0.00499999 -7.5069e-09 0)
(0.00499999 -7.71273e-09 0)
(0.00499999 -7.92229e-09 0)
(0.00499999 -8.13565e-09 0)
(0.00499999 -8.35288e-09 0)
(0.00499999 -8.57397e-09 0)
(0.00499999 -8.79889e-09 0)
(0.00499998 -9.02752e-09 0)
(0.00499998 -9.25963e-09 0)
(0.00499998 -9.49486e-09 0)
(0.00499998 -9.73268e-09 0)
(0.00499998 -9.97239e-09 0)
(0.00499998 -1.0213e-08 0)
(0.00499998 -1.04533e-08 0)
(0.00499998 -1.06917e-08 0)
(0.00499998 -1.09259e-08 0)
(0.00499998 -1.1153e-08 0)
(0.00499998 -1.13686e-08 0)
(0.00499998 -1.15665e-08 0)
(0.00499998 -1.17377e-08 0)
(0.00499998 -1.18699e-08 0)
(0.00499998 -1.19497e-08 0)
(0.005 -7.77282e-12 0)
(0.005 -2.46952e-11 0)
(0.005 -4.28215e-11 0)
(0.005 -6.19356e-11 0)
(0.005 -8.20045e-11 0)
(0.005 -1.03035e-10 0)
(0.005 -1.25049e-10 0)
(0.005 -1.48077e-10 0)
(0.005 -1.72163e-10 0)
(0.005 -1.97353e-10 0)
(0.005 -2.23701e-10 0)
(0.005 -2.51261e-10 0)
(0.005 -2.8009e-10 0)
(0.005 -3.10246e-10 0)
(0.005 -3.41786e-10 0)
(0.005 -3.74769e-10 0)
(0.005 -4.09253e-10 0)
(0.005 -4.45295e-10 0)
(0.005 -4.82953e-10 0)
(0.005 -5.22284e-10 0)
(0.005 -5.63343e-10 0)
(0.005 -6.06187e-10 0)
(0.005 -6.50869e-10 0)
(0.005 -6.97445e-10 0)
(0.005 -7.45966e-10 0)
(0.005 -7.96485e-10 0)
(0.005 -8.49053e-10 0)
(0.005 -9.03719e-10 0)
(0.005 -9.60532e-10 0)
(0.005 -1.01954e-09 0)
(0.005 -1.08078e-09 0)
(0.005 -1.14431e-09 0)
(0.005 -1.21016e-09 0)
(0.005 -1.27837e-09 0)
(0.005 -1.34898e-09 0)
(0.005 -1.42203e-09 0)
(0.005 -1.49755e-09 0)
(0.005 -1.57557e-09 0)
(0.005 -1.65611e-09 0)
(0.005 -1.73921e-09 0)
(0.005 -1.82488e-09 0)
(0.005 -1.91314e-09 0)
(0.005 -2.00402e-09 0)
(0.005 -2.09751e-09 0)
(0.005 -2.19364e-09 0)
(0.005 -2.29241e-09 0)
(0.005 -2.39383e-09 0)
(0.005 -2.49789e-09 0)
(0.005 -2.6046e-09 0)
(0.005 -2.71395e-09 0)
(0.005 -2.82594e-09 0)
(0.005 -2.94055e-09 0)
(0.005 -3.05778e-09 0)
(0.005 -3.17761e-09 0)
(0.005 -3.30004e-09 0)
(0.005 -3.42503e-09 0)
(0.005 -3.55259e-09 0)
(0.005 -3.6827e-09 0)
(0.005 -3.81534e-09 0)
(0.005 -3.95049e-09 0)
(0.005 -4.08816e-09 0)
(0.005 -4.22834e-09 0)
(0.00499999 -4.37102e-09 0)
(0.00499999 -4.5162e-09 0)
(0.00499999 -4.6639e-09 0)
(0.00499999 -4.81414e-09 0)
(0.00499999 -4.96694e-09 0)
(0.00499999 -5.12234e-09 0)
(0.00499999 -5.28038e-09 0)
(0.00499999 -5.44113e-09 0)
(0.00499999 -5.60466e-09 0)
(0.00499999 -5.77105e-09 0)
(0.00499999 -5.94042e-09 0)
(0.00499999 -6.11289e-09 0)
(0.00499999 -6.28858e-09 0)
(0.00499999 -6.46766e-09 0)
(0.00499999 -6.6503e-09 0)
(0.00499999 -6.83667e-09 0)
(0.00499999 -7.02697e-09 0)
(0.00499999 -7.22141e-09 0)
(0.00499999 -7.42019e-09 0)
(0.00499999 -7.62351e-09 0)
(0.00499999 -7.83155e-09 0)
(0.00499999 -8.04447e-09 0)
(0.00499999 -8.26236e-09 0)
(0.00499999 -8.48527e-09 0)
(0.00499998 -8.71314e-09 0)
(0.00499998 -8.94578e-09 0)
(0.00499998 -9.18283e-09 0)
(0.00499998 -9.42372e-09 0)
(0.00499998 -9.66759e-09 0)
(0.00499998 -9.91322e-09 0)
(0.00499998 -1.01589e-08 0)
(0.00499998 -1.04022e-08 0)
(0.00499998 -1.06397e-08 0)
(0.00499998 -1.08666e-08 0)
(0.00499998 -1.10758e-08 0)
(0.00499998 -1.12576e-08 0)
(0.00499998 -1.13989e-08 0)
(0.00499998 -1.14845e-08 0)
(0.005 -7.31078e-12 0)
(0.005 -2.32638e-11 0)
(0.005 -4.03984e-11 0)
(0.005 -5.85176e-11 0)
(0.005 -7.75931e-11 0)
(0.005 -9.76294e-11 0)
(0.005 -1.18641e-10 0)
(0.005 -1.40653e-10 0)
(0.005 -1.63698e-10 0)
(0.005 -1.87815e-10 0)
(0.005 -2.13049e-10 0)
(0.005 -2.39445e-10 0)
(0.005 -2.67056e-10 0)
(0.005 -2.9593e-10 0)
(0.005 -3.2612e-10 0)
(0.005 -3.57679e-10 0)
(0.005 -3.9066e-10 0)
(0.005 -4.25113e-10 0)
(0.005 -4.61092e-10 0)
(0.005 -4.98649e-10 0)
(0.005 -5.37833e-10 0)
(0.005 -5.78695e-10 0)
(0.005 -6.21286e-10 0)
(0.005 -6.65653e-10 0)
(0.005 -7.11844e-10 0)
(0.005 -7.59905e-10 0)
(0.005 -8.09883e-10 0)
(0.005 -8.6182e-10 0)
(0.005 -9.15759e-10 0)
(0.005 -9.71742e-10 0)
(0.005 -1.02981e-09 0)
(0.005 -1.08999e-09 0)
(0.005 -1.15233e-09 0)
(0.005 -1.21686e-09 0)
(0.005 -1.28361e-09 0)
(0.005 -1.3526e-09 0)
(0.005 -1.42387e-09 0)
(0.005 -1.49744e-09 0)
(0.005 -1.57333e-09 0)
(0.005 -1.65155e-09 0)
(0.005 -1.73213e-09 0)
(0.005 -1.81507e-09 0)
(0.005 -1.90039e-09 0)
(0.005 -1.9881e-09 0)
(0.005 -2.07819e-09 0)
(0.005 -2.17067e-09 0)
(0.005 -2.26553e-09 0)
(0.005 -2.36278e-09 0)
(0.005 -2.4624e-09 0)
(0.005 -2.56439e-09 0)
(0.005 -2.66874e-09 0)
(0.005 -2.77543e-09 0)
(0.005 -2.88444e-09 0)
(0.005 -2.99577e-09 0)
(0.005 -3.1094e-09 0)
(0.005 -3.22531e-09 0)
(0.005 -3.34348e-09 0)
(0.005 -3.4639e-09 0)
(0.005 -3.58657e-09 0)
(0.005 -3.71146e-09 0)
(0.005 -3.83858e-09 0)
(0.005 -3.96793e-09 0)
(0.005 -4.09951e-09 0)
(0.00499999 -4.23334e-09 0)
(0.00499999 -4.36944e-09 0)
(0.00499999 -4.50783e-09 0)
(0.00499999 -4.64858e-09 0)
(0.00499999 -4.79173e-09 0)
(0.00499999 -4.93735e-09 0)
(0.00499999 -5.08554e-09 0)
(0.00499999 -5.23641e-09 0)
(0.00499999 -5.39007e-09 0)
(0.00499999 -5.54668e-09 0)
(0.00499999 -5.7064e-09 0)
(0.00499999 -5.86942e-09 0)
(0.00499999 -6.03597e-09 0)
(0.00499999 -6.20627e-09 0)
(0.00499999 -6.38059e-09 0)
(0.00499999 -6.5592e-09 0)
(0.00499999 -6.74239e-09 0)
(0.00499999 -6.93048e-09 0)
(0.00499999 -7.12376e-09 0)
(0.00499999 -7.32254e-09 0)
(0.00499999 -7.5271e-09 0)
(0.00499999 -7.73767e-09 0)
(0.00499999 -7.95442e-09 0)
(0.00499999 -8.17745e-09 0)
(0.00499998 -8.40669e-09 0)
(0.00499998 -8.64192e-09 0)
(0.00499998 -8.88267e-09 0)
(0.00499998 -9.12816e-09 0)
(0.00499998 -9.37715e-09 0)
(0.00499998 -9.62785e-09 0)
(0.00499998 -9.87761e-09 0)
(0.00499998 -1.01227e-08 0)
(0.00499998 -1.03577e-08 0)
(0.00499998 -1.05752e-08 0)
(0.00499998 -1.07648e-08 0)
(0.00499998 -1.09128e-08 0)
(0.00499998 -1.10025e-08 0)
(0.005 -6.87924e-12 0)
(0.005 -2.19208e-11 0)
(0.005 -3.8113e-11 0)
(0.005 -5.52752e-11 0)
(0.005 -7.33842e-11 0)
(0.005 -9.24444e-11 0)
(0.005 -1.12467e-10 0)
(0.005 -1.33471e-10 0)
(0.005 -1.55482e-10 0)
(0.005 -1.78533e-10 0)
(0.005 -2.0266e-10 0)
(0.005 -2.27904e-10 0)
(0.005 -2.54307e-10 0)
(0.005 -2.81916e-10 0)
(0.005 -3.10774e-10 0)
(0.005 -3.4093e-10 0)
(0.005 -3.72431e-10 0)
(0.005 -4.05322e-10 0)
(0.005 -4.39652e-10 0)
(0.005 -4.75467e-10 0)
(0.005 -5.12813e-10 0)
(0.005 -5.51734e-10 0)
(0.005 -5.92275e-10 0)
(0.005 -6.3448e-10 0)
(0.005 -6.78391e-10 0)
(0.005 -7.2405e-10 0)
(0.005 -7.71495e-10 0)
(0.005 -8.20765e-10 0)
(0.005 -8.71898e-10 0)
(0.005 -9.24928e-10 0)
(0.005 -9.7989e-10 0)
(0.005 -1.03681e-09 0)
(0.005 -1.09573e-09 0)
(0.005 -1.15666e-09 0)
(0.005 -1.21964e-09 0)
(0.005 -1.28468e-09 0)
(0.005 -1.35181e-09 0)
(0.005 -1.42105e-09 0)
(0.005 -1.4924e-09 0)
(0.005 -1.56588e-09 0)
(0.005 -1.64151e-09 0)
(0.005 -1.71927e-09 0)
(0.005 -1.79919e-09 0)
(0.005 -1.88126e-09 0)
(0.005 -1.96548e-09 0)
(0.005 -2.05185e-09 0)
(0.005 -2.14035e-09 0)
(0.005 -2.23097e-09 0)
(0.005 -2.32371e-09 0)
(0.005 -2.41856e-09 0)
(0.005 -2.51549e-09 0)
(0.005 -2.61449e-09 0)
(0.005 -2.71553e-09 0)
(0.005 -2.81862e-09 0)
(0.005 -2.92371e-09 0)
(0.005 -3.03081e-09 0)
(0.005 -3.13988e-09 0)
(0.005 -3.25092e-09 0)
(0.005 -3.36392e-09 0)
(0.005 -3.47888e-09 0)
(0.005 -3.59578e-09 0)
(0.005 -3.71464e-09 0)
(0.005 -3.83547e-09 0)
(0.00499999 -3.9583e-09 0)
(0.00499999 -4.08316e-09 0)
(0.00499999 -4.21009e-09 0)
(0.00499999 -4.33916e-09 0)
(0.00499999 -4.47044e-09 0)
(0.00499999 -4.60404e-09 0)
(0.00499999 -4.74006e-09 0)
(0.00499999 -4.87864e-09 0)
(0.00499999 -5.01994e-09 0)
(0.00499999 -5.16416e-09 0)
(0.00499999 -5.31149e-09 0)
(0.00499999 -5.46219e-09 0)
(0.00499999 -5.61652e-09 0)
(0.00499999 -5.77479e-09 0)
(0.00499999 -5.93731e-09 0)
(0.00499999 -6.10443e-09 0)
(0.00499999 -6.27655e-09 0)
(0.00499999 -6.45404e-09 0)
(0.00499999 -6.63732e-09 0)
(0.00499999 -6.82678e-09 0)
(0.00499999 -7.0228e-09 0)
(0.00499999 -7.22576e-09 0)
(0.00499999 -7.43592e-09 0)
(0.00499999 -7.6535e-09 0)
(0.00499999 -7.87856e-09 0)
(0.00499998 -8.11096e-09 0)
(0.00499998 -8.35032e-09 0)
(0.00499998 -8.59589e-09 0)
(0.00499998 -8.84642e-09 0)
(0.00499998 -9.10002e-09 0)
(0.00499998 -9.35388e-09 0)
(0.00499998 -9.60395e-09 0)
(0.00499998 -9.84455e-09 0)
(0.00499998 -1.00678e-08 0)
(0.00499998 -1.02629e-08 0)
(0.00499998 -1.04155e-08 0)
(0.00499998 -1.05079e-08 0)
(0.005 -6.4739e-12 0)
(0.005 -2.06554e-11 0)
(0.005 -3.59512e-11 0)
(0.005 -5.21945e-11 0)
(0.005 -6.9367e-11 0)
(0.005 -8.7474e-11 0)
(0.005 -1.06525e-10 0)
(0.005 -1.26534e-10 0)
(0.005 -1.47524e-10 0)
(0.005 -1.6952e-10 0)
(0.005 -1.92552e-10 0)
(0.005 -2.16656e-10 0)
(0.005 -2.41868e-10 0)
(0.005 -2.68228e-10 0)
(0.005 -2.95774e-10 0)
(0.005 -3.2455e-10 0)
(0.005 -3.54596e-10 0)
(0.005 -3.85954e-10 0)
(0.005 -4.18667e-10 0)
(0.005 -4.52776e-10 0)
(0.005 -4.88321e-10 0)
(0.005 -5.25342e-10 0)
(0.005 -5.6388e-10 0)
(0.005 -6.03973e-10 0)
(0.005 -6.45657e-10 0)
(0.005 -6.88969e-10 0)
(0.005 -7.33944e-10 0)
(0.005 -7.80613e-10 0)
(0.005 -8.2901e-10 0)
(0.005 -8.79163e-10 0)
(0.005 -9.311e-10 0)
(0.005 -9.84848e-10 0)
(0.005 -1.04043e-09 0)
(0.005 -1.09787e-09 0)
(0.005 -1.15718e-09 0)
(0.005 -1.21838e-09 0)
(0.005 -1.28148e-09 0)
(0.005 -1.3465e-09 0)
(0.005 -1.41345e-09 0)
(0.005 -1.48233e-09 0)
(0.005 -1.55314e-09 0)
(0.005 -1.62589e-09 0)
(0.005 -1.70057e-09 0)
(0.005 -1.77717e-09 0)
(0.005 -1.8557e-09 0)
(0.005 -1.93613e-09 0)
(0.005 -2.01846e-09 0)
(0.005 -2.10268e-09 0)
(0.005 -2.18875e-09 0)
(0.005 -2.27668e-09 0)
(0.005 -2.36643e-09 0)
(0.005 -2.45798e-09 0)
(0.005 -2.55133e-09 0)
(0.005 -2.64643e-09 0)
(0.005 -2.74328e-09 0)
(0.005 -2.84185e-09 0)
(0.005 -2.94213e-09 0)
(0.005 -3.04411e-09 0)
(0.005 -3.14777e-09 0)
(0.005 -3.25312e-09 0)
(0.005 -3.36016e-09 0)
(0.005 -3.46889e-09 0)
(0.005 -3.57934e-09 0)
(0.005 -3.69155e-09 0)
(0.00499999 -3.80555e-09 0)
(0.00499999 -3.92141e-09 0)
(0.00499999 -4.03921e-09 0)
(0.00499999 -4.15903e-09 0)
(0.00499999 -4.281e-09 0)
(0.00499999 -4.40526e-09 0)
(0.00499999 -4.53196e-09 0)
(0.00499999 -4.66131e-09 0)
(0.00499999 -4.79352e-09 0)
(0.00499999 -4.92886e-09 0)
(0.00499999 -5.06759e-09 0)
(0.00499999 -5.21005e-09 0)
(0.00499999 -5.35658e-09 0)
(0.00499999 -5.50758e-09 0)
(0.00499999 -5.66346e-09 0)
(0.00499999 -5.82467e-09 0)
(0.00499999 -5.99169e-09 0)
(0.00499999 -6.16499e-09 0)
(0.00499999 -6.34508e-09 0)
(0.00499999 -6.53244e-09 0)