/*--------------------------------*- C++ -*----------------------------------*\
  =========                 |
  \\      /  F ield         | OpenFOAM: The Open Source CFD Toolbox
   \\    /   O peration     | Website:  https://openfoam.org
    \\  /    A nd           | Version:  11
     \\/     M anipulation  |
\*---------------------------------------------------------------------------*/
FoamFile
{
    format      ascii;
    class       volScalarField;
    location    "326";
    object      omega;
}
// * * * * * * * * * * * * * * * * * * * * * * * * * * * * * * * * * * * * * //

dimensions      [0 0 -1 0 0 0 0];

internalField   nonuniform List<scalar> 
10000
(
0.961694
0.892189
0.82909
0.771733
0.719526
0.671944
0.628517
0.58883
0.55251
0.519225
0.488679
0.460607
0.434773
0.410965
0.388994
0.36869
0.3499
0.332487
0.316329
0.301314
0.287344
0.274328
0.262186
0.250843
0.240234
0.230298
0.220982
0.212236
0.204014
0.196277
0.188986
0.182107
0.17561
0.169466
0.163648
0.158133
0.152899
0.147925
0.143192
0.138683
0.134382
0.130274
0.126344
0.12258
0.11897
0.115502
0.112167
0.108954
0.105856
0.102863
0.0999686
0.0971664
0.0944508
0.0918168
0.0892605
0.0867786
0.0843689
0.0820298
0.0797604
0.0775603
0.07543
0.07337
0.0713813
0.0694649
0.0676217
0.0658529
0.0641594
0.0625418
0.0610002
0.0595342
0.058143
0.0568253
0.0555795
0.0544037
0.0532959
0.0522537
0.0512748
0.0503565
0.0494961
0.048691
0.0479386
0.0472363
0.0465815
0.0459718
0.0454051
0.0448792
0.0443921
0.0439421
0.0435276
0.0431473
0.0428
0.042485
0.0422014
0.0419492
0.0417282
0.041539
0.0413824
0.0412601
0.0411744
0.0411284
0.961694
0.892189
0.82909
0.771733
0.719526
0.671944
0.628518
0.588831
0.55251
0.519225
0.488679
0.460608
0.434774
0.410966
0.388995
0.36869
0.3499
0.332488
0.316329
0.301315
0.287345
0.274329
0.262186
0.250844
0.240235
0.230299
0.220983
0.212237
0.204015
0.196277
0.188986
0.182108
0.175611
0.169467
0.163649
0.158134
0.1529
0.147926
0.143194
0.138685
0.134384
0.130275
0.126346
0.122582
0.118972
0.115505
0.11217
0.108958
0.105859
0.102867
0.0999726
0.0971708
0.0944555
0.0918219
0.0892659
0.0867844
0.0843751
0.0820363
0.0797672
0.0775674
0.0754374
0.0733776
0.0713891
0.0694728
0.0676299
0.0658614
0.0641681
0.0625505
0.0610087
0.0595423
0.0581507
0.0568325
0.0555863
0.0544102
0.0533021
0.0522596
0.0512804
0.0503617
0.0495011
0.0486957
0.047943
0.0472403
0.0465853
0.0459754
0.0454084
0.0448823
0.044395
0.0439448
0.0435301
0.0431496
0.0428022
0.042487
0.0422033
0.041951
0.0417299
0.0415406
0.0413839
0.0412616
0.0411758
0.0411298
0.961694
0.892189
0.829091
0.771734
0.719527
0.671945
0.628519
0.588832
0.552511
0.519226
0.48868
0.460609
0.434775
0.410967
0.388996
0.368692
0.349901
0.332489
0.316331
0.301316
0.287346
0.27433
0.262187
0.250845
0.240236
0.2303
0.220984
0.212238
0.204016
0.196279
0.188988
0.182109
0.175612
0.169468
0.163651
0.158136
0.152902
0.147928
0.143196
0.138687
0.134386
0.130278
0.126349
0.122585
0.118976
0.115509
0.112174
0.108962
0.105864
0.102872
0.0999787
0.0971774
0.0944627
0.0918297
0.0892743
0.0867935
0.0843847
0.0820465
0.0797779
0.0775787
0.0754491
0.0733897
0.0714015
0.0694856
0.0676429
0.0658746
0.0641814
0.0625638
0.0610218
0.0595552
0.0581632
0.0568446
0.0555978
0.0544212
0.0533126
0.0522696
0.0512899
0.0503707
0.0495096
0.0487037
0.0479505
0.0472475
0.046592
0.0459817
0.0454143
0.0448878
0.0444001
0.0439496
0.0435346
0.0431538
0.0428061
0.0424907
0.0422068
0.0419542
0.041733
0.0415436
0.0413868
0.0412644
0.0411785
0.0411325
0.961694
0.892189
0.829091
0.771734
0.719528
0.671946
0.62852
0.588833
0.552513
0.519228
0.488682
0.46061
0.434776
0.410969
0.388998
0.368693
0.349903
0.33249
0.316332
0.301318
0.287348
0.274332
0.262189
0.250847
0.240238
0.230302
0.220986
0.21224
0.204018
0.196281
0.18899
0.182112
0.175615
0.169471
0.163653
0.158139
0.152905
0.147931
0.143199
0.13869
0.13439
0.130282
0.126353
0.12259
0.118981
0.115514
0.11218
0.108969
0.105871
0.10288
0.099987
0.0971865
0.0944726
0.0918403
0.0892858
0.0868058
0.0843979
0.0820605
0.0797927
0.0775942
0.0754652
0.0734064
0.0714187
0.0695031
0.0676608
0.0658927
0.0641995
0.0625818
0.0610397
0.0595727
0.0581802
0.0568611
0.0556138
0.0544366
0.0533273
0.0522836
0.0513032
0.0503834
0.0495215
0.048715
0.0479612
0.0472575
0.0466014
0.0459905
0.0454226
0.0448955
0.0444074
0.0439564
0.043541
0.0431598
0.0428118
0.042496
0.0422118
0.041959
0.0417376
0.0415479
0.041391
0.0412685
0.0411825
0.0411365
0.961694
0.89219
0.829091
0.771735
0.719528
0.671946
0.628521
0.588834
0.552514
0.519229
0.488683
0.460612
0.434778
0.410971
0.388999
0.368695
0.349905
0.332492
0.316334
0.30132
0.28735
0.274334
0.262191
0.250849
0.24024
0.230305
0.220989
0.212242
0.204021
0.196283
0.188993
0.182114
0.175617
0.169474
0.163656
0.158142
0.152908
0.147935
0.143203
0.138695
0.134394
0.130287
0.126358
0.122596
0.118987
0.115521
0.112187
0.108977
0.10588
0.10289
0.0999977
0.0971981
0.0944851
0.091854
0.0893005
0.0868215
0.0844147
0.0820783
0.0798114
0.0776138
0.0754856
0.0734275
0.0714404
0.0695253
0.0676833
0.0659154
0.0642223
0.0626045
0.0610621
0.0595947
0.0582017
0.056882
0.055634
0.054456
0.0533459
0.0523014
0.0513202
0.0503995
0.0495368
0.0487295
0.0479748
0.0472703
0.0466135
0.0460019
0.0454332
0.0449055
0.0444168
0.0439652
0.0435493
0.0431676
0.0428191
0.0425029
0.0422184
0.0419652
0.0417435
0.0415536
0.0413965
0.0412738
0.0411878
0.0411416
0.961694
0.89219
0.829092
0.771735
0.719529
0.671947
0.628522
0.588835
0.552515
0.519231
0.488685
0.460614
0.43478
0.410973
0.389002
0.368697
0.349907
0.332495
0.316337
0.301322
0.287352
0.274337
0.262194
0.250851
0.240243
0.230307
0.220991
0.212245
0.204024
0.196286
0.188996
0.182118
0.175621
0.169477
0.16366
0.158146
0.152913
0.147939
0.143208
0.1387
0.1344
0.130293
0.126365
0.122603
0.118995
0.115529
0.112197
0.108987
0.105891
0.102901
0.100011
0.0972121
0.0945003
0.0918703
0.0893181
0.0868404
0.0844347
0.0820995
0.0798338
0.0776372
0.07551
0.0734527
0.0714662
0.0695517
0.0677101
0.0659424
0.0642493
0.0626314
0.0610887
0.0596209
0.0582273
0.0569068
0.055658
0.0544791
0.0533681
0.0523227
0.0513404
0.0504188
0.0495551
0.0487468
0.0479912
0.0472857
0.046628
0.0460155
0.0454461
0.0449176
0.0444281
0.0439758
0.0435593
0.043177
0.042828
0.0425113
0.0422263
0.0419728
0.0417507
0.0415605
0.0414032
0.0412803
0.0411941
0.0411479
0.961694
0.89219
0.829092
0.771735
0.71953
0.671948
0.628523
0.588836
0.552517
0.519233
0.488687
0.460616
0.434782
0.410975
0.389004
0.3687
0.34991
0.332497
0.316339
0.301325
0.287355
0.274339
0.262197
0.250854
0.240246
0.230311
0.220995
0.212249
0.204027
0.19629
0.188999
0.182121
0.175625
0.169481
0.163665
0.158151
0.152918
0.147945
0.143213
0.138706
0.134406
0.1303
0.126372
0.122611
0.119004
0.115539
0.112207
0.108998
0.105904
0.102915
0.100025
0.0972283
0.0945178
0.0918892
0.0893384
0.0868621
0.0844578
0.082124
0.0798595
0.0776641
0.0755379
0.0734816
0.0714959
0.0695819
0.0677407
0.0659732
0.0642802
0.0626621
0.061119
0.0596507
0.0582565
0.0569352
0.0556855
0.0545056
0.0533936
0.0523471
0.0513637
0.0504409
0.0495761
0.0487667
0.04801
0.0473035
0.0466447
0.0460313
0.0454609
0.0449315
0.0444412
0.0439882
0.0435709
0.0431879
0.0428383
0.042521
0.0422355
0.0419816
0.0417591
0.0415686
0.041411
0.0412879
0.0412016
0.0411552
0.961694
0.89219
0.829092
0.771736
0.71953
0.671949
0.628524
0.588838
0.552518
0.519234
0.488689
0.460618
0.434784
0.410977
0.389006
0.368702
0.349913
0.3325
0.316342
0.301328
0.287358
0.274343
0.2622
0.250858
0.240249
0.230314
0.220998
0.212252
0.204031
0.196294
0.189004
0.182126
0.17563
0.169486
0.16367
0.158156
0.152923
0.147951
0.14322
0.138713
0.134414
0.130308
0.126381
0.12262
0.119014
0.11555
0.112219
0.109011
0.105918
0.102931
0.100042
0.0972466
0.0945376
0.0919105
0.0893612
0.0868864
0.0844837
0.0821513
0.0798883
0.0776942
0.0755692
0.0735138
0.071529
0.0696156
0.0677749
0.0660076
0.0643146
0.0626963
0.0611528
0.0596839
0.058289
0.0569668
0.0557162
0.0545352
0.053422
0.0523743
0.0513897
0.0504657
0.0495996
0.048789
0.0480311
0.0473234
0.0466635
0.046049
0.0454776
0.0449472
0.044456
0.0440021
0.0435839
0.0432003
0.0428499
0.042532
0.042246
0.0419915
0.0417686
0.0415778
0.0414199
0.0412965
0.04121
0.0411635
0.961694
0.89219
0.829092
0.771736
0.71953
0.671949
0.628525
0.588839
0.55252
0.519236
0.488691
0.46062
0.434787
0.41098
0.389009
0.368705
0.349915
0.332503
0.316345
0.301331
0.287361
0.274346
0.262204
0.250861
0.240253
0.230318
0.221002
0.212256
0.204035
0.196299
0.189008
0.182131
0.175635
0.169492
0.163675
0.158162
0.15293
0.147958
0.143227
0.138721
0.134422
0.130317
0.126391
0.122631
0.119025
0.115563
0.112233
0.109026
0.105934
0.102948
0.100061
0.0972667
0.0945593
0.0919339
0.0893862
0.0869131
0.0845121
0.0821813
0.0799198
0.0777271
0.0756033
0.0735491
0.0715651
0.0696525
0.0678122
0.0660451
0.0643521
0.0627336
0.0611897
0.0597202
0.0583244
0.0570014
0.0557496
0.0545675
0.0534531
0.0524041
0.0514182
0.0504928
0.0496254
0.0488134
0.0480542
0.0473453
0.0466842
0.0460685
0.0454959
0.0449645
0.0444722
0.0440174
0.0435984
0.0432139
0.0428628
0.0425442
0.0422576
0.0420026
0.0417792
0.0415879
0.0414297
0.0413061
0.0412194
0.0411728
0.961694
0.89219
0.829092
0.771736
0.719531
0.67195
0.628525
0.58884
0.552521
0.519237
0.488692
0.460622
0.434789
0.410982
0.389011
0.368708
0.349918
0.332506
0.316348
0.301335
0.287365
0.274349
0.262207
0.250865
0.240257
0.230322
0.221007
0.212261
0.20404
0.196303
0.189013
0.182136
0.17564
0.169497
0.163682
0.158169
0.152937
0.147965
0.143235
0.138729
0.134431
0.130327
0.126401
0.122642
0.119038
0.115576
0.112247
0.109042
0.105951
0.102967
0.100081
0.0972886
0.0945829
0.0919592
0.0894134
0.0869421
0.0845428
0.0822137
0.0799538
0.0777626
0.0756401
0.073587
0.071604
0.0696921
0.0678523
0.0660855
0.0643925
0.0627737
0.0612294
0.0597592
0.0583626
0.0570385
0.0557856
0.0546023
0.0534865
0.0524362
0.0514488
0.050522
0.0496532
0.0488398
0.0480792
0.047369
0.0467065
0.0460895
0.0455158
0.0449832
0.0444899
0.044034
0.0436141
0.0432287
0.0428768
0.0425575
0.0422702
0.0420146
0.0417907
0.041599
0.0414404
0.0413165
0.0412296
0.0411828
0.961694
0.89219
0.829092
0.771736
0.719531
0.67195
0.628526
0.58884
0.552522
0.519238
0.488694
0.460623
0.434791
0.410984
0.389014
0.36871
0.349921
0.332509
0.316352
0.301338
0.287368
0.274353
0.262211
0.250869
0.240261
0.230326
0.221011
0.212266
0.204045
0.196308
0.189019
0.182142
0.175646
0.169504
0.163688
0.158176
0.152944
0.147973
0.143244
0.138738
0.134441
0.130337
0.126413
0.122655
0.119051
0.115591
0.112263
0.109059
0.10597
0.102987
0.100103
0.0973121
0.0946082
0.0919863
0.0894424
0.0869729
0.0845755
0.0822482
0.07999
0.0778003
0.0756793
0.0736273
0.0716453
0.0697341
0.0678948
0.0661283
0.0644352
0.0628162
0.0612714
0.0598005
0.058403
0.0570779
0.0558238
0.0546392
0.0535221
0.0524703
0.0514815
0.0505532
0.0496828
0.0488679
0.0481059
0.0473942
0.0467303
0.046112
0.045537
0.0450032
0.0445087
0.0440518
0.0436309
0.0432446
0.0428918
0.0425717
0.0422837
0.0420275
0.041803
0.0416109
0.0414519
0.0413277
0.0412405
0.0411936
0.961694
0.89219
0.829092
0.771736
0.719531
0.671951
0.628526
0.588841
0.552523
0.519239
0.488695
0.460625
0.434792
0.410986
0.389016
0.368713
0.349924
0.332512
0.316355
0.301341
0.287372
0.274357
0.262215
0.250873
0.240265
0.230331
0.221016
0.21227
0.20405
0.196314
0.189024
0.182148
0.175653
0.16951
0.163695
0.158183
0.152952
0.147982
0.143253
0.138748
0.134452
0.130349
0.126425
0.122668
0.119066
0.115606
0.11228
0.109077
0.105989
0.103008
0.100126
0.097337
0.094635
0.092015
0.089473
0.0870055
0.08461
0.0822845
0.0800281
0.07784
0.0757204
0.0736698
0.0716887
0.0697783
0.0679395
0.0661732
0.0644802
0.0628609
0.0613156
0.059844
0.0584455
0.0571193
0.055864
0.054678
0.0535594
0.0525061
0.0515158
0.0505859
0.049714
0.0488975
0.0481339
0.0474207
0.0467555
0.0461358
0.0455594
0.0450244
0.0445287
0.0440706
0.0436486
0.0432614
0.0429077
0.0425868
0.0422981
0.0420412
0.0418162
0.0416235
0.0414641
0.0413395
0.0412521
0.0412051
0.961694
0.892189
0.829092
0.771736
0.719531
0.671951
0.628527
0.588842
0.552523
0.51924
0.488696
0.460626
0.434794
0.410988
0.389018
0.368715
0.349926
0.332515
0.316358
0.301344
0.287375
0.27436
0.262219
0.250877
0.240269
0.230335
0.22102
0.212276
0.204055
0.19632
0.18903
0.182154
0.175659
0.169518
0.163703
0.158191
0.152961
0.147991
0.143263
0.138759
0.134463
0.130361
0.126438
0.122682
0.119081
0.115623
0.112298
0.109097
0.10601
0.103031
0.10015
0.0973632
0.0946631
0.0920451
0.0895051
0.0870396
0.0846461
0.0823225
0.0800678
0.0778815
0.0757634
0.073714
0.071734
0.0698244
0.0679861
0.06622
0.064527
0.0629074
0.0613616
0.0598892
0.0584898
0.0571624
0.0559059
0.0547185
0.0535984
0.0525435
0.0515516
0.0506201
0.0497465
0.0489285
0.0481633
0.0474485
0.0467817
0.0461606
0.0455829
0.0450465
0.0445496
0.0440904
0.0436673
0.043279
0.0429244
0.0426027
0.0423131
0.0420555
0.0418299
0.0416367
0.0414769
0.041352
0.0412644
0.0412172
0.961694
0.892189
0.829092
0.771736
0.719531
0.671951
0.628527
0.588842
0.552524
0.519241
0.488697
0.460628
0.434796
0.41099
0.38902
0.368718
0.349929
0.332518
0.316361
0.301348
0.287379
0.274364
0.262223
0.250882
0.240274
0.23034
0.221025
0.212281
0.204061
0.196325
0.189037
0.18216
0.175666
0.169525
0.163711
0.1582
0.15297
0.148
0.143273
0.13877
0.134475
0.130374
0.126452
0.122697
0.119097
0.11564
0.112317
0.109117
0.106032
0.103054
0.100176
0.0973904
0.0946923
0.0920764
0.0895384
0.087075
0.0846835
0.0823619
0.0801091
0.0779244
0.0758078
0.0737597
0.0717808
0.069872
0.0680342
0.0662684
0.0645753
0.0629555
0.0614091
0.0599359
0.0585356
0.0572071
0.0559492
0.0547603
0.0536387
0.0525822
0.0515886
0.0506555
0.0497803
0.0489605
0.0481937
0.0474774
0.046809
0.0461864
0.0456073
0.0450695
0.0445713
0.0441109
0.0436867
0.0432973
0.0429418
0.0426192
0.0423288
0.0420705
0.0418443
0.0416505
0.0414903
0.041365
0.0412771
0.0412298
0.961694
0.892189
0.829092
0.771736
0.719531
0.671951
0.628527
0.588842
0.552525
0.519242
0.488698
0.460629
0.434797
0.410992
0.389022
0.36872
0.349931
0.33252
0.316364
0.301351
0.287382
0.274368
0.262227
0.250886
0.240278
0.230345
0.22103
0.212286
0.204067
0.196331
0.189043
0.182167
0.175673
0.169533
0.163719
0.158208
0.152979
0.14801
0.143283
0.138781
0.134487
0.130387
0.126466
0.122712
0.119113
0.115658
0.112336
0.109138
0.106055
0.103079
0.100202
0.0974186
0.0947225
0.0921086
0.0895728
0.0871115
0.084722
0.0824024
0.0801515
0.0779685
0.0758534
0.0738067
0.0718289
0.0699209
0.0680836
0.0663181
0.064625
0.0630049
0.0614579
0.059984
0.0585826
0.0572529
0.0559936
0.0548034
0.0536802
0.0526221
0.0516268
0.0506919
0.049815
0.0489935
0.0482251
0.0475071
0.0468371
0.046213
0.0456324
0.0450933
0.0445938
0.0441321
0.0437067
0.0433163
0.0429598
0.0426362
0.0423451
0.042086
0.0418591
0.0416648
0.0415041
0.0413785
0.0412903
0.0412429
0.961694
0.892189
0.829092
0.771736
0.719531
0.671951
0.628527
0.588843
0.552525
0.519243
0.488699
0.46063
0.434799
0.410993
0.389024
0.368722
0.349934
0.332523
0.316367
0.301354
0.287386
0.274372
0.262231
0.25089
0.240283
0.23035
0.221036
0.212291
0.204072
0.196337
0.189049
0.182174
0.175681
0.16954
0.163727
0.158217
0.152989
0.148021
0.143294
0.138793
0.1345
0.130401
0.126481
0.122728
0.119131
0.115677
0.112356
0.109159
0.106078
0.103104
0.100229
0.0974476
0.0947535
0.0921418
0.089608
0.0871488
0.0847615
0.0824439
0.0801948
0.0780136
0.0759001
0.0738547
0.0718779
0.0699708
0.0681341
0.0663688
0.0646757
0.0630552
0.0615077
0.060033
0.0586306
0.0572997
0.0560391
0.0548473
0.0537225
0.0526628
0.0516658
0.0507292
0.0498505
0.0490273
0.0482571
0.0475375
0.046866
0.0462403
0.0456582
0.0451177
0.0446168
0.0441538
0.0437273
0.0433358
0.0429782
0.0426538
0.0423618
0.042102
0.0418744
0.0416795
0.0415183
0.0413923
0.0413039
0.0412563
0.961694
0.892189
0.829091
0.771736
0.719531
0.671951
0.628527
0.588843
0.552526
0.519243
0.4887
0.460631
0.4348
0.410995
0.389026
0.368724
0.349936
0.332525
0.316369
0.301357
0.287389
0.274375
0.262235
0.250894
0.240287
0.230354
0.221041
0.212297
0.204078
0.196344
0.189056
0.182181
0.175688
0.169549
0.163736
0.158227
0.152999
0.148031
0.143306
0.138805
0.134513
0.130415
0.126496
0.122745
0.119148
0.115696
0.112377
0.109182
0.106102
0.103129
0.100257
0.0974772
0.0947852
0.0921755
0.089644
0.0871869
0.0848016
0.0824861
0.0802389
0.0780595
0.0759475
0.0739035
0.0719278
0.0700215
0.0681854
0.0664203
0.0647272
0.0631064
0.0615583
0.0600828
0.0586794
0.0573472
0.0560853
0.054892
0.0537656
0.0527042
0.0517054
0.0507671
0.0498867
0.0490617
0.0482898
0.0475685
0.0468953
0.0462681
0.0456845
0.0451425
0.0446403
0.0441761
0.0437483
0.0433557
0.0429971
0.0426717
0.0423788
0.0421183
0.04189
0.0416945
0.0415328
0.0414065
0.0413178
0.04127
0.961694
0.892189
0.829091
0.771736
0.719531
0.671951
0.628528
0.588843
0.552526
0.519244
0.488701
0.460632
0.434801
0.410996
0.389027
0.368726
0.349938
0.332528
0.316372
0.30136
0.287392
0.274379
0.262238
0.250898
0.240292
0.230359
0.221046
0.212302
0.204084
0.19635
0.189063
0.182188
0.175696
0.169557
0.163745
0.158236
0.153009
0.148042
0.143317
0.138818
0.134527
0.130429
0.126512
0.122762
0.119166
0.115715
0.112398
0.109204
0.106126
0.103155
0.100285
0.0975073
0.0948173
0.0922098
0.0896804
0.0872255
0.0848423
0.0825288
0.0802836
0.0781059
0.0759955
0.0739528
0.0719783
0.0700728
0.0682372
0.0664724
0.0647792
0.0631582
0.0616095
0.0601332
0.0587287
0.0573954
0.056132
0.0549372
0.0538092
0.0527461
0.0517456
0.0508055
0.0499233
0.0490966
0.048323
0.0475999
0.0469251
0.0462963
0.0457111
0.0451677
0.0446641
0.0441986
0.0437697
0.0433759
0.0430163
0.0426899
0.0423962
0.0421348
0.0419059
0.0417098
0.0415476
0.0414209
0.0413319
0.041284
0.961694
0.892189
0.829091
0.771736
0.719531
0.671951
0.628528
0.588843
0.552526
0.519244
0.488701
0.460633
0.434802
0.410997
0.389029
0.368727
0.34994
0.33253
0.316374
0.301363
0.287395
0.274382
0.262242
0.250902
0.240296
0.230364
0.221051
0.212308
0.20409
0.196356
0.18907
0.182196
0.175704
0.169565
0.163754
0.158246
0.153019
0.148053
0.143329
0.13883
0.13454
0.130444
0.126528
0.122778
0.119185
0.115735
0.112419
0.109227
0.106151
0.103182
0.100313
0.0975377
0.0948499
0.0922445
0.0897172
0.0872645
0.0848834
0.0825719
0.0803286
0.0781526
0.0760439
0.0740025
0.0720291
0.0701244
0.0682894
0.0665249
0.0648316
0.0632103
0.061661
0.0601839
0.0587784
0.0574438
0.0561791
0.0549828
0.0538532
0.0527884
0.0517861
0.0508442
0.0499603
0.0491318
0.0483564
0.0476317
0.0469552
0.0463248
0.0457381
0.0451932
0.0446883
0.0442214
0.0437913
0.0433964
0.0430357
0.0427083
0.0424137
0.0421516
0.0419219
0.0417253
0.0415625
0.0414354
0.0413462
0.0412981
0.961694
0.892189
0.829091
0.771736
0.719531
0.671951
0.628528
0.588844
0.552526
0.519245
0.488702
0.460634
0.434803
0.410998
0.38903
0.368729
0.349942
0.332532
0.316377
0.301365
0.287398
0.274385
0.262246
0.250906
0.2403
0.230368
0.221056
0.212313
0.204096
0.196363
0.189076
0.182203
0.175711
0.169573
0.163763
0.158255
0.153029
0.148064
0.143341
0.138843
0.134554
0.130459
0.126544
0.122796
0.119203
0.115755
0.11244
0.10925
0.106176
0.103209
0.100342
0.0975683
0.0948826
0.0922793
0.0897542
0.0873036
0.0849246
0.0826152
0.0803737
0.0781996
0.0760924
0.0740523
0.07208
0.0701762
0.0683417
0.0665774
0.0648842
0.0632625
0.0617127
0.0602348
0.0588282
0.0574925
0.0562264
0.0550285
0.0538973
0.0528308
0.0518268
0.0508832
0.0499974
0.0491672
0.04839
0.0476636
0.0469855
0.0463534
0.0457652
0.0452189
0.0447125
0.0442444
0.043813
0.043417
0.0430552
0.0427269
0.0424314
0.0421684
0.0419381
0.0417408
0.0415776
0.0414501
0.0413606
0.0413124
0.961694
0.892189
0.829091
0.771735
0.719531
0.671951
0.628528
0.588844
0.552527
0.519245
0.488702
0.460634
0.434804
0.410999
0.389032
0.36873
0.349944
0.332534
0.316379
0.301368
0.287401
0.274389
0.262249
0.25091
0.240305
0.230373
0.221061
0.212319
0.204102
0.196369
0.189083
0.18221
0.175719
0.169582
0.163772
0.158265
0.15304
0.148075
0.143353
0.138856
0.134568
0.130474
0.12656
0.122813
0.119222
0.115775
0.112462
0.109273
0.106201
0.103235
0.10037
0.097599
0.0949154
0.0923142
0.0897913
0.0873428
0.0849659
0.0826584
0.0804189
0.0782464
0.0761408
0.0741021
0.0721309
0.0702279
0.0683939
0.06663
0.0649367
0.0633147
0.0617644
0.0602856
0.0588781
0.0575411
0.0562736
0.0550743
0.0539415
0.0528732
0.0518675
0.0509221
0.0500346
0.0492026
0.0484237
0.0476956
0.0470158
0.0463821
0.0457924
0.0452446
0.0447369
0.0442674
0.0438348
0.0434376
0.0430748
0.0427455
0.0424491
0.0421854
0.0419543
0.0417564
0.0415927
0.0414648
0.041375
0.0413266
0.961694
0.892189
0.829091
0.771735
0.719531
0.671951
0.628528
0.588844
0.552527
0.519245
0.488703
0.460635
0.434805
0.411
0.389033
0.368732
0.349945
0.332536
0.316381
0.301371
0.287404
0.274392
0.262253
0.250914
0.240309
0.230378
0.221066
0.212324
0.204107
0.196375
0.18909
0.182217
0.175727
0.16959
0.163781
0.158275
0.15305
0.148086
0.143365
0.138869
0.134582
0.130489
0.126576
0.12283
0.11924
0.115795
0.112483
0.109297
0.106226
0.103262
0.100399
0.0976297
0.0949481
0.0923491
0.0898282
0.0873818
0.085007
0.0827015
0.0804638
0.0782931
0.076189
0.0741517
0.0721815
0.0702793
0.0684459
0.0666822
0.064989
0.0633667
0.0618158
0.0603362
0.0589277
0.0575895
0.0563207
0.0551199
0.0539854
0.0529156
0.0519081
0.0509609
0.0500717
0.0492379
0.0484573
0.0477275
0.047046
0.0464108
0.0458196
0.0452703
0.0447612
0.0442904
0.0438566
0.0434583
0.0430944
0.0427641
0.0424668
0.0422023
0.0419705
0.041772
0.0416078
0.0414795
0.0413894
0.0413409
0.961694
0.892189
0.829091
0.771735
0.719531
0.671951
0.628528
0.588844
0.552527
0.519246
0.488703
0.460635
0.434805
0.411001
0.389034
0.368733
0.349947
0.332538
0.316384
0.301373
0.287407
0.274395
0.262256
0.250918
0.240313
0.230382
0.221071
0.212329
0.204113
0.196381
0.189096
0.182225
0.175735
0.169598
0.16379
0.158284
0.15306
0.148098
0.143377
0.138882
0.134596
0.130504
0.126592
0.122848
0.119259
0.115815
0.112505
0.10932
0.10625
0.103289
0.100428
0.0976603
0.0949807
0.0923837
0.0898649
0.0874206
0.0850478
0.0827443
0.0805085
0.0783395
0.0762369
0.0742008
0.0722318
0.0703304
0.0684975
0.0667341
0.0650408
0.0634183
0.0618668
0.0603865
0.0589769
0.0576376
0.0563674
0.0551651
0.0540291
0.0529576
0.0519485
0.0509995
0.0501085
0.049273
0.0484907
0.0477592
0.0470761
0.0464393
0.0458466
0.0452959
0.0447854
0.0443134
0.0438783
0.0434788
0.0431139
0.0427826
0.0424845
0.0422192
0.0419867
0.0417876
0.0416228
0.0414941
0.0414037
0.041355
0.961694
0.892189
0.829091
0.771735
0.719531
0.671951
0.628528
0.588844
0.552527
0.519246
0.488704
0.460636
0.434806
0.411002
0.389035
0.368735
0.349948
0.33254
0.316386
0.301375
0.287409
0.274398
0.262259
0.250921
0.240317
0.230386
0.221075
0.212335
0.204119
0.196387
0.189103
0.182232
0.175742
0.169607
0.163798
0.158294
0.153071
0.148109
0.143389
0.138895
0.134609
0.130518
0.126608
0.122865
0.119278
0.115835
0.112526
0.109343
0.106275
0.103315
0.100456
0.0976905
0.0950129
0.092418
0.0899013
0.087459
0.0850882
0.0827866
0.0805526
0.0783853
0.0762842
0.0742494
0.0722814
0.0703808
0.0685485
0.0667854
0.0650921
0.0634693
0.0619173
0.0604362
0.0590257
0.0576852
0.0564137
0.0552099
0.0540724
0.0529992
0.0519884
0.0510378
0.050145
0.0493078
0.0485238
0.0477906
0.047106
0.0464676
0.0458734
0.0453212
0.0448094
0.0443361
0.0438998
0.0434992
0.0431332
0.042801
0.042502
0.0422359
0.0420027
0.041803
0.0416377
0.0415086
0.0414179
0.0413691
0.961694
0.892189
0.829091
0.771735
0.71953
0.671951
0.628528
0.588844
0.552527
0.519246
0.488704
0.460636
0.434807
0.411003
0.389036
0.368736
0.34995
0.332542
0.316388
0.301378
0.287412
0.274401
0.262263
0.250925
0.240321
0.230391
0.22108
0.21234
0.204124
0.196393
0.189109
0.182239
0.17575
0.169615
0.163807
0.158303
0.153081
0.14812
0.143401
0.138907
0.134623
0.130533
0.126624
0.122882
0.119296
0.115855
0.112548
0.109366
0.1063
0.103341
0.100484
0.0977204
0.0950448
0.0924519
0.0899371
0.0874969
0.085128
0.0828283
0.0805961
0.0784304
0.0763308
0.0742973
0.0723304
0.0704306
0.0685988
0.0668359
0.0651426
0.0635195
0.061967
0.0604852
0.0590737
0.0577321
0.0564593
0.0552542
0.0541151
0.0530403
0.0520279
0.0510755
0.0501811
0.0493422
0.0485565
0.0478217
0.0471355
0.0464956
0.0458998
0.0453463
0.0448331
0.0443585
0.0439211
0.0435194
0.0431524
0.0428192
0.0425193
0.0422524
0.0420185
0.0418182
0.0416525
0.0415229
0.041432
0.041383
0.961694
0.892189
0.829091
0.771735
0.71953
0.671951
0.628528
0.588844
0.552527
0.519246
0.488704
0.460637
0.434807
0.411004
0.389037
0.368737
0.349951
0.332543
0.31639
0.30138
0.287414
0.274403
0.262266
0.250928
0.240325
0.230395
0.221085
0.212345
0.20413
0.196399
0.189116
0.182246
0.175757
0.169623
0.163816
0.158313
0.153091
0.14813
0.143413
0.13892
0.134637
0.130548
0.126639
0.122899
0.119314
0.115874
0.112569
0.109388
0.106324
0.103367
0.100512
0.0977499
0.0950761
0.0924852
0.0899724
0.0875341
0.0851672
0.0828693
0.0806389
0.0784748
0.0763767
0.0743444
0.0723785
0.0704795
0.0686482
0.0668856
0.0651923
0.0635689
0.0620159
0.0605334
0.059121
0.0577782
0.0565042
0.0552976
0.0541571
0.0530807
0.0520667
0.0511127
0.0502166
0.049376
0.0485887
0.0478523
0.0471645
0.0465231
0.0459259
0.045371
0.0448565
0.0443807
0.043942
0.0435392
0.0431712
0.0428371
0.0425364
0.0422687
0.0420341
0.0418332
0.041667
0.041537
0.0414458
0.0413966
0.961694
0.892189
0.829091
0.771735
0.71953
0.671951
0.628528
0.588844
0.552527
0.519246
0.488705
0.460637
0.434808
0.411004
0.389038
0.368738
0.349953
0.332545
0.316391
0.301382
0.287417
0.274406
0.262269
0.250931
0.240328
0.230399
0.221089
0.212349
0.204135
0.196405
0.189122
0.182252
0.175765
0.169631
0.163824
0.158322
0.153101
0.148141
0.143424
0.138932
0.13465
0.130562
0.126655
0.122915
0.119332
0.115893
0.112589
0.10941
0.106347
0.103393
0.100539
0.0977787
0.0951069
0.0925178
0.090007
0.0875706
0.0852056
0.0829095
0.0806808
0.0785183
0.0764215
0.0743905
0.0724255
0.0705273
0.0686966
0.0669342
0.0652409
0.0636173
0.0620638
0.0605806
0.0591673
0.0578235
0.0565482
0.0553403
0.0541983
0.0531204
0.0521047
0.0511492
0.0502514
0.0494092
0.0486203
0.0478823
0.047193
0.0465501
0.0459515
0.0453953
0.0448795
0.0444024
0.0439626
0.0435588
0.0431898
0.0428547
0.0425531
0.0422847
0.0420495
0.041848
0.0416812
0.0415509
0.0414594
0.0414101
0.961694
0.892189
0.829091
0.771735
0.71953
0.671951
0.628528
0.588844
0.552528
0.519247
0.488705
0.460638
0.434808
0.411005
0.389039
0.368739
0.349954
0.332546
0.316393
0.301384
0.287419
0.274408
0.262271
0.250935
0.240332
0.230403
0.221093
0.212354
0.20414
0.196411
0.189128
0.182259
0.175772
0.169638
0.163833
0.158331
0.15311
0.148151
0.143435
0.138944
0.134663
0.130576
0.12667
0.122931
0.119349
0.115912
0.112609
0.109432
0.10637
0.103417
0.100565
0.097807
0.0951369
0.0925497
0.0900408
0.0876062
0.085243
0.0829487
0.0807217
0.0785607
0.0764653
0.0744355
0.0724715
0.070574
0.0687438
0.0669817
0.0652884
0.0636646
0.0621106
0.0606267
0.0592125
0.0578676
0.0565912
0.055382
0.0542385
0.0531592
0.052142
0.0511848
0.0502855
0.0494417
0.0486513
0.0479117
0.0472209
0.0465766
0.0459766
0.045419
0.0449019
0.0444237
0.0439828
0.0435779
0.0432079
0.042872
0.0425695
0.0423004
0.0420645
0.0418624
0.0416952
0.0415644
0.0414727
0.0414232
0.961694
0.892189
0.829091
0.771735
0.71953
0.671951
0.628528
0.588844
0.552528
0.519247
0.488705
0.460638
0.434809
0.411006
0.38904
0.36874
0.349955
0.332548
0.316395
0.301386
0.287421
0.274411
0.262274
0.250938
0.240335
0.230407
0.221097
0.212359
0.204145
0.196416
0.189134
0.182265
0.175779
0.169646
0.163841
0.15834
0.15312
0.148162
0.143446
0.138956
0.134676
0.13059
0.126684
0.122947
0.119366
0.11593
0.112629
0.109453
0.106393
0.103441
0.100591
0.0978345
0.0951662
0.0925808
0.0900737
0.0876409
0.0852795
0.0829869
0.0807614
0.078602
0.0765079
0.0744792
0.0725162
0.0706195
0.0687898
0.0670279
0.0653346
0.0637106
0.0621562
0.0606716
0.0592566
0.0579107
0.0566331
0.0554226
0.0542778
0.053197
0.0521783
0.0512196
0.0503187
0.0494734
0.0486814
0.0479404
0.0472481
0.0466024
0.046001
0.0454422
0.0449239
0.0444445
0.0440024
0.0435965
0.0432256
0.0428888
0.0425856
0.0423156
0.0420791
0.0418765
0.0417088
0.0415777
0.0414856
0.041436
0.961694
0.892189
0.82909
0.771735
0.71953
0.67195
0.628527
0.588844
0.552528
0.519247
0.488705
0.460638
0.434809
0.411006
0.38904
0.368741
0.349956
0.332549
0.316396
0.301388
0.287423
0.274413
0.262277
0.250941
0.240338
0.23041
0.221101
0.212363
0.20415
0.196421
0.18914
0.182272
0.175786
0.169653
0.163849
0.158348
0.153129
0.148172
0.143457
0.138968
0.134688
0.130603
0.126699
0.122963
0.119383
0.115948
0.112648
0.109473
0.106415
0.103465
0.100616
0.0978612
0.0951946
0.092611
0.0901056
0.0876746
0.0853149
0.0830239
0.0808
0.078642
0.0765492
0.0745217
0.0725596
0.0706636
0.0688343
0.0670727
0.0653795
0.0637552
0.0622004
0.0607152
0.0592993
0.0579525
0.0566737
0.055462
0.0543159
0.0532337
0.0522135
0.0512533
0.050351
0.0495042
0.0487107
0.0479683
0.0472746
0.0466275
0.0460248
0.0454647
0.0449452
0.0444646
0.0440216
0.0436146
0.0432428
0.0429051
0.0426011
0.0423305
0.0420933
0.0418901
0.041722
0.0415905
0.0414982
0.0414484
0.961694
0.892188
0.82909
0.771735
0.71953
0.67195
0.628527
0.588844
0.552528
0.519247
0.488705
0.460639
0.43481
0.411007
0.389041
0.368742
0.349957
0.33255
0.316398
0.301389
0.287425
0.274416
0.262279
0.250943
0.240342
0.230414
0.221105
0.212367
0.204155
0.196426
0.189145
0.182278
0.175792
0.16966
0.163856
0.158356
0.153138
0.148181
0.143467
0.138979
0.1347
0.130616
0.126713
0.122978
0.119399
0.115965
0.112666
0.109493
0.106436
0.103488
0.10064
0.097887
0.0952221
0.0926401
0.0901364
0.0877071
0.085349
0.0830597
0.0808373
0.0786807
0.0765892
0.0745627
0.0726015
0.0707062
0.0688774
0.067116
0.0654228
0.0637984
0.0622431
0.0607573
0.0593407
0.0579929
0.0567131
0.0555002
0.0543527
0.0532692
0.0522476
0.051286
0.0503822
0.049534
0.0487391
0.0479952
0.0473002
0.0466517
0.0460478
0.0454865
0.0449658
0.0444842
0.0440401
0.0436322
0.0432594
0.0429209
0.0426162
0.0423449
0.0421071
0.0419034
0.0417348
0.041603
0.0415104
0.0414604
0.961694
0.892188
0.82909
0.771735
0.71953
0.67195
0.628527
0.588844
0.552528
0.519247
0.488706
0.460639
0.43481
0.411008
0.389042
0.368743
0.349958
0.332551
0.316399
0.301391
0.287427
0.274418
0.262282
0.250946
0.240345
0.230417
0.221109
0.212371
0.204159