/*--------------------------------*- C++ -*----------------------------------*\
  =========                 |
  \\      /  F ield         | OpenFOAM: The Open Source CFD Toolbox
   \\    /   O peration     | Website:  https://openfoam.org
    \\  /    A nd           | Version:  11
     \\/     M anipulation  |
\*---------------------------------------------------------------------------*/
FoamFile
{
    format      ascii;
    class       volScalarField;
    location    "1602";
    object      p;
}
// * * * * * * * * * * * * * * * * * * * * * * * * * * * * * * * * * * * * * //

dimensions      [0 2 -2 0 0 0 0];

internalField   nonuniform List<scalar> 
10000
(
1.31514e-14
1.28224e-14
1.33457e-14
1.4407e-14
1.56263e-14
1.69188e-14
1.82812e-14
1.97136e-14
2.1217e-14
2.27944e-14
2.44503e-14
2.61896e-14
2.80174e-14
2.99393e-14
3.19608e-14
3.40875e-14
3.63253e-14
3.86803e-14
4.11584e-14
4.37659e-14
4.6509e-14
4.93942e-14
5.24281e-14
5.56175e-14
5.89691e-14
6.249e-14
6.61873e-14
7.00681e-14
7.41398e-14
7.841e-14
8.2886e-14
8.75756e-14
9.24865e-14
9.76264e-14
1.03003e-13
1.08624e-13
1.14498e-13
1.20632e-13
1.27034e-13
1.33712e-13
1.40673e-13
1.47924e-13
1.55473e-13
1.63327e-13
1.71491e-13
1.79973e-13
1.88779e-13
1.97912e-13
2.07379e-13
2.17184e-13
2.27329e-13
2.37817e-13
2.4865e-13
2.59828e-13
2.71351e-13
2.83217e-13
2.95421e-13
3.07958e-13
3.20822e-13
3.34004e-13
3.47491e-13
3.6127e-13
3.75323e-13
3.89631e-13
4.0417e-13
4.18912e-13
4.33826e-13
4.48875e-13
4.64017e-13
4.79204e-13
4.94382e-13
5.09489e-13
5.24455e-13
5.39202e-13
5.53641e-13
5.67671e-13
5.81181e-13
5.94043e-13
6.06115e-13
6.17239e-13
6.27234e-13
6.35899e-13
6.43009e-13
6.48309e-13
6.51512e-13
6.52298e-13
6.50301e-13
6.4511e-13
6.36258e-13
6.23207e-13
6.05339e-13
5.81933e-13
5.52116e-13
5.147e-13
4.67836e-13
4.10416e-13
3.49909e-13
2.73759e-13
1.54789e-13
1.13851e-14
2.40384e-14
2.25635e-14
2.17379e-14
2.21298e-14
2.30535e-14
2.42406e-14
2.56236e-14
2.71673e-14
2.88494e-14
3.06582e-14
3.25892e-14
3.46413e-14
3.68159e-14
3.9116e-14
4.15455e-14
4.41094e-14
4.68128e-14
4.96617e-14
5.26619e-14
5.58201e-14
5.91431e-14
6.26378e-14
6.63113e-14
7.01712e-14
7.42249e-14
7.84803e-14
8.29452e-14
8.76276e-14
9.25359e-14
9.76784e-14
1.03063e-13
1.08699e-13
1.14595e-13
1.20758e-13
1.27199e-13
1.33925e-13
1.40944e-13
1.48266e-13
1.55899e-13
1.6385e-13
1.72128e-13
1.80741e-13
1.89696e-13
1.99e-13
2.08659e-13
2.1868e-13
2.29068e-13
2.39829e-13
2.50966e-13
2.62482e-13
2.74379e-13
2.8666e-13
2.99323e-13
3.12367e-13
3.25788e-13
3.39583e-13
3.53744e-13
3.68263e-13
3.83127e-13
3.98324e-13
4.13836e-13
4.29642e-13
4.4572e-13
4.62042e-13
4.78575e-13
4.95282e-13
5.12121e-13
5.29043e-13
5.45994e-13
5.62911e-13
5.79724e-13
5.96352e-13
6.12707e-13
6.28687e-13
6.44179e-13
6.59057e-13
6.73177e-13
6.8638e-13
6.98488e-13
7.09299e-13
7.18589e-13
7.26107e-13
7.31569e-13
7.34659e-13
7.35021e-13
7.32254e-13
7.25906e-13
7.15464e-13
7.00346e-13
6.79886e-13
6.53318e-13
6.19755e-13
5.78149e-13
5.27165e-13
4.6512e-13
3.91413e-13
3.08049e-13
1.94895e-13
2.97141e-14
-1.071e-13
2.85392e-14
2.63504e-14
2.45469e-14
2.40547e-14
2.42375e-14
2.47958e-14
2.5632e-14
2.66888e-14
2.79257e-14
2.93173e-14
3.08486e-14
3.25109e-14
3.42993e-14
3.62117e-14
3.82483e-14
4.04104e-14
4.27002e-14
4.5121e-14
4.76764e-14
5.03706e-14
5.32084e-14
5.61947e-14
5.93347e-14
6.26339e-14
6.60979e-14
6.97326e-14
7.3544e-14
7.75384e-14
8.17219e-14
8.61009e-14
9.06818e-14
9.54712e-14
1.00476e-13
1.05701e-13
1.11155e-13
1.16843e-13
1.22772e-13
1.28947e-13
1.35376e-13
1.42064e-13
1.49016e-13
1.56238e-13
1.63735e-13
1.71511e-13
1.79572e-13
1.8792e-13
1.96559e-13
2.05491e-13
2.14717e-13
2.2424e-13
2.34057e-13
2.44169e-13
2.54573e-13
2.65266e-13
2.76241e-13
2.87493e-13
2.99012e-13
3.10789e-13
3.22809e-13
3.35059e-13
3.4752e-13
3.6017e-13
3.72987e-13
3.85941e-13
3.99001e-13
4.12131e-13
4.25289e-13
4.38428e-13
4.51496e-13
4.64433e-13
4.77173e-13
4.8964e-13
5.01751e-13
5.13412e-13
5.24518e-13
5.34951e-13
5.4458e-13
5.53259e-13
5.60824e-13
5.67092e-13
5.7186e-13
5.74899e-13
5.75955e-13
5.74744e-13
5.70944e-13
5.64199e-13
5.54104e-13
5.40206e-13
5.2199e-13
4.98872e-13
4.70185e-13
4.35167e-13
3.92936e-13
3.42429e-13
2.82453e-13
2.12492e-13
1.32376e-13
2.80572e-14
-1.26724e-13
-2.15846e-13
3.21167e-14
2.97829e-14
2.77647e-14
2.69093e-14
2.67165e-14
2.69363e-14
2.74762e-14
2.82747e-14
2.9285e-14
3.04753e-14
3.1825e-14
3.33206e-14
3.49533e-14
3.67178e-14
3.86115e-14
4.06334e-14
4.27841e-14
4.50648e-14
4.7478e-14
5.00265e-14
5.27138e-14
5.55437e-14
5.85203e-14
6.16482e-14
6.49321e-14
6.83767e-14
7.19872e-14
7.57689e-14
7.9727e-14
8.38669e-14
8.81941e-14
9.2714e-14
9.74322e-14
1.02354e-13
1.07485e-13
1.12831e-13
1.18396e-13
1.24186e-13
1.30206e-13
1.3646e-13
1.42953e-13
1.49689e-13
1.56671e-13
1.63903e-13
1.71387e-13
1.79127e-13
1.87122e-13
1.95375e-13
2.03886e-13
2.12653e-13
2.21674e-13
2.30948e-13
2.40469e-13
2.50233e-13
2.60232e-13
2.70457e-13
2.80899e-13
2.91544e-13
3.02377e-13
3.13382e-13
3.24538e-13
3.35823e-13
3.47209e-13
3.58668e-13
3.70165e-13
3.81661e-13
3.93113e-13
4.04472e-13
4.15685e-13
4.26688e-13
4.37414e-13
4.47787e-13
4.57719e-13
4.67118e-13
4.75875e-13
4.83873e-13
4.90979e-13
4.97048e-13
5.01917e-13
5.05403e-13
5.07304e-13
5.07397e-13
5.05429e-13
5.01123e-13
4.94166e-13
4.8421e-13
4.70866e-13
4.53697e-13
4.32214e-13
4.05863e-13
3.74024e-13
3.35992e-13
2.90965e-13
2.37997e-13
1.76073e-13
1.04699e-13
2.3087e-14
-8.17385e-14
-2.31463e-13
-2.98023e-13
3.50181e-14
3.27542e-14
3.07649e-14
2.977e-14
2.93791e-14
2.93996e-14
2.97549e-14
3.03879e-14
3.12521e-14
3.23144e-14
3.35517e-14
3.49479e-14
3.64918e-14
3.8176e-14
3.99958e-14
4.19489e-14
4.40341e-14
4.62518e-14
4.86029e-14
5.10896e-14
5.37143e-14
5.648e-14
5.93901e-14
6.24483e-14
6.56588e-14
6.90254e-14
7.25527e-14
7.62453e-14
8.01077e-14
8.41448e-14
8.8361e-14
9.27614e-14
9.73507e-14
1.02134e-13
1.07115e-13
1.12298e-13
1.17689e-13
1.23291e-13
1.29109e-13
1.35146e-13
1.41405e-13
1.47889e-13
1.54602e-13
1.61545e-13
1.68721e-13
1.76129e-13
1.8377e-13
1.91645e-13
1.99751e-13
2.08087e-13
2.16649e-13
2.25433e-13
2.34433e-13
2.43642e-13
2.53051e-13
2.6265e-13
2.72426e-13
2.82365e-13
2.9245e-13
3.02663e-13
3.12979e-13
3.23375e-13
3.33822e-13
3.44287e-13
3.54735e-13
3.65123e-13
3.75406e-13
3.85532e-13
3.95445e-13
4.05079e-13
4.14365e-13
4.23221e-13
4.3156e-13
4.39284e-13
4.46283e-13
4.52437e-13
4.5761e-13
4.61655e-13
4.64407e-13
4.65681e-13
4.65274e-13
4.62963e-13
4.58495e-13
4.51595e-13
4.41955e-13
4.29231e-13
4.13045e-13
3.92973e-13
3.68544e-13
3.39233e-13
3.04458e-13
2.63567e-13
2.15832e-13
1.60406e-13
9.6426e-14
2.36201e-14
-5.86908e-14
-1.63715e-13
-3.11588e-13
-3.62901e-13
3.72389e-14
3.51119e-14
3.32065e-14
3.21527e-14
3.16392e-14
3.15178e-14
3.17289e-14
3.22226e-14
3.29564e-14
3.38984e-14
3.50249e-14
3.63189e-14
3.77677e-14
3.93626e-14
4.10976e-14
4.29688e-14
4.49741e-14
4.71127e-14
4.93847e-14
5.17913e-14
5.43338e-14
5.70147e-14
5.98365e-14
6.28022e-14
6.59151e-14
6.91787e-14
7.25965e-14
7.61726e-14
7.99109e-14
8.38152e-14
8.78897e-14
9.21384e-14
9.65652e-14
1.01174e-13
1.05969e-13
1.10954e-13
1.16132e-13
1.21506e-13
1.2708e-13
1.32857e-13
1.38838e-13
1.45027e-13
1.51424e-13
1.5803e-13
1.64847e-13
1.71874e-13
1.7911e-13
1.86553e-13
1.94201e-13
2.02051e-13
2.10097e-13
2.18335e-13
2.26756e-13
2.35352e-13
2.44113e-13
2.53026e-13
2.62078e-13
2.71253e-13
2.80531e-13
2.89893e-13
2.99313e-13
3.08764e-13
3.18217e-13
3.27637e-13
3.36985e-13
3.46218e-13
3.55289e-13
3.64144e-13
3.72724e-13
3.80962e-13
3.88786e-13
3.96115e-13
4.02857e-13
4.08914e-13
4.14176e-13
4.1852e-13
4.21811e-13
4.239e-13
4.24624e-13
4.23799e-13
4.21224e-13
4.16679e-13
4.09917e-13
4.00669e-13
3.88635e-13
3.73487e-13
3.5486e-13
3.32354e-13
3.05527e-13
2.73895e-13
2.36924e-13
1.94034e-13
1.44586e-13
8.78507e-14
2.314e-14
-4.94987e-14
-1.30358e-13
-2.33737e-13
-3.839e-13
-4.15013e-13
3.89864e-14
3.70055e-14
3.52026e-14
3.41372e-14
3.35525e-14
3.33331e-14
3.3434e-14
3.38138e-14
3.44348e-14
3.52677e-14
3.62901e-14
3.74844e-14
3.88377e-14
4.03405e-14
4.1986e-14
4.37691e-14
4.56871e-14
4.77382e-14
4.99216e-14
5.22375e-14
5.46869e-14
5.72712e-14
5.99922e-14
6.28523e-14
6.58541e-14
6.90003e-14
7.22938e-14
7.5738e-14
7.9336e-14
8.30912e-14
8.70068e-14
9.10862e-14
9.53325e-14
9.9749e-14
1.04339e-13
1.09105e-13
1.1405e-13
1.19176e-13
1.24486e-13
1.29981e-13
1.35663e-13
1.41533e-13
1.47591e-13
1.53839e-13
1.60274e-13
1.66896e-13
1.73703e-13
1.80692e-13
1.87859e-13
1.952e-13
2.02708e-13
2.10377e-13
2.18197e-13
2.26159e-13
2.34251e-13
2.42459e-13
2.50769e-13
2.59162e-13
2.67618e-13
2.76115e-13
2.84626e-13
2.93124e-13
3.01576e-13
3.09947e-13
3.18196e-13
3.26279e-13
3.34147e-13
3.41744e-13
3.49011e-13
3.55879e-13
3.62275e-13
3.68117e-13
3.73313e-13
3.77765e-13
3.81361e-13
3.83979e-13
3.85487e-13
3.85737e-13
3.84566e-13
3.81795e-13
3.77229e-13
3.70651e-13
3.61825e-13
3.50491e-13
3.36362e-13
3.19128e-13
2.98444e-13
2.7394e-13
2.45209e-13
2.1181e-13
1.73271e-13
1.29086e-13
7.87149e-14
2.155e-14
-4.29312e-14
-1.14343e-13
-1.92515e-13
-2.93278e-13
-4.48232e-13
-4.57662e-13
4.0399e-14
3.85555e-14
3.6859e-14
3.58103e-14
3.51903e-14
3.49072e-14
3.49274e-14
3.52175e-14
3.57449e-14
3.64835e-14
3.74124e-14
3.8515e-14
3.97784e-14
4.11925e-14
4.27502e-14
4.4446e-14
4.62764e-14
4.82389e-14
5.0332e-14
5.25552e-14
5.49088e-14
5.73936e-14
6.00108e-14
6.27619e-14
6.5649e-14
6.86741e-14
7.18397e-14
7.51482e-14
7.86023e-14
8.22046e-14
8.59576e-14
8.9864e-14
9.39263e-14
9.8147e-14
1.02528e-13
1.07073e-13
1.11782e-13
1.16657e-13
1.21701e-13
1.26913e-13
1.32294e-13
1.37845e-13
1.43565e-13
1.49454e-13
1.55509e-13
1.61728e-13
1.68109e-13
1.74647e-13
1.81338e-13
1.88176e-13
1.95152e-13
2.0226e-13
2.0949e-13
2.16829e-13
2.24266e-13
2.31785e-13
2.39369e-13
2.46999e-13
2.54655e-13
2.62312e-13
2.69943e-13
2.77519e-13
2.85005e-13
2.92365e-13
2.99558e-13
3.06538e-13
3.13254e-13
3.19652e-13
3.25669e-13
3.31237e-13
3.36283e-13
3.40723e-13
3.44467e-13
3.47415e-13
3.49459e-13
3.50478e-13
3.50339e-13
3.48899e-13
3.45999e-13
3.41466e-13
3.35108e-13
3.26719e-13
3.16071e-13
3.02918e-13
2.86988e-13
2.67989e-13
2.45604e-13
2.19491e-13
1.8928e-13
1.5458e-13
1.14978e-13
7.00442e-14
1.93338e-14
-3.76443e-14
-1.0126e-13
-1.70809e-13
-2.45625e-13
-3.42803e-13
-5.01336e-13
-4.92559e-13
4.15472e-14
3.9829e-14
3.82343e-14
3.72172e-14
3.65847e-14
3.62616e-14
3.62236e-14
3.64433e-14
3.68933e-14
3.75507e-14
3.83964e-14
3.94149e-14
4.05938e-14
4.19232e-14
4.3396e-14
4.50059e-14
4.67492e-14
4.86229e-14
5.06249e-14
5.27541e-14
5.50103e-14
5.73936e-14
5.99047e-14
6.25444e-14
6.53143e-14
6.82158e-14
7.12507e-14
7.44209e-14
7.77283e-14
8.1175e-14
8.47629e-14
8.84938e-14
9.23699e-14
9.63926e-14
1.00564e-13
1.04885e-13
1.09357e-13
1.13981e-13
1.18757e-13
1.23685e-13
1.28767e-13
1.33999e-13
1.39382e-13
1.44914e-13
1.50592e-13
1.56412e-13
1.62372e-13
1.68465e-13
1.74686e-13
1.81028e-13
1.87483e-13
1.94041e-13
2.00691e-13
2.07421e-13
2.14218e-13
2.21064e-13
2.27943e-13
2.34833e-13
2.41713e-13
2.48557e-13
2.55338e-13
2.62024e-13
2.68581e-13
2.74971e-13
2.81153e-13
2.87078e-13
2.92698e-13
2.97955e-13
3.02788e-13
3.07128e-13
3.10902e-13
3.14026e-13
3.16412e-13
3.17962e-13
3.18566e-13
3.18108e-13
3.16458e-13
3.13477e-13
3.0901e-13
3.0289e-13
2.94934e-13
2.84944e-13
2.72704e-13
2.57981e-13
2.40523e-13
2.20058e-13
1.96294e-13
1.68919e-13
1.37604e-13
1.02003e-13
6.17611e-14
1.65207e-14
-3.40765e-14
-9.04169e-14
-1.52736e-13
-2.20062e-13
-2.91244e-13
-3.84024e-13
-5.42854e-13
-5.21683e-13
4.24755e-14
4.08703e-14
3.93702e-14
3.83915e-14
3.77605e-14
3.74139e-14
3.73336e-14
3.7498e-14
3.78837e-14
3.84707e-14
3.9242e-14
4.01832e-14
4.12829e-14
4.25314e-14
4.39216e-14
4.54472e-14
4.71041e-14
4.88889e-14
5.07991e-14
5.28332e-14
5.49905e-14
5.72705e-14
5.96734e-14
6.21994e-14
6.48496e-14
6.7625e-14
7.05267e-14
7.35559e-14
7.67141e-14
8.00027e-14
8.34228e-14
8.6976e-14
9.06635e-14
9.44863e-14
9.84453e-14
1.02541e-13
1.06775e-13
1.11146e-13
1.15654e-13
1.203e-13
1.25081e-13
1.29996e-13
1.35043e-13
1.4022e-13
1.45523e-13
1.50949e-13
1.56491e-13
1.62144e-13
1.67902e-13
1.73756e-13
1.79697e-13
1.85715e-13
1.91798e-13
1.97933e-13
2.04105e-13
2.10296e-13
2.16488e-13
2.22659e-13
2.28787e-13
2.34845e-13
2.40804e-13
2.46634e-13
2.52297e-13
2.57757e-13
2.62971e-13
2.67891e-13
2.72467e-13
2.76642e-13
2.80354e-13
2.83536e-13
2.86113e-13
2.88006e-13
2.89125e-13
2.89374e-13
2.88648e-13
2.86832e-13
2.83801e-13
2.79419e-13
2.73539e-13
2.65999e-13
2.56627e-13
2.45234e-13
2.31617e-13
2.15558e-13
1.96822e-13
1.7516e-13
1.50306e-13
1.21978e-13
8.98851e-14
5.37251e-14
1.31945e-14
-3.20011e-14
-8.21468e-14
-1.37547e-13
-1.9834e-13
-2.63381e-13
-3.31253e-13
-4.20301e-13
-5.78048e-13
-5.49158e-13
4.32156e-14
4.1712e-14
4.02993e-14
3.9362e-14
3.87413e-14
3.83823e-14
3.82719e-14
3.83925e-14
3.87244e-14
3.92501e-14
3.99544e-14
4.08245e-14
4.18498e-14
4.30211e-14
4.43313e-14
4.57744e-14
4.73457e-14
4.90419e-14
5.08602e-14
5.27986e-14
5.48559e-14
5.70313e-14
5.93244e-14
6.17351e-14
6.42639e-14
6.69111e-14
6.96776e-14
7.25638e-14
7.55708e-14
7.86992e-14
8.19499e-14
8.53237e-14
8.8821e-14
9.24425e-14
9.61882e-14
1.00058e-13
1.04053e-13
1.08171e-13
1.12412e-13
1.16774e-13
1.21256e-13
1.25856e-13
1.3057e-13
1.35395e-13
1.40328e-13
1.45362e-13
1.50492e-13
1.55712e-13
1.61014e-13
1.66389e-13
1.71827e-13
1.77316e-13
1.82845e-13
1.88399e-13
1.93961e-13
1.99515e-13
2.0504e-13
2.10515e-13
2.15916e-13
2.21215e-13
2.26384e-13
2.3139e-13
2.36197e-13
2.40768e-13
2.45058e-13
2.49021e-13
2.52606e-13
2.55756e-13
2.58411e-13
2.60504e-13
2.61962e-13
2.62705e-13
2.62647e-13
2.61694e-13
2.59743e-13
2.56685e-13
2.52397e-13
2.46751e-13
2.39604e-13
2.30804e-13
2.20187e-13
2.07576e-13
1.92782e-13
1.756e-13
1.55816e-13
1.33201e-13
1.07514e-13
7.85041e-14
4.59134e-14
9.48035e-15
-3.10529e-14
-7.5929e-14
-1.25375e-13
-1.79638e-13
-2.38793e-13
-3.01599e-13
-3.66549e-13
-4.52773e-13
-6.10332e-13
-5.74768e-13
4.37906e-14
4.23794e-14
4.1048e-14
4.01529e-14
3.95478e-14
3.91843e-14
3.90526e-14
3.91383e-14
3.94247e-14
3.98966e-14
4.05407e-14
4.13453e-14
4.23005e-14
4.33981e-14
4.4631e-14
4.59932e-14
4.74804e-14
4.90886e-14
5.08151e-14
5.26575e-14
5.46143e-14
5.66843e-14
5.88666e-14
6.11609e-14
6.3567e-14
6.60848e-14
6.87146e-14
7.14566e-14
7.43109e-14
7.7278e-14
8.03582e-14
8.35514e-14
8.68578e-14
9.02773e-14
9.38096e-14
9.7454e-14
1.0121e-13
1.05076e-13
1.0905e-13
1.13131e-13
1.17317e-13
1.21603e-13
1.25987e-13
1.30465e-13
1.35031e-13
1.3968e-13
1.44405e-13
1.49199e-13
1.54054e-13
1.58959e-13
1.63905e-13
1.68878e-13
1.73867e-13
1.78855e-13
1.83826e-13
1.88761e-13
1.93642e-13
1.98444e-13
2.03143e-13
2.07712e-13
2.12122e-13
2.16339e-13
2.20328e-13
2.2405e-13
2.27461e-13
2.30516e-13
2.33164e-13
2.35349e-13
2.3701e-13
2.38082e-13
2.38495e-13
2.38169e-13
2.37022e-13
2.34962e-13
2.31891e-13
2.27701e-13
2.22277e-13
2.15496e-13
2.07222e-13
1.97313e-13
1.85612e-13
1.71956e-13
1.56167e-13
1.38059e-13
1.17434e-13
9.40828e-14
6.77904e-14
3.83332e-14
5.48412e-15
-3.09833e-14
-7.12877e-14
-1.15629e-13
-1.64191e-13
-2.17176e-13
-2.74623e-13
-3.35224e-13
-3.97424e-13
-4.8101e-13
-6.37802e-13
-5.95414e-13
4.4219e-14
4.28929e-14
4.1637e-14
4.07841e-14
4.0198e-14
3.98353e-14
3.96887e-14
3.97466e-14
3.99942e-14
4.04186e-14
4.1008e-14
4.17519e-14
4.26413e-14
4.36682e-14
4.48264e-14
4.61098e-14
4.7514e-14
4.90353e-14
5.06704e-14
5.24171e-14
5.42732e-14
5.62374e-14
5.83085e-14
6.04856e-14
6.27682e-14
6.51558e-14
6.76481e-14
7.0245e-14
7.29461e-14
7.57513e-14
7.86602e-14
8.16727e-14
8.47881e-14
8.80058e-14
9.13249e-14
9.47441e-14
9.82623e-14
1.01877e-13
1.05588e-13
1.0939e-13
1.13281e-13
1.17258e-13
1.21316e-13
1.25451e-13
1.29657e-13
1.33927e-13
1.38255e-13
1.42632e-13
1.47048e-13
1.51495e-13
1.5596e-13
1.60431e-13
1.64894e-13
1.69333e-13
1.73731e-13
1.78069e-13
1.82326e-13
1.86479e-13
1.90504e-13
1.94373e-13
1.98055e-13
2.01518e-13
2.04727e-13
2.07641e-13
2.1022e-13
2.12416e-13
2.1418e-13
2.15456e-13
2.16186e-13
2.16307e-13
2.15747e-13
2.14432e-13
2.12281e-13
2.09207e-13
2.05113e-13
1.99899e-13
1.93454e-13
1.85661e-13
1.76392e-13
1.65513e-13
1.52879e-13
1.38337e-13
1.21723e-13
1.02865e-13
8.15842e-14
5.76914e-14
3.09929e-14
1.29067e-15
-3.16143e-14
-6.79179e-14
-1.07806e-13
-1.51444e-13
-1.9898e-13
-2.50588e-13
-3.06278e-13
-3.64695e-13
-4.24251e-13
-5.05225e-13
-6.60715e-13
-6.11993e-13
4.45162e-14
4.32689e-14
4.2084e-14
4.12724e-14
4.07073e-14
4.03492e-14
4.01927e-14
4.02278e-14
4.04422e-14
4.08242e-14
4.13637e-14
4.20511e-14
4.28782e-14
4.38377e-14
4.49235e-14
4.61301e-14
4.7453e-14
4.88883e-14
5.04329e-14
5.20841e-14
5.384e-14
5.56984e-14
5.7658e-14
5.97178e-14
6.18766e-14
6.41335e-14
6.64881e-14
6.89396e-14
7.14873e-14
7.41304e-14
7.68684e-14
7.97003e-14
8.26251e-14
8.56417e-14
8.87486e-14
9.19442e-14
9.52263e-14
9.85929e-14
1.02041e-13
1.05568e-13
1.09169e-13
1.12841e-13
1.16578e-13
1.20376e-13
1.24227e-13
1.28126e-13
1.32064e-13
1.36033e-13
1.40023e-13
1.44022e-13
1.4802e-13
1.52002e-13
1.55955e-13
1.59862e-13
1.63706e-13
1.67467e-13
1.71124e-13
1.74654e-13
1.78031e-13
1.81229e-13
1.84216e-13
1.86961e-13
1.89427e-13
1.91576e-13
1.93366e-13
1.94752e-13
1.95684e-13
1.9611e-13
1.9597e-13
1.95204e-13
1.93744e-13
1.91517e-13
1.88445e-13
1.84444e-13
1.79424e-13
1.73287e-13
1.65929e-13
1.5724e-13
1.471e-13
1.35382e-13
1.21954e-13
1.06671e-13
8.9385e-14
6.99384e-14
4.81676e-14
2.39032e-14
-3.02802e-15
-3.28014e-14
-6.55912e-14
-1.01567e-13
-1.40887e-13
-1.83688e-13
-2.30093e-13
-2.80252e-13
-3.34154e-13
-3.90411e-13
-4.47406e-13
-5.25798e-13
-6.79641e-13
-6.25254e-13
4.46949e-14
4.35214e-14
4.24034e-14
4.16324e-14
4.10896e-14
4.07386e-14
4.05756e-14
4.05922e-14
4.07776e-14
4.11217e-14
4.16153e-14
4.22498e-14
4.30178e-14
4.39127e-14
4.49286e-14
4.60603e-14
4.73034e-14
4.86541e-14
5.01091e-14
5.16658e-14
5.33217e-14
5.50747e-14
5.69232e-14
5.88657e-14
6.09007e-14
6.30273e-14
6.52443e-14
6.75506e-14
6.9945e-14
7.24267e-14
7.49942e-14
7.76464e-14
8.03817e-14
8.31985e-14
8.60949e-14
8.90686e-14
9.21172e-14
9.5238e-14
9.84275e-14
1.01682e-13
1.04997e-13
1.08369e-13
1.11791e-13
1.15258e-13
1.18763e-13
1.22298e-13
1.25856e-13
1.29427e-13
1.33e-13
1.36564e-13
1.40108e-13
1.43617e-13
1.47076e-13
1.50469e-13
1.53778e-13
1.56983e-13
1.60064e-13
1.62995e-13
1.65753e-13
1.68309e-13
1.70634e-13
1.72695e-13
1.74457e-13
1.75882e-13
1.76929e-13
1.77552e-13
1.77705e-13
1.77335e-13
1.76386e-13
1.74798e-13
1.72506e-13
1.6944e-13
1.65526e-13
1.60684e-13
1.54827e-13
1.47864e-13
1.39696e-13
1.30219e-13
1.19322e-13
1.06888e-13
9.27917e-14
7.69024e-14
5.90831e-14
3.91909e-14
1.70776e-14
-7.40867e-15
-3.44224e-14
-6.41184e-14
-9.66494e-14
-1.32162e-13
-1.70792e-13
-2.12653e-13
-2.57846e-13
-3.06503e-13
-3.58601e-13
-4.12724e-13
-4.67235e-13
-5.43073e-13
-6.95007e-13
-6.35615e-13
4.47668e-14
4.3663e-14
4.26087e-14
4.18771e-14
4.13569e-14
4.10149e-14
4.08481e-14
4.08493e-14
4.10092e-14
4.13189e-14
4.177e-14
4.2355e-14
4.30669e-14
4.38997e-14
4.4848e-14
4.59068e-14
4.70717e-14
4.83392e-14
4.97058e-14
5.11687e-14
5.27255e-14
5.43739e-14
5.61118e-14
5.79375e-14
5.98494e-14
6.1846e-14
6.3926e-14
6.60877e-14
6.83298e-14
7.06509e-14
7.30491e-14
7.55228e-14
7.80701e-14
8.0689e-14
8.3377e-14
8.61315e-14
8.89495e-14
9.18277e-14
9.47624e-14
9.77493e-14
1.00784e-13
1.03861e-13
1.06974e-13
1.10117e-13
1.13283e-13
1.16464e-13
1.1965e-13
1.22833e-13
1.26002e-13
1.29144e-13
1.32248e-13
1.35298e-13
1.38281e-13
1.41178e-13
1.43972e-13
1.46644e-13
1.4917e-13
1.51529e-13
1.53695e-13
1.5564e-13
1.57335e-13
1.58748e-13
1.59843e-13
1.60584e-13
1.60931e-13
1.6084e-13
1.60263e-13
1.59152e-13
1.57451e-13
1.55103e-13
1.52046e-13
1.48213e-13
1.43533e-13
1.3793e-13
1.31322e-13
1.23623e-13
1.14741e-13
1.04578e-13
9.3031e-14
7.99911e-14
6.53436e-14
4.89685e-14
3.07407e-14
1.05307e-14
-1.17949e-14
-3.63724e-14
-6.3339e-14
-9.28315e-14
-1.24983e-13
-1.59922e-13
-1.97763e-13
-2.38603e-13
-2.82524e-13
-3.29646e-13
-3.79933e-13
-4.31952e-13
-4.84049e-13
-5.57365e-13
-7.07168e-13
-6.43386e-13
4.47419e-14
4.37047e-14
4.27109e-14
4.20177e-14
4.15206e-14
4.11887e-14
4.10201e-14
4.10086e-14
4.11457e-14
4.14239e-14
4.18354e-14
4.23736e-14
4.30321e-14
4.38052e-14
4.46881e-14
4.56759e-14
4.67645e-14
4.79502e-14
4.92296e-14
5.06e-14
5.20588e-14
5.36034e-14
5.52316e-14
5.69415e-14
5.87311e-14
6.05987e-14
6.25425e-14
6.45608e-14
6.66518e-14
6.88135e-14
7.10439e-14
7.33411e-14
7.57025e-14
7.81258e-14
8.06081e-14
8.31463e-14
8.57372e-14
8.83768e-14
9.1061e-14
9.37853e-14
9.65443e-14
9.93325e-14
1.02143e-13
1.0497e-13
1.07806e-13
1.10641e-13
1.13466e-13
1.16273e-13
1.19049e-13
1.21782e-13
1.2446e-13
1.27068e-13
1.29591e-13
1.32012e-13
1.34311e-13
1.3647e-13
1.38468e-13
1.40279e-13
1.41881e-13
1.43245e-13
1.44342e-13
1.4514e-13
1.45607e-13
1.45704e-13
1.45394e-13
1.44633e-13
1.43377e-13
1.41576e-13
1.3918e-13
1.36133e-13
1.32374e-13
1.27842e-13
1.22467e-13
1.16179e-13
1.08901e-13
1.00551e-13
9.10443e-14
8.0289e-14
6.819e-14
5.46467e-14
3.95539e-14
2.28022e-14
4.27777e-15
-1.61364e-14
-3.85603e-14
-6.31154e-14
-8.99236e-14
-1.19106e-13
-1.50779e-13
-1.85053e-13
-2.22027e-13
-2.61783e-13
-3.04389e-13
-3.49953e-13
-3.98433e-13
-4.4838e-13
-4.98133e-13
-5.68959e-13
-7.16443e-13
-6.48833e-13
4.46304e-14
4.36565e-14
4.27208e-14
4.20647e-14
4.15905e-14
4.12696e-14
4.11007e-14
4.10784e-14
4.11952e-14
4.14442e-14
4.18188e-14
4.23126e-14
4.29201e-14
4.36358e-14
4.44554e-14
4.53742e-14
4.63881e-14
4.74936e-14
4.86874e-14
4.99666e-14
5.13286e-14
5.27706e-14
5.42903e-14
5.58855e-14
5.7554e-14
5.92939e-14
6.1103e-14
6.29793e-14
6.49207e-14
6.69248e-14
6.89895e-14
7.11122e-14
7.32903e-14
7.55208e-14
7.78005e-14
8.01261e-14
8.24937e-14
8.48991e-14
8.73378e-14
8.98047e-14
9.22942e-14
9.48003e-14
9.73163e-14
9.9835e-14
1.02348e-13
1.04847e-13
1.07323e-13
1.09764e-13
1.1216e-13
1.14498e-13
1.16766e-13
1.18947e-13
1.21028e-13
1.2299e-13
1.24816e-13
1.26485e-13
1.27976e-13
1.29266e-13
1.30331e-13
1.31143e-13
1.31674e-13
1.31893e-13
1.31767e-13
1.31259e-13
1.30334e-13
1.28948e-13
1.2706e-13
1.24621e-13
1.21584e-13
1.17894e-13
1.13495e-13
1.08327e-13
1.02326e-13
9.54251e-14
8.75519e-14
7.86307e-14
6.85817e-14
5.73208e-14
4.47596e-14
3.0806e-14
1.53639e-14
-1.66652e-15
-2.03881e-14
-4.09062e-14
-6.33285e-14
-8.77631e-14
-1.14318e-13
-1.431e-13
-1.74211e-13
-2.07747e-13
-2.43794e-13
-2.82419e-13
-3.2368e-13
-3.67676e-13
-4.14357e-13
-4.6227e-13
-5.09747e-13
-5.78118e-13
-7.23118e-13
-6.52189e-13
4.44408e-14
4.35275e-14
4.26477e-14
4.20276e-14
4.15762e-14
4.12669e-14
4.10988e-14
4.10672e-14
4.11656e-14
4.13876e-14
4.17273e-14
4.2179e-14
4.27376e-14
4.33981e-14
4.41563e-14
4.50079e-14
4.59489e-14
4.69759e-14
4.80857e-14
4.92754e-14
5.0542e-14
5.18828e-14
5.32955e-14
5.47774e-14
5.63263e-14
5.79401e-14
5.96162e-14
6.13523e-14
6.3146e-14
6.49948e-14
6.68961e-14
6.8847e-14
7.08446e-14
7.28855e-14
7.49663e-14
7.70831e-14
7.92318e-14
8.14079e-14
8.36063e-14
8.58216e-14
8.80481e-14
9.02793e-14
9.2508e-14
9.47269e-14
9.69274e-14
9.91006e-14
1.01237e-13
1.03325e-13
1.05354e-13
1.0731e-13
1.09182e-13
1.10954e-13
1.12609e-13
1.14132e-13
1.15504e-13
1.16705e-13
1.17715e-13
1.18509e-13
1.19064e-13
1.19353e-13
1.1935e-13
1.19022e-13
1.18339e-13
1.17265e-13
1.15764e-13
1.13797e-13
1.11322e-13
1.08295e-13
1.04667e-13
1.00389e-13
9.54073e-14
8.9665e-14
8.31022e-14
7.56554e-14
6.72579e-14
5.7839e-14
4.73247e-14
3.56375e-14
2.26964e-14
8.41697e-15
-7.2883e-15
-2.45097e-14
-4.33402e-14
-6.38744e-14
-8.62083e-14
-1.10438e-13
-1.3666e-13
-1.64967e-13
-1.95448e-13
-2.28188e-13
-2.63259e-13
-3.00719e-13
-3.40616e-13
-3.83042e-13
-4.27941e-13
-4.73858e-13
-5.19125e-13
-5.85078e-13
-7.27453e-13
-6.53666e-13
4.41815e-14
4.33265e-14
4.25004e-14
4.19153e-14
4.14863e-14
4.11888e-14
4.10224e-14
4.09829e-14
4.10644e-14
4.12611e-14
4.15679e-14
4.19796e-14
4.24913e-14
4.30986e-14
4.37973e-14
4.45835e-14
4.54535e-14
4.64039e-14
4.74314e-14
4.85331e-14
4.97059e-14
5.09473e-14
5.22545e-14
5.36249e-14
5.50561e-14
5.65455e-14
5.80906e-14
5.96887e-14
6.13371e-14
6.3033e-14
6.47737e-14
6.65559e-14
6.83763e-14
7.02312e-14
7.21169e-14
7.40294e-14
7.5964e-14
7.79158e-14
7.98796e-14
8.18498e-14
8.382e-14
8.57836e-14
8.77332e-14
8.9661e-14
9.15584e-14
9.3416e-14
9.52237e-14
9.69708e-14
9.86456e-14
1.00235e-13
1.01726e-13
1.03104e-13
1.04353e-13
1.05456e-13
1.06395e-13
1.0715e-13
1.077e-13
1.08023e-13
1.08096e-13
1.07891e-13
1.07383e-13
1.06542e-13
1.05336e-13
1.03733e-13
1.01696e-13
9.91895e-14
9.61721e-14
9.26017e-14
8.84334e-14
8.36194e-14
7.81094e-14
7.18501e-14
6.47851e-14
5.68555e-14
4.7999e-14
3.81503e-14
2.72413e-14
1.52007e-14
1.95423e-15
-1.25749e-14
-2.8466e-14
-4.58006e-14
-6.46623e-14
-8.51357e-14
-1.07306e-13
-1.3126e-13
-1.5708e-13
-1.8485e-13
-2.14647e-13
-2.46544e-13
-2.80605e-13
-3.16877e-13
-3.55401e-13
-3.96261e-13
-4.394e-13
-4.83362e-13
-5.26485e-13
-5.90058e-13
-7.29684e-13
-6.53456e-13
4.38606e-14
4.30615e-14
4.22871e-14
4.1736e-14
4.1329e-14
4.10435e-14
4.08793e-14
4.08329e-14
4.08988e-14
4.1072e-14
4.13475e-14
4.17209e-14
4.21876e-14
4.27435e-14
4.33847e-14
4.41075e-14
4.49084e-14
4.57838e-14
4.67308e-14
4.77463e-14
4.88273e-14
4.9971e-14
5.11747e-14
5.24356e-14
5.3751e-14
5.51183e-14
5.65346e-14
5.79971e-14
5.95029e-14
6.10488e-14
6.2632e-14
6.42488e-14
6.58956e-14
6.75685e-14
6.92635e-14
7.09762e-14
7.27018e-14
7.44351e-14
7.61704e-14
7.79019e-14
7.96231e-14
8.13269e-14
8.30058e-14
8.46516e-14
8.62556e-14
8.78083e-14
8.92992e-14
9.07176e-14
9.20517e-14
9.32885e-14
9.44146e-14
9.54153e-14
9.62749e-14
9.69765e-14
9.75023e-14
9.78327e-14
9.79476e-14
9.78246e-14
9.74406e-14
9.67706e-14
9.57879e-14
9.44644e-14
9.27699e-14
9.06725e-14
8.81383e-14
8.51314e-14
8.16137e-14
7.75449e-14
7.28825e-14
6.75815e-14
6.15947e-14
5.48721e-14
4.73612e-14
3.90071e-14
2.97523e-14
1.95365e-14
8.2972e-15
-4.03082e-15
-1.75151e-14
-3.22255e-14
-4.82335e-14
-6.56125e-14
-8.44372e-14
-1.04783e-13
-1.26726e-13
-1.50342e-13
-1.75705e-13
-2.02887e-13
-2.31957e-13
-2.62977e-13
-2.96002e-13
-3.31071e-13
-3.6822e-13
-4.07527e-13
-4.48931e-13
-4.90981e-13
-5.32025e-13
-5.93257e-13
-7.3003e-13
-6.51737e-13
4.34853e-14
4.274e-14
4.20156e-14
4.14976e-14
4.11121e-14
4.08386e-14
4.06771e-14
4.06245e-14
4.06761e-14
4.08269e-14
4.10728e-14
4.14095e-14
4.1833e-14
4.23393e-14
4.29248e-14
4.35861e-14
4.43196e-14
4.51221e-14
4.59906e-14
4.69217e-14
4.79129e-14
4.8961e-14
5.00632e-14
5.12167e-14
5.24187e-14
5.36662e-14
5.49563e-14
5.6286e-14
5.7652e-14
5.90512e-14
6.04801e-14
6.19351e-14
6.34123e-14
6.49076e-14
6.64166e-14
6.79346e-14
6.94567e-14
7.09772e-14
7.24904e-14
7.39901e-14
7.54697e-14
7.69218e-14
7.83386e-14
7.97119e-14
8.10326e-14
8.22911e-14
8.3477e-14
8.45793e-14
8.5586e-14
8.64844e-14
8.72609e-14
8.79009e-14
8.83889e-14
8.87081e-14
8.88409e-14
8.87685e-14
8.84705e-14
8.79255e-14
8.71109e-14
8.60024e-14
8.45743e-14
8.27993e-14
8.06485e-14
7.80915e-14
7.50956e-14
7.16268e-14
6.7649e-14
6.3124e-14
5.80116e-14
5.22699e-14
4.58544e-14
3.87187e-14
3.08141e-14
2.20896e-14
1.24921e-14
1.96672e-15
-9.54408e-15
-2.20996e-14
-3.57611e-14
-5.05916e-14
-6.66554e-14
-8.40182e-14
-1.02747e-13
-1.22908e-13
-1.44569e-13
-1.67797e-13
-1.92656e-13
-2.1921e-13
-2.47518e-13
-2.77636e-13
-3.09608e-13
-3.43469e-13
-3.79248e-13
-4.17018e-13
-4.56716e-13
-4.969e-13
-5.35929e-13
-5.94861e-13
-7.28693e-13
-6.48676e-13
4.30625e-14
4.23693e-14
4.16931e-14
4.12071e-14
4.08429e-14
4.05813e-14
4.04228e-14
4.03648e-14
4.04027e-14
4.05326e-14
4.07501e-14
4.10518e-14
4.14336e-14
4.18921e-14
4.24238e-14
4.30253e-14
4.36935e-14
4.4425e-14
4.52168e-14
4.60658e-14
4.69691e-14
4.79238e-14
4.8927e-14
4.99755e-14
5.10665e-14
5.21968e-14
5.33636e-14
5.45634e-14
5.57929e-14
5.70487e-14
5.83271e-14
5.96243e-14
6.09361e-14
6.22582e-14
6.35862e-14
6.49148e-14
6.6239e-14
6.75531e-14
6.88509e-14
7.0126e-14
7.13717e-14
7.25803e-14
7.3744e-14
7.48543e-14
7.5902e-14
7.68775e-14
7.777e-14
7.85688e-14
7.92617e-14
7.98361e-14
8.02784e-14
8.05741e-14
8.0708e-14
8.06635e-14
8.04233e-14
7.99688e-14
7.92803e-14
7.83371e-14
7.71171e-14
7.55967e-14
7.37512e-14
7.15544e-14
6.89787e-14
6.59948e-14
6.25718e-14
5.86775e-14
5.42776e-14
4.93362e-14
4.38156e-14
3.76764e-14
3.08775e-14
2.33754e-14
1.51253e-14
6.0802e-15
-3.80856e-15
-1.45914e-14
-2.63204e-14
-3.90495e-14
-5.28339e-14
-6.77302e-14
-8.37961e-14
-1.0109e-13
-1.19671e-13
-1.39599e-13
-1.60932e-13
-1.8373e-13
-2.08048e-13
-2.33942e-13
-2.61464e-13
-2.90661e-13
-3.21573e-13
-3.54226e-13
-3.88645e-13
-4.249e-13
-4.62925e-13
-5.01289e-13
-5.38365e-13
-5.95042e-13
-7.25862e-13
-6.44427e-13
4.25993e-14
4.19565e-14
4.13267e-14
4.08717e-14
4.05279e-14
4.02781e-14
4.0123e-14
4.00601e-14
4.00854e-14
4.01952e-14
4.03858e-14
4.06538e-14
4.09956e-14
4.14079e-14
4.18876e-14
4.24313e-14
4.3036e-14
4.36986e-14
4.44159e-14
4.51848e-14
4.60026e-14
4.68662e-14
4.77727e-14
4.87188e-14
4.97015e-14
5.07176e-14
5.1764e-14
5.28371e-14
5.39335e-14
5.50496e-14
5.61814e-14
5.7325e-14
5.8476e-14
5.96299e-14
6.07819e-14
6.19268e-14
6.30592e-14
6.41731e-14
6.52624e-14
6.63204e-14
6.734e-14
6.83138e-14
6.92335e-14
7.00905e-14
7.08756e-14
7.15792e-14
7.21903e-14
7.26982e-14
7.30909e-14
7.33557e-14
7.3479e-14
7.34469e-14
7.32439e-14
7.28541e-14
7.22603e-14
7.14445e-14
7.03874e-14
6.90691e-14
6.74679e-14
6.55614e-14
6.33256e-14
6.07356e-14
5.77649e-14
5.43856e-14
5.05686e-14
4.62832e-14
4.14972e-14
3.6177e-14
3.02872e-14
2.37912e-14
1.66507e-14
8.82566e-15
2.7465e-16
-9.0453e-15
-1.91787e-14
-3.01714e-14
-4.20707e-14
-5.4925e-14
-6.8784e-14
-8.36983e-14
-9.97192e-14
-1.16899e-13
-1.35289e-13
-1.54942e-13
-1.75909e-13
-1.98242e-13
-2.21991e-13
-2.47202e-13
-2.7392e-13
-3.02187e-13
-3.32035e-13
-3.63487e-13
-3.96562e-13
-4.31327e-13
-4.67714e-13
-5.04306e-13
-5.39492e-13
-5.93959e-13
-7.21716e-13
-6.39138e-13
4.21025e-14
4.15078e-14
4.09228e-14
4.04977e-14
4.0174e-14
3.99358e-14
3.97842e-14
3.97167e-14
3.97302e-14
3.9821e-14
3.99859e-14
4.02215e-14
4.05248e-14
4.08928e-14
4.13221e-14
4.18098e-14
4.23531e-14
4.29488e-14
4.35937e-14
4.42849e-14
4.50195e-14
4.57945e-14
4.66068e-14
4.74533e-14
4.83306e-14
4.92355e-14
5.01647e-14
5.11147e-14
5.20817e-14
5.30619e-14
5.40513e-14
5.50458e-14
5.60407e-14
5.70313e-14
5.80129e-14
5.89798e-14
5.99266e-14
6.08471e-14
6.17349e-14
6.25834e-14
6.33853e-14
6.41328e-14