/*--------------------------------*- C++ -*----------------------------------*\
  =========                 |
  \\      /  F ield         | OpenFOAM: The Open Source CFD Toolbox
   \\    /   O peration     | Website:  https://openfoam.org
    \\  /    A nd           | Version:  11
     \\/     M anipulation  |
\*---------------------------------------------------------------------------*/
FoamFile
{
    format      ascii;
    class       surfaceScalarField;
    location    "840";
    object      phi;
}
// * * * * * * * * * * * * * * * * * * * * * * * * * * * * * * * * * * * * * //

dimensions      [0 3 -1 0 0 0 0];

internalField   nonuniform List<scalar> 
19800
(
2e-05
-1.57479e-11
2e-05
-4.25608e-11
2e-05
-6.6767e-11
2e-05
-9.02349e-11
2e-05
-1.13858e-10
1.99999e-05
-1.38143e-10
1.99999e-05
-1.63497e-10
1.99999e-05
-1.90274e-10
1.99999e-05
-2.18794e-10
1.99999e-05
-2.4936e-10
1.99998e-05
-2.82271e-10
1.99998e-05
-3.17825e-10
1.99998e-05
-3.56324e-10
1.99998e-05
-3.9808e-10
1.99997e-05
-4.43416e-10
1.99997e-05
-4.92668e-10
1.99996e-05
-5.4619e-10
1.99996e-05
-6.04354e-10
1.99995e-05
-6.67552e-10
1.99995e-05
-7.36197e-10
1.99994e-05
-8.10727e-10
1.99994e-05
-8.91603e-10
1.99993e-05
-9.79317e-10
1.99992e-05
-1.07438e-09
1.99991e-05
-1.17735e-09
1.9999e-05
-1.28881e-09
1.99989e-05
-1.40935e-09
1.99988e-05
-1.53963e-09
1.99987e-05
-1.68034e-09
1.99986e-05
-1.83218e-09
1.99985e-05
-1.99593e-09
1.99983e-05
-2.17238e-09
1.99982e-05
-2.36237e-09
1.9998e-05
-2.56679e-09
1.99979e-05
-2.78657e-09
1.99977e-05
-3.02269e-09
1.99975e-05
-3.27616e-09
1.99973e-05
-3.54807e-09
1.99971e-05
-3.83954e-09
1.99968e-05
-4.15175e-09
1.99966e-05
-4.48593e-09
1.99963e-05
-4.84336e-09
1.9996e-05
-5.22539e-09
1.99957e-05
-5.63341e-09
1.99954e-05
-6.06887e-09
1.99951e-05
-6.5333e-09
1.99947e-05
-7.02825e-09
1.99943e-05
-7.55538e-09
1.99939e-05
-8.11636e-09
1.99935e-05
-8.71294e-09
1.9993e-05
-9.34695e-09
1.99926e-05
-1.00202e-08
1.99921e-05
-1.07348e-08
1.99915e-05
-1.14925e-08
1.9991e-05
-1.22955e-08
1.99904e-05
-1.31458e-08
1.99897e-05
-1.40456e-08
1.99891e-05
-1.49971e-08
1.99884e-05
-1.60026e-08
1.99877e-05
-1.70644e-08
1.99869e-05
-1.81847e-08
1.99861e-05
-1.93659e-08
1.99853e-05
-2.06105e-08
1.99844e-05
-2.19208e-08
1.99834e-05
-2.32993e-08
1.99825e-05
-2.47484e-08
1.99815e-05
-2.62705e-08
1.99804e-05
-2.7868e-08
1.99793e-05
-2.95432e-08
1.99782e-05
-3.12985e-08
1.9977e-05
-3.31359e-08
1.99757e-05
-3.50577e-08
1.99744e-05
-3.70658e-08
1.99731e-05
-3.9162e-08
1.99717e-05
-4.13477e-08
1.99703e-05
-4.36245e-08
1.99688e-05
-4.59931e-08
1.99673e-05
-4.84542e-08
1.99657e-05
-5.10078e-08
1.99641e-05
-5.36534e-08
1.99624e-05
-5.63898e-08
1.99607e-05
-5.92147e-08
1.9959e-05
-6.21251e-08
1.99572e-05
-6.51162e-08
1.99554e-05
-6.81821e-08
1.99536e-05
-7.13147e-08
1.99518e-05
-7.45036e-08
1.995e-05
-7.77355e-08
1.99481e-05
-8.0994e-08
1.99463e-05
-8.42581e-08
1.99445e-05
-8.75023e-08
1.99428e-05
-9.0695e-08
1.99412e-05
-9.37978e-08
1.99396e-05
-9.67641e-08
1.99381e-05
-9.95383e-08
1.99367e-05
-1.02055e-07
1.99356e-05
-1.04237e-07
1.99346e-05
-1.05999e-07
1.99338e-05
-1.07251e-07
-1.07961e-07
2e-05
-1.27338e-11
2e-05
-3.62093e-11
2e-05
-5.82721e-11
2e-05
-7.99234e-11
2e-05
-1.01771e-10
1.99999e-05
-1.2424e-10
1.99999e-05
-1.47695e-10
1.99999e-05
-1.72463e-10
1.99999e-05
-1.98848e-10
1.99999e-05
-2.27139e-10
1.99998e-05
-2.5762e-10
1.99998e-05
-2.90577e-10
1.99998e-05
-3.26298e-10
1.99998e-05
-3.65083e-10
1.99997e-05
-4.07241e-10
1.99997e-05
-4.53096e-10
1.99996e-05
-5.02985e-10
1.99996e-05
-5.57267e-10
1.99995e-05
-6.16318e-10
1.99995e-05
-6.80536e-10
1.99994e-05
-7.50341e-10
1.99994e-05
-8.2618e-10
1.99993e-05
-9.08523e-10
1.99992e-05
-9.9787e-10
1.99991e-05
-1.09475e-09
1.9999e-05
-1.19972e-09
1.99989e-05
-1.31337e-09
1.99988e-05
-1.43633e-09
1.99987e-05
-1.56926e-09
1.99986e-05
-1.71286e-09
1.99985e-05
-1.86785e-09
1.99983e-05
-2.03502e-09
1.99982e-05
-2.21519e-09
1.9998e-05
-2.4092e-09
1.99979e-05
-2.61797e-09
1.99977e-05
-2.84245e-09
1.99975e-05
-3.08363e-09
1.99973e-05
-3.34255e-09
1.99971e-05
-3.62032e-09
1.99968e-05
-3.91809e-09
1.99966e-05
-4.23704e-09
1.99963e-05
-4.57845e-09
1.9996e-05
-4.94361e-09
1.99957e-05
-5.33389e-09
1.99954e-05
-5.75072e-09
1.99951e-05
-6.19558e-09
1.99947e-05
-6.67001e-09
1.99943e-05
-7.17561e-09
1.99939e-05
-7.71404e-09
1.99935e-05
-8.28703e-09
1.99931e-05
-8.89636e-09
1.99926e-05
-9.54386e-09
1.99921e-05
-1.02315e-08
1.99916e-05
-1.09611e-08
1.9991e-05
-1.17348e-08
1.99904e-05
-1.25547e-08
1.99898e-05
-1.34228e-08
1.99891e-05
-1.43414e-08
1.99884e-05
-1.53128e-08
1.99877e-05
-1.63391e-08
1.9987e-05
-1.74228e-08
1.99862e-05
-1.85661e-08
1.99853e-05
-1.97716e-08
1.99844e-05
-2.10416e-08
1.99835e-05
-2.23787e-08
1.99825e-05
-2.37851e-08
1.99815e-05
-2.52636e-08
1.99805e-05
-2.68164e-08
1.99794e-05
-2.8446e-08
1.99782e-05
-3.01547e-08
1.99771e-05
-3.19451e-08
1.99758e-05
-3.38191e-08
1.99745e-05
-3.57791e-08
1.99732e-05
-3.78269e-08
1.99718e-05
-3.99643e-08
1.99704e-05
-4.21929e-08
1.99689e-05
-4.4514e-08
1.99674e-05
-4.69284e-08
1.99658e-05
-4.94366e-08
1.99642e-05
-5.20386e-08
1.99625e-05
-5.47335e-08
1.99608e-05
-5.75198e-08
1.99591e-05
-6.03949e-08
1.99574e-05
-6.3355e-08
1.99556e-05
-6.63948e-08
1.99538e-05
-6.95073e-08
1.99519e-05
-7.2683e-08
1.99501e-05
-7.591e-08
1.99483e-05
-7.91729e-08
1.99465e-05
-8.24526e-08
1.99447e-05
-8.57249e-08
1.9943e-05
-8.89603e-08
1.99413e-05
-9.21223e-08
1.99397e-05
-9.51666e-08
1.99382e-05
-9.80399e-08
1.99368e-05
-1.00679e-07
1.99356e-05
-1.03008e-07
1.99345e-05
-1.0494e-07
1.99337e-05
-1.06381e-07
-1.0726e-07
2e-05
-1.04668e-11
2e-05
-3.05905e-11
2e-05
-5.02072e-11
2e-05
-6.9846e-11
2e-05
-8.98256e-11
1.99999e-05
-1.1044e-10
1.99999e-05
-1.31988e-10
1.99999e-05
-1.54757e-10
1.99999e-05
-1.79024e-10
1.99999e-05
-2.05061e-10
1.99998e-05
-2.33137e-10
1.99998e-05
-2.63524e-10
1.99998e-05
-2.96497e-10
1.99998e-05
-3.32342e-10
1.99997e-05
-3.71354e-10
1.99997e-05
-4.13844e-10
1.99996e-05
-4.60137e-10
1.99996e-05
-5.10574e-10
1.99995e-05
-5.65518e-10
1.99995e-05
-6.2535e-10
1.99994e-05
-6.90475e-10
1.99994e-05
-7.61321e-10
1.99993e-05
-8.38342e-10
1.99992e-05
-9.2202e-10
1.99991e-05
-1.01286e-09
1.9999e-05
-1.11141e-09
1.9999e-05
-1.21823e-09
1.99988e-05
-1.33393e-09
1.99987e-05
-1.45915e-09
1.99986e-05
-1.59456e-09
1.99985e-05
-1.74088e-09
1.99984e-05
-1.89885e-09
1.99982e-05
-2.06926e-09
1.99981e-05
-2.25295e-09
1.99979e-05
-2.45081e-09
1.99977e-05
-2.66374e-09
1.99975e-05
-2.89272e-09
1.99973e-05
-3.13876e-09
1.99971e-05
-3.40294e-09
1.99969e-05
-3.68637e-09
1.99966e-05
-3.99022e-09
1.99964e-05
-4.31572e-09
1.99961e-05
-4.66414e-09
1.99958e-05
-5.03682e-09
1.99955e-05
-5.43515e-09
1.99951e-05
-5.86059e-09
1.99948e-05
-6.31464e-09
1.99944e-05
-6.79888e-09
1.9994e-05
-7.31493e-09
1.99936e-05
-7.86449e-09
1.99931e-05
-8.44931e-09
1.99927e-05
-9.0712e-09
1.99922e-05
-9.73206e-09
1.99916e-05
-1.04338e-08
1.99911e-05
-1.11784e-08
1.99905e-05
-1.1968e-08
1.99899e-05
-1.28047e-08
1.99892e-05
-1.36906e-08
1.99885e-05
-1.4628e-08
1.99878e-05
-1.56192e-08
1.99871e-05
-1.66664e-08
1.99863e-05
-1.77721e-08
1.99854e-05
-1.89388e-08
1.99846e-05
-2.01687e-08
1.99836e-05
-2.14645e-08
1.99827e-05
-2.28286e-08
1.99817e-05
-2.42636e-08
1.99806e-05
-2.57719e-08
1.99796e-05
-2.73561e-08
1.99784e-05
-2.90187e-08
1.99772e-05
-3.0762e-08
1.9976e-05
-3.25886e-08
1.99747e-05
-3.45005e-08
1.99734e-05
-3.65001e-08
1.9972e-05
-3.85893e-08
1.99706e-05
-4.07699e-08
1.99691e-05
-4.30435e-08
1.99676e-05
-4.54112e-08
1.9966e-05
-4.7874e-08
1.99644e-05
-5.04321e-08
1.99628e-05
-5.30853e-08
1.99611e-05
-5.58326e-08
1.99594e-05
-5.8672e-08
1.99576e-05
-6.16005e-08
1.99558e-05
-6.46134e-08
1.9954e-05
-6.77047e-08
1.99522e-05
-7.08659e-08
1.99504e-05
-7.40863e-08
1.99486e-05
-7.73516e-08
1.99468e-05
-8.06441e-08
1.9945e-05
-8.39412e-08
1.99432e-05
-8.72148e-08
1.99416e-05
-9.043e-08
1.99399e-05
-9.35443e-08
1.99384e-05
-9.65054e-08
1.9937e-05
-9.92504e-08
1.99357e-05
-1.01703e-07
1.99345e-05
-1.03771e-07
1.99335e-05
-1.05349e-07
-1.06345e-07
2e-05
-8.6392e-12
2e-05
-2.56536e-11
2e-05
-4.27263e-11
2e-05
-6.02001e-11
2e-05
-7.82e-11
2e-05
-9.68941e-11
1.99999e-05
-1.16502e-10
1.99999e-05
-1.37262e-10
1.99999e-05
-1.59418e-10
1.99999e-05
-1.8322e-10
1.99999e-05
-2.08916e-10
1.99998e-05
-2.36763e-10
1.99998e-05
-2.67023e-10
1.99998e-05
-2.99966e-10
1.99997e-05
-3.35875e-10
1.99997e-05
-3.75046e-10
1.99996e-05
-4.17789e-10
1.99996e-05
-4.64433e-10
1.99996e-05
-5.15323e-10
1.99995e-05
-5.70826e-10
1.99994e-05
-6.3133e-10
1.99994e-05
-6.97248e-10
1.99993e-05
-7.69014e-10
1.99992e-05
-8.47093e-10
1.99991e-05
-9.31974e-10
1.99991e-05
-1.02418e-09
1.9999e-05
-1.12425e-09
1.99989e-05
-1.23278e-09
1.99988e-05
-1.35038e-09
1.99986e-05
-1.47771e-09
1.99985e-05
-1.61544e-09
1.99984e-05
-1.76432e-09
1.99982e-05
-1.9251e-09
1.99981e-05
-2.09859e-09
1.99979e-05
-2.28565e-09
1.99977e-05
-2.48716e-09
1.99976e-05
-2.70408e-09
1.99973e-05
-2.93739e-09
1.99971e-05
-3.18812e-09
1.99969e-05
-3.45738e-09
1.99967e-05
-3.74629e-09
1.99964e-05
-4.05605e-09
1.99961e-05
-4.38792e-09
1.99958e-05
-4.74318e-09
1.99955e-05
-5.12322e-09
1.99952e-05
-5.52944e-09
1.99948e-05
-5.96332e-09
1.99945e-05
-6.42641e-09
1.99941e-05
-6.92031e-09
1.99937e-05
-7.44667e-09
1.99932e-05
-8.00723e-09
1.99927e-05
-8.60378e-09
1.99922e-05
-9.23815e-09
1.99917e-05
-9.91228e-09
1.99912e-05
-1.06281e-08
1.99906e-05
-1.13878e-08
1.999e-05
-1.21932e-08
1.99893e-05
-1.30468e-08
1.99887e-05
-1.39505e-08
1.9988e-05
-1.49068e-08
1.99872e-05
-1.5918e-08
1.99864e-05
-1.69864e-08
1.99856e-05
-1.81144e-08
1.99847e-05
-1.93047e-08
1.99838e-05
-2.05595e-08
1.99829e-05
-2.18816e-08
1.99819e-05
-2.32735e-08
1.99809e-05
-2.47377e-08
1.99798e-05
-2.62768e-08
1.99786e-05
-2.78935e-08
1.99775e-05
-2.95901e-08
1.99763e-05
-3.13694e-08
1.9975e-05
-3.32337e-08
1.99737e-05
-3.51852e-08
1.99723e-05
-3.72264e-08
1.99709e-05
-3.93591e-08
1.99694e-05
-4.15852e-08
1.99679e-05
-4.39063e-08
1.99664e-05
-4.63235e-08
1.99648e-05
-4.88376e-08
1.99632e-05
-5.14488e-08
1.99615e-05
-5.41566e-08
1.99598e-05
-5.69597e-08
1.9958e-05
-5.98556e-08
1.99563e-05
-6.28405e-08
1.99545e-05
-6.59092e-08
1.99526e-05
-6.90541e-08
1.99508e-05
-7.22655e-08
1.9949e-05
-7.55303e-08
1.99472e-05
-7.88319e-08
1.99454e-05
-8.21489e-08
1.99436e-05
-8.54546e-08
1.99419e-05
-8.87153e-08
1.99403e-05
-9.18892e-08
1.99387e-05
-9.49244e-08
1.99372e-05
-9.77571e-08
1.99358e-05
-1.00308e-07
1.99345e-05
-1.02479e-07
1.99333e-05
-1.0415e-07
-1.05216e-07
2e-05
-7.09155e-12
2e-05
-2.12747e-11
2e-05
-3.58392e-11
2e-05
-5.10829e-11
2e-05
-6.70244e-11
2e-05
-8.37355e-11
1.99999e-05
-1.01364e-10
1.99999e-05
-1.20098e-10
1.99999e-05
-1.40144e-10
1.99999e-05
-1.61722e-10
1.99999e-05
-1.85063e-10
1.99998e-05
-2.10402e-10
1.99998e-05
-2.37986e-10
1.99998e-05
-2.68072e-10
1.99997e-05
-3.00926e-10
1.99997e-05
-3.36831e-10
1.99997e-05
-3.76083e-10
1.99996e-05
-4.18994e-10
1.99996e-05
-4.65897e-10
1.99995e-05
-5.17142e-10
1.99994e-05
-5.731e-10
1.99994e-05
-6.34168e-10
1.99993e-05
-7.00764e-10
1.99992e-05
-7.73332e-10
1.99992e-05
-8.52345e-10
1.99991e-05
-9.38302e-10
1.9999e-05
-1.03173e-09
1.99989e-05
-1.1332e-09
1.99988e-05
-1.2433e-09
1.99987e-05
-1.36266e-09
1.99985e-05
-1.49195e-09
1.99984e-05
-1.63187e-09
1.99983e-05
-1.78315e-09
1.99981e-05
-1.94659e-09
1.9998e-05
-2.12301e-09
1.99978e-05
-2.31328e-09
1.99976e-05
-2.51831e-09
1.99974e-05
-2.73907e-09
1.99972e-05
-2.97655e-09
1.9997e-05
-3.23183e-09
1.99967e-05
-3.50601e-09
1.99965e-05
-3.80026e-09
1.99962e-05
-4.11579e-09
1.99959e-05
-4.45388e-09
1.99956e-05
-4.81586e-09
1.99953e-05
-5.20312e-09
1.99949e-05
-5.6171e-09
1.99946e-05
-6.05933e-09
1.99942e-05
-6.53136e-09
1.99938e-05
-7.03483e-09
1.99933e-05
-7.57144e-09
1.99929e-05
-8.14295e-09
1.99924e-05
-8.75119e-09
1.99919e-05
-9.39803e-09
1.99913e-05
-1.00855e-08
1.99907e-05
-1.08155e-08
1.99901e-05
-1.15901e-08
1.99895e-05
-1.24116e-08
1.99888e-05
-1.32822e-08
1.99881e-05
-1.4204e-08
1.99874e-05
-1.51795e-08
1.99866e-05
-1.62109e-08
1.99858e-05
-1.73009e-08
1.99849e-05
-1.84518e-08
1.99841e-05
-1.96662e-08
1.99831e-05
-2.09467e-08
1.99821e-05
-2.22958e-08
1.99811e-05
-2.37163e-08
1.99801e-05
-2.52107e-08
1.99789e-05
-2.67818e-08
1.99778e-05
-2.84322e-08
1.99766e-05
-3.01646e-08
1.99753e-05
-3.19814e-08
1.9974e-05
-3.38853e-08
1.99727e-05
-3.58785e-08
1.99713e-05
-3.79635e-08
1.99698e-05
-4.01423e-08
1.99684e-05
-4.24166e-08
1.99668e-05
-4.47882e-08
1.99652e-05
-4.72581e-08
1.99636e-05
-4.98269e-08
1.9962e-05
-5.24946e-08
1.99603e-05
-5.52605e-08
1.99585e-05
-5.81228e-08
1.99568e-05
-6.10783e-08
1.9955e-05
-6.41225e-08
1.99532e-05
-6.72489e-08
1.99513e-05
-7.04483e-08
1.99495e-05
-7.3709e-08
1.99477e-05
-7.70151e-08
1.99459e-05
-8.03464e-08
1.99441e-05
-8.3677e-08
1.99424e-05
-8.6974e-08
1.99407e-05
-9.01959e-08
1.99391e-05
-9.32906e-08
1.99375e-05
-9.61927e-08
1.9936e-05
-9.88196e-08
1.99346e-05
-1.01066e-07
1.99332e-05
-1.02801e-07
-1.03886e-07
2e-05
-5.74515e-12
2e-05
-1.73461e-11
2e-05
-2.95028e-11
2e-05
-4.25226e-11
2e-05
-5.63733e-11
2e-05
-7.10635e-11
1.99999e-05
-8.66842e-11
1.99999e-05
-1.03376e-10
1.99999e-05
-1.2131e-10
1.99999e-05
-1.40679e-10
1.99999e-05
-1.61687e-10
1.99998e-05
-1.84552e-10
1.99998e-05
-2.09502e-10
1.99998e-05
-2.36778e-10
1.99997e-05
-2.66633e-10
1.99997e-05
-2.99332e-10
1.99997e-05
-3.35159e-10
1.99996e-05
-3.7441e-10
1.99996e-05
-4.17402e-10
1.99995e-05
-4.64471e-10
1.99995e-05
-5.15972e-10
1.99994e-05
-5.72283e-10
1.99993e-05
-6.33808e-10
1.99993e-05
-7.00971e-10
1.99992e-05
-7.74227e-10
1.99991e-05
-8.54057e-10
1.9999e-05
-9.4097e-10
1.99989e-05
-1.03551e-09
1.99988e-05
-1.13825e-09
1.99987e-05
-1.24979e-09
1.99986e-05
-1.37078e-09
1.99984e-05
-1.5019e-09
1.99983e-05
-1.64386e-09
1.99982e-05
-1.79743e-09
1.9998e-05
-1.9634e-09
1.99978e-05
-2.14262e-09
1.99976e-05
-2.33597e-09
1.99974e-05
-2.54438e-09
1.99972e-05
-2.76884e-09
1.9997e-05
-3.01038e-09
1.99968e-05
-3.27008e-09
1.99965e-05
-3.54907e-09
1.99963e-05
-3.84854e-09
1.9996e-05
-4.16974e-09
1.99957e-05
-4.51396e-09
1.99954e-05
-4.88256e-09
1.9995e-05
-5.27697e-09
1.99947e-05
-5.69866e-09
1.99943e-05
-6.14917e-09
1.99939e-05
-6.6301e-09
1.99934e-05
-7.14313e-09
1.9993e-05
-7.68999e-09
1.99925e-05
-8.27247e-09
1.9992e-05
-8.89245e-09
1.99915e-05
-9.55185e-09
1.99909e-05
-1.02527e-08
1.99903e-05
-1.0997e-08
1.99897e-05
-1.17869e-08
1.9989e-05
-1.26247e-08
1.99883e-05
-1.35125e-08
1.99876e-05
-1.44528e-08
1.99868e-05
-1.54478e-08
1.9986e-05
-1.65001e-08
1.99852e-05
-1.76122e-08
1.99843e-05
-1.87866e-08
1.99834e-05
-2.00259e-08
1.99824e-05
-2.13329e-08
1.99814e-05
-2.27101e-08
1.99804e-05
-2.41604e-08
1.99793e-05
-2.56864e-08
1.99782e-05
-2.72909e-08
1.9977e-05
-2.89767e-08
1.99757e-05
-3.07464e-08
1.99744e-05
-3.26029e-08
1.99731e-05
-3.45485e-08
1.99717e-05
-3.65859e-08
1.99703e-05
-3.87174e-08
1.99688e-05
-4.09451e-08
1.99673e-05
-4.32708e-08
1.99658e-05
-4.56961e-08
1.99642e-05
-4.8222e-08
1.99625e-05
-5.08489e-08
1.99608e-05
-5.35767e-08
1.99591e-05
-5.6404e-08
1.99574e-05
-5.93284e-08
1.99556e-05
-6.2346e-08
1.99538e-05
-6.54511e-08
1.9952e-05
-6.86353e-08
1.99501e-05
-7.18876e-08
1.99483e-05
-7.51931e-08
1.99465e-05
-7.85322e-08
1.99447e-05
-8.18798e-08
1.99429e-05
-8.52033e-08
1.99412e-05
-8.84613e-08
1.99395e-05
-9.16008e-08
1.99379e-05
-9.45548e-08
1.99363e-05
-9.72373e-08
1.99348e-05
-9.95376e-08
1.99333e-05
-1.01316e-07
-1.02385e-07
2e-05
-4.55107e-12
2e-05
-1.3786e-11
2e-05
-2.3663e-11
2e-05
-3.45124e-11
2e-05
-4.62819e-11
2e-05
-5.89427e-11
1.99999e-05
-7.25448e-11
1.99999e-05
-8.71908e-11
1.99999e-05
-1.03019e-10
1.99999e-05
-1.20194e-10
1.99999e-05
-1.38896e-10
1.99998e-05
-1.59322e-10
1.99998e-05
-1.81684e-10
1.99998e-05
-2.06203e-10
1.99998e-05
-2.33118e-10
1.99997e-05
-2.62679e-10
1.99997e-05
-2.95154e-10
1.99996e-05
-3.30825e-10
1.99996e-05
-3.69994e-10
1.99995e-05
-4.12979e-10
1.99995e-05
-4.60122e-10
1.99994e-05
-5.11784e-10
1.99993e-05
-5.68349e-10
1.99993e-05
-6.30228e-10
1.99992e-05
-6.97854e-10
1.99991e-05
-7.7169e-10
1.9999e-05
-8.52227e-10
1.99989e-05
-9.39986e-10
1.99988e-05
-1.03552e-09
1.99987e-05
-1.13941e-09
1.99986e-05
-1.25228e-09
1.99985e-05
-1.37479e-09
1.99983e-05
-1.50763e-09
1.99982e-05
-1.65153e-09
1.9998e-05
-1.80726e-09
1.99979e-05
-1.97565e-09
1.99977e-05
-2.15756e-09
1.99975e-05
-2.35388e-09
1.99973e-05
-2.56558e-09
1.99971e-05
-2.79365e-09
1.99969e-05
-3.03915e-09
1.99966e-05
-3.30318e-09
1.99963e-05
-3.5869e-09
1.99961e-05
-3.89152e-09
1.99958e-05
-4.21832e-09
1.99955e-05
-4.56862e-09
1.99951e-05
-4.94381e-09
1.99948e-05
-5.34534e-09
1.99944e-05
-5.77472e-09
1.9994e-05
-6.23352e-09
1.99936e-05
-6.72339e-09
1.99931e-05
-7.24603e-09
1.99927e-05
-7.80321e-09
1.99922e-05
-8.39678e-09
1.99916e-05
-9.02863e-09
1.99911e-05
-9.70076e-09
1.99905e-05
-1.04152e-08
1.99899e-05
-1.11741e-08
1.99893e-05
-1.19796e-08
1.99886e-05
-1.2834e-08
1.99879e-05
-1.37395e-08
1.99871e-05
-1.46987e-08
1.99863e-05
-1.5714e-08
1.99855e-05
-1.67878e-08
1.99846e-05
-1.79227e-08
1.99837e-05
-1.91215e-08
1.99828e-05
-2.03868e-08
1.99818e-05
-2.17213e-08
1.99808e-05
-2.31278e-08
1.99797e-05
-2.46092e-08
1.99786e-05
-2.61683e-08
1.99774e-05
-2.7808e-08
1.99762e-05
-2.95311e-08
1.99749e-05
-3.13404e-08
1.99736e-05
-3.32387e-08
1.99723e-05
-3.52287e-08
1.99709e-05
-3.73129e-08
1.99694e-05
-3.94938e-08
1.99679e-05
-4.17735e-08
1.99664e-05
-4.41538e-08
1.99648e-05
-4.66362e-08
1.99631e-05
-4.92215e-08
1.99615e-05
-5.19099e-08
1.99598e-05
-5.47008e-08
1.9958e-05
-5.75921e-08
1.99563e-05
-6.05808e-08
1.99545e-05
-6.36614e-08
1.99527e-05
-6.68267e-08
1.99509e-05
-7.0066e-08
1.9949e-05
-7.33652e-08
1.99472e-05
-7.67053e-08
1.99454e-05
-8.00616e-08
1.99436e-05
-8.34017e-08
1.99418e-05
-8.66838e-08
1.99401e-05
-8.98541e-08
1.99383e-05
-9.28439e-08
1.99367e-05
-9.55642e-08
1.9935e-05
-9.78998e-08
1.99334e-05
-9.9704e-08
-1.00752e-07
2e-05
-3.47563e-12
2e-05
-1.05342e-11
2e-05
-1.82702e-11
2e-05
-2.70311e-11
2e-05
-3.67607e-11
2e-05
-4.74112e-11
1.99999e-05
-5.90053e-11
1.99999e-05
-7.16165e-11
1.99999e-05
-8.53551e-11
1.99999e-05
-1.00359e-10
1.99999e-05
-1.16787e-10
1.99998e-05
-1.34816e-10
1.99998e-05
-1.54638e-10
1.99998e-05
-1.76459e-10
1.99998e-05
-2.005e-10
1.99997e-05
-2.26997e-10
1.99997e-05
-2.56201e-10
1.99996e-05
-2.8838e-10
1.99996e-05
-3.2382e-10
1.99995e-05
-3.62826e-10
1.99995e-05
-4.0572e-10
1.99994e-05
-4.52849e-10
1.99994e-05
-5.04581e-10
1.99993e-05
-5.61307e-10
1.99992e-05
-6.23445e-10
1.99991e-05
-6.91437e-10
1.99991e-05
-7.65756e-10
1.9999e-05
-8.46902e-10
1.99989e-05
-9.35406e-10
1.99988e-05
-1.03183e-09
1.99986e-05
-1.13678e-09
1.99985e-05
-1.25088e-09
1.99984e-05
-1.37481e-09
1.99982e-05
-1.50927e-09
1.99981e-05
-1.65501e-09
1.99979e-05
-1.81283e-09
1.99978e-05
-1.98355e-09
1.99976e-05
-2.16806e-09
1.99974e-05
-2.36728e-09
1.99972e-05
-2.58219e-09
1.99969e-05
-2.8138e-09
1.99967e-05
-3.0632e-09
1.99964e-05
-3.33151e-09
1.99962e-05
-3.61993e-09
1.99959e-05
-3.92967e-09
1.99956e-05
-4.26206e-09
1.99952e-05
-4.61843e-09
1.99949e-05
-5.00022e-09
1.99945e-05
-5.40891e-09
1.99941e-05
-5.84603e-09
1.99937e-05
-6.3132e-09
1.99933e-05
-6.8121e-09
1.99928e-05
-7.34448e-09
1.99924e-05
-7.91214e-09
1.99918e-05
-8.51698e-09
1.99913e-05
-9.16096e-09
1.99907e-05
-9.84609e-09
1.99901e-05
-1.05745e-08
1.99895e-05
-1.13483e-08
1.99888e-05
-1.21698e-08
1.99881e-05
-1.30413e-08
1.99874e-05
-1.39652e-08
1.99866e-05
-1.4944e-08
1.99858e-05
-1.59801e-08
1.9985e-05
-1.70762e-08
1.99841e-05
-1.8235e-08
1.99832e-05
-1.94592e-08
1.99822e-05
-2.07516e-08
1.99812e-05
-2.2115e-08
1.99801e-05
-2.35523e-08
1.9979e-05
-2.50665e-08
1.99779e-05
-2.66605e-08
1.99767e-05
-2.83373e-08
1.99755e-05
-3.00998e-08
1.99742e-05
-3.1951e-08
1.99728e-05
-3.38937e-08
1.99714e-05
-3.59308e-08
1.997e-05
-3.80648e-08
1.99685e-05
-4.02981e-08
1.9967e-05
-4.2633e-08
1.99655e-05
-4.50712e-08
1.99638e-05
-4.76139e-08
1.99622e-05
-5.02617e-08
1.99605e-05
-5.30144e-08
1.99588e-05
-5.58706e-08
1.9957e-05
-5.88275e-08
1.99553e-05
-6.18806e-08
1.99535e-05
-6.50228e-08
1.99516e-05
-6.82443e-08
1.99498e-05
-7.15313e-08
1.9948e-05
-7.48654e-08
1.99461e-05
-7.8222e-08
1.99443e-05
-8.15688e-08
1.99425e-05
-8.48636e-08
1.99407e-05
-8.80518e-08
1.99389e-05
-9.10628e-08
1.99371e-05
-9.38053e-08
1.99354e-05
-9.61606e-08
1.99337e-05
-9.7978e-08
-9.90148e-08
2e-05
-2.4902e-12
2e-05
-7.54795e-12
2e-05
-1.32848e-11
2e-05
-2.00538e-11
2e-05
-2.78064e-11
2e-05
-3.64884e-11
2e-05
-4.61054e-11
1.99999e-05
-5.67087e-11
1.99999e-05
-6.83861e-11
1.99999e-05
-8.1253e-11
1.99999e-05
-9.54475e-11
1.99999e-05
-1.11127e-10
1.99998e-05
-1.28465e-10
1.99998e-05
-1.4765e-10
1.99998e-05
-1.68889e-10
1.99997e-05
-1.92401e-10
1.99997e-05
-2.18422e-10
1.99997e-05
-2.47205e-10
1.99996e-05
-2.7902e-10
1.99996e-05
-3.14157e-10
1.99995e-05
-3.52923e-10
1.99995e-05
-3.95647e-10
1.99994e-05
-4.42682e-10
1.99993e-05
-4.94401e-10
1.99993e-05
-5.51203e-10
1.99992e-05
-6.13515e-10
1.99991e-05
-6.81787e-10
1.9999e-05
-7.56502e-10
1.99989e-05
-8.38171e-10
1.99988e-05
-9.27337e-10
1.99987e-05
-1.02458e-09
1.99986e-05
-1.1305e-09
1.99984e-05
-1.24575e-09
1.99983e-05
-1.37102e-09
1.99981e-05
-1.50703e-09
1.9998e-05
-1.65455e-09
1.99978e-05
-1.81437e-09
1.99976e-05
-1.98737e-09
1.99974e-05
-2.17443e-09
1.99972e-05
-2.3765e-09
1.9997e-05
-2.59457e-09
1.99968e-05
-2.8297e-09
1.99965e-05
-3.08298e-09
1.99963e-05
-3.35557e-09
1.9996e-05
-3.64868e-09
1.99957e-05
-3.96357e-09
1.99954e-05
-4.30157e-09
1.9995e-05
-4.66407e-09
1.99947e-05
-5.05253e-09
1.99943e-05
-5.46846e-09
1.99939e-05
-5.91344e-09
1.99935e-05
-6.38913e-09
1.9993e-05
-6.89724e-09
1.99926e-05
-7.43955e-09
1.99921e-05
-8.01795e-09
1.99915e-05
-8.63435e-09
1.9991e-05
-9.29076e-09
1.99904e-05
-9.98927e-09
1.99898e-05
-1.0732e-08
1.99891e-05
-1.15213e-08
1.99885e-05
-1.23594e-08
1.99877e-05
-1.32486e-08
1.9987e-05
-1.41915e-08
1.99862e-05
-1.51907e-08
1.99854e-05
-1.62486e-08
1.99845e-05
-1.73681e-08
1.99836e-05
-1.85518e-08
1.99826e-05
-1.98026e-08
1.99817e-05
-2.11235e-08
1.99806e-05
-2.25173e-08
1.99795e-05
-2.39871e-08
1.99784e-05
-2.55359e-08
1.99772e-05
-2.71668e-08
1.9976e-05
-2.88828e-08
1.99748e-05
-3.06871e-08
1.99735e-05
-3.25827e-08
1.99721e-05
-3.45726e-08
1.99707e-05
-3.66596e-08
1.99692e-05
-3.88463e-08
1.99677e-05
-4.11352e-08
1.99662e-05
-4.35283e-08
1.99646e-05
-4.60273e-08
1.9963e-05
-4.86331e-08
1.99613e-05
-5.13459e-08
1.99596e-05
-5.41646e-08
1.99579e-05
-5.7087e-08
1.99561e-05
-6.0109e-08
1.99543e-05
-6.3224e-08
1.99525e-05
-6.64227e-08
1.99506e-05
-6.96916e-08
1.99488e-05
-7.30127e-08
1.99469e-05
-7.63614e-08
1.99451e-05
-7.97055e-08
1.99432e-05
-8.30024e-08
1.99413e-05
-8.61967e-08
1.99395e-05
-8.92163e-08
1.99377e-05
-9.1968e-08
1.99358e-05
-9.43305e-08
1.9934e-05
-9.61495e-08
-9.71818e-08
2e-05
-1.55251e-12
2e-05
-4.81523e-12
2e-05
-8.68106e-12
2e-05
-1.35548e-11
2e-05
-1.94073e-11
2e-05
-2.61808e-11
2e-05
-3.38691e-11
1.99999e-05
-4.25077e-11
1.99999e-05
-5.21659e-11
1.99999e-05
-6.29404e-11
1.99999e-05
-7.49506e-11
1.99999e-05
-8.83355e-11
1.99998e-05
-1.03252e-10
1.99998e-05
-1.19873e-10
1.99998e-05
-1.38388e-10
1.99997e-05
-1.59001e-10
1.99997e-05
-1.81933e-10
1.99997e-05
-2.07422e-10
1.99996e-05
-2.35724e-10
1.99996e-05
-2.6711e-10
1.99995e-05
-3.01876e-10
1.99995e-05
-3.40332e-10
1.99994e-05
-3.82815e-10
1.99993e-05
-4.29683e-10
1.99993e-05
-4.81315e-10
1.99992e-05
-5.38121e-10
1.99991e-05
-6.00533e-10
1.9999e-05
-6.69013e-10
1.99989e-05
-7.44053e-10
1.99988e-05
-8.26176e-10
1.99987e-05
-9.15935e-10
1.99986e-05
-1.01392e-09
1.99985e-05
-1.12075e-09
1.99984e-05
-1.2371e-09
1.99982e-05
-1.36366e-09
1.99981e-05
-1.50117e-09
1.99979e-05
-1.65041e-09
1.99977e-05
-1.81221e-09
1.99975e-05
-1.98745e-09
1.99973e-05
-2.17704e-09
1.99971e-05
-2.38194e-09
1.99969e-05
-2.60319e-09
1.99967e-05
-2.84184e-09
1.99964e-05
-3.09902e-09
1.99961e-05
-3.37592e-09
1.99958e-05
-3.67377e-09
1.99955e-05
-3.99386e-09
1.99952e-05
-4.33757e-09
1.99949e-05
-4.70631e-09
1.99945e-05
-5.10157e-09
1.99941e-05
-5.5249e-09
1.99937e-05
-5.97792e-09
1.99933e-05
-6.46233e-09
1.99928e-05
-6.97989e-09
1.99923e-05
-7.53244e-09
1.99918e-05
-8.12189e-09
1.99913e-05
-8.75021e-09
1.99907e-05
-9.41949e-09
1.99901e-05
-1.01319e-08
1.99895e-05
-1.08895e-08
1.99888e-05
-1.16948e-08
1.99881e-05
-1.25501e-08
1.99874e-05
-1.34579e-08
1.99866e-05
-1.44207e-08
1.99858e-05
-1.54411e-08
1.99849e-05
-1.65219e-08
1.9984e-05
-1.76658e-08
1.99831e-05
-1.88758e-08
1.99821e-05
-2.01547e-08
1.99811e-05
-2.15055e-08
1.99801e-05
-2.29314e-08
1.9979e-05
-2.44355e-08
1.99778e-05
-2.60209e-08
1.99766e-05
-2.76908e-08
1.99754e-05
-2.94485e-08
1.99741e-05
-3.12971e-08
1.99728e-05
-3.32398e-08
1.99714e-05
-3.52795e-08
1.997e-05
-3.74192e-08
1.99685e-05
-3.96615e-08
1.9967e-05
-4.20088e-08
1.99654e-05
-4.44629e-08
1.99638e-05
-4.70252e-08
1.99622e-05
-4.96961e-08
1.99605e-05
-5.2475e-08
1.99587e-05
-5.536e-08
1.9957e-05
-5.83474e-08
1.99552e-05
-6.1431e-08
1.99534e-05
-6.46017e-08
1.99515e-05
-6.78467e-08
1.99497e-05
-7.11478e-08
1.99478e-05
-7.44809e-08
1.99459e-05
-7.78134e-08
1.9944e-05
-8.11025e-08
1.99421e-05
-8.42922e-08
1.99402e-05
-8.73095e-08
1.99383e-05
-9.00597e-08
1.99364e-05
-9.24194e-08
1.99344e-05
-9.42309e-08
-9.52597e-08
2e-05
-7.03865e-13
2e-05
-2.29488e-12
2e-05
-4.41209e-12
2e-05
-7.50213e-12
2e-05
-1.15461e-11
2e-05
-1.64862e-11
2e-05
-2.23098e-11
1.99999e-05
-2.90411e-11
1.99999e-05
-3.67353e-11
1.99999e-05
-4.54732e-11
1.99999e-05
-5.5358e-11
1.99999e-05
-6.65127e-11
1.99998e-05
-7.9078e-11
1.99998e-05
-9.32114e-11
1.99998e-05
-1.09087e-10
1.99998e-05
-1.26893e-10
1.99997e-05
-1.46838e-10
1.99997e-05
-1.69142e-10
1.99996e-05
-1.94048e-10
1.99996e-05
-2.21812e-10
1.99995e-05
-2.52713e-10
1.99995e-05
-2.87047e-10
1.99994e-05
-3.25134e-10
1.99994e-05
-3.67314e-10
1.99993e-05
-4.13952e-10
1.99992e-05
-4.65437e-10
1.99992e-05
-5.22185e-10
1.99991e-05
-5.84639e-10
1.9999e-05
-6.5327e-10
1.99989e-05
-7.2858e-10
1.99988e-05
-8.11104e-10
1.99987e-05
-9.01407e-10
1.99985e-05
-1.00009e-09
1.99984e-05
-1.1078e-09
1.99983e-05
-1.2252e-09
1.99981e-05
-1.35302e-09
1.9998e-05
-1.492e-09
1.99978e-05
-1.64296e-09
1.99976e-05
-1.80673e-09
1.99974e-05
-1.98421e-09
1.99972e-05
-2.17634e-09
1.9997e-05
-2.38411e-09
1.99968e-05
-2.60855e-09
1.99965e-05
-2.85077e-09
1.99963e-05
-3.11192e-09
1.9996e-05
-3.3932e-09
1.99957e-05
-3.69589e-09
1.99954e-05
-4.02132e-09
1.9995e-05
-4.37087e-09
1.99947e-05
-4.746e-09
1.99943e-05
-5.14825e-09
1.99939e-05
-5.5792e-09
1.99935e-05
-6.04052e-09
1.9993e-05
-6.53394e-09
1.99926e-05
-7.06127e-09
1.99921e-05
-7.62441e-09
1.99915e-05
-8.22532e-09
1.9991e-05
-8.86604e-09
1.99904e-05
-9.5487e-09
1.99898e-05
-1.02755e-08
1.99891e-05
-1.10487e-08
1.99885e-05
-1.18708e-08
1.99877e-05
-1.27441e-08
1.9987e-05
-1.36713e-08
1.99862e-05
-1.46549e-08
1.99854e-05
-1.56977e-08
1.99845e-05
-1.68025e-08
1.99836e-05
-1.79722e-08
1.99827e-05
-1.92098e-08
1.99817e-05
-2.05183e-08
1.99807e-05
-2.19008e-08
1.99796e-05
-2.33606e-08
1.99785e-05
-2.49009e-08
1.99773e-05
-2.6525e-08
1.99761e-05
-2.82363e-08
1.99748e-05
-3.00379e-08
1.99735e-05
-3.19333e-08
1.99722e-05
-3.39256e-08
1.99708e-05
-3.60179e-08
1.99693e-05
-3.8213e-08
1.99678e-05
-4.05135e-08
1.99663e-05
-4.29216e-08
1.99647e-05
-4.54387e-08
1.99631e-05
-4.80658e-08
1.99614e-05
-5.08024e-08
1.99597e-05
-5.36471e-08
1.99579e-05
-5.65963e-08
1.99561e-05
-5.96442e-08
1.99543e-05
-6.27822e-08
1.99525e-05
-6.59973e-08
1.99506e-05
-6.9272e-08
1.99487e-05
-7.25819e-08
1.99468e-05
-7.58945e-08
1.99448e-05
-7.91668e-08
1.99429e-05
-8.23424e-08
1.99409e-05
-8.53476e-08
1.9939e-05
-8.8087e-08
1.9937e-05
-9.04361e-08
1.9935e-05
-9.22342e-08
-9.32636e-08
2e-05
4.50229e-14
2e-05
4.10706e-14
2e-05
-4.52381e-13
2e-05
-1.87316e-12
2e-05
-4.20694e-12
2e-05
-7.39907e-12
2e-05
-1.14338e-11
1.99999e-05
-1.63274e-11
1.99999e-05
-2.21241e-11
1.99999e-05
-2.88919e-11
1.99999e-05
-3.67202e-11
1.99999e-05
-4.57173e-11
1.99999e-05
-5.60095e-11
1.99998e-05
-6.77396e-11
1.99998e-05
-8.10667e-11
1.99998e-05
-9.61664e-11
1.99997e-05
-1.1323e-10
1.99997e-05
-1.32466e-10
1.99997e-05
-1.541e-10
1.99996e-05
-1.78376e-10
1.99996e-05
-2.05555e-10
1.99995e-05
-2.3592e-10
1.99995e-05
-2.69773e-10
1.99994e-05
-3.0744e-10
1.99993e-05
-3.49267e-10
1.99993e-05
-3.95628e-10
1.99992e-05
-4.46918e-10
1.99991e-05
-5.03564e-10
1.9999e-05
-5.66016e-10
1.99989e-05
-6.34758e-10
1.99988e-05
-7.10302e-10
1.99987e-05
-7.93194e-10
1.99986e-05
-8.84014e-10
1.99985e-05
-9.83379e-10
1.99983e-05
-1.09194e-09
1.99982e-05
-1.21039e-09
1.99981e-05
-1.33946e-09
1.99979e-05
-1.47993e-09
1.99977e-05
-1.63261e-09
1.99975e-05
-1.79838e-09
1.99973e-05
-1.97814e-09
1.99971e-05
-2.17285e-09
1.99969e-05
-2.38354e-09
1.99967e-05
-2.61126e-09
1.99964e-05
-2.85714e-09
1.99961e-05
-3.12236e-09
1.99958e-05
-3.40816e-09
1.99955e-05
-3.71583e-09
1.99952e-05
-4.04675e-09
1.99949e-05
-4.40234e-09
1.99945e-05
-4.78409e-09
1.99941e-05
-5.19357e-09
1.99937e-05
-5.63242e-09
1.99933e-05
-6.10235e-09
1.99928e-05
-6.60514e-09
1.99923e-05
-7.14265e-09
1.99918e-05
-7.71682e-09
1.99913e-05
-8.32968e-09
1.99907e-05
-8.98334e-09
1.99901e-05
-9.67998e-09
1.99895e-05
-1.04219e-08
1.99888e-05
-1.12114e-08
1.99882e-05
-1.2051e-08
1.99874e-05
-1.29433e-08
1.99867e-05
-1.38908e-08
1.99859e-05
-1.48963e-08
1.9985e-05
-1.59627e-08
1.99841e-05
-1.70928e-08
1.99832e-05
-1.82897e-08
1.99823e-05
-1.95564e-08
1.99813e-05
-2.08961e-08
1.99802e-05
-2.23121e-08
1.99791e-05
-2.38078e-08
1.9978e-05
-2.53864e-08
1.99768e-05
-2.70514e-08
1.99756e-05
-2.88062e-08
1.99743e-05
-3.06542e-08
1.9973e-05
-3.25988e-08
1.99716e-05
-3.46432e-08
1.99702e-05
-3.67904e-08
1.99687e-05
-3.90432e-08
1.99672e-05
-4.14039e-08
1.99656e-05
-4.38743e-08
1.9964e-05
-4.64555e-08
1.99623e-05
-4.91475e-08
1.99606e-05
-5.19488e-08
1.99589e-05
-5.48563e-08
1.99571e-05
-5.78645e-08
1.99553e-05
-6.09648e-08
1.99535e-05
-6.41447e-08
1.99516e-05
-6.73865e-08
1.99497e-05
-7.06662e-08
1.99477e-05
-7.39513e-08
1.99457e-05
-7.71985e-08
1.99437e-05
-8.03513e-08
1.99417e-05
-8.33359e-08
1.99397e-05
-8.60563e-08
1.99377e-05
-8.83884e-08
1.99356e-05
-9.0172e-08
-9.12069e-08
2e-05
7.3282e-13
2e-05
2.18958e-12
2e-05
3.20577e-12
2e-05
3.34639e-12
2e-05
2.62268e-12
2e-05
1.08694e-12
2e-05
-1.24312e-12
2e-05