/*--------------------------------*- C++ -*----------------------------------*\
  =========                 |
  \\      /  F ield         | OpenFOAM: The Open Source CFD Toolbox
   \\    /   O peration     | Website:  https://openfoam.org
    \\  /    A nd           | Version:  11
     \\/     M anipulation  |
\*---------------------------------------------------------------------------*/
FoamFile
{
    format      ascii;
    class       volScalarField;
    location    "314";
    object      nut;
}
// * * * * * * * * * * * * * * * * * * * * * * * * * * * * * * * * * * * * * //

dimensions      [0 2 -1 0 0 0 0];

internalField   nonuniform List<scalar> 
10000
(
0.000977111
0.000936683
0.000899604
0.000865553
0.000834243
0.000805414
0.000778835
0.000754296
0.000731608
0.000710604
0.00069113
0.000673049
0.000656237
0.000640581
0.000625983
0.000612349
0.000599597
0.000587654
0.00057645
0.000565926
0.000556026
0.000546699
0.0005379
0.000529588
0.000521725
0.000514278
0.000507217
0.000500513
0.000494143
0.000488085
0.00048232
0.000476831
0.000471603
0.000466626
0.000461889
0.000457385
0.00045311
0.000449062
0.000445241
0.00044165
0.000438295
0.000435185
0.000432331
0.000429747
0.000427451
0.000425463
0.000423806
0.000422506
0.000421589
0.000421087
0.000421028
0.000421446
0.00042237
0.000423832
0.00042586
0.000428478
0.000431708
0.000435566
0.000440061
0.000445199
0.000450974
0.000457376
0.000464387
0.000471982
0.00048013
0.000488795
0.000497932
0.000507493
0.000517426
0.000527676
0.000538188
0.000548905
0.000559773
0.000570738
0.000581748
0.000592743
0.000603691
0.000614544
0.000625257
0.000635792
0.000646113
0.000656185
0.000665979
0.000675464
0.000684614
0.000693404
0.00070181
0.000709808
0.000717377
0.000724492
0.000731131
0.00073727
0.000742882
0.000747939
0.00075241
0.000756262
0.000759453
0.000761938
0.000763663
0.000764563
0.000977111
0.000936683
0.000899604
0.000865554
0.000834244
0.000805415
0.000778836
0.000754296
0.000731609
0.000710605
0.000691131
0.00067305
0.000656238
0.000640583
0.000625984
0.00061235
0.000599598
0.000587655
0.000576452
0.000565928
0.000556027
0.0005467
0.000537902
0.00052959
0.000521727
0.00051428
0.000507219
0.000500516
0.000494146
0.000488088
0.000482323
0.000476834
0.000471606
0.000466629
0.000461892
0.000457389
0.000453114
0.000449066
0.000445245
0.000441655
0.0004383
0.00043519
0.000432336
0.000429752
0.000427456
0.000425468
0.00042381
0.000422509
0.000421592
0.000421088
0.000421029
0.000421445
0.000422368
0.000423828
0.000425854
0.00042847
0.000431697
0.000435552
0.000440045
0.000445179
0.000450952
0.000457352
0.000464361
0.000471954
0.0004801
0.000488762
0.000497895
0.000507452
0.000517381
0.000527628
0.000538136
0.000548852
0.000559719
0.000570683
0.000581693
0.000592688
0.000603636
0.000614489
0.000625204
0.00063574
0.000646062
0.000656136
0.00066593
0.000675417
0.000684569
0.000693361
0.000701768
0.000709769
0.000717339
0.000724457
0.000731098
0.000737238
0.000742852
0.00074791
0.000752383
0.000756235
0.000759428
0.000761914
0.00076364
0.000764541
0.000977111
0.000936684
0.000899605
0.000865555
0.000834245
0.000805416
0.000778837
0.000754298
0.000731611
0.000710607
0.000691133
0.000673052
0.00065624
0.000640585
0.000625986
0.000612352
0.000599601
0.000587658
0.000576454
0.00056593
0.00055603
0.000546704
0.000537905
0.000529593
0.000521731
0.000514284
0.000507223
0.00050052
0.00049415
0.000488093
0.000482328
0.000476839
0.000471612
0.000466635
0.000461898
0.000457395
0.00045312
0.000449072
0.000445252
0.000441661
0.000438306
0.000435196
0.000432341
0.000429757
0.00042746
0.000425471
0.000423812
0.00042251
0.000421591
0.000421085
0.000421022
0.000421435
0.000422355
0.000423811
0.000425831
0.000428442
0.000431664
0.000435513
0.00044
0.000445127
0.000450893
0.000457287
0.00046429
0.000471877
0.000480017
0.000488673
0.0004978
0.000507351
0.000517274
0.000527516
0.000538021
0.000548734
0.000559599
0.000570563
0.000581572
0.000592567
0.000603517
0.000614372
0.000625088
0.000635627
0.000645952
0.000656029
0.000665827
0.000675318
0.000684474
0.00069327
0.000701681
0.000709686
0.00071726
0.000724382
0.000731027
0.000737172
0.000742789
0.000747851
0.000752327
0.000756183
0.000759377
0.000761866
0.000763593
0.000764495
0.000977111
0.000936684
0.000899606
0.000865556
0.000834246
0.000805418
0.000778839
0.0007543
0.000731613
0.000710609
0.000691136
0.000673055
0.000656243
0.000640588
0.000625989
0.000612356
0.000599605
0.000587661
0.000576458
0.000565935
0.000556035
0.000546708
0.00053791
0.000529598
0.000521736
0.00051429
0.000507229
0.000500526
0.000494157
0.000488099
0.000482335
0.000476846
0.000471619
0.000466643
0.000461906
0.000457403
0.000453129
0.000449081
0.00044526
0.00044167
0.000438315
0.000435204
0.000432349
0.000429763
0.000427465
0.000425475
0.000423814
0.000422509
0.000421587
0.000421077
0.000421011
0.000421419
0.000422332
0.000423782
0.000425795
0.000428398
0.000431612
0.000435452
0.000439929
0.000445047
0.000450803
0.000457187
0.00046418
0.000471758
0.000479889
0.000488535
0.000497654
0.000507197
0.000517113
0.000527349
0.000537849
0.000548558
0.00055942
0.000570382
0.000581392
0.000592388
0.000603339
0.000614196
0.000624916
0.000635458
0.000645788
0.00065587
0.000665673
0.00067517
0.000684331
0.000693133
0.000701552
0.000709562
0.000717143
0.000724271
0.000730923
0.000737073
0.000742696
0.000747764
0.000752245
0.000756105
0.000759303
0.000761795
0.000763524
0.000764427
0.000977111
0.000936685
0.000899607
0.000865557
0.000834248
0.00080542
0.000778841
0.000754303
0.000731616
0.000710613
0.000691139
0.000673058
0.000656247
0.000640592
0.000625994
0.00061236
0.000599609
0.000587666
0.000576464
0.00056594
0.00055604
0.000546714
0.000537916
0.000529605
0.000521743
0.000514297
0.000507237
0.000500534
0.000494165
0.000488108
0.000482344
0.000476856
0.00047163
0.000466653
0.000461917
0.000457414
0.00045314
0.000449093
0.000445272
0.000441681
0.000438326
0.000435214
0.000432358
0.000429772
0.000427472
0.00042548
0.000423816
0.000422508
0.000421582
0.000421067
0.000420995
0.000421397
0.000422303
0.000423745
0.000425749
0.000428342
0.000431544
0.000435372
0.000439837
0.000444943
0.000450686
0.000457056
0.000464036
0.000471602
0.00047972
0.000488355
0.000497462
0.000506995
0.000516902
0.000527131
0.000537624
0.000548329
0.000559188
0.000570148
0.000581157
0.000592154
0.000603107
0.000613967
0.000624691
0.000635238
0.000645573
0.000655662
0.000665472
0.000674976
0.000684145
0.000692955
0.000701382
0.000709401
0.00071699
0.000724127
0.000730786
0.000736944
0.000742575
0.00074765
0.000752137
0.000756003
0.000759206
0.000761702
0.000763434
0.000764338
0.000977111
0.000936685
0.000899608
0.000865559
0.00083425
0.000805422
0.000778844
0.000754306
0.00073162
0.000710616
0.000691143
0.000673063
0.000656251
0.000640597
0.000625999
0.000612366
0.000599615
0.000587673
0.00057647
0.000565947
0.000556048
0.000546722
0.000537924
0.000529613
0.000521752
0.000514306
0.000507246
0.000500544
0.000494176
0.00048812
0.000482356
0.000476868
0.000471642
0.000466666
0.000461931
0.000457428
0.000453155
0.000449107
0.000445287
0.000441696
0.00043834
0.000435228
0.000432371
0.000429783
0.000427481
0.000425486
0.00042382
0.000422507
0.000421576
0.000421056
0.000420977
0.000421371
0.000422269
0.0004237
0.000425693
0.000428273
0.000431463
0.000435277
0.000439727
0.000444817
0.000450544
0.000456898
0.000463863
0.000471412
0.000479516
0.000488136
0.00049723
0.000506751
0.000516648
0.000526866
0.000537353
0.000548051
0.000558906
0.000569864
0.000580872
0.00059187
0.000602825
0.000613688
0.000624417
0.00063497
0.000645312
0.000655408
0.000665227
0.000674739
0.000683918
0.000692738
0.000701174
0.000709204
0.000716803
0.00072395
0.000730619
0.000736787
0.000742427
0.00074751
0.000752005
0.000755878
0.000759087
0.000761587
0.000763323
0.000764228
0.000977112
0.000936686
0.000899609
0.00086556
0.000834252
0.000805425
0.000778847
0.000754309
0.000731624
0.000710621
0.000691148
0.000673068
0.000656257
0.000640603
0.000626005
0.000612372
0.000599622
0.00058768
0.000576478
0.000565955
0.000556056
0.000546731
0.000537933
0.000529623
0.000521762
0.000514317
0.000507258
0.000500556
0.000494189
0.000488133
0.00048237
0.000476883
0.000471657
0.000466682
0.000461947
0.000457445
0.000453172
0.000449125
0.000445304
0.000441713
0.000438357
0.000435244
0.000432386
0.000429796
0.000427492
0.000425494
0.000423824
0.000422507
0.000421571
0.000421044
0.000420957
0.000421342
0.000422229
0.000423649
0.000425629
0.000428195
0.000431369
0.000435167
0.000439599
0.000444671
0.00045038
0.000456716
0.000463662
0.000471193
0.000479279
0.000487883
0.000496962
0.000506468
0.000516352
0.00052656
0.000537038
0.000547729
0.000558579
0.000569534
0.000580541
0.000591539
0.000602496
0.000613364
0.000624098
0.000634657
0.000645007
0.000655112
0.00066494
0.000674463
0.000683653
0.000692484
0.000700932
0.000708973
0.000716584
0.000723742
0.000730423
0.000736602
0.000742252
0.000747345
0.00075185
0.00075573
0.000758947
0.000761452
0.000763191
0.000764098
0.000977112
0.000936686
0.00089961
0.000865562
0.000834254
0.000805427
0.00077885
0.000754313
0.000731628
0.000710625
0.000691153
0.000673073
0.000656263
0.000640609
0.000626012
0.00061238
0.00059963
0.000587688
0.000576486
0.000565964
0.000556066
0.000546741
0.000537944
0.000529634
0.000521774
0.00051433
0.000507271
0.00050057
0.000494203
0.000488148
0.000482386
0.0004769
0.000471675
0.0004667
0.000461966
0.000457465
0.000453192
0.000449145
0.000445324
0.000441733
0.000438376
0.000435263
0.000432403
0.000429812
0.000427505
0.000425504
0.00042383
0.000422508
0.000421565
0.000421031
0.000420935
0.00042131
0.000422186
0.000423592
0.000425558
0.000428108
0.000431265
0.000435044
0.000439457
0.000444509
0.000450197
0.000456512
0.000463437
0.000470948
0.000479014
0.000487599
0.00049666
0.000506151
0.00051602
0.000526216
0.000536683
0.000547367
0.000558211
0.000569162
0.000580167
0.000591166
0.000602125
0.000612997
0.000623737
0.000634304
0.000644662
0.000654776
0.000664615
0.00067415
0.000683352
0.000692195
0.000700656
0.000708711
0.000716335
0.000723506
0.0007302
0.000736392
0.000742054
0.000747158
0.000751673
0.000755562
0.000758786
0.000761298
0.000763041
0.000763949
0.000977112
0.000936687
0.000899611
0.000865563
0.000834256
0.00080543
0.000778853
0.000754317
0.000731632
0.00071063
0.000691158
0.000673079
0.000656269
0.000640616
0.000626019
0.000612388
0.000599638
0.000587697
0.000576496
0.000565974
0.000556076
0.000546752
0.000537956
0.000529647
0.000521787
0.000514344
0.000507286
0.000500586
0.00049422
0.000488166
0.000482404
0.000476919
0.000471695
0.000466721
0.000461987
0.000457487
0.000453214
0.000449168
0.000445347
0.000441756
0.000438399
0.000435284
0.000432423
0.00042983
0.000427521
0.000425516
0.000423837
0.000422509
0.00042156
0.000421018
0.000420913
0.000421276
0.000422139
0.000423531
0.000425481
0.000428014
0.000431151
0.00043491
0.000439302
0.000444332
0.000449997
0.000456288
0.00046319
0.000470679
0.000478723
0.000487287
0.000496329
0.000505802
0.000515656
0.000525838
0.000536294
0.000546968
0.000557805
0.000568752
0.000579755
0.000590754
0.000601716
0.000612592
0.000623338
0.000633912
0.00064428
0.000654405
0.000664255
0.000673802
0.000683018
0.000691875
0.00070035
0.000708419
0.000716058
0.000723244
0.000729952
0.000736157
0.000741833
0.000746949
0.000751475
0.000755374
0.000758607
0.000761124
0.000762872
0.000763781
0.000977112
0.000936687
0.000899612
0.000865565
0.000834258
0.000805433
0.000778856
0.00075432
0.000731636
0.000710635
0.000691164
0.000673085
0.000656276
0.000640623
0.000626027
0.000612396
0.000599647
0.000587707
0.000576506
0.000565985
0.000556088
0.000546765
0.000537969
0.000529661
0.000521802
0.000514359
0.000507302
0.000500603
0.000494238
0.000488185
0.000482424
0.00047694
0.000471717
0.000466744
0.000462011
0.000457511
0.00045324
0.000449194
0.000445373
0.000441782
0.000438424
0.000435309
0.000432446
0.000429851
0.000427539
0.00042553
0.000423846
0.000422512
0.000421556
0.000421004
0.000420889
0.000421241
0.00042209
0.000423467
0.000425399
0.000427913
0.00043103
0.000434767
0.000439136
0.000444141
0.000449782
0.000456049
0.000462925
0.000470389
0.00047841
0.000486952
0.000495972
0.000505426
0.000515262
0.000525429
0.000535872
0.000546537
0.000557367
0.000568308
0.000579309
0.000590308
0.000601272
0.000612152
0.000622904
0.000633487
0.000643864
0.000654
0.000663863
0.000673423
0.000682653
0.000691526
0.000700016
0.000708101
0.000715756
0.000722957
0.00072968
0.0007359
0.00074159
0.00074672
0.000751257
0.000755167
0.000758409
0.000760933
0.000762685
0.000763597
0.000977112
0.000936688
0.000899613
0.000865566
0.00083426
0.000805435
0.00077886
0.000754324
0.000731641
0.00071064
0.00069117
0.000673092
0.000656283
0.000640631
0.000626036
0.000612405
0.000599657
0.000587717
0.000576517
0.000565997
0.000556101
0.000546778
0.000537983
0.000529676
0.000521818
0.000514376
0.00050732
0.000500622
0.000494258
0.000488206
0.000482447
0.000476963
0.000471741
0.00046677
0.000462038
0.000457539
0.000453268
0.000449222
0.000445402
0.00044181
0.000438452
0.000435336
0.000432472
0.000429874
0.000427559
0.000425546
0.000423857
0.000422517
0.000421552
0.000420992
0.000420866
0.000421204
0.000422039
0.000423399
0.000425314
0.000427808
0.000430903
0.000434617
0.000438961
0.00044394
0.000449554
0.000455794
0.000462645
0.000470082
0.000478077
0.000486595
0.000495593
0.000505026
0.000514843
0.000524994
0.000535424
0.000546077
0.000556898
0.000567834
0.000578832
0.000589831
0.000600796
0.000611681
0.000622439
0.000633031
0.000643418
0.000653566
0.000663442
0.000673016
0.000682261
0.000691149
0.000699656
0.000707757
0.000715429
0.000722647
0.000729387
0.000735623
0.000741327
0.000746471
0.000751022
0.000754943
0.000758194
0.000760726
0.000762483
0.000763397
0.000977112
0.000936688
0.000899614
0.000865567
0.000834262
0.000805438
0.000778863
0.000754328
0.000731645
0.000710645
0.000691175
0.000673098
0.00065629
0.000640639
0.000626044
0.000612414
0.000599667
0.000587728
0.000576529
0.00056601
0.000556114
0.000546792
0.000537999
0.000529692
0.000521835
0.000514395
0.00050734
0.000500643
0.00049428
0.000488229
0.000482471
0.000476988
0.000471768
0.000466797
0.000462066
0.000457568
0.000453298
0.000449253
0.000445433
0.000441841
0.000438483
0.000435365
0.0004325
0.0004299
0.000427581
0.000425564
0.00042387
0.000422523
0.00042155
0.00042098
0.000420842
0.000421168
0.000421987
0.00042333
0.000425225
0.000427698
0.00043077
0.000434459
0.000438777
0.00044373
0.000449316
0.000455528
0.00046235
0.00046976
0.000477728
0.00048622
0.000495194
0.000504605
0.000514403
0.000524536
0.00053495
0.000545591
0.000556404
0.000567334
0.000578328
0.000589326
0.000600293
0.000611182
0.000621947
0.000632547
0.000642944
0.000653104
0.000662994
0.000672583
0.000681844
0.000690749
0.000699273
0.000707392
0.000715081
0.000722316
0.000729073
0.000735326
0.000741047
0.000746205
0.000750769
0.000754702
0.000757963
0.000760503
0.000762265
0.000763181
0.000977112
0.000936689
0.000899615
0.000865569
0.000834264
0.00080544
0.000778866
0.000754332
0.00073165
0.00071065
0.000691181
0.000673105
0.000656297
0.000640647
0.000626053
0.000612424
0.000599678
0.000587739
0.000576541
0.000566023
0.000556128
0.000546807
0.000538015
0.000529709
0.000521854
0.000514414
0.00050736
0.000500665
0.000494303
0.000488253
0.000482496
0.000477015
0.000471796
0.000466827
0.000462097
0.0004576
0.00045333
0.000449286
0.000445467
0.000441875
0.000438516
0.000435398
0.00043253
0.000429928
0.000427606
0.000425585
0.000423885
0.000422531
0.00042155
0.000420969
0.00042082
0.000421131
0.000421934
0.000423259
0.000425134
0.000427585
0.000430633
0.000434297
0.000438588
0.000443512
0.00044907
0.000455252
0.000462044
0.000469425
0.000477365
0.00048583
0.000494779
0.000504166
0.000513943
0.000524058
0.000534456
0.000545085
0.000555887
0.00056681
0.0005778
0.000588797
0.000599765
0.000610659
0.00062143
0.000632039
0.000642447
0.000652619
0.000662523
0.000672128
0.000681404
0.000690327
0.000698869
0.000707006
0.000714713
0.000721967
0.000728742
0.000735012
0.000740749
0.000745923
0.000750501
0.000754447
0.000757718
0.000760266
0.000762033
0.000762952
0.000977113
0.000936689
0.000899615
0.00086557
0.000834265
0.000805442
0.000778869
0.000754335
0.000731654
0.000710655
0.000691187
0.000673112
0.000656305
0.000640655
0.000626062
0.000612434
0.000599689
0.000587751
0.000576554
0.000566036
0.000556143
0.000546823
0.000538032
0.000529727
0.000521873
0.000514435
0.000507382
0.000500688
0.000494327
0.000488279
0.000482524
0.000477044
0.000471826
0.000466858
0.00046213
0.000457634
0.000453365
0.000449322
0.000445503
0.000441911
0.000438552
0.000435432
0.000432563
0.000429958
0.000427633
0.000425607
0.000423902
0.000422541
0.00042155
0.00042096
0.000420797
0.000421095
0.000421881
0.000423188
0.000425042
0.00042747
0.000430494
0.000434131
0.000438394
0.000443289
0.000448816
0.000454968
0.00046173
0.00046908
0.000476991
0.000485427
0.000494349
0.000503712
0.000513467
0.000523563
0.000533945
0.000544559
0.000555351
0.000566266
0.000577252
0.000588247
0.000599217
0.000610114
0.000620892
0.000631509
0.000641928
0.000652113
0.000662031
0.000671652
0.000680945
0.000689885
0.000698445
0.000706601
0.000714328
0.0007216
0.000728394
0.000734682
0.000740436
0.000745626
0.000750218
0.000754177
0.000757459
0.000760015
0.000761789
0.000762711
0.000977113
0.00093669
0.000899616
0.000865571
0.000834267
0.000805445
0.000778872
0.000754339
0.000731658
0.00071066
0.000691193
0.000673118
0.000656312
0.000640664
0.000626071
0.000612444
0.0005997
0.000587763
0.000576567
0.000566051
0.000556158
0.000546839
0.000538049
0.000529746
0.000521893
0.000514456
0.000507405
0.000500712
0.000494353
0.000488306
0.000482552
0.000477074
0.000471858
0.000466891
0.000462164
0.000457669
0.000453402
0.000449359
0.000445541
0.000441949
0.000438589
0.000435469
0.000432599
0.000429991
0.000427663
0.000425632
0.00042392
0.000422552
0.000421553
0.000420951
0.000420776
0.000421059
0.000421829
0.000423116
0.000424949
0.000427354
0.000430352
0.000433962
0.000438196
0.000443061
0.000448557
0.000454677
0.000461407
0.000468727
0.000476607
0.000485014
0.000493909
0.000503247
0.000512979
0.000523054
0.000533418
0.000544019
0.000554799
0.000565706
0.000576687
0.00058768
0.000598651
0.000609552
0.000620336
0.000630962
0.000641392
0.000651589
0.000661522
0.000671158
0.000680469
0.000689427
0.000698006
0.000706181
0.000713927
0.000721219
0.000728031
0.000734337
0.000740109
0.000745315
0.000749923
0.000753895
0.000757188
0.000759753
0.000761533
0.000762458
0.000977113
0.00093669
0.000899617
0.000865572
0.000834269
0.000805447
0.000778874
0.000754342
0.000731662
0.000710665
0.000691199
0.000673125
0.00065632
0.000640672
0.000626081
0.000612454
0.000599711
0.000587775
0.00057658
0.000566065
0.000556174
0.000546856
0.000538067
0.000529766
0.000521914
0.000514478
0.000507429
0.000500737
0.00049438
0.000488335
0.000482582
0.000477106
0.000471891
0.000466926
0.0004622
0.000457707
0.00045344
0.000449398
0.000445581
0.000441989
0.000438629
0.000435508
0.000432636
0.000430026
0.000427694
0.000425658
0.000423941
0.000422565
0.000421557
0.000420944
0.000420756
0.000421024
0.000421776
0.000423044
0.000424856
0.000427236
0.000430209
0.000433791
0.000437995
0.00044283
0.000448294
0.000454382
0.00046108
0.000468367
0.000476216
0.000484594
0.00049346
0.000502772
0.00051248
0.000522534
0.000532881
0.000543466
0.000554234
0.000565133
0.000576107
0.000587099
0.00059807
0.000608974
0.000619764
0.000630399
0.00064084
0.00065105
0.000660997
0.000670649
0.000679978
0.000688954
0.000697552
0.000705746
0.000713512
0.000720824
0.000727655
0.00073398
0.00073977
0.000744993
0.000749616
0.000753601
0.000756906
0.00075948
0.000761266
0.000762194
0.000977113
0.00093669
0.000899617
0.000865573
0.00083427
0.000805449
0.000778877
0.000754346
0.000731666
0.00071067
0.000691204
0.000673131
0.000656327
0.00064068
0.00062609
0.000612465
0.000599722
0.000587788
0.000576594
0.00056608
0.00055619
0.000546873
0.000538086
0.000529786
0.000521935
0.000514501
0.000507453
0.000500763
0.000494408
0.000488364
0.000482613
0.000477139
0.000471925
0.000466962
0.000462238
0.000457746
0.00045348
0.000449439
0.000445622
0.000442031
0.000438671
0.000435549
0.000432675
0.000430062
0.000427727
0.000425687
0.000423963
0.00042258
0.000421562
0.000420938
0.000420738
0.00042099
0.000421725
0.000422973
0.000424763
0.000427119
0.000430065
0.000433619
0.000437794
0.000442597
0.000448029
0.000454084
0.000460749
0.000468003
0.000475821
0.000484168
0.000493005
0.00050229
0.000511973
0.000522006
0.000532334
0.000542903
0.000553659
0.000564548
0.000575517
0.000586506
0.000597477
0.000608384
0.00061918
0.000629824
0.000640275
0.000650498
0.00066046
0.000670128
0.000679474
0.000688468
0.000697086
0.0007053
0.000713085
0.000720417
0.000727268
0.000733612
0.00073942
0.00074466
0.000749299
0.000753297
0.000756614
0.000759197
0.000760989
0.000761921
0.000977113
0.000936691
0.000899618
0.000865574
0.000834272
0.000805451
0.00077888
0.000754349
0.00073167
0.000710675
0.00069121
0.000673137
0.000656334
0.000640689
0.000626099
0.000612475
0.000599733
0.0005878
0.000576608
0.000566095
0.000556206
0.000546891
0.000538105
0.000529806
0.000521957
0.000514525
0.000507478
0.00050079
0.000494436
0.000488394
0.000482645
0.000477172
0.000471961
0.000466999
0.000462276
0.000457786
0.000453522
0.000449482
0.000445666
0.000442075
0.000438714
0.000435591
0.000432716
0.000430101
0.000427762
0.000425717
0.000423987
0.000422596
0.000421569
0.000420934
0.00042072
0.000420957
0.000421675
0.000422903
0.00042467
0.000427002
0.000429922
0.000433447
0.000437592
0.000442363
0.000447762
0.000453784
0.000460416
0.000467637
0.000475422
0.000483738
0.000492546
0.000501803
0.000511462
0.000521472
0.00053178
0.000542333
0.000553077
0.000563956
0.000574919
0.000585905
0.000596875
0.000607785
0.000618587
0.000629238
0.0006397
0.000649936
0.000659912
0.000669597
0.00067896
0.000687973
0.00069661
0.000704844
0.000712649
0.000720001
0.000726872
0.000733235
0.000739061
0.000744318
0.000748972
0.000752985
0.000756313
0.000758906
0.000760705
0.000761639
0.000977113
0.000936691
0.000899619
0.000865575
0.000834273
0.000805453
0.000778882
0.000754352
0.000731674
0.000710679
0.000691215
0.000673144
0.000656341
0.000640697
0.000626108
0.000612485
0.000599745
0.000587813
0.000576621
0.00056611
0.000556222
0.000546909
0.000538124
0.000529827
0.000521979
0.000514549
0.000507504
0.000500818
0.000494465
0.000488425
0.000482678
0.000477207
0.000471998
0.000467037
0.000462316
0.000457827
0.000453565
0.000449526
0.00044571
0.00044212
0.000438759
0.000435635
0.000432758
0.00043014
0.000427798
0.000425748
0.000424013
0.000422614
0.000421578
0.000420932
0.000420704
0.000420926
0.000421626
0.000422834
0.000424579
0.000426887
0.000429779
0.000433276
0.00043739
0.000442129
0.000447496
0.000453484
0.000460082
0.00046727
0.000475022
0.000483306
0.000492084
0.000501314
0.000510947
0.000520934
0.000531223
0.00054176
0.00055249
0.000563359
0.000574315
0.000585297
0.000596267
0.00060718
0.000617987
0.000628646
0.000639118
0.000649367
0.000659357
0.000669058
0.000678438
0.00068747
0.000696126
0.000704379
0.000712205
0.000719577
0.000726468
0.00073285
0.000738695
0.000743969
0.000748639
0.000752665
0.000756005
0.000758608
0.000760413
0.000761351
0.000977113
0.000936691
0.000899619
0.000865576
0.000834274
0.000805454
0.000778884
0.000754355
0.000731678
0.000710684
0.00069122
0.00067315
0.000656348
0.000640705
0.000626117
0.000612495
0.000599756
0.000587825
0.000576635
0.000566125
0.000556239
0.000546927
0.000538143
0.000529848
0.000522002
0.000514573
0.00050753
0.000500845
0.000494495
0.000488457
0.000482712
0.000477243
0.000472035
0.000467076
0.000462357
0.00045787
0.000453608
0.000449571
0.000445756
0.000442166
0.000438805
0.00043568
0.000432801
0.000430181
0.000427835
0.000425781
0.000424039
0.000422633
0.000421588
0.00042093
0.00042069
0.000420896
0.000421578
0.000422767
0.000424489
0.000426772
0.000429638
0.000433106
0.000437189
0.000441897
0.00044723
0.000453185
0.000459749
0.000466903
0.000474622
0.000482874
0.000491622
0.000500824
0.000510431
0.000520396
0.000530664
0.000541184
0.0005519
0.000562759
0.000573707
0.000584686
0.000595655
0.00060657
0.000617382
0.000628049
0.000638531
0.000648792
0.000658797
0.000668513
0.000677911
0.000686961
0.000695636
0.000703909
0.000711755
0.000719147
0.000726058
0.000732459
0.000738322
0.000743613
0.000748299
0.00075234
0.000755692
0.000758303
0.000760115
0.000761057
0.000977113
0.000936692
0.00089962
0.000865577
0.000834275
0.000805456
0.000778887
0.000754358
0.000731681
0.000710688
0.000691225
0.000673156
0.000656355
0.000640712
0.000626126
0.000612505
0.000599767
0.000587837
0.000576649
0.00056614
0.000556255
0.000546945
0.000538163
0.000529869
0.000522025
0.000514597
0.000507556
0.000500874
0.000494525
0.000488489
0.000482746
0.000477278
0.000472073
0.000467116
0.000462399
0.000457913
0.000453653
0.000449616
0.000445802
0.000442212
0.000438851
0.000435726
0.000432846
0.000430224
0.000427874
0.000425815
0.000424068
0.000422654
0.000421599
0.000420931
0.000420677
0.000420868
0.000421532
0.000422701
0.000424401
0.00042666
0.000429499
0.000432938
0.000436991
0.000441667
0.000446967
0.000452888
0.000459418
0.000466538
0.000474224
0.000482445
0.000491162
0.000500335
0.000509917
0.000519858
0.000530106
0.000540608
0.00055131
0.000562158
0.000573099
0.000584074
0.000595041
0.000605958
0.000616775
0.000627449
0.000637942
0.000648214
0.000658233
0.000667965
0.000677379
0.000686448
0.000695142
0.000703435
0.000711301
0.000718712
0.000725643
0.000732064
0.000737945
0.000743253
0.000747955
0.000752009
0.000755373
0.000757994
0.000759813
0.000760757
0.000977113
0.000936692
0.00089962
0.000865578
0.000834277
0.000805458
0.000778889
0.00075436
0.000731685
0.000710692
0.00069123
0.000673161
0.000656362
0.00064072
0.000626135
0.000612515
0.000599778
0.00058785
0.000576662
0.000566155
0.000556271
0.000546962
0.000538182
0.00052989
0.000522048
0.000514622
0.000507583
0.000500902
0.000494555
0.000488521
0.00048278
0.000477315
0.000472111
0.000467156
0.000462441
0.000457956
0.000453698
0.000449663
0.000445849
0.00044226
0.000438899
0.000435773
0.000432891
0.000430267
0.000427914
0.000425851
0.000424097
0.000422676
0.000421612
0.000420932
0.000420665
0.000420841
0.000421488
0.000422637
0.000424315
0.000426549
0.000429362
0.000432773
0.000436795
0.000441439
0.000446707
0.000452594
0.00045909
0.000466176
0.000473829
0.000482018
0.000490705
0.00049985
0.000509405
0.000519323
0.00052955
0.000540035
0.000550723
0.00056156
0.000572493
0.000583463
0.000594429
0.000605347
0.000616169
0.00062685
0.000637351
0.000647636
0.000657668
0.000667415
0.000676847
0.000685933
0.000694646
0.000702958
0.000710844
0.000718275
0.000725225
0.000731665
0.000737564
0.00074289
0.000747607
0.000751676
0.000755051
0.000757682
0.000759507
0.000760455
0.000977113
0.000936692
0.000899621
0.000865579
0.000834278
0.000805459
0.000778891
0.000754363
0.000731688
0.000710696
0.000691235
0.000673167
0.000656368
0.000640728
0.000626143
0.000612525
0.000599789
0.000587862
0.000576676
0.000566169
0.000556288
0.00054698
0.000538202
0.000529911
0.00052207
0.000514647
0.000507609
0.00050093
0.000494586
0.000488554
0.000482814
0.000477351
0.000472149
0.000467197
0.000462483
0.000458
0.000453744
0.000449709
0.000445897
0.000442308
0.000438947
0.00043582
0.000432938
0.000430311
0.000427955
0.000425887
0.000424127
0.000422699
0.000421626
0.000420935
0.000420655
0.000420816
0.000421446
0.000422575
0.000424232
0.000426441
0.000429228
0.00043261
0.000436603
0.000441215
0.00044645
0.000452304
0.000458766
0.000465819
0.000473439
0.000481596
0.000490253
0.000499369
0.000508898
0.000518792
0.000528999
0.000539466
0.000550139
0.000560965
0.00057189
0.000582856
0.000593819
0.000604739
0.000615564
0.000626252
0.000636763
0.000647059
0.000657104
0.000666867
0.000676314
0.000685418
0.000694149
0.000702481
0.000710386
0.000717837
0.000724806
0.000731265
0.000737182
0.000742525
0.000747257
0.00075134
0.000754727
0.000757367
0.000759199
0.00076015
0.000977113
0.000936692
0.000899621
0.000865579
0.000834279
0.000805461
0.000778893
0.000754366
0.000731691
0.0007107
0.000691239
0.000673172
0.000656375
0.000640735
0.000626152
0.000612534
0.0005998
0.000587874
0.000576689
0.000566184
0.000556304
0.000546998
0.000538221
0.000529932
0.000522093
0.000514671
0.000507636
0.000500959
0.000494616
0.000488586
0.000482849
0.000477388
0.000472188
0.000467237
0.000462525
0.000458044
0.000453789
0.000449756
0.000445945
0.000442357
0.000438996
0.000435868
0.000432984
0.000430355
0.000427996
0.000425923
0.000424158
0.000422722
0.00042164
0.000420939
0.000420647
0.000420792
0.000421406
0.000422515
0.00042415
0.000426336
0.000429097
0.000432451
0.000436414
0.000440996
0.000446198
0.000452019
0.000458448
0.000465468
0.000473055
0.00048118
0.000489807
0.000498894
0.000508398
0.000518268
0.000528454
0.000538903
0.000549562
0.000560376
0.000571293
0.000582254
0.000593215
0.000604136
0.000614964
0.000625659
0.000636178
0.000646485
0.000656543
0.00066632
0.000675784
0.000684905
0.000693655
0.000702005
0.000709929
0.000717399
0.000724387
0.000730865
0.0007368
0.000742159
0.000746907
0.000751003
0.000754402
0.000757051
0.000758889
0.000759844
0.000977114
0.000936693
0.000899622
0.00086558
0.00083428
0.000805462
0.000778895
0.000754368
0.000731694
0.000710703
0.000691244
0.000673178
0.000656381
0.000640742
0.00062616
0.000612543
0.00059981
0.000587885
0.000576702
0.000566198
0.00055632
0.000547015
0.00053824
0.000529953
0.000522116
0.000514696
0.000507662
0.000500987
0.000494646
0.000488618
0.000482883
0.000477424
0.000472226
0.000467278
0.000462568
0.000458088
0.000453835
0.000449803
0.000445993
0.000442405
0.000439044
0.000435916
0.000433031
0.0004304
0.000428037
0.000425961
0.00042419
0.000422747
0.000421656
0.000420945
0.00042064
0.000420771
0.000421367
0.000422458
0.000424072
0.000426234
0.000428969
0.000432296
0.00043623
0.000440781
0.000445951
0.00045174
0.000458135
0.000465122
0.000472678
0.000480771
0.000489368
0.000498428
0.000507905