/*--------------------------------*- C++ -*----------------------------------*\
  =========                 |
  \\      /  F ield         | OpenFOAM: The Open Source CFD Toolbox
   \\    /   O peration     | Website:  https://openfoam.org
    \\  /    A nd           | Version:  11
     \\/     M anipulation  |
\*---------------------------------------------------------------------------*/
FoamFile
{
    format      ascii;
    class       volScalarField;
    location    "314";
    object      p;
}
// * * * * * * * * * * * * * * * * * * * * * * * * * * * * * * * * * * * * * //

dimensions      [0 2 -2 0 0 0 0];

internalField   nonuniform List<scalar> 
10000
(
7.97867e-08
7.81e-08
8.06488e-08
8.60544e-08
9.23183e-08
9.89685e-08
1.05965e-07
1.13292e-07
1.20944e-07
1.28923e-07
1.37243e-07
1.4592e-07
1.54969e-07
1.64409e-07
1.74257e-07
1.84531e-07
1.95247e-07
2.06423e-07
2.18076e-07
2.30222e-07
2.42876e-07
2.56054e-07
2.69769e-07
2.84037e-07
2.98867e-07
3.14273e-07
3.30264e-07
3.46848e-07
3.64032e-07
3.81821e-07
4.00216e-07
4.19218e-07
4.38822e-07
4.59024e-07
4.79812e-07
5.01172e-07
5.23084e-07
5.45526e-07
5.68466e-07
5.91868e-07
6.1569e-07
6.3988e-07
6.6438e-07
6.89123e-07
7.14032e-07
7.39022e-07
7.63998e-07
7.88856e-07
8.13481e-07
8.37751e-07
8.61534e-07
8.84692e-07
9.07079e-07
9.2854e-07
9.48913e-07
9.68018e-07
9.85654e-07
1.00153e-06
1.01508e-06
1.02518e-06
1.03293e-06
1.04485e-06
1.05818e-06
1.06785e-06
1.07551e-06
1.08079e-06
1.08115e-06
1.07995e-06
1.07844e-06
1.0729e-06
1.06618e-06
1.06314e-06
1.05997e-06
1.05313e-06
1.04355e-06
1.03186e-06
1.01824e-06
1.00278e-06
9.85531e-07
9.66509e-07
9.45709e-07
9.23111e-07
8.98681e-07
8.72374e-07
8.4413e-07
8.13877e-07
7.81524e-07
7.46964e-07
7.10061e-07
6.7065e-07
6.28524e-07
5.8342e-07
5.34991e-07
4.82762e-07
4.26094e-07
3.64287e-07
2.9627e-07
2.16747e-07
1.11875e-07
2.74415e-09
1.59323e-07
1.52171e-07
1.47539e-07
1.49316e-07
1.53954e-07
1.59992e-07
1.67042e-07
1.74905e-07
1.83447e-07
1.92594e-07
2.02311e-07
2.12579e-07
2.23395e-07
2.3476e-07
2.46681e-07
2.59169e-07
2.72236e-07
2.85895e-07
3.00161e-07
3.15049e-07
3.30573e-07
3.46748e-07
3.63588e-07
3.81106e-07
3.99314e-07
4.18224e-07
4.37845e-07
4.58185e-07
4.7925e-07
5.01044e-07
5.23568e-07
5.46819e-07
5.70794e-07
5.95481e-07
6.20869e-07
6.46938e-07
6.73665e-07
7.01019e-07
7.28964e-07
7.57456e-07
7.86442e-07
8.1586e-07
8.45639e-07
8.75695e-07
9.05936e-07
9.36256e-07
9.66537e-07
9.9665e-07
1.02645e-06
1.05579e-06
1.08449e-06
1.11239e-06
1.13931e-06
1.16504e-06
1.1894e-06
1.21219e-06
1.2332e-06
1.25222e-06
1.26895e-06
1.28315e-06
1.29675e-06
1.31212e-06
1.32131e-06
1.32187e-06
1.31968e-06
1.31975e-06
1.32367e-06
1.33004e-06
1.33474e-06
1.33164e-06
1.32129e-06
1.31097e-06
1.3013e-06
1.28932e-06
1.27484e-06
1.25805e-06
1.239e-06
1.2177e-06
1.1942e-06
1.16846e-06
1.14048e-06
1.11022e-06
1.0776e-06
1.04257e-06
1.00503e-06
9.64875e-07
9.21965e-07
8.76143e-07
8.27211e-07
7.74928e-07
7.1899e-07
6.59012e-07
5.94485e-07
5.247e-07
4.4873e-07
3.65728e-07
2.74182e-07
1.63685e-07
1.12943e-08
-9.92228e-08
2.06375e-07
1.9571e-07
1.86105e-07
1.83281e-07
1.84045e-07
1.86795e-07
1.91005e-07
1.96362e-07
2.02646e-07
2.09716e-07
2.17483e-07
2.25893e-07
2.34911e-07
2.44517e-07
2.54699e-07
2.65453e-07
2.7678e-07
2.88683e-07
3.01167e-07
3.1424e-07
3.2791e-07
3.42187e-07
3.57078e-07
3.72594e-07
3.88744e-07
4.05534e-07
4.22972e-07
4.41065e-07
4.59816e-07
4.79228e-07
4.99301e-07
5.20034e-07
5.41421e-07
5.63454e-07
5.86121e-07
6.09405e-07
6.33285e-07
6.57732e-07
6.82713e-07
7.08186e-07
7.34101e-07
7.604e-07
7.87013e-07
8.1386e-07
8.40849e-07
8.67876e-07
8.94822e-07
9.21558e-07
9.47938e-07
9.73808e-07
9.99001e-07
1.02334e-06
1.04664e-06
1.06873e-06
1.08942e-06
1.10853e-06
1.12593e-06
1.14152e-06
1.15524e-06
1.16723e-06
1.17863e-06
1.19091e-06
1.20208e-06
1.20915e-06
1.21292e-06
1.21326e-06
1.2095e-06
1.20245e-06
1.19237e-06
1.17822e-06
1.16204e-06
1.14671e-06
1.13159e-06
1.1153e-06
1.0974e-06
1.07779e-06
1.0564e-06
1.0332e-06
1.00817e-06
9.81283e-07
9.52499e-07
9.21768e-07
8.89028e-07
8.542e-07
8.17189e-07
7.77882e-07
7.3614e-07
6.918e-07
6.44661e-07
5.94481e-07
5.40957e-07
4.83713e-07
4.22257e-07
3.55914e-07
2.83869e-07
2.05678e-07
1.20274e-07
1.50787e-08
-1.35401e-07
-1.97996e-07
2.49259e-07
2.37239e-07
2.26566e-07
2.21899e-07
2.20711e-07
2.21698e-07
2.24375e-07
2.28415e-07
2.33567e-07
2.3966e-07
2.46579e-07
2.54247e-07
2.62609e-07
2.7163e-07
2.81286e-07
2.91563e-07
3.02452e-07
3.1395e-07
3.26056e-07
3.38774e-07
3.52107e-07
3.66061e-07
3.80642e-07
3.95856e-07
4.1171e-07
4.2821e-07
4.45361e-07
4.63168e-07
4.81634e-07
5.00761e-07
5.20548e-07
5.40992e-07
5.62088e-07
5.83827e-07
6.06195e-07
6.29175e-07
6.52744e-07
6.76874e-07
7.01529e-07
7.26665e-07
7.5223e-07
7.78162e-07
8.04387e-07
8.3082e-07
8.57364e-07
8.83906e-07
9.10321e-07
9.36468e-07
9.62193e-07
9.87329e-07
1.0117e-06
1.03511e-06
1.05739e-06
1.07832e-06
1.09774e-06
1.11548e-06
1.13139e-06
1.1454e-06
1.15747e-06
1.16767e-06
1.17643e-06
1.18426e-06
1.19057e-06
1.19401e-06
1.19435e-06
1.19123e-06
1.18429e-06
1.17401e-06
1.16084e-06
1.14489e-06
1.1272e-06
1.1089e-06
1.08985e-06
1.06959e-06
1.0479e-06
1.02467e-06
9.99808e-07
9.73281e-07
9.45061e-07
9.15113e-07
8.83391e-07
8.49841e-07
8.14391e-07
7.7696e-07
7.37446e-07
6.95728e-07
6.51664e-07
6.05082e-07
5.55778e-07
5.03505e-07
4.47964e-07
3.88789e-07
3.25516e-07
2.57526e-07
1.84146e-07
1.0535e-07
2.05969e-08
-8.42812e-08
-2.37384e-07
-2.69314e-07
2.88324e-07
2.76327e-07
2.65741e-07
2.60337e-07
2.58107e-07
2.58055e-07
2.59784e-07
2.62992e-07
2.67435e-07
2.72933e-07
2.79362e-07
2.86631e-07
2.94675e-07
3.03448e-07
3.12917e-07
3.23061e-07
3.33864e-07
3.45318e-07
3.57418e-07
3.70163e-07
3.83553e-07
3.97591e-07
4.1228e-07
4.27625e-07
4.43631e-07
4.60301e-07
4.77639e-07
4.95649e-07
5.14332e-07
5.3369e-07
5.53719e-07
5.74416e-07
5.95775e-07
6.17784e-07
6.40429e-07
6.63692e-07
6.87546e-07
7.11963e-07
7.36902e-07
7.62318e-07
7.88154e-07
8.14344e-07
8.40809e-07
8.67459e-07
8.94188e-07
9.20878e-07
9.47394e-07
9.73586e-07
9.9929e-07
1.02433e-06
1.04852e-06
1.07165e-06
1.09354e-06
1.11397e-06
1.13277e-06
1.14975e-06
1.16478e-06
1.17774e-06
1.18858e-06
1.1973e-06
1.20401e-06
1.20885e-06
1.21147e-06
1.21129e-06
1.20814e-06
1.2019e-06
1.19252e-06
1.18021e-06
1.16519e-06
1.14764e-06
1.12809e-06
1.1071e-06
1.08481e-06
1.06113e-06
1.03595e-06
1.00924e-06
9.80923e-07
9.50975e-07
9.19372e-07
8.86078e-07
8.51046e-07
8.14219e-07
7.75524e-07
7.34876e-07
6.9217e-07
6.47281e-07
6.00065e-07
5.50346e-07
4.97922e-07
4.4255e-07
3.83941e-07
3.21753e-07
2.55565e-07
1.84826e-07
1.09011e-07
2.8462e-08
-5.69645e-08
-1.63034e-07
-3.20387e-07
-3.28694e-07
3.23687e-07
3.12233e-07
3.01982e-07
2.96223e-07
2.93329e-07
2.92533e-07
2.93525e-07
2.96044e-07
2.99867e-07
3.04821e-07
3.1078e-07
3.17648e-07
3.25355e-07
3.33847e-07
3.43087e-07
3.53046e-07
3.63705e-07
3.7505e-07
3.87072e-07
3.99767e-07
4.13132e-07
4.27167e-07
4.41873e-07
4.57252e-07
4.73307e-07
4.9004e-07
5.07454e-07
5.2555e-07
5.44328e-07
5.63788e-07
5.83927e-07
6.04739e-07
6.26216e-07
6.48345e-07
6.71112e-07
6.94494e-07
7.18466e-07
7.42994e-07
7.68038e-07
7.93547e-07
8.19463e-07
8.45714e-07
8.72219e-07
8.98882e-07
9.25592e-07
9.52224e-07
9.78637e-07
1.00467e-06
1.03017e-06
1.05492e-06
1.07876e-06
1.10145e-06
1.12281e-06
1.14262e-06
1.16069e-06
1.17683e-06
1.19088e-06
1.20273e-06
1.21229e-06
1.21949e-06
1.22437e-06
1.22689e-06
1.22685e-06
1.22398e-06
1.21815e-06
1.20934e-06
1.19757e-06
1.18297e-06
1.16572e-06
1.146e-06
1.12416e-06
1.10056e-06
1.07538e-06
1.04864e-06
1.02035e-06
9.90488e-07
9.59032e-07
9.25957e-07
8.91251e-07
8.54884e-07
8.16812e-07
7.76979e-07
7.35314e-07
6.91732e-07
6.4613e-07
5.98384e-07
5.48352e-07
4.95865e-07
4.40727e-07
3.8271e-07
3.21547e-07
2.56932e-07
1.88497e-07
1.15766e-07
3.83488e-08
-4.31284e-08
-1.28648e-07
-2.3567e-07
-3.96277e-07
-3.84546e-07
3.56521e-07
3.45684e-07
3.3585e-07
3.29966e-07
3.26667e-07
3.25352e-07
3.25784e-07
3.27749e-07
3.31048e-07
3.35524e-07
3.41054e-07
3.47545e-07
3.54922e-07
3.6313e-07
3.72127e-07
3.81881e-07
3.92368e-07
4.03571e-07
4.15478e-07
4.28082e-07
4.41377e-07
4.5536e-07
4.7003e-07
4.85388e-07
5.01434e-07
5.18169e-07
5.35593e-07
5.53707e-07
5.72509e-07
5.91998e-07
6.12168e-07
6.33012e-07
6.54521e-07
6.76682e-07
6.99476e-07
7.22882e-07
7.46869e-07
7.71404e-07
7.96442e-07
8.21931e-07
8.4781e-07
8.74004e-07
9.00426e-07
9.26977e-07
9.53543e-07
9.79992e-07
1.00618e-06
1.03194e-06
1.0571e-06
1.08147e-06
1.10484e-06
1.12701e-06
1.14776e-06
1.16688e-06
1.18415e-06
1.1994e-06
1.21246e-06
1.22317e-06
1.23143e-06
1.23716e-06
1.24032e-06
1.24085e-06
1.23861e-06
1.23347e-06
1.22536e-06
1.21426e-06
1.20023e-06
1.18339e-06
1.1639e-06
1.14196e-06
1.11783e-06
1.09176e-06
1.06393e-06
1.03441e-06
1.00327e-06
9.70522e-07
9.36168e-07
9.00199e-07
8.62613e-07
8.23389e-07
7.82489e-07
7.39862e-07
6.95442e-07
6.49149e-07
6.00883e-07
5.50528e-07
4.97947e-07
4.42982e-07
3.85451e-07
3.25147e-07
2.61832e-07
1.9524e-07
1.25059e-07
5.08892e-08
-2.75442e-08
-1.09416e-07
-1.94716e-07
-3.02235e-07
-4.62887e-07
-4.36169e-07
3.87544e-07
3.77282e-07
3.67878e-07
3.62009e-07
3.58487e-07
3.56827e-07
3.56854e-07
3.58392e-07
3.6127e-07
3.65347e-07
3.70511e-07
3.76669e-07
3.83751e-07
3.91699e-07
4.00468e-07
4.10026e-07
4.20345e-07
4.31407e-07
4.43195e-07
4.557e-07
4.68915e-07
4.82834e-07
4.97455e-07
5.12775e-07
5.28793e-07
5.4551e-07
5.62922e-07
5.8103e-07
5.9983e-07
6.19318e-07
6.39489e-07
6.60334e-07
6.81841e-07
7.03996e-07
7.26779e-07
7.50166e-07
7.74125e-07
7.98619e-07
8.23603e-07
8.49021e-07
8.74809e-07
9.00889e-07
9.27172e-07
9.53554e-07
9.79917e-07
1.00613e-06
1.03203e-06
1.05747e-06
1.08225e-06
1.10618e-06
1.12906e-06
1.15067e-06
1.17079e-06
1.1892e-06
1.20569e-06
1.22006e-06
1.23213e-06
1.24175e-06
1.24877e-06
1.25312e-06
1.2547e-06
1.25346e-06
1.24931e-06
1.24217e-06
1.23202e-06
1.21886e-06
1.20276e-06
1.18385e-06
1.16227e-06
1.13821e-06
1.11189e-06
1.08351e-06
1.05324e-06
1.02117e-06
9.87407e-07
9.51998e-07
9.14954e-07
8.76286e-07
8.36006e-07
7.94101e-07
7.50542e-07
7.05287e-07
6.58276e-07
6.09435e-07
5.58672e-07
5.05881e-07
4.50934e-07
3.93689e-07
3.33981e-07
2.71625e-07
2.06416e-07
1.38132e-07
6.65148e-08
-8.76587e-09
-8.78781e-08
-1.69838e-07
-2.54639e-07
-3.61823e-07
-5.19817e-07
-4.81284e-07
4.1711e-07
4.07359e-07
3.98353e-07
3.92569e-07
3.88939e-07
3.87058e-07
3.86794e-07
3.88007e-07
3.9055e-07
3.943e-07
3.99152e-07
4.05022e-07
4.11841e-07
4.19553e-07
4.28113e-07
4.37486e-07
4.47643e-07
4.58565e-07
4.70232e-07
4.82635e-07
4.95762e-07
5.09607e-07
5.24166e-07
5.39434e-07
5.5541e-07
5.72089e-07
5.89471e-07
6.07551e-07
6.26325e-07
6.45789e-07
6.65933e-07
6.8675e-07
7.08224e-07
7.3034e-07
7.53077e-07
7.76407e-07
8.00299e-07
8.24712e-07
8.49598e-07
8.749e-07
9.00551e-07
9.2647e-07
9.52565e-07
9.78729e-07
1.00484e-06
1.03076e-06
1.05634e-06
1.08141e-06
1.10577e-06
1.12924e-06
1.1516e-06
1.17263e-06
1.19211e-06
1.20981e-06
1.22552e-06
1.23903e-06
1.25014e-06
1.25871e-06
1.26457e-06
1.26763e-06
1.26778e-06
1.26497e-06
1.25913e-06
1.25022e-06
1.23823e-06
1.22321e-06
1.20522e-06
1.18439e-06
1.16087e-06
1.13482e-06
1.10644e-06
1.0759e-06
1.04336e-06
1.00895e-06
9.7277e-07
9.34896e-07
8.95356e-07
8.54177e-07
8.11381e-07
7.66968e-07
7.20918e-07
6.73198e-07
6.23756e-07
5.72529e-07
5.19433e-07
4.64373e-07
4.07235e-07
3.47893e-07
2.862e-07
2.22e-07
1.55118e-07
8.53737e-08
1.25584e-08
-6.35956e-08
-1.43169e-07
-2.25056e-07
-3.093e-07
-4.16153e-07
-5.71626e-07
-5.22998e-07
4.45429e-07
4.36118e-07
4.27467e-07
4.21799e-07
4.18131e-07
4.16111e-07
4.15641e-07
4.16607e-07
4.18884e-07
4.22363e-07
4.26952e-07
4.32572e-07
4.39158e-07
4.46656e-07
4.55022e-07
4.6422e-07
4.74221e-07
4.85004e-07
4.96549e-07
5.08843e-07
5.21875e-07
5.35636e-07
5.5012e-07
5.65322e-07
5.81238e-07
5.97862e-07
6.15192e-07
6.33223e-07
6.51948e-07
6.71361e-07
6.91453e-07
7.12211e-07
7.33622e-07
7.55667e-07
7.78323e-07
8.01561e-07
8.25347e-07
8.49639e-07
8.74386e-07
8.9953e-07
9.25e-07
9.50714e-07
9.76577e-07
1.00248e-06
1.0283e-06
1.05389e-06
1.0791e-06
1.10376e-06
1.12767e-06
1.15065e-06
1.17246e-06
1.1929e-06
1.21172e-06
1.22872e-06
1.24365e-06
1.25632e-06
1.26652e-06
1.27409e-06
1.27886e-06
1.28072e-06
1.27957e-06
1.27535e-06
1.268e-06
1.2575e-06
1.24387e-06
1.22715e-06
1.20744e-06
1.18484e-06
1.15951e-06
1.13159e-06
1.10127e-06
1.06872e-06
1.03409e-06
9.97514e-07
9.59101e-07
9.18947e-07
8.77094e-07
8.3358e-07
7.88442e-07
7.41689e-07
6.93313e-07
6.43289e-07
5.91578e-07
5.38124e-07
4.82856e-07
4.25692e-07
3.66533e-07
3.05267e-07
2.41772e-07
1.75914e-07
1.07553e-07
3.65428e-08
-3.72775e-08
-1.14125e-07
-1.94012e-07
-2.75733e-07
-3.59419e-07
-4.66299e-07
-6.20906e-07
-5.63112e-07
4.72641e-07
4.63704e-07
4.55366e-07
4.49825e-07
4.4616e-07
4.44057e-07
4.43442e-07
4.44221e-07
4.46287e-07
4.49545e-07
4.53911e-07
4.59314e-07
4.65694e-07
4.72998e-07
4.81184e-07
4.90217e-07
5.00068e-07
5.10713e-07
5.22134e-07
5.34316e-07
5.47245e-07
5.60914e-07
5.75312e-07
5.90435e-07
6.06275e-07
6.22828e-07
6.40088e-07
6.58049e-07
6.76703e-07
6.96042e-07
7.16055e-07
7.3673e-07
7.58049e-07
7.79993e-07
8.02537e-07
8.2565e-07
8.49296e-07
8.73432e-07
8.98005e-07
9.22953e-07
9.48204e-07
9.73675e-07
9.99267e-07
1.02487e-06
1.05036e-06
1.07558e-06
1.1004e-06
1.12462e-06
1.14806e-06
1.17051e-06
1.19177e-06
1.2116e-06
1.22977e-06
1.24606e-06
1.26024e-06
1.27209e-06
1.28141e-06
1.28802e-06
1.29177e-06
1.29252e-06
1.29018e-06
1.28468e-06
1.27597e-06
1.26405e-06
1.24893e-06
1.23068e-06
1.20938e-06
1.18515e-06
1.15813e-06
1.12848e-06
1.09636e-06
1.06194e-06
1.02537e-06
9.86786e-07
9.46309e-07
9.04044e-07
8.60046e-07
8.14365e-07
7.67048e-07
7.18116e-07
6.67572e-07
6.15401e-07
5.61575e-07
5.06048e-07
4.48765e-07
3.89652e-07
3.28628e-07
2.656e-07
2.00464e-07
1.33112e-07
6.34332e-08
-8.6823e-09
-8.33557e-08
-1.60759e-07
-2.40841e-07
-3.22265e-07
-4.05113e-07
-5.11723e-07
-6.67689e-07
-5.98555e-07
4.9884e-07
4.90223e-07
4.82157e-07
4.76744e-07
4.73107e-07
4.70959e-07
4.70243e-07
4.70881e-07
4.7278e-07
4.75856e-07
4.80034e-07
4.8525e-07
4.91446e-07
4.98575e-07
5.06595e-07
5.15473e-07
5.25179e-07
5.3569e-07
5.46987e-07
5.59052e-07
5.71874e-07
5.85441e-07
5.99744e-07
6.14775e-07
6.30528e-07
6.46994e-07
6.64167e-07
6.8204e-07
7.00603e-07
7.19847e-07
7.3976e-07
7.60327e-07
7.81529e-07
8.03346e-07
8.2575e-07
8.48709e-07
8.72186e-07
8.96135e-07
9.20501e-07
9.45222e-07
9.70223e-07
9.95418e-07
1.02071e-06
1.04598e-06
1.0711e-06
1.09594e-06
1.12033e-06
1.14409e-06
1.16703e-06
1.18895e-06
1.20964e-06
1.22886e-06
1.24638e-06
1.26198e-06
1.27541e-06
1.28647e-06
1.29495e-06
1.30067e-06
1.30345e-06
1.30317e-06
1.29974e-06
1.29307e-06
1.28313e-06
1.26991e-06
1.25344e-06
1.23379e-06
1.21104e-06
1.1853e-06
1.15673e-06
1.12547e-06
1.09169e-06
1.05553e-06
1.01717e-06
9.76721e-07
9.34335e-07
8.90116e-07
8.4413e-07
7.96438e-07
7.47097e-07
6.96139e-07
6.43578e-07
5.89409e-07
5.33615e-07
4.76163e-07
4.17008e-07
3.56093e-07
2.9335e-07
2.28703e-07
1.62069e-07
9.33634e-08
2.25008e-08
-5.05955e-08
-1.26011e-07
-2.03878e-07
-2.84089e-07
-3.65134e-07
-4.469e-07
-5.52917e-07
-7.12283e-07
-6.29747e-07
5.24094e-07
5.15751e-07
5.07924e-07
5.02634e-07
4.9904e-07
4.96872e-07
4.96087e-07
4.96618e-07
4.98384e-07
5.0131e-07
5.05329e-07
5.10381e-07
5.16415e-07
5.23385e-07
5.31253e-07
5.39984e-07
5.49551e-07
5.59931e-07
5.71103e-07
5.8305e-07
5.9576e-07
6.09219e-07
6.23418e-07
6.38347e-07
6.53999e-07
6.70365e-07
6.87437e-07
7.05205e-07
7.2366e-07
7.42791e-07
7.62583e-07
7.8302e-07
8.04084e-07
8.25749e-07
8.47989e-07
8.7077e-07
8.94052e-07
9.17787e-07
9.4192e-07
9.66385e-07
9.91108e-07
1.016e-06
1.04096e-06
1.06588e-06
1.09062e-06
1.11504e-06
1.13898e-06
1.16226e-06
1.1847e-06
1.20608e-06
1.22618e-06
1.24479e-06
1.26167e-06
1.27658e-06
1.2893e-06
1.2996e-06
1.30727e-06
1.31213e-06
1.31401e-06
1.31278e-06
1.30834e-06
1.3006e-06
1.28953e-06
1.27514e-06
1.25744e-06
1.2365e-06
1.21242e-06
1.18531e-06
1.1553e-06
1.12255e-06
1.08722e-06
1.04946e-06
1.00943e-06
9.67272e-07
9.2312e-07
8.77093e-07
8.29266e-07
7.79708e-07
7.28489e-07
6.7565e-07
6.21214e-07
5.65188e-07
5.07566e-07
4.48327e-07
3.87437e-07
3.24854e-07
2.60524e-07
1.94388e-07
1.26382e-07
5.64406e-08
-1.54971e-08
-8.94809e-08
-1.65567e-07
-2.43859e-07
-3.24207e-07
-4.04946e-07
-4.85774e-07
-5.91634e-07
-7.55934e-07
-6.61232e-07
5.4845e-07
5.40346e-07
5.32729e-07
5.27555e-07
5.24011e-07
5.21841e-07
5.2101e-07
5.2146e-07
5.2312e-07
5.25921e-07
5.29804e-07
5.34714e-07
5.40604e-07
5.4743e-07
5.55155e-07
5.63749e-07
5.73182e-07
5.83433e-07
5.94481e-07
6.06308e-07
6.18901e-07
6.32247e-07
6.46335e-07
6.61154e-07
6.76694e-07
6.92948e-07
7.09905e-07
7.27554e-07
7.45886e-07
7.64885e-07
7.84539e-07
8.04828e-07
8.25733e-07
8.47227e-07
8.69282e-07
8.91862e-07
9.14925e-07
9.38424e-07
9.62301e-07
9.86488e-07
1.01091e-06
1.03548e-06
1.06009e-06
1.08463e-06
1.10896e-06
1.13295e-06
1.15643e-06
1.17922e-06
1.20114e-06
1.22197e-06
1.2415e-06
1.2595e-06
1.27574e-06
1.28999e-06
1.302e-06
1.31157e-06
1.31847e-06
1.32253e-06
1.32356e-06
1.32144e-06
1.31606e-06
1.30734e-06
1.29525e-06
1.27978e-06
1.26096e-06
1.23885e-06
1.21354e-06
1.18516e-06
1.15383e-06
1.11971e-06
1.08295e-06
1.04371e-06
1.00214e-06
9.58393e-07
9.12607e-07
8.64908e-07
8.15376e-07
7.64091e-07
7.11131e-07
6.56546e-07
6.00369e-07
5.42619e-07
4.833e-07
4.22403e-07
3.59906e-07
2.95779e-07
2.29983e-07
1.62474e-07
9.32049e-08
2.2128e-08
-5.07973e-08
-1.256e-07
-2.02313e-07
-2.81026e-07
-3.61564e-07
-4.42135e-07
-5.22302e-07
-6.28593e-07
-7.99102e-07
-6.94189e-07
5.71947e-07
5.64051e-07
5.56621e-07
5.51556e-07
5.48064e-07
5.45903e-07
5.45043e-07
5.45432e-07
5.47006e-07
5.49704e-07
5.53471e-07
5.58256e-07
5.64016e-07
5.7071e-07
5.78304e-07
5.86767e-07
5.96072e-07
6.06197e-07
6.17121e-07
6.28827e-07
6.41301e-07
6.54528e-07
6.68498e-07
6.83198e-07
6.98619e-07
7.14749e-07
7.3158e-07
7.49098e-07
7.67291e-07
7.86145e-07
8.05645e-07
8.2577e-07
8.46498e-07
8.67803e-07
8.89654e-07
9.12014e-07
9.3484e-07
9.58083e-07
9.81684e-07
1.00557e-06
1.02968e-06
1.0539e-06
1.07814e-06
1.10229e-06
1.1262e-06
1.14975e-06
1.17276e-06
1.19505e-06
1.21644e-06
1.23673e-06
1.25568e-06
1.27308e-06
1.28869e-06
1.30229e-06
1.31362e-06
1.32249e-06
1.32866e-06
1.33195e-06
1.33219e-06
1.32924e-06
1.323e-06
1.31337e-06
1.30033e-06
1.28387e-06
1.26402e-06
1.24084e-06
1.21442e-06
1.18487e-06
1.15232e-06
1.11693e-06
1.07885e-06
1.03824e-06
9.95257e-07
9.50042e-07
9.02747e-07
8.53501e-07
8.02392e-07
7.49507e-07
6.94933e-07
6.3873e-07
5.80939e-07
5.2159e-07
4.60697e-07
3.98262e-07
3.34275e-07
2.68719e-07
2.01566e-07
1.32789e-07
6.23521e-08
-9.77418e-09
-8.36151e-08
-1.59182e-07
-2.36495e-07
-3.15636e-07
-3.9642e-07
-4.76945e-07
-5.56669e-07
-6.63703e-07
-8.4077e-07
-7.26642e-07
5.94615e-07
5.86903e-07
5.7964e-07
5.74675e-07
5.71237e-07
5.69092e-07
5.68214e-07
5.68557e-07
5.70062e-07
5.72673e-07
5.76338e-07
5.81014e-07
5.86657e-07
5.9323e-07
6.00701e-07
6.0904e-07
6.18222e-07
6.28223e-07
6.39024e-07
6.50609e-07
6.6296e-07
6.76065e-07
6.89911e-07
7.04486e-07
7.19778e-07
7.35777e-07
7.5247e-07
7.69846e-07
7.87889e-07
8.06585e-07
8.25917e-07
8.45863e-07
8.664e-07
8.875e-07
9.09131e-07
9.31256e-07
9.53829e-07
9.768e-07
1.00011e-06
1.02369e-06
1.04745e-06
1.07132e-06
1.09518e-06
1.11892e-06
1.14241e-06
1.1655e-06
1.18803e-06
1.20982e-06
1.23069e-06
1.25042e-06
1.26881e-06
1.28561e-06
1.30061e-06
1.31357e-06
1.32426e-06
1.33244e-06
1.33792e-06
1.34049e-06
1.33998e-06
1.33626e-06
1.32921e-06
1.31875e-06
1.30484e-06
1.28747e-06
1.26668e-06
1.24251e-06
1.21506e-06
1.18443e-06
1.15077e-06
1.11421e-06
1.07492e-06
1.03305e-06
9.88751e-07
9.42182e-07
8.93493e-07
8.42818e-07
7.9025e-07
7.35885e-07
6.79817e-07
6.22114e-07
5.62827e-07
5.01995e-07
4.39642e-07
3.75781e-07
3.10413e-07
2.43532e-07
1.75123e-07
1.0517e-07
3.36515e-08
-3.94493e-08
-1.14144e-07
-1.90433e-07
-2.68323e-07
-3.47898e-07
-4.28968e-07
-5.09536e-07
-5.8896e-07
-6.96858e-07
-8.80332e-07
-7.57659e-07
6.16476e-07
6.08929e-07
6.01816e-07
5.96944e-07
5.9356e-07
5.91436e-07
5.90548e-07
5.90856e-07
5.92304e-07
5.9484e-07
5.98418e-07
6.02995e-07
6.08533e-07
6.14995e-07
6.2235e-07
6.30572e-07
6.39634e-07
6.49514e-07
6.60194e-07
6.71655e-07
6.83883e-07
6.96862e-07
7.1058e-07
7.25023e-07
7.40181e-07
7.5604e-07
7.72587e-07
7.8981e-07
8.07693e-07
8.2622e-07
8.45372e-07
8.65127e-07
8.8546e-07
9.06343e-07
9.27742e-07
9.49617e-07
9.71924e-07
9.9461e-07
1.01761e-06
1.04087e-06
1.06429e-06
1.08778e-06
1.11125e-06
1.13458e-06
1.15763e-06
1.18026e-06
1.20231e-06
1.2236e-06
1.24394e-06
1.26313e-06
1.28095e-06
1.29718e-06
1.31158e-06
1.32393e-06
1.33398e-06
1.34152e-06
1.34633e-06
1.34821e-06
1.34701e-06
1.34256e-06
1.33476e-06
1.32353e-06
1.30881e-06
1.29061e-06
1.26895e-06
1.24388e-06
1.21548e-06
1.18387e-06
1.14918e-06
1.11155e-06
1.07114e-06
1.0281e-06
9.82597e-07
9.34779e-07
8.84804e-07
8.32808e-07
7.78892e-07
7.23158e-07
6.65706e-07
6.06614e-07
5.45941e-07
4.83735e-07
4.20029e-07
3.54845e-07
2.88196e-07
2.20086e-07
1.50512e-07
7.94674e-08
6.9441e-09
-6.70647e-08
-1.4256e-07
-2.1953e-07
-2.97977e-07
-3.77985e-07
-4.59364e-07
-5.4003e-07
-6.19243e-07
-7.28021e-07
-9.17544e-07
-7.86937e-07
6.37552e-07
6.30152e-07
6.23176e-07
6.18391e-07
6.15059e-07
6.12958e-07
6.12067e-07
6.12348e-07
6.13749e-07
6.16221e-07
6.19722e-07
6.2421e-07
6.29651e-07
6.36009e-07
6.43256e-07
6.51365e-07
6.60312e-07
6.70074e-07
6.80633e-07
6.91971e-07
7.04073e-07
7.16924e-07
7.3051e-07
7.44817e-07
7.59834e-07
7.75546e-07
7.91941e-07
8.09004e-07
8.26718e-07
8.45066e-07
8.64028e-07
8.83582e-07
9.03701e-07
9.24356e-07
9.45511e-07
9.67127e-07
9.89156e-07
1.01155e-06
1.03424e-06
1.05715e-06
1.08022e-06
1.10334e-06
1.12641e-06
1.14932e-06
1.17193e-06
1.1941e-06
1.21567e-06
1.23646e-06
1.25628e-06
1.27493e-06
1.2922e-06
1.30786e-06
1.32168e-06
1.33342e-06
1.34287e-06
1.34978e-06
1.35396e-06
1.3552e-06
1.35333e-06
1.34821e-06
1.33971e-06
1.32776e-06
1.31231e-06
1.29334e-06
1.27087e-06
1.24497e-06
1.21571e-06
1.18319e-06
1.14756e-06
1.10894e-06
1.0675e-06
1.02339e-06
9.76771e-07
9.27802e-07
8.76639e-07
8.23425e-07
7.68263e-07
7.11263e-07
6.52532e-07
5.92154e-07
5.30197e-07
4.66717e-07
4.01756e-07
3.35346e-07
2.67509e-07
1.98258e-07
1.27601e-07
5.55423e-08
-1.7917e-08
-9.27737e-08
-1.69019e-07
-2.46634e-07
-3.25615e-07
-4.06047e-07
-4.87743e-07
-5.68532e-07
-6.47582e-07
-7.57197e-07
-9.52304e-07
-8.1435e-07
6.57859e-07
6.50594e-07
6.43742e-07
6.39037e-07
6.35755e-07
6.33679e-07
6.32789e-07
6.33049e-07
6.3441e-07
6.36827e-07
6.40259e-07
6.44668e-07
6.50019e-07
6.56281e-07
6.63425e-07
6.71426e-07
6.8026e-07
6.89907e-07
7.00346e-07
7.11562e-07
7.23537e-07
7.36257e-07
7.49708e-07
7.63876e-07
7.78747e-07
7.94308e-07
8.10543e-07
8.27438e-07
8.44976e-07
8.63138e-07
8.81903e-07
9.01247e-07
9.21144e-07
9.41562e-07
9.62465e-07
9.83812e-07
1.00556e-06
1.02764e-06
1.05001e-06
1.07259e-06
1.09529e-06
1.11803e-06
1.1407e-06
1.16319e-06
1.18536e-06
1.20707e-06
1.22815e-06
1.24845e-06
1.26776e-06
1.28588e-06
1.3026e-06
1.31771e-06
1.33096e-06
1.34213e-06
1.35099e-06
1.35732e-06
1.36089e-06
1.36152e-06
1.35903e-06
1.35327e-06
1.34412e-06
1.3315e-06
1.31536e-06
1.29568e-06
1.27248e-06
1.24581e-06
1.21575e-06
1.18241e-06
1.1459e-06
1.10638e-06
1.06399e-06
1.0189e-06
9.71254e-07
9.21223e-07
8.68965e-07
8.14625e-07
7.58314e-07
7.00144e-07
6.40229e-07
5.78661e-07
5.15515e-07
4.50854e-07
3.84729e-07
3.17182e-07
2.48241e-07
1.77931e-07
1.06268e-07
3.32647e-08
-4.10675e-08
-1.16717e-07
-1.93666e-07
-2.7189e-07
-3.51379e-07
-4.32221e-07
-5.14225e-07
-5.95143e-07
-6.74052e-07
-7.84424e-07
-9.84591e-07
-8.39848e-07
6.77413e-07
6.7027e-07
6.63532e-07
6.58903e-07
6.55669e-07
6.53618e-07
6.52732e-07
6.52976e-07
6.54303e-07
6.56671e-07
6.60041e-07
6.64376e-07
6.69644e-07
6.75815e-07
6.82862e-07
6.90759e-07
6.99485e-07
7.09018e-07
7.19339e-07
7.30432e-07
7.4228e-07
7.54868e-07
7.68182e-07
7.82207e-07
7.96929e-07
8.12334e-07
8.28405e-07
8.45128e-07
8.62484e-07
8.80453e-07
8.99014e-07
9.18143e-07
9.3781e-07
9.57984e-07
9.78629e-07
9.99702e-07
1.02115e-06
1.04293e-06
1.06497e-06
1.0872e-06
1.10954e-06
1.1319e-06
1.15417e-06
1.17623e-06
1.19796e-06
1.21921e-06
1.23983e-06
1.25963e-06
1.27843e-06
1.29604e-06
1.31223e-06
1.3268e-06
1.3395e-06
1.35012e-06
1.35841e-06
1.36417e-06
1.36717e-06
1.36722e-06
1.36414e-06
1.35779e-06
1.34803e-06
1.3348e-06
1.31802e-06
1.29769e-06
1.27381e-06
1.24644e-06
1.21564e-06
1.18153e-06
1.14423e-06
1.10387e-06
1.06061e-06
1.01461e-06
9.66024e-07
9.15016e-07
8.61748e-07
8.06371e-07
7.48998e-07
6.89747e-07
6.28738e-07
5.66068e-07
5.01821e-07
4.36066e-07
3.68862e-07
3.00258e-07
2.30293e-07
1.58998e-07
8.63977e-08
1.25144e-08
-6.26326e-08
-1.39024e-07
-2.16634e-07
-2.95431e-07
-3.75401e-07
-4.56632e-07
-5.3893e-07
-6.19969e-07
-6.98741e-07
-8.09776e-07
-1.01446e-06
-8.63453e-07
6.96225e-07
6.89196e-07
6.82564e-07
6.78005e-07
6.74817e-07
6.72791e-07
6.7191e-07
6.72142e-07
6.7344e-07
6.75764e-07
6.79078e-07
6.83345e-07
6.88536e-07
6.94621e-07
7.01575e-07
7.09372e-07
7.17992e-07
7.27413e-07
7.37618e-07
7.48589e-07
7.6031e-07
7.72765e-07
7.8594e-07
7.9982e-07
8.1439e-07
8.29635e-07
8.45539e-07
8.62085e-07
8.79254e-07
8.97027e-07
9.1538e-07
9.34287e-07
9.5372e-07
9.73646e-07
9.94028e-07
1.01482e-06
1.03598e-06
1.05745e-06
1.07916e-06
1.10104e-06
1.12301e-06
1.14499e-06
1.16685e-06
1.1885e-06
1.20979e-06
1.23059e-06
1.25073e-06
1.27005e-06
1.28836e-06
1.30546e-06
1.32114e-06
1.33518e-06
1.34735e-06
1.35743e-06
1.36519e-06
1.37041e-06
1.37286e-06
1.37236e-06
1.36873e-06
1.36182e-06
1.3515e-06
1.33769e-06
1.32032e-06
1.29938e-06
1.27488e-06
1.24686e-06
1.21539e-06
1.18058e-06
1.14254e-06
1.10142e-06
1.05736e-06
1.01052e-06
9.61067e-07
9.09158e-07
8.5496e-07
7.98626e-07
7.40272e-07
6.80023e-07
6.18002e-07
5.54313e-07
4.89046e-07
4.22277e-07
3.54072e-07
2.84487e-07
2.13569e-07
1.41357e-07
6.78843e-08
-6.82024e-09
-8.2729e-08
-1.59815e-07
-2.38046e-07
-3.17383e-07
-3.97806e-07
-4.79402e-07
-5.61973e-07
-6.4312e-07
-7.21753e-07
-8.33356e-07
-1.04201e-06
-8.85235e-07
7.1431e-07
7.07386e-07
7.00852e-07
6.96359e-07
6.93215e-07
6.91214e-07
6.90339e-07
6.9056e-07
6.91833e-07
6.94118e-07
6.97379e-07
7.01584e-07
7.06702e-07
7.12706e-07
7.1957e-07
7.27271e-07
7.35787e-07
7.451e-07
7.5519e-07
7.6604e-07
7.77634e-07
7.89956e-07
8.02991e-07
8.16725e-07
8.31141e-07
8.46224e-07
8.61958e-07
8.78324e-07
8.95304e-07
9.12876e-07
9.31017e-07
9.497e-07
9.68896e-07
9.88571e-07
1.00869e-06
1.0292e-06
1.05006e-06
1.07121e-06
1.09259e-06
1.11413e-06
1.13574e-06
1.15733e-06
1.1788e-06
1.20002e-06
1.22089e-06
1.24124e-06
1.26092e-06
1.27977e-06
1.29759e-06
1.3142e-06
1.32937e-06
1.34291e-06
1.35457e-06
1.36414e-06
1.37138e-06
1.37607e-06
1.37801e-06
1.37699e-06
1.37284e-06
1.3654e-06
1.35455e-06
1.34021e-06
1.32229e-06
1.30079e-06
1.27571e-06
1.2471e-06
1.21501e-06
1.17955e-06
1.14084e-06
1.09901e-06
1.05422e-06
1.00662e-06
9.56366e-07
9.03629e-07
8.48574e-07
7.91357e-07
7.32099e-07
6.70927e-07
6.07971e-07
5.43339e-07
4.77126e-07
4.09417e-07
3.40282e-07
2.69786e-07
1.97982e-07
1.24916e-07
5.06284e-08
-2.48434e-08
-1.01465e-07
-1.79203e-07
-2.58017e-07
-3.37861e-07
-4.18711e-07
-5.0065e-07
-5.83472e-07
-6.64712e-07
-7.43204e-07
-8.55287e-07
-1.0674e-06
-9.05303e-07
7.31676e-07
7.2485e-07
7.18408e-07
7.13977e-07
7.10875e-07
7.08898e-07
7.08031e-07
7.08244e-07
7.09494e-07
7.11743e-07
7.14956e-07
7.19102e-07
7.24151e-07
7.30077e-07
7.36855e-07
7.44463e-07
7.52879e-07
7.62085e-07
7.72061e-07
7.82791e-07
7.94259e-07
8.06448e-07
8.19344e-07
8.3293e-07
8.47192e-07
8.62112e-07
8.77674e-07
8.93858e-07
9.10647e-07
9.28016e-07
9.45943e-07
9.644e-07
9.83357e-07
1.00278e-06
1.02263e-06
1.04286e-06
1.06342e-06
1.08426e-06
1.10531e-06
1.1265e-06
1.14775e-06
1.16896e-06
1.19003e-06
1.21085e-06
1.23129e-06
1.2512e-06
1.27044e-06
1.28882e-06
1.30617e-06
1.3223e-06
1.33699e-06
1.35003e-06
1.3612e-06
1.37028e-06
1.37702e-06
1.38122e-06
1.38267e-06
1.38116e-06
1.37651e-06
1.36858e-06
1.35724e-06
1.34239e-06
1.32397e-06
1.30196e-06
1.27635e-06
1.24718e-06
1.21452e-06
1.17847e-06
1.13914e-06
1.09667e-06
1.0512e-06
1.00289e-06
9.51908e-07
8.98409e-07
8.42564e-07
7.84533e-07
7.24441e-07
6.62418e-07
5.98596e-07
5.33091e-07
4.66003e-07
3.9742e-07
3.27423e-07
2.56079e-07
1.83449e-07
1.09586e-07
3.45381e-08
-4.16518e-08
-1.18942e-07
-1.97292e-07
-2.76655e-07
-3.56978e-07
-4.38229e-07
-5.20489e-07
-6.03544e-07
-6.84863e-07
-7.63219e-07
-8.75709e-07
-1.09078e-06
-9.23786e-07
7.48335e-07
7.41602e-07
7.35246e-07
7.30873e-07
7.27811e-07
7.25857e-07
7.24999e-07
7.25204e-07
7.26434e-07
7.28649e-07
7.31817e-07
7.35907e-07
7.40891e-07
7.46743e-07
7.53438e-07
7.60956e-07
7.69274e-07
7.78375e-07
7.8824e-07
7.98852e-07
8.10194e-07
8.22251e-07
8.35008e-07
8.48447e-07
8.62553e-07
8.7731e-07
8.92699e-07
9.08702e-07
9.25298e-07
9.42464e-07
9.60176e-07
9.78407e-07
9.97124e-07
1.01629e-06
1.03587e-06
1.05582e-06
1.07609e-06
1.09662e-06
1.11734e-06
1.13819e-06
1.15908e-06
1.17992e-06
1.2006e-06
1.22102e-06
1.24104e-06
1.26052e-06
1.27932e-06
1.29725e-06
1.31415e-06
1.32981e-06
1.34403e-06
1.3566e-06
1.3673e-06
1.37589e-06
1.38217e-06
1.3859e-06
1.38687e-06
1.3849e-06
1.37979e-06
1.3714e-06
1.3596e-06
1.34428e-06
1.32539e-06
1.3029e-06
1.27679e-06
1.24712e-06
1.21394e-06
1.17735e-06
1.13745e-06
1.09438e-06
1.04829e-06
9.9934e-07
9.4768e-07
8.93479e-07
8.36908e-07
7.78127e-07
7.17265e-07
6.54455e-07
5.89833e-07
5.2352e-07
4.55619e-07
3.86227e-07
3.15427e-07
2.43294e-07
1.69894e-07
9.52875e-08
1.95275e-08
-5.73358e-08
-1.35254e-07
-2.14181e-07
-2.94062e-07
-3.74838e-07
-4.5647e-07
-5.39034e-07
-6.22305e-07
-7.03696e-07
-7.81925e-07
-8.94767e-07
-1.11235e-06
-9.40826e-07
7.64297e-07
7.5765e-07
7.51376e-07
7.47058e-07
7.44033e-07
7.42102e-07
7.41252e-07
7.41451e-07
7.42662e-07
7.44846e-07
7.47972e-07
7.52009e-07
7.56931e-07
7.62711e-07
7.69327e-07
7.76757e-07
7.8498e-07
7.93979e-07
8.03734e-07
8.14229e-07
8.25448e-07
8.37374e-07
8.49992e-07
8.63285e-07
8.77236e-07
8.9183e-07
9.07047e-07
9.22867e-07
9.39271e-07
9.56235e-07
9.73733e-07
9.91737e-07
1.01022e-06
1.02913e-06
1.04845e-06
1.06812e-06
1.08809e-06
1.10832e-06
1.12872e-06
1.14923e-06
1.16976e-06
1.19023e-06
1.21054e-06
1.23056e-06
1.25018e-06
1.26924e-06
1.28761e-06
1.3051e-06
1.32155e-06
1.33676e-06
1.35053e-06
1.36265e-06
1.37289e-06