/*--------------------------------*- C++ -*----------------------------------*\
  =========                 |
  \\      /  F ield         | OpenFOAM: The Open Source CFD Toolbox
   \\    /   O peration     | Website:  https://openfoam.org
    \\  /    A nd           | Version:  11
     \\/     M anipulation  |
\*---------------------------------------------------------------------------*/
FoamFile
{
    format      ascii;
    class       volScalarField;
    location    "600";
    object      k;
}
// * * * * * * * * * * * * * * * * * * * * * * * * * * * * * * * * * * * * * //

dimensions      [0 2 -2 0 0 0 0];

internalField   nonuniform List<scalar> 
10000
(
0.000939687
0.000835718
0.00074589
0.000668034
0.00060034
0.000541299
0.000489645
0.000444316
0.000404416
0.000369192
0.000338004
0.00031031
0.00028565
0.000263631
0.000243917
0.00022622
0.000210293
0.000195923
0.000182926
0.000171143
0.000160436
0.000150685
0.000141784
0.000133644
0.000126182
0.000119329
0.000113023
0.00010721
0.000101841
9.68727e-05
9.22683e-05
8.79937e-05
8.40189e-05
8.03169e-05
7.68639e-05
7.36384e-05
7.0621e-05
6.77944e-05
6.51429e-05
6.26525e-05
6.03104e-05
5.8105e-05
5.6026e-05
5.40636e-05
5.22095e-05
5.04555e-05
4.87946e-05
4.72202e-05
4.57263e-05
4.43074e-05
4.29584e-05
4.16747e-05
4.04521e-05
3.92866e-05
3.81746e-05
3.71129e-05
3.60983e-05
3.5128e-05
3.41994e-05
3.33101e-05
3.24578e-05
3.16405e-05
3.08562e-05
3.01032e-05
2.93798e-05
2.86845e-05
2.80159e-05
2.73727e-05
2.67537e-05
2.61577e-05
2.55839e-05
2.50311e-05
2.44987e-05
2.39857e-05
2.34914e-05
2.30153e-05
2.25568e-05
2.21152e-05
2.16902e-05
2.12813e-05
2.08881e-05
2.05105e-05
2.0148e-05
1.98005e-05
1.94678e-05
1.91498e-05
1.88464e-05
1.85576e-05
1.82834e-05
1.80241e-05
1.77797e-05
1.75506e-05
1.73374e-05
1.71409e-05
1.6962e-05
1.68024e-05
1.66643e-05
1.65508e-05
1.64661e-05
1.64168e-05
0.000939687
0.000835718
0.00074589
0.000668034
0.00060034
0.000541299
0.000489645
0.000444316
0.000404416
0.000369192
0.000338004
0.00031031
0.00028565
0.000263631
0.000243917
0.00022622
0.000210293
0.000195923
0.000182926
0.000171144
0.000160436
0.000150685
0.000141785
0.000133644
0.000126182
0.000119329
0.000113023
0.00010721
0.000101841
9.68728e-05
9.22684e-05
8.79939e-05
8.4019e-05
8.03171e-05
7.68641e-05
7.36385e-05
7.06211e-05
6.77945e-05
6.51431e-05
6.26527e-05
6.03106e-05
5.81052e-05
5.60261e-05
5.40638e-05
5.22097e-05
5.04557e-05
4.87948e-05
4.72204e-05
4.57265e-05
4.43076e-05
4.29586e-05
4.16749e-05
4.04523e-05
3.92868e-05
3.81749e-05
3.71132e-05
3.60986e-05
3.51283e-05
3.41997e-05
3.33104e-05
3.24581e-05
3.16408e-05
3.08565e-05
3.01035e-05
2.93801e-05
2.86848e-05
2.80162e-05
2.7373e-05
2.6754e-05
2.61581e-05
2.55842e-05
2.50315e-05
2.4499e-05
2.3986e-05
2.34918e-05
2.30157e-05
2.25572e-05
2.21156e-05
2.16906e-05
2.12817e-05
2.08885e-05
2.05109e-05
2.01484e-05
1.98009e-05
1.94682e-05
1.91501e-05
1.88467e-05
1.85579e-05
1.82838e-05
1.80244e-05
1.778e-05
1.75509e-05
1.73377e-05
1.71412e-05
1.69623e-05
1.68027e-05
1.66646e-05
1.6551e-05
1.64663e-05
1.6417e-05
0.000939687
0.000835718
0.00074589
0.000668034
0.00060034
0.0005413
0.000489646
0.000444316
0.000404417
0.000369192
0.000338004
0.00031031
0.00028565
0.000263631
0.000243917
0.00022622
0.000210293
0.000195924
0.000182927
0.000171144
0.000160437
0.000150685
0.000141785
0.000133644
0.000126182
0.000119329
0.000113024
0.00010721
0.000101841
9.68731e-05
9.22687e-05
8.79941e-05
8.40193e-05
8.03174e-05
7.68644e-05
7.36389e-05
7.06215e-05
6.77949e-05
6.51434e-05
6.2653e-05
6.03109e-05
5.81056e-05
5.60265e-05
5.40642e-05
5.22101e-05
5.04561e-05
4.87953e-05
4.72209e-05
4.5727e-05
4.43081e-05
4.29591e-05
4.16754e-05
4.04528e-05
3.92873e-05
3.81754e-05
3.71137e-05
3.60991e-05
3.51288e-05
3.42002e-05
3.33109e-05
3.24587e-05
3.16414e-05
3.08571e-05
3.01041e-05
2.93807e-05
2.86854e-05
2.80168e-05
2.73737e-05
2.67547e-05
2.61587e-05
2.55849e-05
2.50322e-05
2.44997e-05
2.39867e-05
2.34925e-05
2.30164e-05
2.25579e-05
2.21163e-05
2.16913e-05
2.12824e-05
2.08892e-05
2.05116e-05
2.01491e-05
1.98016e-05
1.94688e-05
1.91508e-05
1.88474e-05
1.85586e-05
1.82844e-05
1.8025e-05
1.77806e-05
1.75515e-05
1.73383e-05
1.71417e-05
1.69628e-05
1.68032e-05
1.6665e-05
1.65514e-05
1.64667e-05
1.64174e-05
0.000939687
0.000835718
0.00074589
0.000668034
0.000600341
0.0005413
0.000489646
0.000444316
0.000404417
0.000369192
0.000338004
0.00031031
0.000285651
0.000263631
0.000243917
0.000226221
0.000210294
0.000195924
0.000182927
0.000171144
0.000160437
0.000150686
0.000141785
0.000133644
0.000126183
0.00011933
0.000113024
0.000107211
0.000101841
9.68735e-05
9.22691e-05
8.79946e-05
8.40197e-05
8.03178e-05
7.68649e-05
7.36393e-05
7.0622e-05
6.77954e-05
6.51439e-05
6.26536e-05
6.03115e-05
5.81061e-05
5.60271e-05
5.40648e-05
5.22106e-05
5.04567e-05
4.87959e-05
4.72215e-05
4.57276e-05
4.43087e-05
4.29598e-05
4.16761e-05
4.04535e-05
3.92881e-05
3.81761e-05
3.71144e-05
3.60999e-05
3.51296e-05
3.4201e-05
3.33117e-05
3.24595e-05
3.16422e-05
3.08579e-05
3.0105e-05
2.93816e-05
2.86863e-05
2.80178e-05
2.73746e-05
2.67556e-05
2.61597e-05
2.55859e-05
2.50332e-05
2.45007e-05
2.39878e-05
2.34935e-05
2.30175e-05
2.25589e-05
2.21173e-05
2.16923e-05
2.12834e-05
2.08903e-05
2.05126e-05
2.01501e-05
1.98026e-05
1.94698e-05
1.91518e-05
1.88484e-05
1.85595e-05
1.82853e-05
1.80259e-05
1.77814e-05
1.75523e-05
1.73391e-05
1.71424e-05
1.69635e-05
1.68038e-05
1.66656e-05
1.6552e-05
1.64673e-05
1.6418e-05
0.000939687
0.000835718
0.00074589
0.000668034
0.000600341
0.0005413
0.000489646
0.000444316
0.000404417
0.000369192
0.000338004
0.000310311
0.000285651
0.000263632
0.000243918
0.000226221
0.000210294
0.000195924
0.000182927
0.000171144
0.000160437
0.000150686
0.000141786
0.000133645
0.000126183
0.00011933
0.000113024
0.000107211
0.000101842
9.6874e-05
9.22697e-05
8.79951e-05
8.40203e-05
8.03184e-05
7.68655e-05
7.364e-05
7.06226e-05
6.7796e-05
6.51446e-05
6.26542e-05
6.03122e-05
5.81069e-05
5.60278e-05
5.40656e-05
5.22114e-05
5.04575e-05
4.87967e-05
4.72223e-05
4.57285e-05
4.43096e-05
4.29606e-05
4.1677e-05
4.04544e-05
3.9289e-05
3.81771e-05
3.71154e-05
3.61009e-05
3.51306e-05
3.42021e-05
3.33128e-05
3.24606e-05
3.16433e-05
3.08591e-05
3.01061e-05
2.93828e-05
2.86875e-05
2.8019e-05
2.73758e-05
2.67569e-05
2.6161e-05
2.55872e-05
2.50345e-05
2.4502e-05
2.39891e-05
2.34949e-05
2.30188e-05
2.25602e-05
2.21187e-05
2.16937e-05
2.12848e-05
2.08916e-05
2.05139e-05
2.01514e-05
1.98039e-05
1.94711e-05
1.91531e-05
1.88496e-05
1.85607e-05
1.82865e-05
1.8027e-05
1.77825e-05
1.75534e-05
1.73401e-05
1.71434e-05
1.69644e-05
1.68047e-05
1.66665e-05
1.65528e-05
1.64681e-05
1.64187e-05
0.000939687
0.000835718
0.00074589
0.000668034
0.000600341
0.0005413
0.000489646
0.000444317
0.000404417
0.000369193
0.000338005
0.000310311
0.000285651
0.000263632
0.000243918
0.000226221
0.000210294
0.000195925
0.000182928
0.000171145
0.000160438
0.000150687
0.000141786
0.000133645
0.000126184
0.000119331
0.000113025
0.000107212
0.000101842
9.68747e-05
9.22703e-05
8.79958e-05
8.4021e-05
8.03192e-05
7.68662e-05
7.36407e-05
7.06234e-05
6.77968e-05
6.51454e-05
6.26551e-05
6.0313e-05
5.81077e-05
5.60287e-05
5.40665e-05
5.22124e-05
5.04585e-05
4.87977e-05
4.72233e-05
4.57295e-05
4.43106e-05
4.29617e-05
4.16781e-05
4.04556e-05
3.92902e-05
3.81783e-05
3.71166e-05
3.61021e-05
3.51319e-05
3.42034e-05
3.33141e-05
3.24619e-05
3.16447e-05
3.08605e-05
3.01075e-05
2.93842e-05
2.8689e-05
2.80205e-05
2.73773e-05
2.67584e-05
2.61625e-05
2.55887e-05
2.50361e-05
2.45036e-05
2.39907e-05
2.34965e-05
2.30205e-05
2.25619e-05
2.21204e-05
2.16953e-05
2.12864e-05
2.08933e-05
2.05156e-05
2.0153e-05
1.98055e-05
1.94727e-05
1.91546e-05
1.88511e-05
1.85622e-05
1.82879e-05
1.80284e-05
1.77839e-05
1.75547e-05
1.73413e-05
1.71445e-05
1.69655e-05
1.68058e-05
1.66675e-05
1.65537e-05
1.6469e-05
1.64196e-05
0.000939687
0.000835718
0.00074589
0.000668034
0.000600341
0.0005413
0.000489646
0.000444317
0.000404417
0.000369193
0.000338005
0.000310311
0.000285652
0.000263633
0.000243919
0.000226222
0.000210295
0.000195925
0.000182928
0.000171145
0.000160438
0.000150687
0.000141787
0.000133646
0.000126184
0.000119331
0.000113026
0.000107212
0.000101843
9.68754e-05
9.22711e-05
8.79966e-05
8.40218e-05
8.032e-05
7.68671e-05
7.36416e-05
7.06243e-05
6.77978e-05
6.51464e-05
6.26561e-05
6.0314e-05
5.81088e-05
5.60298e-05
5.40676e-05
5.22135e-05
5.04596e-05
4.87988e-05
4.72245e-05
4.57307e-05
4.43119e-05
4.2963e-05
4.16794e-05
4.04569e-05
3.92915e-05
3.81797e-05
3.7118e-05
3.61035e-05
3.51334e-05
3.42049e-05
3.33157e-05
3.24635e-05
3.16463e-05
3.08621e-05
3.01092e-05
2.93859e-05
2.86907e-05
2.80222e-05
2.73791e-05
2.67602e-05
2.61644e-05
2.55906e-05
2.50379e-05
2.45055e-05
2.39926e-05
2.34984e-05
2.30224e-05
2.25638e-05
2.21223e-05
2.16973e-05
2.12884e-05
2.08952e-05
2.05175e-05
2.0155e-05
1.98074e-05
1.94746e-05
1.91564e-05
1.88529e-05
1.8564e-05
1.82896e-05
1.803e-05
1.77854e-05
1.75561e-05
1.73427e-05
1.71459e-05
1.69668e-05
1.6807e-05
1.66686e-05
1.65548e-05
1.647e-05
1.64206e-05
0.000939687
0.000835718
0.000745891
0.000668034
0.000600341
0.0005413
0.000489647
0.000444317
0.000404418
0.000369193
0.000338005
0.000310312
0.000285652
0.000263633
0.000243919
0.000226222
0.000210295
0.000195926
0.000182929
0.000171146
0.000160439
0.000150688
0.000141787
0.000133647
0.000126185
0.000119332
0.000113027
0.000107213
0.000101844
9.68763e-05
9.2272e-05
8.79975e-05
8.40228e-05
8.0321e-05
7.68681e-05
7.36426e-05
7.06253e-05
6.77988e-05
6.51475e-05
6.26572e-05
6.03152e-05
5.81099e-05
5.6031e-05
5.40688e-05
5.22147e-05
5.04609e-05
4.88002e-05
4.72259e-05
4.57321e-05
4.43133e-05
4.29644e-05
4.16809e-05
4.04584e-05
3.92931e-05
3.81813e-05
3.71197e-05
3.61052e-05
3.51351e-05
3.42066e-05
3.33174e-05
3.24653e-05
3.16481e-05
3.0864e-05
3.01111e-05
2.93878e-05
2.86927e-05
2.80242e-05
2.73811e-05
2.67623e-05
2.61665e-05
2.55927e-05
2.50401e-05
2.45077e-05
2.39948e-05
2.35006e-05
2.30246e-05
2.25661e-05
2.21245e-05
2.16995e-05
2.12906e-05
2.08974e-05
2.05197e-05
2.01571e-05
1.98095e-05
1.94767e-05
1.91585e-05
1.88549e-05
1.85659e-05
1.82915e-05
1.80319e-05
1.77872e-05
1.75578e-05
1.73443e-05
1.71474e-05
1.69682e-05
1.68083e-05
1.66699e-05
1.6556e-05
1.64712e-05
1.64217e-05
0.000939687
0.000835718
0.000745891
0.000668034
0.000600341
0.000541301
0.000489647
0.000444317
0.000404418
0.000369194
0.000338006
0.000310312
0.000285652
0.000263634
0.00024392
0.000226223
0.000210296
0.000195926
0.00018293
0.000171147
0.00016044
0.000150688
0.000141788
0.000133647
0.000126186
0.000119333
0.000113027
0.000107214
0.000101845
9.68772e-05
9.2273e-05
8.79985e-05
8.40238e-05
8.0322e-05
7.68692e-05
7.36437e-05
7.06265e-05
6.78e-05
6.51487e-05
6.26584e-05
6.03165e-05
5.81113e-05
5.60323e-05
5.40702e-05
5.22161e-05
5.04624e-05
4.88016e-05
4.72274e-05
4.57336e-05
4.43149e-05
4.29661e-05
4.16826e-05
4.04601e-05
3.92948e-05
3.8183e-05
3.71215e-05
3.6107e-05
3.51369e-05
3.42085e-05
3.33194e-05
3.24673e-05
3.16501e-05
3.0866e-05
3.01132e-05
2.939e-05
2.86949e-05
2.80264e-05
2.73834e-05
2.67646e-05
2.61688e-05
2.55951e-05
2.50424e-05
2.45101e-05
2.39972e-05
2.35031e-05
2.3027e-05
2.25685e-05
2.2127e-05
2.1702e-05
2.12931e-05
2.08999e-05
2.05221e-05
2.01595e-05
1.98119e-05
1.9479e-05
1.91608e-05
1.88572e-05
1.85681e-05
1.82936e-05
1.80339e-05
1.77891e-05
1.75597e-05
1.73461e-05
1.71491e-05
1.69698e-05
1.68098e-05
1.66713e-05
1.65574e-05
1.64724e-05
1.6423e-05
0.000939687
0.000835718
0.000745891
0.000668034
0.000600341
0.000541301
0.000489647
0.000444318
0.000404418
0.000369194
0.000338006
0.000310313
0.000285653
0.000263634
0.00024392
0.000226223
0.000210297
0.000195927
0.00018293
0.000171147
0.000160441
0.000150689
0.000141789
0.000133648
0.000126187
0.000119334
0.000113028
0.000107215
0.000101846
9.68783e-05
9.22741e-05
8.79996e-05
8.40249e-05
8.03232e-05
7.68704e-05
7.3645e-05
7.06277e-05
6.78013e-05
6.515e-05
6.26598e-05
6.03179e-05
5.81127e-05
5.60338e-05
5.40717e-05
5.22177e-05
5.04639e-05
4.88032e-05
4.72291e-05
4.57353e-05
4.43166e-05
4.29678e-05
4.16844e-05
4.0462e-05
3.92967e-05
3.8185e-05
3.71234e-05
3.61091e-05
3.5139e-05
3.42106e-05
3.33215e-05
3.24695e-05
3.16524e-05
3.08683e-05
3.01155e-05
2.93923e-05
2.86973e-05
2.80289e-05
2.73859e-05
2.67671e-05
2.61713e-05
2.55976e-05
2.50451e-05
2.45127e-05
2.39999e-05
2.35058e-05
2.30297e-05
2.25712e-05
2.21297e-05
2.17047e-05
2.12958e-05
2.09026e-05
2.05248e-05
2.01622e-05
1.98145e-05
1.94816e-05
1.91633e-05
1.88596e-05
1.85704e-05
1.82959e-05
1.80361e-05
1.77912e-05
1.75617e-05
1.7348e-05
1.71509e-05
1.69715e-05
1.68114e-05
1.66728e-05
1.65588e-05
1.64738e-05
1.64243e-05
0.000939687
0.000835718
0.000745891
0.000668035
0.000600341
0.000541301
0.000489647
0.000444318
0.000404419
0.000369194
0.000338007
0.000310313
0.000285653
0.000263635
0.000243921
0.000226224
0.000210297
0.000195928
0.000182931
0.000171148
0.000160441
0.00015069
0.00014179
0.000133649
0.000126188
0.000119335
0.000113029
0.000107216
0.000101847
9.68794e-05
9.22752e-05
8.80008e-05
8.40262e-05
8.03244e-05
7.68716e-05
7.36463e-05
7.06291e-05
6.78027e-05
6.51514e-05
6.26613e-05
6.03194e-05
5.81142e-05
5.60354e-05
5.40733e-05
5.22194e-05
5.04656e-05
4.8805e-05
4.72308e-05
4.57372e-05
4.43185e-05
4.29698e-05
4.16863e-05
4.0464e-05
3.92987e-05
3.81871e-05
3.71256e-05
3.61113e-05
3.51412e-05
3.42129e-05
3.33239e-05
3.24719e-05
3.16548e-05
3.08708e-05
3.0118e-05
2.93949e-05
2.86999e-05
2.80315e-05
2.73886e-05
2.67698e-05
2.61741e-05
2.56004e-05
2.50479e-05
2.45156e-05
2.40027e-05
2.35086e-05
2.30326e-05
2.25741e-05
2.21326e-05
2.17076e-05
2.12987e-05
2.09054e-05
2.05276e-05
2.0165e-05
1.98173e-05
1.94843e-05
1.9166e-05
1.88622e-05
1.8573e-05
1.82984e-05
1.80385e-05
1.77935e-05
1.75638e-05
1.735e-05
1.71528e-05
1.69733e-05
1.68131e-05
1.66744e-05
1.65603e-05
1.64752e-05
1.64257e-05
0.000939687
0.000835718
0.000745891
0.000668035
0.000600342
0.000541301
0.000489647
0.000444318
0.000404419
0.000369195
0.000338007
0.000310314
0.000285654
0.000263635
0.000243921
0.000226225
0.000210298
0.000195928
0.000182932
0.000171149
0.000160442
0.000150691
0.000141791
0.00013365
0.000126189
0.000119336
0.00011303
0.000107217
0.000101848
9.68806e-05
9.22764e-05
8.80021e-05
8.40275e-05
8.03258e-05
7.6873e-05
7.36477e-05
7.06305e-05
6.78042e-05
6.5153e-05
6.26628e-05
6.0321e-05
5.81159e-05
5.60371e-05
5.4075e-05
5.22211e-05
5.04675e-05
4.88069e-05
4.72327e-05
4.57391e-05
4.43205e-05
4.29718e-05
4.16884e-05
4.04661e-05
3.93009e-05
3.81893e-05
3.71279e-05
3.61136e-05
3.51436e-05
3.42154e-05
3.33264e-05
3.24744e-05
3.16574e-05
3.08734e-05
3.01207e-05
2.93976e-05
2.87026e-05
2.80343e-05
2.73914e-05
2.67727e-05
2.6177e-05
2.56034e-05
2.50509e-05
2.45186e-05
2.40058e-05
2.35117e-05
2.30357e-05
2.25773e-05
2.21357e-05
2.17107e-05
2.13018e-05
2.09085e-05
2.05307e-05
2.0168e-05
1.98202e-05
1.94872e-05
1.91688e-05
1.8865e-05
1.85757e-05
1.8301e-05
1.8041e-05
1.77959e-05
1.75661e-05
1.73522e-05
1.71549e-05
1.69752e-05
1.68149e-05
1.66761e-05
1.65619e-05
1.64768e-05
1.64272e-05
0.000939687
0.000835718
0.000745891
0.000668035
0.000600342
0.000541301
0.000489648
0.000444319
0.000404419
0.000369195
0.000338007
0.000310314
0.000285654
0.000263636
0.000243922
0.000226225
0.000210299
0.000195929
0.000182933
0.00017115
0.000160443
0.000150692
0.000141792
0.000133651
0.00012619
0.000119337
0.000113032
0.000107218
0.000101849
9.68818e-05
9.22777e-05
8.80034e-05
8.40288e-05
8.03272e-05
7.68745e-05
7.36492e-05
7.06321e-05
6.78057e-05
6.51546e-05
6.26645e-05
6.03227e-05
5.81176e-05
5.60388e-05
5.40769e-05
5.2223e-05
5.04694e-05
4.88088e-05
4.72348e-05
4.57412e-05
4.43226e-05
4.2974e-05
4.16906e-05
4.04684e-05
3.93032e-05
3.81917e-05
3.71303e-05
3.61161e-05
3.51461e-05
3.42179e-05
3.3329e-05
3.24771e-05
3.16601e-05
3.08762e-05
3.01235e-05
2.94005e-05
2.87056e-05
2.80373e-05
2.73944e-05
2.67757e-05
2.61801e-05
2.56065e-05
2.50541e-05
2.45218e-05
2.4009e-05
2.3515e-05
2.3039e-05
2.25805e-05
2.2139e-05
2.1714e-05
2.1305e-05
2.09118e-05
2.05339e-05
2.01712e-05
1.98234e-05
1.94903e-05
1.91718e-05
1.88679e-05
1.85785e-05
1.83037e-05
1.80436e-05
1.77984e-05
1.75685e-05
1.73544e-05
1.7157e-05
1.69772e-05
1.68168e-05
1.66778e-05
1.65636e-05
1.64783e-05
1.64287e-05
0.000939687
0.000835718
0.000745891
0.000668035
0.000600342
0.000541301
0.000489648
0.000444319
0.00040442
0.000369196
0.000338008
0.000310315
0.000285655
0.000263636
0.000243923
0.000226226
0.000210299
0.00019593
0.000182933
0.000171151
0.000160444
0.000150693
0.000141793
0.000133652
0.000126191
0.000119338
0.000113033
0.00010722
0.000101851
9.68831e-05
9.2279e-05
8.80048e-05
8.40302e-05
8.03286e-05
7.6876e-05
7.36507e-05
7.06337e-05
6.78074e-05
6.51563e-05
6.26662e-05
6.03244e-05
5.81194e-05
5.60407e-05
5.40788e-05
5.2225e-05
5.04714e-05
4.88109e-05
4.72369e-05
4.57433e-05
4.43248e-05
4.29762e-05
4.16929e-05
4.04707e-05
3.93057e-05
3.81941e-05
3.71328e-05
3.61186e-05
3.51488e-05
3.42206e-05
3.33317e-05
3.24799e-05
3.1663e-05
3.08791e-05
3.01265e-05
2.94035e-05
2.87086e-05
2.80404e-05
2.73976e-05
2.6779e-05
2.61834e-05
2.56098e-05
2.50574e-05
2.45252e-05
2.40124e-05
2.35184e-05
2.30424e-05
2.2584e-05
2.21425e-05
2.17174e-05
2.13084e-05
2.09152e-05
2.05373e-05
2.01745e-05
1.98266e-05
1.94935e-05
1.9175e-05
1.8871e-05
1.85815e-05
1.83066e-05
1.80463e-05
1.7801e-05
1.7571e-05
1.73568e-05
1.71592e-05
1.69793e-05
1.68187e-05
1.66797e-05
1.65653e-05
1.648e-05
1.64303e-05
0.000939687
0.000835719
0.000745891
0.000668035
0.000600342
0.000541302
0.000489648
0.000444319
0.00040442
0.000369196
0.000338008
0.000310315
0.000285655
0.000263637
0.000243923
0.000226227
0.0002103
0.000195931
0.000182934
0.000171152
0.000160445
0.000150694
0.000141794
0.000133653
0.000126192
0.000119339
0.000113034
0.000107221
0.000101852
9.68844e-05
9.22804e-05
8.80062e-05
8.40317e-05
8.03301e-05
7.68775e-05
7.36523e-05
7.06353e-05
6.78091e-05
6.5158e-05
6.2668e-05
6.03263e-05
5.81213e-05
5.60426e-05
5.40808e-05
5.2227e-05
5.04735e-05
4.8813e-05
4.72391e-05
4.57456e-05
4.43271e-05
4.29786e-05
4.16954e-05
4.04732e-05
3.93082e-05
3.81967e-05
3.71354e-05
3.61213e-05
3.51515e-05
3.42234e-05
3.33346e-05
3.24828e-05
3.16659e-05
3.08821e-05
3.01296e-05
2.94067e-05
2.87118e-05
2.80437e-05
2.74009e-05
2.67823e-05
2.61868e-05
2.56133e-05
2.50608e-05
2.45287e-05
2.40159e-05
2.35219e-05
2.3046e-05
2.25875e-05
2.2146e-05
2.1721e-05
2.1312e-05
2.09187e-05
2.05408e-05
2.0178e-05
1.983e-05
1.94968e-05
1.91782e-05
1.88741e-05
1.85845e-05
1.83095e-05
1.80492e-05
1.78037e-05
1.75736e-05
1.73592e-05
1.71615e-05
1.69814e-05
1.68207e-05
1.66815e-05
1.6567e-05
1.64816e-05
1.64319e-05
0.000939687
0.000835719
0.000745891
0.000668035
0.000600342
0.000541302
0.000489648
0.000444319
0.00040442
0.000369196
0.000338009
0.000310315
0.000285656
0.000263637
0.000243924
0.000226227
0.000210301
0.000195931
0.000182935
0.000171152
0.000160446
0.000150695
0.000141795
0.000133654
0.000126193
0.000119341
0.000113035
0.000107222
0.000101853
9.68858e-05
9.22818e-05
8.80076e-05
8.40332e-05
8.03317e-05
7.68791e-05
7.3654e-05
7.0637e-05
6.78108e-05
6.51598e-05
6.26698e-05
6.03282e-05
5.81233e-05
5.60446e-05
5.40828e-05
5.22291e-05
5.04756e-05
4.88152e-05
4.72413e-05
4.57479e-05
4.43295e-05
4.2981e-05
4.16978e-05
4.04757e-05
3.93108e-05
3.81994e-05
3.71382e-05
3.61241e-05
3.51544e-05
3.42263e-05
3.33375e-05
3.24858e-05
3.1669e-05
3.08853e-05
3.01328e-05
2.94099e-05
2.87151e-05
2.8047e-05
2.74043e-05
2.67857e-05
2.61902e-05
2.56168e-05
2.50644e-05
2.45323e-05
2.40196e-05
2.35256e-05
2.30497e-05
2.25912e-05
2.21497e-05
2.17247e-05
2.13157e-05
2.09223e-05
2.05444e-05
2.01815e-05
1.98335e-05
1.95003e-05
1.91816e-05
1.88774e-05
1.85877e-05
1.83125e-05
1.80521e-05
1.78065e-05
1.75762e-05
1.73617e-05
1.71638e-05
1.69836e-05
1.68227e-05
1.66834e-05
1.65688e-05
1.64833e-05
1.64336e-05
0.000939687
0.000835719
0.000745891
0.000668035
0.000600342
0.000541302
0.000489649
0.00044432
0.000404421
0.000369197
0.000338009
0.000310316
0.000285657
0.000263638
0.000243924
0.000226228
0.000210302
0.000195932
0.000182936
0.000171153
0.000160447
0.000150696
0.000141796
0.000133655
0.000126194
0.000119342
0.000113036
0.000107223
0.000101855
9.68872e-05
9.22833e-05
8.80091e-05
8.40347e-05
8.03333e-05
7.68807e-05
7.36557e-05
7.06387e-05
6.78126e-05
6.51616e-05
6.26717e-05
6.03301e-05
5.81253e-05
5.60467e-05
5.40849e-05
5.22312e-05
5.04778e-05
4.88175e-05
4.72436e-05
4.57503e-05
4.43319e-05
4.29835e-05
4.17004e-05
4.04783e-05
3.93135e-05
3.82021e-05
3.7141e-05
3.6127e-05
3.51573e-05
3.42293e-05
3.33406e-05
3.24889e-05
3.16722e-05
3.08885e-05
3.0136e-05
2.94132e-05
2.87185e-05
2.80505e-05
2.74078e-05
2.67893e-05
2.61938e-05
2.56204e-05
2.50681e-05
2.4536e-05
2.40233e-05
2.35294e-05
2.30534e-05
2.2595e-05
2.21535e-05
2.17284e-05
2.13194e-05
2.09261e-05
2.05481e-05
2.01852e-05
1.98371e-05
1.95038e-05
1.9185e-05
1.88807e-05
1.85909e-05
1.83156e-05
1.8055e-05
1.78093e-05
1.75789e-05
1.73642e-05
1.71662e-05
1.69858e-05
1.68248e-05
1.66854e-05
1.65706e-05
1.64851e-05
1.64352e-05
0.000939687
0.000835719
0.000745891
0.000668035
0.000600342
0.000541302
0.000489649
0.00044432
0.000404421
0.000369197
0.000338009
0.000310316
0.000285657
0.000263639
0.000243925
0.000226229
0.000210302
0.000195933
0.000182937
0.000171154
0.000160448
0.000150697
0.000141797
0.000133656
0.000126195
0.000119343
0.000113038
0.000107225
0.000101856
9.68886e-05
9.22847e-05
8.80106e-05
8.40363e-05
8.03349e-05
7.68824e-05
7.36574e-05
7.06405e-05
6.78144e-05
6.51635e-05
6.26736e-05
6.03321e-05
5.81273e-05
5.60488e-05
5.4087e-05
5.22334e-05
5.04801e-05
4.88198e-05
4.7246e-05
4.57527e-05
4.43344e-05
4.2986e-05
4.1703e-05
4.0481e-05
3.93162e-05
3.82049e-05
3.71438e-05
3.61299e-05
3.51602e-05
3.42323e-05
3.33437e-05
3.2492e-05
3.16754e-05
3.08918e-05
3.01394e-05
2.94166e-05
2.8722e-05
2.8054e-05
2.74114e-05
2.67929e-05
2.61975e-05
2.56241e-05
2.50718e-05
2.45398e-05
2.40271e-05
2.35332e-05
2.30573e-05
2.25989e-05
2.21573e-05
2.17323e-05
2.13233e-05
2.09299e-05
2.05518e-05
2.01889e-05
1.98408e-05
1.95074e-05
1.91885e-05
1.88841e-05
1.85942e-05
1.83188e-05
1.80581e-05
1.78122e-05
1.75816e-05
1.73668e-05
1.71686e-05
1.69881e-05
1.68269e-05
1.66873e-05
1.65725e-05
1.64868e-05
1.64369e-05
0.000939687
0.000835719
0.000745891
0.000668035
0.000600343
0.000541302
0.000489649
0.00044432
0.000404421
0.000369197
0.00033801
0.000310317
0.000285658
0.000263639
0.000243926
0.000226229
0.000210303
0.000195934
0.000182938
0.000171155
0.000160449
0.000150698
0.000141798
0.000133658
0.000126196
0.000119344
0.000113039
0.000107226
0.000101857
9.689e-05
9.22862e-05
8.80122e-05
8.40379e-05
8.03365e-05
7.68841e-05
7.36591e-05
7.06423e-05
6.78163e-05
6.51654e-05
6.26756e-05
6.03341e-05
5.81293e-05
5.60509e-05
5.40892e-05
5.22357e-05
5.04824e-05
4.88221e-05
4.72484e-05
4.57552e-05
4.43369e-05
4.29886e-05
4.17056e-05
4.04837e-05
3.93189e-05
3.82077e-05
3.71467e-05
3.61328e-05
3.51633e-05
3.42354e-05
3.33468e-05
3.24953e-05
3.16787e-05
3.08951e-05
3.01428e-05
2.94201e-05
2.87255e-05
2.80575e-05
2.7415e-05
2.67966e-05
2.62012e-05
2.56279e-05
2.50756e-05
2.45436e-05
2.4031e-05
2.35371e-05
2.30612e-05
2.26028e-05
2.21613e-05
2.17362e-05
2.13271e-05
2.09337e-05
2.05557e-05
2.01927e-05
1.98445e-05
1.9511e-05
1.9192e-05
1.88875e-05
1.85975e-05
1.8322e-05
1.80611e-05
1.78151e-05
1.75844e-05
1.73694e-05
1.7171e-05
1.69903e-05
1.6829e-05
1.66893e-05
1.65743e-05
1.64885e-05
1.64386e-05
0.000939687
0.000835719
0.000745891
0.000668035
0.000600343
0.000541302
0.000489649
0.00044432
0.000404421
0.000369198
0.00033801
0.000310317
0.000285658
0.00026364
0.000243926
0.00022623
0.000210304
0.000195935
0.000182938
0.000171156
0.00016045
0.000150699
0.000141799
0.000133659
0.000126198
0.000119345
0.00011304
0.000107227
0.000101859
9.68914e-05
9.22877e-05
8.80137e-05
8.40395e-05
8.03382e-05
7.68858e-05
7.36609e-05
7.06441e-05
6.78181e-05
6.51673e-05
6.26776e-05
6.03361e-05
5.81314e-05
5.6053e-05
5.40914e-05
5.22379e-05
5.04847e-05
4.88245e-05
4.72508e-05
4.57577e-05
4.43395e-05
4.29912e-05
4.17083e-05
4.04865e-05
3.93217e-05
3.82106e-05
3.71496e-05
3.61358e-05
3.51663e-05
3.42385e-05
3.335e-05
3.24985e-05
3.1682e-05
3.08985e-05
3.01462e-05
2.94236e-05
2.8729e-05
2.80612e-05
2.74186e-05
2.68003e-05
2.6205e-05
2.56317e-05
2.50795e-05
2.45475e-05
2.40349e-05
2.3541e-05
2.30652e-05
2.26067e-05
2.21652e-05
2.17401e-05
2.13311e-05
2.09376e-05
2.05595e-05
2.01965e-05
1.98482e-05
1.95146e-05
1.91956e-05
1.8891e-05
1.86009e-05
1.83252e-05
1.80642e-05
1.7818e-05
1.75871e-05
1.7372e-05
1.71734e-05
1.69926e-05
1.68311e-05
1.66912e-05
1.65761e-05
1.64903e-05
1.64403e-05
0.000939687
0.000835719
0.000745891
0.000668035
0.000600343
0.000541303
0.000489649
0.000444321
0.000404422
0.000369198
0.000338011
0.000310318
0.000285659
0.00026364
0.000243927
0.000226231
0.000210305
0.000195935
0.000182939
0.000171157
0.000160451
0.0001507
0.0001418
0.00013366
0.000126199
0.000119347
0.000113041
0.000107229
0.00010186
9.68929e-05
9.22892e-05
8.80152e-05
8.40411e-05
8.03398e-05
7.68875e-05
7.36626e-05
7.06459e-05
6.782e-05
6.51692e-05
6.26795e-05
6.03381e-05
5.81335e-05
5.60552e-05
5.40936e-05
5.22402e-05
5.0487e-05
4.88269e-05
4.72533e-05
4.57602e-05
4.4342e-05
4.29939e-05
4.1711e-05
4.04892e-05
3.93246e-05
3.82135e-05
3.71526e-05
3.61388e-05
3.51694e-05
3.42417e-05
3.33532e-05
3.25018e-05
3.16853e-05
3.09019e-05
3.01497e-05
2.94271e-05
2.87326e-05
2.80648e-05
2.74223e-05
2.6804e-05
2.62088e-05
2.56355e-05
2.50834e-05
2.45514e-05
2.40388e-05
2.3545e-05
2.30691e-05
2.26107e-05
2.21692e-05
2.17441e-05
2.1335e-05
2.09416e-05
2.05634e-05
2.02003e-05
1.9852e-05
1.95183e-05
1.91992e-05
1.88945e-05
1.86042e-05
1.83285e-05
1.80673e-05
1.7821e-05
1.75899e-05
1.73746e-05
1.71759e-05
1.69949e-05
1.68332e-05
1.66932e-05
1.65779e-05
1.6492e-05
1.6442e-05
0.000939687
0.000835719
0.000745891
0.000668035
0.000600343
0.000541303
0.00048965
0.000444321
0.000404422
0.000369198
0.000338011
0.000310318
0.000285659
0.000263641
0.000243927
0.000226231
0.000210305
0.000195936
0.00018294
0.000171158
0.000160451
0.000150701
0.000141801
0.000133661
0.0001262
0.000119348
0.000113043
0.00010723
0.000101861
9.68943e-05
9.22906e-05
8.80168e-05
8.40426e-05
8.03414e-05
7.68892e-05
7.36644e-05
7.06477e-05
6.78218e-05
6.51712e-05
6.26815e-05
6.03402e-05
5.81356e-05
5.60573e-05
5.40958e-05
5.22425e-05
5.04893e-05
4.88293e-05
4.72557e-05
4.57627e-05
4.43446e-05
4.29965e-05
4.17137e-05
4.0492e-05
3.93274e-05
3.82163e-05
3.71555e-05
3.61419e-05
3.51725e-05
3.42448e-05
3.33564e-05
3.25051e-05
3.16886e-05
3.09053e-05
3.01532e-05
2.94306e-05
2.87362e-05
2.80684e-05
2.7426e-05
2.68078e-05
2.62126e-05
2.56394e-05
2.50873e-05
2.45553e-05
2.40428e-05
2.35489e-05
2.30731e-05
2.26147e-05
2.21732e-05
2.17481e-05
2.1339e-05
2.09455e-05
2.05673e-05
2.02041e-05
1.98557e-05
1.9522e-05
1.92028e-05
1.8898e-05
1.86076e-05
1.83317e-05
1.80704e-05
1.78239e-05
1.75927e-05
1.73772e-05
1.71783e-05
1.69971e-05
1.68353e-05
1.66951e-05
1.65798e-05
1.64937e-05
1.64436e-05
0.000939687
0.000835719
0.000745891
0.000668036
0.000600343
0.000541303
0.00048965
0.000444321
0.000404422
0.000369199
0.000338011
0.000310319
0.000285659
0.000263641
0.000243928
0.000226232
0.000210306
0.000195937
0.000182941
0.000171159
0.000160452
0.000150702
0.000141802
0.000133662
0.000126201
0.000119349
0.000113044
0.000107231
0.000101863
9.68957e-05
9.22921e-05
8.80183e-05
8.40442e-05
8.03431e-05
7.68909e-05
7.36661e-05
7.06495e-05
6.78237e-05
6.51731e-05
6.26835e-05
6.03422e-05
5.81377e-05
5.60595e-05
5.4098e-05
5.22447e-05
5.04917e-05
4.88317e-05
4.72582e-05
4.57652e-05
4.43472e-05
4.29991e-05
4.17164e-05
4.04947e-05
3.93302e-05
3.82192e-05
3.71585e-05
3.61449e-05
3.51756e-05
3.4248e-05
3.33596e-05
3.25083e-05
3.1692e-05
3.09087e-05
3.01566e-05
2.94342e-05
2.87398e-05
2.80721e-05
2.74297e-05
2.68115e-05
2.62164e-05
2.56432e-05
2.50911e-05
2.45592e-05
2.40467e-05
2.35529e-05
2.30771e-05
2.26187e-05
2.21772e-05
2.17521e-05
2.13429e-05
2.09494e-05
2.05712e-05
2.02079e-05
1.98595e-05
1.95257e-05
1.92064e-05
1.89014e-05
1.86109e-05
1.83349e-05
1.80735e-05
1.78268e-05
1.75954e-05
1.73798e-05
1.71807e-05
1.69994e-05
1.68374e-05
1.6697e-05
1.65815e-05
1.64954e-05
1.64453e-05
0.000939687
0.000835719
0.000745891
0.000668036
0.000600343
0.000541303
0.00048965
0.000444321
0.000404423
0.000369199
0.000338012
0.000310319
0.00028566
0.000263642
0.000243929
0.000226233
0.000210307
0.000195938
0.000182942
0.00017116
0.000160453
0.000150703
0.000141803
0.000133663
0.000126202
0.00011935
0.000113045
0.000107233
0.000101864
9.68971e-05
9.22936e-05
8.80198e-05
8.40458e-05
8.03447e-05
7.68925e-05
7.36678e-05
7.06513e-05
6.78255e-05
6.5175e-05
6.26854e-05
6.03442e-05
5.81398e-05
5.60616e-05
5.41002e-05
5.2247e-05
5.0494e-05
4.8834e-05
4.72606e-05
4.57677e-05
4.43497e-05
4.30017e-05
4.17191e-05
4.04975e-05
3.9333e-05
3.82221e-05
3.71614e-05
3.61479e-05
3.51786e-05
3.42511e-05
3.33628e-05
3.25116e-05
3.16953e-05
3.09121e-05
3.01601e-05
2.94377e-05
2.87434e-05
2.80757e-05
2.74334e-05
2.68153e-05
2.62202e-05
2.5647e-05
2.5095e-05
2.45631e-05
2.40507e-05
2.35569e-05
2.30811e-05
2.26227e-05
2.21812e-05
2.1756e-05
2.13469e-05
2.09533e-05
2.0575e-05
2.02117e-05
1.98632e-05
1.95293e-05
1.92099e-05
1.89049e-05
1.86143e-05
1.83381e-05
1.80765e-05
1.78297e-05
1.75982e-05
1.73823e-05
1.71831e-05
1.70016e-05
1.68394e-05
1.66989e-05
1.65833e-05
1.64971e-05
1.64469e-05
0.000939687
0.000835719
0.000745891
0.000668036
0.000600343
0.000541303
0.00048965
0.000444321
0.000404423
0.000369199
0.000338012
0.000310319
0.00028566
0.000263642
0.000243929
0.000226233
0.000210307
0.000195938
0.000182942
0.00017116
0.000160454
0.000150704
0.000141804
0.000133664
0.000126203
0.000119351
0.000113046
0.000107234
0.000101865
9.68985e-05
9.2295e-05
8.80213e-05
8.40473e-05
8.03463e-05
7.68942e-05
7.36696e-05
7.06531e-05
6.78274e-05
6.51768e-05
6.26874e-05
6.03462e-05
5.81418e-05
5.60637e-05
5.41024e-05
5.22492e-05
5.04962e-05
4.88364e-05
4.7263e-05
4.57701e-05
4.43523e-05
4.30043e-05
4.17217e-05
4.05002e-05
3.93358e-05
3.8225e-05
3.71643e-05
3.61508e-05
3.51817e-05
3.42542e-05
3.3366e-05
3.25148e-05
3.16986e-05
3.09154e-05
3.01635e-05
2.94412e-05
2.87469e-05
2.80793e-05
2.74371e-05