/*--------------------------------*- C++ -*----------------------------------*\
  =========                 |
  \\      /  F ield         | OpenFOAM: The Open Source CFD Toolbox
   \\    /   O peration     | Website:  https://openfoam.org
    \\  /    A nd           | Version:  11
     \\/     M anipulation  |
\*---------------------------------------------------------------------------*/
FoamFile
{
    format      ascii;
    class       volVectorField;
    location    "1692";
    object      U;
}
// * * * * * * * * * * * * * * * * * * * * * * * * * * * * * * * * * * * * * //

dimensions      [0 1 -1 0 0 0 0];

internalField   nonuniform List<vector> 
10000
(
(0.005 -1.87506e-13 0)
(0.005 -5.19424e-13 0)
(0.005 -8.37313e-13 0)
(0.005 -1.15598e-12 0)
(0.005 -1.48254e-12 0)
(0.005 -1.82143e-12 0)
(0.005 -2.17612e-12 0)
(0.005 -2.54956e-12 0)
(0.005 -2.94435e-12 0)
(0.005 -3.3629e-12 0)
(0.005 -3.80754e-12 0)
(0.005 -4.28057e-12 0)
(0.005 -4.78426e-12 0)
(0.005 -5.3209e-12 0)
(0.005 -5.89283e-12 0)
(0.005 -6.50245e-12 0)
(0.005 -7.1522e-12 0)
(0.005 -7.84461e-12 0)
(0.005 -8.58229e-12 0)
(0.005 -9.36795e-12 0)
(0.005 -1.02044e-11 0)
(0.005 -1.10945e-11 0)
(0.005 -1.20413e-11 0)
(0.005 -1.30479e-11 0)
(0.005 -1.41175e-11 0)
(0.005 -1.52535e-11 0)
(0.005 -1.64594e-11 0)
(0.005 -1.77387e-11 0)
(0.005 -1.90952e-11 0)
(0.005 -2.05327e-11 0)
(0.005 -2.20552e-11 0)
(0.005 -2.36669e-11 0)
(0.005 -2.53719e-11 0)
(0.005 -2.71747e-11 0)
(0.005 -2.90798e-11 0)
(0.005 -3.10917e-11 0)
(0.005 -3.32154e-11 0)
(0.005 -3.54556e-11 0)
(0.005 -3.78175e-11 0)
(0.005 -4.03062e-11 0)
(0.005 -4.29269e-11 0)
(0.005 -4.56851e-11 0)
(0.005 -4.85863e-11 0)
(0.005 -5.16361e-11 0)
(0.005 -5.48402e-11 0)
(0.005 -5.82044e-11 0)
(0.005 -6.17346e-11 0)
(0.005 -6.54368e-11 0)
(0.005 -6.93169e-11 0)
(0.005 -7.33811e-11 0)
(0.005 -7.76354e-11 0)
(0.005 -8.20859e-11 0)
(0.005 -8.67388e-11 0)
(0.005 -9.16001e-11 0)
(0.005 -9.66758e-11 0)
(0.005 -1.01972e-10 0)
(0.005 -1.07494e-10 0)
(0.005 -1.13249e-10 0)
(0.005 -1.19241e-10 0)
(0.005 -1.25475e-10 0)
(0.005 -1.31958e-10 0)
(0.005 -1.38694e-10 0)
(0.005 -1.45687e-10 0)
(0.005 -1.52941e-10 0)
(0.005 -1.6046e-10 0)
(0.005 -1.68248e-10 0)
(0.005 -1.76306e-10 0)
(0.005 -1.84637e-10 0)
(0.005 -1.93242e-10 0)
(0.005 -2.0212e-10 0)
(0.005 -2.11271e-10 0)
(0.005 -2.20693e-10 0)
(0.005 -2.30384e-10 0)
(0.005 -2.40337e-10 0)
(0.005 -2.50548e-10 0)
(0.005 -2.61008e-10 0)
(0.005 -2.71707e-10 0)
(0.005 -2.82633e-10 0)
(0.005 -2.9377e-10 0)
(0.005 -3.05101e-10 0)
(0.005 -3.16603e-10 0)
(0.005 -3.28252e-10 0)
(0.005 -3.40016e-10 0)
(0.005 -3.51862e-10 0)
(0.005 -3.63747e-10 0)
(0.005 -3.75624e-10 0)
(0.005 -3.87435e-10 0)
(0.005 -3.99116e-10 0)
(0.005 -4.1059e-10 0)
(0.005 -4.21768e-10 0)
(0.005 -4.32547e-10 0)
(0.005 -4.42808e-10 0)
(0.005 -4.52414e-10 0)
(0.005 -4.61209e-10 0)
(0.005 -4.69017e-10 0)
(0.005 -4.75646e-10 0)
(0.005 -4.80897e-10 0)
(0.005 -4.8457e-10 0)
(0.005 -4.86568e-10 0)
(0.005 -4.87157e-10 0)
(0.005 -1.60407e-13 0)
(0.005 -4.66966e-13 0)
(0.005 -7.68641e-13 0)
(0.005 -1.07295e-12 0)
(0.005 -1.38526e-12 0)
(0.005 -1.70946e-12 0)
(0.005 -2.04877e-12 0)
(0.005 -2.40593e-12 0)
(0.005 -2.78344e-12 0)
(0.005 -3.1836e-12 0)
(0.005 -3.60866e-12 0)
(0.005 -4.0608e-12 0)
(0.005 -4.54222e-12 0)
(0.005 -5.05511e-12 0)
(0.005 -5.60172e-12 0)
(0.005 -6.18434e-12 0)
(0.005 -6.80532e-12 0)
(0.005 -7.46711e-12 0)
(0.005 -8.17219e-12 0)
(0.005 -8.92318e-12 0)
(0.005 -9.72275e-12 0)
(0.005 -1.05737e-11 0)
(0.005 -1.14789e-11 0)
(0.005 -1.24414e-11 0)
(0.005 -1.34642e-11 0)
(0.005 -1.45507e-11 0)
(0.005 -1.57041e-11 0)
(0.005 -1.69278e-11 0)
(0.005 -1.82256e-11 0)
(0.005 -1.9601e-11 0)
(0.005 -2.1058e-11 0)
(0.005 -2.26005e-11 0)
(0.005 -2.42325e-11 0)
(0.005 -2.59584e-11 0)
(0.005 -2.77824e-11 0)
(0.005 -2.97091e-11 0)
(0.005 -3.1743e-11 0)
(0.005 -3.38889e-11 0)
(0.005 -3.61517e-11 0)
(0.005 -3.85363e-11 0)
(0.005 -4.10479e-11 0)
(0.005 -4.36916e-11 0)
(0.005 -4.64729e-11 0)
(0.005 -4.93972e-11 0)
(0.005 -5.247e-11 0)
(0.005 -5.5697e-11 0)
(0.005 -5.90838e-11 0)
(0.005 -6.26363e-11 0)
(0.005 -6.63604e-11 0)
(0.005 -7.0262e-11 0)
(0.005 -7.4347e-11 0)
(0.005 -7.86215e-11 0)
(0.005 -8.30913e-11 0)
(0.005 -8.77625e-11 0)
(0.005 -9.26411e-11 0)
(0.005 -9.77329e-11 0)
(0.005 -1.03044e-10 0)
(0.005 -1.08579e-10 0)
(0.005 -1.14345e-10 0)
(0.005 -1.20347e-10 0)
(0.005 -1.2659e-10 0)
(0.005 -1.33079e-10 0)
(0.005 -1.39818e-10 0)
(0.005 -1.46812e-10 0)
(0.005 -1.54065e-10 0)
(0.005 -1.6158e-10 0)
(0.005 -1.69361e-10 0)
(0.005 -1.77409e-10 0)
(0.005 -1.85726e-10 0)
(0.005 -1.94314e-10 0)
(0.005 -2.03172e-10 0)
(0.005 -2.12299e-10 0)
(0.005 -2.21694e-10 0)
(0.005 -2.31353e-10 0)
(0.005 -2.41271e-10 0)
(0.005 -2.51442e-10 0)
(0.005 -2.61859e-10 0)
(0.005 -2.72509e-10 0)
(0.005 -2.83382e-10 0)
(0.005 -2.94462e-10 0)
(0.005 -3.05729e-10 0)
(0.005 -3.17164e-10 0)
(0.005 -3.28739e-10 0)
(0.005 -3.40423e-10 0)
(0.005 -3.52182e-10 0)
(0.005 -3.63971e-10 0)
(0.005 -3.75742e-10 0)
(0.005 -3.87436e-10 0)
(0.005 -3.98985e-10 0)
(0.005 -4.10309e-10 0)
(0.005 -4.21315e-10 0)
(0.005 -4.31897e-10 0)
(0.005 -4.4193e-10 0)
(0.005 -4.51273e-10 0)
(0.005 -4.59768e-10 0)
(0.005 -4.67241e-10 0)
(0.005 -4.73505e-10 0)
(0.005 -4.78354e-10 0)
(0.005 -4.81648e-10 0)
(0.005 -4.83594e-10 0)
(0.005 -1.38623e-13 0)
(0.005 -4.18649e-13 0)
(0.005 -7.0216e-13 0)
(0.005 -9.91262e-13 0)
(0.005 -1.28911e-12 0)
(0.005 -1.59873e-12 0)
(0.005 -1.92289e-12 0)
(0.005 -2.26411e-12 0)
(0.005 -2.62472e-12 0)
(0.005 -3.00693e-12 0)
(0.005 -3.41287e-12 0)
(0.005 -3.84463e-12 0)
(0.005 -4.30432e-12 0)
(0.005 -4.79405e-12 0)
(0.005 -5.31597e-12 0)
(0.005 -5.87229e-12 0)
(0.005 -6.46526e-12 0)
(0.005 -7.09722e-12 0)
(0.005 -7.77057e-12 0)
(0.005 -8.48782e-12 0)
(0.005 -9.25153e-12 0)
(0.005 -1.00644e-11 0)
(0.005 -1.09292e-11 0)
(0.005 -1.18488e-11 0)
(0.005 -1.28262e-11 0)
(0.005 -1.38645e-11 0)
(0.005 -1.49669e-11 0)
(0.005 -1.61368e-11 0)
(0.005 -1.73776e-11 0)
(0.005 -1.86928e-11 0)
(0.005 -2.00862e-11 0)
(0.005 -2.15615e-11 0)
(0.005 -2.31228e-11 0)
(0.005 -2.47741e-11 0)
(0.005 -2.65196e-11 0)
(0.005 -2.83636e-11 0)
(0.005 -3.03105e-11 0)
(0.005 -3.23651e-11 0)
(0.005 -3.45319e-11 0)
(0.005 -3.68158e-11 0)
(0.005 -3.92217e-11 0)
(0.005 -4.17547e-11 0)
(0.005 -4.442e-11 0)
(0.005 -4.72229e-11 0)
(0.005 -5.01687e-11 0)
(0.005 -5.3263e-11 0)
(0.005 -5.65112e-11 0)
(0.005 -5.99191e-11 0)
(0.005 -6.34924e-11 0)
(0.005 -6.72368e-11 0)
(0.005 -7.11583e-11 0)
(0.005 -7.52626e-11 0)
(0.005 -7.95557e-11 0)
(0.005 -8.40434e-11 0)
(0.005 -8.87316e-11 0)
(0.005 -9.36261e-11 0)
(0.005 -9.87329e-11 0)
(0.005 -1.04057e-10 0)
(0.005 -1.09605e-10 0)
(0.005 -1.15382e-10 0)
(0.005 -1.21393e-10 0)
(0.005 -1.27644e-10 0)
(0.005 -1.34138e-10 0)
(0.005 -1.40882e-10 0)
(0.005 -1.47878e-10 0)
(0.005 -1.5513e-10 0)
(0.005 -1.62643e-10 0)
(0.005 -1.70419e-10 0)
(0.005 -1.7846e-10 0)
(0.005 -1.86768e-10 0)
(0.005 -1.95343e-10 0)
(0.005 -2.04187e-10 0)
(0.005 -2.13297e-10 0)
(0.005 -2.22672e-10 0)
(0.005 -2.32308e-10 0)
(0.005 -2.42201e-10 0)
(0.005 -2.52344e-10 0)
(0.005 -2.6273e-10 0)
(0.005 -2.73348e-10 0)
(0.005 -2.84185e-10 0)
(0.005 -2.95227e-10 0)
(0.005 -3.06454e-10 0)
(0.005 -3.17845e-10 0)
(0.005 -3.29373e-10 0)
(0.005 -3.41007e-10 0)
(0.005 -3.5271e-10 0)
(0.005 -3.64438e-10 0)
(0.005 -3.76141e-10 0)
(0.005 -3.87756e-10 0)
(0.005 -3.99213e-10 0)
(0.005 -4.10429e-10 0)
(0.005 -4.21305e-10 0)
(0.005 -4.3173e-10 0)
(0.005 -4.41572e-10 0)
(0.005 -4.50683e-10 0)
(0.005 -4.58896e-10 0)
(0.005 -4.66022e-10 0)
(0.005 -4.71853e-10 0)
(0.005 -4.76237e-10 0)
(0.005 -4.79167e-10 0)
(0.005 -1.23745e-13 0)
(0.005 -3.80139e-13 0)
(0.005 -6.45244e-13 0)
(0.005 -9.18927e-13 0)
(0.005 -1.20263e-12 0)
(0.005 -1.49842e-12 0)
(0.005 -1.80851e-12 0)
(0.005 -2.13509e-12 0)
(0.005 -2.48029e-12 0)
(0.005 -2.84616e-12 0)
(0.005 -3.23473e-12 0)
(0.005 -3.648e-12 0)
(0.005 -4.08798e-12 0)
(0.005 -4.5567e-12 0)
(0.005 -5.05622e-12 0)
(0.005 -5.58868e-12 0)
(0.005 -6.15623e-12 0)
(0.005 -6.76112e-12 0)
(0.005 -7.40568e-12 0)
(0.005 -8.09231e-12 0)
(0.005 -8.82348e-12 0)
(0.005 -9.60178e-12 0)
(0.005 -1.04299e-11 0)
(0.005 -1.13106e-11 0)
(0.005 -1.22467e-11 0)
(0.005 -1.32413e-11 0)
(0.005 -1.42974e-11 0)
(0.005 -1.54183e-11 0)
(0.005 -1.66073e-11 0)
(0.005 -1.78678e-11 0)
(0.005 -1.92035e-11 0)
(0.005 -2.06179e-11 0)
(0.005 -2.21149e-11 0)
(0.005 -2.36984e-11 0)
(0.005 -2.53725e-11 0)
(0.005 -2.71414e-11 0)
(0.005 -2.90094e-11 0)
(0.005 -3.0981e-11 0)
(0.005 -3.30606e-11 0)
(0.005 -3.52529e-11 0)
(0.005 -3.75628e-11 0)
(0.005 -3.99952e-11 0)
(0.005 -4.25551e-11 0)
(0.005 -4.52477e-11 0)
(0.005 -4.80781e-11 0)
(0.005 -5.10517e-11 0)
(0.005 -5.4174e-11 0)
(0.005 -5.74504e-11 0)
(0.005 -6.08866e-11 0)
(0.005 -6.44882e-11 0)
(0.005 -6.8261e-11 0)
(0.005 -7.22106e-11 0)
(0.005 -7.6343e-11 0)
(0.005 -8.06638e-11 0)
(0.005 -8.51789e-11 0)
(0.005 -8.98942e-11 0)
(0.005 -9.48152e-11 0)
(0.005 -9.99479e-11 0)
(0.005 -1.05298e-10 0)
(0.005 -1.1087e-10 0)
(0.005 -1.16671e-10 0)
(0.005 -1.22704e-10 0)
(0.005 -1.28976e-10 0)
(0.005 -1.35491e-10 0)
(0.005 -1.42253e-10 0)
(0.005 -1.49267e-10 0)
(0.005 -1.56536e-10 0)
(0.005 -1.64064e-10 0)
(0.005 -1.71853e-10 0)
(0.005 -1.79906e-10 0)
(0.005 -1.88224e-10 0)
(0.005 -1.96809e-10 0)
(0.005 -2.05659e-10 0)
(0.005 -2.14775e-10 0)
(0.005 -2.24154e-10 0)
(0.005 -2.33793e-10 0)
(0.005 -2.43687e-10 0)
(0.005 -2.5383e-10 0)
(0.005 -2.64214e-10 0)
(0.005 -2.74829e-10 0)
(0.005 -2.85662e-10 0)
(0.005 -2.96698e-10 0)
(0.005 -3.07917e-10 0)
(0.005 -3.19298e-10 0)
(0.005 -3.30814e-10 0)
(0.005 -3.42431e-10 0)
(0.005 -3.54112e-10 0)
(0.005 -3.65811e-10 0)
(0.005 -3.77474e-10 0)
(0.005 -3.89036e-10 0)
(0.005 -4.00421e-10 0)
(0.005 -4.11538e-10 0)
(0.005 -4.22282e-10 0)
(0.005 -4.32528e-10 0)
(0.005 -4.4213e-10 0)
(0.005 -4.50916e-10 0)
(0.005 -4.58683e-10 0)
(0.005 -4.65188e-10 0)
(0.005 -4.70172e-10 0)
(0.005 -4.73584e-10 0)
(0.005 -1.11633e-13 0)
(0.005 -3.46502e-13 0)
(0.005 -5.93049e-13 0)
(0.005 -8.50519e-13 0)
(0.005 -1.11935e-12 0)
(0.005 -1.40081e-12 0)
(0.005 -1.69654e-12 0)
(0.005 -2.00838e-12 0)
(0.005 -2.33819e-12 0)
(0.005 -2.68784e-12 0)
(0.005 -3.05924e-12 0)
(0.005 -3.45425e-12 0)
(0.005 -3.87481e-12 0)
(0.005 -4.32283e-12 0)
(0.005 -4.80032e-12 0)
(0.005 -5.30928e-12 0)
(0.005 -5.85181e-12 0)
(0.005 -6.43008e-12 0)
(0.005 -7.0463e-12 0)
(0.005 -7.70278e-12 0)
(0.005 -8.40192e-12 0)
(0.005 -9.14619e-12 0)
(0.005 -9.93817e-12 0)
(0.005 -1.07805e-11 0)
(0.005 -1.16761e-11 0)
(0.005 -1.26276e-11 0)
(0.005 -1.36382e-11 0)
(0.005 -1.47108e-11 0)
(0.005 -1.58488e-11 0)
(0.005 -1.70555e-11 0)
(0.005 -1.83342e-11 0)
(0.005 -1.96886e-11 0)
(0.005 -2.11222e-11 0)
(0.005 -2.2639e-11 0)
(0.005 -2.42429e-11 0)
(0.005 -2.59378e-11 0)
(0.005 -2.7728e-11 0)
(0.005 -2.96177e-11 0)
(0.005 -3.16114e-11 0)
(0.005 -3.37135e-11 0)
(0.005 -3.59288e-11 0)
(0.005 -3.8262e-11 0)
(0.005 -4.0718e-11 0)
(0.005 -4.33018e-11 0)
(0.005 -4.60184e-11 0)
(0.005 -4.88731e-11 0)
(0.005 -5.18712e-11 0)
(0.005 -5.5018e-11 0)
(0.005 -5.83191e-11 0)
(0.005 -6.17799e-11 0)
(0.005 -6.5406e-11 0)
(0.005 -6.92031e-11 0)
(0.005 -7.3177e-11 0)
(0.005 -7.73332e-11 0)
(0.005 -8.16777e-11 0)
(0.005 -8.6216e-11 0)
(0.005 -9.09539e-11 0)
(0.005 -9.58972e-11 0)
(0.005 -1.01051e-10 0)
(0.005 -1.06422e-10 0)
(0.005 -1.12015e-10 0)
(0.005 -1.17834e-10 0)
(0.005 -1.23887e-10 0)
(0.005 -1.30176e-10 0)
(0.005 -1.36708e-10 0)
(0.005 -1.43486e-10 0)
(0.005 -1.50514e-10 0)
(0.005 -1.57797e-10 0)
(0.005 -1.65337e-10 0)
(0.005 -1.73138e-10 0)
(0.005 -1.81202e-10 0)
(0.005 -1.8953e-10 0)
(0.005 -1.98124e-10 0)
(0.005 -2.06983e-10 0)
(0.005 -2.16107e-10 0)
(0.005 -2.25493e-10 0)
(0.005 -2.3514e-10 0)
(0.005 -2.45042e-10 0)
(0.005 -2.55193e-10 0)
(0.005 -2.65585e-10 0)
(0.005 -2.76209e-10 0)
(0.005 -2.87052e-10 0)
(0.005 -2.98097e-10 0)
(0.005 -3.09327e-10 0)
(0.005 -3.20718e-10 0)
(0.005 -3.32243e-10 0)
(0.005 -3.43867e-10 0)
(0.005 -3.5555e-10 0)
(0.005 -3.67243e-10 0)
(0.005 -3.78888e-10 0)
(0.005 -3.90414e-10 0)
(0.005 -4.01736e-10 0)
(0.005 -4.12754e-10 0)
(0.005 -4.23344e-10 0)
(0.005 -4.33358e-10 0)
(0.005 -4.42616e-10 0)
(0.005 -4.50896e-10 0)
(0.005 -4.57912e-10 0)
(0.005 -4.6332e-10 0)
(0.005 -4.66789e-10 0)
(0.005 -1.01134e-13 0)
(0.005 -3.16216e-13 0)
(0.005 -5.44617e-13 0)
(0.005 -7.85556e-13 0)
(0.005 -1.03897e-12 0)
(0.005 -1.30556e-12 0)
(0.005 -1.58653e-12 0)
(0.005 -1.88332e-12 0)
(0.005 -2.19755e-12 0)
(0.005 -2.5309e-12 0)
(0.005 -2.88509e-12 0)
(0.005 -3.26189e-12 0)
(0.005 -3.66309e-12 0)
(0.005 -4.09053e-12 0)
(0.005 -4.5461e-12 0)
(0.005 -5.03173e-12 0)
(0.005 -5.54943e-12 0)
(0.005 -6.10126e-12 0)
(0.005 -6.68935e-12 0)
(0.005 -7.31593e-12 0)
(0.005 -7.98328e-12 0)
(0.005 -8.69379e-12 0)
(0.005 -9.44993e-12 0)
(0.005 -1.02543e-11 0)
(0.005 -1.11095e-11 0)
(0.005 -1.20183e-11 0)
(0.005 -1.29837e-11 0)
(0.005 -1.40085e-11 0)
(0.005 -1.50959e-11 0)
(0.005 -1.62491e-11 0)
(0.005 -1.74713e-11 0)
(0.005 -1.87661e-11 0)
(0.005 -2.01369e-11 0)
(0.005 -2.15875e-11 0)
(0.005 -2.31215e-11 0)
(0.005 -2.4743e-11 0)
(0.005 -2.64559e-11 0)
(0.005 -2.82645e-11 0)
(0.005 -3.01728e-11 0)
(0.005 -3.21854e-11 0)
(0.005 -3.43068e-11 0)
(0.005 -3.65416e-11 0)
(0.005 -3.88944e-11 0)
(0.005 -4.13702e-11 0)
(0.005 -4.39739e-11 0)
(0.005 -4.67105e-11 0)
(0.005 -4.95853e-11 0)
(0.005 -5.26034e-11 0)
(0.005 -5.57703e-11 0)
(0.005 -5.90912e-11 0)
(0.005 -6.25717e-11 0)
(0.005 -6.62174e-11 0)
(0.005 -7.00339e-11 0)
(0.005 -7.40267e-11 0)
(0.005 -7.82015e-11 0)
(0.005 -8.25642e-11 0)
(0.005 -8.71202e-11 0)
(0.005 -9.18754e-11 0)
(0.005 -9.68353e-11 0)
(0.005 -1.02005e-10 0)
(0.005 -1.07391e-10 0)
(0.005 -1.12999e-10 0)
(0.005 -1.18833e-10 0)
(0.005 -1.24898e-10 0)
(0.005 -1.312e-10 0)
(0.005 -1.37743e-10 0)
(0.005 -1.44532e-10 0)
(0.005 -1.51571e-10 0)
(0.005 -1.58864e-10 0)
(0.005 -1.66414e-10 0)
(0.005 -1.74225e-10 0)
(0.005 -1.82297e-10 0)
(0.005 -1.90635e-10 0)
(0.005 -1.99238e-10 0)
(0.005 -2.08107e-10 0)
(0.005 -2.17241e-10 0)
(0.005 -2.2664e-10 0)
(0.005 -2.363e-10 0)
(0.005 -2.46217e-10 0)
(0.005 -2.56385e-10 0)
(0.005 -2.66797e-10 0)
(0.005 -2.77442e-10 0)
(0.005 -2.8831e-10 0)
(0.005 -2.99382e-10 0)
(0.005 -3.10642e-10 0)
(0.005 -3.22063e-10 0)
(0.005 -3.33618e-10 0)
(0.005 -3.45269e-10 0)
(0.005 -3.56974e-10 0)
(0.005 -3.68678e-10 0)
(0.005 -3.80316e-10 0)
(0.005 -3.91806e-10 0)
(0.005 -4.0305e-10 0)
(0.005 -4.13924e-10 0)
(0.005 -4.24277e-10 0)
(0.005 -4.33917e-10 0)
(0.005 -4.42599e-10 0)
(0.005 -4.5e-10 0)
(0.005 -4.55712e-10 0)
(0.005 -4.59042e-10 0)
(0.005 -9.18735e-14 0)
(0.005 -2.88771e-13 0)
(0.005 -4.99801e-13 0)
(0.005 -7.24371e-13 0)
(0.005 -9.62212e-13 0)
(0.005 -1.21368e-12 0)
(0.005 -1.47962e-12 0)
(0.005 -1.76119e-12 0)
(0.005 -2.05974e-12 0)
(0.005 -2.37676e-12 0)
(0.005 -2.7138e-12 0)
(0.005 -3.0725e-12 0)
(0.005 -3.45452e-12 0)
(0.005 -3.86159e-12 0)
(0.005 -4.29551e-12 0)
(0.005 -4.75812e-12 0)
(0.005 -5.25132e-12 0)
(0.005 -5.77708e-12 0)
(0.005 -6.33746e-12 0)
(0.005 -6.93456e-12 0)
(0.005 -7.57059e-12 0)
(0.005 -8.24784e-12 0)
(0.005 -8.96867e-12 0)
(0.005 -9.73556e-12 0)
(0.005 -1.05511e-11 0)
(0.005 -1.14178e-11 0)
(0.005 -1.23386e-11 0)
(0.005 -1.33163e-11 0)
(0.005 -1.43539e-11 0)
(0.005 -1.54544e-11 0)
(0.005 -1.6621e-11 0)
(0.005 -1.7857e-11 0)
(0.005 -1.91659e-11 0)
(0.005 -2.05512e-11 0)
(0.005 -2.20166e-11 0)
(0.005 -2.35657e-11 0)
(0.005 -2.52025e-11 0)
(0.005 -2.6931e-11 0)
(0.005 -2.87553e-11 0)
(0.005 -3.06797e-11 0)
(0.005 -3.27085e-11 0)
(0.005 -3.48462e-11 0)
(0.005 -3.70974e-11 0)
(0.005 -3.94668e-11 0)
(0.005 -4.19591e-11 0)
(0.005 -4.45794e-11 0)
(0.005 -4.73326e-11 0)
(0.005 -5.02239e-11 0)
(0.005 -5.32584e-11 0)
(0.005 -5.64415e-11 0)
(0.005 -5.97785e-11 0)
(0.005 -6.32749e-11 0)
(0.005 -6.69361e-11 0)
(0.005 -7.07677e-11 0)
(0.005 -7.47754e-11 0)
(0.005 -7.89647e-11 0)
(0.005 -8.33414e-11 0)
(0.005 -8.7911e-11 0)
(0.005 -9.26792e-11 0)
(0.005 -9.76516e-11 0)
(0.005 -1.02834e-10 0)
(0.005 -1.08231e-10 0)
(0.005 -1.1385e-10 0)
(0.005 -1.19694e-10 0)
(0.005 -1.25769e-10 0)
(0.005 -1.32081e-10 0)
(0.005 -1.38633e-10 0)
(0.005 -1.45432e-10 0)
(0.005 -1.5248e-10 0)
(0.005 -1.59782e-10 0)
(0.005 -1.67341e-10 0)
(0.005 -1.75161e-10 0)
(0.005 -1.83245e-10 0)
(0.005 -1.91594e-10 0)
(0.005 -2.0021e-10 0)
(0.005 -2.09093e-10 0)
(0.005 -2.18245e-10 0)
(0.005 -2.27663e-10 0)
(0.005 -2.37345e-10 0)
(0.005 -2.47288e-10 0)
(0.005 -2.57486e-10 0)
(0.005 -2.67932e-10 0)
(0.005 -2.78616e-10 0)
(0.005 -2.89526e-10 0)
(0.005 -3.00645e-10 0)
(0.005 -3.11953e-10 0)
(0.005 -3.23424e-10 0)
(0.005 -3.35027e-10 0)
(0.005 -3.46722e-10 0)
(0.005 -3.58458e-10 0)
(0.005 -3.70174e-10 0)
(0.005 -3.8179e-10 0)
(0.005 -3.93209e-10 0)
(0.005 -4.04306e-10 0)
(0.005 -4.14922e-10 0)
(0.005 -4.24855e-10 0)
(0.005 -4.33837e-10 0)
(0.005 -4.41512e-10 0)
(0.005 -4.47412e-10 0)
(0.005 -4.50668e-10 0)
(0.005 -8.35713e-14 0)
(0.005 -2.6371e-13 0)
(0.005 -4.58264e-13 0)
(0.005 -6.6689e-13 0)
(0.005 -8.89271e-13 0)
(0.005 -1.12557e-12 0)
(0.005 -1.37639e-12 0)
(0.005 -1.64265e-12 0)
(0.005 -1.9255e-12 0)
(0.005 -2.22621e-12 0)
(0.005 -2.5462e-12 0)
(0.005 -2.88693e-12 0)
(0.005 -3.24998e-12 0)
(0.005 -3.63695e-12 0)
(0.005 -4.04953e-12 0)
(0.005 -4.48946e-12 0)
(0.005 -4.95855e-12 0)
(0.005 -5.45869e-12 0)
(0.005 -5.99182e-12 0)
(0.005 -6.55996e-12 0)
(0.005 -7.16523e-12 0)
(0.005 -7.80981e-12 0)
(0.005 -8.49597e-12 0)
(0.005 -9.22608e-12 0)
(0.005 -1.00026e-11 0)
(0.005 -1.0828e-11 0)
(0.005 -1.17051e-11 0)
(0.005 -1.26365e-11 0)
(0.005 -1.36251e-11 0)
(0.005 -1.46739e-11 0)
(0.005 -1.57859e-11 0)
(0.005 -1.69643e-11 0)
(0.005 -1.82124e-11 0)
(0.005 -1.95336e-11 0)
(0.005 -2.09314e-11 0)
(0.005 -2.24095e-11 0)
(0.005 -2.39715e-11 0)
(0.005 -2.56214e-11 0)
(0.005 -2.73632e-11 0)
(0.005 -2.92009e-11 0)
(0.005 -3.11388e-11 0)
(0.005 -3.31812e-11 0)
(0.005 -3.53325e-11 0)
(0.005 -3.75973e-11 0)
(0.005 -3.99803e-11 0)
(0.005 -4.24863e-11 0)
(0.005 -4.51201e-11 0)
(0.005 -4.78867e-11 0)
(0.005 -5.07912e-11 0)
(0.005 -5.38388e-11 0)
(0.005 -5.70347e-11 0)
(0.005 -6.03843e-11 0)
(0.005 -6.3893e-11 0)
(0.005 -6.75662e-11 0)
(0.005 -7.14095e-11 0)
(0.005 -7.54284e-11 0)
(0.005 -7.96286e-11 0)
(0.005 -8.40157e-11 0)
(0.005 -8.85954e-11 0)
(0.005 -9.33733e-11 0)
(0.005 -9.83549e-11 0)
(0.005 -1.03546e-10 0)
(0.005 -1.08952e-10 0)
(0.005 -1.14579e-10 0)
(0.005 -1.20431e-10 0)
(0.005 -1.26514e-10 0)
(0.005 -1.32834e-10 0)
(0.005 -1.39395e-10 0)
(0.005 -1.46201e-10 0)
(0.005 -1.53258e-10 0)
(0.005 -1.6057e-10 0)
(0.005 -1.6814e-10 0)
(0.005 -1.75973e-10 0)
(0.005 -1.8407e-10 0)
(0.005 -1.92435e-10 0)
(0.005 -2.0107e-10 0)
(0.005 -2.09976e-10 0)
(0.005 -2.19153e-10 0)
(0.005 -2.28601e-10 0)
(0.005 -2.38317e-10 0)
(0.005 -2.48299e-10 0)
(0.005 -2.58542e-10 0)
(0.005 -2.69038e-10 0)
(0.005 -2.79777e-10 0)
(0.005 -2.90746e-10 0)
(0.005 -3.01929e-10 0)
(0.005 -3.13303e-10 0)
(0.005 -3.24838e-10 0)
(0.005 -3.36499e-10 0)
(0.005 -3.48239e-10 0)
(0.005 -3.59997e-10 0)
(0.005 -3.71697e-10 0)
(0.005 -3.83239e-10 0)
(0.005 -3.94497e-10 0)
(0.005 -4.05306e-10 0)
(0.005 -4.15451e-10 0)
(0.005 -4.24647e-10 0)
(0.005 -4.32507e-10 0)
(0.005 -4.38521e-10 0)
(0.005 -4.41804e-10 0)
(0.005 -7.60158e-14 0)
(0.005 -2.40644e-13 0)
(0.005 -4.19629e-13 0)
(0.005 -6.12873e-13 0)
(0.005 -8.20091e-13 0)
(0.005 -1.04135e-12 0)
(0.005 -1.2771e-12 0)
(0.005 -1.52808e-12 0)
(0.005 -1.79525e-12 0)
(0.005 -2.07974e-12 0)
(0.005 -2.38279e-12 0)
(0.005 -2.70574e-12 0)
(0.005 -3.05004e-12 0)
(0.005 -3.41718e-12 0)
(0.005 -3.80874e-12 0)
(0.005 -4.22637e-12 0)
(0.005 -4.67177e-12 0)
(0.005 -5.14675e-12 0)
(0.005 -5.65313e-12 0)
(0.005 -6.19287e-12 0)
(0.005 -6.76797e-12 0)
(0.005 -7.38052e-12 0)
(0.005 -8.03269e-12 0)
(0.005 -8.72675e-12 0)
(0.005 -9.46503e-12 0)
(0.005 -1.025e-11 0)
(0.005 -1.10842e-11 0)
(0.005 -1.19702e-11 0)
(0.005 -1.29109e-11 0)
(0.005 -1.3909e-11 0)
(0.005 -1.49674e-11 0)
(0.005 -1.60893e-11 0)
(0.005 -1.72778e-11 0)
(0.005 -1.85362e-11 0)
(0.005 -1.98678e-11 0)
(0.005 -2.12763e-11 0)
(0.005 -2.2765e-11 0)
(0.005 -2.43379e-11 0)
(0.005 -2.59987e-11 0)
(0.005 -2.77515e-11 0)
(0.005 -2.96002e-11 0)
(0.005 -3.15491e-11 0)
(0.005 -3.36025e-11 0)
(0.005 -3.57648e-11 0)
(0.005 -3.80406e-11 0)
(0.005 -4.04344e-11 0)
(0.005 -4.29511e-11 0)
(0.005 -4.55954e-11 0)
(0.005 -4.83724e-11 0)
(0.005 -5.12871e-11 0)
(0.005 -5.43446e-11 0)
(0.005 -5.75502e-11 0)
(0.005 -6.09091e-11 0)
(0.005 -6.44269e-11 0)
(0.005 -6.81088e-11 0)
(0.005 -7.19605e-11 0)
(0.005 -7.59875e-11 0)
(0.005 -8.01955e-11 0)
(0.005 -8.459e-11 0)
(0.005 -8.91768e-11 0)
(0.005 -9.39615e-11 0)
(0.005 -9.89498e-11 0)
(0.005 -1.04147e-10 0)
(0.005 -1.0956e-10 0)
(0.005 -1.15193e-10 0)
(0.005 -1.21052e-10 0)
(0.005 -1.27142e-10 0)
(0.005 -1.33469e-10 0)
(0.005 -1.40038e-10 0)
(0.005 -1.46853e-10 0)
(0.005 -1.53921e-10 0)
(0.005 -1.61244e-10 0)
(0.005 -1.68828e-10 0)
(0.005 -1.76677e-10 0)
(0.005 -1.84793e-10 0)
(0.005 -1.93181e-10 0)
(0.005 -2.01842e-10 0)
(0.005 -2.10779e-10 0)
(0.005 -2.19991e-10 0)
(0.005 -2.2948e-10 0)
(0.005 -2.39244e-10 0)
(0.005 -2.49279e-10 0)
(0.005 -2.59581e-10 0)
(0.005 -2.70143e-10 0)
(0.005 -2.80953e-10 0)
(0.005 -2.91998e-10 0)
(0.005 -3.03257e-10 0)
(0.005 -3.14706e-10 0)
(0.005 -3.2631e-10 0)
(0.005 -3.38023e-10 0)
(0.005 -3.49788e-10 0)
(0.005 -3.61529e-10 0)
(0.005 -3.73146e-10 0)
(0.005 -3.84508e-10 0)
(0.005 -3.95445e-10 0)
(0.005 -4.05732e-10 0)
(0.005 -4.15068e-10 0)
(0.005 -4.23046e-10 0)
(0.005 -4.29117e-10 0)
(0.005 -4.3249e-10 0)
(0.005 -6.90673e-14 0)
(0.005 -2.19282e-13 0)
(0.005 -3.83579e-13 0)
(0.005 -5.62076e-13 0)
(0.005 -7.54556e-13 0)
(0.005 -9.61046e-13 0)
(0.005 -1.1819e-12 0)
(0.005 -1.41773e-12 0)
(0.005 -1.66935e-12 0)
(0.005 -1.93775e-12 0)
(0.005 -2.22403e-12 0)
(0.005 -2.52941e-12 0)
(0.005 -2.85521e-12 0)
(0.005 -3.20283e-12 0)
(0.005 -3.57372e-12 0)
(0.005 -3.96945e-12 0)
(0.005 -4.39161e-12 0)
(0.005 -4.84191e-12 0)
(0.005 -5.3221e-12 0)
(0.005 -5.83402e-12 0)
(0.005 -6.37958e-12 0)
(0.005 -6.96078e-12 0)
(0.005 -7.57969e-12 0)
(0.005 -8.23847e-12 0)
(0.005 -8.93937e-12 0)
(0.005 -9.68474e-12 0)
(0.005 -1.0477e-11 0)
(0.005 -1.13187e-11 0)
(0.005 -1.22124e-11 0)
(0.005 -1.31609e-11 0)
(0.005 -1.4167e-11 0)
(0.005 -1.52336e-11 0)
(0.005 -1.63638e-11 0)
(0.005 -1.75608e-11 0)
(0.005 -1.88277e-11 0)
(0.005 -2.01679e-11 0)
(0.005 -2.1585e-11 0)
(0.005 -2.30825e-11 0)
(0.005 -2.46642e-11 0)
(0.005 -2.63338e-11 0)
(0.005 -2.80953e-11 0)
(0.005 -2.99527e-11 0)
(0.005 -3.19103e-11 0)
(0.005 -3.39722e-11 0)
(0.005 -3.6143e-11 0)
(0.005 -3.84271e-11 0)
(0.005 -4.08291e-11 0)
(0.005 -4.33537e-11 0)
(0.005 -4.60058e-11 0)
(0.005 -4.87904e-11 0)
(0.005 -5.17123e-11 0)
(0.005 -5.47769e-11 0)
(0.005 -5.79892e-11 0)
(0.005 -6.13546e-11 0)
(0.005 -6.48785e-11 0)
(0.005 -6.85663e-11 0)
(0.005 -7.24236e-11 0)
(0.005 -7.64559e-11 0)
(0.005 -8.0669e-11 0)
(0.005 -8.50683e-11 0)
(0.005 -8.96598e-11 0)
(0.005 -9.44491e-11 0)
(0.005 -9.9442e-11 0)
(0.005 -1.04644e-10 0)
(0.005 -1.10062e-10 0)
(0.005 -1.157e-10 0)
(0.005 -1.21565e-10 0)
(0.005 -1.27662e-10 0)
(0.005 -1.33997e-10 0)
(0.005 -1.40575e-10 0)
(0.005 -1.47401e-10 0)
(0.005 -1.54481e-10 0)
(0.005 -1.6182e-10 0)
(0.005 -1.69423e-10 0)
(0.005 -1.77293e-10 0)
(0.005 -1.85435e-10 0)
(0.005 -1.93853e-10 0)
(0.005 -2.02549e-10 0)
(0.005 -2.11526e-10 0)
(0.005 -2.20786e-10 0)
(0.005 -2.30328e-10 0)
(0.005 -2.40152e-10 0)
(0.005 -2.50255e-10 0)
(0.005 -2.60631e-10 0)
(0.005 -2.71272e-10 0)
(0.005 -2.82165e-10 0)
(0.005 -2.93295e-10 0)
(0.005 -3.04637e-10 0)
(0.005 -3.16158e-10 0)
(0.005 -3.27817e-10 0)
(0.005 -3.39555e-10 0)
(0.005 -3.51296e-10 0)
(0.005 -3.6294e-10 0)
(0.005 -3.74354e-10 0)
(0.005 -3.85361e-10 0)
(0.005 -3.95728e-10 0)
(0.005 -4.05145e-10 0)
(0.005 -4.13194e-10 0)
(0.005 -4.19317e-10 0)
(0.005 -4.22837e-10 0)
(0.005 -6.26342e-14 0)
(0.005 -1.99409e-13 0)
(0.005 -3.49861e-13 0)
(0.005 -5.14283e-13 0)
(0.005 -6.92529e-13 0)
(0.005 -8.84625e-13 0)
(0.005 -1.09087e-12 0)
(0.005 -1.31177e-12 0)
(0.005 -1.54805e-12 0)
(0.005 -1.80057e-12 0)
(0.005 -2.07031e-12 0)
(0.005 -2.35838e-12 0)
(0.005 -2.66599e-12 0)
(0.005 -2.99441e-12 0)
(0.005 -3.34503e-12 0)
(0.005 -3.71928e-12 0)
(0.005 -4.11868e-12 0)
(0.005 -4.54483e-12 0)
(0.005 -4.99939e-12 0)
(0.005 -5.48411e-12 0)
(0.005 -6.00081e-12 0)
(0.005 -6.55138e-12 0)
(0.005 -7.1378e-12 0)
(0.005 -7.76214e-12 0)
(0.005 -8.42653e-12 0)
(0.005 -9.13323e-12 0)
(0.005 -9.88455e-12 0)
(0.005 -1.06829e-11 0)
(0.005 -1.15308e-11 0)
(0.005 -1.24309e-11 0)
(0.005 -1.33859e-11 0)
(0.005 -1.43986e-11 0)
(0.005 -1.54719e-11 0)
(0.005 -1.66088e-11 0)
(0.005 -1.78125e-11 0)
(0.005 -1.90863e-11 0)
(0.005 -2.04333e-11 0)
(0.005 -2.18573e-11 0)
(0.005 -2.33616e-11 0)
(0.005 -2.495e-11 0)
(0.005 -2.66263e-11 0)
(0.005 -2.83944e-11 0)
(0.005 -3.02584e-11 0)
(0.005 -3.22223e-11 0)
(0.005 -3.42905e-11 0)
(0.005 -3.64674e-11 0)
(0.005 -3.87573e-11 0)
(0.005 -4.1165e-11 0)
(0.005 -4.36951e-11 0)
(0.005 -4.63524e-11 0)
(0.005 -4.91419e-11 0)
(0.005 -5.20685e-11 0)
(0.005 -5.51375e-11 0)
(0.005 -5.83539e-11 0)
(0.005 -6.17232e-11 0)
(0.005 -6.52507e-11 0)
(0.005 -6.89419e-11 0)
(0.005 -7.28024e-11 0)
(0.005 -7.68377e-11 0)
(0.005 -8.10536e-11 0)
(0.005 -8.54559e-11 0)
(0.005 -9.00503e-11 0)
(0.005 -9.48426e-11 0)
(0.005 -9.98389e-11 0)
(0.005 -1.05045e-10 0)
(0.005 -1.10467e-10 0)
(0.005 -1.1611e-10 0)
(0.005 -1.21981e-10 0)
(0.005 -1.28086e-10 0)
(0.005 -1.3443e-10 0)
(0.005 -1.41019e-10 0)
(0.005 -1.4786e-10 0)
(0.005 -1.54956e-10 0)
(0.005 -1.62315e-10 0)
(0.005 -1.69942e-10 0)
(0.005 -1.7784e-10 0)
(0.005 -1.86016e-10 0)
(0.005 -1.94472e-10 0)
(0.005 -2.03214e-10 0)
(0.005 -2.12243e-10 0)
(0.005 -2.21561e-10 0)
(0.005 -2.31169e-10 0)
(0.005 -2.41066e-10 0)
(0.005 -2.51248e-10 0)
(0.005 -2.61709e-10 0)
(0.005 -2.72439e-10 0)
(0.005 -2.83422e-10 0)
(0.005 -2.94637e-10 0)
(0.005 -3.06052e-10 0)
(0.005 -3.17628e-10 0)
(0.005 -3.29305e-10 0)
(0.005 -3.4101e-10 0)
(0.005 -3.52638e-10 0)
(0.005 -3.64056e-10 0)
(0.005 -3.75081e-10 0)
(0.005 -3.85477e-10 0)
(0.005 -3.94927e-10 0)
(0.005 -4.03011e-10 0)
(0.005 -4.09185e-10 0)
(0.005 -4.1281e-10 0)
(0.005 -5.66523e-14 0)
(0.005 -1.80867e-13 0)
(0.005 -3.18271e-13 0)
(0.005 -4.69297e-13 0)
(0.005 -6.33867e-13 0)
(0.005 -8.1202e-13 0)
(0.005 -1.00402e-12 0)
(0.005 -1.21032e-12 0)
(0.005 -1.43154e-12 0)
(0.005 -1.66845e-12 0)
(0.005 -1.92195e-12 0)
(0.005 -2.19302e-12 0)
(0.005 -2.48277e-12 0)
(0.005 -2.79238e-12 0)
(0.005 -3.12313e-12 0)
(0.005 -3.47637e-12 0)
(0.005 -3.85352e-12 0)
(0.005 -4.25607e-12 0)
(0.005 -4.68562e-12 0)
(0.005 -5.1438e-12 0)
(0.005 -5.63234e-12 0)
(0.005 -6.15304e-12 0)
(0.005 -6.70779e-12 0)
(0.005 -7.29855e-12 0)
(0.005 -7.92737e-12 0)
(0.005 -8.59639e-12 0)
(0.005 -9.30783e-12 0)
(0.005 -1.0064e-11 0)
(0.005 -1.08673e-11 0)
(0.005 -1.17202e-11 0)
(0.005 -1.26254e-11 0)
(0.005 -1.35855e-11 0)
(0.005 -1.46034e-11 0)
(0.005 -1.56819e-11 0)
(0.005 -1.6824e-11 0)
(0.005 -1.80329e-11 0)
(0.005 -1.93117e-11 0)
(0.005 -2.06639e-11 0)
(0.005 -2.20929e-11 0)
(0.005 -2.36021e-11 0)
(0.005 -2.51954e-11 0)
(0.005 -2.68764e-11 0)
(0.005 -2.86491e-11 0)
(0.005 -3.05175e-11 0)
(0.005 -3.24857e-11 0)
(0.005 -3.45579e-11 0)
(0.005 -3.67386e-11 0)
(0.005 -3.90322e-11 0)
(0.005 -4.14432e-11 0)
(0.005 -4.39764e-11 0)
(0.005 -4.66366e-11 0)
(0.005 -4.94287e-11 0)
(0.005 -5.23577e-11 0)
(0.005 -5.54287e-11 0)
(0.005 -5.8647e-11 0)
(0.005 -6.2018e-11 0)
(0.005 -6.55469e-11 0)
(0.005 -6.92394e-11 0)
(0.005 -7.31011e-11 0)
(0.005 -7.71377e-11 0)
(0.005 -8.13548e-11 0)
(0.005 -8.57585e-11 0)
(0.005 -9.03546e-11 0)
(0.005 -9.51492e-11 0)
(0.005 -1.00148e-10 0)
(0.005 -1.05358e-10 0)
(0.005 -1.10784e-10 0)
(0.005 -1.16434e-10 0)
(0.005 -1.22312e-10 0)
(0.005 -1.28426e-10 0)
(0.005 -1.34782e-10 0)
(0.005 -1.41386e-10 0)
(0.005 -1.48244e-10 0)
(0.005 -1.55362e-10 0)
(0.005 -1.62747e-10 0)
(0.005 -1.70404e-10 0)
(0.005 -1.78338e-10 0)
(0.005 -1.86555e-10 0)
(0.005 -1.9506e-10 0)
(0.005 -2.03857e-10 0)
(0.005 -2.12948e-10 0)
(0.005 -2.22336e-10 0)
(0.005 -2.32021e-10 0)
(0.005 -2.42001e-10 0)
(0.005 -2.52272e-10 0)
(0.005 -2.62825e-10 0)
(0.005 -2.73645e-10 0)
(0.005 -2.84714e-10 0)
(0.005 -2.96001e-10 0)
(0.005 -3.07466e-10 0)
(0.005 -3.19053e-10 0)
(0.005 -3.30685e-10 0)
(0.005 -3.42259e-10 0)
(0.005 -3.53638e-10 0)
(0.005 -3.64639e-10 0)
(0.005 -3.7502e-10 0)
(0.005 -3.84463e-10 0)
(0.005 -3.9255e-10 0)
(0.005 -3.98742e-10 0)
(0.005 -4.02402e-10 0)
(0.005 -5.10731e-14 0)
(0.005 -1.63532e-13 0)
(0.005 -2.88643e-13 0)
(0.005 -4.26948e-13 0)
(0.005 -5.78429e-13 0)
(0.005 -7.43142e-13 0)
(0.005 -9.21333e-13 0)
(0.005 -1.11341e-12 0)
(0.005 -1.31993e-12 0)
(0.005 -1.54159e-12 0)
(0.005 -1.77918e-12 0)
(0.005 -2.03361e-12 0)
(0.005 -2.30589e-12 0)
(0.005 -2.59711e-12 0)
(0.005 -2.90845e-12 0)
(0.005 -3.24118e-12 0)
(0.005 -3.59661e-12 0)
(0.005 -3.97617e-12 0)
(0.005 -4.38133e-12 0)
(0.005 -4.81365e-12 0)
(0.005 -5.27478e-12 0)
(0.005 -5.76641e-12 0)
(0.005 -6.29034e-12 0)
(0.005 -6.84844e-12 0)
(0.005 -7.44265e-12 0)
(0.005 -8.07502e-12 0)
(0.005 -8.74767e-12 0)
(0.005 -9.46279e-12 0)
(0.005 -1.02227e-11 0)
(0.005 -1.10298e-11 0)
(0.005 -1.18865e-11 0)
(0.005 -1.27955e-11 0)
(0.005 -1.37594e-11 0)
(0.005 -1.47811e-11 0)
(0.005 -1.58633e-11 0)
(0.005 -1.70091e-11 0)
(0.005 -1.82216e-11 0)
(0.005 -1.9504e-11 0)
(0.005 -2.08597e-11 0)
(0.005 -2.22919e-11 0)
(0.005 -2.38044e-11 0)
(0.005 -2.54006e-11 0)
(0.005 -2.70845e-11 0)
(0.005 -2.88599e-11 0)
(0.005 -3.07307e-11 0)
(0.005 -3.27011e-11 0)
(0.005 -3.47754e-11 0)
(0.005 -3.69579e-11 0)
(0.005 -3.92529e-11 0)
(0.005 -4.16652e-11 0)
(0.005 -4.41995e-11 0)
(0.005 -4.68604e-11 0)
(0.005 -4.9653e-11 0)
(0.005 -5.25823e-11 0)
(0.005 -5.56534e-11 0)
(0.005 -5.88716e-11 0)
(0.005 -6.22423e-11 0)
(0.005 -6.5771e-11 0)
(0.005 -6.94631e-11 0)
(0.005 -7.33245e-11 0)
(0.005 -7.7361e-11 0)
(0.005 -8.15783e-11 0)
(0.005 -8.59826e-11 0)
(0.005 -9.05798e-11 0)
(0.005 -9.53763e-11 0)
(0.005 -1.00378e-10 0)
(0.005 -1.05592e-10 0)
(0.005 -1.11024e-10 0)
(0.005 -1.16681e-10 0)
(0.005 -1.22569e-10 0)
(0.005 -1.28695e-10 0)
(0.005 -1.35066e-10 0)
(0.005 -1.41689e-10 0)
(0.005 -1.48569e-10 0)
(0.005 -1.55715e-10 0)
(0.005 -1.63131e-10 0)
(0.005 -1.70826e-10 0)
(0.005 -1.78804e-10 0)
(0.005 -1.87072e-10 0)
(0.005 -1.95634e-10 0)
(0.005 -2.04495e-10 0)