/*--------------------------------*- C++ -*----------------------------------*\
  =========                 |
  \\      /  F ield         | OpenFOAM: The Open Source CFD Toolbox
   \\    /   O peration     | Website:  https://openfoam.org
    \\  /    A nd           | Version:  11
     \\/     M anipulation  |
\*---------------------------------------------------------------------------*/
FoamFile
{
    format      ascii;
    class       volScalarField;
    location    "404";
    object      omega;
}
// * * * * * * * * * * * * * * * * * * * * * * * * * * * * * * * * * * * * * //

dimensions      [0 0 -1 0 0 0 0];

internalField   nonuniform List<scalar> 
10000
(
0.961693
0.892186
0.829087
0.77173
0.719524
0.671944
0.62852
0.588837
0.552522
0.519243
0.488704
0.46064
0.434816
0.411018
0.389059
0.368767
0.34999
0.332593
0.316451
0.301454
0.287502
0.274506
0.262385
0.251066
0.240482
0.230573
0.221285
0.212569
0.204381
0.196678
0.189425
0.182588
0.176135
0.170038
0.164272
0.158814
0.15364
0.148733
0.144072
0.139642
0.135427
0.131412
0.127585
0.123932
0.120443
0.117107
0.113914
0.110855
0.107921
0.105104
0.102397
0.0997925
0.097284
0.0948653
0.0925304
0.0902738
0.0880904
0.0859752
0.0839237
0.0819317
0.0799953
0.0781109
0.0762755
0.0744861
0.0727403
0.0710361
0.0693718
0.0677463
0.0661588
0.0646088
0.0630964
0.0616219
0.0601859
0.0587894
0.0574332
0.0561187
0.0548472
0.0536201
0.0524385
0.0513036
0.0502162
0.0491769
0.0481861
0.0472442
0.0463513
0.0455074
0.0447124
0.0439662
0.0432684
0.0426191
0.0420182
0.041466
0.0409629
0.0405099
0.0401086
0.0397611
0.0394707
0.0392418
0.0390802
0.0389941
0.961693
0.892187
0.829087
0.77173
0.719524
0.671944
0.628521
0.588837
0.552522
0.519243
0.488704
0.460641
0.434816
0.411019
0.389059
0.368767
0.349991
0.332593
0.316451
0.301454
0.287503
0.274507
0.262386
0.251066
0.240482
0.230573
0.221286
0.21257
0.204381
0.196679
0.189426
0.182588
0.176135
0.170039
0.164273
0.158814
0.153641
0.148733
0.144073
0.139643
0.135428
0.131413
0.127585
0.123933
0.120444
0.117108
0.113915
0.110856
0.107922
0.105105
0.102398
0.0997938
0.0972855
0.0948669
0.0925321
0.0902756
0.0880923
0.0859773
0.0839259
0.0819341
0.0799979
0.0781138
0.0762785
0.0744893
0.0727438
0.0710398
0.0693757
0.0677504
0.0661631
0.0646133
0.063101
0.0616267
0.0601909
0.0587944
0.0574384
0.0561241
0.0548528
0.0536257
0.0524441
0.0513091
0.0502214
0.0491819
0.0481909
0.0472488
0.0463557
0.0455116
0.0447164
0.0439699
0.0432719
0.0426224
0.0420214
0.0414689
0.0409656
0.0405125
0.0401111
0.0397635
0.039473
0.0392439
0.0390823
0.0389962
0.961693
0.892187
0.829087
0.77173
0.719524
0.671944
0.628521
0.588838
0.552523
0.519244
0.488705
0.460641
0.434817
0.411019
0.389059
0.368768
0.349991
0.332593
0.316451
0.301455
0.287503
0.274507
0.262386
0.251067
0.240483
0.230574
0.221286
0.212571
0.204382
0.196679
0.189426
0.182589
0.176136
0.170039
0.164274
0.158815
0.153642
0.148734
0.144074
0.139644
0.135429
0.131414
0.127587
0.123934
0.120445
0.117109
0.113916
0.110857
0.107923
0.105107
0.1024
0.099796
0.0972878
0.0948693
0.0925347
0.0902785
0.0880954
0.0859806
0.0839295
0.081938
0.0800021
0.0781183
0.0762833
0.0744945
0.0727493
0.0710456
0.069382
0.067757
0.06617
0.0646206
0.0631087
0.0616346
0.060199
0.0588028
0.057447
0.0561329
0.0548617
0.0536347
0.0524531
0.0513179
0.0502301
0.0491904
0.0481991
0.0472567
0.0463633
0.0455189
0.0447234
0.0439766
0.0432783
0.0426285
0.0420271
0.0414743
0.0409708
0.0405174
0.0401157
0.0397679
0.0394772
0.0392481
0.0390864
0.0390002
0.961693
0.892187
0.829087
0.77173
0.719525
0.671945
0.628521
0.588838
0.552523
0.519244
0.488705
0.460642
0.434817
0.41102
0.38906
0.368768
0.349992
0.332594
0.316452
0.301455
0.287504
0.274508
0.262387
0.251068
0.240484
0.230575
0.221287
0.212572
0.204383
0.196681
0.189428
0.18259
0.176137
0.170041
0.164275
0.158816
0.153643
0.148736
0.144075
0.139645
0.13543
0.131416
0.127588
0.123936
0.120447
0.117111
0.113919
0.11086
0.107926
0.10511
0.102403
0.099799
0.097291
0.0948728
0.0925385
0.0902825
0.0880997
0.0859852
0.0839345
0.0819433
0.0800078
0.0781245
0.07629
0.0745017
0.0727569
0.0710538
0.0693906
0.0677662
0.0661797
0.0646307
0.0631192
0.0616456
0.0602103
0.0588145
0.057459
0.056145
0.054874
0.0536471
0.0524655
0.0513302
0.0502422
0.0492022
0.0482107
0.0472679
0.0463741
0.0455293
0.0447333
0.0439861
0.0432874
0.0426371
0.0420353
0.0414821
0.0409782
0.0405245
0.0401224
0.0397744
0.0394835
0.0392541
0.0390923
0.039006
0.961693
0.892187
0.829087
0.771731
0.719525
0.671945
0.628522
0.588839
0.552524
0.519245
0.488706
0.460643
0.434818
0.411021
0.389061
0.368769
0.349993
0.332595
0.316453
0.301457
0.287505
0.27451
0.262389
0.251069
0.240485
0.230576
0.221289
0.212573
0.204384
0.196682
0.189429
0.182591
0.176139
0.170042
0.164277
0.158818
0.153645
0.148738
0.144077
0.139647
0.135432
0.131418
0.127591
0.123938
0.12045
0.117114
0.113921
0.110863
0.107929
0.105113
0.102407
0.0998029
0.0972952
0.0948773
0.0925433
0.0902876
0.0881052
0.0859912
0.0839409
0.0819502
0.0800153
0.0781324
0.0762986
0.0745108
0.0727667
0.0710642
0.0694017
0.0677779
0.066192
0.0646436
0.0631327
0.0616596
0.0602248
0.0588293
0.0574741
0.0561605
0.0548896
0.0536628
0.0524811
0.0513458
0.0502576
0.0492172
0.0482253
0.0472822
0.0463879
0.0455426
0.0447461
0.0439983
0.0432991
0.0426483
0.0420459
0.0414922
0.0409878
0.0405336
0.0401312
0.0397828
0.0394916
0.039262
0.0391
0.0390135
0.961693
0.892187
0.829088
0.771731
0.719525
0.671945
0.628522
0.58884
0.552525
0.519246
0.488707
0.460644
0.434819
0.411022
0.389062
0.368771
0.349994
0.332597
0.316455
0.301458
0.287507
0.274511
0.26239
0.251071
0.240487
0.230578
0.22129
0.212575
0.204386
0.196684
0.189431
0.182593
0.176141
0.170044
0.164279
0.15882
0.153647
0.14874
0.14408
0.13965
0.135435
0.131421
0.127594
0.123941
0.120453
0.117117
0.113925
0.110866
0.107933
0.105117
0.102411
0.0998076
0.0973003
0.0948827
0.0925491
0.0902939
0.0881119
0.0859984
0.0839487
0.0819586
0.0800242
0.0781421
0.0763089
0.0745218
0.0727785
0.0710767
0.069415
0.0677919
0.0662068
0.0646591
0.0631489
0.0616763
0.0602421
0.0588471
0.0574923
0.0561789
0.0549083
0.0536815
0.0524998
0.0513643
0.0502759
0.0492352
0.0482429
0.0472992
0.0464044
0.0455585
0.0447614
0.044013
0.0433131
0.0426617
0.0420587
0.0415044
0.0409994
0.0405447
0.0401418
0.039793
0.0395014
0.0392715
0.0391093
0.0390227
0.961693
0.892187
0.829088
0.771731
0.719526
0.671946
0.628523
0.58884
0.552525
0.519247
0.488708
0.460645
0.43482
0.411023
0.389063
0.368772
0.349996
0.332598
0.316456
0.301459
0.287508
0.274512
0.262392
0.251072
0.240488
0.23058
0.221292
0.212576
0.204388
0.196686
0.189433
0.182595
0.176143
0.170047
0.164281
0.158823
0.15365
0.148743
0.144082
0.139653
0.135438
0.131424
0.127597
0.123945
0.120457
0.117121
0.113929
0.110871
0.107938
0.105122
0.102416
0.0998132
0.0973062
0.094889
0.0925559
0.0903012
0.0881198
0.0860068
0.0839577
0.0819683
0.0800346
0.0781532
0.0763208
0.0745346
0.0727921
0.0710912
0.0694303
0.0678081
0.0662238
0.064677
0.0631675
0.0616956
0.060262
0.0588675
0.0575132
0.0562001
0.0549297
0.053703
0.0525213
0.0513856
0.0502969
0.0492559
0.0482631
0.0473189
0.0464235
0.0455769
0.0447791
0.04403
0.0433294
0.0426772
0.0420736
0.0415186
0.041013
0.0405576
0.0401542
0.0398048
0.0395128
0.0392826
0.0391201
0.0390334
0.961693
0.892187
0.829088
0.771731
0.719526
0.671946
0.628523
0.588841
0.552526
0.519247
0.488709
0.460646
0.434821
0.411024
0.389065
0.368773
0.349997
0.332599
0.316458
0.301461
0.28751
0.274514
0.262393
0.251074
0.24049
0.230582
0.221294
0.212579
0.20439
0.196688
0.189435
0.182598
0.176145
0.170049
0.164284
0.158825
0.153653
0.148745
0.144086
0.139656
0.135441
0.131427
0.127601
0.123949
0.120461
0.117126
0.113934
0.110876
0.107943
0.105128
0.102422
0.0998195
0.0973129
0.0948962
0.0925636
0.0903094
0.0881286
0.0860163
0.0839679
0.0819792
0.0800464
0.0781658
0.0763343
0.074549
0.0728074
0.0711075
0.0694475
0.0678263
0.0662429
0.064697
0.0631883
0.0617172
0.0602843
0.0588904
0.0575365
0.0562238
0.0549536
0.053727
0.0525453
0.0514094
0.0503204
0.049279
0.0482857
0.0473409
0.0464448
0.0455976
0.044799
0.0440491
0.0433477
0.0426947
0.0420903
0.0415345
0.0410282
0.0405722
0.0401681
0.0398182
0.0395257
0.0392951
0.0391324
0.0390454
0.961693
0.892187
0.829088
0.771731
0.719526
0.671946
0.628524
0.588841
0.552527
0.519248
0.48871
0.460647
0.434822
0.411025
0.389066
0.368774
0.349998
0.332601
0.316459
0.301463
0.287511
0.274516
0.262395
0.251076
0.240492
0.230584
0.221296
0.212581
0.204392
0.19669
0.189438
0.1826
0.176148
0.170052
0.164287
0.158829
0.153656
0.148749
0.144089
0.13966
0.135445
0.131431
0.127605
0.123953
0.120465
0.11713
0.113939
0.110881
0.107949
0.105134
0.102429
0.0998265
0.0973204
0.0949042
0.0925721
0.0903186
0.0881384
0.0860268
0.0839792
0.0819913
0.0800593
0.0781797
0.0763491
0.0745648
0.0728243
0.0711254
0.0694665
0.0678463
0.0662639
0.0647189
0.0632112
0.0617409
0.0603087
0.0589155
0.0575621
0.0562498
0.0549798
0.0537533
0.0525715
0.0514355
0.0503462
0.0493043
0.0483105
0.047365
0.0464683
0.0456202
0.0448208
0.0440701
0.0433678
0.042714
0.0421087
0.0415521
0.041045
0.0405883
0.0401835
0.039833
0.03954
0.039309
0.0391459
0.0390588
0.961693
0.892187
0.829088
0.771731
0.719526
0.671947
0.628524
0.588842
0.552527
0.519249
0.48871
0.460647
0.434823
0.411026
0.389067
0.368776
0.35
0.332602
0.316461
0.301464
0.287513
0.274518
0.262397
0.251078
0.240494
0.230586
0.221299
0.212583
0.204395
0.196693
0.18944
0.182603
0.176151
0.170055
0.16429
0.158832
0.153659
0.148752
0.144093
0.139664
0.135449
0.131436
0.127609
0.123958
0.12047
0.117136
0.113944
0.110887
0.107955
0.105141
0.102436
0.0998342
0.0973286
0.094913
0.0925815
0.0903286
0.0881491
0.0860383
0.0839915
0.0820045
0.0800734
0.0781947
0.0763652
0.074582
0.0728425
0.0711447
0.069487
0.0678679
0.0662866
0.0647426
0.0632358
0.0617665
0.0603351
0.0589425
0.0575897
0.0562778
0.055008
0.0537816
0.0525998
0.0514636
0.0503739
0.0493316
0.0483372
0.0473911
0.0464935
0.0456447
0.0448444
0.0440928
0.0433896
0.0427348
0.0421286
0.0415712
0.0410632
0.0406057
0.0402002
0.0398491
0.0395556
0.0393241
0.0391607
0.0390733
0.961693
0.892187
0.829088
0.771731
0.719526
0.671947
0.628524
0.588842
0.552528
0.519249
0.488711
0.460648
0.434824
0.411028
0.389068
0.368777
0.350001
0.332604
0.316462
0.301466
0.287515
0.27452
0.262399
0.25108
0.240497
0.230588
0.221301
0.212586
0.204398
0.196696
0.189443
0.182606
0.176154
0.170058
0.164293
0.158835
0.153663
0.148756
0.144097
0.139668
0.135454
0.13144
0.127614
0.123963
0.120476
0.117142
0.113951
0.110894
0.107962
0.105148
0.102444
0.0998424
0.0973374
0.0949224
0.0925915
0.0903393
0.0881607
0.0860506
0.0840047
0.0820186
0.0800885
0.0782109
0.0763824
0.0746003
0.072862
0.0711654
0.0695088
0.0678909
0.0663108
0.0647679
0.0632621
0.0617937
0.0603631
0.0589712
0.057619
0.0563075
0.055038
0.0538118
0.0526299
0.0514935
0.0504035
0.0493607
0.0483656
0.0474188
0.0465205
0.0456707
0.0448696
0.044117
0.0434128
0.0427571
0.0421499
0.0415916
0.0410827
0.0406244
0.0402182
0.0398663
0.0395722
0.0393403
0.0391765
0.039089
0.961693
0.892187
0.829088
0.771731
0.719526
0.671947
0.628525
0.588842
0.552528
0.51925
0.488712
0.460649
0.434825
0.411029
0.38907
0.368778
0.350003
0.332606
0.316464
0.301468
0.287517
0.274522
0.262401
0.251082
0.240499
0.230591
0.221304
0.212588
0.2044
0.196699
0.189446
0.182609
0.176157
0.170062
0.164297
0.158839
0.153667
0.14876
0.144101
0.139672
0.135459
0.131445
0.12762
0.123969
0.120482
0.117148
0.113957
0.1109
0.107969
0.105156
0.102452
0.0998512
0.0973468
0.0949324
0.0926022
0.0903508
0.0881729
0.0860637
0.0840187
0.0820336
0.0801046
0.078228
0.0764007
0.0746197
0.0728827
0.0711873
0.0695319
0.0679152
0.0663363
0.0647945
0.0632898
0.0618224
0.0603927
0.0590015
0.0576499
0.0563388
0.0550696
0.0538435
0.0526616
0.0515249
0.0504346
0.0493912
0.0483956
0.047448
0.0465489
0.0456982
0.0448961
0.0441425
0.0434374
0.0427807
0.0421725
0.0416132
0.0411034
0.0406442
0.0402371
0.0398846
0.0395899
0.0393574
0.0391933
0.0391055
0.961693
0.892187
0.829088
0.771731
0.719526
0.671947
0.628525
0.588843
0.552528
0.51925
0.488712
0.46065
0.434826
0.41103
0.389071
0.36878
0.350004
0.332607
0.316466
0.30147
0.287519
0.274524
0.262403
0.251085
0.240501
0.230593
0.221306
0.212591
0.204403
0.196702
0.189449
0.182613
0.176161
0.170065
0.164301
0.158843
0.153671
0.148765
0.144106
0.139677
0.135464
0.131451
0.127625
0.123975
0.120488
0.117154
0.113964
0.110908
0.107977
0.105164
0.102461
0.0998605
0.0973567
0.094943
0.0926135
0.0903628
0.0881858
0.0860775
0.0840334
0.0820493
0.0801214
0.078246
0.0764198
0.0746401
0.0729043
0.0712102
0.0695561
0.0679407
0.0663629
0.0648224
0.0633188
0.0618523
0.0604235
0.0590331
0.0576821
0.0563715
0.0551026
0.0538766
0.0526946
0.0515577
0.050467
0.0494232
0.0484269
0.0474786
0.0465786
0.045727
0.0449239
0.0441693
0.0434631
0.0428053
0.0421961
0.0416358
0.041125
0.0406649
0.040257
0.0399038
0.0396084
0.0393754
0.0392109
0.0391229
0.961693
0.892187
0.829088
0.771731
0.719526
0.671947
0.628525
0.588843
0.552529
0.519251
0.488713
0.460651
0.434827
0.411031
0.389072
0.368781
0.350005
0.332609
0.316467
0.301471
0.287521
0.274526
0.262406
0.251087
0.240504
0.230596
0.221309
0.212594
0.204406
0.196705
0.189452
0.182616
0.176164
0.170069
0.164304
0.158847
0.153675
0.148769
0.14411
0.139682
0.135469
0.131456
0.127631
0.123981
0.120494
0.117161
0.113971
0.110915
0.107985
0.105172
0.10247
0.0998702
0.097367
0.094954
0.0926253
0.0903755
0.0881993
0.0860919
0.0840488
0.0820658
0.0801389
0.0782647
0.0764397
0.0746613
0.0729267
0.0712339
0.0695812
0.067967
0.0663906
0.0648512
0.0633487
0.0618833
0.0604555
0.0590658
0.0577154
0.0564053
0.0551367
0.0539108
0.0527288
0.0515917
0.0505006
0.0494562
0.0484593
0.0475102
0.0466093
0.0457568
0.0449527
0.044197
0.0434898
0.0428309
0.0422206
0.0416593
0.0411476
0.0406865
0.0402778
0.0399237
0.0396277
0.0393941
0.0392292
0.039141
0.961693
0.892187
0.829088
0.771731
0.719526
0.671947
0.628525
0.588843
0.552529
0.519251
0.488714
0.460651
0.434828
0.411031
0.389073
0.368782
0.350007
0.33261
0.316469
0.301473
0.287523
0.274528
0.262408
0.251089
0.240506
0.230598
0.221311
0.212597
0.204409
0.196708
0.189456
0.182619
0.176168
0.170073
0.164308
0.158851
0.15368
0.148774
0.144115
0.139687
0.135474
0.131462
0.127637
0.123987
0.120501
0.117168
0.113979
0.110923
0.107994
0.105181
0.102479
0.0998804
0.0973778
0.0949655
0.0926376
0.0903885
0.0882132
0.0861068
0.0840647
0.0820828
0.0801571
0.078284
0.0764603
0.0746831
0.0729499
0.0712585
0.069607
0.0679942
0.066419
0.0648809
0.0633796
0.0619152
0.0604883
0.0590995
0.0577497
0.0564401
0.0551718
0.053946
0.0527639
0.0516266
0.0505351
0.0494902
0.0484926
0.0475428
0.046641
0.0457875
0.0449824
0.0442256
0.0435173
0.0428573
0.042246
0.0416836
0.0411708
0.0407088
0.0402992
0.0399443
0.0396476
0.0394135
0.0392482
0.0391598
0.961693
0.892187
0.829088
0.771731
0.719526
0.671947
0.628525
0.588843
0.552529
0.519252
0.488714
0.460652
0.434828
0.411032
0.389074
0.368783
0.350008
0.332611
0.31647
0.301475
0.287524
0.27453
0.26241
0.251091
0.240508
0.230601
0.221314
0.2126
0.204412
0.196711
0.189459
0.182623
0.176171
0.170077
0.164312
0.158856
0.153684
0.148779
0.14412
0.139692
0.13548
0.131468
0.127643
0.123994
0.120508
0.117175
0.113986
0.110931
0.108002
0.105191
0.102489
0.0998908
0.0973889
0.0949773
0.0926502
0.090402
0.0882276
0.0861221
0.0840811
0.0821002
0.0801757
0.0783038
0.0764814
0.0747056
0.0729737
0.0712836
0.0696335
0.068022
0.0664482
0.0649113
0.0634111
0.0619479
0.0605219
0.0591339
0.0577848
0.0564756
0.0552076
0.053982
0.0527999
0.0516624
0.0505705
0.049525
0.0485267
0.0475761
0.0466734
0.0458189
0.0450128
0.0442549
0.0435455
0.0428844
0.0422719
0.0417085
0.0411947
0.0407317
0.0403211
0.0399655
0.0396681
0.0394334
0.0392677
0.039179
0.961693
0.892187
0.829088
0.771731
0.719526
0.671947
0.628525
0.588843
0.55253
0.519252
0.488714
0.460652
0.434829
0.411033
0.389075
0.368784
0.350009
0.332613
0.316472
0.301476
0.287526
0.274532
0.262412
0.251094
0.240511
0.230603
0.221317
0.212602
0.204415
0.196714
0.189462
0.182626
0.176175
0.17008
0.164317
0.15886
0.153689
0.148783
0.144125
0.139698
0.135485
0.131474
0.127649
0.124
0.120515
0.117183
0.113994
0.11094
0.108011
0.1052
0.102499
0.0999015
0.0974003
0.0949895
0.0926631
0.0904158
0.0882423
0.0861379
0.0840979
0.0821181
0.0801947
0.0783241
0.076503
0.0747284
0.0729979
0.0713092
0.0696605
0.0680504
0.0664778
0.0649422
0.0634433
0.0619811
0.060556
0.0591689
0.0578204
0.0565118
0.0552441
0.0540186
0.0528364
0.0516987
0.0506064
0.0495604
0.0485615
0.04761
0.0467064
0.045851
0.0450437
0.0442848
0.0435742
0.042912
0.0422984
0.0417339
0.041219
0.040755
0.0403436
0.0399871
0.039689
0.0394537
0.0392876
0.0391986
0.961693
0.892187
0.829087
0.771731
0.719526
0.671947
0.628525
0.588843
0.55253
0.519252
0.488715
0.460653
0.43483
0.411034
0.389076
0.368785
0.35001
0.332614
0.316473
0.301478
0.287528
0.274533
0.262414
0.251096
0.240513
0.230606
0.22132
0.212605
0.204418
0.196717
0.189466
0.18263
0.176179
0.170084
0.164321
0.158864
0.153693
0.148788
0.14413
0.139703
0.135491
0.13148
0.127656
0.124007
0.120522
0.117191
0.114002
0.110948
0.10802
0.10521
0.102509
0.0999124
0.0974119
0.0950019
0.0926763
0.0904299
0.0882573
0.0861539
0.0841149
0.0821363
0.0802141
0.0783447
0.0765249
0.0747517
0.0730225
0.0713352
0.0696878
0.0680791
0.0665079
0.0649735
0.0634758
0.0620147
0.0605906
0.0592043
0.0578565
0.0565484
0.055281
0.0540556
0.0528734
0.0517355
0.0506428
0.0495963
0.0485966
0.0476444
0.0467399
0.0458834
0.0450751
0.0443151
0.0436034
0.04294
0.0423253
0.0417596
0.0412437
0.0407788
0.0403664
0.0400091
0.0397102
0.0394744
0.0393078
0.0392186
0.961693
0.892186
0.829087
0.771731
0.719526
0.671947
0.628525
0.588844
0.55253
0.519252
0.488715
0.460653
0.43483
0.411035
0.389076
0.368786
0.350011
0.332615
0.316475
0.301479
0.287529
0.274535
0.262416
0.251098
0.240515
0.230608
0.221322
0.212608
0.204421
0.19672
0.189469
0.182634
0.176183
0.170088
0.164325
0.158869
0.153698
0.148793
0.144136
0.139709
0.135497
0.131486
0.127662
0.124014
0.120529
0.117198
0.114011
0.110957
0.108029
0.10522
0.10252
0.0999235
0.0974237
0.0950144
0.0926897
0.0904441
0.0882725
0.0861701
0.0841322
0.0821547
0.0802337
0.0783656
0.076547
0.0747751
0.0730473
0.0713614
0.0697154
0.0681081
0.0665382
0.0650051
0.0635085
0.0620485
0.0606254
0.0592399
0.0578928
0.0565852
0.0553182
0.054093
0.0529107
0.0517726
0.0506795
0.0496325
0.0486321
0.047679
0.0467736
0.0459162
0.0451068
0.0443457
0.0436328
0.0429684
0.0423525
0.0417857
0.0412687
0.0408027
0.0403894
0.0400313
0.0397317
0.0394952
0.0393282
0.0392388
0.961693
0.892186
0.829087
0.771731
0.719526
0.671947
0.628525
0.588844
0.55253
0.519253
0.488715
0.460654
0.434831
0.411035
0.389077
0.368787
0.350012
0.332616
0.316476
0.301481
0.287531
0.274537
0.262418
0.2511
0.240518
0.230611
0.221325
0.212611
0.204424
0.196724
0.189473
0.182637
0.176186
0.170092
0.164329
0.158873
0.153703
0.148798
0.144141
0.139714
0.135503
0.131492
0.127669
0.124021
0.120537
0.117206
0.114019
0.110966
0.108039
0.105229
0.10253
0.0999347
0.0974357
0.0950271
0.0927032
0.0904585
0.0882879
0.0861864
0.0841496
0.0821733
0.0802534
0.0783865
0.0765693
0.0747987
0.0730723
0.0713877
0.0697432
0.0681372
0.0665686
0.0650368
0.0635414
0.0620825
0.0606604
0.0592757
0.0579293
0.0566222
0.0553555
0.0541304
0.0529481
0.0518098
0.0507163
0.0496688
0.0486677
0.0477139
0.0468076
0.0459491
0.0451387
0.0443765
0.0436625
0.0429968
0.0423799
0.041812
0.0412939
0.0408269
0.0404127
0.0400537
0.0397533
0.0395163
0.0393488
0.0392591
0.961693
0.892186
0.829087
0.771731
0.719526
0.671947
0.628525
0.588844
0.55253
0.519253
0.488716
0.460654
0.434831
0.411036
0.389078
0.368788
0.350013
0.332617
0.316477
0.301482
0.287533
0.274539
0.26242
0.251102
0.24052
0.230613
0.221327
0.212614
0.204427
0.196727
0.189476
0.182641
0.17619
0.170096
0.164333
0.158878
0.153708
0.148803
0.144146
0.13972
0.135509
0.131498
0.127676
0.124028
0.120544
0.117214
0.114027
0.110975
0.108048
0.105239
0.102541
0.099946
0.0974477
0.0950399
0.0927168
0.090473
0.0883033
0.0862029
0.0841671
0.0821919
0.0802733
0.0784076
0.0765916
0.0748224
0.0730973
0.0714141
0.0697709
0.0681663
0.066599
0.0650685
0.0635743
0.0621165
0.0606954
0.0593115
0.0579658
0.0566591
0.0553928
0.0541679
0.0529856
0.051847
0.0507532
0.0497051
0.0487034
0.0477487
0.0468415
0.0459821
0.0451706
0.0444073
0.0436921
0.0430254
0.0424073
0.0418383
0.0413191
0.0408511
0.0404359
0.0400761
0.039775
0.0395374
0.0393694
0.0392795
0.961693
0.892186
0.829087
0.771731
0.719526
0.671947
0.628525
0.588844
0.55253
0.519253
0.488716
0.460654
0.434832
0.411036
0.389079
0.368789
0.350014
0.332619
0.316479
0.301484
0.287534
0.27454
0.262421
0.251104
0.240522
0.230615
0.22133
0.212616
0.20443
0.19673
0.189479
0.182644
0.176194
0.1701
0.164338
0.158882
0.153712
0.148808
0.144152
0.139726
0.135515
0.131505
0.127682
0.124035
0.120552
0.117222
0.114036
0.110984
0.108058
0.105249
0.102552
0.0999573
0.0974597
0.0950527
0.0927305
0.0904875
0.0883188
0.0862193
0.0841846
0.0822105
0.080293
0.0784286
0.0766139
0.074846
0.0731223
0.0714404
0.0697986
0.0681953
0.0666294
0.0651001
0.0636071
0.0621504
0.0607302
0.0593471
0.0580021
0.056696
0.0554299
0.0542052
0.0530228
0.0518841
0.0507899
0.0497413
0.0487389
0.0477835
0.0468754
0.046015
0.0452025
0.044438
0.0437218
0.0430539
0.0424347
0.0418645
0.0413444
0.0408753
0.0404592
0.0400985
0.0397967
0.0395584
0.0393901
0.0392999
0.961693
0.892186
0.829087
0.771731
0.719526
0.671947
0.628525
0.588844
0.55253
0.519253
0.488716
0.460655
0.434832
0.411037
0.389079
0.368789
0.350015
0.33262
0.31648
0.301485
0.287536
0.274542
0.262423
0.251106
0.240524
0.230618
0.221332
0.212619
0.204433
0.196733
0.189482
0.182648
0.176198
0.170104
0.164342
0.158887
0.153717
0.148813
0.144157
0.139731
0.135521
0.131511
0.127689
0.124042
0.120559
0.11723
0.114044
0.110993
0.108067
0.105259
0.102562
0.0999686
0.0974717
0.0950655
0.0927441
0.090502
0.0883341
0.0862357
0.0842021
0.0822291
0.0803128
0.0784495
0.0766361
0.0748695
0.0731471
0.0714666
0.0698261
0.0682241
0.0666595
0.0651315
0.0636396
0.062184
0.0607647
0.0593825
0.0580381
0.0567325
0.0554668
0.0542422
0.0530599
0.0519209
0.0508264
0.0497772
0.0487742
0.047818
0.046909
0.0460477
0.0452341
0.0444686
0.0437513
0.0430823
0.0424619
0.0418907
0.0413695
0.0408994
0.0404824
0.0401208
0.0398183
0.0395794
0.0394106
0.0393202
0.961693
0.892186
0.829087
0.771731
0.719526
0.671947
0.628525
0.588844
0.55253
0.519253
0.488716
0.460655
0.434833
0.411037
0.38908
0.36879
0.350016
0.332621
0.316481
0.301486
0.287537
0.274544
0.262425
0.251108
0.240526
0.23062
0.221335
0.212622
0.204435
0.196736
0.189486
0.182651
0.176201
0.170108
0.164346
0.158891
0.153722
0.148818
0.144162
0.139737
0.135527
0.131517
0.127695
0.124049
0.120567
0.117238
0.114052
0.111001
0.108076
0.105269
0.102573
0.0999798
0.0974836
0.0950782
0.0927576
0.0905164
0.0883494
0.0862519
0.0842194
0.0822475
0.0803323
0.0784703
0.0766581
0.0748928
0.0731717
0.0714925
0.0698534
0.0682527
0.0666893
0.0651625
0.0636718
0.0622172
0.0607989
0.0594175
0.0580738
0.0567687
0.0555033
0.0542789
0.0530965
0.0519573
0.0508625
0.0498128
0.0488092
0.0478522
0.0469424
0.0460801
0.0452655
0.0444989
0.0437805
0.0431104
0.0424889
0.0419166
0.0413944
0.0409233
0.0405054
0.040143
0.0398397
0.0396002
0.039431
0.0393403
0.961693
0.892186
0.829087
0.771731
0.719526
0.671947
0.628525
0.588844
0.552531
0.519254
0.488717
0.460655
0.434833
0.411038
0.38908
0.368791
0.350017
0.332621
0.316482
0.301487
0.287538
0.274545
0.262427
0.25111
0.240528
0.230622
0.221337
0.212624
0.204438
0.196739
0.189489
0.182654
0.176205
0.170112
0.16435
0.158895
0.153726
0.148823
0.144167
0.139742
0.135532
0.131523
0.127702
0.124056
0.120574
0.117245
0.114061
0.11101
0.108086
0.105279
0.102583
0.099991
0.0974955
0.0950907
0.0927709
0.0905306
0.0883646
0.086268
0.0842365
0.0822656
0.0803516
0.0784908
0.0766798
0.0749158
0.0731959
0.0715181
0.0698802
0.0682808
0.0667187
0.0651931
0.0637036
0.06225
0.0608326
0.059452
0.0581089
0.0568043
0.0555393
0.054315
0.0531326
0.0519933
0.0508981
0.049848
0.0488437
0.047886
0.0469753
0.0461121
0.0452965
0.0445289
0.0438094
0.0431382
0.0425156
0.0419423
0.041419
0.040947
0.0405281
0.0401649
0.0398608
0.0396208
0.0394511
0.0393602
0.961693
0.892186
0.829087
0.771731
0.719526
0.671947
0.628525
0.588844
0.552531
0.519254
0.488717
0.460656
0.434833
0.411038
0.389081
0.368791
0.350018
0.332622
0.316483
0.301488
0.28754
0.274547
0.262428
0.251111
0.24053
0.230624
0.221339
0.212626
0.204441
0.196742
0.189492
0.182658
0.176208
0.170116
0.164354
0.1589
0.153731
0.148828
0.144172
0.139748
0.135538
0.131529
0.127708
0.124063
0.120581
0.117253
0.114069
0.111019
0.108095
0.105289
0.102594
0.100002
0.0975071
0.0951031
0.0927841
0.0905446
0.0883795
0.0862839
0.0842534
0.0822836
0.0803707
0.078511
0.0767012
0.0749384
0.0732198
0.0715432
0.0699067
0.0683085
0.0667477
0.0652232
0.0637348
0.0622822
0.0608658
0.0594859
0.0581435
0.0568394
0.0555747
0.0543505
0.0531682
0.0520287
0.0509332
0.0498826
0.0488777
0.0479192
0.0470077
0.0461436
0.0453271
0.0445584
0.0438378
0.0431656
0.0425419
0.0419675
0.0414432
0.0409703
0.0405505
0.0401864
0.0398817
0.0396411
0.0394709
0.0393797
0.961693
0.892186
0.829087
0.771731
0.719526
0.671947
0.628525
0.588844
0.552531
0.519254
0.488717
0.460656
0.434834
0.411039
0.389081
0.368792
0.350018
0.332623
0.316484
0.30149
0.287541
0.274548
0.26243
0.251113
0.240532
0.230626
0.221342
0.212629
0.204443
0.196744
0.189495
0.182661
0.176212
0.170119
0.164358
0.158904
0.153735
0.148833
0.144177
0.139753
0.135544
0.131535
0.127715
0.124069
0.120588
0.117261
0.114077
0.111027
0.108104
0.105299
0.102604
0.100013
0.0975186
0.0951154
0.0927971
0.0905584
0.0883942
0.0862995
0.0842699
0.0823012
0.0803894
0.0785308
0.0767222
0.0749606
0.0732433
0.0715679
0.0699326
0.0683357
0.066776
0.0652527
0.0637654
0.0623138
0.0608982
0.0595192
0.0581774
0.0568737
0.0556093
0.0543854
0.053203
0.0520634
0.0509675
0.0499165
0.048911
0.0479519
0.0470395
0.0461745
0.045357
0.0445874
0.0438658
0.0431924
0.0425678
0.0419924
0.0414671
0.0409931
0.0405725
0.0402076
0.0399022
0.039661
0.0394904
0.039399
0.961693
0.892186
0.829087
0.771731
0.719526
0.671947
0.628525
0.588844
0.552531
0.519254
0.488717
0.460656
0.434834
0.411039
0.389082
0.368793
0.350019
0.332624
0.316485
0.301491
0.287542
0.274549
0.262431
0.251115
0.240534
0.230628
0.221344
0.212631
0.204446
0.196747
0.189498
0.182664
0.176215
0.170123
0.164362
0.158908
0.15374
0.148837
0.144182
0.139758
0.135549
0.131541
0.127721
0.124076
0.120595
0.117268
0.114085
0.111036
0.108113
0.105308
0.102614
0.100023
0.0975299
0.0951273
0.0928098
0.090572
0.0884086
0.0863148
0.0842862
0.0823184
0.0804076
0.0785502
0.0767427
0.0749823
0.0732662
0.071592
0.0699579
0.0683622
0.0668037
0.0652815
0.0637952
0.0623446
0.0609299
0.0595516
0.0582104
0.0569073
0.0556432
0.0544194
0.053237
0.0520972
0.0510011
0.0499496
0.0489436
0.0479837
0.0470707
0.0462047
0.0453863
0.0446157
0.0438931
0.0432188
0.0425931
0.0420167
0.0414904
0.0410155
0.040594
0.0402284
0.0399223
0.0396805
0.0395095
0.0394178
0.961693
0.892186
0.829087
0.771731
0.719526
0.671947
0.628525
0.588844
0.552531
0.519254
0.488717
0.460656
0.434834
0.411039
0.389082
0.368793
0.35002
0.332625
0.316486
0.301492
0.287543
0.27455
0.262433
0.251116
0.240535
0.23063
0.221346
0.212633
0.204448
0.19675
0.189501
0.182667
0.176218
0.170126
0.164365
0.158912
0.153744
0.148842
0.144187
0.139763
0.135555
0.131547
0.127727
0.124082
0.120602
0.117275
0.114092
0.111044
0.108121
0.105317
0.102624
0.100034
0.0975409
0.095139
0.0928222
0.0905852
0.0884226
0.0863297
0.084302
0.0823352
0.0804255
0.0785691
0.0767627
0.0750034
0.0732885
0.0716155
0.0699826
0.068388
0.0668307
0.0653096
0.0638243
0.0623746
0.0609608
0.0595832
0.0582426
0.0569399
0.0556762
0.0544526
0.0532702
0.0521302
0.0510338
0.0499819
0.0489753
0.0480148
0.047101
0.0462342
0.0454149
0.0446434
0.0439198
0.0432444
0.0426178
0.0420404
0.0415131
0.0410374
0.040615
0.0402486
0.0399418
0.0396995
0.0395281
0.0394362
0.961693
0.892186
0.829087
0.771731
0.719526
0.671947
0.628525
0.588844
0.552531
0.519254
0.488717
0.460656
0.434834
0.41104
0.389083
0.368794
0.35002
0.332625
0.316486
0.301493
0.287544
0.274552
0.262434
0.251118
0.240537
0.230632
0.221348
0.212636
0.204451
0.196752
0.189503
0.18267
0.176222
0.17013
0.164369
0.158916
0.153748
0.148846
0.144192
0.139768
0.13556
0.131552
0.127733
0.124089
0.120609
0.117282
0.1141
0.111052
0.10813
0.105326
0.102633
0.100044
0.0975516
0.0951504
0.0928343
0.090598
0.0884362
0.0863442
0.0843174
0.0823516
0.0804428
0.0785875
0.0767822
0.075024
0.0733101
0.0716383
0.0700065
0.0684131
0.0668568
0.0653368
0.0638525
0.0624038
0.0609907
0.0596139
0.0582739
0.0569716
0.0557082
0.0544847
0.0533024
0.0521623
0.0510656
0.0500133
0.0490062
0.048045
0.0471304
0.0462629
0.0454427
0.0446702
0.0439457
0.0432694
0.0426418
0.0420634
0.0415353
0.0410587
0.0406355
0.0402683
0.0399609
0.039718
0.0395462
0.039454
0.961693
0.892186
0.829087
0.771731
0.719526
0.671947
0.628525
0.588844
0.552531
0.519254
0.488718
0.460657
0.434835
0.41104
0.389083
0.368794
0.350021
0.332626
0.316487
0.301493
0.287545
0.274553
0.262435
0.251119
0.240539
0.230633
0.22135
0.212638
0.204453
0.196755
0.189506
0.182673
0.176225
0.170133
0.164372
0.158919
0.153752
0.14885
0.144196
0.139773
0.135565
0.131558
0.127739
0.124095
0.120615
0.117289
0.114107
0.111059
0.108138
0.105335
0.102642
0.100054
0.097562
0.0951614
0.092846
0.0906104
0.0884494
0.0863582
0.0843323
0.0823674
0.0804596
0.0786052
0.076801
0.0750438
0.0733311
0.0716604
0.0700297
0.0684373
0.0668821
0.0653631
0.0638798
0.0624319
0.0610197
0.0596435
0.0583041
0.0570023
0.0557392
0.0545158
0.0533335
0.0521933
0.0510963
0.0500436
0.049036
0.0480743
0.047159
0.0462906
0.0454696
0.0446963
0.0439708
0.0432936
0.042665
0.0420858
0.0415567
0.0410793
0.0406553
0.0402874
0.0399793
0.0397359
0.0395637
0.0394714
0.961693
0.892186
0.829087
0.771731
0.719526
0.671947
0.628525
0.588844
0.552531
0.519254
0.488718
0.460657
0.434835
0.41104
0.389083
0.368795
0.350021
0.332627
0.316488
0.301494
0.287546
0.274554
0.262436