/*--------------------------------*- C++ -*----------------------------------*\
  =========                 |
  \\      /  F ield         | OpenFOAM: The Open Source CFD Toolbox
   \\    /   O peration     | Website:  https://openfoam.org
    \\  /    A nd           | Version:  11
     \\/     M anipulation  |
\*---------------------------------------------------------------------------*/
FoamFile
{
    format      ascii;
    class       volScalarField;
    location    "460";
    object      omega;
}
// * * * * * * * * * * * * * * * * * * * * * * * * * * * * * * * * * * * * * //

dimensions      [0 0 -1 0 0 0 0];

internalField   nonuniform List<scalar> 
10000
(
0.961693
0.892186
0.829086
0.771729
0.719523
0.671944
0.628522
0.58884
0.552526
0.51925
0.488713
0.460653
0.434831
0.411038
0.389082
0.368795
0.350024
0.332631
0.316495
0.301505
0.28756
0.274571
0.262458
0.251147
0.240571
0.230671
0.221393
0.212688
0.20451
0.196819
0.189578
0.182753
0.176313
0.170231
0.164481
0.159038
0.153882
0.148992
0.144351
0.139942
0.135749
0.131758
0.127955
0.12433
0.12087
0.117566
0.114407
0.111385
0.108491
0.105717
0.103057
0.100503
0.0980498
0.0956905
0.0934199
0.0912327
0.089124
0.0870892
0.0851237
0.0832236
0.0813847
0.0796035
0.0778763
0.0761999
0.074571
0.0729867
0.0714441
0.0699408
0.0684743
0.0670424
0.0656431
0.0642747
0.0629357
0.0616248
0.0603411
0.0590839
0.0578529
0.0566479
0.0554691
0.0543171
0.0531925
0.0520964
0.0510299
0.0499944
0.0489916
0.0480233
0.0470913
0.0461976
0.0453442
0.0445335
0.0437678
0.0430501
0.0423835
0.0417719
0.0412199
0.0407333
0.0403195
0.0399877
0.0397499
0.0396216
0.961693
0.892186
0.829086
0.771729
0.719523
0.671944
0.628522
0.58884
0.552527
0.51925
0.488713
0.460653
0.434832
0.411038
0.389083
0.368795
0.350024
0.332632
0.316495
0.301505
0.28756
0.274572
0.262458
0.251147
0.240571
0.230672
0.221394
0.212688
0.20451
0.196819
0.189578
0.182753
0.176314
0.170232
0.164481
0.159038
0.153882
0.148993
0.144352
0.139942
0.135749
0.131758
0.127956
0.124331
0.120871
0.117566
0.114408
0.111385
0.108491
0.105718
0.103058
0.100504
0.0980505
0.0956913
0.0934208
0.0912336
0.089125
0.0870902
0.0851248
0.0832248
0.081386
0.0796048
0.0778778
0.0762014
0.0745726
0.0729884
0.071446
0.0699428
0.0684764
0.0670446
0.0656455
0.0642772
0.0629383
0.0616275
0.060344
0.0590869
0.057856
0.0566512
0.0554725
0.0543206
0.0531961
0.0521
0.0510336
0.0499982
0.0489955
0.0480272
0.0470951
0.0462013
0.0453478
0.0445369
0.0437711
0.0430532
0.0423865
0.0417747
0.0412226
0.040736
0.040322
0.0399901
0.0397523
0.0396239
0.961693
0.892186
0.829086
0.771729
0.719524
0.671944
0.628522
0.58884
0.552527
0.51925
0.488714
0.460653
0.434832
0.411038
0.389083
0.368796
0.350024
0.332632
0.316496
0.301505
0.28756
0.274572
0.262459
0.251147
0.240572
0.230672
0.221394
0.212689
0.204511
0.19682
0.189579
0.182754
0.176314
0.170232
0.164482
0.159039
0.153883
0.148993
0.144352
0.139943
0.13575
0.131759
0.127957
0.124331
0.120872
0.117567
0.114409
0.111386
0.108492
0.105719
0.103059
0.100505
0.0980519
0.0956928
0.0934223
0.0912352
0.0891267
0.087092
0.0851267
0.0832267
0.0813881
0.0796071
0.0778801
0.0762039
0.0745753
0.0729913
0.0714491
0.0699461
0.0684799
0.0670483
0.0656494
0.0642813
0.0629427
0.0616322
0.0603489
0.0590921
0.0578614
0.0566567
0.0554783
0.0543265
0.0532022
0.0521063
0.05104
0.0500047
0.049002
0.0480337
0.0471016
0.0462077
0.0453541
0.0445431
0.0437771
0.043059
0.0423921
0.0417801
0.0412278
0.0407409
0.0403268
0.0399948
0.0397569
0.0396285
0.961693
0.892186
0.829086
0.771729
0.719524
0.671944
0.628522
0.58884
0.552527
0.51925
0.488714
0.460654
0.434832
0.411039
0.389083
0.368796
0.350025
0.332632
0.316496
0.301506
0.287561
0.274573
0.262459
0.251148
0.240572
0.230673
0.221395
0.212689
0.204511
0.19682
0.189579
0.182755
0.176315
0.170233
0.164483
0.15904
0.153884
0.148994
0.144353
0.139944
0.135751
0.13176
0.127958
0.124333
0.120873
0.117569
0.11441
0.111388
0.108494
0.105721
0.103061
0.100507
0.0980539
0.0956948
0.0934244
0.0912375
0.0891291
0.0870945
0.0851294
0.0832296
0.0813911
0.0796103
0.0778835
0.0762075
0.0745791
0.0729953
0.0714534
0.0699507
0.0684848
0.0670535
0.0656549
0.0642872
0.0629489
0.0616387
0.0603557
0.0590993
0.0578689
0.0566645
0.0554864
0.0543349
0.0532108
0.0521151
0.0510489
0.0500138
0.0490112
0.0480429
0.0471108
0.0462168
0.045363
0.0445518
0.0437856
0.0430673
0.0424001
0.0417879
0.0412353
0.0407482
0.0403338
0.0400017
0.0397636
0.0396351
0.961693
0.892186
0.829086
0.771729
0.719524
0.671944
0.628522
0.588841
0.552528
0.519251
0.488715
0.460654
0.434833
0.411039
0.389084
0.368797
0.350025
0.332633
0.316497
0.301506
0.287562
0.274573
0.26246
0.251149
0.240573
0.230674
0.221396
0.21269
0.204512
0.196821
0.18958
0.182756
0.176316
0.170234
0.164484
0.159041
0.153885
0.148996
0.144355
0.139946
0.135753
0.131762
0.12796
0.124335
0.120875
0.117571
0.114412
0.11139
0.108496
0.105723
0.103063
0.10051
0.0980564
0.0956975
0.0934272
0.0912405
0.0891322
0.0870978
0.0851329
0.0832332
0.081395
0.0796144
0.0778879
0.0762122
0.074584
0.0730006
0.071459
0.0699566
0.0684911
0.0670602
0.065662
0.0642947
0.0629568
0.0616471
0.0603645
0.0591085
0.0578785
0.0566746
0.0554968
0.0543456
0.0532218
0.0521263
0.0510604
0.0500254
0.0490229
0.0480547
0.0471225
0.0462284
0.0453745
0.044563
0.0437966
0.0430779
0.0424104
0.0417978
0.0412449
0.0407575
0.0403429
0.0400105
0.0397722
0.0396436
0.961693
0.892186
0.829086
0.771729
0.719524
0.671945
0.628523
0.588841
0.552528
0.519251
0.488715
0.460655
0.434833
0.41104
0.389085
0.368797
0.350026
0.332634
0.316498
0.301507
0.287563
0.274574
0.262461
0.25115
0.240574
0.230675
0.221397
0.212691
0.204513
0.196823
0.189582
0.182757
0.176318
0.170236
0.164485
0.159043
0.153887
0.148997
0.144357
0.139947
0.135754
0.131764
0.127962
0.124337
0.120877
0.117573
0.114414
0.111392
0.108499
0.105726
0.103066
0.100513
0.0980595
0.0957007
0.0934306
0.091244
0.089136
0.0871018
0.0851371
0.0832377
0.0813997
0.0796194
0.0778932
0.0762178
0.07459
0.0730069
0.0714657
0.0699638
0.0684987
0.0670683
0.0656706
0.0643038
0.0629664
0.0616572
0.0603751
0.0591196
0.0578901
0.0566866
0.0555093
0.0543585
0.0532351
0.0521399
0.0510742
0.0500394
0.049037
0.0480688
0.0471365
0.0462423
0.0453882
0.0445765
0.0438097
0.0430907
0.0424228
0.0418099
0.0412566
0.0407688
0.0403539
0.0400212
0.0397827
0.0396539
0.961693
0.892186
0.829086
0.771729
0.719524
0.671945
0.628523
0.588841
0.552528
0.519252
0.488716
0.460655
0.434834
0.411041
0.389085
0.368798
0.350027
0.332635
0.316499
0.301508
0.287564
0.274575
0.262462
0.251151
0.240575
0.230676
0.221398
0.212693
0.204515
0.196824
0.189583
0.182759
0.176319
0.170237
0.164487
0.159045
0.153889
0.148999
0.144359
0.139949
0.135757
0.131766
0.127964
0.124339
0.12088
0.117576
0.114417
0.111395
0.108502
0.105729
0.103069
0.100516
0.0980631
0.0957045
0.0934346
0.0912482
0.0891404
0.0871064
0.085142
0.0832429
0.0814052
0.0796252
0.0778994
0.0762243
0.074597
0.0730143
0.0714735
0.0699721
0.0685075
0.0670776
0.0656805
0.0643143
0.0629775
0.0616688
0.0603874
0.0591324
0.0579036
0.0567006
0.0555237
0.0543734
0.0532504
0.0521555
0.0510901
0.0500555
0.0490532
0.048085
0.0471527
0.0462583
0.045404
0.044592
0.0438249
0.0431056
0.0424373
0.0418239
0.0412702
0.040782
0.0403667
0.0400336
0.0397949
0.0396659
0.961693
0.892186
0.829086
0.771729
0.719524
0.671945
0.628523
0.588842
0.552529
0.519252
0.488716
0.460656
0.434835
0.411041
0.389086
0.368799
0.350028
0.332636
0.3165
0.301509
0.287565
0.274576
0.262463
0.251152
0.240577
0.230677
0.2214
0.212694
0.204516
0.196826
0.189585
0.18276
0.176321
0.170239
0.164489
0.159047
0.153891
0.149002
0.144361
0.139952
0.135759
0.131768
0.127967
0.124342
0.120883
0.117579
0.11442
0.111399
0.108505
0.105732
0.103073
0.10052
0.0980672
0.0957088
0.0934392
0.091253
0.0891454
0.0871117
0.0851476
0.0832488
0.0814114
0.0796318
0.0779063
0.0762317
0.0746048
0.0730226
0.0714824
0.0699815
0.0685175
0.0670882
0.0656917
0.0643261
0.0629899
0.061682
0.0604012
0.0591469
0.0579186
0.0567162
0.0555399
0.0543901
0.0532675
0.0521731
0.0511079
0.0500735
0.0490714
0.0481032
0.0471709
0.0462763
0.0454218
0.0446095
0.043842
0.0431222
0.0424535
0.0418396
0.0412854
0.0407968
0.0403811
0.0400476
0.0398086
0.0396795
0.961693
0.892186
0.829086
0.771729
0.719524
0.671945
0.628523
0.588842
0.552529
0.519253
0.488717
0.460656
0.434835
0.411042
0.389087
0.3688
0.350029
0.332637
0.316501
0.30151
0.287566
0.274578
0.262465
0.251153
0.240578
0.230679
0.221401
0.212696
0.204518
0.196827
0.189587
0.182762
0.176323
0.170241
0.164491
0.159049
0.153893
0.149004
0.144363
0.139954
0.135762
0.131771
0.12797
0.124345
0.120886
0.117582
0.114424
0.111402
0.108509
0.105736
0.103077
0.100524
0.0980717
0.0957136
0.0934442
0.0912583
0.0891509
0.0871176
0.0851537
0.0832553
0.0814183
0.0796391
0.0779141
0.0762399
0.0746135
0.0730319
0.0714922
0.0699918
0.0685285
0.0670999
0.065704
0.0643391
0.0630037
0.0616964
0.0604164
0.0591627
0.0579352
0.0567334
0.0555577
0.0544085
0.0532864
0.0521923
0.0511275
0.0500933
0.0490913
0.0481232
0.0471908
0.0462961
0.0454413
0.0446287
0.0438608
0.0431406
0.0424713
0.041857
0.0413023
0.0408131
0.0403969
0.0400631
0.0398238
0.0396944
0.961693
0.892186
0.829086
0.771729
0.719524
0.671945
0.628524
0.588842
0.552529
0.519253
0.488717
0.460657
0.434836
0.411043
0.389088
0.368801
0.35003
0.332638
0.316502
0.301512
0.287567
0.274579
0.262466
0.251155
0.24058
0.23068
0.221403
0.212697
0.20452
0.196829
0.189589
0.182764
0.176325
0.170243
0.164493
0.159051
0.153895
0.149006
0.144366
0.139957
0.135765
0.131774
0.127973
0.124348
0.120889
0.117585
0.114427
0.111406
0.108513
0.105741
0.103081
0.100529
0.0980767
0.0957188
0.0934496
0.091264
0.089157
0.0871239
0.0851605
0.0832624
0.0814258
0.079647
0.0779225
0.0762488
0.074623
0.0730419
0.0715028
0.0700031
0.0685404
0.0671125
0.0657173
0.0643532
0.0630185
0.0617121
0.0604328
0.0591799
0.0579531
0.056752
0.055577
0.0544283
0.0533067
0.0522131
0.0511486
0.0501147
0.0491128
0.0481447
0.0472123
0.0463174
0.0454624
0.0446494
0.0438811
0.0431604
0.0424907
0.0418758
0.0413205
0.0408308
0.0404142
0.0400799
0.0398402
0.0397107
0.961693
0.892186
0.829086
0.771729
0.719525
0.671945
0.628524
0.588843
0.55253
0.519253
0.488718
0.460657
0.434837
0.411043
0.389088
0.368802
0.350031
0.332639
0.316503
0.301513
0.287568
0.27458
0.262467
0.251156
0.240581
0.230682
0.221404
0.212699
0.204522
0.196831
0.189591
0.182766
0.176327
0.170246
0.164496
0.159054
0.153898
0.149009
0.144369
0.13996
0.135768
0.131777
0.127976
0.124352
0.120893
0.117589
0.114431
0.11141
0.108517
0.105745
0.103086
0.100534
0.098082
0.0957244
0.0934555
0.0912702
0.0891635
0.0871308
0.0851677
0.08327
0.0814339
0.0796556
0.0779315
0.0762584
0.0746331
0.0730526
0.0715142
0.0700152
0.0685532
0.067126
0.0657316
0.0643683
0.0630344
0.0617288
0.0604503
0.0591982
0.0579721
0.0567719
0.0555975
0.0544494
0.0533284
0.0522352
0.0511711
0.0501375
0.0491358
0.0481677
0.0472352
0.0463402
0.0454848
0.0446715
0.0439028
0.0431816
0.0425113
0.0418958
0.04134
0.0408498
0.0404326
0.0400979
0.0398579
0.0397281
0.961693
0.892186
0.829086
0.771729
0.719525
0.671946
0.628524
0.588843
0.55253
0.519254
0.488718
0.460658
0.434837
0.411044
0.389089
0.368802
0.350032
0.33264
0.316504
0.301514
0.28757
0.274582
0.262469
0.251158
0.240583
0.230684
0.221406
0.212701
0.204524
0.196833
0.189593
0.182768
0.17633
0.170248
0.164498
0.159056
0.153901
0.149012
0.144372
0.139963
0.135771
0.131781
0.12798
0.124355
0.120897
0.117593
0.114436
0.111415
0.108522
0.10575
0.103091
0.100539
0.0980877
0.0957303
0.0934617
0.0912767
0.0891704
0.0871381
0.0851754
0.0832782
0.0814425
0.0796646
0.0779411
0.0762686
0.0746439
0.073064
0.0715262
0.0700279
0.0685667
0.0671403
0.0657467
0.0643842
0.0630512
0.0617464
0.0604688
0.0592176
0.0579923
0.0567928
0.0556191
0.0544717
0.0533512
0.0522586
0.0511949
0.0501615
0.0491599
0.0481919
0.0472593
0.0463642
0.0455085
0.0446949
0.0439257
0.043204
0.0425331
0.0419171
0.0413606
0.0408698
0.0404521
0.0401169
0.0398765
0.0397465
0.961693
0.892186
0.829086
0.771729
0.719525
0.671946
0.628524
0.588843
0.55253
0.519254
0.488718
0.460658
0.434838
0.411045
0.38909
0.368803
0.350032
0.332641
0.316505
0.301515
0.287571
0.274583
0.26247
0.251159
0.240584
0.230685
0.221408
0.212703
0.204526
0.196835
0.189595
0.182771
0.176332
0.170251
0.164501
0.159059
0.153904
0.149015
0.144375
0.139967
0.135774
0.131784
0.127983
0.124359
0.120901
0.117598
0.11444
0.111419
0.108527
0.105755
0.103097
0.100545
0.0980936
0.0957365
0.0934683
0.0912837
0.0891777
0.0871457
0.0851835
0.0832867
0.0814515
0.0796742
0.0779512
0.0762792
0.0746551
0.073076
0.0715389
0.0700413
0.0685809
0.0671553
0.0657626
0.0644009
0.0630688
0.0617649
0.0604881
0.0592378
0.0580133
0.0568146
0.0556417
0.054495
0.0533751
0.052283
0.0512197
0.0501866
0.0491852
0.0482172
0.0472846
0.0463892
0.0455333
0.0447193
0.0439496
0.0432274
0.042556
0.0419393
0.0413823
0.0408908
0.0404725
0.0401369
0.0398961
0.0397659
0.961693
0.892186
0.829086
0.771729
0.719525
0.671946
0.628524
0.588843
0.55253
0.519254
0.488719
0.460659
0.434838
0.411045
0.389091
0.368804
0.350033
0.332642
0.316506
0.301516
0.287572
0.274584
0.262472
0.251161
0.240586
0.230687
0.22141
0.212705
0.204528
0.196837
0.189597
0.182773
0.176335
0.170253
0.164504
0.159062
0.153907
0.149018
0.144378
0.13997
0.135778
0.131788
0.127987
0.124363
0.120905
0.117602
0.114445
0.111424
0.108532
0.105761
0.103102
0.100551
0.0980998
0.0957431
0.0934751
0.0912909
0.0891853
0.0871537
0.0851919
0.0832956
0.0814609
0.0796841
0.0779617
0.0762903
0.0746669
0.0730884
0.0715521
0.0700553
0.0685956
0.0671709
0.065779
0.0644183
0.063087
0.061784
0.0605082
0.0592587
0.0580352
0.0568373
0.0556651
0.0545191
0.0533999
0.0523082
0.0512453
0.0502125
0.0492113
0.0482435
0.0473107
0.0464152
0.045559
0.0447446
0.0439745
0.0432517
0.0425797
0.0419624
0.0414047
0.0409126
0.0404938
0.0401576
0.0399165
0.039786
0.961693
0.892186
0.829086
0.771729
0.719525
0.671946
0.628524
0.588843
0.552531
0.519255
0.488719
0.460659
0.434839
0.411046
0.389091
0.368805
0.350034
0.332643
0.316507
0.301517
0.287573
0.274586
0.262473
0.251162
0.240588
0.230689
0.221412
0.212707
0.20453
0.19684
0.1896
0.182776
0.176337
0.170256
0.164506
0.159065
0.15391
0.149022
0.144382
0.139974
0.135782
0.131792
0.127991
0.124368
0.12091
0.117607
0.11445
0.111429
0.108537
0.105766
0.103108
0.100557
0.0981062
0.0957498
0.0934822
0.0912983
0.0891931
0.087162
0.0852006
0.0833048
0.0814706
0.0796944
0.0779726
0.0763018
0.0746791
0.0731013
0.0715657
0.0700697
0.0686109
0.067187
0.065796
0.0644361
0.0631058
0.0618038
0.0605288
0.0592803
0.0580576
0.0568606
0.0556892
0.0545439
0.0534253
0.0523342
0.0512718
0.0502393
0.0492383
0.0482705
0.0473377
0.046442
0.0455855
0.0447707
0.0440001
0.0432768
0.0426041
0.0419862
0.0414279
0.0409352
0.0405157
0.040179
0.0399375
0.0398068
0.961693
0.892186
0.829086
0.771729
0.719525
0.671946
0.628524
0.588843
0.552531
0.519255
0.488719
0.46066
0.434839
0.411047
0.389092
0.368806
0.350035
0.332644
0.316508
0.301519
0.287575
0.274587
0.262475
0.251164
0.240589
0.230691
0.221414
0.212709
0.204532
0.196842
0.189602
0.182778
0.17634
0.170259
0.164509
0.159068
0.153913
0.149025
0.144385
0.139977
0.135785
0.131796
0.127996
0.124372
0.120914
0.117612
0.114455
0.111435
0.108543
0.105772
0.103114
0.100563
0.0981129
0.0957568
0.0934895
0.091306
0.0892012
0.0871705
0.0852096
0.0833143
0.0814806
0.0797049
0.0779837
0.0763136
0.0746916
0.0731145
0.0715797
0.0700845
0.0686265
0.0672035
0.0658134
0.0644545
0.0631251
0.061824
0.06055
0.0593024
0.0580806
0.0568844
0.0557139
0.0545693
0.0534514
0.0523608
0.0512988
0.0502666
0.0492658
0.0482981
0.0473652
0.0464694
0.0456126
0.0447974
0.0440263
0.0433024
0.0426292
0.0420106
0.0414516
0.0409583
0.0405382
0.040201
0.039959
0.0398281
0.961693
0.892186
0.829086
0.771729
0.719525
0.671946
0.628524
0.588843
0.552531
0.519255
0.48872
0.46066
0.43484
0.411047
0.389093
0.368806
0.350036
0.332644
0.316509
0.30152
0.287576
0.274588
0.262476
0.251166
0.240591
0.230692
0.221415
0.212711
0.204534
0.196844
0.189604
0.182781
0.176342
0.170261
0.164512
0.159071
0.153916
0.149028
0.144389
0.139981
0.135789
0.1318
0.128
0.124376
0.120919
0.117616
0.11446
0.11144
0.108549
0.105778
0.10312
0.10057
0.0981196
0.0957639
0.093497
0.0913139
0.0892095
0.0871793
0.0852188
0.083324
0.0814908
0.0797157
0.0779951
0.0763257
0.0747043
0.073128
0.0715939
0.0700995
0.0686424
0.0672203
0.0658311
0.0644731
0.0631447
0.0618446
0.0605716
0.0593249
0.058104
0.0569087
0.055739
0.0545952
0.0534778
0.0523878
0.0513263
0.0502944
0.0492938
0.0483262
0.0473933
0.0464972
0.0456402
0.0448246
0.0440531
0.0433286
0.0426547
0.0420355
0.0414758
0.0409819
0.0405612
0.0402235
0.0399811
0.0398499
0.961693
0.892186
0.829086
0.771729
0.719525
0.671946
0.628524
0.588843
0.552531
0.519255
0.48872
0.46066
0.43484
0.411048
0.389093
0.368807
0.350037
0.332645
0.31651
0.301521
0.287577
0.27459
0.262477
0.251167
0.240593
0.230694
0.221417
0.212713
0.204536
0.196846
0.189607
0.182783
0.176345
0.170264
0.164515
0.159074
0.153919
0.149032
0.144392
0.139985
0.135793
0.131804
0.128004
0.124381
0.120923
0.117621
0.114465
0.111445
0.108554
0.105784
0.103127
0.100576
0.0981265
0.0957711
0.0935046
0.0913219
0.0892179
0.0871881
0.0852281
0.0833338
0.0815012
0.0797267
0.0780067
0.076338
0.0747173
0.0731417
0.0716084
0.0701149
0.0686586
0.0672373
0.0658491
0.0644921
0.0631646
0.0618654
0.0605934
0.0593477
0.0581277
0.0569333
0.0557644
0.0546213
0.0535047
0.0524152
0.0513541
0.0503226
0.0493222
0.0483546
0.0474217
0.0465255
0.0456682
0.0448522
0.0440802
0.0433552
0.0426807
0.0420608
0.0415004
0.0410058
0.0405845
0.0402462
0.0400034
0.0398719
0.961693
0.892186
0.829086
0.771729
0.719525
0.671946
0.628524
0.588844
0.552531
0.519255
0.48872
0.460661
0.43484
0.411048
0.389094
0.368808
0.350037
0.332646
0.316511
0.301522
0.287578
0.274591
0.262479
0.251169
0.240594
0.230696
0.221419
0.212715
0.204538
0.196849
0.189609
0.182786
0.176348
0.170267
0.164518
0.159077
0.153923
0.149035
0.144396
0.139988
0.135797
0.131808
0.128008
0.124385
0.120928
0.117626
0.11447
0.111451
0.10856
0.10579
0.103133
0.100583
0.0981335
0.0957784
0.0935123
0.0913299
0.0892264
0.0871971
0.0852376
0.0833438
0.0815118
0.0797378
0.0780185
0.0763504
0.0747304
0.0731556
0.0716231
0.0701303
0.0686749
0.0672546
0.0658673
0.0645112
0.0631847
0.0618865
0.0606154
0.0593706
0.0581516
0.0569581
0.05579
0.0546477
0.0535317
0.0524428
0.0513822
0.050351
0.0493508
0.0483833
0.0474504
0.046554
0.0456964
0.04488
0.0441075
0.043382
0.0427068
0.0420863
0.0415253
0.04103
0.040608
0.0402692
0.040026
0.0398943
0.961692
0.892185
0.829086
0.771729
0.719525
0.671946
0.628524
0.588844
0.552531
0.519255
0.48872
0.460661
0.434841
0.411048
0.389094
0.368808
0.350038
0.332647
0.316512
0.301523
0.287579
0.274592
0.26248
0.25117
0.240596
0.230698
0.221421
0.212717
0.20454
0.196851
0.189611
0.182788
0.17635
0.17027
0.164521
0.15908
0.153926
0.149038
0.144399
0.139992
0.135801
0.131812
0.128013
0.12439
0.120933
0.117631
0.114475
0.111456
0.108566
0.105796
0.103139
0.10059
0.0981405
0.0957858
0.0935201
0.0913381
0.089235
0.0872061
0.0852471
0.0833539
0.0815224
0.0797491
0.0780303
0.0763629
0.0747436
0.0731695
0.0716378
0.0701459
0.0686913
0.0672719
0.0658855
0.0645304
0.0632049
0.0619076
0.0606375
0.0593937
0.0581756
0.056983
0.0558157
0.0546741
0.0535588
0.0524705
0.0514103
0.0503795
0.0493795
0.0484121
0.0474792
0.0465826
0.0457247
0.044908
0.044135
0.0434089
0.0427332
0.042112
0.0415503
0.0410543
0.0406317
0.0402924
0.0400487
0.0399167
0.961692
0.892185
0.829086
0.771729
0.719525
0.671946
0.628524
0.588844
0.552531
0.519256
0.48872
0.460661
0.434841
0.411049
0.389095
0.368809
0.350039
0.332648
0.316513
0.301524
0.28758
0.274593
0.262481
0.251171
0.240597
0.230699
0.221423
0.212719
0.204542
0.196853
0.189614
0.182791
0.176353
0.170273
0.164524
0.159083
0.153929
0.149042
0.144403
0.139996
0.135805
0.131817
0.128017
0.124395
0.120938
0.117636
0.114481
0.111462
0.108572
0.105802
0.103146
0.100596
0.0981475
0.0957932
0.0935279
0.0913463
0.0892436
0.0872152
0.0852567
0.083364
0.081533
0.0797603
0.0780422
0.0763754
0.0747568
0.0731835
0.0716526
0.0701615
0.0687078
0.0672892
0.0659038
0.0645496
0.063225
0.0619288
0.0606596
0.0594168
0.0581996
0.0570078
0.0558414
0.0547006
0.0535859
0.0524982
0.0514385
0.050408
0.0494083
0.048441
0.047508
0.0466113
0.0457531
0.044936
0.0441625
0.0434359
0.0427595
0.0421377
0.0415753
0.0410787
0.0406555
0.0403156
0.0400715
0.0399392
0.961692
0.892185
0.829086
0.771729
0.719524
0.671946
0.628524
0.588844
0.552531
0.519256
0.488721
0.460661
0.434841
0.411049
0.389095
0.368809
0.350039
0.332649
0.316514
0.301525
0.287581
0.274594
0.262483
0.251173
0.240599
0.230701
0.221425
0.212721
0.204544
0.196855
0.189616
0.182793
0.176355
0.170275
0.164527
0.159086
0.153932
0.149045
0.144406
0.14
0.135809
0.131821
0.128021
0.124399
0.120943
0.117641
0.114486
0.111467
0.108577
0.105808
0.103152
0.100603
0.0981546
0.0958006
0.0935356
0.0913545
0.0892523
0.0872243
0.0852663
0.083374
0.0815437
0.0797715
0.078054
0.0763879
0.0747701
0.0731975
0.0716673
0.0701771
0.0687242
0.0673065
0.065922
0.0645688
0.0632452
0.0619499
0.0606817
0.0594398
0.0582235
0.0570326
0.055867
0.0547269
0.0536129
0.0525258
0.0514665
0.0504364
0.0494369
0.0484697
0.0475367
0.0466398
0.0457814
0.0449639
0.04419
0.0434628
0.0427859
0.0421634
0.0416003
0.041103
0.0406792
0.0403388
0.0400942
0.0399617
0.961692
0.892185
0.829086
0.771729
0.719524
0.671946
0.628524
0.588844
0.552531
0.519256
0.488721
0.460662
0.434842
0.41105
0.389096
0.36881
0.35004
0.332649
0.316515
0.301526
0.287583
0.274596
0.262484
0.251174
0.2406
0.230702
0.221426
0.212722
0.204546
0.196857
0.189618
0.182795
0.176358
0.170278
0.16453
0.159089
0.153936
0.149049
0.14441
0.140003
0.135813
0.131825
0.128026
0.124404
0.120947
0.117646
0.114491
0.111473
0.108583
0.105814
0.103159
0.10061
0.0981616
0.095808
0.0935434
0.0913627
0.0892609
0.0872334
0.0852758
0.0833841
0.0815543
0.0797827
0.0780659
0.0764004
0.0747832
0.0732113
0.071682
0.0701925
0.0687405
0.0673237
0.0659401
0.0645878
0.0632651
0.0619708
0.0607036
0.0594626
0.0582472
0.0570572
0.0558924
0.0547531
0.0536397
0.0525532
0.0514944
0.0504646
0.0494653
0.0484982
0.0475652
0.0466682
0.0458095
0.0449917
0.0442173
0.0434896
0.042812
0.0421889
0.0416252
0.0411272
0.0407028
0.0403618
0.0401168
0.0399841
0.961692
0.892185
0.829086
0.771729
0.719524
0.671946
0.628524
0.588844
0.552531
0.519256
0.488721
0.460662
0.434842
0.41105
0.389096
0.36881
0.350041
0.33265
0.316515
0.301526
0.287583
0.274597
0.262485
0.251176
0.240602
0.230704
0.221428
0.212724
0.204548
0.196859
0.18962
0.182798
0.176361
0.170281
0.164532
0.159092
0.153939
0.149052
0.144413
0.140007
0.135817
0.131829
0.12803
0.124408
0.120952
0.117651
0.114496
0.111478
0.108589
0.10582
0.103165
0.100616
0.0981686
0.0958153
0.0935511
0.0913708
0.0892694
0.0872424
0.0852853
0.0833941
0.0815648
0.0797938
0.0780776
0.0764128
0.0747963
0.0732251
0.0716965
0.0702079
0.0687567
0.0673408
0.065958
0.0646066
0.0632849
0.0619915
0.0607252
0.0594852
0.0582707
0.0570815
0.0559175
0.054779
0.0536663
0.0525803
0.0515219
0.0504925
0.0494935
0.0485265
0.0475934
0.0466963
0.0458374
0.0450192
0.0442444
0.0435161
0.042838
0.0422142
0.0416499
0.0411513
0.0407262
0.0403847
0.0401393
0.0400062
0.961692
0.892185
0.829086
0.771729
0.719524
0.671946
0.628524
0.588844
0.552532
0.519256
0.488721
0.460662
0.434842
0.41105
0.389096
0.368811
0.350041
0.332651
0.316516
0.301527
0.287584
0.274598
0.262486
0.251177
0.240603
0.230706
0.22143
0.212726
0.20455
0.196861
0.189623
0.1828
0.176363
0.170283
0.164535
0.159095
0.153942
0.149055
0.144417
0.140011
0.135821
0.131833
0.128034
0.124413
0.120957
0.117656
0.114502
0.111484
0.108594
0.105826
0.103171
0.100623
0.0981755
0.0958225
0.0935587
0.0913788
0.0892778
0.0872512
0.0852946
0.0834039
0.0815752
0.0798048
0.0780891
0.076425
0.0748092
0.0732387
0.0717109
0.070223
0.0687727
0.0673576
0.0659757
0.0646252
0.0633044
0.062012
0.0607466
0.0595074
0.0582939
0.0571055
0.0559423
0.0548045
0.0536924
0.052607
0.0515491
0.05052
0.0495212
0.0485543
0.0476213
0.046724
0.0458649
0.0450463
0.0442711
0.0435423
0.0428636
0.0422392
0.0416743
0.041175
0.0407493
0.0404073
0.0401614
0.0400281
0.961692
0.892185
0.829086
0.771729
0.719524
0.671946
0.628524
0.588844
0.552532
0.519256
0.488721
0.460662
0.434843
0.411051
0.389097
0.368811
0.350042
0.332651
0.316517
0.301528
0.287585
0.274599
0.262487
0.251178
0.240605
0.230707
0.221431
0.212728
0.204552
0.196863
0.189625
0.182802
0.176365
0.170286
0.164538
0.159098
0.153945
0.149058
0.14442
0.140014
0.135824
0.131837
0.128038
0.124417
0.120961
0.117661
0.114507
0.111489
0.1086
0.105832
0.103177
0.100629
0.0981822
0.0958297
0.0935662
0.0913867
0.0892861
0.08726
0.0853039
0.0834137
0.0815855
0.0798156
0.0781005
0.076437
0.0748219
0.0732521
0.071725
0.0702379
0.0687884
0.0673741
0.0659932
0.0646435
0.0633236
0.0620321
0.0607676
0.0595293
0.0583166
0.0571291
0.0559667
0.0548296
0.0537182
0.0526332
0.0515758
0.0505471
0.0495485
0.0485817
0.0476487
0.0467513
0.045892
0.0450731
0.0442974
0.0435681
0.0428889
0.0422639
0.0416983
0.0411984
0.0407721
0.0404295
0.0401833
0.0400497
0.961692
0.892185
0.829086
0.771729
0.719524
0.671946
0.628524
0.588844
0.552532
0.519256
0.488721
0.460662
0.434843
0.411051
0.389097
0.368812
0.350042
0.332652
0.316518
0.301529
0.287586
0.2746
0.262488
0.251179
0.240606
0.230708
0.221433
0.212729
0.204554
0.196865
0.189627
0.182804
0.176368
0.170288
0.164541
0.159101
0.153948
0.149061
0.144424
0.140018
0.135828
0.131841
0.128042
0.124421
0.120966
0.117666
0.114512
0.111494
0.108605
0.105838
0.103183
0.100636
0.0981889
0.0958367
0.0935736
0.0913944
0.0892943
0.0872686
0.0853129
0.0834232
0.0815955
0.0798262
0.0781117
0.0764488
0.0748343
0.0732653
0.0717389
0.0702525
0.0688038
0.0673904
0.0660102
0.0646615
0.0633425
0.0620517
0.0607882
0.0595508
0.0583389
0.0571522
0.0559906
0.0548541
0.0537434
0.052659
0.051602
0.0505736
0.0495753
0.0486086
0.0476756
0.0467781
0.0459185
0.0450993
0.0443232
0.0435935
0.0429137
0.0422881
0.0417218
0.0412213
0.0407945
0.0404514
0.0402047
0.0400709
0.961692
0.892185
0.829086
0.771729
0.719524
0.671946
0.628524
0.588844
0.552532
0.519256
0.488721
0.460663
0.434843
0.411051
0.389097
0.368812
0.350043
0.332652
0.316518
0.30153
0.287587
0.274601
0.262489
0.25118
0.240607
0.23071
0.221434
0.212731
0.204556
0.196867
0.189629
0.182807
0.17637
0.170291
0.164543
0.159104
0.153951
0.149064
0.144427
0.140021
0.135832
0.131844
0.128046
0.124425
0.12097
0.11767
0.114516
0.111499
0.108611
0.105843
0.103189
0.100642
0.0981954
0.0958436
0.0935808
0.091402
0.0893023
0.087277
0.0853218
0.0834325
0.0816054
0.0798366
0.0781227
0.0764604
0.0748465
0.0732781
0.0717524
0.0702668
0.0688188
0.0674062
0.0660269
0.064679
0.0633608
0.062071
0.0608083
0.0595717
0.0583607
0.0571748
0.0560139
0.0548781
0.053768
0.0526841
0.0516276
0.0505995
0.0496014
0.0486349
0.0477018
0.0468043
0.0459445
0.0451249
0.0443485
0.0436183
0.0429379
0.0423117
0.0417449
0.0412438
0.0408164
0.0404728
0.0402257
0.0400916
0.961692
0.892185
0.829086
0.771729
0.719524
0.671946
0.628524
0.588844
0.552532
0.519256
0.488722
0.460663
0.434843
0.411051
0.389098
0.368812
0.350043
0.332653
0.316519
0.30153
0.287588
0.274602
0.26249
0.251181
0.240608
0.230711
0.221436
0.212733
0.204557
0.196869
0.189631
0.182809
0.176372
0.170293
0.164546
0.159106
0.153953
0.149067
0.14443
0.140024
0.135835
0.131848
0.12805
0.124429
0.120974
0.117675
0.114521
0.111504
0.108616
0.105849
0.103195
0.100648
0.0982018
0.0958503
0.0935879
0.0914094
0.0893101
0.0872852
0.0853304
0.0834417
0.081615
0.0798467
0.0781334
0.0764716
0.0748584
0.0732906
0.0717656
0.0702807
0.0688335
0.0674217
0.0660431
0.0646961
0.0633787
0.0620897
0.0608278
0.0595921
0.0583819
0.0571968
0.0560366
0.0549015
0.0537919
0.0527086
0.0516525
0.0506248
0.0496269
0.0486605
0.0477274
0.0468298
0.0459698
0.04515
0.0443731
0.0436424
0.0429616
0.0423348
0.0417674
0.0412657
0.0408378
0.0404936
0.0402461
0.0401118
0.961692
0.892185
0.829086
0.771729
0.719524
0.671946
0.628524
0.588844
0.552532
0.519256
0.488722
0.460663
0.434843
0.411052
0.389098
0.368813
0.350043
0.332653
0.316519
0.301531
0.287589
0.274602
0.262491
0.251182
0.240609
0.230712
0.221437
0.212734
0.204559
0.196871
0.189632
0.182811
0.176374
0.170295
0.164548
0.159109
0.153956
0.14907
0.144433
0.140027
0.135838
0.131852
0.128054
0.124433
0.120979
0.117679
0.114526
0.111509
0.108621
0.105854
0.103201
0.100654
0.098208
0.0958568
0.0935947
0.0914167
0.0893177
0.0872932
0.0853388
0.0834505
0.0816243
0.0798565
0.0781437
0.0764826
0.0748699
0.0733028
0.0717785
0.0702943
0.0688478
0.0674367
0.0660589
0.0647126
0.0633961
0.0621079
0.0608468
0.0596119
0.0584025
0.0572181
0.0560586
0.0549241
0.0538152
0.0527324
0.0516767
0.0506493
0.0496516
0.0486853
0.0477523
0.0468545
0.0459943
0.0451742
0.044397
0.0436659
0.0429846
0.0423573
0.0417893
0.0412871
0.0408585
0.0405139
0.040266
0.0401315
0.961692
0.892185
0.829086
0.771729
0.719524
0.671946
0.628524
0.588844
0.552532
0.519257
0.488722
0.460663
0.434844
0.411052
0.389098
0.368813
0.350044
0.332654
0.31652
0.301532
0.287589
0.274603
0.262492
0.251183
0.240611
0.230714
0.221438
0.212735
0.20456
0.196872
0.189634
0.182813
0.176376
0.170297
0.16455
0.159111
0.153959
0.149073
0.144436
0.140031
0.135842
0.131855
0.128058
0.124437
0.120983
0.117683
0.11453
0.111514
0.108626
0.105859
0.103206
0.10066
0.098214
0.0958631
0.0936013
0.0914236
0.089325
0.0873009
0.085347
0.0834591
0.0816333
0.0798661
0.0781538
0.0764932
0.0748811
0.0733146
0.0717909
0.0703074
0.0688615
0.0674512
0.0660742
0.0647286
0.0634129
0.0621255
0.0608652
0.059631
0.0584224
0.0572387
0.0560799
0.0549461
0.0538377
0.0527553
0.0517
0.050673
0.0496755
0.0487094
0.0477763
0.0468785
0.0460181
0.0451978
0.0444202
0.0436887
0.0430068
0.042379
0.0418105
0.0413077
0.0408787
0.0405336
0.0402853
0.0401505
0.961692
0.892185
0.829086
0.771729
0.719524
0.671945
0.628524
0.588844
0.552532
0.519257
0.488722
0.460663
0.434844
0.411052
0.389099
0.368813
0.350044
0.332654
0.31652
0.301532
0.28759
0.274604
0.262493
0.251184
0.240612
0.230715
0.22144