/*--------------------------------*- C++ -*----------------------------------*\
  =========                 |
  \\      /  F ield         | OpenFOAM: The Open Source CFD Toolbox
   \\    /   O peration     | Website:  https://openfoam.org
    \\  /    A nd           | Version:  11
     \\/     M anipulation  |
\*---------------------------------------------------------------------------*/
FoamFile
{
    format      ascii;
    class       surfaceScalarField;
    location    "460";
    object      phi;
}
// * * * * * * * * * * * * * * * * * * * * * * * * * * * * * * * * * * * * * //

dimensions      [0 3 -1 0 0 0 0];

internalField   nonuniform List<scalar> 
19800
(
1.99996e-05
-3.65879e-09
1.99989e-05
-1.08626e-08
1.99981e-05
-1.81182e-08
1.9997e-05
-2.55564e-08
1.99958e-05
-3.32688e-08
1.99944e-05
-4.13185e-08
1.99929e-05
-4.97564e-08
1.99911e-05
-5.86267e-08
1.99891e-05
-6.79689e-08
1.99869e-05
-7.78202e-08
1.99844e-05
-8.82161e-08
1.99817e-05
-9.91911e-08
1.99787e-05
-1.1078e-07
1.99755e-05
-1.23016e-07
1.99719e-05
-1.35934e-07
1.9968e-05
-1.49568e-07
1.99638e-05
-1.63953e-07
1.99592e-05
-1.79124e-07
1.99542e-05
-1.95118e-07
1.99489e-05
-2.11969e-07
1.99431e-05
-2.29714e-07
1.99368e-05
-2.48392e-07
1.99301e-05
-2.68039e-07
1.99229e-05
-2.88693e-07
1.99152e-05
-3.10393e-07
1.99069e-05
-3.33179e-07
1.9898e-05
-3.57088e-07
1.98885e-05
-3.82161e-07
1.98784e-05
-4.08438e-07
1.98676e-05
-4.35957e-07
1.9856e-05
-4.64759e-07
1.98438e-05
-4.94883e-07
1.98307e-05
-5.26369e-07
1.98168e-05
-5.59255e-07
1.98021e-05
-5.93579e-07
1.97865e-05
-6.29379e-07
1.977e-05
-6.6669e-07
1.97524e-05
-7.05547e-07
1.97339e-05
-7.45983e-07
1.97143e-05
-7.8803e-07
1.96936e-05
-8.31715e-07
1.96717e-05
-8.77066e-07
1.96487e-05
-9.24106e-07
1.96244e-05
-9.72853e-07
1.95988e-05
-1.02332e-06
1.95719e-05
-1.07553e-06
1.95436e-05
-1.12948e-06
1.95139e-05
-1.18516e-06
1.94828e-05
-1.24258e-06
1.94501e-05
-1.30172e-06
1.94158e-05
-1.36256e-06
1.93799e-05
-1.42507e-06
1.93424e-05
-1.4892e-06
1.93032e-05
-1.55491e-06
1.92622e-05
-1.62213e-06
1.92195e-05
-1.69078e-06
1.9175e-05
-1.76078e-06
1.91286e-05
-1.83201e-06
1.90804e-05
-1.90436e-06
1.90303e-05
-1.97769e-06
1.89784e-05
-2.05183e-06
1.89246e-05
-2.1266e-06
1.88688e-05
-2.20181e-06
1.88113e-05
-2.27724e-06
1.87518e-05
-2.35264e-06
1.86906e-05
-2.42775e-06
1.86276e-05
-2.50229e-06
1.8563e-05
-2.57595e-06
1.84967e-05
-2.6484e-06
1.84289e-05
-2.71931e-06
1.83596e-05
-2.78832e-06
1.82891e-05
-2.85507e-06
1.82174e-05
-2.91919e-06
1.81448e-05
-2.98031e-06
1.80714e-05
-3.03808e-06
1.79973e-05
-3.09214e-06
1.79229e-05
-3.14218e-06
1.78484e-05
-3.18789e-06
1.7774e-05
-3.22902e-06
1.77001e-05
-3.2654e-06
1.76269e-05
-3.29683e-06
1.75541e-05
-3.32307e-06
1.74815e-05
-3.34388e-06
1.74091e-05
-3.35918e-06
1.73375e-05
-3.36923e-06
1.72674e-05
-3.37442e-06
1.71999e-05
-3.37513e-06
1.71357e-05
-3.37142e-06
1.70751e-05
-3.36336e-06
1.70181e-05
-3.3511e-06
1.69644e-05
-3.335e-06
1.69137e-05
-3.31586e-06
1.68665e-05
-3.29429e-06
1.68231e-05
-3.27084e-06
1.67838e-05
-3.24613e-06
1.67491e-05
-3.22098e-06
1.67195e-05
-3.19633e-06
1.66955e-05
-3.1734e-06
1.66781e-05
-3.15419e-06
-3.14286e-06
1.99997e-05
-3.35616e-09
1.99991e-05
-1.02294e-08
1.99982e-05
-1.72717e-08
1.99972e-05
-2.45265e-08
1.9996e-05
-3.20598e-08
1.99946e-05
-3.99269e-08
1.9993e-05
-4.81747e-08
1.99912e-05
-5.68448e-08
1.99892e-05
-6.59755e-08
1.9987e-05
-7.56024e-08
1.99846e-05
-8.57603e-08
1.99818e-05
-9.64827e-08
1.99789e-05
-1.07803e-07
1.99756e-05
-1.19755e-07
1.9972e-05
-1.32371e-07
1.99682e-05
-1.45685e-07
1.99639e-05
-1.59731e-07
1.99594e-05
-1.74544e-07
1.99544e-05
-1.90157e-07
1.9949e-05
-2.06606e-07
1.99433e-05
-2.23928e-07
1.9937e-05
-2.42157e-07
1.99303e-05
-2.61331e-07
1.99231e-05
-2.81486e-07
1.99154e-05
-3.02661e-07
1.99071e-05
-3.24893e-07
1.98982e-05
-3.4822e-07
1.98887e-05
-3.72681e-07
1.98786e-05
-3.98313e-07
1.98678e-05
-4.25157e-07
1.98563e-05
-4.5325e-07
1.98441e-05
-4.82631e-07
1.9831e-05
-5.13338e-07
1.98172e-05
-5.45408e-07
1.98025e-05
-5.78878e-07
1.97869e-05
-6.13785e-07
1.97704e-05
-6.50164e-07
1.97529e-05
-6.88048e-07
1.97343e-05
-7.27469e-07
1.97148e-05
-7.68457e-07
1.96941e-05
-8.11041e-07
1.96723e-05
-8.55246e-07
1.96493e-05
-9.01094e-07
1.9625e-05
-9.48604e-07
1.95995e-05
-9.97791e-07
1.95726e-05
-1.04867e-06
1.95444e-05
-1.10124e-06
1.95147e-05
-1.1555e-06
1.94836e-05
-1.21145e-06
1.94509e-05
-1.26907e-06
1.94167e-05
-1.32835e-06
1.93809e-05
-1.38925e-06
1.93434e-05
-1.45173e-06
1.93043e-05
-1.51575e-06
1.92634e-05
-1.58124e-06
1.92207e-05
-1.64813e-06
1.91763e-05
-1.71633e-06
1.913e-05
-1.78574e-06
1.90819e-05
-1.85624e-06
1.90319e-05
-1.9277e-06
1.898e-05
-1.99996e-06
1.89263e-05
-2.07285e-06
1.88706e-05
-2.14619e-06
1.88132e-05
-2.21976e-06
1.87538e-05
-2.29332e-06
1.86927e-05
-2.36663e-06
1.86298e-05
-2.43941e-06
1.85653e-05
-2.51138e-06
1.84991e-05
-2.58221e-06
1.84314e-05
-2.6516e-06
1.83622e-05
-2.71919e-06
1.82918e-05
-2.78465e-06
1.82203e-05
-2.84763e-06
1.81477e-05
-2.90776e-06
1.80743e-05
-2.96472e-06
1.80004e-05
-3.01816e-06
1.7926e-05
-3.06779e-06
1.78514e-05
-3.11331e-06
1.77768e-05
-3.15447e-06
1.77025e-05
-3.19105e-06
1.76285e-05
-3.2228e-06
1.75549e-05
-3.24948e-06
1.7482e-05
-3.27103e-06
1.74104e-05
-3.28758e-06
1.73404e-05
-3.29924e-06
1.72723e-05
-3.3063e-06
1.72062e-05
-3.30905e-06
1.71424e-05
-3.30762e-06
1.70812e-05
-3.30217e-06
1.70232e-05
-3.29301e-06
1.69684e-05
-3.28027e-06
1.69171e-05
-3.26456e-06
1.68694e-05
-3.24656e-06
1.68255e-05
-3.22691e-06
1.67856e-05
-3.2063e-06
1.67502e-05
-3.18554e-06
1.67195e-05
-3.16562e-06
1.66938e-05
-3.14774e-06
1.66733e-05
-3.13363e-06
-3.12619e-06
1.99998e-05
-3.12877e-09
1.99992e-05
-9.66731e-09
1.99984e-05
-1.64646e-08
1.99974e-05
-2.35162e-08
1.99962e-05
-3.08604e-08
1.99948e-05
-3.85399e-08
1.99932e-05
-4.65952e-08
1.99914e-05
-5.50644e-08
1.99895e-05
-6.39834e-08
1.99872e-05
-7.33864e-08
1.99848e-05
-8.33069e-08
1.99821e-05
-9.37775e-08
1.99791e-05
-1.04831e-07
1.99759e-05
-1.16499e-07
1.99723e-05
-1.28814e-07
1.99684e-05
-1.41809e-07
1.99642e-05
-1.55518e-07
1.99596e-05
-1.69972e-07
1.99547e-05
-1.85207e-07
1.99493e-05
-2.01256e-07
1.99436e-05
-2.18154e-07
1.99373e-05
-2.35937e-07
1.99306e-05
-2.54639e-07
1.99235e-05
-2.74297e-07
1.99157e-05
-2.94948e-07
1.99075e-05
-3.16628e-07
1.98986e-05
-3.39374e-07
1.98892e-05
-3.63224e-07
1.98791e-05
-3.88215e-07
1.98683e-05
-4.14385e-07
1.98568e-05
-4.41771e-07
1.98446e-05
-4.70411e-07
1.98316e-05
-5.00341e-07
1.98178e-05
-5.31597e-07
1.98031e-05
-5.64217e-07
1.97876e-05
-5.98234e-07
1.97711e-05
-6.33683e-07
1.97537e-05
-6.70597e-07
1.97352e-05
-7.09006e-07
1.97157e-05
-7.48939e-07
1.96951e-05
-7.90425e-07
1.96733e-05
-8.33487e-07
1.96504e-05
-8.78147e-07
1.96262e-05
-9.24424e-07
1.96007e-05
-9.72332e-07
1.95739e-05
-1.02188e-06
1.95458e-05
-1.07308e-06
1.95162e-05
-1.12592e-06
1.94851e-05
-1.1804e-06
1.94526e-05
-1.23652e-06
1.94185e-05
-1.29423e-06
1.93828e-05
-1.35353e-06
1.93454e-05
-1.41437e-06
1.93064e-05
-1.47671e-06
1.92656e-05
-1.54047e-06
1.92231e-05
-1.6056e-06
1.91788e-05
-1.67201e-06
1.91326e-05
-1.73961e-06
1.90847e-05
-1.80827e-06
1.90348e-05
-1.87787e-06
1.89831e-05
-1.94826e-06
1.89296e-05
-2.01928e-06
1.88741e-05
-2.09075e-06
1.88168e-05
-2.16246e-06
1.87577e-05
-2.23419e-06
1.86967e-05
-2.3057e-06
1.86341e-05
-2.37673e-06
1.85697e-05
-2.44701e-06
1.85037e-05
-2.51623e-06
1.84362e-05
-2.5841e-06
1.83673e-05
-2.65028e-06
1.82971e-05
-2.71444e-06
1.82257e-05
-2.77626e-06
1.81534e-05
-2.8354e-06
1.80802e-05
-2.89153e-06
1.80063e-05
-2.94433e-06
1.79321e-05
-2.99351e-06
1.78575e-05
-3.03878e-06
1.7783e-05
-3.07989e-06
1.77085e-05
-3.11662e-06
1.76345e-05
-3.14872e-06
1.7561e-05
-3.17604e-06
1.74885e-05
-3.19854e-06
1.74173e-05
-3.21635e-06
1.73476e-05
-3.22957e-06
1.72797e-05
-3.23843e-06
1.72138e-05
-3.24315e-06
1.71501e-05
-3.24392e-06
1.70889e-05
-3.24096e-06
1.70304e-05
-3.23453e-06
1.6975e-05
-3.22488e-06
1.6923e-05
-3.21249e-06
1.68744e-05
-3.19798e-06
1.68295e-05
-3.18199e-06
1.67884e-05
-3.16525e-06
1.67514e-05
-3.14854e-06
1.67186e-05
-3.13279e-06
1.66899e-05
-3.11908e-06
1.66651e-05
-3.10877e-06
-3.1038e-06
1.99998e-05
-2.94401e-09
1.99993e-05
-9.17203e-09
1.99986e-05
-1.57122e-08
1.99976e-05
-2.25437e-08
1.99964e-05
-2.96859e-08
1.9995e-05
-3.71692e-08
1.99935e-05
-4.50268e-08
1.99917e-05
-5.3292e-08
1.99897e-05
-6.19976e-08
1.99875e-05
-7.11761e-08
1.99851e-05
-8.08592e-08
1.99824e-05
-9.10783e-08
1.99794e-05
-1.01865e-07
1.99762e-05
-1.1325e-07
1.99726e-05
-1.25266e-07
1.99687e-05
-1.37943e-07
1.99645e-05
-1.51315e-07
1.996e-05
-1.65413e-07
1.9955e-05
-1.8027e-07
1.99497e-05
-1.95921e-07
1.99439e-05
-2.12397e-07
1.99377e-05
-2.29735e-07
1.99311e-05
-2.47967e-07
1.99239e-05
-2.6713e-07
1.99162e-05
-2.87259e-07
1.9908e-05
-3.08389e-07
1.98992e-05
-3.30557e-07
1.98897e-05
-3.53799e-07
1.98797e-05
-3.78151e-07
1.98689e-05
-4.0365e-07
1.98575e-05
-4.30332e-07
1.98453e-05
-4.58233e-07
1.98324e-05
-4.87389e-07
1.98186e-05
-5.17836e-07
1.9804e-05
-5.49608e-07
1.97885e-05
-5.82739e-07
1.97721e-05
-6.17263e-07
1.97547e-05
-6.5321e-07
1.97363e-05
-6.90611e-07
1.97169e-05
-7.29494e-07
1.96963e-05
-7.69886e-07
1.96746e-05
-8.11811e-07
1.96518e-05
-8.55288e-07
1.96277e-05
-9.00337e-07
1.96023e-05
-9.46971e-07
1.95757e-05
-9.952e-07
1.95476e-05
-1.04503e-06
1.95181e-05
-1.09646e-06
1.94872e-05
-1.14948e-06
1.94548e-05
-1.20409e-06
1.94208e-05
-1.26026e-06
1.93853e-05
-1.31797e-06
1.93481e-05
-1.37717e-06
1.93092e-05
-1.43783e-06
1.92686e-05
-1.49988e-06
1.92262e-05
-1.56326e-06
1.91821e-05
-1.62789e-06
1.91362e-05
-1.69368e-06
1.90884e-05
-1.76051e-06
1.90388e-05
-1.82826e-06
1.89874e-05
-1.89679e-06
1.8934e-05
-1.96595e-06
1.88788e-05
-2.03555e-06
1.88218e-05
-2.10542e-06
1.87629e-05
-2.17532e-06
1.87023e-05
-2.24505e-06
1.86399e-05
-2.31434e-06
1.85758e-05
-2.38294e-06
1.85101e-05
-2.45056e-06
1.84429e-05
-2.5169e-06
1.83743e-05
-2.58167e-06
1.83044e-05
-2.64454e-06
1.82334e-05
-2.7052e-06
1.81613e-05
-2.76333e-06
1.80884e-05
-2.81862e-06
1.80148e-05
-2.87075e-06
1.79407e-05
-2.91945e-06
1.78664e-05
-2.96444e-06
1.7792e-05
-3.00548e-06
1.77177e-05
-3.04234e-06
1.76438e-05
-3.07483e-06
1.75706e-05
-3.10281e-06
1.74983e-05
-3.12629e-06
1.74273e-05
-3.14533e-06
1.73578e-05
-3.16005e-06
1.729e-05
-3.17062e-06
1.72241e-05
-3.17724e-06
1.71603e-05
-3.18013e-06
1.70988e-05
-3.17951e-06
1.704e-05
-3.17565e-06
1.69839e-05
-3.16886e-06
1.6931e-05
-3.15958e-06
1.68814e-05
-3.14835e-06
1.68352e-05
-3.1358e-06
1.67926e-05
-3.1226e-06
1.67535e-05
-3.1095e-06
1.67181e-05
-3.09734e-06
1.6686e-05
-3.087e-06
1.66568e-05
-3.07957e-06
-3.07666e-06
1.99998e-05
-2.7882e-09
1.99994e-05
-8.72942e-09
1.99987e-05
-1.50141e-08
1.99978e-05
-2.16168e-08
1.99966e-05
-2.85469e-08
1.99953e-05
-3.58255e-08
1.99937e-05
-4.34788e-08
1.9992e-05
-5.15354e-08
1.999e-05
-6.00249e-08
1.99878e-05
-6.8977e-08
1.99854e-05
-7.84217e-08
1.99827e-05
-8.8389e-08
1.99797e-05
-9.89091e-08
1.99765e-05
-1.10012e-07
1.9973e-05
-1.21729e-07
1.99691e-05
-1.3409e-07
1.99649e-05
-1.47126e-07
1.99604e-05
-1.60869e-07
1.99555e-05
-1.75351e-07
1.99501e-05
-1.90604e-07
1.99444e-05
-2.06661e-07
1.99382e-05
-2.23555e-07
1.99316e-05
-2.4132e-07
1.99244e-05
-2.5999e-07
1.99168e-05
-2.79599e-07
1.99086e-05
-3.00183e-07
1.98998e-05
-3.21775e-07
1.98904e-05
-3.44412e-07
1.98804e-05
-3.68128e-07
1.98697e-05
-3.92959e-07
1.98583e-05
-4.1894e-07
1.98462e-05
-4.46106e-07
1.98333e-05
-4.74493e-07
1.98196e-05
-5.04134e-07
1.9805e-05
-5.35062e-07
1.97896e-05
-5.67312e-07
1.97732e-05
-6.00915e-07
1.97559e-05
-6.35901e-07
1.97376e-05
-6.72299e-07
1.97183e-05
-7.10138e-07
1.96978e-05
-7.49442e-07
1.96762e-05
-7.90235e-07
1.96535e-05
-8.32537e-07
1.96295e-05
-8.76364e-07
1.96043e-05
-9.21731e-07
1.95777e-05
-9.68648e-07
1.95498e-05
-1.01712e-06
1.95205e-05
-1.06714e-06
1.94897e-05
-1.11872e-06
1.94575e-05
-1.17183e-06
1.94237e-05
-1.22646e-06
1.93883e-05
-1.28258e-06
1.93513e-05
-1.34016e-06
1.93126e-05
-1.39915e-06
1.92722e-05
-1.45951e-06
1.92301e-05
-1.52115e-06
1.91862e-05
-1.58401e-06
1.91406e-05
-1.648e-06
1.90931e-05
-1.71301e-06
1.90437e-05
-1.77892e-06
1.89926e-05
-1.84561e-06
1.89395e-05
-1.91291e-06
1.88846e-05
-1.98068e-06
1.88279e-05
-2.04871e-06
1.87694e-05
-2.11681e-06
1.87091e-05
-2.18475e-06
1.86471e-05
-2.25232e-06
1.85834e-05
-2.31924e-06
1.85181e-05
-2.38526e-06
1.84513e-05
-2.45009e-06
1.83831e-05
-2.51345e-06
1.83136e-05
-2.57503e-06
1.82429e-05
-2.63452e-06
1.81712e-05
-2.69164e-06
1.80986e-05
-2.74606e-06
1.80254e-05
-2.79752e-06
1.79517e-05
-2.84572e-06
1.78776e-05
-2.8904e-06
1.78035e-05
-2.93135e-06
1.77295e-05
-2.96834e-06
1.76559e-05
-3.0012e-06
1.75829e-05
-3.02984e-06
1.75109e-05
-3.05424e-06
1.744e-05
-3.07445e-06
1.73705e-05
-3.09058e-06
1.73027e-05
-3.10277e-06
1.72366e-05
-3.11121e-06
1.71726e-05
-3.11611e-06
1.71108e-05
-3.11771e-06
1.70515e-05
-3.11628e-06
1.69947e-05
-3.11215e-06
1.69409e-05
-3.10574e-06
1.68901e-05
-3.09755e-06
1.68424e-05
-3.08814e-06
1.6798e-05
-3.07814e-06
1.67567e-05
-3.06823e-06
1.67185e-05
-3.05911e-06
1.6683e-05
-3.0515e-06
1.66497e-05
-3.04628e-06
-3.04513e-06
1.99999e-05
-2.65233e-09
1.99995e-05
-8.32874e-09
1.99988e-05
-1.4365e-08
1.99979e-05
-2.07368e-08
1.99968e-05
-2.74488e-08
1.99955e-05
-3.45159e-08
1.9994e-05
-4.1959e-08
1.99923e-05
-4.98023e-08
1.99903e-05
-5.80719e-08
1.99881e-05
-6.67952e-08
1.99857e-05
-7.6e-08
1.9983e-05
-8.57147e-08
1.99801e-05
-9.59681e-08
1.99769e-05
-1.06789e-07
1.99734e-05
-1.18207e-07
1.99695e-05
-1.30252e-07
1.99653e-05
-1.42954e-07
1.99608e-05
-1.56344e-07
1.99559e-05
-1.70452e-07
1.99506e-05
-1.85309e-07
1.99449e-05
-2.00949e-07
1.99388e-05
-2.17402e-07
1.99321e-05
-2.34702e-07
1.9925e-05
-2.52882e-07
1.99174e-05
-2.71974e-07
1.99092e-05
-2.92013e-07
1.99005e-05
-3.13033e-07
1.98912e-05
-3.35068e-07
1.98812e-05
-3.58152e-07
1.98705e-05
-3.82319e-07
1.98592e-05
-4.07603e-07
1.98471e-05
-4.34039e-07
1.98343e-05
-4.6166e-07
1.98207e-05
-4.905e-07
1.98062e-05
-5.20591e-07
1.97909e-05
-5.51964e-07
1.97746e-05
-5.84652e-07
1.97574e-05
-6.18682e-07
1.97392e-05
-6.54085e-07
1.97199e-05
-6.90886e-07
1.96996e-05
-7.29109e-07
1.96781e-05
-7.68777e-07
1.96555e-05
-8.09911e-07
1.96316e-05
-8.52525e-07
1.96066e-05
-8.96634e-07
1.95802e-05
-9.42247e-07
1.95524e-05
-9.89369e-07
1.95233e-05
-1.038e-06
1.94927e-05
-1.08813e-06
1.94606e-05
-1.13976e-06
1.9427e-05
-1.19286e-06
1.93918e-05
-1.24741e-06
1.93551e-05
-1.30338e-06
1.93166e-05
-1.36072e-06
1.92765e-05
-1.41938e-06
1.92346e-05
-1.4793e-06
1.9191e-05
-1.54041e-06
1.91457e-05
-1.60261e-06
1.90985e-05
-1.66582e-06
1.90495e-05
-1.72992e-06
1.89986e-05
-1.79477e-06
1.8946e-05
-1.86024e-06
1.88915e-05
-1.92617e-06
1.88351e-05
-1.99238e-06
1.8777e-05
-2.05869e-06
1.87171e-05
-2.12488e-06
1.86555e-05
-2.19072e-06
1.85923e-05
-2.25598e-06
1.85274e-05
-2.32041e-06
1.84611e-05
-2.38374e-06
1.83933e-05
-2.44569e-06
1.83243e-05
-2.50597e-06
1.8254e-05
-2.5643e-06
1.81828e-05
-2.62039e-06
1.81107e-05
-2.67395e-06
1.80379e-05
-2.7247e-06
1.79645e-05
-2.77238e-06
1.78909e-05
-2.81674e-06
1.78171e-05
-2.85757e-06
1.77434e-05
-2.89467e-06
1.76701e-05
-2.92789e-06
1.75974e-05
-2.95714e-06
1.75255e-05
-2.98239e-06
1.74548e-05
-3.0037e-06
1.73853e-05
-3.02113e-06
1.73174e-05
-3.03484e-06
1.72512e-05
-3.04499e-06
1.71869e-05
-3.05179e-06
1.71246e-05
-3.05547e-06
1.70647e-05
-3.05632e-06
1.70072e-05
-3.05466e-06
1.69523e-05
-3.05088e-06
1.69002e-05
-3.04546e-06
1.6851e-05
-3.0389e-06
1.68046e-05
-3.03176e-06
1.6761e-05
-3.02464e-06
1.672e-05
-3.01812e-06
1.66813e-05
-3.01279e-06
1.66443e-05
-3.00925e-06
-3.00931e-06
1.99999e-05
-2.53054e-09
1.99995e-05
-7.96146e-09
1.99989e-05
-1.37587e-08
1.99981e-05
-1.99017e-08
1.9997e-05
-2.63931e-08
1.99957e-05
-3.32445e-08
1.99943e-05
-4.04728e-08
1.99926e-05
-4.80985e-08
1.99906e-05
-5.61449e-08
1.99885e-05
-6.46367e-08
1.99861e-05
-7.35997e-08
1.99834e-05
-8.30606e-08
1.99805e-05
-9.30467e-08
1.99773e-05
-1.03586e-07
1.99738e-05
-1.14706e-07
1.997e-05
-1.26436e-07
1.99658e-05
-1.38804e-07
1.99613e-05
-1.51842e-07
1.99564e-05
-1.65577e-07
1.99512e-05
-1.80041e-07
1.99455e-05
-1.95265e-07
1.99394e-05
-2.1128e-07
1.99328e-05
-2.28117e-07
1.99257e-05
-2.45809e-07
1.99181e-05
-2.64388e-07
1.991e-05
-2.83887e-07
1.99013e-05
-3.04338e-07
1.9892e-05
-3.25774e-07
1.98821e-05
-3.48229e-07
1.98715e-05
-3.71737e-07
1.98602e-05
-3.96329e-07
1.98482e-05
-4.22039e-07
1.98355e-05
-4.489e-07
1.98219e-05
-4.76944e-07
1.98075e-05
-5.06202e-07
1.97923e-05
-5.36706e-07
1.97761e-05
-5.68484e-07
1.9759e-05
-6.01566e-07
1.97409e-05
-6.3598e-07
1.97217e-05
-6.7175e-07
1.97015e-05
-7.089e-07
1.96802e-05
-7.47453e-07
1.96577e-05
-7.87426e-07
1.9634e-05
-8.28837e-07
1.96091e-05
-8.71697e-07
1.95829e-05
-9.16017e-07
1.95553e-05
-9.618e-07
1.95264e-05
-1.00905e-06
1.9496e-05
-1.05775e-06
1.94641e-05
-1.10791e-06
1.94307e-05
-1.15949e-06
1.93958e-05
-1.21249e-06
1.93593e-05
-1.26685e-06
1.93211e-05
-1.32256e-06
1.92813e-05
-1.37954e-06
1.92398e-05
-1.43776e-06
1.91965e-05
-1.49712e-06
1.91514e-05
-1.55757e-06
1.91046e-05
-1.61899e-06
1.90559e-05
-1.68128e-06
1.90055e-05
-1.74432e-06
1.89532e-05
-1.80797e-06
1.88991e-05
-1.87209e-06
1.88432e-05
-1.9365e-06
1.87856e-05
-2.00102e-06
1.87262e-05
-2.06546e-06
1.86651e-05
-2.12961e-06
1.86023e-05
-2.19322e-06
1.85379e-05
-2.25607e-06
1.84721e-05
-2.3179e-06
1.84049e-05
-2.37844e-06
1.83363e-05
-2.43743e-06
1.82666e-05
-2.49459e-06
1.81959e-05
-2.54964e-06
1.81242e-05
-2.60232e-06
1.80519e-05
-2.65236e-06
1.7979e-05
-2.6995e-06
1.79058e-05
-2.74352e-06
1.78324e-05
-2.7842e-06
1.77591e-05
-2.82137e-06
1.76861e-05
-2.8549e-06
1.76137e-05
-2.88469e-06
1.7542e-05
-2.91073e-06
1.74714e-05
-2.93303e-06
1.74019e-05
-2.95168e-06
1.73339e-05
-2.9668e-06
1.72674e-05
-2.97854e-06
1.72027e-05
-2.98711e-06
1.714e-05
-2.99273e-06
1.70794e-05
-2.99569e-06
1.7021e-05
-2.9963e-06
1.69651e-05
-2.99494e-06
1.69116e-05
-2.99202e-06
1.68607e-05
-2.98801e-06
1.68124e-05
-2.98342e-06
1.67665e-05
-2.97873e-06
1.67228e-05
-2.97445e-06
1.6681e-05
-2.97102e-06
1.66407e-05
-2.96889e-06
-2.96964e-06
1.99999e-05
-2.41915e-09
1.99995e-05
-7.62095e-09
1.9999e-05
-1.31894e-08
1.99982e-05
-1.91079e-08
1.99972e-05
-2.53793e-08
1.99959e-05
-3.2013e-08
1.99945e-05
-3.90234e-08
1.99928e-05
-4.64284e-08
1.99909e-05
-5.42485e-08
1.99888e-05
-6.25064e-08
1.99864e-05
-7.12257e-08
1.99838e-05
-8.04316e-08
1.99809e-05
-9.01497e-08
1.99777e-05
-1.00406e-07
1.99742e-05
-1.11229e-07
1.99704e-05
-1.22644e-07
1.99663e-05
-1.34681e-07
1.99618e-05
-1.47367e-07
1.9957e-05
-1.60732e-07
1.99518e-05
-1.74804e-07
1.99461e-05
-1.89615e-07
1.994e-05
-2.05194e-07
1.99335e-05
-2.21571e-07
1.99264e-05
-2.38778e-07
1.99189e-05
-2.56847e-07
1.99108e-05
-2.75808e-07
1.99022e-05
-2.95693e-07
1.98929e-05
-3.16536e-07
1.98831e-05
-3.38367e-07
1.98726e-05
-3.61219e-07
1.98614e-05
-3.85124e-07
1.98494e-05
-4.10114e-07
1.98368e-05
-4.3622e-07
1.98233e-05
-4.63474e-07
1.9809e-05
-4.91906e-07
1.97938e-05
-5.21546e-07
1.97778e-05
-5.52422e-07
1.97608e-05
-5.84563e-07
1.97428e-05
-6.17995e-07
1.97238e-05
-6.52743e-07
1.97037e-05
-6.88829e-07
1.96825e-05
-7.26275e-07
1.96602e-05
-7.65098e-07
1.96367e-05
-8.05315e-07
1.96119e-05
-8.46937e-07
1.95859e-05
-8.89975e-07
1.95585e-05
-9.34431e-07
1.95298e-05
-9.80307e-07
1.94996e-05
-1.0276e-06
1.9468e-05
-1.07629e-06
1.94349e-05
-1.12638e-06
1.94002e-05
-1.17783e-06
1.9364e-05
-1.23061e-06
1.93261e-05
-1.28469e-06
1.92866e-05
-1.34002e-06
1.92454e-05
-1.39654e-06
1.92024e-05
-1.45419e-06
1.91578e-05
-1.51288e-06
1.91113e-05
-1.57253e-06
1.90631e-05
-1.63304e-06
1.9013e-05
-1.69429e-06
1.89612e-05
-1.75614e-06
1.89076e-05
-1.81846e-06
1.88522e-05
-1.88109e-06
1.8795e-05
-1.94385e-06
1.87361e-05
-2.00656e-06
1.86755e-05
-2.06902e-06
1.86133e-05
-2.131e-06
1.85495e-05
-2.19228e-06
1.84842e-05
-2.25261e-06
1.84175e-05
-2.31176e-06
1.83495e-05
-2.36945e-06
1.82804e-05
-2.42544e-06
1.82102e-05
-2.47945e-06
1.81391e-05
-2.53124e-06
1.80673e-05
-2.58054e-06
1.79949e-05
-2.62712e-06
1.79222e-05
-2.67076e-06
1.78492e-05
-2.71126e-06
1.77763e-05
-2.74847e-06
1.77037e-05
-2.78225e-06
1.76315e-05
-2.81251e-06
1.756e-05
-2.83924e-06
1.74894e-05
-2.86245e-06
1.74199e-05
-2.8822e-06
1.73518e-05
-2.89861e-06
1.7285e-05
-2.91182e-06
1.72199e-05
-2.92202e-06
1.71567e-05
-2.92944e-06
1.70953e-05
-2.93434e-06
1.7036e-05
-2.93703e-06
1.69789e-05
-2.93785e-06
1.69241e-05
-2.93719e-06
1.68716e-05
-2.93547e-06
1.68213e-05
-2.93312e-06
1.67731e-05
-2.93057e-06
1.67269e-05
-2.92823e-06
1.66823e-05
-2.92643e-06
1.66389e-05
-2.9255e-06
-2.9265e-06
1.99999e-05
-2.31578e-09
1.99996e-05
-7.30225e-09
1.9999e-05
-1.26518e-08
1.99983e-05
-1.83516e-08
1.99973e-05
-2.44051e-08
1.99961e-05
-3.08211e-08
1.99947e-05
-3.76123e-08
1.99931e-05
-4.47945e-08
1.99912e-05
-5.23864e-08
1.99891e-05
-6.04083e-08
1.99868e-05
-6.88825e-08
1.99842e-05
-7.78321e-08
1.99813e-05
-8.72814e-08
1.99782e-05
-9.72556e-08
1.99747e-05
-1.0778e-07
1.99709e-05
-1.18882e-07
1.99668e-05
-1.30587e-07
1.99624e-05
-1.42924e-07
1.99576e-05
-1.55919e-07
1.99524e-05
-1.69602e-07
1.99468e-05
-1.84002e-07
1.99407e-05
-1.99147e-07
1.99342e-05
-2.15067e-07
1.99272e-05
-2.31793e-07
1.99197e-05
-2.49354e-07
1.99117e-05
-2.67782e-07
1.99031e-05
-2.87106e-07
1.9894e-05
-3.07358e-07
1.98842e-05
-3.2857e-07
1.98737e-05
-3.50772e-07
1.98626e-05
-3.73995e-07
1.98507e-05
-3.9827e-07
1.98381e-05
-4.23627e-07
1.98248e-05
-4.50097e-07
1.98106e-05
-4.77709e-07
1.97955e-05
-5.06493e-07
1.97796e-05
-5.36475e-07
1.97627e-05
-5.67682e-07
1.97448e-05
-6.00141e-07
1.9726e-05
-6.33875e-07
1.9706e-05
-6.68906e-07
1.9685e-05
-7.05255e-07
1.96629e-05
-7.42939e-07
1.96395e-05
-7.81973e-07
1.9615e-05
-8.22369e-07
1.95891e-05
-8.64135e-07
1.9562e-05
-9.07278e-07
1.95335e-05
-9.51796e-07
1.95035e-05
-9.97685e-07
1.94722e-05
-1.04494e-06
1.94393e-05
-1.09353e-06
1.9405e-05
-1.14346e-06
1.9369e-05
-1.19467e-06
1.93315e-05
-1.24715e-06
1.92923e-05
-1.30084e-06
1.92514e-05
-1.35569e-06
1.92089e-05
-1.41163e-06
1.91646e-05
-1.4686e-06
1.91186e-05
-1.5265e-06
1.90708e-05
-1.58524e-06
1.90212e-05
-1.64471e-06
1.89698e-05
-1.70479e-06
1.89167e-05
-1.76533e-06
1.88618e-05
-1.82619e-06
1.88052e-05
-1.88721e-06
1.87468e-05
-1.94821e-06
1.86868e-05
-2.00899e-06
1.86251e-05
-2.06935e-06
1.85619e-05
-2.12907e-06
1.84972e-05
-2.18792e-06
1.84311e-05
-2.24567e-06
1.83638e-05
-2.30207e-06
1.82952e-05
-2.35688e-06
1.82256e-05
-2.40985e-06
1.81551e-05
-2.46072e-06
1.80838e-05
-2.50927e-06
1.8012e-05
-2.55526e-06
1.79397e-05
-2.5985e-06
1.78672e-05
-2.63878e-06
1.77947e-05
-2.67597e-06
1.77224e-05
-2.70994e-06
1.76505e-05
-2.7406e-06
1.75792e-05
-2.76793e-06
1.75087e-05
-2.79194e-06
1.74392e-05
-2.81269e-06
1.73708e-05
-2.83026e-06
1.73038e-05
-2.84481e-06
1.72383e-05
-2.85651e-06
1.71744e-05
-2.86557e-06
1.71123e-05
-2.87224e-06
1.70521e-05
-2.87681e-06
1.69939e-05
-2.8796e-06
1.69376e-05
-2.88097e-06
1.68835e-05
-2.88128e-06
1.68313e-05
-2.88092e-06
1.67809e-05
-2.88025e-06
1.67323e-05
-2.87961e-06
1.66851e-05
-2.87923e-06
1.6639e-05
-2.87934e-06
-2.88018e-06
1.99999e-05
-2.2188e-09
1.99996e-05
-7.00164e-09
1.99991e-05
-1.21415e-08
1.99984e-05
-1.76288e-08
1.99974e-05
-2.3468e-08
1.99963e-05
-2.96678e-08
1.99949e-05
-3.62398e-08
1.99933e-05
-4.31984e-08
1.99915e-05
-5.05607e-08
1.99894e-05
-5.83455e-08
1.99871e-05
-6.65733e-08
1.99845e-05
-7.52658e-08
1.99817e-05
-8.44459e-08
1.99786e-05
-9.41373e-08
1.99752e-05
-1.04364e-07
1.99714e-05
-1.15153e-07
1.99674e-05
-1.26528e-07
1.9963e-05
-1.38516e-07
1.99582e-05
-1.51144e-07
1.9953e-05
-1.64439e-07
1.99475e-05
-1.7843e-07
1.99415e-05
-1.93144e-07
1.9935e-05
-2.0861e-07
1.99281e-05
-2.24857e-07
1.99206e-05
-2.41915e-07
1.99127e-05
-2.59812e-07
1.99041e-05
-2.7858e-07
1.9895e-05
-2.98247e-07
1.98853e-05
-3.18843e-07
1.98749e-05
-3.404e-07
1.98639e-05
-3.62946e-07
1.98521e-05
-3.86512e-07
1.98396e-05
-4.11127e-07
1.98263e-05
-4.3682e-07
1.98123e-05
-4.6362e-07
1.97973e-05
-4.91554e-07
1.97815e-05
-5.20649e-07
1.97647e-05
-5.50932e-07
1.9747e-05
-5.82427e-07
1.97283e-05
-6.15156e-07
1.97085e-05
-6.49143e-07
1.96877e-05
-6.84405e-07
1.96657e-05
-7.2096e-07
1.96426e-05
-7.58822e-07
1.96182e-05
-7.98004e-07
1.95926e-05
-8.38513e-07
1.95657e-05
-8.80354e-07
1.95374e-05
-9.23528e-07
1.95077e-05
-9.68031e-07
1.94767e-05
-1.01385e-06
1.94441e-05
-1.06098e-06
1.941e-05
-1.10939e-06
1.93744e-05
-1.15906e-06
1.93372e-05
-1.20995e-06
1.92984e-05
-1.26201e-06
1.92579e-05
-1.31521e-06
1.92158e-05
-1.36947e-06
1.91719e-05
-1.42473e-06
1.91263e-05
-1.4809e-06
1.9079e-05
-1.5379e-06
1.90299e-05
-1.59561e-06
1.8979e-05
-1.65393e-06
1.89264e-05
-1.71272e-06
1.8872e-05
-1.77184e-06
1.8816e-05
-1.83113e-06
1.87582e-05
-1.89043e-06
1.86987e-05
-1.94955e-06
1.86377e-05
-2.0083e-06
1.85751e-05
-2.06647e-06
1.8511e-05
-2.12385e-06
1.84456e-05
-2.18021e-06
1.83788e-05
-2.23532e-06
1.83109e-05
-2.28895e-06
1.82419e-05
-2.34085e-06
1.81719e-05
-2.3908e-06
1.81013e-05
-2.43857e-06
1.80299e-05
-2.48395e-06
1.79582e-05
-2.52675e-06
1.78862e-05
-2.56677e-06
1.78141e-05
-2.60388e-06
1.77421e-05
-2.63797e-06
1.76705e-05
-2.66895e-06
1.75993e-05
-2.6968e-06
1.75289e-05
-2.72151e-06
1.74594e-05
-2.74313e-06
1.73908e-05
-2.76175e-06
1.73235e-05
-2.77751e-06
1.72576e-05
-2.79056e-06
1.71931e-05
-2.8011e-06
1.71303e-05
-2.80938e-06
1.70691e-05
-2.81564e-06
1.70097e-05
-2.82021e-06
1.69521e-05
-2.82338e-06
1.68963e-05
-2.82549e-06
1.68423e-05
-2.82688e-06
1.67899e-05
-2.82786e-06
1.6739e-05
-2.82871e-06
1.66894e-05
-2.8296e-06
1.66407e-05
-2.83064e-06
-2.83129e-06
1.99999e-05
-2.12709e-09
1.99996e-05
-6.71631e-09
1.99991e-05
-1.16549e-08
1.99984e-05
-1.69361e-08
1.99975e-05
-2.25653e-08
1.99964e-05
-2.85513e-08
1.99951e-05
-3.49052e-08
1.99935e-05
-4.16405e-08
1.99917e-05
-4.87729e-08
1.99897e-05
-5.632e-08
1.99874e-05
-6.43008e-08
1.99849e-05
-7.27357e-08
1.99821e-05
-8.16462e-08
1.9979e-05
-9.10549e-08
1.99757e-05
-1.00985e-07
1.9972e-05
-1.11461e-07
1.99679e-05
-1.22506e-07
1.99636e-05
-1.34147e-07
1.99588e-05
-1.46409e-07
1.99537e-05
-1.59319e-07
1.99482e-05
-1.72903e-07
1.99422e-05
-1.87189e-07
1.99358e-05
-2.02204e-07
1.99289e-05
-2.17976e-07
1.99216e-05
-2.34534e-07
1.99137e-05
-2.51905e-07
1.99052e-05
-2.70119e-07
1.98962e-05
-2.89206e-07
1.98865e-05
-3.09193e-07
1.98762e-05
-3.30109e-07
1.98653e-05
-3.51985e-07
1.98536e-05
-3.74847e-07
1.98412e-05
-3.98726e-07
1.9828e-05
-4.23649e-07
1.9814e-05
-4.49643e-07
1.97992e-05
-4.76736e-07
1.97835e-05
-5.04953e-07
1.97669e-05
-5.3432e-07
1.97493e-05
-5.6486e-07
1.97308e-05
-5.96595e-07
1.97112e-05
-6.29546e-07
1.96905e-05
-6.63733e-07
1.96687e-05
-6.9917e-07
1.96458e-05
-7.35873e-07
1.96216e-05
-7.73854e-07
1.95962e-05
-8.13119e-07
1.95696e-05
-8.53673e-07
1.95415e-05
-8.95518e-07
1.95122e-05
-9.38649e-07
1.94814e-05
-9.83058e-07
1.94491e-05
-1.02873e-06
1.94154e-05
-1.07565e-06
1.93801e-05
-1.12378e-06
1.93433e-05
-1.1731e-06
1.93048e-05
-1.22357e-06
1.92647e-05
-1.27513e-06
1.9223e-05
-1.32773e-06
1.91796e-05
-1.3813e-06
1.91344e-05
-1.43577e-06
1.90876e-05
-1.49104e-06
1.9039e-05
-1.54702e-06
1.89886e-05
-1.6036e-06
1.89366e-05
-1.66065e-06
1.88828e-05
-1.71804e-06
1.88273e-05
-1.77563e-06
1.87701e-05
-1.83325e-06
1.87113e-05
-1.89072e-06
1.86508e-05
-1.94788e-06
1.85889e-05
-2.00451e-06
1.85254e-05
-2.06042e-06
1.84606e-05
-2.11539e-06
1.83945e-05
-2.16921e-06
1.83272e-05
-2.22165e-06
1.82589e-05
-2.27248e-06
1.81896e-05
-2.32149e-06
1.81194e-05
-2.36847e-06
1.80487e-05
-2.41321e-06
1.79775e-05
-2.45551e-06
1.79059e-05
-2.49523e-06
1.78343e-05
-2.53221e-06
1.77626e-05
-2.56635e-06
1.76913e-05
-2.59757e-06
1.76203e-05
-2.62583e-06
1.75499e-05
-2.65114e-06
1.74803e-05
-2.67353e-06
1.74116e-05
-2.69308e-06
1.7344e-05
-2.70991e-06
1.72776e-05
-2.72417e-06
1.72126e-05
-2.73604e-06
1.7149e-05
-2.74575e-06
1.70869e-05
-2.75354e-06
1.70263e-05
-2.75968e-06
1.69674e-05
-2.76445e-06
1.69101e-05
-2.76816e-06
1.68543e-05
-2.77109e-06
1.68e-05
-2.77352e-06
1.67469e-05
-2.77567e-06
1.6695e-05
-2.77768e-06
1.6644e-05
-2.77961e-06
-2.78038e-06
1.99999e-05
-2.03981e-09
1.99996e-05
-6.4441e-09
1.99992e-05
-1.11892e-08
1.99985e-05
-1.62705e-08
1.99976e-05
-2.16943e-08
1.99966e-05
-2.74696e-08
1.99953e-05
-3.36074e-08
1.99937e-05
-4.01204e-08
1.9992e-05
-4.70234e-08
1.999e-05
-5.43329e-08
1.99878e-05
-6.20667e-08
1.99853e-05
-7.0244e-08
1.99825e-05
-7.88852e-08
1.99795e-05
-8.80114e-08
1.99761e-05
-9.76449e-08
1.99725e-05
-1.07809e-07
1.99685e-05
-1.18526e-07
1.99642e-05
-1.29821e-07
1.99595e-05
-1.4172e-07
1.99544e-05
-1.54246e-07
1.99489e-05
-1.67426e-07
1.9943e-05
-1.81286e-07
1.99367e-05
-1.95852e-07
1.99299e-05
-2.11153e-07
1.99225e-05
-2.27214e-07
1.99147e-05
-2.44063e-07
1.99063e-05
-2.61729e-07
1.98973e-05
-2.80239e-07
1.98878e-05
-2.99621e-07
1.98776e-05
-3.19904e-07
1.98667e-05
-3.41114e-07
1.98551e-05
-3.6328e-07
1.98428e-05
-3.8643e-07
1.98298e-05
-4.1059e-07
1.98159e-05
-4.35786e-07
1.98012e-05
-4.62046e-07
1.97857e-05
-4.89393e-07
1.97692e-05
-5.17853e-07
1.97518e-05
-5.47447e-07
1.97334e-05
-5.78198e-07
1.9714e-05
-6.10125e-07
1.96935e-05
-6.43247e-07
1.96719e-05
-6.77579e-07
1.96491e-05
-7.13136e-07
1.96252e-05
-7.49927e-07
1.96001e-05
-7.87962e-07
1.95736e-05
-8.27244e-07
1.95459e-05
-8.67774e-07
1.95168e-05
-9.0955e-07
1.94863e-05
-9.52562e-07
1.94544e-05
-9.96798e-07
1.9421e-05
-1.04224e-06
1.9386e-05
-1.08886e-06
1.93496e-05
-1.13663e-06
1.93115e-05
-1.18552e-06
1.92718e-05
-1.23546e-06
1.92305e-05
-1.28642e-06
1.91876e-05
-1.33833e-06
1.91429e-05
-1.3911e-06
1.90965e-05
-1.44467e-06
1.90485e-05
-1.49894e-06
1.89987e-05
-1.5538e-06
1.89472e-05
-1.60914e-06
1.88939e-05
-1.66483e-06
1.8839e-05
-1.72072e-06
1.87825e-05
-1.77668e-06
1.87243e-05
-1.83252e-06
1.86645e-05
-1.88809e-06
1.86032e-05
-1.9432e-06
1.85404e-05
-1.99765e-06
1.84762e-05
-2.05124e-06
1.84108e-05
-2.10376e-06
1.83441e-05
-2.155e-06
1.82764e-05
-2.20475e-06
1.82077e-05
-2.25281e-06
1.81382e-05
-2.29896e-06
1.8068e-05
-2.34302e-06
1.79973e-05
-2.38481e-06
1.79263e-05
-2.42416e-06
1.7855e-05
-2.46096e-06
1.77837e-05
-2.49508e-06
1.77126e-05
-2.52645e-06
1.76418e-05
-2.55504e-06
1.75715e-05
-2.58084e-06
1.75019e-05
-2.60388e-06
1.7433e-05
-2.62424e-06
1.73651e-05
-2.64201e-06
1.72983e-05
-2.65734e-06
1.72327e-05
-2.6704e-06