/*--------------------------------*- C++ -*----------------------------------*\
  =========                 |
  \\      /  F ield         | OpenFOAM: The Open Source CFD Toolbox
   \\    /   O peration     | Website:  https://openfoam.org
    \\  /    A nd           | Version:  11
     \\/     M anipulation  |
\*---------------------------------------------------------------------------*/
FoamFile
{
    format      ascii;
    class       volVectorField;
    location    "460";
    object      U;
}
// * * * * * * * * * * * * * * * * * * * * * * * * * * * * * * * * * * * * * //

dimensions      [0 1 -1 0 0 0 0];

internalField   nonuniform List<vector> 
10000
(
(0.00499997 -9.75533e-07 0)
(0.00499983 -2.82657e-06 0)
(0.00499964 -4.67414e-06 0)
(0.0049994 -6.56486e-06 0)
(0.00499912 -8.52375e-06 0)
(0.0049988 -1.05678e-05 0)
(0.00499843 -1.27102e-05 0)
(0.00499801 -1.49625e-05 0)
(0.00499754 -1.73349e-05 0)
(0.00499701 -1.98367e-05 0)
(0.00499643 -2.2477e-05 0)
(0.00499578 -2.52647e-05 0)
(0.00499507 -2.82085e-05 0)
(0.00499429 -3.13171e-05 0)
(0.00499344 -3.45992e-05 0)
(0.00499251 -3.80635e-05 0)
(0.0049915 -4.17189e-05 0)
(0.0049904 -4.55744e-05 0)
(0.00498921 -4.9639e-05 0)
(0.00498792 -5.39219e-05 0)
(0.00498652 -5.84325e-05 0)
(0.00498502 -6.31802e-05 0)
(0.0049834 -6.81747e-05 0)
(0.00498166 -7.34255e-05 0)
(0.00497979 -7.89426e-05 0)
(0.00497779 -8.47358e-05 0)
(0.00497565 -9.08152e-05 0)
(0.00497335 -9.71908e-05 0)
(0.0049709 -0.000103873 0)
(0.00496828 -0.000110871 0)
(0.00496549 -0.000118196 0)
(0.00496252 -0.000125858 0)
(0.00495936 -0.000133866 0)
(0.004956 -0.000142231 0)
(0.00495243 -0.000150962 0)
(0.00494864 -0.000160068 0)
(0.00494462 -0.00016956 0)
(0.00494036 -0.000179445 0)
(0.00493586 -0.000189733 0)
(0.00493109 -0.000200431 0)
(0.00492606 -0.000211546 0)
(0.00492074 -0.000223086 0)
(0.00491513 -0.000235056 0)
(0.00490922 -0.000247461 0)
(0.00490299 -0.000260305 0)
(0.00489643 -0.000273591 0)
(0.00488953 -0.00028732 0)
(0.00488229 -0.000301493 0)
(0.00487468 -0.000316108 0)
(0.0048667 -0.00033116 0)
(0.00485833 -0.000346646 0)
(0.00484956 -0.000362556 0)
(0.00484039 -0.000378881 0)
(0.0048308 -0.000395606 0)
(0.00482078 -0.000412717 0)
(0.00481032 -0.000430192 0)
(0.00479942 -0.000448009 0)
(0.00478806 -0.000466141 0)
(0.00477624 -0.000484556 0)
(0.00476396 -0.000503217 0)
(0.00475121 -0.000522084 0)
(0.00473799 -0.000541111 0)
(0.00472429 -0.000560246 0)
(0.00471013 -0.000579433 0)
(0.0046955 -0.000598609 0)
(0.00468042 -0.000617706 0)
(0.00466489 -0.000636651 0)
(0.00464893 -0.000655364 0)
(0.00463255 -0.000673763 0)
(0.00461578 -0.000691759 0)
(0.00459864 -0.000709261 0)
(0.00458117 -0.000726175 0)
(0.00456339 -0.000742407 0)
(0.00454534 -0.000757859 0)
(0.00452707 -0.000772441 0)
(0.00450862 -0.000786061 0)
(0.00449005 -0.000798635 0)
(0.00447141 -0.000810085 0)
(0.00445278 -0.000820345 0)
(0.0044342 -0.00082936 0)
(0.00441581 -0.000837108 0)
(0.00439764 -0.000843608 0)
(0.00437944 -0.000848829 0)
(0.00436129 -0.000852616 0)
(0.00434329 -0.000855018 0)
(0.00432549 -0.000856051 0)
(0.00430822 -0.000855752 0)
(0.00429175 -0.000854224 0)
(0.00427611 -0.000851549 0)
(0.00426141 -0.00084781 0)
(0.00424766 -0.0008432 0)
(0.00423456 -0.000837855 0)
(0.0042223 -0.000831853 0)
(0.00421094 -0.000825319 0)
(0.00420059 -0.000818415 0)
(0.00419132 -0.000811331 0)
(0.00418326 -0.0008043 0)
(0.00417654 -0.000797604 0)
(0.00417114 -0.000791733 0)
(0.00416727 -0.000787921 0)
(0.00499999 -8.82518e-07 0)
(0.00499986 -2.64798e-06 0)
(0.00499967 -4.44058e-06 0)
(0.00499944 -6.28192e-06 0)
(0.00499916 -8.19184e-06 0)
(0.00499883 -1.01855e-05 0)
(0.00499846 -1.22753e-05 0)
(0.00499804 -1.44721e-05 0)
(0.00499757 -1.67857e-05 0)
(0.00499704 -1.92251e-05 0)
(0.00499646 -2.17993e-05 0)
(0.00499582 -2.45167e-05 0)
(0.00499511 -2.73859e-05 0)
(0.00499433 -3.04152e-05 0)
(0.00499348 -3.36132e-05 0)
(0.00499255 -3.69884e-05 0)
(0.00499154 -4.05492e-05 0)
(0.00499044 -4.43046e-05 0)
(0.00498924 -4.82632e-05 0)
(0.00498796 -5.2434e-05 0)
(0.00498656 -5.68261e-05 0)
(0.00498506 -6.14486e-05 0)
(0.00498345 -6.63108e-05 0)
(0.00498171 -7.14222e-05 0)
(0.00497984 -7.67923e-05 0)
(0.00497784 -8.24306e-05 0)
(0.0049757 -8.8347e-05 0)
(0.00497341 -9.45511e-05 0)
(0.00497096 -0.000101053 0)
(0.00496835 -0.000107862 0)
(0.00496556 -0.000114988 0)
(0.00496259 -0.000122441 0)
(0.00495943 -0.000130231 0)
(0.00495608 -0.000138367 0)
(0.00495251 -0.000146858 0)
(0.00494873 -0.000155714 0)
(0.00494471 -0.000164944 0)
(0.00494046 -0.000174556 0)
(0.00493596 -0.000184559 0)
(0.00493121 -0.000194959 0)
(0.00492618 -0.000205765 0)
(0.00492087 -0.000216982 0)
(0.00491527 -0.000228616 0)
(0.00490936 -0.000240673 0)
(0.00490314 -0.000253156 0)
(0.0048966 -0.000266067 0)
(0.00488971 -0.000279408 0)
(0.00488248 -0.00029318 0)
(0.00487488 -0.00030738 0)
(0.00486691 -0.000322005 0)
(0.00485855 -0.00033705 0)
(0.0048498 -0.000352507 0)
(0.00484064 -0.000368366 0)
(0.00483107 -0.000384614 0)
(0.00482106 -0.000401236 0)
(0.00481062 -0.000418213 0)
(0.00479974 -0.000435522 0)
(0.0047884 -0.000453138 0)
(0.0047766 -0.00047103 0)
(0.00476434 -0.000489164 0)
(0.0047516 -0.0005075 0)
(0.0047384 -0.000525994 0)
(0.00472473 -0.000544598 0)
(0.00471059 -0.000563258 0)
(0.00469599 -0.000581914 0)
(0.00468093 -0.000600501 0)
(0.00466543 -0.000618949 0)
(0.00464949 -0.000637184 0)
(0.00463314 -0.000655125 0)
(0.0046164 -0.000672691 0)
(0.00459928 -0.000689794 0)
(0.00458183 -0.000706345 0)
(0.00456408 -0.000722254 0)
(0.00454605 -0.000737431 0)
(0.0045278 -0.000751787 0)
(0.00450937 -0.000765239 0)
(0.00449081 -0.000777706 0)
(0.00447218 -0.000789116 0)
(0.00445352 -0.000799407 0)
(0.00443489 -0.000808524 0)
(0.00441635 -0.000816408 0)
(0.0043979 -0.000822974 0)
(0.00437954 -0.000828158 0)
(0.00436146 -0.000832022 0)
(0.00434374 -0.000834623 0)
(0.00432647 -0.000836093 0)
(0.00430969 -0.00083654 0)
(0.00429344 -0.000835948 0)
(0.00427779 -0.00083431 0)
(0.00426282 -0.00083166 0)
(0.00424874 -0.000828021 0)
(0.00423548 -0.000823609 0)
(0.00422309 -0.000818597 0)
(0.00421161 -0.000813137 0)
(0.00420112 -0.000807399 0)
(0.0041917 -0.000801586 0)
(0.00418343 -0.000795941 0)
(0.00417638 -0.000790771 0)
(0.00417031 -0.000786544 0)
(0.00416522 -0.000784157 0)
(0.005 -8.078e-07 0)
(0.00499989 -2.48276e-06 0)
(0.00499972 -4.21293e-06 0)
(0.00499949 -6.00192e-06 0)
(0.00499921 -7.86206e-06 0)
(0.00499889 -9.80553e-06 0)
(0.00499852 -1.18434e-05 0)
(0.0049981 -1.39856e-05 0)
(0.00499763 -1.62415e-05 0)
(0.0049971 -1.86198e-05 0)
(0.00499652 -2.11292e-05 0)
(0.00499587 -2.37779e-05 0)
(0.00499517 -2.6574e-05 0)
(0.00499439 -2.95259e-05 0)
(0.00499354 -3.26418e-05 0)
(0.00499261 -3.59298e-05 0)
(0.0049916 -3.93984e-05 0)
(0.0049905 -4.30561e-05 0)
(0.00498931 -4.69113e-05 0)
(0.00498803 -5.09728e-05 0)
(0.00498664 -5.52494e-05 0)
(0.00498514 -5.97499e-05 0)
(0.00498353 -6.44835e-05 0)
(0.0049818 -6.94592e-05 0)
(0.00497993 -7.46863e-05 0)
(0.00497794 -8.01741e-05 0)
(0.0049758 -8.59321e-05 0)
(0.00497352 -9.19696e-05 0)
(0.00497107 -9.82963e-05 0)
(0.00496847 -0.000104922 0)
(0.00496569 -0.000111855 0)
(0.00496273 -0.000119106 0)
(0.00495958 -0.000126684 0)
(0.00495623 -0.000134598 0)
(0.00495267 -0.000142857 0)
(0.0049489 -0.000151471 0)
(0.0049449 -0.000160447 0)
(0.00494066 -0.000169795 0)
(0.00493617 -0.000179522 0)
(0.00493143 -0.000189635 0)
(0.00492641 -0.000200141 0)
(0.00492112 -0.000211047 0)
(0.00491553 -0.000222358 0)
(0.00490964 -0.000234078 0)
(0.00490344 -0.000246212 0)
(0.00489692 -0.000258763 0)
(0.00489005 -0.00027173 0)
(0.00488284 -0.000285115 0)
(0.00487526 -0.000298916 0)
(0.00486731 -0.00031313 0)
(0.00485898 -0.000327751 0)
(0.00485026 -0.000342772 0)
(0.00484113 -0.000358183 0)
(0.00483158 -0.000373973 0)
(0.00482161 -0.000390127 0)
(0.0048112 -0.000406625 0)
(0.00480034 -0.000423448 0)
(0.00478904 -0.000440569 0)
(0.00477728 -0.00045796 0)
(0.00476505 -0.000475588 0)
(0.00475236 -0.000493415 0)
(0.0047392 -0.000511401 0)
(0.00472558 -0.000529497 0)
(0.00471148 -0.000547652 0)
(0.00469692 -0.00056581 0)
(0.00468191 -0.000583908 0)
(0.00466646 -0.000601881 0)
(0.00465057 -0.000619658 0)
(0.00463428 -0.000637162 0)
(0.00461758 -0.000654315 0)
(0.00460052 -0.000671034 0)
(0.00458313 -0.000687235 0)
(0.00456542 -0.000702832 0)
(0.00454744 -0.000717741 0)
(0.00452924 -0.000731876 0)
(0.00451085 -0.000745157 0)
(0.00449232 -0.000757509 0)
(0.00447371 -0.00076886 0)
(0.00445506 -0.000779148 0)
(0.00443642 -0.000788315 0)
(0.00441784 -0.0007963 0)
(0.00439939 -0.000803056 0)
(0.00438112 -0.00080858 0)
(0.00436314 -0.000812898 0)
(0.00434551 -0.000816035 0)
(0.0043283 -0.000818038 0)
(0.00431157 -0.00081897 0)
(0.00429535 -0.000818877 0)
(0.00427972 -0.000817819 0)
(0.00426473 -0.000815869 0)
(0.00425049 -0.000813085 0)
(0.00423704 -0.000809588 0)
(0.00422445 -0.00080554 0)
(0.00421275 -0.000801105 0)
(0.00420199 -0.000796459 0)
(0.00419222 -0.00079181 0)
(0.00418352 -0.000787398 0)
(0.00417585 -0.000783509 0)
(0.00416876 -0.000780526 0)
(0.00416224 -0.000779023 0)
(0.005 -7.56711e-07 0)
(0.00499991 -2.35065e-06 0)
(0.00499975 -4.0175e-06 0)
(0.00499953 -5.75326e-06 0)
(0.00499926 -7.56448e-06 0)
(0.00499895 -9.4601e-06 0)
(0.00499858 -1.14493e-05 0)
(0.00499816 -1.35411e-05 0)
(0.00499769 -1.5744e-05 0)
(0.00499717 -1.80664e-05 0)
(0.00499659 -2.05165e-05 0)
(0.00499595 -2.31024e-05 0)
(0.00499524 -2.58319e-05 0)
(0.00499446 -2.87131e-05 0)
(0.00499361 -3.1754e-05 0)
(0.00499269 -3.49625e-05 0)
(0.00499168 -3.83469e-05 0)
(0.00499059 -4.19154e-05 0)
(0.0049894 -4.56763e-05 0)
(0.00498812 -4.9638e-05 0)
(0.00498673 -5.38091e-05 0)
(0.00498524 -5.81983e-05 0)
(0.00498363 -6.28144e-05 0)
(0.0049819 -6.76662e-05 0)
(0.00498005 -7.27627e-05 0)
(0.00497806 -7.81131e-05 0)
(0.00497593 -8.37264e-05 0)
(0.00497365 -8.96118e-05 0)
(0.00497122 -9.57786e-05 0)
(0.00496862 -0.000102236 0)
(0.00496585 -0.000108993 0)
(0.0049629 -0.00011606 0)
(0.00495976 -0.000123444 0)
(0.00495642 -0.000131156 0)
(0.00495288 -0.000139203 0)
(0.00494912 -0.000147595 0)
(0.00494513 -0.00015634 0)
(0.00494091 -0.000165446 0)
(0.00493644 -0.000174921 0)
(0.00493171 -0.000184771 0)
(0.00492672 -0.000195004 0)
(0.00492144 -0.000205625 0)
(0.00491588 -0.00021664 0)
(0.00491001 -0.000228054 0)
(0.00490383 -0.000239869 0)
(0.00489733 -0.000252089 0)
(0.00489049 -0.000264715 0)
(0.00488331 -0.000277747 0)
(0.00487576 -0.000291183 0)
(0.00486785 -0.00030502 0)
(0.00485955 -0.000319254 0)
(0.00485086 -0.000333876 0)
(0.00484177 -0.000348879 0)
(0.00483226 -0.00036425 0)
(0.00482233 -0.000379975 0)
(0.00481197 -0.000396036 0)
(0.00480116 -0.000412413 0)
(0.0047899 -0.000429081 0)
(0.00477819 -0.000446014 0)
(0.00476602 -0.00046318 0)
(0.00475339 -0.000480542 0)
(0.00474029 -0.000498061 0)
(0.00472672 -0.000515692 0)
(0.00471269 -0.000533386 0)
(0.0046982 -0.000551088 0)
(0.00468326 -0.000568739 0)
(0.00466788 -0.000586277 0)
(0.00465207 -0.000603633 0)
(0.00463584 -0.000620736 0)
(0.00461923 -0.00063751 0)
(0.00460225 -0.000653876 0)
(0.00458492 -0.000669754 0)
(0.00456729 -0.000685063 0)
(0.00454939 -0.000699721 0)
(0.00453126 -0.000713648 0)
(0.00451293 -0.000726765 0)
(0.00449447 -0.000739001 0)
(0.00447591 -0.000750285 0)
(0.0044573 -0.000760556 0)
(0.0044387 -0.000769755 0)
(0.00442016 -0.000777829 0)
(0.00440175 -0.000784743 0)
(0.00438355 -0.000790495 0)
(0.00436562 -0.000795109 0)
(0.00434804 -0.000798613 0)
(0.00433086 -0.000801051 0)
(0.00431413 -0.000802475 0)
(0.00429791 -0.000802938 0)
(0.00428224 -0.000802497 0)
(0.00426718 -0.000801222 0)
(0.0042528 -0.000799184 0)
(0.00423917 -0.000796492 0)
(0.00422634 -0.000793294 0)
(0.00421436 -0.00078975 0)
(0.00420325 -0.000786033 0)
(0.00419304 -0.000782341 0)
(0.00418377 -0.000778894 0)
(0.00417535 -0.000775939 0)
(0.0041672 -0.000773775 0)
(0.00415936 -0.000772801 0)
(0.005 -7.15356e-07 0)
(0.00499992 -2.23495e-06 0)
(0.00499978 -3.83766e-06 0)
(0.00499957 -5.51717e-06 0)
(0.00499931 -7.27666e-06 0)
(0.004999 -9.12236e-06 0)
(0.00499864 -1.10616e-05 0)
(0.00499823 -1.31021e-05 0)
(0.00499776 -1.52517e-05 0)
(0.00499724 -1.75182e-05 0)
(0.00499666 -1.99092e-05 0)
(0.00499602 -2.24326e-05 0)
(0.00499532 -2.50959e-05 0)
(0.00499455 -2.79069e-05 0)
(0.0049937 -3.08734e-05 0)
(0.00499278 -3.40031e-05 0)
(0.00499177 -3.7304e-05 0)
(0.00499068 -4.07841e-05 0)
(0.0049895 -4.44514e-05 0)
(0.00498822 -4.83142e-05 0)
(0.00498684 -5.23808e-05 0)
(0.00498536 -5.66596e-05 0)
(0.00498375 -6.11592e-05 0)
(0.00498203 -6.58882e-05 0)
(0.00498018 -7.08553e-05 0)
(0.0049782 -7.60693e-05 0)
(0.00497608 -8.15392e-05 0)
(0.00497381 -8.72738e-05 0)
(0.00497139 -9.32821e-05 0)
(0.0049688 -9.95731e-05 0)
(0.00496604 -0.000106156 0)
(0.0049631 -0.000113039 0)
(0.00495998 -0.000120232 0)
(0.00495666 -0.000127742 0)
(0.00495313 -0.00013558 0)
(0.00494938 -0.000143752 0)
(0.00494541 -0.000152267 0)
(0.00494121 -0.000161134 0)
(0.00493676 -0.000170358 0)
(0.00493205 -0.000179948 0)
(0.00492708 -0.00018991 0)
(0.00492183 -0.000200249 0)
(0.00491629 -0.000210971 0)
(0.00491046 -0.00022208 0)
(0.00490431 -0.00023358 0)
(0.00489784 -0.000245472 0)
(0.00489103 -0.000257759 0)
(0.00488388 -0.000270441 0)
(0.00487637 -0.000283515 0)
(0.0048685 -0.000296979 0)
(0.00486024 -0.000310829 0)
(0.0048516 -0.000325057 0)
(0.00484255 -0.000339654 0)
(0.00483309 -0.000354609 0)
(0.00482321 -0.000369909 0)
(0.0048129 -0.000385537 0)
(0.00480216 -0.000401472 0)
(0.00479096 -0.000417693 0)
(0.00477932 -0.000434172 0)
(0.00476721 -0.000450879 0)
(0.00475465 -0.000467781 0)
(0.00474162 -0.000484838 0)
(0.00472814 -0.000502008 0)
(0.00471419 -0.000519244 0)
(0.00469978 -0.000536494 0)
(0.00468493 -0.000553702 0)
(0.00466963 -0.000570809 0)
(0.00465391 -0.000587748 0)
(0.00463779 -0.000604452 0)
(0.00462127 -0.000620849 0)
(0.00460438 -0.000636864 0)
(0.00458716 -0.00065242 0)
(0.00456962 -0.00066744 0)
(0.00455182 -0.000681846 0)
(0.00453378 -0.000695561 0)
(0.00451554 -0.000708511 0)
(0.00449716 -0.000720624 0)
(0.00447867 -0.000731836 0)
(0.00446014 -0.000742084 0)
(0.00444161 -0.000751316 0)
(0.00442314 -0.000759486 0)
(0.0044048 -0.000766566 0)
(0.00438665 -0.000772553 0)
(0.00436877 -0.000777463 0)
(0.00435122 -0.000781324 0)
(0.00433404 -0.000784175 0)
(0.0043173 -0.000786064 0)
(0.00430103 -0.000787045 0)
(0.00428529 -0.000787175 0)
(0.00427013 -0.000786525 0)
(0.0042556 -0.000785173 0)
(0.00424177 -0.000783225 0)
(0.00422868 -0.000780814 0)
(0.00421637 -0.000778088 0)
(0.00420485 -0.00077521 0)
(0.00419414 -0.00077236 0)
(0.00418426 -0.000769729 0)
(0.00417507 -0.000767522 0)
(0.0041659 -0.000765985 0)
(0.00415682 -0.00076551 0)
(0.005 -6.79263e-07 0)
(0.00499993 -2.13017e-06 0)
(0.0049998 -3.66971e-06 0)
(0.00499961 -5.29149e-06 0)
(0.00499936 -6.99698e-06 0)
(0.00499906 -8.79053e-06 0)
(0.0049987 -1.06779e-05 0)
(0.0049983 -1.26657e-05 0)
(0.00499784 -1.47608e-05 0)
(0.00499732 -1.69705e-05 0)
(0.00499675 -1.93018e-05 0)
(0.00499611 -2.17621e-05 0)
(0.00499541 -2.43589e-05 0)
(0.00499464 -2.70994e-05 0)
(0.0049938 -2.99912e-05 0)
(0.00499288 -3.30419e-05 0)
(0.00499188 -3.62592e-05 0)
(0.00499079 -3.96507e-05 0)
(0.00498962 -4.32243e-05 0)
(0.00498834 -4.69881e-05 0)
(0.00498697 -5.09501e-05 0)
(0.00498549 -5.51184e-05 0)
(0.00498389 -5.95014e-05 0)
(0.00498218 -6.41075e-05 0)
(0.00498034 -6.89451e-05 0)
(0.00497837 -7.40228e-05 0)
(0.00497625 -7.93492e-05 0)
(0.004974 -8.49329e-05 0)
(0.00497158 -9.07827e-05 0)
(0.00496901 -9.69073e-05 0)
(0.00496626 -0.000103315 0)
(0.00496334 -0.000110015 0)
(0.00496023 -0.000117016 0)
(0.00495692 -0.000124326 0)
(0.00495341 -0.000131953 0)
(0.00494969 -0.000139906 0)
(0.00494574 -0.000148192 0)
(0.00494156 -0.000156819 0)
(0.00493713 -0.000165793 0)
(0.00493245 -0.000175123 0)
(0.0049275 -0.000184814 0)
(0.00492228 -0.000194871 0)
(0.00491677 -0.0002053 0)
(0.00491097 -0.000216105 0)
(0.00490485 -0.000227289 0)
(0.00489842 -0.000238854 0)
(0.00489165 -0.000250803 0)
(0.00488455 -0.000263134 0)
(0.00487708 -0.000275847 0)
(0.00486925 -0.000288939 0)
(0.00486105 -0.000302405 0)
(0.00485245 -0.000316239 0)
(0.00484346 -0.000330431 0)
(0.00483406 -0.000344972 0)
(0.00482425 -0.000359848 0)
(0.004814 -0.000375043 0)
(0.00480332 -0.000390538 0)
(0.0047922 -0.000406311 0)
(0.00478063 -0.000422337 0)
(0.00476861 -0.000438588 0)
(0.00475613 -0.000455029 0)
(0.00474319 -0.000471626 0)
(0.00472979 -0.000488336 0)
(0.00471594 -0.000505116 0)
(0.00470163 -0.000521915 0)
(0.00468688 -0.000538682 0)
(0.00467169 -0.000555357 0)
(0.00465608 -0.00057188 0)
(0.00464006 -0.000588185 0)
(0.00462366 -0.000604205 0)
(0.00460688 -0.000619868 0)
(0.00458978 -0.0006351 0)
(0.00457236 -0.000649829 0)
(0.00455466 -0.000663979 0)
(0.00453673 -0.000677479 0)
(0.00451861 -0.000690255 0)
(0.00450032 -0.000702242 0)
(0.00448194 -0.000713375 0)
(0.00446349 -0.000723597 0)
(0.00444505 -0.00073286 0)
(0.00442666 -0.000741123 0)
(0.00440839 -0.000748362 0)
(0.00439031 -0.000754573 0)
(0.00437247 -0.000759768 0)
(0.00435493 -0.000763969 0)
(0.00433774 -0.000767213 0)
(0.00432096 -0.000769544 0)
(0.00430463 -0.000771013 0)
(0.0042888 -0.000771682 0)
(0.00427352 -0.000771619 0)
(0.00425882 -0.000770908 0)
(0.00424477 -0.000769648 0)
(0.00423139 -0.000767962 0)
(0.00421872 -0.000765984 0)
(0.00420677 -0.000763863 0)
(0.00419554 -0.000761756 0)
(0.00418502 -0.000759825 0)
(0.00417508 -0.000758233 0)
(0.00416501 -0.000757155 0)
(0.0041547 -0.000757067 0)
(0.005 -6.47219e-07 0)
(0.00499994 -2.03454e-06 0)
(0.00499982 -3.51308e-06 0)
(0.00499964 -5.07719e-06 0)
(0.0049994 -6.72764e-06 0)
(0.00499911 -8.46763e-06 0)
(0.00499876 -1.03018e-05 0)
(0.00499836 -1.22356e-05 0)
(0.00499791 -1.42753e-05 0)
(0.0049974 -1.64274e-05 0)
(0.00499683 -1.86985e-05 0)
(0.0049962 -2.10955e-05 0)
(0.00499551 -2.36255e-05 0)
(0.00499474 -2.62955e-05 0)
(0.0049939 -2.91128e-05 0)
(0.00499299 -3.20846e-05 0)
(0.004992 -3.52184e-05 0)
(0.00499091 -3.85216e-05 0)
(0.00498974 -4.2002e-05 0)
(0.00498848 -4.56671e-05 0)
(0.00498711 -4.95249e-05 0)
(0.00498564 -5.35833e-05 0)
(0.00498405 -5.78503e-05 0)
(0.00498234 -6.2334e-05 0)
(0.00498051 -6.70428e-05 0)
(0.00497855 -7.19848e-05 0)
(0.00497645 -7.71684e-05 0)
(0.0049742 -8.26021e-05 0)
(0.0049718 -8.82942e-05 0)
(0.00496924 -9.42532e-05 0)
(0.00496651 -0.000100488 0)
(0.0049636 -0.000107006 0)
(0.00496051 -0.000113815 0)
(0.00495722 -0.000120926 0)
(0.00495373 -0.000128344 0)
(0.00495003 -0.000136078 0)
(0.0049461 -0.000144136 0)
(0.00494195 -0.000152525 0)
(0.00493755 -0.000161251 0)
(0.00493289 -0.000170322 0)
(0.00492798 -0.000179743 0)
(0.00492279 -0.00018952 0)
(0.00491732 -0.000199658 0)
(0.00491155 -0.000210161 0)
(0.00490547 -0.000221031 0)
(0.00489908 -0.000232272 0)
(0.00489236 -0.000243884 0)
(0.00488529 -0.000255868 0)
(0.00487788 -0.000268223 0)
(0.0048701 -0.000280945 0)
(0.00486195 -0.00029403 0)
(0.00485342 -0.000307472 0)
(0.00484449 -0.000321263 0)
(0.00483516 -0.000335392 0)
(0.00482541 -0.000349847 0)
(0.00481524 -0.000364613 0)
(0.00480464 -0.000379671 0)
(0.0047936 -0.000395001 0)
(0.00478211 -0.000410578 0)
(0.00477018 -0.000426375 0)
(0.00475779 -0.000442361 0)
(0.00474495 -0.0004585 0)
(0.00473166 -0.000474755 0)
(0.00471791 -0.000491082 0)
(0.00470371 -0.000507435 0)
(0.00468908 -0.000523762 0)
(0.00467401 -0.00054001 0)
(0.00465852 -0.000556119 0)
(0.00464263 -0.000572028 0)
(0.00462635 -0.000587672 0)
(0.00460971 -0.000602983 0)
(0.00459273 -0.000617892 0)
(0.00457544 -0.000632328 0)
(0.00455787 -0.000646222 0)
(0.00454007 -0.000659502 0)
(0.00452206 -0.000672101 0)
(0.00450389 -0.000683955 0)
(0.00448562 -0.000695005 0)
(0.00446728 -0.000705195 0)
(0.00444893 -0.000714482 0)
(0.00443063 -0.000722828 0)
(0.00441244 -0.000730213 0)
(0.00439441 -0.000736629 0)
(0.00437661 -0.000742086 0)
(0.00435908 -0.000746603 0)
(0.00434188 -0.000750213 0)
(0.00432505 -0.000752958 0)
(0.00430865 -0.000754886 0)
(0.00429271 -0.000756059 0)
(0.00427728 -0.000756545 0)
(0.0042624 -0.000756426 0)
(0.0042481 -0.000755797 0)
(0.00423443 -0.00075477 0)
(0.00422138 -0.000753467 0)
(0.00420898 -0.00075202 0)
(0.00419721 -0.000750564 0)
(0.00418607 -0.000749234 0)
(0.00417541 -0.000748157 0)
(0.00416454 -0.000747457 0)
(0.0041531 -0.00074758 0)
(0.005 -6.18208e-07 0)
(0.00499994 -1.94638e-06 0)
(0.00499983 -3.36645e-06 0)
(0.00499966 -4.8738e-06 0)
(0.00499943 -6.46903e-06 0)
(0.00499915 -8.15471e-06 0)
(0.00499882 -9.93466e-06 0)
(0.00499843 -1.18137e-05 0)
(0.00499798 -1.37971e-05 0)
(0.00499748 -1.5891e-05 0)
(0.00499692 -1.81014e-05 0)
(0.00499629 -2.04348e-05 0)
(0.0049956 -2.28979e-05 0)
(0.00499484 -2.54973e-05 0)
(0.00499401 -2.82401e-05 0)
(0.00499311 -3.11333e-05 0)
(0.00499212 -3.41839e-05 0)
(0.00499104 -3.73992e-05 0)
(0.00498988 -4.07866e-05 0)
(0.00498862 -4.43537e-05 0)
(0.00498726 -4.81078e-05 0)
(0.0049858 -5.20569e-05 0)
(0.00498422 -5.62085e-05 0)
(0.00498252 -6.05707e-05 0)
(0.0049807 -6.51514e-05 0)
(0.00497875 -6.99586e-05 0)
(0.00497666 -7.50005e-05 0)
(0.00497443 -8.02851e-05 0)
(0.00497204 -8.58206e-05 0)
(0.0049695 -9.16152e-05 0)
(0.00496679 -9.76771e-05 0)
(0.0049639 -0.000104014 0)
(0.00496082 -0.000110635 0)
(0.00495756 -0.000117547 0)
(0.00495409 -0.000124757 0)
(0.00495041 -0.000132275 0)
(0.00494651 -0.000140106 0)
(0.00494238 -0.000148259 0)
(0.00493801 -0.000156739 0)
(0.00493338 -0.000165553 0)
(0.0049285 -0.000174707 0)
(0.00492335 -0.000184206 0)
(0.00491791 -0.000194055 0)
(0.00491218 -0.000204258 0)
(0.00490615 -0.000214818 0)
(0.0048998 -0.000225737 0)
(0.00489313 -0.000237016 0)
(0.00488612 -0.000248655 0)
(0.00487876 -0.000260654 0)
(0.00487104 -0.00027301 0)
(0.00486295 -0.000285717 0)
(0.00485448 -0.000298772 0)
(0.00484562 -0.000312165 0)
(0.00483636 -0.000325886 0)
(0.00482669 -0.000339925 0)
(0.0048166 -0.000354266 0)
(0.00480608 -0.000368891 0)
(0.00479513 -0.000383782 0)
(0.00478374 -0.000398915 0)
(0.00477191 -0.000414263 0)
(0.00475963 -0.000429798 0)
(0.00474689 -0.000445485 0)
(0.00473371 -0.000461288 0)
(0.00472008 -0.000477167 0)
(0.00470601 -0.000493077 0)
(0.0046915 -0.00050897 0)
(0.00467656 -0.000524793 0)
(0.0046612 -0.000540492 0)
(0.00464544 -0.000556008 0)
(0.0046293 -0.000571278 0)
(0.0046128 -0.000586239 0)
(0.00459596 -0.000600824 0)
(0.00457881 -0.000614967 0)
(0.00456139 -0.000628601 0)
(0.00454372 -0.00064166 0)
(0.00452584 -0.000654078 0)
(0.00450781 -0.000665795 0)
(0.00448965 -0.000676754 0)
(0.00447143 -0.000686905 0)
(0.00445318 -0.000696205 0)
(0.00443498 -0.000704621 0)
(0.00441686 -0.000712134 0)
(0.00439889 -0.000718735 0)
(0.00438112 -0.00072443 0)
(0.0043636 -0.000729237 0)
(0.00434638 -0.000733184 0)
(0.0043295 -0.000736312 0)
(0.00431302 -0.000738666 0)
(0.00429696 -0.000740307 0)
(0.00428137 -0.0007413 0)
(0.00426628 -0.000741724 0)
(0.00425173 -0.000741669 0)
(0.00423774 -0.000741237 0)
(0.00422432 -0.000740538 0)
(0.00421147 -0.000739687 0)
(0.00419917 -0.0007388 0)
(0.00418743 -0.000737989 0)
(0.00417608 -0.00073735 0)
(0.00416448 -0.000736977 0)
(0.00415203 -0.00073723 0)
(0.005 -5.91464e-07 0)
(0.00499995 -1.86422e-06 0)
(0.00499984 -3.22837e-06 0)
(0.00499968 -4.68027e-06 0)
(0.00499946 -6.22068e-06 0)
(0.00499919 -7.85183e-06 0)
(0.00499887 -9.57706e-06 0)
(0.00499849 -1.14005e-05 0)
(0.00499805 -1.33271e-05 0)
(0.00499756 -1.53622e-05 0)
(0.004997 -1.75115e-05 0)
(0.00499638 -1.9781e-05 0)
(0.0049957 -2.2177e-05 0)
(0.00499495 -2.47058e-05 0)
(0.00499413 -2.73742e-05 0)
(0.00499323 -3.01888e-05 0)
(0.00499224 -3.31565e-05 0)
(0.00499118 -3.62842e-05 0)
(0.00499002 -3.95792e-05 0)
(0.00498877 -4.30485e-05 0)
(0.00498742 -4.66996e-05 0)
(0.00498597 -5.054e-05 0)
(0.0049844 -5.4577e-05 0)
(0.00498271 -5.88184e-05 0)
(0.00498091 -6.32719e-05 0)
(0.00497897 -6.79452e-05 0)
(0.00497689 -7.28462e-05 0)
(0.00497467 -7.79828e-05 0)
(0.0049723 -8.33629e-05 0)
(0.00496978 -8.89943e-05 0)
(0.00496708 -9.48849e-05 0)
(0.00496421 -0.000101043 0)
(0.00496116 -0.000107475 0)
(0.00495791 -0.00011419 0)
(0.00495447 -0.000121195 0)
(0.00495082 -0.000128498 0)
(0.00494694 -0.000136105 0)
(0.00494284 -0.000144023 0)
(0.0049385 -0.000152259 0)
(0.00493391 -0.000160818 0)
(0.00492907 -0.000169707 0)
(0.00492395 -0.000178931 0)
(0.00491856 -0.000188494 0)
(0.00491287 -0.000198399 0)
(0.00490689 -0.000208651 0)
(0.00490059 -0.000219251 0)
(0.00489397 -0.0002302 0)
(0.00488701 -0.000241498 0)
(0.00487971 -0.000253145 0)
(0.00487206 -0.000265137 0)
(0.00486403 -0.000277471 0)
(0.00485563 -0.000290142 0)
(0.00484685 -0.000303141 0)
(0.00483767 -0.000316459 0)
(0.00482808 -0.000330085 0)
(0.00481807 -0.000344006 0)
(0.00480765 -0.000358203 0)
(0.00479679 -0.00037266 0)
(0.00478551 -0.000387353 0)
(0.00477378 -0.000402257 0)
(0.0047616 -0.000417345 0)
(0.00474899 -0.000432585 0)
(0.00473593 -0.000447942 0)
(0.00472242 -0.000463378 0)
(0.00470848 -0.000478849 0)
(0.0046941 -0.000494311 0)
(0.0046793 -0.000509714 0)
(0.00466409 -0.000525006 0)
(0.00464848 -0.00054013 0)
(0.00463248 -0.000555029 0)
(0.00461613 -0.000569641 0)
(0.00459944 -0.000583903 0)
(0.00458244 -0.000597752 0)
(0.00456516 -0.000611125 0)
(0.00454764 -0.000623958 0)
(0.0045299 -0.00063619 0)
(0.004512 -0.000647764 0)
(0.00449398 -0.000658625 0)
(0.00447587 -0.000668727 0)
(0.00445774 -0.000678029 0)
(0.00443962 -0.000686501 0)
(0.00442158 -0.000694123 0)
(0.00440367 -0.000700886 0)
(0.00438593 -0.000706794 0)
(0.00436841 -0.000711863 0)
(0.00435117 -0.000716119 0)
(0.00433424 -0.000719597 0)
(0.00431767 -0.000722343 0)
(0.00430148 -0.000724413 0)
(0.00428573 -0.00072587 0)
(0.00427043 -0.000726789 0)
(0.00425562 -0.000727253 0)
(0.00424131 -0.000727356 0)
(0.00422751 -0.000727194 0)
(0.00421422 -0.000726871 0)
(0.00420141 -0.000726484 0)
(0.0041891 -0.000726125 0)
(0.00417712 -0.000725865 0)
(0.00416484 -0.00072577 0)
(0.00415146 -0.000726027 0)
(0.005 -5.66491e-07 0)
(0.00499995 -1.78699e-06 0)
(0.00499985 -3.09762e-06 0)
(0.0049997 -4.4956e-06 0)
(0.00499949 -5.98194e-06 0)
(0.00499923 -7.55878e-06 0)
(0.00499891 -9.22913e-06 0)
(0.00499854 -1.09968e-05 0)
(0.00499811 -1.28661e-05 0)
(0.00499763 -1.4842e-05 0)
(0.00499708 -1.69298e-05 0)
(0.00499647 -1.91351e-05 0)
(0.0049958 -2.14638e-05 0)
(0.00499506 -2.3922e-05 0)
(0.00499424 -2.65159e-05 0)
(0.00499335 -2.92521e-05 0)
(0.00499238 -3.21371e-05 0)
(0.00499132 -3.51776e-05 0)
(0.00499017 -3.83804e-05 0)
(0.00498893 -4.17527e-05 0)
(0.00498759 -4.53013e-05 0)
(0.00498614 -4.90335e-05 0)
(0.00498459 -5.29566e-05 0)
(0.00498292 -5.7078e-05 0)
(0.00498112 -6.14052e-05 0)
(0.0049792 -6.59455e-05 0)
(0.00497714 -7.07067e-05 0)
(0.00497493 -7.56964e-05 0)
(0.00497258 -8.09221e-05 0)
(0.00497007 -8.63916e-05 0)
(0.00496739 -9.21124e-05 0)
(0.00496455 -9.80921e-05 0)
(0.00496152 -0.000104338 0)
(0.0049583 -0.000110858 0)
(0.00495488 -0.000117659 0)
(0.00495125 -0.000124748 0)
(0.00494741 -0.000132133 0)
(0.00494334 -0.000139818 0)
(0.00493903 -0.000147812 0)
(0.00493448 -0.000156119 0)
(0.00492967 -0.000164746 0)
(0.0049246 -0.000173697 0)
(0.00491925 -0.000182976 0)
(0.00491361 -0.000192587 0)
(0.00490767 -0.000202534 0)
(0.00490143 -0.000212817 0)
(0.00489486 -0.000223439 0)
(0.00488797 -0.0002344 0)
(0.00488073 -0.000245698 0)
(0.00487314 -0.000257331 0)
(0.00486519 -0.000269296 0)
(0.00485686 -0.000281586 0)
(0.00484815 -0.000294196 0)
(0.00483905 -0.000307115 0)
(0.00482955 -0.000320333 0)
(0.00481964 -0.000333838 0)
(0.00480932 -0.000347612 0)
(0.00479856 -0.000361639 0)
(0.00478738 -0.000375897 0)
(0.00477577 -0.000390363 0)
(0.00476371 -0.00040501 0)
(0.00475122 -0.000419807 0)
(0.00473828 -0.000434723 0)
(0.00472491 -0.00044972 0)
(0.00471111 -0.000464757 0)
(0.00469687 -0.000479793 0)
(0.00468222 -0.00049478 0)
(0.00466715 -0.000509667 0)
(0.00465169 -0.000524403 0)
(0.00463585 -0.000538932 0)
(0.00461966 -0.000553195 0)
(0.00460312 -0.000567135 0)
(0.00458628 -0.000580689 0)
(0.00456915 -0.000593798 0)
(0.00455178 -0.000606403 0)
(0.00453419 -0.000618444 0)
(0.00451643 -0.000629868 0)
(0.00449854 -0.000640623 0)
(0.00448056 -0.000650665 0)
(0.00446253 -0.000659956 0)
(0.00444452 -0.000668467 0)
(0.00442655 -0.000676178 0)
(0.00440869 -0.00068308 0)
(0.00439098 -0.000689176 0)
(0.00437347 -0.000694479 0)
(0.0043562 -0.000699012 0)
(0.00433922 -0.000702809 0)
(0.00432255 -0.000705911 0)
(0.00430624 -0.000708371 0)
(0.00429032 -0.000710249 0)
(0.00427481 -0.000711616 0)
(0.00425974 -0.000712547 0)
(0.00424511 -0.000713127 0)
(0.00423094 -0.000713444 0)
(0.00421721 -0.000713586 0)
(0.00420392 -0.000713639 0)
(0.00419107 -0.000713676 0)
(0.00417849 -0.000713751 0)
(0.00416555 -0.000713898 0)
(0.00415143 -0.000714062 0)
(0.005 -5.42957e-07 0)
(0.00499995 -1.71389e-06 0)
(0.00499986 -2.9732e-06 0)
(0.00499971 -4.31886e-06 0)
(0.00499951 -5.75214e-06 0)
(0.00499926 -7.27517e-06 0)
(0.00499895 -8.89079e-06 0)
(0.00499859 -1.06025e-05 0)
(0.00499817 -1.24143e-05 0)
(0.0049977 -1.43308e-05 0)
(0.00499716 -1.63569e-05 0)
(0.00499656 -1.84978e-05 0)
(0.0049959 -2.07592e-05 0)
(0.00499516 -2.31467e-05 0)
(0.00499436 -2.56663e-05 0)
(0.00499347 -2.83242e-05 0)
(0.00499251 -3.11268e-05 0)
(0.00499146 -3.40803e-05 0)
(0.00499032 -3.71915e-05 0)
(0.00498909 -4.0467e-05 0)
(0.00498776 -4.39137e-05 0)
(0.00498633 -4.75385e-05 0)
(0.00498479 -5.13485e-05 0)
(0.00498313 -5.53507e-05 0)
(0.00498135 -5.95523e-05 0)
(0.00497944 -6.39607e-05 0)
(0.00497739 -6.85832e-05 0)
(0.00497521 -7.3427e-05 0)
(0.00497287 -7.84997e-05 0)
(0.00497038 -8.38085e-05 0)
(0.00496773 -8.93608e-05 0)
(0.0049649 -9.5164e-05 0)
(0.00496189 -0.000101225 0)
(0.0049587 -0.000107552 0)
(0.00495531 -0.000114151 0)
(0.00495171 -0.000121029 0)
(0.0049479 -0.000128192 0)
(0.00494386 -0.000135648 0)
(0.00493959 -0.000143401 0)
(0.00493508 -0.000151459 0)
(0.00493031 -0.000159825 0)
(0.00492528 -0.000168506 0)
(0.00491998 -0.000177504 0)
(0.00491439 -0.000186824 0)
(0.0049085 -0.000196468 0)
(0.00490231 -0.000206439 0)
(0.00489581 -0.000216738 0)
(0.00488897 -0.000227364 0)
(0.0048818 -0.000238318 0)
(0.00487428 -0.000249595 0)
(0.0048664 -0.000261194 0)
(0.00485816 -0.000273109 0)
(0.00484953 -0.000285333 0)
(0.00484052 -0.000297858 0)
(0.00483111 -0.000310674 0)
(0.0048213 -0.000323767 0)
(0.00481107 -0.000337124 0)