/*--------------------------------*- C++ -*----------------------------------*\
  =========                 |
  \\      /  F ield         | OpenFOAM: The Open Source CFD Toolbox
   \\    /   O peration     | Website:  https://openfoam.org
    \\  /    A nd           | Version:  11
     \\/     M anipulation  |
\*---------------------------------------------------------------------------*/
FoamFile
{
    format      ascii;
    class       volScalarField;
    location    "438";
    object      k;
}
// * * * * * * * * * * * * * * * * * * * * * * * * * * * * * * * * * * * * * //

dimensions      [0 2 -2 0 0 0 0];

internalField   nonuniform List<scalar> 
10000
(
0.000939686
0.000835713
0.000745881
0.00066802
0.000600321
0.000541274
0.000489613
0.000444276
0.000404369
0.000369136
0.000337939
0.000310237
0.000285567
0.000263539
0.000243815
0.000226108
0.000210171
0.00019579
0.000182782
0.000170988
0.00016027
0.000150507
0.000141594
0.000133441
0.000125967
0.000119101
0.000112783
0.000106956
0.000101573
9.65914e-05
9.1973e-05
8.7684e-05
8.36945e-05
7.99777e-05
7.65096e-05
7.32686e-05
7.02356e-05
6.73932e-05
6.47257e-05
6.22192e-05
5.98608e-05
5.76392e-05
5.55438e-05
5.35652e-05
5.16949e-05
4.99251e-05
4.82486e-05
4.6659e-05
4.51504e-05
4.37175e-05
4.23554e-05
4.10596e-05
3.98262e-05
3.86513e-05
3.75317e-05
3.64642e-05
3.54462e-05
3.44752e-05
3.35488e-05
3.26651e-05
3.18222e-05
3.10186e-05
3.02528e-05
2.95235e-05
2.88296e-05
2.81701e-05
2.75442e-05
2.69511e-05
2.639e-05
2.58606e-05
2.5362e-05
2.4894e-05
2.44559e-05
2.40472e-05
2.36674e-05
2.33159e-05
2.29921e-05
2.26952e-05
2.24245e-05
2.2179e-05
2.19577e-05
2.17598e-05
2.1584e-05
2.14291e-05
2.12938e-05
2.11767e-05
2.10762e-05
2.09908e-05
2.09191e-05
2.08596e-05
2.08108e-05
2.07712e-05
2.07394e-05
2.07141e-05
2.06939e-05
2.06777e-05
2.06644e-05
2.06533e-05
2.06443e-05
2.06376e-05
0.000939686
0.000835713
0.000745881
0.00066802
0.000600321
0.000541274
0.000489613
0.000444276
0.000404369
0.000369136
0.000337939
0.000310237
0.000285568
0.000263539
0.000243815
0.000226108
0.000210171
0.00019579
0.000182783
0.000170988
0.00016027
0.000150507
0.000141595
0.000133441
0.000125967
0.000119102
0.000112783
0.000106956
0.000101573
9.65917e-05
9.19733e-05
8.76843e-05
8.36949e-05
7.99781e-05
7.65099e-05
7.3269e-05
7.0236e-05
6.73936e-05
6.47261e-05
6.22196e-05
5.98613e-05
5.76396e-05
5.55442e-05
5.35657e-05
5.16954e-05
4.99256e-05
4.82491e-05
4.66595e-05
4.5151e-05
4.37181e-05
4.2356e-05
4.10603e-05
3.98268e-05
3.86519e-05
3.75323e-05
3.64649e-05
3.54469e-05
3.44759e-05
3.35496e-05
3.26659e-05
3.18231e-05
3.10195e-05
3.02537e-05
2.95244e-05
2.88305e-05
2.8171e-05
2.75451e-05
2.6952e-05
2.6391e-05
2.58615e-05
2.5363e-05
2.48949e-05
2.44568e-05
2.40481e-05
2.36683e-05
2.33168e-05
2.29929e-05
2.2696e-05
2.24253e-05
2.21798e-05
2.19586e-05
2.17607e-05
2.15848e-05
2.14299e-05
2.12945e-05
2.11772e-05
2.10766e-05
2.09911e-05
2.09193e-05
2.08597e-05
2.08109e-05
2.07712e-05
2.07394e-05
2.07141e-05
2.06939e-05
2.06776e-05
2.06643e-05
2.06533e-05
2.06442e-05
2.06376e-05
0.000939686
0.000835714
0.000745882
0.00066802
0.000600321
0.000541274
0.000489614
0.000444277
0.000404369
0.000369137
0.00033794
0.000310237
0.000285568
0.00026354
0.000243816
0.000226109
0.000210171
0.000195791
0.000182783
0.000170989
0.000160271
0.000150507
0.000141595
0.000133442
0.000125968
0.000119102
0.000112784
0.000106957
0.000101574
9.65924e-05
9.19739e-05
8.7685e-05
8.36955e-05
7.99787e-05
7.65106e-05
7.32697e-05
7.02367e-05
6.73943e-05
6.47269e-05
6.22204e-05
5.9862e-05
5.76404e-05
5.55451e-05
5.35665e-05
5.16962e-05
4.99264e-05
4.825e-05
4.66604e-05
4.51519e-05
4.3719e-05
4.2357e-05
4.10612e-05
3.98278e-05
3.8653e-05
3.75334e-05
3.6466e-05
3.5448e-05
3.4477e-05
3.35507e-05
3.26671e-05
3.18242e-05
3.10207e-05
3.02549e-05
2.95256e-05
2.88317e-05
2.81723e-05
2.75463e-05
2.69532e-05
2.63922e-05
2.58627e-05
2.53641e-05
2.4896e-05
2.44579e-05
2.40491e-05
2.36693e-05
2.33177e-05
2.29938e-05
2.26968e-05
2.2426e-05
2.21805e-05
2.19592e-05
2.17613e-05
2.15854e-05
2.14303e-05
2.12948e-05
2.11774e-05
2.10767e-05
2.09911e-05
2.09193e-05
2.08596e-05
2.08107e-05
2.0771e-05
2.07392e-05
2.07138e-05
2.06937e-05
2.06774e-05
2.06642e-05
2.06531e-05
2.06441e-05
2.06374e-05
0.000939686
0.000835714
0.000745882
0.000668021
0.000600322
0.000541275
0.000489614
0.000444277
0.00040437
0.000369138
0.000337941
0.000310238
0.000285569
0.00026354
0.000243817
0.00022611
0.000210172
0.000195792
0.000182784
0.00017099
0.000160271
0.000150508
0.000141596
0.000133443
0.000125969
0.000119103
0.000112784
0.000106958
0.000101575
9.65933e-05
9.19749e-05
8.7686e-05
8.36965e-05
7.99797e-05
7.65116e-05
7.32707e-05
7.02377e-05
6.73953e-05
6.47279e-05
6.22215e-05
5.98632e-05
5.76416e-05
5.55462e-05
5.35677e-05
5.16975e-05
4.99277e-05
4.82512e-05
4.66617e-05
4.51532e-05
4.37204e-05
4.23583e-05
4.10627e-05
3.98292e-05
3.86544e-05
3.75349e-05
3.64675e-05
3.54496e-05
3.44786e-05
3.35523e-05
3.26687e-05
3.18259e-05
3.10223e-05
3.02565e-05
2.95272e-05
2.88333e-05
2.81739e-05
2.75479e-05
2.69548e-05
2.63937e-05
2.58642e-05
2.53656e-05
2.48974e-05
2.44592e-05
2.40503e-05
2.36704e-05
2.33188e-05
2.29948e-05
2.26977e-05
2.24268e-05
2.21812e-05
2.19598e-05
2.17617e-05
2.15857e-05
2.14306e-05
2.12949e-05
2.11774e-05
2.10766e-05
2.09909e-05
2.0919e-05
2.08593e-05
2.08104e-05
2.07707e-05
2.07388e-05
2.07135e-05
2.06933e-05
2.06771e-05
2.06639e-05
2.06528e-05
2.06438e-05
2.06372e-05
0.000939686
0.000835714
0.000745882
0.000668021
0.000600322
0.000541276
0.000489615
0.000444278
0.000404371
0.000369138
0.000337942
0.000310239
0.00028557
0.000263541
0.000243818
0.000226111
0.000210173
0.000195793
0.000182785
0.000170991
0.000160273
0.000150509
0.000141597
0.000133444
0.00012597
0.000119104
0.000112786
0.000106959
0.000101576
9.65945e-05
9.19761e-05
8.76872e-05
8.36978e-05
7.9981e-05
7.65129e-05
7.3272e-05
7.02391e-05
6.73967e-05
6.47294e-05
6.22229e-05
5.98646e-05
5.76431e-05
5.55478e-05
5.35693e-05
5.16991e-05
4.99293e-05
4.82529e-05
4.66634e-05
4.51549e-05
4.37222e-05
4.23602e-05
4.10645e-05
3.98311e-05
3.86563e-05
3.75368e-05
3.64695e-05
3.54516e-05
3.44806e-05
3.35544e-05
3.26707e-05
3.18279e-05
3.10244e-05
3.02586e-05
2.95293e-05
2.88354e-05
2.81759e-05
2.755e-05
2.69568e-05
2.63957e-05
2.58661e-05
2.53674e-05
2.48991e-05
2.44608e-05
2.40519e-05
2.36718e-05
2.332e-05
2.29959e-05
2.26987e-05
2.24277e-05
2.21819e-05
2.19604e-05
2.17622e-05
2.15861e-05
2.14308e-05
2.1295e-05
2.11773e-05
2.10764e-05
2.09907e-05
2.09187e-05
2.08589e-05
2.08099e-05
2.07702e-05
2.07383e-05
2.0713e-05
2.06928e-05
2.06767e-05
2.06634e-05
2.06525e-05
2.06434e-05
2.06368e-05
0.000939686
0.000835714
0.000745883
0.000668022
0.000600323
0.000541276
0.000489616
0.000444279
0.000404372
0.000369139
0.000337943
0.00031024
0.000285571
0.000263543
0.000243819
0.000226112
0.000210175
0.000195794
0.000182786
0.000170992
0.000160274
0.000150511
0.000141598
0.000133445
0.000125971
0.000119106
0.000112787
0.00010696
0.000101578
9.6596e-05
9.19776e-05
8.76887e-05
8.36993e-05
7.99826e-05
7.65145e-05
7.32737e-05
7.02408e-05
6.73984e-05
6.47311e-05
6.22247e-05
5.98664e-05
5.76449e-05
5.55496e-05
5.35712e-05
5.1701e-05
4.99313e-05
4.82549e-05
4.66655e-05
4.51571e-05
4.37243e-05
4.23624e-05
4.10668e-05
3.98334e-05
3.86587e-05
3.75392e-05
3.64719e-05
3.5454e-05
3.44831e-05
3.35569e-05
3.26733e-05
3.18305e-05
3.1027e-05
3.02612e-05
2.95319e-05
2.8838e-05
2.81785e-05
2.75524e-05
2.69592e-05
2.6398e-05
2.58683e-05
2.53696e-05
2.49012e-05
2.44628e-05
2.40537e-05
2.36735e-05
2.33215e-05
2.29972e-05
2.26999e-05
2.24287e-05
2.21827e-05
2.19611e-05
2.17627e-05
2.15863e-05
2.14309e-05
2.12949e-05
2.11771e-05
2.10761e-05
2.09902e-05
2.09182e-05
2.08583e-05
2.08093e-05
2.07695e-05
2.07377e-05
2.07123e-05
2.06922e-05
2.06761e-05
2.06629e-05
2.06519e-05
2.06429e-05
2.06363e-05
0.000939686
0.000835714
0.000745883
0.000668022
0.000600324
0.000541277
0.000489617
0.00044428
0.000404373
0.000369141
0.000337944
0.000310242
0.000285573
0.000263544
0.00024382
0.000226113
0.000210176
0.000195796
0.000182788
0.000170994
0.000160275
0.000150512
0.0001416
0.000133447
0.000125973
0.000119107
0.000112789
0.000106962
0.000101579
9.65977e-05
9.19794e-05
8.76905e-05
8.37011e-05
7.99844e-05
7.65164e-05
7.32756e-05
7.02427e-05
6.74004e-05
6.47331e-05
6.22267e-05
5.98685e-05
5.76471e-05
5.55518e-05
5.35735e-05
5.17033e-05
4.99337e-05
4.82574e-05
4.6668e-05
4.51596e-05
4.37269e-05
4.2365e-05
4.10694e-05
3.98361e-05
3.86615e-05
3.7542e-05
3.64748e-05
3.54569e-05
3.44861e-05
3.35598e-05
3.26763e-05
3.18335e-05
3.103e-05
3.02642e-05
2.95349e-05
2.8841e-05
2.81814e-05
2.75553e-05
2.6962e-05
2.64008e-05
2.5871e-05
2.53721e-05
2.49036e-05
2.4465e-05
2.40558e-05
2.36754e-05
2.33232e-05
2.29987e-05
2.27012e-05
2.24297e-05
2.21836e-05
2.19617e-05
2.17631e-05
2.15866e-05
2.14309e-05
2.12948e-05
2.11769e-05
2.10756e-05
2.09897e-05
2.09175e-05
2.08576e-05
2.08085e-05
2.07687e-05
2.07369e-05
2.07116e-05
2.06914e-05
2.06753e-05
2.06622e-05
2.06512e-05
2.06422e-05
2.06356e-05
0.000939686
0.000835714
0.000745883
0.000668023
0.000600324
0.000541278
0.000489618
0.000444281
0.000404374
0.000369142
0.000337945
0.000310243
0.000285574
0.000263546
0.000243822
0.000226115
0.000210178
0.000195797
0.00018279
0.000170996
0.000160277
0.000150514
0.000141602
0.000133449
0.000125975
0.000119109
0.000112791
0.000106964
0.000101581
9.65997e-05
9.19814e-05
8.76925e-05
8.37032e-05
7.99865e-05
7.65186e-05
7.32778e-05
7.02449e-05
6.74027e-05
6.47354e-05
6.22291e-05
5.9871e-05
5.76495e-05
5.55544e-05
5.3576e-05
5.1706e-05
4.99364e-05
4.82601e-05
4.66708e-05
4.51625e-05
4.37298e-05
4.2368e-05
4.10725e-05
3.98393e-05
3.86646e-05
3.75452e-05
3.6478e-05
3.54603e-05
3.44894e-05
3.35632e-05
3.26797e-05
3.1837e-05
3.10334e-05
3.02676e-05
2.95383e-05
2.88444e-05
2.81848e-05
2.75586e-05
2.69652e-05
2.64039e-05
2.5874e-05
2.5375e-05
2.49063e-05
2.44675e-05
2.40581e-05
2.36775e-05
2.33252e-05
2.30004e-05
2.27026e-05
2.24309e-05
2.21845e-05
2.19624e-05
2.17636e-05
2.15868e-05
2.14309e-05
2.12946e-05
2.11765e-05
2.10751e-05
2.0989e-05
2.09167e-05
2.08567e-05
2.08076e-05
2.07678e-05
2.07359e-05
2.07106e-05
2.06905e-05
2.06744e-05
2.06613e-05
2.06504e-05
2.06414e-05
2.06347e-05
0.000939686
0.000835715
0.000745883
0.000668023
0.000600325
0.000541278
0.000489618
0.000444282
0.000404375
0.000369143
0.000337947
0.000310244
0.000285575
0.000263547
0.000243823
0.000226117
0.000210179
0.000195799
0.000182791
0.000170997
0.000160279
0.000150516
0.000141604
0.000133451
0.000125977
0.000119111
0.000112793
0.000106966
0.000101583
9.66019e-05
9.19836e-05
8.76948e-05
8.37055e-05
7.99889e-05
7.65209e-05
7.32802e-05
7.02474e-05
6.74052e-05
6.4738e-05
6.22318e-05
5.98737e-05
5.76523e-05
5.55572e-05
5.35789e-05
5.17089e-05
4.99394e-05
4.82632e-05
4.66739e-05
4.51657e-05
4.37331e-05
4.23713e-05
4.10759e-05
3.98427e-05
3.86682e-05
3.75489e-05
3.64817e-05
3.5464e-05
3.44932e-05
3.3567e-05
3.26835e-05
3.18408e-05
3.10373e-05
3.02715e-05
2.95422e-05
2.88482e-05
2.81885e-05
2.75623e-05
2.69688e-05
2.64074e-05
2.58773e-05
2.53782e-05
2.49093e-05
2.44703e-05
2.40607e-05
2.36799e-05
2.33273e-05
2.30023e-05
2.27042e-05
2.24322e-05
2.21855e-05
2.19632e-05
2.1764e-05
2.1587e-05
2.14309e-05
2.12944e-05
2.1176e-05
2.10745e-05
2.09882e-05
2.09158e-05
2.08557e-05
2.08065e-05
2.07667e-05
2.07348e-05
2.07095e-05
2.06894e-05
2.06734e-05
2.06603e-05
2.06494e-05
2.06404e-05
2.06337e-05
0.000939686
0.000835715
0.000745884
0.000668023
0.000600325
0.000541279
0.000489619
0.000444283
0.000404376
0.000369144
0.000337948
0.000310246
0.000285577
0.000263549
0.000243825
0.000226118
0.000210181
0.000195801
0.000182793
0.000170999
0.000160281
0.000150518
0.000141606
0.000133453
0.000125979
0.000119113
0.000112795
0.000106968
0.000101586
9.66042e-05
9.1986e-05
8.76973e-05
8.3708e-05
7.99914e-05
7.65235e-05
7.32829e-05
7.02501e-05
6.7408e-05
6.47409e-05
6.22347e-05
5.98766e-05
5.76553e-05
5.55603e-05
5.35821e-05
5.17122e-05
4.99427e-05
4.82666e-05
4.66774e-05
4.51692e-05
4.37367e-05
4.2375e-05
4.10797e-05
3.98466e-05
3.86721e-05
3.75528e-05
3.64858e-05
3.54681e-05
3.44973e-05
3.35712e-05
3.26877e-05
3.1845e-05
3.10415e-05
3.02757e-05
2.95464e-05
2.88523e-05
2.81926e-05
2.75664e-05
2.69728e-05
2.64112e-05
2.5881e-05
2.53816e-05
2.49126e-05
2.44734e-05
2.40635e-05
2.36824e-05
2.33296e-05
2.30043e-05
2.27059e-05
2.24336e-05
2.21866e-05
2.19639e-05
2.17645e-05
2.15872e-05
2.14308e-05
2.1294e-05
2.11755e-05
2.10737e-05
2.09873e-05
2.09148e-05
2.08546e-05
2.08053e-05
2.07654e-05
2.07335e-05
2.07082e-05
2.06882e-05
2.06721e-05
2.06591e-05
2.06482e-05
2.06392e-05
2.06324e-05
0.000939686
0.000835715
0.000745884
0.000668024
0.000600326
0.00054128
0.00048962
0.000444284
0.000404378
0.000369146
0.000337949
0.000310247
0.000285579
0.00026355
0.000243827
0.00022612
0.000210183
0.000195803
0.000182795
0.000171001
0.000160283
0.00015052
0.000141608
0.000133455
0.000125981
0.000119116
0.000112797
0.000106971
0.000101588
9.66068e-05
9.19886e-05
8.76999e-05
8.37107e-05
7.99942e-05
7.65264e-05
7.32858e-05
7.02531e-05
6.7411e-05
6.4744e-05
6.22378e-05
5.98799e-05
5.76586e-05
5.55637e-05
5.35856e-05
5.17157e-05
4.99463e-05
4.82703e-05
4.66812e-05
4.51731e-05
4.37407e-05
4.23791e-05
4.10838e-05
3.98508e-05
3.86764e-05
3.75572e-05
3.64901e-05
3.54725e-05
3.45018e-05
3.35758e-05
3.26923e-05
3.18497e-05
3.10461e-05
3.02803e-05
2.9551e-05
2.88569e-05
2.81971e-05
2.75707e-05
2.6977e-05
2.64153e-05
2.5885e-05
2.53854e-05
2.49162e-05
2.44767e-05
2.40666e-05
2.36852e-05
2.3332e-05
2.30064e-05
2.27077e-05
2.24351e-05
2.21878e-05
2.19647e-05
2.1765e-05
2.15874e-05
2.14307e-05
2.12936e-05
2.11748e-05
2.10729e-05
2.09863e-05
2.09136e-05
2.08533e-05
2.08039e-05
2.0764e-05
2.07321e-05
2.07068e-05
2.06867e-05
2.06707e-05
2.06577e-05
2.06468e-05
2.06378e-05
2.06311e-05
0.000939686
0.000835715
0.000745884
0.000668024
0.000600326
0.000541281
0.000489621
0.000444285
0.000404379
0.000369147
0.000337951
0.000310249
0.00028558
0.000263552
0.000243828
0.000226122
0.000210185
0.000195805
0.000182797
0.000171003
0.000160285
0.000150522
0.00014161
0.000133457
0.000125983
0.000119118
0.0001128
0.000106973
0.000101591
9.66094e-05
9.19913e-05
8.77027e-05
8.37136e-05
7.99971e-05
7.65294e-05
7.32888e-05
7.02562e-05
6.74142e-05
6.47472e-05
6.22412e-05
5.98833e-05
5.76621e-05
5.55673e-05
5.35892e-05
5.17195e-05
4.99502e-05
4.82742e-05
4.66852e-05
4.51772e-05
4.37449e-05
4.23834e-05
4.10882e-05
3.98553e-05
3.86809e-05
3.75618e-05
3.64949e-05
3.54773e-05
3.45067e-05
3.35807e-05
3.26972e-05
3.18546e-05
3.10511e-05
3.02853e-05
2.95559e-05
2.88618e-05
2.82019e-05
2.75754e-05
2.69816e-05
2.64197e-05
2.58892e-05
2.53895e-05
2.492e-05
2.44803e-05
2.40698e-05
2.36882e-05
2.33346e-05
2.30087e-05
2.27096e-05
2.24367e-05
2.2189e-05
2.19656e-05
2.17655e-05
2.15876e-05
2.14306e-05
2.12932e-05
2.11741e-05
2.10719e-05
2.09852e-05
2.09123e-05
2.08519e-05
2.08024e-05
2.07624e-05
2.07305e-05
2.07051e-05
2.06851e-05
2.06691e-05
2.06561e-05
2.06452e-05
2.06363e-05
2.06295e-05
0.000939686
0.000835715
0.000745884
0.000668024
0.000600327
0.000541281
0.000489622
0.000444286
0.00040438
0.000369148
0.000337952
0.00031025
0.000285582
0.000263554
0.00024383
0.000226124
0.000210187
0.000195807
0.000182799
0.000171006
0.000160287
0.000150525
0.000141613
0.00013346
0.000125986
0.000119121
0.000112802
0.000106976
0.000101594
9.66123e-05
9.19942e-05
8.77057e-05
8.37166e-05
8.00002e-05
7.65325e-05
7.32921e-05
7.02595e-05
6.74176e-05
6.47507e-05
6.22447e-05
5.9887e-05
5.76659e-05
5.55711e-05
5.35932e-05
5.17235e-05
4.99543e-05
4.82784e-05
4.66895e-05
4.51816e-05
4.37494e-05
4.2388e-05
4.10929e-05
3.986e-05
3.86858e-05
3.75668e-05
3.64999e-05
3.54824e-05
3.45118e-05
3.35859e-05
3.27025e-05
3.18599e-05
3.10564e-05
3.02905e-05
2.95611e-05
2.88669e-05
2.8207e-05
2.75804e-05
2.69865e-05
2.64244e-05
2.58937e-05
2.53937e-05
2.4924e-05
2.4484e-05
2.40733e-05
2.36913e-05
2.33374e-05
2.30111e-05
2.27116e-05
2.24383e-05
2.21902e-05
2.19665e-05
2.1766e-05
2.15877e-05
2.14304e-05
2.12927e-05
2.11734e-05
2.10709e-05
2.09839e-05
2.09109e-05
2.08503e-05
2.08008e-05
2.07607e-05
2.07287e-05
2.07033e-05
2.06833e-05
2.06673e-05
2.06543e-05
2.06435e-05
2.06346e-05
2.06278e-05
0.000939686
0.000835715
0.000745885
0.000668025
0.000600327
0.000541282
0.000489622
0.000444287
0.000404381
0.000369149
0.000337953
0.000310252
0.000285583
0.000263555
0.000243832
0.000226126
0.000210189
0.000195809
0.000182801
0.000171008
0.00016029
0.000150527
0.000141615
0.000133462
0.000125989
0.000119123
0.000112805
0.000106979
0.000101596
9.66152e-05
9.19972e-05
8.77087e-05
8.37197e-05
8.00034e-05
7.65358e-05
7.32955e-05
7.0263e-05
6.74212e-05
6.47544e-05
6.22485e-05
5.98908e-05
5.76698e-05
5.55751e-05
5.35973e-05
5.17277e-05
4.99586e-05
4.82829e-05
4.6694e-05
4.51863e-05
4.37541e-05
4.23928e-05
4.10978e-05
3.98651e-05
3.86909e-05
3.7572e-05
3.65052e-05
3.54878e-05
3.45173e-05
3.35913e-05
3.2708e-05
3.18654e-05
3.10619e-05
3.02961e-05
2.95666e-05
2.88724e-05
2.82124e-05
2.75857e-05
2.69916e-05
2.64294e-05
2.58985e-05
2.53983e-05
2.49283e-05
2.4488e-05
2.40769e-05
2.36946e-05
2.33403e-05
2.30136e-05
2.27138e-05
2.244e-05
2.21915e-05
2.19674e-05
2.17665e-05
2.15878e-05
2.14301e-05
2.12922e-05
2.11725e-05
2.10698e-05
2.09826e-05
2.09094e-05
2.08487e-05
2.0799e-05
2.07588e-05
2.07268e-05
2.07014e-05
2.06813e-05
2.06654e-05
2.06524e-05
2.06416e-05
2.06326e-05
2.06259e-05
0.000939686
0.000835715
0.000745885
0.000668025
0.000600328
0.000541282
0.000489623
0.000444288
0.000404382
0.00036915
0.000337955
0.000310253
0.000285585
0.000263557
0.000243834
0.000226128
0.000210191
0.000195811
0.000182804
0.00017101
0.000160292
0.00015053
0.000141618
0.000133465
0.000125991
0.000119126
0.000112808
0.000106982
0.000101599
9.66182e-05
9.20003e-05
8.77119e-05
8.3723e-05
8.00068e-05
7.65393e-05
7.3299e-05
7.02666e-05
6.74249e-05
6.47582e-05
6.22524e-05
5.98948e-05
5.76739e-05
5.55793e-05
5.36016e-05
5.17321e-05
4.99631e-05
4.82875e-05
4.66988e-05
4.51911e-05
4.37591e-05
4.23979e-05
4.1103e-05
3.98703e-05
3.86963e-05
3.75774e-05
3.65107e-05
3.54934e-05
3.45229e-05
3.35971e-05
3.27138e-05
3.18712e-05
3.10677e-05
3.03019e-05
2.95724e-05
2.88781e-05
2.8218e-05
2.75912e-05
2.69969e-05
2.64345e-05
2.59034e-05
2.5403e-05
2.49327e-05
2.44921e-05
2.40807e-05
2.3698e-05
2.33434e-05
2.30162e-05
2.2716e-05
2.24418e-05
2.21929e-05
2.19683e-05
2.1767e-05
2.1588e-05
2.14299e-05
2.12916e-05
2.11716e-05
2.10686e-05
2.09812e-05
2.09078e-05
2.08469e-05
2.07971e-05
2.07568e-05
2.07247e-05
2.06993e-05
2.06792e-05
2.06632e-05
2.06503e-05
2.06395e-05
2.06306e-05
2.06238e-05
0.000939686
0.000835715
0.000745885
0.000668025
0.000600328
0.000541283
0.000489624
0.000444289
0.000404383
0.000369151
0.000337956
0.000310254
0.000285586
0.000263559
0.000243836
0.000226129
0.000210193
0.000195813
0.000182806
0.000171012
0.000160294
0.000150532
0.00014162
0.000133468
0.000125994
0.000119129
0.000112811
0.000106985
0.000101602
9.66213e-05
9.20035e-05
8.77152e-05
8.37264e-05
8.00103e-05
7.65428e-05
7.33026e-05
7.02704e-05
6.74287e-05
6.47621e-05
6.22564e-05
5.98989e-05
5.76782e-05
5.55837e-05
5.36061e-05
5.17367e-05
4.99678e-05
4.82923e-05
4.67037e-05
4.51961e-05
4.37642e-05
4.24031e-05
4.11083e-05
3.98758e-05
3.87018e-05
3.75831e-05
3.65165e-05
3.54992e-05
3.45288e-05
3.3603e-05
3.27198e-05
3.18772e-05
3.10738e-05
3.03079e-05
2.95783e-05
2.8884e-05
2.82238e-05
2.75969e-05
2.70025e-05
2.64399e-05
2.59085e-05
2.54078e-05
2.49373e-05
2.44964e-05
2.40846e-05
2.37015e-05
2.33465e-05
2.3019e-05
2.27183e-05
2.24436e-05
2.21943e-05
2.19693e-05
2.17676e-05
2.15881e-05
2.14296e-05
2.12909e-05
2.11707e-05
2.10674e-05
2.09797e-05
2.0906e-05
2.0845e-05
2.0795e-05
2.07547e-05
2.07225e-05
2.0697e-05
2.06769e-05
2.0661e-05
2.0648e-05
2.06372e-05
2.06283e-05
2.06215e-05
0.000939686
0.000835716
0.000745885
0.000668026
0.000600329
0.000541283
0.000489624
0.000444289
0.000404384
0.000369152
0.000337957
0.000310256
0.000285588
0.00026356
0.000243837
0.000226131
0.000210195
0.000195815
0.000182808
0.000171015
0.000160297
0.000150534
0.000141623
0.00013347
0.000125997
0.000119132
0.000112814
0.000106988
0.000101605
9.66245e-05
9.20068e-05
8.77186e-05
8.37298e-05
8.00138e-05
7.65465e-05
7.33064e-05
7.02742e-05
6.74327e-05
6.47661e-05
6.22606e-05
5.99032e-05
5.76825e-05
5.55882e-05
5.36107e-05
5.17414e-05
4.99726e-05
4.82972e-05
4.67088e-05
4.52013e-05
4.37695e-05
4.24085e-05
4.11139e-05
3.98815e-05
3.87076e-05
3.75889e-05
3.65224e-05
3.55053e-05
3.45349e-05
3.36092e-05
3.2726e-05
3.18835e-05
3.108e-05
3.03141e-05
2.95845e-05
2.88901e-05
2.82298e-05
2.76028e-05
2.70082e-05
2.64454e-05
2.59139e-05
2.54129e-05
2.4942e-05
2.45008e-05
2.40887e-05
2.37052e-05
2.33498e-05
2.30218e-05
2.27206e-05
2.24456e-05
2.21957e-05
2.19702e-05
2.17681e-05
2.15882e-05
2.14293e-05
2.12903e-05
2.11696e-05
2.10661e-05
2.09781e-05
2.09042e-05
2.0843e-05
2.07929e-05
2.07524e-05
2.07201e-05
2.06946e-05
2.06745e-05
2.06585e-05
2.06455e-05
2.06348e-05
2.06258e-05
2.0619e-05
0.000939686
0.000835716
0.000745885
0.000668026
0.000600329
0.000541284
0.000489625
0.00044429
0.000404384
0.000369153
0.000337958
0.000310257
0.000285589
0.000263562
0.000243839
0.000226133
0.000210197
0.000195817
0.00018281
0.000171017
0.000160299
0.000150537
0.000141625
0.000133473
0.000125999
0.000119135
0.000112817
0.000106991
0.000101609
9.66277e-05
9.20101e-05
8.7722e-05
8.37333e-05
8.00174e-05
7.65502e-05
7.33102e-05
7.02781e-05
6.74367e-05
6.47703e-05
6.22648e-05
5.99075e-05
5.7687e-05
5.55928e-05
5.36154e-05
5.17463e-05
4.99776e-05
4.83023e-05
4.6714e-05
4.52067e-05
4.3775e-05
4.24141e-05
4.11196e-05
3.98873e-05
3.87135e-05
3.7595e-05
3.65285e-05
3.55114e-05
3.45412e-05
3.36155e-05
3.27323e-05
3.18898e-05
3.10864e-05
3.03205e-05
2.95909e-05
2.88964e-05
2.8236e-05
2.76088e-05
2.70141e-05
2.64511e-05
2.59193e-05
2.54181e-05
2.49469e-05
2.45053e-05
2.40929e-05
2.37089e-05
2.33531e-05
2.30247e-05
2.27231e-05
2.24475e-05
2.21972e-05
2.19713e-05
2.17687e-05
2.15883e-05
2.1429e-05
2.12896e-05
2.11686e-05
2.10647e-05
2.09764e-05
2.09023e-05
2.08409e-05
2.07906e-05
2.075e-05
2.07176e-05
2.06921e-05
2.06719e-05
2.06559e-05
2.06429e-05
2.06321e-05
2.06232e-05
2.06164e-05
0.000939686
0.000835716
0.000745885
0.000668026
0.000600329
0.000541284
0.000489626
0.000444291
0.000404385
0.000369154
0.000337959
0.000310258
0.00028559
0.000263563
0.000243841
0.000226135
0.000210199
0.000195819
0.000182812
0.000171019
0.000160301
0.000150539
0.000141628
0.000133475
0.000126002
0.000119137
0.00011282
0.000106994
0.000101612
9.6631e-05
9.20134e-05
8.77254e-05
8.37369e-05
8.00211e-05
7.65539e-05
7.3314e-05
7.02821e-05
6.74408e-05
6.47745e-05
6.22691e-05
5.9912e-05
5.76916e-05
5.55974e-05
5.36202e-05
5.17512e-05
4.99827e-05
4.83075e-05
4.67193e-05
4.52121e-05
4.37806e-05
4.24198e-05
4.11254e-05
3.98932e-05
3.87195e-05
3.76011e-05
3.65348e-05
3.55178e-05
3.45476e-05
3.3622e-05
3.27388e-05
3.18964e-05
3.10929e-05
3.0327e-05
2.95973e-05
2.89028e-05
2.82423e-05
2.7615e-05
2.70201e-05
2.64569e-05
2.59249e-05
2.54233e-05
2.49519e-05
2.451e-05
2.40971e-05
2.37128e-05
2.33565e-05
2.30276e-05
2.27255e-05
2.24495e-05
2.21987e-05
2.19723e-05
2.17692e-05
2.15884e-05
2.14287e-05
2.12888e-05
2.11675e-05
2.10633e-05
2.09747e-05
2.09003e-05
2.08387e-05
2.07883e-05
2.07475e-05
2.07151e-05
2.06894e-05
2.06692e-05
2.06532e-05
2.06402e-05
2.06294e-05
2.06205e-05
2.06137e-05
0.000939686
0.000835716
0.000745886
0.000668026
0.00060033
0.000541285
0.000489626
0.000444291
0.000404386
0.000369155
0.00033796
0.000310259
0.000285592
0.000263565
0.000243842
0.000226136
0.0002102
0.000195821
0.000182814
0.000171021
0.000160304
0.000150542
0.00014163
0.000133478
0.000126005
0.00011914
0.000112822
0.000106997
0.000101615
9.66343e-05
9.20168e-05
8.77289e-05
8.37405e-05
8.00248e-05
7.65577e-05
7.3318e-05
7.02861e-05
6.74449e-05
6.47788e-05
6.22735e-05
5.99165e-05
5.76962e-05
5.56022e-05
5.36251e-05
5.17562e-05
4.99878e-05
4.83128e-05
4.67247e-05
4.52176e-05
4.37862e-05
4.24256e-05
4.11313e-05
3.98992e-05
3.87257e-05
3.76073e-05
3.65411e-05
3.55242e-05
3.45541e-05
3.36285e-05
3.27455e-05
3.1903e-05
3.10996e-05
3.03336e-05
2.96039e-05
2.89093e-05
2.82487e-05
2.76212e-05
2.70262e-05
2.64628e-05
2.59305e-05
2.54287e-05
2.49569e-05
2.45147e-05
2.41014e-05
2.37167e-05
2.33599e-05
2.30306e-05
2.2728e-05
2.24515e-05
2.22002e-05
2.19733e-05
2.17698e-05
2.15885e-05
2.14284e-05
2.12881e-05
2.11664e-05
2.10618e-05
2.09729e-05
2.08983e-05
2.08364e-05
2.07858e-05
2.0745e-05
2.07124e-05
2.06866e-05
2.06664e-05
2.06503e-05
2.06373e-05
2.06265e-05
2.06176e-05
2.06108e-05
0.000939686
0.000835716
0.000745886
0.000668027
0.00060033
0.000541285
0.000489627
0.000444292
0.000404387
0.000369156
0.000337961
0.000310261
0.000285593
0.000263566
0.000243844
0.000226138
0.000210202
0.000195823
0.000182816
0.000171023
0.000160306
0.000150544
0.000141633
0.000133481
0.000126008
0.000119143
0.000112825
0.000107
0.000101618
9.66375e-05
9.20202e-05
8.77324e-05
8.37441e-05
8.00285e-05
7.65616e-05
7.33219e-05
7.02902e-05
6.74491e-05
6.47831e-05
6.22779e-05
5.9921e-05
5.77009e-05
5.5607e-05
5.363e-05
5.17613e-05
4.9993e-05
4.83181e-05
4.67302e-05
4.52232e-05
4.3792e-05
4.24315e-05
4.11373e-05
3.99053e-05
3.87319e-05
3.76137e-05
3.65475e-05
3.55307e-05
3.45607e-05
3.36352e-05
3.27522e-05
3.19097e-05
3.11063e-05
3.03403e-05
2.96106e-05
2.89159e-05
2.82552e-05
2.76276e-05
2.70324e-05
2.64688e-05
2.59362e-05
2.54342e-05
2.49621e-05
2.45194e-05
2.41058e-05
2.37206e-05
2.33634e-05
2.30336e-05
2.27306e-05
2.24536e-05
2.22018e-05
2.19744e-05
2.17703e-05
2.15886e-05
2.1428e-05
2.12873e-05
2.11652e-05
2.10603e-05
2.09711e-05
2.08962e-05
2.08341e-05
2.07833e-05
2.07423e-05
2.07096e-05
2.06838e-05
2.06634e-05
2.06473e-05
2.06343e-05
2.06235e-05
2.06146e-05
2.06077e-05
0.000939686
0.000835716
0.000745886
0.000668027
0.00060033
0.000541285
0.000489627
0.000444293
0.000404388
0.000369157
0.000337962
0.000310262
0.000285594
0.000263567
0.000243845
0.00022614
0.000210204
0.000195825
0.000182818
0.000171026
0.000160308
0.000150546
0.000141635
0.000133483
0.00012601
0.000119146
0.000112828
0.000107003
0.000101621
9.66408e-05
9.20236e-05
8.77359e-05
8.37477e-05
8.00322e-05
7.65654e-05
7.33259e-05
7.02943e-05
6.74533e-05
6.47874e-05
6.22824e-05
5.99256e-05
5.77056e-05
5.56118e-05
5.3635e-05
5.17664e-05
4.99982e-05
4.83235e-05
4.67357e-05
4.52289e-05
4.37977e-05
4.24374e-05
4.11433e-05
3.99115e-05
3.87382e-05
3.762e-05
3.6554e-05
3.55373e-05
3.45673e-05
3.36419e-05
3.27589e-05
3.19165e-05
3.11131e-05
3.03471e-05
2.96173e-05
2.89225e-05
2.82617e-05
2.7634e-05
2.70386e-05
2.64748e-05
2.5942e-05
2.54396e-05
2.49672e-05
2.45242e-05
2.41102e-05
2.37246e-05
2.3367e-05
2.30367e-05
2.27332e-05
2.24556e-05
2.22034e-05
2.19754e-05
2.17709e-05
2.15887e-05
2.14277e-05
2.12865e-05
2.1164e-05
2.10587e-05
2.09693e-05
2.08941e-05
2.08318e-05
2.07807e-05
2.07396e-05
2.07067e-05
2.06808e-05
2.06604e-05
2.06443e-05
2.06312e-05
2.06204e-05
2.06114e-05
2.06046e-05
0.000939686
0.000835716
0.000745886
0.000668027
0.00060033
0.000541286
0.000489628
0.000444293
0.000404388
0.000369158
0.000337963
0.000310263
0.000285596
0.000263569
0.000243847
0.000226141
0.000210206
0.000195827
0.00018282
0.000171028
0.000160311
0.000150549
0.000141638
0.000133486
0.000126013
0.000119149
0.000112831
0.000107006
0.000101624
9.6644e-05
9.20269e-05
8.77393e-05
8.37513e-05
8.00359e-05
7.65692e-05
7.33298e-05
7.02983e-05
6.74575e-05
6.47917e-05
6.22868e-05
5.99302e-05
5.77103e-05
5.56167e-05
5.36399e-05
5.17715e-05
5.00035e-05
4.83289e-05
4.67412e-05
4.52345e-05
4.38035e-05
4.24433e-05
4.11493e-05
3.99176e-05
3.87445e-05
3.76264e-05
3.65605e-05
3.55439e-05
3.4574e-05
3.36486e-05
3.27657e-05
3.19233e-05
3.11199e-05
3.03539e-05
2.9624e-05
2.89292e-05
2.82683e-05
2.76404e-05
2.70448e-05
2.64808e-05
2.59478e-05
2.54451e-05
2.49724e-05
2.4529e-05
2.41146e-05
2.37286e-05
2.33705e-05
2.30398e-05
2.27357e-05
2.24577e-05
2.22049e-05
2.19765e-05
2.17715e-05
2.15888e-05
2.14273e-05
2.12857e-05
2.11628e-05
2.10572e-05
2.09674e-05
2.08919e-05
2.08293e-05
2.07781e-05
2.07368e-05
2.07038e-05
2.06778e-05
2.06573e-05
2.06411e-05
2.0628e-05
2.06172e-05
2.06082e-05
2.06014e-05
0.000939687
0.000835716
0.000745886
0.000668027
0.000600331
0.000541286
0.000489628
0.000444294
0.000404389
0.000369159
0.000337964
0.000310264
0.000285597
0.00026357
0.000243848
0.000226143
0.000210207
0.000195828
0.000182822
0.00017103
0.000160313
0.000150551
0.00014164
0.000133488
0.000126016
0.000119152
0.000112834
0.000107009
0.000101627
9.66472e-05
9.20302e-05
8.77428e-05
8.37548e-05
8.00396e-05
7.6573e-05
7.33337e-05
7.03024e-05
6.74617e-05
6.4796e-05
6.22913e-05
5.99348e-05
5.7715e-05
5.56215e-05
5.36449e-05
5.17766e-05
5.00087e-05
4.83343e-05
4.67467e-05
4.52402e-05
4.38093e-05
4.24492e-05
4.11554e-05
3.99238e-05
3.87508e-05
3.76328e-05
3.6567e-05
3.55505e-05
3.45807e-05
3.36554e-05
3.27725e-05
3.19301e-05
3.11267e-05
3.03607e-05
2.96308e-05
2.89358e-05
2.82748e-05
2.76468e-05
2.70511e-05
2.64869e-05
2.59536e-05
2.54506e-05
2.49776e-05
2.45339e-05
2.4119e-05
2.37326e-05
2.33741e-05
2.30429e-05
2.27383e-05
2.24598e-05
2.22065e-05
2.19776e-05
2.17721e-05
2.15889e-05
2.14269e-05
2.12849e-05
2.11616e-05
2.10556e-05
2.09655e-05
2.08897e-05
2.08269e-05
2.07755e-05
2.07339e-05
2.07008e-05
2.06747e-05
2.06542e-05
2.06379e-05
2.06247e-05
2.06139e-05
2.06049e-05
2.0598e-05
0.000939687
0.000835716
0.000745886
0.000668027
0.000600331
0.000541286
0.000489628
0.000444294
0.00040439
0.000369159
0.000337965
0.000310265
0.000285598
0.000263571
0.000243849
0.000226144
0.000210209
0.00019583
0.000182824
0.000171032
0.000160315
0.000150553
0.000141642
0.000133491
0.000126018
0.000119154
0.000112837
0.000107012
0.000101631
9.66504e-05
9.20335e-05
8.77462e-05
8.37584e-05
8.00432e-05
7.65768e-05
7.33376e-05
7.03064e-05
6.74658e-05
6.48003e-05
6.22957e-05
5.99393e-05
5.77197e-05
5.56263e-05
5.36499e-05
5.17817e-05
5.0014e-05
4.83396e-05
4.67522e-05
4.52458e-05
4.38151e-05
4.24551e-05
4.11614e-05
3.993e-05
3.8757e-05
3.76392e-05
3.65735e-05
3.5557e-05
3.45873e-05
3.36621e-05
3.27792e-05
3.19369e-05
3.11335e-05
3.03674e-05
2.96375e-05
2.89425e-05