/*--------------------------------*- C++ -*----------------------------------*\
  =========                 |
  \\      /  F ield         | OpenFOAM: The Open Source CFD Toolbox
   \\    /   O peration     | Website:  https://openfoam.org
    \\  /    A nd           | Version:  11
     \\/     M anipulation  |
\*---------------------------------------------------------------------------*/
FoamFile
{
    format      ascii;
    class       volScalarField;
    location    "32";
    object      k;
}
// * * * * * * * * * * * * * * * * * * * * * * * * * * * * * * * * * * * * * //

dimensions      [0 2 -2 0 0 0 0];

internalField   nonuniform List<scalar> 
10000
(
0.000940297
0.000838073
0.000750618
0.000675865
0.000612087
0.000557817
0.000511794
0.000472911
0.000440191
0.000412757
0.000389834
0.000370732
0.000354849
0.000341663
0.000330726
0.000321662
0.000314151
0.000307929
0.000302774
0.000298504
0.000294964
0.000292036
0.000289614
0.000287614
0.000285961
0.000284591
0.000283456
0.000282516
0.000281735
0.000281086
0.000280545
0.000280092
0.000279712
0.000279391
0.000279119
0.000278887
0.000278687
0.000278514
0.000278364
0.000278232
0.000278115
0.000278012
0.000277919
0.000277836
0.000277761
0.000277693
0.000277631
0.000277574
0.000277522
0.000277475
0.000277431
0.000277391
0.000277354
0.00027732
0.000277288
0.000277259
0.000277232
0.000277207
0.000277183
0.000277162
0.000277142
0.000277123
0.000277106
0.00027709
0.000277075
0.000277062
0.000277049
0.000277037
0.000277026
0.000277015
0.000277005
0.000276996
0.000276988
0.00027698
0.000276972
0.000276965
0.000276958
0.000276952
0.000276946
0.00027694
0.000276935
0.000276929
0.000276924
0.000276919
0.000276914
0.00027691
0.000276905
0.000276901
0.000276896
0.000276892
0.000276888
0.000276884
0.000276881
0.000276877
0.000276874
0.000276871
0.000276869
0.000276867
0.000276866
0.000276865
0.000940294
0.000838077
0.000750631
0.000675885
0.000612111
0.000557844
0.000511823
0.000472942
0.000440222
0.000412788
0.000389865
0.000370762
0.000354878
0.000341691
0.000330753
0.000321687
0.000314176
0.000307953
0.000302797
0.000298527
0.00029499
0.000292062
0.00028964
0.000287636
0.000285979
0.000284608
0.000283472
0.00028253
0.000281749
0.000281099
0.000280557
0.000280104
0.000279723
0.000279401
0.000279129
0.000278896
0.000278696
0.000278523
0.000278372
0.000278239
0.000278123
0.000278019
0.000277926
0.000277842
0.000277767
0.000277699
0.000277636
0.000277579
0.000277527
0.00027748
0.000277436
0.000277395
0.000277358
0.000277323
0.000277292
0.000277262
0.000277235
0.00027721
0.000277186
0.000277165
0.000277144
0.000277126
0.000277108
0.000277092
0.000277077
0.000277064
0.000277051
0.000277039
0.000277027
0.000277017
0.000277007
0.000276998
0.000276989
0.000276981
0.000276974
0.000276966
0.00027696
0.000276953
0.000276947
0.000276941
0.000276936
0.00027693
0.000276925
0.00027692
0.000276915
0.00027691
0.000276906
0.000276901
0.000276897
0.000276893
0.000276889
0.000276885
0.000276881
0.000276878
0.000276874
0.000276872
0.000276869
0.000276867
0.000276866
0.000276865
0.000940291
0.000838084
0.000750651
0.000675915
0.000612148
0.000557886
0.000511868
0.000472987
0.000440266
0.000412831
0.000389905
0.000370799
0.000354912
0.000341722
0.000330782
0.000321713
0.000314199
0.000307974
0.000302818
0.000298546
0.000295009
0.00029208
0.000289657
0.000287652
0.000285994
0.000284621
0.000283484
0.000282541
0.000281759
0.000281109
0.000280566
0.000280113
0.000279732
0.00027941
0.000279137
0.000278904
0.000278704
0.000278531
0.00027838
0.000278247
0.00027813
0.000278026
0.000277933
0.00027785
0.000277774
0.000277705
0.000277643
0.000277586
0.000277534
0.000277486
0.000277442
0.000277401
0.000277363
0.000277329
0.000277297
0.000277267
0.00027724
0.000277214
0.000277191
0.000277169
0.000277148
0.00027713
0.000277112
0.000277096
0.000277081
0.000277067
0.000277053
0.000277041
0.00027703
0.000277019
0.000277009
0.000277
0.000276991
0.000276983
0.000276975
0.000276968
0.000276961
0.000276955
0.000276949
0.000276943
0.000276937
0.000276932
0.000276926
0.000276921
0.000276916
0.000276912
0.000276907
0.000276902
0.000276898
0.000276894
0.00027689
0.000276886
0.000276882
0.000276878
0.000276875
0.000276872
0.00027687
0.000276868
0.000276866
0.000276865
0.000940289
0.000838092
0.000750673
0.000675951
0.000612195
0.00055794
0.000511925
0.000473046
0.000440324
0.000412886
0.000389955
0.000370846
0.000354954
0.000341759
0.000330814
0.000321742
0.000314225
0.000307997
0.000302838
0.000298565
0.000295026
0.000292096
0.000289672
0.000287665
0.000286005
0.000284631
0.000283493
0.00028255
0.000281768
0.000281117
0.000280574
0.000280121
0.00027974
0.000279418
0.000279145
0.000278912
0.000278712
0.000278539
0.000278388
0.000278255
0.000278138
0.000278034
0.000277941
0.000277858
0.000277782
0.000277713
0.000277651
0.000277593
0.000277541
0.000277493
0.000277449
0.000277408
0.00027737
0.000277335
0.000277303
0.000277273
0.000277245
0.00027722
0.000277196
0.000277174
0.000277153
0.000277134
0.000277117
0.0002771
0.000277085
0.000277071
0.000277057
0.000277045
0.000277033
0.000277023
0.000277012
0.000277003
0.000276994
0.000276986
0.000276978
0.000276971
0.000276964
0.000276957
0.000276951
0.000276945
0.000276939
0.000276934
0.000276928
0.000276923
0.000276918
0.000276913
0.000276908
0.000276904
0.000276899
0.000276895
0.000276891
0.000276887
0.000276883
0.000276879
0.000276876
0.000276873
0.000276871
0.000276868
0.000276867
0.000276866
0.000940288
0.0008381
0.000750695
0.000675989
0.000612246
0.000558001
0.000511992
0.000473115
0.000440392
0.000412951
0.000390016
0.000370901
0.000355003
0.000341803
0.000330853
0.000321776
0.000314254
0.000308022
0.00030286
0.000298584
0.000295043
0.000292111
0.000289685
0.000287677
0.000286016
0.000284641
0.000283502
0.000282558
0.000281775
0.000281124
0.000280582
0.000280128
0.000279747
0.000279425
0.000279153
0.00027892
0.00027872
0.000278547
0.000278396
0.000278264
0.000278147
0.000278043
0.00027795
0.000277866
0.000277791
0.000277722
0.000277659
0.000277602
0.000277549
0.000277501
0.000277456
0.000277415
0.000277377
0.000277342
0.00027731
0.00027728
0.000277252
0.000277226
0.000277202
0.00027718
0.000277159
0.00027714
0.000277122
0.000277105
0.00027709
0.000277075
0.000277062
0.000277049
0.000277037
0.000277026
0.000277016
0.000277006
0.000276997
0.000276989
0.000276981
0.000276974
0.000276966
0.00027696
0.000276953
0.000276947
0.000276941
0.000276936
0.00027693
0.000276925
0.00027692
0.000276915
0.00027691
0.000276905
0.000276901
0.000276896
0.000276892
0.000276888
0.000276884
0.00027688
0.000276877
0.000276874
0.000276872
0.000276869
0.000276868
0.000276867
0.000940288
0.000838108
0.000750716
0.000676025
0.000612297
0.000558064
0.000512062
0.000473189
0.000440466
0.000413022
0.000390083
0.000370962
0.000355058
0.000341851
0.000330895
0.000321812
0.000314285
0.000308048
0.000302882
0.000298603
0.000295059
0.000292126
0.000289697
0.000287688
0.000286025
0.000284649
0.000283509
0.000282565
0.000281782
0.00028113
0.000280588
0.000280134
0.000279753
0.000279432
0.000279159
0.000278927
0.000278727
0.000278554
0.000278404
0.000278272
0.000278155
0.000278051
0.000277958
0.000277875
0.000277799
0.000277731
0.000277668
0.00027761
0.000277558
0.000277509
0.000277465
0.000277424
0.000277385
0.00027735
0.000277317
0.000277287
0.000277259
0.000277233
0.000277209
0.000277186
0.000277165
0.000277145
0.000277127
0.00027711
0.000277095
0.00027708
0.000277066
0.000277053
0.000277042
0.00027703
0.00027702
0.00027701
0.000277001
0.000276992
0.000276984
0.000276977
0.000276969
0.000276962
0.000276956
0.00027695
0.000276944
0.000276938
0.000276932
0.000276927
0.000276922
0.000276917
0.000276912
0.000276907
0.000276902
0.000276898
0.000276894
0.000276889
0.000276885
0.000276882
0.000276878
0.000276875
0.000276873
0.00027687
0.000276869
0.000276868
0.000940288
0.000838114
0.000750735
0.00067606
0.000612346
0.000558125
0.000512133
0.000473264
0.000440542
0.000413096
0.000390152
0.000371026
0.000355115
0.000341901
0.000330938
0.000321849
0.000314316
0.000308075
0.000302904
0.000298622
0.000295075
0.000292138
0.000289708
0.000287696
0.000286032
0.000284654
0.000283514
0.000282569
0.000281786
0.000281134
0.000280591
0.000280138
0.000279757
0.000279436
0.000279164
0.000278932
0.000278733
0.000278561
0.000278411
0.000278279
0.000278162
0.000278059
0.000277966
0.000277883
0.000277808
0.000277739
0.000277676
0.000277619
0.000277566
0.000277518
0.000277473
0.000277432
0.000277393
0.000277358
0.000277325
0.000277294
0.000277266
0.00027724
0.000277215
0.000277192
0.000277171
0.000277151
0.000277133
0.000277116
0.0002771
0.000277085
0.000277071
0.000277058
0.000277046
0.000277035
0.000277024
0.000277014
0.000277005
0.000276996
0.000276988
0.00027698
0.000276972
0.000276965
0.000276959
0.000276952
0.000276946
0.00027694
0.000276935
0.000276929
0.000276924
0.000276919
0.000276914
0.000276909
0.000276904
0.0002769
0.000276895
0.000276891
0.000276887
0.000276883
0.00027688
0.000276876
0.000276874
0.000276871
0.00027687
0.000276869
0.000940288
0.00083812
0.000750752
0.000676091
0.000612392
0.000558184
0.0005122
0.000473337
0.000440617
0.00041317
0.000390222
0.00037109
0.000355173
0.000341952
0.000330982
0.000321886
0.000314348
0.000308101
0.000302926
0.000298639
0.000295088
0.000292149
0.000289716
0.000287702
0.000286036
0.000284658
0.000283516
0.000282571
0.000281787
0.000281136
0.000280593
0.00028014
0.000279759
0.000279439
0.000279167
0.000278936
0.000278737
0.000278565
0.000278416
0.000278285
0.000278169
0.000278066
0.000277973
0.00027789
0.000277815
0.000277747
0.000277684
0.000277627
0.000277574
0.000277526
0.000277481
0.000277439
0.000277401
0.000277365
0.000277332
0.000277302
0.000277273
0.000277246
0.000277222
0.000277199
0.000277177
0.000277157
0.000277139
0.000277121
0.000277105
0.00027709
0.000277076
0.000277063
0.00027705
0.000277039
0.000277028
0.000277018
0.000277008
0.000276999
0.000276991
0.000276983
0.000276975
0.000276968
0.000276961
0.000276955
0.000276949
0.000276943
0.000276937
0.000276931
0.000276926
0.000276921
0.000276916
0.000276911
0.000276906
0.000276901
0.000276897
0.000276892
0.000276888
0.000276884
0.000276881
0.000276878
0.000276875
0.000276873
0.000276871
0.00027687
0.000940288
0.000838125
0.000750767
0.000676118
0.000612433
0.000558237
0.000512264
0.000473407
0.000440689
0.000413241
0.00039029
0.000371153
0.000355229
0.000342002
0.000331025
0.000321923
0.000314378
0.000308125
0.000302945
0.000298654
0.0002951
0.000292157
0.000289721
0.000287706
0.000286038
0.000284658
0.000283516
0.00028257
0.000281786
0.000281135
0.000280592
0.000280139
0.000279759
0.000279439
0.000279168
0.000278938
0.00027874
0.000278568
0.000278419
0.000278289
0.000278174
0.000278071
0.000277979
0.000277896
0.000277821
0.000277753
0.000277691
0.000277634
0.000277581
0.000277533
0.000277488
0.000277446
0.000277408
0.000277372
0.000277339
0.000277308
0.00027728
0.000277253
0.000277228
0.000277205
0.000277183
0.000277163
0.000277144
0.000277126
0.00027711
0.000277095
0.00027708
0.000277067
0.000277054
0.000277043
0.000277032
0.000277021
0.000277012
0.000277003
0.000276994
0.000276986
0.000276978
0.000276971
0.000276964
0.000276957
0.000276951
0.000276945
0.000276939
0.000276933
0.000276928
0.000276923
0.000276917
0.000276912
0.000276908
0.000276903
0.000276898
0.000276894
0.00027689
0.000276886
0.000276882
0.000276879
0.000276876
0.000276874
0.000276872
0.000276871
0.000940289
0.00083813
0.00075078
0.000676143
0.000612471
0.000558286
0.000512322
0.000473471
0.000440757
0.000413309
0.000390355
0.000371213
0.000355284
0.000342049
0.000331066
0.000321957
0.000314405
0.000308147
0.000302962
0.000298666
0.000295108
0.000292163
0.000289724
0.000287707
0.000286037
0.000284656
0.000283513
0.000282567
0.000281782
0.000281131
0.000280589
0.000280136
0.000279757
0.000279437
0.000279167
0.000278937
0.00027874
0.000278569
0.000278421
0.000278291
0.000278177
0.000278075
0.000277983
0.000277901
0.000277826
0.000277759
0.000277697
0.00027764
0.000277587
0.000277539
0.000277494
0.000277453
0.000277414
0.000277378
0.000277345
0.000277314
0.000277285
0.000277259
0.000277233
0.00027721
0.000277188
0.000277168
0.000277149
0.000277131
0.000277115
0.000277099
0.000277085
0.000277071
0.000277058
0.000277046
0.000277035
0.000277025
0.000277015
0.000277006
0.000276997
0.000276989
0.000276981
0.000276973
0.000276966
0.00027696
0.000276953
0.000276947
0.000276941
0.000276935
0.00027693
0.000276924
0.000276919
0.000276914
0.000276909
0.000276904
0.0002769
0.000276895
0.000276891
0.000276887
0.000276883
0.00027688
0.000276877
0.000276875
0.000276873
0.000276872
0.000940289
0.000838134
0.000750792
0.000676165
0.000612504
0.000558331
0.000512375
0.000473531
0.000440819
0.000413372
0.000390416
0.000371269
0.000355334
0.000342093
0.000331103
0.000321988
0.000314431
0.000308167
0.000302976
0.000298676
0.000295114
0.000292165
0.000289724
0.000287704
0.000286033
0.000284651
0.000283507
0.00028256
0.000281776
0.000281124
0.000280582
0.00028013
0.000279752
0.000279433
0.000279164
0.000278934
0.000278738
0.000278568
0.000278421
0.000278292
0.000278178
0.000278076
0.000277986
0.000277904
0.00027783
0.000277763
0.000277701
0.000277644
0.000277592
0.000277544
0.000277499
0.000277458
0.00027742
0.000277384
0.000277351
0.00027732
0.000277291
0.000277264
0.000277238
0.000277215
0.000277193
0.000277172
0.000277153
0.000277135
0.000277119
0.000277103
0.000277088
0.000277075
0.000277062
0.00027705
0.000277038
0.000277028
0.000277018
0.000277008
0.000276999
0.000276991
0.000276983
0.000276976
0.000276968
0.000276962
0.000276955
0.000276949
0.000276943
0.000276937
0.000276931
0.000276926
0.000276921
0.000276915
0.00027691
0.000276905
0.000276901
0.000276896
0.000276892
0.000276888
0.000276884
0.000276881
0.000276878
0.000276876
0.000276874
0.000276873
0.000940289
0.000838137
0.000750802
0.000676184
0.000612534
0.000558371
0.000512424
0.000473585
0.000440877
0.00041343
0.000390472
0.000371321
0.000355381
0.000342134
0.000331138
0.000322016
0.000314453
0.000308183
0.000302988
0.000298683
0.000295118
0.000292165
0.000289722
0.0002877
0.000286027
0.000284643
0.000283498
0.000282551
0.000281766
0.000281115
0.000280573
0.000280122
0.000279744
0.000279426
0.000279157
0.000278929
0.000278733
0.000278565
0.000278418
0.00027829
0.000278177
0.000278076
0.000277986
0.000277905
0.000277832
0.000277765
0.000277704
0.000277648
0.000277596
0.000277548
0.000277503
0.000277462
0.000277424
0.000277388
0.000277355
0.000277324
0.000277295
0.000277268
0.000277243
0.000277219
0.000277197
0.000277176
0.000277157
0.000277139
0.000277122
0.000277106
0.000277092
0.000277078
0.000277065
0.000277052
0.000277041
0.00027703
0.00027702
0.000277011
0.000277002
0.000276993
0.000276985
0.000276978
0.00027697
0.000276963
0.000276957
0.00027695
0.000276944
0.000276938
0.000276933
0.000276927
0.000276922
0.000276917
0.000276911
0.000276907
0.000276902
0.000276897
0.000276893
0.000276889
0.000276885
0.000276882
0.000276879
0.000276877
0.000276875
0.000276874
0.000940289
0.000838141
0.000750811
0.000676202
0.00061256
0.000558406
0.000512467
0.000473634
0.000440929
0.000413483
0.000390523
0.000371369
0.000355424
0.000342171
0.000331169
0.000322041
0.000314472
0.000308197
0.000302997
0.000298688
0.000295118
0.000292163
0.000289716
0.000287692
0.000286017
0.000284633
0.000283487
0.000282539
0.000281754
0.000281103
0.000280562
0.000280111
0.000279734
0.000279417
0.000279149
0.000278921
0.000278727
0.000278559
0.000278414
0.000278287
0.000278174
0.000278075
0.000277985
0.000277905
0.000277832
0.000277766
0.000277705
0.000277649
0.000277598
0.00027755
0.000277506
0.000277465
0.000277427
0.000277391
0.000277358
0.000277327
0.000277298
0.000277271
0.000277246
0.000277222
0.0002772
0.00027718
0.00027716
0.000277142
0.000277125
0.000277109
0.000277094
0.00027708
0.000277067
0.000277055
0.000277043
0.000277032
0.000277022
0.000277013
0.000277003
0.000276995
0.000276987
0.000276979
0.000276972
0.000276965
0.000276958
0.000276952
0.000276945
0.000276939
0.000276934
0.000276928
0.000276923
0.000276917
0.000276912
0.000276907
0.000276903
0.000276898
0.000276894
0.00027689
0.000276886
0.000276883
0.00027688
0.000276877
0.000276875
0.000276874
0.000940289
0.000838143
0.000750819
0.000676217
0.000612584
0.000558438
0.000512506
0.000473679
0.000440976
0.00041353
0.000390569
0.000371412
0.000355463
0.000342205
0.000331196
0.000322063
0.000314488
0.000308208
0.000303003
0.000298689
0.000295116
0.000292158
0.000289708
0.000287682
0.000286006
0.00028462
0.000283473
0.000282525
0.00028174
0.000281089
0.000280548
0.000280097
0.000279721
0.000279405
0.000279138
0.000278912
0.000278718
0.000278552
0.000278407
0.000278281
0.00027817
0.000278071
0.000277983
0.000277903
0.000277831
0.000277765
0.000277705
0.00027765
0.000277599
0.000277552
0.000277508
0.000277467
0.000277429
0.000277394
0.000277361
0.00027733
0.000277301
0.000277274
0.000277249
0.000277225
0.000277203
0.000277182
0.000277163
0.000277144
0.000277127
0.000277111
0.000277096
0.000277082
0.000277069
0.000277057
0.000277045
0.000277034
0.000277024
0.000277014
0.000277005
0.000276996
0.000276988
0.00027698
0.000276973
0.000276966
0.000276959
0.000276952
0.000276946
0.00027694
0.000276934
0.000276929
0.000276923
0.000276918
0.000276913
0.000276908
0.000276903
0.000276899
0.000276894
0.00027689
0.000276886
0.000276883
0.00027688
0.000276878
0.000276876
0.000276875
0.00094029
0.000838146
0.000750826
0.00067623
0.000612605
0.000558466
0.000512541
0.000473718
0.000441019
0.000413574
0.000390611
0.000371451
0.000355497
0.000342234
0.000331221
0.000322081
0.000314501
0.000308216
0.000303006
0.000298689
0.000295112
0.00029215
0.000289698
0.000287669
0.000285992
0.000284604
0.000283457
0.000282508
0.000281723
0.000281072
0.000280532
0.000280082
0.000279706
0.000279391
0.000279125
0.0002789
0.000278708
0.000278542
0.000278399
0.000278274
0.000278163
0.000278066
0.000277978
0.0002779
0.000277828
0.000277763
0.000277704
0.000277649
0.000277598
0.000277552
0.000277508
0.000277468
0.00027743
0.000277395
0.000277362
0.000277331
0.000277303
0.000277276
0.00027725
0.000277227
0.000277205
0.000277184
0.000277164
0.000277146
0.000277129
0.000277113
0.000277098
0.000277084
0.00027707
0.000277058
0.000277046
0.000277035
0.000277025
0.000277015
0.000277006
0.000276997
0.000276989
0.000276981
0.000276973
0.000276966
0.00027696
0.000276953
0.000276947
0.000276941
0.000276935
0.000276929
0.000276924
0.000276918
0.000276913
0.000276908
0.000276904
0.000276899
0.000276895
0.000276891
0.000276887
0.000276884
0.000276881
0.000276878
0.000276876
0.000276875
0.00094029
0.000838148
0.000750832
0.000676242
0.000612623
0.000558492
0.000512572
0.000473754
0.000441057
0.000413612
0.000390648
0.000371485
0.000355528
0.00034226
0.000331241
0.000322097
0.000314511
0.000308221
0.000303007
0.000298686
0.000295105
0.00029214
0.000289686
0.000287655
0.000285976
0.000284587
0.000283439
0.00028249
0.000281704
0.000281054
0.000280514
0.000280065
0.00027969
0.000279375
0.000279111
0.000278887
0.000278695
0.000278531
0.000278389
0.000278265
0.000278155
0.000278059
0.000277972
0.000277894
0.000277824
0.00027776
0.000277701
0.000277647
0.000277597
0.00027755
0.000277507
0.000277467
0.00027743
0.000277395
0.000277362
0.000277332
0.000277303
0.000277276
0.000277251
0.000277228
0.000277206
0.000277185
0.000277165
0.000277147
0.00027713
0.000277114
0.000277099
0.000277085
0.000277071
0.000277059
0.000277047
0.000277036
0.000277025
0.000277016
0.000277006
0.000276997
0.000276989
0.000276981
0.000276974
0.000276967
0.00027696
0.000276953
0.000276947
0.000276941
0.000276935
0.000276929
0.000276924
0.000276919
0.000276913
0.000276909
0.000276904
0.000276899
0.000276895
0.000276891
0.000276887
0.000276884
0.000276881
0.000276878
0.000276877
0.000276876
0.00094029
0.00083815
0.000750838
0.000676253
0.00061264
0.000558514
0.0005126
0.000473786
0.000441091
0.000413647
0.000390682
0.000371516
0.000355555
0.000342283
0.000331259
0.00032211
0.000314519
0.000308225
0.000303006
0.00029868
0.000295097
0.000292129
0.000289672
0.000287639
0.000285958
0.000284568
0.000283419
0.00028247
0.000281684
0.000281034
0.000280494
0.000280046
0.000279671
0.000279358
0.000279094
0.000278871
0.000278681
0.000278518
0.000278377
0.000278254
0.000278146
0.00027805
0.000277965
0.000277888
0.000277818
0.000277755
0.000277697
0.000277643
0.000277594
0.000277548
0.000277505
0.000277466
0.000277429
0.000277394
0.000277362
0.000277331
0.000277303
0.000277276
0.000277251
0.000277228
0.000277206
0.000277185
0.000277166
0.000277147
0.00027713
0.000277114
0.000277099
0.000277085
0.000277072
0.000277059
0.000277047
0.000277036
0.000277026
0.000277016
0.000277006
0.000276997
0.000276989
0.000276981
0.000276974
0.000276967
0.00027696
0.000276953
0.000276947
0.000276941
0.000276935
0.000276929
0.000276924
0.000276918
0.000276913
0.000276908
0.000276904
0.000276899
0.000276895
0.000276891
0.000276887
0.000276884
0.000276881
0.000276879
0.000276877
0.000276876
0.00094029
0.000838152
0.000750843
0.000676262
0.000612655
0.000558534
0.000512625
0.000473814
0.000441122
0.000413678
0.000390712
0.000371543
0.000355578
0.000342302
0.000331274
0.00032212
0.000314525
0.000308226
0.000303003
0.000298673
0.000295086
0.000292115
0.000289656
0.000287621
0.000285939
0.000284548
0.000283398
0.000282448
0.000281662
0.000281012
0.000280473
0.000280025
0.000279652
0.000279339
0.000279077
0.000278855
0.000278666
0.000278504
0.000278364
0.000278242
0.000278135
0.000278041
0.000277956
0.00027788
0.000277811
0.000277749
0.000277691
0.000277639
0.00027759
0.000277545
0.000277503
0.000277463
0.000277427
0.000277392
0.00027736
0.00027733
0.000277302
0.000277276
0.000277251
0.000277227
0.000277205
0.000277185
0.000277165
0.000277147
0.00027713
0.000277114
0.000277099
0.000277085
0.000277071
0.000277059
0.000277047
0.000277036
0.000277025
0.000277015
0.000277006
0.000276997
0.000276989
0.000276981
0.000276973
0.000276966
0.000276959
0.000276953
0.000276946
0.00027694
0.000276934
0.000276929
0.000276923
0.000276918
0.000276913
0.000276908
0.000276903
0.000276899
0.000276895
0.000276891
0.000276887
0.000276884
0.000276881
0.000276878
0.000276877
0.000276876
0.00094029
0.000838153
0.000750847
0.000676271
0.000612668
0.000558552
0.000512647
0.00047384
0.000441149
0.000413705
0.000390738
0.000371567
0.000355599
0.000342319
0.000331286
0.000322128
0.000314528
0.000308225
0.000302998
0.000298665
0.000295075
0.000292101
0.000289639
0.000287603
0.000285918
0.000284526
0.000283376
0.000282426
0.00028164
0.00028099
0.000280451
0.000280004
0.000279631
0.00027932
0.000279058
0.000278837
0.000278649
0.000278488
0.00027835
0.000278229
0.000278123
0.00027803
0.000277946
0.000277871
0.000277803
0.000277742
0.000277685
0.000277633
0.000277585
0.00027754
0.000277499
0.00027746
0.000277424
0.00027739
0.000277358
0.000277328
0.0002773
0.000277274
0.000277249
0.000277226
0.000277204
0.000277184
0.000277164
0.000277146
0.000277129
0.000277113
0.000277098
0.000277084
0.000277071
0.000277058
0.000277046
0.000277035
0.000277025
0.000277015
0.000277005
0.000276996
0.000276988
0.00027698
0.000276972
0.000276965
0.000276958
0.000276952
0.000276946
0.00027694
0.000276934
0.000276928
0.000276923
0.000276917
0.000276912
0.000276908
0.000276903
0.000276898
0.000276894
0.00027689
0.000276887
0.000276883
0.000276881
0.000276878
0.000276876
0.000276875
0.00094029
0.000838155
0.000750851
0.000676278
0.00061268
0.000558569
0.000512667
0.000473862
0.000441173
0.00041373
0.000390761
0.000371588
0.000355617
0.000342333
0.000331296
0.000322133
0.00031453
0.000308222
0.000302992
0.000298655
0.000295062
0.000292086
0.000289622
0.000287583
0.000285897
0.000284504
0.000283353
0.000282402
0.000281616
0.000280966
0.000280428
0.000279981
0.000279609
0.000279299
0.000279038
0.000278818
0.000278632
0.000278472
0.000278335
0.000278215
0.00027811
0.000278018
0.000277935
0.000277861
0.000277795
0.000277734
0.000277678
0.000277627
0.000277579
0.000277535
0.000277494
0.000277456
0.00027742
0.000277387
0.000277355
0.000277326
0.000277298
0.000277272
0.000277247
0.000277224
0.000277203
0.000277182
0.000277163
0.000277145
0.000277128
0.000277112
0.000277097
0.000277083
0.000277069
0.000277057
0.000277045
0.000277034
0.000277023
0.000277014
0.000277004
0.000276995
0.000276987
0.000276979
0.000276971
0.000276964
0.000276957
0.000276951
0.000276945
0.000276939
0.000276933
0.000276927
0.000276922
0.000276917
0.000276912
0.000276907
0.000276902
0.000276898
0.000276894
0.00027689
0.000276886
0.000276883
0.00027688
0.000276878
0.000276876
0.000276875
0.000940291
0.000838156
0.000750855
0.000676285
0.00061269
0.000558583
0.000512685
0.000473883
0.000441195
0.000413751
0.000390782
0.000371607
0.000355633
0.000342345
0.000331305
0.000322138
0.00031453
0.000308219
0.000302984
0.000298645
0.000295048
0.000292069
0.000289603
0.000287563
0.000285876
0.000284481
0.00028333
0.000282378
0.000281592
0.000280942
0.000280404
0.000279958
0.000279587
0.000279278
0.000279018
0.000278799
0.000278614
0.000278455
0.000278319
0.0002782
0.000278097
0.000278005
0.000277924
0.000277851
0.000277785
0.000277725
0.00027767
0.000277619
0.000277573
0.000277529
0.000277489
0.000277451
0.000277416
0.000277383
0.000277351
0.000277322
0.000277295
0.000277269
0.000277245
0.000277222
0.0002772
0.00027718
0.000277161
0.000277143
0.000277126
0.00027711
0.000277095
0.000277081
0.000277068
0.000277055
0.000277044
0.000277032
0.000277022
0.000277012
0.000277003
0.000276994
0.000276986
0.000276978
0.00027697
0.000276963
0.000276956
0.00027695
0.000276943
0.000276937
0.000276932
0.000276926
0.000276921
0.000276916
0.000276911
0.000276906
0.000276901
0.000276897
0.000276893
0.000276889
0.000276885
0.000276882
0.00027688
0.000276877
0.000276876
0.000276875
0.000940291
0.000838157
0.000750858
0.000676291
0.0006127
0.000558596
0.000512701
0.000473901
0.000441214
0.000413771
0.0003908
0.000371623
0.000355646
0.000342355
0.000331311
0.00032214
0.000314529
0.000308214
0.000302976
0.000298633
0.000295034
0.000292053
0.000289584
0.000287542
0.000285854
0.000284458
0.000283306
0.000282354
0.000281568
0.000280918
0.000280381
0.000279935
0.000279565
0.000279256
0.000278997
0.000278779
0.000278595
0.000278437
0.000278302
0.000278185
0.000278082
0.000277992
0.000277912
0.00027784
0.000277775
0.000277715
0.000277661
0.000277611
0.000277565
0.000277523
0.000277483
0.000277446
0.000277411
0.000277378
0.000277347
0.000277318
0.000277291
0.000277266
0.000277242
0.000277219
0.000277198
0.000277178
0.000277159
0.000277141
0.000277124
0.000277108
0.000277093
0.000277079
0.000277066
0.000277054
0.000277042
0.000277031
0.00027702
0.00027701
0.000277001
0.000276992
0.000276984
0.000276976
0.000276968
0.000276961
0.000276954
0.000276948
0.000276942
0.000276936
0.00027693
0.000276925
0.000276919
0.000276914
0.000276909
0.000276905
0.0002769
0.000276896
0.000276892
0.000276888
0.000276885
0.000276881
0.000276879
0.000276877
0.000276875
0.000276874
0.000940291
0.000838158
0.000750861
0.000676297
0.000612708
0.000558607
0.000512715
0.000473917
0.000441231
0.000413788
0.000390816
0.000371637
0.000355658
0.000342364
0.000331316
0.000322142
0.000314527
0.000308208
0.000302967
0.000298622
0.00029502
0.000292036
0.000289565
0.000287522
0.000285832
0.000284435
0.000283282
0.00028233
0.000281544
0.000280894
0.000280357
0.000279911
0.000279542
0.000279234
0.000278976
0.000278759
0.000278576
0.000278419
0.000278285
0.000278169
0.000278068
0.000277978
0.000277899
0.000277828
0.000277764
0.000277706
0.000277652
0.000277603
0.000277558
0.000277516
0.000277476
0.00027744
0.000277405
0.000277373
0.000277343
0.000277314
0.000277287
0.000277262
0.000277238
0.000277216
0.000277195
0.000277175
0.000277156
0.000277138
0.000277122
0.000277106
0.000277091
0.000277077
0.000277064
0.000277051
0.00027704
0.000277029
0.000277018
0.000277008
0.000276999
0.00027699
0.000276982
0.000276974
0.000276967
0.000276959
0.000276953
0.000276946
0.00027694
0.000276934
0.000276929
0.000276923
0.000276918
0.000276913
0.000276908
0.000276903
0.000276899
0.000276895
0.000276891
0.000276887
0.000276884
0.000276881
0.000276878
0.000276876
0.000276874
0.000276873
0.000940291
0.000838159
0.000750863
0.000676301
0.000612716
0.000558617
0.000512727
0.000473931
0.000441246
0.000413803
0.00039083
0.00037165
0.000355667
0.000342371
0.00033132
0.000322142
0.000314524
0.000308202
0.000302958
0.000298609
0.000295005
0.000292019
0.000289546
0.000287501
0.00028581
0.000284412
0.000283258
0.000282306
0.000281519
0.00028087
0.000280333
0.000279888
0.000279519
0.000279212
0.000278955
0.000278739
0.000278557
0.000278401
0.000278268
0.000278153
0.000278053
0.000277964
0.000277886
0.000277816
0.000277753
0.000277695
0.000277643
0.000277594
0.00027755
0.000277508
0.000277469
0.000277433
0.000277399
0.000277368
0.000277338
0.00027731
0.000277283
0.000277258
0.000277235
0.000277212
0.000277191
0.000277172
0.000277153
0.000277135
0.000277119
0.000277103
0.000277088
0.000277074
0.000277061
0.000277049
0.000277037
0.000277026
0.000277016
0.000277006
0.000276997
0.000276988
0.00027698
0.000276972
0.000276965
0.000276957
0.000276951
0.000276944
0.000276938
0.000276932
0.000276927
0.000276921
0.000276916
0.000276911
0.000276907
0.000276902
0.000276898
0.000276893
0.00027689
0.000276886
0.000276883
0.00027688
0.000276877
0.000276875
0.000276873
0.000276872
0.000940291
0.00083816
0.000750865
0.000676305
0.000612722
0.000558626
0.000512738
0.000473944
0.000441259
0.000413816
0.000390843
0.00037166
0.000355676
0.000342376
0.000331322
0.000322141
0.00031452
0.000308195
0.000302948
0.000298597
0.00029499
0.000292002
0.000289528
0.000287481
0.000285788
0.00028439
0.000283235
0.000282282
0.000281495
0.000280846
0.000280309
0.000279865
0.000279497
0.00027919
0.000278934
0.000278719
0.000278537
0.000278383
0.000278251
0.000278137
0.000278038
0.00027795
0.000277873
0.000277804
0.000277741
0.000277685
0.000277633
0.000277585
0.000277541
0.0002775
0.000277462
0.000277427
0.000277393
0.000277362
0.000277332
0.000277305
0.000277278
0.000277254
0.00027723
0.000277208
0.000277188
0.000277168
0.00027715
0.000277132
0.000277116