/*--------------------------------*- C++ -*----------------------------------*\
  =========                 |
  \\      /  F ield         | OpenFOAM: The Open Source CFD Toolbox
   \\    /   O peration     | Website:  https://openfoam.org
    \\  /    A nd           | Version:  11
     \\/     M anipulation  |
\*---------------------------------------------------------------------------*/
FoamFile
{
    format      ascii;
    class       volVectorField;
    location    "1686";
    object      U;
}
// * * * * * * * * * * * * * * * * * * * * * * * * * * * * * * * * * * * * * //

dimensions      [0 1 -1 0 0 0 0];

internalField   nonuniform List<vector> 
10000
(
(0.005 -1.99792e-13 0)
(0.005 -5.58627e-13 0)
(0.005 -9.05667e-13 0)
(0.005 -1.2532e-12 0)
(0.005 -1.60846e-12 0)
(0.005 -1.97661e-12 0)
(0.005 -2.3616e-12 0)
(0.005 -2.76674e-12 0)
(0.005 -3.19491e-12 0)
(0.005 -3.64878e-12 0)
(0.005 -4.13089e-12 0)
(0.005 -4.64371e-12 0)
(0.005 -5.18972e-12 0)
(0.005 -5.77139e-12 0)
(0.005 -6.39125e-12 0)
(0.005 -7.05186e-12 0)
(0.005 -7.75589e-12 0)
(0.005 -8.50605e-12 0)
(0.005 -9.30516e-12 0)
(0.005 -1.01561e-11 0)
(0.005 -1.1062e-11 0)
(0.005 -1.20258e-11 0)
(0.005 -1.30508e-11 0)
(0.005 -1.41405e-11 0)
(0.005 -1.52981e-11 0)
(0.005 -1.65275e-11 0)
(0.005 -1.78322e-11 0)
(0.005 -1.92162e-11 0)
(0.005 -2.06833e-11 0)
(0.005 -2.22379e-11 0)
(0.005 -2.38841e-11 0)
(0.005 -2.56263e-11 0)
(0.005 -2.74692e-11 0)
(0.005 -2.94172e-11 0)
(0.005 -3.14754e-11 0)
(0.005 -3.36487e-11 0)
(0.005 -3.59421e-11 0)
(0.005 -3.83609e-11 0)
(0.005 -4.09105e-11 0)
(0.005 -4.35964e-11 0)
(0.005 -4.64242e-11 0)
(0.005 -4.93997e-11 0)
(0.005 -5.25287e-11 0)
(0.005 -5.58172e-11 0)
(0.005 -5.92712e-11 0)
(0.005 -6.2897e-11 0)
(0.005 -6.67008e-11 0)
(0.005 -7.06889e-11 0)
(0.005 -7.48676e-11 0)
(0.005 -7.92434e-11 0)
(0.005 -8.38228e-11 0)
(0.005 -8.86121e-11 0)
(0.005 -9.36178e-11 0)
(0.005 -9.88463e-11 0)
(0.005 -1.04304e-10 0)
(0.005 -1.09997e-10 0)
(0.005 -1.15932e-10 0)
(0.005 -1.22114e-10 0)
(0.005 -1.28549e-10 0)
(0.005 -1.35243e-10 0)
(0.005 -1.42201e-10 0)
(0.005 -1.49429e-10 0)
(0.005 -1.5693e-10 0)
(0.005 -1.64709e-10 0)
(0.005 -1.7277e-10 0)
(0.005 -1.81115e-10 0)
(0.005 -1.89748e-10 0)
(0.005 -1.98669e-10 0)
(0.005 -2.0788e-10 0)
(0.005 -2.1738e-10 0)
(0.005 -2.27169e-10 0)
(0.005 -2.37244e-10 0)
(0.005 -2.47602e-10 0)
(0.005 -2.58236e-10 0)
(0.005 -2.69141e-10 0)
(0.005 -2.80307e-10 0)
(0.005 -2.91722e-10 0)
(0.005 -3.03374e-10 0)
(0.005 -3.15246e-10 0)
(0.005 -3.27318e-10 0)
(0.005 -3.39566e-10 0)
(0.005 -3.51963e-10 0)
(0.005 -3.64477e-10 0)
(0.005 -3.77069e-10 0)
(0.005 -3.89695e-10 0)
(0.005 -4.02303e-10 0)
(0.005 -4.14833e-10 0)
(0.005 -4.27215e-10 0)
(0.005 -4.39368e-10 0)
(0.005 -4.51196e-10 0)
(0.005 -4.62591e-10 0)
(0.005 -4.73427e-10 0)
(0.005 -4.83557e-10 0)
(0.005 -4.92819e-10 0)
(0.005 -5.01026e-10 0)
(0.005 -5.07977e-10 0)
(0.005 -5.13465e-10 0)
(0.005 -5.17284e-10 0)
(0.005 -5.19338e-10 0)
(0.005 -5.19909e-10 0)
(0.005 -1.7022e-13 0)
(0.005 -5.02648e-13 0)
(0.005 -8.32584e-13 0)
(0.005 -1.16454e-12 0)
(0.005 -1.50438e-12 0)
(0.005 -1.85668e-12 0)
(0.005 -2.22509e-12 0)
(0.005 -2.61271e-12 0)
(0.005 -3.02229e-12 0)
(0.005 -3.45637e-12 0)
(0.005 -3.9174e-12 0)
(0.005 -4.40775e-12 0)
(0.005 -4.92979e-12 0)
(0.005 -5.48589e-12 0)
(0.005 -6.07849e-12 0)
(0.005 -6.71005e-12 0)
(0.005 -7.38312e-12 0)
(0.005 -8.10032e-12 0)
(0.005 -8.86434e-12 0)
(0.005 -9.67799e-12 0)
(0.005 -1.05442e-11 0)
(0.005 -1.14658e-11 0)
(0.005 -1.24462e-11 0)
(0.005 -1.34883e-11 0)
(0.005 -1.45957e-11 0)
(0.005 -1.57717e-11 0)
(0.005 -1.70199e-11 0)
(0.005 -1.83442e-11 0)
(0.005 -1.97482e-11 0)
(0.005 -2.1236e-11 0)
(0.005 -2.28116e-11 0)
(0.005 -2.44795e-11 0)
(0.005 -2.62438e-11 0)
(0.005 -2.81092e-11 0)
(0.005 -3.00802e-11 0)
(0.005 -3.21618e-11 0)
(0.005 -3.43587e-11 0)
(0.005 -3.66761e-11 0)
(0.005 -3.91192e-11 0)
(0.005 -4.16933e-11 0)
(0.005 -4.44038e-11 0)
(0.005 -4.72563e-11 0)
(0.005 -5.02564e-11 0)
(0.005 -5.34101e-11 0)
(0.005 -5.67231e-11 0)
(0.005 -6.02015e-11 0)
(0.005 -6.38513e-11 0)
(0.005 -6.76787e-11 0)
(0.005 -7.16898e-11 0)
(0.005 -7.58911e-11 0)
(0.005 -8.02887e-11 0)
(0.005 -8.48889e-11 0)
(0.005 -8.96982e-11 0)
(0.005 -9.47227e-11 0)
(0.005 -9.99687e-11 0)
(0.005 -1.05443e-10 0)
(0.005 -1.1115e-10 0)
(0.005 -1.17098e-10 0)
(0.005 -1.23291e-10 0)
(0.005 -1.29735e-10 0)
(0.005 -1.36436e-10 0)
(0.005 -1.43398e-10 0)
(0.005 -1.50627e-10 0)
(0.005 -1.58127e-10 0)
(0.005 -1.65902e-10 0)
(0.005 -1.73956e-10 0)
(0.005 -1.8229e-10 0)
(0.005 -1.90909e-10 0)
(0.005 -1.99812e-10 0)
(0.005 -2.09001e-10 0)
(0.005 -2.18476e-10 0)
(0.005 -2.28235e-10 0)
(0.005 -2.38276e-10 0)
(0.005 -2.48595e-10 0)
(0.005 -2.59186e-10 0)
(0.005 -2.70043e-10 0)
(0.005 -2.81156e-10 0)
(0.005 -2.92513e-10 0)
(0.005 -3.04102e-10 0)
(0.005 -3.15906e-10 0)
(0.005 -3.27903e-10 0)
(0.005 -3.40072e-10 0)
(0.005 -3.52382e-10 0)
(0.005 -3.64803e-10 0)
(0.005 -3.77293e-10 0)
(0.005 -3.89809e-10 0)
(0.005 -4.02296e-10 0)
(0.005 -4.14693e-10 0)
(0.005 -4.26927e-10 0)
(0.005 -4.38913e-10 0)
(0.005 -4.50553e-10 0)
(0.005 -4.61733e-10 0)
(0.005 -4.72323e-10 0)
(0.005 -4.82173e-10 0)
(0.005 -4.91117e-10 0)
(0.005 -4.98973e-10 0)
(0.005 -5.05548e-10 0)
(0.005 -5.10623e-10 0)
(0.005 -5.14055e-10 0)
(0.005 -5.16089e-10 0)
(0.005 -1.46455e-13 0)
(0.005 -4.50708e-13 0)
(0.005 -7.60955e-13 0)
(0.005 -1.07644e-12 0)
(0.005 -1.40065e-12 0)
(0.005 -1.7372e-12 0)
(0.005 -2.08929e-12 0)
(0.005 -2.45974e-12 0)
(0.005 -2.85113e-12 0)
(0.005 -3.26588e-12 0)
(0.005 -3.70632e-12 0)
(0.005 -4.17472e-12 0)
(0.005 -4.67337e-12 0)
(0.005 -5.20454e-12 0)
(0.005 -5.77056e-12 0)
(0.005 -6.3738e-12 0)
(0.005 -7.01672e-12 0)
(0.005 -7.70181e-12 0)
(0.005 -8.43168e-12 0)
(0.005 -9.20901e-12 0)
(0.005 -1.00366e-11 0)
(0.005 -1.09173e-11 0)
(0.005 -1.18541e-11 0)
(0.005 -1.28502e-11 0)
(0.005 -1.39086e-11 0)
(0.005 -1.50329e-11 0)
(0.005 -1.62263e-11 0)
(0.005 -1.74925e-11 0)
(0.005 -1.88352e-11 0)
(0.005 -2.02582e-11 0)
(0.005 -2.17655e-11 0)
(0.005 -2.33612e-11 0)
(0.005 -2.50494e-11 0)
(0.005 -2.68346e-11 0)
(0.005 -2.87213e-11 0)
(0.005 -3.0714e-11 0)
(0.005 -3.28175e-11 0)
(0.005 -3.50367e-11 0)
(0.005 -3.73766e-11 0)
(0.005 -3.98425e-11 0)
(0.005 -4.24394e-11 0)
(0.005 -4.51729e-11 0)
(0.005 -4.80485e-11 0)
(0.005 -5.10717e-11 0)
(0.005 -5.42483e-11 0)
(0.005 -5.75842e-11 0)
(0.005 -6.10851e-11 0)
(0.005 -6.47572e-11 0)
(0.005 -6.86064e-11 0)
(0.005 -7.26389e-11 0)
(0.005 -7.68609e-11 0)
(0.005 -8.12786e-11 0)
(0.005 -8.5898e-11 0)
(0.005 -9.07256e-11 0)
(0.005 -9.57673e-11 0)
(0.005 -1.01029e-10 0)
(0.005 -1.06518e-10 0)
(0.005 -1.12239e-10 0)
(0.005 -1.18198e-10 0)
(0.005 -1.24401e-10 0)
(0.005 -1.30854e-10 0)
(0.005 -1.37561e-10 0)
(0.005 -1.44527e-10 0)
(0.005 -1.51758e-10 0)
(0.005 -1.59258e-10 0)
(0.005 -1.6703e-10 0)
(0.005 -1.75078e-10 0)
(0.005 -1.83404e-10 0)
(0.005 -1.92011e-10 0)
(0.005 -2.00901e-10 0)
(0.005 -2.10073e-10 0)
(0.005 -2.19528e-10 0)
(0.005 -2.29263e-10 0)
(0.005 -2.39278e-10 0)
(0.005 -2.49567e-10 0)
(0.005 -2.60126e-10 0)
(0.005 -2.70947e-10 0)
(0.005 -2.82022e-10 0)
(0.005 -2.93338e-10 0)
(0.005 -3.04882e-10 0)
(0.005 -3.16638e-10 0)
(0.005 -3.28585e-10 0)
(0.005 -3.40699e-10 0)
(0.005 -3.52952e-10 0)
(0.005 -3.65311e-10 0)
(0.005 -3.77735e-10 0)
(0.005 -3.90178e-10 0)
(0.005 -4.02584e-10 0)
(0.005 -4.1489e-10 0)
(0.005 -4.2702e-10 0)
(0.005 -4.38885e-10 0)
(0.005 -4.50382e-10 0)
(0.005 -4.61392e-10 0)
(0.005 -4.71778e-10 0)
(0.005 -4.81383e-10 0)
(0.005 -4.90033e-10 0)
(0.005 -4.97531e-10 0)
(0.005 -5.03659e-10 0)
(0.005 -5.08264e-10 0)
(0.005 -5.11349e-10 0)
(0.005 -1.30262e-13 0)
(0.005 -4.09151e-13 0)
(0.005 -6.99613e-13 0)
(0.005 -9.98475e-13 0)
(0.005 -1.30743e-12 0)
(0.005 -1.62907e-12 0)
(0.005 -1.96599e-12 0)
(0.005 -2.32067e-12 0)
(0.005 -2.69545e-12 0)
(0.005 -3.09261e-12 0)
(0.005 -3.51435e-12 0)
(0.005 -3.96284e-12 0)
(0.005 -4.44026e-12 0)
(0.005 -4.94881e-12 0)
(0.005 -5.49072e-12 0)
(0.005 -6.06828e-12 0)
(0.005 -6.68383e-12 0)
(0.005 -7.3398e-12 0)
(0.005 -8.03867e-12 0)
(0.005 -8.78305e-12 0)
(0.005 -9.5756e-12 0)
(0.005 -1.04191e-11 0)
(0.005 -1.13165e-11 0)
(0.005 -1.22706e-11 0)
(0.005 -1.32847e-11 0)
(0.005 -1.43619e-11 0)
(0.005 -1.55055e-11 0)
(0.005 -1.67191e-11 0)
(0.005 -1.80061e-11 0)
(0.005 -1.93703e-11 0)
(0.005 -2.08155e-11 0)
(0.005 -2.23456e-11 0)
(0.005 -2.39647e-11 0)
(0.005 -2.56771e-11 0)
(0.005 -2.7487e-11 0)
(0.005 -2.9399e-11 0)
(0.005 -3.14176e-11 0)
(0.005 -3.35476e-11 0)
(0.005 -3.57938e-11 0)
(0.005 -3.81613e-11 0)
(0.005 -4.06551e-11 0)
(0.005 -4.32804e-11 0)
(0.005 -4.60427e-11 0)
(0.005 -4.89474e-11 0)
(0.005 -5.20001e-11 0)
(0.005 -5.52063e-11 0)
(0.005 -5.8572e-11 0)
(0.005 -6.21029e-11 0)
(0.005 -6.58049e-11 0)
(0.005 -6.96841e-11 0)
(0.005 -7.37464e-11 0)
(0.005 -7.7998e-11 0)
(0.005 -8.2445e-11 0)
(0.005 -8.70934e-11 0)
(0.005 -9.19494e-11 0)
(0.005 -9.70191e-11 0)
(0.005 -1.02308e-10 0)
(0.005 -1.07823e-10 0)
(0.005 -1.1357e-10 0)
(0.005 -1.19554e-10 0)
(0.005 -1.2578e-10 0)
(0.005 -1.32255e-10 0)
(0.005 -1.38983e-10 0)
(0.005 -1.45969e-10 0)
(0.005 -1.53218e-10 0)
(0.005 -1.60734e-10 0)
(0.005 -1.6852e-10 0)
(0.005 -1.76581e-10 0)
(0.005 -1.84918e-10 0)
(0.005 -1.93535e-10 0)
(0.005 -2.02431e-10 0)
(0.005 -2.11609e-10 0)
(0.005 -2.21066e-10 0)
(0.005 -2.30804e-10 0)
(0.005 -2.40817e-10 0)
(0.005 -2.51104e-10 0)
(0.005 -2.61658e-10 0)
(0.005 -2.72473e-10 0)
(0.005 -2.83539e-10 0)
(0.005 -2.94846e-10 0)
(0.005 -3.06379e-10 0)
(0.005 -3.18121e-10 0)
(0.005 -3.30052e-10 0)
(0.005 -3.42149e-10 0)
(0.005 -3.54381e-10 0)
(0.005 -3.66714e-10 0)
(0.005 -3.79107e-10 0)
(0.005 -3.91511e-10 0)
(0.005 -4.03868e-10 0)
(0.005 -4.16111e-10 0)
(0.005 -4.28158e-10 0)
(0.005 -4.39915e-10 0)
(0.005 -4.51268e-10 0)
(0.005 -4.62087e-10 0)
(0.005 -4.72219e-10 0)
(0.005 -4.81484e-10 0)
(0.005 -4.8967e-10 0)
(0.005 -4.96521e-10 0)
(0.005 -5.01769e-10 0)
(0.005 -5.05369e-10 0)
(0.005 -1.17347e-13 0)
(0.005 -3.72952e-13 0)
(0.005 -6.43429e-13 0)
(0.005 -9.24834e-13 0)
(0.005 -1.21777e-12 0)
(0.005 -1.52397e-12 0)
(0.005 -1.84543e-12 0)
(0.005 -2.18422e-12 0)
(0.005 -2.54243e-12 0)
(0.005 -2.92213e-12 0)
(0.005 -3.32537e-12 0)
(0.005 -3.75421e-12 0)
(0.005 -4.21071e-12 0)
(0.005 -4.69698e-12 0)
(0.005 -5.21516e-12 0)
(0.005 -5.76743e-12 0)
(0.005 -6.35605e-12 0)
(0.005 -6.98335e-12 0)
(0.005 -7.65172e-12 0)
(0.005 -8.36366e-12 0)
(0.005 -9.12173e-12 0)
(0.005 -9.92862e-12 0)
(0.005 -1.07871e-11 0)
(0.005 -1.17e-11 0)
(0.005 -1.26704e-11 0)
(0.005 -1.37013e-11 0)
(0.005 -1.47959e-11 0)
(0.005 -1.59576e-11 0)
(0.005 -1.71897e-11 0)
(0.005 -1.8496e-11 0)
(0.005 -1.988e-11 0)
(0.005 -2.13455e-11 0)
(0.005 -2.28965e-11 0)
(0.005 -2.45371e-11 0)
(0.005 -2.62715e-11 0)
(0.005 -2.81039e-11 0)
(0.005 -3.00388e-11 0)
(0.005 -3.20809e-11 0)
(0.005 -3.42348e-11 0)
(0.005 -3.65053e-11 0)
(0.005 -3.88974e-11 0)
(0.005 -4.14162e-11 0)
(0.005 -4.40669e-11 0)
(0.005 -4.68547e-11 0)
(0.005 -4.97851e-11 0)
(0.005 -5.28637e-11 0)
(0.005 -5.60959e-11 0)
(0.005 -5.94876e-11 0)
(0.005 -6.30445e-11 0)
(0.005 -6.67724e-11 0)
(0.005 -7.06774e-11 0)
(0.005 -7.47652e-11 0)
(0.005 -7.90421e-11 0)
(0.005 -8.35138e-11 0)
(0.005 -8.81866e-11 0)
(0.005 -9.30665e-11 0)
(0.005 -9.81593e-11 0)
(0.005 -1.03471e-10 0)
(0.005 -1.09008e-10 0)
(0.005 -1.14775e-10 0)
(0.005 -1.20779e-10 0)
(0.005 -1.27024e-10 0)
(0.005 -1.33516e-10 0)
(0.005 -1.40261e-10 0)
(0.005 -1.47262e-10 0)
(0.005 -1.54525e-10 0)
(0.005 -1.62054e-10 0)
(0.005 -1.69852e-10 0)
(0.005 -1.77923e-10 0)
(0.005 -1.86269e-10 0)
(0.005 -1.94893e-10 0)
(0.005 -2.03796e-10 0)
(0.005 -2.12978e-10 0)
(0.005 -2.22441e-10 0)
(0.005 -2.32181e-10 0)
(0.005 -2.42198e-10 0)
(0.005 -2.52487e-10 0)
(0.005 -2.63044e-10 0)
(0.005 -2.73861e-10 0)
(0.005 -2.8493e-10 0)
(0.005 -2.96239e-10 0)
(0.005 -3.07775e-10 0)
(0.005 -3.1952e-10 0)
(0.005 -3.31455e-10 0)
(0.005 -3.43555e-10 0)
(0.005 -3.55789e-10 0)
(0.005 -3.68122e-10 0)
(0.005 -3.8051e-10 0)
(0.005 -3.92901e-10 0)
(0.005 -4.05234e-10 0)
(0.005 -4.17433e-10 0)
(0.005 -4.2941e-10 0)
(0.005 -4.41058e-10 0)
(0.005 -4.52247e-10 0)
(0.005 -4.62822e-10 0)
(0.005 -4.72594e-10 0)
(0.005 -4.81329e-10 0)
(0.005 -4.88728e-10 0)
(0.005 -4.94431e-10 0)
(0.005 -4.98092e-10 0)
(0.005 -1.06164e-13 0)
(0.005 -3.40357e-13 0)
(0.005 -5.91248e-13 0)
(0.005 -8.54841e-13 0)
(0.005 -1.13117e-12 0)
(0.005 -1.42136e-12 0)
(0.005 -1.72691e-12 0)
(0.005 -2.0495e-12 0)
(0.005 -2.39094e-12 0)
(0.005 -2.75307e-12 0)
(0.005 -3.13779e-12 0)
(0.005 -3.547e-12 0)
(0.005 -3.98267e-12 0)
(0.005 -4.44678e-12 0)
(0.005 -4.94136e-12 0)
(0.005 -5.46851e-12 0)
(0.005 -6.03039e-12 0)
(0.005 -6.62923e-12 0)
(0.005 -7.26733e-12 0)
(0.005 -7.94707e-12 0)
(0.005 -8.67094e-12 0)
(0.005 -9.44149e-12 0)
(0.005 -1.02614e-11 0)
(0.005 -1.11334e-11 0)
(0.005 -1.20604e-11 0)
(0.005 -1.30453e-11 0)
(0.005 -1.40913e-11 0)
(0.005 -1.52015e-11 0)
(0.005 -1.63792e-11 0)
(0.005 -1.7628e-11 0)
(0.005 -1.89512e-11 0)
(0.005 -2.03526e-11 0)
(0.005 -2.18361e-11 0)
(0.005 -2.34054e-11 0)
(0.005 -2.50648e-11 0)
(0.005 -2.68182e-11 0)
(0.005 -2.86701e-11 0)
(0.005 -3.06249e-11 0)
(0.005 -3.26871e-11 0)
(0.005 -3.48614e-11 0)
(0.005 -3.71526e-11 0)
(0.005 -3.95655e-11 0)
(0.005 -4.21054e-11 0)
(0.005 -4.47772e-11 0)
(0.005 -4.75863e-11 0)
(0.005 -5.0538e-11 0)
(0.005 -5.36378e-11 0)
(0.005 -5.68913e-11 0)
(0.005 -6.0304e-11 0)
(0.005 -6.38818e-11 0)
(0.005 -6.76304e-11 0)
(0.005 -7.15557e-11 0)
(0.005 -7.56635e-11 0)
(0.005 -7.99598e-11 0)
(0.005 -8.44507e-11 0)
(0.005 -8.91419e-11 0)
(0.005 -9.40396e-11 0)
(0.005 -9.91496e-11 0)
(0.005 -1.04478e-10 0)
(0.005 -1.1003e-10 0)
(0.005 -1.15812e-10 0)
(0.005 -1.21829e-10 0)
(0.005 -1.28087e-10 0)
(0.005 -1.34592e-10 0)
(0.005 -1.41347e-10 0)
(0.005 -1.48359e-10 0)
(0.005 -1.55631e-10 0)
(0.005 -1.63168e-10 0)
(0.005 -1.70973e-10 0)
(0.005 -1.7905e-10 0)
(0.005 -1.87403e-10 0)
(0.005 -1.96032e-10 0)
(0.005 -2.0494e-10 0)
(0.005 -2.14128e-10 0)
(0.005 -2.23596e-10 0)
(0.005 -2.33343e-10 0)
(0.005 -2.43367e-10 0)
(0.005 -2.53665e-10 0)
(0.005 -2.64231e-10 0)
(0.005 -2.7506e-10 0)
(0.005 -2.86142e-10 0)
(0.005 -2.97468e-10 0)
(0.005 -3.09023e-10 0)
(0.005 -3.20791e-10 0)
(0.005 -3.3275e-10 0)
(0.005 -3.44875e-10 0)
(0.005 -3.57134e-10 0)
(0.005 -3.69489e-10 0)
(0.005 -3.81894e-10 0)
(0.005 -3.94291e-10 0)
(0.005 -4.06611e-10 0)
(0.005 -4.18769e-10 0)
(0.005 -4.3066e-10 0)
(0.005 -4.42155e-10 0)
(0.005 -4.53094e-10 0)
(0.005 -4.63276e-10 0)
(0.005 -4.72443e-10 0)
(0.005 -4.80256e-10 0)
(0.005 -4.86285e-10 0)
(0.005 -4.89798e-10 0)
(0.005 -9.63014e-14 0)
(0.005 -3.10857e-13 0)
(0.005 -5.42976e-13 0)
(0.005 -7.88914e-13 0)
(0.005 -1.04846e-12 0)
(0.005 -1.32236e-12 0)
(0.005 -1.61173e-12 0)
(0.005 -1.91792e-12 0)
(0.005 -2.24247e-12 0)
(0.005 -2.58702e-12 0)
(0.005 -2.95327e-12 0)
(0.005 -3.34299e-12 0)
(0.005 -3.758e-12 0)
(0.005 -4.20018e-12 0)
(0.005 -4.67145e-12 0)
(0.005 -5.17381e-12 0)
(0.005 -5.70931e-12 0)
(0.005 -6.28009e-12 0)
(0.005 -6.88834e-12 0)
(0.005 -7.53636e-12 0)
(0.005 -8.22651e-12 0)
(0.005 -8.96126e-12 0)
(0.005 -9.74316e-12 0)
(0.005 -1.05749e-11 0)
(0.005 -1.14591e-11 0)
(0.005 -1.23988e-11 0)
(0.005 -1.33968e-11 0)
(0.005 -1.44563e-11 0)
(0.005 -1.55804e-11 0)
(0.005 -1.67725e-11 0)
(0.005 -1.80359e-11 0)
(0.005 -1.93742e-11 0)
(0.005 -2.0791e-11 0)
(0.005 -2.22902e-11 0)
(0.005 -2.38756e-11 0)
(0.005 -2.55513e-11 0)
(0.005 -2.73213e-11 0)
(0.005 -2.91901e-11 0)
(0.005 -3.11619e-11 0)
(0.005 -3.32414e-11 0)
(0.005 -3.5433e-11 0)
(0.005 -3.77417e-11 0)
(0.005 -4.01723e-11 0)
(0.005 -4.27298e-11 0)
(0.005 -4.54193e-11 0)
(0.005 -4.8246e-11 0)
(0.005 -5.12153e-11 0)
(0.005 -5.43324e-11 0)
(0.005 -5.76031e-11 0)
(0.005 -6.10328e-11 0)
(0.005 -6.46273e-11 0)
(0.005 -6.83922e-11 0)
(0.005 -7.23334e-11 0)
(0.005 -7.64568e-11 0)
(0.005 -8.07681e-11 0)
(0.005 -8.52734e-11 0)
(0.005 -8.99785e-11 0)
(0.005 -9.48894e-11 0)
(0.005 -1.00012e-10 0)
(0.005 -1.05352e-10 0)
(0.005 -1.10915e-10 0)
(0.005 -1.16708e-10 0)
(0.005 -1.22735e-10 0)
(0.005 -1.29002e-10 0)
(0.005 -1.35514e-10 0)
(0.005 -1.42277e-10 0)
(0.005 -1.49296e-10 0)
(0.005 -1.56575e-10 0)
(0.005 -1.64118e-10 0)
(0.005 -1.71929e-10 0)
(0.005 -1.80013e-10 0)
(0.005 -1.88371e-10 0)
(0.005 -1.97008e-10 0)
(0.005 -2.05924e-10 0)
(0.005 -2.15121e-10 0)
(0.005 -2.24599e-10 0)
(0.005 -2.34359e-10 0)
(0.005 -2.44398e-10 0)
(0.005 -2.54714e-10 0)
(0.005 -2.65301e-10 0)
(0.005 -2.76156e-10 0)
(0.005 -2.87268e-10 0)
(0.005 -2.98627e-10 0)
(0.005 -3.10221e-10 0)
(0.005 -3.2203e-10 0)
(0.005 -3.34034e-10 0)
(0.005 -3.46205e-10 0)
(0.005 -3.5851e-10 0)
(0.005 -3.70905e-10 0)
(0.005 -3.83338e-10 0)
(0.005 -3.95742e-10 0)
(0.005 -4.08036e-10 0)
(0.005 -4.20116e-10 0)
(0.005 -4.3185e-10 0)
(0.005 -4.43073e-10 0)
(0.005 -4.53569e-10 0)
(0.005 -4.6306e-10 0)
(0.005 -4.71167e-10 0)
(0.005 -4.77399e-10 0)
(0.005 -4.80833e-10 0)
(0.005 -8.74616e-14 0)
(0.005 -2.8394e-13 0)
(0.005 -4.98244e-13 0)
(0.005 -7.26973e-13 0)
(0.005 -9.69858e-13 0)
(0.005 -1.22741e-12 0)
(0.005 -1.50049e-12 0)
(0.005 -1.7902e-12 0)
(0.005 -2.09783e-12 0)
(0.005 -2.42482e-12 0)
(0.005 -2.77269e-12 0)
(0.005 -3.14307e-12 0)
(0.005 -3.53765e-12 0)
(0.005 -3.95817e-12 0)
(0.005 -4.40646e-12 0)
(0.005 -4.8844e-12 0)
(0.005 -5.39395e-12 0)
(0.005 -5.93713e-12 0)
(0.005 -6.51605e-12 0)
(0.005 -7.13289e-12 0)
(0.005 -7.78993e-12 0)
(0.005 -8.48951e-12 0)
(0.005 -9.23408e-12 0)
(0.005 -1.00262e-11 0)
(0.005 -1.08685e-11 0)
(0.005 -1.17637e-11 0)
(0.005 -1.27147e-11 0)
(0.005 -1.37243e-11 0)
(0.005 -1.47958e-11 0)
(0.005 -1.59322e-11 0)
(0.005 -1.71368e-11 0)
(0.005 -1.84131e-11 0)
(0.005 -1.97646e-11 0)
(0.005 -2.11948e-11 0)
(0.005 -2.27076e-11 0)
(0.005 -2.43069e-11 0)
(0.005 -2.59965e-11 0)
(0.005 -2.77808e-11 0)
(0.005 -2.96639e-11 0)
(0.005 -3.16502e-11 0)
(0.005 -3.37441e-11 0)
(0.005 -3.59504e-11 0)
(0.005 -3.82736e-11 0)
(0.005 -4.07188e-11 0)
(0.005 -4.32907e-11 0)
(0.005 -4.59946e-11 0)
(0.005 -4.88356e-11 0)
(0.005 -5.18189e-11 0)
(0.005 -5.49499e-11 0)
(0.005 -5.82341e-11 0)
(0.005 -6.16771e-11 0)
(0.005 -6.52844e-11 0)
(0.005 -6.90618e-11 0)
(0.005 -7.30151e-11 0)
(0.005 -7.715e-11 0)
(0.005 -8.14724e-11 0)
(0.005 -8.59882e-11 0)
(0.005 -9.07032e-11 0)
(0.005 -9.56235e-11 0)
(0.005 -1.00755e-10 0)
(0.005 -1.06103e-10 0)
(0.005 -1.11674e-10 0)
(0.005 -1.17473e-10 0)
(0.005 -1.23507e-10 0)
(0.005 -1.2978e-10 0)
(0.005 -1.36299e-10 0)
(0.005 -1.43068e-10 0)
(0.005 -1.50092e-10 0)
(0.005 -1.57376e-10 0)
(0.005 -1.64925e-10 0)
(0.005 -1.72743e-10 0)
(0.005 -1.80835e-10 0)
(0.005 -1.89202e-10 0)
(0.005 -1.97849e-10 0)
(0.005 -2.06777e-10 0)
(0.005 -2.15989e-10 0)
(0.005 -2.25486e-10 0)
(0.005 -2.35267e-10 0)
(0.005 -2.45332e-10 0)
(0.005 -2.55677e-10 0)
(0.005 -2.66301e-10 0)
(0.005 -2.77196e-10 0)
(0.005 -2.88354e-10 0)
(0.005 -2.99766e-10 0)
(0.005 -3.11416e-10 0)
(0.005 -3.23287e-10 0)
(0.005 -3.35354e-10 0)
(0.005 -3.47588e-10 0)
(0.005 -3.59948e-10 0)
(0.005 -3.72385e-10 0)
(0.005 -3.84837e-10 0)
(0.005 -3.97222e-10 0)
(0.005 -4.09435e-10 0)
(0.005 -4.21344e-10 0)
(0.005 -4.32774e-10 0)
(0.005 -4.43499e-10 0)
(0.005 -4.53219e-10 0)
(0.005 -4.61526e-10 0)
(0.005 -4.6788e-10 0)
(0.005 -4.71345e-10 0)
(0.005 -7.94154e-14 0)
(0.005 -2.59172e-13 0)
(0.005 -4.56639e-13 0)
(0.005 -6.68759e-13 0)
(0.005 -8.95293e-13 0)
(0.005 -1.13664e-12 0)
(0.005 -1.39348e-12 0)
(0.005 -1.66673e-12 0)
(0.005 -1.95747e-12 0)
(0.005 -2.26698e-12 0)
(0.005 -2.59661e-12 0)
(0.005 -2.94784e-12 0)
(0.005 -3.32222e-12 0)
(0.005 -3.72138e-12 0)
(0.005 -4.14704e-12 0)
(0.005 -4.60096e-12 0)
(0.005 -5.085e-12 0)
(0.005 -5.60108e-12 0)
(0.005 -6.1512e-12 0)
(0.005 -6.73746e-12 0)
(0.005 -7.36201e-12 0)
(0.005 -8.0271e-12 0)
(0.005 -8.73508e-12 0)
(0.005 -9.48839e-12 0)
(0.005 -1.02895e-11 0)
(0.005 -1.11412e-11 0)
(0.005 -1.2046e-11 0)
(0.005 -1.30069e-11 0)
(0.005 -1.40267e-11 0)
(0.005 -1.51086e-11 0)
(0.005 -1.62556e-11 0)
(0.005 -1.74711e-11 0)
(0.005 -1.87584e-11 0)
(0.005 -2.01211e-11 0)
(0.005 -2.15627e-11 0)
(0.005 -2.30871e-11 0)
(0.005 -2.4698e-11 0)
(0.005 -2.63994e-11 0)
(0.005 -2.81955e-11 0)
(0.005 -3.00904e-11 0)
(0.005 -3.20885e-11 0)
(0.005 -3.41943e-11 0)
(0.005 -3.64123e-11 0)
(0.005 -3.87473e-11 0)
(0.005 -4.1204e-11 0)
(0.005 -4.37874e-11 0)
(0.005 -4.65025e-11 0)
(0.005 -4.93544e-11 0)
(0.005 -5.23485e-11 0)
(0.005 -5.54899e-11 0)
(0.005 -5.87843e-11 0)
(0.005 -6.2237e-11 0)
(0.005 -6.58537e-11 0)
(0.005 -6.964e-11 0)
(0.005 -7.36017e-11 0)
(0.005 -7.77446e-11 0)
(0.005 -8.20745e-11 0)
(0.005 -8.65973e-11 0)
(0.005 -9.13189e-11 0)
(0.005 -9.62452e-11 0)
(0.005 -1.01382e-10 0)
(0.005 -1.06736e-10 0)
(0.005 -1.12311e-10 0)
(0.005 -1.18115e-10 0)
(0.005 -1.24154e-10 0)
(0.005 -1.30431e-10 0)
(0.005 -1.36954e-10 0)
(0.005 -1.43728e-10 0)
(0.005 -1.50757e-10 0)
(0.005 -1.58048e-10 0)
(0.005 -1.65604e-10 0)
(0.005 -1.73431e-10 0)
(0.005 -1.81533e-10 0)
(0.005 -1.89913e-10 0)
(0.005 -1.98575e-10 0)
(0.005 -2.07523e-10 0)
(0.005 -2.16758e-10 0)
(0.005 -2.26281e-10 0)
(0.005 -2.36095e-10 0)
(0.005 -2.46197e-10 0)
(0.005 -2.56587e-10 0)
(0.005 -2.67261e-10 0)
(0.005 -2.78213e-10 0)
(0.005 -2.89435e-10 0)
(0.005 -3.00916e-10 0)
(0.005 -3.12639e-10 0)
(0.005 -3.24586e-10 0)
(0.005 -3.36727e-10 0)
(0.005 -3.49026e-10 0)
(0.005 -3.61437e-10 0)
(0.005 -3.73898e-10 0)
(0.005 -3.86328e-10 0)
(0.005 -3.98622e-10 0)
(0.005 -4.10644e-10 0)
(0.005 -4.22213e-10 0)
(0.005 -4.33091e-10 0)
(0.005 -4.42963e-10 0)
(0.005 -4.51398e-10 0)
(0.005 -4.57815e-10 0)
(0.005 -4.61379e-10 0)
(0.005 -7.20162e-14 0)
(0.005 -2.36235e-13 0)
(0.005 -4.17817e-13 0)
(0.005 -6.14012e-13 0)
(0.005 -8.24646e-13 0)
(0.005 -1.05008e-12 0)
(0.005 -1.29086e-12 0)
(0.005 -1.54778e-12 0)
(0.005 -1.82177e-12 0)
(0.005 -2.11394e-12 0)
(0.005 -2.42551e-12 0)
(0.005 -2.75781e-12 0)
(0.005 -3.11227e-12 0)
(0.005 -3.4904e-12 0)
(0.005 -3.89379e-12 0)
(0.005 -4.32412e-12 0)
(0.005 -4.78312e-12 0)
(0.005 -5.27263e-12 0)
(0.005 -5.79454e-12 0)
(0.005 -6.35083e-12 0)
(0.005 -6.94357e-12 0)
(0.005 -7.57491e-12 0)
(0.005 -8.24708e-12 0)
(0.005 -8.96241e-12 0)
(0.005 -9.72331e-12 0)
(0.005 -1.05323e-11 0)
(0.005 -1.1392e-11 0)
(0.005 -1.23051e-11 0)
(0.005 -1.32745e-11 0)
(0.005 -1.4303e-11 0)
(0.005 -1.53937e-11 0)
(0.005 -1.65497e-11 0)
(0.005 -1.77743e-11 0)
(0.005 -1.90709e-11 0)
(0.005 -2.04429e-11 0)
(0.005 -2.18939e-11 0)
(0.005 -2.34277e-11 0)
(0.005 -2.50481e-11 0)
(0.005 -2.6759e-11 0)
(0.005 -2.85645e-11 0)
(0.005 -3.04688e-11 0)
(0.005 -3.24763e-11 0)
(0.005 -3.45913e-11 0)
(0.005 -3.68184e-11 0)
(0.005 -3.91623e-11 0)
(0.005 -4.16278e-11 0)
(0.005 -4.42197e-11 0)
(0.005 -4.6943e-11 0)
(0.005 -4.98029e-11 0)
(0.005 -5.28046e-11 0)
(0.005 -5.59534e-11 0)
(0.005 -5.92546e-11 0)
(0.005 -6.27138e-11 0)
(0.005 -6.63366e-11 0)
(0.005 -7.01287e-11 0)
(0.005 -7.40956e-11 0)
(0.005 -7.82434e-11 0)
(0.005 -8.25777e-11 0)
(0.005 -8.71045e-11 0)
(0.005 -9.18297e-11 0)
(0.005 -9.67594e-11 0)
(0.005 -1.01899e-10 0)
(0.005 -1.07256e-10 0)
(0.005 -1.12834e-10 0)
(0.005 -1.18641e-10 0)
(0.005 -1.24683e-10 0)
(0.005 -1.30964e-10 0)
(0.005 -1.37491e-10 0)
(0.005 -1.4427e-10 0)
(0.005 -1.51306e-10 0)
(0.005 -1.58604e-10 0)
(0.005 -1.6617e-10 0)
(0.005 -1.74009e-10 0)
(0.005 -1.82126e-10 0)
(0.005 -1.90525e-10 0)
(0.005 -1.99209e-10 0)
(0.005 -2.08184e-10 0)
(0.005 -2.17451e-10 0)
(0.005 -2.27012e-10 0)
(0.005 -2.3687e-10 0)
(0.005 -2.47023e-10 0)
(0.005 -2.57471e-10 0)
(0.005 -2.6821e-10 0)
(0.005 -2.79234e-10 0)
(0.005 -2.90535e-10 0)
(0.005 -3.02098e-10 0)
(0.005 -3.13906e-10 0)
(0.005 -3.25933e-10 0)
(0.005 -3.38147e-10 0)
(0.005 -3.505e-10 0)
(0.005 -3.62933e-10 0)
(0.005 -3.75365e-10 0)
(0.005 -3.8769e-10 0)
(0.005 -3.99768e-10 0)
(0.005 -4.11413e-10 0)
(0.005 -4.2238e-10 0)
(0.005 -4.3234e-10 0)
(0.005 -4.40852e-10 0)
(0.005 -4.47327e-10 0)
(0.005 -4.51051e-10 0)
(0.005 -6.51655e-14 0)
(0.005 -2.14897e-13 0)
(0.005 -3.81503e-13 0)
(0.005 -5.62492e-13 0)
(0.005 -7.5777e-13 0)
(0.005 -9.67679e-13 0)
(0.005 -1.19272e-12 0)
(0.005 -1.43355e-12 0)
(0.005 -1.69101e-12 0)
(0.005 -1.96607e-12 0)
(0.005 -2.25981e-12 0)
(0.005 -2.57346e-12 0)
(0.005 -2.90831e-12 0)
(0.005 -3.26577e-12 0)
(0.005 -3.64731e-12 0)
(0.005 -4.0545e-12 0)
(0.005 -4.48898e-12 0)
(0.005 -4.95247e-12 0)
(0.005 -5.44678e-12 0)
(0.005 -5.97378e-12 0)
(0.005 -6.53543e-12 0)
(0.005 -7.13379e-12 0)
(0.005 -7.77097e-12 0)
(0.005 -8.44921e-12 0)
(0.005 -9.17081e-12 0)
(0.005 -9.93817e-12 0)
(0.005 -1.07538e-11 0)
(0.005 -1.16203e-11 0)
(0.005 -1.25403e-11 0)
(0.005 -1.35168e-11 0)
(0.005 -1.45524e-11 0)
(0.005 -1.56504e-11 0)
(0.005 -1.68138e-11 0)
(0.005 -1.80458e-11 0)
(0.005 -1.93498e-11 0)
(0.005 -2.07293e-11 0)
(0.005 -2.21878e-11 0)
(0.005 -2.3729e-11 0)
(0.005 -2.53567e-11 0)
(0.005 -2.70749e-11 0)
(0.005 -2.88877e-11 0)
(0.005 -3.07991e-11 0)
(0.005 -3.28135e-11 0)
(0.005 -3.49352e-11 0)
(0.005 -3.71689e-11 0)
(0.005 -3.95191e-11 0)
(0.005 -4.19906e-11 0)
(0.005 -4.45883e-11 0)
(0.005 -4.73171e-11 0)
(0.005 -5.01821e-11 0)
(0.005 -5.31885e-11 0)
(0.005 -5.63417e-11 0)
(0.005 -5.9647e-11 0)
(0.005 -6.31098e-11 0)
(0.005 -6.67359e-11 0)
(0.005 -7.05307e-11 0)
(0.005 -7.45002e-11 0)
(0.005 -7.86501e-11 0)
(0.005 -8.29862e-11 0)
(0.005 -8.75146e-11 0)
(0.005 -9.22412e-11 0)
(0.005 -9.71721e-11 0)
(0.005 -1.02313e-10 0)
(0.005 -1.07671e-10 0)
(0.005 -1.13252e-10 0)
(0.005 -1.19061e-10 0)
(0.005 -1.25105e-10 0)
(0.005 -1.3139e-10 0)
(0.005 -1.37922e-10 0)
(0.005 -1.44707e-10 0)
(0.005 -1.51751e-10 0)
(0.005 -1.59061e-10 0)
(0.005 -1.66641e-10 0)
(0.005 -1.74497e-10 0)
(0.005 -1.82634e-10 0)
(0.005 -1.91058e-10 0)
(0.005 -1.99773e-10 0)
(0.005 -2.08784e-10 0)
(0.005 -2.18093e-10 0)
(0.005 -2.27704e-10 0)
(0.005 -2.37618e-10 0)
(0.005 -2.47836e-10 0)
(0.005 -2.58355e-10 0)
(0.005 -2.69173e-10 0)
(0.005 -2.80281e-10 0)
(0.005 -2.9167e-10 0)
(0.005 -3.03322e-10 0)
(0.005 -3.15215e-10 0)
(0.005 -3.27317e-10 0)
(0.005 -3.39582e-10 0)
(0.005 -3.51952e-10 0)
(0.005 -3.64346e-10 0)
(0.005 -3.76656e-10 0)
(0.005 -3.8874e-10 0)
(0.005 -4.00407e-10 0)
(0.005 -4.11406e-10 0)
(0.005 -4.21403e-10 0)
(0.005 -4.29954e-10 0)
(0.005 -4.36485e-10 0)
(0.005 -4.40319e-10 0)
(0.005 -5.87958e-14 0)
(0.005 -1.94987e-13 0)
(0.005 -3.47476e-13 0)
(0.005 -5.13991e-13 0)
(0.005 -6.94509e-13 0)
(0.005 -8.89379e-13 0)
(0.005 -1.09906e-12 0)
(0.005 -1.32415e-12 0)
(0.005 -1.56538e-12 0)
(0.005 -1.82362e-12 0)
(0.005 -2.09985e-12 0)
(0.005 -2.39518e-12 0)
(0.005 -2.71078e-12 0)
(0.005 -3.04797e-12 0)
(0.005 -3.40811e-12 0)
(0.005 -3.79266e-12 0)
(0.005 -4.20316e-12 0)
(0.005 -4.64124e-12 0)
(0.005 -5.10859e-12 0)
(0.005 -5.60699e-12 0)
(0.005 -6.13832e-12 0)
(0.005 -6.7045e-12 0)
(0.005 -7.30757e-12 0)
(0.005 -7.94965e-12 0)
(0.005 -8.63293e-12 0)
(0.005 -9.35972e-12 0)
(0.005 -1.01324e-11 0)
(0.005 -1.09535e-11 0)
(0.005 -1.18255e-11 0)
(0.005 -1.27511e-11 0)
(0.005 -1.37332e-11 0)
(0.005 -1.47746e-11 0)
(0.005 -1.58783e-11 0)
(0.005 -1.70474e-11 0)
(0.005 -1.82851e-11 0)
(0.005 -1.95948e-11 0)
(0.005 -2.09799e-11 0)
(0.005 -2.2444e-11 0)
(0.005 -2.39907e-11 0)
(0.005 -2.56238e-11 0)
(0.005 -2.73472e-11 0)
(0.005 -2.9165e-11 0)
(0.005 -3.10812e-11 0)
(0.005 -3.31003e-11 0)
(0.005 -3.52264e-11 0)
(0.005 -3.74642e-11 0)
(0.005 -3.98183e-11 0)
(0.005 -4.22933e-11 0)
(0.005 -4.48942e-11 0)
(0.005 -4.76259e-11 0)
(0.005 -5.04934e-11 0)
(0.005 -5.35021e-11 0)
(0.005 -5.6657e-11 0)
(0.005 -5.99637e-11 0)
(0.005 -6.34276e-11 0)
(0.005 -6.70544e-11 0)
(0.005 -7.08497e-11 0)
(0.005 -7.48193e-11 0)
(0.005 -7.89691e-11 0)
(0.005 -8.3305e-11 0)
(0.005 -8.78331e-11 0)
(0.005 -9.25595e-11 0)
(0.005 -9.74902e-11 0)
(0.005 -1.02632e-10 0)
(0.005 -1.0799e-10 0)
(0.005 -1.13572e-10 0)
(0.005 -1.19383e-10 0)
(0.005 -1.25431e-10 0)
(0.005 -1.3172e-10 0)
(0.005 -1.38259e-10 0)
(0.005 -1.45054e-10 0)
(0.005 -1.5211e-10 0)
(0.005 -1.59434e-10 0)
(0.005 -1.67032e-10 0)
(0.005 -1.74911e-10 0)
(0.005 -1.83076e-10 0)
(0.005 -1.91534e-10 0)
(0.005 -2.00288e-10 0)
(0.005 -2.09345e-10 0)
(0.005 -2.18707e-10 0)
(0.005 -2.28379e-10 0)
(0.005 -2.38361e-10 0)
(0.005 -2.48655e-10 0)
(0.005 -2.59257e-10 0)
(0.005 -2.70163e-10 0)
(0.005 -2.81363e-10 0)
(0.005 -2.92843e-10 0)
(0.005 -3.0458e-10 0)
(0.005 -3.16546e-10 0)
(0.005 -3.28695e-10 0)
(0.005 -3.40969e-10 0)
(0.005 -3.53287e-10 0)
(0.005 -3.6554e-10 0)
(0.005 -3.77585e-10 0)
(0.005 -3.89227e-10 0)
(0.005 -4.00212e-10 0)
(0.005 -4.10203e-10 0)
(0.005 -4.18759e-10 0)
(0.005 -4.2531e-10 0)
(0.005 -4.29183e-10 0)
(0.005 -5.28573e-14 0)
(0.005 -1.76371e-13 0)
(0.005 -3.15558e-13 0)
(0.005 -4.68323e-13 0)
(0.005 -6.3471e-13 0)
(0.005 -8.1508e-13 0)
(0.005 -1.00987e-12 0)
(0.005 -1.21963e-12 0)
(0.005 -1.44501e-12 0)
(0.005 -1.6868e-12 0)
(0.005 -1.94589e-12 0)
(0.005 -2.22327e-12 0)
(0.005 -2.52005e-12 0)
(0.005 -2.83741e-12 0)
(0.005 -3.17663e-12 0)
(0.005 -3.53907e-12 0)
(0.005 -3.92618e-12 0)
(0.005 -4.33946e-12 0)
(0.005 -4.78054e-12 0)
(0.005 -5.25109e-12 0)
(0.005 -5.75287e-12 0)
(0.005 -6.28774e-12 0)
(0.005 -6.85761e-12 0)
(0.005 -7.4645e-12 0)
(0.005 -8.11051e-12 0)
(0.005 -8.79782e-12 0)
(0.005 -9.52873e-12 0)
(0.005 -1.03056e-11 0)
(0.005 -1.11309e-11 0)
(0.005 -1.20071e-11 0)
(0.005 -1.29371e-11 0)
(0.005 -1.39234e-11 0)
(0.005 -1.49691e-11 0)
(0.005 -1.6077e-11 0)
(0.005 -1.72503e-11 0)
(0.005 -1.84921e-11 0)
(0.005 -1.98058e-11 0)
(0.005 -2.11948e-11 0)
(0.005 -2.26626e-11 0)
(0.005 -2.42129e-11 0)
(0.005 -2.58494e-11 0)
(0.005 -2.7576e-11 0)
(0.005 -2.93968e-11 0)
(0.005 -3.13158e-11 0)
(0.005 -3.33373e-11 0)
(0.005 -3.54656e-11 0)
(0.005 -3.77053e-11 0)
(0.005 -4.00609e-11 0)
(0.005 -4.25372e-11 0)
(0.005 -4.5139e-11 0)
(0.005 -4.78712e-11 0)
(0.005 -5.0739e-11 0)
(0.005 -5.37474e-11 0)
(0.005 -5.69019e-11 0)
(0.005 -6.02077e-11 0)
(0.005 -6.36706e-11 0)
(0.005 -6.7296e-11 0)
(0.005 -7.10897e-11 0)
(0.005 -7.50576e-11 0)
(0.005 -7.92056e-11 0)
(0.005 -8.35397e-11 0)
(0.005 -8.80661e-11 0)
(0.005 -9.27911e-11 0)
(0.005 -9.7721e-11 0)
(0.005 -1.02862e-10 0)
(0.005 -1.08221e-10 0)
(0.005 -1.13805e-10 0)
(0.005 -1.19619e-10 0)
(0.005 -1.25671e-10 0)
(0.005 -1.31968e-10 0)
(0.005 -1.38516e-10 0)
(0.005 -1.45323e-10 0)
(0.005 -1.52395e-10 0)
(0.005 -1.59739e-10 0)
(0.005 -1.67362e-10 0)
(0.005 -1.7527e-10 0)
(0.005 -1.83471e-10 0)
(0.005 -1.9197e-10 0)
(0.005 -2.00773e-10 0)
(0.005 -2.09886e-10 0)