/*--------------------------------*- C++ -*----------------------------------*\
  =========                 |
  \\      /  F ield         | OpenFOAM: The Open Source CFD Toolbox
   \\    /   O peration     | Website:  https://openfoam.org
    \\  /    A nd           | Version:  11
     \\/     M anipulation  |
\*---------------------------------------------------------------------------*/
FoamFile
{
    format      ascii;
    class       volScalarField;
    location    "250";
    object      nut;
}
// * * * * * * * * * * * * * * * * * * * * * * * * * * * * * * * * * * * * * //

dimensions      [0 2 -1 0 0 0 0];

internalField   nonuniform List<scalar> 
10000
(
0.000977104
0.000936658
0.000899555
0.000865476
0.000834131
0.000805262
0.000778636
0.000754043
0.000731295
0.000710224
0.000690675
0.000672512
0.00065561
0.000639859
0.000625157
0.000611415
0.000598549
0.000586488
0.000575164
0.000564518
0.000554497
0.000545055
0.000536149
0.000527742
0.000519803
0.000512306
0.000505226
0.000498547
0.000492255
0.000486342
0.000480803
0.000475639
0.000470854
0.00046646
0.000462471
0.000458906
0.00045579
0.000453151
0.00045102
0.000449434
0.000448431
0.00044805
0.000448329
0.000449309
0.000451023
0.000453504
0.000456776
0.000460858
0.000465757
0.000471475
0.000477999
0.000485308
0.000493371
0.000502145
0.00051158
0.000521622
0.000532207
0.000543268
0.000554733
0.000566529
0.000578583
0.000590821
0.000603175
0.000615579
0.000627972
0.000640297
0.000652496
0.000664531
0.000676359
0.000687942
0.000699246
0.000710244
0.000720912
0.00073123
0.000741184
0.00075076
0.000759949
0.000768746
0.000777146
0.000785147
0.000792749
0.000799954
0.000806765
0.000813185
0.000819219
0.000824872
0.000830148
0.000835054
0.000839593
0.00084377
0.000847589
0.000851051
0.000854159
0.000856912
0.000859307
0.000861341
0.000863004
0.000864284
0.000865165
0.000865625
0.000977104
0.000936658
0.000899556
0.000865477
0.000834132
0.000805263
0.000778637
0.000754045
0.000731297
0.000710225
0.000690677
0.000672514
0.000655612
0.000639861
0.00062516
0.000611417
0.000598552
0.000586491
0.000575167
0.000564521
0.000554501
0.000545059
0.000536153
0.000527746
0.000519808
0.00051231
0.000505231
0.000498552
0.000492261
0.000486348
0.000480809
0.000475645
0.000470861
0.000466467
0.000462478
0.000458913
0.000455797
0.000453157
0.000451026
0.00044944
0.000448435
0.000448052
0.00044833
0.000449308
0.00045102
0.000453498
0.000456767
0.000460845
0.000465741
0.000471455
0.000477975
0.000485281
0.00049334
0.000502112
0.000511546
0.000521585
0.000532168
0.000543225
0.000554687
0.000566478
0.000578528
0.000590763
0.000603115
0.000615517
0.00062791
0.000640235
0.000652435
0.00066447
0.0006763
0.000687884
0.00069919
0.00071019
0.000720859
0.00073118
0.000741135
0.000750714
0.000759905
0.000768704
0.000777106
0.000785109
0.000792714
0.000799921
0.000806734
0.000813156
0.000819192
0.000824846
0.000830124
0.000835032
0.000839572
0.000843751
0.000847571
0.000851035
0.000854144
0.000856898
0.000859294
0.000861328
0.000862992
0.000864273
0.000865154
0.000865614
0.000977104
0.000936659
0.000899557
0.000865479
0.000834134
0.000805266
0.00077864
0.000754048
0.0007313
0.000710229
0.00069068
0.000672518
0.000655617
0.000639866
0.000625165
0.000611422
0.000598557
0.000586496
0.000575173
0.000564527
0.000554507
0.000545065
0.00053616
0.000527754
0.000519816
0.000512319
0.00050524
0.000498561
0.00049227
0.000486357
0.000480819
0.000475655
0.000470871
0.000466477
0.000462488
0.000458922
0.000455805
0.000453163
0.000451031
0.000449442
0.000448435
0.000448048
0.000448322
0.000449294
0.000451001
0.000453473
0.000456735
0.000460806
0.000465694
0.000471399
0.000477911
0.000485209
0.00049326
0.000502024
0.000511451
0.000521484
0.000532059
0.00054311
0.000554565
0.000566351
0.000578396
0.000590627
0.000602977
0.000615378
0.000627771
0.000640097
0.000652298
0.000664335
0.000676168
0.000687755
0.000699065
0.000710068
0.000720742
0.000731067
0.000741027
0.00075061
0.000759807
0.000768611
0.000777017
0.000785025
0.000792635
0.000799846
0.000806664
0.00081309
0.00081913
0.000824789
0.000830071
0.000834982
0.000839526
0.000843708
0.000847532
0.000850999
0.000854111
0.000856867
0.000859266
0.000861302
0.000862968
0.00086425
0.000865133
0.000865594
0.000977104
0.00093666
0.000899559
0.000865481
0.000834137
0.000805269
0.000778644
0.000754052
0.000731305
0.000710234
0.000690686
0.000672523
0.000655623
0.000639872
0.000625171
0.00061143
0.000598565
0.000586504
0.000575181
0.000564536
0.000554517
0.000545075
0.00053617
0.000527765
0.000519827
0.000512331
0.000505252
0.000498574
0.000492284
0.000486371
0.000480833
0.000475669
0.000470885
0.000466491
0.0004625
0.000458934
0.000455815
0.000453171
0.000451036
0.000449443
0.000448432
0.00044804
0.000448307
0.000449272
0.00045097
0.000453433
0.000456685
0.000460744
0.000465621
0.000471314
0.000477813
0.000485098
0.000493137
0.000501889
0.000511304
0.000521326
0.000531892
0.000542933
0.000554379
0.000566158
0.000578197
0.000590423
0.00060277
0.00061517
0.000627562
0.000639889
0.000652092
0.000664133
0.000675969
0.000687561
0.000698876
0.000709885
0.000720565
0.000730897
0.000740864
0.000750454
0.000759658
0.000768469
0.000776883
0.000784898
0.000792514
0.000799733
0.000806558
0.000812991
0.000819037
0.000824702
0.000829991
0.000834907
0.000839457
0.000843645
0.000847473
0.000850945
0.000854061
0.000856822
0.000859224
0.000861264
0.000862932
0.000864217
0.000865101
0.000865563
0.000977105
0.000936661
0.000899561
0.000865483
0.000834141
0.000805273
0.000778648
0.000754057
0.000731311
0.00071024
0.000690693
0.000672531
0.00065563
0.000639881
0.00062518
0.000611439
0.000598575
0.000586515
0.000575192
0.000564548
0.000554529
0.000545088
0.000536184
0.000527779
0.000519842
0.000512346
0.000505269
0.000498592
0.000492301
0.00048639
0.000480852
0.000475688
0.000470904
0.000466509
0.000462517
0.000458949
0.000455828
0.000453182
0.000451043
0.000449445
0.000448428
0.000448029
0.000448288
0.000449244
0.000450931
0.000453381
0.00045662
0.000460665
0.000465526
0.000471203
0.000477686
0.000484954
0.000492977
0.000501713
0.000511113
0.000521121
0.000531673
0.000542702
0.000554137
0.000565907
0.000577937
0.000590159
0.000602501
0.000614899
0.00062729
0.000639618
0.000651824
0.000663868
0.00067571
0.000687308
0.000698629
0.000709646
0.000720334
0.000730674
0.00074065
0.000750249
0.000759462
0.000768283
0.000776706
0.000784731
0.000792356
0.000799585
0.000806418
0.00081286
0.000818915
0.000824588
0.000829884
0.000834809
0.000839366
0.000843561
0.000847395
0.000850873
0.000853996
0.000856762
0.000859169
0.000861213
0.000862885
0.000864173
0.000865059
0.000865522
0.000977105
0.000936662
0.000899563
0.000865486
0.000834144
0.000805278
0.000778654
0.000754063
0.000731318
0.000710248
0.000690701
0.000672539
0.00065564
0.000639891
0.000625191
0.00061145
0.000598587
0.000586527
0.000575206
0.000564562
0.000554544
0.000545104
0.000536201
0.000527797
0.000519861
0.000512366
0.000505289
0.000498613
0.000492323
0.000486412
0.000480875
0.000475711
0.000470927
0.000466531
0.000462539
0.000458969
0.000455845
0.000453195
0.000451051
0.000449448
0.000448424
0.000448017
0.000448266
0.00044921
0.000450884
0.000453319
0.000456542
0.000460569
0.000465412
0.00047107
0.000477533
0.000484781
0.000492784
0.0005015
0.000510882
0.000520872
0.000531408
0.000542422
0.000553844
0.000565602
0.000577624
0.000589838
0.000602175
0.00061457
0.000626961
0.00063929
0.000651499
0.000663547
0.000675395
0.000686999
0.000698329
0.000709354
0.000720052
0.000730402
0.000740389
0.000749999
0.000759223
0.000768055
0.00077649
0.000784526
0.000792163
0.000799402
0.000806246
0.000812699
0.000818764
0.000824448
0.000829754
0.000834688
0.000839254
0.000843457
0.0008473
0.000850786
0.000853916
0.000856688
0.000859102
0.000861151
0.000862828
0.000864119
0.000865007
0.00086547
0.000977105
0.000936663
0.000899565
0.000865489
0.000834148
0.000805282
0.000778659
0.00075407
0.000731325
0.000710256
0.00069071
0.000672549
0.000655651
0.000639902
0.000625203
0.000611464
0.000598601
0.000586542
0.000575222
0.000564579
0.000554562
0.000545123
0.000536221
0.000527818
0.000519883
0.000512389
0.000505314
0.000498638
0.00049235
0.000486439
0.000480902
0.000475739
0.000470954
0.000466558
0.000462564
0.000458992
0.000455865
0.000453211
0.000451062
0.000449453
0.00044842
0.000448003
0.000448241
0.000449172
0.000450831
0.000453249
0.000456453
0.00046046
0.000465282
0.000470917
0.000477357
0.000484582
0.000492561
0.000501255
0.000510615
0.000520584
0.000531101
0.000542098
0.000553505
0.00056525
0.000577261
0.000589467
0.000601798
0.00061419
0.000626579
0.000638909
0.000651121
0.000663174
0.000675028
0.00068664
0.000697978
0.000709014
0.000719722
0.000730084
0.000740083
0.000749706
0.000758943
0.000767788
0.000776236
0.000784285
0.000791935
0.000799187
0.000806044
0.000812509
0.000818587
0.000824283
0.0008296
0.000834545
0.000839122
0.000843336
0.000847188
0.000850683
0.000853821
0.000856602
0.000859022
0.000861078
0.000862759
0.000864054
0.000864945
0.000865409
0.000977106
0.000936664
0.000899567
0.000865492
0.000834152
0.000805287
0.000778666
0.000754077
0.000731333
0.000710265
0.00069072
0.00067256
0.000655663
0.000639915
0.000625217
0.000611479
0.000598617
0.00058656
0.00057524
0.000564598
0.000554583
0.000545145
0.000536244
0.000527843
0.000519909
0.000512416
0.000505342
0.000498668
0.00049238
0.00048647
0.000480934
0.000475771
0.000470986
0.000466589
0.000462593
0.000459019
0.000455889
0.000453231
0.000451076
0.000449459
0.000448417
0.000447989
0.000448214
0.00044913
0.000450772
0.000453172
0.000456355
0.00046034
0.000465137
0.000470747
0.000477161
0.00048436
0.000492313
0.000500981
0.000510316
0.000520263
0.000530758
0.000541735
0.000553125
0.000564855
0.000576854
0.00058905
0.000601374
0.000613762
0.00062615
0.00063848
0.000650695
0.000662753
0.000674613
0.000686234
0.000697582
0.000708628
0.000719349
0.000729723
0.000739736
0.000749372
0.000758624
0.000767484
0.000775946
0.000784011
0.000791676
0.000798942
0.000805814
0.000812293
0.000818385
0.000824094
0.000829425
0.000834383
0.000838972
0.000843197
0.00084706
0.000850566
0.000853713
0.000856502
0.000858931
0.000860993
0.00086268
0.000863979
0.000864873
0.000865338
0.000977106
0.000936665
0.000899568
0.000865495
0.000834156
0.000805293
0.000778672
0.000754084
0.000731342
0.000710275
0.000690731
0.000672572
0.000655676
0.000639929
0.000625233
0.000611495
0.000598635
0.000586578
0.00057526
0.00056462
0.000554606
0.000545169
0.00053627
0.00052787
0.000519938
0.000512447
0.000505373
0.000498701
0.000492414
0.000486505
0.00048097
0.000475807
0.000471022
0.000466624
0.000462627
0.00045905
0.000455917
0.000453253
0.000451092
0.000449467
0.000448416
0.000447976
0.000448187
0.000449086
0.00045071
0.000453089
0.000456249
0.000460209
0.00046498
0.000470563
0.000476948
0.000484118
0.000492043
0.000500683
0.000509991
0.000519911
0.000530383
0.000541338
0.000552709
0.000564422
0.000576407
0.000588592
0.000600909
0.000613291
0.000625677
0.000638008
0.000650225
0.000662288
0.000674155
0.000685784
0.000697143
0.000708201
0.000718935
0.000729323
0.00073935
0.000749002
0.00075827
0.000767146
0.000775625
0.000783705
0.000791387
0.00079867
0.000805557
0.000812053
0.00081816
0.000823884
0.000829229
0.000834201
0.000838804
0.000843041
0.000846917
0.000850434
0.000853592
0.000856391
0.000858828
0.000860898
0.000862591
0.000863895
0.000864791
0.000865257
0.000977106
0.000936666
0.00089957
0.000865498
0.00083416
0.000805298
0.000778678
0.000754092
0.000731351
0.000710285
0.000690742
0.000672585
0.000655689
0.000639944
0.000625249
0.000611513
0.000598654
0.000586599
0.000575282
0.000564644
0.000554631
0.000545196
0.000536298
0.0005279
0.00051997
0.00051248
0.000505409
0.000498737
0.000492452
0.000486545
0.00048101
0.000475847
0.000471062
0.000466663
0.000462665
0.000459085
0.000455948
0.000453279
0.000451111
0.000449478
0.000448415
0.000447963
0.000448159
0.000449041
0.000450644
0.000453001
0.000456136
0.00046007
0.000464813
0.000470366
0.000476721
0.000483859
0.000491753
0.000500362
0.000509641
0.000519533
0.000529979
0.000540911
0.00055226
0.000563956
0.000575925
0.000588098
0.000600406
0.000612782
0.000625165
0.000637496
0.000649716
0.000661783
0.000673658
0.000685296
0.000696666
0.000707737
0.000718484
0.000728887
0.00073893
0.000748599
0.000757883
0.000766776
0.000775273
0.000783371
0.000791071
0.000798371
0.000805276
0.000811789
0.000817913
0.000823653
0.000829014
0.000834001
0.000838619
0.00084287
0.00084676
0.000850289
0.000853458
0.000856268
0.000858714
0.000860792
0.000862492
0.000863801
0.000864701
0.000865168
0.000977106
0.000936667
0.000899572
0.000865501
0.000834164
0.000805303
0.000778684
0.000754099
0.000731359
0.000710295
0.000690754
0.000672598
0.000655704
0.00063996
0.000625266
0.000611532
0.000598674
0.000586621
0.000575306
0.000564669
0.000554658
0.000545225
0.000536329
0.000527933
0.000520004
0.000512516
0.000505447
0.000498777
0.000492494
0.000486587
0.000481053
0.000475891
0.000471106
0.000466706
0.000462706
0.000459124
0.000455982
0.000453309
0.000451133
0.00044949
0.000448417
0.000447951
0.00044813
0.000448994
0.000450576
0.000452909
0.000456019
0.000459924
0.000464637
0.000470158
0.000476481
0.000483586
0.000491446
0.000500023
0.00050927
0.000519133
0.000529551
0.000540457
0.000551784
0.00056346
0.000575413
0.000587573
0.00059987
0.00061224
0.000624619
0.000636949
0.000649172
0.000661244
0.000673126
0.000684774
0.000696154
0.000707238
0.000718
0.000728419
0.000738478
0.000748164
0.000757467
0.000766378
0.000774894
0.000783011
0.000790729
0.000798049
0.000804973
0.000811503
0.000817645
0.000823403
0.000828782
0.000833785
0.000838418
0.000842685
0.000846589
0.000850131
0.000853313
0.000856134
0.00085859
0.000860677
0.000862384
0.000863698
0.000864602
0.000865071
0.000977107
0.000936668
0.000899574
0.000865503
0.000834168
0.000805308
0.000778691
0.000754107
0.000731368
0.000710305
0.000690765
0.000672611
0.000655719
0.000639977
0.000625284
0.000611551
0.000598696
0.000586644
0.000575331
0.000564696
0.000554687
0.000545256
0.000536362
0.000527968
0.000520041
0.000512556
0.000505488
0.00049882
0.000492539
0.000486634
0.0004811
0.000475939
0.000471154
0.000466753
0.000462752
0.000459166
0.000456021
0.000453341
0.000451158
0.000449506
0.00044842
0.00044794
0.000448103
0.000448947
0.000450507
0.000452815
0.000455897
0.000459773
0.000464454
0.000469942
0.000476231
0.000483301
0.000491126
0.000499669
0.000508883
0.000518714
0.000529102
0.000539981
0.000551284
0.000562939
0.000574874
0.000587019
0.000599306
0.000611668
0.000624043
0.000636372
0.000648597
0.000660673
0.000672562
0.00068422
0.000695612
0.000706709
0.000717486
0.000727921
0.000737998
0.000747702
0.000757024
0.000765955
0.00077449
0.000782627
0.000790365
0.000797705
0.000804648
0.000811199
0.00081736
0.000823136
0.000828533
0.000833554
0.000838204
0.000842486
0.000846405
0.000849962
0.000853157
0.000855989
0.000858456
0.000860552
0.000862267
0.000863587
0.000864494
0.000864965
0.000977107
0.000936669
0.000899575
0.000865506
0.000834171
0.000805313
0.000778697
0.000754114
0.000731377
0.000710316
0.000690777
0.000672625
0.000655734
0.000639994
0.000625303
0.000611572
0.000598718
0.000586668
0.000575357
0.000564724
0.000554717
0.000545289
0.000536397
0.000528005
0.000520081
0.000512597
0.000505532
0.000498866
0.000492586
0.000486683
0.000481151
0.00047599
0.000471205
0.000466804
0.0004628
0.000459212
0.000456062
0.000453376
0.000451185
0.000449523
0.000448426
0.00044793
0.000448076
0.0004489
0.000450437
0.000452719
0.000455773
0.000459618
0.000464266
0.00046972
0.000475972
0.000483006
0.000490795
0.000499302
0.000508481
0.000518278
0.000528635
0.000539487
0.000550763
0.000562396
0.000574312
0.000586442
0.000598717
0.000611071
0.000623441
0.000635768
0.000647995
0.000660076
0.000671972
0.000683639
0.000695043
0.000706154
0.000716946
0.000727398
0.000737492
0.000747216
0.000756557
0.000765508
0.000774064
0.000782222
0.000789981
0.000797341
0.000804305
0.000810876
0.000817057
0.000822853
0.000828269
0.000833308
0.000837976
0.000842275
0.00084621
0.000849781
0.00085299
0.000855835
0.000858313
0.000860418
0.000862141
0.000863468
0.000864379
0.000864852
0.000977107
0.00093667
0.000899577
0.000865508
0.000834175
0.000805317
0.000778703
0.000754122
0.000731386
0.000710326
0.000690789
0.000672638
0.000655749
0.000640011
0.000625322
0.000611593
0.000598741
0.000586694
0.000575384
0.000564754
0.000554749
0.000545323
0.000536434
0.000528044
0.000520122
0.000512641
0.000505578
0.000498915
0.000492637
0.000486735
0.000481205
0.000476045
0.000471259
0.000466857
0.000462852
0.000459261
0.000456106
0.000453415
0.000451216
0.000449543
0.000448433
0.000447923
0.00044805
0.000448853
0.000450366
0.000452622
0.000455647
0.00045946
0.000464074
0.000469492
0.000475707
0.000482704
0.000490455
0.000498924
0.000508067
0.00051783
0.000528155
0.000538976
0.000550226
0.000561835
0.000573731
0.000585845
0.000598107
0.000610452
0.000622816
0.000635142
0.00064737
0.000659454
0.000671357
0.000683034
0.00069445
0.000705575
0.000716382
0.000726851
0.000736964
0.000746707
0.000756068
0.00076504
0.000773617
0.000781797
0.000789577
0.00079696
0.000803945
0.000810537
0.000816739
0.000822556
0.000827991
0.000833049
0.000837735
0.000842053
0.000846004
0.00084959
0.000852814
0.000855672
0.000858161
0.000860277
0.000862007
0.00086334
0.000864256
0.000864731
0.000977107
0.00093667
0.000899579
0.000865511
0.000834178
0.000805322
0.000778708
0.000754129
0.000731395
0.000710336
0.000690801
0.000672652
0.000655765
0.000640028
0.000625342
0.000611614
0.000598765
0.000586719
0.000575412
0.000564784
0.000554782
0.000545359
0.000536472
0.000528085
0.000520166
0.000512687
0.000505627
0.000498966
0.00049269
0.00048679
0.000481261
0.000476102
0.000471317
0.000466914
0.000462907
0.000459313
0.000456154
0.000453456
0.000451249
0.000449566
0.000448442
0.000447916
0.000448026
0.000448807
0.000450296
0.000452525
0.000455519
0.0004593
0.000463879
0.00046926
0.000475438
0.000482396
0.000490108
0.000498539
0.000507644
0.000517372
0.000527663
0.000538453
0.000549675
0.00056126
0.000573135
0.000585231
0.00059748
0.000609815
0.000622173
0.000634496
0.000646725
0.000658813
0.000670723
0.000682409
0.000693837
0.000704975
0.000715799
0.000726285
0.000736417
0.000746179
0.000755561
0.000764554
0.000773153
0.000781355
0.000789158
0.000796562
0.00080357
0.000810184
0.000816408
0.000822245
0.000827701
0.000832779
0.000837484
0.000841819
0.000845788
0.00084939
0.000852628
0.0008555
0.000858002
0.000860127
0.000861866
0.000863206
0.000864126
0.000864603
0.000977108
0.000936671
0.00089958
0.000865513
0.000834181
0.000805326
0.000778714
0.000754136
0.000731403
0.000710346
0.000690813
0.000672666
0.00065578
0.000640046
0.000625361
0.000611636
0.000598789
0.000586746
0.000575441
0.000564816
0.000554816
0.000545395
0.000536511
0.000528127
0.000520211
0.000512735
0.000505677
0.000499018
0.000492745
0.000486847
0.000481319
0.000476161
0.000471376
0.000466973
0.000462964
0.000459367
0.000456203
0.000453499
0.000451284
0.00044959
0.000448454
0.000447912
0.000448002
0.000448762
0.000450227
0.000452428
0.000455391
0.000459139
0.000463683
0.000469027
0.000475165
0.000482084
0.000489756
0.000498148
0.000507215
0.000516905
0.000527162
0.000537921
0.000549114
0.000560673
0.000572526
0.000584605
0.000596839
0.000609163
0.000621515
0.000633835
0.000646064
0.000658156
0.000670072
0.000681768
0.000693207
0.000704359
0.000715198
0.000725702
0.000735853
0.000745635
0.000755038
0.000764053
0.000772674
0.000780899
0.000788724
0.000796152
0.000803182
0.000809818
0.000816064
0.000821923
0.0008274
0.000832499
0.000837223
0.000841577
0.000845563
0.000849182
0.000852435
0.00085532
0.000857834
0.00085997
0.000861718
0.000863065
0.00086399
0.000864469
0.000977108
0.000936672
0.000899581
0.000865515
0.000834184
0.00080533
0.000778719
0.000754143
0.000731411
0.000710356
0.000690825
0.000672679
0.000655796
0.000640063
0.000625381
0.000611658
0.000598813
0.000586773
0.000575471
0.000564848
0.000554851
0.000545433
0.000536552
0.00052817
0.000520257
0.000512784
0.000505729
0.000499073
0.000492802
0.000486906
0.00048138
0.000476223
0.000471438
0.000467034
0.000463024
0.000459424
0.000456256
0.000453545
0.000451321
0.000449617
0.000448467
0.00044791
0.000447981
0.000448719
0.000450158
0.000452331
0.000455264
0.000458978
0.000463486
0.000468792
0.000474891
0.000481769
0.000489401
0.000497753
0.000506781
0.000516434
0.000526655
0.000537381
0.000548545
0.000560078
0.000571909
0.000583968
0.000596187
0.000608501
0.000620845
0.000633161
0.000645391
0.000657485
0.000669408
0.000681112
0.000692563
0.000703729
0.000714584
0.000725106
0.000735275
0.000745078
0.000754502
0.000763539
0.000772182
0.00078043
0.000788279
0.000795729
0.000802783
0.000809442
0.00081571
0.000821591
0.00082709
0.000832209
0.000836953
0.000841326
0.00084533
0.000848966
0.000852234
0.000855134
0.00085766
0.000859807
0.000861564
0.000862918
0.000863848
0.000864329
0.000977108
0.000936672
0.000899583
0.000865517
0.000834187
0.000805334
0.000778725
0.000754149
0.000731419
0.000710366
0.000690836
0.000672692
0.000655811
0.000640081
0.0006254
0.00061168
0.000598838
0.0005868
0.0005755
0.00056488
0.000554886
0.000545471
0.000536593
0.000528215
0.000520304
0.000512834
0.000505782
0.000499129
0.00049286
0.000486966
0.000481442
0.000476286
0.000471502
0.000467098
0.000463086
0.000459483
0.00045631
0.000453593
0.000451361
0.000449646
0.000448483
0.000447909
0.000447961
0.000448677
0.000450091
0.000452236
0.000455138
0.000458817
0.000463289
0.000468557
0.000474616
0.000481454
0.000489045
0.000497356
0.000506344
0.00051596
0.000526145
0.000536838
0.000547971
0.000559477
0.000571285
0.000583324
0.000595528
0.00060783
0.000620166
0.000632478
0.000644708
0.000656805
0.000668733
0.000680446
0.000691908
0.000703088
0.000713959
0.000724498
0.000734686
0.000744509
0.000753954
0.000763013
0.00077168
0.00077995
0.000787823
0.000795297
0.000802374
0.000809056
0.000815347
0.000821251
0.000826771
0.000831911
0.000836676
0.000841068
0.00084509
0.000848743
0.000852027
0.000854941
0.00085748
0.000859638
0.000861404
0.000862765
0.0008637
0.000864183
0.000977108
0.000936673
0.000899584
0.000865519
0.00083419
0.000805338
0.00077873
0.000754156
0.000731427
0.000710375
0.000690847
0.000672706
0.000655826
0.000640098
0.00062542
0.000611702
0.000598862
0.000586827
0.00057553
0.000564913
0.000554922
0.00054551
0.000536635
0.000528259
0.000520352
0.000512886
0.000505836
0.000499186
0.00049292
0.000487028
0.000481506
0.000476351
0.000471568
0.000467163
0.000463149
0.000459543
0.000456366
0.000453642
0.000451402
0.000449676
0.0004485
0.00044791
0.000447943
0.000448637
0.000450026
0.000452142
0.000455013
0.000458658
0.000463093
0.000468323
0.000474343
0.000481139
0.000488689
0.000496959
0.000505907
0.000515484
0.000525633
0.000536292
0.000547395
0.000558873
0.000570657
0.000582677
0.000594865
0.000607154
0.000619482
0.00063179
0.000644018
0.000656117
0.000668051
0.000679773
0.000691246
0.000702439
0.000713325
0.000723881
0.000734089
0.000743932
0.000753398
0.00076248
0.000771169
0.000779463
0.000787359
0.000794856
0.000801957
0.000808663
0.000814977
0.000820903
0.000826446
0.000831607
0.000836392
0.000840804
0.000844844
0.000848515
0.000851815
0.000854743
0.000857295
0.000859464
0.000861239
0.000862607
0.000863547
0.000864033
0.000977108
0.000936674
0.000899585
0.000865521
0.000834193
0.000805342
0.000778734
0.000754162
0.000731435
0.000710385
0.000690858
0.000672718
0.000655841
0.000640115
0.000625439
0.000611724
0.000598886
0.000586854
0.00057556
0.000564946
0.000554958
0.000545549
0.000536677
0.000528305
0.000520401
0.000512937
0.000505891
0.000499244
0.00049298
0.000487091
0.000481571
0.000476417
0.000471634
0.000467229
0.000463214
0.000459605
0.000456423
0.000453694
0.000451445
0.000449708
0.000448519
0.000447913
0.000447927
0.000448599
0.000449963
0.00045205
0.00045489
0.000458501
0.0004629
0.000468091
0.00047407
0.000480826
0.000488334
0.000496563
0.000505471
0.000515009
0.000525122
0.000535746
0.000546818
0.000558269
0.000570028
0.000582028
0.000594199
0.000606476
0.000618795
0.000631097
0.000643325
0.000655426
0.000667365
0.000679094
0.000690578
0.000701784
0.000712686
0.000723259
0.000733485
0.000743349
0.000752837
0.00076194
0.000770652
0.000778969
0.000786889
0.00079441
0.000801535
0.000808264
0.000814601
0.00082055
0.000826115
0.000831298
0.000836103
0.000840535
0.000844593
0.000848281
0.000851597
0.00085454
0.000857105
0.000859285
0.00086107
0.000862444
0.000863389
0.000863878
0.000977108
0.000936674
0.000899586
0.000865523
0.000834195
0.000805345
0.000778739
0.000754168
0.000731442
0.000710394
0.000690869
0.000672731
0.000655856
0.000640132
0.000625459
0.000611745
0.000598911
0.000586881
0.00057559
0.000564979
0.000554994
0.000545588
0.000536719
0.00052835
0.00052045
0.000512989
0.000505946
0.000499302
0.000493041
0.000487155
0.000481636
0.000476484
0.000471702
0.000467296
0.000463279
0.000459668
0.000456482
0.000453746
0.000451489
0.000449742
0.000448539
0.000447917
0.000447913
0.000448562
0.000449901
0.000451961
0.000454769
0.000458347
0.000462709
0.000467861
0.000473801
0.000480516
0.000487983
0.00049617
0.000505038
0.000514538
0.000524613
0.000535203
0.000546244
0.000557666
0.000569401
0.00058138
0.000593534
0.000605798
0.000618108
0.000630405
0.000642631
0.000654733
0.000666676
0.000678414
0.000689908
0.000701127
0.000712044
0.000722634
0.000732879
0.000742762
0.000752271
0.000761396
0.000770131
0.000778471
0.000786414
0.00079396
0.000801108
0.000807861
0.000814221
0.000820193
0.000825779
0.000830984
0.00083581
0.000840261
0.000844339
0.000848044
0.000851376
0.000854333
0.000856911
0.000859102
0.000860896
0.000862278
0.000863228
0.000863719
0.000977109
0.000936675
0.000899587
0.000865524
0.000834198
0.000805349
0.000778744
0.000754173
0.000731449
0.000710402
0.000690879
0.000672743
0.00065587
0.000640148
0.000625477
0.000611767
0.000598935
0.000586908
0.00057562
0.000565011
0.000555029
0.000545627
0.000536761
0.000528396
0.000520499
0.000513042
0.000506002
0.00049936
0.000493103
0.000487219
0.000481702
0.000476551
0.00047177
0.000467364
0.000463346
0.000459732
0.000456541
0.000453799
0.000451534
0.000449776
0.000448561
0.000447923
0.0004479
0.000448528
0.000449842
0.000451874
0.000454651
0.000458195
0.000462521
0.000467636
0.000473536
0.000480209
0.000487635
0.000495782
0.00050461
0.00051407
0.000524109
0.000534665
0.000545673
0.000557067
0.000568778
0.000580735
0.000592872
0.000605123
0.000617423
0.000629714
0.000641938
0.000654041
0.000665989
0.000677734
0.000689238
0.00070047
0.000711401
0.000722008
0.00073227
0.000742173
0.000751703
0.00076085
0.000769608
0.000777971
0.000785938
0.000793507
0.000800678
0.000807455
0.000813838
0.000819833
0.000825441
0.000830667
0.000835514
0.000839985
0.000844081
0.000847803
0.000851151
0.000854123
0.000856714
0.000858916
0.00086072
0.000862109
0.000863064
0.000863557
0.000977109
0.000936675
0.000899588
0.000865526
0.0008342
0.000805352
0.000778748
0.000754179
0.000731456
0.000710411
0.00069089
0.000672755
0.000655884
0.000640165
0.000625496
0.000611788
0.000598958
0.000586934
0.000575649
0.000565044
0.000555065
0.000545666
0.000536803
0.000528442
0.000520548
0.000513094
0.000506057
0.000499419
0.000493164
0.000487282
0.000481768
0.000476619
0.000471838
0.000467432
0.000463413
0.000459796
0.000456601
0.000453853
0.00045158
0.000449812
0.000448584
0.000447931
0.000447889
0.000448496
0.000449785
0.000451789
0.000454536
0.000458047
0.000462337
0.000467414
0.000473275
0.000479908
0.000487293
0.000495399
0.000504186
0.000513608
0.00052361
0.000534132
0.000545109
0.000556475
0.00056816
0.000580096
0.000592216
0.000604453
0.000616743
0.000629028
0.00064125
0.000653353
0.000665305
0.000677057
0.00068857
0.000699814
0.00071076
0.000721383
0.000731664
0.000741586
0.000751136
0.000760305
0.000769085
0.000777471
0.000785461
0.000793053
0.000800248
0.000807047
0.000813454
0.000819471
0.000825101
0.000830349
0.000835216
0.000839706
0.000843821
0.00084756
0.000850924
0.000853911
0.000856514
0.000858728
0.000860541
0.000861937
0.000862897
0.000863393
0.000977109
0.000936676
0.000899589
0.000865527
0.000834203
0.000805355
0.000778752
0.000754184
0.000731463
0.000710419
0.0006909
0.000672767
0.000655898
0.00064018
0.000625514
0.000611808
0.000598981
0.00058696
0.000575678
0.000565075
0.0005551
0.000545704
0.000536845
0.000528487
0.000520596
0.000513146
0.000506113
0.000499477
0.000493225
0.000487346
0.000481834
0.000476686
0.000471906
0.0004675
0.00046348
0.00045986
0.000456662
0.000453908
0.000451627
0.000449849
0.000448608
0.000447939
0.00044788
0.000448465
0.00044973
0.000451707
0.000454424
0.000457902
0.000462158
0.000467197
0.000473019
0.000479612
0.000486957
0.000495022
0.00050377
0.000513154
0.000523119
0.000533606
0.000544552
0.00055589
0.00056755
0.000579465
0.000591567
0.00060379
0.00061607
0.000628349
0.000640567
0.000652671
0.000664627
0.000676385
0.000687908
0.000699163
0.000710123
0.000720761
0.00073106
0.000741001
0.000750571
0.000759761
0.000768563
0.000776972
0.000784984
0.0007926
0.000799818
0.00080664
0.00081307
0.000819109
0.000824761
0.00083003
0.000834918
0.000839427
0.00084356
0.000847316
0.000850696
0.000853697
0.000856313
0.000858538
0.00086036
0.000861763
0.000862728
0.000863226
0.000977109
0.000936676
0.00089959
0.000865529
0.000834205
0.000805358
0.000778756
0.000754189
0.00073147
0.000710427
0.000690909
0.000672778
0.000655911
0.000640196
0.000625532
0.000611829
0.000599004
0.000586986
0.000575706
0.000565107
0.000555135
0.000545742
0.000536886
0.000528531
0.000520644
0.000513197
0.000506167
0.000499535
0.000493286
0.00048741
0.000481899
0.000476753
0.000471974
0.000467568
0.000463546
0.000459924
0.000456722
0.000453963
0.000451674
0.000449886
0.000448633
0.000447949
0.000447872
0.000448437
0.000449678
0.000451629
0.000454316
0.000457762
0.000461982
0.000466985
0.000472769
0.000479323
0.000486628
0.000494654
0.000503362
0.000512708
0.000522637
0.00053309
0.000544005
0.000555314
0.00056695
0.000578843
0.000590928
0.000603136
0.000615406
0.000627678
0.000639894