/*--------------------------------*- C++ -*----------------------------------*\
  =========                 |
  \\      /  F ield         | OpenFOAM: The Open Source CFD Toolbox
   \\    /   O peration     | Website:  https://openfoam.org
    \\  /    A nd           | Version:  11
     \\/     M anipulation  |
\*---------------------------------------------------------------------------*/
FoamFile
{
    format      ascii;
    class       volScalarField;
    location    "1264";
    object      p;
}
// * * * * * * * * * * * * * * * * * * * * * * * * * * * * * * * * * * * * * //

dimensions      [0 2 -2 0 0 0 0];

internalField   nonuniform List<scalar> 
10000
(
8.14165e-13
7.92274e-13
8.18427e-13
8.77322e-13
9.46121e-13
1.0196e-12
1.09726e-12
1.17893e-12
1.26453e-12
1.35417e-12
1.44807e-12
1.54648e-12
1.64969e-12
1.75798e-12
1.87164e-12
1.99101e-12
2.11637e-12
2.24807e-12
2.38643e-12
2.53178e-12
2.68448e-12
2.84488e-12
3.01334e-12
3.19023e-12
3.37593e-12
3.57084e-12
3.77533e-12
3.98984e-12
4.21475e-12
4.45051e-12
4.69755e-12
4.95629e-12
5.22719e-12
5.51069e-12
5.80727e-12
6.11737e-12
6.44147e-12
6.78004e-12
7.13354e-12
7.50245e-12
7.88724e-12
8.28836e-12
8.70629e-12
9.14147e-12
9.59433e-12
1.00653e-11
1.05548e-11
1.10632e-11
1.15908e-11
1.2138e-11
1.27051e-11
1.32923e-11
1.38998e-11
1.45278e-11
1.51763e-11
1.58454e-11
1.65349e-11
1.72447e-11
1.79745e-11
1.87239e-11
1.94924e-11
2.02792e-11
2.10837e-11
2.19047e-11
2.27409e-11
2.35909e-11
2.4453e-11
2.53252e-11
2.62049e-11
2.70897e-11
2.79763e-11
2.88612e-11
2.97402e-11
3.06089e-11
3.14619e-11
3.22933e-11
3.30964e-11
3.38637e-11
3.45866e-11
3.52556e-11
3.58599e-11
3.63875e-11
3.68246e-11
3.7156e-11
3.73647e-11
3.74311e-11
3.73337e-11
3.70476e-11
3.65447e-11
3.57926e-11
3.47539e-11
3.33811e-11
3.16e-11
2.93207e-11
2.67722e-11
2.40532e-11
2.06546e-11
1.58063e-11
8.82581e-12
6.88954e-13
1.55566e-12
1.46886e-12
1.41485e-12
1.43339e-12
1.48411e-12
1.55089e-12
1.62933e-12
1.71712e-12
1.81278e-12
1.91557e-12
2.02513e-12
2.14139e-12
2.26439e-12
2.39426e-12
2.53123e-12
2.67553e-12
2.82745e-12
2.9873e-12
3.15542e-12
3.33216e-12
3.51789e-12
3.71298e-12
3.91785e-12
4.13289e-12
4.35854e-12
4.59522e-12
4.84339e-12
5.1035e-12
5.37602e-12
5.66142e-12
5.96018e-12
6.27281e-12
6.5998e-12
6.94165e-12
7.29887e-12
7.67198e-12
8.0615e-12
8.46794e-12
8.89181e-12
9.33363e-12
9.79391e-12
1.02731e-11
1.07718e-11
1.12903e-11
1.18293e-11
1.2389e-11
1.29699e-11
1.35724e-11
1.41967e-11
1.48433e-11
1.55123e-11
1.62039e-11
1.69182e-11
1.76554e-11
1.84152e-11
1.91977e-11
2.00025e-11
2.08293e-11
2.16776e-11
2.25467e-11
2.34359e-11
2.4344e-11
2.52699e-11
2.62121e-11
2.71688e-11
2.81381e-11
2.91176e-11
3.01046e-11
3.10959e-11
3.2088e-11
3.30768e-11
3.40577e-11
3.50255e-11
3.59741e-11
3.6897e-11
3.77866e-11
3.86344e-11
3.94308e-11
4.01652e-11
4.08255e-11
4.13983e-11
4.18685e-11
4.22191e-11
4.24312e-11
4.24835e-11
4.2352e-11
4.201e-11
4.1427e-11
4.05685e-11
3.93955e-11
3.78636e-11
3.59205e-11
3.35001e-11
3.05495e-11
2.71706e-11
2.3087e-11
1.78859e-11
1.12697e-11
2.23851e-12
-6.05908e-12
1.93483e-12
1.81237e-12
1.70568e-12
1.67408e-12
1.68224e-12
1.71266e-12
1.75945e-12
1.81909e-12
1.8891e-12
1.96796e-12
2.05474e-12
2.1489e-12
2.25014e-12
2.35832e-12
2.4734e-12
2.59546e-12
2.72459e-12
2.86098e-12
3.00482e-12
3.15633e-12
3.31577e-12
3.48342e-12
3.65957e-12
3.84452e-12
4.0386e-12
4.24213e-12
4.45546e-12
4.67894e-12
4.91294e-12
5.15782e-12
5.41395e-12
5.68173e-12
5.96153e-12
6.25375e-12
6.55877e-12
6.87698e-12
7.20879e-12
7.55457e-12
7.9147e-12
8.28958e-12
8.67956e-12
9.085e-12
9.50625e-12
9.94363e-12
1.03974e-11
1.0868e-11
1.13555e-11
1.18602e-11
1.23823e-11
1.29219e-11
1.34791e-11
1.40539e-11
1.46463e-11
1.52563e-11
1.58835e-11
1.65278e-11
1.71887e-11
1.78658e-11
1.85584e-11
1.92658e-11
1.9987e-11
2.0721e-11
2.14665e-11
2.22219e-11
2.29854e-11
2.37552e-11
2.45287e-11
2.53035e-11
2.60764e-11
2.6844e-11
2.76025e-11
2.83475e-11
2.9074e-11
2.97765e-11
3.04488e-11
3.1084e-11
3.16741e-11
3.22104e-11
3.26833e-11
3.30816e-11
3.33934e-11
3.36048e-11
3.37008e-11
3.36643e-11
3.34764e-11
3.31159e-11
3.25589e-11
3.1779e-11
3.07462e-11
2.94271e-11
2.77844e-11
2.57763e-11
2.33554e-11
2.04787e-11
1.71425e-11
1.32488e-11
8.51832e-12
2.25308e-12
-6.55936e-12
-1.2489e-11
2.2658e-12
2.13317e-12
2.01577e-12
1.96451e-12
1.95155e-12
1.96265e-12
1.99241e-12
2.03714e-12
2.09409e-12
2.16137e-12
2.23778e-12
2.32249e-12
2.41499e-12
2.51495e-12
2.62221e-12
2.73668e-12
2.85837e-12
2.98737e-12
3.12378e-12
3.26777e-12
3.41951e-12
3.57924e-12
3.74717e-12
3.92356e-12
4.10868e-12
4.30282e-12
4.50626e-12
4.7193e-12
4.94227e-12
5.17546e-12
5.41922e-12
5.67386e-12
5.93972e-12
6.21713e-12
6.50642e-12
6.80792e-12
7.12197e-12
7.44889e-12
7.78898e-12
8.14257e-12
8.50995e-12
8.89139e-12
9.28718e-12
9.69754e-12
1.01227e-11
1.05629e-11
1.10182e-11
1.14888e-11
1.19748e-11
1.24762e-11
1.2993e-11
1.35251e-11
1.40724e-11
1.46347e-11
1.52116e-11
1.58028e-11
1.64078e-11
1.70259e-11
1.76563e-11
1.82983e-11
1.89507e-11
1.96124e-11
2.02817e-11
2.09572e-11
2.1637e-11
2.23187e-11
2.30001e-11
2.36783e-11
2.43501e-11
2.5012e-11
2.566e-11
2.62896e-11
2.68958e-11
2.74729e-11
2.80146e-11
2.85139e-11
2.89629e-11
2.93529e-11
2.96742e-11
2.99159e-11
3.00659e-11
3.01108e-11
3.00357e-11
2.98241e-11
2.94574e-11
2.89152e-11
2.81747e-11
2.72104e-11
2.59942e-11
2.44945e-11
2.26767e-11
2.05022e-11
1.79277e-11
1.49053e-11
1.13921e-11
7.33478e-12
2.59041e-12
-3.614e-12
-1.2574e-11
-1.6707e-11
2.55579e-12
2.42464e-12
2.30906e-12
2.2503e-12
2.22628e-12
2.22609e-12
2.24532e-12
2.28059e-12
2.3292e-12
2.38921e-12
2.45927e-12
2.53844e-12
2.62607e-12
2.72171e-12
2.82509e-12
2.93604e-12
3.0545e-12
3.18046e-12
3.31398e-12
3.45517e-12
3.60416e-12
3.76113e-12
3.92626e-12
4.09976e-12
4.28188e-12
4.47285e-12
4.67293e-12
4.88238e-12
5.10149e-12
5.33053e-12
5.56979e-12
5.81956e-12
6.08013e-12
6.35179e-12
6.63484e-12
6.92957e-12
7.23624e-12
7.55516e-12
7.88657e-12
8.23073e-12
8.5879e-12
8.95829e-12
9.34211e-12
9.73954e-12
1.01507e-11
1.05758e-11
1.10149e-11
1.1468e-11
1.19352e-11
1.24164e-11
1.29114e-11
1.34202e-11
1.39425e-11
1.44779e-11
1.50261e-11
1.55866e-11
1.61587e-11
1.67418e-11
1.73348e-11
1.79369e-11
1.85468e-11
1.91631e-11
1.97843e-11
2.04086e-11
2.10338e-11
2.16578e-11
2.22778e-11
2.2891e-11
2.34939e-11
2.40828e-11
2.46537e-11
2.52017e-11
2.57217e-11
2.62079e-11
2.66537e-11
2.70521e-11
2.7395e-11
2.76735e-11
2.78777e-11
2.79967e-11
2.80185e-11
2.79295e-11
2.77149e-11
2.73583e-11
2.68414e-11
2.61442e-11
2.52444e-11
2.41174e-11
2.27361e-11
2.10707e-11
1.90881e-11
1.67524e-11
1.40234e-11
1.08548e-11
7.20018e-12
3.03634e-12
-1.68889e-12
-7.78124e-12
-1.69836e-11
-1.95359e-11
2.80547e-12
2.68037e-12
2.56907e-12
2.50692e-12
2.47589e-12
2.46757e-12
2.47853e-12
2.50585e-12
2.54706e-12
2.6003e-12
2.66419e-12
2.73774e-12
2.82021e-12
2.9111e-12
3.01004e-12
3.1168e-12
3.23125e-12
3.35334e-12
3.48306e-12
3.62047e-12
3.76565e-12
3.91875e-12
4.0799e-12
4.24928e-12
4.42708e-12
4.61352e-12
4.8088e-12
5.01316e-12
5.22684e-12
5.45009e-12
5.68314e-12
5.92625e-12
6.17968e-12
6.44367e-12
6.71848e-12
7.00434e-12
7.30149e-12
7.61016e-12
7.93056e-12
8.26291e-12
8.60739e-12
8.96416e-12
9.33337e-12
9.71515e-12
1.01096e-11
1.05167e-11
1.09366e-11
1.13692e-11
1.18144e-11
1.22722e-11
1.27423e-11
1.32244e-11
1.37183e-11
1.42236e-11
1.47396e-11
1.5266e-11
1.58018e-11
1.63463e-11
1.68984e-11
1.74572e-11
1.80211e-11
1.85888e-11
1.91586e-11
1.97285e-11
2.02963e-11
2.08596e-11
2.14157e-11
2.19614e-11
2.24934e-11
2.30077e-11
2.35e-11
2.39657e-11
2.43993e-11
2.4795e-11
2.51461e-11
2.54455e-11
2.56851e-11
2.58561e-11
2.59485e-11
2.59515e-11
2.58532e-11
2.56403e-11
2.52982e-11
2.4811e-11
2.41609e-11
2.33286e-11
2.22929e-11
2.10303e-11
1.95154e-11
1.77204e-11
1.56152e-11
1.31671e-11
1.03407e-11
7.09569e-12
3.39359e-12
-7.60925e-13
-5.36293e-12
-1.12389e-11
-2.03923e-11
-2.18918e-11
3.02622e-12
2.90839e-12
2.80237e-12
2.7393e-12
2.70407e-12
2.69006e-12
2.69467e-12
2.71548e-12
2.75031e-12
2.79745e-12
2.85558e-12
2.9237e-12
3.00105e-12
3.08707e-12
3.18136e-12
3.28363e-12
3.39371e-12
3.51148e-12
3.6369e-12
3.76998e-12
3.91078e-12
4.05937e-12
4.21587e-12
4.38041e-12
4.55316e-12
4.73427e-12
4.92395e-12
5.12237e-12
5.32974e-12
5.54627e-12
5.77217e-12
6.00764e-12
6.25291e-12
6.50818e-12
6.77366e-12
7.04954e-12
7.33601e-12
7.63327e-12
7.94147e-12
8.26076e-12
8.59129e-12
8.93316e-12
9.28647e-12
9.65127e-12
1.00276e-11
1.04154e-11
1.08147e-11
1.12254e-11
1.16473e-11
1.20803e-11
1.2524e-11
1.29782e-11
1.34424e-11
1.39161e-11
1.43988e-11
1.48897e-11
1.53881e-11
1.5893e-11
1.64033e-11
1.69177e-11
1.7435e-11
1.79534e-11
1.84713e-11
1.89865e-11
1.94968e-11
1.99996e-11
2.04921e-11
2.09712e-11
2.14332e-11
2.18743e-11
2.22901e-11
2.26758e-11
2.30259e-11
2.33346e-11
2.35952e-11
2.38007e-11
2.39429e-11
2.40131e-11
2.40016e-11
2.38977e-11
2.36897e-11
2.33648e-11
2.29089e-11
2.23066e-11
2.15408e-11
2.05934e-11
1.94441e-11
1.80712e-11
1.64511e-11
1.45585e-11
1.23663e-11
9.84591e-12
6.96693e-12
3.6955e-12
2.17299e-15
-4.08809e-12
-8.53962e-12
-1.42208e-11
-2.33395e-11
-2.41645e-11
3.22613e-12
3.11552e-12
3.01506e-12
2.95268e-12
2.91526e-12
2.89751e-12
2.89745e-12
2.91313e-12
2.94269e-12
2.98459e-12
3.0376e-12
3.10076e-12
3.17331e-12
3.2547e-12
3.34447e-12
3.44232e-12
3.54803e-12
3.66145e-12
3.7825e-12
3.91115e-12
4.04742e-12
4.19136e-12
4.34304e-12
4.50256e-12
4.67006e-12
4.84566e-12
5.02951e-12
5.22177e-12
5.42261e-12
5.63221e-12
5.85072e-12
6.07834e-12
6.31522e-12
6.56155e-12
6.81749e-12
7.08319e-12
7.3588e-12
7.64445e-12
7.94028e-12
8.24637e-12
8.56282e-12
8.88969e-12
9.227e-12
9.57477e-12
9.93296e-12
1.03015e-11
1.06803e-11
1.10692e-11
1.1468e-11
1.18764e-11
1.2294e-11
1.27206e-11
1.31555e-11
1.35983e-11
1.40482e-11
1.45045e-11
1.49663e-11
1.54326e-11
1.59021e-11
1.63737e-11
1.68457e-11
1.73166e-11
1.77844e-11
1.8247e-11
1.87021e-11
1.91471e-11
1.95791e-11
1.99947e-11
2.03905e-11
2.07625e-11
2.11062e-11
2.14167e-11
2.16889e-11
2.19166e-11
2.20935e-11
2.22123e-11
2.22653e-11
2.22437e-11
2.21381e-11
2.19381e-11
2.16325e-11
2.12087e-11
2.06534e-11
1.99517e-11
1.90877e-11
1.80441e-11
1.68022e-11
1.53417e-11
1.36413e-11
1.16781e-11
9.42809e-12
6.86654e-12
3.96789e-12
7.04045e-13
-2.94685e-12
-6.94593e-12
-1.12408e-11
-1.67472e-11
-2.58331e-11
-2.60631e-11
3.40951e-12
3.30563e-12
3.21055e-12
3.1497e-12
3.11141e-12
3.09128e-12
3.08784e-12
3.09953e-12
3.12475e-12
3.16216e-12
3.21064e-12
3.2693e-12
3.3374e-12
3.41439e-12
3.49981e-12
3.59333e-12
3.69471e-12
3.80378e-12
3.92042e-12
4.04458e-12
4.17623e-12
4.31541e-12
4.46215e-12
4.61652e-12
4.77861e-12
4.94854e-12
5.12641e-12
5.31235e-12
5.50649e-12
5.70898e-12
5.91994e-12
6.13953e-12
6.36788e-12
6.60511e-12
6.85136e-12
7.10675e-12
7.37137e-12
7.64532e-12
7.92868e-12
8.22151e-12
8.52383e-12
8.83567e-12
9.157e-12
9.48778e-12
9.82793e-12
1.01773e-11
1.05358e-11
1.09031e-11
1.1279e-11
1.16632e-11
1.20552e-11
1.24547e-11
1.28609e-11
1.32734e-11
1.36913e-11
1.41139e-11
1.45401e-11
1.49689e-11
1.5399e-11
1.5829e-11
1.62575e-11
1.66826e-11
1.71024e-11
1.75147e-11
1.79172e-11
1.83071e-11
1.86816e-11
1.90372e-11
1.93705e-11
1.96774e-11
1.99536e-11
2.01942e-11
2.03938e-11
2.05467e-11
2.06465e-11
2.0686e-11
2.06577e-11
2.05531e-11
2.03631e-11
2.00776e-11
1.96857e-11
1.91757e-11
1.85346e-11
1.77486e-11
1.68026e-11
1.56805e-11
1.4365e-11
1.28377e-11
1.10791e-11
9.06887e-12
6.78598e-12
4.20928e-12
1.31743e-12
-1.91273e-12
-5.4971e-12
-9.38702e-12
-1.35197e-11
-1.88495e-11
-2.78589e-11
-2.75474e-11
3.579e-12
3.48121e-12
3.39116e-12
3.33225e-12
3.2939e-12
3.27234e-12
3.26648e-12
3.27504e-12
3.29668e-12
3.33023e-12
3.3747e-12
3.42925e-12
3.49321e-12
3.56601e-12
3.64723e-12
3.73652e-12
3.83362e-12
3.93833e-12
4.05053e-12
4.17014e-12
4.2971e-12
4.4314e-12
4.57308e-12
4.72216e-12
4.87871e-12
5.04281e-12
5.21453e-12
5.39399e-12
5.58127e-12
5.77648e-12
5.97973e-12
6.19113e-12
6.41078e-12
6.63876e-12
6.87519e-12
7.12012e-12
7.37363e-12
7.63577e-12
7.90658e-12
8.18606e-12
8.47422e-12
8.77101e-12
9.07637e-12
9.39021e-12
9.71238e-12
1.00427e-11
1.0381e-11
1.0727e-11
1.10803e-11
1.14406e-11
1.18074e-11
1.21802e-11
1.25583e-11
1.29412e-11
1.33279e-11
1.37176e-11
1.41092e-11
1.45016e-11
1.48935e-11
1.52835e-11
1.567e-11
1.60511e-11
1.64249e-11
1.67891e-11
1.71414e-11
1.7479e-11
1.7799e-11
1.8098e-11
1.83725e-11
1.86184e-11
1.88315e-11
1.90069e-11
1.91395e-11
1.92234e-11
1.92524e-11
1.92197e-11
1.91178e-11
1.89387e-11
1.86734e-11
1.83123e-11
1.78452e-11
1.72607e-11
1.65468e-11
1.56903e-11
1.46773e-11
1.34929e-11
1.21212e-11
1.05456e-11
8.74842e-12
6.71177e-12
4.41735e-12
1.8472e-12
-1.01641e-12
-4.19263e-12
-7.69275e-12
-1.14612e-11
-1.54284e-11
-2.05782e-11
-2.94761e-11
-2.86929e-11
3.73642e-12
3.6441e-12
3.55869e-12
3.50191e-12
3.464e-12
3.44167e-12
3.43407e-12
3.44019e-12
3.45887e-12
3.48909e-12
3.52999e-12
3.58079e-12
3.64088e-12
3.70972e-12
3.78689e-12
3.87204e-12
3.96491e-12
4.06529e-12
4.17304e-12
4.28805e-12
4.41025e-12
4.53961e-12
4.67613e-12
4.81982e-12
4.97071e-12
5.12886e-12
5.29431e-12
5.46714e-12
5.64743e-12
5.83523e-12
6.03064e-12
6.23373e-12
6.44455e-12
6.66318e-12
6.88967e-12
7.12406e-12
7.36639e-12
7.61665e-12
7.87486e-12
8.14099e-12
8.41497e-12
8.69675e-12
8.9862e-12
9.28319e-12
9.58754e-12
9.89903e-12
1.02174e-11
1.05423e-11
1.08734e-11
1.12102e-11
1.15522e-11
1.18989e-11
1.22496e-11
1.26035e-11
1.29598e-11
1.33175e-11
1.36756e-11
1.40329e-11
1.4388e-11
1.47394e-11
1.50855e-11
1.54245e-11
1.57544e-11
1.60728e-11
1.63774e-11
1.66654e-11
1.6934e-11
1.71797e-11
1.7399e-11
1.7588e-11
1.77424e-11
1.78575e-11
1.79282e-11
1.7949e-11
1.79136e-11
1.78155e-11
1.76475e-11
1.74019e-11
1.70701e-11
1.66431e-11
1.6111e-11
1.54632e-11
1.46884e-11
1.37744e-11
1.27082e-11
1.14763e-11
1.0064e-11
8.45644e-12
6.63794e-12
4.59263e-12
2.30469e-12
-2.41062e-13
-3.05931e-12
-6.16601e-12
-9.569e-12
-1.32079e-11
-1.70084e-11
-2.19761e-11
-3.07356e-11
-2.95486e-11
3.88306e-12
3.79567e-12
3.71455e-12
3.65996e-12
3.62281e-12
3.60015e-12
3.59134e-12
3.59552e-12
3.61173e-12
3.63907e-12
3.67677e-12
3.72416e-12
3.78063e-12
3.84571e-12
3.91898e-12
4.0001e-12
4.08881e-12
4.1849e-12
4.28821e-12
4.3986e-12
4.51601e-12
4.64038e-12
4.77167e-12
4.90989e-12
5.05504e-12
5.20714e-12
5.36623e-12
5.53235e-12
5.70554e-12
5.88585e-12
6.07332e-12
6.268e-12
6.46993e-12
6.67913e-12
6.89563e-12
7.11943e-12
7.35054e-12
7.58892e-12
7.83455e-12
8.08734e-12
8.34722e-12
8.61407e-12
8.88774e-12
9.16804e-12
9.45476e-12
9.74762e-12
1.00463e-11
1.03505e-11
1.06597e-11
1.09735e-11
1.12914e-11
1.16126e-11
1.19365e-11
1.22623e-11
1.25891e-11
1.29159e-11
1.32416e-11
1.3565e-11
1.38847e-11
1.41991e-11
1.45066e-11
1.48054e-11
1.50934e-11
1.53684e-11
1.56278e-11
1.58691e-11
1.60892e-11
1.6285e-11
1.64529e-11
1.6589e-11
1.66891e-11
1.67487e-11
1.67627e-11
1.67259e-11
1.66322e-11
1.64754e-11
1.62485e-11
1.59441e-11
1.55543e-11
1.50703e-11
1.44829e-11
1.37823e-11
1.29577e-11
1.19981e-11
1.08914e-11
9.62513e-12
8.18631e-12
6.56135e-12
4.73643e-12
2.69762e-12
4.31286e-13
-2.07543e-12
-4.83469e-12
-7.8599e-12
-1.11563e-11
-1.46602e-11
-1.82943e-11
-2.30786e-11
-3.1676e-11
-3.01464e-11
4.01989e-12
3.93701e-12
3.85986e-12
3.80744e-12
3.77124e-12
3.74857e-12
3.73891e-12
3.74157e-12
3.75569e-12
3.78052e-12
3.81536e-12
3.85959e-12
3.91269e-12
3.97419e-12
4.04371e-12
4.12092e-12
4.20555e-12
4.29739e-12
4.39628e-12
4.50207e-12
4.61467e-12
4.73401e-12
4.86004e-12
4.99274e-12
5.13208e-12
5.27808e-12
5.43075e-12
5.59008e-12
5.75612e-12
5.92886e-12
6.10834e-12
6.29457e-12
6.48756e-12
6.6873e-12
6.89379e-12
7.107e-12
7.32691e-12
7.55344e-12
7.78653e-12
8.02608e-12
8.27196e-12
8.52401e-12
8.78207e-12
9.04589e-12
9.31523e-12
9.58977e-12
9.86918e-12
1.0153e-11
1.04409e-11
1.07322e-11
1.10264e-11
1.13229e-11
1.16208e-11
1.19193e-11
1.22176e-11
1.25146e-11
1.28091e-11
1.30999e-11
1.33856e-11
1.36646e-11
1.39353e-11
1.41959e-11
1.44441e-11
1.4678e-11
1.48949e-11
1.50922e-11
1.5267e-11
1.54162e-11
1.55362e-11
1.56233e-11
1.56735e-11
1.56822e-11
1.56446e-11
1.55557e-11
1.54096e-11
1.52004e-11
1.49215e-11
1.45658e-11
1.41258e-11
1.35933e-11
1.29598e-11
1.22159e-11
1.13519e-11
1.03574e-11
9.22157e-12
7.93303e-12
6.48001e-12
4.85041e-12
3.03201e-12
1.01263e-12
-1.21949e-12
-3.6752e-12
-6.3646e-12
-9.29908e-12
-1.2482e-11
-1.58473e-11
-1.93161e-11
-2.39158e-11
-3.23292e-11
-3.05117e-11
4.1477e-12
4.06894e-12
3.9955e-12
3.94523e-12
3.91009e-12
3.88761e-12
3.87739e-12
3.87882e-12
3.89118e-12
3.91379e-12
3.94603e-12
3.98737e-12
4.0373e-12
4.0954e-12
4.16131e-12
4.23471e-12
4.31535e-12
4.403e-12
4.4975e-12
4.59871e-12
4.7065e-12
4.82081e-12
4.94156e-12
5.06871e-12
5.20222e-12
5.34209e-12
5.48828e-12
5.6408e-12
5.79964e-12
5.96479e-12
6.13626e-12
6.31402e-12
6.49805e-12
6.68834e-12
6.88484e-12
7.0875e-12
7.29624e-12
7.511e-12
7.73165e-12
7.95807e-12
8.19009e-12
8.42754e-12
8.6702e-12
8.9178e-12
9.17005e-12
9.42662e-12
9.68711e-12
9.9511e-12
1.02181e-11
1.04875e-11
1.07588e-11
1.10311e-11
1.13039e-11
1.15761e-11
1.18468e-11
1.21151e-11
1.23796e-11
1.26392e-11
1.28924e-11
1.31377e-11
1.33734e-11
1.35976e-11
1.38083e-11
1.40034e-11
1.41803e-11
1.43364e-11
1.4469e-11
1.45748e-11
1.46506e-11
1.46926e-11
1.46969e-11
1.46593e-11
1.45751e-11
1.44392e-11
1.42465e-11
1.3991e-11
1.36665e-11
1.32665e-11
1.27837e-11
1.22107e-11
1.15394e-11
1.07612e-11
9.86715e-12
8.84772e-12
7.69304e-12
6.39284e-12
4.93655e-12
3.31342e-12
1.51267e-12
-4.76332e-13
-2.66372e-12
-5.05864e-12
-7.66952e-12
-1.05061e-11
-1.35703e-11
-1.67949e-11
-2.01e-11
-2.45142e-11
-3.27234e-11
-3.06667e-11
4.26712e-12
4.19219e-12
4.12223e-12
4.07405e-12
4.04003e-12
4.01789e-12
4.0073e-12
4.00775e-12
4.01859e-12
4.03923e-12
4.06911e-12
4.10776e-12
4.15471e-12
4.20957e-12
4.272e-12
4.34171e-12
4.41844e-12
4.50197e-12
4.59214e-12
4.68879e-12
4.79181e-12
4.90109e-12
5.01656e-12
5.13815e-12
5.26583e-12
5.39954e-12
5.53925e-12
5.68494e-12
5.83658e-12
5.99414e-12
6.15759e-12
6.32689e-12
6.502e-12
6.68287e-12
6.86943e-12
7.0616e-12
7.25928e-12
7.46236e-12
7.6707e-12
7.88415e-12
8.10251e-12
8.32557e-12
8.55308e-12
8.78475e-12
9.02025e-12
9.25923e-12
9.50125e-12
9.74586e-12
9.99254e-12
1.02407e-11
1.04897e-11
1.07387e-11
1.09871e-11
1.12339e-11
1.14782e-11
1.17188e-11
1.19547e-11
1.21844e-11
1.24067e-11
1.26199e-11
1.28224e-11
1.30123e-11
1.31876e-11
1.33462e-11
1.34856e-11
1.36033e-11
1.36966e-11
1.37624e-11
1.37973e-11
1.3798e-11
1.37606e-11
1.3681e-11
1.35547e-11
1.33771e-11
1.3143e-11
1.28469e-11
1.24831e-11
1.20452e-11
1.15268e-11
1.09206e-11
1.02193e-11
9.41493e-12
8.49934e-12
7.46386e-12
6.29953e-12
4.99711e-12
3.54716e-12
1.94014e-12
1.66568e-13
-1.78282e-12
-3.91673e-12
-6.2429e-12
-8.76837e-12
-1.15016e-11
-1.44434e-11
-1.75259e-11
-2.0669e-11
-2.4897e-11
-3.28835e-11
-3.06309e-11
4.37869e-12
4.30734e-12
4.24066e-12
4.19451e-12
4.16165e-12
4.13996e-12
4.12916e-12
4.1288e-12
4.13832e-12
4.15719e-12
4.18491e-12
4.22104e-12
4.26518e-12
4.31695e-12
4.37604e-12
4.44216e-12
4.51507e-12
4.59456e-12
4.68045e-12
4.7726e-12
4.87086e-12
4.97514e-12
5.08535e-12
5.20141e-12
5.32326e-12
5.45083e-12
5.58408e-12
5.72295e-12
5.86741e-12
6.0174e-12
6.17286e-12
6.33375e-12
6.49998e-12
6.6715e-12
6.84819e-12
7.02997e-12
7.2167e-12
7.40825e-12
7.60445e-12
7.80512e-12
8.01003e-12
8.21896e-12
8.43161e-12
8.64768e-12
8.86682e-12
9.08862e-12
9.31264e-12
9.5384e-12
9.76535e-12
9.99287e-12
1.02203e-11
1.04469e-11
1.06718e-11
1.08942e-11
1.1113e-11
1.13273e-11
1.15357e-11
1.1737e-11
1.19298e-11
1.21126e-11
1.22836e-11
1.24412e-11
1.25832e-11
1.27077e-11
1.28121e-11
1.28942e-11
1.2951e-11
1.29798e-11
1.29774e-11
1.29404e-11
1.28652e-11
1.27477e-11
1.25839e-11
1.23692e-11
1.20989e-11
1.17677e-11
1.13703e-11
1.09008e-11
1.0353e-11
9.72042e-12
8.99623e-12
8.17322e-12
7.24385e-12
6.20032e-12
5.03453e-12
3.73822e-12
2.30299e-12
7.20403e-13
-1.01786e-12
-2.91986e-12
-4.99307e-12
-7.24404e-12
-9.67864e-12
-1.23043e-11
-1.51209e-11
-1.80607e-11
-2.1044e-11
-2.50852e-11
-3.28317e-11
-3.04223e-11
4.48289e-12
4.41491e-12
4.35135e-12
4.30716e-12
4.27547e-12
4.25429e-12
4.24339e-12
4.24237e-12
4.25074e-12
4.268e-12
4.29373e-12
4.32752e-12
4.36899e-12
4.4178e-12
4.47366e-12
4.5363e-12
4.60549e-12
4.68101e-12
4.7627e-12
4.85039e-12
4.94396e-12
5.04328e-12
5.14827e-12
5.25882e-12
5.37487e-12
5.49633e-12
5.62314e-12
5.75524e-12
5.89256e-12
6.03502e-12
6.18256e-12
6.3351e-12
6.49254e-12
6.65479e-12
6.82173e-12
6.99324e-12
7.16917e-12
7.34936e-12
7.53361e-12
7.72172e-12
7.91345e-12
8.10853e-12
8.30665e-12
8.50748e-12
8.71065e-12
8.91573e-12
9.12226e-12
9.32973e-12
9.53756e-12
9.74514e-12
9.95176e-12
1.01567e-11
1.03591e-11
1.0558e-11
1.07525e-11
1.09415e-11
1.11238e-11
1.12981e-11
1.1463e-11
1.1617e-11
1.17584e-11
1.18855e-11
1.19964e-11
1.2089e-11
1.21609e-11
1.22099e-11
1.22332e-11
1.22281e-11
1.21916e-11
1.21203e-11
1.2011e-11
1.18597e-11
1.16626e-11
1.14155e-11
1.11137e-11
1.07525e-11
1.03269e-11
9.8313e-12
9.26018e-12
8.60748e-12
7.86694e-12
7.03199e-12
6.09581e-12
5.05135e-12
3.89137e-12
2.60849e-12
1.19525e-12
-3.55764e-13
-2.05183e-12
-3.89994e-12
-5.90652e-12
-8.07708e-12
-1.04165e-11
-1.29314e-11
-1.5621e-11
-1.8418e-11
-2.12436e-11
-2.50974e-11
-3.25884e-11
-3.00571e-11
4.58014e-12
4.51536e-12
4.45476e-12
4.41248e-12
4.38196e-12
4.36134e-12
4.35043e-12
4.34886e-12
4.3562e-12
4.372e-12
4.39588e-12
4.42746e-12
4.46639e-12
4.51238e-12
4.56513e-12
4.6244e-12
4.68995e-12
4.76159e-12
4.83914e-12
4.92245e-12
5.01138e-12
5.10581e-12
5.20562e-12
5.31072e-12
5.42101e-12
5.53642e-12
5.65685e-12
5.78223e-12
5.91246e-12
6.04747e-12
6.18717e-12
6.33145e-12
6.4802e-12
6.6333e-12
6.79063e-12
6.95203e-12
7.11733e-12
7.28635e-12
7.45888e-12
7.63469e-12
7.81351e-12
7.99505e-12
8.17899e-12
8.36498e-12
8.55261e-12
8.74145e-12
8.93101e-12
9.12077e-12
9.31014e-12
9.49847e-12
9.68507e-12
9.86917e-12
1.00499e-11
1.02264e-11
1.03977e-11
1.05626e-11
1.07201e-11
1.08687e-11
1.10072e-11
1.11341e-11
1.12477e-11
1.13463e-11
1.14281e-11
1.1491e-11
1.15328e-11
1.15512e-11
1.15437e-11
1.15077e-11
1.14401e-11
1.13381e-11
1.11982e-11
1.10169e-11
1.07905e-11
1.05151e-11
1.01865e-11
9.80003e-12
9.35114e-12
8.83482e-12
8.24583e-12
7.5787e-12
6.82771e-12
5.98691e-12
5.05015e-12
4.0111e-12
2.86331e-12
1.60022e-12
2.1526e-13
-1.29808e-12
-2.94615e-12
-4.73499e-12
-6.6701e-12
-8.75611e-12
-1.09971e-11
-1.33989e-11
-1.59603e-11
-1.86148e-11
-2.12848e-11
-2.49512e-11
-3.21725e-11
-2.95508e-11
4.67082e-12
4.60908e-12
4.55133e-12
4.51089e-12
4.48154e-12
4.46151e-12
4.45064e-12
4.44862e-12
4.45504e-12
4.4695e-12
4.49165e-12
4.52114e-12
4.55767e-12
4.60094e-12
4.65069e-12
4.70669e-12
4.7687e-12
4.83655e-12
4.91005e-12
4.98905e-12
5.07341e-12
5.16301e-12
5.25771e-12
5.35742e-12
5.46203e-12
5.57145e-12
5.68557e-12
5.8043e-12
5.92754e-12
6.05519e-12
6.18715e-12
6.32328e-12
6.46347e-12
6.60757e-12
6.75544e-12
6.90691e-12
7.06178e-12
7.21986e-12
7.38091e-12
7.54469e-12
7.7109e-12
7.87925e-12
8.04939e-12
8.22094e-12
8.3935e-12
8.5666e-12
8.73975e-12
8.9124e-12
9.08396e-12
9.25378e-12
9.42114e-12
9.58527e-12
9.74533e-12
9.90042e-12
1.00495e-11
1.01916e-11
1.03255e-11
1.04499e-11
1.05635e-11
1.06649e-11
1.07524e-11
1.08244e-11
1.08791e-11
1.09144e-11
1.09284e-11
1.09188e-11
1.08832e-11
1.08189e-11
1.07234e-11
1.05937e-11
1.04266e-11
1.02189e-11
9.96706e-12
9.66741e-12
9.31603e-12
8.90877e-12
8.44128e-12
7.909e-12
7.30716e-12
6.63077e-12
5.87465e-12
5.03345e-12
4.10165e-12
3.07362e-12
1.9436e-12
7.05831e-13
-6.45469e-13
-2.11598e-12
-3.7112e-12
-5.43635e-12
-7.2961e-12
-9.29433e-12
-1.14344e-11
-1.37215e-11
-1.6154e-11
-1.86667e-11
-2.11836e-11
-2.46624e-11
-3.16016e-11
-2.89177e-11
4.75529e-12
4.69645e-12
4.64144e-12
4.60278e-12
4.57458e-12
4.55517e-12
4.5444e-12
4.54199e-12
4.54758e-12
4.5608e-12
4.58133e-12
4.60885e-12
4.64308e-12
4.68375e-12
4.73061e-12
4.78343e-12
4.842e-12
4.90614e-12
4.97568e-12
5.05046e-12
5.13034e-12
5.21518e-12
5.30485e-12
5.39925e-12
5.49826e-12
5.60177e-12
5.70967e-12
5.82185e-12
5.9382e-12
6.05861e-12
6.18294e-12
6.31106e-12
6.44283e-12
6.5781e-12
6.71669e-12
6.85843e-12
7.0031e-12
7.15048e-12
7.30032e-12
7.45237e-12
7.60631e-12
7.76183e-12
7.91856e-12
8.07612e-12
8.23407e-12
8.39196e-12
8.54926e-12
8.70543e-12
8.85986e-12
9.0119e-12
9.16082e-12
9.30585e-12
9.44616e-12
9.58084e-12
9.70891e-12
9.82931e-12
9.94091e-12
1.00425e-11
1.01327e-11
1.02101e-11
1.02732e-11
1.03204e-11
1.03499e-11
1.03599e-11
1.03483e-11
1.0313e-11
1.02517e-11
1.0162e-11
1.00413e-11
9.88692e-12
9.69588e-12
9.46512e-12
9.19137e-12
8.87122e-12
8.50103e-12
8.07701e-12
7.59516e-12
7.05134e-12
6.44119e-12
5.76021e-12
5.00375e-12
4.16701e-12
3.24507e-12
2.23294e-12
1.12556e-12
-8.21495e-14
-1.39522e-12
-2.81857e-12
-4.35696e-12
-6.01484e-12
-7.79617e-12
-9.70415e-12
-1.17416e-11
-1.3913e-11
-1.62165e-11
-1.85883e-11
-2.09544e-11
-2.42461e-11
-3.08922e-11
-2.81715e-11
4.83387e-12
4.77783e-12
4.72544e-12
4.68852e-12
4.66145e-12
4.64266e-12
4.63203e-12
4.6293e-12
4.63413e-12
4.64619e-12
4.6652e-12
4.69085e-12
4.72289e-12
4.76105e-12
4.80512e-12
4.85487e-12
4.9101e-12
4.97064e-12
5.0363e-12
5.10695e-12
5.18243e-12
5.2626e-12
5.34734e-12
5.43652e-12
5.53003e-12
5.62773e-12
5.72951e-12
5.83526e-12
5.94484e-12
6.05812e-12
6.17497e-12
6.29523e-12
6.41876e-12
6.54537e-12
6.67489e-12
6.80711e-12
6.94182e-12
7.07877e-12
7.2177e-12
7.35833e-12
7.50035e-12
7.64342e-12
7.78716e-12
7.93118e-12
8.07503e-12
8.21823e-12
8.36028e-12
8.5006e-12
8.63859e-12
8.77359e-12
8.90487e-12
9.03168e-12
9.15318e-12
9.26847e-12
9.37658e-12
9.47648e-12
9.56706e-12
9.64711e-12
9.71534e-12
9.7704e-12
9.81079e-12
9.83495e-12
9.8412e-12
9.82774e-12
9.79268e-12
9.73397e-12
9.64946e-12
9.53685e-12
9.39373e-12
9.21752e-12
9.00551e-12
8.75483e-12
8.46247e-12
8.12526e-12
7.73987e-12
7.30283e-12
6.81051e-12
6.25914e-12
5.64479e-12
4.96343e-12
4.21088e-12
3.3829e-12
2.47512e-12
1.48316e-12
4.02582e-13
-7.71029e-13
-2.04203e-12
-3.41466e-12
-4.89297e-12
-6.48075e-12
-8.18131e-12
-9.99728e-12
-1.19309e-11
-1.39862e-11
-1.61609e-11
-1.83933e-11
-2.06111e-11
-2.37163e-11
-3.006e-11
-2.73253e-11
4.90687e-12
4.85351e-12
4.80366e-12
4.76842e-12
4.74247e-12
4.72431e-12
4.71384e-12
4.71083e-12
4.71497e-12
4.72596e-12
4.74353e-12
4.7674e-12
4.79734e-12
4.83311e-12
4.87448e-12
4.92126e-12
4.97324e-12
5.03027e-12
5.09217e-12
5.15878e-12
5.22996e-12
5.30557e-12
5.38547e-12
5.46954e-12
5.55764e-12
5.64965e-12
5.74544e-12
5.84487e-12
5.94782e-12
6.05413e-12
6.16365e-12
6.27623e-12
6.3917e-12
6.50986e-12
6.63052e-12
6.75347e-12
6.87847e-12
7.00527e-12
7.1336e-12
7.26316e-12
7.39362e-12
7.52463e-12
7.65582e-12
7.78676e-12
7.91701e-12
8.0461e-12
8.17348e-12
8.2986e-12
8.42084e-12
8.53955e-12
8.65401e-12
8.76346e-12
8.86708e-12
8.96398e-12
9.05322e-12
9.13377e-12
9.20457e-12
9.26443e-12
9.31211e-12
9.34629e-12
9.36556e-12
9.36839e-12
9.3532e-12
9.31827e-12
9.26179e-12
9.18184e-12
9.07639e-12
8.94329e-12
8.78027e-12
8.58493e-12
8.35475e-12
8.08709e-12
7.77918e-12
7.4281e-12
7.03082e-12
6.58418e-12
6.08491e-12
5.5296e-12
4.91474e-12
4.23673e-12
3.49187e-12
2.67641e-12
1.78654e-12
8.18412e-13
-2.31809e-13
-1.36793e-12
-2.59368e-12
-3.91268e-12
-5.32836e-12
-6.84387e-12
-8.46198e-12
-1.01848e-11
-1.2014e-11
-1.39532e-11
-1.59999e-11
-1.80943e-11
-2.01666e-11
-2.30862e-11
-2.91199e-11
-2.63916e-11
4.97458e-12
4.92382e-12
4.87641e-12
4.84281e-12
4.81794e-12
4.80041e-12
4.79013e-12
4.78688e-12
4.79039e-12
4.80037e-12
4.81658e-12
4.83876e-12
4.8667e-12
4.90015e-12
4.93893e-12
4.98283e-12
5.03168e-12
5.0853e-12
5.14353e-12
5.20621e-12
5.27319e-12
5.34435e-12
5.41952e-12
5.49859e-12
5.58142e-12
5.66786e-12
5.75779e-12
5.85105e-12
5.94751e-12
6.04701e-12
6.14938e-12
6.25446e-12
6.36207e-12
6.47199e-12
6.58404e-12
6.69797e-12
6.81354e-12
6.9305e-12
7.04855e-12
7.16738e-12
7.28666e-12
7.40603e-12
7.52511e-12
7.64346e-12
7.76064e-12
7.87615e-12
7.98947e-12
8.10004e-12
8.20723e-12
8.31041e-12
8.40885e-12
8.50181e-12
8.58847e-12
8.66798e-12
8.7394e-12
8.80175e-12
8.85397e-12
8.89493e-12
8.92343e-12
8.93821e-12
8.93789e-12
8.92105e-12
8.88616e-12
8.8316e-12
8.75565e-12
8.65652e-12
8.5323e-12
8.38097e-12
8.20043e-12
7.98845e-12
7.74272e-12
7.46081e-12
7.14016e-12
6.77814e-12
6.37199e-12
5.91887e-12
5.41582e-12
4.85981e-12
4.24773e-12
3.57637e-12
2.84251e-12
2.04286e-12
1.17411e-12
2.32935e-13
-7.83942e-13
-1.87977e-12
-3.0577e-12
-4.32078e-12
-5.67186e-12
-7.11355e-12
-8.64807e-12
-1.0277e-11
-1.20018e-11
-1.38254e-11
-1.57452e-11
-1.77034e-11
-1.96329e-11
-2.23684e-11
-2.80861e-11
-2.53821e-11
5.03728e-12
4.98901e-12
4.94397e-12
4.91196e-12
4.88815e-12
4.87126e-12
4.86118e-12
4.85773e-12
4.86065e-12
4.86969e-12
4.88461e-12
4.90518e-12
4.93119e-12
4.96244e-12
4.99871e-12
5.03984e-12
5.08565e-12
5.13597e-12
5.19063e-12
5.24949e-12
5.3124e-12
5.37921e-12
5.44978e-12
5.52398e-12
5.60165e-12
5.68267e-12
5.76687e-12
5.85412e-12
5.94426e-12
6.03712e-12
6.13253e-12
6.23032e-12
6.33027e-12
6.4322e-12
6.53587e-12
6.64106e-12
6.7475e-12
6.85492e-12
6.96302e-12
7.0715e-12
7.17999e-12
7.28815e-12
7.39557e-12
7.50182e-12
7.60645e-12
7.70896e-12
7.80884e-12
7.9055e-12
7.99835e-12
8.08673e-12
8.16996e-12
8.24728e-12
8.31791e-12
8.381e-12
8.43565e-12
8.48089e-12
8.51571e-12
8.53903e-12
8.54968e-12
8.54646e-12
8.52806e-12
8.49312e-12
8.44019e-12
8.36775e-12
8.27418e-12
8.15781e-12
8.01684e-12
7.84942e-12
7.65359e-12
7.42731e-12
7.16844e-12
6.87477e-12
6.54398e-12
6.17368e-12
5.76141e-12
5.3046e-12
4.80063e-12
4.24681e-12
3.6404e-12
2.97861e-12
2.25862e-12
1.47759e-12
6.32686e-13
-2.78912e-13
-1.25999e-12
-2.31325e-12
-3.44135e-12
-4.64676e-12
-5.93184e-12
-7.29867e-12
-8.74899e-12
-1.0284e-11
-1.19046e-11
-1.36135e-11
-1.54077e-11
-1.72319e-11
-1.90216e-11
-2.15749e-11
-2.6972e-11
-2.43085e-11
5.09524e-12
5.04938e-12
5.00662e-12
4.97614e-12
4.95338e-12
4.93711e-12
4.92725e-12
4.92363e-12
4.92601e-12
4.93416e-12
4.94786e-12
4.96689e-12
4.99107e-12
5.02019e-12
5.05406e-12
5.09252e-12
5.13539e-12
5.18251e-12
5.23372e-12
5.28887e-12
5.34782e-12
5.41041e-12
5.47651e-12
5.54596e-12
5.61863e-12
5.69437e-12
5.77301e-12
5.85441e-12
5.9384e-12
6.02481e-12
6.11346e-12
6.20416e-12
6.2967e-12
6.39087e-12
6.48644e-12
6.58316e-12
6.68077e-12
6.77898e-12
6.8775e-12
6.97599e-12
7.0741e-12
7.17147e-12
7.2677e-12
7.36235e-12
7.45496e-12
7.54505e-12
7.63208e-12
7.71549e-12