/*--------------------------------*- C++ -*----------------------------------*\
  =========                 |
  \\      /  F ield         | OpenFOAM: The Open Source CFD Toolbox
   \\    /   O peration     | Website:  https://openfoam.org
    \\  /    A nd           | Version:  11
     \\/     M anipulation  |
\*---------------------------------------------------------------------------*/
FoamFile
{
    format      ascii;
    class       volScalarField;
    location    "698";
    object      nut;
}
// * * * * * * * * * * * * * * * * * * * * * * * * * * * * * * * * * * * * * //

dimensions      [0 2 -1 0 0 0 0];

internalField   nonuniform List<scalar> 
10000
(
0.000977119
0.000936711
0.000899656
0.000865636
0.000834363
0.000805577
0.000779048
0.000754566
0.000731944
0.000711013
0.000691621
0.000673631
0.000656918
0.000641372
0.000626892
0.000613387
0.000600775
0.000588982
0.000577939
0.000567586
0.000557868
0.000548734
0.000540138
0.000532039
0.000524399
0.000517183
0.00051036
0.000503901
0.000497779
0.000491971
0.000486454
0.000481208
0.000476215
0.000471457
0.000466918
0.000462584
0.000458441
0.000454478
0.000450682
0.000447043
0.000443551
0.000440198
0.000436974
0.000433871
0.000430883
0.000428003
0.000425224
0.000422541
0.000419947
0.000417438
0.000415009
0.000412656
0.000410374
0.000408159
0.000406009
0.000403919
0.000401886
0.000399908
0.000397982
0.000396105
0.000394276
0.000392492
0.000390751
0.000389052
0.000387394
0.000385776
0.000384196
0.000382653
0.000381149
0.000379682
0.000378252
0.00037686
0.000375507
0.000374193
0.000372921
0.000371691
0.000370507
0.000369369
0.000368283
0.00036725
0.000366276
0.000365363
0.000364518
0.000363745
0.000363051
0.00036244
0.000361921
0.0003615
0.000361184
0.000360978
0.00036089
0.000360922
0.000361077
0.00036135
0.000361732
0.000362203
0.000362729
0.000363254
0.000363695
0.00036394
0.000977119
0.000936711
0.000899657
0.000865636
0.000834363
0.000805577
0.000779048
0.000754566
0.000731944
0.000711013
0.000691621
0.000673631
0.000656918
0.000641372
0.000626892
0.000613388
0.000600775
0.000588982
0.000577939
0.000567586
0.000557868
0.000548734
0.000540138
0.000532039
0.000524399
0.000517183
0.00051036
0.000503901
0.00049778
0.000491971
0.000486455
0.000481209
0.000476215
0.000471457
0.000466918
0.000462584
0.000458442
0.000454478
0.000450683
0.000447044
0.000443552
0.000440198
0.000436974
0.000433872
0.000430884
0.000428004
0.000425225
0.000422542
0.000419948
0.000417439
0.00041501
0.000412657
0.000410375
0.000408161
0.00040601
0.00040392
0.000401888
0.00039991
0.000397983
0.000396107
0.000394278
0.000392493
0.000390753
0.000389054
0.000387396
0.000385778
0.000384198
0.000382655
0.000381151
0.000379684
0.000378254
0.000376862
0.000375509
0.000374195
0.000372923
0.000371693
0.000370509
0.000369372
0.000368285
0.000367253
0.000366278
0.000365366
0.00036452
0.000363747
0.000363053
0.000362442
0.000361923
0.000361502
0.000361185
0.00036098
0.000360891
0.000360923
0.000361077
0.00036135
0.000361732
0.000362203
0.000362729
0.000363253
0.000363695
0.00036394
0.000977119
0.000936711
0.000899657
0.000865636
0.000834363
0.000805577
0.000779048
0.000754566
0.000731945
0.000711014
0.000691621
0.000673631
0.000656918
0.000641373
0.000626893
0.000613388
0.000600776
0.000588982
0.000577939
0.000567587
0.000557868
0.000548734
0.000540138
0.00053204
0.0005244
0.000517184
0.000510361
0.000503902
0.00049778
0.000491972
0.000486455
0.00048121
0.000476216
0.000471458
0.000466919
0.000462585
0.000458443
0.00045448
0.000450684
0.000447045
0.000443553
0.0004402
0.000436976
0.000433874
0.000430886
0.000428006
0.000425227
0.000422543
0.00041995
0.000417441
0.000415012
0.000412659
0.000410377
0.000408163
0.000406013
0.000403923
0.00040189
0.000399912
0.000397986
0.00039611
0.000394281
0.000392497
0.000390756
0.000389058
0.0003874
0.000385781
0.000384201
0.000382659
0.000381155
0.000379688
0.000378258
0.000376866
0.000375513
0.0003742
0.000372927
0.000371698
0.000370513
0.000369376
0.00036829
0.000367257
0.000366283
0.00036537
0.000364525
0.000363751
0.000363057
0.000362446
0.000361927
0.000361505
0.000361188
0.000360982
0.000360893
0.000360925
0.000361079
0.000361351
0.000361733
0.000362204
0.000362729
0.000363253
0.000363694
0.000363939
0.000977119
0.000936711
0.000899657
0.000865636
0.000834363
0.000805577
0.000779048
0.000754567
0.000731945
0.000711014
0.000691622
0.000673631
0.000656919
0.000641373
0.000626893
0.000613388
0.000600776
0.000588982
0.00057794
0.000567587
0.000557869
0.000548735
0.000540139
0.00053204
0.0005244
0.000517185
0.000510362
0.000503903
0.000497781
0.000491973
0.000486457
0.000481211
0.000476218
0.000471459
0.000466921
0.000462587
0.000458445
0.000454481
0.000450686
0.000447047
0.000443555
0.000440202
0.000436978
0.000433876
0.000430888
0.000428008
0.000425229
0.000422546
0.000419953
0.000417444
0.000415016
0.000412662
0.000410381
0.000408167
0.000406016
0.000403927
0.000401894
0.000399917
0.000397991
0.000396114
0.000394285
0.000392501
0.000390761
0.000389063
0.000387405
0.000385787
0.000384207
0.000382665
0.000381161
0.000379694
0.000378264
0.000376873
0.00037552
0.000374206
0.000372934
0.000371705
0.00037052
0.000369383
0.000368297
0.000367264
0.000366289
0.000365377
0.000364531
0.000363758
0.000363063
0.000362452
0.000361932
0.00036151
0.000361193
0.000360986
0.000360897
0.000360928
0.000361081
0.000361353
0.000361734
0.000362204
0.000362728
0.000363252
0.000363693
0.000363938
0.000977119
0.000936711
0.000899657
0.000865636
0.000834363
0.000805577
0.000779048
0.000754567
0.000731945
0.000711014
0.000691622
0.000673631
0.000656919
0.000641373
0.000626893
0.000613389
0.000600777
0.000588983
0.00057794
0.000567588
0.00055787
0.000548736
0.00054014
0.000532041
0.000524401
0.000517186
0.000510363
0.000503904
0.000497783
0.000491975
0.000486458
0.000481213
0.000476219
0.000471461
0.000466923
0.000462589
0.000458447
0.000454484
0.000450688
0.000447049
0.000443558
0.000440205
0.000436981
0.000433879
0.000430891
0.000428012
0.000425233
0.00042255
0.000419957
0.000417448
0.00041502
0.000412667
0.000410385
0.000408171
0.000406021
0.000403932
0.0004019
0.000399922
0.000397996
0.00039612
0.000394291
0.000392508
0.000390768
0.00038907
0.000387412
0.000385794
0.000384214
0.000382673
0.000381168
0.000379702
0.000378272
0.000376881
0.000375528
0.000374215
0.000372943
0.000371713
0.000370529
0.000369392
0.000368306
0.000367273
0.000366298
0.000365385
0.000364539
0.000363766
0.00036307
0.000362459
0.000361939
0.000361517
0.000361199
0.000360992
0.000360901
0.000360931
0.000361084
0.000361355
0.000361735
0.000362204
0.000362728
0.000363251
0.000363692
0.000363936
0.000977119
0.000936711
0.000899657
0.000865637
0.000834363
0.000805578
0.000779048
0.000754567
0.000731945
0.000711014
0.000691622
0.000673632
0.000656919
0.000641374
0.000626894
0.000613389
0.000600777
0.000588984
0.000577941
0.000567589
0.00055787
0.000548737
0.000540141
0.000532042
0.000524402
0.000517187
0.000510364
0.000503905
0.000497784
0.000491976
0.00048646
0.000481214
0.000476221
0.000471463
0.000466925
0.000462591
0.000458449
0.000454486
0.000450691
0.000447052
0.000443561
0.000440208
0.000436984
0.000433883
0.000430895
0.000428016
0.000425237
0.000422554
0.000419961
0.000417453
0.000415025
0.000412672
0.000410391
0.000408177
0.000406027
0.000403938
0.000401906
0.000399929
0.000398003
0.000396128
0.000394299
0.000392516
0.000390776
0.000389078
0.000387421
0.000385803
0.000384223
0.000382682
0.000381178
0.000379712
0.000378282
0.000376891
0.000375539
0.000374226
0.000372954
0.000371724
0.00037054
0.000369403
0.000368317
0.000367284
0.000366309
0.000365396
0.00036455
0.000363776
0.00036308
0.000362468
0.000361948
0.000361524
0.000361206
0.000360998
0.000360907
0.000360936
0.000361087
0.000361357
0.000361737
0.000362205
0.000362728
0.00036325
0.00036369
0.000363934
0.000977119
0.000936711
0.000899657
0.000865637
0.000834363
0.000805578
0.000779049
0.000754567
0.000731945
0.000711014
0.000691622
0.000673632
0.00065692
0.000641374
0.000626894
0.00061339
0.000600778
0.000588984
0.000577942
0.000567589
0.000557871
0.000548738
0.000540142
0.000532044
0.000524404
0.000517189
0.000510366
0.000503907
0.000497786
0.000491978
0.000486462
0.000481217
0.000476224
0.000471466
0.000466928
0.000462594
0.000458452
0.00045449
0.000450694
0.000447056
0.000443565
0.000440212
0.000436989
0.000433887
0.0004309
0.00042802
0.000425242
0.00042256
0.000419967
0.000417459
0.000415031
0.000412678
0.000410397
0.000408184
0.000406034
0.000403945
0.000401914
0.000399937
0.000398012
0.000396136
0.000394308
0.000392525
0.000390785
0.000389088
0.000387431
0.000385813
0.000384234
0.000382693
0.000381189
0.000379723
0.000378294
0.000376903
0.000375551
0.000374238
0.000372966
0.000371737
0.000370553
0.000369416
0.00036833
0.000367297
0.000366322
0.000365408
0.000364562
0.000363788
0.000363091
0.000362479
0.000361958
0.000361534
0.000361214
0.000361005
0.000360913
0.000360941
0.000361091
0.00036136
0.000361738
0.000362205
0.000362727
0.000363249
0.000363688
0.000363932
0.000977119
0.000936711
0.000899657
0.000865637
0.000834363
0.000805578
0.000779049
0.000754567
0.000731946
0.000711015
0.000691623
0.000673632
0.00065692
0.000641375
0.000626895
0.00061339
0.000600779
0.000588985
0.000577943
0.000567591
0.000557873
0.000548739
0.000540144
0.000532045
0.000524406
0.00051719
0.000510368
0.000503909
0.000497788
0.000491981
0.000486465
0.000481219
0.000476227
0.000471469
0.000466931
0.000462598
0.000458456
0.000454493
0.000450698
0.00044706
0.000443569
0.000440217
0.000436994
0.000433892
0.000430905
0.000428026
0.000425248
0.000422566
0.000419973
0.000417465
0.000415038
0.000412686
0.000410405
0.000408192
0.000406043
0.000403954
0.000401923
0.000399946
0.000398021
0.000396146
0.000394318
0.000392535
0.000390796
0.000389099
0.000387442
0.000385825
0.000384247
0.000382706
0.000381203
0.000379737
0.000378308
0.000376917
0.000375565
0.000374253
0.000372981
0.000371752
0.000370568
0.000369431
0.000368344
0.000367312
0.000366336
0.000365423
0.000364576
0.000363801
0.000363105
0.000362492
0.00036197
0.000361545
0.000361224
0.000361014
0.000360921
0.000360948
0.000361096
0.000361364
0.00036174
0.000362206
0.000362727
0.000363247
0.000363686
0.000363929
0.000977119
0.000936711
0.000899657
0.000865637
0.000834363
0.000805578
0.000779049
0.000754567
0.000731946
0.000711015
0.000691623
0.000673633
0.000656921
0.000641375
0.000626896
0.000613391
0.00060078
0.000588986
0.000577944
0.000567592
0.000557874
0.00054874
0.000540145
0.000532047
0.000524407
0.000517192
0.00051037
0.000503911
0.000497791
0.000491983
0.000486467
0.000481222
0.00047623
0.000471472
0.000466934
0.000462601
0.00045846
0.000454497
0.000450703
0.000447065
0.000443574
0.000440222
0.000436999
0.000433898
0.000430911
0.000428032
0.000425255
0.000422573
0.00041998
0.000417473
0.000415046
0.000412694
0.000410413
0.000408201
0.000406052
0.000403963
0.000401933
0.000399956
0.000398032
0.000396157
0.00039433
0.000392547
0.000390809
0.000389112
0.000387455
0.000385839
0.00038426
0.00038272
0.000381217
0.000379752
0.000378323
0.000376933
0.000375581
0.000374269
0.000372997
0.000371769
0.000370584
0.000369448
0.000368361
0.000367328
0.000366353
0.000365439
0.000364592
0.000363817
0.000363119
0.000362506
0.000361983
0.000361557
0.000361235
0.000361024
0.000360929
0.000360954
0.000361102
0.000361368
0.000361743
0.000362207
0.000362726
0.000363245
0.000363683
0.000363926
0.000977119
0.000936711
0.000899657
0.000865637
0.000834363
0.000805578
0.000779049
0.000754568
0.000731946
0.000711015
0.000691624
0.000673633
0.000656921
0.000641376
0.000626896
0.000613392
0.00060078
0.000588987
0.000577945
0.000567593
0.000557875
0.000548742
0.000540147
0.000532049
0.000524409
0.000517194
0.000510372
0.000503914
0.000497793
0.000491986
0.00048647
0.000481226
0.000476233
0.000471476
0.000466938
0.000462606
0.000458464
0.000454502
0.000450707
0.00044707
0.00044358
0.000440227
0.000437005
0.000433904
0.000430918
0.000428039
0.000425262
0.00042258
0.000419988
0.000417481
0.000415054
0.000412703
0.000410423
0.00040821
0.000406062
0.000403974
0.000401943
0.000399968
0.000398044
0.000396169
0.000394342
0.00039256
0.000390822
0.000389126
0.00038747
0.000385854
0.000384276
0.000382736
0.000381233
0.000379768
0.00037834
0.00037695
0.000375599
0.000374287
0.000373015
0.000371787
0.000370603
0.000369466
0.00036838
0.000367347
0.000366371
0.000365457
0.000364609
0.000363834
0.000363136
0.000362521
0.000361997
0.00036157
0.000361247
0.000361035
0.000360938
0.000360962
0.000361108
0.000361372
0.000361745
0.000362208
0.000362725
0.000363243
0.00036368
0.000363923
0.000977119
0.000936711
0.000899657
0.000865637
0.000834363
0.000805578
0.000779049
0.000754568
0.000731946
0.000711016
0.000691624
0.000673634
0.000656922
0.000641377
0.000626897
0.000613393
0.000600781
0.000588988
0.000577946
0.000567594
0.000557877
0.000548743
0.000540149
0.000532051
0.000524411
0.000517197
0.000510375
0.000503917
0.000497796
0.000491989
0.000486474
0.000481229
0.000476237
0.00047148
0.000466942
0.00046261
0.000458469
0.000454507
0.000450713
0.000447075
0.000443585
0.000440234
0.000437011
0.000433911
0.000430925
0.000428047
0.00042527
0.000422588
0.000419997
0.00041749
0.000415063
0.000412712
0.000410433
0.000408221
0.000406073
0.000403985
0.000401955
0.00039998
0.000398056
0.000396183
0.000394356
0.000392575
0.000390837
0.000389141
0.000387486
0.00038587
0.000384292
0.000382753
0.000381251
0.000379786
0.000378359
0.000376969
0.000375618
0.000374306
0.000373035
0.000371807
0.000370623
0.000369486
0.0003684
0.000367367
0.000366391
0.000365476
0.000364628
0.000363852
0.000363153
0.000362538
0.000362013
0.000361585
0.000361261
0.000361047
0.000360948
0.00036097
0.000361114
0.000361376
0.000361748
0.000362208
0.000362724
0.000363241
0.000363677
0.000363919
0.000977119
0.000936711
0.000899657
0.000865637
0.000834364
0.000805578
0.00077905
0.000754568
0.000731947
0.000711016
0.000691624
0.000673634
0.000656923
0.000641377
0.000626898
0.000613394
0.000600783
0.00058899
0.000577948
0.000567596
0.000557878
0.000548745
0.000540151
0.000532053
0.000524414
0.000517199
0.000510377
0.000503919
0.000497799
0.000491992
0.000486477
0.000481233
0.000476241
0.000471484
0.000466947
0.000462615
0.000458474
0.000454512
0.000450718
0.000447081
0.000443592
0.00044024
0.000437018
0.000433918
0.000430932
0.000428055
0.000425278
0.000422597
0.000420006
0.0004175
0.000415073
0.000412723
0.000410444
0.000408232
0.000406085
0.000403998
0.000401968
0.000399993
0.00039807
0.000396197
0.000394371
0.00039259
0.000390853
0.000389157
0.000387502
0.000385887
0.00038431
0.000382771
0.00038127
0.000379805
0.000378378
0.000376989
0.000375638
0.000374327
0.000373056
0.000371828
0.000370644
0.000369508
0.000368421
0.000367388
0.000366412
0.000365497
0.000364649
0.000363872
0.000363172
0.000362556
0.00036203
0.000361601
0.000361275
0.000361059
0.000360959
0.000360979
0.000361121
0.000361381
0.000361751
0.000362209
0.000362724
0.000363239
0.000363674
0.000363915
0.000977119
0.000936711
0.000899657
0.000865637
0.000834364
0.000805579
0.00077905
0.000754569
0.000731947
0.000711017
0.000691625
0.000673635
0.000656923
0.000641378
0.000626899
0.000613395
0.000600784
0.000588991
0.000577949
0.000567597
0.00055788
0.000548747
0.000540153
0.000532055
0.000524416
0.000517202
0.00051038
0.000503922
0.000497802
0.000491996
0.000486481
0.000481237
0.000476245
0.000471489
0.000466952
0.00046262
0.000458479
0.000454518
0.000450724
0.000447088
0.000443598
0.000440247
0.000437025
0.000433926
0.00043094
0.000428063
0.000425287
0.000422606
0.000420016
0.00041751
0.000415084
0.000412734
0.000410455
0.000408244
0.000406097
0.000404011
0.000401982
0.000400007
0.000398085
0.000396212
0.000394386
0.000392606
0.000390869
0.000389174
0.00038752
0.000385905
0.000384329
0.000382791
0.00038129
0.000379826
0.000378399
0.00037701
0.00037566
0.000374349
0.000373079
0.000371851
0.000370667
0.000369531
0.000368444
0.000367411
0.000366434
0.000365519
0.00036467
0.000363893
0.000363192
0.000362575
0.000362048
0.000361617
0.00036129
0.000361073
0.000360971
0.000360989
0.000361129
0.000361387
0.000361754
0.00036221
0.000362723
0.000363236
0.00036367
0.000363911
0.000977119
0.000936711
0.000899657
0.000865637
0.000834364
0.000805579
0.00077905
0.000754569
0.000731947
0.000711017
0.000691625
0.000673636
0.000656924
0.000641379
0.0006269
0.000613396
0.000600785
0.000588992
0.000577951
0.000567599
0.000557882
0.000548749
0.000540155
0.000532057
0.000524419
0.000517204
0.000510383
0.000503926
0.000497806
0.000492
0.000486485
0.000481241
0.000476249
0.000471493
0.000466957
0.000462625
0.000458485
0.000454524
0.00045073
0.000447094
0.000443605
0.000440254
0.000437033
0.000433934
0.000430949
0.000428072
0.000425296
0.000422616
0.000420026
0.00041752
0.000415095
0.000412746
0.000410467
0.000408257
0.00040611
0.000404024
0.000401996
0.000400022
0.0003981
0.000396228
0.000394403
0.000392623
0.000390887
0.000389193
0.000387539
0.000385925
0.000384349
0.000382811
0.000381311
0.000379847
0.000378421
0.000377033
0.000375683
0.000374372
0.000373102
0.000371875
0.000370691
0.000369555
0.000368468
0.000367435
0.000366458
0.000365543
0.000364693
0.000363915
0.000363214
0.000362596
0.000362067
0.000361635
0.000361306
0.000361087
0.000360983
0.000360999
0.000361136
0.000361392
0.000361757
0.000362211
0.000362722
0.000363234
0.000363666
0.000363907
0.000977119
0.000936711
0.000899657
0.000865637
0.000834364
0.000805579
0.00077905
0.000754569
0.000731948
0.000711017
0.000691626
0.000673636
0.000656925
0.00064138
0.000626901
0.000613397
0.000600786
0.000588993
0.000577952
0.000567601
0.000557884
0.000548751
0.000540157
0.000532059
0.000524421
0.000517207
0.000510386
0.000503929
0.000497809
0.000492003
0.000486489
0.000481245
0.000476254
0.000471498
0.000466962
0.00046263
0.000458491
0.00045453
0.000450737
0.000447101
0.000443612
0.000440262
0.000437041
0.000433942
0.000430958
0.000428081
0.000425306
0.000422626
0.000420036
0.000417532
0.000415107
0.000412758
0.00041048
0.00040827
0.000406124
0.000404039
0.000402011
0.000400037
0.000398116
0.000396244
0.00039442
0.000392641
0.000390905
0.000389212
0.000387559
0.000385945
0.00038437
0.000382833
0.000381333
0.00037987
0.000378444
0.000377057
0.000375707
0.000374397
0.000373127
0.0003719
0.000370716
0.00036958
0.000368494
0.00036746
0.000366483
0.000365567
0.000364717
0.000363938
0.000363236
0.000362617
0.000362087
0.000361653
0.000361323
0.000361102
0.000360996
0.00036101
0.000361145
0.000361398
0.000361761
0.000362213
0.000362721
0.000363231
0.000363662
0.000363902
0.000977119
0.000936711
0.000899657
0.000865637
0.000834364
0.000805579
0.00077905
0.000754569
0.000731948
0.000711018
0.000691626
0.000673637
0.000656925
0.00064138
0.000626902
0.000613398
0.000600787
0.000588995
0.000577953
0.000567602
0.000557885
0.000548753
0.000540159
0.000532062
0.000524424
0.00051721
0.000510389
0.000503932
0.000497813
0.000492007
0.000486493
0.000481249
0.000476259
0.000471503
0.000466967
0.000462636
0.000458497
0.000454536
0.000450744
0.000447108
0.00044362
0.00044027
0.000437049
0.000433951
0.000430967
0.000428091
0.000425316
0.000422637
0.000420047
0.000417543
0.000415119
0.00041277
0.000410493
0.000408284
0.000406138
0.000404053
0.000402026
0.000400053
0.000398133
0.000396262
0.000394438
0.000392659
0.000390925
0.000389232
0.000387579
0.000385966
0.000384392
0.000382855
0.000381356
0.000379893
0.000378468
0.000377081
0.000375732
0.000374422
0.000373153
0.000371926
0.000370743
0.000369606
0.00036852
0.000367486
0.000366509
0.000365593
0.000364742
0.000363963
0.000363259
0.000362639
0.000362108
0.000361673
0.00036134
0.000361117
0.00036101
0.000361021
0.000361153
0.000361404
0.000361764
0.000362214
0.00036272
0.000363228
0.000363658
0.000363897
0.000977119
0.000936711
0.000899657
0.000865637
0.000834364
0.000805579
0.000779051
0.00075457
0.000731948
0.000711018
0.000691627
0.000673637
0.000656926
0.000641381
0.000626903
0.000613399
0.000600788
0.000588996
0.000577955
0.000567604
0.000557887
0.000548755
0.000540161
0.000532064
0.000524426
0.000517213
0.000510392
0.000503936
0.000497817
0.000492011
0.000486497
0.000481254
0.000476264
0.000471508
0.000466973
0.000462642
0.000458503
0.000454543
0.000450751
0.000447115
0.000443628
0.000440278
0.000437058
0.00043396
0.000430976
0.000428101
0.000425326
0.000422648
0.000420059
0.000417555
0.000415131
0.000412783
0.000410507
0.000408298
0.000406153
0.000404069
0.000402042
0.00040007
0.00039815
0.00039628
0.000394456
0.000392679
0.000390944
0.000389252
0.0003876
0.000385988
0.000384414
0.000382878
0.000381379
0.000379918
0.000378493
0.000377106
0.000375758
0.000374448
0.000373179
0.000371952
0.00037077
0.000369634
0.000368547
0.000367513
0.000366536
0.000365619
0.000364768
0.000363988
0.000363283
0.000362662
0.000362129
0.000361693
0.000361359
0.000361134
0.000361023
0.000361033
0.000361162
0.000361411
0.000361768
0.000362215
0.000362719
0.000363225
0.000363654
0.000363892
0.000977119
0.000936711
0.000899657
0.000865637
0.000834364
0.000805579
0.000779051
0.00075457
0.000731949
0.000711019
0.000691627
0.000673638
0.000656927
0.000641382
0.000626904
0.0006134
0.00060079
0.000588998
0.000577957
0.000567606
0.000557889
0.000548757
0.000540164
0.000532067
0.000524429
0.000517216
0.000510395
0.000503939
0.00049782
0.000492015
0.000486501
0.000481259
0.000476268
0.000471514
0.000466978
0.000462648
0.000458509
0.00045455
0.000450758
0.000447123
0.000443635
0.000440286
0.000437067
0.000433969
0.000430986
0.000428111
0.000425337
0.000422659
0.00042007
0.000417567
0.000415144
0.000412797
0.000410521
0.000408312
0.000406168
0.000404084
0.000402058
0.000400087
0.000398168
0.000396298
0.000394475
0.000392698
0.000390965
0.000389273
0.000387622
0.00038601
0.000384437
0.000382902
0.000381404
0.000379942
0.000378519
0.000377132
0.000375784
0.000374475
0.000373207
0.00037198
0.000370798
0.000369662
0.000368575
0.000367541
0.000366563
0.000365646
0.000364794
0.000364013
0.000363308
0.000362685
0.000362152
0.000361713
0.000361377
0.00036115
0.000361038
0.000361044
0.000361172
0.000361417
0.000361772
0.000362217
0.000362718
0.000363222
0.000363649
0.000363887
0.000977119
0.000936711
0.000899657
0.000865638
0.000834364
0.00080558
0.000779051
0.00075457
0.000731949
0.000711019
0.000691628
0.000673639
0.000656927
0.000641383
0.000626904
0.000613401
0.000600791
0.000588999
0.000577958
0.000567607
0.000557891
0.000548759
0.000540166
0.000532069
0.000524432
0.000517219
0.000510399
0.000503943
0.000497824
0.000492019
0.000486506
0.000481263
0.000476273
0.000471519
0.000466984
0.000462654
0.000458516
0.000454556
0.000450765
0.000447131
0.000443644
0.000440295
0.000437076
0.000433978
0.000430996
0.000428121
0.000425348
0.00042267
0.000420082
0.00041758
0.000415157
0.00041281
0.000410535
0.000408327
0.000406183
0.0004041
0.000402075
0.000400104
0.000398186
0.000396316
0.000394495
0.000392718
0.000390985
0.000389294
0.000387644
0.000386033
0.000384461
0.000382926
0.000381428
0.000379968
0.000378545
0.000377159
0.000375811
0.000374503
0.000373234
0.000372008
0.000370826
0.00036969
0.000368603
0.000367569
0.000366591
0.000365674
0.000364822
0.00036404
0.000363334
0.00036271
0.000362174
0.000361734
0.000361396
0.000361167
0.000361052
0.000361057
0.000361181
0.000361424
0.000361776
0.000362218
0.000362717
0.000363219
0.000363645
0.000363882
0.000977119
0.000936711
0.000899657
0.000865638
0.000834365
0.00080558
0.000779051
0.00075457
0.000731949
0.00071102
0.000691628
0.000673639
0.000656928
0.000641384
0.000626905
0.000613402
0.000600792
0.000589
0.00057796
0.000567609
0.000557893
0.000548761
0.000540168
0.000532072
0.000524435
0.000517222
0.000510402
0.000503946
0.000497828
0.000492023
0.00048651
0.000481268
0.000476279
0.000471524
0.00046699
0.00046266
0.000458522
0.000454563
0.000450772
0.000447138
0.000443652
0.000440303
0.000437085
0.000433988
0.000431006
0.000428132
0.000425359
0.000422682
0.000420094
0.000417592
0.00041517
0.000412824
0.000410549
0.000408342
0.000406199
0.000404117
0.000402092
0.000400122
0.000398204
0.000396335
0.000394514
0.000392739
0.000391006
0.000389316
0.000387667
0.000386056
0.000384484
0.00038295
0.000381453
0.000379994
0.000378571
0.000377186
0.000375839
0.000374531
0.000373263
0.000372037
0.000370855
0.000369719
0.000368632
0.000367598
0.00036662
0.000365702
0.000364849
0.000364066
0.000363359
0.000362734
0.000362197
0.000361756
0.000361416
0.000361184
0.000361067
0.000361069
0.000361191
0.000361431
0.00036178
0.00036222
0.000362716
0.000363217
0.00036364
0.000363877
0.000977119
0.000936711
0.000899657
0.000865638
0.000834365
0.00080558
0.000779051
0.000754571
0.00073195
0.00071102
0.000691629
0.00067364
0.000656929
0.000641385
0.000626906
0.000613403
0.000600793
0.000589002
0.000577961
0.000567611
0.000557895
0.000548763
0.000540171
0.000532075
0.000524437
0.000517225
0.000510405
0.00050395
0.000497832
0.000492027
0.000486515
0.000481273
0.000476284
0.00047153
0.000466995
0.000462666
0.000458529
0.00045457
0.000450779
0.000447146
0.00044366
0.000440312
0.000437094
0.000433998
0.000431016
0.000428142
0.00042537
0.000422693
0.000420107
0.000417605
0.000415184
0.000412838
0.000410564
0.000408357
0.000406215
0.000404133
0.000402109
0.00040014
0.000398222
0.000396355
0.000394534
0.000392759
0.000391028
0.000389338
0.000387689
0.00038608
0.000384509
0.000382975
0.000381479
0.00038002
0.000378598
0.000377213
0.000375867
0.000374559
0.000373291
0.000372066
0.000370884
0.000369748
0.000368662
0.000367627
0.000366649
0.000365731
0.000364877
0.000364093
0.000363385
0.000362759
0.000362221
0.000361777
0.000361436
0.000361202
0.000361083
0.000361082
0.000361201
0.000361438
0.000361785
0.000362221
0.000362715
0.000363214
0.000363636
0.000363872
0.000977119
0.000936711
0.000899657
0.000865638
0.000834365
0.00080558
0.000779052
0.000754571
0.00073195
0.00071102
0.000691629
0.00067364
0.000656929
0.000641385
0.000626907
0.000613404
0.000600794
0.000589003
0.000577963
0.000567612
0.000557897
0.000548766
0.000540173
0.000532077
0.00052444
0.000517228
0.000510409
0.000503953
0.000497836
0.000492032
0.000486519
0.000481278
0.000476289
0.000471535
0.000467001
0.000462672
0.000458535
0.000454577
0.000450787
0.000447154
0.000443668
0.000440321
0.000437103
0.000434007
0.000431026
0.000428153
0.000425381
0.000422705
0.000420119
0.000417618
0.000415197
0.000412852
0.000410578
0.000408372
0.000406231
0.00040415
0.000402126
0.000400158
0.000398241
0.000396374
0.000394554
0.00039278
0.000391049
0.00038936
0.000387712
0.000386103
0.000384533
0.000383
0.000381505
0.000380046
0.000378625
0.000377241
0.000375895
0.000374587
0.00037332
0.000372095
0.000370913
0.000369778
0.000368691
0.000367657
0.000366678
0.000365759
0.000364905
0.000364121
0.000363412
0.000362784
0.000362244
0.000361799
0.000361456
0.00036122
0.000361098
0.000361095
0.000361211
0.000361446
0.000361789
0.000362223
0.000362714
0.000363211
0.000363632
0.000363867
0.000977119
0.000936711
0.000899657
0.000865638
0.000834365
0.00080558
0.000779052
0.000754571
0.00073195
0.000711021
0.00069163
0.000673641
0.00065693
0.000641386
0.000626908
0.000613405
0.000600796
0.000589004
0.000577964
0.000567614
0.000557899
0.000548768
0.000540175
0.00053208
0.000524443
0.000517231
0.000510412
0.000503957
0.000497839
0.000492036
0.000486523
0.000481282
0.000476294
0.000471541
0.000467007
0.000462679
0.000458542
0.000454584
0.000450794
0.000447162
0.000443676
0.000440329
0.000437112
0.000434017
0.000431036
0.000428163
0.000425392
0.000422717
0.000420131
0.000417631
0.00041521
0.000412866
0.000410593
0.000408388
0.000406247
0.000404166
0.000402144
0.000400176
0.00039826
0.000396393
0.000394574
0.000392801
0.000391071
0.000389383
0.000387735
0.000386127
0.000384557
0.000383025
0.00038153
0.000380073
0.000378652
0.000377268
0.000375923
0.000374616
0.000373349
0.000372124
0.000370943
0.000369808
0.000368721
0.000367686
0.000366707
0.000365788
0.000364933
0.000364148
0.000363438
0.000362809
0.000362268
0.000361821
0.000361476
0.000361238
0.000361114
0.000361107
0.000361221
0.000361453
0.000361794
0.000362225
0.000362714
0.000363208
0.000363627
0.000363862
0.000977119
0.000936711
0.000899658
0.000865638
0.000834365
0.00080558
0.000779052
0.000754571
0.000731951
0.000711021
0.00069163
0.000673641
0.000656931
0.000641387
0.000626909
0.000613406
0.000600797
0.000589006
0.000577966
0.000567616
0.000557901
0.00054877
0.000540177
0.000532082
0.000524446
0.000517234
0.000510415
0.00050396
0.000497843
0.00049204
0.000486528
0.000481287
0.000476299
0.000471546
0.000467013
0.000462685
0.000458548
0.000454591
0.000450802
0.000447169
0.000443684
0.000440338
0.000437121
0.000434026
0.000431046
0.000428174
0.000425403
0.000422728
0.000420143
0.000417643
0.000415224
0.00041288
0.000410608
0.000408403
0.000406263
0.000404183
0.000402161
0.000400193
0.000398278
0.000396413
0.000394594
0.000392822
0.000391092
0.000389405
0.000387758
0.000386151
0.000384582
0.00038305
0.000381556
0.000380099
0.000378679
0.000377296
0.000375951
0.000374645
0.000373378
0.000372154
0.000370973
0.000369837
0.000368751
0.000367716
0.000366737
0.000365817
0.000364962
0.000364176
0.000363465
0.000362835
0.000362292
0.000361843
0.000361496
0.000361256
0.000361129
0.00036112
0.000361232
0.00036146
0.000361798
0.000362227
0.000362713
0.000363205
0.000363623
0.000363857
0.000977119
0.000936711
0.000899658
0.000865638
0.000834365
0.00080558
0.000779052
0.000754572
0.000731951
0.000711021
0.000691631
0.000673642
0.000656931
0.000641388
0.00062691
0.000613407
0.000600798
0.000589007
0.000577967
0.000567617
0.000557902
0.000548772
0.00054018
0.000532085
0.000524448
0.000517237
0.000510418
0.000503964
0.000497847
0.000492044
0.000486532
0.000481292
0.000476304
0.000471551
0.000467018
0.000462691
0.000458555
0.000454598
0.000450809
0.000447177
0.000443693
0.000440346
0.00043713
0.000434036
0.000431056
0.000428185
0.000425414
0.00042274
0.000420156
0.000417656
0.000415237
0.000412894
0.000410622
0.000408418
0.000406278
0.000404199
0.000402178
0.000400211
0.000398297
0.000396432
0.000394614
0.000392842
0.000391114
0.000389427
0.000387781