/*--------------------------------*- C++ -*----------------------------------*\
  =========                 |
  \\      /  F ield         | OpenFOAM: The Open Source CFD Toolbox
   \\    /   O peration     | Website:  https://openfoam.org
    \\  /    A nd           | Version:  11
     \\/     M anipulation  |
\*---------------------------------------------------------------------------*/
FoamFile
{
    format      ascii;
    class       volScalarField;
    location    "786";
    object      nut;
}
// * * * * * * * * * * * * * * * * * * * * * * * * * * * * * * * * * * * * * //

dimensions      [0 2 -1 0 0 0 0];

internalField   nonuniform List<scalar> 
10000
(
0.000977119
0.000936711
0.000899657
0.000865637
0.000834364
0.000805578
0.00077905
0.000754568
0.000731947
0.000711016
0.000691625
0.000673635
0.000656923
0.000641378
0.000626898
0.000613394
0.000600783
0.00058899
0.000577949
0.000567597
0.00055788
0.000548747
0.000540152
0.000532055
0.000524416
0.000517202
0.00051038
0.000503923
0.000497803
0.000491997
0.000486482
0.000481238
0.000476247
0.000471491
0.000466954
0.000462622
0.000458482
0.000454521
0.000450728
0.000447091
0.000443602
0.000440251
0.00043703
0.00043393
0.000430945
0.000428068
0.000425292
0.000422611
0.00042002
0.000417514
0.000415088
0.000412737
0.000410457
0.000408245
0.000406097
0.000404008
0.000401977
0.0004
0.000398074
0.000396198
0.000394367
0.000392582
0.000390839
0.000389136
0.000387473
0.000385848
0.00038426
0.000382708
0.000381191
0.000379709
0.000378262
0.000376849
0.000375471
0.000374129
0.000372824
0.000371556
0.000370328
0.00036914
0.000367996
0.000366899
0.00036585
0.000364855
0.000363916
0.00036304
0.00036223
0.000361492
0.000360833
0.000360259
0.000359778
0.000359395
0.000359118
0.000358953
0.000358904
0.000358972
0.000359152
0.000359432
0.000359786
0.000360168
0.000360509
0.000360706
0.000977119
0.000936711
0.000899657
0.000865637
0.000834364
0.000805578
0.00077905
0.000754568
0.000731947
0.000711016
0.000691625
0.000673635
0.000656923
0.000641378
0.000626899
0.000613395
0.000600783
0.000588991
0.000577949
0.000567597
0.00055788
0.000548747
0.000540153
0.000532055
0.000524416
0.000517202
0.000510381
0.000503923
0.000497804
0.000491997
0.000486482
0.000481238
0.000476247
0.000471491
0.000466954
0.000462623
0.000458483
0.000454522
0.000450728
0.000447092
0.000443603
0.000440252
0.000437031
0.000433931
0.000430946
0.000428069
0.000425293
0.000422612
0.000420021
0.000417515
0.000415089
0.000412738
0.000410459
0.000408246
0.000406098
0.00040401
0.000401979
0.000400002
0.000398076
0.000396199
0.000394369
0.000392583
0.00039084
0.000389138
0.000387475
0.00038585
0.000384262
0.00038271
0.000381193
0.000379711
0.000378264
0.000376851
0.000375474
0.000374132
0.000372826
0.000371559
0.00037033
0.000369143
0.000367999
0.000366901
0.000365853
0.000364857
0.000363919
0.000363042
0.000362232
0.000361495
0.000360836
0.000360262
0.00035978
0.000359397
0.000359121
0.000358955
0.000358906
0.000358974
0.000359154
0.000359434
0.000359787
0.000360169
0.00036051
0.000360707
0.000977119
0.000936711
0.000899657
0.000865637
0.000834364
0.000805578
0.00077905
0.000754568
0.000731947
0.000711016
0.000691625
0.000673635
0.000656923
0.000641378
0.000626899
0.000613395
0.000600784
0.000588991
0.000577949
0.000567597
0.00055788
0.000548747
0.000540153
0.000532056
0.000524417
0.000517203
0.000510381
0.000503924
0.000497804
0.000491998
0.000486483
0.000481239
0.000476248
0.000471492
0.000466955
0.000462624
0.000458484
0.000454523
0.000450729
0.000447093
0.000443604
0.000440253
0.000437032
0.000433933
0.000430948
0.00042807
0.000425294
0.000422614
0.000420023
0.000417517
0.000415091
0.00041274
0.000410461
0.000408249
0.000406101
0.000404012
0.000401981
0.000400005
0.000398079
0.000396202
0.000394372
0.000392587
0.000390844
0.000389142
0.000387479
0.000385854
0.000384266
0.000382714
0.000381197
0.000379716
0.000378269
0.000376856
0.000375479
0.000374137
0.000372831
0.000371564
0.000370335
0.000369148
0.000368004
0.000366907
0.000365858
0.000364863
0.000363924
0.000363048
0.000362238
0.0003615
0.000360841
0.000360267
0.000359785
0.000359402
0.000359125
0.000358959
0.00035891
0.000358977
0.000359157
0.000359436
0.000359789
0.000360171
0.000360512
0.000360708
0.000977119
0.000936711
0.000899657
0.000865637
0.000834364
0.000805579
0.00077905
0.000754568
0.000731947
0.000711017
0.000691625
0.000673635
0.000656923
0.000641378
0.000626899
0.000613395
0.000600784
0.000588991
0.00057795
0.000567598
0.000557881
0.000548748
0.000540154
0.000532056
0.000524418
0.000517203
0.000510382
0.000503925
0.000497805
0.000491999
0.000486484
0.00048124
0.000476249
0.000471493
0.000466957
0.000462625
0.000458485
0.000454524
0.000450731
0.000447095
0.000443606
0.000440255
0.000437034
0.000433935
0.00043095
0.000428073
0.000425297
0.000422617
0.000420026
0.00041752
0.000415094
0.000412744
0.000410465
0.000408253
0.000406104
0.000404017
0.000401986
0.000400009
0.000398084
0.000396207
0.000394377
0.000392592
0.000390849
0.000389147
0.000387485
0.00038586
0.000384272
0.00038272
0.000381204
0.000379722
0.000378275
0.000376863
0.000375486
0.000374144
0.000372839
0.000371571
0.000370343
0.000369156
0.000368012
0.000366915
0.000365866
0.000364871
0.000363932
0.000363056
0.000362245
0.000361508
0.000360848
0.000360274
0.000359792
0.000359408
0.000359131
0.000358965
0.000358915
0.000358982
0.000359161
0.00035944
0.000359793
0.000360174
0.000360515
0.000360711
0.000977119
0.000936711
0.000899657
0.000865637
0.000834364
0.000805579
0.00077905
0.000754569
0.000731947
0.000711017
0.000691625
0.000673635
0.000656923
0.000641378
0.000626899
0.000613395
0.000600784
0.000588992
0.00057795
0.000567599
0.000557882
0.000548749
0.000540154
0.000532057
0.000524419
0.000517205
0.000510383
0.000503926
0.000497806
0.000492
0.000486486
0.000481242
0.000476251
0.000471495
0.000466959
0.000462627
0.000458487
0.000454527
0.000450734
0.000447098
0.000443609
0.000440258
0.000437037
0.000433938
0.000430953
0.000428076
0.000425301
0.00042262
0.00042003
0.000417524
0.000415099
0.000412748
0.000410469
0.000408258
0.00040611
0.000404022
0.000401991
0.000400015
0.00039809
0.000396213
0.000394384
0.000392599
0.000390856
0.000389154
0.000387492
0.000385868
0.00038428
0.000382729
0.000381212
0.000379731
0.000378284
0.000376872
0.000375495
0.000374154
0.000372849
0.000371581
0.000370353
0.000369166
0.000368022
0.000366925
0.000365877
0.000364881
0.000363943
0.000363066
0.000362256
0.000361518
0.000360858
0.000360283
0.000359801
0.000359417
0.000359139
0.000358973
0.000358922
0.000358988
0.000359167
0.000359445
0.000359797
0.000360178
0.000360518
0.000360714
0.000977119
0.000936711
0.000899657
0.000865637
0.000834364
0.000805579
0.00077905
0.000754569
0.000731947
0.000711017
0.000691625
0.000673635
0.000656924
0.000641379
0.0006269
0.000613396
0.000600785
0.000588992
0.000577951
0.000567599
0.000557882
0.00054875
0.000540155
0.000532058
0.00052442
0.000517206
0.000510385
0.000503927
0.000497808
0.000492002
0.000486487
0.000481244
0.000476253
0.000471497
0.000466961
0.00046263
0.00045849
0.000454529
0.000450737
0.000447101
0.000443612
0.000440262
0.000437041
0.000433942
0.000430957
0.000428081
0.000425305
0.000422625
0.000420035
0.000417529
0.000415104
0.000412754
0.000410475
0.000408264
0.000406116
0.000404028
0.000401998
0.000400022
0.000398097
0.000396221
0.000394392
0.000392607
0.000390865
0.000389163
0.000387501
0.000385877
0.00038429
0.000382739
0.000381223
0.000379742
0.000378295
0.000376884
0.000375507
0.000374165
0.000372861
0.000371594
0.000370366
0.000369179
0.000368035
0.000366938
0.00036589
0.000364894
0.000363956
0.000363079
0.000362268
0.00036153
0.00036087
0.000360295
0.000359812
0.000359428
0.000359149
0.000358982
0.000358931
0.000358996
0.000359174
0.000359452
0.000359803
0.000360183
0.000360523
0.000360719
0.000977119
0.000936711
0.000899657
0.000865637
0.000834364
0.000805579
0.00077905
0.000754569
0.000731948
0.000711017
0.000691626
0.000673636
0.000656924
0.000641379
0.0006269
0.000613397
0.000600786
0.000588993
0.000577952
0.0005676
0.000557883
0.000548751
0.000540157
0.000532059
0.000524421
0.000517207
0.000510386
0.000503929
0.00049781
0.000492004
0.00048649
0.000481246
0.000476255
0.0004715
0.000466964
0.000462633
0.000458493
0.000454533
0.00045074
0.000447104
0.000443616
0.000440266
0.000437045
0.000433946
0.000430962
0.000428086
0.00042531
0.000422631
0.000420041
0.000417535
0.00041511
0.000412761
0.000410482
0.000408271
0.000406123
0.000404036
0.000402006
0.00040003
0.000398106
0.00039623
0.000394401
0.000392617
0.000390875
0.000389174
0.000387512
0.000385888
0.000384301
0.000382751
0.000381235
0.000379754
0.000378308
0.000376897
0.00037552
0.000374179
0.000372875
0.000371608
0.00037038
0.000369194
0.00036805
0.000366953
0.000365905
0.000364909
0.000363971
0.000363094
0.000362283
0.000361545
0.000360884
0.000360309
0.000359825
0.00035944
0.000359161
0.000358993
0.000358941
0.000359006
0.000359183
0.000359459
0.000359809
0.000360189
0.000360528
0.000360724
0.000977119
0.000936711
0.000899657
0.000865637
0.000834364
0.000805579
0.00077905
0.000754569
0.000731948
0.000711017
0.000691626
0.000673636
0.000656925
0.00064138
0.000626901
0.000613397
0.000600786
0.000588994
0.000577953
0.000567601
0.000557884
0.000548752
0.000540158
0.000532061
0.000524423
0.000517209
0.000510388
0.000503931
0.000497812
0.000492006
0.000486492
0.000481249
0.000476258
0.000471503
0.000466967
0.000462636
0.000458497
0.000454536
0.000450744
0.000447109
0.00044362
0.00044027
0.00043705
0.000433952
0.000430968
0.000428091
0.000425316
0.000422637
0.000420047
0.000417542
0.000415117
0.000412768
0.00041049
0.000408279
0.000406132
0.000404045
0.000402015
0.00040004
0.000398116
0.000396241
0.000394412
0.000392628
0.000390886
0.000389186
0.000387525
0.000385901
0.000384315
0.000382764
0.000381249
0.000379769
0.000378323
0.000376912
0.000375536
0.000374195
0.000372891
0.000371625
0.000370397
0.000369211
0.000368068
0.00036697
0.000365922
0.000364927
0.000363988
0.000363111
0.0003623
0.000361561
0.000360901
0.000360325
0.00035984
0.000359455
0.000359175
0.000359006
0.000358953
0.000359016
0.000359192
0.000359468
0.000359817
0.000360196
0.000360534
0.00036073
0.000977119
0.000936711
0.000899657
0.000865637
0.000834364
0.000805579
0.00077905
0.000754569
0.000731948
0.000711018
0.000691626
0.000673637
0.000656925
0.00064138
0.000626902
0.000613398
0.000600787
0.000588995
0.000577954
0.000567602
0.000557886
0.000548753
0.000540159
0.000532062
0.000524424
0.000517211
0.00051039
0.000503933
0.000497814
0.000492009
0.000486495
0.000481252
0.000476261
0.000471506
0.00046697
0.00046264
0.000458501
0.000454541
0.000450748
0.000447113
0.000443625
0.000440276
0.000437056
0.000433957
0.000430974
0.000428098
0.000425323
0.000422644
0.000420055
0.00041755
0.000415126
0.000412776
0.000410499
0.000408288
0.000406141
0.000404055
0.000402026
0.000400051
0.000398127
0.000396252
0.000394424
0.000392641
0.0003909
0.000389199
0.000387538
0.000385916
0.00038433
0.00038278
0.000381265
0.000379785
0.00037834
0.000376929
0.000375554
0.000374213
0.00037291
0.000371643
0.000370416
0.00036923
0.000368087
0.00036699
0.000365942
0.000364946
0.000364008
0.00036313
0.000362319
0.00036158
0.000360919
0.000360342
0.000359857
0.000359471
0.00035919
0.00035902
0.000358966
0.000359028
0.000359203
0.000359477
0.000359825
0.000360203
0.000360541
0.000360736
0.000977119
0.000936711
0.000899657
0.000865637
0.000834364
0.000805579
0.000779051
0.000754569
0.000731948
0.000711018
0.000691627
0.000673637
0.000656926
0.000641381
0.000626902
0.000613399
0.000600788
0.000588996
0.000577955
0.000567603
0.000557887
0.000548755
0.000540161
0.000532064
0.000524426
0.000517213
0.000510392
0.000503936
0.000497817
0.000492012
0.000486498
0.000481255
0.000476265
0.00047151
0.000466974
0.000462644
0.000458505
0.000454545
0.000450753
0.000447118
0.000443631
0.000440281
0.000437062
0.000433964
0.00043098
0.000428105
0.00042533
0.000422652
0.000420063
0.000417559
0.000415134
0.000412786
0.000410508
0.000408298
0.000406152
0.000404066
0.000402037
0.000400063
0.000398139
0.000396265
0.000394437
0.000392654
0.000390914
0.000389214
0.000387554
0.000385931
0.000384346
0.000382797
0.000381282
0.000379803
0.000378358
0.000376948
0.000375573
0.000374233
0.00037293
0.000371664
0.000370437
0.000369251
0.000368108
0.000367011
0.000365963
0.000364968
0.000364029
0.000363151
0.00036234
0.0003616
0.000360939
0.000360362
0.000359876
0.000359489
0.000359206
0.000359036
0.00035898
0.000359041
0.000359215
0.000359488
0.000359835
0.000360211
0.000360548
0.000360743
0.000977119
0.000936711
0.000899657
0.000865637
0.000834364
0.000805579
0.000779051
0.00075457
0.000731949
0.000711018
0.000691627
0.000673638
0.000656926
0.000641382
0.000626903
0.000613399
0.000600789
0.000588997
0.000577956
0.000567605
0.000557888
0.000548756
0.000540163
0.000532066
0.000524428
0.000517215
0.000510395
0.000503938
0.00049782
0.000492015
0.000486501
0.000481258
0.000476268
0.000471514
0.000466978
0.000462648
0.00045851
0.00045455
0.000450759
0.000447124
0.000443637
0.000440288
0.000437068
0.000433971
0.000430988
0.000428112
0.000425338
0.00042266
0.000420071
0.000417568
0.000415144
0.000412796
0.000410519
0.000408309
0.000406163
0.000404078
0.00040205
0.000400075
0.000398153
0.000396279
0.000394452
0.000392669
0.000390929
0.00038923
0.00038757
0.000385949
0.000384364
0.000382815
0.000381301
0.000379822
0.000378378
0.000376968
0.000375594
0.000374254
0.000372951
0.000371686
0.000370459
0.000369274
0.000368131
0.000367035
0.000365987
0.000364991
0.000364052
0.000363175
0.000362363
0.000361623
0.00036096
0.000360383
0.000359896
0.000359508
0.000359225
0.000359052
0.000358996
0.000359055
0.000359227
0.000359499
0.000359844
0.00036022
0.000360556
0.000360751
0.000977119
0.000936711
0.000899657
0.000865637
0.000834364
0.000805579
0.000779051
0.00075457
0.000731949
0.000711019
0.000691627
0.000673638
0.000656927
0.000641382
0.000626904
0.0006134
0.00060079
0.000588998
0.000577957
0.000567606
0.00055789
0.000548758
0.000540165
0.000532068
0.000524431
0.000517217
0.000510397
0.000503941
0.000497823
0.000492018
0.000486504
0.000481262
0.000476272
0.000471518
0.000466983
0.000462653
0.000458515
0.000454556
0.000450764
0.00044713
0.000443643
0.000440294
0.000437075
0.000433978
0.000430995
0.000428121
0.000425347
0.000422669
0.000420081
0.000417578
0.000415154
0.000412807
0.00041053
0.000408321
0.000406176
0.000404091
0.000402063
0.000400089
0.000398167
0.000396294
0.000394467
0.000392685
0.000390946
0.000389247
0.000387588
0.000385967
0.000384383
0.000382834
0.000381321
0.000379843
0.000378399
0.00037699
0.000375616
0.000374277
0.000372975
0.00037171
0.000370484
0.000369298
0.000368156
0.000367059
0.000366012
0.000365016
0.000364077
0.000363199
0.000362387
0.000361647
0.000360984
0.000360405
0.000359918
0.000359528
0.000359244
0.00035907
0.000359012
0.00035907
0.000359241
0.000359511
0.000359855
0.00036023
0.000360565
0.000360759
0.000977119
0.000936711
0.000899657
0.000865638
0.000834364
0.00080558
0.000779051
0.00075457
0.000731949
0.000711019
0.000691628
0.000673639
0.000656927
0.000641383
0.000626904
0.000613401
0.000600791
0.000588999
0.000577958
0.000567608
0.000557891
0.00054876
0.000540166
0.00053207
0.000524433
0.00051722
0.0005104
0.000503944
0.000497826
0.000492021
0.000486508
0.000481266
0.000476276
0.000471522
0.000466988
0.000462658
0.00045852
0.000454561
0.00045077
0.000447136
0.00044365
0.000440301
0.000437083
0.000433986
0.000431004
0.000428129
0.000425356
0.000422678
0.000420091
0.000417588
0.000415165
0.000412818
0.000410542
0.000408333
0.000406189
0.000404104
0.000402077
0.000400104
0.000398182
0.00039631
0.000394484
0.000392703
0.000390964
0.000389266
0.000387607
0.000385987
0.000384403
0.000382855
0.000381343
0.000379865
0.000378422
0.000377014
0.00037564
0.000374302
0.000373
0.000371735
0.000370509
0.000369324
0.000368182
0.000367086
0.000366038
0.000365043
0.000364104
0.000363225
0.000362413
0.000361672
0.000361008
0.000360429
0.00035994
0.00035955
0.000359264
0.00035909
0.00035903
0.000359086
0.000359255
0.000359524
0.000359866
0.00036024
0.000360574
0.000360767
0.000977119
0.000936711
0.000899657
0.000865638
0.000834364
0.00080558
0.000779051
0.00075457
0.000731949
0.000711019
0.000691628
0.000673639
0.000656928
0.000641384
0.000626905
0.000613402
0.000600792
0.000589
0.00057796
0.000567609
0.000557893
0.000548761
0.000540168
0.000532072
0.000524435
0.000517223
0.000510403
0.000503947
0.000497829
0.000492025
0.000486512
0.00048127
0.000476281
0.000471527
0.000466993
0.000462663
0.000458526
0.000454567
0.000450776
0.000447143
0.000443657
0.000440309
0.00043709
0.000433994
0.000431012
0.000428138
0.000425366
0.000422688
0.000420101
0.000417599
0.000415177
0.00041283
0.000410555
0.000408347
0.000406202
0.000404118
0.000402092
0.000400119
0.000398198
0.000396327
0.000394501
0.00039272
0.000390982
0.000389285
0.000387627
0.000386007
0.000384424
0.000382877
0.000381365
0.000379888
0.000378446
0.000377038
0.000375665
0.000374327
0.000373026
0.000371762
0.000370536
0.000369352
0.00036821
0.000367114
0.000366066
0.000365071
0.000364131
0.000363253
0.00036244
0.000361698
0.000361034
0.000360454
0.000359965
0.000359573
0.000359286
0.00035911
0.000359048
0.000359103
0.00035927
0.000359537
0.000359878
0.00036025
0.000360583
0.000360776
0.000977119
0.000936711
0.000899657
0.000865638
0.000834365
0.00080558
0.000779051
0.000754571
0.00073195
0.00071102
0.000691629
0.00067364
0.000656929
0.000641384
0.000626906
0.000613403
0.000600793
0.000589001
0.000577961
0.000567611
0.000557895
0.000548763
0.00054017
0.000532075
0.000524438
0.000517225
0.000510406
0.00050395
0.000497832
0.000492028
0.000486516
0.000481274
0.000476285
0.000471532
0.000466998
0.000462669
0.000458531
0.000454573
0.000450783
0.00044715
0.000443664
0.000440316
0.000437099
0.000434003
0.000431021
0.000428148
0.000425376
0.000422699
0.000420112
0.00041761
0.000415189
0.000412843
0.000410568
0.00040836
0.000406217
0.000404133
0.000402107
0.000400135
0.000398215
0.000396344
0.000394519
0.000392739
0.000391002
0.000389305
0.000387648
0.000386029
0.000384446
0.0003829
0.000381389
0.000379913
0.000378471
0.000377064
0.000375691
0.000374354
0.000373053
0.000371789
0.000370564
0.00036938
0.000368239
0.000367143
0.000366095
0.0003651
0.00036416
0.000363282
0.000362468
0.000361726
0.000361061
0.00036048
0.00035999
0.000359597
0.000359308
0.000359131
0.000359068
0.000359121
0.000359286
0.000359551
0.00035989
0.000360261
0.000360593
0.000360786
0.000977119
0.000936711
0.000899657
0.000865638
0.000834365
0.00080558
0.000779052
0.000754571
0.00073195
0.00071102
0.000691629
0.00067364
0.000656929
0.000641385
0.000626907
0.000613404
0.000600794
0.000589003
0.000577962
0.000567612
0.000557897
0.000548765
0.000540173
0.000532077
0.00052444
0.000517228
0.000510409
0.000503953
0.000497836
0.000492032
0.00048652
0.000481279
0.00047629
0.000471537
0.000467003
0.000462674
0.000458537
0.00045458
0.00045079
0.000447157
0.000443672
0.000440324
0.000437107
0.000434012
0.000431031
0.000428158
0.000425386
0.00042271
0.000420124
0.000417622
0.000415201
0.000412855
0.000410581
0.000408374
0.000406231
0.000404149
0.000402123
0.000400152
0.000398233
0.000396362
0.000394538
0.000392759
0.000391022
0.000389326
0.00038767
0.000386051
0.00038447
0.000382924
0.000381414
0.000379938
0.000378497
0.00037709
0.000375718
0.000374382
0.000373081
0.000371818
0.000370594
0.00036941
0.000368269
0.000367173
0.000366125
0.00036513
0.000364191
0.000363311
0.000362498
0.000361755
0.000361089
0.000360507
0.000360016
0.000359622
0.000359332
0.000359152
0.000359087
0.000359139
0.000359302
0.000359565
0.000359903
0.000360272
0.000360603
0.000360795
0.000977119
0.000936711
0.000899657
0.000865638
0.000834365
0.00080558
0.000779052
0.000754571
0.00073195
0.000711021
0.00069163
0.000673641
0.00065693
0.000641386
0.000626908
0.000613405
0.000600795
0.000589004
0.000577964
0.000567614
0.000557898
0.000548767
0.000540175
0.000532079
0.000524443
0.000517231
0.000510412
0.000503957
0.00049784
0.000492036
0.000486524
0.000481283
0.000476295
0.000471542
0.000467008
0.00046268
0.000458544
0.000454586
0.000450797
0.000447164
0.000443679
0.000440333
0.000437116
0.000434021
0.00043104
0.000428168
0.000425396
0.000422721
0.000420135
0.000417635
0.000415214
0.000412869
0.000410595
0.000408389
0.000406247
0.000404165
0.00040214
0.000400169
0.000398251
0.000396381
0.000394557
0.000392779
0.000391043
0.000389348
0.000387692
0.000386074
0.000384493
0.000382948
0.000381439
0.000379964
0.000378523
0.000377117
0.000375746
0.00037441
0.00037311
0.000371848
0.000370624
0.00036944
0.000368299
0.000367204
0.000366157
0.000365161
0.000364222
0.000363342
0.000362528
0.000361785
0.000361118
0.000360535
0.000360043
0.000359647
0.000359356
0.000359175
0.000359108
0.000359157
0.000359319
0.00035958
0.000359916
0.000360284
0.000360614
0.000360805
0.000977119
0.000936711
0.000899657
0.000865638
0.000834365
0.00080558
0.000779052
0.000754571
0.000731951
0.000711021
0.00069163
0.000673641
0.00065693
0.000641386
0.000626909
0.000613406
0.000600796
0.000589005
0.000577965
0.000567615
0.0005579
0.000548769
0.000540177
0.000532082
0.000524445
0.000517234
0.000510415
0.00050396
0.000497843
0.00049204
0.000486528
0.000481288
0.0004763
0.000471547
0.000467014
0.000462686
0.00045855
0.000454593
0.000450804
0.000447172
0.000443687
0.000440341
0.000437125
0.00043403
0.00043105
0.000428178
0.000425407
0.000422732
0.000420147
0.000417647
0.000415227
0.000412883
0.00041061
0.000408404
0.000406262
0.000404181
0.000402157
0.000400187
0.000398269
0.0003964
0.000394577
0.000392799
0.000391064
0.00038937
0.000387715
0.000386098
0.000384518
0.000382973
0.000381465
0.00037999
0.000378551
0.000377145
0.000375775
0.00037444
0.00037314
0.000371878
0.000370655
0.000369471
0.000368331
0.000367236
0.000366189
0.000365193
0.000364253
0.000363374
0.000362559
0.000361815
0.000361148
0.000360564
0.00036007
0.000359673
0.00035938
0.000359197
0.000359129
0.000359176
0.000359336
0.000359595
0.000359929
0.000360295
0.000360624
0.000360815
0.000977119
0.000936711
0.000899658
0.000865638
0.000834365
0.00080558
0.000779052
0.000754572
0.000731951
0.000711021
0.000691631
0.000673642
0.000656931
0.000641387
0.00062691
0.000613407
0.000600797
0.000589006
0.000577967
0.000567617
0.000557902
0.000548771
0.000540179
0.000532084
0.000524448
0.000517236
0.000510418
0.000503964
0.000497847
0.000492044
0.000486532
0.000481292
0.000476304
0.000471552
0.00046702
0.000462692
0.000458556
0.0004546
0.000450811
0.00044718
0.000443695
0.00044035
0.000437134
0.000434039
0.00043106
0.000428188
0.000425418
0.000422744
0.000420159
0.00041766
0.00041524
0.000412897
0.000410624
0.000408419
0.000406278
0.000404198
0.000402174
0.000400205
0.000398288
0.000396419
0.000394597
0.00039282
0.000391086
0.000389392
0.000387738
0.000386122
0.000384542
0.000382999
0.000381491
0.000380018
0.000378579
0.000377174
0.000375804
0.000374469
0.000373171
0.000371909
0.000370686
0.000369503
0.000368363
0.000367268
0.000366221
0.000365226
0.000364286
0.000363406
0.000362591
0.000361846
0.000361178
0.000360593
0.000360098
0.0003597
0.000359405
0.000359221
0.000359151
0.000359196
0.000359353
0.000359611
0.000359943
0.000360307
0.000360635
0.000360826
0.000977119
0.000936711
0.000899658
0.000865638
0.000834365
0.000805581
0.000779052
0.000754572
0.000731951
0.000711022
0.000691631
0.000673642
0.000656932
0.000641388
0.00062691
0.000613408
0.000600799
0.000589008
0.000577968
0.000567619
0.000557904
0.000548773
0.000540181
0.000532086
0.000524451
0.000517239
0.000510421
0.000503967
0.000497851
0.000492048
0.000486537
0.000481297
0.000476309
0.000471558
0.000467025
0.000462698
0.000458563
0.000454607
0.000450818
0.000447187
0.000443704
0.000440358
0.000437143
0.000434049
0.00043107
0.000428199
0.00042543
0.000422756
0.000420172
0.000417673
0.000415254
0.000412911
0.000410639
0.000408435
0.000406294
0.000404214
0.000402192
0.000400223
0.000398307
0.000396439
0.000394618
0.000392842
0.000391108
0.000389415
0.000387762
0.000386146
0.000384568
0.000383025
0.000381518
0.000380045
0.000378607
0.000377203
0.000375834
0.0003745
0.000373202
0.000371941
0.000370718
0.000369536
0.000368396
0.000367301
0.000366254
0.000365259
0.000364319
0.000363438
0.000362623
0.000361878
0.000361209
0.000360623
0.000360127
0.000359727
0.000359431
0.000359244
0.000359172
0.000359216
0.000359371
0.000359626
0.000359957
0.000360319
0.000360646
0.000360836
0.000977119
0.000936711
0.000899658
0.000865638
0.000834365
0.000805581
0.000779052
0.000754572
0.000731951
0.000711022
0.000691631
0.000673643
0.000656932
0.000641389
0.000626911
0.000613409
0.0006008
0.000589009
0.000577969
0.00056762
0.000557905
0.000548775
0.000540184
0.000532089
0.000524453
0.000517242
0.000510424
0.00050397
0.000497854
0.000492052
0.000486541
0.000481302
0.000476314
0.000471563
0.000467031
0.000462704
0.000458569
0.000454614
0.000450826
0.000447195
0.000443712
0.000440367
0.000437152
0.000434059
0.00043108
0.00042821
0.000425441
0.000422767
0.000420184
0.000417686
0.000415268
0.000412925
0.000410654
0.00040845
0.000406311
0.000404231
0.000402209
0.000400242
0.000398326
0.000396459
0.000394639
0.000392863
0.00039113
0.000389438
0.000387785
0.000386171
0.000384593
0.000383051
0.000381545
0.000380073
0.000378635
0.000377232
0.000375864
0.000374531
0.000373233
0.000371973
0.00037075
0.000369569
0.000368429
0.000367334
0.000366288
0.000365292
0.000364352
0.000363471
0.000362655
0.00036191
0.00036124
0.000360653
0.000360155
0.000359754
0.000359457
0.000359268
0.000359194
0.000359236
0.000359389
0.000359642
0.000359971
0.000360332
0.000360657
0.000360846
0.000977119
0.000936711
0.000899658
0.000865638
0.000834365
0.000805581
0.000779053
0.000754572
0.000731952
0.000711022
0.000691632
0.000673643
0.000656933
0.000641389
0.000626912
0.00061341
0.000600801
0.00058901
0.000577971
0.000567622
0.000557907
0.000548777
0.000540186
0.000532091
0.000524456
0.000517245
0.000510427
0.000503974
0.000497858
0.000492056
0.000486545
0.000481306
0.00047632
0.000471568
0.000467037
0.00046271
0.000458576
0.00045462
0.000450833
0.000447203
0.00044372
0.000440376
0.000437161
0.000434069
0.000431091
0.000428221
0.000425452
0.000422779
0.000420197
0.000417699
0.000415281
0.000412939
0.000410669
0.000408466
0.000406327
0.000404248
0.000402227
0.00040026
0.000398345
0.000396479
0.000394659
0.000392885
0.000391153
0.000389461
0.000387809
0.000386196
0.000384619
0.000383078
0.000381572
0.000380101
0.000378664
0.000377262
0.000375894
0.000374561
0.000373264
0.000372005
0.000370783
0.000369601
0.000368462
0.000367368
0.000366321
0.000365326
0.000364385
0.000363504
0.000362688
0.000361942
0.000361271
0.000360683
0.000360184
0.000359782
0.000359482
0.000359292
0.000359216
0.000359256
0.000359407
0.000359658
0.000359984
0.000360344
0.000360668
0.000360857
0.000977119
0.000936711
0.000899658
0.000865638
0.000834365
0.000805581
0.000779053
0.000754572
0.000731952
0.000711023
0.000691632
0.000673644
0.000656934
0.00064139
0.000626913
0.000613411
0.000600802
0.000589011
0.000577972
0.000567623
0.000557909
0.000548779
0.000540188
0.000532094
0.000524459
0.000517248
0.000510431
0.000503977
0.000497862
0.00049206
0.00048655
0.000481311
0.000476325
0.000471574
0.000467043
0.000462717
0.000458582
0.000454627
0.00045084
0.000447211
0.000443728
0.000440384
0.00043717
0.000434078
0.000431101
0.000428231
0.000425464
0.000422791
0.000420209
0.000417712
0.000415295
0.000412954
0.000410684
0.000408482
0.000406343
0.000404266
0.000402245
0.000400279
0.000398364
0.000396499
0.00039468
0.000392906
0.000391175
0.000389485
0.000387834
0.000386221
0.000384644
0.000383104
0.000381599
0.000380129
0.000378693
0.000377291
0.000375924
0.000374592
0.000373296
0.000372037
0.000370816
0.000369634
0.000368496
0.000367401
0.000366355
0.000365359
0.000364419
0.000363538
0.000362721
0.000361974
0.000361302
0.000360713
0.000360213
0.000359809
0.000359508
0.000359317
0.000359239
0.000359276
0.000359425
0.000359674
0.000359998
0.000360356
0.000360679
0.000360868
0.000977119
0.000936711
0.000899658
0.000865638
0.000834365
0.000805581
0.000779053
0.000754573
0.000731952
0.000711023
0.000691633
0.000673644
0.000656934
0.000641391
0.000626914
0.000613412
0.000600803
0.000589013
0.000577974
0.000567625
0.000557911
0.000548781
0.00054019
0.000532096
0.000524461
0.000517251
0.000510434
0.000503981
0.000497865
0.000492064
0.000486554
0.000481315
0.000476329
0.000471579
0.000467048
0.000462723
0.000458589
0.000454634
0.000450848
0.000447218
0.000443737
0.000440393
0.00043718
0.000434088
0.000431111
0.000428242
0.000425475
0.000422803
0.000420222
0.000417725
0.000415309
0.000412968
0.000410699
0.000408497
0.00040636
0.000404283
0.000402263
0.000400297
0.000398384
0.000396519
0.000394701
0.000392928
0.000391197
0.000389508
0.000387858
0.000386245
0.00038467
0.000383131
0.000381627
0.000380157
0.000378722
0.000377321
0.000375955
0.000374623
0.000373328
0.000372069
0.000370848
0.000369667
0.000368529
0.000367435
0.000366388
0.000365393
0.000364452
0.000363571
0.000362754
0.000362006
0.000361334
0.000360743
0.000360242
0.000359837
0.000359534
0.000359341
0.000359261
0.000359296
0.000359443
0.00035969
0.000360012
0.000360368
0.00036069
0.000360878
0.000977119
0.000936711
0.000899658
0.000865638
0.000834366
0.000805581
0.000779053
0.000754573
0.000731953
0.000711023
0.000691633
0.000673645
0.000656935
0.000641391
0.000626914
0.000613413
0.000600804
0.000589014
0.000577975
0.000567626
0.000557912
0.000548783
0.000540192
0.000532098
0.000524464
0.000517254
0.000510437
0.000503984
0.000497869
0.000492068
0.000486558
0.00048132
0.000476334
0.000471584
0.000467054
0.000462729
0.000458595
0.000454641
0.000450855
0.000447226
0.000443745
0.000440402
0.000437189
0.000434098
0.000431121
0.000428253
0.000425486
0.000422815
0.000420234
0.000417738
0.000415322
0.000412982
0.000410714
0.000408513
0.000406376
0.0004043
0.000402281
0.000400316
0.000398403
0.000396539
0.000394722
0.000392949
0.00039122
0.000389531
0.000387881
0.00038627
0.000384696
0.000383157