/*--------------------------------*- C++ -*----------------------------------*\
  =========                 |
  \\      /  F ield         | OpenFOAM: The Open Source CFD Toolbox
   \\    /   O peration     | Website:  https://openfoam.org
    \\  /    A nd           | Version:  11
     \\/     M anipulation  |
\*---------------------------------------------------------------------------*/
FoamFile
{
    format      ascii;
    class       volScalarField;
    location    "152";
    object      k;
}
// * * * * * * * * * * * * * * * * * * * * * * * * * * * * * * * * * * * * * //

dimensions      [0 2 -2 0 0 0 0];

internalField   nonuniform List<scalar> 
10000
(
0.000939658
0.000835612
0.000745686
0.000667714
0.000599889
0.000540703
0.000488892
0.000443398
0.000403327
0.000367928
0.000336564
0.000308696
0.000283866
0.000261686
0.000241822
0.000223992
0.000207951
0.000193492
0.000180437
0.000168631
0.000157942
0.000148258
0.00013948
0.000131523
0.000124314
0.000117788
0.000111889
0.000106567
0.000101778
9.74809e-05
9.36381e-05
9.02146e-05
8.71773e-05
8.44946e-05
8.21361e-05
8.00727e-05
7.82767e-05
7.67215e-05
7.5382e-05
7.42347e-05
7.32575e-05
7.24306e-05
7.17361e-05
7.11575e-05
7.068e-05
7.02902e-05
6.99759e-05
6.97261e-05
6.95314e-05
6.93831e-05
6.92738e-05
6.91974e-05
6.91483e-05
6.91217e-05
6.91136e-05
6.912e-05
6.91382e-05
6.91654e-05
6.91993e-05
6.92378e-05
6.92794e-05
6.93225e-05
6.9366e-05
6.94088e-05
6.94502e-05
6.94896e-05
6.95263e-05
6.956e-05
6.95904e-05
6.96172e-05
6.96404e-05
6.96599e-05
6.96757e-05
6.96878e-05
6.96963e-05
6.97014e-05
6.97032e-05
6.97019e-05
6.96977e-05
6.96908e-05
6.96815e-05
6.96699e-05
6.96565e-05
6.96414e-05
6.96248e-05
6.96071e-05
6.95884e-05
6.95692e-05
6.95495e-05
6.95298e-05
6.95103e-05
6.94912e-05
6.94729e-05
6.94556e-05
6.94397e-05
6.94255e-05
6.94134e-05
6.94036e-05
6.93965e-05
6.93925e-05
0.000939659
0.000835613
0.000745689
0.000667717
0.000599893
0.000540707
0.000488898
0.000443403
0.000403333
0.000367934
0.00033657
0.000308702
0.000283873
0.000261692
0.000241829
0.000223998
0.000207958
0.000193499
0.000180444
0.000168638
0.00015795
0.000148266
0.000139488
0.000131532
0.000124322
0.000117796
0.000111898
0.000106576
0.000101787
9.749e-05
9.36471e-05
9.02235e-05
8.7186e-05
8.4503e-05
8.21441e-05
8.00805e-05
7.82841e-05
7.67285e-05
7.53888e-05
7.42413e-05
7.32642e-05
7.24376e-05
7.17432e-05
7.11647e-05
7.0687e-05
7.02967e-05
6.99817e-05
6.97312e-05
6.95358e-05
6.93869e-05
6.92773e-05
6.92006e-05
6.91513e-05
6.91246e-05
6.91164e-05
6.91227e-05
6.91407e-05
6.91679e-05
6.92017e-05
6.92401e-05
6.92816e-05
6.93246e-05
6.93681e-05
6.94109e-05
6.94522e-05
6.94915e-05
6.95281e-05
6.95618e-05
6.95921e-05
6.96189e-05
6.9642e-05
6.96614e-05
6.96771e-05
6.96892e-05
6.96976e-05
6.97027e-05
6.97044e-05
6.9703e-05
6.96987e-05
6.96918e-05
6.96824e-05
6.96708e-05
6.96573e-05
6.96421e-05
6.96255e-05
6.96077e-05
6.9589e-05
6.95697e-05
6.955e-05
6.95303e-05
6.95107e-05
6.94916e-05
6.94732e-05
6.94559e-05
6.944e-05
6.94258e-05
6.94136e-05
6.94039e-05
6.93968e-05
6.93928e-05
0.00093966
0.000835616
0.000745694
0.000667724
0.000599901
0.000540716
0.000488907
0.000443413
0.000403343
0.000367944
0.000336581
0.000308713
0.000283884
0.000261704
0.000241841
0.000224011
0.00020797
0.000193512
0.000180456
0.000168651
0.000157963
0.000148279
0.000139502
0.000131545
0.000124336
0.00011781
0.000111911
0.000106589
0.0001018
9.75025e-05
9.36591e-05
9.02349e-05
8.71968e-05
8.45131e-05
8.21535e-05
8.00891e-05
7.8292e-05
7.67358e-05
7.53954e-05
7.42473e-05
7.32698e-05
7.24429e-05
7.17483e-05
7.11694e-05
7.06913e-05
7.03005e-05
6.9985e-05
6.97341e-05
6.95381e-05
6.93888e-05
6.92789e-05
6.9202e-05
6.91525e-05
6.91257e-05
6.91173e-05
6.91236e-05
6.91416e-05
6.91687e-05
6.92025e-05
6.92409e-05
6.92824e-05
6.93254e-05
6.93688e-05
6.94116e-05
6.94529e-05
6.94922e-05
6.95288e-05
6.95624e-05
6.95927e-05
6.96195e-05
6.96426e-05
6.9662e-05
6.96777e-05
6.96898e-05
6.96982e-05
6.97032e-05
6.97049e-05
6.97035e-05
6.96992e-05
6.96922e-05
6.96829e-05
6.96713e-05
6.96577e-05
6.96425e-05
6.96259e-05
6.96081e-05
6.95894e-05
6.95701e-05
6.95504e-05
6.95307e-05
6.95111e-05
6.9492e-05
6.94737e-05
6.94564e-05
6.94405e-05
6.94263e-05
6.94141e-05
6.94044e-05
6.93973e-05
6.93933e-05
0.000939661
0.00083562
0.0007457
0.000667732
0.000599911
0.000540728
0.00048892
0.000443427
0.000403358
0.00036796
0.000336596
0.000308729
0.000283901
0.000261721
0.000241858
0.000224028
0.000207988
0.00019353
0.000180475
0.000168669
0.000157982
0.000148298
0.00013952
0.000131564
0.000124354
0.000117828
0.000111929
0.000106607
0.000101817
9.7519e-05
9.36749e-05
9.02497e-05
8.72106e-05
8.45258e-05
8.21651e-05
8.00996e-05
7.83013e-05
7.6744e-05
7.54025e-05
7.42536e-05
7.32753e-05
7.24477e-05
7.17525e-05
7.11731e-05
7.06945e-05
7.03031e-05
6.9987e-05
6.97355e-05
6.95391e-05
6.93894e-05
6.92792e-05
6.92021e-05
6.91525e-05
6.91255e-05
6.91171e-05
6.91233e-05
6.91413e-05
6.91683e-05
6.92021e-05
6.92406e-05
6.9282e-05
6.93251e-05
6.93685e-05
6.94113e-05
6.94527e-05
6.9492e-05
6.95287e-05
6.95623e-05
6.95926e-05
6.96194e-05
6.96426e-05
6.9662e-05
6.96777e-05
6.96897e-05
6.96982e-05
6.97032e-05
6.97049e-05
6.97036e-05
6.96993e-05
6.96924e-05
6.9683e-05
6.96714e-05
6.96579e-05
6.96427e-05
6.96261e-05
6.96084e-05
6.95897e-05
6.95704e-05
6.95508e-05
6.95311e-05
6.95115e-05
6.94924e-05
6.94741e-05
6.94569e-05
6.94411e-05
6.94269e-05
6.94148e-05
6.94051e-05
6.93981e-05
6.93941e-05
0.000939662
0.000835623
0.000745706
0.000667741
0.000599922
0.000540741
0.000488935
0.000443444
0.000403376
0.000367978
0.000336616
0.000308749
0.000283921
0.000261742
0.00024188
0.00022405
0.00020801
0.000193553
0.000180498
0.000168693
0.000158006
0.000148322
0.000139545
0.000131588
0.000124378
0.000117852
0.000111953
0.00010663
0.000101839
9.75401e-05
9.36948e-05
9.02684e-05
8.72279e-05
8.45416e-05
8.21794e-05
8.01123e-05
7.83125e-05
7.67537e-05
7.54109e-05
7.42607e-05
7.32813e-05
7.24527e-05
7.17566e-05
7.11764e-05
7.0697e-05
7.0305e-05
6.99883e-05
6.97362e-05
6.95393e-05
6.93892e-05
6.92787e-05
6.92013e-05
6.91515e-05
6.91245e-05
6.9116e-05
6.91221e-05
6.91401e-05
6.91672e-05
6.9201e-05
6.92395e-05
6.9281e-05
6.93241e-05
6.93675e-05
6.94104e-05
6.94518e-05
6.94912e-05
6.95279e-05
6.95616e-05
6.9592e-05
6.96188e-05
6.9642e-05
6.96615e-05
6.96772e-05
6.96893e-05
6.96978e-05
6.97029e-05
6.97047e-05
6.97033e-05
6.96991e-05
6.96922e-05
6.96829e-05
6.96714e-05
6.96579e-05
6.96428e-05
6.96262e-05
6.96085e-05
6.95899e-05
6.95707e-05
6.95511e-05
6.95314e-05
6.9512e-05
6.9493e-05
6.94747e-05
6.94576e-05
6.94418e-05
6.94277e-05
6.94157e-05
6.9406e-05
6.9399e-05
6.9395e-05
0.000939663
0.000835626
0.000745712
0.00066775
0.000599934
0.000540756
0.000488952
0.000443462
0.000403396
0.000368
0.000336638
0.000308773
0.000283946
0.000261767
0.000241906
0.000224077
0.000208038
0.00019358
0.000180526
0.000168721
0.000158035
0.000148351
0.000139574
0.000131617
0.000124408
0.000117881
0.000111981
0.000106657
0.000101866
9.75654e-05
9.37187e-05
9.02907e-05
8.72484e-05
8.45603e-05
8.21962e-05
8.01272e-05
7.83255e-05
7.67649e-05
7.54204e-05
7.42686e-05
7.32877e-05
7.24579e-05
7.17606e-05
7.11794e-05
7.0699e-05
7.03062e-05
6.99888e-05
6.97361e-05
6.95386e-05
6.93882e-05
6.92773e-05
6.91997e-05
6.91497e-05
6.91226e-05
6.9114e-05
6.91201e-05
6.9138e-05
6.91651e-05
6.9199e-05
6.92375e-05
6.92791e-05
6.93223e-05
6.93658e-05
6.94088e-05
6.94503e-05
6.94897e-05
6.95265e-05
6.95603e-05
6.95908e-05
6.96177e-05
6.96409e-05
6.96605e-05
6.96763e-05
6.96885e-05
6.96971e-05
6.97022e-05
6.9704e-05
6.97027e-05
6.96986e-05
6.96917e-05
6.96825e-05
6.9671e-05
6.96577e-05
6.96426e-05
6.96261e-05
6.96085e-05
6.959e-05
6.95709e-05
6.95514e-05
6.95318e-05
6.95124e-05
6.94935e-05
6.94754e-05
6.94583e-05
6.94426e-05
6.94286e-05
6.94167e-05
6.94071e-05
6.94001e-05
6.93961e-05
0.000939663
0.00083563
0.000745718
0.000667759
0.000599946
0.00054077
0.000488969
0.000443482
0.000403417
0.000368023
0.000336663
0.000308799
0.000283973
0.000261796
0.000241935
0.000224107
0.000208069
0.000193612
0.000180559
0.000168755
0.000158068
0.000148385
0.000139608
0.000131651
0.000124441
0.000117914
0.000112014
0.000106689
0.000101896
9.75945e-05
9.37461e-05
9.03163e-05
8.7272e-05
8.45817e-05
8.22153e-05
8.0144e-05
7.83402e-05
7.67774e-05
7.54308e-05
7.42771e-05
7.32945e-05
7.24631e-05
7.17645e-05
7.1182e-05
7.07006e-05
7.03068e-05
6.99885e-05
6.97351e-05
6.95371e-05
6.93862e-05
6.9275e-05
6.91971e-05
6.91469e-05
6.91197e-05
6.9111e-05
6.91171e-05
6.9135e-05
6.91622e-05
6.91961e-05
6.92347e-05
6.92764e-05
6.93196e-05
6.93633e-05
6.94064e-05
6.9448e-05
6.94875e-05
6.95244e-05
6.95583e-05
6.95889e-05
6.96159e-05
6.96393e-05
6.96589e-05
6.96748e-05
6.96871e-05
6.96958e-05
6.9701e-05
6.97029e-05
6.97017e-05
6.96977e-05
6.96909e-05
6.96818e-05
6.96704e-05
6.96572e-05
6.96422e-05
6.96258e-05
6.96083e-05
6.95899e-05
6.95709e-05
6.95515e-05
6.95321e-05
6.95128e-05
6.9494e-05
6.9476e-05
6.94591e-05
6.94435e-05
6.94297e-05
6.94178e-05
6.94083e-05
6.94014e-05
6.93974e-05
0.000939664
0.000835633
0.000745724
0.000667768
0.000599958
0.000540785
0.000488986
0.000443502
0.00040344
0.000368047
0.00033669
0.000308827
0.000284003
0.000261827
0.000241967
0.00022414
0.000208103
0.000193648
0.000180595
0.000168792
0.000158106
0.000148423
0.000139646
0.000131689
0.000124479
0.000117952
0.00011205
0.000106725
0.000101931
9.76272e-05
9.37769e-05
9.03449e-05
8.72982e-05
8.46055e-05
8.22365e-05
8.01627e-05
7.83562e-05
7.6791e-05
7.54421e-05
7.42862e-05
7.33017e-05
7.24684e-05
7.17682e-05
7.11843e-05
7.07017e-05
7.03068e-05
6.99876e-05
6.97334e-05
6.95348e-05
6.93833e-05
6.92717e-05
6.91936e-05
6.91432e-05
6.91158e-05
6.9107e-05
6.91131e-05
6.91311e-05
6.91583e-05
6.91923e-05
6.9231e-05
6.92728e-05
6.93161e-05
6.93599e-05
6.94031e-05
6.94449e-05
6.94846e-05
6.95216e-05
6.95556e-05
6.95863e-05
6.96135e-05
6.9637e-05
6.96568e-05
6.96728e-05
6.96852e-05
6.9694e-05
6.96994e-05
6.97014e-05
6.97003e-05
6.96964e-05
6.96898e-05
6.96807e-05
6.96695e-05
6.96564e-05
6.96416e-05
6.96253e-05
6.9608e-05
6.95897e-05
6.95708e-05
6.95516e-05
6.95323e-05
6.95132e-05
6.94946e-05
6.94767e-05
6.94599e-05
6.94445e-05
6.94307e-05
6.9419e-05
6.94095e-05
6.94027e-05
6.93987e-05
0.000939665
0.000835635
0.000745729
0.000667776
0.000599969
0.000540799
0.000489004
0.000443522
0.000403462
0.000368073
0.000336717
0.000308857
0.000284034
0.00026186
0.000242002
0.000224177
0.000208141
0.000193686
0.000180634
0.000168832
0.000158147
0.000148465
0.000139688
0.000131731
0.000124521
0.000117993
0.000112091
0.000106764
0.000101968
9.7663e-05
9.38106e-05
9.03762e-05
8.73269e-05
8.46314e-05
8.22596e-05
8.01829e-05
7.83736e-05
7.68056e-05
7.54541e-05
7.42958e-05
7.33091e-05
7.24738e-05
7.17718e-05
7.11863e-05
7.07023e-05
7.03062e-05
6.9986e-05
6.9731e-05
6.95316e-05
6.93796e-05
6.92676e-05
6.91891e-05
6.91385e-05
6.91109e-05
6.91021e-05
6.91082e-05
6.91262e-05
6.91534e-05
6.91875e-05
6.92263e-05
6.92682e-05
6.93118e-05
6.93557e-05
6.93991e-05
6.9441e-05
6.94808e-05
6.95181e-05
6.95522e-05
6.95831e-05
6.96104e-05
6.96341e-05
6.9654e-05
6.96702e-05
6.96827e-05
6.96917e-05
6.96972e-05
6.96994e-05
6.96985e-05
6.96947e-05
6.96882e-05
6.96793e-05
6.96683e-05
6.96553e-05
6.96406e-05
6.96246e-05
6.96074e-05
6.95893e-05
6.95706e-05
6.95515e-05
6.95324e-05
6.95135e-05
6.9495e-05
6.94773e-05
6.94607e-05
6.94454e-05
6.94318e-05
6.94202e-05
6.94108e-05
6.9404e-05
6.94001e-05
0.000939666
0.000835638
0.000745734
0.000667784
0.00059998
0.000540813
0.000489021
0.000443542
0.000403486
0.000368099
0.000336745
0.000308888
0.000284067
0.000261895
0.000242039
0.000224215
0.00020818
0.000193727
0.000180677
0.000168875
0.000158191
0.00014851
0.000139733
0.000131777
0.000124566
0.000118038
0.000112134
0.000106806
0.000102009
9.77017e-05
9.38469e-05
9.04099e-05
8.73578e-05
8.46593e-05
8.22844e-05
8.02045e-05
7.83922e-05
7.68212e-05
7.54668e-05
7.43059e-05
7.33167e-05
7.24792e-05
7.17752e-05
7.1188e-05
7.07024e-05
7.0305e-05
6.99837e-05
6.97278e-05
6.95277e-05
6.93751e-05
6.92625e-05
6.91837e-05
6.91329e-05
6.91051e-05
6.90962e-05
6.91022e-05
6.91203e-05
6.91476e-05
6.91818e-05
6.92208e-05
6.92628e-05
6.93065e-05
6.93507e-05
6.93942e-05
6.94363e-05
6.94763e-05
6.95137e-05
6.95481e-05
6.95792e-05
6.96067e-05
6.96305e-05
6.96506e-05
6.9667e-05
6.96797e-05
6.96888e-05
6.96945e-05
6.96969e-05
6.96962e-05
6.96925e-05
6.96863e-05
6.96776e-05
6.96667e-05
6.96539e-05
6.96394e-05
6.96235e-05
6.96065e-05
6.95886e-05
6.95701e-05
6.95513e-05
6.95324e-05
6.95136e-05
6.94954e-05
6.94779e-05
6.94614e-05
6.94463e-05
6.94329e-05
6.94214e-05
6.94121e-05
6.94054e-05
6.94014e-05
0.000939666
0.00083564
0.000745739
0.000667791
0.00059999
0.000540827
0.000489038
0.000443562
0.000403508
0.000368124
0.000336774
0.000308919
0.000284101
0.000261931
0.000242077
0.000224255
0.000208222
0.00019377
0.000180721
0.000168921
0.000158238
0.000148557
0.000139781
0.000131825
0.000124614
0.000118085
0.000112181
0.000106852
0.000102052
9.77429e-05
9.38856e-05
9.04457e-05
8.73906e-05
8.46888e-05
8.23106e-05
8.02274e-05
7.84117e-05
7.68375e-05
7.54801e-05
7.43163e-05
7.33245e-05
7.24846e-05
7.17785e-05
7.11893e-05
7.07021e-05
7.03033e-05
6.99808e-05
6.97239e-05
6.95229e-05
6.93697e-05
6.92566e-05
6.91774e-05
6.91263e-05
6.90984e-05
6.90894e-05
6.90954e-05
6.91135e-05
6.91409e-05
6.91752e-05
6.92143e-05
6.92565e-05
6.93004e-05
6.93447e-05
6.93885e-05
6.94308e-05
6.9471e-05
6.95087e-05
6.95433e-05
6.95745e-05
6.96022e-05
6.96263e-05
6.96466e-05
6.96632e-05
6.96761e-05
6.96854e-05
6.96913e-05
6.96939e-05
6.96934e-05
6.969e-05
6.96839e-05
6.96754e-05
6.96647e-05
6.96521e-05
6.96379e-05
6.96222e-05
6.96054e-05
6.95878e-05
6.95695e-05
6.95509e-05
6.95322e-05
6.95137e-05
6.94956e-05
6.94784e-05
6.94621e-05
6.94472e-05
6.94339e-05
6.94225e-05
6.94133e-05
6.94066e-05
6.94027e-05
0.000939667
0.000835643
0.000745743
0.000667798
0.0006
0.00054084
0.000489054
0.000443582
0.000403531
0.00036815
0.000336803
0.00030895
0.000284135
0.000261967
0.000242115
0.000224296
0.000208265
0.000193815
0.000180768
0.000168969
0.000158287
0.000148607
0.000139832
0.000131875
0.000124665
0.000118135
0.00011223
0.000106899
0.000102098
9.77861e-05
9.39262e-05
9.04834e-05
8.7425e-05
8.47198e-05
8.23381e-05
8.02513e-05
7.84321e-05
7.68545e-05
7.54939e-05
7.4327e-05
7.33324e-05
7.249e-05
7.17816e-05
7.11904e-05
7.07014e-05
7.03011e-05
6.99773e-05
6.97193e-05
6.95175e-05
6.93635e-05
6.92499e-05
6.91702e-05
6.91188e-05
6.90907e-05
6.90817e-05
6.90876e-05
6.91057e-05
6.91332e-05
6.91676e-05
6.92069e-05
6.92493e-05
6.92934e-05
6.9338e-05
6.93819e-05
6.94245e-05
6.9465e-05
6.95028e-05
6.95377e-05
6.95692e-05
6.95971e-05
6.96214e-05
6.9642e-05
6.96588e-05
6.96719e-05
6.96815e-05
6.96876e-05
6.96904e-05
6.96901e-05
6.96869e-05
6.96811e-05
6.96728e-05
6.96624e-05
6.965e-05
6.9636e-05
6.96206e-05
6.96041e-05
6.95866e-05
6.95686e-05
6.95503e-05
6.95318e-05
6.95136e-05
6.94958e-05
6.94787e-05
6.94627e-05
6.94479e-05
6.94348e-05
6.94235e-05
6.94145e-05
6.94079e-05
6.94039e-05
0.000939668
0.000835645
0.000745747
0.000667805
0.000600009
0.000540852
0.000489069
0.0004436
0.000403553
0.000368175
0.000336831
0.000308982
0.000284169
0.000262004
0.000242155
0.000224338
0.000208309
0.000193861
0.000180816
0.000169019
0.000158337
0.000148659
0.000139884
0.000131928
0.000124717
0.000118187
0.00011228
0.000106948
0.000102145
9.78311e-05
9.39684e-05
9.05225e-05
8.74607e-05
8.4752e-05
8.23666e-05
8.02761e-05
7.84532e-05
7.68721e-05
7.5508e-05
7.4338e-05
7.33404e-05
7.24953e-05
7.17844e-05
7.11911e-05
7.07003e-05
7.02983e-05
6.99732e-05
6.9714e-05
6.95113e-05
6.93565e-05
6.92423e-05
6.91622e-05
6.91105e-05
6.90822e-05
6.9073e-05
6.9079e-05
6.90971e-05
6.91247e-05
6.91592e-05
6.91987e-05
6.92413e-05
6.92856e-05
6.93304e-05
6.93746e-05
6.94174e-05
6.94582e-05
6.94963e-05
6.95314e-05
6.95631e-05
6.95914e-05
6.96159e-05
6.96367e-05
6.96538e-05
6.96672e-05
6.9677e-05
6.96834e-05
6.96864e-05
6.96864e-05
6.96834e-05
6.96779e-05
6.96698e-05
6.96597e-05
6.96476e-05
6.96338e-05
6.96187e-05
6.96024e-05
6.95853e-05
6.95675e-05
6.95494e-05
6.95312e-05
6.95133e-05
6.94957e-05
6.94789e-05
6.94631e-05
6.94485e-05
6.94356e-05
6.94245e-05
6.94155e-05
6.9409e-05
6.94051e-05
0.000939668
0.000835647
0.000745751
0.000667811
0.000600018
0.000540864
0.000489084
0.000443619
0.000403575
0.0003682
0.000336859
0.000309013
0.000284203
0.000262041
0.000242195
0.00022438
0.000208354
0.000193908
0.000180865
0.000169069
0.000158389
0.000148712
0.000139938
0.000131982
0.000124771
0.00011824
0.000112333
0.000106999
0.000102194
9.78774e-05
9.40119e-05
9.05628e-05
8.74976e-05
8.47852e-05
8.2396e-05
8.03016e-05
7.84749e-05
7.689e-05
7.55224e-05
7.43491e-05
7.33484e-05
7.25005e-05
7.17871e-05
7.11916e-05
7.06988e-05
7.02951e-05
6.99685e-05
6.97081e-05
6.95044e-05
6.93488e-05
6.9234e-05
6.91535e-05
6.91014e-05
6.90729e-05
6.90636e-05
6.90694e-05
6.90876e-05
6.91153e-05
6.915e-05
6.91896e-05
6.92324e-05
6.9277e-05
6.9322e-05
6.93665e-05
6.94096e-05
6.94506e-05
6.9489e-05
6.95244e-05
6.95564e-05
6.95849e-05
6.96098e-05
6.96308e-05
6.96482e-05
6.96619e-05
6.9672e-05
6.96786e-05
6.96819e-05
6.96822e-05
6.96795e-05
6.96742e-05
6.96665e-05
6.96566e-05
6.96448e-05
6.96313e-05
6.96165e-05
6.96005e-05
6.95836e-05
6.95662e-05
6.95484e-05
6.95305e-05
6.95128e-05
6.94955e-05
6.94789e-05
6.94633e-05
6.9449e-05
6.94362e-05
6.94253e-05
6.94164e-05
6.94099e-05
6.94061e-05
0.000939669
0.000835649
0.000745755
0.000667817
0.000600027
0.000540876
0.000489099
0.000443636
0.000403596
0.000368225
0.000336887
0.000309044
0.000284237
0.000262078
0.000242235
0.000224423
0.000208399
0.000193956
0.000180914
0.00016912
0.000158442
0.000148766
0.000139992
0.000132037
0.000124826
0.000118294
0.000112386
0.000107051
0.000102244
9.79249e-05
9.40565e-05
9.06041e-05
8.75353e-05
8.48191e-05
8.2426e-05
8.03277e-05
7.8497e-05
7.69083e-05
7.55371e-05
7.43602e-05
7.33564e-05
7.25056e-05
7.17896e-05
7.11917e-05
7.06968e-05
7.02914e-05
6.99633e-05
6.97017e-05
6.94969e-05
6.93405e-05
6.9225e-05
6.91439e-05
6.90915e-05
6.90628e-05
6.90533e-05
6.90592e-05
6.90773e-05
6.91051e-05
6.91399e-05
6.91798e-05
6.92228e-05
6.92676e-05
6.93129e-05
6.93576e-05
6.9401e-05
6.94423e-05
6.9481e-05
6.95167e-05
6.95491e-05
6.95779e-05
6.9603e-05
6.96244e-05
6.9642e-05
6.9656e-05
6.96664e-05
6.96733e-05
6.9677e-05
6.96775e-05
6.96752e-05
6.96701e-05
6.96627e-05
6.96531e-05
6.96416e-05
6.96285e-05
6.96139e-05
6.95983e-05
6.95817e-05
6.95646e-05
6.95471e-05
6.95295e-05
6.95121e-05
6.94951e-05
6.94788e-05
6.94634e-05
6.94493e-05
6.94367e-05
6.94259e-05
6.94172e-05
6.94108e-05
6.94069e-05
0.000939669
0.000835651
0.000745758
0.000667822
0.000600035
0.000540887
0.000489113
0.000443654
0.000403616
0.000368248
0.000336914
0.000309074
0.000284271
0.000262115
0.000242274
0.000224465
0.000208444
0.000194003
0.000180964
0.000169172
0.000158495
0.00014882
0.000140048
0.000132093
0.000124882
0.00011835
0.00011244
0.000107104
0.000102295
9.79731e-05
9.41017e-05
9.06461e-05
8.75736e-05
8.48536e-05
8.24565e-05
8.03541e-05
7.85195e-05
7.69268e-05
7.55518e-05
7.43715e-05
7.33643e-05
7.25105e-05
7.17918e-05
7.11915e-05
7.06945e-05
7.02873e-05
6.99576e-05
6.96947e-05
6.94888e-05
6.93315e-05
6.92154e-05
6.91338e-05
6.9081e-05
6.90519e-05
6.90423e-05
6.90481e-05
6.90663e-05
6.90942e-05
6.91292e-05
6.91692e-05
6.92124e-05
6.92575e-05
6.9303e-05
6.93481e-05
6.93917e-05
6.94334e-05
6.94724e-05
6.95084e-05
6.95411e-05
6.95702e-05
6.95957e-05
6.96174e-05
6.96353e-05
6.96496e-05
6.96603e-05
6.96676e-05
6.96716e-05
6.96724e-05
6.96704e-05
6.96657e-05
6.96586e-05
6.96493e-05
6.96381e-05
6.96253e-05
6.96111e-05
6.95958e-05
6.95795e-05
6.95627e-05
6.95455e-05
6.95282e-05
6.95111e-05
6.94944e-05
6.94784e-05
6.94633e-05
6.94494e-05
6.9437e-05
6.94264e-05
6.94178e-05
6.94114e-05
6.94076e-05
0.000939669
0.000835652
0.000745762
0.000667828
0.000600043
0.000540897
0.000489126
0.00044367
0.000403636
0.000368271
0.00033694
0.000309104
0.000284304
0.000262151
0.000242314
0.000224507
0.000208489
0.000194051
0.000181014
0.000169224
0.000158549
0.000148875
0.000140103
0.000132149
0.000124938
0.000118405
0.000112495
0.000107157
0.000102346
9.80218e-05
9.41475e-05
9.06885e-05
8.76124e-05
8.48884e-05
8.24873e-05
8.03808e-05
7.85421e-05
7.69454e-05
7.55666e-05
7.43827e-05
7.33722e-05
7.25153e-05
7.17938e-05
7.11911e-05
7.06919e-05
7.02828e-05
6.99515e-05
6.96872e-05
6.94802e-05
6.9322e-05
6.92051e-05
6.91229e-05
6.90697e-05
6.90404e-05
6.90307e-05
6.90364e-05
6.90546e-05
6.90826e-05
6.91177e-05
6.91579e-05
6.92014e-05
6.92467e-05
6.92925e-05
6.93378e-05
6.93818e-05
6.94238e-05
6.94631e-05
6.94995e-05
6.95325e-05
6.9562e-05
6.95878e-05
6.96098e-05
6.96281e-05
6.96428e-05
6.96538e-05
6.96614e-05
6.96657e-05
6.96669e-05
6.96652e-05
6.96608e-05
6.96541e-05
6.96451e-05
6.96343e-05
6.96218e-05
6.9608e-05
6.9593e-05
6.95771e-05
6.95606e-05
6.95437e-05
6.95268e-05
6.951e-05
6.94936e-05
6.94778e-05
6.9463e-05
6.94493e-05
6.94371e-05
6.94266e-05
6.94181e-05
6.94119e-05
6.94081e-05
0.00093967
0.000835654
0.000745765
0.000667833
0.00060005
0.000540907
0.000489139
0.000443686
0.000403655
0.000368294
0.000336966
0.000309133
0.000284336
0.000262187
0.000242353
0.000224549
0.000208534
0.000194098
0.000181063
0.000169275
0.000158602
0.00014893
0.000140159
0.000132205
0.000124994
0.000118461
0.00011255
0.00010721
0.000102397
9.80707e-05
9.41934e-05
9.07311e-05
8.76513e-05
8.49234e-05
8.25182e-05
8.04076e-05
7.85647e-05
7.69641e-05
7.55814e-05
7.43938e-05
7.33799e-05
7.25199e-05
7.17956e-05
7.11903e-05
7.0689e-05
7.02779e-05
6.9945e-05
6.96792e-05
6.94711e-05
6.93119e-05
6.91943e-05
6.91116e-05
6.90579e-05
6.90283e-05
6.90184e-05
6.9024e-05
6.90423e-05
6.90703e-05
6.91056e-05
6.91459e-05
6.91897e-05
6.92352e-05
6.92814e-05
6.9327e-05
6.93713e-05
6.94136e-05
6.94533e-05
6.949e-05
6.95234e-05
6.95532e-05
6.95793e-05
6.96017e-05
6.96204e-05
6.96354e-05
6.96468e-05
6.96548e-05
6.96594e-05
6.96609e-05
6.96596e-05
6.96556e-05
6.96492e-05
6.96406e-05
6.96302e-05
6.9618e-05
6.96045e-05
6.95899e-05
6.95744e-05
6.95582e-05
6.95417e-05
6.95251e-05
6.95086e-05
6.94925e-05
6.9477e-05
6.94624e-05
6.9449e-05
6.9437e-05
6.94267e-05
6.94183e-05
6.94122e-05
6.94084e-05
0.00093967
0.000835655
0.000745768
0.000667838
0.000600057
0.000540917
0.000489152
0.000443702
0.000403674
0.000368316
0.000336991
0.000309161
0.000284368
0.000262222
0.000242391
0.00022459
0.000208578
0.000194145
0.000181112
0.000169327
0.000158655
0.000148984
0.000140215
0.000132261
0.00012505
0.000118517
0.000112605
0.000107264
0.000102449
9.81196e-05
9.42394e-05
9.07737e-05
8.76902e-05
8.49584e-05
8.25491e-05
8.04344e-05
7.85874e-05
7.69827e-05
7.55961e-05
7.44048e-05
7.33875e-05
7.25243e-05
7.17972e-05
7.11893e-05
7.06857e-05
7.02727e-05
6.9938e-05
6.96709e-05
6.94615e-05
6.93014e-05
6.9183e-05
6.90997e-05
6.90456e-05
6.90157e-05
6.90056e-05
6.90112e-05
6.90294e-05
6.90575e-05
6.90929e-05
6.91335e-05
6.91774e-05
6.92232e-05
6.92697e-05
6.93156e-05
6.93603e-05
6.94029e-05
6.9443e-05
6.948e-05
6.95137e-05
6.95439e-05
6.95704e-05
6.95932e-05
6.96123e-05
6.96276e-05
6.96394e-05
6.96477e-05
6.96527e-05
6.96546e-05
6.96537e-05
6.965e-05
6.9644e-05
6.96358e-05
6.96257e-05
6.96139e-05
6.96008e-05
6.95865e-05
6.95714e-05
6.95556e-05
6.95394e-05
6.95231e-05
6.9507e-05
6.94912e-05
6.9476e-05
6.94617e-05
6.94485e-05
6.94367e-05
6.94265e-05
6.94183e-05
6.94122e-05
6.94085e-05
0.000939671
0.000835657
0.000745771
0.000667843
0.000600064
0.000540926
0.000489164
0.000443716
0.000403692
0.000368337
0.000337016
0.000309189
0.000284399
0.000262256
0.000242428
0.000224631
0.000208621
0.000194191
0.000181161
0.000169377
0.000158708
0.000149038
0.00014027
0.000132317
0.000125106
0.000118573
0.000112659
0.000107317
0.0001025
9.81682e-05
9.42851e-05
9.08161e-05
8.7729e-05
8.49933e-05
8.25799e-05
8.0461e-05
7.86099e-05
7.70011e-05
7.56106e-05
7.44156e-05
7.33949e-05
7.25285e-05
7.17985e-05
7.11881e-05
7.06822e-05
7.02672e-05
6.99308e-05
6.96622e-05
6.94516e-05
6.92905e-05
6.91713e-05
6.90874e-05
6.90328e-05
6.90026e-05
6.89923e-05
6.89978e-05
6.9016e-05
6.90442e-05
6.90797e-05
6.91205e-05
6.91646e-05
6.92107e-05
6.92575e-05
6.93038e-05
6.93488e-05
6.93917e-05
6.94321e-05
6.94696e-05
6.95037e-05
6.95342e-05
6.95611e-05
6.95843e-05
6.96037e-05
6.96194e-05
6.96316e-05
6.96403e-05
6.96457e-05
6.9648e-05
6.96474e-05
6.96441e-05
6.96385e-05
6.96307e-05
6.96209e-05
6.96096e-05
6.95968e-05
6.95829e-05
6.95681e-05
6.95527e-05
6.95369e-05
6.95209e-05
6.95051e-05
6.94896e-05
6.94747e-05
6.94607e-05
6.94478e-05
6.94362e-05
6.94262e-05
6.94181e-05
6.94121e-05
6.94084e-05
0.000939671
0.000835658
0.000745774
0.000667847
0.000600071
0.000540935
0.000489175
0.000443731
0.000403709
0.000368357
0.000337039
0.000309216
0.000284429
0.00026229
0.000242465
0.00022467
0.000208663
0.000194236
0.000181208
0.000169427
0.000158759
0.000149091
0.000140324
0.000132372
0.000125161
0.000118627
0.000112713
0.000107369
0.00010255
9.82164e-05
9.43304e-05
9.08581e-05
8.77674e-05
8.50278e-05
8.26104e-05
8.04874e-05
7.86321e-05
7.70194e-05
7.5625e-05
7.44263e-05
7.34021e-05
7.25326e-05
7.17996e-05
7.11866e-05
7.06784e-05
7.02614e-05
6.99233e-05
6.96532e-05
6.94414e-05
6.92793e-05
6.91593e-05
6.90747e-05
6.90197e-05
6.89891e-05
6.89786e-05
6.8984e-05
6.90021e-05
6.90304e-05
6.90661e-05
6.9107e-05
6.91514e-05
6.91978e-05
6.92448e-05
6.92914e-05
6.93368e-05
6.93801e-05
6.94209e-05
6.94587e-05
6.94932e-05
6.95241e-05
6.95514e-05
6.95749e-05
6.95947e-05
6.96109e-05
6.96234e-05
6.96325e-05
6.96383e-05
6.9641e-05
6.96408e-05
6.96379e-05
6.96327e-05
6.96252e-05
6.96159e-05
6.96049e-05
6.95925e-05
6.9579e-05
6.95646e-05
6.95496e-05
6.95341e-05
6.95185e-05
6.9503e-05
6.94879e-05
6.94733e-05
6.94595e-05
6.94468e-05
6.94354e-05
6.94256e-05
6.94176e-05
6.94117e-05
6.9408e-05
0.000939671
0.00083566
0.000745776
0.000667851
0.000600077
0.000540943
0.000489186
0.000443744
0.000403726
0.000368377
0.000337062
0.000309242
0.000284459
0.000262322
0.0002425
0.000224709
0.000208705
0.00019428
0.000181255
0.000169476
0.00015881
0.000149143
0.000140377
0.000132426
0.000125215
0.000118681
0.000112766
0.000107421
0.0001026
9.8264e-05
9.43751e-05
9.08996e-05
8.78053e-05
8.5062e-05
8.26406e-05
8.05135e-05
7.86541e-05
7.70373e-05
7.56391e-05
7.44367e-05
7.3409e-05
7.25364e-05
7.18005e-05
7.11849e-05
7.06744e-05
7.02554e-05
6.99155e-05
6.9644e-05
6.94309e-05
6.92678e-05
6.91469e-05
6.90617e-05
6.90062e-05
6.89753e-05
6.89646e-05
6.89698e-05
6.8988e-05
6.90163e-05
6.90521e-05
6.90932e-05
6.91378e-05
6.91845e-05
6.92318e-05
6.92788e-05
6.93244e-05
6.93681e-05
6.94093e-05
6.94474e-05
6.94823e-05
6.95137e-05
6.95413e-05
6.95653e-05
6.95855e-05
6.9602e-05
6.96149e-05
6.96244e-05
6.96306e-05
6.96337e-05
6.96339e-05
6.96314e-05
6.96266e-05
6.96196e-05
6.96106e-05
6.96e-05
6.9588e-05
6.95749e-05
6.95609e-05
6.95462e-05
6.95311e-05
6.95159e-05
6.95007e-05
6.94859e-05
6.94716e-05
6.94581e-05
6.94456e-05
6.94345e-05
6.94248e-05
6.9417e-05
6.94112e-05
6.94075e-05
0.000939672
0.000835661
0.000745779
0.000667855
0.000600083
0.000540952
0.000489197
0.000443758
0.000403742
0.000368396
0.000337084
0.000309267
0.000284487
0.000262354
0.000242535
0.000224746
0.000208745
0.000194323
0.0001813
0.000169523
0.00015886
0.000149194
0.000140429
0.000132479
0.000125269
0.000118734
0.000112819
0.000107472
0.000102649
9.83107e-05
9.44192e-05
9.09405e-05
8.78427e-05
8.50956e-05
8.26702e-05
8.05391e-05
7.86757e-05
7.7055e-05
7.56529e-05
7.44469e-05
7.34158e-05
7.254e-05
7.18013e-05
7.11831e-05
7.06703e-05
7.02492e-05
6.99076e-05
6.96345e-05
6.94202e-05
6.92561e-05
6.91344e-05
6.90485e-05
6.89925e-05
6.89612e-05
6.89502e-05
6.89554e-05
6.89735e-05
6.90019e-05
6.90378e-05
6.90791e-05
6.9124e-05
6.91709e-05
6.92185e-05
6.92657e-05
6.93118e-05
6.93558e-05
6.93974e-05
6.94359e-05
6.94712e-05
6.95029e-05
6.9531e-05
6.95553e-05
6.95759e-05
6.95928e-05
6.96062e-05
6.96161e-05
6.96227e-05
6.96262e-05
6.96268e-05
6.96247e-05
6.96203e-05
6.96136e-05
6.96051e-05
6.95949e-05
6.95833e-05
6.95706e-05
6.95569e-05
6.95427e-05
6.95279e-05
6.95131e-05
6.94982e-05
6.94837e-05
6.94697e-05
6.94565e-05
6.94443e-05
6.94333e-05
6.94239e-05
6.94161e-05
6.94104e-05
6.94068e-05
0.000939672
0.000835662
0.000745781
0.000667859
0.000600089
0.000540959
0.000489207
0.00044377
0.000403757
0.000368414
0.000337106
0.000309292
0.000284514
0.000262384
0.000242568
0.000224783
0.000208785
0.000194365
0.000181345
0.00016957
0.000158908
0.000149244
0.00014048
0.000132531
0.000125321
0.000118786
0.00011287
0.000107522
0.000102697
9.83566e-05
9.44623e-05
9.09805e-05
8.78793e-05
8.51285e-05
8.26993e-05
8.05642e-05
7.86969e-05
7.70723e-05
7.56664e-05
7.44568e-05
7.34223e-05
7.25434e-05
7.18018e-05
7.1181e-05
7.06659e-05
7.02428e-05
6.98995e-05
6.96249e-05
6.94094e-05
6.92442e-05
6.91216e-05
6.90351e-05
6.89786e-05
6.8947e-05
6.89357e-05
6.89407e-05
6.89588e-05
6.89872e-05
6.90233e-05
6.90647e-05
6.91098e-05
6.9157e-05
6.92049e-05
6.92525e-05
6.92989e-05
6.93433e-05
6.93852e-05
6.94241e-05
6.94598e-05
6.94919e-05
6.95204e-05
6.95451e-05
6.95661e-05
6.95835e-05
6.95972e-05
6.96075e-05
6.96145e-05
6.96184e-05
6.96194e-05
6.96178e-05
6.96137e-05
6.96075e-05
6.95994e-05
6.95896e-05
6.95784e-05
6.95661e-05
6.95528e-05
6.95389e-05
6.95246e-05
6.951e-05
6.94955e-05
6.94813e-05
6.94676e-05
6.94547e-05
6.94427e-05
6.9432e-05
6.94227e-05
6.94151e-05
6.94094e-05
6.94059e-05
0.000939672
0.000835663
0.000745784
0.000667863
0.000600094
0.000540967
0.000489217
0.000443783
0.000403772
0.000368432
0.000337126
0.000309315
0.000284541
0.000262414
0.000242601
0.000224818
0.000208823
0.000194405
0.000181388
0.000169615
0.000158955
0.000149293
0.00014053
0.000132581
0.000125371
0.000118836
0.000112919
0.00010757
0.000102744
9.84013e-05
9.45044e-05
9.10196e-05
8.79151e-05
8.51607e-05
8.27278e-05
8.05888e-05
7.87176e-05
7.70891e-05
7.56795e-05
7.44664e-05
7.34286e-05
7.25465e-05
7.18022e-05
7.11788e-05
7.06615e-05
7.02364e-05
6.98913e-05
6.96153e-05
6.93984e-05
6.92322e-05
6.91088e-05
6.90216e-05
6.89646e-05
6.89326e-05
6.89211e-05
6.8926e-05
6.8944e-05
6.89724e-05
6.90086e-05
6.90502e-05
6.90955e-05
6.91429e-05
6.91912e-05
6.92391e-05
6.92858e-05
6.93305e-05
6.93728e-05