/*--------------------------------*- C++ -*----------------------------------*\
  =========                 |
  \\      /  F ield         | OpenFOAM: The Open Source CFD Toolbox
   \\    /   O peration     | Website:  https://openfoam.org
    \\  /    A nd           | Version:  11
     \\/     M anipulation  |
\*---------------------------------------------------------------------------*/
FoamFile
{
    format      ascii;
    class       volScalarField;
    location    "152";
    object      p;
}
// * * * * * * * * * * * * * * * * * * * * * * * * * * * * * * * * * * * * * //

dimensions      [0 2 -2 0 0 0 0];

internalField   nonuniform List<scalar> 
10000
(
4.64884e-07
4.54595e-07
4.69754e-07
5.01817e-07
5.38806e-07
5.77899e-07
6.18818e-07
6.61428e-07
7.05617e-07
7.51347e-07
7.98615e-07
8.47423e-07
8.97768e-07
9.49634e-07
1.00299e-06
1.0578e-06
1.11398e-06
1.17145e-06
1.23008e-06
1.28974e-06
1.35022e-06
1.41134e-06
1.47282e-06
1.53441e-06
1.59579e-06
1.65661e-06
1.71653e-06
1.77517e-06
1.83217e-06
1.88717e-06
1.93983e-06
1.98983e-06
2.0369e-06
2.08078e-06
2.12118e-06
2.15776e-06
2.18981e-06
2.21514e-06
2.23111e-06
2.25829e-06
2.29418e-06
2.31796e-06
2.33534e-06
2.35464e-06
2.36547e-06
2.37008e-06
2.38272e-06
2.39854e-06
2.40273e-06
2.40066e-06
2.4052e-06
2.41227e-06
2.41323e-06
2.40969e-06
2.40295e-06
2.39341e-06
2.38127e-06
2.36666e-06
2.34966e-06
2.33035e-06
2.30876e-06
2.28494e-06
2.25894e-06
2.23079e-06
2.20055e-06
2.16826e-06
2.13397e-06
2.09773e-06
2.05959e-06
2.01961e-06
1.97785e-06
1.93435e-06
1.88918e-06
1.8424e-06
1.79406e-06
1.74422e-06
1.69293e-06
1.64023e-06
1.58619e-06
1.53083e-06
1.4742e-06
1.41632e-06
1.35721e-06
1.29689e-06
1.23535e-06
1.17258e-06
1.10855e-06
1.04321e-06
9.76461e-07
9.08206e-07
8.38281e-07
7.66465e-07
6.92449e-07
6.15779e-07
5.35824e-07
4.51879e-07
3.62702e-07
2.62138e-07
1.3534e-07
7.8315e-09
9.18159e-07
8.74197e-07
8.4664e-07
8.57083e-07
8.84239e-07
9.1945e-07
9.60379e-07
1.00577e-06
1.05476e-06
1.10683e-06
1.16166e-06
1.21906e-06
1.27886e-06
1.34095e-06
1.40521e-06
1.47153e-06
1.53977e-06
1.6098e-06
1.68142e-06
1.75444e-06
1.82861e-06
1.90364e-06
1.9792e-06
2.05491e-06
2.13036e-06
2.20507e-06
2.27857e-06
2.35035e-06
2.4199e-06
2.48674e-06
2.55042e-06
2.61052e-06
2.66671e-06
2.71871e-06
2.76629e-06
2.80928e-06
2.84736e-06
2.87972e-06
2.90804e-06
2.94655e-06
2.97703e-06
2.98453e-06
2.9846e-06
2.99035e-06
3.00473e-06
3.02659e-06
3.05448e-06
3.08094e-06
3.09228e-06
3.08838e-06
3.0841e-06
3.08384e-06
3.08074e-06
3.07405e-06
3.06413e-06
3.05113e-06
3.03512e-06
3.01616e-06
2.99431e-06
2.96961e-06
2.94208e-06
2.91177e-06
2.8787e-06
2.84291e-06
2.80444e-06
2.76332e-06
2.71961e-06
2.67336e-06
2.62462e-06
2.57344e-06
2.51989e-06
2.46402e-06
2.4059e-06
2.34558e-06
2.28314e-06
2.21863e-06
2.1521e-06
2.08361e-06
2.01322e-06
1.94095e-06
1.86685e-06
1.79094e-06
1.71323e-06
1.63372e-06
1.5524e-06
1.46922e-06
1.38411e-06
1.29698e-06
1.20768e-06
1.11603e-06
1.02174e-06
9.24448e-07
8.23645e-07
7.18576e-07
6.08243e-07
4.91721e-07
3.67095e-07
2.22317e-07
3.41589e-08
-9.9244e-08
1.17729e-06
1.11241e-06
1.05537e-06
1.03859e-06
1.0429e-06
1.05883e-06
1.0832e-06
1.11413e-06
1.15024e-06
1.19062e-06
1.23469e-06
1.28204e-06
1.33236e-06
1.38543e-06
1.44104e-06
1.49904e-06
1.55924e-06
1.62146e-06
1.6855e-06
1.75113e-06
1.81806e-06
1.88599e-06
1.95454e-06
2.0233e-06
2.09178e-06
2.15947e-06
2.22581e-06
2.29024e-06
2.35217e-06
2.41107e-06
2.46642e-06
2.51782e-06
2.56492e-06
2.60752e-06
2.64552e-06
2.679e-06
2.70814e-06
2.73327e-06
2.75644e-06
2.78371e-06
2.81258e-06
2.83282e-06
2.84726e-06
2.85835e-06
2.86325e-06
2.86249e-06
2.86012e-06
2.855e-06
2.8436e-06
2.82837e-06
2.81583e-06
2.80578e-06
2.79513e-06
2.78281e-06
2.76856e-06
2.75224e-06
2.73375e-06
2.71305e-06
2.69012e-06
2.66494e-06
2.6375e-06
2.60779e-06
2.57581e-06
2.54156e-06
2.50504e-06
2.46627e-06
2.42527e-06
2.38206e-06
2.33666e-06
2.2891e-06
2.23943e-06
2.18766e-06
2.13385e-06
2.07802e-06
2.02023e-06
1.9605e-06
1.89887e-06
1.83537e-06
1.77004e-06
1.70289e-06
1.63394e-06
1.56319e-06
1.49064e-06
1.41627e-06
1.34003e-06
1.26187e-06
1.1817e-06
1.0994e-06
1.01479e-06
9.27647e-07
8.37679e-07
7.4448e-07
6.47496e-07
5.45943e-07
4.38864e-07
3.25635e-07
2.04481e-07
6.07048e-08
-1.28602e-07
-2.13702e-07
1.41083e-06
1.33919e-06
1.27584e-06
1.24815e-06
1.24099e-06
1.2466e-06
1.26207e-06
1.28541e-06
1.31508e-06
1.35001e-06
1.38946e-06
1.43288e-06
1.47987e-06
1.53012e-06
1.58337e-06
1.63938e-06
1.69794e-06
1.75881e-06
1.82176e-06
1.88651e-06
1.95274e-06
2.02009e-06
2.08813e-06
2.15639e-06
2.22433e-06
2.29135e-06
2.35685e-06
2.42016e-06
2.48064e-06
2.5377e-06
2.59077e-06
2.6394e-06
2.68324e-06
2.72211e-06
2.75595e-06
2.7849e-06
2.80929e-06
2.82958e-06
2.84702e-06
2.86397e-06
2.88022e-06
2.89205e-06
2.89945e-06
2.90283e-06
2.90097e-06
2.89429e-06
2.88488e-06
2.87295e-06
2.85781e-06
2.84077e-06
2.82428e-06
2.80835e-06
2.79193e-06
2.77441e-06
2.75548e-06
2.73494e-06
2.71268e-06
2.68858e-06
2.66259e-06
2.63465e-06
2.60473e-06
2.57278e-06
2.53878e-06
2.5027e-06
2.46453e-06
2.42426e-06
2.38189e-06
2.33741e-06
2.29084e-06
2.24219e-06
2.19147e-06
2.13871e-06
2.08392e-06
2.02712e-06
1.96835e-06
1.90763e-06
1.84497e-06
1.7804e-06
1.71393e-06
1.64557e-06
1.57533e-06
1.50318e-06
1.42912e-06
1.35311e-06
1.27509e-06
1.19498e-06
1.11269e-06
1.02807e-06
9.40928e-07
8.51028e-07
7.58046e-07
6.61569e-07
5.6104e-07
4.55688e-07
3.44649e-07
2.27604e-07
1.02932e-07
-4.58621e-08
-2.39395e-07
-3.02631e-07
1.62246e-06
1.55148e-06
1.48878e-06
1.45679e-06
1.44355e-06
1.4431e-06
1.45307e-06
1.47161e-06
1.49722e-06
1.5288e-06
1.56554e-06
1.60683e-06
1.6522e-06
1.70127e-06
1.75373e-06
1.8093e-06
1.86772e-06
1.92873e-06
1.99203e-06
2.05731e-06
2.12421e-06
2.19232e-06
2.26118e-06
2.33026e-06
2.39895e-06
2.46663e-06
2.53261e-06
2.59619e-06
2.65667e-06
2.71339e-06
2.76576e-06
2.8133e-06
2.85564e-06
2.89258e-06
2.92407e-06
2.95027e-06
2.97146e-06
2.98811e-06
3.00104e-06
3.01135e-06
3.01899e-06
3.02277e-06
3.02268e-06
3.019e-06
3.01163e-06
3.00093e-06
2.98771e-06
2.97224e-06
2.95442e-06
2.93491e-06
2.9148e-06
2.89436e-06
2.87329e-06
2.85125e-06
2.82803e-06
2.80344e-06
2.77736e-06
2.74967e-06
2.7203e-06
2.68915e-06
2.65617e-06
2.62131e-06
2.5845e-06
2.54572e-06
2.50493e-06
2.4621e-06
2.41721e-06
2.37025e-06
2.32121e-06
2.27009e-06
2.21689e-06
2.16162e-06
2.10429e-06
2.04491e-06
1.98349e-06
1.92004e-06
1.85458e-06
1.78711e-06
1.71764e-06
1.64616e-06
1.57268e-06
1.49717e-06
1.41959e-06
1.33991e-06
1.25806e-06
1.17396e-06
1.08748e-06
9.98474e-07
9.06751e-07
8.12059e-07
7.14081e-07
6.12413e-07
5.06528e-07
3.9571e-07
2.79227e-07
1.57123e-07
2.80795e-08
-1.26254e-07
-3.28178e-07
-3.73717e-07
1.8125e-06
1.74489e-06
1.68432e-06
1.65034e-06
1.63326e-06
1.62851e-06
1.63421e-06
1.64879e-06
1.67086e-06
1.69936e-06
1.73348e-06
1.77258e-06
1.81615e-06
1.8638e-06
1.91515e-06
1.9699e-06
2.02774e-06
2.08839e-06
2.1515e-06
2.21675e-06
2.28373e-06
2.352e-06
2.42105e-06
2.49031e-06
2.55915e-06
2.62689e-06
2.69281e-06
2.75615e-06
2.81619e-06
2.87223e-06
2.92365e-06
2.96993e-06
3.0107e-06
3.04572e-06
3.07494e-06
3.09849e-06
3.11663e-06
3.12981e-06
3.13863e-06
3.14378e-06
3.1454e-06
3.14321e-06
3.13734e-06
3.12809e-06
3.11565e-06
3.10037e-06
3.08274e-06
3.06305e-06
3.04143e-06
3.01832e-06
2.99432e-06
2.96969e-06
2.94435e-06
2.91813e-06
2.89088e-06
2.86246e-06
2.83273e-06
2.80158e-06
2.76892e-06
2.73466e-06
2.69872e-06
2.66102e-06
2.6215e-06
2.5801e-06
2.53677e-06
2.49148e-06
2.44418e-06
2.39485e-06
2.34346e-06
2.29001e-06
2.23448e-06
2.17686e-06
2.11716e-06
2.05537e-06
1.9915e-06
1.92554e-06
1.8575e-06
1.78738e-06
1.71517e-06
1.64087e-06
1.56445e-06
1.4859e-06
1.40516e-06
1.32219e-06
1.23693e-06
1.14926e-06
1.05909e-06
9.66245e-07
8.70543e-07
7.71743e-07
6.69545e-07
5.63584e-07
4.53388e-07
3.38325e-07
2.17822e-07
9.2353e-08
-3.89477e-08
-1.96893e-07
-4.10842e-07
-4.31694e-07
1.98756e-06
1.92375e-06
1.86582e-06
1.83122e-06
1.81186e-06
1.80414e-06
1.80664e-06
1.81804e-06
1.83712e-06
1.86291e-06
1.89462e-06
1.93163e-06
1.97341e-06
2.01954e-06
2.06964e-06
2.12336e-06
2.18038e-06
2.24037e-06
2.30298e-06
2.36784e-06
2.43452e-06
2.50255e-06
2.57139e-06
2.64044e-06
2.70903e-06
2.77646e-06
2.84196e-06
2.90477e-06
2.96411e-06
3.01927e-06
3.06961e-06
3.11456e-06
3.15375e-06
3.1869e-06
3.21396e-06
3.235e-06
3.25029e-06
3.2602e-06
3.26527e-06
3.26602e-06
3.26278e-06
3.25564e-06
3.24485e-06
3.23074e-06
3.2136e-06
3.19381e-06
3.17178e-06
3.14783e-06
3.12222e-06
3.09528e-06
3.06739e-06
3.03875e-06
3.00937e-06
2.97918e-06
2.94808e-06
2.91595e-06
2.88268e-06
2.84815e-06
2.81227e-06
2.77493e-06
2.73605e-06
2.69553e-06
2.65331e-06
2.60931e-06
2.56348e-06
2.51574e-06
2.46606e-06
2.4144e-06
2.36071e-06
2.30498e-06
2.24718e-06
2.1873e-06
2.12531e-06
2.06122e-06
1.99501e-06
1.92667e-06
1.8562e-06
1.78359e-06
1.70882e-06
1.63188e-06
1.55275e-06
1.47139e-06
1.38776e-06
1.3018e-06
1.21343e-06
1.12257e-06
1.0291e-06
9.32865e-07
8.33688e-07
7.31349e-07
6.25581e-07
5.16067e-07
4.02408e-07
2.84072e-07
1.60652e-07
3.30611e-08
-9.90185e-08
-2.58836e-07
-4.84162e-07
-4.80463e-07
2.15188e-06
2.09165e-06
2.03644e-06
2.00207e-06
1.98151e-06
1.97186e-06
1.97206e-06
1.98102e-06
1.99771e-06
2.02122e-06
2.05085e-06
2.08599e-06
2.12612e-06
2.1708e-06
2.21964e-06
2.2723e-06
2.32841e-06
2.38763e-06
2.44959e-06
2.51388e-06
2.58007e-06
2.64765e-06
2.71606e-06
2.78468e-06
2.85282e-06
2.91974e-06
2.98466e-06
3.0468e-06
3.10535e-06
3.15958e-06
3.20882e-06
3.2525e-06
3.29019e-06
3.32163e-06
3.3467e-06
3.36549e-06
3.37819e-06
3.38518e-06
3.38691e-06
3.38388e-06
3.37648e-06
3.36504e-06
3.34991e-06
3.33145e-06
3.31005e-06
3.28609e-06
3.25998e-06
3.23204e-06
3.20257e-06
3.17186e-06
3.14019e-06
3.10772e-06
3.07452e-06
3.04055e-06
3.00575e-06
2.97005e-06
2.93333e-06
2.89548e-06
2.85641e-06
2.81602e-06
2.7742e-06
2.73087e-06
2.68593e-06
2.6393e-06
2.59092e-06
2.54071e-06
2.48861e-06
2.43458e-06
2.37856e-06
2.32052e-06
2.26042e-06
2.19825e-06
2.13396e-06
2.06755e-06
1.999e-06
1.92829e-06
1.85541e-06
1.78034e-06
1.70306e-06
1.62355e-06
1.54177e-06
1.4577e-06
1.37128e-06
1.28246e-06
1.19116e-06
1.09729e-06
1.00074e-06
9.01379e-07
7.99031e-07
6.93506e-07
5.84576e-07
4.71977e-07
3.55389e-07
2.34378e-07
1.08699e-07
-2.033e-08
-1.5242e-07
-3.12522e-07
-5.4556e-07
-5.24039e-07
2.30755e-06
2.25054e-06
2.19789e-06
2.16417e-06
2.1431e-06
2.13224e-06
2.13081e-06
2.13793e-06
2.1527e-06
2.17434e-06
2.20218e-06
2.23565e-06
2.27427e-06
2.31758e-06
2.36521e-06
2.41677e-06
2.47192e-06
2.53028e-06
2.59147e-06
2.65507e-06
2.72061e-06
2.78758e-06
2.85539e-06
2.92341e-06
2.99093e-06
3.0572e-06
3.12141e-06
3.18277e-06
3.24046e-06
3.29372e-06
3.34187e-06
3.38432e-06
3.42061e-06
3.45046e-06
3.47374e-06
3.49048e-06
3.50088e-06
3.50526e-06
3.50406e-06
3.49775e-06
3.48678e-06
3.47159e-06
3.45261e-06
3.43027e-06
3.405e-06
3.37721e-06
3.34729e-06
3.3156e-06
3.28245e-06
3.2481e-06
3.21279e-06
3.17667e-06
3.13982e-06
3.10224e-06
3.06391e-06
3.02475e-06
2.98468e-06
2.94359e-06
2.90139e-06
2.85798e-06
2.81325e-06
2.7671e-06
2.71944e-06
2.67018e-06
2.61924e-06
2.56653e-06
2.51199e-06
2.45557e-06
2.39719e-06
2.33682e-06
2.27441e-06
2.20992e-06
2.14333e-06
2.0746e-06
2.00371e-06
1.93065e-06
1.85538e-06
1.77788e-06
1.69813e-06
1.6161e-06
1.53175e-06
1.44506e-06
1.35596e-06
1.26441e-06
1.17033e-06
1.07363e-06
9.74205e-07
8.71942e-07
7.66691e-07
6.58285e-07
5.46533e-07
4.31225e-07
3.12108e-07
1.88832e-07
6.12759e-08
-6.8947e-08
-2.01191e-07
-3.61947e-07
-6.00632e-07
-5.67626e-07
2.45583e-06
2.40163e-06
2.35129e-06
2.31842e-06
2.29725e-06
2.28568e-06
2.28312e-06
2.28884e-06
2.30209e-06
2.32216e-06
2.34846e-06
2.38046e-06
2.41768e-06
2.45971e-06
2.50614e-06
2.55661e-06
2.61075e-06
2.66818e-06
2.72851e-06
2.79129e-06
2.85606e-06
2.92228e-06
2.98936e-06
3.05664e-06
3.12341e-06
3.1889e-06
3.2523e-06
3.3128e-06
3.36957e-06
3.42184e-06
3.4689e-06
3.51015e-06
3.54512e-06
3.5735e-06
3.59513e-06
3.61003e-06
3.61836e-06
3.62042e-06
3.61663e-06
3.60746e-06
3.59339e-06
3.57491e-06
3.55252e-06
3.5267e-06
3.4979e-06
3.46657e-06
3.43312e-06
3.3979e-06
3.36124e-06
3.3234e-06
3.2846e-06
3.24499e-06
3.20467e-06
3.16364e-06
3.12191e-06
3.07943e-06
3.03611e-06
2.99186e-06
2.9466e-06
2.90021e-06
2.85261e-06
2.80367e-06
2.7533e-06
2.70141e-06
2.64791e-06
2.5927e-06
2.53572e-06
2.47689e-06
2.41615e-06
2.35344e-06
2.28871e-06
2.22192e-06
2.15303e-06
2.082e-06
2.0088e-06
1.9334e-06
1.85578e-06
1.7759e-06
1.69374e-06
1.60926e-06
1.52244e-06
1.43322e-06
1.34157e-06
1.24742e-06
1.1507e-06
1.05135e-06
9.49256e-07
8.44323e-07
7.36421e-07
6.2541e-07
5.11134e-07
3.93429e-07
2.72098e-07
1.46849e-07
1.76451e-08
-1.13705e-07
-2.46425e-07
-4.08824e-07
-6.54503e-07
-6.11469e-07
2.59754e-06
2.54579e-06
2.49752e-06
2.46558e-06
2.44456e-06
2.4326e-06
2.42925e-06
2.43393e-06
2.44596e-06
2.46473e-06
2.48971e-06
2.52039e-06
2.55634e-06
2.59715e-06
2.64243e-06
2.6918e-06
2.74491e-06
2.80136e-06
2.86075e-06
2.92264e-06
2.98653e-06
3.0519e-06
3.11813e-06
3.18457e-06
3.25048e-06
3.3151e-06
3.37761e-06
3.43719e-06
3.49299e-06
3.54425e-06
3.59023e-06
3.63033e-06
3.66405e-06
3.69106e-06
3.71118e-06
3.7244e-06
3.73087e-06
3.73086e-06
3.72478e-06
3.71309e-06
3.69629e-06
3.67492e-06
3.64949e-06
3.62052e-06
3.58851e-06
3.55393e-06
3.51719e-06
3.47866e-06
3.43869e-06
3.39752e-06
3.3554e-06
3.31246e-06
3.2688e-06
3.22448e-06
3.17949e-06
3.13379e-06
3.08733e-06
3.04002e-06
2.99176e-06
2.94246e-06
2.89202e-06
2.84033e-06
2.78728e-06
2.73278e-06
2.67673e-06
2.61903e-06
2.55961e-06
2.49839e-06
2.43528e-06
2.37025e-06
2.30321e-06
2.23413e-06
2.16295e-06
2.08964e-06
2.01416e-06
1.93647e-06
1.85654e-06
1.77433e-06
1.68983e-06
1.60299e-06
1.51377e-06
1.42213e-06
1.32804e-06
1.23142e-06
1.13223e-06
1.03039e-06
9.25822e-07
8.18425e-07
7.08098e-07
5.94724e-07
4.78179e-07
3.58336e-07
2.35041e-07
1.08046e-07
-2.26325e-08
-1.55031e-07
-2.88302e-07
-4.52446e-07
-7.04445e-07
-6.51042e-07
2.73327e-06
2.68366e-06
2.63724e-06
2.60622e-06
2.5855e-06
2.57339e-06
2.56952e-06
2.5734e-06
2.58445e-06
2.60214e-06
2.62597e-06
2.65549e-06
2.69027e-06
2.72993e-06
2.77409e-06
2.82239e-06
2.87445e-06
2.92988e-06
2.98829e-06
3.04921e-06
3.11217e-06
3.1766e-06
3.2419e-06
3.30741e-06
3.37239e-06
3.43607e-06
3.49763e-06
3.55623e-06
3.61105e-06
3.66128e-06
3.7062e-06
3.74518e-06
3.77772e-06
3.80345e-06
3.82218e-06
3.83388e-06
3.83867e-06
3.83682e-06
3.8287e-06
3.81477e-06
3.79556e-06
3.7716e-06
3.74345e-06
3.71165e-06
3.67671e-06
3.63913e-06
3.59933e-06
3.55771e-06
3.51461e-06
3.4703e-06
3.42501e-06
3.37889e-06
3.33207e-06
3.28458e-06
3.23646e-06
3.18768e-06
3.13818e-06
3.08788e-06
3.03671e-06
2.98456e-06
2.93134e-06
2.87694e-06
2.82125e-06
2.76416e-06
2.70558e-06
2.64542e-06
2.58357e-06
2.51997e-06
2.45452e-06
2.38717e-06
2.31785e-06
2.24649e-06
2.17306e-06
2.0975e-06
2.01976e-06
1.93982e-06
1.85764e-06
1.77317e-06
1.68639e-06
1.59726e-06
1.50574e-06
1.41179e-06
1.31537e-06
1.21642e-06
1.1149e-06
1.01073e-06
9.03851e-07
7.94179e-07
6.81627e-07
5.66101e-07
4.47502e-07
3.25736e-07
2.00681e-07
7.21201e-08
-5.98895e-08
-1.93254e-07
-3.2707e-07
-4.92853e-07
-7.50491e-07
-6.8715e-07
2.86342e-06
2.81569e-06
2.77094e-06
2.74083e-06
2.7205e-06
2.70837e-06
2.70416e-06
2.70744e-06
2.71772e-06
2.73449e-06
2.75732e-06
2.78579e-06
2.8195e-06
2.85808e-06
2.90117e-06
2.9484e-06
2.99942e-06
3.05382e-06
3.11121e-06
3.17113e-06
3.23308e-06
3.29652e-06
3.36083e-06
3.42535e-06
3.48934e-06
3.55203e-06
3.61259e-06
3.6702e-06
3.724e-06
3.77321e-06
3.81709e-06
3.85499e-06
3.8864e-06
3.91093e-06
3.92839e-06
3.9387e-06
3.94198e-06
3.93846e-06
3.92852e-06
3.91261e-06
3.89124e-06
3.86498e-06
3.83438e-06
3.8e-06
3.76239e-06
3.72204e-06
3.67941e-06
3.6349e-06
3.58886e-06
3.54158e-06
3.49328e-06
3.44415e-06
3.39429e-06
3.34379e-06
3.29266e-06
3.24091e-06
3.18847e-06
3.13529e-06
3.08128e-06
3.02635e-06
2.97041e-06
2.91335e-06
2.85506e-06
2.79543e-06
2.73436e-06
2.67175e-06
2.60751e-06
2.54154e-06
2.47378e-06
2.40414e-06
2.33255e-06
2.25896e-06
2.1833e-06
2.10552e-06
2.02558e-06
1.94344e-06
1.85905e-06
1.77239e-06
1.6834e-06
1.59206e-06
1.49833e-06
1.40217e-06
1.30353e-06
1.20238e-06
1.09865e-06
9.92309e-07
8.8328e-07
7.71502e-07
6.56902e-07
5.39407e-07
4.1894e-07
2.9543e-07
1.68784e-07
3.88056e-08
-9.44163e-08
-2.28673e-07
-3.63016e-07
-5.30346e-07
-7.93177e-07
-7.20563e-07
2.98831e-06
2.94226e-06
2.89902e-06
2.86979e-06
2.84989e-06
2.83784e-06
2.83342e-06
2.83626e-06
2.84589e-06
2.86189e-06
2.88384e-06
2.91137e-06
2.94409e-06
2.98165e-06
3.02371e-06
3.06991e-06
3.11988e-06
3.17324e-06
3.22959e-06
3.28847e-06
3.34939e-06
3.41179e-06
3.47507e-06
3.53856e-06
3.60152e-06
3.66318e-06
3.72272e-06
3.77931e-06
3.8321e-06
3.88029e-06
3.92314e-06
3.96e-06
3.99033e-06
4.01375e-06
4.03002e-06
4.03907e-06
4.04097e-06
4.03596e-06
4.02439e-06
4.00669e-06
3.9834e-06
3.95506e-06
3.92225e-06
3.88554e-06
3.84547e-06
3.80258e-06
3.75732e-06
3.71011e-06
3.66131e-06
3.61122e-06
3.56008e-06
3.50808e-06
3.45534e-06
3.40195e-06
3.34794e-06
3.29333e-06
3.23806e-06
3.18208e-06
3.12532e-06
3.06769e-06
3.0091e-06
2.94943e-06
2.88859e-06
2.82645e-06
2.76293e-06
2.69792e-06
2.63131e-06
2.56303e-06
2.49298e-06
2.42108e-06
2.34726e-06
2.27146e-06
2.19361e-06
2.11366e-06
2.03157e-06
1.94728e-06
1.86075e-06
1.77195e-06
1.68083e-06
1.58736e-06
1.49151e-06
1.39323e-06
1.29249e-06
1.18925e-06
1.08345e-06
9.75067e-07
8.64035e-07
7.50303e-07
6.33814e-07
5.1451e-07
3.92333e-07
2.67234e-07
1.39139e-07
7.86679e-09
-1.26468e-07
-2.61557e-07
-3.96407e-07
-5.65203e-07
-8.32889e-07
-7.51658e-07
3.10818e-06
3.06366e-06
3.0218e-06
2.99339e-06
2.97394e-06
2.96205e-06
2.95751e-06
2.96e-06
2.96911e-06
2.98445e-06
3.00563e-06
3.03229e-06
3.0641e-06
3.1007e-06
3.14177e-06
3.18695e-06
3.2359e-06
3.28823e-06
3.34353e-06
3.40135e-06
3.46121e-06
3.52255e-06
3.58477e-06
3.64719e-06
3.7091e-06
3.76971e-06
3.82821e-06
3.88377e-06
3.93554e-06
3.98273e-06
4.02458e-06
4.06043e-06
4.08974e-06
4.11211e-06
4.12728e-06
4.13516e-06
4.13582e-06
4.12946e-06
4.11641e-06
4.09712e-06
4.07208e-06
4.04187e-06
4.00705e-06
3.96821e-06
3.92591e-06
3.88067e-06
3.83296e-06
3.78323e-06
3.73184e-06
3.67911e-06
3.62528e-06
3.57055e-06
3.51507e-06
3.45892e-06
3.40216e-06
3.3448e-06
3.28681e-06
3.22813e-06
3.1687e-06
3.10845e-06
3.04727e-06
2.98506e-06
2.92172e-06
2.85714e-06
2.79121e-06
2.72383e-06
2.65491e-06
2.58434e-06
2.51204e-06
2.43792e-06
2.36191e-06
2.28394e-06
2.20396e-06
2.12189e-06
2.03768e-06
1.9513e-06
1.86269e-06
1.77182e-06
1.67865e-06
1.58314e-06
1.48525e-06
1.38495e-06
1.28221e-06
1.17699e-06
1.06925e-06
9.58945e-07
8.46042e-07
7.30494e-07
6.12257e-07
4.91285e-07
3.67537e-07
2.4098e-07
1.11556e-07
-2.09057e-08
-1.56271e-07
-2.92138e-07
-4.27477e-07
-5.9767e-07
-8.69922e-07
-7.80689e-07
3.22326e-06
3.18011e-06
3.13952e-06
3.1119e-06
3.09291e-06
3.08121e-06
3.07662e-06
3.07885e-06
3.08753e-06
3.10228e-06
3.12277e-06
3.14866e-06
3.17961e-06
3.21531e-06
3.25542e-06
3.29962e-06
3.34756e-06
3.39885e-06
3.4531e-06
3.50987e-06
3.56866e-06
3.62892e-06
3.69006e-06
3.7514e-06
3.81224e-06
3.87179e-06
3.92924e-06
3.98377e-06
4.03453e-06
4.08073e-06
4.1216e-06
4.15648e-06
4.18482e-06
4.2062e-06
4.22035e-06
4.22716e-06
4.22667e-06
4.21908e-06
4.2047e-06
4.18396e-06
4.15736e-06
4.12545e-06
4.08881e-06
4.04803e-06
4.00366e-06
3.95625e-06
3.90628e-06
3.8542e-06
3.80038e-06
3.74516e-06
3.68879e-06
3.63148e-06
3.57339e-06
3.51461e-06
3.45521e-06
3.39521e-06
3.3346e-06
3.27332e-06
3.21131e-06
3.14851e-06
3.08482e-06
3.02014e-06
2.95436e-06
2.88739e-06
2.81911e-06
2.74941e-06
2.67821e-06
2.6054e-06
2.53089e-06
2.4546e-06
2.37645e-06
2.29637e-06
2.21428e-06
2.13014e-06
2.04389e-06
1.95547e-06
1.86485e-06
1.77198e-06
1.67682e-06
1.57935e-06
1.47952e-06
1.37729e-06
1.27265e-06
1.16556e-06
1.05598e-06
9.43878e-07
8.29226e-07
7.11987e-07
5.92127e-07
4.69612e-07
3.44415e-07
2.16513e-07
8.58632e-08
-4.76982e-08
-1.84022e-07
-3.20623e-07
-4.56436e-07
-6.27963e-07
-9.0453e-07
-8.07858e-07
3.3337e-06
3.29183e-06
3.25241e-06
3.22553e-06
3.207e-06
3.19551e-06
3.19092e-06
3.19295e-06
3.20126e-06
3.21551e-06
3.23537e-06
3.26054e-06
3.2907e-06
3.32554e-06
3.36474e-06
3.40798e-06
3.45493e-06
3.50521e-06
3.55842e-06
3.61412e-06
3.67184e-06
3.73102e-06
3.79107e-06
3.85133e-06
3.91109e-06
3.96957e-06
4.02598e-06
4.07948e-06
4.12925e-06
4.17446e-06
4.21438e-06
4.24833e-06
4.27574e-06
4.29619e-06
4.30938e-06
4.3152e-06
4.31367e-06
4.30496e-06
4.28937e-06
4.26732e-06
4.2393e-06
4.20585e-06
4.16754e-06
4.12498e-06
4.07872e-06
4.0293e-06
3.97723e-06
3.92295e-06
3.86686e-06
3.80929e-06
3.75052e-06
3.69077e-06
3.63019e-06
3.56891e-06
3.50699e-06
3.44447e-06
3.38133e-06
3.31754e-06
3.25304e-06
3.18778e-06
3.12165e-06
3.05456e-06
2.98642e-06
2.91711e-06
2.84654e-06
2.77458e-06
2.70116e-06
2.62616e-06
2.54949e-06
2.47108e-06
2.39083e-06
2.30868e-06
2.22455e-06
2.13839e-06
2.05015e-06
1.95976e-06
1.86719e-06
1.77239e-06
1.67533e-06
1.57597e-06
1.47427e-06
1.37022e-06
1.26377e-06
1.15491e-06
1.04359e-06
9.29804e-07
8.13514e-07
6.94697e-07
5.73327e-07
4.49381e-07
3.2284e-07
1.93694e-07
6.19077e-08
-7.26768e-08
-2.09898e-07
-3.47194e-07
-4.83469e-07
-6.56275e-07
-9.36929e-07
-8.33332e-07
3.43967e-06
3.39897e-06
3.36064e-06
3.33448e-06
3.31639e-06
3.30513e-06
3.30057e-06
3.30244e-06
3.31044e-06
3.32424e-06
3.34354e-06
3.36804e-06
3.39745e-06
3.43147e-06
3.4698e-06
3.51212e-06
3.5581e-06
3.60737e-06
3.65956e-06
3.71421e-06
3.77086e-06
3.82896e-06
3.88793e-06
3.9471e-06
4.00578e-06
4.06321e-06
4.11858e-06
4.17106e-06
4.21984e-06
4.2641e-06
4.30309e-06
4.33614e-06
4.36266e-06
4.38223e-06
4.39453e-06
4.39943e-06
4.39693e-06
4.3872e-06
4.37051e-06
4.34727e-06
4.31795e-06
4.2831e-06
4.24328e-06
4.19908e-06
4.15107e-06
4.0998e-06
4.04577e-06
3.98945e-06
3.93123e-06
3.87145e-06
3.81042e-06
3.74835e-06
3.68541e-06
3.62174e-06
3.55741e-06
3.49247e-06
3.42691e-06
3.36071e-06
3.29382e-06
3.22617e-06
3.15768e-06
3.08827e-06
3.01782e-06
2.94624e-06
2.87343e-06
2.79928e-06
2.72368e-06
2.64654e-06
2.56778e-06
2.48729e-06
2.405e-06
2.32083e-06
2.23473e-06
2.14661e-06
2.05643e-06
1.96414e-06
1.86968e-06
1.77303e-06
1.67413e-06
1.57296e-06
1.46949e-06
1.36369e-06
1.25553e-06
1.14499e-06
1.03204e-06
9.1666e-07
7.98835e-07
6.78543e-07
5.55765e-07
4.30487e-07
3.02697e-07
1.72395e-07
3.95506e-08
-9.59895e-08
-2.34054e-07
-3.72012e-07
-5.08737e-07
-6.82772e-07
-9.67304e-07
-8.57251e-07
3.5413e-06
3.5017e-06
3.46439e-06
3.4389e-06
3.42124e-06
3.41022e-06
3.40571e-06
3.40746e-06
3.41519e-06
3.42859e-06
3.44737e-06
3.47125e-06
3.49996e-06
3.5332e-06
3.57069e-06
3.61211e-06
3.65715e-06
3.70545e-06
3.75662e-06
3.81024e-06
3.86582e-06
3.92286e-06
3.98074e-06
4.03885e-06
4.09646e-06
4.15283e-06
4.20717e-06
4.25866e-06
4.30646e-06
4.34979e-06
4.38788e-06
4.42006e-06
4.44574e-06
4.46446e-06
4.47593e-06
4.47997e-06
4.47659e-06
4.46592e-06
4.44823e-06
4.4239e-06
4.3934e-06
4.35726e-06
4.31605e-06
4.27035e-06
4.22073e-06
4.16774e-06
4.11189e-06
4.05365e-06
3.99344e-06
3.93159e-06
3.86842e-06
3.80415e-06
3.73898e-06
3.67303e-06
3.60641e-06
3.53916e-06
3.47128e-06
3.40276e-06
3.33355e-06
3.26361e-06
3.19284e-06
3.12117e-06
3.04849e-06
2.97472e-06
2.89973e-06
2.82343e-06
2.74573e-06
2.66651e-06
2.5857e-06
2.5032e-06
2.41892e-06
2.3328e-06
2.24477e-06
2.15475e-06
2.0627e-06
1.96857e-06
1.8723e-06
1.77386e-06
1.6732e-06
1.57031e-06
1.46514e-06
1.35767e-06
1.24788e-06
1.13575e-06
1.02126e-06
9.04387e-07
7.85121e-07
6.63448e-07
5.39355e-07
4.12834e-07
2.8388e-07
1.52499e-07
1.86673e-08
-1.17768e-07
-2.56629e-07
-3.95217e-07
-5.32383e-07
-7.07599e-07
-9.95813e-07
-8.79731e-07
3.63872e-06
3.60014e-06
3.56379e-06
3.53894e-06
3.5217e-06
3.51092e-06
3.50647e-06
3.50813e-06
3.51562e-06
3.52866e-06
3.54696e-06
3.57026e-06
3.5983e-06
3.63081e-06
3.66748e-06
3.70805e-06
3.75217e-06
3.79951e-06
3.84969e-06
3.90229e-06
3.95684e-06
4.01281e-06
4.06964e-06
4.12668e-06
4.18324e-06
4.23857e-06
4.2919e-06
4.3424e-06
4.38926e-06
4.43167e-06
4.46889e-06
4.50023e-06
4.52509e-06
4.54303e-06
4.55371e-06
4.55696e-06
4.55275e-06
4.54122e-06
4.5226e-06
4.49728e-06
4.4657e-06
4.42839e-06
4.3859e-06
4.33881e-06
4.2877e-06
4.23312e-06
4.17558e-06
4.11556e-06
4.05347e-06
3.98968e-06
3.92449e-06
3.85815e-06
3.79085e-06
3.72275e-06
3.65393e-06
3.58447e-06
3.51437e-06
3.44362e-06
3.3722e-06
3.30004e-06
3.22707e-06
3.15322e-06
3.07839e-06
3.00247e-06
2.92538e-06
2.84701e-06
2.76725e-06
2.68602e-06
2.60322e-06
2.51876e-06
2.43256e-06
2.34455e-06
2.25465e-06
2.1628e-06
2.06894e-06
1.97303e-06
1.87501e-06
1.77485e-06
1.67251e-06
1.56796e-06
1.46117e-06
1.35212e-06
1.24079e-06
1.12716e-06
1.01121e-06
8.92927e-07
7.72307e-07
6.49339e-07
5.24016e-07
3.96333e-07
2.66292e-07
1.33903e-07
-8.54003e-10
-1.38132e-07
-2.77745e-07
-4.16936e-07
-5.54532e-07
-7.30882e-07
-1.02259e-06
-9.00877e-07
3.73204e-06
3.69442e-06
3.65898e-06
3.63473e-06
3.6179e-06
3.60736e-06
3.60298e-06
3.60457e-06
3.61185e-06
3.62455e-06
3.64241e-06
3.66517e-06
3.69258e-06
3.72437e-06
3.76028e-06
3.80001e-06
3.84324e-06
3.88965e-06
3.93887e-06
3.99046e-06
4.04399e-06
4.09893e-06
4.15471e-06
4.2107e-06
4.26623e-06
4.32054e-06
4.37287e-06
4.42241e-06
4.46834e-06
4.50988e-06
4.54625e-06
4.57677e-06
4.60086e-06
4.61804e-06
4.62798e-06
4.63049e-06
4.62552e-06
4.61319e-06
4.59373e-06
4.56749e-06
4.53492e-06
4.49653e-06
4.45287e-06
4.40451e-06
4.35202e-06
4.29596e-06
4.23685e-06
4.17516e-06
4.11132e-06
4.04569e-06
3.9786e-06
3.9103e-06
3.84099e-06
3.77083e-06
3.69993e-06
3.62835e-06
3.55613e-06
3.48325e-06
3.40969e-06
3.3354e-06
3.26032e-06
3.18436e-06
3.10744e-06
3.02947e-06
2.95034e-06
2.86996e-06
2.78822e-06
2.70503e-06
2.62031e-06
2.53395e-06
2.44589e-06
2.35604e-06
2.26434e-06
2.17071e-06
2.07511e-06
1.97749e-06
1.87779e-06
1.77598e-06
1.67203e-06
1.5659e-06
1.45757e-06
1.34701e-06
1.23421e-06
1.11916e-06
1.00183e-06
8.82224e-07
7.60332e-07
6.36149e-07
5.09672e-07
3.80902e-07
2.49843e-07
1.16511e-07
-1.9114e-08
-1.57184e-07
-2.9751e-07
-4.37278e-07
-5.75293e-07
-7.52732e-07
-1.04776e-06
-9.20776e-07
3.82136e-06
3.78466e-06
3.75007e-06
3.7264e-06
3.70996e-06
3.69965e-06
3.69535e-06
3.69688e-06
3.70397e-06
3.71636e-06
3.73381e-06
3.75606e-06
3.78287e-06
3.81399e-06
3.84915e-06
3.88807e-06
3.93045e-06
3.97596e-06
4.02423e-06
4.07486e-06
4.12738e-06
4.18131e-06
4.23606e-06
4.29103e-06
4.34554e-06
4.39886e-06
4.45022e-06
4.49882e-06
4.54385e-06
4.58451e-06
4.62007e-06
4.64981e-06
4.67316e-06
4.68963e-06
4.69886e-06
4.70067e-06
4.695e-06
4.68193e-06
4.66169e-06
4.63461e-06
4.60113e-06
4.56175e-06
4.51701e-06
4.46747e-06
4.41371e-06
4.35628e-06
4.2957e-06
4.23245e-06
4.16696e-06
4.09962e-06
4.03073e-06
3.96057e-06
3.88936e-06
3.81725e-06
3.74436e-06
3.67077e-06
3.59652e-06
3.5216e-06
3.44599e-06
3.36966e-06
3.29254e-06
3.21456e-06
3.13563e-06
3.05566e-06
2.97457e-06
2.89224e-06
2.80859e-06
2.72351e-06
2.63692e-06
2.54874e-06
2.45887e-06
2.36725e-06
2.27381e-06
2.17848e-06
2.0812e-06
1.98193e-06
1.88062e-06
1.77723e-06
1.67173e-06
1.56409e-06
1.45429e-06
1.3423e-06
1.22811e-06
1.11171e-06
9.93083e-07
8.72228e-07
7.49139e-07
6.23815e-07
4.96256e-07
3.66467e-07
2.34455e-07
1.00237e-07
-3.62029e-08
-1.7502e-07
-3.16021e-07
-4.5634e-07
-5.94764e-07
-7.73247e-07
-1.07143e-06
-9.39507e-07
3.90679e-06
3.87095e-06
3.83717e-06
3.81405e-06
3.79799e-06
3.7879e-06
3.78369e-06
3.78517e-06
3.79209e-06
3.80419e-06
3.82125e-06
3.84302e-06
3.86926e-06
3.89974e-06
3.93419e-06
3.97233e-06
4.01389e-06
4.05852e-06
4.10587e-06
4.15555e-06
4.2071e-06
4.26004e-06
4.3138e-06
4.36777e-06
4.42129e-06
4.47363e-06
4.52404e-06
4.57172e-06
4.61587e-06
4.6557e-06
4.69046e-06
4.71946e-06
4.7421e-06
4.75788e-06
4.76646e-06
4.76761e-06
4.76127e-06
4.74752e-06
4.72656e-06
4.69872e-06
4.6644e-06
4.6241e-06
4.57836e-06
4.52774e-06
4.4728e-06
4.4141e-06
4.35215e-06
4.28744e-06
4.22041e-06
4.15145e-06
4.08087e-06
4.00896e-06
3.93594e-06
3.86198e-06
3.7872e-06
3.7117e-06
3.6355e-06
3.55863e-06
3.48106e-06
3.40277e-06
3.32369e-06
3.24377e-06
3.16291e-06
3.08102e-06
2.99803e-06
2.91383e-06
2.82833e-06
2.74143e-06
2.65305e-06
2.56309e-06
2.47149e-06
2.37816e-06
2.28304e-06
2.18606e-06
2.08717e-06
1.98632e-06
1.88346e-06
1.77857e-06
1.67159e-06
1.56251e-06
1.45131e-06
1.33796e-06
1.22245e-06
1.10478e-06
9.84923e-07
8.62889e-07
7.38673e-07
6.12277e-07
4.83703e-07
3.52958e-07
2.20052e-07
8.50039e-08
-5.2202e-08
-1.91724e-07
-3.33364e-07
-4.74209e-07
-6.13028e-07
-7.92512e-07
-1.09368e-06
-9.57138e-07
3.98841e-06
3.95339e-06
3.92039e-06
3.89779e-06
3.88208e-06
3.87222e-06
3.86809e-06
3.86954e-06
3.8763e-06
3.88814e-06
3.90482e-06
3.92614e-06
3.95184e-06
3.9817e-06
4.01547e-06
4.05287e-06
4.09362e-06
4.13741e-06
4.18388e-06
4.23263e-06
4.28324e-06
4.33521e-06
4.388e-06
4.441e-06
4.49355e-06
4.54495e-06
4.59443e-06
4.64122e-06
4.68452e-06
4.72355e-06
4.75754e-06
4.78582e-06
4.80777e-06
4.82291e-06
4.83086e-06
4.8314e-06
4.82444e-06
4.81006e-06
4.78843e-06
4.75987e-06
4.72478e-06
4.68365e-06
4.63699e-06
4.58536e-06
4.52932e-06
4.46943e-06
4.40621e-06
4.34014e-06
4.27167e-06
4.20118e-06
4.12902e-06
4.05546e-06
3.98072e-06
3.905e-06
3.82843e-06
3.75111e-06
3.67306e-06
3.59432e-06
3.51488e-06
3.43471e-06
3.35376e-06
3.27196e-06
3.18925e-06
3.10552e-06
3.0207e-06
2.9347e-06
2.84741e-06
2.75876e-06
2.66865e-06
2.57699e-06
2.48372e-06
2.38875e-06
2.29201e-06
2.19345e-06
2.09302e-06
1.99065e-06
1.88631e-06
1.77997e-06
1.67159e-06
1.56114e-06
1.4486e-06
1.33396e-06
1.2172e-06
1.09832e-06
9.77306e-07
8.54162e-07
7.28886e-07
6.01482e-07
4.71955e-07
3.40313e-07
2.06569e-07
7.07416e-08
-6.71842e-08
-2.07369e-07
-3.49614e-07
-4.9096e-07
-6.30163e-07
-8.10601e-07
-1.1146e-06
-9.7373e-07
4.06633e-06
4.03208e-06
3.99981e-06
3.97771e-06
3.96234e-06
3.95269e-06
3.94866e-06
3.95007e-06
3.95668e-06
3.96827e-06
3.98462e-06
4.0055e-06
4.03069e-06
4.05996e-06
4.09307e-06
4.12975e-06
4.16974e-06
4.21271e-06
4.25832e-06
4.30619e-06
4.35588e-06
4.40692e-06
4.45876e-06
4.51082e-06
4.56243e-06
4.61291e-06
4.6615e-06
4.70743e-06
4.7499e-06
4.78814e-06
4.8214e-06
4.84898e-06
4.87028e-06
4.8848e-06
4.89216e-06
4.89212e-06
4.88459e-06
4.86961e-06
4.84737e-06
4.81815e-06
4.78235e-06
4.74044e-06
4.69293e-06
4.64037e-06
4.58332e-06
4.52233e-06
4.45792e-06
4.39058e-06
4.32075e-06
4.24883e-06
4.17517e-06
4.10005e-06
4.0237e-06
3.94632e-06
3.86804e-06
3.78898e-06
3.70918e-06