/*--------------------------------*- C++ -*----------------------------------*\
  =========                 |
  \\      /  F ield         | OpenFOAM: The Open Source CFD Toolbox
   \\    /   O peration     | Website:  https://openfoam.org
    \\  /    A nd           | Version:  11
     \\/     M anipulation  |
\*---------------------------------------------------------------------------*/
FoamFile
{
    format      ascii;
    class       volScalarField;
    location    "1002";
    object      p;
}
// * * * * * * * * * * * * * * * * * * * * * * * * * * * * * * * * * * * * * //

dimensions      [0 2 -2 0 0 0 0];

internalField   nonuniform List<scalar> 
10000
(
1.79297e-11
1.7503e-11
1.8304e-11
1.98471e-11
2.15989e-11
2.34457e-11
2.53888e-11
2.74323e-11
2.95795e-11
3.18365e-11
3.42108e-11
3.67109e-11
3.93454e-11
4.21234e-11
4.50545e-11
4.81484e-11
5.14154e-11
5.48659e-11
5.85109e-11
6.23615e-11
6.64294e-11
7.07265e-11
7.52653e-11
8.00585e-11
8.51195e-11
9.04619e-11
9.60999e-11
1.02048e-10
1.08321e-10
1.14935e-10
1.21906e-10
1.2925e-10
1.36983e-10
1.45124e-10
1.5369e-10
1.62699e-10
1.72169e-10
1.8212e-10
1.9257e-10
2.03538e-10
2.15045e-10
2.27109e-10
2.39751e-10
2.52991e-10
2.66847e-10
2.8134e-10
2.96488e-10
3.12311e-10
3.28826e-10
3.46051e-10
3.64002e-10
3.82695e-10
4.02144e-10
4.2236e-10
4.43356e-10
4.65139e-10
4.87715e-10
5.11088e-10
5.35256e-10
5.60217e-10
5.85962e-10
6.12477e-10
6.39745e-10
6.67741e-10
6.96432e-10
7.2578e-10
7.55736e-10
7.86241e-10
8.17226e-10
8.4861e-10
8.80296e-10
9.12172e-10
9.4411e-10
9.7596e-10
1.00755e-09
1.03869e-09
1.06915e-09
1.09868e-09
1.12698e-09
1.15374e-09
1.17857e-09
1.20106e-09
1.22072e-09
1.23703e-09
1.24936e-09
1.25704e-09
1.25927e-09
1.25517e-09
1.24375e-09
1.22385e-09
1.19418e-09
1.15322e-09
1.09922e-09
1.03004e-09
9.43071e-10
8.35186e-10
7.01812e-10
5.31026e-10
3.0449e-10
2.55551e-11
3.18715e-11
2.97385e-11
2.86512e-11
2.92716e-11
3.06224e-11
3.23348e-11
3.43216e-11
3.65381e-11
3.8955e-11
4.15581e-11
4.43424e-11
4.73082e-11
5.04591e-11
5.3801e-11
5.73415e-11
6.10895e-11
6.50548e-11
6.92481e-11
7.36808e-11
7.83649e-11
8.33132e-11
8.8539e-11
9.4056e-11
9.98786e-11
1.06022e-10
1.12501e-10
1.19333e-10
1.26533e-10
1.34119e-10
1.42108e-10
1.50518e-10
1.59369e-10
1.68678e-10
1.78466e-10
1.88753e-10
1.99558e-10
2.10902e-10
2.22807e-10
2.35293e-10
2.48381e-10
2.62094e-10
2.76452e-10
2.91478e-10
3.07192e-10
3.23615e-10
3.40768e-10
3.58672e-10
3.77344e-10
3.96804e-10
4.17069e-10
4.38155e-10
4.60076e-10
4.82845e-10
5.06472e-10
5.30965e-10
5.56328e-10
5.82565e-10
6.09671e-10
6.37642e-10
6.66464e-10
6.96123e-10
7.26593e-10
7.57846e-10
7.89842e-10
8.22536e-10
8.55869e-10
8.89775e-10
9.24172e-10
9.58966e-10
9.94046e-10
1.02929e-09
1.06454e-09
1.09963e-09
1.13438e-09
1.16855e-09
1.2019e-09
1.23414e-09
1.26495e-09
1.29396e-09
1.32076e-09
1.34488e-09
1.3658e-09
1.3829e-09
1.39554e-09
1.40293e-09
1.40423e-09
1.39848e-09
1.38456e-09
1.36124e-09
1.32709e-09
1.28049e-09
1.21955e-09
1.14204e-09
1.04527e-09
9.25985e-10
7.80784e-10
6.05051e-10
3.79911e-10
6.60374e-11
-2.14841e-10
3.66186e-11
3.33006e-11
3.07957e-11
3.01653e-11
3.04728e-11
3.13058e-11
3.25322e-11
3.40738e-11
3.58753e-11
3.79025e-11
4.01353e-11
4.25626e-11
4.51791e-11
4.79833e-11
5.09769e-11
5.41634e-11
5.75482e-11
6.11377e-11
6.49395e-11
6.89621e-11
7.32145e-11
7.77066e-11
8.24489e-11
8.74524e-11
9.27285e-11
9.82893e-11
1.04147e-10
1.10315e-10
1.16807e-10
1.23636e-10
1.30816e-10
1.38362e-10
1.46289e-10
1.54612e-10
1.63347e-10
1.72508e-10
1.82113e-10
1.92176e-10
2.02715e-10
2.13744e-10
2.25281e-10
2.37342e-10
2.49941e-10
2.63094e-10
2.76817e-10
2.91124e-10
3.06028e-10
3.21542e-10
3.3768e-10
3.5445e-10
3.71863e-10
3.89926e-10
4.08644e-10
4.28023e-10
4.48062e-10
4.6876e-10
4.90111e-10
5.12109e-10
5.34738e-10
5.57983e-10
5.81821e-10
6.06223e-10
6.31155e-10
6.56573e-10
6.82428e-10
7.08659e-10
7.35197e-10
7.61961e-10
7.88857e-10
8.15776e-10
8.42594e-10
8.6917e-10
8.95342e-10
9.20927e-10
9.45719e-10
9.69482e-10
9.91951e-10
1.01283e-09
1.03178e-09
1.04842e-09
1.06232e-09
1.07302e-09
1.07997e-09
1.08256e-09
1.08012e-09
1.07189e-09
1.057e-09
1.03448e-09
1.00324e-09
9.62012e-10
9.09377e-10
8.43685e-10
7.63003e-10
6.65002e-10
5.46995e-10
4.06698e-10
2.40745e-10
2.64743e-11
-2.77519e-10
-4.56879e-10
3.9908e-11
3.63939e-11
3.35699e-11
3.24153e-11
3.21912e-11
3.25515e-11
3.33687e-11
3.45571e-11
3.60518e-11
3.7809e-11
3.98002e-11
4.20073e-11
4.4419e-11
4.70292e-11
4.98355e-11
5.28383e-11
5.60398e-11
5.94441e-11
6.30565e-11
6.68834e-11
7.0932e-11
7.52104e-11
7.97272e-11
8.44917e-11
8.95139e-11
9.4804e-11
1.00373e-10
1.06232e-10
1.12392e-10
1.18867e-10
1.25667e-10
1.32806e-10
1.40296e-10
1.48151e-10
1.56383e-10
1.65008e-10
1.74037e-10
1.83485e-10
1.93365e-10
2.0369e-10
2.14475e-10
2.25732e-10
2.37473e-10
2.49712e-10
2.6246e-10
2.75728e-10
2.89526e-10
3.03863e-10
3.18749e-10
3.34189e-10
3.50188e-10
3.66751e-10
3.83878e-10
4.01568e-10
4.19819e-10
4.38623e-10
4.5797e-10
4.77847e-10
4.98235e-10
5.19112e-10
5.4045e-10
5.62214e-10
5.84364e-10
6.06852e-10
6.29621e-10
6.52605e-10
6.75729e-10
6.98905e-10
7.22033e-10
7.45e-10
7.67675e-10
7.89911e-10
8.11543e-10
8.32382e-10
8.52217e-10
8.7081e-10
8.87893e-10
9.03166e-10
9.16293e-10
9.26897e-10
9.34555e-10
9.38796e-10
9.39091e-10
9.3485e-10
9.25411e-10
9.10033e-10
8.87887e-10
8.58041e-10
8.19447e-10
7.70923e-10
7.11129e-10
6.38544e-10
5.51411e-10
4.47645e-10
3.24972e-10
1.81916e-10
1.59814e-11
-1.97739e-10
-4.97475e-10
-6.34496e-10
4.22034e-11
3.88946e-11
3.6104e-11
3.47413e-11
3.42372e-11
3.43203e-11
3.48839e-11
3.58479e-11
3.71475e-11
3.87362e-11
4.05819e-11
4.26622e-11
4.49623e-11
4.74729e-11
5.01889e-11
5.3108e-11
5.62305e-11
5.95586e-11
6.30958e-11
6.68471e-11
7.08183e-11
7.50161e-11
7.9448e-11
8.4122e-11
8.90468e-11
9.42316e-11
9.96861e-11
1.0542e-10
1.11445e-10
1.1777e-10
1.24407e-10
1.31367e-10
1.38662e-10
1.46304e-10
1.54304e-10
1.62674e-10
1.71426e-10
1.80572e-10
1.90124e-10
2.00094e-10
2.10492e-10
2.21329e-10
2.32617e-10
2.44365e-10
2.56583e-10
2.69279e-10
2.8246e-10
2.96133e-10
3.10303e-10
3.24973e-10
3.40146e-10
3.55822e-10
3.71997e-10
3.88668e-10
4.05827e-10
4.23462e-10
4.4156e-10
4.60102e-10
4.79065e-10
4.98422e-10
5.1814e-10
5.38177e-10
5.58489e-10
5.79022e-10
5.99712e-10
6.20487e-10
6.41267e-10
6.61955e-10
6.82447e-10
7.02621e-10
7.2234e-10
7.4145e-10
7.59777e-10
7.77128e-10
7.93283e-10
8.07998e-10
8.21e-10
8.31982e-10
8.40603e-10
8.46483e-10
8.49197e-10
8.48271e-10
8.43181e-10
8.33339e-10
8.18093e-10
7.96716e-10
7.684e-10
7.32243e-10
6.8724e-10
6.3227e-10
5.66082e-10
4.87277e-10
3.94276e-10
2.85245e-10
1.58302e-10
1.27767e-11
-1.52814e-10
-3.66104e-10
-6.71782e-10
-7.6883e-10
4.35574e-11
4.05323e-11
3.78689e-11
3.64221e-11
3.57483e-11
3.5637e-11
3.60041e-11
3.678e-11
3.7905e-11
3.9334e-11
4.10338e-11
4.29805e-11
4.51573e-11
4.75526e-11
5.01591e-11
5.29727e-11
5.59919e-11
5.92172e-11
6.26507e-11
6.62958e-11
7.01569e-11
7.42396e-11
7.855e-11
8.30949e-11
8.78819e-11
9.29189e-11
9.82143e-11
1.03777e-10
1.09616e-10
1.15741e-10
1.22161e-10
1.28887e-10
1.35929e-10
1.43297e-10
1.51e-10
1.5905e-10
1.67456e-10
1.76229e-10
1.85379e-10
1.94915e-10
2.04846e-10
2.15182e-10
2.2593e-10
2.37099e-10
2.48694e-10
2.60723e-10
2.73189e-10
2.86097e-10
2.99448e-10
3.13243e-10
3.27481e-10
3.42159e-10
3.57269e-10
3.72805e-10
3.88754e-10
4.05103e-10
4.21831e-10
4.38918e-10
4.56335e-10
4.74051e-10
4.92028e-10
5.1022e-10
5.28577e-10
5.47041e-10
5.65543e-10
5.84006e-10
6.02343e-10
6.20455e-10
6.3823e-10
6.55542e-10
6.72249e-10
6.88193e-10
7.03196e-10
7.17058e-10
7.29559e-10
7.4045e-10
7.49456e-10
7.5627e-10
7.60552e-10
7.61924e-10
7.59964e-10
7.54209e-10
7.44141e-10
7.2919e-10
7.08724e-10
6.82045e-10
6.4838e-10
6.06878e-10
5.56599e-10
4.96509e-10
4.25473e-10
3.42256e-10
2.45496e-10
1.33643e-10
5.24224e-12
-1.39496e-10
-3.00825e-10
-5.09863e-10
-8.27435e-10
-8.72387e-10
4.42611e-11
4.15136e-11
3.90126e-11
3.75559e-11
3.67885e-11
3.65464e-11
3.67662e-11
3.73898e-11
3.83644e-11
3.96483e-11
4.12097e-11
4.30245e-11
4.50749e-11
4.73483e-11
4.9836e-11
5.25324e-11
5.54346e-11
5.85416e-11
6.18542e-11
6.53746e-11
6.9106e-11
7.30525e-11
7.72191e-11
8.16116e-11
8.62362e-11
9.10996e-11
9.62091e-11
1.01572e-10
1.07197e-10
1.13091e-10
1.19264e-10
1.25723e-10
1.32477e-10
1.39536e-10
1.46907e-10
1.54599e-10
1.62621e-10
1.70982e-10
1.79688e-10
1.88749e-10
1.98171e-10
2.07961e-10
2.18125e-10
2.28668e-10
2.39595e-10
2.5091e-10
2.62614e-10
2.74708e-10
2.87192e-10
3.00063e-10
3.13318e-10
3.26948e-10
3.40946e-10
3.55299e-10
3.69993e-10
3.85009e-10
4.00326e-10
4.15916e-10
4.31749e-10
4.47788e-10
4.63992e-10
4.80312e-10
4.96693e-10
5.13071e-10
5.29376e-10
5.45525e-10
5.61428e-10
5.76981e-10
5.92069e-10
6.06562e-10
6.20315e-10
6.33168e-10
6.44939e-10
6.55429e-10
6.64414e-10
6.71647e-10
6.76855e-10
6.79733e-10
6.79945e-10
6.7712e-10
6.70848e-10
6.60677e-10
6.46108e-10
6.26592e-10
6.01526e-10
5.70251e-10
5.3204e-10
4.86103e-10
4.31579e-10
3.67535e-10
2.92969e-10
2.06819e-10
1.07952e-10
-4.88743e-12
-1.32748e-10
-2.74573e-10
-4.29297e-10
-6.30729e-10
-9.55943e-10
-9.55608e-10
4.45113e-11
4.20114e-11
3.96811e-11
3.82581e-11
3.74498e-11
3.71264e-11
3.72414e-11
3.77471e-11
3.85982e-11
3.97571e-11
4.11944e-11
4.28868e-11
4.48169e-11
4.69713e-11
4.93406e-11
5.19184e-11
5.47005e-11
5.76851e-11
6.08717e-11
6.42613e-11
6.7856e-11
7.16588e-11
7.56738e-11
7.99054e-11
8.43587e-11
8.90394e-11
9.39536e-11
9.91075e-11
1.04508e-10
1.10162e-10
1.16076e-10
1.22258e-10
1.28715e-10
1.35454e-10
1.42482e-10
1.49807e-10
1.57435e-10
1.65374e-10
1.73628e-10
1.82205e-10
1.9111e-10
2.00347e-10
2.0992e-10
2.19832e-10
2.30086e-10
2.40683e-10
2.51623e-10
2.62903e-10
2.74521e-10
2.86472e-10
2.98748e-10
3.11339e-10
3.24234e-10
3.37419e-10
3.50874e-10
3.64578e-10
3.78507e-10
3.9263e-10
4.06912e-10
4.21315e-10
4.35792e-10
4.50292e-10
4.64756e-10
4.79117e-10
4.93301e-10
5.07223e-10
5.20789e-10
5.33892e-10
5.46414e-10
5.58225e-10
5.69176e-10
5.79106e-10
5.87834e-10
5.95159e-10
6.0086e-10
6.04692e-10
6.06385e-10
6.0564e-10
6.02129e-10
5.95492e-10
5.8533e-10
5.7121e-10
5.52654e-10
5.2914e-10
5.001e-10
4.64915e-10
4.22913e-10
3.7337e-10
3.15507e-10
2.48496e-10
1.71466e-10
8.35221e-11
-1.62539e-11
-1.28856e-10
-2.54986e-10
-3.92912e-10
-5.40452e-10
-7.33046e-10
-1.0593e-09
-1.03006e-09
4.44083e-11
4.21235e-11
3.99576e-11
3.85916e-11
3.77755e-11
3.7405e-11
3.74465e-11
3.78619e-11
3.8612e-11
3.96638e-11
4.09904e-11
4.25703e-11
4.43864e-11
4.64257e-11
4.86785e-11
5.11376e-11
5.37983e-11
5.66577e-11
5.97145e-11
6.29687e-11
6.64215e-11
7.0075e-11
7.39319e-11
7.79959e-11
8.22708e-11
8.67615e-11
9.14726e-11
9.64095e-11
1.01578e-10
1.06983e-10
1.12631e-10
1.18528e-10
1.24679e-10
1.31091e-10
1.37769e-10
1.44719e-10
1.51947e-10
1.59457e-10
1.67253e-10
1.75341e-10
1.83723e-10
1.92403e-10
2.01382e-10
2.10661e-10
2.20242e-10
2.30121e-10
2.40298e-10
2.50768e-10
2.61526e-10
2.72563e-10
2.8387e-10
2.95435e-10
3.07243e-10
3.19276e-10
3.31515e-10
3.43933e-10
3.56504e-10
3.69193e-10
3.81965e-10
3.94776e-10
4.07578e-10
4.20316e-10
4.32928e-10
4.45346e-10
4.57491e-10
4.69278e-10
4.80609e-10
4.91376e-10
5.01461e-10
5.10729e-10
5.19034e-10
5.26214e-10
5.32089e-10
5.36459e-10
5.39108e-10
5.39793e-10
5.38251e-10
5.34192e-10
5.27297e-10
5.17218e-10
5.03575e-10
4.85951e-10
4.63896e-10
4.36918e-10
4.04485e-10
3.66023e-10
3.20916e-10
2.68508e-10
2.08101e-10
1.38967e-10
6.03581e-11
-2.847e-11
-1.28256e-10
-2.39786e-10
-3.63512e-10
-4.97263e-10
-6.38248e-10
-8.23621e-10
-1.14946e-09
-1.10144e-09
4.40101e-11
4.19151e-11
3.99036e-11
3.86049e-11
3.78012e-11
3.74067e-11
3.73979e-11
3.77437e-11
3.84108e-11
3.93701e-11
4.05975e-11
4.20733e-11
4.37816e-11
4.57096e-11
4.78476e-11
5.01883e-11
5.27263e-11
5.54582e-11
5.8382e-11
6.14968e-11
6.48029e-11
6.83015e-11
7.19946e-11
7.58845e-11
7.99745e-11
8.4268e-11
8.87689e-11
9.34815e-11
9.84099e-11
1.03559e-10
1.08933e-10
1.14537e-10
1.20375e-10
1.26453e-10
1.32774e-10
1.39342e-10
1.46162e-10
1.53237e-10
1.6057e-10
1.68163e-10
1.76018e-10
1.84137e-10
1.92519e-10
2.01164e-10
2.1007e-10
2.19234e-10
2.2865e-10
2.38314e-10
2.48216e-10
2.58348e-10
2.68696e-10
2.79247e-10
2.89984e-10
3.00885e-10
3.11929e-10
3.23087e-10
3.34329e-10
3.45621e-10
3.56921e-10
3.68185e-10
3.79362e-10
3.90396e-10
4.01222e-10
4.11769e-10
4.21957e-10
4.31699e-10
4.40896e-10
4.49439e-10
4.57209e-10
4.64073e-10
4.69884e-10
4.74482e-10
4.77687e-10
4.79307e-10
4.79126e-10
4.7691e-10
4.72403e-10
4.65323e-10
4.55367e-10
4.42199e-10
4.25457e-10
4.0475e-10
3.7965e-10
3.497e-10
3.14407e-10
2.73243e-10
2.25646e-10
1.71027e-10
1.08766e-10
3.82282e-11
-4.12255e-11
-1.30213e-10
-2.29328e-10
-3.39203e-10
-4.60125e-10
-5.89652e-10
-7.24731e-10
-9.04487e-10
-1.23107e-09
-1.1661e-09
4.33571e-11
4.14343e-11
3.95672e-11
3.83406e-11
3.7562e-11
3.71595e-11
3.7117e-11
3.74091e-11
3.80073e-11
3.88862e-11
4.00242e-11
4.14036e-11
4.30095e-11
4.48299e-11
4.68553e-11
4.90782e-11
5.1493e-11
5.40959e-11
5.68841e-11
5.98562e-11
6.30117e-11
6.63511e-11
6.98752e-11
7.35859e-11
7.74852e-11
8.15757e-11
8.58604e-11
9.03422e-11
9.50247e-11
9.99111e-11
1.05005e-10
1.1031e-10
1.15829e-10
1.21566e-10
1.27524e-10
1.33706e-10
1.40113e-10
1.46749e-10
1.53614e-10
1.60709e-10
1.68036e-10
1.75592e-10
1.83377e-10
1.91388e-10
1.99621e-10
2.08071e-10
2.16732e-10
2.25596e-10
2.34651e-10
2.43888e-10
2.53291e-10
2.62843e-10
2.72526e-10
2.82317e-10
2.92191e-10
3.02117e-10
3.12065e-10
3.21995e-10
3.31866e-10
3.41632e-10
3.51239e-10
3.60628e-10
3.69735e-10
3.78486e-10
3.86801e-10
3.9459e-10
4.01756e-10
4.08189e-10
4.1377e-10
4.18367e-10
4.21835e-10
4.24016e-10
4.24736e-10
4.23803e-10
4.21012e-10
4.16133e-10
4.08921e-10
3.99105e-10
3.86395e-10
3.70473e-10
3.50996e-10
3.27596e-10
2.99876e-10
2.67408e-10
2.29741e-10
1.86391e-10
1.36853e-10
8.05964e-11
1.70762e-11
-5.42603e-11
-1.33957e-10
-2.22528e-10
-3.20451e-10
-4.28249e-10
-5.46092e-10
-6.71351e-10
-8.00812e-10
-9.75264e-10
-1.30132e-09
-1.21962e-09
4.24816e-11
4.07205e-11
3.89892e-11
3.78351e-11
3.7089e-11
3.66895e-11
3.66255e-11
3.68761e-11
3.74165e-11
3.82248e-11
3.92818e-11
4.05715e-11
4.20801e-11
4.37965e-11
4.57115e-11
4.78176e-11
5.01093e-11
5.25821e-11
5.5233e-11
5.80599e-11
6.10618e-11
6.42383e-11
6.75896e-11
7.11167e-11
7.48208e-11
7.87036e-11
8.2767e-11
8.70132e-11
9.14445e-11
9.60634e-11
1.00872e-10
1.05873e-10
1.11069e-10
1.16461e-10
1.22052e-10
1.27843e-10
1.33835e-10
1.40028e-10
1.46424e-10
1.53021e-10
1.59817e-10
1.66812e-10
1.74001e-10
1.8138e-10
1.88945e-10
1.96688e-10
2.046e-10
2.12673e-10
2.20893e-10
2.29248e-10
2.37721e-10
2.46293e-10
2.54944e-10
2.63648e-10
2.7238e-10
2.81107e-10
2.89795e-10
2.98405e-10
3.06893e-10
3.1521e-10
3.23303e-10
3.31112e-10
3.38569e-10
3.45601e-10
3.52128e-10
3.5806e-10
3.63299e-10
3.67736e-10
3.71253e-10
3.7372e-10
3.74996e-10
3.74925e-10
3.73337e-10
3.70049e-10
3.64859e-10
3.57549e-10
3.47882e-10
3.35602e-10
3.20431e-10
3.02071e-10
2.802e-10
2.54473e-10
2.24521e-10
1.89952e-10
1.50351e-10
1.0528e-10
5.42824e-11
-3.11204e-12
-6.73836e-11
-1.39012e-10
-2.18461e-10
-3.06156e-10
-4.02489e-10
-5.07898e-10
-6.22473e-10
-7.43443e-10
-8.67471e-10
-1.03668e-09
-1.36113e-09
-1.26408e-09
4.14234e-11
3.98077e-11
3.82012e-11
3.71182e-11
3.6409e-11
3.60199e-11
3.59433e-11
3.61616e-11
3.66532e-11
3.7399e-11
3.8382e-11
3.95877e-11
4.10038e-11
4.26196e-11
4.44264e-11
4.64171e-11
4.85858e-11
5.09281e-11
5.34405e-11
5.61205e-11
5.89664e-11
6.19773e-11
6.51528e-11
6.84929e-11
7.19981e-11
7.56694e-11
7.95077e-11
8.35143e-11
8.76907e-11
9.20381e-11
9.65581e-11
1.01252e-10
1.06121e-10
1.11165e-10
1.16386e-10
1.21784e-10
1.27359e-10
1.3311e-10
1.39035e-10
1.45134e-10
1.51402e-10
1.57838e-10
1.64434e-10
1.71187e-10
1.7809e-10
1.85132e-10
1.92306e-10
1.99598e-10
2.06997e-10
2.14485e-10
2.22046e-10
2.29659e-10
2.37301e-10
2.44946e-10
2.52566e-10
2.60127e-10
2.67594e-10
2.74926e-10
2.82078e-10
2.89001e-10
2.95639e-10
3.01931e-10
3.0781e-10
3.13203e-10
3.18029e-10
3.22198e-10
3.25613e-10
3.28168e-10
3.29746e-10
3.3022e-10
3.29451e-10
3.27289e-10
3.23569e-10
3.18114e-10
3.10731e-10
3.01211e-10
2.89329e-10
2.74842e-10
2.57488e-10
2.36986e-10
2.13037e-10
1.8532e-10
1.53495e-10
1.17202e-10
7.60626e-11
2.96814e-11
-2.23504e-11
-8.0451e-11
-1.45042e-10
-2.16539e-10
-2.95338e-10
-3.81795e-10
-4.76231e-10
-5.79021e-10
-6.90199e-10
-8.06883e-10
-9.2564e-10
-1.08967e-09
-1.4118e-09
-1.30101e-09
4.02149e-11
3.87223e-11
3.72273e-11
3.62125e-11
3.55433e-11
3.51703e-11
3.50882e-11
3.52815e-11
3.57316e-11
3.64216e-11
3.73366e-11
3.84636e-11
3.97912e-11
4.13096e-11
4.30106e-11
4.48872e-11
4.69337e-11
4.91454e-11
5.15187e-11
5.40505e-11
5.67388e-11
5.95821e-11
6.25793e-11
6.57299e-11
6.90336e-11
7.24905e-11
7.61008e-11
7.9865e-11
8.37835e-11
8.78568e-11
9.20854e-11
9.64695e-11
1.01009e-10
1.05704e-10
1.10555e-10
1.15559e-10
1.20717e-10
1.26025e-10
1.31482e-10
1.37085e-10
1.42828e-10
1.48708e-10
1.54718e-10
1.60851e-10
1.67098e-10
1.73451e-10
1.79896e-10
1.86422e-10
1.93014e-10
1.99653e-10
2.06322e-10
2.12998e-10
2.19657e-10
2.26272e-10
2.32812e-10
2.39244e-10
2.4553e-10
2.51628e-10
2.57494e-10
2.63075e-10
2.68318e-10
2.73159e-10
2.77534e-10
2.81366e-10
2.84577e-10
2.87079e-10
2.88774e-10
2.8956e-10
2.89321e-10
2.87935e-10
2.85266e-10
2.81169e-10
2.75487e-10
2.68048e-10
2.58668e-10
2.4715e-10
2.3328e-10
2.16829e-10
1.97551e-10
1.75184e-10
1.4945e-10
1.20053e-10
8.66808e-11
4.9004e-11
6.67973e-12
-4.06477e-11
-9.33437e-11
-1.51779e-10
-2.16323e-10
-2.87337e-10
-3.6516e-10
-4.5009e-10
-5.42392e-10
-6.42395e-10
-7.50089e-10
-8.62509e-10
-9.76143e-10
-1.13506e-09
-1.45429e-09
-1.33131e-09
3.88606e-11
3.74705e-11
3.60793e-11
3.51345e-11
3.45095e-11
3.41583e-11
3.40765e-11
3.42511e-11
3.46658e-11
3.53058e-11
3.6158e-11
3.72106e-11
3.84535e-11
3.98775e-11
4.14749e-11
4.3239e-11
4.51642e-11
4.72456e-11
4.94795e-11
5.18625e-11
5.43922e-11
5.70666e-11
5.9884e-11
6.28432e-11
6.59434e-11
6.9184e-11
7.25644e-11
7.60842e-11
7.9743e-11
8.35405e-11
8.74762e-11
9.15495e-11
9.57595e-11
1.00105e-10
1.04585e-10
1.09196e-10
1.13938e-10
1.18806e-10
1.23797e-10
1.28906e-10
1.34129e-10
1.39459e-10
1.44889e-10
1.5041e-10
1.56013e-10
1.61686e-10
1.67417e-10
1.73192e-10
1.78993e-10
1.84803e-10
1.90601e-10
1.96364e-10
2.02068e-10
2.07682e-10
2.13177e-10
2.18516e-10
2.23663e-10
2.28574e-10
2.33203e-10
2.37499e-10
2.41407e-10
2.44865e-10
2.47806e-10
2.50158e-10
2.51841e-10
2.52769e-10
2.52848e-10
2.51975e-10
2.50039e-10
2.46922e-10
2.42494e-10
2.36614e-10
2.29131e-10
2.19883e-10
2.08695e-10
1.95379e-10
1.79735e-10
1.61547e-10
1.40587e-10
1.16611e-10
8.93627e-11
5.85686e-11
2.39434e-11
-1.48114e-11
-5.8006e-11
-1.0596e-10
-1.58998e-10
-2.1745e-10
-2.81638e-10
-3.51877e-10
-4.28459e-10
-5.11632e-10
-6.0162e-10
-6.98714e-10
-8.02873e-10
-9.11064e-10
-1.01972e-09
-1.17358e-09
-1.48941e-09
-1.35567e-09
3.73721e-11
3.60628e-11
3.47733e-11
3.39024e-11
3.33259e-11
3.30014e-11
3.29249e-11
3.30857e-11
3.34699e-11
3.40647e-11
3.48584e-11
3.58408e-11
3.70023e-11
3.83347e-11
3.98307e-11
4.14839e-11
4.32888e-11
4.52406e-11
4.73352e-11
4.95693e-11
5.19399e-11
5.44446e-11
5.70812e-11
5.98481e-11
6.27437e-11
6.57668e-11
6.89161e-11
7.21904e-11
7.55888e-11
7.91098e-11
8.27523e-11
8.65146e-11
9.0395e-11
9.43915e-11
9.85015e-11
1.02722e-10
1.0705e-10
1.11481e-10
1.1601e-10
1.20632e-10
1.2534e-10
1.30128e-10
1.34986e-10
1.39905e-10
1.44874e-10
1.49881e-10
1.54912e-10
1.5995e-10
1.6498e-10
1.69981e-10
1.74932e-10
1.79809e-10
1.84585e-10
1.89231e-10
1.93715e-10
1.98001e-10
2.0205e-10
2.05821e-10
2.09265e-10
2.12332e-10
2.14966e-10
2.17107e-10
2.18688e-10
2.19638e-10
2.19879e-10
2.19326e-10
2.17887e-10
2.15464e-10
2.1195e-10
2.07228e-10
2.01175e-10
1.93657e-10
1.8453e-10
1.73639e-10
1.6082e-10
1.45896e-10
1.28678e-10
1.08967e-10
8.65495e-11
6.12007e-11
3.26836e-11
7.49224e-13
-3.48627e-11
-7.44225e-11
-1.1821e-10
-1.6651e-10
-2.19613e-10
-2.77808e-10
-3.41381e-10
-4.10605e-10
-4.8573e-10
-5.66967e-10
-6.54504e-10
-7.48604e-10
-8.492e-10
-9.53212e-10
-1.05702e-09
-1.2059e-09
-1.51789e-09
-1.37469e-09
3.57929e-11
3.45274e-11
3.33349e-11
3.25396e-11
3.20137e-11
3.17184e-11
3.16504e-11
3.1801e-11
3.21585e-11
3.27118e-11
3.34508e-11
3.43661e-11
3.54492e-11
3.66925e-11
3.80893e-11
3.96333e-11
4.13192e-11
4.31422e-11
4.50983e-11
4.71837e-11
4.93952e-11
5.173e-11
5.41856e-11
5.67598e-11
5.94504e-11
6.22556e-11
6.51735e-11
6.82023e-11
7.134e-11
7.45849e-11
7.79346e-11
8.13869e-11
8.49391e-11
8.85883e-11
9.23311e-11
9.61636e-11
1.00081e-10
1.0408e-10
1.08152e-10
1.12293e-10
1.16494e-10
1.20747e-10
1.25043e-10
1.29371e-10
1.33719e-10
1.38073e-10
1.42419e-10
1.46741e-10
1.51019e-10
1.55233e-10
1.59361e-10
1.63378e-10
1.67257e-10
1.70967e-10
1.74477e-10
1.77749e-10
1.80745e-10
1.83422e-10
1.85732e-10
1.87627e-10
1.89049e-10
1.89939e-10
1.90232e-10
1.89858e-10
1.88741e-10
1.86798e-10
1.8394e-10
1.80073e-10
1.75092e-10
1.68887e-10
1.6134e-10
1.52323e-10
1.417e-10
1.29324e-10
1.15042e-10
9.86867e-11
8.00834e-11
5.90459e-11
3.53777e-11
8.87181e-12
-2.06889e-11
-5.35314e-11
-8.98918e-11
-1.30014e-10
-1.74149e-10
-2.22552e-10
-2.7548e-10
-3.33189e-10
-3.95929e-10
-4.63939e-10
-5.37435e-10
-6.16597e-10
-7.01582e-10
-7.9263e-10
-8.89658e-10
-9.8955e-10
-1.08866e-09
-1.23261e-09
-1.54038e-09
-1.38887e-09
3.41296e-11
3.28895e-11
3.17894e-11
3.1069e-11
3.05932e-11
3.03273e-11
3.02693e-11
3.0412e-11
3.07457e-11
3.12605e-11
3.19477e-11
3.27988e-11
3.38062e-11
3.49628e-11
3.62623e-11
3.76988e-11
3.92672e-11
4.09627e-11
4.2781e-11
4.47184e-11
4.67714e-11
4.89368e-11
5.12117e-11
5.35933e-11
5.60793e-11
5.86669e-11
6.13539e-11
6.41377e-11
6.70158e-11
6.99855e-11
7.30439e-11
7.6188e-11
7.94143e-11
8.27191e-11
8.6098e-11
8.95464e-11
9.30591e-11
9.66299e-11
1.00252e-10
1.03919e-10
1.07621e-10
1.1135e-10
1.15094e-10
1.18843e-10
1.22584e-10
1.26301e-10
1.2998e-10
1.33602e-10
1.3715e-10
1.406e-10
1.43931e-10
1.47117e-10
1.50129e-10
1.52938e-10
1.55509e-10
1.57808e-10
1.59794e-10
1.61425e-10
1.62654e-10
1.63431e-10
1.63702e-10
1.63408e-10
1.62484e-10
1.60863e-10
1.5847e-10
1.55225e-10
1.51044e-10
1.45834e-10
1.39496e-10
1.31925e-10
1.23008e-10
1.12625e-10
1.00646e-10
8.69347e-11
7.13461e-11
5.37259e-11
3.39111e-11
1.17298e-11
-1.29989e-11
-4.04646e-11
-7.08653e-11
-1.04407e-10
-1.41303e-10
-1.81773e-10
-2.26042e-10
-2.74336e-10
-3.26884e-10
-3.83912e-10
-4.45639e-10
-5.12274e-10
-5.84004e-10
-6.60982e-10
-7.43343e-10
-8.31308e-10
-9.24779e-10
-1.02062e-09
-1.11515e-09
-1.25425e-09
-1.55744e-09
-1.3987e-09
3.23218e-11
3.11774e-11
3.0165e-11
2.95105e-11
2.90814e-11
2.88441e-11
2.87966e-11
2.89331e-11
2.92449e-11
2.97237e-11
3.03616e-11
3.1151e-11
3.2085e-11
3.31572e-11
3.43615e-11
3.56923e-11
3.71448e-11
3.87141e-11
4.03959e-11
4.21864e-11
4.40817e-11
4.60786e-11
4.81736e-11
5.03637e-11
5.26458e-11
5.50169e-11
5.74742e-11
6.00144e-11
6.26344e-11
6.5331e-11
6.81004e-11
7.09391e-11
7.38426e-11
7.68067e-11
7.98261e-11
8.28954e-11
8.60086e-11
8.91587e-11
9.23384e-11
9.55393e-11
9.87522e-11
1.01967e-10
1.05172e-10
1.08355e-10
1.11503e-10
1.146e-10
1.17629e-10
1.20573e-10
1.23411e-10
1.26122e-10
1.28682e-10
1.31065e-10
1.33242e-10
1.35184e-10
1.36855e-10
1.38221e-10
1.39241e-10
1.39874e-10
1.40073e-10
1.3979e-10
1.38969e-10
1.37555e-10
1.35484e-10
1.3269e-10
1.29102e-10
1.24643e-10
1.1923e-10
1.12775e-10
1.05185e-10
9.63598e-11
8.61914e-11
7.45667e-11
6.13648e-11
4.64579e-11
2.97103e-11
1.09793e-11
-9.88583e-12
-3.30432e-11
-5.86586e-11
-8.69049e-11
-1.17962e-10
-1.52016e-10
-1.89259e-10
-2.29888e-10
-2.74103e-10
-3.22107e-10
-3.74101e-10
-4.30284e-10
-4.90849e-10
-5.55979e-10
-6.25836e-10
-7.00551e-10
-7.80239e-10
-8.65107e-10
-9.55045e-10
-1.0469e-09
-1.137e-09
-1.2713e-09
-1.56962e-09
-1.40459e-09
3.03899e-11
2.93936e-11
2.84718e-11
2.78764e-11
2.74912e-11
2.72817e-11
2.72455e-11
2.7377e-11
2.76689e-11
2.81137e-11
2.87045e-11
2.94345e-11
3.02974e-11
3.12872e-11
3.23983e-11
3.36254e-11
3.49637e-11
3.64084e-11
3.79553e-11
3.96002e-11
4.13394e-11
4.3169e-11
4.50855e-11
4.70854e-11
4.91653e-11
5.13216e-11
5.3551e-11
5.58497e-11
5.82141e-11
6.06401e-11
6.31238e-11
6.56605e-11
6.82454e-11
7.08733e-11
7.35384e-11
7.62346e-11
7.89549e-11
8.16919e-11
8.44372e-11
8.71819e-11
8.99158e-11
9.26281e-11
9.53067e-11
9.79385e-11
1.00509e-10
1.03002e-10
1.05401e-10
1.07687e-10
1.0984e-10
1.11836e-10
1.13652e-10
1.15262e-10
1.16636e-10
1.17745e-10
1.18554e-10
1.19027e-10
1.19126e-10
1.18809e-10
1.18029e-10
1.1674e-10
1.14887e-10
1.12416e-10
1.09267e-10
1.05374e-10
1.00668e-10
9.50769e-11
8.85211e-11
8.09169e-11
7.2175e-11
6.22007e-11
5.08932e-11
3.81458e-11
2.38456e-11
7.87358e-12
-9.89596e-12
-2.9595e-11
-5.13621e-11
-7.5342e-11
-1.01686e-10
-1.30551e-10
-1.62099e-10
-1.96499e-10
-2.33923e-10
-2.74545e-10
-3.18545e-10
-3.66102e-10
-4.17394e-10
-4.72596e-10
-5.31878e-10
-5.95399e-10
-6.63302e-10
-7.35698e-10
-8.12685e-10
-8.94458e-10
-9.80899e-10
-1.06885e-09
-1.15464e-09
-1.28423e-09
-1.57739e-09
-1.40694e-09
2.84007e-11
2.75323e-11
2.67081e-11
2.61748e-11
2.58334e-11
2.56521e-11
2.5628e-11
2.5756e-11
2.60296e-11
2.64425e-11
2.69882e-11
2.76609e-11
2.84548e-11
2.93644e-11
3.03844e-11
3.15097e-11
3.27357e-11
3.40577e-11
3.54714e-11
3.69726e-11
3.85573e-11
4.02215e-11
4.19613e-11
4.3773e-11
4.56527e-11
4.75965e-11
4.96005e-11
5.16605e-11
5.37723e-11
5.59313e-11
5.81329e-11
6.0372e-11
6.26431e-11
6.49403e-11
6.72572e-11
6.9587e-11
7.1922e-11
7.42541e-11
7.65744e-11
7.8873e-11
8.11394e-11
8.33618e-11
8.55276e-11
8.7623e-11
8.96329e-11
9.1541e-11
9.33294e-11
9.4979e-11
9.64686e-11
9.77758e-11
9.88758e-11
9.97422e-11
1.00346e-10
1.00657e-10
1.00641e-10
1.00263e-10
9.94845e-11
9.82635e-11
9.65561e-11
9.43149e-11
9.14889e-11
8.80238e-11
8.38615e-11
7.89399e-11
7.31928e-11
6.65499e-11
5.89363e-11
5.02724e-11
4.04739e-11
2.94514e-11
1.71107e-11
3.35193e-12
-1.19299e-11
-2.88452e-11
-4.75098e-11
-6.80452e-11
-9.05781e-11
-1.15241e-10
-1.4217e-10
-1.71507e-10
-2.034e-10
-2.37998e-10
-2.75455e-10
-3.15928e-10
-3.59573e-10
-4.06551e-10
-4.57017e-10
-5.11126e-10
-5.69028e-10
-6.30861e-10
-6.96749e-10
-7.66788e-10
-8.41062e-10
-9.19757e-10
-1.00275e-09
-1.08688e-09
-1.16848e-09
-1.29342e-09
-1.58121e-09
-1.40612e-09
2.63671e-11
2.56143e-11
2.48881e-11
2.44177e-11
2.41204e-11
2.39675e-11
2.39562e-11
2.4082e-11
2.4339e-11
2.47215e-11
2.52242e-11
2.58417e-11
2.65686e-11
2.74e-11
2.8331e-11
2.93566e-11
3.04723e-11
3.16737e-11
3.29563e-11
3.43158e-11
3.57482e-11
3.72492e-11
3.88147e-11
4.04406e-11
4.21228e-11
4.38569e-11
4.56385e-11
4.74631e-11
4.93261e-11
5.12222e-11
5.31464e-11
5.50929e-11
5.70557e-11
5.90283e-11
6.10038e-11
6.29747e-11
6.49328e-11
6.68692e-11
6.87745e-11
7.06382e-11
7.24491e-11
7.41949e-11
7.58623e-11
7.74372e-11
7.89037e-11
8.02452e-11
8.14435e-11
8.24787e-11
8.33297e-11
8.39735e-11
8.43854e-11
8.45389e-11
8.44051e-11
8.39535e-11
8.31508e-11
8.19618e-11
8.03485e-11
7.82707e-11
7.5685e-11
7.25453e-11
6.88024e-11
6.44037e-11
5.92932e-11
5.34114e-11
4.66953e-11
3.90776e-11
3.04875e-11
2.08497e-11
1.0085e-11
-1.89047e-12
-1.51648e-11
-2.98307e-11
-4.59855e-11
-6.3731e-11
-8.31737e-11
-1.04425e-10
-1.27599e-10
-1.52817e-10
-1.80202e-10
-2.09882e-10
-2.41988e-10
-2.76655e-10
-3.14017e-10
-3.54215e-10
-3.97388e-10
-4.43674e-10
-4.93213e-10
-5.46139e-10
-6.02583e-10
-6.62668e-10
-7.26501e-10
-7.94162e-10
-8.65727e-10
-9.4137e-10
-1.02096e-09
-1.10136e-09
-1.1789e-09
-1.29928e-09
-1.58149e-09
-1.40247e-09
2.43015e-11
2.36568e-11
2.30262e-11
2.26187e-11
2.23651e-11
2.22406e-11
2.22425e-11
2.23669e-11
2.26085e-11
2.29624e-11
2.34237e-11
2.39878e-11
2.46499e-11
2.54052e-11
2.62492e-11
2.71773e-11
2.81851e-11
2.9268e-11
3.04218e-11
3.16421e-11
3.29246e-11
3.4265e-11
3.56589e-11
3.7102e-11
3.85897e-11
4.01174e-11
4.16804e-11
4.32736e-11
4.4892e-11
4.653e-11
4.81819e-11
4.98415e-11
5.15023e-11
5.31572e-11
5.47989e-11
5.64191e-11
5.80092e-11
5.95598e-11
6.10609e-11
6.25014e-11
6.38696e-11
6.51527e-11
6.6337e-11
6.74077e-11
6.83488e-11
6.91431e-11
6.97719e-11
7.02154e-11
7.04521e-11
7.04588e-11
7.0211e-11
6.96818e-11
6.8843e-11
6.76638e-11
6.61117e-11
6.41518e-11
6.1747e-11
5.88579e-11
5.54427e-11
5.14565e-11
4.68519e-11
4.15782e-11
3.55818e-11
2.88059e-11
2.11902e-11
1.26714e-11
3.18216e-12
-7.34804e-12
-1.89936e-11
-3.18327e-11
-4.59473e-11
-6.14232e-11
-7.835e-11
-9.68214e-11
-1.16935e-10
-1.3879e-10
-1.62494e-10
-1.88153e-10
-2.15878e-10
-2.45784e-10
-2.77988e-10
-3.12608e-10
-3.49766e-10
-3.89583e-10
-4.32181e-10
-4.77684e-10
-5.26212e-10
-5.77883e-10
-6.32812e-10
-6.91106e-10
-7.52858e-10
-8.18137e-10
-8.87008e-10
-9.59638e-10
-1.03589e-09
-1.11264e-09
-1.18625e-09
-1.30215e-09
-1.57863e-09
-1.39631e-09
2.22154e-11
2.16739e-11
2.11362e-11
2.07905e-11
2.058e-11
2.04835e-11
2.04988e-11
2.06224e-11
2.08497e-11
2.11762e-11
2.15979e-11
2.21104e-11
2.27095e-11
2.33909e-11
2.41501e-11
2.4983e-11
2.58851e-11
2.68521e-11
2.78796e-11
2.89633e-11
3.00988e-11
3.12815e-11
3.25069e-11
3.37704e-11
3.50673e-11
3.63925e-11
3.77409e-11
3.91073e-11
4.0486e-11
4.18712e-11
4.32566e-11
4.46356e-11
4.60012e-11
4.7346e-11
4.86619e-11
4.99404e-11
5.11722e-11
5.23475e-11
5.34558e-11
5.44855e-11
5.54244e-11
5.62594e-11
5.69763e-11
5.75599e-11
5.79938e-11
5.82606e-11
5.83414e-11
5.82161e-11
5.7863e-11
5.72592e-11
5.63799e-11
5.51987e-11
5.36873e-11
5.18155e-11
4.95511e-11
4.68599e-11
4.37055e-11
4.005e-11
3.58527e-11
3.10706e-11
2.56578e-11
1.95659e-11
1.27435e-11
5.13659e-12
-3.31191e-12
-1.2662e-11
-2.29768e-11
-3.43225e-11
-4.67685e-11
-6.03874e-11
-7.52552e-11
-9.14507e-11
-1.09056e-10
-1.28158e-10
-1.48843e-10
-1.71203e-10
-1.95333e-10
-2.2133e-10
-2.49292e-10
-2.79322e-10
-3.11522e-10
-3.45997e-10
-3.82855e-10
-4.222e-10
-4.64141e-10
-5.08784e-10
-5.56235e-10
-6.06596e-10
-6.59968e-10
-7.16443e-10
-7.76104e-10
-8.39008e-10
-9.05212e-10
-9.74874e-10
-1.04786e-09
-1.12106e-09
-1.19086e-09
-1.30236e-09
-1.57298e-09
-1.38794e-09
2.01205e-11
1.96776e-11
1.92299e-11
1.89448e-11
1.87767e-11
1.87079e-11
1.87366e-11
1.88599e-11
1.90736e-11
1.9374e-11
1.97574e-11
2.02201e-11
2.07581e-11
2.13676e-11
2.20443e-11
2.27843e-11
2.35832e-11
2.44369e-11
2.5341e-11
2.6291e-11
2.72825e-11
2.83108e-11
2.93713e-11
3.0459e-11
3.1569e-11
3.2696e-11
3.38345e-11
3.4979e-11
3.61235e-11
3.72617e-11
3.83869e-11
3.94922e-11
4.05702e-11
4.16128e-11
4.26117e-11
4.35579e-11
4.44417e-11