/*--------------------------------*- C++ -*----------------------------------*\
  =========                 |
  \\      /  F ield         | OpenFOAM: The Open Source CFD Toolbox
   \\    /   O peration     | Website:  https://openfoam.org
    \\  /    A nd           | Version:  11
     \\/     M anipulation  |
\*---------------------------------------------------------------------------*/
FoamFile
{
    format      ascii;
    class       volScalarField;
    location    "344";
    object      nut;
}
// * * * * * * * * * * * * * * * * * * * * * * * * * * * * * * * * * * * * * //

dimensions      [0 2 -1 0 0 0 0];

internalField   nonuniform List<scalar> 
10000
(
0.000977113
0.00093669
0.000899618
0.000865576
0.000834275
0.000805458
0.000778892
0.000754368
0.000731699
0.000710714
0.000691262
0.000673205
0.000656419
0.000640793
0.000626226
0.000612626
0.000599912
0.000588007
0.000576846
0.000566366
0.000556512
0.000547233
0.000538484
0.000530223
0.000522412
0.000515018
0.000508008
0.000501354
0.000495031
0.000489015
0.000483286
0.000477824
0.000472613
0.000467638
0.000462886
0.000458345
0.000454007
0.000449863
0.000445909
0.000442139
0.000438552
0.000435148
0.000431928
0.000428897
0.000426061
0.000423428
0.000421009
0.000418817
0.000416867
0.000415178
0.00041377
0.000412664
0.000411886
0.000411461
0.000411417
0.000411781
0.000412582
0.000413848
0.000415604
0.000417876
0.000420684
0.000424047
0.000427976
0.000432481
0.000437563
0.000443217
0.000449433
0.000456194
0.000463477
0.000471254
0.000479491
0.000488146
0.000497175
0.00050653
0.000516161
0.000526017
0.000536045
0.000546195
0.000556413
0.000566647
0.000576842
0.000586966
0.000596964
0.000606793
0.000616407
0.000625767
0.000634831
0.000643558
0.00065191
0.000659847
0.000667329
0.000674314
0.000680759
0.000686616
0.000691836
0.000696364
0.000700142
0.000703102
0.000705166
0.000706245
0.000977113
0.000936691
0.000899618
0.000865576
0.000834275
0.000805458
0.000778893
0.000754369
0.000731699
0.000710715
0.000691263
0.000673206
0.00065642
0.000640794
0.000626227
0.000612627
0.000599913
0.000588008
0.000576847
0.000566367
0.000556513
0.000547234
0.000538485
0.000530224
0.000522414
0.000515019
0.000508009
0.000501355
0.000495032
0.000489017
0.000483288
0.000477826
0.000472615
0.00046764
0.000462888
0.000458348
0.00045401
0.000449866
0.000445912
0.000442142
0.000438555
0.000435151
0.000431932
0.000428901
0.000426065
0.000423432
0.000421013
0.000418821
0.000416871
0.000415182
0.000413773
0.000412667
0.000411888
0.000411463
0.000411417
0.000411781
0.00041258
0.000413844
0.000415599
0.000417868
0.000420674
0.000424034
0.000427962
0.000432464
0.000437543
0.000443195
0.000449409
0.000456168
0.00046345
0.000471225
0.000479458
0.000488109
0.000497134
0.000506486
0.000516114
0.000525968
0.000535995
0.000546144
0.000556362
0.000566596
0.000576791
0.000586915
0.000596914
0.000606743
0.000616359
0.00062572
0.000634785
0.000643514
0.000651868
0.000659807
0.000667291
0.000674278
0.000680723
0.000686582
0.000691803
0.000696333
0.000700112
0.000703073
0.000705138
0.000706218
0.000977113
0.000936691
0.000899619
0.000865577
0.000834276
0.000805459
0.000778894
0.00075437
0.0007317
0.000710716
0.000691264
0.000673207
0.000656422
0.000640796
0.000626229
0.000612629
0.000599915
0.00058801
0.000576849
0.000566369
0.000556515
0.000547236
0.000538488
0.000530227
0.000522417
0.000515022
0.000508012
0.000501359
0.000495036
0.00048902
0.000483291
0.00047783
0.000472619
0.000467644
0.000462892
0.000458352
0.000454014
0.000449871
0.000445917
0.000442147
0.000438561
0.000435157
0.000431937
0.000428906
0.00042607
0.000423437
0.000421017
0.000418824
0.000416874
0.000415184
0.000413774
0.000412666
0.000411886
0.000411458
0.000411411
0.000411771
0.000412567
0.000413828
0.000415578
0.000417843
0.000420644
0.000423999
0.000427921
0.000432418
0.000437491
0.000443137
0.000449346
0.0004561
0.000463376
0.000471145
0.000479372
0.000488018
0.000497038
0.000506385
0.00051601
0.000525861
0.000535887
0.000546034
0.000556252
0.000566486
0.000576682
0.000586807
0.000596808
0.00060664
0.000616258
0.000625622
0.00063469
0.000643423
0.000651781
0.000659724
0.000667211
0.000674202
0.000680651
0.000686513
0.000691738
0.000696271
0.000700053
0.000703015
0.000705082
0.000706163
0.000977113
0.000936691
0.000899619
0.000865577
0.000834277
0.000805461
0.000778895
0.000754372
0.000731702
0.000710718
0.000691266
0.000673209
0.000656424
0.000640798
0.000626231
0.000612632
0.000599917
0.000588013
0.000576852
0.000566372
0.000556518
0.00054724
0.000538491
0.000530231
0.00052242
0.000515026
0.000508016
0.000501363
0.00049504
0.000489025
0.000483296
0.000477835
0.000472625
0.00046765
0.000462898
0.000458359
0.000454021
0.000449878
0.000445924
0.000442154
0.000438568
0.000435164
0.000431944
0.000428913
0.000426077
0.000423443
0.000421023
0.000418829
0.000416878
0.000415186
0.000413774
0.000412664
0.000411881
0.00041145
0.000411399
0.000411755
0.000412546
0.000413801
0.000415545
0.000417804
0.000420598
0.000423945
0.000427858
0.000432346
0.000437411
0.000443049
0.000449248
0.000455994
0.000463261
0.000471022
0.000479241
0.000487879
0.000496893
0.000506234
0.000515854
0.000525702
0.000535725
0.00054587
0.000556087
0.000566322
0.000576519
0.000586646
0.00059665
0.000606485
0.000616108
0.000625476
0.000634549
0.000643287
0.000651651
0.000659599
0.000667092
0.000674089
0.000680544
0.000686411
0.000691641
0.000696179
0.000699965
0.000702931
0.000705
0.000706082
0.000977113
0.000936692
0.00089962
0.000865578
0.000834279
0.000805462
0.000778897
0.000754374
0.000731704
0.00071072
0.000691269
0.000673212
0.000656427
0.000640801
0.000626235
0.000612635
0.000599921
0.000588017
0.000576856
0.000566376
0.000556523
0.000547244
0.000538496
0.000530236
0.000522426
0.000515032
0.000508022
0.000501369
0.000495047
0.000489032
0.000483303
0.000477842
0.000472632
0.000467658
0.000462907
0.000458367
0.00045403
0.000449887
0.000445933
0.000442164
0.000438578
0.000435174
0.000431954
0.000428923
0.000426086
0.000423451
0.00042103
0.000418835
0.000416882
0.000415189
0.000413774
0.000412662
0.000411875
0.00041144
0.000411384
0.000411734
0.000412519
0.000413767
0.000415503
0.000417753
0.000420537
0.000423874
0.000427777
0.000432254
0.000437307
0.000442933
0.000449121
0.000455855
0.000463111
0.000470861
0.00047907
0.000487699
0.000496704
0.000506038
0.000515652
0.000525494
0.000535514
0.000545658
0.000555873
0.000566108
0.000576307
0.000586437
0.000596444
0.000606284
0.000615911
0.000625286
0.000634365
0.00064311
0.000651481
0.000659437
0.000666938
0.000673941
0.000680404
0.000686278
0.000691515
0.000696058
0.000699849
0.00070282
0.000704892
0.000705975
0.000977113
0.000936692
0.000899621
0.000865579
0.00083428
0.000805464
0.000778899
0.000754376
0.000731707
0.000710723
0.000691272
0.000673215
0.00065643
0.000640805
0.000626239
0.000612639
0.000599925
0.000588022
0.000576861
0.000566381
0.000556528
0.00054725
0.000538502
0.000530242
0.000522432
0.000515038
0.000508029
0.000501377
0.000495054
0.00048904
0.000483312
0.000477851
0.000472642
0.000467668
0.000462917
0.000458378
0.000454041
0.000449898
0.000445945
0.000442176
0.00043859
0.000435186
0.000431966
0.000428934
0.000426097
0.000423462
0.000421039
0.000418843
0.000416888
0.000415192
0.000413775
0.000412659
0.000411868
0.000411428
0.000411366
0.000411709
0.000412486
0.000413725
0.000415452
0.000417691
0.000420464
0.000423788
0.000427678
0.000432141
0.000437181
0.000442792
0.000448966
0.000455686
0.000462929
0.000470666
0.000478862
0.00048748
0.000496474
0.0005058
0.000515406
0.000525243
0.000535258
0.000545399
0.000555614
0.000565849
0.00057605
0.000586183
0.000596194
0.000606038
0.000615672
0.000625054
0.000634141
0.000642894
0.000651273
0.000659238
0.000666748
0.000673761
0.000680232
0.000686115
0.00069136
0.00069591
0.000699708
0.000702683
0.000704759
0.000705843
0.000977113
0.000936692
0.000899622
0.000865581
0.000834281
0.000805466
0.000778901
0.000754378
0.00073171
0.000710726
0.000691275
0.000673219
0.000656435
0.000640809
0.000626243
0.000612644
0.00059993
0.000588027
0.000576866
0.000566387
0.000556534
0.000547257
0.000538509
0.000530249
0.00052244
0.000515046
0.000508038
0.000501385
0.000495064
0.00048905
0.000483322
0.000477862
0.000472653
0.000467679
0.000462929
0.00045839
0.000454054
0.000449912
0.000445959
0.00044219
0.000438604
0.0004352
0.00043198
0.000428948
0.00042611
0.000423474
0.000421051
0.000418853
0.000416896
0.000415197
0.000413777
0.000412656
0.00041186
0.000411414
0.000411345
0.000411681
0.000412449
0.000413678
0.000415393
0.00041762
0.000420379
0.000423689
0.000427564
0.000432012
0.000437035
0.00044263
0.000448787
0.000455491
0.000462718
0.000470439
0.000478622
0.000487226
0.000496209
0.000505524
0.000515122
0.000524951
0.000534962
0.000545099
0.000555313
0.000565548
0.00057575
0.000585886
0.000595902
0.000605753
0.000615394
0.000624783
0.000633879
0.000642642
0.000651031
0.000659006
0.000666527
0.00067355
0.000680031
0.000685924
0.000691178
0.000695737
0.000699541
0.000702522
0.000704601
0.000705688
0.000977114
0.000936693
0.000899622
0.000865582
0.000834283
0.000805468
0.000778903
0.000754381
0.000731713
0.00071073
0.000691279
0.000673223
0.000656439
0.000640814
0.000626248
0.00061265
0.000599936
0.000588033
0.000576873
0.000566394
0.000556541
0.000547264
0.000538517
0.000530257
0.000522448
0.000515055
0.000508047
0.000501396
0.000495074
0.000489061
0.000483334
0.000477874
0.000472666
0.000467693
0.000462943
0.000458405
0.000454069
0.000449928
0.000445975
0.000442207
0.000438621
0.000435217
0.000431997
0.000428965
0.000426126
0.000423489
0.000421064
0.000418865
0.000416905
0.000415203
0.000413779
0.000412654
0.000411852
0.0004114
0.000411323
0.00041165
0.000412408
0.000413625
0.000415328
0.000417541
0.000420285
0.000423579
0.000427437
0.000431867
0.000436871
0.000442448
0.000448587
0.000455272
0.00046248
0.000470185
0.000478351
0.00048694
0.00049591
0.000505213
0.000514801
0.000524623
0.000534627
0.000544761
0.000554972
0.000565208
0.000575412
0.000585551
0.000595572
0.000605429
0.000615078
0.000624476
0.000633582
0.000642356
0.000650756
0.000658743
0.000666275
0.00067331
0.000679803
0.000685706
0.00069097
0.000695538
0.00069935
0.000702337
0.000704421
0.000705509
0.000977114
0.000936693
0.000899623
0.000865583
0.000834285
0.00080547
0.000778906
0.000754384
0.000731716
0.000710733
0.000691283
0.000673228
0.000656444
0.000640819
0.000626254
0.000612656
0.000599942
0.00058804
0.00057688
0.000566401
0.000556549
0.000547272
0.000538525
0.000530267
0.000522458
0.000515066
0.000508058
0.000501407
0.000495087
0.000489074
0.000483347
0.000477888
0.00047268
0.000467708
0.000462959
0.000458422
0.000454086
0.000449946
0.000445993
0.000442225
0.00043864
0.000435236
0.000432016
0.000428984
0.000426144
0.000423506
0.00042108
0.000418878
0.000416916
0.000415211
0.000413782
0.000412652
0.000411845
0.000411385
0.0004113
0.000411617
0.000412364
0.000413569
0.000415257
0.000417455
0.000420183
0.000423459
0.000427298
0.000431708
0.000436693
0.000442249
0.000448367
0.000455031
0.00046222
0.000469906
0.000478054
0.000486627
0.000495582
0.000504872
0.000514449
0.000524262
0.000534259
0.000544388
0.000554597
0.000564833
0.000575038
0.000585181
0.000595208
0.000605071
0.000614729
0.000624136
0.000633253
0.000642038
0.00065045
0.00065845
0.000665995
0.000673042
0.000679548
0.000685464
0.000690738
0.000695316
0.000699137
0.000702131
0.000704219
0.000705309
0.000977114
0.000936694
0.000899624
0.000865584
0.000834286
0.000805472
0.000778908
0.000754387
0.00073172
0.000710737
0.000691287
0.000673232
0.000656449
0.000640825
0.00062626
0.000612662
0.000599949
0.000588047
0.000576887
0.00056641
0.000556558
0.000547281
0.000538535
0.000530277
0.000522469
0.000515077
0.00050807
0.00050142
0.0004951
0.000489088
0.000483362
0.000477904
0.000472697
0.000467725
0.000462977
0.00045844
0.000454106
0.000449966
0.000446014
0.000442246
0.000438661
0.000435258
0.000432038
0.000429005
0.000426165
0.000423526
0.000421098
0.000418894
0.000416929
0.00041522
0.000413787
0.000412652
0.000411838
0.00041137
0.000411276
0.000411582
0.000412317
0.000413508
0.000415182
0.000417363
0.000420073
0.00042333
0.000427149
0.000431538
0.000436501
0.000442034
0.00044813
0.000454773
0.00046194
0.000469605
0.000477734
0.000486289
0.000495227
0.000504503
0.000514068
0.000523871
0.000533861
0.000543985
0.000554191
0.000564426
0.000574632
0.000584779
0.000594811
0.000604682
0.000614348
0.000623766
0.000632895
0.000641692
0.000650117
0.00065813
0.000665689
0.00067275
0.000679269
0.000685197
0.000690484
0.000695073
0.000698903
0.000701904
0.000703996
0.000705088
0.000977114
0.000936694
0.000899625
0.000865585
0.000834288
0.000805474
0.000778911
0.00075439
0.000731723
0.000710741
0.000691291
0.000673237
0.000656454
0.000640831
0.000626266
0.000612669
0.000599956
0.000588055
0.000576896
0.000566418
0.000556567
0.000547291
0.000538545
0.000530288
0.000522481
0.00051509
0.000508083
0.000501433
0.000495114
0.000489103
0.000483378
0.000477921
0.000472715
0.000467744
0.000462997
0.000458461
0.000454127
0.000449988
0.000446037
0.00044227
0.000438685
0.000435282
0.000432062
0.000429028
0.000426188
0.000423547
0.000421118
0.000418912
0.000416944
0.000415231
0.000413794
0.000412652
0.000411831
0.000411355
0.000411251
0.000411546
0.000412269
0.000413446
0.000415103
0.000417267
0.000419958
0.000423195
0.000426992
0.000431358
0.000436297
0.000441807
0.000447879
0.000454498
0.000461642
0.000469285
0.000477393
0.000485928
0.000494849
0.00050411
0.000513661
0.000523454
0.000533435
0.000543553
0.000553756
0.00056399
0.000574198
0.000584349
0.000594386
0.000604265
0.00061394
0.000623369
0.000632509
0.000641319
0.000649758
0.000657785
0.000665359
0.000672435
0.000678968
0.00068491
0.000690209
0.000694809
0.000698649
0.000701657
0.000703755
0.000704849
0.000977114
0.000936694
0.000899625
0.000865586
0.000834289
0.000805475
0.000778913
0.000754393
0.000731726
0.000710745
0.000691296
0.000673242
0.000656459
0.000640837
0.000626272
0.000612676
0.000599964
0.000588063
0.000576904
0.000566428
0.000556577
0.000547302
0.000538557
0.0005303
0.000522493
0.000515103
0.000508097
0.000501448
0.00049513
0.00048912
0.000483396
0.000477939
0.000472734
0.000467765
0.000463018
0.000458483
0.00045415
0.000450011
0.000446061
0.000442295
0.000438711
0.000435308
0.000432088
0.000429054
0.000426213
0.000423571
0.00042114
0.000418932
0.000416961
0.000415244
0.000413801
0.000412654
0.000411825
0.000411341
0.000411226
0.00041151
0.000412219
0.000413381
0.000415022
0.000417167
0.000419838
0.000423053
0.000426827
0.000431169
0.000436084
0.000441569
0.000447616
0.000454209
0.000461329
0.000468948
0.000477034
0.000485549
0.000494451
0.000503695
0.000513233
0.000523014
0.000532986
0.000543098
0.000553297
0.000563529
0.000573739
0.000583893
0.000593936
0.000603822
0.000613507
0.000622947
0.000632099
0.000640923
0.000649376
0.000657418
0.000665007
0.000672098
0.000678646
0.000684602
0.000689914
0.000694527
0.000698376
0.000701393
0.000703496
0.000704593
0.000977114
0.000936695
0.000899626
0.000865587
0.00083429
0.000805477
0.000778915
0.000754395
0.000731729
0.000710749
0.0006913
0.000673247
0.000656465
0.000640843
0.000626279
0.000612683
0.000599972
0.000588071
0.000576913
0.000566437
0.000556587
0.000547313
0.000538568
0.000530312
0.000522507
0.000515117
0.000508112
0.000501464
0.000495147
0.000489137
0.000483414
0.000477959
0.000472755
0.000467786
0.000463041
0.000458507
0.000454175
0.000450037
0.000446088
0.000442322
0.000438738
0.000435336
0.000432116
0.000429082
0.00042624
0.000423597
0.000421164
0.000418954
0.000416979
0.000415259
0.000413811
0.000412657
0.000411821
0.000411327
0.000411202
0.000411473
0.000412168
0.000413314
0.000414938
0.000417064
0.000419714
0.000422906
0.000426657
0.000430974
0.000435863
0.000441322
0.000447342
0.000453909
0.000461004
0.000468598
0.000476661
0.000485154
0.000494036
0.000503263
0.000512785
0.000522553
0.000532516
0.000542621
0.000552815
0.000563047
0.000573257
0.000583414
0.000593463
0.000603357
0.000613052
0.000622503
0.000631668
0.000640505
0.000648974
0.000657031
0.000664635
0.000671742
0.000678305
0.000684276
0.000689602
0.000694227
0.000698087
0.000701112
0.000703221
0.000704321
0.000977114
0.000936695
0.000899627
0.000865588
0.000834292
0.000805479
0.000778917
0.000754398
0.000731733
0.000710752
0.000691305
0.000673252
0.00065647
0.000640849
0.000626286
0.00061269
0.00059998
0.00058808
0.000576923
0.000566447
0.000556598
0.000547324
0.000538581
0.000530325
0.00052252
0.000515132
0.000508128
0.000501481
0.000495165
0.000489156
0.000483434
0.00047798
0.000472777
0.000467809
0.000463065
0.000458532
0.000454201
0.000450065
0.000446116
0.000442351
0.000438768
0.000435366
0.000432146
0.000429112
0.000426269
0.000423625
0.000421191
0.000418977
0.000417
0.000415275
0.000413822
0.000412661
0.000411817
0.000411314
0.000411178
0.000411437
0.000412117
0.000413247
0.000414853
0.000416958
0.000419587
0.000422756
0.000426482
0.000430774
0.000435636
0.000441067
0.00044706
0.0004536
0.000460668
0.000468236
0.000476274
0.000484745
0.000493607
0.000502815
0.000512321
0.000522076
0.000532029
0.000542126
0.000552315
0.000562545
0.000572755
0.000582916
0.00059297
0.000602872
0.000612577
0.000622039
0.000631217
0.000640069
0.000648553
0.000656626
0.000664246
0.000671369
0.000677948
0.000683934
0.000689274
0.000693911
0.000697782
0.000700816
0.000702931
0.000704034
0.000977114
0.000936695
0.000899627
0.000865589
0.000834293
0.000805481
0.00077892
0.000754401
0.000731736
0.000710756
0.000691309
0.000673257
0.000656476
0.000640855
0.000626292
0.000612698
0.000599988
0.000588089
0.000576932
0.000566458
0.000556609
0.000547336
0.000538593
0.000530339
0.000522535
0.000515147
0.000508145
0.000501498
0.000495183
0.000489176
0.000483455
0.000478002
0.0004728
0.000467834
0.000463091
0.000458559
0.000454229
0.000450094
0.000446146
0.000442382
0.0004388
0.000435398
0.000432178
0.000429144
0.0004263
0.000423655
0.000421219
0.000419003
0.000417022
0.000415293
0.000413834
0.000412667
0.000411815
0.000411302
0.000411155
0.000411401
0.000412066
0.000413179
0.000414766
0.000416852
0.000419458
0.000422603
0.000426304
0.000430569
0.000435403
0.000440806
0.000446771
0.000453283
0.000460323
0.000467865
0.000475878
0.000484325
0.000493165
0.000502354
0.000511844
0.000521585
0.000531526
0.000541615
0.0005518
0.000562027
0.000572238
0.000582401
0.000592461
0.000602371
0.000612085
0.000621559
0.00063075
0.000639616
0.000648115
0.000656204
0.000663841
0.00067098
0.000677575
0.000683577
0.000688931
0.000693582
0.000697464
0.000700507
0.000702628
0.000703734
0.000977114
0.000936696
0.000899628
0.00086559
0.000834294
0.000805482
0.000778922
0.000754403
0.000731739
0.00071076
0.000691313
0.000673262
0.000656481
0.000640861
0.000626299
0.000612705
0.000599996
0.000588098
0.000576942
0.000566468
0.00055662
0.000547349
0.000538607
0.000530353
0.00052255
0.000515163
0.000508162
0.000501517
0.000495203
0.000489196
0.000483477
0.000478025
0.000472824
0.000467859
0.000463117
0.000458587
0.000454258
0.000450124
0.000446177
0.000442414
0.000438833
0.000435431
0.000432212
0.000429177
0.000426333
0.000423687
0.000421249
0.000419031
0.000417046
0.000415312
0.000413848
0.000412674
0.000411814
0.000411291
0.000411133
0.000411365
0.000412016
0.000413112
0.00041468
0.000416744
0.000419327
0.000422449
0.000426123
0.000430361
0.000435167
0.000440542
0.000446477
0.00045296
0.000459972
0.000467487
0.000475474
0.000483896
0.000492714
0.000501883
0.000511356
0.000521083
0.000531012
0.000541093
0.000551271
0.000561496
0.000571706
0.000581873
0.000591938
0.000601855
0.000611579
0.000621064
0.000630269
0.000639149
0.000647664
0.000655769
0.000663422
0.000670578
0.00067719
0.000683207
0.000688576
0.000693239
0.000697133
0.000700185
0.000702313
0.000703422
0.000977114
0.000936696
0.000899628
0.000865591
0.000834295
0.000805484
0.000778924
0.000754406
0.000731742
0.000710763
0.000691317
0.000673266
0.000656487
0.000640867
0.000626306
0.000612713
0.000600004
0.000588107
0.000576952
0.000566479
0.000556632
0.000547361
0.00053862
0.000530368
0.000522566
0.00051518
0.000508179
0.000501536
0.000495223
0.000489218
0.000483499
0.000478049
0.000472849
0.000467886
0.000463145
0.000458616
0.000454289
0.000450156
0.00044621
0.000442448
0.000438867
0.000435466
0.000432247
0.000429212
0.000426368
0.000423721
0.000421281
0.00041906
0.000417072
0.000415334
0.000413864
0.000412683
0.000411814
0.000411282
0.000411112
0.000411331
0.000411966
0.000413045
0.000414593
0.000416636
0.000419197
0.000422293
0.000425941
0.000430151
0.000434929
0.000440274
0.00044618
0.000452634
0.000459616
0.000467103
0.000475063
0.000483461
0.000492256
0.000501405
0.00051086
0.000520571
0.000530489
0.00054056
0.000550732
0.000560954
0.000571164
0.000581333
0.000591403
0.000601327
0.000611061
0.000620558
0.000629775
0.00063867
0.0006472
0.000655322
0.000662992
0.000670164
0.000676792
0.000682825
0.000688209
0.000692886
0.000696791
0.000699852
0.000701987
0.0007031
0.000977115
0.000936696
0.000899629
0.000865591
0.000834296
0.000805485
0.000778926
0.000754408
0.000731745
0.000710767
0.000691321
0.000673271
0.000656492
0.000640873
0.000626313
0.00061272
0.000600013
0.000588116
0.000576962
0.00056649
0.000556644
0.000547374
0.000538634
0.000530382
0.000522581
0.000515197
0.000508198
0.000501555
0.000495243
0.00048924
0.000483523
0.000478074
0.000472875
0.000467913
0.000463174
0.000458646
0.00045432
0.000450188
0.000446244
0.000442483
0.000438903
0.000435503
0.000432284
0.000429249
0.000426404
0.000423756
0.000421314
0.00041909
0.000417099
0.000415356
0.000413881
0.000412693
0.000411816
0.000411274
0.000411092
0.000411297
0.000411917
0.000412978
0.000414507
0.000416529
0.000419066
0.000422137
0.000425759
0.000429941
0.00043469
0.000440005
0.000445881
0.000452304
0.000459258
0.000466716
0.000474649
0.000483022
0.000491794
0.000500921
0.000510357
0.000520053
0.000529958
0.00054002
0.000550186
0.000560404
0.000570613
0.000580784
0.000590859
0.000600791
0.000610533
0.000620042
0.000629272
0.000638182
0.000646727
0.000654865
0.000662552
0.000669741
0.000676385
0.000682434
0.000687833
0.000692523
0.00069644
0.000699511
0.000701652
0.000702768
0.000977115
0.000936696
0.000899629
0.000865592
0.000834297
0.000805487
0.000778927
0.00075441
0.000731748
0.00071077
0.000691325
0.000673276
0.000656498
0.000640879
0.00062632
0.000612728
0.000600021
0.000588125
0.000576972
0.000566501
0.000556656
0.000547387
0.000538648
0.000530397
0.000522598
0.000515214
0.000508216
0.000501575
0.000495264
0.000489262
0.000483546
0.000478099
0.000472902
0.000467941
0.000463204
0.000458677
0.000454353
0.000450222
0.000446279
0.000442519
0.00043894
0.00043554
0.000432321
0.000429287
0.000426441
0.000423792
0.000421348
0.000419122
0.000417128
0.000415381
0.000413899
0.000412705
0.000411819
0.000411267
0.000411073
0.000411265
0.000411869
0.000412913
0.000414422
0.000416422
0.000418936
0.000421982
0.000425576
0.00042973
0.00043445
0.000439735
0.000445581
0.000451974
0.000458898
0.000466327
0.000474233
0.00048258
0.000491328
0.000500434
0.000509851
0.000519531
0.000529423
0.000539475
0.000549634
0.000559849
0.000570056
0.000580229
0.000590308
0.000600247
0.000609999
0.000619518
0.000628762
0.000637686
0.000646246
0.0006544
0.000662103
0.00066931
0.000675971
0.000682035
0.000687449
0.000692153
0.000696081
0.000699162
0.00070131
0.000702429
0.000977115
0.000936697
0.000899629
0.000865593
0.000834298
0.000805488
0.000778929
0.000754413
0.00073175
0.000710773
0.000691329
0.00067328
0.000656503
0.000640885
0.000626326
0.000612735
0.000600029
0.000588134
0.000576982
0.000566512
0.000556668
0.0005474
0.000538662
0.000530412
0.000522614
0.000515232
0.000508235
0.000501595
0.000495286
0.000489285
0.000483571
0.000478124
0.000472929
0.00046797
0.000463234
0.000458709
0.000454386
0.000450257
0.000446315
0.000442556
0.000438978
0.000435579
0.00043236
0.000429326
0.00042648
0.000423829
0.000421384
0.000419155
0.000417157
0.000415406
0.000413919
0.000412718
0.000411824
0.000411261
0.000411056
0.000411234
0.000411822
0.000412849
0.000414339
0.000416317
0.000418807
0.000421828
0.000425395
0.000429521
0.000434211
0.000439466
0.000445281
0.000451644
0.000458538
0.000465939
0.000473816
0.000482137
0.000490861
0.000499945
0.000509344
0.000519007
0.000528886
0.000538927
0.000549079
0.000559289
0.000569496
0.00057967
0.000589753
0.000599699
0.000609459
0.00061899
0.000628246
0.000637184
0.00064576
0.00065393
0.000661649
0.000668872
0.00067555
0.00068163
0.000687059
0.000691776
0.000695716
0.000698806
0.000700961
0.000702084
0.000977115
0.000936697
0.00089963
0.000865593
0.000834299
0.000805489
0.000778931
0.000754415
0.000731753
0.000710777
0.000691333
0.000673284
0.000656508
0.000640891
0.000626333
0.000612742
0.000600037
0.000588143
0.000576992
0.000566522
0.00055668
0.000547413
0.000538676
0.000530428
0.00052263
0.000515249
0.000508254
0.000501615
0.000495308
0.000489308
0.000483595
0.000478151
0.000472957
0.000467999
0.000463265
0.000458741
0.00045442
0.000450292
0.000446351
0.000442594
0.000439016
0.000435618
0.0004324
0.000429365
0.000426519
0.000423868
0.000421421
0.00041919
0.000417188
0.000415432
0.00041394
0.000412732
0.000411829
0.000411257
0.00041104
0.000411204
0.000411777
0.000412786
0.000414256
0.000416213
0.00041868
0.000421675
0.000425216
0.000429313
0.000433974
0.000439199
0.000444984
0.000451316
0.00045818
0.000465551
0.000473401
0.000481695
0.000490395
0.000499457
0.000508836
0.000518483
0.000528348
0.000538379
0.000548523
0.000558729
0.000568934
0.000579109
0.000589196
0.000599148
0.000608917
0.000618458
0.000627727
0.000636678
0.000645269
0.000653455
0.000661191
0.00066843
0.000675124
0.00068122
0.000686664
0.000691395
0.000695346
0.000698445
0.000700607
0.000701733
0.000977115
0.000936697
0.00089963
0.000865594
0.0008343
0.000805491
0.000778932
0.000754417
0.000731756
0.00071078
0.000691336
0.000673289
0.000656513
0.000640896
0.000626339
0.00061275
0.000600045
0.000588152
0.000577002
0.000566533
0.000556691
0.000547425
0.00053869
0.000530443
0.000522647
0.000515267
0.000508273
0.000501635
0.000495329
0.000489331
0.00048362
0.000478177
0.000472985
0.000468029
0.000463296
0.000458774
0.000454454
0.000450327
0.000446388
0.000442632
0.000439055
0.000435658
0.000432441
0.000429406
0.000426559
0.000423907
0.000421458
0.000419225
0.00041722
0.00041546
0.000413962
0.000412747
0.000411836
0.000411254
0.000411025
0.000411176
0.000411734
0.000412725
0.000414176
0.000416112
0.000418555
0.000421525
0.000425039
0.000429108
0.00043374
0.000438935
0.000444689
0.000450991
0.000457824
0.000465166
0.000472988
0.000481256
0.000489931
0.000498972
0.000508331
0.000517961
0.000527812
0.000537832
0.000547968
0.00055817
0.000568372
0.000578548
0.000588639
0.000598597
0.000608374
0.000617926
0.000627206
0.000636171
0.000644777
0.000652979
0.000660731
0.000667986
0.000674696
0.000680808
0.000686266
0.00069101
0.000694973
0.000698081
0.00070025
0.000701379
0.000977115
0.000936697
0.000899631
0.000865595
0.000834301
0.000805492
0.000778934
0.000754419
0.000731758
0.000710783
0.00069134
0.000673293
0.000656517
0.000640902
0.000626345
0.000612757
0.000600053
0.000588161
0.000577011
0.000566544
0.000556703
0.000547438
0.000538704
0.000530458
0.000522663
0.000515285
0.000508292
0.000501656
0.000495351
0.000489355
0.000483645
0.000478204
0.000473013
0.000468059
0.000463327
0.000458807
0.000454489
0.000450363
0.000446426
0.000442671
0.000439095
0.000435699
0.000432482
0.000429447
0.0004266
0.000423947
0.000421496
0.000419261
0.000417253
0.000415488
0.000413985
0.000412763
0.000411844
0.000411252
0.000411012
0.000411149
0.000411692
0.000412666
0.000414098
0.000416012
0.000418432
0.000421378
0.000424865
0.000428906
0.000433509
0.000438674
0.000444397
0.000450669
0.000457473
0.000464786
0.00047258
0.000480821
0.000489472
0.00049849
0.00050783
0.000517443
0.00052728
0.000537288
0.000547416
0.000557613
0.000567813
0.000577989
0.000588084
0.000598047
0.000607832
0.000617394
0.000626686
0.000635665
0.000644285
0.000652502
0.000660269
0.000667541
0.000674266
0.000680394
0.000685866
0.000690623
0.000694598
0.000697715
0.00069989
0.000701023
0.000977115
0.000936697
0.000899631
0.000865595
0.000834302
0.000805493
0.000778935
0.000754421
0.00073176
0.000710785
0.000691343
0.000673297
0.000656522
0.000640907
0.000626351
0.000612763
0.000600061
0.000588169
0.000577021
0.000566555
0.000556715
0.000547451
0.000538718
0.000530473
0.000522679
0.000515302
0.000508311
0.000501676
0.000495373
0.000489378
0.00048367
0.00047823
0.000473041
0.000468089
0.000463359
0.00045884
0.000454523
0.0004504
0.000446463
0.000442709
0.000439135
0.000435739
0.000432523
0.000429488
0.000426641
0.000423987
0.000421535
0.000419297
0.000417286
0.000415517
0.000414009
0.00041278
0.000411853
0.000411251
0.000411
0.000411124
0.000411652
0.000412609
0.000414022
0.000415915
0.000418312
0.000421233
0.000424694
0.000428708
0.000433282
0.000438417
0.000444111
0.000450353
0.000457127
0.00046441
0.000472177
0.000480392
0.000489018
0.000498014
0.000507334
0.000516931
0.000526753
0.00053675
0.00054687
0.000557062
0.000567258
0.000577435
0.000587532
0.000597501
0.000607294
0.000616865
0.000626169
0.00063516
0.000643794
0.000652026
0.000659809
0.000667096
0.000673837
0.00067998
0.000685466
0.000690236
0.000694222
0.000697349
0.00069953
0.000700667
0.000977115
0.000936698
0.000899631
0.000865596
0.000834303
0.000805494
0.000778937
0.000754422
0.000731762
0.000710788
0.000691347
0.000673301
0.000656527
0.000640912
0.000626357
0.00061277
0.000600068
0.000588178
0.00057703
0.000566565
0.000556726
0.000547464
0.000538731
0.000530488
0.000522696
0.00051532
0.00050833
0.000501697
0.000495395
0.000489401
0.000483695
0.000478257
0.000473069
0.000468118
0.00046339
0.000458873
0.000454558
0.000450436
0.000446501
0.000442748
0.000439175
0.00043578
0.000432564
0.00042953
0.000426682
0.000424027
0.000421574
0.000419334
0.00041732
0.000415547
0.000414033
0.000412798
0.000411863
0.000411252
0.000410989
0.000411101
0.000411613
0.000412554
0.000413948
0.000415821
0.000418196
0.000421092
0.000424527
0.000428514
0.000433059