/*--------------------------------*- C++ -*----------------------------------*\
  =========                 |
  \\      /  F ield         | OpenFOAM: The Open Source CFD Toolbox
   \\    /   O peration     | Website:  https://openfoam.org
    \\  /    A nd           | Version:  11
     \\/     M anipulation  |
\*---------------------------------------------------------------------------*/
FoamFile
{
    format      ascii;
    class       volScalarField;
    location    "358";
    object      k;
}
// * * * * * * * * * * * * * * * * * * * * * * * * * * * * * * * * * * * * * //

dimensions      [0 2 -2 0 0 0 0];

internalField   nonuniform List<scalar> 
10000
(
0.000939684
0.000835706
0.000745867
0.000667998
0.00060029
0.000541233
0.000489562
0.000444213
0.000404294
0.000369048
0.000337838
0.000310121
0.000285437
0.000263394
0.000243654
0.000225931
0.000209978
0.000195581
0.000182556
0.000170744
0.000160008
0.000150227
0.000141296
0.000133125
0.000125631
0.000118747
0.000112409
0.000106562
0.00010116
9.61586e-05
9.15204e-05
8.72117e-05
8.32026e-05
7.94664e-05
7.59793e-05
7.27199e-05
6.9669e-05
6.68096e-05
6.41261e-05
6.16049e-05
5.92334e-05
5.70005e-05
5.4896e-05
5.29109e-05
5.10371e-05
4.92671e-05
4.75946e-05
4.60134e-05
4.45185e-05
4.3105e-05
4.17687e-05
4.0506e-05
3.93135e-05
3.81883e-05
3.71278e-05
3.61297e-05
3.51919e-05
3.43127e-05
3.34903e-05
3.27232e-05
3.20099e-05
3.1349e-05
3.07391e-05
3.01787e-05
2.96663e-05
2.92002e-05
2.87789e-05
2.84004e-05
2.80627e-05
2.7764e-05
2.75022e-05
2.72754e-05
2.70812e-05
2.69173e-05
2.67815e-05
2.66713e-05
2.65843e-05
2.65184e-05
2.64714e-05
2.64412e-05
2.6426e-05
2.64237e-05
2.64319e-05
2.645e-05
2.64761e-05
2.65085e-05
2.65459e-05
2.6587e-05
2.66304e-05
2.6675e-05
2.67196e-05
2.67633e-05
2.68049e-05
2.68435e-05
2.68782e-05
2.69081e-05
2.69326e-05
2.69509e-05
2.69627e-05
2.69676e-05
0.000939684
0.000835706
0.000745868
0.000667999
0.000600291
0.000541234
0.000489562
0.000444214
0.000404294
0.000369049
0.000337838
0.000310122
0.000285438
0.000263394
0.000243655
0.000225932
0.000209978
0.000195581
0.000182556
0.000170745
0.000160009
0.000150228
0.000141297
0.000133125
0.000125632
0.000118747
0.000112409
0.000106563
0.000101161
9.61592e-05
9.1521e-05
8.72123e-05
8.32033e-05
7.94671e-05
7.598e-05
7.27206e-05
6.96697e-05
6.68103e-05
6.41269e-05
6.16057e-05
5.92343e-05
5.70014e-05
5.48969e-05
5.29119e-05
5.10381e-05
4.92682e-05
4.75957e-05
4.60146e-05
4.45197e-05
4.31062e-05
4.177e-05
4.05074e-05
3.93149e-05
3.81898e-05
3.71293e-05
3.61312e-05
3.51935e-05
3.43143e-05
3.34919e-05
3.27248e-05
3.20116e-05
3.13507e-05
3.07407e-05
3.01803e-05
2.96678e-05
2.92018e-05
2.87804e-05
2.84019e-05
2.80643e-05
2.77657e-05
2.7504e-05
2.72771e-05
2.70828e-05
2.69187e-05
2.67826e-05
2.66721e-05
2.6585e-05
2.65189e-05
2.64718e-05
2.64416e-05
2.64263e-05
2.64239e-05
2.64321e-05
2.64502e-05
2.64762e-05
2.65086e-05
2.65459e-05
2.6587e-05
2.66304e-05
2.66749e-05
2.67196e-05
2.67632e-05
2.68048e-05
2.68434e-05
2.68781e-05
2.69081e-05
2.69325e-05
2.69508e-05
2.69626e-05
2.69676e-05
0.000939684
0.000835707
0.000745868
0.000667999
0.000600292
0.000541235
0.000489563
0.000444215
0.000404295
0.00036905
0.00033784
0.000310123
0.000285439
0.000263395
0.000243656
0.000225933
0.00020998
0.000195582
0.000182557
0.000170746
0.00016001
0.000150229
0.000141298
0.000133126
0.000125633
0.000118748
0.00011241
0.000106564
0.000101162
9.61603e-05
9.15221e-05
8.72135e-05
8.32044e-05
7.94683e-05
7.59812e-05
7.27218e-05
6.9671e-05
6.68116e-05
6.41282e-05
6.16071e-05
5.92356e-05
5.70028e-05
5.48984e-05
5.29134e-05
5.10396e-05
4.92698e-05
4.75973e-05
4.60162e-05
4.45214e-05
4.31079e-05
4.17718e-05
4.05091e-05
3.93167e-05
3.81916e-05
3.71311e-05
3.61331e-05
3.51953e-05
3.43161e-05
3.34937e-05
3.27266e-05
3.20132e-05
3.13523e-05
3.07423e-05
3.01818e-05
2.96692e-05
2.92031e-05
2.87816e-05
2.8403e-05
2.80653e-05
2.77666e-05
2.75049e-05
2.72779e-05
2.70834e-05
2.69192e-05
2.67829e-05
2.66722e-05
2.65849e-05
2.65188e-05
2.64716e-05
2.64412e-05
2.64258e-05
2.64234e-05
2.64315e-05
2.64496e-05
2.64756e-05
2.6508e-05
2.65454e-05
2.65864e-05
2.66298e-05
2.66744e-05
2.67191e-05
2.67628e-05
2.68044e-05
2.68431e-05
2.68778e-05
2.69078e-05
2.69323e-05
2.69507e-05
2.69625e-05
2.69675e-05
0.000939684
0.000835707
0.000745869
0.000668
0.000600293
0.000541236
0.000489565
0.000444216
0.000404297
0.000369051
0.000337841
0.000310124
0.000285441
0.000263397
0.000243658
0.000225935
0.000209981
0.000195584
0.000182559
0.000170748
0.000160011
0.00015023
0.0001413
0.000133128
0.000125635
0.00011875
0.000112412
0.000106566
0.000101163
9.61619e-05
9.15237e-05
8.72151e-05
8.32061e-05
7.947e-05
7.59829e-05
7.27236e-05
6.96728e-05
6.68134e-05
6.41301e-05
6.1609e-05
5.92376e-05
5.70047e-05
5.49004e-05
5.29154e-05
5.10417e-05
4.92719e-05
4.75995e-05
4.60185e-05
4.45236e-05
4.31103e-05
4.17741e-05
4.05115e-05
3.93191e-05
3.81939e-05
3.71335e-05
3.61354e-05
3.51976e-05
3.43184e-05
3.34959e-05
3.27287e-05
3.20152e-05
3.13542e-05
3.0744e-05
3.01834e-05
2.96707e-05
2.92043e-05
2.87827e-05
2.84039e-05
2.80661e-05
2.77673e-05
2.75054e-05
2.72782e-05
2.70835e-05
2.69191e-05
2.67826e-05
2.66718e-05
2.65843e-05
2.6518e-05
2.64707e-05
2.64403e-05
2.64248e-05
2.64223e-05
2.64304e-05
2.64485e-05
2.64745e-05
2.65069e-05
2.65443e-05
2.65854e-05
2.66289e-05
2.66736e-05
2.67183e-05
2.6762e-05
2.68038e-05
2.68425e-05
2.68773e-05
2.69074e-05
2.69319e-05
2.69504e-05
2.69623e-05
2.69672e-05
0.000939684
0.000835707
0.00074587
0.000668001
0.000600294
0.000541237
0.000489566
0.000444218
0.000404299
0.000369053
0.000337843
0.000310126
0.000285443
0.000263399
0.00024366
0.000225937
0.000209983
0.000195586
0.000182561
0.00017075
0.000160013
0.000150232
0.000141302
0.00013313
0.000125637
0.000118752
0.000112414
0.000106568
0.000101165
9.6164e-05
9.15258e-05
8.72172e-05
8.32083e-05
7.94722e-05
7.59852e-05
7.27259e-05
6.96751e-05
6.68158e-05
6.41325e-05
6.16115e-05
5.92401e-05
5.70073e-05
5.4903e-05
5.29181e-05
5.10445e-05
4.92748e-05
4.76024e-05
4.60214e-05
4.45266e-05
4.31133e-05
4.17771e-05
4.05145e-05
3.93221e-05
3.8197e-05
3.71365e-05
3.61384e-05
3.52005e-05
3.43212e-05
3.34986e-05
3.27313e-05
3.20177e-05
3.13565e-05
3.07461e-05
3.01853e-05
2.96724e-05
2.92058e-05
2.87839e-05
2.84049e-05
2.80669e-05
2.77678e-05
2.75057e-05
2.72783e-05
2.70834e-05
2.69187e-05
2.6782e-05
2.66709e-05
2.65833e-05
2.65168e-05
2.64694e-05
2.64389e-05
2.64233e-05
2.64208e-05
2.64289e-05
2.64469e-05
2.64729e-05
2.65054e-05
2.65428e-05
2.6584e-05
2.66275e-05
2.66723e-05
2.67172e-05
2.6761e-05
2.68028e-05
2.68417e-05
2.68766e-05
2.69068e-05
2.69314e-05
2.695e-05
2.69619e-05
2.69669e-05
0.000939684
0.000835708
0.00074587
0.000668002
0.000600295
0.000541239
0.000489568
0.00044422
0.000404301
0.000369055
0.000337845
0.000310129
0.000285445
0.000263401
0.000243662
0.000225939
0.000209986
0.000195588
0.000182563
0.000170752
0.000160016
0.000150235
0.000141304
0.000133132
0.000125639
0.000118755
0.000112416
0.00010657
0.000101168
9.61666e-05
9.15284e-05
8.72199e-05
8.32109e-05
7.94749e-05
7.5988e-05
7.27287e-05
6.9678e-05
6.68188e-05
6.41355e-05
6.16145e-05
5.92433e-05
5.70106e-05
5.49063e-05
5.29215e-05
5.10479e-05
4.92782e-05
4.76059e-05
4.6025e-05
4.45302e-05
4.31169e-05
4.17808e-05
4.05183e-05
3.93259e-05
3.82007e-05
3.71402e-05
3.6142e-05
3.52041e-05
3.43246e-05
3.35019e-05
3.27344e-05
3.20206e-05
3.13592e-05
3.07486e-05
3.01875e-05
2.96743e-05
2.92075e-05
2.87853e-05
2.84059e-05
2.80676e-05
2.77682e-05
2.75058e-05
2.72781e-05
2.70829e-05
2.69179e-05
2.6781e-05
2.66697e-05
2.65818e-05
2.65152e-05
2.64676e-05
2.6437e-05
2.64213e-05
2.64188e-05
2.64268e-05
2.64449e-05
2.64709e-05
2.65034e-05
2.65409e-05
2.65822e-05
2.66258e-05
2.66707e-05
2.67157e-05
2.67597e-05
2.68017e-05
2.68406e-05
2.68757e-05
2.6906e-05
2.69308e-05
2.69494e-05
2.69614e-05
2.69664e-05
0.000939684
0.000835708
0.000745871
0.000668003
0.000600297
0.000541241
0.00048957
0.000444222
0.000404303
0.000369058
0.000337848
0.000310131
0.000285448
0.000263404
0.000243665
0.000225942
0.000209988
0.000195591
0.000182566
0.000170755
0.000160019
0.000150237
0.000141307
0.000133135
0.000125642
0.000118757
0.000112419
0.000106573
0.000101171
9.61696e-05
9.15315e-05
8.7223e-05
8.32141e-05
7.94781e-05
7.59912e-05
7.2732e-05
6.96814e-05
6.68222e-05
6.41391e-05
6.16182e-05
5.9247e-05
5.70144e-05
5.49102e-05
5.29254e-05
5.10519e-05
4.92823e-05
4.76101e-05
4.60292e-05
4.45345e-05
4.31213e-05
4.17852e-05
4.05226e-05
3.93302e-05
3.8205e-05
3.71445e-05
3.61462e-05
3.52082e-05
3.43286e-05
3.35057e-05
3.2738e-05
3.20241e-05
3.13623e-05
3.07515e-05
3.019e-05
2.96765e-05
2.92093e-05
2.87867e-05
2.8407e-05
2.80683e-05
2.77686e-05
2.75058e-05
2.72777e-05
2.70822e-05
2.69169e-05
2.67796e-05
2.66681e-05
2.658e-05
2.65131e-05
2.64654e-05
2.64347e-05
2.64189e-05
2.64163e-05
2.64243e-05
2.64424e-05
2.64685e-05
2.6501e-05
2.65387e-05
2.658e-05
2.66238e-05
2.66688e-05
2.6714e-05
2.67581e-05
2.68002e-05
2.68394e-05
2.68746e-05
2.69051e-05
2.693e-05
2.69487e-05
2.69607e-05
2.69657e-05
0.000939684
0.000835709
0.000745872
0.000668004
0.000600298
0.000541242
0.000489572
0.000444224
0.000404305
0.00036906
0.00033785
0.000310134
0.00028545
0.000263407
0.000243668
0.000225945
0.000209991
0.000195594
0.000182569
0.000170758
0.000160022
0.000150241
0.00014131
0.000133138
0.000125645
0.000118761
0.000112423
0.000106577
0.000101174
9.6173e-05
9.1535e-05
8.72265e-05
8.32177e-05
7.94818e-05
7.5995e-05
7.27359e-05
6.96853e-05
6.68262e-05
6.41432e-05
6.16224e-05
5.92513e-05
5.70187e-05
5.49147e-05
5.293e-05
5.10566e-05
4.92871e-05
4.76149e-05
4.60341e-05
4.45395e-05
4.31263e-05
4.17902e-05
4.05277e-05
3.93353e-05
3.821e-05
3.71494e-05
3.61511e-05
3.52129e-05
3.43332e-05
3.35101e-05
3.27422e-05
3.20279e-05
3.13659e-05
3.07547e-05
3.01929e-05
2.9679e-05
2.92113e-05
2.87883e-05
2.84082e-05
2.80691e-05
2.77689e-05
2.75057e-05
2.72772e-05
2.70813e-05
2.69156e-05
2.6778e-05
2.66662e-05
2.65778e-05
2.65107e-05
2.64628e-05
2.64319e-05
2.64161e-05
2.64134e-05
2.64214e-05
2.64395e-05
2.64656e-05
2.64982e-05
2.6536e-05
2.65775e-05
2.66214e-05
2.66666e-05
2.67119e-05
2.67562e-05
2.67986e-05
2.68379e-05
2.68733e-05
2.69039e-05
2.6929e-05
2.69478e-05
2.69599e-05
2.69648e-05
0.000939685
0.000835709
0.000745872
0.000668005
0.000600299
0.000541244
0.000489573
0.000444226
0.000404308
0.000369063
0.000337853
0.000310137
0.000285453
0.00026341
0.000243671
0.000225948
0.000209994
0.000195597
0.000182573
0.000170761
0.000160025
0.000150244
0.000141313
0.000133142
0.000125649
0.000118764
0.000112426
0.00010658
0.000101178
9.61768e-05
9.15389e-05
8.72305e-05
8.32218e-05
7.94859e-05
7.59992e-05
7.27402e-05
6.96897e-05
6.68307e-05
6.41478e-05
6.16271e-05
5.92561e-05
5.70237e-05
5.49197e-05
5.29351e-05
5.10618e-05
4.92924e-05
4.76203e-05
4.60396e-05
4.45451e-05
4.31319e-05
4.17959e-05
4.05333e-05
3.93409e-05
3.82157e-05
3.71549e-05
3.61565e-05
3.52182e-05
3.43383e-05
3.3515e-05
3.27468e-05
3.20322e-05
3.13699e-05
3.07583e-05
3.0196e-05
2.96817e-05
2.92136e-05
2.87901e-05
2.84095e-05
2.80698e-05
2.77692e-05
2.75054e-05
2.72765e-05
2.70801e-05
2.69141e-05
2.67761e-05
2.66639e-05
2.65753e-05
2.65079e-05
2.64598e-05
2.64288e-05
2.64129e-05
2.64101e-05
2.64181e-05
2.64362e-05
2.64624e-05
2.64951e-05
2.65329e-05
2.65746e-05
2.66187e-05
2.6664e-05
2.67095e-05
2.67541e-05
2.67966e-05
2.68362e-05
2.68718e-05
2.69026e-05
2.69277e-05
2.69467e-05
2.69589e-05
2.69638e-05
0.000939685
0.000835709
0.000745873
0.000668006
0.0006003
0.000541245
0.000489575
0.000444228
0.00040431
0.000369065
0.000337856
0.00031014
0.000285456
0.000263413
0.000243674
0.000225951
0.000209998
0.000195601
0.000182576
0.000170765
0.000160029
0.000150248
0.000141317
0.000133145
0.000125653
0.000118768
0.00011243
0.000106584
0.000101182
9.6181e-05
9.15431e-05
8.72348e-05
8.32262e-05
7.94905e-05
7.60038e-05
7.27449e-05
6.96946e-05
6.68357e-05
6.41529e-05
6.16323e-05
5.92614e-05
5.70291e-05
5.49253e-05
5.29408e-05
5.10676e-05
4.92983e-05
4.76263e-05
4.60457e-05
4.45512e-05
4.31381e-05
4.18022e-05
4.05396e-05
3.93472e-05
3.82219e-05
3.71611e-05
3.61625e-05
3.52241e-05
3.43439e-05
3.35204e-05
3.27519e-05
3.2037e-05
3.13742e-05
3.07622e-05
3.01995e-05
2.96846e-05
2.9216e-05
2.8792e-05
2.84108e-05
2.80706e-05
2.77694e-05
2.75052e-05
2.72757e-05
2.70789e-05
2.69124e-05
2.6774e-05
2.66614e-05
2.65724e-05
2.65048e-05
2.64565e-05
2.64253e-05
2.64092e-05
2.64065e-05
2.64144e-05
2.64325e-05
2.64587e-05
2.64916e-05
2.65295e-05
2.65713e-05
2.66156e-05
2.66612e-05
2.67069e-05
2.67517e-05
2.67944e-05
2.68342e-05
2.687e-05
2.6901e-05
2.69263e-05
2.69454e-05
2.69576e-05
2.69626e-05
0.000939685
0.000835709
0.000745873
0.000668007
0.000600301
0.000541246
0.000489577
0.00044423
0.000404312
0.000369067
0.000337858
0.000310142
0.000285459
0.000263416
0.000243677
0.000225955
0.000210001
0.000195604
0.00018258
0.000170768
0.000160032
0.000150252
0.000141321
0.000133149
0.000125657
0.000118772
0.000112434
0.000106589
0.000101187
9.61855e-05
9.15477e-05
8.72395e-05
8.3231e-05
7.94954e-05
7.60089e-05
7.27501e-05
6.96999e-05
6.68411e-05
6.41584e-05
6.1638e-05
5.92672e-05
5.70351e-05
5.49314e-05
5.29471e-05
5.1074e-05
4.93048e-05
4.76329e-05
4.60524e-05
4.4558e-05
4.31449e-05
4.1809e-05
4.05465e-05
3.9354e-05
3.82286e-05
3.71677e-05
3.6169e-05
3.52304e-05
3.435e-05
3.35262e-05
3.27574e-05
3.20421e-05
3.13789e-05
3.07665e-05
3.02032e-05
2.96878e-05
2.92186e-05
2.8794e-05
2.84123e-05
2.80715e-05
2.77697e-05
2.75048e-05
2.72748e-05
2.70774e-05
2.69105e-05
2.67716e-05
2.66586e-05
2.65693e-05
2.65014e-05
2.64528e-05
2.64215e-05
2.64053e-05
2.64024e-05
2.64103e-05
2.64285e-05
2.64547e-05
2.64877e-05
2.65258e-05
2.65677e-05
2.66122e-05
2.6658e-05
2.6704e-05
2.6749e-05
2.6792e-05
2.6832e-05
2.6868e-05
2.68992e-05
2.69247e-05
2.69439e-05
2.69562e-05
2.69612e-05
0.000939685
0.00083571
0.000745874
0.000668007
0.000600302
0.000541248
0.000489578
0.000444232
0.000404314
0.00036907
0.000337861
0.000310145
0.000285462
0.000263419
0.00024368
0.000225958
0.000210005
0.000195608
0.000182583
0.000170772
0.000160036
0.000150256
0.000141325
0.000133154
0.000125661
0.000118777
0.000112439
0.000106593
0.000101191
9.61903e-05
9.15527e-05
8.72446e-05
8.32362e-05
7.95007e-05
7.60143e-05
7.27556e-05
6.97056e-05
6.6847e-05
6.41644e-05
6.16441e-05
5.92735e-05
5.70415e-05
5.49379e-05
5.29538e-05
5.10808e-05
4.93118e-05
4.764e-05
4.60596e-05
4.45653e-05
4.31523e-05
4.18164e-05
4.05539e-05
3.93614e-05
3.82359e-05
3.71749e-05
3.61761e-05
3.52373e-05
3.43566e-05
3.35325e-05
3.27633e-05
3.20476e-05
3.1384e-05
3.0771e-05
3.02073e-05
2.96913e-05
2.92215e-05
2.87962e-05
2.84138e-05
2.80724e-05
2.77699e-05
2.75045e-05
2.72739e-05
2.70759e-05
2.69084e-05
2.67691e-05
2.66557e-05
2.6566e-05
2.64978e-05
2.64489e-05
2.64173e-05
2.6401e-05
2.63981e-05
2.64059e-05
2.64241e-05
2.64504e-05
2.64835e-05
2.65217e-05
2.65639e-05
2.66086e-05
2.66546e-05
2.67008e-05
2.6746e-05
2.67893e-05
2.68295e-05
2.68658e-05
2.68972e-05
2.69229e-05
2.69422e-05
2.69546e-05
2.69596e-05
0.000939685
0.00083571
0.000745874
0.000668008
0.000600303
0.000541249
0.00048958
0.000444234
0.000404316
0.000369072
0.000337863
0.000310148
0.000285465
0.000263422
0.000243684
0.000225961
0.000210008
0.000195612
0.000182587
0.000170776
0.00016004
0.00015026
0.000141329
0.000133158
0.000125666
0.000118781
0.000112444
0.000106598
0.000101196
9.61954e-05
9.15579e-05
8.72499e-05
8.32417e-05
7.95063e-05
7.60201e-05
7.27615e-05
6.97116e-05
6.68532e-05
6.41708e-05
6.16506e-05
5.92802e-05
5.70484e-05
5.4945e-05
5.29609e-05
5.10882e-05
4.93192e-05
4.76476e-05
4.60673e-05
4.4573e-05
4.31601e-05
4.18243e-05
4.05617e-05
3.93692e-05
3.82437e-05
3.71826e-05
3.61836e-05
3.52446e-05
3.43637e-05
3.35392e-05
3.27697e-05
3.20535e-05
3.13894e-05
3.07759e-05
3.02116e-05
2.96949e-05
2.92245e-05
2.87986e-05
2.84155e-05
2.80733e-05
2.77702e-05
2.75041e-05
2.72728e-05
2.70743e-05
2.69062e-05
2.67663e-05
2.66525e-05
2.65624e-05
2.64938e-05
2.64447e-05
2.64129e-05
2.63964e-05
2.63934e-05
2.64012e-05
2.64194e-05
2.64458e-05
2.6479e-05
2.65174e-05
2.65597e-05
2.66046e-05
2.66509e-05
2.66973e-05
2.67428e-05
2.67863e-05
2.68268e-05
2.68634e-05
2.6895e-05
2.69208e-05
2.69403e-05
2.69528e-05
2.69578e-05
0.000939685
0.00083571
0.000745875
0.000668009
0.000600304
0.00054125
0.000489581
0.000444235
0.000404318
0.000369074
0.000337866
0.000310151
0.000285468
0.000263425
0.000243687
0.000225965
0.000210012
0.000195615
0.000182591
0.00017078
0.000160045
0.000150264
0.000141334
0.000133163
0.00012567
0.000118786
0.000112449
0.000106603
0.000101201
9.62007e-05
9.15633e-05
8.72555e-05
8.32474e-05
7.95122e-05
7.60261e-05
7.27678e-05
6.9718e-05
6.68598e-05
6.41776e-05
6.16576e-05
5.92873e-05
5.70556e-05
5.49524e-05
5.29685e-05
5.10959e-05
4.93271e-05
4.76556e-05
4.60754e-05
4.45813e-05
4.31684e-05
4.18326e-05
4.05701e-05
3.93775e-05
3.8252e-05
3.71908e-05
3.61916e-05
3.52523e-05
3.43711e-05
3.35463e-05
3.27764e-05
3.20598e-05
3.13952e-05
3.07811e-05
3.02161e-05
2.96988e-05
2.92277e-05
2.88011e-05
2.84172e-05
2.80743e-05
2.77705e-05
2.75037e-05
2.72717e-05
2.70725e-05
2.69039e-05
2.67635e-05
2.66491e-05
2.65586e-05
2.64897e-05
2.64403e-05
2.64083e-05
2.63916e-05
2.63885e-05
2.63963e-05
2.64144e-05
2.64409e-05
2.64742e-05
2.65128e-05
2.65553e-05
2.66004e-05
2.66469e-05
2.66936e-05
2.67394e-05
2.67832e-05
2.68239e-05
2.68607e-05
2.68925e-05
2.69186e-05
2.69382e-05
2.69508e-05
2.69558e-05
0.000939685
0.00083571
0.000745875
0.000668009
0.000600305
0.000541251
0.000489583
0.000444237
0.00040432
0.000369076
0.000337868
0.000310153
0.000285471
0.000263429
0.00024369
0.000225968
0.000210016
0.000195619
0.000182595
0.000170784
0.000160049
0.000150268
0.000141338
0.000133167
0.000125675
0.000118791
0.000112454
0.000106608
0.000101207
9.62063e-05
9.1569e-05
8.72614e-05
8.32534e-05
7.95184e-05
7.60325e-05
7.27743e-05
6.97248e-05
6.68667e-05
6.41846e-05
6.16648e-05
5.92948e-05
5.70633e-05
5.49602e-05
5.29765e-05
5.11041e-05
4.93354e-05
4.76641e-05
4.6084e-05
4.45899e-05
4.31771e-05
4.18414e-05
4.05789e-05
3.93863e-05
3.82606e-05
3.71993e-05
3.61999e-05
3.52604e-05
3.43789e-05
3.35538e-05
3.27834e-05
3.20664e-05
3.14012e-05
3.07865e-05
3.02209e-05
2.97029e-05
2.9231e-05
2.88037e-05
2.84191e-05
2.80754e-05
2.77708e-05
2.75033e-05
2.72706e-05
2.70708e-05
2.69015e-05
2.67605e-05
2.66456e-05
2.65547e-05
2.64854e-05
2.64356e-05
2.64034e-05
2.63865e-05
2.63833e-05
2.6391e-05
2.64092e-05
2.64358e-05
2.64691e-05
2.65079e-05
2.65506e-05
2.65959e-05
2.66426e-05
2.66896e-05
2.67357e-05
2.67797e-05
2.68207e-05
2.68578e-05
2.68898e-05
2.69161e-05
2.69359e-05
2.69486e-05
2.69537e-05
0.000939685
0.00083571
0.000745875
0.00066801
0.000600306
0.000541252
0.000489584
0.000444239
0.000404322
0.000369079
0.00033787
0.000310156
0.000285474
0.000263431
0.000243693
0.000225972
0.000210019
0.000195623
0.000182599
0.000170789
0.000160053
0.000150273
0.000141343
0.000133172
0.00012568
0.000118796
0.000112459
0.000106614
0.000101212
9.6212e-05
9.15749e-05
8.72674e-05
8.32597e-05
7.95248e-05
7.60391e-05
7.27811e-05
6.97317e-05
6.68738e-05
6.4192e-05
6.16724e-05
5.93025e-05
5.70712e-05
5.49684e-05
5.29849e-05
5.11126e-05
4.93441e-05
4.76729e-05
4.60929e-05
4.4599e-05
4.31863e-05
4.18505e-05
4.0588e-05
3.93954e-05
3.82697e-05
3.72082e-05
3.62086e-05
3.52689e-05
3.43871e-05
3.35616e-05
3.27908e-05
3.20732e-05
3.14074e-05
3.07921e-05
3.02259e-05
2.97072e-05
2.92346e-05
2.88064e-05
2.8421e-05
2.80766e-05
2.77712e-05
2.75029e-05
2.72695e-05
2.70689e-05
2.6899e-05
2.67574e-05
2.6642e-05
2.65506e-05
2.64809e-05
2.64308e-05
2.63983e-05
2.63813e-05
2.63779e-05
2.63856e-05
2.64038e-05
2.64304e-05
2.64639e-05
2.65027e-05
2.65456e-05
2.65912e-05
2.66382e-05
2.66854e-05
2.67317e-05
2.67761e-05
2.68174e-05
2.68546e-05
2.68869e-05
2.69134e-05
2.69333e-05
2.69461e-05
2.69513e-05
0.000939685
0.000835711
0.000745876
0.00066801
0.000600306
0.000541253
0.000489585
0.00044424
0.000404323
0.00036908
0.000337873
0.000310158
0.000285476
0.000263434
0.000243697
0.000225975
0.000210023
0.000195627
0.000182603
0.000170793
0.000160057
0.000150277
0.000141348
0.000133177
0.000125685
0.000118801
0.000112464
0.000106619
0.000101218
9.62178e-05
9.15809e-05
8.72737e-05
8.32661e-05
7.95314e-05
7.60459e-05
7.27881e-05
6.9739e-05
6.68813e-05
6.41996e-05
6.16802e-05
5.93106e-05
5.70795e-05
5.49768e-05
5.29935e-05
5.11214e-05
4.93531e-05
4.7682e-05
4.61022e-05
4.46083e-05
4.31957e-05
4.186e-05
4.05975e-05
3.94049e-05
3.8279e-05
3.72174e-05
3.62177e-05
3.52777e-05
3.43955e-05
3.35696e-05
3.27984e-05
3.20803e-05
3.1414e-05
3.0798e-05
3.02311e-05
2.97116e-05
2.92382e-05
2.88093e-05
2.84231e-05
2.80778e-05
2.77716e-05
2.75025e-05
2.72684e-05
2.70671e-05
2.68964e-05
2.67543e-05
2.66383e-05
2.65464e-05
2.64763e-05
2.64259e-05
2.63931e-05
2.63758e-05
2.63724e-05
2.63799e-05
2.63981e-05
2.64248e-05
2.64584e-05
2.64974e-05
2.65405e-05
2.65862e-05
2.66335e-05
2.6681e-05
2.67276e-05
2.67722e-05
2.68138e-05
2.68513e-05
2.68838e-05
2.69105e-05
2.69306e-05
2.69435e-05
2.69487e-05
0.000939685
0.000835711
0.000745876
0.000668011
0.000600307
0.000541254
0.000489586
0.000444241
0.000404325
0.000369082
0.000337875
0.000310161
0.000285479
0.000263437
0.0002437
0.000225978
0.000210026
0.00019563
0.000182607
0.000170797
0.000160062
0.000150282
0.000141352
0.000133182
0.00012569
0.000118807
0.00011247
0.000106625
0.000101224
9.62238e-05
9.15871e-05
8.728e-05
8.32726e-05
7.95382e-05
7.60529e-05
7.27953e-05
6.97464e-05
6.68889e-05
6.42075e-05
6.16883e-05
5.93189e-05
5.7088e-05
5.49855e-05
5.30024e-05
5.11305e-05
4.93623e-05
4.76914e-05
4.61117e-05
4.4618e-05
4.32054e-05
4.18698e-05
4.06073e-05
3.94146e-05
3.82887e-05
3.72269e-05
3.6227e-05
3.52867e-05
3.44043e-05
3.35779e-05
3.28062e-05
3.20876e-05
3.14207e-05
3.08041e-05
3.02364e-05
2.97162e-05
2.9242e-05
2.88123e-05
2.84252e-05
2.80791e-05
2.77721e-05
2.75022e-05
2.72672e-05
2.70652e-05
2.68939e-05
2.67511e-05
2.66345e-05
2.65421e-05
2.64715e-05
2.64208e-05
2.63877e-05
2.63702e-05
2.63666e-05
2.63741e-05
2.63923e-05
2.6419e-05
2.64527e-05
2.64919e-05
2.65351e-05
2.65811e-05
2.66286e-05
2.66763e-05
2.67232e-05
2.67681e-05
2.68099e-05
2.68477e-05
2.68805e-05
2.69073e-05
2.69276e-05
2.69406e-05
2.69459e-05
0.000939685
0.000835711
0.000745876
0.000668011
0.000600308
0.000541255
0.000489587
0.000444243
0.000404327
0.000369084
0.000337877
0.000310163
0.000285481
0.00026344
0.000243703
0.000225982
0.00021003
0.000195634
0.000182611
0.000170801
0.000160066
0.000150286
0.000141357
0.000133187
0.000125695
0.000118812
0.000112475
0.00010663
0.00010123
9.62299e-05
9.15934e-05
8.72865e-05
8.32793e-05
7.95451e-05
7.606e-05
7.28027e-05
6.9754e-05
6.68967e-05
6.42155e-05
6.16966e-05
5.93274e-05
5.70967e-05
5.49944e-05
5.30115e-05
5.11398e-05
4.93718e-05
4.77011e-05
4.61215e-05
4.46279e-05
4.32154e-05
4.18798e-05
4.06173e-05
3.94246e-05
3.82986e-05
3.72367e-05
3.62365e-05
3.52959e-05
3.44132e-05
3.35865e-05
3.28143e-05
3.20951e-05
3.14276e-05
3.08103e-05
3.02419e-05
2.9721e-05
2.9246e-05
2.88154e-05
2.84275e-05
2.80805e-05
2.77726e-05
2.75018e-05
2.72661e-05
2.70633e-05
2.68913e-05
2.67478e-05
2.66307e-05
2.65377e-05
2.64667e-05
2.64156e-05
2.63822e-05
2.63645e-05
2.63608e-05
2.63682e-05
2.63863e-05
2.64131e-05
2.64468e-05
2.64862e-05
2.65296e-05
2.65758e-05
2.66235e-05
2.66715e-05
2.67187e-05
2.67638e-05
2.68059e-05
2.6844e-05
2.68769e-05
2.6904e-05
2.69245e-05
2.69376e-05
2.69429e-05
0.000939685
0.000835711
0.000745876
0.000668011
0.000600308
0.000541255
0.000489588
0.000444244
0.000404328
0.000369086
0.000337879
0.000310165
0.000285484
0.000263443
0.000243706
0.000225985
0.000210033
0.000195638
0.000182615
0.000170805
0.00016007
0.000150291
0.000141362
0.000133191
0.0001257
0.000118817
0.000112481
0.000106636
0.000101236
9.6236e-05
9.15997e-05
8.72931e-05
8.32861e-05
7.95521e-05
7.60673e-05
7.28102e-05
6.97617e-05
6.69047e-05
6.42237e-05
6.1705e-05
5.9336e-05
5.71055e-05
5.50035e-05
5.30208e-05
5.11493e-05
4.93815e-05
4.77109e-05
4.61315e-05
4.4638e-05
4.32256e-05
4.189e-05
4.06276e-05
3.94348e-05
3.83087e-05
3.72466e-05
3.62462e-05
3.53054e-05
3.44223e-05
3.35951e-05
3.28225e-05
3.21027e-05
3.14346e-05
3.08167e-05
3.02475e-05
2.97258e-05
2.925e-05
2.88185e-05
2.84298e-05
2.80819e-05
2.77732e-05
2.75016e-05
2.7265e-05
2.70614e-05
2.68887e-05
2.67445e-05
2.66268e-05
2.65333e-05
2.64619e-05
2.64103e-05
2.63766e-05
2.63587e-05
2.63547e-05
2.63621e-05
2.63802e-05
2.6407e-05
2.64409e-05
2.64803e-05
2.65239e-05
2.65703e-05
2.66183e-05
2.66666e-05
2.6714e-05
2.67594e-05
2.68018e-05
2.684e-05
2.68732e-05
2.69005e-05
2.69211e-05
2.69344e-05
2.69397e-05
0.000939685
0.000835711
0.000745877
0.000668012
0.000600309
0.000541256
0.000489589
0.000444245
0.000404329
0.000369087
0.000337881
0.000310167
0.000285486
0.000263445
0.000243708
0.000225988
0.000210036
0.000195641
0.000182618
0.000170809
0.000160075
0.000150295
0.000141366
0.000133196
0.000125705
0.000118822
0.000112486
0.000106642
0.000101241
9.62422e-05
9.16061e-05
8.72997e-05
8.3293e-05
7.95592e-05
7.60746e-05
7.28177e-05
6.97695e-05
6.69127e-05
6.4232e-05
6.17135e-05
5.93448e-05
5.71145e-05
5.50127e-05
5.30303e-05
5.11589e-05
4.93913e-05
4.77209e-05
4.61416e-05
4.46482e-05
4.32359e-05
4.19004e-05
4.06379e-05
3.94451e-05
3.83189e-05
3.72567e-05
3.62561e-05
3.5315e-05
3.44315e-05
3.3604e-05
3.28308e-05
3.21105e-05
3.14418e-05
3.08231e-05
3.02533e-05
2.97307e-05
2.92541e-05
2.88218e-05
2.84321e-05
2.80834e-05
2.77738e-05
2.75013e-05
2.72639e-05
2.70596e-05
2.68861e-05
2.67413e-05
2.66229e-05
2.65289e-05
2.64569e-05
2.6405e-05
2.6371e-05
2.63528e-05
2.63486e-05
2.63559e-05
2.6374e-05
2.64008e-05
2.64348e-05
2.64744e-05
2.65181e-05
2.65648e-05
2.66129e-05
2.66615e-05
2.67091e-05
2.67548e-05
2.67974e-05
2.6836e-05
2.68694e-05
2.68969e-05
2.69176e-05
2.6931e-05
2.69363e-05
0.000939685
0.000835711
0.000745877
0.000668012
0.000600309
0.000541257
0.00048959
0.000444246
0.000404331
0.000369089
0.000337882
0.000310169
0.000285489
0.000263448
0.000243711
0.000225991
0.00021004
0.000195645
0.000182622
0.000170813
0.000160079
0.0001503
0.000141371
0.000133201
0.00012571
0.000118828
0.000112492
0.000106648
0.000101247
9.62483e-05
9.16125e-05
8.73064e-05
8.32999e-05
7.95664e-05
7.6082e-05
7.28253e-05
6.97773e-05
6.69208e-05
6.42404e-05
6.17221e-05
5.93536e-05
5.71236e-05
5.50221e-05
5.30398e-05
5.11687e-05
4.94013e-05
4.7731e-05
4.61519e-05
4.46586e-05
4.32463e-05
4.19109e-05
4.06484e-05
3.94555e-05
3.83292e-05
3.72668e-05
3.6266e-05
3.53246e-05
3.44408e-05
3.36129e-05
3.28392e-05
3.21184e-05
3.1449e-05
3.08297e-05
3.02591e-05
2.97357e-05
2.92583e-05
2.88251e-05
2.84346e-05
2.8085e-05
2.77745e-05
2.75011e-05
2.72629e-05
2.70578e-05
2.68835e-05
2.6738e-05
2.6619e-05
2.65244e-05
2.6452e-05
2.63997e-05
2.63653e-05
2.63469e-05
2.63425e-05
2.63497e-05
2.63678e-05
2.63946e-05
2.64286e-05
2.64683e-05
2.65122e-05
2.6559e-05
2.66075e-05
2.66562e-05
2.67041e-05
2.67501e-05
2.6793e-05
2.68317e-05
2.68654e-05
2.6893e-05
2.69139e-05
2.69274e-05
2.69328e-05
0.000939685
0.000835711
0.000745877
0.000668013
0.00060031
0.000541258
0.000489591
0.000444247
0.000404332
0.00036909
0.000337884
0.000310171
0.000285491
0.00026345
0.000243714
0.000225994
0.000210043
0.000195648
0.000182626
0.000170817
0.000160083
0.000150304
0.000141375
0.000133206
0.000125715
0.000118833
0.000112497
0.000106653
0.000101253
9.62545e-05
9.16189e-05
8.7313e-05
8.33068e-05
7.95735e-05
7.60894e-05
7.2833e-05
6.97852e-05
6.6929e-05
6.42488e-05
6.17308e-05
5.93625e-05
5.71328e-05
5.50314e-05
5.30494e-05
5.11785e-05
4.94112e-05
4.77411e-05
4.61622e-05
4.4669e-05
4.32568e-05
4.19214e-05
4.0659e-05
3.9466e-05
3.83396e-05
3.72771e-05
3.6276e-05
3.53344e-05
3.44502e-05
3.36218e-05
3.28477e-05
3.21263e-05
3.14563e-05
3.08363e-05
3.02649e-05
2.97408e-05
2.92625e-05
2.88285e-05
2.8437e-05
2.80866e-05
2.77752e-05
2.7501e-05
2.72619e-05
2.7056e-05
2.6881e-05
2.67348e-05
2.66152e-05
2.652e-05
2.64471e-05
2.63943e-05
2.63596e-05
2.6341e-05
2.63364e-05
2.63435e-05
2.63615e-05
2.63883e-05
2.64224e-05
2.64622e-05
2.65063e-05
2.65533e-05
2.66019e-05
2.66509e-05
2.66991e-05
2.67453e-05
2.67884e-05
2.68274e-05
2.68612e-05
2.68891e-05
2.69101e-05
2.69237e-05
2.69292e-05
0.000939685
0.000835711
0.000745877
0.000668013
0.00060031
0.000541258
0.000489592
0.000444248
0.000404333
0.000369092
0.000337886
0.000310173
0.000285493
0.000263453
0.000243716
0.000225997
0.000210046
0.000195651
0.000182629
0.00017082
0.000160087
0.000150308
0.00014138
0.000133211
0.00012572
0.000118838
0.000112502
0.000106659
0.000101259
9.62606e-05
9.16253e-05
8.73196e-05
8.33136e-05
7.95806e-05
7.60967e-05
7.28406e-05
6.97931e-05
6.69371e-05
6.42572e-05
6.17394e-05
5.93714e-05
5.71419e-05
5.50408e-05
5.3059e-05
5.11883e-05
4.94212e-05
4.77513e-05
4.61725e-05
4.46794e-05
4.32674e-05
4.1932e-05
4.06695e-05
3.94765e-05
3.835e-05
3.72873e-05
3.62861e-05
3.53442e-05
3.44596e-05
3.36308e-05
3.28562e-05
3.21342e-05
3.14636e-05
3.08429e-05
3.02708e-05
2.97459e-05
2.92668e-05
2.88319e-05
2.84396e-05
2.80882e-05
2.77759e-05
2.75008e-05
2.72609e-05
2.70542e-05
2.68784e-05
2.67315e-05
2.66113e-05
2.65156e-05
2.64422e-05
2.6389e-05
2.6354e-05
2.63351e-05
2.63303e-05
2.63372e-05
2.63551e-05
2.6382e-05
2.64161e-05
2.6456e-05
2.65002e-05
2.65474e-05
2.65962e-05
2.66455e-05
2.66939e-05
2.67403e-05
2.67837e-05
2.68229e-05
2.6857e-05
2.6885e-05
2.69062e-05
2.69199e-05
2.69254e-05
0.000939685
0.000835712
0.000745877
0.000668013
0.000600311
0.000541259
0.000489592
0.000444249
0.000404334
0.000369093
0.000337887
0.000310175
0.000285495
0.000263455
0.000243719
0.000225999
0.000210049
0.000195655
0.000182633
0.000170824
0.000160091
0.000150312
0.000141384
0.000133215
0.000125725
0.000118843
0.000112508
0.000106665
0.000101265
9.62667e-05
9.16316e-05
8.73262e-05
8.33205e-05
7.95877e-05
7.61041e-05
7.28482e-05
6.9801e-05
6.69452e-05
6.42656e-05
6.17481e-05
5.93803e-05
5.7151e-05
5.50502e-05
5.30686e-05
5.1198e-05
4.94312e-05
4.77615e-05
4.61828e-05
4.46898e-05
4.32778e-05
4.19425e-05
4.068e-05
3.9487e-05
3.83604e-05
3.72976e-05
3.62961e-05
3.53539e-05
3.4469e-05
3.36398e-05
3.28647e-05
3.21422e-05
3.14709e-05
3.08495e-05
3.02767e-05
2.9751e-05
2.92711e-05
2.88353e-05
2.84421e-05