/*--------------------------------*- C++ -*----------------------------------*\
  =========                 |
  \\      /  F ield         | OpenFOAM: The Open Source CFD Toolbox
   \\    /   O peration     | Website:  https://openfoam.org
    \\  /    A nd           | Version:  11
     \\/     M anipulation  |
\*---------------------------------------------------------------------------*/
FoamFile
{
    format      ascii;
    class       surfaceScalarField;
    location    "358";
    object      phi;
}
// * * * * * * * * * * * * * * * * * * * * * * * * * * * * * * * * * * * * * //

dimensions      [0 3 -1 0 0 0 0];

internalField   nonuniform List<scalar> 
19800
(
1.99988e-05
-1.21756e-08
1.99969e-05
-3.6192e-08
1.99944e-05
-6.03448e-08
1.99914e-05
-8.50005e-08
1.99879e-05
-1.10414e-07
1.99838e-05
-1.36759e-07
1.99792e-05
-1.64172e-07
1.9974e-05
-1.9277e-07
1.99682e-05
-2.22654e-07
1.99618e-05
-2.5392e-07
1.99546e-05
-2.86654e-07
1.99467e-05
-3.20943e-07
1.99381e-05
-3.56868e-07
1.99286e-05
-3.9451e-07
1.99183e-05
-4.33948e-07
1.99071e-05
-4.75262e-07
1.98949e-05
-5.18529e-07
1.98816e-05
-5.63827e-07
1.98673e-05
-6.11233e-07
1.98519e-05
-6.60822e-07
1.98353e-05
-7.12669e-07
1.98174e-05
-7.66849e-07
1.97982e-05
-8.23435e-07
1.97776e-05
-8.82496e-07
1.97555e-05
-9.44104e-07
1.97319e-05
-1.00832e-06
1.97067e-05
-1.07522e-06
1.96798e-05
-1.14485e-06
1.96511e-05
-1.21727e-06
1.96206e-05
-1.29253e-06
1.95881e-05
-1.37067e-06
1.95536e-05
-1.45175e-06
1.95171e-05
-1.53577e-06
1.94783e-05
-1.62278e-06
1.94373e-05
-1.71277e-06
1.93939e-05
-1.80575e-06
1.9348e-05
-1.90171e-06
1.92996e-05
-2.00061e-06
1.92485e-05
-2.10242e-06
1.91947e-05
-2.20707e-06
1.91381e-05
-2.31448e-06
1.90786e-05
-2.42455e-06
1.90161e-05
-2.53715e-06
1.89505e-05
-2.65211e-06
1.88818e-05
-2.76925e-06
1.88099e-05
-2.88835e-06
1.87348e-05
-3.00916e-06
1.86564e-05
-3.13139e-06
1.85747e-05
-3.25469e-06
1.84896e-05
-3.3787e-06
1.84013e-05
-3.50301e-06
1.83096e-05
-3.62716e-06
1.82146e-05
-3.75063e-06
1.81164e-05
-3.8729e-06
1.80151e-05
-3.99339e-06
1.79108e-05
-4.11148e-06
1.78037e-05
-4.22653e-06
1.76939e-05
-4.33789e-06
1.75816e-05
-4.44489e-06
1.7467e-05
-4.54686e-06
1.73505e-05
-4.64317e-06
1.72323e-05
-4.73318e-06
1.71127e-05
-4.81634e-06
1.69922e-05
-4.89212e-06
1.6871e-05
-4.96009e-06
1.67498e-05
-5.01995e-06
1.66289e-05
-5.07139e-06
1.65076e-05
-5.11397e-06
1.63852e-05
-5.14735e-06
1.62621e-05
-5.17142e-06
1.61388e-05
-5.18663e-06
1.60163e-05
-5.19361e-06
1.58965e-05
-5.19286e-06
1.57801e-05
-5.18439e-06
1.56672e-05
-5.16824e-06
1.55582e-05
-5.14461e-06
1.54521e-05
-5.11379e-06
1.53485e-05
-5.07665e-06
1.52475e-05
-5.03399e-06
1.51492e-05
-4.98629e-06
1.50539e-05
-4.93401e-06
1.49618e-05
-4.87766e-06
1.48729e-05
-4.81777e-06
1.47874e-05
-4.75486e-06
1.47053e-05
-4.68946e-06
1.46267e-05
-4.6221e-06
1.45518e-05
-4.55331e-06
1.44806e-05
-4.48363e-06
1.44132e-05
-4.41358e-06
1.43498e-05
-4.34375e-06
1.42904e-05
-4.2747e-06
1.42352e-05
-4.20705e-06
1.41843e-05
-4.14146e-06
1.4138e-05
-4.07868e-06
1.40965e-05
-4.01953e-06
1.40602e-05
-3.96499e-06
1.40293e-05
-3.91625e-06
1.40044e-05
-3.87475e-06
1.39865e-05
-3.84288e-06
-3.82524e-06
1.99991e-05
-1.12926e-08
1.99973e-05
-3.43446e-08
1.99948e-05
-5.78746e-08
1.99918e-05
-8.19943e-08
1.99883e-05
-1.06885e-07
1.99842e-05
-1.32698e-07
1.99796e-05
-1.59557e-07
1.99744e-05
-1.87573e-07
1.99686e-05
-2.16843e-07
1.99621e-05
-2.47459e-07
1.9955e-05
-2.79506e-07
1.99471e-05
-3.13066e-07
1.99384e-05
-3.4822e-07
1.9929e-05
-3.85046e-07
1.99187e-05
-4.23622e-07
1.99074e-05
-4.64023e-07
1.98952e-05
-5.06326e-07
1.9882e-05
-5.50605e-07
1.98677e-05
-5.96935e-07
1.98523e-05
-6.45391e-07
1.98356e-05
-6.96044e-07
1.98178e-05
-7.48966e-07
1.97985e-05
-8.04229e-07
1.9778e-05
-8.61899e-07
1.97559e-05
-9.22045e-07
1.97323e-05
-9.84731e-07
1.97071e-05
-1.05002e-06
1.96802e-05
-1.11796e-06
1.96516e-05
-1.18862e-06
1.96211e-05
-1.26203e-06
1.95886e-05
-1.33825e-06
1.95542e-05
-1.41731e-06
1.95177e-05
-1.49924e-06
1.94789e-05
-1.58405e-06
1.94379e-05
-1.67177e-06
1.93946e-05
-1.76238e-06
1.93487e-05
-1.85588e-06
1.93004e-05
-1.95224e-06
1.92493e-05
-2.05141e-06
1.91956e-05
-2.15333e-06
1.91391e-05
-2.25793e-06
1.90796e-05
-2.3651e-06
1.90172e-05
-2.47472e-06
1.89517e-05
-2.58663e-06
1.88831e-05
-2.70065e-06
1.88113e-05
-2.81657e-06
1.87363e-05
-2.93414e-06
1.8658e-05
-3.05308e-06
1.85764e-05
-3.17308e-06
1.84915e-05
-3.29377e-06
1.84032e-05
-3.41475e-06
1.83116e-05
-3.53559e-06
1.82168e-05
-3.6558e-06
1.81188e-05
-3.77488e-06
1.80176e-05
-3.89225e-06
1.79135e-05
-4.00734e-06
1.78065e-05
-4.11954e-06
1.76968e-05
-4.22822e-06
1.75847e-05
-4.33274e-06
1.74703e-05
-4.43246e-06
1.73539e-05
-4.52677e-06
1.72358e-05
-4.61508e-06
1.71163e-05
-4.69682e-06
1.69957e-05
-4.77151e-06
1.68743e-05
-4.83869e-06
1.67523e-05
-4.898e-06
1.66299e-05
-4.94899e-06
1.65072e-05
-4.99125e-06
1.63846e-05
-5.02472e-06
1.62628e-05
-5.04963e-06
1.61422e-05
-5.0661e-06
1.60232e-05
-5.07459e-06
1.59059e-05
-5.0755e-06
1.57904e-05
-5.0689e-06
1.56771e-05
-5.05498e-06
1.55666e-05
-5.0341e-06
1.54592e-05
-5.00634e-06
1.53547e-05
-4.97224e-06
1.52533e-05
-4.93251e-06
1.51547e-05
-4.88778e-06
1.50593e-05
-4.83856e-06
1.4967e-05
-4.78537e-06
1.4878e-05
-4.72874e-06
1.47923e-05
-4.66919e-06
1.47101e-05
-4.60723e-06
1.46314e-05
-4.5434e-06
1.45563e-05
-4.47822e-06
1.44849e-05
-4.41223e-06
1.44173e-05
-4.34598e-06
1.43536e-05
-4.28004e-06
1.42939e-05
-4.215e-06
1.42383e-05
-4.1515e-06
1.41871e-05
-4.09021e-06
1.41403e-05
-4.03189e-06
1.40982e-05
-3.97741e-06
1.4061e-05
-3.92778e-06
1.40289e-05
-3.88419e-06
1.40022e-05
-3.84808e-06
1.39809e-05
-3.82152e-06
-3.80783e-06
1.99993e-05
-1.06287e-08
1.99977e-05
-3.2703e-08
1.99953e-05
-5.55166e-08
1.99924e-05
-7.9042e-08
1.99889e-05
-1.0338e-07
1.99848e-05
-1.28644e-07
1.99802e-05
-1.54941e-07
1.9975e-05
-1.82372e-07
1.99692e-05
-2.11027e-07
1.99627e-05
-2.40994e-07
1.99556e-05
-2.72354e-07
1.99477e-05
-3.05187e-07
1.9939e-05
-3.39572e-07
1.99296e-05
-3.75584e-07
1.99193e-05
-4.13298e-07
1.9908e-05
-4.52788e-07
1.98958e-05
-4.94128e-07
1.98826e-05
-5.37391e-07
1.98683e-05
-5.82649e-07
1.98529e-05
-6.29973e-07
1.98363e-05
-6.79434e-07
1.98184e-05
-7.31102e-07
1.97993e-05
-7.85044e-07
1.97787e-05
-8.41327e-07
1.97566e-05
-9.00015e-07
1.97331e-05
-9.6117e-07
1.97079e-05
-1.02485e-06
1.96811e-05
-1.09111e-06
1.96525e-05
-1.16001e-06
1.9622e-05
-1.23158e-06
1.95896e-05
-1.30588e-06
1.95553e-05
-1.38293e-06
1.95188e-05
-1.46276e-06
1.94801e-05
-1.54539e-06
1.94392e-05
-1.63084e-06
1.93959e-05
-1.71909e-06
1.93502e-05
-1.81014e-06
1.93019e-05
-1.90396e-06
1.9251e-05
-2.0005e-06
1.91974e-05
-2.09971e-06
1.91409e-05
-2.2015e-06
1.90816e-05
-2.30579e-06
1.90193e-05
-2.41244e-06
1.8954e-05
-2.52131e-06
1.88856e-05
-2.63222e-06
1.8814e-05
-2.74497e-06
1.87392e-05
-2.85931e-06
1.86611e-05
-2.97499e-06
1.85797e-05
-3.09169e-06
1.8495e-05
-3.20907e-06
1.8407e-05
-3.32675e-06
1.83157e-05
-3.4443e-06
1.82211e-05
-3.56126e-06
1.81234e-05
-3.67715e-06
1.80226e-05
-3.79143e-06
1.79188e-05
-3.90354e-06
1.78121e-05
-4.01289e-06
1.77028e-05
-4.11889e-06
1.7591e-05
-4.22093e-06
1.7477e-05
-4.3184e-06
1.73609e-05
-4.4107e-06
1.72431e-05
-4.49726e-06
1.71238e-05
-4.57754e-06
1.70033e-05
-4.65105e-06
1.6882e-05
-4.71734e-06
1.676e-05
-4.77599e-06
1.66376e-05
-4.82661e-06
1.65152e-05
-4.8689e-06
1.63933e-05
-4.90283e-06
1.62723e-05
-4.92857e-06
1.61525e-05
-4.94627e-06
1.60341e-05
-4.95622e-06
1.59173e-05
-4.95873e-06
1.58024e-05
-4.95397e-06
1.56896e-05
-4.94218e-06
1.55791e-05
-4.92365e-06
1.54714e-05
-4.89858e-06
1.53665e-05
-4.86737e-06
1.52646e-05
-4.83062e-06
1.51658e-05
-4.78891e-06
1.507e-05
-4.74279e-06
1.49774e-05
-4.69278e-06
1.48881e-05
-4.6394e-06
1.48021e-05
-4.58319e-06
1.47195e-05
-4.52465e-06
1.46404e-05
-4.46431e-06
1.45649e-05
-4.40271e-06
1.4493e-05
-4.34038e-06
1.44249e-05
-4.27788e-06
1.43606e-05
-4.21577e-06
1.43003e-05
-4.15466e-06
1.4244e-05
-4.09519e-06
1.41918e-05
-4.03806e-06
1.4144e-05
-3.98402e-06
1.41005e-05
-3.93394e-06
1.40615e-05
-3.88881e-06
1.40271e-05
-3.84977e-06
1.39971e-05
-3.81812e-06
1.39711e-05
-3.7955e-06
-3.78419e-06
1.99995e-05
-1.00886e-08
1.9998e-05
-3.12541e-08
1.99958e-05
-5.33145e-08
1.9993e-05
-7.61944e-08
1.99895e-05
-9.99396e-08
1.99855e-05
-1.24629e-07
1.99809e-05
-1.50348e-07
1.99757e-05
-1.77183e-07
1.99699e-05
-2.05217e-07
1.99635e-05
-2.34531e-07
1.99563e-05
-2.65202e-07
1.99484e-05
-2.97309e-07
1.99398e-05
-3.30924e-07
1.99303e-05
-3.66123e-07
1.992e-05
-4.02976e-07
1.99088e-05
-4.41558e-07
1.98966e-05
-4.81937e-07
1.98834e-05
-5.24186e-07
1.98691e-05
-5.68374e-07
1.98537e-05
-6.1457e-07
1.98371e-05
-6.62843e-07
1.98193e-05
-7.13259e-07
1.98001e-05
-7.65884e-07
1.97795e-05
-8.20783e-07
1.97576e-05
-8.78018e-07
1.9734e-05
-9.37648e-07
1.97089e-05
-9.99729e-07
1.96821e-05
-1.06432e-06
1.96536e-05
-1.13146e-06
1.96232e-05
-1.2012e-06
1.95909e-05
-1.27357e-06
1.95566e-05
-1.34862e-06
1.95202e-05
-1.42637e-06
1.94816e-05
-1.50683e-06
1.94408e-05
-1.59001e-06
1.93976e-05
-1.67591e-06
1.9352e-05
-1.76452e-06
1.93038e-05
-1.85581e-06
1.92531e-05
-1.94973e-06
1.91996e-05
-2.04624e-06
1.91433e-05
-2.14524e-06
1.90842e-05
-2.24666e-06
1.90221e-05
-2.35036e-06
1.8957e-05
-2.4562e-06
1.88888e-05
-2.56402e-06
1.88175e-05
-2.67362e-06
1.87429e-05
-2.78476e-06
1.86651e-05
-2.8972e-06
1.85841e-05
-3.01063e-06
1.84997e-05
-3.12472e-06
1.84121e-05
-3.23911e-06
1.83212e-05
-3.3534e-06
1.8227e-05
-3.46714e-06
1.81298e-05
-3.57987e-06
1.80294e-05
-3.69107e-06
1.79261e-05
-3.80022e-06
1.78199e-05
-3.90675e-06
1.77111e-05
-4.01009e-06
1.75999e-05
-4.10965e-06
1.74863e-05
-4.20486e-06
1.73708e-05
-4.29514e-06
1.72534e-05
-4.37994e-06
1.71346e-05
-4.45873e-06
1.70146e-05
-4.53102e-06
1.68936e-05
-4.59637e-06
1.6772e-05
-4.65438e-06
1.66501e-05
-4.70471e-06
1.65283e-05
-4.74711e-06
1.6407e-05
-4.78156e-06
1.62866e-05
-4.80814e-06
1.61673e-05
-4.82699e-06
1.60494e-05
-4.83834e-06
1.59331e-05
-4.84241e-06
1.58186e-05
-4.83944e-06
1.57061e-05
-4.82966e-06
1.55958e-05
-4.81336e-06
1.5488e-05
-4.79078e-06
1.53829e-05
-4.76231e-06
1.52807e-05
-4.72844e-06
1.51815e-05
-4.68971e-06
1.50854e-05
-4.64666e-06
1.49924e-05
-4.5998e-06
1.49027e-05
-4.54965e-06
1.48162e-05
-4.49674e-06
1.47332e-05
-4.44158e-06
1.46536e-05
-4.38469e-06
1.45775e-05
-4.32661e-06
1.45049e-05
-4.26788e-06
1.44361e-05
-4.20904e-06
1.4371e-05
-4.15067e-06
1.43097e-05
-4.09338e-06
1.42523e-05
-4.0378e-06
1.41989e-05
-3.98462e-06
1.41495e-05
-3.93461e-06
1.41041e-05
-3.88858e-06
1.40628e-05
-3.84749e-06
1.40254e-05
-3.81236e-06
1.39916e-05
-3.78432e-06
1.39608e-05
-3.76471e-06
-3.75534e-06
1.99995e-05
-9.63184e-09
1.99982e-05
-2.99558e-08
1.99962e-05
-5.12657e-08
1.99935e-05
-7.34731e-08
1.99901e-05
-9.65948e-08
1.99862e-05
-1.20683e-07
1.99816e-05
-1.45803e-07
1.99765e-05
-1.72027e-07
1.99707e-05
-1.99429e-07
1.99642e-05
-2.28083e-07
1.99571e-05
-2.58062e-07
1.99492e-05
-2.89438e-07
1.99406e-05
-3.22283e-07
1.99311e-05
-3.56668e-07
1.99208e-05
-3.92662e-07
1.99096e-05
-4.30335e-07
1.98974e-05
-4.69757e-07
1.98842e-05
-5.10994e-07
1.987e-05
-5.54114e-07
1.98546e-05
-5.99185e-07
1.9838e-05
-6.46273e-07
1.98202e-05
-6.95441e-07
1.98011e-05
-7.46755e-07
1.97806e-05
-8.00275e-07
1.97586e-05
-8.56061e-07
1.97351e-05
-9.1417e-07
1.97101e-05
-9.74658e-07
1.96833e-05
-1.03758e-06
1.96548e-05
-1.10297e-06
1.96245e-05
-1.17088e-06
1.95923e-05
-1.24135e-06
1.95581e-05
-1.31441e-06
1.95218e-05
-1.39007e-06
1.94833e-05
-1.46837e-06
1.94426e-05
-1.5493e-06
1.93996e-05
-1.63287e-06
1.93541e-05
-1.71905e-06
1.93061e-05
-1.80782e-06
1.92555e-05
-1.89915e-06
1.92023e-05
-1.99296e-06
1.91462e-05
-2.0892e-06
1.90873e-05
-2.18776e-06
1.90255e-05
-2.28853e-06
1.89606e-05
-2.39137e-06
1.88927e-05
-2.49612e-06
1.88217e-05
-2.60259e-06
1.87475e-05
-2.71056e-06
1.86701e-05
-2.81978e-06
1.85894e-05
-2.92997e-06
1.85055e-05
-3.04081e-06
1.84184e-05
-3.15194e-06
1.8328e-05
-3.263e-06
1.82344e-05
-3.37355e-06
1.81377e-05
-3.48315e-06
1.80379e-05
-3.5913e-06
1.79352e-05
-3.69751e-06
1.78297e-05
-3.80124e-06
1.77215e-05
-3.90193e-06
1.76109e-05
-3.99904e-06
1.7498e-05
-4.092e-06
1.73831e-05
-4.18025e-06
1.72665e-05
-4.26327e-06
1.71483e-05
-4.34055e-06
1.70289e-05
-4.41162e-06
1.69086e-05
-4.47603e-06
1.67876e-05
-4.53343e-06
1.66664e-05
-4.58349e-06
1.65453e-05
-4.62601e-06
1.64247e-05
-4.66093e-06
1.63048e-05
-4.6883e-06
1.61861e-05
-4.70823e-06
1.60686e-05
-4.72089e-06
1.59527e-05
-4.72648e-06
1.58385e-05
-4.72524e-06
1.57262e-05
-4.7174e-06
1.56161e-05
-4.70323e-06
1.55083e-05
-4.68303e-06
1.54032e-05
-4.65716e-06
1.53008e-05
-4.62606e-06
1.52013e-05
-4.59023e-06
1.51048e-05
-4.55018e-06
1.50114e-05
-4.50641e-06
1.49212e-05
-4.45944e-06
1.48343e-05
-4.40977e-06
1.47506e-05
-4.35792e-06
1.46703e-05
-4.30442e-06
1.45935e-05
-4.24978e-06
1.45202e-05
-4.19455e-06
1.44504e-05
-4.13928e-06
1.43843e-05
-4.08453e-06
1.43218e-05
-4.03091e-06
1.42631e-05
-3.97905e-06
1.4208e-05
-3.92961e-06
1.41568e-05
-3.88333e-06
1.41092e-05
-3.84101e-06
1.40652e-05
-3.80348e-06
1.40245e-05
-3.77169e-06
1.39868e-05
-3.7466e-06
1.39514e-05
-3.72934e-06
-3.72178e-06
1.99996e-05
-9.2321e-09
1.99984e-05
-2.87764e-08
1.99965e-05
-4.93542e-08
1.99939e-05
-7.08809e-08
1.99907e-05
-9.33593e-08
1.99868e-05
-1.16824e-07
1.99823e-05
-1.41325e-07
1.99772e-05
-1.66922e-07
1.99715e-05
-1.9368e-07
1.99651e-05
-2.21665e-07
1.9958e-05
-2.50944e-07
1.99501e-05
-2.81586e-07
1.99415e-05
-3.13658e-07
1.9932e-05
-3.47228e-07
1.99217e-05
-3.82362e-07
1.99105e-05
-4.19128e-07
1.98984e-05
-4.57592e-07
1.98852e-05
-4.97819e-07
1.9871e-05
-5.39875e-07
1.98556e-05
-5.83824e-07
1.98391e-05
-6.2973e-07
1.98213e-05
-6.77656e-07
1.98022e-05
-7.27662e-07
1.97817e-05
-7.79808e-07
1.97598e-05
-8.34151e-07
1.97364e-05
-8.90748e-07
1.97114e-05
-9.49649e-07
1.96847e-05
-1.0109e-06
1.96563e-05
-1.07456e-06
1.96261e-05
-1.14065e-06
1.95939e-05
-1.20922e-06
1.95598e-05
-1.2803e-06
1.95236e-05
-1.3539e-06
1.94853e-05
-1.43005e-06
1.94448e-05
-1.50874e-06
1.94019e-05
-1.58998e-06
1.93566e-05
-1.67375e-06
1.93088e-05
-1.76003e-06
1.92584e-05
-1.84877e-06
1.92054e-05
-1.93992e-06
1.91496e-05
-2.0334e-06
1.9091e-05
-2.12914e-06
1.90294e-05
-2.227e-06
1.89649e-05
-2.32687e-06
1.88974e-05
-2.42858e-06
1.88267e-05
-2.53195e-06
1.8753e-05
-2.63678e-06
1.8676e-05
-2.74281e-06
1.85958e-05
-2.84979e-06
1.85124e-05
-2.95741e-06
1.84258e-05
-3.06533e-06
1.8336e-05
-3.17319e-06
1.8243e-05
-3.28058e-06
1.8147e-05
-3.38708e-06
1.80479e-05
-3.49223e-06
1.79459e-05
-3.59553e-06
1.78411e-05
-3.69648e-06
1.77338e-05
-3.79455e-06
1.76239e-05
-3.88921e-06
1.75119e-05
-3.97993e-06
1.73978e-05
-4.06617e-06
1.72819e-05
-4.14741e-06
1.71645e-05
-4.22318e-06
1.70459e-05
-4.29301e-06
1.69264e-05
-4.35649e-06
1.68062e-05
-4.41326e-06
1.66858e-05
-4.46305e-06
1.65654e-05
-4.50565e-06
1.64455e-05
-4.54099e-06
1.63263e-05
-4.56908e-06
1.62081e-05
-4.59e-06
1.60911e-05
-4.60389e-06
1.59755e-05
-4.61094e-06
1.58616e-05
-4.61136e-06
1.57496e-05
-4.60538e-06
1.56397e-05
-4.59328e-06
1.5532e-05
-4.57535e-06
1.54268e-05
-4.55196e-06
1.53242e-05
-4.52352e-06
1.52245e-05
-4.49049e-06
1.51277e-05
-4.45335e-06
1.50338e-05
-4.41259e-06
1.49431e-05
-4.3687e-06
1.48556e-05
-4.3222e-06
1.47712e-05
-4.27359e-06
1.46902e-05
-4.22339e-06
1.46125e-05
-4.1721e-06
1.45382e-05
-4.12027e-06
1.44674e-05
-4.06845e-06
1.44001e-05
-4.01718e-06
1.43362e-05
-3.96707e-06
1.42759e-05
-3.91872e-06
1.42191e-05
-3.87279e-06
1.41657e-05
-3.82997e-06
1.41157e-05
-3.79099e-06
1.40688e-05
-3.75664e-06
1.40249e-05
-3.72773e-06
1.39833e-05
-3.70508e-06
1.39436e-05
-3.68965e-06
-3.68357e-06
1.99996e-05
-8.87209e-09
1.99986e-05
-2.76905e-08
1.99968e-05
-4.75614e-08
1.99943e-05
-6.84106e-08
1.99912e-05
-9.02364e-08
1.99874e-05
-1.13063e-07
1.9983e-05
-1.3693e-07
1.9978e-05
-1.61885e-07
1.99723e-05
-1.87986e-07
1.99659e-05
-2.15292e-07
1.99588e-05
-2.43864e-07
1.9951e-05
-2.73766e-07
1.99424e-05
-3.05061e-07
1.9933e-05
-3.37813e-07
1.99227e-05
-3.72086e-07
1.99115e-05
-4.07944e-07
1.98994e-05
-4.45451e-07
1.98862e-05
-4.8467e-07
1.9872e-05
-5.25663e-07
1.98567e-05
-5.68494e-07
1.98402e-05
-6.13222e-07
1.98224e-05
-6.59909e-07
1.98034e-05
-7.08613e-07
1.9783e-05
-7.59391e-07
1.97611e-05
-8.12298e-07
1.97378e-05
-8.67389e-07
1.97128e-05
-9.24712e-07
1.96862e-05
-9.84314e-07
1.96579e-05
-1.04624e-06
1.96278e-05
-1.11053e-06
1.95958e-05
-1.17721e-06
1.95618e-05
-1.24631e-06
1.95258e-05
-1.31787e-06
1.94876e-05
-1.39187e-06
1.94472e-05
-1.46835e-06
1.94045e-05
-1.54728e-06
1.93594e-05
-1.62866e-06
1.93118e-05
-1.71246e-06
1.92617e-05
-1.79864e-06
1.92089e-05
-1.88714e-06
1.91534e-05
-1.9779e-06
1.90951e-05
-2.07083e-06
1.90339e-05
-2.16582e-06
1.89698e-05
-2.26274e-06
1.89027e-05
-2.36144e-06
1.88325e-05
-2.46175e-06
1.87592e-05
-2.56347e-06
1.86827e-05
-2.66636e-06
1.86031e-05
-2.77017e-06
1.85203e-05
-2.8746e-06
1.84343e-05
-2.97935e-06
1.83451e-05
-3.08405e-06
1.82529e-05
-3.18833e-06
1.81576e-05
-3.29177e-06
1.80593e-05
-3.39393e-06
1.79581e-05
-3.49436e-06
1.78542e-05
-3.59256e-06
1.77477e-05
-3.68804e-06
1.76388e-05
-3.78028e-06
1.75276e-05
-3.86876e-06
1.74144e-05
-3.95299e-06
1.72995e-05
-4.03247e-06
1.7183e-05
-4.10672e-06
1.70653e-05
-4.17531e-06
1.69467e-05
-4.23785e-06
1.68274e-05
-4.29399e-06
1.67078e-05
-4.34347e-06
1.65883e-05
-4.3861e-06
1.64691e-05
-4.42179e-06
1.63505e-05
-4.45052e-06
1.62329e-05
-4.47235e-06
1.61164e-05
-4.48739e-06
1.60012e-05
-4.49581e-06
1.58877e-05
-4.49781e-06
1.57759e-05
-4.49361e-06
1.56661e-05
-4.48349e-06
1.55585e-05
-4.46775e-06
1.54533e-05
-4.44673e-06
1.53506e-05
-4.42084e-06
1.52506e-05
-4.39049e-06
1.51534e-05
-4.35616e-06
1.50592e-05
-4.31831e-06
1.49679e-05
-4.27743e-06
1.48797e-05
-4.234e-06
1.47946e-05
-4.18853e-06
1.47128e-05
-4.14152e-06
1.46341e-05
-4.09348e-06
1.45588e-05
-4.04493e-06
1.44867e-05
-3.99641e-06
1.4418e-05
-3.94848e-06
1.43527e-05
-3.9017e-06
1.42906e-05
-3.85666e-06
1.42318e-05
-3.814e-06
1.41762e-05
-3.77436e-06
1.41237e-05
-3.73843e-06
1.40739e-05
-3.7069e-06
1.40267e-05
-3.6805e-06
1.39815e-05
-3.65992e-06
1.39379e-05
-3.64596e-06
-3.64086e-06
1.99997e-05
-8.54098e-09
1.99987e-05
-2.66785e-08
1.9997e-05
-4.58692e-08
1.99946e-05
-6.60513e-08
1.99916e-05
-8.72231e-08
1.99879e-05
-1.09403e-07
1.99836e-05
-1.32624e-07
1.99787e-05
-1.56927e-07
1.9973e-05
-1.8236e-07
1.99667e-05
-2.08976e-07
1.99597e-05
-2.36833e-07
1.99519e-05
-2.65988e-07
1.99434e-05
-2.96501e-07
1.9934e-05
-3.28432e-07
1.99237e-05
-3.61842e-07
1.99126e-05
-3.96792e-07
1.99005e-05
-4.33343e-07
1.98874e-05
-4.71555e-07
1.98732e-05
-5.11488e-07
1.98579e-05
-5.53203e-07
1.98414e-05
-5.96758e-07
1.98237e-05
-6.4221e-07
1.98047e-05
-6.89617e-07
1.97844e-05
-7.39033e-07
1.97626e-05
-7.90512e-07
1.97393e-05
-8.44104e-07
1.97145e-05
-8.99857e-07
1.9688e-05
-9.57816e-07
1.96597e-05
-1.01802e-06
1.96297e-05
-1.08051e-06
1.95978e-05
-1.14532e-06
1.9564e-05
-1.21247e-06
1.95281e-05
-1.28198e-06
1.94901e-05
-1.35387e-06
1.94499e-05
-1.42814e-06
1.94074e-05
-1.50479e-06
1.93626e-05
-1.5838e-06
1.93152e-05
-1.66514e-06
1.92654e-05
-1.74878e-06
1.92129e-05
-1.83466e-06
1.91577e-05
-1.92273e-06
1.90998e-05
-2.01288e-06
1.9039e-05
-2.10502e-06
1.89753e-05
-2.19903e-06
1.89086e-05
-2.29476e-06
1.88389e-05
-2.39204e-06
1.87661e-05
-2.49069e-06
1.86902e-05
-2.59047e-06
1.86112e-05
-2.69115e-06
1.8529e-05
-2.79245e-06
1.84437e-05
-2.89405e-06
1.83553e-05
-2.99564e-06
1.82639e-05
-3.09684e-06
1.81694e-05
-3.19727e-06
1.80719e-05
-3.2965e-06
1.79716e-05
-3.39409e-06
1.78686e-05
-3.48957e-06
1.77631e-05
-3.58248e-06
1.76551e-05
-3.67231e-06
1.75449e-05
-3.75859e-06
1.74328e-05
-3.84082e-06
1.73188e-05
-3.91853e-06
1.72034e-05
-3.99126e-06
1.70867e-05
-4.05861e-06
1.6969e-05
-4.12019e-06
1.68507e-05
-4.17568e-06
1.6732e-05
-4.22481e-06
1.66133e-05
-4.26741e-06
1.64949e-05
-4.30337e-06
1.63771e-05
-4.33266e-06
1.626e-05
-4.3553e-06
1.6144e-05
-4.37141e-06
1.60293e-05
-4.38112e-06
1.59162e-05
-4.38461e-06
1.58047e-05
-4.38211e-06
1.5695e-05
-4.37389e-06
1.55875e-05
-4.36023e-06
1.54823e-05
-4.34149e-06
1.53795e-05
-4.31802e-06
1.52792e-05
-4.29026e-06
1.51817e-05
-4.25862e-06
1.5087e-05
-4.22358e-06
1.49951e-05
-4.18558e-06
1.49062e-05
-4.14513e-06
1.48204e-05
-4.10268e-06
1.47376e-05
-4.05875e-06
1.4658e-05
-4.01383e-06
1.45815e-05
-3.96844e-06
1.45082e-05
-3.92309e-06
1.4438e-05
-3.87832e-06
1.4371e-05
-3.83469e-06
1.43071e-05
-3.79277e-06
1.42462e-05
-3.75315e-06
1.41883e-05
-3.71644e-06
1.41332e-05
-3.68326e-06
1.40805e-05
-3.65427e-06
1.40301e-05
-3.63008e-06
1.39815e-05
-3.61131e-06
1.39342e-05
-3.59863e-06
-3.59403e-06
1.99997e-05
-8.23169e-09
1.99987e-05
-2.57254e-08
1.99971e-05
-4.4262e-08
1.99949e-05
-6.37907e-08
1.9992e-05
-8.43123e-08
1.99884e-05
-1.05843e-07
1.99842e-05
-1.28411e-07
1.99793e-05
-1.52052e-07
1.99738e-05
-1.76808e-07
1.99675e-05
-2.02728e-07
1.99605e-05
-2.29862e-07
1.99528e-05
-2.58265e-07
1.99443e-05
-2.87991e-07
1.9935e-05
-3.19098e-07
1.99248e-05
-3.51642e-07
1.99137e-05
-3.85683e-07
1.99016e-05
-4.21277e-07
1.98885e-05
-4.58483e-07
1.98744e-05
-4.97359e-07
1.98592e-05
-5.3796e-07
1.98427e-05
-5.80345e-07
1.98251e-05
-6.24568e-07
1.98062e-05
-6.70684e-07
1.97859e-05
-7.18745e-07
1.97642e-05
-7.68802e-07
1.9741e-05
-8.20904e-07
1.97162e-05
-8.75097e-07
1.96898e-05
-9.31423e-07
1.96617e-05
-9.89923e-07
1.96318e-05
-1.05063e-06
1.96001e-05
-1.11358e-06
1.95664e-05
-1.17879e-06
1.95307e-05
-1.24628e-06
1.94929e-05
-1.31606e-06
1.94529e-05
-1.38815e-06
1.94106e-05
-1.46253e-06
1.9366e-05
-1.53918e-06
1.9319e-05
-1.6181e-06
1.92694e-05
-1.69922e-06
1.92173e-05
-1.78252e-06
1.91624e-05
-1.86791e-06
1.91049e-05
-1.95532e-06
1.90445e-05
-2.04465e-06
1.89813e-05
-2.13578e-06
1.89151e-05
-2.22857e-06
1.88459e-05
-2.32287e-06
1.87737e-05
-2.41848e-06
1.86984e-05
-2.5152e-06
1.86201e-05
-2.61279e-06
1.85386e-05
-2.71099e-06
1.84541e-05
-2.80951e-06
1.83664e-05
-2.90803e-06
1.82758e-05
-3.0062e-06
1.81822e-05
-3.10365e-06
1.80857e-05
-3.19998e-06
1.79863e-05
-3.29476e-06
1.78843e-05
-3.38757e-06
1.77798e-05
-3.47793e-06
1.76729e-05
-3.56539e-06
1.75637e-05
-3.64947e-06
1.74526e-05
-3.72971e-06
1.73398e-05
-3.80565e-06
1.72254e-05
-3.87687e-06
1.71097e-05
-3.94296e-06
1.69931e-05
-4.00356e-06
1.68758e-05
-4.05836e-06
1.67581e-05
-4.10711e-06
1.66403e-05
-4.14961e-06
1.65227e-05
-4.18577e-06
1.64056e-05
-4.21553e-06
1.62892e-05
-4.23891e-06
1.61737e-05
-4.25598e-06
1.60595e-05
-4.26689e-06
1.59467e-05
-4.27179e-06
1.58355e-05
-4.2709e-06
1.57261e-05
-4.26448e-06
1.56186e-05
-4.25281e-06
1.55134e-05
-4.23622e-06
1.54104e-05
-4.21508e-06
1.531e-05
-4.18978e-06
1.52121e-05
-4.16073e-06
1.51169e-05
-4.12837e-06
1.50244e-05
-4.09316e-06
1.49349e-05
-4.05555e-06
1.48482e-05
-4.01602e-06
1.47645e-05
-3.97504e-06
1.46838e-05
-3.93312e-06
1.46061e-05
-3.89073e-06
1.45314e-05
-3.8484e-06
1.44597e-05
-3.80664e-06
1.4391e-05
-3.76598e-06
1.43252e-05
-3.72698e-06
1.42622e-05
-3.69018e-06
1.4202e-05
-3.65616e-06
1.41442e-05
-3.62551e-06
1.40887e-05
-3.59881e-06
1.40353e-05
-3.57661e-06
1.39834e-05
-3.55944e-06
1.39327e-05
-3.5479e-06
-3.54334e-06
1.99997e-05
-7.93944e-09
1.99988e-05
-2.48203e-08
1.99973e-05
-4.27266e-08
1.99951e-05
-6.16171e-08
1.99923e-05
-8.14958e-08
1.99888e-05
-1.02379e-07
1.99847e-05
-1.24291e-07
1.99799e-05
-1.47265e-07
1.99744e-05
-1.71338e-07
1.99683e-05
-1.96554e-07
1.99614e-05
-2.22959e-07
1.99537e-05
-2.50604e-07
1.99452e-05
-2.79539e-07
1.9936e-05
-3.09818e-07
1.99258e-05
-3.41495e-07
1.99148e-05
-3.74625e-07
1.99027e-05
-4.09263e-07
1.98897e-05
-4.45464e-07
1.98757e-05
-4.83284e-07
1.98605e-05
-5.22776e-07
1.98441e-05
-5.63994e-07
1.98265e-05
-6.06993e-07
1.98077e-05
-6.51823e-07
1.97875e-05
-6.98536e-07
1.97659e-05
-7.4718e-07
1.97427e-05
-7.978e-07
1.97181e-05
-8.50442e-07
1.96918e-05
-9.05147e-07
1.96638e-05
-9.61951e-07
1.96341e-05
-1.02089e-06
1.96025e-05
-1.08199e-06
1.9569e-05
-1.14527e-06
1.95335e-05
-1.21076e-06
1.94959e-05
-1.27846e-06
1.94561e-05
-1.34838e-06
1.94141e-05
-1.42052e-06
1.93698e-05
-1.49485e-06
1.9323e-05
-1.57135e-06
1.92738e-05
-1.64999e-06
1.9222e-05
-1.73072e-06
1.91676e-05
-1.81348e-06
1.91104e-05
-1.89818e-06
1.90505e-05
-1.98473e-06
1.89878e-05
-2.07302e-06
1.89221e-05
-2.16292e-06
1.88535e-05
-2.25427e-06
1.87819e-05
-2.34689e-06
1.87073e-05
-2.44059e-06
1.86296e-05
-2.53514e-06
1.85489e-05
-2.63028e-06
1.84652e-05
-2.72576e-06
1.83784e-05
-2.82125e-06
1.82886e-05
-2.91643e-06
1.81959e-05
-3.01095e-06
1.81004e-05
-3.10442e-06
1.80021e-05
-3.19644e-06
1.79011e-05
-3.2866e-06
1.77976e-05
-3.37445e-06
1.76918e-05
-3.45955e-06
1.75838e-05
-3.54146e-06
1.74738e-05
-3.61972e-06
1.7362e-05
-3.6939e-06
1.72487e-05
-3.7636e-06
1.71342e-05
-3.82842e-06
1.70186e-05
-3.88801e-06
1.69024e-05
-3.94209e-06
1.67857e-05
-3.99039e-06
1.66688e-05
-4.03274e-06
1.6552e-05
-4.06902e-06
1.64357e-05
-4.09916e-06
1.63199e-05
-4.12318e-06
1.62051e-05
-4.14114e-06
1.60913e-05
-4.15314e-06
1.59789e-05
-4.15936e-06
1.5868e-05
-4.15999e-06
1.57588e-05
-4.15527e-06
1.56515e-05
-4.14549e-06
1.55462e-05
-4.13096e-06
1.54432e-05
-4.11203e-06
1.53424e-05
-4.08907e-06
1.52442e-05
-4.06248e-06
1.51485e-05
-4.0327e-06
1.50555e-05
-4.00014e-06
1.49652e-05
-3.96526e-06
1.48777e-05
-3.92851e-06
1.4793e-05
-3.89037e-06
1.47112e-05
-3.8513e-06
1.46323e-05
-3.81178e-06
1.45562e-05
-3.77231e-06
1.44829e-05
-3.73339e-06
1.44125e-05
-3.69553e-06
1.43448e-05
-3.65925e-06
1.42797e-05
-3.62508e-06
1.42171e-05
-3.59356e-06
1.41568e-05
-3.56522e-06
1.40985e-05
-3.54059e-06
1.40421e-05
-3.5202e-06
1.39872e-05
-3.5045e-06
1.39333e-05
-3.49399e-06
-3.4891e-06
1.99997e-05
-7.66085e-09
1.99989e-05
-2.39548e-08
1.99974e-05
-4.12522e-08
1.99953e-05
-5.95199e-08
1.99926e-05
-7.87651e-08
1.99892e-05
-9.90046e-08
1.99851e-05
-1.20262e-07
1.99805e-05
-1.42566e-07
1.99751e-05
-1.65952e-07
1.9969e-05
-1.90459e-07
1.99621e-05
-2.16131e-07
1.99546e-05
-2.43013e-07
1.99462e-05
-2.71154e-07
1.99369e-05
-3.00603e-07
1.99269e-05
-3.3141e-07
1.99159e-05
-3.63629e-07
1.99039e-05
-3.97311e-07
1.9891e-05
-4.32508e-07
1.98769e-05
-4.69273e-07
1.98618e-05
-5.07658e-07
1.98456e-05
-5.47715e-07
1.98281e-05
-5.89494e-07
1.98093e-05
-6.33045e-07
1.97892e-05
-6.78417e-07
1.97676e-05
-7.25655e-07
1.97446e-05
-7.74804e-07
1.97201e-05
-8.25906e-07
1.96939e-05
-8.78999e-07
1.96661e-05
-9.34121e-07
1.96365e-05
-9.91302e-07
1.96051e-05
-1.05057e-06
1.95718e-05
-1.11195e-06
1.95365e-05
-1.17545e-06
1.94991e-05
-1.24109e-06
1.94596e-05
-1.30886e-06
1.94178e-05
-1.37878e-06
1.93738e-05
-1.4508e-06
1.93274e-05
-1.52493e-06
1.92785e-05
-1.60111e-06
1.92271e-05
-1.67931e-06
1.91731e-05
-1.75946e-06
1.91164e-05
-1.84149e-06
1.90569e-05
-1.9253e-06
1.89947e-05
-2.01079e-06
1.89296e-05
-2.09782e-06
1.88616e-05
-2.18627e-06
1.87907e-05
-2.27594e-06
1.87168e-05
-2.36666e-06
1.86398e-05
-2.45822e-06
1.85599e-05
-2.55036e-06
1.8477e-05
-2.64284e-06
1.83911e-05
-2.73535e-06
1.83022e-05
-2.82759e-06
1.82105e-05
-2.91922e-06
1.8116e-05
-3.00987e-06
1.80187e-05
-3.09917e-06
1.79188e-05
-3.1867e-06
1.78164e-05
-3.27207e-06
1.77117e-05
-3.35484e-06
1.76048e-05
-3.43458e-06
1.7496e-05
-3.51088e-06
1.73854e-05
-3.5833e-06
1.72733e-05
-3.65147e-06
1.71598e-05
-3.715e-06
1.70454e-05
-3.77357e-06
1.69302e-05
-3.82687e-06
1.68145e-05
-3.87468e-06
1.66985e-05
-3.91681e-06
1.65827e-05
-3.95313e-06
1.64671e-05
-3.98358e-06
1.6352e-05
-4.00815e-06
1.62378e-05
-4.0269e-06
1.61246e-05
-4.03991e-06
1.60126e-05
-4.04735e-06
1.5902e-05
-4.04939e-06
1.5793e-05
-4.04628e-06
1.56858e-05
-4.03828e-06
1.55805e-05
-4.02569e-06
1.54773e-05
-4.00886e-06
1.53764e-05
-3.98813e-06
1.52778e-05
-3.96389e-06
1.51817e-05
-3.93655e-06
1.5088e-05
-3.90653e-06
1.4997e-05
-3.87425e-06
1.49087e-05
-3.84016e-06
1.4823e-05
-3.80471e-06
1.47401e-05
-3.76835e-06
1.46599e-05
-3.73156e-06
1.45823e-05
-3.69481e-06
1.45075e-05
-3.65857e-06
1.44353e-05
-3.62334e-06
1.43657e-05
-3.58961e-06
1.42985e-05
-3.55788e-06
1.42336e-05
-3.52865e-06
1.41708e-05
-3.50243e-06
1.41099e-05
-3.47971e-06
1.40507e-05
-3.46097e-06
1.39928e-05
-3.44662e-06
1.39359e-05
-3.43708e-06
-3.43197e-06
1.99997e-05
-7.39349e-09
1.99989e-05
-2.31226e-08
1.99975e-05
-3.98302e-08
1.99954e-05
-5.749e-08
1.99928e-05
-7.6112e-08
1.99895e-05
-9.57138e-08
1.99856e-05
-1.16318e-07
1.99809e-05
-1.37953e-07
1.99756e-05
-1.6065e-07
1.99696e-05
-1.84447e-07
1.99629e-05
-2.09382e-07
1.99554e-05
-2.35499e-07
1.99471e-05
-2.62842e-07
1.99379e-05
-2.91458e-07
1.99279e-05
-3.21395e-07
1.9917e-05
-3.52702e-07
1.99051e-05
-3.85427e-07
1.98922e-05
-4.19622e-07
1.98783e-05
-4.55336e-07
1.98632e-05
-4.92617e-07
1.9847e-05
-5.31517e-07
1.98296e-05
-5.72082e-07
1.98109e-05
-6.1436e-07
1.97909e-05
-6.58397e-07
1.97695e-05
-7.04238e-07
1.97466e-05
-7.51925e-07
1.97222e-05
-8.01497e-07
1.96962e-05
-8.52993e-07
1.96685e-05
-9.06445e-07
1.96391e-05
-9.61885e-07
1.96079e-05
-1.01934e-06
1.95747e-05
-1.07882e-06
1.95397e-05
-1.14036e-06
1.95025e-05
-1.20395e-06
1.94633e-05
-1.26961e-06
1.94218e-05
-1.33732e-06
1.93781e-05
-1.40708e-06
1.9332e-05
-1.47885e-06
1.92835e-05
-1.55261e-06
1.92325e-05
-1.6283e-06
1.91789e-05
-1.70588e-06
1.91227e-05
-1.78527e-06
1.90638e-05
-1.86637e-06
1.90021e-05
-1.9491e-06
1.89376e-05
-2.03332e-06
1.88702e-05
-2.1189e-06
1.87999e-05
-2.20567e-06
1.87267e-05
-2.29346e-06
1.86506e-05
-2.38207e-06
1.85715e-05
-2.47125e-06
1.84894e-05
-2.56077e-06
1.84044e-05
-2.65035e-06
1.83165e-05
-2.7397e-06
1.82258e-05
-2.82848e-06
1.81323e-05
-2.91635e-06
1.80361e-05
-3.00296e-06
1.79373e-05
-3.08791e-06
1.7836e-05
-3.17082e-06
1.77325e-05
-3.25128e-06
1.76268e-05
-3.32888e-06
1.75191e-05
-3.40321e-06
1.74097e-05
-3.47388e-06
1.72987e-05
-3.5405e-06
1.71864e-05
-3.60273e-06
1.70731e-05
-3.66024e-06
1.6959e-05
-3.71274e-06
1.68443e-05
-3.76e-06
1.67293e-05
-3.80184e-06
1.66143e-05
-3.83814e-06
1.64995e-05
-3.86881e-06
1.63852e-05
-3.89384e-06
1.62716e-05
-3.91328e-06
1.61589e-05
-3.92721e-06
1.60473e-05
-3.93577e-06
1.59371e-05
-3.93913e-06
1.58283e-05
-3.93752e-06
1.57212e-05
-3.93119e-06
1.5616e-05
-3.92044e-06
1.55127e-05
-3.90558e-06
1.54115e-05
-3.88696e-06
1.53126e-05
-3.86495e-06
1.5216e-05
-3.83994e-06
1.51218e-05
-3.81232e-06
1.503e-05
-3.78252e-06
1.49408e-05
-3.75095e-06
1.48542e-05
-3.71806e-06
1.47701e-05
-3.68429e-06
1.46886e-05
-3.65008e-06