/*--------------------------------*- C++ -*----------------------------------*\
  =========                 |
  \\      /  F ield         | OpenFOAM: The Open Source CFD Toolbox
   \\    /   O peration     | Website:  https://openfoam.org
    \\  /    A nd           | Version:  11
     \\/     M anipulation  |
\*---------------------------------------------------------------------------*/
FoamFile
{
    format      ascii;
    class       volVectorField;
    location    "1572";
    object      U;
}
// * * * * * * * * * * * * * * * * * * * * * * * * * * * * * * * * * * * * * //

dimensions      [0 1 -1 0 0 0 0];

internalField   nonuniform List<vector> 
10000
(
(0.005 -9.01876e-13 0)
(0.005 -2.52884e-12 0)
(0.005 -4.10579e-12 0)
(0.005 -5.69646e-12 0)
(0.005 -7.33166e-12 0)
(0.005 -9.03075e-12 0)
(0.005 -1.08089e-11 0)
(0.005 -1.2679e-11 0)
(0.005 -1.46522e-11 0)
(0.005 -1.67393e-11 0)
(0.005 -1.89502e-11 0)
(0.005 -2.1295e-11 0)
(0.005 -2.37834e-11 0)
(0.005 -2.64251e-11 0)
(0.005 -2.92303e-11 0)
(0.005 -3.22088e-11 0)
(0.005 -3.53711e-11 0)
(0.005 -3.87275e-11 0)
(0.005 -4.22888e-11 0)
(0.005 -4.6066e-11 0)
(0.005 -5.00705e-11 0)
(0.005 -5.43138e-11 0)
(0.005 -5.8808e-11 0)
(0.005 -6.35651e-11 0)
(0.005 -6.85979e-11 0)
(0.005 -7.39192e-11 0)
(0.005 -7.95424e-11 0)
(0.005 -8.54809e-11 0)
(0.005 -9.17488e-11 0)
(0.005 -9.83603e-11 0)
(0.005 -1.0533e-10 0)
(0.005 -1.12673e-10 0)
(0.005 -1.20404e-10 0)
(0.005 -1.28538e-10 0)
(0.005 -1.37092e-10 0)
(0.005 -1.46082e-10 0)
(0.005 -1.55524e-10 0)
(0.005 -1.65434e-10 0)
(0.005 -1.75828e-10 0)
(0.005 -1.86725e-10 0)
(0.005 -1.9814e-10 0)
(0.005 -2.10091e-10 0)
(0.005 -2.22595e-10 0)
(0.005 -2.35668e-10 0)
(0.005 -2.49329e-10 0)
(0.005 -2.63593e-10 0)
(0.005 -2.78478e-10 0)
(0.005 -2.94001e-10 0)
(0.005 -3.10177e-10 0)
(0.005 -3.27023e-10 0)
(0.005 -3.44553e-10 0)
(0.005 -3.62784e-10 0)
(0.005 -3.8173e-10 0)
(0.005 -4.01403e-10 0)
(0.005 -4.21818e-10 0)
(0.005 -4.42986e-10 0)
(0.005 -4.64917e-10 0)
(0.005 -4.87623e-10 0)
(0.005 -5.1111e-10 0)
(0.005 -5.35386e-10 0)
(0.005 -5.60456e-10 0)
(0.005 -5.86324e-10 0)
(0.005 -6.12991e-10 0)
(0.005 -6.40455e-10 0)
(0.005 -6.68713e-10 0)
(0.005 -6.97759e-10 0)
(0.005 -7.27585e-10 0)
(0.005 -7.58176e-10 0)
(0.005 -7.89517e-10 0)
(0.005 -8.21587e-10 0)
(0.005 -8.54362e-10 0)
(0.005 -8.87811e-10 0)
(0.005 -9.219e-10 0)
(0.005 -9.56588e-10 0)
(0.005 -9.91827e-10 0)
(0.005 -1.02756e-09 0)
(0.005 -1.06373e-09 0)
(0.005 -1.10026e-09 0)
(0.005 -1.13708e-09 0)
(0.005 -1.17408e-09 0)
(0.005 -1.21117e-09 0)
(0.005 -1.24824e-09 0)
(0.005 -1.28514e-09 0)
(0.005 -1.32173e-09 0)
(0.005 -1.35786e-09 0)
(0.005 -1.39333e-09 0)
(0.005 -1.42793e-09 0)
(0.005 -1.46145e-09 0)
(0.005 -1.49362e-09 0)
(0.005 -1.52415e-09 0)
(0.005 -1.55273e-09 0)
(0.005 -1.57901e-09 0)
(0.005 -1.60261e-09 0)
(0.005 -1.62312e-09 0)
(0.005 -1.64017e-09 0)
(0.005 -1.65345e-09 0)
(0.005 -1.66272e-09 0)
(0.005 -1.66687e-09 0)
(0.005 -1.66623e-09 0)
(0.005 -1.66387e-09 0)
(0.005 -7.83905e-13 0)
(0.005 -2.30078e-12 0)
(0.005 -3.80733e-12 0)
(0.005 -5.33548e-12 0)
(0.005 -6.90864e-12 0)
(0.005 -8.54388e-12 0)
(0.005 -1.02551e-11 0)
(0.005 -1.20545e-11 0)
(0.005 -1.39528e-11 0)
(0.005 -1.59601e-11 0)
(0.005 -1.80861e-11 0)
(0.005 -2.03405e-11 0)
(0.005 -2.27325e-11 0)
(0.005 -2.52717e-11 0)
(0.005 -2.79676e-11 0)
(0.005 -3.08298e-11 0)
(0.005 -3.38683e-11 0)
(0.005 -3.70931e-11 0)
(0.005 -4.05145e-11 0)
(0.005 -4.41431e-11 0)
(0.005 -4.79899e-11 0)
(0.005 -5.20658e-11 0)
(0.005 -5.63826e-11 0)
(0.005 -6.09518e-11 0)
(0.005 -6.57856e-11 0)
(0.005 -7.08964e-11 0)
(0.005 -7.62969e-11 0)
(0.005 -8.20003e-11 0)
(0.005 -8.80198e-11 0)
(0.005 -9.43692e-11 0)
(0.005 -1.01063e-10 0)
(0.005 -1.08114e-10 0)
(0.005 -1.15538e-10 0)
(0.005 -1.2335e-10 0)
(0.005 -1.31565e-10 0)
(0.005 -1.40198e-10 0)
(0.005 -1.49265e-10 0)
(0.005 -1.58782e-10 0)
(0.005 -1.68765e-10 0)
(0.005 -1.79229e-10 0)
(0.005 -1.90192e-10 0)
(0.005 -2.01669e-10 0)
(0.005 -2.13677e-10 0)
(0.005 -2.26233e-10 0)
(0.005 -2.39353e-10 0)
(0.005 -2.53054e-10 0)
(0.005 -2.67351e-10 0)
(0.005 -2.8226e-10 0)
(0.005 -2.97798e-10 0)
(0.005 -3.1398e-10 0)
(0.005 -3.30821e-10 0)
(0.005 -3.48336e-10 0)
(0.005 -3.66538e-10 0)
(0.005 -3.85441e-10 0)
(0.005 -4.05058e-10 0)
(0.005 -4.25401e-10 0)
(0.005 -4.4648e-10 0)
(0.005 -4.68306e-10 0)
(0.005 -4.90886e-10 0)
(0.005 -5.14228e-10 0)
(0.005 -5.38338e-10 0)
(0.005 -5.6322e-10 0)
(0.005 -5.88875e-10 0)
(0.005 -6.15305e-10 0)
(0.005 -6.42506e-10 0)
(0.005 -6.70474e-10 0)
(0.005 -6.99202e-10 0)
(0.005 -7.28679e-10 0)
(0.005 -7.58891e-10 0)
(0.005 -7.89822e-10 0)
(0.005 -8.21449e-10 0)
(0.005 -8.53748e-10 0)
(0.005 -8.86687e-10 0)
(0.005 -9.20231e-10 0)
(0.005 -9.54338e-10 0)
(0.005 -9.8896e-10 0)
(0.005 -1.02404e-09 0)
(0.005 -1.05953e-09 0)
(0.005 -1.09533e-09 0)
(0.005 -1.13139e-09 0)
(0.005 -1.1676e-09 0)
(0.005 -1.20387e-09 0)
(0.005 -1.24008e-09 0)
(0.005 -1.27609e-09 0)
(0.005 -1.31178e-09 0)
(0.005 -1.34697e-09 0)
(0.005 -1.38148e-09 0)
(0.005 -1.41512e-09 0)
(0.005 -1.44765e-09 0)
(0.005 -1.47883e-09 0)
(0.005 -1.50838e-09 0)
(0.005 -1.536e-09 0)
(0.005 -1.56136e-09 0)
(0.005 -1.5841e-09 0)
(0.005 -1.60387e-09 0)
(0.005 -1.62018e-09 0)
(0.005 -1.6325e-09 0)
(0.005 -1.64098e-09 0)
(0.005 -1.64644e-09 0)
(0.005 -1.6502e-09 0)
(0.005 -6.89024e-13 0)
(0.005 -2.09069e-12 0)
(0.005 -3.51817e-12 0)
(0.005 -4.98012e-12 0)
(0.005 -6.49033e-12 0)
(0.005 -8.06209e-12 0)
(0.005 -9.70749e-12 0)
(0.005 -1.14375e-11 0)
(0.005 -1.32624e-11 0)
(0.005 -1.51918e-11 0)
(0.005 -1.7235e-11 0)
(0.005 -1.9401e-11 0)
(0.005 -2.16991e-11 0)
(0.005 -2.41381e-11 0)
(0.005 -2.67274e-11 0)
(0.005 -2.94763e-11 0)
(0.005 -3.23941e-11 0)
(0.005 -3.54907e-11 0)
(0.005 -3.87758e-11 0)
(0.005 -4.22598e-11 0)
(0.005 -4.5953e-11 0)
(0.005 -4.98662e-11 0)
(0.005 -5.40104e-11 0)
(0.005 -5.83969e-11 0)
(0.005 -6.30373e-11 0)
(0.005 -6.79435e-11 0)
(0.005 -7.31279e-11 0)
(0.005 -7.86028e-11 0)
(0.005 -8.43813e-11 0)
(0.005 -9.04764e-11 0)
(0.005 -9.69016e-11 0)
(0.005 -1.03671e-10 0)
(0.005 -1.10798e-10 0)
(0.005 -1.18297e-10 0)
(0.005 -1.26183e-10 0)
(0.005 -1.3447e-10 0)
(0.005 -1.43174e-10 0)
(0.005 -1.5231e-10 0)
(0.005 -1.61894e-10 0)
(0.005 -1.7194e-10 0)
(0.005 -1.82464e-10 0)
(0.005 -1.93483e-10 0)
(0.005 -2.05012e-10 0)
(0.005 -2.17067e-10 0)
(0.005 -2.29664e-10 0)
(0.005 -2.42819e-10 0)
(0.005 -2.56547e-10 0)
(0.005 -2.70864e-10 0)
(0.005 -2.85786e-10 0)
(0.005 -3.01326e-10 0)
(0.005 -3.17501e-10 0)
(0.005 -3.34323e-10 0)
(0.005 -3.51808e-10 0)
(0.005 -3.69967e-10 0)
(0.005 -3.88814e-10 0)
(0.005 -4.08361e-10 0)
(0.005 -4.28617e-10 0)
(0.005 -4.49593e-10 0)
(0.005 -4.71298e-10 0)
(0.005 -4.9374e-10 0)
(0.005 -5.16923e-10 0)
(0.005 -5.40854e-10 0)
(0.005 -5.65535e-10 0)
(0.005 -5.90966e-10 0)
(0.005 -6.17148e-10 0)
(0.005 -6.44077e-10 0)
(0.005 -6.71748e-10 0)
(0.005 -7.00152e-10 0)
(0.005 -7.29277e-10 0)
(0.005 -7.5911e-10 0)
(0.005 -7.89632e-10 0)
(0.005 -8.20823e-10 0)
(0.005 -8.52654e-10 0)
(0.005 -8.85097e-10 0)
(0.005 -9.18114e-10 0)
(0.005 -9.51666e-10 0)
(0.005 -9.85704e-10 0)
(0.005 -1.02017e-09 0)
(0.005 -1.05502e-09 0)
(0.005 -1.09016e-09 0)
(0.005 -1.12552e-09 0)
(0.005 -1.16102e-09 0)
(0.005 -1.19656e-09 0)
(0.005 -1.23201e-09 0)
(0.005 -1.26727e-09 0)
(0.005 -1.30218e-09 0)
(0.005 -1.33659e-09 0)
(0.005 -1.37033e-09 0)
(0.005 -1.40319e-09 0)
(0.005 -1.43497e-09 0)
(0.005 -1.46541e-09 0)
(0.005 -1.49425e-09 0)
(0.005 -1.52121e-09 0)
(0.005 -1.54595e-09 0)
(0.005 -1.56813e-09 0)
(0.005 -1.58735e-09 0)
(0.005 -1.60333e-09 0)
(0.005 -1.61596e-09 0)
(0.005 -1.62534e-09 0)
(0.005 -1.6325e-09 0)
(0.005 -6.24263e-13 0)
(0.005 -1.92314e-12 0)
(0.005 -3.27048e-12 0)
(0.005 -4.66525e-12 0)
(0.005 -6.11384e-12 0)
(0.005 -7.62533e-12 0)
(0.005 -9.20944e-12 0)
(0.005 -1.08758e-11 0)
(0.005 -1.26336e-11 0)
(0.005 -1.4492e-11 0)
(0.005 -1.64598e-11 0)
(0.005 -1.85456e-11 0)
(0.005 -2.07583e-11 0)
(0.005 -2.31065e-11 0)
(0.005 -2.5599e-11 0)
(0.005 -2.82448e-11 0)
(0.005 -3.10531e-11 0)
(0.005 -3.40332e-11 0)
(0.005 -3.71946e-11 0)
(0.005 -4.05472e-11 0)
(0.005 -4.41009e-11 0)
(0.005 -4.78662e-11 0)
(0.005 -5.18536e-11 0)
(0.005 -5.6074e-11 0)
(0.005 -6.05386e-11 0)
(0.005 -6.5259e-11 0)
(0.005 -7.02468e-11 0)
(0.005 -7.55142e-11 0)
(0.005 -8.10735e-11 0)
(0.005 -8.69374e-11 0)
(0.005 -9.3119e-11 0)
(0.005 -9.96313e-11 0)
(0.005 -1.06488e-10 0)
(0.005 -1.13703e-10 0)
(0.005 -1.2129e-10 0)
(0.005 -1.29263e-10 0)
(0.005 -1.37637e-10 0)
(0.005 -1.46427e-10 0)
(0.005 -1.55647e-10 0)
(0.005 -1.65313e-10 0)
(0.005 -1.75439e-10 0)
(0.005 -1.86041e-10 0)
(0.005 -1.97134e-10 0)
(0.005 -2.08734e-10 0)
(0.005 -2.20856e-10 0)
(0.005 -2.33514e-10 0)
(0.005 -2.46725e-10 0)
(0.005 -2.60504e-10 0)
(0.005 -2.74864e-10 0)
(0.005 -2.89821e-10 0)
(0.005 -3.0539e-10 0)
(0.005 -3.21583e-10 0)
(0.005 -3.38415e-10 0)
(0.005 -3.55898e-10 0)
(0.005 -3.74045e-10 0)
(0.005 -3.92867e-10 0)
(0.005 -4.12375e-10 0)
(0.005 -4.32579e-10 0)
(0.005 -4.53488e-10 0)
(0.005 -4.7511e-10 0)
(0.005 -4.97451e-10 0)
(0.005 -5.20516e-10 0)
(0.005 -5.4431e-10 0)
(0.005 -5.68835e-10 0)
(0.005 -5.9409e-10 0)
(0.005 -6.20073e-10 0)
(0.005 -6.46781e-10 0)
(0.005 -6.74208e-10 0)
(0.005 -7.02344e-10 0)
(0.005 -7.31178e-10 0)
(0.005 -7.60694e-10 0)
(0.005 -7.90875e-10 0)
(0.005 -8.21697e-10 0)
(0.005 -8.53136e-10 0)
(0.005 -8.8516e-10 0)
(0.005 -9.17733e-10 0)
(0.005 -9.50816e-10 0)
(0.005 -9.84361e-10 0)
(0.005 -1.01832e-09 0)
(0.005 -1.05262e-09 0)
(0.005 -1.08721e-09 0)
(0.005 -1.122e-09 0)
(0.005 -1.1569e-09 0)
(0.005 -1.19184e-09 0)
(0.005 -1.22668e-09 0)
(0.005 -1.26131e-09 0)
(0.005 -1.2956e-09 0)
(0.005 -1.32939e-09 0)
(0.005 -1.36251e-09 0)
(0.005 -1.39476e-09 0)
(0.005 -1.42593e-09 0)
(0.005 -1.45579e-09 0)
(0.005 -1.48405e-09 0)
(0.005 -1.51042e-09 0)
(0.005 -1.53457e-09 0)
(0.005 -1.55612e-09 0)
(0.005 -1.57473e-09 0)
(0.005 -1.59009e-09 0)
(0.005 -1.60184e-09 0)
(0.005 -1.61028e-09 0)
(0.005 -5.71661e-13 0)
(0.005 -1.7767e-12 0)
(0.005 -3.04316e-12 0)
(0.005 -4.36724e-12 0)
(0.005 -5.75097e-12 0)
(0.005 -7.19993e-12 0)
(0.005 -8.72144e-12 0)
(0.005 -1.03235e-11 0)
(0.005 -1.20143e-11 0)
(0.005 -1.38021e-11 0)
(0.005 -1.56952e-11 0)
(0.005 -1.77018e-11 0)
(0.005 -1.98302e-11 0)
(0.005 -2.20887e-11 0)
(0.005 -2.44858e-11 0)
(0.005 -2.70301e-11 0)
(0.005 -2.97305e-11 0)
(0.005 -3.25958e-11 0)
(0.005 -3.56352e-11 0)
(0.005 -3.88582e-11 0)
(0.005 -4.22745e-11 0)
(0.005 -4.5894e-11 0)
(0.005 -4.97269e-11 0)
(0.005 -5.37837e-11 0)
(0.005 -5.80751e-11 0)
(0.005 -6.26121e-11 0)
(0.005 -6.74062e-11 0)
(0.005 -7.2469e-11 0)
(0.005 -7.78123e-11 0)
(0.005 -8.34483e-11 0)
(0.005 -8.93895e-11 0)
(0.005 -9.56487e-11 0)
(0.005 -1.02239e-10 0)
(0.005 -1.09173e-10 0)
(0.005 -1.16465e-10 0)
(0.005 -1.24129e-10 0)
(0.005 -1.32177e-10 0)
(0.005 -1.40626e-10 0)
(0.005 -1.49488e-10 0)
(0.005 -1.58779e-10 0)
(0.005 -1.68512e-10 0)
(0.005 -1.78703e-10 0)
(0.005 -1.89366e-10 0)
(0.005 -2.00517e-10 0)
(0.005 -2.1217e-10 0)
(0.005 -2.24339e-10 0)
(0.005 -2.3704e-10 0)
(0.005 -2.50287e-10 0)
(0.005 -2.64094e-10 0)
(0.005 -2.78476e-10 0)
(0.005 -2.93446e-10 0)
(0.005 -3.09019e-10 0)
(0.005 -3.25207e-10 0)
(0.005 -3.42023e-10 0)
(0.005 -3.59478e-10 0)
(0.005 -3.77586e-10 0)
(0.005 -3.96356e-10 0)
(0.005 -4.15798e-10 0)
(0.005 -4.35921e-10 0)
(0.005 -4.56735e-10 0)
(0.005 -4.78244e-10 0)
(0.005 -5.00456e-10 0)
(0.005 -5.23375e-10 0)
(0.005 -5.47004e-10 0)
(0.005 -5.71343e-10 0)
(0.005 -5.96394e-10 0)
(0.005 -6.22152e-10 0)
(0.005 -6.48614e-10 0)
(0.005 -6.75773e-10 0)
(0.005 -7.03619e-10 0)
(0.005 -7.32141e-10 0)
(0.005 -7.61324e-10 0)
(0.005 -7.91148e-10 0)
(0.005 -8.21593e-10 0)
(0.005 -8.52633e-10 0)
(0.005 -8.84238e-10 0)
(0.005 -9.16373e-10 0)
(0.005 -9.49e-10 0)
(0.005 -9.82072e-10 0)
(0.005 -1.01554e-09 0)
(0.005 -1.04935e-09 0)
(0.005 -1.08342e-09 0)
(0.005 -1.1177e-09 0)
(0.005 -1.15209e-09 0)
(0.005 -1.1865e-09 0)
(0.005 -1.22083e-09 0)
(0.005 -1.25496e-09 0)
(0.005 -1.28875e-09 0)
(0.005 -1.32206e-09 0)
(0.005 -1.35471e-09 0)
(0.005 -1.38651e-09 0)
(0.005 -1.41724e-09 0)
(0.005 -1.44665e-09 0)
(0.005 -1.47444e-09 0)
(0.005 -1.50028e-09 0)
(0.005 -1.5238e-09 0)
(0.005 -1.54454e-09 0)
(0.005 -1.562e-09 0)
(0.005 -1.57544e-09 0)
(0.005 -1.58371e-09 0)
(0.005 -5.26011e-13 0)
(0.005 -1.64472e-12 0)
(0.005 -2.832e-12 0)
(0.005 -4.08391e-12 0)
(0.005 -5.4003e-12 0)
(0.005 -6.78433e-12 0)
(0.005 -8.24129e-12 0)
(0.005 -9.77766e-12 0)
(0.005 -1.14005e-11 0)
(0.005 -1.31172e-11 0)
(0.005 -1.49354e-11 0)
(0.005 -1.68627e-11 0)
(0.005 -1.89069e-11 0)
(0.005 -2.10761e-11 0)
(0.005 -2.33782e-11 0)
(0.005 -2.58216e-11 0)
(0.005 -2.84145e-11 0)
(0.005 -3.11657e-11 0)
(0.005 -3.40839e-11 0)
(0.005 -3.71783e-11 0)
(0.005 -4.0458e-11 0)
(0.005 -4.39326e-11 0)
(0.005 -4.76119e-11 0)
(0.005 -5.15061e-11 0)
(0.005 -5.56253e-11 0)
(0.005 -5.99803e-11 0)
(0.005 -6.45819e-11 0)
(0.005 -6.94413e-11 0)
(0.005 -7.457e-11 0)
(0.005 -7.99795e-11 0)
(0.005 -8.5682e-11 0)
(0.005 -9.16896e-11 0)
(0.005 -9.80149e-11 0)
(0.005 -1.04671e-10 0)
(0.005 -1.1167e-10 0)
(0.005 -1.19025e-10 0)
(0.005 -1.26751e-10 0)
(0.005 -1.3486e-10 0)
(0.005 -1.43367e-10 0)
(0.005 -1.52284e-10 0)
(0.005 -1.61628e-10 0)
(0.005 -1.7141e-10 0)
(0.005 -1.81647e-10 0)
(0.005 -1.92351e-10 0)
(0.005 -2.03538e-10 0)
(0.005 -2.15221e-10 0)
(0.005 -2.27415e-10 0)
(0.005 -2.40134e-10 0)
(0.005 -2.53391e-10 0)
(0.005 -2.67202e-10 0)
(0.005 -2.81578e-10 0)
(0.005 -2.96534e-10 0)
(0.005 -3.12082e-10 0)
(0.005 -3.28235e-10 0)
(0.005 -3.45005e-10 0)
(0.005 -3.62402e-10 0)
(0.005 -3.80438e-10 0)
(0.005 -3.99124e-10 0)
(0.005 -4.18467e-10 0)
(0.005 -4.38477e-10 0)
(0.005 -4.5916e-10 0)
(0.005 -4.80524e-10 0)
(0.005 -5.02574e-10 0)
(0.005 -5.25312e-10 0)
(0.005 -5.48742e-10 0)
(0.005 -5.72864e-10 0)
(0.005 -5.97678e-10 0)
(0.005 -6.23181e-10 0)
(0.005 -6.49368e-10 0)
(0.005 -6.76233e-10 0)
(0.005 -7.03765e-10 0)
(0.005 -7.31954e-10 0)
(0.005 -7.60785e-10 0)
(0.005 -7.9024e-10 0)
(0.005 -8.20298e-10 0)
(0.005 -8.50936e-10 0)
(0.005 -8.82124e-10 0)
(0.005 -9.13831e-10 0)
(0.005 -9.46019e-10 0)
(0.005 -9.78645e-10 0)
(0.005 -1.01166e-09 0)
(0.005 -1.04501e-09 0)
(0.005 -1.07864e-09 0)
(0.005 -1.11247e-09 0)
(0.005 -1.14643e-09 0)
(0.005 -1.18042e-09 0)
(0.005 -1.21435e-09 0)
(0.005 -1.24809e-09 0)
(0.005 -1.28152e-09 0)
(0.005 -1.31448e-09 0)
(0.005 -1.3468e-09 0)
(0.005 -1.37827e-09 0)
(0.005 -1.40864e-09 0)
(0.005 -1.43764e-09 0)
(0.005 -1.46491e-09 0)
(0.005 -1.49004e-09 0)
(0.005 -1.51248e-09 0)
(0.005 -1.53151e-09 0)
(0.005 -1.54614e-09 0)
(0.005 -1.55409e-09 0)
(0.005 -4.85698e-13 0)
(0.005 -1.52499e-12 0)
(0.005 -2.63634e-12 0)
(0.005 -3.81667e-12 0)
(0.005 -5.06491e-12 0)
(0.005 -6.38274e-12 0)
(0.005 -7.77394e-12 0)
(0.005 -9.24369e-12 0)
(0.005 -1.0798e-11 0)
(0.005 -1.24433e-11 0)
(0.005 -1.41866e-11 0)
(0.005 -1.6035e-11 0)
(0.005 -1.79957e-11 0)
(0.005 -2.00763e-11 0)
(0.005 -2.22844e-11 0)
(0.005 -2.46278e-11 0)
(0.005 -2.71147e-11 0)
(0.005 -2.97531e-11 0)
(0.005 -3.25516e-11 0)
(0.005 -3.55188e-11 0)
(0.005 -3.86637e-11 0)
(0.005 -4.19954e-11 0)
(0.005 -4.55232e-11 0)
(0.005 -4.92568e-11 0)
(0.005 -5.32062e-11 0)
(0.005 -5.73816e-11 0)
(0.005 -6.17933e-11 0)
(0.005 -6.64521e-11 0)
(0.005 -7.13689e-11 0)
(0.005 -7.6555e-11 0)
(0.005 -8.2022e-11 0)
(0.005 -8.77814e-11 0)
(0.005 -9.38454e-11 0)
(0.005 -1.00226e-10 0)
(0.005 -1.06936e-10 0)
(0.005 -1.13988e-10 0)
(0.005 -1.21395e-10 0)
(0.005 -1.29169e-10 0)
(0.005 -1.37325e-10 0)
(0.005 -1.45875e-10 0)
(0.005 -1.54833e-10 0)
(0.005 -1.64213e-10 0)
(0.005 -1.74028e-10 0)
(0.005 -1.84292e-10 0)
(0.005 -1.95019e-10 0)
(0.005 -2.06223e-10 0)
(0.005 -2.17917e-10 0)
(0.005 -2.30115e-10 0)
(0.005 -2.42831e-10 0)
(0.005 -2.56077e-10 0)
(0.005 -2.69868e-10 0)
(0.005 -2.84216e-10 0)
(0.005 -2.99133e-10 0)
(0.005 -3.14632e-10 0)
(0.005 -3.30724e-10 0)
(0.005 -3.47421e-10 0)
(0.005 -3.64734e-10 0)
(0.005 -3.82673e-10 0)
(0.005 -4.01246e-10 0)
(0.005 -4.20463e-10 0)
(0.005 -4.40332e-10 0)
(0.005 -4.60859e-10 0)
(0.005 -4.82051e-10 0)
(0.005 -5.03911e-10 0)
(0.005 -5.26443e-10 0)
(0.005 -5.4965e-10 0)
(0.005 -5.73531e-10 0)
(0.005 -5.98087e-10 0)
(0.005 -6.23314e-10 0)
(0.005 -6.49209e-10 0)
(0.005 -6.75763e-10 0)
(0.005 -7.0297e-10 0)
(0.005 -7.30817e-10 0)
(0.005 -7.59292e-10 0)
(0.005 -7.88377e-10 0)
(0.005 -8.18055e-10 0)
(0.005 -8.48302e-10 0)
(0.005 -8.79093e-10 0)
(0.005 -9.10397e-10 0)
(0.005 -9.42181e-10 0)
(0.005 -9.74404e-10 0)
(0.005 -1.00702e-09 0)
(0.005 -1.03999e-09 0)
(0.005 -1.07324e-09 0)
(0.005 -1.10671e-09 0)
(0.005 -1.14033e-09 0)
(0.005 -1.174e-09 0)
(0.005 -1.20763e-09 0)
(0.005 -1.2411e-09 0)
(0.005 -1.27428e-09 0)
(0.005 -1.30699e-09 0)
(0.005 -1.33905e-09 0)
(0.005 -1.37021e-09 0)
(0.005 -1.40018e-09 0)
(0.005 -1.42859e-09 0)
(0.005 -1.45498e-09 0)
(0.005 -1.47871e-09 0)
(0.005 -1.49889e-09 0)
(0.005 -1.51429e-09 0)
(0.005 -1.52234e-09 0)
(0.005 -4.49484e-13 0)
(0.005 -1.41547e-12 0)
(0.005 -2.45467e-12 0)
(0.005 -3.56513e-12 0)
(0.005 -4.74559e-12 0)
(0.005 -5.99688e-12 0)
(0.005 -7.32176e-12 0)
(0.005 -8.72437e-12 0)
(0.005 -1.02098e-11 0)
(0.005 -1.17837e-11 0)
(0.005 -1.34523e-11 0)
(0.005 -1.52222e-11 0)
(0.005 -1.71e-11 0)
(0.005 -1.9093e-11 0)
(0.005 -2.12081e-11 0)
(0.005 -2.3453e-11 0)
(0.005 -2.58351e-11 0)
(0.005 -2.83625e-11 0)
(0.005 -3.10431e-11 0)
(0.005 -3.38852e-11 0)
(0.005 -3.68973e-11 0)
(0.005 -4.00882e-11 0)
(0.005 -4.34669e-11 0)
(0.005 -4.70427e-11 0)
(0.005 -5.0825e-11 0)
(0.005 -5.48235e-11 0)
(0.005 -5.90484e-11 0)
(0.005 -6.35098e-11 0)
(0.005 -6.82183e-11 0)
(0.005 -7.31847e-11 0)
(0.005 -7.84199e-11 0)
(0.005 -8.39353e-11 0)
(0.005 -8.97423e-11 0)
(0.005 -9.58527e-11 0)
(0.005 -1.02278e-10 0)
(0.005 -1.09032e-10 0)
(0.005 -1.16125e-10 0)
(0.005 -1.2357e-10 0)
(0.005 -1.31381e-10 0)
(0.005 -1.39569e-10 0)
(0.005 -1.48149e-10 0)
(0.005 -1.57132e-10 0)
(0.005 -1.66533e-10 0)
(0.005 -1.76364e-10 0)
(0.005 -1.8664e-10 0)
(0.005 -1.97372e-10 0)
(0.005 -2.08574e-10 0)
(0.005 -2.2026e-10 0)
(0.005 -2.32443e-10 0)
(0.005 -2.45135e-10 0)
(0.005 -2.58349e-10 0)
(0.005 -2.72099e-10 0)
(0.005 -2.86395e-10 0)
(0.005 -3.01251e-10 0)
(0.005 -3.16678e-10 0)
(0.005 -3.32687e-10 0)
(0.005 -3.49288e-10 0)
(0.005 -3.66492e-10 0)
(0.005 -3.84308e-10 0)
(0.005 -4.02746e-10 0)
(0.005 -4.21813e-10 0)
(0.005 -4.41517e-10 0)
(0.005 -4.61865e-10 0)
(0.005 -4.8286e-10 0)
(0.005 -5.04509e-10 0)
(0.005 -5.26815e-10 0)
(0.005 -5.49779e-10 0)
(0.005 -5.73402e-10 0)
(0.005 -5.97684e-10 0)
(0.005 -6.22622e-10 0)
(0.005 -6.48212e-10 0)
(0.005 -6.74449e-10 0)
(0.005 -7.01326e-10 0)
(0.005 -7.28832e-10 0)
(0.005 -7.56956e-10 0)
(0.005 -7.85683e-10 0)
(0.005 -8.14996e-10 0)
(0.005 -8.44876e-10 0)
(0.005 -8.75299e-10 0)
(0.005 -9.06239e-10 0)
(0.005 -9.37664e-10 0)
(0.005 -9.6954e-10 0)
(0.005 -1.00183e-09 0)
(0.005 -1.03447e-09 0)
(0.005 -1.06743e-09 0)
(0.005 -1.10063e-09 0)
(0.005 -1.134e-09 0)
(0.005 -1.16745e-09 0)
(0.005 -1.20088e-09 0)
(0.005 -1.23416e-09 0)
(0.005 -1.26714e-09 0)
(0.005 -1.29963e-09 0)
(0.005 -1.33138e-09 0)
(0.005 -1.3621e-09 0)
(0.005 -1.39138e-09 0)
(0.005 -1.41872e-09 0)
(0.005 -1.44339e-09 0)
(0.005 -1.4644e-09 0)
(0.005 -1.48029e-09 0)
(0.005 -1.48889e-09 0)
(0.005 -4.16441e-13 0)
(0.005 -1.31444e-12 0)
(0.005 -2.2853e-12 0)
(0.005 -3.3282e-12 0)
(0.005 -4.44202e-12 0)
(0.005 -5.62717e-12 0)
(0.005 -6.88577e-12 0)
(0.005 -8.22116e-12 0)
(0.005 -9.63766e-12 0)
(0.005 -1.11403e-11 0)
(0.005 -1.27346e-11 0)
(0.005 -1.44265e-11 0)
(0.005 -1.62222e-11 0)
(0.005 -1.81284e-11 0)
(0.005 -2.01518e-11 0)
(0.005 -2.22994e-11 0)
(0.005 -2.45784e-11 0)
(0.005 -2.69964e-11 0)
(0.005 -2.95609e-11 0)
(0.005 -3.22799e-11 0)
(0.005 -3.51616e-11 0)
(0.005 -3.82142e-11 0)
(0.005 -4.14464e-11 0)
(0.005 -4.4867e-11 0)
(0.005 -4.84851e-11 0)
(0.005 -5.231e-11 0)
(0.005 -5.63514e-11 0)
(0.005 -6.0619e-11 0)
(0.005 -6.51229e-11 0)
(0.005 -6.98734e-11 0)
(0.005 -7.48812e-11 0)
(0.005 -8.01568e-11 0)
(0.005 -8.57115e-11 0)
(0.005 -9.15564e-11 0)
(0.005 -9.7703e-11 0)
(0.005 -1.04163e-10 0)
(0.005 -1.10948e-10 0)
(0.005 -1.1807e-10 0)
(0.005 -1.25542e-10 0)
(0.005 -1.33376e-10 0)
(0.005 -1.41583e-10 0)
(0.005 -1.50178e-10 0)
(0.005 -1.59172e-10 0)
(0.005 -1.68578e-10 0)
(0.005 -1.7841e-10 0)
(0.005 -1.88679e-10 0)
(0.005 -1.99399e-10 0)
(0.005 -2.10582e-10 0)
(0.005 -2.22241e-10 0)
(0.005 -2.34389e-10 0)
(0.005 -2.47038e-10 0)
(0.005 -2.60201e-10 0)
(0.005 -2.73888e-10 0)
(0.005 -2.88113e-10 0)
(0.005 -3.02886e-10 0)
(0.005 -3.18218e-10 0)
(0.005 -3.34121e-10 0)
(0.005 -3.50604e-10 0)
(0.005 -3.67677e-10 0)
(0.005 -3.8535e-10 0)
(0.005 -4.0363e-10 0)
(0.005 -4.22525e-10 0)
(0.005 -4.42043e-10 0)
(0.005 -4.6219e-10 0)
(0.005 -4.82971e-10 0)
(0.005 -5.04391e-10 0)
(0.005 -5.26453e-10 0)
(0.005 -5.49159e-10 0)
(0.005 -5.7251e-10 0)
(0.005 -5.96507e-10 0)
(0.005 -6.21148e-10 0)
(0.005 -6.4643e-10 0)
(0.005 -6.72349e-10 0)
(0.005 -6.98899e-10 0)
(0.005 -7.26072e-10 0)
(0.005 -7.53857e-10 0)
(0.005 -7.82244e-10 0)
(0.005 -8.11219e-10 0)
(0.005 -8.40763e-10 0)
(0.005 -8.70857e-10 0)
(0.005 -9.01479e-10 0)
(0.005 -9.32601e-10 0)
(0.005 -9.6419e-10 0)
(0.005 -9.96211e-10 0)
(0.005 -1.02862e-09 0)
(0.005 -1.06136e-09 0)
(0.005 -1.09437e-09 0)
(0.005 -1.12757e-09 0)
(0.005 -1.16088e-09 0)
(0.005 -1.19416e-09 0)
(0.005 -1.22728e-09 0)
(0.005 -1.26004e-09 0)
(0.005 -1.2922e-09 0)
(0.005 -1.32344e-09 0)
(0.005 -1.35335e-09 0)
(0.005 -1.38136e-09 0)
(0.005 -1.40671e-09 0)
(0.005 -1.42832e-09 0)
(0.005 -1.4447e-09 0)
(0.005 -1.45407e-09 0)
(0.005 -3.85963e-13 0)
(0.005 -1.2206e-12 0)
(0.005 -2.12682e-12 0)
(0.005 -3.10476e-12 0)
(0.005 -4.15361e-12 0)
(0.005 -5.27364e-12 0)
(0.005 -6.46653e-12 0)
(0.005 -7.73508e-12 0)
(0.005 -9.08301e-12 0)
(0.005 -1.05147e-11 0)
(0.005 -1.20352e-11 0)
(0.005 -1.36498e-11 0)
(0.005 -1.53643e-11 0)
(0.005 -1.71848e-11 0)
(0.005 -1.91177e-11 0)
(0.005 -2.11695e-11 0)
(0.005 -2.3347e-11 0)
(0.005 -2.56574e-11 0)
(0.005 -2.81079e-11 0)
(0.005 -3.0706e-11 0)
(0.005 -3.34595e-11 0)
(0.005 -3.63763e-11 0)
(0.005 -3.94647e-11 0)
(0.005 -4.27331e-11 0)
(0.005 -4.61902e-11 0)
(0.005 -4.98449e-11 0)
(0.005 -5.37063e-11 0)
(0.005 -5.77838e-11 0)
(0.005 -6.20872e-11 0)
(0.005 -6.66261e-11 0)
(0.005 -7.14108e-11 0)
(0.005 -7.64515e-11 0)
(0.005 -8.17589e-11 0)
(0.005 -8.73435e-11 0)
(0.005 -9.32165e-11 0)
(0.005 -9.9389e-11 0)
(0.005 -1.05872e-10 0)
(0.005 -1.12678e-10 0)
(0.005 -1.19818e-10 0)
(0.005 -1.27303e-10 0)
(0.005 -1.35147e-10 0)
(0.005 -1.4336e-10 0)
(0.005 -1.51956e-10 0)
(0.005 -1.60946e-10 0)
(0.005 -1.70342e-10 0)
(0.005 -1.80158e-10 0)
(0.005 -1.90405e-10 0)
(0.005 -2.01095e-10 0)
(0.005 -2.12242e-10 0)
(0.005 -2.23856e-10 0)
(0.005 -2.35951e-10 0)
(0.005 -2.48538e-10 0)
(0.005 -2.61629e-10 0)
(0.005 -2.75235e-10 0)
(0.005 -2.89367e-10 0)
(0.005 -3.04037e-10 0)
(0.005 -3.19255e-10 0)
(0.005 -3.35032e-10 0)
(0.005 -3.51376e-10 0)
(0.005 -3.68298e-10 0)
(0.005 -3.85807e-10 0)
(0.005 -4.0391e-10 0)
(0.005 -4.22615e-10 0)
(0.005 -4.41929e-10 0)
(0.005 -4.61858e-10 0)
(0.005 -4.82409e-10 0)
(0.005 -5.03585e-10 0)
(0.005 -5.2539e-10 0)
(0.005 -5.47828e-10 0)
(0.005 -5.709e-10 0)
(0.005 -5.94607e-10 0)
(0.005 -6.18949e-10 0)
(0.005 -6.43925e-10 0)
(0.005 -6.69531e-10 0)
(0.005 -6.95764e-10 0)
(0.005 -7.22618e-10 0)
(0.005 -7.50087e-10 0)
(0.005 -7.7816e-10 0)
(0.005 -8.06827e-10 0)
(0.005 -8.36075e-10 0)
(0.005 -8.65887e-10 0)
(0.005 -8.96243e-10 0)
(0.005 -9.27119e-10 0)
(0.005 -9.58488e-10 0)
(0.005 -9.90312e-10 0)
(0.005 -1.02255e-09 0)
(0.005 -1.05515e-09 0)
(0.005 -1.08803e-09 0)
(0.005 -1.12112e-09 0)
(0.005 -1.1543e-09 0)
(0.005 -1.18743e-09 0)
(0.005 -1.22031e-09 0)
(0.005 -1.25271e-09 0)
(0.005 -1.28429e-09 0)
(0.005 -1.31461e-09 0)
(0.005 -1.34307e-09 0)
(0.005 -1.36887e-09 0)
(0.005 -1.39091e-09 0)
(0.005 -1.40771e-09 0)
(0.005 -1.41758e-09 0)
(0.005 -3.57644e-13 0)
(0.005 -1.13301e-12 0)
(0.005 -1.97809e-12 0)
(0.005 -2.89382e-12 0)
(0.005 -3.87973e-12 0)
(0.005 -4.93607e-12 0)
(0.005 -6.06428e-12 0)
(0.005 -7.26678e-12 0)
(0.005 -8.54682e-12 0)
(0.005 -9.9083e-12 0)
(0.005 -1.13557e-11 0)
(0.005 -1.28939e-11 0)
(0.005 -1.45282e-11 0)
(0.005 -1.62642e-11 0)
(0.005 -1.81079e-11 0)
(0.005 -2.00654e-11 0)
(0.005 -2.21432e-11 0)
(0.005 -2.43479e-11 0)
(0.005 -2.66865e-11 0)
(0.005 -2.9166e-11 0)
(0.005 -3.17939e-11 0)
(0.005 -3.45777e-11 0)
(0.005 -3.75252e-11 0)
(0.005 -4.06445e-11 0)
(0.005 -4.39439e-11 0)
(0.005 -4.74318e-11 0)
(0.005 -5.11171e-11 0)
(0.005 -5.50086e-11 0)
(0.005 -5.91156e-11 0)
(0.005 -6.34475e-11 0)
(0.005 -6.80139e-11 0)
(0.005 -7.28247e-11 0)
(0.005 -7.789e-11 0)
(0.005 -8.32201e-11 0)
(0.005 -8.88254e-11 0)
(0.005 -9.47166e-11 0)
(0.005 -1.00905e-10 0)
(0.005 -1.074e-10 0)
(0.005 -1.14215e-10 0)
(0.005 -1.21361e-10 0)
(0.005 -1.28848e-10 0)
(0.005 -1.36688e-10 0)
(0.005 -1.44894e-10 0)
(0.005 -1.53476e-10 0)
(0.005 -1.62448e-10 0)
(0.005 -1.71819e-10 0)
(0.005 -1.81604e-10 0)
(0.005 -1.91812e-10 0)
(0.005 -2.02457e-10 0)
(0.005 -2.1355e-10 0)
(0.005 -2.25103e-10 0)
(0.005 -2.37127e-10 0)
(0.005 -2.49634e-10 0)
(0.005 -2.62634e-10 0)
(0.005 -2.7614e-10 0)
(0.005 -2.90162e-10 0)
(0.005 -3.0471e-10 0)
(0.005 -3.19795e-10 0)
(0.005 -3.35427e-10 0)
(0.005 -3.51615e-10 0)
(0.005 -3.68368e-10 0)
(0.005 -3.85695e-10 0)
(0.005 -4.03604e-10 0)
(0.005 -4.22102e-10 0)
(0.005 -4.41198e-10 0)
(0.005 -4.60897e-10 0)
(0.005 -4.81204e-10 0)
(0.005 -5.02127e-10 0)
(0.005 -5.23668e-10 0)
(0.005 -5.45832e-10 0)
(0.005 -5.68622e-10 0)
(0.005 -5.92039e-10 0)
(0.005 -6.16086e-10 0)
(0.005 -6.40763e-10 0)
(0.005 -6.66068e-10 0)
(0.005 -6.92001e-10 0)
(0.005 -7.18559e-10 0)
(0.005 -7.45737e-10 0)
(0.005 -7.7353e-10 0)
(0.005 -8.01929e-10 0)
(0.005 -8.30924e-10 0)
(0.005 -8.60503e-10 0)
(0.005 -8.90648e-10 0)
(0.005 -9.21339e-10 0)
(0.005 -9.52547e-10 0)
(0.005 -9.84236e-10 0)
(0.005 -1.01636e-09 0)
(0.005 -1.04886e-09 0)
(0.005 -1.08165e-09 0)
(0.005 -1.11463e-09 0)
(0.005 -1.14765e-09 0)
(0.005 -1.18052e-09 0)
(0.005 -1.213e-09 0)
(0.005 -1.24474e-09 0)
(0.005 -1.27528e-09 0)
(0.005 -1.304e-09 0)
(0.005 -1.33008e-09 0)
(0.005 -1.35239e-09 0)
(0.005 -1.36948e-09 0)
(0.005 -1.3796e-09 0)
(0.005 -3.31199e-13 0)
(0.005 -1.05095e-12 0)
(0.005 -1.83819e-12 0)
(0.005 -2.69449e-12 0)
(0.005 -3.61969e-12 0)
(0.005 -4.61409e-12 0)
(0.005 -5.67902e-12 0)
(0.005 -6.81663e-12 0)
(0.005 -8.02978e-12 0)
(0.005 -9.32199e-12 0)
(0.005 -1.06973e-11 0)
(0.005 -1.21601e-11 0)
(0.005 -1.37154e-11 0)
(0.005 -1.53683e-11 0)
(0.005 -1.71243e-11 0)
(0.005 -1.89892e-11 0)
(0.005 -2.09691e-11 0)
(0.005 -2.30702e-11 0)
(0.005 -2.52991e-11 0)
(0.005 -2.76625e-11 0)
(0.005 -3.01674e-11 0)
(0.005 -3.2821e-11 0)
(0.005 -3.56307e-11 0)
(0.005 -3.86042e-11 0)
(0.005 -4.17494e-11 0)
(0.005 -4.50744e-11 0)
(0.005 -4.85875e-11 0)
(0.005 -5.22972e-11 0)
(0.005 -5.62123e-11 0)
(0.005 -6.03419e-11 0)
(0.005 -6.4695e-11 0)
(0.005 -6.92812e-11 0)
(0.005 -7.41101e-11 0)
(0.005 -7.91914e-11 0)
(0.005 -8.45352e-11 0)
(0.005 -9.01518e-11 0)
(0.005 -9.60514e-11 0)
(0.005 -1.02245e-10 0)
(0.005 -1.08742e-10 0)
(0.005 -1.15555e-10 0)
(0.005 -1.22694e-10 0)
(0.005 -1.3017e-10 0)
(0.005 -1.37995e-10 0)
(0.005 -1.4618e-10 0)
(0.005 -1.54736e-10 0)
(0.005 -1.63674e-10 0)
(0.005 -1.73007e-10 0)
(0.005 -1.82745e-10 0)
(0.005 -1.929e-10 0)
(0.005 -2.03484e-10 0)
(0.005 -2.14507e-10 0)
(0.005 -2.25981e-10 0)
(0.005 -2.37918e-10 0)
(0.005 -2.50327e-10 0)
(0.005 -2.63221e-10 0)
(0.005 -2.7661e-10 0)
(0.005 -2.90504e-10 0)
(0.005 -3.04914e-10 0)
(0.005 -3.19849e-10 0)
(0.005 -3.35319e-10 0)
(0.005 -3.51334e-10 0)
(0.005 -3.67902e-10 0)
(0.005 -3.85033e-10 0)
(0.005 -4.02734e-10 0)
(0.005 -4.21014e-10 0)
(0.005 -4.39879e-10 0)
(0.005 -4.59337e-10 0)
(0.005 -4.79394e-10 0)
(0.005 -5.00057e-10 0)
(0.005 -5.21331e-10 0)
(0.005 -5.4322e-10 0)
(0.005 -5.65729e-10 0)
(0.005 -5.88863e-10 0)
(0.005 -6.12624e-10 0)
(0.005 -6.37014e-10 0)
(0.005 -6.62037e-10 0)
(0.005 -6.87693e-10 0)
(0.005 -7.13981e-10 0)
(0.005 -7.40901e-10 0)
(0.005 -7.6845e-10 0)
(0.005 -7.96623e-10 0)
(0.005 -8.25412e-10 0)
(0.005 -8.54809e-10 0)
(0.005 -8.84796e-10 0)
(0.005 -9.15354e-10 0)
(0.005 -9.46452e-10 0)
(0.005 -9.78051e-10 0)
(0.005 -1.01009e-09 0)
(0.005 -1.04251e-09 0)
(0.005 -1.07518e-09 0)
(0.005 -1.10799e-09 0)
(0.005 -1.14073e-09 0)
(0.005 -1.17314e-09 0)
(0.005 -1.20488e-09 0)
(0.005 -1.23548e-09 0)
(0.005 -1.26431e-09 0)
(0.005 -1.29052e-09 0)
(0.005 -1.31298e-09 0)
(0.005 -1.33022e-09 0)
(0.005 -1.34047e-09 0)
(0.005 -3.06421e-13 0)
(0.005 -9.73874e-13 0)
(0.005 -1.70637e-12 0)
(0.005 -2.506e-12 0)
(0.005 -3.37283e-12 0)
(0.005 -4.30727e-12 0)
(0.005 -5.31059e-12 0)
(0.005 -6.38473e-12 0)
(0.005 -7.53231e-12 0)
(0.005 -8.75649e-12 0)
(0.005 -1.00609e-11 0)
(0.005 -1.14497e-11 0)
(0.005 -1.29273e-11 0)
(0.005 -1.44986e-11 0)
(0.005 -1.61686e-11 0)
(0.005 -1.79427e-11 0)
(0.005 -1.98267e-11 0)
(0.005 -2.18263e-11 0)
(0.005 -2.39479e-11 0)
(0.005 -2.61977e-11 0)
(0.005 -2.85824e-11 0)
(0.005 -3.11088e-11 0)
(0.005 -3.37839e-11 0)
(0.005 -3.6615e-11 0)
(0.005 -3.96097e-11 0)
(0.005 -4.27755e-11 0)
(0.005 -4.61206e-11 0)
(0.005 -4.96529e-11 0)
(0.005 -5.33808e-11 0)
(0.005 -5.7313e-11 0)
(0.005 -6.14581e-11 0)
(0.005 -6.58253e-11 0)
(0.005 -7.04235e-11 0)
(0.005 -7.52623e-11 0)
(0.005 -8.03511e-11 0)
(0.005 -8.56998e-11 0)
(0.005 -9.13181e-11 0)
(0.005 -9.72164e-11 0)
(0.005 -1.03405e-10 0)
(0.005 -1.09893e-10 0)
(0.005 -1.16693e-10 0)
(0.005 -1.23814e-10 0)
(0.005 -1.31268e-10 0)
(0.005 -1.39065e-10 0)
(0.005 -1.47216e-10 0)
(0.005 -1.55732e-10 0)
(0.005 -1.64624e-10 0)
(0.005 -1.73903e-10 0)
(0.005 -1.83581e-10 0)
(0.005 -1.93668e-10 0)
(0.005 -2.04175e-10 0)
(0.005 -2.15113e-10 0)
(0.005 -2.26494e-10 0)
(0.005 -2.38327e-10 0)
(0.005 -2.50624e-10 0)
(0.005 -2.63395e-10 0)
(0.005 -2.76651e-10 0)
(0.005 -2.90402e-10 0)
(0.005 -3.04658e-10 0)
(0.005 -3.19428e-10 0)
(0.005 -3.34722e-10 0)
(0.005 -3.5055e-10 0)
(0.005 -3.66921e-10 0)
(0.005 -3.83844e-10 0)
(0.005 -4.01326e-10 0)
(0.005 -4.19377e-10 0)
(0.005 -4.38004e-10 0)
(0.005 -4.57215e-10 0)
(0.005 -4.77018e-10 0)
(0.005 -4.97419e-10 0)
(0.005 -5.18425e-10 0)
(0.005 -5.40043e-10 0)
(0.005 -5.62279e-10 0)
(0.005 -5.85139e-10 0)
(0.005 -6.08628e-10 0)
(0.005 -6.32751e-10 0)
(0.005 -6.57513e-10 0)
(0.005 -6.82918e-10 0)
(0.005 -7.08968e-10 0)
(0.005 -7.35665e-10 0)
(0.005 -7.6301e-10 0)
(0.005 -7.91e-10 0)