/*--------------------------------*- C++ -*----------------------------------*\
  =========                 |
  \\      /  F ield         | OpenFOAM: The Open Source CFD Toolbox
   \\    /   O peration     | Website:  https://openfoam.org
    \\  /    A nd           | Version:  11
     \\/     M anipulation  |
\*---------------------------------------------------------------------------*/
FoamFile
{
    format      ascii;
    class       surfaceScalarField;
    location    "214";
    object      phi;
}
// * * * * * * * * * * * * * * * * * * * * * * * * * * * * * * * * * * * * * //

dimensions      [0 3 -1 0 0 0 0];

internalField   nonuniform List<scalar> 
19800
(
1.99947e-05
-5.42768e-08
1.99858e-05
-1.60734e-07
1.99747e-05
-2.67167e-07
1.99612e-05
-3.75138e-07
1.99453e-05
-4.85718e-07
1.99271e-05
-5.99612e-07
1.99064e-05
-7.17351e-07
1.98831e-05
-8.39364e-07
1.9857e-05
-9.66009e-07
1.9828e-05
-1.09759e-06
1.9796e-05
-1.23438e-06
1.97607e-05
-1.37662e-06
1.9722e-05
-1.52451e-06
1.96798e-05
-1.67824e-06
1.96337e-05
-1.83797e-06
1.95837e-05
-2.00382e-06
1.95295e-05
-2.1759e-06
1.94709e-05
-2.35426e-06
1.94077e-05
-2.53895e-06
1.93396e-05
-2.72993e-06
1.92666e-05
-2.92716e-06
1.91883e-05
-3.13052e-06
1.91045e-05
-3.33983e-06
1.90152e-05
-3.55486e-06
1.89199e-05
-3.77529e-06
1.88187e-05
-4.00071e-06
1.87112e-05
-4.23065e-06
1.85974e-05
-4.4645e-06
1.84772e-05
-4.70158e-06
1.83504e-05
-4.94108e-06
1.8217e-05
-5.18207e-06
1.80771e-05
-5.42351e-06
1.79307e-05
-5.66425e-06
1.77778e-05
-5.90303e-06
1.76187e-05
-6.13847e-06
1.74536e-05
-6.36917e-06
1.72829e-05
-6.59363e-06
1.71069e-05
-6.81037e-06
1.6926e-05
-7.0179e-06
1.67409e-05
-7.21483e-06
1.6552e-05
-7.39984e-06
1.636e-05
-7.57178e-06
1.61655e-05
-7.72966e-06
1.59693e-05
-7.87271e-06
1.5772e-05
-8.00038e-06
1.55745e-05
-8.11239e-06
1.53776e-05
-8.20876e-06
1.51814e-05
-8.28936e-06
1.49843e-05
-8.35406e-06
1.47861e-05
-8.403e-06
1.45874e-05
-8.43698e-06
1.43886e-05
-8.45713e-06
1.4192e-05
-8.46482e-06
1.39997e-05
-8.46095e-06
1.38118e-05
-8.44566e-06
1.36281e-05
-8.41939e-06
1.34489e-05
-8.38283e-06
1.32739e-05
-8.33649e-06
1.31018e-05
-8.28119e-06
1.29323e-05
-8.21809e-06
1.27656e-05
-8.14789e-06
1.26018e-05
-8.07103e-06
1.24411e-05
-7.98799e-06
1.22833e-05
-7.89924e-06
1.21287e-05
-7.80521e-06
1.19772e-05
-7.70632e-06
1.18288e-05
-7.60294e-06
1.16835e-05
-7.49544e-06
1.15413e-05
-7.38415e-06
1.14023e-05
-7.2694e-06
1.12664e-05
-7.15148e-06
1.11337e-05
-7.0307e-06
1.10042e-05
-6.90734e-06
1.08778e-05
-6.78167e-06
1.07547e-05
-6.65398e-06
1.06349e-05
-6.52454e-06
1.05184e-05
-6.39364e-06
1.04052e-05
-6.26157e-06
1.02954e-05
-6.12862e-06
1.01891e-05
-5.99511e-06
1.00863e-05
-5.86135e-06
9.98703e-06
-5.7277e-06
9.89142e-06
-5.59449e-06
9.79953e-06
-5.46212e-06
9.71143e-06
-5.33099e-06
9.62721e-06
-5.20154e-06
9.54697e-06
-5.07422e-06
9.4708e-06
-4.94954e-06
9.39884e-06
-4.82804e-06
9.33119e-06
-4.71031e-06
9.268e-06
-4.597e-06
9.20943e-06
-4.48882e-06
9.15565e-06
-4.38656e-06
9.10689e-06
-4.2911e-06
9.06338e-06
-4.20347e-06
9.02542e-06
-4.12485e-06
8.99339e-06
-4.05661e-06
8.96778e-06
-4.00043e-06
8.94944e-06
-3.9589e-06
-3.93674e-06
1.9996e-05
-5.02957e-08
1.99877e-05
-1.52418e-07
1.99766e-05
-2.56045e-07
1.9963e-05
-3.61601e-07
1.99472e-05
-4.6983e-07
1.99289e-05
-5.81331e-07
1.99081e-05
-6.96586e-07
1.98847e-05
-8.15994e-07
1.98586e-05
-9.39896e-07
1.98296e-05
-1.06858e-06
1.97976e-05
-1.20232e-06
1.97623e-05
-1.34133e-06
1.97236e-05
-1.48582e-06
1.96813e-05
-1.63596e-06
1.96353e-05
-1.79191e-06
1.95852e-05
-1.95379e-06
1.9531e-05
-2.12169e-06
1.94724e-05
-2.29567e-06
1.94092e-05
-2.47576e-06
1.93412e-05
-2.66194e-06
1.92682e-05
-2.85415e-06
1.919e-05
-3.05227e-06
1.91063e-05
-3.25615e-06
1.9017e-05
-3.46553e-06
1.89218e-05
-3.68012e-06
1.88206e-05
-3.89953e-06
1.87133e-05
-4.12329e-06
1.85996e-05
-4.35082e-06
1.84795e-05
-4.58147e-06
1.83529e-05
-4.81445e-06
1.82197e-05
-5.04888e-06
1.80799e-05
-5.28377e-06
1.79337e-05
-5.51801e-06
1.7781e-05
-5.75039e-06
1.76222e-05
-5.97963e-06
1.74574e-05
-6.20435e-06
1.72869e-05
-6.42316e-06
1.71112e-05
-6.63463e-06
1.69306e-05
-6.83734e-06
1.67457e-05
-7.02996e-06
1.65571e-05
-7.21122e-06
1.63653e-05
-7.38001e-06
1.61711e-05
-7.53536e-06
1.59749e-05
-7.67652e-06
1.57774e-05
-7.80292e-06
1.55792e-05
-7.9142e-06
1.53806e-05
-8.01017e-06
1.51818e-05
-8.09051e-06
1.4983e-05
-8.15522e-06
1.4785e-05
-8.20508e-06
1.45889e-05
-8.24081e-06
1.43948e-05
-8.26308e-06
1.42031e-05
-8.27306e-06
1.40137e-05
-8.27156e-06
1.38268e-05
-8.25878e-06
1.36427e-05
-8.23533e-06
1.34619e-05
-8.20202e-06
1.32848e-05
-8.15933e-06
1.31112e-05
-8.10764e-06
1.2941e-05
-8.04784e-06
1.27738e-05
-7.98075e-06
1.26098e-05
-7.90698e-06
1.24488e-05
-7.82703e-06
1.22909e-05
-7.74137e-06
1.21362e-05
-7.65045e-06
1.19845e-05
-7.55467e-06
1.1836e-05
-7.45441e-06
1.16906e-05
-7.35003e-06
1.15483e-05
-7.24187e-06
1.14092e-05
-7.13026e-06
1.12732e-05
-7.01549e-06
1.11403e-05
-6.89787e-06
1.10107e-05
-6.77769e-06
1.08843e-05
-6.65523e-06
1.07611e-05
-6.53078e-06
1.06411e-05
-6.40461e-06
1.05245e-05
-6.27702e-06
1.04113e-05
-6.1483e-06
1.03014e-05
-6.01875e-06
1.0195e-05
-5.88869e-06
1.00921e-05
-5.75844e-06
9.99272e-06
-5.62835e-06
9.89701e-06
-5.49878e-06
9.80501e-06
-5.37012e-06
9.7168e-06
-5.24278e-06
9.63246e-06
-5.1172e-06
9.55209e-06
-4.99384e-06
9.47578e-06
-4.87323e-06
9.40364e-06
-4.7559e-06
9.33579e-06
-4.64247e-06
9.27237e-06
-4.53358e-06
9.21351e-06
-4.42996e-06
9.15937e-06
-4.33242e-06
9.11014e-06
-4.24188e-06
9.06602e-06
-4.15935e-06
9.02723e-06
-4.08605e-06
8.99399e-06
-4.02337e-06
8.96652e-06
-3.97296e-06
8.94469e-06
-3.93707e-06
-3.91907e-06
1.9997e-05
-4.73029e-08
1.99896e-05
-1.45029e-07
1.9979e-05
-2.45427e-07
1.99657e-05
-3.48305e-07
1.99499e-05
-4.54043e-07
1.99317e-05
-5.63079e-07
1.99109e-05
-6.75814e-07
1.98875e-05
-7.92602e-07
1.98614e-05
-9.13756e-07
1.98323e-05
-1.03955e-06
1.98002e-05
-1.17024e-06
1.97649e-05
-1.30603e-06
1.97262e-05
-1.44712e-06
1.9684e-05
-1.59369e-06
1.96379e-05
-1.74586e-06
1.95879e-05
-1.90377e-06
1.95337e-05
-2.0675e-06
1.94752e-05
-2.23711e-06
1.9412e-05
-2.41262e-06
1.93441e-05
-2.594e-06
1.92711e-05
-2.78121e-06
1.9193e-05
-2.97412e-06
1.91094e-05
-3.17258e-06
1.90202e-05
-3.37634e-06
1.89252e-05
-3.58512e-06
1.88242e-05
-3.79854e-06
1.87171e-05
-4.01615e-06
1.86037e-05
-4.2374e-06
1.84838e-05
-4.46164e-06
1.83575e-05
-4.68815e-06
1.82247e-05
-4.91606e-06
1.80854e-05
-5.14444e-06
1.79396e-05
-5.37222e-06
1.77875e-05
-5.59826e-06
1.76292e-05
-5.82134e-06
1.7465e-05
-6.04014e-06
1.72951e-05
-6.25333e-06
1.71201e-05
-6.45956e-06
1.69402e-05
-6.65747e-06
1.6756e-05
-6.84577e-06
1.65681e-05
-7.02327e-06
1.63769e-05
-7.18886e-06
1.61831e-05
-7.3416e-06
1.59874e-05
-7.48074e-06
1.57901e-05
-7.60569e-06
1.55919e-05
-7.71602e-06
1.53932e-05
-7.81145e-06
1.51945e-05
-7.89179e-06
1.49964e-05
-7.95716e-06
1.47995e-05
-8.00819e-06
1.46043e-05
-8.04555e-06
1.44111e-05
-8.06989e-06
1.42201e-05
-8.08207e-06
1.40313e-05
-8.0828e-06
1.38451e-05
-8.07253e-06
1.36616e-05
-8.05184e-06
1.3481e-05
-8.02144e-06
1.33035e-05
-7.98183e-06
1.31293e-05
-7.93343e-06
1.29584e-05
-7.87693e-06
1.27907e-05
-7.81307e-06
1.26262e-05
-7.74246e-06
1.24648e-05
-7.66566e-06
1.23066e-05
-7.58314e-06
1.21515e-05
-7.49535e-06
1.19995e-05
-7.40269e-06
1.18507e-05
-7.30556e-06
1.17049e-05
-7.20431e-06
1.15624e-05
-7.09929e-06
1.14229e-05
-6.99083e-06
1.12867e-05
-6.87922e-06
1.11536e-05
-6.76477e-06
1.10237e-05
-6.64779e-06
1.0897e-05
-6.52854e-06
1.07735e-05
-6.40733e-06
1.06533e-05
-6.28444e-06
1.05365e-05
-6.16016e-06
1.0423e-05
-6.0348e-06
1.03129e-05
-5.90865e-06
1.02062e-05
-5.78203e-06
1.01031e-05
-5.65529e-06
1.00035e-05
-5.52877e-06
9.90753e-06
-5.40283e-06
9.81527e-06
-5.27787e-06
9.72679e-06
-5.1543e-06
9.64216e-06
-5.03257e-06
9.56146e-06
-4.91315e-06
9.4848e-06
-4.79656e-06
9.41226e-06
-4.68336e-06
9.34395e-06
-4.57416e-06
9.27999e-06
-4.46961e-06
9.22047e-06
-4.37045e-06
9.16554e-06
-4.27749e-06
9.11531e-06
-4.19164e-06
9.06988e-06
-4.11393e-06
9.02935e-06
-4.04552e-06
8.99373e-06
-3.98775e-06
8.96287e-06
-3.9421e-06
8.93621e-06
-3.91041e-06
-3.89511e-06
1.99976e-05
-4.48731e-08
1.9991e-05
-1.38502e-07
1.99811e-05
-2.35506e-07
1.99683e-05
-3.35476e-07
1.99528e-05
-4.38547e-07
1.99347e-05
-5.45001e-07
1.9914e-05
-6.55139e-07
1.98907e-05
-7.69259e-07
1.98646e-05
-8.87636e-07
1.98356e-05
-1.01052e-06
1.98035e-05
-1.13815e-06
1.97682e-05
-1.27072e-06
1.97295e-05
-1.40842e-06
1.96872e-05
-1.55141e-06
1.96412e-05
-1.69983e-06
1.95912e-05
-1.85378e-06
1.9537e-05
-2.01336e-06
1.94785e-05
-2.17861e-06
1.94154e-05
-2.34955e-06
1.93476e-05
-2.52616e-06
1.92748e-05
-2.70838e-06
1.91967e-05
-2.8961e-06
1.91133e-05
-3.08917e-06
1.90243e-05
-3.28734e-06
1.89296e-05
-3.49035e-06
1.88288e-05
-3.69782e-06
1.8722e-05
-3.90933e-06
1.8609e-05
-4.12434e-06
1.84896e-05
-4.34224e-06
1.83637e-05
-4.56233e-06
1.82315e-05
-4.78379e-06
1.80927e-05
-5.00572e-06
1.79476e-05
-5.22712e-06
1.77963e-05
-5.44689e-06
1.76388e-05
-5.66386e-06
1.74755e-05
-5.87681e-06
1.73066e-05
-6.08444e-06
1.71325e-05
-6.28546e-06
1.69536e-05
-6.4786e-06
1.67704e-05
-6.6626e-06
1.65835e-05
-6.83631e-06
1.63933e-05
-6.99866e-06
1.62004e-05
-7.14874e-06
1.60054e-05
-7.28577e-06
1.58089e-05
-7.40916e-06
1.56113e-05
-7.51846e-06
1.54133e-05
-7.61339e-06
1.52153e-05
-7.69381e-06
1.5018e-05
-7.75988e-06
1.48219e-05
-7.8121e-06
1.46274e-05
-7.85104e-06
1.44348e-05
-7.87729e-06
1.42443e-05
-7.89157e-06
1.40561e-05
-7.89452e-06
1.38702e-05
-7.88667e-06
1.3687e-05
-7.86861e-06
1.35065e-05
-7.84095e-06
1.33289e-05
-7.80423e-06
1.31544e-05
-7.7589e-06
1.2983e-05
-7.70558e-06
1.28148e-05
-7.64491e-06
1.26499e-05
-7.57748e-06
1.2488e-05
-7.50383e-06
1.23293e-05
-7.42445e-06
1.21738e-05
-7.3398e-06
1.20214e-05
-7.25028e-06
1.18721e-05
-7.15629e-06
1.1726e-05
-7.05818e-06
1.1583e-05
-6.95631e-06
1.14432e-05
-6.85099e-06
1.13065e-05
-6.74255e-06
1.1173e-05
-6.63129e-06
1.10427e-05
-6.5175e-06
1.09157e-05
-6.40148e-06
1.07919e-05
-6.28352e-06
1.06713e-05
-6.16391e-06
1.05541e-05
-6.04295e-06
1.04403e-05
-5.92094e-06
1.03298e-05
-5.7982e-06
1.02228e-05
-5.67503e-06
1.01193e-05
-5.55179e-06
1.00194e-05
-5.42882e-06
9.92305e-06
-5.3065e-06
9.8304e-06
-5.18522e-06
9.74151e-06
-5.0654e-06
9.65644e-06
-4.9475e-06
9.57526e-06
-4.83198e-06
9.49806e-06
-4.71937e-06
9.42492e-06
-4.61022e-06
9.35592e-06
-4.50516e-06
9.29114e-06
-4.40483e-06
9.23067e-06
-4.30997e-06
9.17456e-06
-4.22139e-06
9.12289e-06
-4.13996e-06
9.07564e-06
-4.06669e-06
9.03278e-06
-4.00266e-06
8.99413e-06
-3.94909e-06
8.95932e-06
-3.90729e-06
8.92768e-06
-3.87877e-06
-3.86575e-06
1.99979e-05
-4.28166e-08
1.99921e-05
-1.32653e-07
1.99829e-05
-2.26272e-07
1.99706e-05
-3.23212e-07
1.99555e-05
-4.23476e-07
1.99377e-05
-5.27224e-07
1.99173e-05
-6.34674e-07
1.98941e-05
-7.46059e-07
1.98681e-05
-8.61613e-07
1.98391e-05
-9.81561e-07
1.98071e-05
-1.10611e-06
1.97718e-05
-1.23545e-06
1.97331e-05
-1.36975e-06
1.96909e-05
-1.50917e-06
1.96449e-05
-1.65383e-06
1.95949e-05
-1.80384e-06
1.95409e-05
-1.95927e-06
1.94824e-05
-2.12018e-06
1.94195e-05
-2.28657e-06
1.93517e-05
-2.45844e-06
1.92791e-05
-2.6357e-06
1.92012e-05
-2.81827e-06
1.9118e-05
-3.00598e-06
1.90293e-05
-3.19861e-06
1.89349e-05
-3.39589e-06
1.88345e-05
-3.59746e-06
1.87281e-05
-3.80292e-06
1.86155e-05
-4.01176e-06
1.84967e-05
-4.22339e-06
1.83715e-05
-4.43713e-06
1.82399e-05
-4.65222e-06
1.81019e-05
-4.86778e-06
1.79577e-05
-5.08288e-06
1.78073e-05
-5.29646e-06
1.76508e-05
-5.50741e-06
1.74886e-05
-5.71457e-06
1.73209e-05
-5.9167e-06
1.7148e-05
-6.11258e-06
1.69704e-05
-6.30098e-06
1.67884e-05
-6.48069e-06
1.66027e-05
-6.65061e-06
1.64138e-05
-6.8097e-06
1.62221e-05
-6.95706e-06
1.60283e-05
-7.09193e-06
1.58328e-05
-7.2137e-06
1.56363e-05
-7.32193e-06
1.54392e-05
-7.41633e-06
1.52422e-05
-7.49682e-06
1.50459e-05
-7.56353e-06
1.48506e-05
-7.61683e-06
1.46568e-05
-7.65723e-06
1.44648e-05
-7.68525e-06
1.42747e-05
-7.70152e-06
1.40868e-05
-7.70662e-06
1.39012e-05
-7.70111e-06
1.37182e-05
-7.68556e-06
1.35378e-05
-7.66054e-06
1.33601e-05
-7.62659e-06
1.31854e-05
-7.58419e-06
1.30138e-05
-7.53392e-06
1.28452e-05
-7.47635e-06
1.26798e-05
-7.41204e-06
1.25175e-05
-7.34153e-06
1.23583e-05
-7.26529e-06
1.22023e-05
-7.18377e-06
1.20494e-05
-7.09738e-06
1.18996e-05
-7.00653e-06
1.1753e-05
-6.91156e-06
1.16095e-05
-6.81284e-06
1.14692e-05
-6.71068e-06
1.13321e-05
-6.60541e-06
1.11981e-05
-6.49734e-06
1.10674e-05
-6.38676e-06
1.09399e-05
-6.27397e-06
1.08156e-05
-6.15926e-06
1.06946e-05
-6.04294e-06
1.0577e-05
-5.9253e-06
1.04627e-05
-5.80665e-06
1.03518e-05
-5.6873e-06
1.02443e-05
-5.56758e-06
1.01404e-05
-5.44784e-06
1.004e-05
-5.32841e-06
9.94318e-06
-5.20969e-06
9.85003e-06
-5.09207e-06
9.7606e-06
-4.97597e-06
9.67494e-06
-4.86184e-06
9.59313e-06
-4.75017e-06
9.51523e-06
-4.64146e-06
9.4413e-06
-4.53629e-06
9.37139e-06
-4.43525e-06
9.30556e-06
-4.339e-06
9.24384e-06
-4.24826e-06
9.18627e-06
-4.16381e-06
9.13281e-06
-4.0865e-06
9.08339e-06
-4.01727e-06
9.03786e-06
-3.95713e-06
8.99592e-06
-3.90716e-06
8.95711e-06
-3.86847e-06
8.92069e-06
-3.84235e-06
-3.83119e-06
1.99982e-05
-4.1015e-08
1.99929e-05
-1.27335e-07
1.99843e-05
-2.17653e-07
1.99726e-05
-3.11524e-07
1.9958e-05
-4.08891e-07
1.99406e-05
-5.09838e-07
1.99204e-05
-6.14511e-07
1.98975e-05
-7.2309e-07
1.98716e-05
-8.35767e-07
1.98428e-05
-9.52736e-07
1.98109e-05
-1.07418e-06
1.97757e-05
-1.20027e-06
1.97371e-05
-1.33117e-06
1.96949e-05
-1.46701e-06
1.9649e-05
-1.60792e-06
1.95992e-05
-1.75399e-06
1.95452e-05
-1.9053e-06
1.94869e-05
-2.06188e-06
1.94241e-05
-2.22375e-06
1.93565e-05
-2.39089e-06
1.92841e-05
-2.56324e-06
1.92065e-05
-2.74068e-06
1.91236e-05
-2.92308e-06
1.90352e-05
-3.11021e-06
1.89411e-05
-3.30181e-06
1.88412e-05
-3.49756e-06
1.87353e-05
-3.69703e-06
1.86233e-05
-3.89977e-06
1.85051e-05
-4.1052e-06
1.83807e-05
-4.31268e-06
1.825e-05
-4.52148e-06
1.8113e-05
-4.73077e-06
1.79697e-05
-4.93966e-06
1.78204e-05
-5.14714e-06
1.76652e-05
-5.35216e-06
1.75042e-05
-5.55361e-06
1.73378e-05
-5.75032e-06
1.71663e-05
-5.94111e-06
1.69902e-05
-6.1248e-06
1.68097e-05
-6.30025e-06
1.66255e-05
-6.46638e-06
1.6438e-05
-6.62219e-06
1.62477e-05
-6.76679e-06
1.60552e-05
-6.89945e-06
1.58611e-05
-7.01955e-06
1.56658e-05
-7.12666e-06
1.547e-05
-7.2205e-06
1.52741e-05
-7.30097e-06
1.50788e-05
-7.36819e-06
1.48844e-05
-7.42245e-06
1.46914e-05
-7.46416e-06
1.44999e-05
-7.49381e-06
1.43103e-05
-7.51194e-06
1.41228e-05
-7.51909e-06
1.39375e-05
-7.51582e-06
1.37546e-05
-7.50267e-06
1.35743e-05
-7.4802e-06
1.33966e-05
-7.44892e-06
1.32218e-05
-7.40935e-06
1.30499e-05
-7.36201e-06
1.2881e-05
-7.30745e-06
1.27151e-05
-7.2462e-06
1.25524e-05
-7.17877e-06
1.23927e-05
-7.10563e-06
1.22362e-05
-7.02723e-06
1.20828e-05
-6.94396e-06
1.19325e-05
-6.85624e-06
1.17853e-05
-6.76441e-06
1.16413e-05
-6.66883e-06
1.15005e-05
-6.56984e-06
1.13628e-05
-6.46774e-06
1.12283e-05
-6.36286e-06
1.10971e-05
-6.25549e-06
1.0969e-05
-6.14593e-06
1.08442e-05
-6.03449e-06
1.07227e-05
-5.92145e-06
1.06046e-05
-5.80713e-06
1.04898e-05
-5.69184e-06
1.03783e-05
-5.57589e-06
1.02704e-05
-5.4596e-06
1.01659e-05
-5.34334e-06
1.00649e-05
-5.22744e-06
9.9675e-06
-5.1123e-06
9.87373e-06
-4.9983e-06
9.78363e-06
-4.88588e-06
9.69727e-06
-4.77548e-06
9.61468e-06
-4.66758e-06
9.53591e-06
-4.56269e-06
9.461e-06
-4.46138e-06
9.38999e-06
-4.36424e-06
9.3229e-06
-4.27191e-06
9.25972e-06
-4.18508e-06
9.20042e-06
-4.10451e-06
9.14494e-06
-4.03101e-06
9.09312e-06
-3.96545e-06
9.04474e-06
-3.90876e-06
8.99946e-06
-3.86187e-06
8.95675e-06
-3.82576e-06
8.91588e-06
-3.80148e-06
-3.7914e-06
1.99984e-05
-3.93908e-08
1.99935e-05
-1.22436e-07
1.99854e-05
-2.09564e-07
1.99742e-05
-3.00382e-07
1.99602e-05
-3.94811e-07
1.99432e-05
-4.92889e-07
1.99234e-05
-5.94715e-07
1.99008e-05
-7.00424e-07
1.98752e-05
-8.1017e-07
1.98465e-05
-9.24117e-07
1.98148e-05
-1.04242e-06
1.97798e-05
-1.16525e-06
1.97413e-05
-1.29273e-06
1.96993e-05
-1.42499e-06
1.96535e-05
-1.56215e-06
1.96038e-05
-1.70429e-06
1.955e-05
-1.85148e-06
1.94919e-05
-2.00376e-06
1.94293e-05
-2.16113e-06
1.93619e-05
-2.32358e-06
1.92897e-05
-2.49104e-06
1.92125e-05
-2.66341e-06
1.91299e-05
-2.84053e-06
1.90419e-05
-3.02222e-06
1.89483e-05
-3.20821e-06
1.8849e-05
-3.39819e-06
1.87437e-05
-3.59176e-06
1.86324e-05
-3.78847e-06
1.8515e-05
-3.98779e-06
1.83914e-05
-4.1891e-06
1.82616e-05
-4.39171e-06
1.81257e-05
-4.59483e-06
1.79836e-05
-4.79759e-06
1.78356e-05
-4.99907e-06
1.76816e-05
-5.19825e-06
1.75221e-05
-5.39408e-06
1.73572e-05
-5.58543e-06
1.71873e-05
-5.77118e-06
1.70127e-05
-5.95022e-06
1.68339e-05
-6.12143e-06
1.66513e-05
-6.28378e-06
1.64654e-05
-6.43629e-06
1.62767e-05
-6.57812e-06
1.60858e-05
-6.70852e-06
1.58931e-05
-6.8269e-06
1.56993e-05
-6.93283e-06
1.55048e-05
-7.02602e-06
1.53102e-05
-7.10638e-06
1.5116e-05
-7.17397e-06
1.49226e-05
-7.22903e-06
1.47303e-05
-7.2719e-06
1.45395e-05
-7.30302e-06
1.43505e-05
-7.32288e-06
1.41634e-05
-7.33197e-06
1.39784e-05
-7.33083e-06
1.37957e-05
-7.31998e-06
1.36154e-05
-7.29995e-06
1.34378e-05
-7.27125e-06
1.32628e-05
-7.2344e-06
1.30907e-05
-7.18989e-06
1.29215e-05
-7.13826e-06
1.27553e-05
-7.07999e-06
1.25921e-05
-7.01559e-06
1.2432e-05
-6.94551e-06
1.22749e-05
-6.87018e-06
1.2121e-05
-6.79001e-06
1.19702e-05
-6.7054e-06
1.18224e-05
-6.6167e-06
1.16779e-05
-6.52426e-06
1.15364e-05
-6.42842e-06
1.13982e-05
-6.32949e-06
1.12631e-05
-6.2278e-06
1.11313e-05
-6.12363e-06
1.10027e-05
-6.01731e-06
1.08773e-05
-5.90912e-06
1.07552e-05
-5.79938e-06
1.06365e-05
-5.68838e-06
1.05211e-05
-5.57643e-06
1.0409e-05
-5.46387e-06
1.03004e-05
-5.35101e-06
1.01953e-05
-5.23821e-06
1.00937e-05
-5.12582e-06
9.99561e-06
-5.01422e-06
9.90111e-06
-4.90381e-06
9.81024e-06
-4.79501e-06
9.72304e-06
-4.68827e-06
9.63953e-06
-4.58407e-06
9.55976e-06
-4.48292e-06
9.48373e-06
-4.38535e-06
9.41145e-06
-4.29196e-06
9.34292e-06
-4.20337e-06
9.27809e-06
-4.12025e-06
9.2169e-06
-4.04332e-06
9.15922e-06
-3.97333e-06
9.10486e-06
-3.9111e-06
9.05357e-06
-3.85746e-06
9.00495e-06
-3.81326e-06
8.95851e-06
-3.77931e-06
8.91355e-06
-3.75652e-06
-3.74665e-06
1.99985e-05
-3.78954e-08
1.99939e-05
-1.17866e-07
1.99863e-05
-2.01925e-07
1.99756e-05
-2.89735e-07
1.99621e-05
-3.8122e-07
1.99456e-05
-4.76395e-07
1.99262e-05
-5.75324e-07
1.99039e-05
-6.78112e-07
1.98786e-05
-7.8488e-07
1.98502e-05
-8.95766e-07
1.98187e-05
-1.01091e-06
1.97839e-05
-1.13044e-06
1.97456e-05
-1.25448e-06
1.97038e-05
-1.38316e-06
1.96582e-05
-1.51657e-06
1.96087e-05
-1.65479e-06
1.95551e-05
-1.79788e-06
1.94972e-05
-1.94587e-06
1.94349e-05
-2.09877e-06
1.93679e-05
-2.25656e-06
1.9296e-05
-2.41917e-06
1.92191e-05
-2.58651e-06
1.9137e-05
-2.75842e-06
1.90495e-05
-2.93472e-06
1.89564e-05
-3.11517e-06
1.88577e-05
-3.29944e-06
1.87531e-05
-3.48719e-06
1.86426e-05
-3.67796e-06
1.85261e-05
-3.87126e-06
1.84035e-05
-4.0665e-06
1.82748e-05
-4.26301e-06
1.814e-05
-4.46005e-06
1.79992e-05
-4.6568e-06
1.78525e-05
-4.85237e-06
1.77001e-05
-5.0458e-06
1.75421e-05
-5.23608e-06
1.73788e-05
-5.42215e-06
1.72105e-05
-5.60294e-06
1.70377e-05
-5.77736e-06
1.68606e-05
-5.94436e-06
1.66798e-05
-6.10293e-06
1.64956e-05
-6.25215e-06
1.63087e-05
-6.39116e-06
1.61194e-05
-6.51927e-06
1.59284e-05
-6.63587e-06
1.57361e-05
-6.74054e-06
1.55431e-05
-6.83299e-06
1.53498e-05
-6.91311e-06
1.51568e-05
-6.98093e-06
1.49644e-05
-7.03664e-06
1.4773e-05
-7.08052e-06
1.45829e-05
-7.11296e-06
1.43945e-05
-7.1344e-06
1.42078e-05
-7.14531e-06
1.40231e-05
-7.14618e-06
1.38407e-05
-7.13752e-06
1.36606e-05
-7.11983e-06
1.34829e-05
-7.09362e-06
1.33079e-05
-7.05938e-06
1.31356e-05
-7.01761e-06
1.29662e-05
-6.96881e-06
1.27996e-05
-6.91345e-06
1.26361e-05
-6.85201e-06
1.24755e-05
-6.78493e-06
1.23179e-05
-6.71264e-06
1.21635e-05
-6.63554e-06
1.20121e-05
-6.55401e-06
1.18638e-05
-6.46841e-06
1.17186e-05
-6.3791e-06
1.15766e-05
-6.28639e-06
1.14377e-05
-6.19063e-06
1.13021e-05
-6.09212e-06
1.11696e-05
-5.99116e-06
1.10403e-05
-5.88806e-06
1.09144e-05
-5.78313e-06
1.07916e-05
-5.67666e-06
1.06722e-05
-5.56897e-06
1.05562e-05
-5.46037e-06
1.04435e-05
-5.35118e-06
1.03342e-05
-5.24173e-06
1.02284e-05
-5.13237e-06
1.0126e-05
-5.02345e-06
1.00271e-05
-4.91536e-06
9.93183e-06
-4.80849e-06
9.84008e-06
-4.70326e-06
9.75194e-06
-4.60012e-06
9.6674e-06
-4.49954e-06
9.58649e-06
-4.40201e-06
9.50921e-06
-4.30807e-06
9.43553e-06
-4.21829e-06
9.36542e-06
-4.13326e-06
9.29881e-06
-4.05364e-06
9.2356e-06
-3.9801e-06
9.17562e-06
-3.91336e-06
9.11867e-06
-3.85415e-06
9.06444e-06
-3.80324e-06
9.01257e-06
-3.76139e-06
8.96256e-06
-3.72931e-06
8.91378e-06
-3.70774e-06
-3.69741e-06
1.99986e-05
-3.64971e-08
1.99943e-05
-1.13559e-07
1.9987e-05
-1.94666e-07
1.99768e-05
-2.79531e-07
1.99637e-05
-3.6809e-07
1.99477e-05
-4.6035e-07
1.99287e-05
-5.56356e-07
1.99068e-05
-6.56186e-07
1.98818e-05
-7.59941e-07
1.98538e-05
-8.67732e-07
1.98226e-05
-9.79678e-07
1.9788e-05
-1.0959e-06
1.975e-05
-1.2165e-06
1.97085e-05
-1.34158e-06
1.96631e-05
-1.47124e-06
1.96139e-05
-1.60555e-06
1.95606e-05
-1.74455e-06
1.9503e-05
-1.88828e-06
1.94409e-05
-2.03674e-06
1.93743e-05
-2.1899e-06
1.93028e-05
-2.3477e-06
1.92263e-05
-2.51005e-06
1.91447e-05
-2.67681e-06
1.90578e-05
-2.84779e-06
1.89654e-05
-3.02275e-06
1.88674e-05
-3.20141e-06
1.87636e-05
-3.38341e-06
1.86539e-05
-3.56833e-06
1.85384e-05
-3.7557e-06
1.84168e-05
-3.94496e-06
1.82893e-05
-4.13547e-06
1.81558e-05
-4.32653e-06
1.80163e-05
-4.51737e-06
1.78711e-05
-4.70713e-06
1.77202e-05
-4.8949e-06
1.75638e-05
-5.07972e-06
1.74023e-05
-5.26058e-06
1.72358e-05
-5.43646e-06
1.70648e-05
-5.60631e-06
1.68895e-05
-5.76912e-06
1.67105e-05
-5.92394e-06
1.65282e-05
-6.06984e-06
1.63431e-05
-6.20602e-06
1.61556e-05
-6.33178e-06
1.59663e-05
-6.44655e-06
1.57756e-05
-6.54988e-06
1.55841e-05
-6.64149e-06
1.53922e-05
-6.72125e-06
1.52004e-05
-6.78915e-06
1.50092e-05
-6.84535e-06
1.48187e-05
-6.89009e-06
1.46295e-05
-6.9237e-06
1.44416e-05
-6.94658e-06
1.42555e-05
-6.95916e-06
1.40712e-05
-6.96192e-06
1.3889e-05
-6.95533e-06
1.37091e-05
-6.93988e-06
1.35315e-05
-6.91606e-06
1.33565e-05
-6.88434e-06
1.31841e-05
-6.84522e-06
1.30144e-05
-6.79915e-06
1.28476e-05
-6.74662e-06
1.26837e-05
-6.68807e-06
1.25227e-05
-6.62394e-06
1.23647e-05
-6.55463e-06
1.22097e-05
-6.48055e-06
1.20577e-05
-6.40207e-06
1.19089e-05
-6.31955e-06
1.17631e-05
-6.23334e-06
1.16205e-05
-6.14376e-06
1.1481e-05
-6.05114e-06
1.13447e-05
-5.9558e-06
1.12115e-05
-5.85804e-06
1.10816e-05
-5.75816e-06
1.0955e-05
-5.65647e-06
1.08316e-05
-5.55327e-06
1.07115e-05
-5.44888e-06
1.05947e-05
-5.3436e-06
1.04813e-05
-5.23776e-06
1.03713e-05
-5.1317e-06
1.02647e-05
-5.02575e-06
1.01615e-05
-4.92027e-06
1.00618e-05
-4.81565e-06
9.96555e-06
-4.71227e-06
9.87284e-06
-4.61055e-06
9.78365e-06
-4.51093e-06
9.69799e-06
-4.41387e-06
9.61585e-06
-4.31987e-06
9.5372e-06
-4.22943e-06
9.46202e-06
-4.1431e-06
9.39023e-06
-4.06148e-06
9.32175e-06
-3.98516e-06
9.25644e-06
-3.91479e-06
9.19411e-06
-3.85103e-06
9.13454e-06
-3.79457e-06
9.07742e-06
-3.74612e-06
9.02237e-06
-3.70634e-06
8.96893e-06
-3.67587e-06
8.91655e-06
-3.65536e-06
-3.64457e-06
1.99987e-05
-3.51744e-08
1.99946e-05
-1.09466e-07
1.99876e-05
-1.87728e-07
1.99778e-05
-2.69717e-07
1.99651e-05
-3.55385e-07
1.99495e-05
-4.44738e-07
1.9931e-05
-5.3781e-07
1.99094e-05
-6.34664e-07
1.98849e-05
-7.35381e-07
1.98572e-05
-8.40055e-07
1.98263e-05
-9.48786e-07
1.97921e-05
-1.06167e-06
1.97544e-05
-1.17882e-06
1.97131e-05
-1.30031e-06
1.96681e-05
-1.42622e-06
1.96192e-05
-1.55662e-06
1.95662e-05
-1.69155e-06
1.9509e-05
-1.83104e-06
1.94473e-05
-1.97509e-06
1.93811e-05
-2.12366e-06
1.93101e-05
-2.2767e-06
1.92341e-05
-2.43412e-06
1.91531e-05
-2.59577e-06
1.90668e-05
-2.76149e-06
1.89751e-05
-2.93104e-06
1.88778e-05
-3.10415e-06
1.87749e-05
-3.28049e-06
1.86662e-05
-3.45965e-06
1.85517e-05
-3.64119e-06
1.84313e-05
-3.82456e-06
1.8305e-05
-4.00917e-06
1.81729e-05
-4.19436e-06
1.80349e-05
-4.37938e-06
1.78912e-05
-4.56343e-06
1.77419e-05
-4.74563e-06
1.75873e-05
-4.92507e-06
1.74275e-05
-5.1008e-06
1.72628e-05
-5.27181e-06
1.70937e-05
-5.43714e-06
1.69203e-05
-5.5958e-06
1.67433e-05
-5.74686e-06
1.65629e-05
-5.88944e-06
1.63796e-05
-6.02276e-06
1.61939e-05
-6.14613e-06
1.60064e-05
-6.25899e-06
1.58174e-05
-6.36089e-06
1.56275e-05
-6.45156e-06
1.5437e-05
-6.53083e-06
1.52466e-05
-6.59868e-06
1.50564e-05
-6.65522e-06
1.4867e-05
-6.70066e-06
1.46786e-05
-6.73528e-06
1.44915e-05
-6.75946e-06
1.43059e-05
-6.77359e-06
1.41221e-05
-6.77811e-06
1.39403e-05
-6.77348e-06
1.37605e-05
-6.76016e-06
1.35831e-05
-6.73862e-06
1.34081e-05
-6.70932e-06
1.32356e-05
-6.67274e-06
1.30658e-05
-6.62933e-06
1.28987e-05
-6.57954e-06
1.27344e-05
-6.52381e-06
1.2573e-05
-6.46255e-06
1.24146e-05
-6.39617e-06
1.22591e-05
-6.32507e-06
1.21066e-05
-6.2496e-06
1.19572e-05
-6.17012e-06
1.18108e-05
-6.08698e-06
1.16676e-05
-6.00051e-06
1.15275e-05
-5.91102e-06
1.13905e-05
-5.81883e-06
1.12567e-05
-5.72424e-06
1.11261e-05
-5.62757e-06
1.09987e-05
-5.52911e-06
1.08746e-05
-5.42916e-06
1.07538e-05
-5.32805e-06
1.06363e-05
-5.22608e-06
1.05221e-05
-5.12358e-06
1.04113e-05
-5.02087e-06
1.03038e-05
-4.9183e-06
1.01998e-05
-4.81623e-06
1.00992e-05
-4.71502e-06
1.0002e-05
-4.61508e-06
9.90822e-06
-4.51681e-06
9.81791e-06
-4.42063e-06
9.73104e-06
-4.327e-06
9.64758e-06
-4.23641e-06
9.56749e-06
-4.14934e-06
9.49073e-06
-4.06634e-06
9.41719e-06
-3.98794e-06
9.34678e-06
-3.91475e-06
9.27933e-06
-3.84734e-06
9.21465e-06
-3.78635e-06
9.15249e-06
-3.73241e-06
9.09254e-06
-3.68616e-06
9.03442e-06
-3.64822e-06
8.97771e-06
-3.61916e-06
8.92194e-06
-3.59959e-06
-3.58877e-06
1.99987e-05
-3.39125e-08
1.99948e-05
-1.0555e-07
1.99882e-05
-1.81064e-07
1.99787e-05
-2.60247e-07
1.99664e-05
-3.43069e-07
1.99512e-05
-4.29536e-07
1.9933e-05
-5.1968e-07
1.99119e-05
-6.13551e-07
1.98878e-05
-7.11219e-07
1.98605e-05
-8.12761e-07
1.98299e-05
-9.18263e-07
1.97961e-05
-1.02781e-06
1.97588e-05
-1.14149e-06
1.97178e-05
-1.25939e-06
1.96732e-05
-1.38156e-06
1.96246e-05
-1.50806e-06
1.9572e-05
-1.63894e-06
1.95152e-05
-1.77422e-06
1.9454e-05
-1.91388e-06
1.93882e-05
-2.0579e-06
1.93178e-05
-2.20622e-06
1.92424e-05
-2.35876e-06
1.9162e-05
-2.51537e-06
1.90764e-05
-2.67589e-06
1.89855e-05
-2.84011e-06
1.88891e-05
-3.00775e-06
1.87871e-05
-3.17851e-06
1.86794e-05
-3.352e-06
1.8566e-05
-3.52779e-06
1.84468e-05
-3.70538e-06
1.83219e-05
-3.88419e-06
1.81911e-05
-4.0636e-06
1.80546e-05
-4.2429e-06
1.79125e-05
-4.42133e-06
1.77649e-05
-4.59805e-06
1.76121e-05
-4.77219e-06
1.74541e-05
-4.94284e-06
1.72914e-05
-5.10906e-06
1.71241e-05
-5.2699e-06
1.69527e-05
-5.42443e-06
1.67776e-05
-5.57174e-06
1.65992e-05
-5.71099e-06
1.64178e-05
-5.84142e-06
1.62341e-05
-5.96235e-06
1.60483e-05
-6.07323e-06
1.5861e-05
-6.17363e-06
1.56727e-05
-6.26324e-06
1.54838e-05
-6.3419e-06
1.52947e-05
-6.40956e-06
1.51058e-05
-6.4663e-06
1.49174e-05
-6.51229e-06
1.47299e-05
-6.54779e-06
1.45435e-05
-6.57312e-06
1.43586e-05
-6.58866e-06
1.41753e-05
-6.59481e-06
1.39938e-05
-6.59201e-06
1.38144e-05
-6.5807e-06
1.36371e-05
-6.56134e-06
1.34621e-05
-6.53436e-06
1.32896e-05
-6.50023e-06
1.31197e-05
-6.45938e-06
1.29524e-05
-6.41225e-06
1.27879e-05
-6.35926e-06
1.26261e-05
-6.30081e-06
1.24673e-05
-6.23731e-06
1.23113e-05
-6.16912e-06
1.21583e-05
-6.09662e-06
1.20084e-05
-6.02015e-06
1.18614e-05
-5.94005e-06
1.17176e-05
-5.85664e-06
1.15768e-05
-5.77026e-06
1.14392e-05
-5.6812e-06
1.13047e-05
-5.58977e-06
1.11734e-05
-5.49628e-06
1.10453e-05
-5.40102e-06
1.09205e-05
-5.30432e-06
1.07989e-05
-5.20646e-06
1.06806e-05
-5.10778e-06
1.05656e-05
-5.00858e-06
1.04539e-05
-4.9092e-06
1.03456e-05
-4.80997e-06
1.02406e-05
-4.71126e-06
1.0139e-05
-4.61342e-06
1.00408e-05
-4.51686e-06
9.94593e-06
-4.42195e-06
9.85444e-06
-4.32914e-06
9.7663e-06
-4.23886e-06
9.68146e-06
-4.15157e-06
9.59988e-06
-4.06776e-06
9.52147e-06
-3.98793e-06
9.44615e-06
-3.91262e-06
9.37378e-06
-3.84237e-06
9.30419e-06
-3.77776e-06
9.23718e-06
-3.71934e-06
9.1725e-06
-3.66772e-06
9.10982e-06
-3.62348e-06
9.04879e-06
-3.58719e-06
8.98899e-06
-3.55937e-06
8.93002e-06
-3.54062e-06
-3.53005e-06
1.99988e-05
-3.27008e-08
1.9995e-05
-1.01784e-07
1.99886e-05
-1.74636e-07
1.99794e-05
-2.51083e-07
1.99675e-05
-3.31106e-07
1.99526e-05
-4.14719e-07
1.99349e-05
-5.0195e-07
1.99142e-05
-5.92845e-07
1.98905e-05
-6.87462e-07
1.98636e-05
-7.85868e-07
1.98334e-05
-8.88137e-07
1.98e-05
-9.94344e-07
1.9763e-05
-1.10456e-06
1.97225e-05
-1.21886e-06
1.96783e-05
-1.3373e-06
1.96301e-05
-1.45993e-06
1.9578e-05
-1.58678e-06
1.95216e-05
-1.71786e-06
1.94609e-05
-1.85317e-06
1.93957e-05
-1.99268e-06
1.93258e-05
-2.13633e-06
1.92511e-05
-2.28403e-06
1.91713e-05
-2.43566e-06
1.90865e-05
-2.59106e-06
1.89964e-05
-2.75001e-06
1.89009e-05
-2.91226e-06
1.87999e-05
-3.07753e-06
1.86934e-05
-3.24543e-06
1.85812e-05
-3.41557e-06
1.84633e-05
-3.58747e-06
1.83396e-05
-3.76058e-06
1.82103e-05
-3.93431e-06
1.80754e-05
-4.10798e-06
1.7935e-05
-4.28087e-06
1.77891e-05
-4.4522e-06
1.76381e-05
-4.62112e-06
1.7482e-05
-4.78677e-06
1.73212e-05
-4.94824e-06
1.71559e-05
-5.10463e-06
1.69865e-05
-5.25504e-06
1.68134e-05
-5.39861e-06
1.66369e-05
-5.53452e-06
1.64575e-05
-5.66202e-06
1.62756e-05
-5.78047e-06
1.60917e-05
-5.88931e-06
1.59062e-05
-5.98811e-06
1.57195e-05
-6.07657e-06
1.55321e-05
-6.1545e-06
1.53444e-05
-6.22184e-06
1.51567e-05
-6.27863e-06
1.49694e-05
-6.32503e-06
1.47829e-05
-6.36125e-06
1.45974e-05
-6.3876e-06
1.44131e-05
-6.40441e-06
1.42304e-05
-6.41207e-06
1.40494e-05
-6.41098e-06
1.38702e-05
-6.40157e-06
1.36932e-05
-6.38427e-06
1.35183e-05
-6.35952e-06
1.33458e-05
-6.32774e-06
1.31758e-05
-6.28936e-06
1.30084e-05
-6.2448e-06
1.28436e-05
-6.19447e-06
1.26815e-05
-6.13876e-06
1.25223e-05
-6.07806e-06
1.23659e-05
-6.01274e-06
1.22124e-05
-5.94316e-06
1.20619e-05
-5.86965e-06
1.19144e-05
-5.79255e-06
1.177e-05
-5.71218e-06
1.16286e-05
-5.62886e-06
1.14903e-05
-5.54291e-06
1.13551e-05
-5.45461e-06
1.12231e-05
-5.36428e-06
1.10943e-05
-5.27221e-06
1.09687e-05
-5.17871e-06
1.08463e-05
-5.08409e-06
1.07272e-05
-4.98866e-06
1.06114e-05
-4.89274e-06
1.04988e-05
-4.79664e-06
1.03896e-05
-4.70072e-06
1.02836e-05
-4.60532e-06
1.0181e-05
-4.51081e-06
1.00817e-05
-4.41755e-06
9.98572e-06
-4.32596e-06
9.893e-06
-4.23643e-06
9.80354e-06
-4.14939e-06
9.71728e-06
-4.06531e-06