/*--------------------------------*- C++ -*----------------------------------*\
  =========                 |
  \\      /  F ield         | OpenFOAM: The Open Source CFD Toolbox
   \\    /   O peration     | Website:  https://openfoam.org
    \\  /    A nd           | Version:  11
     \\/     M anipulation  |
\*---------------------------------------------------------------------------*/
FoamFile
{
    format      ascii;
    class       volScalarField;
    location    "392";
    object      nut;
}
// * * * * * * * * * * * * * * * * * * * * * * * * * * * * * * * * * * * * * //

dimensions      [0 2 -1 0 0 0 0];

internalField   nonuniform List<scalar> 
10000
(
0.000977115
0.000936698
0.000899633
0.0008656
0.00083431
0.000805506
0.000778954
0.000754447
0.000731797
0.000710834
0.000691406
0.000673375
0.000656619
0.000641025
0.000626493
0.000612931
0.000600258
0.000588397
0.000577283
0.000566854
0.000557053
0.000547831
0.000539142
0.000530944
0.000523199
0.000515872
0.000508932
0.000502349
0.000496099
0.000490155
0.000484498
0.000479106
0.000473961
0.000469047
0.000464348
0.000459852
0.000455544
0.000451416
0.000447455
0.000443655
0.000440007
0.000436505
0.000433144
0.00042992
0.000426829
0.000423872
0.000421046
0.000418354
0.000415797
0.000413381
0.000411109
0.00040899
0.000407032
0.000405245
0.000403643
0.000402238
0.000401048
0.000400088
0.00039938
0.000398942
0.000398798
0.000398969
0.00039948
0.000400354
0.000401614
0.000403283
0.000405381
0.000407926
0.000410935
0.000414419
0.000418386
0.00042284
0.000427778
0.000433192
0.000439072
0.000445399
0.000452148
0.00045929
0.000466789
0.000474607
0.000482697
0.000491014
0.000499506
0.000508123
0.000516807
0.000525503
0.00053415
0.000542687
0.000551042
0.000559168
0.000566994
0.00057445
0.000581463
0.000587953
0.000593835
0.000599017
0.000603399
0.00060687
0.000609308
0.000610579
0.000977115
0.000936698
0.000899634
0.0008656
0.00083431
0.000805506
0.000778955
0.000754448
0.000731797
0.000710834
0.000691406
0.000673376
0.00065662
0.000641026
0.000626494
0.000612932
0.000600258
0.000588398
0.000577284
0.000566854
0.000557054
0.000547832
0.000539143
0.000530945
0.0005232
0.000515873
0.000508933
0.00050235
0.0004961
0.000490157
0.000484499
0.000479107
0.000473962
0.000469048
0.00046435
0.000459853
0.000455546
0.000451417
0.000447457
0.000443657
0.000440009
0.000436507
0.000433146
0.000429922
0.000426832
0.000423874
0.000421049
0.000418357
0.0004158
0.000413384
0.000411112
0.000408993
0.000407035
0.000405248
0.000403646
0.000402241
0.00040105
0.00040009
0.000399381
0.000398943
0.000398798
0.000398968
0.000399478
0.000400351
0.00040161
0.000403277
0.000405373
0.000407917
0.000410923
0.000414405
0.00041837
0.000422822
0.000427758
0.000433171
0.00043905
0.000445374
0.000452121
0.00045926
0.000466756
0.000474571
0.000482658
0.000490973
0.000499464
0.00050808
0.000516764
0.000525459
0.000534106
0.000542643
0.000550999
0.000559126
0.000566953
0.000574411
0.000581424
0.000587915
0.000593799
0.000598982
0.000603364
0.000606836
0.000609276
0.000610547
0.000977115
0.000936699
0.000899634
0.0008656
0.000834311
0.000805506
0.000778955
0.000754448
0.000731798
0.000710835
0.000691407
0.000673377
0.000656621
0.000641027
0.000626495
0.000612933
0.00060026
0.000588399
0.000577285
0.000566856
0.000557055
0.000547834
0.000539145
0.000530946
0.000523201
0.000515875
0.000508935
0.000502352
0.000496102
0.000490159
0.000484501
0.000479109
0.000473965
0.000469051
0.000464353
0.000459856
0.000455549
0.000451421
0.000447461
0.00044366
0.000440013
0.000436511
0.00043315
0.000429926
0.000426836
0.000423878
0.000421053
0.000418361
0.000415804
0.000413388
0.000411116
0.000408996
0.000407038
0.000405251
0.000403648
0.000402242
0.00040105
0.000400089
0.000399379
0.000398939
0.000398792
0.00039896
0.000399468
0.000400338
0.000401594
0.000403257
0.000405349
0.000407889
0.000410892
0.000414369
0.00041833
0.000422777
0.000427708
0.000433117
0.00043899
0.00044531
0.000452052
0.000459187
0.000466679
0.000474489
0.000482573
0.000490885
0.000499375
0.000507989
0.000516672
0.000525367
0.000534015
0.000542553
0.00055091
0.00055904
0.000566869
0.000574329
0.000581345
0.000587839
0.000593725
0.000598911
0.000603296
0.000606769
0.00060921
0.000610482
0.000977115
0.000936699
0.000899634
0.000865601
0.000834311
0.000805507
0.000778956
0.00075445
0.000731799
0.000710836
0.000691408
0.000673378
0.000656622
0.000641029
0.000626497
0.000612935
0.000600261
0.000588401
0.000577287
0.000566858
0.000557058
0.000547836
0.000539147
0.000530949
0.000523204
0.000515877
0.000508937
0.000502355
0.000496105
0.000490162
0.000484505
0.000479113
0.000473969
0.000469055
0.000464357
0.00045986
0.000455554
0.000451425
0.000447465
0.000443665
0.000440018
0.000436516
0.000433156
0.000429932
0.000426842
0.000423884
0.000421059
0.000418367
0.00041581
0.000413393
0.000411121
0.000409001
0.000407042
0.000405254
0.00040365
0.000402243
0.00040105
0.000400087
0.000399374
0.000398932
0.000398782
0.000398947
0.000399451
0.000400317
0.000401568
0.000403226
0.000405313
0.000407846
0.000410842
0.000414313
0.000418267
0.000422707
0.000427631
0.000433033
0.0004389
0.000445213
0.000451948
0.000459075
0.000466561
0.000474366
0.000482446
0.000490755
0.000499242
0.000507854
0.000516536
0.000525232
0.00053388
0.00054242
0.000550779
0.000558911
0.000566744
0.000574208
0.000581228
0.000587726
0.000593616
0.000598806
0.000603194
0.000606671
0.000609114
0.000610387
0.000977115
0.000936699
0.000899635
0.000865602
0.000834312
0.000805508
0.000778957
0.000754451
0.000731801
0.000710838
0.00069141
0.00067338
0.000656624
0.000641031
0.000626499
0.000612937
0.000600264
0.000588404
0.00057729
0.000566861
0.00055706
0.000547839
0.00053915
0.000530952
0.000523208
0.000515881
0.000508941
0.000502359
0.000496109
0.000490166
0.000484509
0.000479118
0.000473974
0.00046906
0.000464362
0.000459866
0.00045556
0.000451431
0.000447472
0.000443672
0.000440025
0.000436523
0.000433163
0.000429939
0.000426849
0.000423892
0.000421066
0.000418374
0.000415817
0.0004134
0.000411128
0.000409007
0.000407047
0.000405258
0.000403653
0.000402244
0.000401049
0.000400084
0.000399368
0.000398923
0.000398769
0.00039893
0.000399429
0.000400289
0.000401534
0.000403186
0.000405265
0.000407791
0.000410778
0.00041424
0.000418185
0.000422616
0.000427531
0.000432923
0.00043878
0.000445084
0.000451811
0.00045893
0.000466409
0.000474207
0.000482281
0.000490585
0.000499069
0.000507679
0.00051636
0.000525055
0.000533705
0.000542247
0.000550609
0.000558745
0.000566582
0.00057405
0.000581075
0.000587579
0.000593474
0.000598669
0.000603062
0.000606542
0.000608988
0.000610262
0.000977115
0.000936699
0.000899635
0.000865602
0.000834313
0.000805509
0.000778959
0.000754452
0.000731802
0.00071084
0.000691412
0.000673382
0.000656627
0.000641033
0.000626501
0.00061294
0.000600267
0.000588407
0.000577293
0.000566864
0.000557064
0.000547843
0.000539154
0.000530956
0.000523212
0.000515886
0.000508946
0.000502364
0.000496114
0.000490172
0.000484515
0.000479124
0.00047398
0.000469067
0.000464369
0.000459873
0.000455567
0.000451439
0.00044748
0.00044368
0.000440033
0.000436532
0.000433172
0.000429948
0.000426859
0.000423901
0.000421076
0.000418384
0.000415827
0.000413409
0.000411136
0.000409015
0.000407054
0.000405264
0.000403657
0.000402246
0.000401048
0.000400081
0.000399362
0.000398912
0.000398754
0.00039891
0.000399402
0.000400256
0.000401493
0.000403137
0.000405207
0.000407723
0.000410701
0.000414152
0.000418086
0.000422505
0.000427408
0.000432789
0.000438635
0.000444928
0.000451644
0.000458754
0.000466223
0.000474014
0.000482081
0.00049038
0.000498859
0.000507467
0.000516146
0.000524842
0.000533492
0.000542036
0.000550402
0.000558542
0.000566384
0.000573858
0.000580889
0.000587399
0.0005933
0.000598501
0.000602899
0.000606384
0.000608833
0.000610109
0.000977115
0.0009367
0.000899636
0.000865603
0.000834314
0.000805511
0.00077896
0.000754454
0.000731804
0.000710842
0.000691414
0.000673385
0.000656629
0.000641036
0.000626504
0.000612943
0.00060027
0.000588411
0.000577297
0.000566868
0.000557068
0.000547847
0.000539159
0.000530961
0.000523217
0.000515891
0.000508952
0.00050237
0.000496121
0.000490178
0.000484522
0.000479131
0.000473987
0.000469074
0.000464377
0.000459882
0.000455576
0.000451448
0.000447489
0.00044369
0.000440044
0.000436543
0.000433183
0.00042996
0.00042687
0.000423913
0.000421087
0.000418395
0.000415838
0.00041342
0.000411146
0.000409024
0.000407062
0.000405271
0.000403662
0.000402249
0.000401048
0.000400077
0.000399354
0.0003989
0.000398737
0.000398886
0.000399372
0.000400218
0.000401447
0.000403081
0.000405141
0.000407646
0.000410612
0.00041405
0.000417971
0.000422377
0.000427267
0.000432635
0.000438467
0.000444747
0.000451451
0.00045855
0.000466009
0.00047379
0.00048185
0.000490142
0.000498616
0.00050722
0.000515898
0.000524593
0.000533245
0.000541791
0.00055016
0.000558305
0.000566153
0.000573633
0.000580671
0.000587188
0.000593097
0.000598304
0.000602709
0.000606199
0.000608651
0.000609928
0.000977116
0.0009367
0.000899636
0.000865604
0.000834315
0.000805512
0.000778962
0.000754456
0.000731806
0.000710844
0.000691417
0.000673387
0.000656632
0.000641039
0.000626508
0.000612947
0.000600274
0.000588415
0.000577301
0.000566872
0.000557073
0.000547852
0.000539164
0.000530967
0.000523223
0.000515897
0.000508958
0.000502377
0.000496128
0.000490186
0.00048453
0.000479139
0.000473996
0.000469083
0.000464387
0.000459892
0.000455586
0.000451459
0.000447501
0.000443702
0.000440056
0.000436555
0.000433195
0.000429972
0.000426883
0.000423926
0.000421101
0.000418408
0.000415851
0.000413432
0.000411158
0.000409035
0.000407072
0.000405279
0.000403668
0.000402253
0.000401049
0.000400074
0.000399347
0.000398888
0.000398718
0.000398861
0.000399339
0.000400176
0.000401395
0.000403018
0.000405067
0.000407559
0.000410511
0.000413936
0.000417842
0.000422233
0.000427108
0.000432461
0.000438278
0.000444544
0.000451234
0.00045832
0.000465767
0.000473538
0.000481589
0.000489873
0.000498342
0.000506942
0.000515618
0.000524312
0.000532965
0.000541514
0.000549887
0.000558037
0.000565891
0.000573378
0.000580424
0.000586949
0.000592865
0.00059808
0.000602491
0.000605987
0.000608443
0.000609722
0.000977116
0.0009367
0.000899637
0.000865604
0.000834316
0.000805513
0.000778963
0.000754458
0.000731808
0.000710846
0.00069142
0.00067339
0.000656635
0.000641043
0.000626511
0.000612951
0.000600278
0.000588419
0.000577306
0.000566877
0.000557078
0.000547858
0.00053917
0.000530973
0.000523229
0.000515904
0.000508965
0.000502385
0.000496136
0.000490194
0.000484538
0.000479148
0.000474006
0.000469094
0.000464397
0.000459903
0.000455598
0.000451471
0.000447513
0.000443715
0.000440069
0.000436569
0.00043321
0.000429987
0.000426898
0.000423941
0.000421116
0.000418424
0.000415866
0.000413447
0.000411172
0.000409048
0.000407083
0.000405288
0.000403675
0.000402257
0.00040105
0.000400071
0.000399339
0.000398874
0.000398698
0.000398833
0.000399303
0.00040013
0.000401338
0.00040295
0.000404986
0.000407464
0.000410402
0.000413811
0.000417701
0.000422076
0.000426934
0.00043227
0.000438071
0.000444321
0.000450996
0.000458067
0.000465501
0.00047326
0.000481301
0.000489578
0.00049804
0.000506635
0.000515309
0.000524002
0.000532656
0.000541207
0.000549585
0.00055774
0.000565601
0.000573096
0.00058015
0.000586683
0.000592608
0.00059783
0.000602249
0.00060575
0.00060821
0.000609491
0.000977116
0.0009367
0.000899637
0.000865605
0.000834317
0.000805514
0.000778965
0.000754459
0.000731811
0.000710849
0.000691422
0.000673393
0.000656639
0.000641046
0.000626515
0.000612955
0.000600283
0.000588424
0.000577311
0.000566883
0.000557084
0.000547864
0.000539176
0.00053098
0.000523236
0.000515911
0.000508973
0.000502393
0.000496144
0.000490203
0.000484548
0.000479158
0.000474016
0.000469105
0.000464409
0.000459915
0.00045561
0.000451485
0.000447527
0.000443729
0.000440084
0.000436585
0.000433226
0.000430004
0.000426915
0.000423958
0.000421133
0.000418441
0.000415883
0.000413463
0.000411188
0.000409063
0.000407097
0.0004053
0.000403684
0.000402263
0.000401053
0.000400069
0.000399332
0.000398861
0.000398678
0.000398805
0.000399265
0.000400082
0.000401278
0.000402877
0.000404899
0.000407363
0.000410284
0.000413677
0.00041755
0.000421906
0.000426746
0.000432064
0.000437847
0.00044408
0.000450738
0.000457794
0.000465214
0.00047296
0.00048099
0.000489258
0.000497713
0.000506303
0.000514973
0.000523666
0.00053232
0.000540874
0.000549256
0.000557417
0.000565285
0.000572788
0.00057985
0.000586392
0.000592326
0.000597557
0.000601983
0.00060549
0.000607955
0.000609237
0.000977116
0.000936701
0.000899638
0.000865606
0.000834318
0.000805516
0.000778966
0.000754461
0.000731813
0.000710851
0.000691425
0.000673397
0.000656642
0.00064105
0.000626519
0.000612959
0.000600287
0.000588429
0.000577316
0.000566889
0.00055709
0.00054787
0.000539183
0.000530987
0.000523244
0.000515919
0.000508982
0.000502402
0.000496154
0.000490213
0.000484559
0.00047917
0.000474028
0.000469117
0.000464422
0.000459928
0.000455625
0.000451499
0.000447542
0.000443745
0.000440101
0.000436602
0.000433243
0.000430022
0.000426933
0.000423977
0.000421152
0.000418459
0.000415901
0.000413481
0.000411205
0.000409079
0.000407111
0.000405313
0.000403694
0.00040227
0.000401056
0.000400068
0.000399325
0.000398847
0.000398657
0.000398775
0.000399225
0.000400031
0.000401215
0.0004028
0.000404807
0.000407255
0.00041016
0.000413535
0.000417389
0.000421726
0.000426547
0.000431845
0.000437609
0.000443823
0.000450464
0.000457503
0.000464908
0.000472641
0.000480659
0.000488916
0.000497363
0.000505948
0.000514614
0.000523305
0.000531961
0.000540517
0.000548903
0.00055707
0.000564945
0.000572456
0.000579527
0.000586078
0.000592021
0.000597261
0.000601695
0.000605209
0.000607678
0.000608963
0.000977116
0.000936701
0.000899638
0.000865607
0.000834319
0.000805517
0.000778968
0.000754463
0.000731815
0.000710854
0.000691428
0.0006734
0.000656646
0.000641054
0.000626524
0.000612964
0.000600292
0.000588434
0.000577322
0.000566895
0.000557097
0.000547877
0.00053919
0.000530995
0.000523252
0.000515928
0.000508991
0.000502412
0.000496164
0.000490224
0.00048457
0.000479181
0.00047404
0.00046913
0.000464436
0.000459943
0.00045564
0.000451515
0.000447559
0.000443763
0.000440119
0.00043662
0.000433263
0.000430041
0.000426954
0.000423997
0.000421173
0.00041848
0.000415922
0.000413501
0.000411224
0.000409097
0.000407128
0.000405327
0.000403706
0.000402279
0.00040106
0.000400067
0.000399319
0.000398834
0.000398635
0.000398744
0.000399184
0.000399979
0.00040115
0.000402721
0.000404712
0.000407143
0.00041003
0.000413386
0.00041722
0.000421537
0.000426337
0.000431615
0.000437359
0.000443553
0.000450175
0.000457196
0.000464585
0.000472303
0.000480309
0.000488555
0.000496994
0.000505572
0.000514235
0.000522924
0.00053158
0.000540139
0.000548529
0.000556701
0.000564583
0.000572103
0.000579183
0.000585744
0.000591696
0.000596945
0.000601387
0.000604908
0.000607382
0.000608669
0.000977116
0.000936701
0.000899638
0.000865607
0.00083432
0.000805518
0.000778969
0.000754465
0.000731817
0.000710856
0.000691431
0.000673403
0.000656649
0.000641058
0.000626528
0.000612969
0.000600298
0.00058844
0.000577328
0.000566901
0.000557103
0.000547884
0.000539198
0.000531003
0.000523261
0.000515937
0.000509001
0.000502422
0.000496175
0.000490236
0.000484582
0.000479194
0.000474054
0.000469144
0.00046445
0.000459958
0.000455656
0.000451532
0.000447577
0.000443781
0.000440138
0.00043664
0.000433283
0.000430062
0.000426975
0.000424019
0.000421195
0.000418502
0.000415944
0.000413523
0.000411245
0.000409117
0.000407146
0.000405343
0.000403719
0.000402289
0.000401066
0.000400068
0.000399313
0.000398821
0.000398614
0.000398714
0.000399143
0.000399925
0.000401083
0.000402638
0.000404614
0.000407027
0.000409895
0.000413231
0.000417045
0.000421341
0.00042612
0.000431376
0.000437099
0.000443272
0.000449874
0.000456877
0.000464248
0.000471951
0.000479943
0.000488178
0.000496608
0.000505179
0.000513837
0.000522524
0.00053118
0.000539741
0.000548135
0.000556314
0.000564203
0.000571731
0.00057882
0.000585391
0.000591353
0.000596611
0.000601061
0.000604589
0.000607068
0.000608358
0.000977116
0.000936701
0.000899639
0.000865608
0.000834321
0.000805519
0.000778971
0.000754467
0.000731819
0.000710859
0.000691434
0.000673406
0.000656653
0.000641062
0.000626533
0.000612974
0.000600303
0.000588446
0.000577334
0.000566908
0.00055711
0.000547892
0.000539206
0.000531012
0.00052327
0.000515947
0.000509011
0.000502433
0.000496186
0.000490248
0.000484595
0.000479208
0.000474068
0.000469159
0.000464466
0.000459975
0.000455673
0.00045155
0.000447596
0.000443801
0.000440158
0.000436661
0.000433305
0.000430085
0.000426998
0.000424043
0.000421219
0.000418526
0.000415968
0.000413546
0.000411268
0.000409138
0.000407166
0.00040536
0.000403734
0.0004023
0.000401072
0.000400069
0.000399308
0.000398809
0.000398594
0.000398683
0.000399101
0.00039987
0.000401014
0.000402554
0.000404513
0.000406908
0.000409756
0.000413072
0.000416864
0.000421139
0.000425895
0.000431129
0.000436829
0.000442981
0.000449562
0.000456546
0.000463899
0.000471586
0.000479563
0.000487787
0.000496206
0.00050477
0.000513423
0.000522108
0.000530763
0.000539326
0.000547724
0.000555909
0.000563805
0.000571341
0.000578441
0.000585021
0.000590993
0.00059626
0.000600719
0.000604254
0.000606739
0.000608031
0.000977116
0.000936702
0.000899639
0.000865608
0.000834322
0.00080552
0.000778972
0.000754469
0.000731821
0.000710861
0.000691437
0.00067341
0.000656657
0.000641066
0.000626537
0.000612979
0.000600308
0.000588451
0.000577341
0.000566915
0.000557118
0.0005479
0.000539215
0.00053102
0.00052328
0.000515957
0.000509022
0.000502444
0.000496198
0.00049026
0.000484608
0.000479222
0.000474083
0.000469175
0.000464483
0.000459992
0.000455692
0.000451569
0.000447616
0.000443822
0.00044018
0.000436684
0.000433328
0.000430109
0.000427023
0.000424068
0.000421244
0.000418552
0.000415993
0.000413571
0.000411292
0.000409161
0.000407187
0.000405379
0.00040375
0.000402312
0.00040108
0.000400072
0.000399304
0.000398798
0.000398573
0.000398653
0.000399059
0.000399815
0.000400945
0.000402469
0.00040441
0.000406786
0.000409615
0.00041291
0.00041668
0.000420931
0.000425665
0.000430875
0.000436553
0.000442683
0.000449242
0.000456206
0.00046354
0.00047121
0.000479173
0.000487383
0.000495793
0.000504349
0.000512996
0.000521678
0.000530333
0.000538897
0.000547299
0.000555489
0.000563393
0.000570937
0.000578046
0.000584636
0.000590617
0.000595895
0.000600362
0.000603905
0.000606395
0.00060769
0.000977116
0.000936702
0.00089964
0.000865609
0.000834322
0.000805521
0.000778974
0.00075447
0.000731823
0.000710864
0.000691439
0.000673413
0.00065666
0.00064107
0.000626542
0.000612984
0.000600314
0.000588457
0.000577347
0.000566922
0.000557125
0.000547908
0.000539223
0.00053103
0.000523289
0.000515967
0.000509033
0.000502456
0.000496211
0.000490274
0.000484622
0.000479237
0.000474099
0.000469191
0.0004645
0.000460011
0.000455711
0.000451589
0.000447637
0.000443843
0.000440203
0.000436707
0.000433353
0.000430134
0.000427048
0.000424094
0.00042127
0.000418578
0.000416019
0.000413597
0.000411317
0.000409185
0.000407209
0.0004054
0.000403767
0.000402326
0.00040109
0.000400076
0.000399302
0.000398787
0.000398554
0.000398623
0.000399018
0.000399761
0.000400875
0.000402383
0.000404306
0.000406663
0.000409472
0.000412745
0.000416493
0.000420721
0.000425431
0.000430617
0.000436272
0.000442378
0.000448916
0.000455858
0.000463173
0.000470825
0.000478773
0.00048697
0.000495369
0.000503916
0.000512558
0.000521236
0.00052989
0.000538456
0.000546862
0.000555057
0.000562968
0.00057052
0.000577638
0.000584238
0.000590229
0.000595516
0.000599993
0.000603542
0.000606038
0.000607336
0.000977116
0.000936702
0.00089964
0.000865609
0.000834323
0.000805522
0.000778975
0.000754472
0.000731825
0.000710866
0.000691442
0.000673416
0.000656664
0.000641074
0.000626546
0.000612989
0.000600319
0.000588463
0.000577354
0.000566929
0.000557133
0.000547916
0.000539232
0.000531039
0.000523299
0.000515978
0.000509044
0.000502468
0.000496224
0.000490287
0.000484637
0.000479252
0.000474115
0.000469208
0.000464518
0.000460029
0.00045573
0.00045161
0.000447658
0.000443866
0.000440226
0.000436732
0.000433378
0.00043016
0.000427075
0.000424121
0.000421298
0.000418606
0.000416047
0.000413625
0.000411344
0.000409211
0.000407233
0.000405421
0.000403786
0.000402341
0.0004011
0.00040008
0.0003993
0.000398778
0.000398535
0.000398594
0.000398976
0.000399706
0.000400805
0.000402297
0.000404202
0.00040654
0.000409327
0.000412578
0.000416303
0.000420508
0.000425193
0.000430356
0.000435986
0.000442069
0.000448584
0.000455505
0.000462801
0.000470434
0.000478366
0.000486549
0.000494937
0.000503476
0.000512111
0.000520786
0.000529438
0.000538006
0.000546414
0.000554614
0.000562532
0.000570093
0.000577219
0.000583829
0.00058983
0.000595127
0.000599612
0.000603169
0.00060567
0.000606971
0.000977116
0.000936702
0.00089964
0.00086561
0.000834324
0.000805523
0.000778976
0.000754473
0.000731827
0.000710869
0.000691445
0.000673419
0.000656667
0.000641078
0.000626551
0.000612994
0.000600325
0.000588469
0.00057736
0.000566936
0.00055714
0.000547924
0.000539241
0.000531049
0.000523309
0.000515989
0.000509056
0.00050248
0.000496237
0.000490301
0.000484651
0.000479268
0.000474131
0.000469226
0.000464536
0.000460049
0.000455751
0.000451632
0.000447681
0.00044389
0.000440251
0.000436757
0.000433404
0.000430187
0.000427103
0.00042415
0.000421327
0.000418635
0.000416076
0.000413653
0.000411372
0.000409237
0.000407258
0.000405444
0.000403806
0.000402357
0.000401112
0.000400086
0.000399299
0.000398769
0.000398517
0.000398565
0.000398936
0.000399652
0.000400736
0.000402211
0.000404098
0.000406416
0.000409182
0.000412411
0.000416112
0.000420293
0.000424954
0.000430092
0.000435698
0.000441757
0.000448249
0.000455148
0.000462423
0.000470039
0.000477954
0.000486123
0.000494499
0.000503028
0.000511657
0.000520327
0.000528979
0.000537547
0.000545958
0.000554163
0.000562087
0.000569656
0.000576792
0.00058341
0.000589422
0.000594728
0.000599222
0.000602786
0.000605293
0.000606597
0.000977116
0.000936702
0.00089964
0.00086561
0.000834325
0.000805524
0.000778977
0.000754475
0.000731829
0.000710871
0.000691447
0.000673422
0.000656671
0.000641082
0.000626555
0.000612998
0.00060033
0.000588475
0.000577367
0.000566943
0.000557148
0.000547932
0.00053925
0.000531058
0.00052332
0.000516
0.000509067
0.000502493
0.00049625
0.000490315
0.000484667
0.000479284
0.000474148
0.000469244
0.000464555
0.000460069
0.000455772
0.000451654
0.000447704
0.000443914
0.000440276
0.000436783
0.000433431
0.000430215
0.000427132
0.000424179
0.000421357
0.000418665
0.000416106
0.000413683
0.000411401
0.000409265
0.000407285
0.000405468
0.000403827
0.000402374
0.000401124
0.000400093
0.000399299
0.000398761
0.0003985
0.000398538
0.000398896
0.000399598
0.000400667
0.000402126
0.000403994
0.000406292
0.000409037
0.000412244
0.000415922
0.000420078
0.000424715
0.000429828
0.000435409
0.000441444
0.000447912
0.000454789
0.000462044
0.00046964
0.000477538
0.000485693
0.000494057
0.000502577
0.000511198
0.000519864
0.000528513
0.000537082
0.000545496
0.000553705
0.000561636
0.000569212
0.000576357
0.000582985
0.000589006
0.000594321
0.000598824
0.000602396
0.000604908
0.000606215
0.000977116
0.000936702
0.000899641
0.000865611
0.000834325
0.000805525
0.000778979
0.000754476
0.000731831
0.000710873
0.00069145
0.000673425
0.000656674
0.000641086
0.000626559
0.000613003
0.000600335
0.000588481
0.000577373
0.00056695
0.000557156
0.000547941
0.000539259
0.000531068
0.00052333
0.000516011
0.000509079
0.000502506
0.000496264
0.00049033
0.000484682
0.0004793
0.000474166
0.000469262
0.000464575
0.000460089
0.000455793
0.000451676
0.000447727
0.000443938
0.000440302
0.00043681
0.000433459
0.000430244
0.000427161
0.000424209
0.000421387
0.000418696
0.000416137
0.000413714
0.000411431
0.000409294
0.000407312
0.000405493
0.000403849
0.000402393
0.000401138
0.000400102
0.000399301
0.000398755
0.000398485
0.000398511
0.000398858
0.000399546
0.0004006
0.000402041
0.000403891
0.000406169
0.000408893
0.000412077
0.000415732
0.000419864
0.000424475
0.000429563
0.000435119
0.00044113
0.000447575
0.000454429
0.000461663
0.00046924
0.000477121
0.000485261
0.000493612
0.000502122
0.000510737
0.000519398
0.000528044
0.000536613
0.000545029
0.000553243
0.000561179
0.000568763
0.000575916
0.000582554
0.000588584
0.000593909
0.00059842
0.000601999
0.000604517
0.000605827
0.000977116
0.000936703
0.000899641
0.000865611
0.000834326
0.000805526
0.00077898
0.000754478
0.000731833
0.000710875
0.000691453
0.000673428
0.000656678
0.00064109
0.000626564
0.000613008
0.000600341
0.000588487
0.00057738
0.000566957
0.000557164
0.000547949
0.000539268
0.000531078
0.000523341
0.000516023
0.000509091
0.000502519
0.000496278
0.000490345
0.000484698
0.000479316
0.000474183
0.000469281
0.000464594
0.00046011
0.000455815
0.000451699
0.000447751
0.000443964
0.000440328
0.000436837
0.000433487
0.000430273
0.000427191
0.00042424
0.000421419
0.000418728
0.000416169
0.000413745
0.000411461
0.000409324
0.00040734
0.000405519
0.000403872
0.000402412
0.000401153
0.000400111
0.000399303
0.00039875
0.00039847
0.000398486
0.00039882
0.000399495
0.000400534
0.000401958
0.000403789
0.000406048
0.00040875
0.000411912
0.000415543
0.00041965
0.000424237
0.0004293
0.000434831
0.000440817
0.000447238
0.00045407
0.000461283
0.00046884
0.000476704
0.000484829
0.000493167
0.000501667
0.000510274
0.00051893
0.000527574
0.000536143
0.00054456
0.000552778
0.00056072
0.000568311
0.000575472
0.000582118
0.000588158
0.000593492
0.000598012
0.000601598
0.000604121
0.000605434
0.000977116
0.000936703
0.000899641
0.000865612
0.000834326
0.000805527
0.000778981
0.000754479
0.000731834
0.000710877
0.000691455
0.000673431
0.000656681
0.000641093
0.000626568
0.000613013
0.000600346
0.000588493
0.000577386
0.000566964
0.000557171
0.000547958
0.000539277
0.000531087
0.000523351
0.000516034
0.000509104
0.000502531
0.000496291
0.000490359
0.000484713
0.000479333
0.000474201
0.000469299
0.000464614
0.000460131
0.000455837
0.000451722
0.000447776
0.000443989
0.000440354
0.000436865
0.000433516
0.000430303
0.000427222
0.000424271
0.00042145
0.00041876
0.000416201
0.000413777
0.000411493
0.000409354
0.000407369
0.000405546
0.000403896
0.000402432
0.000401169
0.000400121
0.000399307
0.000398745
0.000398456
0.000398462
0.000398784
0.000399445
0.000400469
0.000401876
0.000403689
0.000405928
0.000408609
0.000411748
0.000415356
0.000419439
0.000424001
0.000429039
0.000434545
0.000440506
0.000446904
0.000453713
0.000460904
0.000468442
0.000476288
0.000484398
0.000492723
0.000501213
0.000509812
0.000518462
0.000527103
0.000535671
0.000544091
0.000552312
0.000560259
0.000567857
0.000575026
0.000581681
0.00058773
0.000593073
0.000597601
0.000601195
0.000603723
0.000605039
0.000977116
0.000936703
0.000899642
0.000865612
0.000834327
0.000805528
0.000778982
0.000754481
0.000731836
0.000710879
0.000691457
0.000673433
0.000656684
0.000641097
0.000626572
0.000613017
0.000600351
0.000588499
0.000577392
0.000566971
0.000557179
0.000547966
0.000539286
0.000531097
0.000523362
0.000516045
0.000509116
0.000502544
0.000496305
0.000490374
0.000484729
0.00047935
0.000474219
0.000469318
0.000464634
0.000460152
0.000455859
0.000451746
0.0004478
0.000444015
0.000440381
0.000436893
0.000433545
0.000430333
0.000427252
0.000424303
0.000421483
0.000418792
0.000416234
0.00041381
0.000411525
0.000409385
0.000407398
0.000405573
0.000403921
0.000402453
0.000401185
0.000400132
0.000399311
0.000398742
0.000398444
0.000398439
0.000398749
0.000399397
0.000400405
0.000401796
0.000403591
0.00040581
0.000408471
0.000411587
0.000415171
0.000419231
0.000423768
0.000428781
0.000434262
0.000440199
0.000446572
0.000453359
0.000460529
0.000468047
0.000475876
0.00048397
0.000492282
0.000500761
0.000509351
0.000517996
0.000526634
0.000535202
0.000543622
0.000551847
0.000559799
0.000567404
0.00057458
0.000581244
0.000587301
0.000592653
0.000597189
0.00060079
0.000603323
0.000604642
0.000977116
0.000936703
0.000899642
0.000865613
0.000834328
0.000805528
0.000778983
0.000754482
0.000731837
0.000710881
0.000691459
0.000673436
0.000656687
0.000641101
0.000626576
0.000613022
0.000600356
0.000588504
0.000577398
0.000566978
0.000557186
0.000547974
0.000539295
0.000531107
0.000523372
0.000516056
0.000509128
0.000502557
0.000496319
0.000490389
0.000484745
0.000479367
0.000474236
0.000469337
0.000464654
0.000460173
0.000455882
0.000451769
0.000447825
0.000444041
0.000440408
0.000436921
0.000433574
0.000430363
0.000427284
0.000424335
0.000421515
0.000418825
0.000416267
0.000413842
0.000411557
0.000409416
0.000407428
0.000405601
0.000403946
0.000402475
0.000401202
0.000400144
0.000399316
0.000398739
0.000398433
0.000398417
0.000398716
0.00039935
0.000400344
0.000401718
0.000403496
0.000405695
0.000408334
0.000411429
0.00041499
0.000419025
0.000423538
0.000428526
0.000433983
0.000439895
0.000446245
0.000453009
0.000460158
0.000467657
0.000475467
0.000483546
0.000491845
0.000500313
0.000508895
0.000517534
0.000526169
0.000534735
0.000543156
0.000551384
0.000559341
0.000566952
0.000574136
0.000580807
0.000586873
0.000592233
0.000596777
0.000600385
0.000602924
0.000604245
0.000977116
0.000936703
0.000899642
0.000865613
0.000834328
0.000805529
0.000778984
0.000754483
0.000731839
0.000710883
0.000691462
0.000673439
0.00065669
0.000641104
0.00062658
0.000613026
0.000600361
0.00058851
0.000577404
0.000566984
0.000557194
0.000547982
0.000539303
0.000531116
0.000523382
0.000516067
0.00050914
0.00050257
0.000496333
0.000490404
0.00048476
0.000479383
0.000474254
0.000469356
0.000464674
0.000460194
0.000455904
0.000451793
0.00044785
0.000444066
0.000440435
0.000436949
0.000433603
0.000430393
0.000427315
0.000424367
0.000421548
0.000418858
0.0004163
0.000413875
0.00041159
0.000409448
0.000407458
0.000405629
0.000403971
0.000402497
0.00040122
0.000400156
0.000399323
0.000398738
0.000398423
0.000398397
0.000398684
0.000399305
0.000400284
0.000401643
0.000403402