/*--------------------------------*- C++ -*----------------------------------*\
  =========                 |
  \\      /  F ield         | OpenFOAM: The Open Source CFD Toolbox
   \\    /   O peration     | Website:  https://openfoam.org
    \\  /    A nd           | Version:  11
     \\/     M anipulation  |
\*---------------------------------------------------------------------------*/
FoamFile
{
    format      ascii;
    class       surfaceScalarField;
    location    "990";
    object      phi;
}
// * * * * * * * * * * * * * * * * * * * * * * * * * * * * * * * * * * * * * //

dimensions      [0 3 -1 0 0 0 0];

internalField   nonuniform List<scalar> 
19800
(
2e-05
-2.57308e-12
2e-05
-7.24042e-12
2e-05
-1.15968e-11
2e-05
-1.57553e-11
2e-05
-1.98296e-11
2e-05
-2.38995e-11
2e-05
-2.80224e-11
2e-05
-3.22432e-11
2e-05
-3.65986e-11
2e-05
-4.11207e-11
2e-05
-4.58389e-11
2e-05
-5.07808e-11
2e-05
-5.59738e-11
2e-05
-6.1445e-11
2e-05
-6.72221e-11
2e-05
-7.33337e-11
1.99999e-05
-7.98093e-11
1.99999e-05
-8.66801e-11
1.99999e-05
-9.3979e-11
1.99999e-05
-1.01741e-10
1.99999e-05
-1.10002e-10
1.99999e-05
-1.18802e-10
1.99999e-05
-1.28183e-10
1.99999e-05
-1.38189e-10
1.99999e-05
-1.48867e-10
1.99999e-05
-1.6027e-10
1.99998e-05
-1.72451e-10
1.99998e-05
-1.85467e-10
1.99998e-05
-1.99382e-10
1.99998e-05
-2.14262e-10
1.99998e-05
-2.30176e-10
1.99998e-05
-2.47201e-10
1.99997e-05
-2.65417e-10
1.99997e-05
-2.84911e-10
1.99997e-05
-3.05772e-10
1.99997e-05
-3.28099e-10
1.99996e-05
-3.51996e-10
1.99996e-05
-3.77572e-10
1.99996e-05
-4.04944e-10
1.99995e-05
-4.34237e-10
1.99995e-05
-4.65582e-10
1.99995e-05
-4.99119e-10
1.99994e-05
-5.34995e-10
1.99994e-05
-5.73369e-10
1.99993e-05
-6.14404e-10
1.99993e-05
-6.58277e-10
1.99992e-05
-7.05171e-10
1.99992e-05
-7.55281e-10
1.99991e-05
-8.08813e-10
1.99991e-05
-8.65982e-10
1.9999e-05
-9.27015e-10
1.99989e-05
-9.92152e-10
1.99989e-05
-1.06164e-09
1.99988e-05
-1.13575e-09
1.99987e-05
-1.21474e-09
1.99986e-05
-1.29892e-09
1.99985e-05
-1.38857e-09
1.99984e-05
-1.48402e-09
1.99983e-05
-1.58558e-09
1.99982e-05
-1.6936e-09
1.99981e-05
-1.80843e-09
1.9998e-05
-1.93043e-09
1.99979e-05
-2.05998e-09
1.99978e-05
-2.19748e-09
1.99976e-05
-2.34332e-09
1.99975e-05
-2.49791e-09
1.99973e-05
-2.66168e-09
1.99972e-05
-2.83506e-09
1.9997e-05
-3.01847e-09
1.99969e-05
-3.21238e-09
1.99967e-05
-3.41721e-09
1.99965e-05
-3.63341e-09
1.99963e-05
-3.86142e-09
1.99961e-05
-4.10166e-09
1.99959e-05
-4.35454e-09
1.99957e-05
-4.62045e-09
1.99955e-05
-4.89973e-09
1.99953e-05
-5.1927e-09
1.9995e-05
-5.4996e-09
1.99948e-05
-5.82061e-09
1.99946e-05
-6.15581e-09
1.99943e-05
-6.50514e-09
1.99941e-05
-6.86841e-09
1.99938e-05
-7.24524e-09
1.99935e-05
-7.63502e-09
1.99933e-05
-8.03682e-09
1.9993e-05
-8.44938e-09
1.99927e-05
-8.87102e-09
1.99925e-05
-9.29951e-09
1.99922e-05
-9.732e-09
1.99919e-05
-1.01649e-08
1.99917e-05
-1.05936e-08
1.99914e-05
-1.10126e-08
1.99912e-05
-1.14152e-08
1.9991e-05
-1.17931e-08
1.99908e-05
-1.21369e-08
1.99906e-05
-1.24356e-08
1.99905e-05
-1.26769e-08
1.99904e-05
-1.28492e-08
-1.29496e-08
2e-05
-2.1236e-12
2e-05
-6.31646e-12
2e-05
-1.03607e-11
2e-05
-1.4249e-11
2e-05
-1.80614e-11
2e-05
-2.18648e-11
2e-05
-2.57103e-11
2e-05
-2.96386e-11
2e-05
-3.36838e-11
2e-05
-3.78758e-11
2e-05
-4.2242e-11
2e-05
-4.68084e-11
2e-05
-5.16004e-11
2e-05
-5.66433e-11
2e-05
-6.1963e-11
2e-05
-6.75861e-11
1.99999e-05
-7.35403e-11
1.99999e-05
-7.98547e-11
1.99999e-05
-8.65599e-11
1.99999e-05
-9.36884e-11
1.99999e-05
-1.01275e-10
1.99999e-05
-1.09356e-10
1.99999e-05
-1.17971e-10
1.99999e-05
-1.27162e-10
1.99999e-05
-1.36974e-10
1.99999e-05
-1.47455e-10
1.99998e-05
-1.58655e-10
1.99998e-05
-1.70632e-10
1.99998e-05
-1.83442e-10
1.99998e-05
-1.97149e-10
1.99998e-05
-2.1182e-10
1.99998e-05
-2.27528e-10
1.99997e-05
-2.44349e-10
1.99997e-05
-2.62364e-10
1.99997e-05
-2.81663e-10
1.99997e-05
-3.02336e-10
1.99996e-05
-3.24486e-10
1.99996e-05
-3.48216e-10
1.99996e-05
-3.7364e-10
1.99995e-05
-4.00877e-10
1.99995e-05
-4.30054e-10
1.99995e-05
-4.61308e-10
1.99994e-05
-4.9478e-10
1.99994e-05
-5.30623e-10
1.99993e-05
-5.68997e-10
1.99993e-05
-6.10072e-10
1.99992e-05
-6.54029e-10
1.99992e-05
-7.01056e-10
1.99991e-05
-7.51355e-10
1.99991e-05
-8.05137e-10
1.9999e-05
-8.62623e-10
1.99989e-05
-9.24049e-10
1.99989e-05
-9.8966e-10
1.99988e-05
-1.05971e-09
1.99987e-05
-1.13448e-09
1.99986e-05
-1.21425e-09
1.99985e-05
-1.29932e-09
1.99984e-05
-1.38999e-09
1.99983e-05
-1.48659e-09
1.99982e-05
-1.58946e-09
1.99981e-05
-1.69894e-09
1.9998e-05
-1.81542e-09
1.99979e-05
-1.93926e-09
1.99978e-05
-2.07085e-09
1.99976e-05
-2.21061e-09
1.99975e-05
-2.35895e-09
1.99974e-05
-2.5163e-09
1.99972e-05
-2.68309e-09
1.9997e-05
-2.85978e-09
1.99969e-05
-3.04683e-09
1.99967e-05
-3.24468e-09
1.99965e-05
-3.45381e-09
1.99963e-05
-3.67468e-09
1.99961e-05
-3.90773e-09
1.99959e-05
-4.15341e-09
1.99957e-05
-4.41215e-09
1.99955e-05
-4.68433e-09
1.99953e-05
-4.97032e-09
1.99951e-05
-5.27043e-09
1.99948e-05
-5.58489e-09
1.99946e-05
-5.91385e-09
1.99943e-05
-6.25737e-09
1.99941e-05
-6.61533e-09
1.99938e-05
-6.98747e-09
1.99936e-05
-7.37329e-09
1.99933e-05
-7.77203e-09
1.9993e-05
-8.18257e-09
1.99928e-05
-8.60341e-09
1.99925e-05
-9.03252e-09
1.99922e-05
-9.46727e-09
1.9992e-05
-9.9043e-09
1.99917e-05
-1.03394e-08
1.99915e-05
-1.07672e-08
1.99912e-05
-1.11813e-08
1.9991e-05
-1.15739e-08
1.99908e-05
-1.19358e-08
1.99906e-05
-1.2256e-08
1.99905e-05
-1.25221e-08
1.99904e-05
-1.27213e-08
-1.28471e-08
2e-05
-1.78447e-12
2e-05
-5.49687e-12
2e-05
-9.18359e-12
2e-05
-1.27756e-11
2e-05
-1.6313e-11
2e-05
-1.98445e-11
2e-05
-2.3411e-11
2e-05
-2.70475e-11
2e-05
-3.07846e-11
2e-05
-3.46493e-11
2e-05
-3.86669e-11
2e-05
-4.28614e-11
2e-05
-4.72564e-11
2e-05
-5.18754e-11
2e-05
-5.67423e-11
2e-05
-6.18819e-11
1.99999e-05
-6.73198e-11
1.99999e-05
-7.30832e-11
1.99999e-05
-7.92006e-11
1.99999e-05
-8.57022e-11
1.99999e-05
-9.26203e-11
1.99999e-05
-9.99894e-11
1.99999e-05
-1.07846e-10
1.99999e-05
-1.1623e-10
1.99999e-05
-1.25183e-10
1.99999e-05
-1.34751e-10
1.99998e-05
-1.44981e-10
1.99998e-05
-1.55926e-10
1.99998e-05
-1.67642e-10
1.99998e-05
-1.80188e-10
1.99998e-05
-1.93628e-10
1.99998e-05
-2.08031e-10
1.99997e-05
-2.23469e-10
1.99997e-05
-2.4002e-10
1.99997e-05
-2.5777e-10
1.99997e-05
-2.76806e-10
1.99996e-05
-2.97223e-10
1.99996e-05
-3.19125e-10
1.99996e-05
-3.42618e-10
1.99996e-05
-3.67818e-10
1.99995e-05
-3.94848e-10
1.99995e-05
-4.23839e-10
1.99994e-05
-4.54928e-10
1.99994e-05
-4.88263e-10
1.99994e-05
-5.23999e-10
1.99993e-05
-5.62302e-10
1.99993e-05
-6.03348e-10
1.99992e-05
-6.4732e-10
1.99991e-05
-6.94415e-10
1.99991e-05
-7.44838e-10
1.9999e-05
-7.98809e-10
1.99989e-05
-8.56556e-10
1.99989e-05
-9.18321e-10
1.99988e-05
-9.84359e-10
1.99987e-05
-1.05494e-09
1.99986e-05
-1.13033e-09
1.99986e-05
-1.21085e-09
1.99985e-05
-1.29678e-09
1.99984e-05
-1.38846e-09
1.99983e-05
-1.48622e-09
1.99981e-05
-1.59041e-09
1.9998e-05
-1.70141e-09
1.99979e-05
-1.81957e-09
1.99978e-05
-1.94532e-09
1.99977e-05
-2.07904e-09
1.99975e-05
-2.22117e-09
1.99974e-05
-2.37214e-09
1.99972e-05
-2.5324e-09
1.99971e-05
-2.70241e-09
1.99969e-05
-2.88264e-09
1.99967e-05
-3.07356e-09
1.99966e-05
-3.27566e-09
1.99964e-05
-3.48941e-09
1.99962e-05
-3.71531e-09
1.9996e-05
-3.95383e-09
1.99958e-05
-4.20542e-09
1.99956e-05
-4.47053e-09
1.99953e-05
-4.74955e-09
1.99951e-05
-5.04286e-09
1.99949e-05
-5.35076e-09
1.99946e-05
-5.67348e-09
1.99944e-05
-6.01114e-09
1.99941e-05
-6.36373e-09
1.99939e-05
-6.7311e-09
1.99936e-05
-7.11286e-09
1.99934e-05
-7.50838e-09
1.99931e-05
-7.91672e-09
1.99928e-05
-8.33652e-09
1.99926e-05
-8.76595e-09
1.99923e-05
-9.20258e-09
1.9992e-05
-9.64327e-09
1.99918e-05
-1.0084e-08
1.99915e-05
-1.05198e-08
1.99913e-05
-1.09443e-08
1.99911e-05
-1.135e-08
1.99909e-05
-1.17277e-08
1.99907e-05
-1.20661e-08
1.99905e-05
-1.2352e-08
1.99903e-05
-1.25703e-08
-1.2709e-08
2e-05
-1.51305e-12
2e-05
-4.77487e-12
2e-05
-8.08883e-12
2e-05
-1.13626e-11
2e-05
-1.46092e-11
2e-05
-1.78588e-11
2e-05
-2.11413e-11
2e-05
-2.44845e-11
2e-05
-2.7914e-11
2e-05
-3.14537e-11
2e-05
-3.51261e-11
2e-05
-3.8953e-11
2e-05
-4.2956e-11
2e-05
-4.71565e-11
2e-05
-5.15766e-11
2e-05
-5.62391e-11
1.99999e-05
-6.11679e-11
1.99999e-05
-6.63877e-11
1.99999e-05
-7.19252e-11
1.99999e-05
-7.78084e-11
1.99999e-05
-8.40673e-11
1.99999e-05
-9.07339e-11
1.99999e-05
-9.78426e-11
1.99999e-05
-1.0543e-10
1.99999e-05
-1.13536e-10
1.99999e-05
-1.22203e-10
1.99999e-05
-1.31476e-10
1.99998e-05
-1.41404e-10
1.99998e-05
-1.5204e-10
1.99998e-05
-1.6344e-10
1.99998e-05
-1.75665e-10
1.99998e-05
-1.8878e-10
1.99997e-05
-2.02853e-10
1.99997e-05
-2.17961e-10
1.99997e-05
-2.34181e-10
1.99997e-05
-2.51601e-10
1.99996e-05
-2.7031e-10
1.99996e-05
-2.90407e-10
1.99996e-05
-3.11995e-10
1.99996e-05
-3.35185e-10
1.99995e-05
-3.60095e-10
1.99995e-05
-3.86852e-10
1.99994e-05
-4.15589e-10
1.99994e-05
-4.46448e-10
1.99994e-05
-4.79581e-10
1.99993e-05
-5.15147e-10
1.99993e-05
-5.53318e-10
1.99992e-05
-5.94274e-10
1.99992e-05
-6.38205e-10
1.99991e-05
-6.85313e-10
1.9999e-05
-7.35812e-10
1.9999e-05
-7.89926e-10
1.99989e-05
-8.47893e-10
1.99988e-05
-9.09963e-10
1.99987e-05
-9.76401e-10
1.99987e-05
-1.04748e-09
1.99986e-05
-1.1235e-09
1.99985e-05
-1.20475e-09
1.99984e-05
-1.29157e-09
1.99983e-05
-1.38428e-09
1.99982e-05
-1.48324e-09
1.99981e-05
-1.58881e-09
1.99979e-05
-1.70137e-09
1.99978e-05
-1.82132e-09
1.99977e-05
-1.94908e-09
1.99976e-05
-2.08507e-09
1.99974e-05
-2.22973e-09
1.99973e-05
-2.38352e-09
1.99971e-05
-2.54691e-09
1.99969e-05
-2.72038e-09
1.99968e-05
-2.90443e-09
1.99966e-05
-3.09956e-09
1.99964e-05
-3.30627e-09
1.99962e-05
-3.52507e-09
1.9996e-05
-3.75646e-09
1.99958e-05
-4.00095e-09
1.99956e-05
-4.259e-09
1.99954e-05
-4.53108e-09
1.99952e-05
-4.81761e-09
1.99949e-05
-5.11894e-09
1.99947e-05
-5.43538e-09
1.99945e-05
-5.76713e-09
1.99942e-05
-6.11428e-09
1.99939e-05
-6.47676e-09
1.99937e-05
-6.8543e-09
1.99934e-05
-7.24642e-09
1.99932e-05
-7.65229e-09
1.99929e-05
-8.07072e-09
1.99926e-05
-8.50004e-09
1.99924e-05
-8.93802e-09
1.99921e-05
-9.38169e-09
1.99918e-05
-9.82724e-09
1.99916e-05
-1.02698e-08
1.99914e-05
-1.07033e-08
1.99911e-05
-1.11201e-08
1.99909e-05
-1.15109e-08
1.99907e-05
-1.18641e-08
1.99905e-05
-1.2165e-08
1.99903e-05
-1.23963e-08
-1.25369e-08
2e-05
-1.28683e-12
2e-05
-4.13311e-12
2e-05
-7.07814e-12
2e-05
-1.00239e-11
2e-05
-1.29679e-11
2e-05
-1.59264e-11
2e-05
-1.8919e-11
2e-05
-2.19659e-11
2e-05
-2.50876e-11
2e-05
-2.83039e-11
2e-05
-3.16343e-11
2e-05
-3.5098e-11
2e-05
-3.87143e-11
2e-05
-4.25026e-11
2e-05
-4.6483e-11
2e-05
-5.06763e-11
1.99999e-05
-5.51042e-11
1.99999e-05
-5.97897e-11
1.99999e-05
-6.47571e-11
1.99999e-05
-7.00325e-11
1.99999e-05
-7.56434e-11
1.99999e-05
-8.16196e-11
1.99999e-05
-8.7993e-11
1.99999e-05
-9.47979e-11
1.99999e-05
-1.02071e-10
1.99999e-05
-1.09852e-10
1.99999e-05
-1.18184e-10
1.99998e-05
-1.27113e-10
1.99998e-05
-1.36688e-10
1.99998e-05
-1.46962e-10
1.99998e-05
-1.57993e-10
1.99998e-05
-1.69841e-10
1.99997e-05
-1.82574e-10
1.99997e-05
-1.96261e-10
1.99997e-05
-2.10979e-10
1.99997e-05
-2.2681e-10
1.99997e-05
-2.43839e-10
1.99996e-05
-2.62162e-10
1.99996e-05
-2.81876e-10
1.99996e-05
-3.0309e-10
1.99995e-05
-3.25916e-10
1.99995e-05
-3.50476e-10
1.99995e-05
-3.769e-10
1.99994e-05
-4.05325e-10
1.99994e-05
-4.35897e-10
1.99993e-05
-4.68772e-10
1.99993e-05
-5.04116e-10
1.99992e-05
-5.42105e-10
1.99992e-05
-5.82923e-10
1.99991e-05
-6.26769e-10
1.9999e-05
-6.73852e-10
1.9999e-05
-7.24391e-10
1.99989e-05
-7.7862e-10
1.99988e-05
-8.36786e-10
1.99988e-05
-8.99148e-10
1.99987e-05
-9.65979e-10
1.99986e-05
-1.03757e-09
1.99985e-05
-1.11422e-09
1.99984e-05
-1.19624e-09
1.99983e-05
-1.28398e-09
1.99982e-05
-1.37778e-09
1.99981e-05
-1.47801e-09
1.9998e-05
-1.58505e-09
1.99979e-05
-1.69929e-09
1.99977e-05
-1.82116e-09
1.99976e-05
-1.95109e-09
1.99975e-05
-2.08952e-09
1.99973e-05
-2.23693e-09
1.99972e-05
-2.39378e-09
1.9997e-05
-2.56059e-09
1.99968e-05
-2.73785e-09
1.99967e-05
-2.92608e-09
1.99965e-05
-3.12581e-09
1.99963e-05
-3.33757e-09
1.99961e-05
-3.5619e-09
1.99959e-05
-3.79933e-09
1.99957e-05
-4.05038e-09
1.99955e-05
-4.31554e-09
1.99952e-05
-4.59529e-09
1.9995e-05
-4.89004e-09
1.99948e-05
-5.20017e-09
1.99945e-05
-5.52595e-09
1.99943e-05
-5.86755e-09
1.9994e-05
-6.22501e-09
1.99938e-05
-6.59816e-09
1.99935e-05
-6.98661e-09
1.99933e-05
-7.38969e-09
1.9993e-05
-7.80634e-09
1.99927e-05
-8.23504e-09
1.99925e-05
-8.67369e-09
1.99922e-05
-9.11951e-09
1.99919e-05
-9.56881e-09
1.99917e-05
-1.00169e-08
1.99914e-05
-1.04576e-08
1.99912e-05
-1.08834e-08
1.9991e-05
-1.12846e-08
1.99908e-05
-1.1649e-08
1.99906e-05
-1.1961e-08
1.99904e-05
-1.22008e-08
-1.23391e-08
2e-05
-1.09199e-12
2e-05
-3.55687e-12
2e-05
-6.14596e-12
2e-05
-8.7637e-12
2e-05
-1.13999e-11
2e-05
-1.40614e-11
2e-05
-1.67594e-11
2e-05
-1.95076e-11
2e-05
-2.2321e-11
2e-05
-2.52154e-11
2e-05
-2.82069e-11
2e-05
-3.1312e-11
2e-05
-3.45474e-11
2e-05
-3.79305e-11
2e-05
-4.14791e-11
2e-05
-4.52119e-11
2e-05
-4.91488e-11
1.99999e-05
-5.33106e-11
1.99999e-05
-5.77195e-11
1.99999e-05
-6.23994e-11
1.99999e-05
-6.73757e-11
1.99999e-05
-7.26758e-11
1.99999e-05
-7.83292e-11
1.99999e-05
-8.43677e-11
1.99999e-05
-9.08256e-11
1.99999e-05
-9.77399e-11
1.99999e-05
-1.0515e-10
1.99998e-05
-1.131e-10
1.99998e-05
-1.21636e-10
1.99998e-05
-1.30807e-10
1.99998e-05
-1.40668e-10
1.99998e-05
-1.51277e-10
1.99998e-05
-1.62697e-10
1.99997e-05
-1.74993e-10
1.99997e-05
-1.8824e-10
1.99997e-05
-2.02514e-10
1.99997e-05
-2.17899e-10
1.99996e-05
-2.34483e-10
1.99996e-05
-2.52363e-10
1.99996e-05
-2.71641e-10
1.99995e-05
-2.92425e-10
1.99995e-05
-3.14834e-10
1.99995e-05
-3.38991e-10
1.99994e-05
-3.65031e-10
1.99994e-05
-3.93094e-10
1.99993e-05
-4.23331e-10
1.99993e-05
-4.55905e-10
1.99992e-05
-4.90985e-10
1.99992e-05
-5.28752e-10
1.99991e-05
-5.69401e-10
1.99991e-05
-6.13133e-10
1.9999e-05
-6.60167e-10
1.99989e-05
-7.10731e-10
1.99989e-05
-7.65067e-10
1.99988e-05
-8.23431e-10
1.99987e-05
-8.86093e-10
1.99986e-05
-9.53337e-10
1.99985e-05
-1.02546e-09
1.99984e-05
-1.10279e-09
1.99983e-05
-1.18564e-09
1.99982e-05
-1.27438e-09
1.99981e-05
-1.36936e-09
1.9998e-05
-1.47097e-09
1.99979e-05
-1.5796e-09
1.99978e-05
-1.69569e-09
1.99976e-05
-1.81965e-09
1.99975e-05
-1.95196e-09
1.99974e-05
-2.09308e-09
1.99972e-05
-2.2435e-09
1.9997e-05
-2.40373e-09
1.99969e-05
-2.57428e-09
1.99967e-05
-2.75571e-09
1.99965e-05
-2.94855e-09
1.99964e-05
-3.15335e-09
1.99962e-05
-3.37069e-09
1.9996e-05
-3.60113e-09
1.99958e-05
-3.84521e-09
1.99955e-05
-4.10348e-09
1.99953e-05
-4.37645e-09
1.99951e-05
-4.66462e-09
1.99949e-05
-4.96839e-09
1.99946e-05
-5.28812e-09
1.99944e-05
-5.62406e-09
1.99941e-05
-5.97632e-09
1.99939e-05
-6.34485e-09
1.99936e-05
-6.72935e-09
1.99934e-05
-7.12926e-09
1.99931e-05
-7.54365e-09
1.99928e-05
-7.97112e-09
1.99926e-05
-8.4097e-09
1.99923e-05
-8.85672e-09
1.99921e-05
-9.30861e-09
1.99918e-05
-9.76068e-09
1.99915e-05
-1.02069e-08
1.99913e-05
-1.06395e-08
1.99911e-05
-1.10485e-08
1.99908e-05
-1.14211e-08
1.99906e-05
-1.17408e-08
1.99904e-05
-1.19857e-08
-1.21239e-08
2e-05
-9.19628e-13
2e-05
-3.03451e-12
2e-05
-5.28494e-12
2e-05
-7.58128e-12
2e-05
-9.91022e-12
2e-05
-1.22729e-11
2e-05
-1.46744e-11
2e-05
-1.71227e-11
2e-05
-1.96283e-11
2e-05
-2.22029e-11
2e-05
-2.48591e-11
2e-05
-2.76106e-11
2e-05
-3.04715e-11
2e-05
-3.34569e-11
2e-05
-3.65824e-11
2e-05
-3.98647e-11
2e-05
-4.33215e-11
1.99999e-05
-4.69715e-11
1.99999e-05
-5.0835e-11
1.99999e-05
-5.49334e-11
1.99999e-05
-5.92902e-11
1.99999e-05
-6.39305e-11
1.99999e-05
-6.88813e-11
1.99999e-05
-7.41721e-11
1.99999e-05
-7.98345e-11
1.99999e-05
-8.5903e-11
1.99999e-05
-9.24146e-11
1.99998e-05
-9.94095e-11
1.99998e-05
-1.06931e-10
1.99998e-05
-1.15027e-10
1.99998e-05
-1.23747e-10
1.99998e-05
-1.33147e-10
1.99998e-05
-1.43285e-10
1.99997e-05
-1.54225e-10
1.99997e-05
-1.66036e-10
1.99997e-05
-1.78791e-10
1.99997e-05
-1.92571e-10
1.99996e-05
-2.07459e-10
1.99996e-05
-2.23548e-10
1.99996e-05
-2.40936e-10
1.99995e-05
-2.59728e-10
1.99995e-05
-2.80036e-10
1.99995e-05
-3.01981e-10
1.99994e-05
-3.25692e-10
1.99994e-05
-3.51305e-10
1.99994e-05
-3.78967e-10
1.99993e-05
-4.08835e-10
1.99993e-05
-4.41074e-10
1.99992e-05
-4.75861e-10
1.99991e-05
-5.13385e-10
1.99991e-05
-5.53845e-10
1.9999e-05
-5.97454e-10
1.9999e-05
-6.44434e-10
1.99989e-05
-6.95026e-10
1.99988e-05
-7.49481e-10
1.99987e-05
-8.08065e-10
1.99987e-05
-8.7106e-10
1.99986e-05
-9.38762e-10
1.99985e-05
-1.01149e-09
1.99984e-05
-1.08956e-09
1.99983e-05
-1.17334e-09
1.99982e-05
-1.26318e-09
1.99981e-05
-1.35946e-09
1.99979e-05
-1.4626e-09
1.99978e-05
-1.57301e-09
1.99977e-05
-1.69113e-09
1.99976e-05
-1.81742e-09
1.99974e-05
-1.95237e-09
1.99973e-05
-2.09646e-09
1.99971e-05
-2.25022e-09
1.9997e-05
-2.41419e-09
1.99968e-05
-2.58891e-09
1.99966e-05
-2.77494e-09
1.99964e-05
-2.97288e-09
1.99962e-05
-3.1833e-09
1.99961e-05
-3.4068e-09
1.99959e-05
-3.64396e-09
1.99956e-05
-3.89537e-09
1.99954e-05
-4.16159e-09
1.99952e-05
-4.44314e-09
1.9995e-05
-4.7405e-09
1.99947e-05
-5.0541e-09
1.99945e-05
-5.38424e-09
1.99943e-05
-5.73112e-09
1.9994e-05
-6.09477e-09
1.99938e-05
-6.47499e-09
1.99935e-05
-6.87131e-09
1.99932e-05
-7.28289e-09
1.9993e-05
-7.70847e-09
1.99927e-05
-8.14616e-09
1.99924e-05
-8.59337e-09
1.99922e-05
-9.04661e-09
1.99919e-05
-9.50123e-09
1.99917e-05
-9.95112e-09
1.99914e-05
-1.03884e-08
1.99912e-05
-1.08028e-08
1.99909e-05
-1.1181e-08
1.99907e-05
-1.15057e-08
1.99905e-05
-1.17539e-08
-1.18953e-08
2e-05
-7.64297e-13
2e-05
-2.55706e-12
2e-05
-4.48772e-12
2e-05
-6.47343e-12
2e-05
-8.50036e-12
2e-05
-1.05664e-11
2e-05
-1.26723e-11
2e-05
-1.4822e-11
2e-05
-1.70216e-11
2e-05
-1.92794e-11
2e-05
-2.16047e-11
2e-05
-2.40083e-11
2e-05
-2.65019e-11
2e-05
-2.90979e-11
2e-05
-3.181e-11
2e-05
-3.46526e-11
2e-05
-3.76413e-11
1.99999e-05
-4.07927e-11
1.99999e-05
-4.41251e-11
1.99999e-05
-4.76578e-11
1.99999e-05
-5.14119e-11
1.99999e-05
-5.54104e-11
1.99999e-05
-5.96781e-11
1.99999e-05
-6.42419e-11
1.99999e-05
-6.9131e-11
1.99999e-05
-7.43772e-11
1.99999e-05
-8.0015e-11
1.99999e-05
-8.60819e-11
1.99998e-05
-9.26183e-11
1.99998e-05
-9.96683e-11
1.99998e-05
-1.0728e-10
1.99998e-05
-1.15504e-10
1.99998e-05
-1.24396e-10
1.99997e-05
-1.34017e-10
1.99997e-05
-1.44433e-10
1.99997e-05
-1.55712e-10
1.99997e-05
-1.6793e-10
1.99997e-05
-1.8117e-10
1.99996e-05
-1.95518e-10
1.99996e-05
-2.11068e-10
1.99996e-05
-2.27922e-10
1.99995e-05
-2.46188e-10
1.99995e-05
-2.6598e-10
1.99995e-05
-2.87425e-10
1.99994e-05
-3.10655e-10
1.99994e-05
-3.3581e-10
1.99993e-05
-3.63045e-10
1.99993e-05
-3.92518e-10
1.99992e-05
-4.24404e-10
1.99992e-05
-4.58886e-10
1.99991e-05
-4.96159e-10
1.99991e-05
-5.3643e-10
1.9999e-05
-5.7992e-10
1.99989e-05
-6.26864e-10
1.99988e-05
-6.77508e-10
1.99988e-05
-7.32116e-10
1.99987e-05
-7.90967e-10
1.99986e-05
-8.54354e-10
1.99985e-05
-9.22589e-10
1.99984e-05
-9.95999e-10
1.99983e-05
-1.07493e-09
1.99982e-05
-1.15975e-09
1.99981e-05
-1.25084e-09
1.9998e-05
-1.3486e-09
1.99979e-05
-1.45345e-09
1.99978e-05
-1.56585e-09
1.99976e-05
-1.68626e-09
1.99975e-05
-1.81515e-09
1.99973e-05
-1.95304e-09
1.99972e-05
-2.10045e-09
1.9997e-05
-2.25794e-09
1.99969e-05
-2.42606e-09
1.99967e-05
-2.6054e-09
1.99965e-05
-2.79656e-09
1.99963e-05
-3.00014e-09
1.99962e-05
-3.21677e-09
1.9996e-05
-3.44707e-09
1.99958e-05
-3.69165e-09
1.99955e-05
-3.95111e-09
1.99953e-05
-4.22602e-09
1.99951e-05
-4.51692e-09
1.99949e-05
-4.82428e-09
1.99946e-05
-5.14847e-09
1.99944e-05
-5.48976e-09
1.99941e-05
-5.84825e-09
1.99939e-05
-6.22382e-09
1.99936e-05
-6.6161e-09
1.99934e-05
-7.02432e-09
1.99931e-05
-7.4473e-09
1.99929e-05
-7.88324e-09
1.99926e-05
-8.32962e-09
1.99923e-05
-8.78298e-09
1.99921e-05
-9.23867e-09
1.99918e-05
-9.69053e-09
1.99916e-05
-1.01305e-08
1.99913e-05
-1.05481e-08
1.9991e-05
-1.09298e-08
1.99908e-05
-1.12575e-08
1.99906e-05
-1.15083e-08
-1.16542e-08
2e-05
-6.22593e-13
2e-05
-2.11794e-12
2e-05
-3.7479e-12
2e-05
-5.43615e-12
2e-05
-7.1696e-12
2e-05
-8.94448e-12
2e-05
-1.07588e-11
2e-05
-1.26133e-11
2e-05
-1.45108e-11
2e-05
-1.64563e-11
2e-05
-1.84562e-11
2e-05
-2.05187e-11
2e-05
-2.26528e-11
2e-05
-2.48688e-11
2e-05
-2.71779e-11
2e-05
-2.95926e-11
2e-05
-3.21262e-11
1.99999e-05
-3.47935e-11
1.99999e-05
-3.76104e-11
1.99999e-05
-4.05943e-11
1.99999e-05
-4.37641e-11
1.99999e-05
-4.71406e-11
1.99999e-05
-5.07463e-11
1.99999e-05
-5.46058e-11
1.99999e-05
-5.87459e-11
1.99999e-05
-6.31958e-11
1.99999e-05
-6.79874e-11
1.99999e-05
-7.31555e-11
1.99998e-05
-7.87377e-11
1.99998e-05
-8.47751e-11
1.99998e-05
-9.13125e-11
1.99998e-05
-9.83981e-11
1.99998e-05
-1.06084e-10
1.99998e-05
-1.14429e-10
1.99997e-05
-1.23492e-10
1.99997e-05
-1.33341e-10
1.99997e-05
-1.44048e-10
1.99997e-05
-1.5569e-10
1.99996e-05
-1.68351e-10
1.99996e-05
-1.82121e-10
1.99996e-05
-1.97096e-10
1.99995e-05
-2.13382e-10
1.99995e-05
-2.31089e-10
1.99995e-05
-2.50337e-10
1.99994e-05
-2.71255e-10
1.99994e-05
-2.9398e-10
1.99993e-05
-3.1866e-10
1.99993e-05
-3.45451e-10
1.99992e-05
-3.74522e-10
1.99992e-05
-4.06051e-10
1.99991e-05
-4.4023e-10
1.99991e-05
-4.77261e-10
1.9999e-05
-5.17361e-10
1.9999e-05
-5.6076e-10
1.99989e-05
-6.07702e-10
1.99988e-05
-6.58446e-10
1.99987e-05
-7.13267e-10
1.99986e-05
-7.72456e-10
1.99986e-05
-8.36322e-10
1.99985e-05
-9.05191e-10
1.99984e-05
-9.79406e-10
1.99983e-05
-1.05933e-09
1.99982e-05
-1.14535e-09
1.99981e-05
-1.23787e-09
1.99979e-05
-1.33731e-09
1.99978e-05
-1.44412e-09
1.99977e-05
-1.55877e-09
1.99976e-05
-1.68174e-09
1.99974e-05
-1.81356e-09
1.99973e-05
-1.95476e-09
1.99971e-05
-2.10588e-09
1.9997e-05
-2.26753e-09
1.99968e-05
-2.44028e-09
1.99966e-05
-2.62475e-09
1.99964e-05
-2.82159e-09
1.99963e-05
-3.03142e-09
1.99961e-05
-3.2549e-09
1.99959e-05
-3.49268e-09
1.99957e-05
-3.74538e-09
1.99955e-05
-4.01363e-09
1.99952e-05
-4.298e-09
1.9995e-05
-4.599e-09
1.99948e-05
-4.91709e-09
1.99945e-05
-5.25256e-09
1.99943e-05
-5.6056e-09
1.99941e-05
-5.97615e-09
1.99938e-05
-6.36391e-09
1.99935e-05
-6.76818e-09
1.99933e-05
-7.18785e-09
1.9993e-05
-7.62119e-09
1.99928e-05
-8.06571e-09
1.99925e-05
-8.51798e-09
1.99922e-05
-8.97335e-09
1.9992e-05
-9.42561e-09
1.99917e-05
-9.86659e-09
1.99914e-05
-1.02856e-08
1.99912e-05
-1.06688e-08
1.99909e-05
-1.09982e-08
1.99907e-05
-1.12509e-08
-1.13999e-08
2e-05
-4.92351e-13
2e-05
-1.71233e-12
2e-05
-3.06017e-12
2e-05
-4.46542e-12
2e-05
-5.91624e-12
2e-05
-7.40815e-12
2e-05
-8.93748e-12
2e-05
-1.05025e-11
2e-05
-1.21035e-11
2e-05
-1.37428e-11
2e-05
-1.54243e-11
2e-05
-1.71535e-11
2e-05
-1.89372e-11
2e-05
-2.07833e-11
2e-05
-2.2701e-11
2e-05
-2.47005e-11
2e-05
-2.67932e-11
2e-05
-2.89917e-11
1.99999e-05
-3.13101e-11
1.99999e-05
-3.37635e-11
1.99999e-05
-3.63688e-11
1.99999e-05
-3.91446e-11
1.99999e-05
-4.21112e-11
1.99999e-05
-4.52908e-11
1.99999e-05
-4.8708e-11
1.99999e-05
-5.23895e-11
1.99999e-05
-5.63647e-11
1.99999e-05
-6.06655e-11
1.99998e-05
-6.53271e-11
1.99998e-05
-7.03877e-11
1.99998e-05
-7.5889e-11
1.99998e-05
-8.18763e-11
1.99998e-05
-8.83989e-11
1.99998e-05
-9.55106e-11
1.99997e-05
-1.0327e-10
1.99997e-05
-1.11739e-10
1.99997e-05
-1.20986e-10
1.99997e-05
-1.31087e-10
1.99996e-05
-1.42119e-10
1.99996e-05
-1.5417e-10
1.99996e-05
-1.67332e-10
1.99996e-05
-1.81705e-10
1.99995e-05
-1.97397e-10
1.99995e-05
-2.14523e-10
1.99995e-05
-2.33207e-10
1.99994e-05
-2.53584e-10
1.99994e-05
-2.75794e-10
1.99993e-05
-2.99992e-10
1.99993e-05
-3.2634e-10
1.99992e-05
-3.55013e-10
1.99992e-05
-3.86198e-10
1.99991e-05
-4.20093e-10
1.99991e-05
-4.56911e-10
1.9999e-05
-4.96877e-10
1.99989e-05
-5.40232e-10
1.99988e-05
-5.87231e-10
1.99988e-05
-6.38146e-10
1.99987e-05
-6.93264e-10
1.99986e-05
-7.52891e-10
1.99985e-05
-8.17351e-10
1.99984e-05
-8.86985e-10
1.99983e-05
-9.62157e-10
1.99982e-05
-1.04325e-09
1.99981e-05
-1.13067e-09
1.9998e-05
-1.22483e-09
1.99979e-05
-1.3262e-09
1.99978e-05
-1.43523e-09
1.99976e-05
-1.55243e-09
1.99975e-05
-1.67831e-09
1.99974e-05
-1.81342e-09
1.99972e-05
-1.95832e-09
1.99971e-05
-2.11361e-09
1.99969e-05
-2.27988e-09
1.99967e-05
-2.45778e-09
1.99966e-05
-2.64796e-09
1.99964e-05
-2.85107e-09
1.99962e-05
-3.06778e-09
1.9996e-05
-3.29878e-09
1.99958e-05
-3.54473e-09
1.99956e-05
-3.80628e-09
1.99954e-05
-4.08405e-09
1.99952e-05
-4.37859e-09
1.99949e-05
-4.69039e-09
1.99947e-05
-5.01982e-09
1.99945e-05
-5.3671e-09
1.99942e-05
-5.73224e-09
1.9994e-05
-6.11499e-09
1.99937e-05
-6.51473e-09
1.99935e-05
-6.93038e-09
1.99932e-05
-7.36027e-09
1.99929e-05
-7.80194e-09
1.99927e-05
-8.25199e-09
1.99924e-05
-8.70575e-09
1.99921e-05
-9.15696e-09
1.99919e-05
-9.5974e-09
1.99916e-05
-1.00163e-08
1.99913e-05
-1.03997e-08
1.99911e-05
-1.07295e-08
1.99908e-05
-1.0983e-08
-1.11332e-08
2e-05
-3.72083e-13
2e-05
-1.33681e-12
2e-05
-2.42032e-12
2e-05
-3.55759e-12
2e-05
-4.73813e-12
2e-05
-5.95725e-12
2e-05
-7.2102e-12
2e-05
-8.49358e-12
2e-05
-9.80568e-12
2e-05
-1.11466e-11
2e-05
-1.25179e-11
2e-05
-1.3923e-11
2e-05
-1.53664e-11
2e-05
-1.68539e-11
2e-05
-1.83927e-11
2e-05
-1.99908e-11
2e-05
-2.16577e-11
2e-05
-2.34041e-11
1.99999e-05
-2.52419e-11
1.99999e-05
-2.71843e-11
1.99999e-05
-2.92462e-11
1.99999e-05
-3.1444e-11
1.99999e-05
-3.37957e-11
1.99999e-05
-3.63216e-11
1.99999e-05
-3.90438e-11
1.99999e-05
-4.19866e-11
1.99999e-05
-4.5177e-11
1.99999e-05
-4.86444e-11
1.99999e-05
-5.24212e-11
1.99998e-05
-5.6543e-11
1.99998e-05
-6.10485e-11
1.99998e-05
-6.59802e-11
1.99998e-05
-7.13843e-11
1.99998e-05
-7.73114e-11
1.99998e-05
-8.38163e-11
1.99997e-05
-9.09587e-11
1.99997e-05
-9.88035e-11
1.99997e-05
-1.07421e-10
1.99997e-05
-1.16887e-10
1.99996e-05
-1.27284e-10
1.99996e-05
-1.38701e-10
1.99996e-05
-1.51234e-10
1.99995e-05
-1.64986e-10
1.99995e-05
-1.8007e-10
1.99995e-05
-1.96604e-10
1.99994e-05
-2.14718e-10
1.99994e-05
-2.3455e-10
1.99993e-05
-2.56248e-10
1.99993e-05
-2.79972e-10
1.99993e-05
-3.05891e-10
1.99992e-05
-3.34188e-10
1.99991e-05
-3.65058e-10
1.99991e-05
-3.98708e-10
1.9999e-05
-4.3536e-10
1.9999e-05
-4.7525e-10
1.99989e-05
-5.1863e-10
1.99988e-05
-5.65768e-10
1.99987e-05
-6.16948e-10
1.99987e-05
-6.72473e-10
1.99986e-05
-7.32664e-10
1.99985e-05
-7.97861e-10
1.99984e-05
-8.68424e-10
1.99983e-05
-9.44735e-10
1.99982e-05
-1.0272e-09
1.99981e-05
-1.11624e-09
1.9998e-05
-1.21231e-09
1.99979e-05
-1.31588e-09
1.99977e-05
-1.42745e-09
1.99976e-05
-1.54754e-09
1.99975e-05
-1.6767e-09
1.99973e-05
-1.81551e-09
1.99972e-05
-1.96456e-09
1.9997e-05
-2.12448e-09
1.99969e-05
-2.29591e-09
1.99967e-05
-2.47952e-09
1.99965e-05
-2.67598e-09
1.99963e-05
-2.88599e-09
1.99961e-05
-3.11024e-09
1.99959e-05
-3.34944e-09
1.99957e-05
-3.60425e-09
1.99955e-05
-3.87534e-09
1.99953e-05
-4.16329e-09
1.99951e-05
-4.46863e-09
1.99949e-05
-4.79178e-09
1.99946e-05
-5.133e-09
1.99944e-05
-5.49235e-09
1.99941e-05
-5.86962e-09
1.99939e-05
-6.26424e-09
1.99936e-05
-6.67518e-09
1.99934e-05
-7.1008e-09
1.99931e-05
-7.53869e-09
1.99929e-05
-7.98544e-09
1.99926e-05
-8.43639e-09
1.99923e-05
-8.88527e-09
1.9992e-05
-9.32381e-09
1.99918e-05
-9.7412e-09
1.99915e-05
-1.01234e-08
1.99912e-05
-1.04526e-08
1.99909e-05
-1.07059e-08
-1.08562e-08
2e-05
-2.6096e-13
2e-05
-9.88743e-13
2e-05
-1.82491e-12
2e-05
-2.70946e-12
2e-05
-3.63306e-12
2e-05
-4.59103e-12
2e-05
-5.57797e-12
2e-05
-6.58929e-12
2e-05
-7.62172e-12
2e-05
-8.67353e-12
2e-05
-9.74451e-12
2e-05
-1.08359e-11
2e-05
-1.19503e-11
2e-05
-1.30917e-11
2e-05
-1.4265e-11
2e-05
-1.54766e-11
2e-05
-1.6734e-11
2e-05
-1.80458e-11
1.99999e-05
-1.94221e-11
1.99999e-05
-2.08742e-11
1.99999e-05
-2.24149e-11
1.99999e-05
-2.40585e-11
1.99999e-05
-2.58212e-11
1.99999e-05
-2.77208e-11
1.99999e-05
-2.97774e-11
1.99999e-05
-3.20129e-11
1.99999e-05
-3.44519e-11
1.99999e-05
-3.71214e-11
1.99999e-05
-4.00513e-11
1.99998e-05
-4.32743e-11
1.99998e-05
-4.68266e-11
1.99998e-05
-5.07478e-11
1.99998e-05
-5.5081e-11
1.99998e-05
-5.98739e-11
1.99998e-05
-6.5178e-11
1.99997e-05
-7.10498e-11
1.99997e-05
-7.75508e-11
1.99997e-05
-8.47477e-11
1.99997e-05
-9.2713e-11
1.99996e-05
-1.01525e-10
1.99996e-05
-1.1127e-10
1.99996e-05
-1.22039e-10
1.99996e-05
-1.33931e-10
1.99995e-05
-1.47055e-10
1.99995e-05
-1.61526e-10
1.99995e-05
-1.77468e-10
1.99994e-05
-1.95016e-10
1.99994e-05
-2.14314e-10
1.99993e-05
-2.35517e-10
1.99993e-05
-2.5879e-10
1.99992e-05
-2.84311e-10
1.99992e-05
-3.12271e-10
1.99991e-05
-3.42873e-10
1.99991e-05
-3.76335e-10
1.9999e-05
-4.12889e-10
1.99989e-05
-4.52782e-10
1.99989e-05
-4.96279e-10
1.99988e-05
-5.4366e-10
1.99987e-05
-5.95226e-10
1.99986e-05
-6.51294e-10
1.99986e-05
-7.12201e-10
1.99985e-05
-7.78307e-10
1.99984e-05
-8.49991e-10
1.99983e-05
-9.27656e-10
1.99982e-05
-1.01173e-09
1.99981e-05
-1.10266e-09
1.99979e-05
-1.20092e-09
1.99978e-05
-1.30701e-09
1.99977e-05
-1.42146e-09
1.99976e-05
-1.54482e-09
1.99974e-05
-1.67768e-09
1.99973e-05
-1.82063e-09
1.99971e-05
-1.97431e-09
1.9997e-05
-2.13938e-09
1.99968e-05
-2.31651e-09
1.99966e-05
-2.50639e-09
1.99965e-05
-2.70975e-09
1.99963e-05
-2.92729e-09
1.99961e-05
-3.15973e-09
1.99959e-05
-3.40778e-09
1.99957e-05
-3.67211e-09
1.99955e-05
-3.95335e-09
1.99953e-05
-4.25206e-09
1.9995e-05
-4.56869e-09
1.99948e-05
-4.90354e-09
1.99946e-05
-5.25671e-09
1.99943e-05
-5.62803e-09
1.99941e-05
-6.01697e-09
1.99938e-05
-6.42254e-09
1.99936e-05
-6.84312e-09
1.99933e-05
-7.27634e-09
1.9993e-05
-7.7188e-09
1.99928e-05
-8.16585e-09
1.99925e-05
-8.61123e-09
1.99922e-05
-9.04666e-09
1.99919e-05
-9.46134e-09
1.99917e-05
-9.84131e-09
1.99914e-05
-1.01687e-08
1.99911e-05
-1.04209e-08
-1.05706e-08
2e-05
-1.58864e-13
2e-05
-6.65877e-13
2e-05
-1.27112e-12
2e-05
-1.91823e-12
2e-05
-2.59888e-12
2e-05
-3.30842e-12
2e-05
-4.04106e-12
2e-05
-4.79134e-12
2e-05
-5.5548e-12
2e-05
-6.32828e-12
2e-05
-7.10995e-12
2e-05
-7.89935e-12
2e-05
-8.69731e-12
2e-05
-9.50591e-12
2e-05
-1.03284e-11
2e-05
-1.11694e-11
2e-05
-1.20343e-11
2e-05
-1.29303e-11
2e-05
-1.38652e-11
1.99999e-05
-1.48487e-11
1.99999e-05
-1.58915e-11
1.99999e-05
-1.70062e-11
1.99999e-05
-1.82066e-11
1.99999e-05
-1.95088e-11
1.99999e-05
-2.09305e-11
1.99999e-05
-2.24916e-11
1.99999e-05
-2.42142e-11
1.99999e-05
-2.6123e-11
1.99999e-05
-2.82455e-11
1.99999e-05
-3.06117e-11
1.99998e-05
-3.32553e-11
1.99998e-05
-3.6213e-11
1.99998e-05
-3.95252e-11
1.99998e-05
-4.32365e-11
1.99998e-05
-4.73954e-11
1.99998e-05
-5.20553e-11
1.99997e-05
-5.72743e-11
1.99997e-05
-6.31157e-11
1.99997e-05
-6.96487e-11
1.99997e-05
-7.69482e-11