/*--------------------------------*- C++ -*----------------------------------*\
  =========                 |
  \\      /  F ield         | OpenFOAM: The Open Source CFD Toolbox
   \\    /   O peration     | Website:  https://openfoam.org
    \\  /    A nd           | Version:  11
     \\/     M anipulation  |
\*---------------------------------------------------------------------------*/
FoamFile
{
    format      ascii;
    class       volScalarField;
    location    "1188";
    object      p;
}
// * * * * * * * * * * * * * * * * * * * * * * * * * * * * * * * * * * * * * //

dimensions      [0 2 -2 0 0 0 0];

internalField   nonuniform List<scalar> 
10000
(
2.01351e-12
1.95713e-12
2.02178e-12
2.16829e-12
2.33948e-12
2.52241e-12
2.71585e-12
2.91933e-12
3.13271e-12
3.35632e-12
3.5907e-12
3.83653e-12
4.09455e-12
4.36552e-12
4.65024e-12
4.94954e-12
5.26426e-12
5.59527e-12
5.94344e-12
6.3097e-12
6.69499e-12
7.10026e-12
7.5265e-12
7.97474e-12
8.44602e-12
8.94142e-12
9.46203e-12
1.0009e-11
1.05835e-11
1.11866e-11
1.18197e-11
1.2484e-11
1.31807e-11
1.39112e-11
1.46767e-11
1.54787e-11
1.63184e-11
1.71972e-11
1.81166e-11
1.9078e-11
2.00827e-11
2.11321e-11
2.22278e-11
2.33709e-11
2.4563e-11
2.58053e-11
2.70992e-11
2.84458e-11
2.98465e-11
3.13023e-11
3.28142e-11
3.43831e-11
3.601e-11
3.76953e-11
3.94397e-11
4.12435e-11
4.31066e-11
4.50291e-11
4.70104e-11
4.90497e-11
5.1146e-11
5.32978e-11
5.5503e-11
5.77593e-11
6.00634e-11
6.24117e-11
6.47998e-11
6.72225e-11
6.96734e-11
7.21456e-11
7.46307e-11
7.71192e-11
7.96e-11
8.20607e-11
8.4487e-11
8.68626e-11
8.9169e-11
9.13854e-11
9.34882e-11
9.54508e-11
9.72431e-11
9.88311e-11
1.00177e-10
1.01238e-10
1.01965e-10
1.02304e-10
1.02194e-10
1.01567e-10
1.00343e-10
9.8435e-11
9.57413e-11
9.21455e-11
8.75115e-11
8.16752e-11
7.44253e-11
6.54795e-11
5.45207e-11
4.1576e-11
2.34935e-11
1.59153e-12
3.83257e-12
3.6105e-12
3.47563e-12
3.52189e-12
3.6482e-12
3.81459e-12
4.01016e-12
4.22914e-12
4.46789e-12
4.72452e-12
4.99827e-12
5.28894e-12
5.5967e-12
5.92195e-12
6.26527e-12
6.62734e-12
7.00894e-12
7.41092e-12
7.83418e-12
8.27969e-12
8.74846e-12
9.24154e-12
9.76003e-12
1.03051e-11
1.08778e-11
1.14795e-11
1.21113e-11
1.27746e-11
1.34707e-11
1.42008e-11
1.49665e-11
1.5769e-11
1.66099e-11
1.74906e-11
1.84126e-11
1.93773e-11
2.03863e-11
2.14411e-11
2.25433e-11
2.36943e-11
2.48958e-11
2.61492e-11
2.74561e-11
2.88179e-11
3.0236e-11
3.17119e-11
3.32468e-11
3.48421e-11
3.64988e-11
3.82181e-11
4.00009e-11
4.18481e-11
4.37601e-11
4.57375e-11
4.77804e-11
4.98889e-11
5.20626e-11
5.43009e-11
5.66027e-11
5.89667e-11
6.1391e-11
6.38731e-11
6.64101e-11
6.89984e-11
7.16335e-11
7.43103e-11
7.70228e-11
7.97637e-11
8.25249e-11
8.52968e-11
8.80686e-11
9.08278e-11
9.35602e-11
9.62496e-11
9.88776e-11
1.01424e-10
1.03864e-10
1.06173e-10
1.08319e-10
1.10271e-10
1.1199e-10
1.13434e-10
1.14555e-10
1.153e-10
1.15609e-10
1.15415e-10
1.14642e-10
1.13204e-10
1.11004e-10
1.07932e-10
1.03863e-10
9.865e-11
9.21225e-11
8.40724e-11
7.42433e-11
6.23552e-11
4.81108e-11
3.04056e-11
4.74094e-12
-1.78965e-11
4.74598e-12
4.43597e-12
4.1705e-12
4.09214e-12
4.11266e-12
4.18871e-12
4.30567e-12
4.45475e-12
4.62979e-12
4.82699e-12
5.04411e-12
5.27981e-12
5.53339e-12
5.80453e-12
6.09322e-12
6.39966e-12
6.72419e-12
7.06728e-12
7.4295e-12
7.81149e-12
8.21395e-12
8.63766e-12
9.08342e-12
9.5521e-12
1.00446e-11
1.05618e-11
1.11048e-11
1.16744e-11
1.22718e-11
1.2898e-11
1.3554e-11
1.4241e-11
1.49601e-11
1.57123e-11
1.6499e-11
1.73211e-11
1.81799e-11
1.90765e-11
2.00121e-11
2.09878e-11
2.20048e-11
2.30642e-11
2.4167e-11
2.53144e-11
2.65073e-11
2.77466e-11
2.90333e-11
3.03681e-11
3.17517e-11
3.31848e-11
3.46677e-11
3.62009e-11
3.77845e-11
3.94184e-11
4.11024e-11
4.28361e-11
4.46186e-11
4.64488e-11
4.83255e-11
5.02467e-11
5.22102e-11
5.42133e-11
5.62528e-11
5.83247e-11
6.04246e-11
6.25472e-11
6.46864e-11
6.6835e-11
6.89851e-11
7.11275e-11
7.32517e-11
7.53457e-11
7.73962e-11
7.9388e-11
8.13039e-11
8.31247e-11
8.48287e-11
8.63917e-11
8.77865e-11
8.89824e-11
8.99454e-11
9.06373e-11
9.10152e-11
9.10314e-11
9.06321e-11
8.97575e-11
8.83402e-11
8.63043e-11
8.35645e-11
8.00239e-11
7.5572e-11
7.00818e-11
6.34049e-11
5.5362e-11
4.57441e-11
3.43677e-11
2.09849e-11
3.95924e-12
-1.99447e-11
-3.58559e-11
5.53627e-12
5.20507e-12
4.91299e-12
4.78569e-12
4.75382e-12
4.78198e-12
4.85671e-12
4.96884e-12
5.11149e-12
5.28002e-12
5.4714e-12
5.68365e-12
5.91551e-12
6.16622e-12
6.43538e-12
6.72286e-12
7.02875e-12
7.35327e-12
7.69678e-12
8.05974e-12
8.44269e-12
8.84623e-12
9.27104e-12
9.71783e-12
1.01873e-11
1.06804e-11
1.11978e-11
1.17405e-11
1.23093e-11
1.29051e-11
1.35289e-11
1.41816e-11
1.48642e-11
1.55776e-11
1.63229e-11
1.71011e-11
1.7913e-11
1.87597e-11
1.96422e-11
2.05615e-11
2.15183e-11
2.25137e-11
2.35485e-11
2.46236e-11
2.57396e-11
2.68973e-11
2.80972e-11
2.934e-11
3.06261e-11
3.19556e-11
3.33289e-11
3.47459e-11
3.62064e-11
3.77101e-11
3.92564e-11
4.08445e-11
4.24731e-11
4.41409e-11
4.58461e-11
4.75864e-11
4.93592e-11
5.11614e-11
5.29893e-11
5.48386e-11
5.67044e-11
5.85808e-11
6.04615e-11
6.2339e-11
6.42047e-11
6.6049e-11
6.78611e-11
6.96287e-11
7.1338e-11
7.29735e-11
7.45179e-11
7.59517e-11
7.72531e-11
7.83977e-11
7.93584e-11
8.01049e-11
8.06034e-11
8.08161e-11
8.07011e-11
8.02115e-11
7.92953e-11
7.78941e-11
7.59432e-11
7.33697e-11
7.00925e-11
6.60199e-11
6.10488e-11
5.50622e-11
4.79256e-11
3.94791e-11
2.9547e-11
1.80177e-11
4.71081e-12
-1.2342e-11
-3.66764e-11
-4.80417e-11
6.2261e-12
5.90001e-12
5.61272e-12
5.46695e-12
5.40776e-12
5.40802e-12
5.45671e-12
5.54542e-12
5.66745e-12
5.81797e-12
5.99365e-12
6.19216e-12
6.41193e-12
6.65188e-12
6.91136e-12
7.19001e-12
7.48772e-12
7.80454e-12
8.14068e-12
8.49646e-12
8.87228e-12
9.26864e-12
9.68611e-12
1.01253e-11
1.05868e-11
1.10715e-11
1.15799e-11
1.2113e-11
1.26714e-11
1.3256e-11
1.38676e-11
1.45071e-11
1.51754e-11
1.58732e-11
1.66016e-11
1.73612e-11
1.81531e-11
1.8978e-11
1.98368e-11
2.07303e-11
2.16592e-11
2.26243e-11
2.36263e-11
2.46659e-11
2.57435e-11
2.68598e-11
2.8015e-11
2.92096e-11
3.04437e-11
3.17173e-11
3.30305e-11
3.43828e-11
3.5774e-11
3.72033e-11
3.86698e-11
4.01724e-11
4.17095e-11
4.32795e-11
4.48801e-11
4.65088e-11
4.81625e-11
4.98377e-11
5.15303e-11
5.32355e-11
5.4948e-11
5.66616e-11
5.83691e-11
6.00628e-11
6.17335e-11
6.33712e-11
6.49645e-11
6.65005e-11
6.7965e-11
6.9342e-11
7.06135e-11
7.17596e-11
7.27582e-11
7.35843e-11
7.42105e-11
7.46062e-11
7.47375e-11
7.45665e-11
7.40514e-11
7.31459e-11
7.17983e-11
6.99516e-11
6.75425e-11
6.45005e-11
6.07478e-11
5.61976e-11
5.07535e-11
4.43087e-11
3.6743e-11
2.79174e-11
1.769e-11
6.02625e-12
-7.13834e-12
-2.40229e-11
-4.94127e-11
-5.62336e-11
6.81655e-12
6.50563e-12
6.22921e-12
6.0752e-12
5.99877e-12
5.97898e-12
6.00724e-12
6.0763e-12
6.18001e-12
6.31373e-12
6.47408e-12
6.6586e-12
6.86551e-12
7.09355e-12
7.34188e-12
7.60997e-12
7.89753e-12
8.20447e-12
8.53086e-12
8.87688e-12
9.24285e-12
9.62913e-12
1.00362e-11
1.04645e-11
1.09147e-11
1.13873e-11
1.1883e-11
1.24024e-11
1.29463e-11
1.35154e-11
1.41104e-11
1.4732e-11
1.5381e-11
1.60581e-11
1.67642e-11
1.74998e-11
1.82659e-11
1.9063e-11
1.98918e-11
2.07531e-11
2.16475e-11
2.25754e-11
2.35375e-11
2.45342e-11
2.55659e-11
2.66329e-11
2.77355e-11
2.88736e-11
3.00472e-11
3.12563e-11
3.25005e-11
3.37792e-11
3.50917e-11
3.64373e-11
3.78145e-11
3.92221e-11
4.06581e-11
4.21206e-11
4.36071e-11
4.51145e-11
4.66396e-11
4.81784e-11
4.97265e-11
5.12788e-11
5.28295e-11
5.43721e-11
5.5899e-11
5.74021e-11
5.88719e-11
6.0298e-11
6.16685e-11
6.29705e-11
6.41891e-11
6.53082e-11
6.63096e-11
6.71731e-11
6.78765e-11
6.83949e-11
6.87008e-11
6.87639e-11
6.85505e-11
6.80235e-11
6.71419e-11
6.58604e-11
6.41291e-11
6.1893e-11
5.90916e-11
5.56584e-11
5.15202e-11
4.65971e-11
4.08018e-11
3.40399e-11
2.62088e-11
1.71927e-11
6.88546e-12
-4.67528e-12
-1.74345e-11
-3.37267e-11
-5.92168e-11
-6.27436e-11
7.33472e-12
7.04199e-12
6.7789e-12
6.62283e-12
6.53613e-12
6.50235e-12
6.51492e-12
6.56787e-12
6.65577e-12
6.77435e-12
6.92036e-12
7.09133e-12
7.2854e-12
7.50121e-12
7.73779e-12
7.99449e-12
8.27089e-12
8.56678e-12
8.8821e-12
9.21693e-12
9.57146e-12
9.94598e-12
1.03408e-11
1.07564e-11
1.11932e-11
1.16517e-11
1.21325e-11
1.26361e-11
1.31631e-11
1.37142e-11
1.42899e-11
1.4891e-11
1.5518e-11
1.61716e-11
1.68524e-11
1.7561e-11
1.82981e-11
1.90642e-11
1.98599e-11
2.06856e-11
2.15419e-11
2.24292e-11
2.33478e-11
2.4298e-11
2.528e-11
2.6294e-11
2.73399e-11
2.84177e-11
2.95271e-11
3.06677e-11
3.1839e-11
3.30403e-11
3.42705e-11
3.55285e-11
3.68129e-11
3.8122e-11
3.94536e-11
4.08055e-11
4.21748e-11
4.35583e-11
4.49524e-11
4.63529e-11
4.7755e-11
4.91534e-11
5.05418e-11
5.19136e-11
5.32609e-11
5.45751e-11
5.58468e-11
5.7065e-11
5.82178e-11
5.9292e-11
6.02727e-11
6.11436e-11
6.18864e-11
6.24811e-11
6.29055e-11
6.3135e-11
6.31426e-11
6.28984e-11
6.23695e-11
6.152e-11
6.031e-11
5.86961e-11
5.66306e-11
5.40614e-11
5.09314e-11
4.71789e-11
4.27365e-11
3.75319e-11
3.14878e-11
2.45226e-11
1.65507e-11
7.47796e-12
-2.77248e-12
-1.41112e-11
-2.64088e-11
-4.21171e-11
-6.74852e-11
-6.90794e-11
7.80053e-12
7.526e-12
7.27702e-12
7.12288e-12
7.03094e-12
6.98797e-12
6.98906e-12
7.02934e-12
7.10415e-12
7.20969e-12
7.34291e-12
7.50145e-12
7.68347e-12
7.88757e-12
8.1127e-12
8.35811e-12
8.62331e-12
8.90798e-12
9.21197e-12
9.53528e-12
9.87798e-12
1.02403e-11
1.06224e-11
1.10247e-11
1.14475e-11
1.18913e-11
1.23565e-11
1.28436e-11
1.33531e-11
1.38855e-11
1.44414e-11
1.50212e-11
1.56255e-11
1.62549e-11
1.69098e-11
1.75907e-11
1.82982e-11
1.90327e-11
1.97946e-11
2.05842e-11
2.1402e-11
2.22481e-11
2.31228e-11
2.40263e-11
2.49584e-11
2.59193e-11
2.69087e-11
2.79263e-11
2.89717e-11
3.00443e-11
3.11434e-11
3.2268e-11
3.34169e-11
3.45887e-11
3.57818e-11
3.69942e-11
3.82236e-11
3.94674e-11
4.07225e-11
4.19856e-11
4.32526e-11
4.45192e-11
4.57803e-11
4.70303e-11
4.82629e-11
4.9471e-11
5.06466e-11
5.17811e-11
5.28645e-11
5.38859e-11
5.48334e-11
5.56935e-11
5.64515e-11
5.70909e-11
5.75938e-11
5.79403e-11
5.81084e-11
5.80741e-11
5.7811e-11
5.729e-11
5.64794e-11
5.53443e-11
5.38468e-11
5.19454e-11
4.9595e-11
4.67468e-11
4.33477e-11
3.93408e-11
3.46651e-11
2.92558e-11
2.30453e-11
1.59641e-11
7.94124e-12
-1.09962e-12
-1.1214e-11
-2.2278e-11
-3.41249e-11
-4.93562e-11
-7.47211e-11
-7.47199e-11
8.22478e-12
7.96731e-12
7.73204e-12
7.58195e-12
7.48804e-12
7.43932e-12
7.43212e-12
7.46251e-12
7.52655e-12
7.62089e-12
7.74278e-12
7.89e-12
8.06076e-12
8.25369e-12
8.46771e-12
8.70203e-12
8.95608e-12
9.22947e-12
9.52199e-12
9.83353e-12
1.01641e-11
1.05138e-11
1.08828e-11
1.12714e-11
1.16799e-11
1.21085e-11
1.25576e-11
1.30277e-11
1.35191e-11
1.40323e-11
1.45677e-11
1.51258e-11
1.57069e-11
1.63115e-11
1.694e-11
1.75928e-11
1.82703e-11
1.89727e-11
1.97005e-11
2.04538e-11
2.12327e-11
2.20376e-11
2.28683e-11
2.37249e-11
2.46073e-11
2.55152e-11
2.64484e-11
2.74063e-11
2.83883e-11
2.93937e-11
3.04215e-11
3.14706e-11
3.25396e-11
3.36269e-11
3.47306e-11
3.58486e-11
3.69783e-11
3.8117e-11
3.92613e-11
4.04077e-11
4.1552e-11
4.26895e-11
4.38151e-11
4.49228e-11
4.60063e-11
4.70583e-11
4.80707e-11
4.90346e-11
4.99401e-11
5.07763e-11
5.1531e-11
5.2191e-11
5.27415e-11
5.31664e-11
5.3448e-11
5.35666e-11
5.35009e-11
5.32275e-11
5.27208e-11
5.19526e-11
5.08926e-11
4.95075e-11
4.77612e-11
4.56145e-11
4.30253e-11
3.99481e-11
3.6334e-11
3.21312e-11
2.72848e-11
2.17375e-11
1.54303e-11
8.30459e-12
3.01842e-13
-8.64038e-12
-1.85616e-11
-2.93138e-11
-4.07066e-11
-5.54673e-11
-8.07033e-11
-7.91922e-11
8.61409e-12
8.37213e-12
8.14973e-12
8.00476e-12
7.91091e-12
7.8588e-12
7.84567e-12
7.86834e-12
7.92349e-12
8.00818e-12
8.11998e-12
8.25683e-12
8.41707e-12
8.59934e-12
8.80258e-12
9.02598e-12
9.26893e-12
9.53099e-12
9.81188e-12
1.01114e-11
1.04296e-11
1.07664e-11
1.1122e-11
1.14964e-11
1.189e-11
1.23029e-11
1.27355e-11
1.31881e-11
1.3661e-11
1.41544e-11
1.46689e-11
1.52046e-11
1.5762e-11
1.63414e-11
1.69431e-11
1.75673e-11
1.82143e-11
1.88844e-11
1.95776e-11
2.02942e-11
2.10342e-11
2.17976e-11
2.25842e-11
2.3394e-11
2.42267e-11
2.50819e-11
2.59591e-11
2.68578e-11
2.7777e-11
2.87159e-11
2.96735e-11
3.06482e-11
3.16387e-11
3.26431e-11
3.36593e-11
3.46851e-11
3.57178e-11
3.67543e-11
3.77912e-11
3.88246e-11
3.98504e-11
4.08637e-11
4.1859e-11
4.28306e-11
4.37717e-11
4.4675e-11
4.55323e-11
4.63348e-11
4.70725e-11
4.77345e-11
4.83088e-11
4.87822e-11
4.91402e-11
4.9367e-11
4.94451e-11
4.93556e-11
4.90777e-11
4.85888e-11
4.78641e-11
4.6877e-11
4.55982e-11
4.39964e-11
4.20375e-11
3.96849e-11
3.68993e-11
3.36387e-11
2.98587e-11
2.55121e-11
2.05501e-11
1.49221e-11
8.5773e-12
1.4661e-12
-6.45963e-12
-1.52514e-11
-2.4937e-11
-3.53506e-11
-4.62854e-11
-6.05655e-11
-8.55601e-11
-8.27054e-11
8.97299e-12
8.74508e-12
8.53464e-12
8.39525e-12
8.30274e-12
8.24888e-12
8.23155e-12
8.24818e-12
8.29593e-12
8.37229e-12
8.47508e-12
8.60243e-12
8.7528e-12
8.9249e-12
9.1177e-12
9.33039e-12
9.56233e-12
9.81306e-12
1.00822e-11
1.03697e-11
1.06752e-11
1.09989e-11
1.13406e-11
1.17006e-11
1.2079e-11
1.24759e-11
1.28915e-11
1.33261e-11
1.378e-11
1.42533e-11
1.47464e-11
1.52595e-11
1.57928e-11
1.63466e-11
1.6921e-11
1.75163e-11
1.81326e-11
1.877e-11
1.94286e-11
2.01083e-11
2.08092e-11
2.1531e-11
2.22737e-11
2.30368e-11
2.38201e-11
2.46229e-11
2.54447e-11
2.62847e-11
2.7142e-11
2.80155e-11
2.89038e-11
2.98057e-11
3.07192e-11
3.16426e-11
3.25736e-11
3.35096e-11
3.4448e-11
3.53854e-11
3.63184e-11
3.7243e-11
3.81547e-11
3.90487e-11
3.99194e-11
4.07609e-11
4.15664e-11
4.23286e-11
4.30393e-11
4.36896e-11
4.42696e-11
4.47686e-11
4.51747e-11
4.54749e-11
4.56551e-11
4.56998e-11
4.55921e-11
4.53136e-11
4.48444e-11
4.41626e-11
4.32448e-11
4.20654e-11
4.05969e-11
3.88098e-11
3.66721e-11
3.41498e-11
3.12067e-11
2.78043e-11
2.39021e-11
1.94579e-11
1.44283e-11
8.76879e-12
2.43573e-12
-4.61266e-12
-1.24161e-11
-2.10176e-11
-3.04361e-11
-4.04931e-11
-5.09701e-11
-6.47641e-11
-8.94376e-11
-8.54178e-11
9.30476e-12
9.0896e-12
8.89028e-12
8.75667e-12
8.66629e-12
8.61179e-12
8.59154e-12
8.60341e-12
8.645e-12
8.71411e-12
8.80881e-12
8.92743e-12
9.06855e-12
9.23095e-12
9.41365e-12
9.61585e-12
9.83691e-12
1.00763e-11
1.03338e-11
1.0609e-11
1.09018e-11
1.12121e-11
1.15398e-11
1.18851e-11
1.2248e-11
1.26285e-11
1.30269e-11
1.34433e-11
1.38778e-11
1.43307e-11
1.48021e-11
1.52922e-11
1.58011e-11
1.6329e-11
1.6876e-11
1.74422e-11
1.80276e-11
1.86322e-11
1.9256e-11
1.9899e-11
2.05608e-11
2.12413e-11
2.19402e-11
2.2657e-11
2.33913e-11
2.41423e-11
2.49094e-11
2.56916e-11
2.64879e-11
2.72971e-11
2.81177e-11
2.89481e-11
2.97866e-11
3.06311e-11
3.14791e-11
3.23281e-11
3.31751e-11
3.40169e-11
3.48498e-11
3.56696e-11
3.6472e-11
3.72519e-11
3.80037e-11
3.87214e-11
3.93984e-11
4.00271e-11
4.05996e-11
4.1107e-11
4.15395e-11
4.18865e-11
4.21366e-11
4.22769e-11
4.22937e-11
4.21721e-11
4.18956e-11
4.14467e-11
4.08062e-11
3.99534e-11
3.88659e-11
3.75196e-11
3.58887e-11
3.39455e-11
3.16603e-11
2.90018e-11
2.59365e-11
2.24295e-11
1.84443e-11
1.39431e-11
8.88721e-12
3.23811e-12
-3.04195e-12
-9.98814e-12
-1.76333e-11
-2.60139e-11
-3.51421e-11
-4.48305e-11
-5.48525e-11
-6.81571e-11
-9.24426e-11
-8.74226e-11
9.61189e-12
9.40843e-12
9.21948e-12
9.09164e-12
9.00388e-12
8.94953e-12
8.92729e-12
8.9354e-12
8.97178e-12
9.03453e-12
9.12194e-12
9.2325e-12
9.36492e-12
9.51806e-12
9.691e-12
9.88295e-12
1.00933e-11
1.03215e-11
1.05672e-11
1.08302e-11
1.11101e-11
1.14069e-11
1.17205e-11
1.20509e-11
1.2398e-11
1.2762e-11
1.3143e-11
1.35409e-11
1.39559e-11
1.43881e-11
1.48376e-11
1.53045e-11
1.57889e-11
1.62907e-11
1.68102e-11
1.73471e-11
1.79016e-11
1.84735e-11
1.90627e-11
1.96689e-11
2.02919e-11
2.09314e-11
2.15868e-11
2.22578e-11
2.29437e-11
2.36436e-11
2.43568e-11
2.50823e-11
2.58187e-11
2.6565e-11
2.73194e-11
2.80802e-11
2.88456e-11
2.96134e-11
3.0381e-11
3.11458e-11
3.19047e-11
3.26543e-11
3.3391e-11
3.41105e-11
3.48083e-11
3.54794e-11
3.61181e-11
3.67185e-11
3.72739e-11
3.77769e-11
3.82196e-11
3.85933e-11
3.88884e-11
3.90945e-11
3.92004e-11
3.91937e-11
3.90612e-11
3.87885e-11
3.83598e-11
3.77583e-11
3.69658e-11
3.59626e-11
3.47276e-11
3.32383e-11
3.14704e-11
2.93982e-11
2.69943e-11
2.42299e-11
2.10745e-11
1.74963e-11
1.34626e-11
8.93967e-12
3.89343e-12
-1.70984e-12
-7.90259e-12
-1.47145e-11
-2.21728e-11
-3.03086e-11
-3.91294e-11
-4.84414e-11
-5.80127e-11
-7.08253e-11
-9.46627e-11
-8.87912e-11
9.89635e-12
9.7037e-12
9.52449e-12
9.40236e-12
9.31751e-12
9.26384e-12
9.24031e-12
9.24541e-12
9.27736e-12
9.33448e-12
9.41526e-12
9.51836e-12
9.64257e-12
9.78687e-12
9.95036e-12
1.01323e-11
1.03321e-11
1.05492e-11
1.07833e-11
1.10339e-11
1.1301e-11
1.15842e-11
1.18836e-11
1.21989e-11
1.25303e-11
1.28776e-11
1.32409e-11
1.36202e-11
1.40155e-11
1.44269e-11
1.48544e-11
1.5298e-11
1.57577e-11
1.62336e-11
1.67254e-11
1.72332e-11
1.77568e-11
1.82961e-11
1.88507e-11
1.94205e-11
2.0005e-11
2.06039e-11
2.12165e-11
2.18422e-11
2.24804e-11
2.31301e-11
2.37904e-11
2.44602e-11
2.51382e-11
2.58229e-11
2.65128e-11
2.7206e-11
2.79005e-11
2.85939e-11
2.92838e-11
2.99674e-11
3.06414e-11
3.13026e-11
3.19471e-11
3.25707e-11
3.31688e-11
3.37364e-11
3.4268e-11
3.47575e-11
3.51984e-11
3.55834e-11
3.59047e-11
3.61537e-11
3.63212e-11
3.63971e-11
3.63705e-11
3.62295e-11
3.59613e-11
3.5552e-11
3.49869e-11
3.42498e-11
3.33235e-11
3.21894e-11
3.08279e-11
2.92177e-11
2.73364e-11
2.51603e-11
2.2664e-11
1.98213e-11
1.66044e-11
1.29848e-11
8.93307e-12
4.41918e-12
-5.8679e-13
-6.11426e-12
-1.21912e-11
-1.88425e-11
-2.60912e-11
-3.3964e-11
-4.24646e-11
-5.13955e-11
-6.05215e-11
-7.28402e-11
-9.61745e-11
-8.95846e-11
1.01598e-11
9.97724e-12
9.80723e-12
9.69068e-12
9.60891e-12
9.5563e-12
9.53197e-12
9.53466e-12
9.56279e-12
9.61488e-12
9.6896e-12
9.78573e-12
9.90219e-12
1.0038e-11
1.01924e-11
1.03646e-11
1.0554e-11
1.07601e-11
1.09826e-11
1.12211e-11
1.14752e-11
1.17449e-11
1.203e-11
1.23303e-11
1.26457e-11
1.29763e-11
1.33218e-11
1.36824e-11
1.4058e-11
1.44486e-11
1.4854e-11
1.52743e-11
1.57094e-11
1.61592e-11
1.66236e-11
1.71023e-11
1.75953e-11
1.81021e-11
1.86226e-11
1.91563e-11
1.97028e-11
2.02615e-11
2.08318e-11
2.14131e-11
2.20044e-11
2.26049e-11
2.32134e-11
2.38288e-11
2.44497e-11
2.50746e-11
2.57018e-11
2.63293e-11
2.69551e-11
2.75768e-11
2.81917e-11
2.87971e-11
2.93897e-11
2.99662e-11
3.05226e-11
3.10547e-11
3.15581e-11
3.20277e-11
3.2458e-11
3.2843e-11
3.31764e-11
3.34509e-11
3.3659e-11
3.37924e-11
3.3842e-11
3.37981e-11
3.36503e-11
3.3387e-11
3.29962e-11
3.24646e-11
3.1778e-11
3.09214e-11
2.98785e-11
2.86319e-11
2.71632e-11
2.54528e-11
2.34799e-11
2.12227e-11
1.86579e-11
1.57618e-11
1.25092e-11
8.87441e-12
4.8312e-12
3.53017e-13
-4.58647e-12
-1.00129e-11
-1.59503e-11
-2.24199e-11
-2.94408e-11
-3.70364e-11
-4.52077e-11
-5.37549e-11
-6.24416e-11
-7.42651e-11
-9.70458e-11
-8.98569e-11
1.04036e-11
1.02305e-11
1.00693e-11
9.95819e-12
9.87961e-12
9.8283e-12
9.80357e-12
9.80429e-12
9.82909e-12
9.87666e-12
9.94579e-12
1.00354e-11
1.01445e-11
1.02722e-11
1.04177e-11
1.05804e-11
1.07597e-11
1.0955e-11
1.1166e-11
1.13923e-11
1.16337e-11
1.18899e-11
1.21606e-11
1.24459e-11
1.27454e-11
1.30591e-11
1.3387e-11
1.37289e-11
1.40848e-11
1.44544e-11
1.48379e-11
1.5235e-11
1.56455e-11
1.60694e-11
1.65065e-11
1.69564e-11
1.74189e-11
1.78937e-11
1.83803e-11
1.88784e-11
1.93874e-11
1.99066e-11
2.04354e-11
2.0973e-11
2.15185e-11
2.20708e-11
2.26288e-11
2.31912e-11
2.37566e-11
2.43234e-11
2.48897e-11
2.54537e-11
2.60131e-11
2.65656e-11
2.71085e-11
2.76389e-11
2.81535e-11
2.8649e-11
2.91215e-11
2.95668e-11
2.99804e-11
3.03573e-11
3.06921e-11
3.09791e-11
3.12118e-11
3.13833e-11
3.14863e-11
3.15127e-11
3.14538e-11
3.13003e-11
3.10421e-11
3.06683e-11
3.01673e-11
2.95266e-11
2.8733e-11
2.7772e-11
2.66287e-11
2.52867e-11
2.37289e-11
2.19373e-11
1.98927e-11
1.75751e-11
1.49636e-11
1.20363e-11
8.77076e-12
5.14396e-12
1.13252e-12
-3.28701e-12
-8.13773e-12
-1.3442e-11
-1.92204e-11
-2.54909e-11
-3.22697e-11
-3.95774e-11
-4.74128e-11
-5.55755e-11
-6.38291e-11
-7.51566e-11
-9.73377e-11
-8.96568e-11
1.0629e-11
1.0465e-11
1.03121e-11
1.02063e-11
1.01309e-11
1.00811e-11
1.00563e-11
1.00554e-11
1.00772e-11
1.01207e-11
1.01846e-11
1.02681e-11
1.03702e-11
1.04901e-11
1.06271e-11
1.07805e-11
1.09498e-11
1.11345e-11
1.13342e-11
1.15485e-11
1.17771e-11
1.20199e-11
1.22764e-11
1.25466e-11
1.28303e-11
1.31273e-11
1.34375e-11
1.37608e-11
1.4097e-11
1.44459e-11
1.48074e-11
1.51814e-11
1.55676e-11
1.59658e-11
1.63758e-11
1.67972e-11
1.72296e-11
1.76727e-11
1.81261e-11
1.85891e-11
1.90612e-11
1.95417e-11
2.00298e-11
2.05246e-11
2.10253e-11
2.15306e-11
2.20394e-11
2.25503e-11
2.30618e-11
2.35722e-11
2.40798e-11
2.45824e-11
2.5078e-11
2.55639e-11
2.60377e-11
2.64962e-11
2.69364e-11
2.73548e-11
2.77475e-11
2.81105e-11
2.84392e-11
2.87288e-11
2.89739e-11
2.9169e-11
2.93078e-11
2.93837e-11
2.93895e-11
2.93173e-11
2.9159e-11
2.89056e-11
2.85474e-11
2.80741e-11
2.74749e-11
2.67379e-11
2.58505e-11
2.47995e-11
2.35707e-11
2.21492e-11
2.05191e-11
1.86637e-11
1.65657e-11
1.42066e-11
1.15677e-11
8.62912e-12
5.37084e-12
1.77228e-12
-2.18727e-12
-6.52846e-12
-1.12715e-11
-1.64359e-11
-2.20393e-11
-2.8097e-11
-3.46225e-11
-4.16342e-11
-4.91292e-11
-5.69078e-11
-6.47351e-11
-7.5566e-11
-9.71056e-11
-8.9029e-11
1.08372e-11
1.06817e-11
1.05368e-11
1.04362e-11
1.03641e-11
1.03159e-11
1.02911e-11
1.02889e-11
1.03082e-11
1.03479e-11
1.0407e-11
1.04847e-11
1.05801e-11
1.06925e-11
1.08212e-11
1.09656e-11
1.11251e-11
1.12994e-11
1.14879e-11
1.16903e-11
1.19064e-11
1.21358e-11
1.23782e-11
1.26335e-11
1.29014e-11
1.31818e-11
1.34745e-11
1.37792e-11
1.40958e-11
1.44242e-11
1.4764e-11
1.51151e-11
1.54772e-11
1.585e-11
1.62332e-11
1.66264e-11
1.70292e-11
1.74412e-11
1.78618e-11
1.82904e-11
1.87263e-11
1.91689e-11
1.96172e-11
2.00703e-11
2.05273e-11
2.09869e-11
2.14478e-11
2.19087e-11
2.2368e-11
2.28241e-11
2.32749e-11
2.37185e-11
2.41526e-11
2.45748e-11
2.49824e-11
2.53724e-11
2.57416e-11
2.60867e-11
2.64038e-11
2.66889e-11
2.69376e-11
2.71452e-11
2.73064e-11
2.74157e-11
2.74673e-11
2.74545e-11
2.73706e-11
2.72081e-11
2.69591e-11
2.66151e-11
2.61669e-11
2.56048e-11
2.49185e-11
2.4097e-11
2.31286e-11
2.20008e-11
2.07007e-11
1.92142e-11
1.75271e-11
1.56239e-11
1.34888e-11
1.11054e-11
8.45635e-12
5.52419e-12
2.29091e-12
-1.26173e-12
-5.15203e-12
-9.39813e-12
-1.40177e-11
-1.90275e-11
-2.4443e-11
-3.02768e-11
-3.65404e-11
-4.32503e-11
-5.04023e-11
-5.77983e-11
-6.52059e-11
-7.55403e-11
-9.64005e-11
-8.80149e-11
1.10291e-11
1.08819e-11
1.07447e-11
1.06491e-11
1.05802e-11
1.05337e-11
1.05092e-11
1.05059e-11
1.05228e-11
1.0559e-11
1.06136e-11
1.06858e-11
1.07748e-11
1.088e-11
1.10007e-11
1.11363e-11
1.12863e-11
1.14503e-11
1.16279e-11
1.18186e-11
1.20222e-11
1.22384e-11
1.24669e-11
1.27074e-11
1.29597e-11
1.32236e-11
1.34989e-11
1.37853e-11
1.40826e-11
1.43906e-11
1.47089e-11
1.50374e-11
1.53757e-11
1.57234e-11
1.60803e-11
1.64458e-11
1.68195e-11
1.72009e-11
1.75893e-11
1.79842e-11
1.83848e-11
1.87903e-11
1.91998e-11
1.96123e-11
2.00268e-11
2.0442e-11
2.08566e-11
2.12691e-11
2.16781e-11
2.20816e-11
2.24778e-11
2.28647e-11
2.324e-11
2.36011e-11
2.39455e-11
2.42702e-11
2.4572e-11
2.48476e-11
2.50933e-11
2.5305e-11
2.54785e-11
2.56091e-11
2.56919e-11
2.57215e-11
2.56921e-11
2.55977e-11
2.54314e-11
2.51864e-11
2.4855e-11
2.44293e-11
2.39005e-11
2.32596e-11
2.24969e-11
2.16021e-11
2.05643e-11
1.93722e-11
1.80135e-11
1.64757e-11
1.47455e-11
1.2809e-11
1.06518e-11
8.25911e-12
5.6155e-12
2.70531e-12
-4.87457e-13
-3.9789e-12
-7.7851e-12
-1.19219e-11
-1.64047e-11
-2.12481e-11
-2.64651e-11
-3.20665e-11
-3.80619e-11
-4.4466e-11
-5.12737e-11
-5.82895e-11
-6.52845e-11
-7.51231e-11
-9.52703e-11
-8.66538e-11
1.12057e-11
1.10664e-11
1.09367e-11
1.0846e-11
1.07803e-11
1.07356e-11
1.07114e-11
1.07072e-11
1.0722e-11
1.07549e-11
1.08053e-11
1.08722e-11
1.09551e-11
1.10533e-11
1.11663e-11
1.12933e-11
1.14341e-11
1.15881e-11
1.17549e-11
1.19341e-11
1.21255e-11
1.23287e-11
1.25433e-11
1.27693e-11
1.30062e-11
1.32538e-11
1.35119e-11
1.37802e-11
1.40584e-11
1.43463e-11
1.46434e-11
1.49497e-11
1.52645e-11
1.55876e-11
1.59186e-11
1.62569e-11
1.6602e-11
1.69535e-11
1.73105e-11
1.76725e-11
1.80386e-11
1.8408e-11
1.87797e-11
1.91528e-11
1.9526e-11
1.98982e-11
2.0268e-11
2.06339e-11
2.09942e-11
2.13472e-11
2.16911e-11
2.20236e-11
2.23425e-11
2.26454e-11
2.29296e-11
2.31922e-11
2.34301e-11
2.364e-11
2.38182e-11
2.3961e-11
2.4064e-11
2.41228e-11
2.41325e-11
2.40882e-11
2.39841e-11
2.38145e-11
2.3573e-11
2.32529e-11
2.28471e-11
2.23481e-11
2.17476e-11
2.10373e-11
2.02081e-11
1.92504e-11
1.81543e-11
1.69091e-11
1.55039e-11
1.3927e-11
1.21664e-11
1.02096e-11
8.04374e-12
5.65536e-12
3.03083e-12
1.56228e-13
-2.98255e-12
-6.39965e-12
-1.01091e-11
-1.41248e-11
-1.846e-11
-2.31271e-11
-2.81375e-11
-3.35e-11
-3.92226e-11
-4.53187e-11
-5.17822e-11
-5.8421e-11
-6.50104e-11
-7.43546e-11
-9.37596e-11
-8.49825e-11
1.13679e-11
1.12362e-11
1.11137e-11
1.10278e-11
1.09652e-11
1.09223e-11
1.08986e-11
1.08936e-11
1.09065e-11
1.09364e-11
1.09827e-11
1.10447e-11
1.11218e-11
1.12133e-11
1.13187e-11
1.14374e-11
1.15691e-11
1.17133e-11
1.18696e-11
1.20376e-11
1.22169e-11
1.24073e-11
1.26084e-11
1.282e-11
1.30417e-11
1.32733e-11
1.35145e-11
1.37649e-11
1.40244e-11
1.42924e-11
1.45688e-11
1.48531e-11
1.5145e-11
1.54439e-11
1.57495e-11
1.60612e-11
1.63784e-11
1.67006e-11
1.7027e-11
1.73569e-11
1.76894e-11
1.80237e-11
1.83588e-11
1.86937e-11
1.9027e-11
1.93577e-11
1.96842e-11
2.00051e-11
2.03187e-11
2.06233e-11
2.09169e-11
2.11974e-11
2.14625e-11
2.17099e-11
2.19369e-11
2.21407e-11
2.23182e-11
2.24661e-11
2.25809e-11
2.26589e-11
2.2696e-11
2.26879e-11
2.26299e-11
2.25171e-11
2.23443e-11
2.21059e-11
2.17958e-11
2.14079e-11
2.09352e-11
2.03708e-11
1.97071e-11
1.89362e-11
1.80497e-11
1.70388e-11
1.58944e-11
1.46067e-11
1.31657e-11
1.15609e-11
9.78153e-12
7.81624e-12
5.65351e-12
3.28146e-12
6.87993e-13
-2.13916e-12
-5.21235e-12
-8.54393e-12
-1.21461e-11
-1.60308e-11
-2.02095e-11
-2.46928e-11
-2.94902e-11
-3.46092e-11
-4.00563e-11
-4.58434e-11
-5.19638e-11
-5.82296e-11
-6.44209e-11
-7.3273e-11
-9.19107e-11
-8.30361e-11
1.15165e-11
1.13922e-11
1.12766e-11
1.11954e-11
1.1136e-11
1.10948e-11
1.10717e-11
1.1066e-11
1.10771e-11
1.11042e-11
1.11467e-11
1.1204e-11
1.12754e-11
1.13604e-11
1.14586e-11
1.15693e-11
1.16922e-11
1.18268e-11
1.19728e-11
1.21297e-11
1.22973e-11
1.24751e-11
1.26629e-11
1.28604e-11
1.30672e-11
1.32831e-11
1.35076e-11
1.37406e-11
1.39815e-11
1.42302e-11
1.44862e-11
1.47491e-11
1.50184e-11
1.52937e-11
1.55745e-11
1.58602e-11
1.61502e-11
1.64438e-11
1.67404e-11
1.70391e-11
1.73391e-11
1.76394e-11
1.7939e-11
1.82368e-11
1.85317e-11
1.88223e-11
1.91072e-11
1.93849e-11
1.96537e-11
1.99118e-11
2.01574e-11
2.03882e-11
2.06022e-11
2.07969e-11
2.09697e-11
2.11178e-11
2.12382e-11
2.13278e-11
2.13831e-11
2.14006e-11
2.13762e-11
2.13059e-11
2.11852e-11
2.10094e-11
2.07736e-11
2.04724e-11
2.01001e-11
1.9651e-11
1.91186e-11
1.84963e-11
1.77772e-11
1.69539e-11
1.60188e-11
1.49636e-11
1.37802e-11
1.24595e-11
1.09927e-11
9.37016e-12
7.58224e-12
5.6189e-12
3.46987e-12
1.12469e-12
-1.42727e-12
-4.19674e-12
-7.19447e-12
-1.04311e-11
-1.39172e-11
-1.7663e-11
-2.16781e-11
-2.59718e-11
-3.05518e-11
-3.54242e-11
-4.05943e-11
-4.60729e-11
-5.18525e-11
-5.775e-11
-6.35508e-11
-7.19139e-11
-8.97637e-11
-8.0848e-11
1.16523e-11
1.15351e-11
1.14263e-11
1.13496e-11
1.12932e-11
1.12539e-11
1.12314e-11
1.12252e-11
1.12347e-11
1.12591e-11
1.1298e-11
1.13507e-11
1.14167e-11
1.14955e-11
1.15866e-11
1.16896e-11
1.18039e-11
1.19292e-11
1.20651e-11
1.22113e-11
1.23673e-11
1.25329e-11
1.27077e-11
1.28914e-11
1.30836e-11
1.3284e-11
1.34923e-11
1.37081e-11
1.3931e-11
1.41607e-11
1.43967e-11
1.46386e-11
1.4886e-11
1.51382e-11
1.53948e-11
1.56552e-11
1.59187e-11
1.61847e-11
1.64523e-11
1.67207e-11
1.69891e-11
1.72565e-11
1.75219e-11
1.77841e-11
1.80418e-11
1.82939e-11
1.85388e-11
1.8775e-11
1.90009e-11
1.92147e-11
1.94144e-11
1.9598e-11
1.97634e-11
1.9908e-11
2.00295e-11
2.01251e-11
2.01918e-11
2.02267e-11
2.02263e-11
2.01873e-11
2.01058e-11
1.99778e-11
1.97993e-11
1.95657e-11
1.92722e-11
1.8914e-11
1.84856e-11
1.79816e-11
1.73962e-11
1.67231e-11
1.59559e-11
1.50879e-11
1.4112e-11
1.30208e-11
1.18067e-11
1.04619e-11
8.9781e-12
7.34691e-12
5.55969e-12
3.60757e-12
1.48152e-12
-8.27608e-13
-3.32908e-12
-6.03216e-12
-8.9461e-12
-1.208e-11
-1.54429e-11
-1.90434e-11
-2.28897e-11
-2.69894e-11
-3.1349e-11
-3.59733e-11
-4.08664e-11
-4.60379e-11
-5.148e-11
-5.70145e-11
-6.24329e-11
-7.03113e-11
-8.73566e-11
-7.84504e-11
1.17761e-11
1.16658e-11
1.15636e-11
1.14913e-11
1.14379e-11
1.14004e-11
1.13785e-11
1.13718e-11
1.13798e-11
1.14018e-11
1.14372e-11
1.14856e-11
1.15464e-11
1.16192e-11
1.17035e-11
1.17989e-11
1.19049e-11
1.20212e-11
1.21474e-11
1.2283e-11
1.24278e-11
1.25814e-11
1.27435e-11
1.29137e-11
1.30916e-11
1.3277e-11
1.34694e-11
1.36684e-11
1.38737e-11
1.40849e-11
1.43014e-11
1.45229e-11
1.47489e-11
1.49787e-11
1.52118e-11
1.54476e-11
1.56854e-11
1.59245e-11
1.6164e-11
1.64032e-11
1.66411e-11
1.68768e-11
1.71091e-11
1.73369e-11
1.7559e-11
1.77741e-11
1.79807e-11
1.81772e-11
1.83621e-11
1.85336e-11
1.86897e-11
1.88284e-11
1.89477e-11
1.9045e-11
1.91181e-11
1.91642e-11
1.91805e-11
1.91641e-11
1.91117e-11
1.90201e-11
1.88856e-11
1.87045e-11
1.84727e-11
1.81862e-11
1.78403e-11
1.74304e-11
1.69517e-11
1.63989e-11
1.57666e-11
1.50492e-11
1.42407e-11
1.3335e-11
1.23256e-11
1.12059e-11
9.96898e-12
8.60779e-12
7.11505e-12
5.48331e-12
3.70494e-12
1.77218e-12
-3.2282e-13
-2.588e-12
-5.0313e-12
-7.66067e-12
-1.04839e-11
-1.35089e-11
-1.67429e-11
-2.01934e-11
-2.38669e-11
-2.77699e-11
-3.19074e-11
-3.62832e-11
-4.09005e-11
-4.57675e-11
-5.08762e-11
-5.60538e-11
-6.10982e-11
-6.8497e-11
-8.47258e-11
-7.58737e-11
1.18886e-11
1.1785e-11
1.16891e-11
1.16211e-11
1.15706e-11
1.15349e-11
1.15137e-11
1.15067e-11
1.15132e-11
1.15328e-11
1.1565e-11
1.16093e-11
1.16651e-11
1.17322e-11
1.18099e-11
1.1898e-11
1.1996e-11
1.21035e-11
1.22202e-11
1.23456e-11
1.24795e-11
1.26215e-11
1.27711e-11
1.29282e-11
1.30922e-11
1.32629e-11
1.34398e-11
1.36225e-11
1.38107e-11
1.40038e-11
1.42014e-11
1.44031e-11
1.46082e-11
1.48162e-11
1.50266e-11
1.52385e-11
1.54514e-11
1.56645e-11
1.5877e-11
1.60879e-11
1.62964e-11
1.65015e-11
1.6702e-11
1.68969e-11
1.70848e-11
1.72644e-11
1.74344e-11
1.75931e-11