/*--------------------------------*- C++ -*----------------------------------*\
  =========                 |
  \\      /  F ield         | OpenFOAM: The Open Source CFD Toolbox
   \\    /   O peration     | Website:  https://openfoam.org
    \\  /    A nd           | Version:  11
     \\/     M anipulation  |
\*---------------------------------------------------------------------------*/
FoamFile
{
    format      ascii;
    class       volScalarField;
    location    "642";
    object      omega;
}
// * * * * * * * * * * * * * * * * * * * * * * * * * * * * * * * * * * * * * //

dimensions      [0 0 -1 0 0 0 0];

internalField   nonuniform List<scalar> 
10000
(
0.961692
0.892185
0.829085
0.771728
0.719523
0.671944
0.628523
0.588843
0.552532
0.519257
0.488724
0.460666
0.434849
0.411059
0.389108
0.368826
0.35006
0.332674
0.316544
0.30156
0.287623
0.274642
0.262537
0.251234
0.240668
0.230778
0.221511
0.212816
0.20465
0.196971
0.189742
0.182931
0.176506
0.170438
0.164703
0.159277
0.154138
0.149266
0.144644
0.140254
0.136082
0.132113
0.128334
0.124733
0.121299
0.118022
0.114892
0.1119
0.109038
0.106299
0.103675
0.10116
0.0987481
0.096433
0.0942095
0.0920727
0.090018
0.088041
0.0861376
0.084304
0.0825366
0.0808321
0.0791872
0.077599
0.0760647
0.0745817
0.0731473
0.0717593
0.0704155
0.0691136
0.0678517
0.0666279
0.0654404
0.0642874
0.0631674
0.0620786
0.0610197
0.0599893
0.0589859
0.0580084
0.0570555
0.0561261
0.0552192
0.0543338
0.0534691
0.0526246
0.0517997
0.0509942
0.0502083
0.0494426
0.0486982
0.0479772
0.0472827
0.0466194
0.0459941
0.0454166
0.0449005
0.0444648
0.0441361
0.0439497
0.961692
0.892185
0.829085
0.771728
0.719523
0.671944
0.628523
0.588843
0.552532
0.519257
0.488724
0.460666
0.434849
0.411059
0.389109
0.368826
0.35006
0.332674
0.316544
0.30156
0.287623
0.274642
0.262537
0.251235
0.240668
0.230778
0.221511
0.212816
0.20465
0.196971
0.189742
0.182931
0.176506
0.170438
0.164703
0.159277
0.154138
0.149266
0.144644
0.140254
0.136082
0.132113
0.128334
0.124733
0.121299
0.118022
0.114892
0.1119
0.109038
0.106299
0.103675
0.101161
0.0987483
0.0964332
0.0942097
0.092073
0.0900183
0.0880412
0.0861379
0.0843043
0.0825369
0.0808324
0.0791875
0.0775994
0.0760651
0.074582
0.0731477
0.0717597
0.0704159
0.069114
0.0678522
0.0666284
0.0654409
0.0642879
0.0631679
0.0620792
0.0610203
0.0599899
0.0589865
0.058009
0.0570561
0.0561267
0.0552198
0.0543345
0.0534699
0.0526253
0.0518005
0.050995
0.0502091
0.0494434
0.048699
0.047978
0.0472835
0.0466202
0.045995
0.0454175
0.0449013
0.0444657
0.0441369
0.0439505
0.961692
0.892185
0.829085
0.771728
0.719523
0.671944
0.628523
0.588843
0.552532
0.519257
0.488724
0.460667
0.434849
0.411059
0.389109
0.368826
0.35006
0.332674
0.316544
0.30156
0.287623
0.274642
0.262537
0.251235
0.240668
0.230779
0.221511
0.212816
0.20465
0.196971
0.189743
0.182931
0.176506
0.170438
0.164703
0.159277
0.154138
0.149266
0.144644
0.140255
0.136082
0.132113
0.128334
0.124734
0.1213
0.118022
0.114892
0.1119
0.109039
0.1063
0.103676
0.101161
0.0987488
0.0964336
0.0942102
0.0920734
0.0900188
0.0880418
0.0861384
0.0843049
0.0825375
0.080833
0.0791882
0.0776
0.0760658
0.0745827
0.0731484
0.0717605
0.0704166
0.0691148
0.067853
0.0666293
0.0654418
0.0642889
0.0631688
0.0620802
0.0610213
0.0599909
0.0589876
0.0580102
0.0570573
0.056128
0.0552211
0.0543358
0.0534712
0.0526268
0.0518019
0.0509965
0.0502107
0.049445
0.0487007
0.0479797
0.0472852
0.0466219
0.0459967
0.0454192
0.044903
0.0444674
0.0441386
0.0439522
0.961692
0.892185
0.829085
0.771728
0.719523
0.671944
0.628523
0.588843
0.552532
0.519257
0.488724
0.460667
0.434849
0.41106
0.389109
0.368826
0.35006
0.332674
0.316544
0.301561
0.287623
0.274642
0.262537
0.251235
0.240669
0.230779
0.221511
0.212816
0.20465
0.196971
0.189743
0.182931
0.176506
0.170439
0.164704
0.159277
0.154138
0.149267
0.144645
0.140255
0.136083
0.132114
0.128335
0.124734
0.1213
0.118023
0.114893
0.111901
0.109039
0.1063
0.103676
0.101162
0.0987494
0.0964343
0.0942109
0.0920742
0.0900195
0.0880426
0.0861392
0.0843057
0.0825384
0.0808339
0.0791891
0.077601
0.0760668
0.0745838
0.0731495
0.0717616
0.0704178
0.069116
0.0678542
0.0666305
0.0654431
0.0642902
0.0631703
0.0620816
0.0610228
0.0599925
0.0589893
0.0580119
0.0570591
0.0561298
0.055223
0.0543377
0.0534732
0.0526288
0.0518041
0.0509987
0.0502129
0.0494473
0.048703
0.0479821
0.0472877
0.0466244
0.0459992
0.0454217
0.0449056
0.0444699
0.0441411
0.0439547
0.961692
0.892185
0.829085
0.771728
0.719523
0.671944
0.628523
0.588843
0.552532
0.519257
0.488724
0.460667
0.434849
0.41106
0.389109
0.368826
0.350061
0.332674
0.316544
0.301561
0.287623
0.274643
0.262538
0.251235
0.240669
0.230779
0.221511
0.212817
0.20465
0.196971
0.189743
0.182932
0.176506
0.170439
0.164704
0.159278
0.154139
0.149267
0.144645
0.140256
0.136083
0.132114
0.128335
0.124735
0.121301
0.118023
0.114893
0.111902
0.10904
0.106301
0.103677
0.101162
0.0987503
0.0964352
0.0942118
0.0920751
0.0900205
0.0880436
0.0861403
0.0843068
0.0825395
0.0808351
0.0791903
0.0776022
0.0760681
0.0745851
0.0731509
0.071763
0.0704193
0.0691176
0.0678558
0.0666322
0.0654448
0.064292
0.0631721
0.0620835
0.0610248
0.0599946
0.0589914
0.0580141
0.0570614
0.0561321
0.0552254
0.0543403
0.0534758
0.0526315
0.0518068
0.0510016
0.0502159
0.0494503
0.0487061
0.0479852
0.0472909
0.0466277
0.0460024
0.045425
0.0449088
0.0444732
0.0441444
0.043958
0.961692
0.892185
0.829085
0.771728
0.719523
0.671944
0.628523
0.588843
0.552532
0.519257
0.488724
0.460667
0.434849
0.41106
0.389109
0.368827
0.350061
0.332674
0.316545
0.301561
0.287623
0.274643
0.262538
0.251235
0.240669
0.230779
0.221512
0.212817
0.204651
0.196972
0.189744
0.182932
0.176507
0.170439
0.164704
0.159278
0.154139
0.149268
0.144646
0.140256
0.136084
0.132115
0.128336
0.124735
0.121301
0.118024
0.114894
0.111902
0.109041
0.106302
0.103678
0.101163
0.0987513
0.0964362
0.0942129
0.0920763
0.0900217
0.0880448
0.0861416
0.0843081
0.0825409
0.0808365
0.0791918
0.0776038
0.0760697
0.0745868
0.0731526
0.0717648
0.0704211
0.0691195
0.0678578
0.0666342
0.0654469
0.0642942
0.0631744
0.0620859
0.0610273
0.0599971
0.058994
0.0580168
0.0570641
0.056135
0.0552284
0.0543433
0.053479
0.0526348
0.0518102
0.0510051
0.0502195
0.049454
0.0487099
0.0479891
0.0472948
0.0466316
0.0460064
0.045429
0.0449128
0.0444772
0.0441484
0.0439619
0.961692
0.892185
0.829085
0.771728
0.719523
0.671944
0.628523
0.588843
0.552532
0.519257
0.488724
0.460667
0.434849
0.41106
0.389109
0.368827
0.350061
0.332675
0.316545
0.301561
0.287624
0.274643
0.262538
0.251235
0.240669
0.230779
0.221512
0.212817
0.204651
0.196972
0.189744
0.182933
0.176507
0.17044
0.164705
0.159279
0.15414
0.149268
0.144646
0.140257
0.136085
0.132116
0.128337
0.124736
0.121302
0.118025
0.114895
0.111903
0.109042
0.106303
0.103679
0.101164
0.0987525
0.0964375
0.0942142
0.0920776
0.0900231
0.0880463
0.0861431
0.0843097
0.0825425
0.0808382
0.0791935
0.0776056
0.0760715
0.0745887
0.0731546
0.0717669
0.0704233
0.0691217
0.0678601
0.0666366
0.0654494
0.0642968
0.063177
0.0620886
0.0610301
0.06
0.058997
0.0580199
0.0570674
0.0561384
0.0552319
0.054347
0.0534828
0.0526387
0.0518142
0.0510092
0.0502237
0.0494583
0.0487143
0.0479936
0.0472993
0.0466362
0.0460111
0.0454336
0.0449175
0.0444819
0.044153
0.0439666
0.961692
0.892185
0.829085
0.771728
0.719523
0.671944
0.628523
0.588843
0.552532
0.519258
0.488724
0.460667
0.434849
0.41106
0.389109
0.368827
0.350061
0.332675
0.316545
0.301561
0.287624
0.274643
0.262538
0.251236
0.24067
0.23078
0.221512
0.212818
0.204651
0.196973
0.189744
0.182933
0.176508
0.170441
0.164706
0.159279
0.154141
0.149269
0.144647
0.140258
0.136086
0.132117
0.128338
0.124737
0.121303
0.118026
0.114896
0.111905
0.109043
0.106304
0.10368
0.101166
0.0987538
0.0964389
0.0942157
0.0920791
0.0900247
0.0880479
0.0861448
0.0843114
0.0825443
0.0808401
0.0791955
0.0776076
0.0760736
0.0745909
0.0731569
0.0717692
0.0704257
0.0691242
0.0678627
0.0666393
0.0654522
0.0642997
0.06318
0.0620917
0.0610333
0.0600033
0.0590005
0.0580235
0.0570711
0.0561422
0.0552359
0.054351
0.053487
0.052643
0.0518187
0.0510138
0.0502284
0.0494632
0.0487193
0.0479986
0.0473045
0.0466414
0.0460164
0.0454389
0.0449228
0.0444872
0.0441583
0.0439718
0.961692
0.892185
0.829085
0.771728
0.719523
0.671944
0.628523
0.588843
0.552532
0.519258
0.488724
0.460667
0.434849
0.41106
0.389109
0.368827
0.350061
0.332675
0.316545
0.301561
0.287624
0.274644
0.262539
0.251236
0.24067
0.23078
0.221513
0.212818
0.204652
0.196973
0.189745
0.182934
0.176508
0.170441
0.164706
0.15928
0.154141
0.14927
0.144648
0.140258
0.136086
0.132118
0.128339
0.124738
0.121304
0.118027
0.114897
0.111906
0.109044
0.106305
0.103682
0.101167
0.0987553
0.0964405
0.0942173
0.0920808
0.0900264
0.0880497
0.0861467
0.0843134
0.0825464
0.0808422
0.0791977
0.0776099
0.076076
0.0745933
0.0731594
0.0717718
0.0704284
0.069127
0.0678656
0.0666423
0.0654553
0.0643029
0.0631833
0.0620952
0.0610369
0.060007
0.0590043
0.0580274
0.0570752
0.0561465
0.0552402
0.0543556
0.0534917
0.0526478
0.0518237
0.0510189
0.0502337
0.0494686
0.0487248
0.0480043
0.0473102
0.0466472
0.0460222
0.0454448
0.0449287
0.044493
0.0441642
0.0439777
0.961692
0.892185
0.829085
0.771728
0.719523
0.671944
0.628523
0.588843
0.552532
0.519258
0.488724
0.460667
0.43485
0.41106
0.389109
0.368827
0.350061
0.332675
0.316545
0.301562
0.287624
0.274644
0.262539
0.251236
0.24067
0.230781
0.221513
0.212819
0.204652
0.196974
0.189745
0.182934
0.176509
0.170442
0.164707
0.159281
0.154142
0.149271
0.144649
0.140259
0.136087
0.132119
0.12834
0.124739
0.121305
0.118029
0.114899
0.111907
0.109046
0.106307
0.103683
0.101169
0.098757
0.0964422
0.094219
0.0920826
0.0900283
0.0880517
0.0861487
0.0843155
0.0825486
0.0808445
0.0792001
0.0776124
0.0760785
0.074596
0.0731621
0.0717747
0.0704314
0.0691301
0.0678688
0.0666456
0.0654587
0.0643064
0.063187
0.0620989
0.0610408
0.0600111
0.0590085
0.0580317
0.0570796
0.0561511
0.055245
0.0543605
0.0534967
0.0526531
0.0518291
0.0510245
0.0502394
0.0494744
0.0487308
0.0480104
0.0473164
0.0466535
0.0460286
0.0454512
0.0449352
0.0444995
0.0441706
0.0439841
0.961692
0.892185
0.829085
0.771728
0.719523
0.671944
0.628523
0.588843
0.552532
0.519258
0.488724
0.460667
0.43485
0.41106
0.389109
0.368827
0.350062
0.332675
0.316546
0.301562
0.287625
0.274644
0.262539
0.251237
0.240671
0.230781
0.221514
0.212819
0.204653
0.196974
0.189746
0.182935
0.17651
0.170443
0.164708
0.159282
0.154143
0.149272
0.14465
0.14026
0.136088
0.13212
0.128341
0.12474
0.121307
0.11803
0.1149
0.111909
0.109047
0.106308
0.103685
0.10117
0.0987587
0.096444
0.0942209
0.0920846
0.0900304
0.0880538
0.0861509
0.0843178
0.082551
0.0808469
0.0792026
0.077615
0.0760813
0.0745988
0.0731651
0.0717777
0.0704345
0.0691333
0.0678722
0.0666491
0.0654623
0.0643101
0.0631909
0.0621029
0.0610449
0.0600154
0.0590129
0.0580363
0.0570844
0.056156
0.0552501
0.0543658
0.0535022
0.0526587
0.0518349
0.0510304
0.0502455
0.0494807
0.0487372
0.0480169
0.0473231
0.0466603
0.0460354
0.0454581
0.0449421
0.0445064
0.0441775
0.0439909
0.961692
0.892185
0.829085
0.771728
0.719523
0.671944
0.628523
0.588843
0.552532
0.519258
0.488724
0.460667
0.43485
0.41106
0.38911
0.368827
0.350062
0.332675
0.316546
0.301562
0.287625
0.274644
0.26254
0.251237
0.240671
0.230781
0.221514
0.21282
0.204653
0.196975
0.189747
0.182935
0.17651
0.170443
0.164708
0.159283
0.154144
0.149273
0.144651
0.140261
0.136089
0.132121
0.128342
0.124742
0.121308
0.118031
0.114901
0.11191
0.109049
0.10631
0.103687
0.101172
0.0987606
0.0964459
0.094223
0.0920867
0.0900325
0.0880561
0.0861533
0.0843203
0.0825535
0.0808496
0.0792053
0.0776178
0.0760842
0.0746018
0.0731682
0.071781
0.0704379
0.0691368
0.0678757
0.0666528
0.0654662
0.0643141
0.063195
0.0621072
0.0610493
0.0600199
0.0590177
0.0580412
0.0570895
0.0561612
0.0552555
0.0543714
0.053508
0.0526647
0.051841
0.0510367
0.050252
0.0494874
0.048744
0.0480239
0.0473302
0.0466675
0.0460427
0.0454654
0.0449494
0.0445137
0.0441848
0.0439982
0.961692
0.892185
0.829085
0.771728
0.719523
0.671944
0.628523
0.588843
0.552532
0.519258
0.488724
0.460667
0.43485
0.41106
0.38911
0.368828
0.350062
0.332676
0.316546
0.301562
0.287625
0.274645
0.26254
0.251237
0.240671
0.230782
0.221515
0.21282
0.204654
0.196975
0.189747
0.182936
0.176511
0.170444
0.164709
0.159283
0.154145
0.149274
0.144652
0.140262
0.136091
0.132122
0.128343
0.124743
0.121309
0.118033
0.114903
0.111912
0.10905
0.106312
0.103689
0.101174
0.0987625
0.0964479
0.0942251
0.0920889
0.0900348
0.0880584
0.0861557
0.0843228
0.0825561
0.0808523
0.0792082
0.0776208
0.0760872
0.074605
0.0731715
0.0717843
0.0704414
0.0691404
0.0678795
0.0666567
0.0654702
0.0643183
0.0631993
0.0621117
0.061054
0.0600247
0.0590226
0.0580464
0.0570948
0.0561667
0.0552612
0.0543772
0.053514
0.0526709
0.0518474
0.0510434
0.0502588
0.0494944
0.0487512
0.0480312
0.0473376
0.0466751
0.0460503
0.0454731
0.0449571
0.0445215
0.0441925
0.0440059
0.961692
0.892185
0.829085
0.771728
0.719523
0.671944
0.628523
0.588843
0.552532
0.519258
0.488724
0.460667
0.43485
0.411061
0.38911
0.368828
0.350062
0.332676
0.316546
0.301563
0.287626
0.274645
0.26254
0.251238
0.240672
0.230782
0.221515
0.212821
0.204654
0.196976
0.189748
0.182937
0.176512
0.170445
0.16471
0.159284
0.154146
0.149275
0.144653
0.140264
0.136092
0.132123
0.128345
0.124744
0.121311
0.118034
0.114905
0.111913
0.109052
0.106314
0.10369
0.101176
0.0987646
0.0964501
0.0942273
0.0920912
0.0900372
0.0880609
0.0861583
0.0843255
0.0825589
0.0808551
0.0792111
0.0776238
0.0760904
0.0746083
0.0731749
0.0717879
0.070445
0.0691442
0.0678834
0.0666608
0.0654744
0.0643226
0.0632038
0.0621163
0.0610588
0.0600297
0.0590278
0.0580517
0.0571003
0.0561725
0.0552671
0.0543833
0.0535203
0.0526774
0.0518542
0.0510503
0.0502659
0.0495017
0.0487586
0.0480388
0.0473454
0.0466829
0.0460583
0.0454812
0.0449652
0.0445296
0.0442006
0.044014
0.961692
0.892185
0.829085
0.771728
0.719523
0.671944
0.628523
0.588843
0.552532
0.519258
0.488724
0.460667
0.43485
0.411061
0.38911
0.368828
0.350062
0.332676
0.316546
0.301563
0.287626
0.274645
0.262541
0.251238
0.240672
0.230783
0.221516
0.212821
0.204655
0.196977
0.189749
0.182938
0.176513
0.170446
0.164711
0.159285
0.154147
0.149276
0.144654
0.140265
0.136093
0.132124
0.128346
0.124746
0.121312
0.118036
0.114906
0.111915
0.109054
0.106315
0.103692
0.101178
0.0987667
0.0964522
0.0942295
0.0920935
0.0900396
0.0880634
0.0861609
0.0843282
0.0825617
0.0808581
0.0792142
0.077627
0.0760937
0.0746117
0.0731784
0.0717915
0.0704488
0.0691481
0.0678875
0.0666649
0.0654787
0.0643271
0.0632084
0.0621212
0.0610638
0.0600349
0.0590331
0.0580572
0.057106
0.0561784
0.0552732
0.0543896
0.0535268
0.0526841
0.0518611
0.0510574
0.0502733
0.0495092
0.0487663
0.0480467
0.0473534
0.0466911
0.0460665
0.0454895
0.0449736
0.0445379
0.0442089
0.0440223
0.961692
0.892185
0.829085
0.771728
0.719523
0.671944
0.628523
0.588843
0.552532
0.519258
0.488724
0.460667
0.43485
0.411061
0.38911
0.368828
0.350062
0.332676
0.316547
0.301563
0.287626
0.274646
0.262541
0.251239
0.240673
0.230783
0.221516
0.212822
0.204656
0.196977
0.189749
0.182938
0.176513
0.170447
0.164712
0.159286
0.154148
0.149277
0.144655
0.140266
0.136094
0.132126
0.128347
0.124747
0.121314
0.118037
0.114908
0.111917
0.109056
0.106317
0.103694
0.10118
0.0987688
0.0964545
0.0942318
0.092096
0.0900421
0.0880661
0.0861636
0.084331
0.0825646
0.0808611
0.0792173
0.0776302
0.0760971
0.0746152
0.073182
0.0717953
0.0704527
0.0691521
0.0678916
0.0666692
0.0654832
0.0643317
0.0632132
0.0621261
0.0610689
0.0600402
0.0590386
0.0580629
0.0571119
0.0561844
0.0552795
0.0543961
0.0535335
0.052691
0.0518682
0.0510647
0.0502808
0.0495169
0.0487743
0.0480548
0.0473616
0.0466994
0.046075
0.045498
0.0449822
0.0445465
0.0442175
0.0440309
0.961692
0.892185
0.829085
0.771728
0.719523
0.671944
0.628523
0.588843
0.552532
0.519258
0.488724
0.460667
0.43485
0.411061
0.38911
0.368828
0.350063
0.332676
0.316547
0.301563
0.287626
0.274646
0.262541
0.251239
0.240673
0.230784
0.221517
0.212822
0.204656
0.196978
0.18975
0.182939
0.176514
0.170447
0.164713
0.159287
0.154149
0.149278
0.144656
0.140267
0.136096
0.132127
0.128349
0.124749
0.121315
0.118039
0.11491
0.111918
0.109058
0.106319
0.103696
0.101182
0.098771
0.0964567
0.0942342
0.0920984
0.0900447
0.0880687
0.0861664
0.0843339
0.0825676
0.0808642
0.0792205
0.0776335
0.0761005
0.0746187
0.0731857
0.0717991
0.0704566
0.0691562
0.0678959
0.0666736
0.0654877
0.0643364
0.0632181
0.0621311
0.0610741
0.0600455
0.0590442
0.0580687
0.0571178
0.0561906
0.0552858
0.0544027
0.0535403
0.0526981
0.0518754
0.0510722
0.0502885
0.0495248
0.0487823
0.048063
0.04737
0.046708
0.0460837
0.0455068
0.0449909
0.0445553
0.0442263
0.0440396
0.961692
0.892185
0.829085
0.771728
0.719523
0.671944
0.628523
0.588843
0.552532
0.519258
0.488725
0.460667
0.43485
0.411061
0.38911
0.368828
0.350063
0.332677
0.316547
0.301564
0.287627
0.274646
0.262542
0.251239
0.240674
0.230784
0.221517
0.212823
0.204657
0.196979
0.189751
0.18294
0.176515
0.170448
0.164714
0.159288
0.15415
0.149279
0.144657
0.140268
0.136097
0.132128
0.12835
0.12475
0.121317
0.118041
0.114911
0.11192
0.109059
0.106321
0.103698
0.101184
0.0987732
0.096459
0.0942366
0.0921009
0.0900473
0.0880714
0.0861692
0.0843368
0.0825706
0.0808673
0.0792237
0.0776369
0.076104
0.0746223
0.0731894
0.0718029
0.0704606
0.0691604
0.0679001
0.0666781
0.0654923
0.0643412
0.063223
0.0621362
0.0610794
0.060051
0.0590498
0.0580745
0.0571239
0.0561968
0.0552923
0.0544094
0.0535472
0.0527052
0.0518828
0.0510798
0.0502963
0.0495328
0.0487905
0.0480714
0.0473786
0.0467167
0.0460925
0.0455156
0.0449999
0.0445643
0.0442353
0.0440485
0.961692
0.892185
0.829085
0.771728
0.719523
0.671944
0.628523
0.588843
0.552532
0.519258
0.488725
0.460668
0.43485
0.411061
0.38911
0.368828
0.350063
0.332677
0.316547
0.301564
0.287627
0.274647
0.262542
0.25124
0.240674
0.230785
0.221518
0.212823
0.204657
0.196979
0.189751
0.182941
0.176516
0.170449
0.164715
0.159289
0.154151
0.14928
0.144658
0.14027
0.136098
0.13213
0.128352
0.124752
0.121319
0.118042
0.114913
0.111922
0.109061
0.106323
0.1037
0.101187
0.0987754
0.0964614
0.094239
0.0921034
0.0900499
0.0880741
0.086172
0.0843397
0.0825736
0.0808705
0.079227
0.0776403
0.0761075
0.0746259
0.0731932
0.0718068
0.0704647
0.0691645
0.0679045
0.0666826
0.065497
0.064346
0.063228
0.0621414
0.0610847
0.0600565
0.0590555
0.0580804
0.05713
0.0562031
0.0552988
0.0544161
0.0535542
0.0527124
0.0518902
0.0510874
0.0503041
0.0495409
0.0487988
0.0480799
0.0473872
0.0467255
0.0461014
0.0455246
0.0450089
0.0445733
0.0442443
0.0440576
0.961692
0.892185
0.829084
0.771728
0.719523
0.671944
0.628523
0.588843
0.552532
0.519258
0.488725
0.460668
0.43485
0.411061
0.38911
0.368829
0.350063
0.332677
0.316548
0.301564
0.287627
0.274647
0.262542
0.25124
0.240674
0.230785
0.221518
0.212824
0.204658
0.19698
0.189752
0.182941
0.176517
0.17045
0.164716
0.15929
0.154152
0.149281
0.14466
0.140271
0.136099
0.132131
0.128353
0.124753
0.12132
0.118044
0.114915
0.111924
0.109063
0.106325
0.103702
0.101189
0.0987777
0.0964637
0.0942415
0.092106
0.0900525
0.0880769
0.0861748
0.0843426
0.0825767
0.0808736
0.0792303
0.0776437
0.076111
0.0746296
0.073197
0.0718108
0.0704687
0.0691687
0.0679088
0.0666871
0.0655016
0.0643508
0.063233
0.0621465
0.06109
0.060062
0.0590612
0.0580863
0.0571361
0.0562095
0.0553054
0.0544229
0.0535612
0.0527196
0.0518977
0.0510951
0.050312
0.049549
0.0488071
0.0480884
0.0473959
0.0467343
0.0461103
0.0455337
0.045018
0.0445825
0.0442535
0.0440667
0.961692
0.892185
0.829084
0.771728
0.719523
0.671944
0.628523
0.588843
0.552532
0.519258
0.488725
0.460668
0.43485
0.411061
0.389111
0.368829
0.350063
0.332677
0.316548
0.301564
0.287627
0.274647
0.262543
0.251241
0.240675
0.230786
0.221519
0.212824
0.204659
0.19698
0.189753
0.182942
0.176517
0.170451
0.164717
0.159291
0.154153
0.149282
0.144661
0.140272
0.136101
0.132133
0.128355
0.124755
0.121322
0.118045
0.114916
0.111926
0.109065
0.106327
0.103705
0.101191
0.0987799
0.096466
0.0942439
0.0921085
0.0900552
0.0880796
0.0861777
0.0843456
0.0825798
0.0808768
0.0792336
0.0776471
0.0761145
0.0746333
0.0732008
0.0718147
0.0704728
0.069173
0.0679132
0.0666916
0.0655063
0.0643556
0.0632379
0.0621517
0.0610954
0.0600676
0.059067
0.0580923
0.0571422
0.0562158
0.055312
0.0544297
0.0535682
0.0527268
0.0519051
0.0511028
0.0503199
0.0495571
0.0488155
0.0480969
0.0474046
0.0467432
0.0461193
0.0455428
0.0450272
0.0445916
0.0442626
0.0440758
0.961692
0.892184
0.829084
0.771728
0.719523
0.671944
0.628523
0.588843
0.552532
0.519258
0.488725
0.460668
0.43485
0.411061
0.389111
0.368829
0.350063
0.332677
0.316548
0.301565
0.287628
0.274647
0.262543
0.251241
0.240675
0.230786
0.221519
0.212825
0.204659
0.196981
0.189754
0.182943
0.176518
0.170452
0.164717
0.159292
0.154154
0.149283
0.144662
0.140273
0.136102
0.132134
0.128356
0.124756
0.121323
0.118047
0.114918
0.111928
0.109067
0.106329
0.103707
0.101193
0.0987822
0.0964684
0.0942463
0.092111
0.0900578
0.0880823
0.0861805
0.0843485
0.0825828
0.08088
0.0792369
0.0776505
0.0761181
0.0746369
0.0732045
0.0718186
0.0704768
0.0691771
0.0679175
0.066696
0.0655109
0.0643604
0.0632429
0.0621568
0.0611007
0.0600731
0.0590727
0.0580982
0.0571484
0.0562221
0.0553185
0.0544364
0.0535752
0.0527341
0.0519126
0.0511104
0.0503278
0.0495652
0.0488238
0.0481055
0.0474133
0.046752
0.0461283
0.0455518
0.0450363
0.0446008
0.0442718
0.0440849
0.961692
0.892184
0.829084
0.771727
0.719523
0.671944
0.628523
0.588843
0.552532
0.519258
0.488725
0.460668
0.43485
0.411061
0.389111
0.368829
0.350063
0.332677
0.316548
0.301565
0.287628
0.274648
0.262543
0.251241
0.240676
0.230786
0.22152
0.212826
0.20466
0.196982
0.189754
0.182944
0.176519
0.170452
0.164718
0.159293
0.154155
0.149284
0.144663
0.140274
0.136103
0.132135
0.128357
0.124758
0.121325
0.118049
0.11492
0.111929
0.109069
0.106331
0.103709
0.101195
0.0987844
0.0964707
0.0942487
0.0921135
0.0900604
0.088085
0.0861833
0.0843514
0.0825858
0.0808831
0.0792401
0.0776539
0.0761215
0.0746405
0.0732083
0.0718225
0.0704808
0.0691813
0.0679218
0.0667005
0.0655155
0.0643652
0.0632479
0.0621619
0.061106
0.0600786
0.0590783
0.058104
0.0571544
0.0562284
0.055325
0.0544431
0.0535821
0.0527412
0.0519199
0.0511181
0.0503357
0.0495733
0.0488321
0.0481139
0.047422
0.0467608
0.0461372
0.0455609
0.0450454
0.0446099
0.0442809
0.044094
0.961692
0.892184
0.829084
0.771727
0.719523
0.671944
0.628523
0.588843
0.552532
0.519258
0.488725
0.460668
0.43485
0.411061
0.389111
0.368829
0.350063
0.332678
0.316548
0.301565
0.287628
0.274648
0.262544
0.251242
0.240676
0.230787
0.22152
0.212826
0.20466
0.196982
0.189755
0.182944
0.17652
0.170453
0.164719
0.159294
0.154156
0.149285
0.144664
0.140276
0.136105
0.132137
0.128359
0.124759
0.121326
0.11805
0.114922
0.111931
0.109071
0.106333
0.103711
0.101197
0.0987866
0.096473
0.0942511
0.092116
0.0900629
0.0880877
0.0861861
0.0843543
0.0825888
0.0808862
0.0792433
0.0776572
0.076125
0.0746441
0.073212
0.0718263
0.0704848
0.0691854
0.0679261
0.0667049
0.0655201
0.0643699
0.0632527
0.062167
0.0611112
0.060084
0.0590839
0.0581098
0.0571604
0.0562346
0.0553314
0.0544498
0.053589
0.0527483
0.0519272
0.0511256
0.0503434
0.0495813
0.0488402
0.0481223
0.0474305
0.0467695
0.0461461
0.0455698
0.0450544
0.0446189
0.0442899
0.044103
0.961692
0.892184
0.829084
0.771727
0.719523
0.671944
0.628523
0.588843
0.552532
0.519258
0.488725
0.460668
0.43485
0.411061
0.389111
0.368829
0.350064
0.332678
0.316548
0.301565
0.287628
0.274648
0.262544
0.251242
0.240676
0.230787
0.22152
0.212827
0.204661
0.196983
0.189755
0.182945
0.176521
0.170454
0.16472
0.159295
0.154157
0.149286
0.144665
0.140277
0.136106
0.132138
0.12836
0.124761
0.121328
0.118052
0.114923
0.111933
0.109073
0.106335
0.103713
0.101199
0.0987887
0.0964752
0.0942534
0.0921184
0.0900655
0.0880903
0.0861888
0.0843571
0.0825917
0.0808892
0.0792465
0.0776605
0.0761284
0.0746476
0.0732156
0.0718301
0.0704887
0.0691894
0.0679303
0.0667092
0.0655246
0.0643746
0.0632575
0.062172
0.0611164
0.0600893
0.0590894
0.0581155
0.0571663
0.0562407
0.0553377
0.0544563
0.0535957
0.0527553
0.0519345
0.051133
0.0503511
0.0495891
0.0488483
0.0481306
0.047439
0.0467781
0.0461548
0.0455787
0.0450633
0.0446279
0.0442989
0.044112
0.961692
0.892184
0.829084
0.771727
0.719523
0.671944
0.628523
0.588843
0.552532
0.519258
0.488725
0.460668
0.434851
0.411061
0.389111
0.368829
0.350064
0.332678
0.316549
0.301565
0.287629
0.274649
0.262544
0.251242
0.240677
0.230788
0.221521
0.212827
0.204661
0.196983
0.189756
0.182946
0.176521
0.170455
0.164721
0.159296
0.154158
0.149287
0.144666
0.140278
0.136107
0.132139
0.128361
0.124762
0.121329
0.118054
0.114925
0.111935
0.109074
0.106337
0.103715
0.101201
0.0987908
0.0964774
0.0942557
0.0921208
0.0900679
0.0880929
0.0861915
0.0843599
0.0825946
0.0808922
0.0792496
0.0776637
0.0761317
0.0746511
0.0732192
0.0718338
0.0704926
0.0691934
0.0679344
0.0667135
0.065529
0.0643791
0.0632623
0.0621769
0.0611214
0.0600945
0.0590949
0.0581211
0.0571721
0.0562467
0.0553439
0.0544627
0.0536024
0.0527621
0.0519415
0.0511403
0.0503586
0.0495969
0.0488563
0.0481387
0.0474473
0.0467866
0.0461634
0.0455874
0.0450721
0.0446367
0.0443077
0.0441207
0.961692
0.892184
0.829084
0.771727
0.719523
0.671944
0.628523
0.588843
0.552532
0.519258
0.488725
0.460668
0.434851
0.411061
0.389111
0.368829
0.350064
0.332678
0.316549
0.301566
0.287629
0.274649
0.262544
0.251243
0.240677
0.230788
0.221521
0.212828
0.204662
0.196984
0.189757
0.182946
0.176522
0.170456
0.164722
0.159297
0.154159
0.149288
0.144667
0.140279
0.136108
0.13214
0.128363
0.124763
0.121331
0.118055
0.114926
0.111936
0.109076
0.106339
0.103716
0.101203
0.0987929
0.0964796
0.094258
0.0921231
0.0900704
0.0880954
0.0861941
0.0843626
0.0825974
0.0808952
0.0792526
0.0776668
0.076135
0.0746544
0.0732227
0.0718374
0.0704963
0.0691973
0.0679384
0.0667177
0.0655333
0.0643836
0.0632669
0.0621816
0.0611264
0.0600997
0.0591002
0.0581266
0.0571778
0.0562526
0.05535
0.054469
0.0536089
0.0527689
0.0519485
0.0511475
0.050366
0.0496045
0.0488641
0.0481467
0.0474555
0.0467949
0.0461719
0.0455959
0.0450807
0.0446453
0.0443163
0.0441294
0.961692
0.892184
0.829084
0.771727
0.719523
0.671944
0.628523
0.588843
0.552532
0.519258
0.488725
0.460668
0.434851
0.411062
0.389111
0.368829
0.350064
0.332678
0.316549
0.301566
0.287629
0.274649
0.262545
0.251243
0.240677
0.230788
0.221522
0.212828
0.204662
0.196985
0.189757
0.182947
0.176523
0.170456
0.164722
0.159297
0.15416
0.149289
0.144668
0.14028
0.136109
0.132142
0.128364
0.124765
0.121332
0.118056
0.114928
0.111938
0.109078
0.10634
0.103718
0.101205
0.0987949
0.0964817
0.0942601
0.0921254
0.0900727
0.0880979
0.0861966
0.0843653
0.0826002
0.080898
0.0792556
0.0776699
0.0761382
0.0746577
0.0732261
0.0718409
0.0705
0.0692011
0.0679423
0.0667217
0.0655375
0.0643879
0.0632714
0.0621863
0.0611312
0.0601047
0.0591053
0.058132
0.0571834
0.0562584
0.0553559
0.0544752
0.0536152
0.0527754
0.0519553
0.0511545
0.0503732
0.0496119
0.0488717
0.0481545
0.0474635
0.0468031
0.0461801
0.0456043
0.0450891
0.0446538
0.0443248
0.0441378
0.961692
0.892184
0.829084
0.771727
0.719523
0.671944
0.628523
0.588843
0.552532
0.519258
0.488725
0.460668
0.434851
0.411062
0.389111
0.368829
0.350064
0.332678
0.316549
0.301566
0.287629
0.274649
0.262545
0.251243
0.240678
0.230789
0.221522
0.212828
0.204663
0.196985
0.189758
0.182948
0.176523
0.170457
0.164723
0.159298
0.15416
0.14929
0.144669
0.140281
0.13611
0.132143
0.128365
0.124766
0.121334
0.118058
0.114929
0.111939
0.109079
0.106342
0.10372
0.101207
0.0987969
0.0964837
0.0942623
0.0921276
0.090075
0.0881002
0.0861991
0.0843679
0.0826029
0.0809008
0.0792585
0.0776729
0.0761413
0.0746609
0.0732294
0.0718444
0.0705035
0.0692048
0.0679461
0.0667257
0.0655416
0.0643922
0.0632758
0.0621908
0.0611359
0.0601095
0.0591104
0.0581372
0.0571887
0.0562639
0.0553617
0.0544812
0.0536214
0.0527818
0.0519619
0.0511613
0.0503802
0.0496191
0.0488791
0.0481621
0.0474712
0.046811
0.0461882
0.0456124
0.0450973
0.044662
0.044333
0.044146
0.961692
0.892184
0.829084
0.771727
0.719523
0.671944
0.628523
0.588843
0.552532
0.519258
0.488725
0.460668
0.434851
0.411062
0.389111
0.368829
0.350064
0.332678
0.316549
0.301566
0.287629
0.274649
0.262545
0.251243
0.240678
0.230789
0.221523
0.212829
0.204663
0.196986
0.189758
0.182948
0.176524
0.170458
0.164724
0.159299
0.154161
0.149291
0.14467
0.140282
0.136111
0.132144
0.128366
0.124767
0.121335
0.118059
0.114931
0.111941
0.109081
0.106344
0.103722
0.101209
0.0987988
0.0964857
0.0942643
0.0921297
0.0900773
0.0881026
0.0862015
0.0843704
0.0826055
0.0809035
0.0792612
0.0776758
0.0761442
0.074664
0.0732326
0.0718477
0.070507
0.0692084
0.0679498
0.0667295
0.0655455
0.0643963
0.06328
0.0621952
0.0611404
0.0601142
0.0591152
0.0581422
0.057194
0.0562693
0.0553673
0.0544869
0.0536274
0.052788
0.0519682
0.0511679
0.050387
0.0496261
0.0488863
0.0481695
0.0474788
0.0468187
0.046196
0.0456203
0.0451053
0.0446701
0.044341
0.044154
0.961692
0.892184
0.829084
0.771727
0.719523
0.671944
0.628523
0.588843
0.552532
0.519258
0.488725
0.460668
0.434851
0.411062
0.389111
0.36883
0.350064
0.332678
0.316549
0.301566
0.28763
0.27465
0.262545
0.251244
0.240678
0.23079
0.221523
0.212829
0.204664
0.196986
0.189759
0.182949
0.176525
0.170458
0.164725
0.1593
0.154162
0.149292
0.144671
0.140283
0.136112
0.132145
0.128368
0.124768
0.121336
0.118061
0.114932
0.111942
0.109083
0.106345
0.103724
0.101211
0.0988006
0.0964876
0.0942663
0.0921318
0.0900794
0.0881048
0.0862038
0.0843728
0.082608
0.0809061
0.0792639
0.0776786
0.0761471
0.074667
0.0732357
0.0718509
0.0705103
0.0692118
0.0679534
0.0667332
0.0655494
0.0644002
0.0632841
0.0621995
0.0611448
0.0601188
0.05912
0.0581471
0.057199
0.0562746
0.0553727
0.0544925
0.0536332
0.052794
0.0519744
0.0511743
0.0503936
0.0496329
0.0488933
0.0481766
0.0474861
0.0468261
0.0462036
0.045628
0.045113
0.0446778
0.0443488
0.0441618
0.961692
0.892184
0.829084
0.771727
0.719522
0.671944
0.628523
0.588843
0.552532
0.519258
0.488725
0.460668
0.434851
0.411062
0.389111
0.36883
0.350064
0.332679
0.316549
0.301566
0.28763
0.27465
0.262546
0.251244
0.240679
0.23079
0.221523
0.21283