/*--------------------------------*- C++ -*----------------------------------*\
  =========                 |
  \\      /  F ield         | OpenFOAM: The Open Source CFD Toolbox
   \\    /   O peration     | Website:  https://openfoam.org
    \\  /    A nd           | Version:  11
     \\/     M anipulation  |
\*---------------------------------------------------------------------------*/
FoamFile
{
    format      ascii;
    class       volScalarField;
    location    "852";
    object      p;
}
// * * * * * * * * * * * * * * * * * * * * * * * * * * * * * * * * * * * * * //

dimensions      [0 2 -2 0 0 0 0];

internalField   nonuniform List<scalar> 
10000
(
1.24311e-10
1.1969e-10
1.2362e-10
1.33444e-10
1.45068e-10
1.57582e-10
1.70885e-10
1.84942e-10
1.99748e-10
2.15334e-10
2.31749e-10
2.49053e-10
2.67311e-10
2.86588e-10
3.06954e-10
3.2848e-10
3.51239e-10
3.75307e-10
4.00761e-10
4.27682e-10
4.56151e-10
4.86255e-10
5.1808e-10
5.51718e-10
5.87263e-10
6.24809e-10
6.64457e-10
7.06308e-10
7.50468e-10
7.97044e-10
8.46146e-10
8.97888e-10
9.52387e-10
1.00976e-09
1.07013e-09
1.13361e-09
1.20034e-09
1.27044e-09
1.34403e-09
1.42125e-09
1.50223e-09
1.58709e-09
1.67597e-09
1.769e-09
1.86629e-09
1.96798e-09
2.0742e-09
2.18505e-09
2.30065e-09
2.42111e-09
2.54653e-09
2.677e-09
2.81261e-09
2.95342e-09
3.0995e-09
3.25088e-09
3.40759e-09
3.56964e-09
3.73699e-09
3.90962e-09
4.08745e-09
4.27036e-09
4.45823e-09
4.65085e-09
4.848e-09
5.04939e-09
5.25469e-09
5.46347e-09
5.67526e-09
5.88949e-09
6.10551e-09
6.32254e-09
6.5397e-09
6.756e-09
6.97028e-09
7.1812e-09
7.38729e-09
7.58682e-09
7.77785e-09
7.95819e-09
8.12535e-09
8.27649e-09
8.40844e-09
8.51756e-09
8.59977e-09
8.65043e-09
8.66427e-09
8.63533e-09
8.5568e-09
8.4209e-09
8.21866e-09
7.93968e-09
7.57167e-09
7.0997e-09
6.50525e-09
5.76587e-09
4.84932e-09
3.67222e-09
2.10233e-09
1.53605e-10
2.22073e-10
2.05588e-10
1.95725e-10
1.98642e-10
2.07176e-10
2.18572e-10
2.32053e-10
2.47208e-10
2.63788e-10
2.81674e-10
3.00827e-10
3.21247e-10
3.42962e-10
3.66016e-10
3.90464e-10
4.16372e-10
4.43809e-10
4.72853e-10
5.03587e-10
5.36095e-10
5.7047e-10
6.06805e-10
6.45199e-10
6.85753e-10
7.28574e-10
7.7377e-10
8.21453e-10
8.7174e-10
9.24749e-10
9.80603e-10
1.03943e-09
1.10135e-09
1.1665e-09
1.23501e-09
1.30701e-09
1.38266e-09
1.46207e-09
1.5454e-09
1.63279e-09
1.72437e-09
1.82029e-09
1.92069e-09
2.0257e-09
2.13548e-09
2.25015e-09
2.36984e-09
2.49468e-09
2.62479e-09
2.76028e-09
2.90126e-09
3.04783e-09
3.20006e-09
3.35802e-09
3.52178e-09
3.69135e-09
3.86677e-09
4.04802e-09
4.23507e-09
4.42784e-09
4.62626e-09
4.83017e-09
5.03941e-09
5.25374e-09
5.47289e-09
5.69653e-09
5.92424e-09
6.15554e-09
6.38989e-09
6.62661e-09
6.86496e-09
7.10406e-09
7.34291e-09
7.58035e-09
7.81509e-09
8.04563e-09
8.27028e-09
8.48712e-09
8.69399e-09
8.88841e-09
9.06763e-09
9.22849e-09
9.36747e-09
9.48057e-09
9.56327e-09
9.61048e-09
9.61642e-09
9.57457e-09
9.4775e-09
9.31678e-09
9.08272e-09
8.7642e-09
8.34829e-09
7.81968e-09
7.15975e-09
6.34602e-09
5.35519e-09
4.15707e-09
2.62258e-09
4.60929e-10
-1.49586e-09
2.57789e-10
2.36114e-10
2.1779e-10
2.12307e-10
2.13649e-10
2.18865e-10
2.26938e-10
2.37249e-10
2.49375e-10
2.63062e-10
2.78166e-10
2.94609e-10
3.12353e-10
3.31391e-10
3.51736e-10
3.73413e-10
3.96462e-10
4.2093e-10
4.46873e-10
4.7435e-10
5.03428e-10
5.34178e-10
5.66674e-10
6.00994e-10
6.3722e-10
6.75438e-10
7.15734e-10
7.582e-10
8.0293e-10
8.50018e-10
8.99563e-10
9.51665e-10
1.00643e-09
1.06395e-09
1.12434e-09
1.1877e-09
1.25414e-09
1.32377e-09
1.39669e-09
1.47301e-09
1.55284e-09
1.63627e-09
1.72342e-09
1.81437e-09
1.90923e-09
2.00808e-09
2.11101e-09
2.21809e-09
2.32941e-09
2.44501e-09
2.56496e-09
2.68929e-09
2.81803e-09
2.95118e-09
3.08875e-09
3.2307e-09
3.37699e-09
3.52754e-09
3.68224e-09
3.84097e-09
4.00356e-09
4.1698e-09
4.33942e-09
4.51214e-09
4.68759e-09
4.86536e-09
5.04495e-09
5.22581e-09
5.40729e-09
5.58865e-09
5.76904e-09
5.9475e-09
6.12294e-09
6.29412e-09
6.45964e-09
6.61792e-09
6.76718e-09
6.90542e-09
7.03037e-09
7.13949e-09
7.22994e-09
7.29849e-09
7.34154e-09
7.35503e-09
7.33438e-09
7.27445e-09
7.16943e-09
7.01274e-09
6.79694e-09
6.51354e-09
6.15283e-09
5.70363e-09
5.15288e-09
4.48486e-09
3.68163e-09
2.72926e-09
1.60927e-09
1.64388e-10
-1.95391e-09
-3.09187e-09
2.85148e-10
2.6253e-10
2.42529e-10
2.33805e-10
2.31634e-10
2.33599e-10
2.38772e-10
2.4651e-10
2.56342e-10
2.6796e-10
2.81166e-10
2.95836e-10
3.11895e-10
3.29302e-10
3.48043e-10
3.68122e-10
3.89557e-10
4.12378e-10
4.36625e-10
4.62343e-10
4.89586e-10
5.18412e-10
5.48883e-10
5.81066e-10
6.15032e-10
6.50854e-10
6.88608e-10
7.28373e-10
7.7023e-10
8.14264e-10
8.60559e-10
9.09202e-10
9.60282e-10
1.01389e-09
1.07011e-09
1.12904e-09
1.19076e-09
1.25537e-09
1.32296e-09
1.39362e-09
1.46742e-09
1.54447e-09
1.62483e-09
1.70858e-09
1.7958e-09
1.88656e-09
1.98092e-09
2.07892e-09
2.18062e-09
2.28606e-09
2.39525e-09
2.5082e-09
2.62493e-09
2.74539e-09
2.86957e-09
2.99739e-09
3.12878e-09
3.26362e-09
3.40179e-09
3.54311e-09
3.68738e-09
3.83435e-09
3.98373e-09
4.13517e-09
4.2883e-09
4.44264e-09
4.59767e-09
4.75279e-09
4.90732e-09
5.06047e-09
5.21138e-09
5.35902e-09
5.50229e-09
5.63991e-09
5.77046e-09
5.89233e-09
6.00373e-09
6.10263e-09
6.18678e-09
6.25365e-09
6.3004e-09
6.32386e-09
6.32048e-09
6.28627e-09
6.21679e-09
6.10704e-09
5.95142e-09
5.74362e-09
5.47656e-09
5.14223e-09
4.7316e-09
4.23441e-09
3.63889e-09
2.93119e-09
2.09646e-09
1.12672e-09
8.98901e-12
-1.43434e-09
-3.54234e-09
-4.29551e-09
3.05498e-10
2.83265e-10
2.63686e-10
2.53812e-10
2.49849e-10
2.49944e-10
2.53332e-10
2.59431e-10
2.67784e-10
2.78071e-10
2.90077e-10
3.03653e-10
3.18701e-10
3.35161e-10
3.53e-10
3.72204e-10
3.92779e-10
4.14742e-10
4.38119e-10
4.62948e-10
4.89272e-10
5.17139e-10
5.46604e-10
5.77726e-10
6.10565e-10
6.45188e-10
6.81664e-10
7.20062e-10
7.60456e-10
8.02921e-10
8.47533e-10
8.94371e-10
9.43512e-10
9.95036e-10
1.04902e-09
1.10555e-09
1.1647e-09
1.22655e-09
1.29118e-09
1.35866e-09
1.42906e-09
1.50246e-09
1.57892e-09
1.6585e-09
1.74125e-09
1.82724e-09
1.91649e-09
2.00905e-09
2.10494e-09
2.20417e-09
2.30674e-09
2.41265e-09
2.52187e-09
2.63434e-09
2.75001e-09
2.86879e-09
2.99056e-09
3.1152e-09
3.24252e-09
3.37234e-09
3.5044e-09
3.63842e-09
3.77409e-09
3.91101e-09
4.04876e-09
4.18684e-09
4.32467e-09
4.46162e-09
4.59695e-09
4.72984e-09
4.85936e-09
4.98447e-09
5.10399e-09
5.21661e-09
5.32086e-09
5.41508e-09
5.49745e-09
5.5659e-09
5.61814e-09
5.65161e-09
5.66346e-09
5.6505e-09
5.60921e-09
5.53562e-09
5.42535e-09
5.27348e-09
5.07456e-09
4.8225e-09
4.51049e-09
4.13095e-09
3.67544e-09
3.13456e-09
2.49777e-09
1.75294e-09
8.87986e-10
-1.00407e-10
-1.22085e-09
-2.66069e-09
-4.72331e-09
-5.28262e-09
3.19201e-10
2.97847e-10
2.79039e-10
2.68686e-10
2.63607e-10
2.62359e-10
2.64338e-10
2.69046e-10
2.7607e-10
2.85102e-10
2.95923e-10
3.08375e-10
3.22348e-10
3.37767e-10
3.54586e-10
3.72778e-10
3.92337e-10
4.13269e-10
4.35592e-10
4.5933e-10
4.84519e-10
5.11199e-10
5.39416e-10
5.69218e-10
6.00661e-10
6.33801e-10
6.68699e-10
7.05416e-10
7.44017e-10
7.84567e-10
8.27135e-10
8.71788e-10
9.18595e-10
9.67624e-10
1.01895e-09
1.07263e-09
1.12874e-09
1.18734e-09
1.2485e-09
1.31228e-09
1.37873e-09
1.44792e-09
1.51989e-09
1.59469e-09
1.67236e-09
1.75292e-09
1.83641e-09
1.92284e-09
2.01221e-09
2.10452e-09
2.19975e-09
2.29785e-09
2.39879e-09
2.5025e-09
2.60887e-09
2.7178e-09
2.82916e-09
2.94277e-09
3.05843e-09
3.17593e-09
3.29497e-09
3.41526e-09
3.53643e-09
3.65807e-09
3.77972e-09
3.90083e-09
4.02081e-09
4.13899e-09
4.25459e-09
4.36676e-09
4.47453e-09
4.57684e-09
4.67248e-09
4.76011e-09
4.83824e-09
4.90519e-09
4.95911e-09
4.99795e-09
5.0194e-09
5.02094e-09
4.99972e-09
4.95263e-09
4.87619e-09
4.76655e-09
4.61945e-09
4.43018e-09
4.19352e-09
3.9037e-09
3.55437e-09
3.13853e-09
2.6485e-09
2.07593e-09
1.41169e-09
6.45544e-10
-2.31889e-10
-1.21944e-09
-2.32114e-09
-3.73472e-09
-5.75367e-09
-6.11196e-09
3.28059e-10
3.07692e-10
2.89769e-10
2.79343e-10
2.73613e-10
2.71422e-10
2.72307e-10
2.75859e-10
2.81716e-10
2.89598e-10
2.99292e-10
3.10642e-10
3.2353e-10
3.37874e-10
3.53619e-10
3.70729e-10
3.89188e-10
4.08993e-10
4.30151e-10
4.52681e-10
4.76608e-10
5.01965e-10
5.28787e-10
5.57118e-10
5.87003e-10
6.18491e-10
6.51634e-10
6.86484e-10
7.23099e-10
7.61535e-10
8.01849e-10
8.44101e-10
8.88349e-10
9.34652e-10
9.83068e-10
1.03365e-09
1.08647e-09
1.14156e-09
1.19898e-09
1.25878e-09
1.321e-09
1.38569e-09
1.45288e-09
1.52259e-09
1.59486e-09
1.66969e-09
1.7471e-09
1.82708e-09
1.90962e-09
1.99468e-09
2.08224e-09
2.17223e-09
2.26458e-09
2.3592e-09
2.45597e-09
2.55477e-09
2.65542e-09
2.75774e-09
2.8615e-09
2.96644e-09
3.07228e-09
3.17865e-09
3.28519e-09
3.39146e-09
3.49695e-09
3.6011e-09
3.7033e-09
3.80283e-09
3.89892e-09
3.99067e-09
4.0771e-09
4.15713e-09
4.22953e-09
4.29296e-09
4.3459e-09
4.3867e-09
4.41352e-09
4.4243e-09
4.41679e-09
4.3885e-09
4.33665e-09
4.25822e-09
4.14984e-09
4.00781e-09
3.82808e-09
3.60616e-09
3.33717e-09
3.01575e-09
2.63606e-09
2.19175e-09
1.67602e-09
1.08162e-09
4.00842e-10
-3.7479e-10
-1.25221e-09
-2.22582e-09
-3.29437e-09
-4.67224e-09
-6.70244e-09
-6.80511e-09
3.33352e-10
3.13915e-10
2.96932e-10
2.86718e-10
2.80682e-10
2.77875e-10
2.77947e-10
2.80572e-10
2.85443e-10
2.9231e-10
3.00977e-10
3.11293e-10
3.23142e-10
3.36437e-10
3.51118e-10
3.67143e-10
3.84488e-10
4.03142e-10
4.23108e-10
4.44394e-10
4.67019e-10
4.91007e-10
5.16389e-10
5.43197e-10
5.71471e-10
6.01251e-10
6.32582e-10
6.65508e-10
7.00077e-10
7.36337e-10
7.74338e-10
8.14128e-10
8.55757e-10
8.99273e-10
9.44725e-10
9.92157e-10
1.04162e-09
1.09314e-09
1.14678e-09
1.20255e-09
1.2605e-09
1.32065e-09
1.38302e-09
1.44763e-09
1.51448e-09
1.58358e-09
1.65491e-09
1.72845e-09
1.80418e-09
1.88204e-09
1.96197e-09
2.04392e-09
2.12777e-09
2.21341e-09
2.30072e-09
2.38954e-09
2.47968e-09
2.57092e-09
2.66303e-09
2.75572e-09
2.84866e-09
2.94151e-09
3.03384e-09
3.1252e-09
3.21508e-09
3.30288e-09
3.38797e-09
3.46962e-09
3.54702e-09
3.61928e-09
3.68542e-09
3.74431e-09
3.79475e-09
3.83539e-09
3.86472e-09
3.88111e-09
3.88273e-09
3.86758e-09
3.83344e-09
3.7779e-09
3.69828e-09
3.59164e-09
3.45479e-09
3.2842e-09
3.07604e-09
2.82612e-09
2.5299e-09
2.18247e-09
1.77853e-09
1.31242e-09
7.78198e-10
1.69672e-10
-5.19571e-10
-1.29648e-09
-2.16602e-09
-3.11859e-09
-4.1476e-09
-5.48919e-09
-7.57652e-09
-7.41517e-09
3.35884e-10
3.17065e-10
3.01087e-10
2.91293e-10
2.8519e-10
2.82004e-10
2.81483e-10
2.83368e-10
2.87406e-10
2.93378e-10
3.01111e-10
3.1046e-10
3.21315e-10
3.3359e-10
3.47221e-10
3.62164e-10
3.78388e-10
3.95879e-10
4.1463e-10
4.34646e-10
4.55938e-10
4.78524e-10
5.02426e-10
5.27671e-10
5.54291e-10
5.8232e-10
6.11793e-10
6.42748e-10
6.75224e-10
7.09262e-10
7.44902e-10
7.82184e-10
8.21148e-10
8.61834e-10
9.04278e-10
9.48518e-10
9.94586e-10
1.04251e-09
1.09233e-09
1.14405e-09
1.19771e-09
1.25331e-09
1.31086e-09
1.37036e-09
1.4318e-09
1.49518e-09
1.56046e-09
1.6276e-09
1.69657e-09
1.76729e-09
1.8397e-09
1.91369e-09
1.98916e-09
2.06598e-09
2.144e-09
2.22303e-09
2.30287e-09
2.3833e-09
2.46404e-09
2.54479e-09
2.62522e-09
2.70495e-09
2.78354e-09
2.86052e-09
2.93535e-09
3.00744e-09
3.07613e-09
3.14067e-09
3.20027e-09
3.25401e-09
3.30091e-09
3.33984e-09
3.36962e-09
3.38889e-09
3.39618e-09
3.38988e-09
3.3682e-09
3.32919e-09
3.27071e-09
3.19042e-09
3.08576e-09
2.95394e-09
2.7919e-09
2.59634e-09
2.36367e-09
2.09001e-09
1.77119e-09
1.40275e-09
9.79946e-10
4.97796e-10
-4.88544e-11
-6.65208e-10
-1.35654e-09
-2.12856e-09
-2.98477e-09
-3.91226e-09
-4.9001e-09
-6.20879e-09
-8.37411e-09
-7.99022e-09
3.36309e-10
3.1752e-10
3.02708e-10
2.93473e-10
2.87436e-10
2.84027e-10
2.83068e-10
2.84358e-10
2.87684e-10
2.92863e-10
2.99738e-10
3.0818e-10
3.18083e-10
3.29364e-10
3.4196e-10
3.55823e-10
3.70922e-10
3.87236e-10
4.04754e-10
4.23475e-10
4.43405e-10
4.64556e-10
4.86943e-10
5.10587e-10
5.35513e-10
5.61748e-10
5.8932e-10
6.1826e-10
6.48599e-10
6.8037e-10
7.13605e-10
7.48335e-10
7.84591e-10
8.22405e-10
8.61803e-10
9.02812e-10
9.45456e-10
9.89754e-10
1.03572e-09
1.08337e-09
1.13272e-09
1.18375e-09
1.23647e-09
1.29087e-09
1.34692e-09
1.40459e-09
1.46385e-09
1.52464e-09
1.5869e-09
1.65056e-09
1.71552e-09
1.78167e-09
1.84889e-09
1.91703e-09
1.98591e-09
2.05535e-09
2.12512e-09
2.19498e-09
2.26464e-09
2.33379e-09
2.40206e-09
2.46908e-09
2.53438e-09
2.59748e-09
2.65784e-09
2.71485e-09
2.76783e-09
2.81606e-09
2.8587e-09
2.89486e-09
2.92355e-09
2.94367e-09
2.95403e-09
2.95332e-09
2.94008e-09
2.91274e-09
2.86958e-09
2.8087e-09
2.72806e-09
2.6254e-09
2.49829e-09
2.34408e-09
2.15991e-09
1.9427e-09
1.68911e-09
1.39558e-09
1.05831e-09
6.73292e-10
2.36318e-10
-2.56963e-10
-8.10961e-10
-1.43e-09
-2.11836e-09
-2.88073e-09
-3.71944e-09
-4.61881e-09
-5.56396e-09
-6.83799e-09
-9.07824e-09
-8.50814e-09
3.33357e-10
3.16273e-10
3.02547e-10
2.93668e-10
2.87709e-10
2.8416e-10
2.82868e-10
2.83668e-10
2.86382e-10
2.90851e-10
2.96937e-10
3.04523e-10
3.13513e-10
3.23827e-10
3.35404e-10
3.48195e-10
3.62167e-10
3.77295e-10
3.93566e-10
4.10975e-10
4.2952e-10
4.49209e-10
4.70052e-10
4.92065e-10
5.15264e-10
5.39671e-10
5.65308e-10
5.92197e-10
6.20364e-10
6.49832e-10
6.80626e-10
7.12771e-10
7.46287e-10
7.81198e-10
8.17521e-10
8.55273e-10
8.94469e-10
9.35118e-10
9.77227e-10
1.0208e-09
1.06582e-09
1.11229e-09
1.1602e-09
1.2095e-09
1.26018e-09
1.31219e-09
1.36548e-09
1.41998e-09
1.47561e-09
1.53229e-09
1.58991e-09
1.64834e-09
1.70744e-09
1.76706e-09
1.827e-09
1.88706e-09
1.94701e-09
2.00657e-09
2.06546e-09
2.12334e-09
2.17985e-09
2.23458e-09
2.28707e-09
2.33683e-09
2.38329e-09
2.42586e-09
2.46385e-09
2.49653e-09
2.52307e-09
2.5426e-09
2.55412e-09
2.55656e-09
2.54875e-09
2.5294e-09
2.49711e-09
2.45035e-09
2.38746e-09
2.30663e-09
2.20589e-09
2.08311e-09
1.93599e-09
1.76204e-09
1.55859e-09
1.32277e-09
1.05152e-09
7.41598e-10
3.89568e-10
-8.15196e-12
-4.55267e-10
-9.55546e-10
-1.51272e-09
-2.13035e-09
-2.81183e-09
-3.56094e-09
-4.37898e-09
-5.24768e-09
-6.14763e-09
-7.37725e-09
-9.65982e-09
-8.92936e-09
3.27728e-10
3.1336e-10
3.00555e-10
2.92012e-10
2.86184e-10
2.82566e-10
2.81025e-10
2.81421e-10
2.83603e-10
2.87432e-10
2.92789e-10
2.99569e-10
3.07682e-10
3.17056e-10
3.27631e-10
3.3936e-10
3.52207e-10
3.66147e-10
3.81164e-10
3.97246e-10
4.14391e-10
4.32599e-10
4.51878e-10
4.72235e-10
4.93683e-10
5.16237e-10
5.39911e-10
5.64724e-10
5.90691e-10
6.17831e-10
6.46161e-10
6.75695e-10
7.0645e-10
7.38438e-10
7.7167e-10
8.06152e-10
8.41891e-10
8.78885e-10
9.17132e-10
9.56622e-10
9.97342e-10
1.03927e-09
1.08238e-09
1.12663e-09
1.17198e-09
1.21838e-09
1.26576e-09
1.31404e-09
1.36314e-09
1.41295e-09
1.46335e-09
1.5142e-09
1.56536e-09
1.61664e-09
1.66785e-09
1.71876e-09
1.76914e-09
1.81871e-09
1.86715e-09
1.91413e-09
1.95927e-09
2.00216e-09
2.04233e-09
2.07928e-09
2.11245e-09
2.14123e-09
2.16495e-09
2.18287e-09
2.19418e-09
2.19801e-09
2.19338e-09
2.17926e-09
2.15449e-09
2.11784e-09
2.06794e-09
2.00332e-09
1.9224e-09
1.82344e-09
1.70458e-09
1.5638e-09
1.39895e-09
1.20771e-09
9.87593e-10
7.35957e-10
4.50005e-10
1.26792e-10
-2.3676e-10
-6.43834e-10
-1.09767e-09
-1.60153e-09
-2.15854e-09
-2.77159e-09
-3.44334e-09
-4.17679e-09
-4.97233e-09
-5.80947e-09
-6.66444e-09
-7.84391e-09
-1.01307e-08
-9.28053e-09
3.21043e-10
3.08472e-10
2.96693e-10
2.88623e-10
2.83e-10
2.79384e-10
2.77666e-10
2.77731e-10
2.79447e-10
2.82698e-10
2.87379e-10
2.93395e-10
3.00668e-10
3.09128e-10
3.1872e-10
3.29398e-10
3.41128e-10
3.53881e-10
3.67638e-10
3.82388e-10
3.98121e-10
4.14837e-10
4.32535e-10
4.51221e-10
4.709e-10
4.91582e-10
5.13277e-10
5.35994e-10
5.59744e-10
5.84539e-10
6.10388e-10
6.373e-10
6.65281e-10
6.94337e-10
7.24471e-10
7.55681e-10
7.87963e-10
8.21308e-10
8.55705e-10
8.91133e-10
9.2757e-10
9.64984e-10
1.00334e-09
1.04258e-09
1.08267e-09
1.12352e-09
1.16507e-09
1.20723e-09
1.2499e-09
1.29296e-09
1.33628e-09
1.37971e-09
1.4231e-09
1.46624e-09
1.50894e-09
1.55097e-09
1.59206e-09
1.63193e-09
1.67027e-09
1.70673e-09
1.74092e-09
1.77242e-09
1.80077e-09
1.82547e-09
1.84595e-09
1.8616e-09
1.87176e-09
1.87571e-09
1.87264e-09
1.8617e-09
1.84194e-09
1.81235e-09
1.77182e-09
1.71914e-09
1.65302e-09
1.57204e-09
1.4747e-09
1.35934e-09
1.22422e-09
1.06745e-09
8.87e-10
6.80723e-10
4.46329e-10
1.81397e-10
-1.16619e-10
-4.50377e-10
-8.22627e-10
-1.23618e-09
-1.69388e-09
-2.19851e-09
-2.75271e-09
-3.35882e-09
-4.01892e-09
-4.73544e-09
-5.50817e-09
-6.31525e-09
-7.13069e-09
-8.26962e-09
-1.05516e-08
-9.61669e-09
3.13394e-10
3.02066e-10
2.91252e-10
2.83698e-10
2.78326e-10
2.74762e-10
2.72923e-10
2.72713e-10
2.7402e-10
2.76744e-10
2.80793e-10
2.86086e-10
2.92549e-10
3.00122e-10
3.08751e-10
3.18393e-10
3.29013e-10
3.40583e-10
3.53083e-10
3.66497e-10
3.80815e-10
3.9603e-10
4.12139e-10
4.29143e-10
4.47043e-10
4.65842e-10
4.85545e-10
5.06156e-10
5.2768e-10
5.50121e-10
5.73482e-10
5.97765e-10
6.22971e-10
6.49095e-10
6.76134e-10
7.04079e-10
7.32916e-10
7.62629e-10
7.93197e-10
8.24593e-10
8.56782e-10
8.89725e-10
9.23373e-10
9.57672e-10
9.92556e-10
1.02795e-09
1.06377e-09
1.09991e-09
1.13627e-09
1.17271e-09
1.20911e-09
1.2453e-09
1.2811e-09
1.31633e-09
1.35076e-09
1.38415e-09
1.41624e-09
1.44674e-09
1.47533e-09
1.50165e-09
1.52531e-09
1.5459e-09
1.56294e-09
1.57594e-09
1.58433e-09
1.58751e-09
1.58483e-09
1.57558e-09
1.55898e-09
1.53418e-09
1.50028e-09
1.45629e-09
1.40114e-09
1.33368e-09
1.25266e-09
1.15675e-09
1.04451e-09
9.14403e-10
7.64767e-10
5.93843e-10
3.99756e-10
1.80515e-10
-6.59825e-11
-3.41944e-10
-6.49676e-10
-9.91568e-10
-1.37007e-09
-1.78767e-09
-2.24684e-09
-2.74997e-09
-3.2993e-09
-3.89674e-09
-4.54393e-09
-5.24293e-09
-5.99322e-09
-6.77219e-09
-7.55318e-09
-8.66156e-09
-1.09474e-08
-9.93357e-09
3.04715e-10
2.94398e-10
2.84469e-10
2.77431e-10
2.72331e-10
2.68849e-10
2.66928e-10
2.66485e-10
2.67427e-10
2.69666e-10
2.73123e-10
2.77726e-10
2.83411e-10
2.9012e-10
2.97806e-10
3.06427e-10
3.15949e-10
3.26344e-10
3.37591e-10
3.49671e-10
3.62573e-10
3.76285e-10
3.90803e-10
4.06121e-10
4.22236e-10
4.39148e-10
4.56855e-10
4.75356e-10
4.94651e-10
5.14737e-10
5.35612e-10
5.5727e-10
5.79705e-10
6.02907e-10
6.26864e-10
6.51559e-10
6.76973e-10
7.03081e-10
7.29853e-10
7.57254e-10
7.85241e-10
8.13766e-10
8.42772e-10
8.72196e-10
9.01961e-10
9.31986e-10
9.62174e-10
9.92418e-10
1.0226e-09
1.05258e-09
1.08222e-09
1.11134e-09
1.13977e-09
1.1673e-09
1.19371e-09
1.21875e-09
1.24214e-09
1.2636e-09
1.2828e-09
1.29937e-09
1.31294e-09
1.32308e-09
1.32932e-09
1.33117e-09
1.32807e-09
1.31944e-09
1.30463e-09
1.28294e-09
1.25363e-09
1.21586e-09
1.16878e-09
1.11141e-09
1.04275e-09
9.6169e-10
8.6705e-10
7.57565e-10
6.31877e-10
4.88541e-10
3.26012e-10
1.42653e-10
-6.32713e-11
-2.93592e-10
-5.5023e-10
-8.35194e-10
-1.15057e-09
-1.49849e-09
-1.88114e-09
-2.30072e-09
-2.75938e-09
-3.25919e-09
-3.80205e-09
-4.38951e-09
-5.02294e-09
-5.70414e-09
-6.43241e-09
-7.18463e-09
-7.93376e-09
-9.01399e-09
-1.12984e-08
-1.02033e-08
2.9504e-10
2.85616e-10
2.76512e-10
2.6998e-10
2.65161e-10
2.61784e-10
2.59806e-10
2.59163e-10
2.59774e-10
2.61563e-10
2.64461e-10
2.68405e-10
2.73337e-10
2.79207e-10
2.85969e-10
2.93586e-10
3.02023e-10
3.11254e-10
3.21255e-10
3.32008e-10
3.43497e-10
3.5571e-10
3.68638e-10
3.82271e-10
3.96604e-10
4.11629e-10
4.27342e-10
4.43737e-10
4.60807e-10
4.78545e-10
4.96941e-10
5.15985e-10
5.35663e-10
5.5596e-10
5.76857e-10
5.98329e-10
6.2035e-10
6.42888e-10
6.65905e-10
6.89359e-10
7.132e-10
7.37371e-10
7.61808e-10
7.86437e-10
8.11178e-10
8.35937e-10
8.60612e-10
8.85087e-10
9.09235e-10
9.32914e-10
9.55967e-10
9.78222e-10
9.99489e-10
1.01956e-09
1.0382e-09
1.05516e-09
1.07017e-09
1.08292e-09
1.09309e-09
1.10032e-09
1.10423e-09
1.10438e-09
1.10034e-09
1.09159e-09
1.0776e-09
1.0578e-09
1.03155e-09
9.98177e-10
9.56951e-10
9.07085e-10
8.47734e-10
7.77989e-10
6.96874e-10
6.03345e-10
4.96284e-10
3.74498e-10
2.36714e-10
8.15802e-11
-9.23372e-11
-2.86555e-10
-5.02671e-10
-7.42362e-10
-1.00738e-09
-1.29954e-09
-1.62073e-09
-1.97286e-09
-2.35786e-09
-2.77768e-09
-3.2342e-09
-3.72921e-09
-4.26434e-09
-4.84089e-09
-5.45998e-09
-6.12328e-09
-6.82995e-09
-7.55647e-09
-8.27546e-09
-9.3283e-09
-1.16062e-08
-1.04343e-08
2.84449e-10
2.75847e-10
2.67523e-10
2.61482e-10
2.56949e-10
2.5369e-10
2.51677e-10
2.50858e-10
2.51165e-10
2.52531e-10
2.54898e-10
2.5821e-10
2.62415e-10
2.67468e-10
2.73327e-10
2.79956e-10
2.87324e-10
2.95402e-10
3.04169e-10
3.13604e-10
3.23689e-10
3.3441e-10
3.45754e-10
3.57709e-10
3.70265e-10
3.83412e-10
3.9714e-10
4.11438e-10
4.26294e-10
4.41696e-10
4.57629e-10
4.74077e-10
4.91021e-10
5.08438e-10
5.26302e-10
5.44585e-10
5.63252e-10
5.82264e-10
6.01578e-10
6.21143e-10
6.40902e-10
6.60791e-10
6.8074e-10
7.00667e-10
7.20484e-10
7.40091e-10
7.59377e-10
7.78222e-10
7.96489e-10
8.14032e-10
8.30687e-10
8.46275e-10
8.60601e-10
8.7345e-10
8.84589e-10
8.93763e-10
9.00694e-10
9.05082e-10
9.06597e-10
9.04885e-10
8.99562e-10
8.90209e-10
8.76376e-10
8.57578e-10
8.33289e-10
8.02944e-10
7.65932e-10
7.216e-10
6.69244e-10
6.08109e-10
5.37385e-10
4.56207e-10
3.63648e-10
2.5872e-10
1.40371e-10
7.48187e-12
-1.41136e-10
-3.06741e-10
-4.90661e-10
-6.94294e-10
-9.19106e-10
-1.16663e-09
-1.43845e-09
-1.73622e-09
-2.06162e-09
-2.41637e-09
-2.80219e-09
-3.22079e-09
-3.67383e-09
-4.16287e-09
-4.68931e-09
-5.25425e-09
-5.85863e-09
-6.50403e-09
-7.18954e-09
-7.89127e-09
-8.58153e-09
-9.60769e-09
-1.18761e-08
-1.06337e-08
2.73024e-10
2.65197e-10
2.57618e-10
2.52056e-10
2.4781e-10
2.4468e-10
2.42647e-10
2.41672e-10
2.41697e-10
2.42666e-10
2.44526e-10
2.4723e-10
2.50731e-10
2.54988e-10
2.59963e-10
2.65624e-10
2.71938e-10
2.7888e-10
2.86426e-10
2.94555e-10
3.03248e-10
3.12488e-10
3.2226e-10
3.32548e-10
3.43341e-10
3.54622e-10
3.66378e-10
3.78594e-10
3.91254e-10
4.0434e-10
4.17832e-10
4.31709e-10
4.45946e-10
4.60516e-10
4.75385e-10
4.90519e-10
5.05879e-10
5.21418e-10
5.37086e-10
5.52827e-10
5.68578e-10
5.84267e-10
5.99818e-10
6.15143e-10
6.30146e-10
6.44722e-10
6.58754e-10
6.72114e-10
6.84662e-10
6.96244e-10
7.06692e-10
7.15823e-10
7.23437e-10
7.29316e-10
7.33223e-10
7.34902e-10
7.34075e-10
7.3044e-10
7.2367e-10
7.13415e-10
6.99292e-10
6.80893e-10
6.57775e-10
6.29463e-10
5.95446e-10
5.55175e-10
5.08062e-10
4.53476e-10
3.90741e-10
3.19136e-10
2.3789e-10
1.46181e-10
4.31342e-11
-7.21812e-11
-2.00752e-10
-3.43625e-10
-5.01905e-10
-6.76758e-10
-8.69408e-10
-1.08114e-09
-1.31329e-09
-1.56726e-09
-1.84449e-09
-2.14646e-09
-2.47469e-09
-2.8307e-09
-3.21603e-09
-3.6322e-09
-4.08066e-09
-4.56278e-09
-5.07979e-09
-5.63262e-09
-6.22209e-09
-6.84969e-09
-7.51447e-09
-8.19224e-09
-8.85499e-09
-9.85517e-09
-1.21119e-08
-1.08055e-08
2.6085e-10
2.53769e-10
2.46908e-10
2.41812e-10
2.37853e-10
2.34858e-10
2.32819e-10
2.31704e-10
2.31467e-10
2.32058e-10
2.33433e-10
2.35551e-10
2.38369e-10
2.41852e-10
2.45964e-10
2.50674e-10
2.55953e-10
2.61776e-10
2.68117e-10
2.74956e-10
2.82272e-10
2.90047e-10
2.98262e-10
3.069e-10
3.15945e-10
3.25378e-10
3.35182e-10
3.45337e-10
3.55824e-10
3.66619e-10
3.77699e-10
3.89037e-10
4.00603e-10
4.12363e-10
4.24281e-10
4.36316e-10
4.48421e-10
4.60547e-10
4.72636e-10
4.84627e-10
4.96449e-10
5.08028e-10
5.19278e-10
5.30108e-10
5.40415e-10
5.50089e-10
5.59008e-10
5.67038e-10
5.74034e-10
5.79838e-10
5.84278e-10
5.87167e-10
5.88301e-10
5.87462e-10
5.84411e-10
5.78891e-10
5.70624e-10
5.5931e-10
5.44625e-10
5.26223e-10
5.03729e-10
4.76742e-10
4.44829e-10
4.07528e-10
3.64344e-10
3.14748e-10
2.58171e-10
1.9401e-10
1.21618e-10
4.03095e-11
-5.06476e-11
-1.5203e-10
-2.64662e-10
-3.89415e-10
-5.27212e-10
-6.79027e-10
-8.45884e-10
-1.02886e-09
-1.22907e-09
-1.44771e-09
-1.68599e-09
-1.94517e-09
-2.22656e-09
-2.5315e-09
-2.86134e-09
-3.21744e-09
-3.60119e-09
-4.01391e-09
-4.4569e-09
-4.93138e-09
-5.4384e-09
-5.97878e-09
-6.55324e-09
-7.16321e-09
-7.80772e-09
-8.46229e-09
-9.09866e-09
-1.00735e-08
-1.23167e-08
-1.09524e-08
2.48016e-10
2.41655e-10
2.3549e-10
2.3085e-10
2.27177e-10
2.24324e-10
2.22288e-10
2.21047e-10
2.20563e-10
2.20796e-10
2.21706e-10
2.23258e-10
2.25415e-10
2.28144e-10
2.31413e-10
2.35193e-10
2.39457e-10
2.44178e-10
2.49334e-10
2.54902e-10
2.60859e-10
2.67187e-10
2.73865e-10
2.80873e-10
2.88192e-10
2.95799e-10
3.03675e-10
3.11796e-10
3.20138e-10
3.28674e-10
3.37376e-10
3.46212e-10
3.55148e-10
3.64145e-10
3.73162e-10
3.82152e-10
3.91064e-10
3.99842e-10
4.08425e-10
4.16745e-10
4.24727e-10
4.32291e-10
4.39345e-10
4.45794e-10
4.5153e-10
4.56438e-10
4.6039e-10
4.6325e-10
4.64867e-10
4.65081e-10
4.63716e-10
4.60583e-10
4.55476e-10
4.48175e-10
4.38442e-10
4.26019e-10
4.10631e-10
3.9198e-10
3.69748e-10
3.43593e-10
3.13148e-10
2.78022e-10
2.37795e-10
1.92018e-10
1.40213e-10
8.18701e-11
1.6446e-11
-5.66374e-11
-1.37994e-10
-2.28277e-10
-3.28176e-10
-4.38422e-10
-5.59788e-10
-6.9309e-10
-8.39186e-10
-9.98978e-10
-1.17341e-09
-1.36347e-09
-1.5702e-09
-1.79466e-09
-2.03797e-09
-2.30126e-09
-2.58572e-09
-2.89255e-09
-3.22295e-09
-3.57816e-09
-3.9594e-09
-4.36784e-09
-4.80465e-09
-5.2709e-09
-5.76753e-09
-6.29525e-09
-6.8547e-09
-7.44727e-09
-8.07197e-09
-8.7041e-09
-9.31516e-09
-1.02654e-08
-1.24936e-08
-1.10771e-08
2.34611e-10
2.28951e-10
2.23463e-10
2.19268e-10
2.15877e-10
2.13169e-10
2.11145e-10
2.09791e-10
2.09075e-10
2.08966e-10
2.0943e-10
2.10435e-10
2.11951e-10
2.13947e-10
2.16394e-10
2.19265e-10
2.22533e-10
2.26175e-10
2.30166e-10
2.34484e-10
2.39105e-10
2.44009e-10
2.49172e-10
2.54574e-10
2.60192e-10
2.66001e-10
2.71978e-10
2.78096e-10
2.84326e-10
2.9064e-10
2.97004e-10
3.03381e-10
3.09734e-10
3.16019e-10
3.2219e-10
3.28196e-10
3.33982e-10
3.39486e-10
3.44641e-10
3.49377e-10
3.53613e-10
3.57263e-10
3.60233e-10
3.62421e-10
3.63717e-10
3.63999e-10
3.63138e-10
3.60992e-10
3.5741e-10
3.52226e-10
3.45263e-10
3.36331e-10
3.25223e-10
3.11718e-10
2.95578e-10
2.76549e-10
2.54357e-10
2.2871e-10
1.99293e-10
1.65773e-10
1.27792e-10
8.49674e-11
3.68941e-11
-1.68613e-11
-7.6759e-11
-1.43288e-10
-2.16968e-10
-2.98348e-10
-3.88012e-10
-4.86575e-10
-5.94687e-10
-7.13035e-10
-8.4234e-10
-9.83361e-10
-1.13689e-09
-1.30377e-09
-1.48486e-09
-1.68108e-09
-1.89335e-09
-2.12267e-09
-2.37002e-09
-2.63645e-09
-2.92302e-09
-3.2308e-09
-3.56088e-09
-3.91435e-09
-4.29229e-09
-4.69578e-09
-5.12584e-09
-5.58343e-09
-6.06939e-09
-6.58434e-09
-7.12885e-09
-7.70431e-09
-8.30968e-09
-8.92011e-09
-9.50688e-09
-1.04332e-08
-1.26452e-08
-1.11817e-08
2.20719e-10
2.15744e-10
2.10916e-10
2.07157e-10
2.04046e-10
2.01484e-10
1.99479e-10
1.98021e-10
1.97087e-10
1.96651e-10
1.96686e-10
1.97164e-10
1.98058e-10
1.99342e-10
2.00988e-10
2.02971e-10
2.05268e-10
2.07852e-10
2.10702e-10
2.13793e-10
2.17102e-10
2.20607e-10
2.24283e-10
2.28107e-10
2.32053e-10
2.36095e-10
2.40206e-10
2.44357e-10
2.48515e-10
2.52647e-10
2.56717e-10
2.60685e-10
2.64507e-10
2.68137e-10
2.71524e-10
2.74613e-10
2.77344e-10
2.79651e-10
2.81465e-10
2.82708e-10
2.83297e-10
2.83142e-10
2.82144e-10
2.80197e-10
2.77187e-10
2.7299e-10
2.67473e-10
2.60491e-10
2.51891e-10
2.41505e-10
2.29155e-10
2.14649e-10
1.97781e-10
1.7833e-10
1.56061e-10
1.30721e-10
1.02041e-10
6.97329e-11
3.34899e-11
-7.01459e-12
-5.21283e-11
-1.02221e-10
-1.57685e-10
-2.18936e-10
-2.86417e-10
-3.60595e-10
-4.41963e-10
-5.31044e-10
-6.28388e-10
-7.34575e-10
-8.50216e-10
-9.7595e-10
-1.11245e-09
-1.26042e-09
-1.42059e-09
-1.59374e-09
-1.78065e-09
-1.98216e-09
-2.19911e-09
-2.43241e-09
-2.68294e-09
-2.95165e-09
-3.23949e-09
-3.54741e-09
-3.87639e-09
-4.22741e-09
-4.60144e-09
-4.99942e-09
-5.42228e-09
-5.87089e-09
-6.34599e-09
-6.84815e-09
-7.37788e-09
-7.93655e-09
-8.5231e-09
-9.11255e-09
-9.67602e-09
-1.05791e-08
-1.27739e-08
-1.12681e-08
2.06432e-10
2.02125e-10
1.97941e-10
1.94607e-10
1.9177e-10
1.89356e-10
1.87374e-10
1.85822e-10
1.84682e-10
1.83934e-10
1.83556e-10
1.83525e-10
1.83818e-10
1.84409e-10
1.85276e-10
1.86395e-10
1.87742e-10
1.89294e-10
1.91027e-10
1.92918e-10
1.94943e-10
1.97077e-10
1.99296e-10
2.01572e-10
2.0388e-10
2.06191e-10
2.08474e-10
2.10696e-10
2.12825e-10
2.14822e-10
2.16647e-10
2.18258e-10
2.19607e-10
2.20644e-10
2.21314e-10
2.21557e-10
2.21311e-10
2.20506e-10
2.19067e-10
2.16915e-10
2.13962e-10
2.10113e-10
2.05268e-10
1.99317e-10
1.92141e-10
1.83616e-10
1.73604e-10
1.6196e-10
1.48527e-10
1.33137e-10
1.15612e-10
9.57583e-11
7.33721e-11
4.8234e-11
2.01105e-11
-1.12472e-11
-4.61041e-11
-8.47418e-11
-1.2746e-10
-1.74576e-10
-2.26427e-10
-2.8337e-10
-3.45783e-10
-4.14066e-10
-4.8864e-10
-5.69951e-10
-6.58466e-10
-7.5468e-10
-8.59112e-10
-9.72304e-10
-1.09483e-09
-1.22728e-09
-1.37028e-09
-1.52449e-09
-1.69057e-09
-1.86923e-09
-2.06119e-09
-2.26722e-09
-2.48808e-09
-2.72458e-09
-2.97753e-09
-3.24776e-09
-3.53613e-09
-3.8435e-09
-4.17074e-09
-4.51871e-09
-4.8883e-09
-5.28034e-09
-5.69568e-09
-6.13508e-09
-6.59924e-09
-7.08865e-09
-7.60379e-09
-8.14602e-09
-8.71427e-09
-9.28346e-09
-9.8246e-09
-1.07052e-08
-1.28819e-08
-1.13381e-08
1.91843e-10
1.8818e-10
1.84621e-10
1.81702e-10
1.79134e-10
1.76867e-10
1.74914e-10
1.73275e-10
1.71939e-10
1.70893e-10
1.70119e-10
1.69597e-10
1.69307e-10
1.69228e-10
1.69338e-10
1.69616e-10
1.70039e-10
1.70584e-10
1.71228e-10
1.71947e-10
1.72717e-10
1.73511e-10
1.74305e-10
1.75069e-10
1.75776e-10
1.76393e-10
1.76889e-10
1.77228e-10
1.77374e-10
1.77285e-10
1.7692e-10
1.76232e-10
1.7517e-10
1.7368e-10
1.71704e-10
1.69179e-10
1.66037e-10
1.62207e-10
1.57611e-10
1.52165e-10
1.45778e-10
1.38354e-10
1.29787e-10
1.19965e-10
1.08768e-10
9.60676e-11
8.17253e-11
6.55938e-11
4.75156e-11
2.73223e-11
4.83467e-12
-2.01386e-11
-4.78013e-11
-7.83699e-11
-1.12075e-10
-1.49161e-10
-1.89887e-10
-2.34529e-10
-2.83378e-10
-3.36742e-10
-3.94946e-10
-4.58335e-10
-5.27272e-10
-6.02138e-10
-6.83334e-10
-7.71285e-10
-8.66432e-10
-9.69242e-10
-1.0802e-09
-1.19982e-09
-1.32862e-09
-1.46717e-09
-1.61603e-09
-1.77581e-09
-1.94712e-09
-2.13061e-09
-2.32694e-09
-2.53679e-09
-2.76086e-09
-2.99987e-09
-3.25455e-09
-3.52565e-09
-3.81392e-09
-4.12015e-09
-4.44509e-09
-4.78954e-09
-5.15427e-09
-5.54004e-09
-5.9476e-09
-6.37766e-09
-6.83085e-09
-7.30762e-09
-7.80842e-09
-8.33458e-09
-8.88507e-09
-9.4347e-09
-9.95443e-09
-1.08132e-08
-1.29711e-08
-1.13934e-08
1.77029e-10
1.73991e-10
1.7104e-10
1.68523e-10
1.66219e-10
1.64098e-10
1.62176e-10
1.60457e-10
1.58937e-10
1.57606e-10
1.5645e-10
1.55455e-10
1.54602e-10
1.53874e-10
1.53252e-10
1.52713e-10
1.52238e-10
1.51803e-10
1.51387e-10
1.50964e-10
1.50511e-10
1.5e-10
1.49404e-10
1.48693e-10
1.47838e-10
1.46804e-10
1.45558e-10
1.44061e-10