/*--------------------------------*- C++ -*----------------------------------*\
  =========                 |
  \\      /  F ield         | OpenFOAM: The Open Source CFD Toolbox
   \\    /   O peration     | Website:  https://openfoam.org
    \\  /    A nd           | Version:  11
     \\/     M anipulation  |
\*---------------------------------------------------------------------------*/
FoamFile
{
    format      ascii;
    class       surfaceScalarField;
    location    "852";
    object      phi;
}
// * * * * * * * * * * * * * * * * * * * * * * * * * * * * * * * * * * * * * //

dimensions      [0 3 -1 0 0 0 0];

internalField   nonuniform List<scalar> 
19800
(
2e-05
-1.34695e-11
2e-05
-3.63366e-11
2e-05
-5.69119e-11
2e-05
-7.67969e-11
2e-05
-9.6752e-11
2e-05
-1.17204e-10
1.99999e-05
-1.38497e-10
1.99999e-05
-1.60925e-10
1.99999e-05
-1.84756e-10
1.99999e-05
-2.10242e-10
1.99999e-05
-2.37631e-10
1.99998e-05
-2.67169e-10
1.99998e-05
-2.99108e-10
1.99998e-05
-3.33705e-10
1.99998e-05
-3.71227e-10
1.99997e-05
-4.11953e-10
1.99997e-05
-4.56176e-10
1.99996e-05
-5.04203e-10
1.99996e-05
-5.5636e-10
1.99996e-05
-6.1299e-10
1.99995e-05
-6.74456e-10
1.99994e-05
-7.41143e-10
1.99994e-05
-8.13458e-10
1.99993e-05
-8.91832e-10
1.99992e-05
-9.76721e-10
1.99992e-05
-1.06861e-09
1.99991e-05
-1.16801e-09
1.9999e-05
-1.27546e-09
1.99989e-05
-1.39154e-09
1.99988e-05
-1.51685e-09
1.99987e-05
-1.65202e-09
1.99986e-05
-1.79773e-09
1.99984e-05
-1.95469e-09
1.99983e-05
-2.12364e-09
1.99982e-05
-2.30537e-09
1.9998e-05
-2.50071e-09
1.99978e-05
-2.71052e-09
1.99977e-05
-2.93572e-09
1.99975e-05
-3.17725e-09
1.99973e-05
-3.43613e-09
1.99971e-05
-3.71339e-09
1.99968e-05
-4.01013e-09
1.99966e-05
-4.3275e-09
1.99963e-05
-4.66668e-09
1.99961e-05
-5.02894e-09
1.99958e-05
-5.41555e-09
1.99955e-05
-5.82787e-09
1.99951e-05
-6.2673e-09
1.99948e-05
-6.7353e-09
1.99944e-05
-7.23337e-09
1.9994e-05
-7.76308e-09
1.99936e-05
-8.32605e-09
1.99932e-05
-8.92394e-09
1.99927e-05
-9.55847e-09
1.99922e-05
-1.02314e-08
1.99917e-05
-1.09446e-08
1.99912e-05
-1.17e-08
1.99906e-05
-1.24994e-08
1.999e-05
-1.33447e-08
1.99894e-05
-1.42382e-08
1.99888e-05
-1.51816e-08
1.99881e-05
-1.61773e-08
1.99873e-05
-1.72272e-08
1.99866e-05
-1.83335e-08
1.99858e-05
-1.94983e-08
1.9985e-05
-2.07238e-08
1.99841e-05
-2.20121e-08
1.99832e-05
-2.33655e-08
1.99822e-05
-2.47859e-08
1.99812e-05
-2.62755e-08
1.99802e-05
-2.78363e-08
1.99791e-05
-2.94701e-08
1.9978e-05
-3.11788e-08
1.99769e-05
-3.2964e-08
1.99757e-05
-3.48273e-08
1.99744e-05
-3.67698e-08
1.99732e-05
-3.87926e-08
1.99718e-05
-4.08963e-08
1.99705e-05
-4.30811e-08
1.99691e-05
-4.53467e-08
1.99677e-05
-4.76922e-08
1.99662e-05
-5.01159e-08
1.99647e-05
-5.26151e-08
1.99632e-05
-5.51861e-08
1.99616e-05
-5.78237e-08
1.99601e-05
-6.05212e-08
1.99585e-05
-6.32696e-08
1.99569e-05
-6.60577e-08
1.99553e-05
-6.8871e-08
1.99538e-05
-7.16917e-08
1.99523e-05
-7.44975e-08
1.99508e-05
-7.7261e-08
1.99493e-05
-7.99488e-08
1.9948e-05
-8.25204e-08
1.99467e-05
-8.49271e-08
1.99455e-05
-8.7112e-08
1.99445e-05
-8.90083e-08
1.99436e-05
-9.05402e-08
1.9943e-05
-9.16312e-08
-9.22501e-08
2e-05
-1.08857e-11
2e-05
-3.08933e-11
2e-05
-4.96318e-11
2e-05
-6.79601e-11
2e-05
-8.63939e-11
2e-05
-1.0529e-10
1.99999e-05
-1.24955e-10
1.99999e-05
-1.45663e-10
1.99999e-05
-1.67665e-10
1.99999e-05
-1.91202e-10
1.99999e-05
-2.16509e-10
1.99998e-05
-2.43823e-10
1.99998e-05
-2.73383e-10
1.99998e-05
-3.05435e-10
1.99998e-05
-3.40236e-10
1.99997e-05
-3.78052e-10
1.99997e-05
-4.19164e-10
1.99996e-05
-4.63867e-10
1.99996e-05
-5.12473e-10
1.99996e-05
-5.65311e-10
1.99995e-05
-6.22731e-10
1.99994e-05
-6.85103e-10
1.99994e-05
-7.52817e-10
1.99993e-05
-8.26291e-10
1.99993e-05
-9.05963e-10
1.99992e-05
-9.92301e-10
1.99991e-05
-1.0858e-09
1.9999e-05
-1.18698e-09
1.99989e-05
-1.29639e-09
1.99988e-05
-1.41462e-09
1.99987e-05
-1.54229e-09
1.99986e-05
-1.68004e-09
1.99985e-05
-1.82858e-09
1.99983e-05
-1.9886e-09
1.99982e-05
-2.1609e-09
1.9998e-05
-2.34625e-09
1.99979e-05
-2.54551e-09
1.99977e-05
-2.75957e-09
1.99975e-05
-2.98935e-09
1.99973e-05
-3.23582e-09
1.99971e-05
-3.50001e-09
1.99968e-05
-3.78299e-09
1.99966e-05
-4.08588e-09
1.99964e-05
-4.40983e-09
1.99961e-05
-4.75607e-09
1.99958e-05
-5.12587e-09
1.99955e-05
-5.52055e-09
1.99952e-05
-5.94148e-09
1.99948e-05
-6.39009e-09
1.99944e-05
-6.86787e-09
1.99941e-05
-7.37636e-09
1.99936e-05
-7.91713e-09
1.99932e-05
-8.49185e-09
1.99928e-05
-9.10222e-09
1.99923e-05
-9.74999e-09
1.99918e-05
-1.0437e-08
1.99912e-05
-1.1165e-08
1.99907e-05
-1.1936e-08
1.99901e-05
-1.2752e-08
1.99895e-05
-1.36149e-08
1.99888e-05
-1.45268e-08
1.99881e-05
-1.54897e-08
1.99874e-05
-1.65059e-08
1.99866e-05
-1.75774e-08
1.99858e-05
-1.87065e-08
1.9985e-05
-1.98952e-08
1.99842e-05
-2.11459e-08
1.99832e-05
-2.24606e-08
1.99823e-05
-2.38416e-08
1.99813e-05
-2.52911e-08
1.99803e-05
-2.68111e-08
1.99792e-05
-2.84037e-08
1.99781e-05
-3.00707e-08
1.9977e-05
-3.18142e-08
1.99758e-05
-3.36356e-08
1.99745e-05
-3.55365e-08
1.99733e-05
-3.75182e-08
1.9972e-05
-3.95814e-08
1.99706e-05
-4.17269e-08
1.99692e-05
-4.39547e-08
1.99678e-05
-4.62642e-08
1.99663e-05
-4.86543e-08
1.99648e-05
-5.1123e-08
1.99633e-05
-5.3667e-08
1.99618e-05
-5.62819e-08
1.99602e-05
-5.89619e-08
1.99586e-05
-6.16988e-08
1.99571e-05
-6.44823e-08
1.99555e-05
-6.72994e-08
1.99539e-05
-7.01333e-08
1.99524e-05
-7.29633e-08
1.99509e-05
-7.57635e-08
1.99495e-05
-7.85023e-08
1.99481e-05
-8.11411e-08
1.99468e-05
-8.36333e-08
1.99456e-05
-8.59237e-08
1.99445e-05
-8.79468e-08
1.99436e-05
-8.96258e-08
1.99429e-05
-9.08787e-08
-9.16452e-08
2e-05
-8.94204e-12
2e-05
-2.6078e-11
2e-05
-4.27201e-11
2e-05
-5.93237e-11
2e-05
-7.61566e-11
2e-05
-9.34644e-11
1.99999e-05
-1.11496e-10
1.99999e-05
-1.3049e-10
1.99999e-05
-1.50678e-10
1.99999e-05
-1.72284e-10
1.99999e-05
-1.95532e-10
1.99998e-05
-2.20645e-10
1.99998e-05
-2.47851e-10
1.99998e-05
-2.77385e-10
1.99998e-05
-3.09493e-10
1.99997e-05
-3.44428e-10
1.99997e-05
-3.8246e-10
1.99997e-05
-4.2387e-10
1.99996e-05
-4.68959e-10
1.99996e-05
-5.18041e-10
1.99995e-05
-5.71453e-10
1.99995e-05
-6.29549e-10
1.99994e-05
-6.92705e-10
1.99993e-05
-7.61322e-10
1.99993e-05
-8.35824e-10
1.99992e-05
-9.16659e-10
1.99991e-05
-1.0043e-09
1.9999e-05
-1.09926e-09
1.99989e-05
-1.20207e-09
1.99988e-05
-1.31329e-09
1.99987e-05
-1.43352e-09
1.99986e-05
-1.56338e-09
1.99985e-05
-1.70356e-09
1.99983e-05
-1.85474e-09
1.99982e-05
-2.01766e-09
1.9998e-05
-2.19312e-09
1.99979e-05
-2.38192e-09
1.99977e-05
-2.58492e-09
1.99975e-05
-2.80303e-09
1.99973e-05
-3.03721e-09
1.99971e-05
-3.28844e-09
1.99969e-05
-3.55776e-09
1.99966e-05
-3.84627e-09
1.99964e-05
-4.15511e-09
1.99961e-05
-4.48546e-09
1.99958e-05
-4.83858e-09
1.99955e-05
-5.21574e-09
1.99952e-05
-5.61831e-09
1.99949e-05
-6.04768e-09
1.99945e-05
-6.50531e-09
1.99941e-05
-6.99272e-09
1.99937e-05
-7.51147e-09
1.99933e-05
-8.06318e-09
1.99928e-05
-8.64955e-09
1.99923e-05
-9.27229e-09
1.99918e-05
-9.93321e-09
1.99913e-05
-1.06341e-08
1.99908e-05
-1.1377e-08
1.99902e-05
-1.21637e-08
1.99895e-05
-1.29963e-08
1.99889e-05
-1.38768e-08
1.99882e-05
-1.48073e-08
1.99875e-05
-1.579e-08
1.99867e-05
-1.68269e-08
1.9986e-05
-1.79204e-08
1.99851e-05
-1.90725e-08
1.99843e-05
-2.02857e-08
1.99834e-05
-2.15621e-08
1.99824e-05
-2.29039e-08
1.99815e-05
-2.43134e-08
1.99804e-05
-2.57928e-08
1.99794e-05
-2.73443e-08
1.99783e-05
-2.89699e-08
1.99771e-05
-3.06717e-08
1.9976e-05
-3.24514e-08
1.99747e-05
-3.43107e-08
1.99735e-05
-3.62513e-08
1.99722e-05
-3.82741e-08
1.99708e-05
-4.03802e-08
1.99694e-05
-4.257e-08
1.9968e-05
-4.48434e-08
1.99666e-05
-4.71997e-08
1.99651e-05
-4.96374e-08
1.99636e-05
-5.21538e-08
1.9962e-05
-5.47454e-08
1.99605e-05
-5.74069e-08
1.99589e-05
-6.01311e-08
1.99573e-05
-6.29088e-08
1.99557e-05
-6.57278e-08
1.99542e-05
-6.85726e-08
1.99526e-05
-7.14238e-08
1.99511e-05
-7.42569e-08
1.99497e-05
-7.70415e-08
1.99483e-05
-7.97406e-08
1.9947e-05
-8.23085e-08
1.99457e-05
-8.46904e-08
1.99446e-05
-8.68196e-08
1.99436e-05
-8.86155e-08
1.99427e-05
-8.99871e-08
-9.08548e-08
2e-05
-7.37588e-12
2e-05
-2.18467e-11
2e-05
-3.63084e-11
2e-05
-5.10567e-11
2e-05
-6.61932e-11
2e-05
-8.18553e-11
1.99999e-05
-9.82245e-11
1.99999e-05
-1.15498e-10
1.99999e-05
-1.33878e-10
1.99999e-05
-1.5357e-10
1.99999e-05
-1.74779e-10
1.99999e-05
-1.97717e-10
1.99998e-05
-2.226e-10
1.99998e-05
-2.4965e-10
1.99998e-05
-2.791e-10
1.99997e-05
-3.11193e-10
1.99997e-05
-3.46186e-10
1.99997e-05
-3.84348e-10
1.99996e-05
-4.25966e-10
1.99996e-05
-4.71342e-10
1.99995e-05
-5.20797e-10
1.99995e-05
-5.74672e-10
1.99994e-05
-6.33329e-10
1.99993e-05
-6.97152e-10
1.99993e-05
-7.66547e-10
1.99992e-05
-8.41948e-10
1.99991e-05
-9.23813e-10
1.9999e-05
-1.01263e-09
1.99989e-05
-1.10891e-09
1.99988e-05
-1.2132e-09
1.99987e-05
-1.32608e-09
1.99986e-05
-1.44815e-09
1.99985e-05
-1.58007e-09
1.99984e-05
-1.7225e-09
1.99982e-05
-1.87617e-09
1.99981e-05
-2.04184e-09
1.99979e-05
-2.22029e-09
1.99977e-05
-2.41237e-09
1.99975e-05
-2.61896e-09
1.99973e-05
-2.84097e-09
1.99971e-05
-3.07938e-09
1.99969e-05
-3.3352e-09
1.99967e-05
-3.60949e-09
1.99964e-05
-3.90338e-09
1.99962e-05
-4.21802e-09
1.99959e-05
-4.55462e-09
1.99956e-05
-4.91446e-09
1.99953e-05
-5.29886e-09
1.99949e-05
-5.70919e-09
1.99946e-05
-6.14688e-09
1.99942e-05
-6.61343e-09
1.99938e-05
-7.11037e-09
1.99934e-05
-7.63931e-09
1.99929e-05
-8.20191e-09
1.99924e-05
-8.79988e-09
1.99919e-05
-9.435e-09
1.99914e-05
-1.01091e-08
1.99909e-05
-1.0824e-08
1.99903e-05
-1.15818e-08
1.99897e-05
-1.23844e-08
1.9989e-05
-1.32337e-08
1.99883e-05
-1.41321e-08
1.99876e-05
-1.50815e-08
1.99869e-05
-1.60842e-08
1.99861e-05
-1.71423e-08
1.99853e-05
-1.82583e-08
1.99845e-05
-1.94342e-08
1.99836e-05
-2.06725e-08
1.99826e-05
-2.19754e-08
1.99817e-05
-2.33453e-08
1.99807e-05
-2.47844e-08
1.99796e-05
-2.6295e-08
1.99785e-05
-2.78794e-08
1.99774e-05
-2.95396e-08
1.99762e-05
-3.12777e-08
1.9975e-05
-3.30957e-08
1.99737e-05
-3.49951e-08
1.99724e-05
-3.69776e-08
1.99711e-05
-3.90443e-08
1.99697e-05
-4.11959e-08
1.99683e-05
-4.34329e-08
1.99669e-05
-4.5755e-08
1.99654e-05
-4.81611e-08
1.99639e-05
-5.06493e-08
1.99624e-05
-5.32166e-08
1.99608e-05
-5.58583e-08
1.99593e-05
-5.85683e-08
1.99577e-05
-6.1338e-08
1.99561e-05
-6.41564e-08
1.99546e-05
-6.7009e-08
1.9953e-05
-6.98772e-08
1.99515e-05
-7.27379e-08
1.995e-05
-7.55617e-08
1.99486e-05
-7.83121e-08
1.99472e-05
-8.0944e-08
1.99459e-05
-8.34015e-08
1.99447e-05
-8.56157e-08
1.99436e-05
-8.75004e-08
1.99426e-05
-8.89519e-08
-8.98762e-08
2e-05
-6.04997e-12
2e-05
-1.80932e-11
2e-05
-3.04052e-11
2e-05
-4.32424e-11
2e-05
-5.6615e-11
2e-05
-7.05782e-11
1.99999e-05
-8.52519e-11
1.99999e-05
-1.00789e-10
1.99999e-05
-1.17362e-10
1.99999e-05
-1.3515e-10
1.99999e-05
-1.54342e-10
1.99999e-05
-1.75133e-10
1.99998e-05
-1.97725e-10
1.99998e-05
-2.22328e-10
1.99998e-05
-2.49163e-10
1.99997e-05
-2.7846e-10
1.99997e-05
-3.10464e-10
1.99997e-05
-3.45431e-10
1.99996e-05
-3.83636e-10
1.99996e-05
-4.25366e-10
1.99995e-05
-4.7093e-10
1.99995e-05
-5.20654e-10
1.99994e-05
-5.74884e-10
1.99994e-05
-6.33989e-10
1.99993e-05
-6.9836e-10
1.99992e-05
-7.68413e-10
1.99991e-05
-8.44589e-10
1.9999e-05
-9.27357e-10
1.9999e-05
-1.01721e-09
1.99989e-05
-1.11468e-09
1.99987e-05
-1.22032e-09
1.99986e-05
-1.33472e-09
1.99985e-05
-1.4585e-09
1.99984e-05
-1.59232e-09
1.99982e-05
-1.73688e-09
1.99981e-05
-1.8929e-09
1.99979e-05
-2.06116e-09
1.99978e-05
-2.24248e-09
1.99976e-05
-2.4377e-09
1.99974e-05
-2.64772e-09
1.99972e-05
-2.87349e-09
1.9997e-05
-3.116e-09
1.99967e-05
-3.37628e-09
1.99965e-05
-3.65542e-09
1.99962e-05
-3.95456e-09
1.99959e-05
-4.27488e-09
1.99956e-05
-4.61763e-09
1.99953e-05
-4.9841e-09
1.9995e-05
-5.37565e-09
1.99946e-05
-5.79367e-09
1.99943e-05
-6.23963e-09
1.99939e-05
-6.71505e-09
1.99935e-05
-7.22151e-09
1.9993e-05
-7.76064e-09
1.99926e-05
-8.33415e-09
1.99921e-05
-8.94378e-09
1.99915e-05
-9.59136e-09
1.9991e-05
-1.02787e-08
1.99904e-05
-1.10079e-08
1.99898e-05
-1.17808e-08
1.99892e-05
-1.25994e-08
1.99885e-05
-1.34659e-08
1.99878e-05
-1.43825e-08
1.99871e-05
-1.53513e-08
1.99863e-05
-1.63745e-08
1.99855e-05
-1.74545e-08
1.99847e-05
-1.85936e-08
1.99838e-05
-1.97942e-08
1.99829e-05
-2.10585e-08
1.99819e-05
-2.23891e-08
1.99809e-05
-2.37882e-08
1.99799e-05
-2.52583e-08
1.99788e-05
-2.68017e-08
1.99777e-05
-2.84207e-08
1.99765e-05
-3.01174e-08
1.99753e-05
-3.18941e-08
1.99741e-05
-3.37526e-08
1.99728e-05
-3.56946e-08
1.99715e-05
-3.77218e-08
1.99701e-05
-3.98351e-08
1.99687e-05
-4.20354e-08
1.99673e-05
-4.43227e-08
1.99658e-05
-4.66966e-08
1.99643e-05
-4.91556e-08
1.99628e-05
-5.16973e-08
1.99613e-05
-5.43178e-08
1.99597e-05
-5.70115e-08
1.99582e-05
-5.97708e-08
1.99566e-05
-6.25854e-08
1.9955e-05
-6.54418e-08
1.99535e-05
-6.83222e-08
1.99519e-05
-7.12043e-08
1.99504e-05
-7.40593e-08
1.9949e-05
-7.68511e-08
1.99476e-05
-7.95343e-08
1.99462e-05
-8.20516e-08
1.99449e-05
-8.43312e-08
1.99437e-05
-8.62811e-08
1.99425e-05
-8.77872e-08
-8.87235e-08
2e-05
-4.89628e-12
2e-05
-1.47254e-11
2e-05
-2.49737e-11
2e-05
-3.59051e-11
2e-05
-4.74862e-11
2e-05
-5.97178e-11
2e-05
-7.26713e-11
1.99999e-05
-8.64602e-11
1.99999e-05
-1.01224e-10
1.99999e-05
-1.1712e-10
1.99999e-05
-1.34315e-10
1.99999e-05
-1.52987e-10
1.99998e-05
-1.73324e-10
1.99998e-05
-1.95523e-10
1.99998e-05
-2.1979e-10
1.99997e-05
-2.46344e-10
1.99997e-05
-2.75416e-10
1.99997e-05
-3.07251e-10
1.99996e-05
-3.42108e-10
1.99996e-05
-3.80265e-10
1.99995e-05
-4.22014e-10
1.99995e-05
-4.67667e-10
1.99994e-05
-5.17556e-10
1.99994e-05
-5.72035e-10
1.99993e-05
-6.31478e-10
1.99992e-05
-6.96286e-10
1.99991e-05
-7.66882e-10
1.99991e-05
-8.43716e-10
1.9999e-05
-9.27268e-10
1.99989e-05
-1.01804e-09
1.99988e-05
-1.11658e-09
1.99987e-05
-1.22344e-09
1.99985e-05
-1.33924e-09
1.99984e-05
-1.4646e-09
1.99983e-05
-1.60021e-09
1.99981e-05
-1.74676e-09
1.9998e-05
-1.90501e-09
1.99978e-05
-2.07575e-09
1.99976e-05
-2.2598e-09
1.99974e-05
-2.45804e-09
1.99972e-05
-2.67139e-09
1.9997e-05
-2.90081e-09
1.99968e-05
-3.14731e-09
1.99966e-05
-3.41196e-09
1.99963e-05
-3.69586e-09
1.9996e-05
-4.00017e-09
1.99957e-05
-4.32611e-09
1.99954e-05
-4.67495e-09
1.99951e-05
-5.04801e-09
1.99947e-05
-5.44667e-09
1.99944e-05
-5.87236e-09
1.9994e-05
-6.3266e-09
1.99936e-05
-6.81092e-09
1.99931e-05
-7.32695e-09
1.99927e-05
-7.87637e-09
1.99922e-05
-8.4609e-09
1.99917e-05
-9.08234e-09
1.99912e-05
-9.74257e-09
1.99906e-05
-1.04435e-08
1.999e-05
-1.11871e-08
1.99894e-05
-1.19754e-08
1.99887e-05
-1.28106e-08
1.9988e-05
-1.36947e-08
1.99873e-05
-1.463e-08
1.99866e-05
-1.56188e-08
1.99858e-05
-1.66634e-08
1.99849e-05
-1.77661e-08
1.99841e-05
-1.89293e-08
1.99832e-05
-2.01555e-08
1.99822e-05
-2.14471e-08
1.99812e-05
-2.28066e-08
1.99802e-05
-2.42365e-08
1.99792e-05
-2.57393e-08
1.99781e-05
-2.73172e-08
1.99769e-05
-2.89729e-08
1.99757e-05
-3.07084e-08
1.99745e-05
-3.2526e-08
1.99732e-05
-3.44276e-08
1.99719e-05
-3.64151e-08
1.99706e-05
-3.84898e-08
1.99692e-05
-4.06529e-08
1.99678e-05
-4.29049e-08
1.99663e-05
-4.52457e-08
1.99649e-05
-4.76744e-08
1.99633e-05
-5.01891e-08
1.99618e-05
-5.27864e-08
1.99603e-05
-5.54616e-08
1.99587e-05
-5.82076e-08
1.99571e-05
-6.10148e-08
1.99556e-05
-6.38704e-08
1.9954e-05
-6.67575e-08
1.99524e-05
-6.96541e-08
1.99509e-05
-7.25319e-08
1.99494e-05
-7.53548e-08
1.9948e-05
-7.80766e-08
1.99465e-05
-8.06386e-08
1.99452e-05
-8.2966e-08
1.99439e-05
-8.4962e-08
1.99426e-05
-8.65044e-08
-8.74256e-08
2e-05
-3.87244e-12
2e-05
-1.16733e-11
2e-05
-1.99679e-11
2e-05
-2.90392e-11
2e-05
-3.88369e-11
2e-05
-4.93298e-11
2e-05
-6.05541e-11
1.99999e-05
-7.25909e-11
1.99999e-05
-8.55515e-11
1.99999e-05
-9.95684e-11
1.99999e-05
-1.14789e-10
1.99999e-05
-1.31375e-10
1.99998e-05
-1.49496e-10
1.99998e-05
-1.69335e-10
1.99998e-05
-1.91087e-10
1.99998e-05
-2.14956e-10
1.99997e-05
-2.4116e-10
1.99997e-05
-2.69932e-10
1.99996e-05
-3.01518e-10
1.99996e-05
-3.36181e-10
1.99996e-05
-3.74201e-10
1.99995e-05
-4.15876e-10
1.99994e-05
-4.61523e-10
1.99994e-05
-5.11479e-10
1.99993e-05
-5.66106e-10
1.99992e-05
-6.25785e-10
1.99992e-05
-6.90924e-10
1.99991e-05
-7.61957e-10
1.9999e-05
-8.39342e-10
1.99989e-05
-9.23568e-10
1.99988e-05
-1.01515e-09
1.99987e-05
-1.11464e-09
1.99986e-05
-1.22263e-09
1.99985e-05
-1.33971e-09
1.99983e-05
-1.46655e-09
1.99982e-05
-1.60383e-09
1.9998e-05
-1.75228e-09
1.99979e-05
-1.91265e-09
1.99977e-05
-2.08577e-09
1.99975e-05
-2.27247e-09
1.99973e-05
-2.47365e-09
1.99971e-05
-2.69024e-09
1.99969e-05
-2.92324e-09
1.99966e-05
-3.17367e-09
1.99964e-05
-3.44262e-09
1.99961e-05
-3.73123e-09
1.99958e-05
-4.04068e-09
1.99955e-05
-4.37221e-09
1.99952e-05
-4.72713e-09
1.99949e-05
-5.10679e-09
1.99945e-05
-5.5126e-09
1.99941e-05
-5.94603e-09
1.99937e-05
-6.40861e-09
1.99933e-05
-6.90194e-09
1.99928e-05
-7.42768e-09
1.99924e-05
-7.98754e-09
1.99919e-05
-8.5833e-09
1.99913e-05
-9.21682e-09
1.99908e-05
-9.88999e-09
1.99902e-05
-1.06048e-08
1.99896e-05
-1.13633e-08
1.9989e-05
-1.21675e-08
1.99883e-05
-1.30197e-08
1.99876e-05
-1.39221e-08
1.99868e-05
-1.48769e-08
1.99861e-05
-1.58865e-08
1.99852e-05
-1.69532e-08
1.99844e-05
-1.80796e-08
1.99835e-05
-1.92681e-08
1.99826e-05
-2.05213e-08
1.99816e-05
-2.18416e-08
1.99806e-05
-2.32317e-08
1.99796e-05
-2.46941e-08
1.99785e-05
-2.62314e-08
1.99774e-05
-2.78461e-08
1.99762e-05
-2.95407e-08
1.9975e-05
-3.13174e-08
1.99737e-05
-3.31786e-08
1.99724e-05
-3.51262e-08
1.99711e-05
-3.71621e-08
1.99697e-05
-3.92875e-08
1.99683e-05
-4.15033e-08
1.99669e-05
-4.38101e-08
1.99654e-05
-4.62071e-08
1.99639e-05
-4.86931e-08
1.99624e-05
-5.12653e-08
1.99609e-05
-5.39193e-08
1.99593e-05
-5.66487e-08
1.99577e-05
-5.94446e-08
1.99562e-05
-6.22946e-08
1.99546e-05
-6.51824e-08
1.9953e-05
-6.80863e-08
1.99515e-05
-7.09783e-08
1.99499e-05
-7.38219e-08
1.99484e-05
-7.65702e-08
1.9947e-05
-7.91629e-08
1.99455e-05
-8.15227e-08
1.99441e-05
-8.35487e-08
1.99427e-05
-8.5113e-08
-8.6017e-08
2e-05
-2.94974e-12
2e-05
-8.88533e-12
2e-05
-1.5345e-11
2e-05
-2.26265e-11
2e-05
-3.06762e-11
2e-05
-3.94469e-11
2e-05
-4.89512e-11
1.99999e-05
-5.92453e-11
1.99999e-05
-7.04165e-11
1.99999e-05
-8.25754e-11
1.99999e-05
-9.58502e-11
1.99999e-05
-1.10384e-10
1.99998e-05
-1.26332e-10
1.99998e-05
-1.43863e-10
1.99998e-05
-1.63156e-10
1.99998e-05
-1.84403e-10
1.99997e-05
-2.0781e-10
1.99997e-05
-2.33595e-10
1.99997e-05
-2.61993e-10
1.99996e-05
-2.93252e-10
1.99996e-05
-3.27639e-10
1.99995e-05
-3.65437e-10
1.99995e-05
-4.0695e-10
1.99994e-05
-4.52501e-10
1.99993e-05
-5.02433e-10
1.99993e-05
-5.57114e-10
1.99992e-05
-6.16934e-10
1.99991e-05
-6.8231e-10
1.9999e-05
-7.53683e-10
1.99989e-05
-8.31523e-10
1.99988e-05
-9.16328e-10
1.99987e-05
-1.00863e-09
1.99986e-05
-1.10898e-09
1.99985e-05
-1.21799e-09
1.99984e-05
-1.33627e-09
1.99982e-05
-1.4645e-09
1.99981e-05
-1.60337e-09
1.99979e-05
-1.75363e-09
1.99977e-05
-1.91606e-09
1.99976e-05
-2.09148e-09
1.99974e-05
-2.28077e-09
1.99972e-05
-2.48483e-09
1.9997e-05
-2.70462e-09
1.99967e-05
-2.94115e-09
1.99965e-05
-3.19549e-09
1.99962e-05
-3.46873e-09
1.99959e-05
-3.76205e-09
1.99956e-05
-4.07665e-09
1.99953e-05
-4.41381e-09
1.9995e-05
-4.77486e-09
1.99946e-05
-5.16119e-09
1.99943e-05
-5.57424e-09
1.99939e-05
-6.01552e-09
1.99935e-05
-6.4866e-09
1.9993e-05
-6.98913e-09
1.99926e-05
-7.52479e-09
1.99921e-05
-8.09536e-09
1.99916e-05
-8.70266e-09
1.9991e-05
-9.3486e-09
1.99904e-05
-1.00351e-08
1.99898e-05
-1.07643e-08
1.99892e-05
-1.15382e-08
1.99886e-05
-1.2359e-08
1.99879e-05
-1.32289e-08
1.99871e-05
-1.41502e-08
1.99864e-05
-1.51254e-08
1.99856e-05
-1.61568e-08
1.99847e-05
-1.72468e-08
1.99839e-05
-1.83982e-08
1.9983e-05
-1.96133e-08
1.9982e-05
-2.08949e-08
1.9981e-05
-2.22456e-08
1.998e-05
-2.3668e-08
1.99789e-05
-2.51649e-08
1.99778e-05
-2.67389e-08
1.99767e-05
-2.83926e-08
1.99755e-05
-3.01286e-08
1.99743e-05
-3.19493e-08
1.9973e-05
-3.38569e-08
1.99717e-05
-3.58534e-08
1.99703e-05
-3.79405e-08
1.9969e-05
-4.01195e-08
1.99675e-05
-4.2391e-08
1.99661e-05
-4.4755e-08
1.99646e-05
-4.72105e-08
1.99631e-05
-4.97552e-08
1.99616e-05
-5.23851e-08
1.996e-05
-5.50945e-08
1.99584e-05
-5.78748e-08
1.99569e-05
-6.07142e-08
1.99553e-05
-6.35966e-08
1.99537e-05
-6.65007e-08
1.99521e-05
-6.93983e-08
1.99505e-05
-7.22528e-08
1.9949e-05
-7.50163e-08
1.99474e-05
-7.76273e-08
1.99459e-05
-8.0006e-08
1.99444e-05
-8.20485e-08
1.99429e-05
-8.36229e-08
-8.45188e-08
2e-05
-2.10356e-12
2e-05
-6.32498e-12
2e-05
-1.10714e-11
2e-05
-1.66457e-11
2e-05
-2.30014e-11
2e-05
-3.00857e-11
2e-05
-3.78966e-11
1.99999e-05
-4.64715e-11
1.99999e-05
-5.58781e-11
1.99999e-05
-6.6208e-11
1.99999e-05
-7.75715e-11
1.99999e-05
-9.00949e-11
1.99999e-05
-1.03918e-10
1.99998e-05
-1.19195e-10
1.99998e-05
-1.36092e-10
1.99998e-05
-1.54787e-10
1.99997e-05
-1.75473e-10
1.99997e-05
-1.98354e-10
1.99997e-05
-2.23653e-10
1.99996e-05
-2.51605e-10
1.99996e-05
-2.82463e-10
1.99995e-05
-3.16496e-10
1.99995e-05
-3.53994e-10
1.99994e-05
-3.95264e-10
1.99994e-05
-4.40636e-10
1.99993e-05
-4.90461e-10
1.99992e-05
-5.45113e-10
1.99991e-05
-6.04991e-10
1.99991e-05
-6.70519e-10
1.9999e-05
-7.4215e-10
1.99989e-05
-8.20363e-10
1.99988e-05
-9.05667e-10
1.99987e-05
-9.98605e-10
1.99985e-05
-1.09975e-09
1.99984e-05
-1.20971e-09
1.99983e-05
-1.32912e-09
1.99981e-05
-1.45867e-09
1.9998e-05
-1.59908e-09
1.99978e-05
-1.7511e-09
1.99976e-05
-1.91553e-09
1.99975e-05
-2.09323e-09
1.99973e-05
-2.28506e-09
1.9997e-05
-2.49198e-09
1.99968e-05
-2.71496e-09
1.99966e-05
-2.95504e-09
1.99963e-05
-3.21329e-09
1.9996e-05
-3.49085e-09
1.99958e-05
-3.78892e-09
1.99955e-05
-4.10874e-09
1.99951e-05
-4.45162e-09
1.99948e-05
-4.81891e-09
1.99944e-05
-5.21204e-09
1.9994e-05
-5.63249e-09
1.99936e-05
-6.08182e-09
1.99932e-05
-6.56164e-09
1.99928e-05
-7.07362e-09
1.99923e-05
-7.61952e-09
1.99918e-05
-8.20115e-09
1.99913e-05
-8.82039e-09
1.99907e-05
-9.4792e-09
1.99901e-05
-1.01796e-08
1.99895e-05
-1.09237e-08
1.99889e-05
-1.17137e-08
1.99882e-05
-1.25517e-08
1.99875e-05
-1.34402e-08
1.99867e-05
-1.43815e-08
1.99859e-05
-1.53781e-08
1.99851e-05
-1.64323e-08
1.99843e-05
-1.7547e-08
1.99834e-05
-1.87246e-08
1.99825e-05
-1.99679e-08
1.99815e-05
-2.12796e-08
1.99805e-05
-2.26625e-08
1.99794e-05
-2.41193e-08
1.99784e-05
-2.56528e-08
1.99772e-05
-2.72659e-08
1.99761e-05
-2.89611e-08
1.99749e-05
-3.07411e-08
1.99736e-05
-3.26083e-08
1.99723e-05
-3.45651e-08
1.9971e-05
-3.66133e-08
1.99696e-05
-3.87544e-08
1.99682e-05
-4.09896e-08
1.99668e-05
-4.3319e-08
1.99653e-05
-4.5742e-08
1.99638e-05
-4.82567e-08
1.99623e-05
-5.08597e-08
1.99607e-05
-5.35454e-08
1.99592e-05
-5.63058e-08
1.99576e-05
-5.91294e-08
1.9956e-05
-6.20003e-08
1.99544e-05
-6.48975e-08
1.99528e-05
-6.77926e-08
1.99512e-05
-7.06487e-08
1.99496e-05
-7.34173e-08
1.9948e-05
-7.60357e-08
1.99464e-05
-7.84221e-08
1.99448e-05
-8.04705e-08
1.99433e-05
-8.20453e-08
-8.2938e-08
2e-05
-1.29754e-12
2e-05
-3.98258e-12
2e-05
-7.1251e-12
2e-05
-1.10749e-11
2e-05
-1.58024e-11
2e-05
-2.12518e-11
2e-05
-2.74112e-11
1.99999e-05
-3.4304e-11
1.99999e-05
-4.19825e-11
1.99999e-05
-5.0522e-11
1.99999e-05
-6.00169e-11
1.99999e-05
-7.05781e-11
1.99999e-05
-8.23312e-11
1.99998e-05
-9.54156e-11
1.99998e-05
-1.09984e-10
1.99998e-05
-1.26201e-10
1.99998e-05
-1.44247e-10
1.99997e-05
-1.64314e-10
1.99997e-05
-1.86611e-10
1.99996e-05
-2.11359e-10
1.99996e-05
-2.38799e-10
1.99995e-05
-2.69186e-10
1.99995e-05
-3.02796e-10
1.99994e-05
-3.39921e-10
1.99994e-05
-3.80877e-10
1.99993e-05
-4.25998e-10
1.99992e-05
-4.75643e-10
1.99992e-05
-5.30194e-10
1.99991e-05
-5.90059e-10
1.9999e-05
-6.55672e-10
1.99989e-05
-7.27493e-10
1.99988e-05
-8.06014e-10
1.99987e-05
-8.91756e-10
1.99986e-05
-9.85273e-10
1.99985e-05
-1.08715e-09
1.99983e-05
-1.19801e-09
1.99982e-05
-1.31851e-09
1.9998e-05
-1.44935e-09
1.99979e-05
-1.59126e-09
1.99977e-05
-1.74501e-09
1.99975e-05
-1.91144e-09
1.99973e-05
-2.09139e-09
1.99971e-05
-2.28579e-09
1.99969e-05
-2.49558e-09
1.99967e-05
-2.72178e-09
1.99964e-05
-2.96544e-09
1.99962e-05
-3.22767e-09
1.99959e-05
-3.50964e-09
1.99956e-05
-3.81256e-09
1.99953e-05
-4.13772e-09
1.9995e-05
-4.48645e-09
1.99946e-05
-4.86015e-09
1.99942e-05
-5.26028e-09
1.99938e-05
-5.68837e-09
1.99934e-05
-6.14601e-09
1.9993e-05
-6.63487e-09
1.99925e-05
-7.15666e-09
1.9992e-05
-7.71318e-09
1.99915e-05
-8.30632e-09
1.9991e-05
-8.93801e-09
1.99904e-05
-9.61026e-09
1.99898e-05
-1.03252e-08
1.99892e-05
-1.10849e-08
1.99885e-05
-1.18917e-08
1.99878e-05
-1.2748e-08
1.99871e-05
-1.3656e-08
1.99863e-05
-1.46183e-08
1.99855e-05
-1.56373e-08
1.99847e-05
-1.67159e-08
1.99838e-05
-1.78565e-08
1.99829e-05
-1.9062e-08
1.9982e-05
-2.03351e-08
1.9981e-05
-2.16788e-08
1.998e-05
-2.30958e-08
1.99789e-05
-2.45891e-08
1.99778e-05
-2.61616e-08
1.99767e-05
-2.7816e-08
1.99755e-05
-2.95552e-08
1.99743e-05
-3.13819e-08
1.9973e-05
-3.32984e-08
1.99717e-05
-3.53069e-08
1.99703e-05
-3.74092e-08
1.9969e-05
-3.96067e-08
1.99675e-05
-4.18999e-08
1.99661e-05
-4.42883e-08
1.99646e-05
-4.67706e-08
1.99631e-05
-4.93436e-08
1.99615e-05
-5.2002e-08
1.996e-05
-5.47381e-08
1.99584e-05
-5.75408e-08
1.99568e-05
-6.03943e-08
1.99552e-05
-6.32777e-08
1.99535e-05
-6.61627e-08
1.99519e-05
-6.90118e-08
1.99503e-05
-7.17763e-08
1.99486e-05
-7.43925e-08
1.9947e-05
-7.67775e-08
1.99453e-05
-7.88235e-08
1.99437e-05
-8.03914e-08
-8.12836e-08
2e-05
-5.71115e-13
2e-05
-1.82125e-12
2e-05
-3.4644e-12
2e-05
-5.88589e-12
2e-05
-9.06425e-12
2e-05
-1.29435e-11
2e-05
-1.75064e-11
2e-05
-2.27668e-11
1.99999e-05
-2.87648e-11
1.99999e-05
-3.55623e-11
1.99999e-05
-4.32397e-11
1.99999e-05
-5.18942e-11
1.99999e-05
-6.16378e-11
1.99998e-05
-7.25963e-11
1.99998e-05
-8.49093e-11
1.99998e-05
-9.87295e-11
1.99998e-05
-1.14223e-10
1.99997e-05
-1.31571e-10
1.99997e-05
-1.50968e-10
1.99997e-05
-1.72623e-10
1.99996e-05
-1.96763e-10
1.99996e-05
-2.23631e-10
1.99995e-05
-2.53488e-10
1.99995e-05
-2.86612e-10
1.99994e-05
-3.23304e-10
1.99993e-05
-3.63884e-10
1.99993e-05
-4.08693e-10
1.99992e-05
-4.581e-10
1.99991e-05
-5.12493e-10
1.9999e-05
-5.72289e-10
1.9999e-05
-6.37933e-10
1.99989e-05
-7.09895e-10
1.99988e-05
-7.88678e-10
1.99986e-05
-8.74816e-10
1.99985e-05
-9.68874e-10
1.99984e-05
-1.07145e-09
1.99983e-05
-1.18319e-09
1.99981e-05
-1.30476e-09
1.9998e-05
-1.43687e-09
1.99978e-05
-1.58028e-09
1.99976e-05
-1.73578e-09
1.99974e-05
-1.90421e-09
1.99972e-05
-2.08646e-09
1.9997e-05
-2.28346e-09
1.99968e-05
-2.49618e-09
1.99966e-05
-2.72567e-09
1.99963e-05
-2.973e-09
1.9996e-05
-3.23932e-09
1.99958e-05
-3.52581e-09
1.99954e-05
-3.83374e-09
1.99951e-05
-4.16441e-09
1.99948e-05
-4.5192e-09
1.99944e-05
-4.89954e-09
1.9994e-05
-5.30695e-09
1.99936e-05
-5.74298e-09
1.99932e-05
-6.20927e-09
1.99928e-05
-6.70754e-09
1.99923e-05
-7.23957e-09
1.99918e-05
-7.80721e-09
1.99913e-05
-8.41238e-09
1.99907e-05
-9.05711e-09
1.99901e-05
-9.74347e-09
1.99895e-05
-1.04736e-08
1.99889e-05
-1.12498e-08
1.99882e-05
-1.20744e-08
1.99875e-05
-1.29498e-08
1.99868e-05
-1.38784e-08
1.9986e-05
-1.48629e-08
1.99852e-05
-1.59058e-08
1.99843e-05
-1.701e-08
1.99834e-05
-1.81781e-08
1.99825e-05
-1.94131e-08
1.99816e-05
-2.0718e-08
1.99806e-05
-2.20955e-08
1.99795e-05
-2.35488e-08
1.99784e-05
-2.50807e-08
1.99773e-05
-2.66944e-08
1.99762e-05
-2.83927e-08
1.9975e-05
-3.01783e-08
1.99737e-05
-3.20541e-08
1.99724e-05
-3.40222e-08
1.99711e-05
-3.60847e-08
1.99697e-05
-3.82431e-08
1.99683e-05
-4.04983e-08
1.99669e-05
-4.28502e-08
1.99654e-05
-4.52975e-08
1.99639e-05
-4.78373e-08
1.99624e-05
-5.04648e-08
1.99608e-05
-5.31724e-08
1.99592e-05
-5.59492e-08
1.99576e-05
-5.87796e-08
1.9956e-05
-6.16428e-08
1.99543e-05
-6.45103e-08
1.99527e-05
-6.73447e-08
1.9951e-05
-7.00967e-08
1.99493e-05
-7.27022e-08
1.99476e-05
-7.50777e-08
1.99459e-05
-7.71146e-08
1.99442e-05
-7.86724e-08
-7.95693e-08
2e-05
6.83429e-14
2e-05
1.83044e-13
2e-05
-6.86325e-14
2e-05
-1.06007e-12
2e-05
-2.77366e-12
2e-05
-5.1563e-12
2e-05
-8.18798e-12
2e-05
-1.1876e-11
1.99999e-05
-1.6251e-11
1.99999e-05
-2.13639e-11
1.99999e-05
-2.72833e-11
1.99999e-05
-3.40941e-11
1.99999e-05
-4.18958e-11
1.99999e-05
-5.08017e-11
1.99998e-05
-6.0939e-11
1.99998e-05
-7.24482e-11
1.99998e-05
-8.54832e-11
1.99997e-05
-1.00212e-10
1.99997e-05
-1.16817e-10
1.99997e-05
-1.35496e-10
1.99996e-05
-1.56462e-10
1.99996e-05
-1.79943e-10
1.99995e-05
-2.06189e-10
1.99995e-05
-2.35463e-10
1.99994e-05
-2.68052e-10
1.99994e-05
-3.0426e-10
1.99993e-05
-3.44415e-10
1.99992e-05
-3.88867e-10
1.99992e-05
-4.3799e-10
1.99991e-05
-4.92183e-10
1.9999e-05
-5.51873e-10
1.99989e-05
-6.17512e-10
1.99988e-05
-6.89585e-10
1.99987e-05
-7.68605e-10
1.99986e-05
-8.55118e-10
1.99985e-05
-9.49705e-10
1.99983e-05
-1.05298e-09
1.99982e-05
-1.16559e-09
1.9998e-05
-1.28824e-09
1.99979e-05
-1.42164e-09
1.99977e-05
-1.56658e-09
1.99975e-05
-1.72386e-09
1.99973e-05
-1.89436e-09
1.99971e-05
-2.07896e-09
1.99969e-05
-2.27864e-09
1.99967e-05
-2.4944e-09
1.99964e-05
-2.72729e-09
1.99962e-05
-2.97843e-09
1.99959e-05
-3.24898e-09
1.99956e-05
-3.54019e-09
1.99953e-05
-3.85332e-09
1.9995e-05
-4.18974e-09
1.99946e-05
-4.55085e-09
1.99943e-05
-4.93813e-09
1.99939e-05
-5.35313e-09
1.99935e-05
-5.79747e-09
1.9993e-05
-6.27283e-09
1.99926e-05
-6.78098e-09
1.99921e-05
-7.32375e-09
1.99916e-05
-7.90306e-09
1.9991e-05
-8.52091e-09
1.99905e-05
-9.17936e-09
1.99899e-05
-9.88058e-09
1.99893e-05
-1.06268e-08
1.99886e-05
-1.14204e-08
1.99879e-05
-1.22637e-08
1.99872e-05
-1.31593e-08
1.99864e-05
-1.41097e-08
1.99857e-05
-1.51177e-08
1.99848e-05
-1.61859e-08
1.9984e-05
-1.73172e-08
1.99831e-05
-1.85146e-08
1.99821e-05
-1.97809e-08
1.99812e-05
-2.11192e-08
1.99801e-05
-2.25326e-08
1.99791e-05
-2.40242e-08
1.9978e-05
-2.55971e-08
1.99769e-05
-2.72542e-08
1.99757e-05
-2.89986e-08
1.99744e-05
-3.08329e-08
1.99732e-05
-3.27598e-08
1.99719e-05
-3.47814e-08
1.99705e-05
-3.68995e-08
1.99692e-05
-3.9115e-08
1.99677e-05
-4.14281e-08
1.99663e-05
-4.38379e-08
1.99648e-05
-4.63416e-08
1.99632e-05
-4.89346e-08
1.99617e-05
-5.16095e-08
1.99601e-05
-5.43555e-08
1.99585e-05
-5.71575e-08
1.99568e-05
-5.99943e-08
1.99551e-05
-6.28377e-08
1.99535e-05
-6.56502e-08
1.99517e-05
-6.83823e-08
1.995e-05
-7.09697e-08
1.99483e-05
-7.33287e-08
1.99465e-05
-7.53512e-08
1.99447e-05
-7.68985e-08
-7.78019e-08
2e-05
6.5702e-13
2e-05
2.02559e-12
2e-05
3.06837e-12
2e-05
3.41455e-12
2e-05
3.07977e-12
2e-05
2.11507e-12
2e-05
5.42061e-13
2e-05
-1.64173e-12
1.99999e-05
-4.4597e-12
1.99999e-05