/*--------------------------------*- C++ -*----------------------------------*\
  =========                 |
  \\      /  F ield         | OpenFOAM: The Open Source CFD Toolbox
   \\    /   O peration     | Website:  https://openfoam.org
    \\  /    A nd           | Version:  11
     \\/     M anipulation  |
\*---------------------------------------------------------------------------*/
FoamFile
{
    format      ascii;
    class       surfaceScalarField;
    location    "1082";
    object      phi;
}
// * * * * * * * * * * * * * * * * * * * * * * * * * * * * * * * * * * * * * //

dimensions      [0 3 -1 0 0 0 0];

internalField   nonuniform List<scalar> 
19800
(
2e-05
-9.98444e-13
2e-05
-2.85578e-12
2e-05
-4.62663e-12
2e-05
-6.34691e-12
2e-05
-8.0519e-12
2e-05
-9.76591e-12
2e-05
-1.15062e-11
2e-05
-1.32858e-11
2e-05
-1.51153e-11
2e-05
-1.70035e-11
2e-05
-1.89581e-11
2e-05
-2.09864e-11
2e-05
-2.30951e-11
2e-05
-2.52906e-11
2e-05
-2.75795e-11
2e-05
-2.99681e-11
2e-05
-3.24631e-11
2e-05
-3.50711e-11
2e-05
-3.77991e-11
2e-05
-4.06544e-11
2e-05
-4.36444e-11
2e-05
-4.67771e-11
2e-05
-5.00609e-11
2e-05
-5.35046e-11
2e-05
-5.71178e-11
2e-05
-6.09102e-11
2e-05
-6.48926e-11
1.99999e-05
-6.90762e-11
1.99999e-05
-7.3473e-11
1.99999e-05
-7.8096e-11
1.99999e-05
-8.29589e-11
1.99999e-05
-8.80762e-11
1.99999e-05
-9.34636e-11
1.99999e-05
-9.91378e-11
1.99999e-05
-1.05117e-10
1.99999e-05
-1.11419e-10
1.99999e-05
-1.18066e-10
1.99999e-05
-1.25078e-10
1.99999e-05
-1.3248e-10
1.99999e-05
-1.40295e-10
1.99998e-05
-1.4855e-10
1.99998e-05
-1.57274e-10
1.99998e-05
-1.66495e-10
1.99998e-05
-1.76247e-10
1.99998e-05
-1.86564e-10
1.99998e-05
-1.9748e-10
1.99998e-05
-2.09036e-10
1.99998e-05
-2.21272e-10
1.99997e-05
-2.34231e-10
1.99997e-05
-2.47959e-10
1.99997e-05
-2.62505e-10
1.99997e-05
-2.77922e-10
1.99997e-05
-2.94263e-10
1.99996e-05
-3.11588e-10
1.99996e-05
-3.29956e-10
1.99996e-05
-3.49432e-10
1.99996e-05
-3.70085e-10
1.99995e-05
-3.91986e-10
1.99995e-05
-4.15211e-10
1.99995e-05
-4.39838e-10
1.99994e-05
-4.6595e-10
1.99994e-05
-4.93635e-10
1.99994e-05
-5.22982e-10
1.99993e-05
-5.54086e-10
1.99993e-05
-5.87046e-10
1.99992e-05
-6.21963e-10
1.99992e-05
-6.58941e-10
1.99992e-05
-6.98091e-10
1.99991e-05
-7.39522e-10
1.99991e-05
-7.8335e-10
1.9999e-05
-8.29688e-10
1.9999e-05
-8.78654e-10
1.99989e-05
-9.30364e-10
1.99988e-05
-9.84932e-10
1.99988e-05
-1.04247e-09
1.99987e-05
-1.10309e-09
1.99987e-05
-1.16689e-09
1.99986e-05
-1.23396e-09
1.99985e-05
-1.30437e-09
1.99985e-05
-1.37819e-09
1.99984e-05
-1.45544e-09
1.99983e-05
-1.53614e-09
1.99982e-05
-1.62025e-09
1.99982e-05
-1.70768e-09
1.99981e-05
-1.79829e-09
1.9998e-05
-1.89188e-09
1.99979e-05
-1.98812e-09
1.99979e-05
-2.0866e-09
1.99978e-05
-2.18677e-09
1.99977e-05
-2.28791e-09
1.99976e-05
-2.38912e-09
1.99976e-05
-2.48928e-09
1.99975e-05
-2.58698e-09
1.99974e-05
-2.68055e-09
1.99974e-05
-2.76799e-09
1.99973e-05
-2.84699e-09
1.99973e-05
-2.91494e-09
1.99972e-05
-2.96905e-09
1.99972e-05
-3.007e-09
-3.02942e-09
2e-05
-8.56707e-13
2e-05
-2.56454e-12
2e-05
-4.23702e-12
2e-05
-5.87216e-12
2e-05
-7.49457e-12
2e-05
-9.12463e-12
2e-05
-1.07776e-11
2e-05
-1.24652e-11
2e-05
-1.41973e-11
2e-05
-1.5982e-11
2e-05
-1.78265e-11
2e-05
-1.97374e-11
2e-05
-2.1721e-11
2e-05
-2.37832e-11
2e-05
-2.59299e-11
2e-05
-2.81671e-11
2e-05
-3.05007e-11
2e-05
-3.29368e-11
2e-05
-3.54818e-11
2e-05
-3.81422e-11
2e-05
-4.0925e-11
2e-05
-4.38374e-11
2e-05
-4.6887e-11
2e-05
-5.0082e-11
2e-05
-5.34309e-11
2e-05
-5.6943e-11
2e-05
-6.0628e-11
1.99999e-05
-6.44963e-11
1.99999e-05
-6.8559e-11
1.99999e-05
-7.28281e-11
1.99999e-05
-7.73163e-11
1.99999e-05
-8.20372e-11
1.99999e-05
-8.70054e-11
1.99999e-05
-9.22365e-11
1.99999e-05
-9.77473e-11
1.99999e-05
-1.03556e-10
1.99999e-05
-1.09681e-10
1.99999e-05
-1.16143e-10
1.99999e-05
-1.22964e-10
1.99999e-05
-1.30169e-10
1.99998e-05
-1.37781e-10
1.99998e-05
-1.45827e-10
1.99998e-05
-1.54337e-10
1.99998e-05
-1.63341e-10
1.99998e-05
-1.72871e-10
1.99998e-05
-1.82963e-10
1.99998e-05
-1.93654e-10
1.99998e-05
-2.04982e-10
1.99997e-05
-2.16991e-10
1.99997e-05
-2.29725e-10
1.99997e-05
-2.43231e-10
1.99997e-05
-2.5756e-10
1.99997e-05
-2.72766e-10
1.99996e-05
-2.88905e-10
1.99996e-05
-3.06038e-10
1.99996e-05
-3.24228e-10
1.99996e-05
-3.43542e-10
1.99995e-05
-3.64052e-10
1.99995e-05
-3.85832e-10
1.99995e-05
-4.08961e-10
1.99994e-05
-4.33522e-10
1.99994e-05
-4.59601e-10
1.99994e-05
-4.8729e-10
1.99993e-05
-5.16684e-10
1.99993e-05
-5.47882e-10
1.99993e-05
-5.80988e-10
1.99992e-05
-6.1611e-10
1.99992e-05
-6.53358e-10
1.99991e-05
-6.92847e-10
1.99991e-05
-7.34696e-10
1.9999e-05
-7.79025e-10
1.9999e-05
-8.25955e-10
1.99989e-05
-8.75612e-10
1.99989e-05
-9.28118e-10
1.99988e-05
-9.83595e-10
1.99987e-05
-1.04216e-09
1.99987e-05
-1.10393e-09
1.99986e-05
-1.16901e-09
1.99985e-05
-1.23749e-09
1.99985e-05
-1.30945e-09
1.99984e-05
-1.38495e-09
1.99983e-05
-1.46401e-09
1.99983e-05
-1.54663e-09
1.99982e-05
-1.63277e-09
1.99981e-05
-1.7223e-09
1.9998e-05
-1.81507e-09
1.99979e-05
-1.9108e-09
1.99979e-05
-2.00913e-09
1.99978e-05
-2.10956e-09
1.99977e-05
-2.21145e-09
1.99976e-05
-2.31396e-09
1.99976e-05
-2.41604e-09
1.99975e-05
-2.51639e-09
1.99974e-05
-2.61341e-09
1.99974e-05
-2.7052e-09
1.99973e-05
-2.78953e-09
1.99973e-05
-2.86382e-09
1.99972e-05
-2.92516e-09
1.99972e-05
-2.97081e-09
-2.99996e-09
2e-05
-7.49723e-13
2e-05
-2.30611e-12
2e-05
-3.86581e-12
2e-05
-5.4074e-12
2e-05
-6.94304e-12
2e-05
-8.48728e-12
2e-05
-1.00523e-11
2e-05
-1.16481e-11
2e-05
-1.32833e-11
2e-05
-1.49652e-11
2e-05
-1.67005e-11
2e-05
-1.84951e-11
2e-05
-2.03547e-11
2e-05
-2.22848e-11
2e-05
-2.42907e-11
2e-05
-2.63778e-11
2e-05
-2.85514e-11
2e-05
-3.08172e-11
2e-05
-3.31808e-11
2e-05
-3.56482e-11
2e-05
-3.82256e-11
2e-05
-4.09197e-11
2e-05
-4.37372e-11
2e-05
-4.66856e-11
2e-05
-4.97728e-11
2e-05
-5.3007e-11
2e-05
-5.63973e-11
1.99999e-05
-5.99531e-11
1.99999e-05
-6.36848e-11
1.99999e-05
-6.76032e-11
1.99999e-05
-7.17201e-11
1.99999e-05
-7.60482e-11
1.99999e-05
-8.0601e-11
1.99999e-05
-8.53931e-11
1.99999e-05
-9.044e-11
1.99999e-05
-9.57586e-11
1.99999e-05
-1.01367e-10
1.99999e-05
-1.07284e-10
1.99999e-05
-1.13531e-10
1.99999e-05
-1.2013e-10
1.99999e-05
-1.27105e-10
1.99998e-05
-1.34481e-10
1.99998e-05
-1.42285e-10
1.99998e-05
-1.50548e-10
1.99998e-05
-1.593e-10
1.99998e-05
-1.68574e-10
1.99998e-05
-1.78407e-10
1.99998e-05
-1.88837e-10
1.99997e-05
-1.99904e-10
1.99997e-05
-2.11653e-10
1.99997e-05
-2.24128e-10
1.99997e-05
-2.3738e-10
1.99997e-05
-2.5146e-10
1.99996e-05
-2.66426e-10
1.99996e-05
-2.82335e-10
1.99996e-05
-2.9925e-10
1.99996e-05
-3.17238e-10
1.99995e-05
-3.36369e-10
1.99995e-05
-3.56717e-10
1.99995e-05
-3.78361e-10
1.99994e-05
-4.01383e-10
1.99994e-05
-4.25871e-10
1.99994e-05
-4.51916e-10
1.99993e-05
-4.79614e-10
1.99993e-05
-5.09066e-10
1.99993e-05
-5.40377e-10
1.99992e-05
-5.73656e-10
1.99992e-05
-6.09018e-10
1.99991e-05
-6.46581e-10
1.99991e-05
-6.86466e-10
1.9999e-05
-7.28799e-10
1.9999e-05
-7.73709e-10
1.99989e-05
-8.21326e-10
1.99989e-05
-8.71781e-10
1.99988e-05
-9.25207e-10
1.99987e-05
-9.81732e-10
1.99987e-05
-1.04148e-09
1.99986e-05
-1.10458e-09
1.99986e-05
-1.17113e-09
1.99985e-05
-1.24124e-09
1.99984e-05
-1.31497e-09
1.99983e-05
-1.39239e-09
1.99983e-05
-1.47351e-09
1.99982e-05
-1.55832e-09
1.99981e-05
-1.64675e-09
1.9998e-05
-1.73866e-09
1.9998e-05
-1.83383e-09
1.99979e-05
-1.93194e-09
1.99978e-05
-2.03256e-09
1.99977e-05
-2.13508e-09
1.99977e-05
-2.23875e-09
1.99976e-05
-2.34258e-09
1.99975e-05
-2.44533e-09
1.99974e-05
-2.54548e-09
1.99974e-05
-2.64118e-09
1.99973e-05
-2.73019e-09
1.99973e-05
-2.80985e-09
1.99972e-05
-2.87698e-09
1.99972e-05
-2.92806e-09
-2.95979e-09
2e-05
-6.64096e-13
2e-05
-2.07824e-12
2e-05
-3.5202e-12
2e-05
-4.96122e-12
2e-05
-6.40489e-12
2e-05
-7.86005e-12
2e-05
-9.33533e-12
2e-05
-1.08386e-11
2e-05
-1.23769e-11
2e-05
-1.39567e-11
2e-05
-1.55836e-11
2e-05
-1.7263e-11
2e-05
-1.9e-11
2e-05
-2.07995e-11
2e-05
-2.26662e-11
2e-05
-2.4605e-11
2e-05
-2.66207e-11
2e-05
-2.87183e-11
2e-05
-3.09028e-11
2e-05
-3.31796e-11
2e-05
-3.55542e-11
2e-05
-3.80326e-11
2e-05
-4.0621e-11
2e-05
-4.3326e-11
2e-05
-4.61547e-11
2e-05
-4.91147e-11
2e-05
-5.22141e-11
1.99999e-05
-5.54615e-11
1.99999e-05
-5.88663e-11
1.99999e-05
-6.24385e-11
1.99999e-05
-6.6189e-11
1.99999e-05
-7.01294e-11
1.99999e-05
-7.42723e-11
1.99999e-05
-7.8631e-11
1.99999e-05
-8.32202e-11
1.99999e-05
-8.80556e-11
1.99999e-05
-9.31538e-11
1.99999e-05
-9.85332e-11
1.99999e-05
-1.04213e-10
1.99999e-05
-1.10215e-10
1.99999e-05
-1.16561e-10
1.99998e-05
-1.23275e-10
1.99998e-05
-1.30384e-10
1.99998e-05
-1.37915e-10
1.99998e-05
-1.45898e-10
1.99998e-05
-1.54367e-10
1.99998e-05
-1.63354e-10
1.99998e-05
-1.72897e-10
1.99997e-05
-1.83035e-10
1.99997e-05
-1.93811e-10
1.99997e-05
-2.05269e-10
1.99997e-05
-2.17458e-10
1.99997e-05
-2.30428e-10
1.99996e-05
-2.44235e-10
1.99996e-05
-2.58936e-10
1.99996e-05
-2.74593e-10
1.99996e-05
-2.91272e-10
1.99995e-05
-3.09041e-10
1.99995e-05
-3.27976e-10
1.99995e-05
-3.48155e-10
1.99994e-05
-3.69658e-10
1.99994e-05
-3.92575e-10
1.99994e-05
-4.16997e-10
1.99993e-05
-4.4302e-10
1.99993e-05
-4.70747e-10
1.99993e-05
-5.00284e-10
1.99992e-05
-5.31743e-10
1.99992e-05
-5.6524e-10
1.99991e-05
-6.00898e-10
1.99991e-05
-6.38841e-10
1.9999e-05
-6.792e-10
1.9999e-05
-7.2211e-10
1.99989e-05
-7.67707e-10
1.99989e-05
-8.1613e-10
1.99988e-05
-8.67521e-10
1.99988e-05
-9.2202e-10
1.99987e-05
-9.79764e-10
1.99986e-05
-1.04089e-09
1.99986e-05
-1.10552e-09
1.99985e-05
-1.17377e-09
1.99984e-05
-1.24574e-09
1.99984e-05
-1.3215e-09
1.99983e-05
-1.40111e-09
1.99982e-05
-1.48457e-09
1.99981e-05
-1.57186e-09
1.99981e-05
-1.66285e-09
1.9998e-05
-1.75739e-09
1.99979e-05
-1.8552e-09
1.99978e-05
-1.95588e-09
1.99978e-05
-2.05889e-09
1.99977e-05
-2.16353e-09
1.99976e-05
-2.26885e-09
1.99975e-05
-2.37369e-09
1.99975e-05
-2.47654e-09
1.99974e-05
-2.57556e-09
1.99973e-05
-2.66848e-09
1.99973e-05
-2.75249e-09
1.99972e-05
-2.82406e-09
1.99972e-05
-2.87886e-09
-2.91081e-09
2e-05
-5.92679e-13
2e-05
-1.87542e-12
2e-05
-3.20065e-12
2e-05
-4.5378e-12
2e-05
-5.88562e-12
2e-05
-7.2486e-12
2e-05
-8.6321e-12
2e-05
-1.00417e-11
2e-05
-1.14828e-11
2e-05
-1.29606e-11
2e-05
-1.44799e-11
2e-05
-1.60453e-11
2e-05
-1.76611e-11
2e-05
-1.93317e-11
2e-05
-2.10612e-11
2e-05
-2.28539e-11
2e-05
-2.4714e-11
2e-05
-2.66459e-11
2e-05
-2.86541e-11
2e-05
-3.07433e-11
2e-05
-3.29184e-11
2e-05
-3.51846e-11
2e-05
-3.75476e-11
2e-05
-4.00131e-11
2e-05
-4.25876e-11
2e-05
-4.52778e-11
2e-05
-4.8091e-11
1.99999e-05
-5.1035e-11
1.99999e-05
-5.41184e-11
1.99999e-05
-5.73503e-11
1.99999e-05
-6.07405e-11
1.99999e-05
-6.42997e-11
1.99999e-05
-6.80394e-11
1.99999e-05
-7.19722e-11
1.99999e-05
-7.61114e-11
1.99999e-05
-8.04717e-11
1.99999e-05
-8.50686e-11
1.99999e-05
-8.99193e-11
1.99999e-05
-9.50421e-11
1.99999e-05
-1.00457e-10
1.99999e-05
-1.06184e-10
1.99998e-05
-1.12248e-10
1.99998e-05
-1.18673e-10
1.99998e-05
-1.25485e-10
1.99998e-05
-1.32714e-10
1.99998e-05
-1.40389e-10
1.99998e-05
-1.48545e-10
1.99998e-05
-1.57217e-10
1.99997e-05
-1.66442e-10
1.99997e-05
-1.76262e-10
1.99997e-05
-1.86721e-10
1.99997e-05
-1.97864e-10
1.99997e-05
-2.09743e-10
1.99996e-05
-2.22411e-10
1.99996e-05
-2.35925e-10
1.99996e-05
-2.50345e-10
1.99996e-05
-2.65736e-10
1.99995e-05
-2.82168e-10
1.99995e-05
-2.99713e-10
1.99995e-05
-3.1845e-10
1.99995e-05
-3.3846e-10
1.99994e-05
-3.59831e-10
1.99994e-05
-3.82656e-10
1.99994e-05
-4.07031e-10
1.99993e-05
-4.3306e-10
1.99993e-05
-4.60851e-10
1.99992e-05
-4.90518e-10
1.99992e-05
-5.22178e-10
1.99991e-05
-5.55959e-10
1.99991e-05
-5.91988e-10
1.99991e-05
-6.304e-10
1.9999e-05
-6.71336e-10
1.99989e-05
-7.14938e-10
1.99989e-05
-7.61354e-10
1.99988e-05
-8.10733e-10
1.99988e-05
-8.63225e-10
1.99987e-05
-9.1898e-10
1.99987e-05
-9.78144e-10
1.99986e-05
-1.04086e-09
1.99985e-05
-1.10726e-09
1.99985e-05
-1.17746e-09
1.99984e-05
-1.25156e-09
1.99983e-05
-1.32963e-09
1.99982e-05
-1.41171e-09
1.99982e-05
-1.4978e-09
1.99981e-05
-1.58782e-09
1.9998e-05
-1.68164e-09
1.99979e-05
-1.77903e-09
1.99979e-05
-1.87963e-09
1.99978e-05
-1.98295e-09
1.99977e-05
-2.08831e-09
1.99976e-05
-2.19484e-09
1.99976e-05
-2.30137e-09
1.99975e-05
-2.40644e-09
1.99974e-05
-2.50817e-09
1.99974e-05
-2.60421e-09
1.99973e-05
-2.69159e-09
1.99972e-05
-2.76641e-09
1.99972e-05
-2.82368e-09
-2.856e-09
2e-05
-5.311e-13
2e-05
-1.69291e-12
2e-05
-2.90529e-12
2e-05
-4.13837e-12
2e-05
-5.38846e-12
2e-05
-6.65712e-12
2e-05
-7.94714e-12
2e-05
-9.26201e-12
2e-05
-1.06055e-11
2e-05
-1.19816e-11
2e-05
-1.3394e-11
2e-05
-1.48464e-11
2e-05
-1.63426e-11
2e-05
-1.78861e-11
2e-05
-1.94806e-11
2e-05
-2.11296e-11
2e-05
-2.28369e-11
2e-05
-2.46061e-11
2e-05
-2.64412e-11
2e-05
-2.83463e-11
2e-05
-3.03257e-11
2e-05
-3.23839e-11
2e-05
-3.45257e-11
2e-05
-3.67565e-11
2e-05
-3.90818e-11
2e-05
-4.15075e-11
2e-05
-4.40403e-11
2e-05
-4.66871e-11
1.99999e-05
-4.94556e-11
1.99999e-05
-5.23539e-11
1.99999e-05
-5.53911e-11
1.99999e-05
-5.85769e-11
1.99999e-05
-6.19219e-11
1.99999e-05
-6.54374e-11
1.99999e-05
-6.91359e-11
1.99999e-05
-7.30308e-11
1.99999e-05
-7.71369e-11
1.99999e-05
-8.14698e-11
1.99999e-05
-8.60469e-11
1.99999e-05
-9.08867e-11
1.99999e-05
-9.60092e-11
1.99998e-05
-1.01436e-10
1.99998e-05
-1.07191e-10
1.99998e-05
-1.133e-10
1.99998e-05
-1.19789e-10
1.99998e-05
-1.26689e-10
1.99998e-05
-1.34031e-10
1.99998e-05
-1.41849e-10
1.99998e-05
-1.5018e-10
1.99997e-05
-1.59065e-10
1.99997e-05
-1.68544e-10
1.99997e-05
-1.78665e-10
1.99997e-05
-1.89475e-10
1.99997e-05
-2.01028e-10
1.99996e-05
-2.13379e-10
1.99996e-05
-2.26587e-10
1.99996e-05
-2.40718e-10
1.99996e-05
-2.55839e-10
1.99995e-05
-2.72023e-10
1.99995e-05
-2.89347e-10
1.99995e-05
-3.07893e-10
1.99994e-05
-3.2775e-10
1.99994e-05
-3.49008e-10
1.99994e-05
-3.71768e-10
1.99993e-05
-3.96131e-10
1.99993e-05
-4.22209e-10
1.99993e-05
-4.50116e-10
1.99992e-05
-4.79974e-10
1.99992e-05
-5.1191e-10
1.99991e-05
-5.46058e-10
1.99991e-05
-5.82556e-10
1.9999e-05
-6.21549e-10
1.9999e-05
-6.63187e-10
1.99989e-05
-7.07624e-10
1.99989e-05
-7.55016e-10
1.99988e-05
-8.05525e-10
1.99987e-05
-8.59309e-10
1.99987e-05
-9.16529e-10
1.99986e-05
-9.7734e-10
1.99986e-05
-1.04189e-09
1.99985e-05
-1.11031e-09
1.99984e-05
-1.18273e-09
1.99983e-05
-1.25924e-09
1.99983e-05
-1.3399e-09
1.99982e-05
-1.42474e-09
1.99981e-05
-1.51371e-09
1.99981e-05
-1.60672e-09
1.9998e-05
-1.70355e-09
1.99979e-05
-1.80391e-09
1.99978e-05
-1.90732e-09
1.99978e-05
-2.01315e-09
1.99977e-05
-2.12055e-09
1.99976e-05
-2.22838e-09
1.99975e-05
-2.33514e-09
1.99975e-05
-2.43896e-09
1.99974e-05
-2.53736e-09
1.99973e-05
-2.62721e-09
1.99973e-05
-2.70437e-09
1.99972e-05
-2.76337e-09
-2.79711e-09
2e-05
-4.7646e-13
2e-05
-1.52701e-12
2e-05
-2.63173e-12
2e-05
-3.76255e-12
2e-05
-4.91483e-12
2e-05
-6.08832e-12
2e-05
-7.28394e-12
2e-05
-8.50346e-12
2e-05
-9.74921e-12
2e-05
-1.10238e-11
2e-05
-1.23301e-11
2e-05
-1.36708e-11
2e-05
-1.5049e-11
2e-05
-1.64676e-11
2e-05
-1.79294e-11
2e-05
-1.94374e-11
2e-05
-2.09949e-11
2e-05
-2.26048e-11
2e-05
-2.42705e-11
2e-05
-2.59955e-11
2e-05
-2.77834e-11
2e-05
-2.96382e-11
2e-05
-3.1564e-11
2e-05
-3.35654e-11
2e-05
-3.56472e-11
2e-05
-3.78147e-11
2e-05
-4.00736e-11
2e-05
-4.24302e-11
1.99999e-05
-4.48911e-11
1.99999e-05
-4.74639e-11
1.99999e-05
-5.01566e-11
1.99999e-05
-5.2978e-11
1.99999e-05
-5.59376e-11
1.99999e-05
-5.90459e-11
1.99999e-05
-6.23144e-11
1.99999e-05
-6.57554e-11
1.99999e-05
-6.93825e-11
1.99999e-05
-7.32104e-11
1.99999e-05
-7.72552e-11
1.99999e-05
-8.15342e-11
1.99999e-05
-8.60665e-11
1.99999e-05
-9.08724e-11
1.99998e-05
-9.59744e-11
1.99998e-05
-1.01396e-10
1.99998e-05
-1.07165e-10
1.99998e-05
-1.13308e-10
1.99998e-05
-1.19856e-10
1.99998e-05
-1.26842e-10
1.99998e-05
-1.34301e-10
1.99997e-05
-1.42273e-10
1.99997e-05
-1.50798e-10
1.99997e-05
-1.5992e-10
1.99997e-05
-1.69688e-10
1.99997e-05
-1.80152e-10
1.99996e-05
-1.91369e-10
1.99996e-05
-2.03395e-10
1.99996e-05
-2.16296e-10
1.99996e-05
-2.30137e-10
1.99995e-05
-2.44992e-10
1.99995e-05
-2.60936e-10
1.99995e-05
-2.78053e-10
1.99995e-05
-2.9643e-10
1.99994e-05
-3.16159e-10
1.99994e-05
-3.37339e-10
1.99993e-05
-3.60074e-10
1.99993e-05
-3.84476e-10
1.99993e-05
-4.10662e-10
1.99992e-05
-4.38755e-10
1.99992e-05
-4.68885e-10
1.99991e-05
-5.01189e-10
1.99991e-05
-5.35809e-10
1.9999e-05
-5.72896e-10
1.9999e-05
-6.12604e-10
1.99989e-05
-6.55093e-10
1.99989e-05
-7.00529e-10
1.99988e-05
-7.49079e-10
1.99988e-05
-8.00916e-10
1.99987e-05
-8.56208e-10
1.99986e-05
-9.15125e-10
1.99986e-05
-9.77829e-10
1.99985e-05
-1.04447e-09
1.99985e-05
-1.1152e-09
1.99984e-05
-1.19011e-09
1.99983e-05
-1.26931e-09
1.99982e-05
-1.35283e-09
1.99982e-05
-1.44067e-09
1.99981e-05
-1.53274e-09
1.9998e-05
-1.62888e-09
1.99979e-05
-1.72881e-09
1.99979e-05
-1.83209e-09
1.99978e-05
-1.93812e-09
1.99977e-05
-2.04604e-09
1.99976e-05
-2.15474e-09
1.99976e-05
-2.26271e-09
1.99975e-05
-2.368e-09
1.99974e-05
-2.4681e-09
1.99974e-05
-2.5597e-09
1.99973e-05
-2.63848e-09
1.99972e-05
-2.69887e-09
-2.73422e-09
2e-05
-4.26956e-13
2e-05
-1.37487e-12
2e-05
-2.37759e-12
2e-05
-3.40925e-12
2e-05
-4.46505e-12
2e-05
-5.54375e-12
2e-05
-6.64497e-12
2e-05
-7.76914e-12
2e-05
-8.91736e-12
2e-05
-1.00911e-11
2e-05
-1.12923e-11
2e-05
-1.25228e-11
2e-05
-1.37848e-11
2e-05
-1.50806e-11
2e-05
-1.64123e-11
2e-05
-1.77824e-11
2e-05
-1.91933e-11
2e-05
-2.06476e-11
2e-05
-2.2148e-11
2e-05
-2.36973e-11
2e-05
-2.52986e-11
2e-05
-2.69552e-11
2e-05
-2.86706e-11
2e-05
-3.04485e-11
2e-05
-3.22933e-11
2e-05
-3.42094e-11
2e-05
-3.62018e-11
2e-05
-3.82759e-11
1.99999e-05
-4.04378e-11
1.99999e-05
-4.26939e-11
1.99999e-05
-4.50515e-11
1.99999e-05
-4.75185e-11
1.99999e-05
-5.01035e-11
1.99999e-05
-5.2816e-11
1.99999e-05
-5.56664e-11
1.99999e-05
-5.86662e-11
1.99999e-05
-6.18278e-11
1.99999e-05
-6.51648e-11
1.99999e-05
-6.86923e-11
1.99999e-05
-7.24264e-11
1.99999e-05
-7.6385e-11
1.99999e-05
-8.05874e-11
1.99998e-05
-8.50547e-11
1.99998e-05
-8.98098e-11
1.99998e-05
-9.48776e-11
1.99998e-05
-1.00285e-10
1.99998e-05
-1.06062e-10
1.99998e-05
-1.12239e-10
1.99998e-05
-1.18851e-10
1.99997e-05
-1.25936e-10
1.99997e-05
-1.33533e-10
1.99997e-05
-1.41685e-10
1.99997e-05
-1.5044e-10
1.99997e-05
-1.59846e-10
1.99996e-05
-1.69959e-10
1.99996e-05
-1.80837e-10
1.99996e-05
-1.9254e-10
1.99996e-05
-2.05137e-10
1.99996e-05
-2.18699e-10
1.99995e-05
-2.33302e-10
1.99995e-05
-2.49027e-10
1.99995e-05
-2.65963e-10
1.99994e-05
-2.84202e-10
1.99994e-05
-3.03843e-10
1.99994e-05
-3.24992e-10
1.99993e-05
-3.4776e-10
1.99993e-05
-3.72267e-10
1.99992e-05
-3.98637e-10
1.99992e-05
-4.27002e-10
1.99992e-05
-4.57504e-10
1.99991e-05
-4.90287e-10
1.99991e-05
-5.25507e-10
1.9999e-05
-5.63321e-10
1.9999e-05
-6.03899e-10
1.99989e-05
-6.4741e-10
1.99989e-05
-6.94031e-10
1.99988e-05
-7.43943e-10
1.99987e-05
-7.97327e-10
1.99987e-05
-8.54361e-10
1.99986e-05
-9.15223e-10
1.99986e-05
-9.80081e-10
1.99985e-05
-1.04909e-09
1.99984e-05
-1.12238e-09
1.99984e-05
-1.20006e-09
1.99983e-05
-1.2822e-09
1.99982e-05
-1.3688e-09
1.99981e-05
-1.45983e-09
1.99981e-05
-1.55513e-09
1.9998e-05
-1.65444e-09
1.99979e-05
-1.75736e-09
1.99978e-05
-1.86329e-09
1.99978e-05
-1.9714e-09
1.99977e-05
-2.08056e-09
1.99976e-05
-2.18926e-09
1.99975e-05
-2.2955e-09
1.99975e-05
-2.3967e-09
1.99974e-05
-2.48946e-09
1.99973e-05
-2.56937e-09
1.99973e-05
-2.63081e-09
-2.6672e-09
2e-05
-3.81547e-13
2e-05
-1.23433e-12
2e-05
-2.14077e-12
2e-05
-3.07708e-12
2e-05
-4.03876e-12
2e-05
-5.02407e-12
2e-05
-6.03178e-12
2e-05
-7.06134e-12
2e-05
-8.11284e-12
2e-05
-9.18681e-12
2e-05
-1.02842e-11
2e-05
-1.14062e-11
2e-05
-1.25541e-11
2e-05
-1.37295e-11
2e-05
-1.4934e-11
2e-05
-1.61694e-11
2e-05
-1.74374e-11
2e-05
-1.87401e-11
2e-05
-2.00796e-11
2e-05
-2.14581e-11
2e-05
-2.2878e-11
2e-05
-2.4342e-11
2e-05
-2.5853e-11
2e-05
-2.74141e-11
2e-05
-2.90289e-11
2e-05
-3.07011e-11
2e-05
-3.24351e-11
2e-05
-3.42354e-11
1.99999e-05
-3.61073e-11
1.99999e-05
-3.80566e-11
1.99999e-05
-4.00895e-11
1.99999e-05
-4.22131e-11
1.99999e-05
-4.44352e-11
1.99999e-05
-4.67642e-11
1.99999e-05
-4.92098e-11
1.99999e-05
-5.17823e-11
1.99999e-05
-5.44931e-11
1.99999e-05
-5.73549e-11
1.99999e-05
-6.03815e-11
1.99999e-05
-6.35881e-11
1.99999e-05
-6.69914e-11
1.99999e-05
-7.06095e-11
1.99998e-05
-7.44625e-11
1.99998e-05
-7.85719e-11
1.99998e-05
-8.29615e-11
1.99998e-05
-8.76572e-11
1.99998e-05
-9.2687e-11
1.99998e-05
-9.80814e-11
1.99998e-05
-1.03873e-10
1.99998e-05
-1.10099e-10
1.99997e-05
-1.16798e-10
1.99997e-05
-1.24011e-10
1.99997e-05
-1.31784e-10
1.99997e-05
-1.40166e-10
1.99997e-05
-1.4921e-10
1.99996e-05
-1.58974e-10
1.99996e-05
-1.69518e-10
1.99996e-05
-1.80908e-10
1.99996e-05
-1.93216e-10
1.99995e-05
-2.06517e-10
1.99995e-05
-2.20893e-10
1.99995e-05
-2.36431e-10
1.99994e-05
-2.53223e-10
1.99994e-05
-2.7137e-10
1.99994e-05
-2.90977e-10
1.99993e-05
-3.12157e-10
1.99993e-05
-3.3503e-10
1.99993e-05
-3.59722e-10
1.99992e-05
-3.8637e-10
1.99992e-05
-4.15113e-10
1.99991e-05
-4.46104e-10
1.99991e-05
-4.79498e-10
1.99991e-05
-5.1546e-10
1.9999e-05
-5.54163e-10
1.99989e-05
-5.95784e-10
1.99989e-05
-6.40508e-10
1.99988e-05
-6.88521e-10
1.99988e-05
-7.40014e-10
1.99987e-05
-7.95178e-10
1.99987e-05
-8.54201e-10
1.99986e-05
-9.17264e-10
1.99985e-05
-9.84536e-10
1.99985e-05
-1.05617e-09
1.99984e-05
-1.13228e-09
1.99983e-05
-1.21296e-09
1.99983e-05
-1.29825e-09
1.99982e-05
-1.3881e-09
1.99981e-05
-1.4824e-09
1.9998e-05
-1.5809e-09
1.9998e-05
-1.68322e-09
1.99979e-05
-1.78878e-09
1.99978e-05
-1.89675e-09
1.99977e-05
-2.00599e-09
1.99977e-05
-2.11498e-09
1.99976e-05
-2.2217e-09
1.99975e-05
-2.3235e-09
1.99975e-05
-2.41693e-09
1.99974e-05
-2.49753e-09
1.99973e-05
-2.55965e-09
-2.59658e-09
2e-05
-3.39616e-13
2e-05
-1.10382e-12
2e-05
-1.91948e-12
2e-05
-2.76469e-12
2e-05
-3.63532e-12
2e-05
-4.52945e-12
2e-05
-5.44532e-12
2e-05
-6.38169e-12
2e-05
-7.33784e-12
2e-05
-8.31353e-12
2e-05
-9.30888e-12
2e-05
-1.03243e-11
2e-05
-1.13605e-11
2e-05
-1.24183e-11
2e-05
-1.34987e-11
2e-05
-1.46029e-11
2e-05
-1.5732e-11
2e-05
-1.68874e-11
2e-05
-1.80707e-11
2e-05
-1.92835e-11
2e-05
-2.05277e-11
2e-05
-2.18053e-11
2e-05
-2.31185e-11
2e-05
-2.44698e-11
2e-05
-2.58622e-11
2e-05
-2.72987e-11
2e-05
-2.87829e-11
2e-05
-3.03187e-11
2e-05
-3.19106e-11
1.99999e-05
-3.35635e-11
1.99999e-05
-3.5283e-11
1.99999e-05
-3.70752e-11
1.99999e-05
-3.8947e-11
1.99999e-05
-4.09061e-11
1.99999e-05
-4.2961e-11
1.99999e-05
-4.51213e-11
1.99999e-05
-4.73973e-11
1.99999e-05
-4.98006e-11
1.99999e-05
-5.23442e-11
1.99999e-05
-5.50421e-11
1.99999e-05
-5.79098e-11
1.99999e-05
-6.09645e-11
1.99999e-05
-6.4225e-11
1.99998e-05
-6.77117e-11
1.99998e-05
-7.14474e-11
1.99998e-05
-7.54566e-11
1.99998e-05
-7.97662e-11
1.99998e-05
-8.44055e-11
1.99998e-05
-8.94065e-11
1.99998e-05
-9.48039e-11
1.99997e-05
-1.00635e-10
1.99997e-05
-1.06942e-10
1.99997e-05
-1.13768e-10
1.99997e-05
-1.21162e-10
1.99997e-05
-1.29174e-10
1.99997e-05
-1.37863e-10
1.99996e-05
-1.47287e-10
1.99996e-05
-1.57512e-10
1.99996e-05
-1.68608e-10
1.99996e-05
-1.80651e-10
1.99995e-05
-1.93722e-10
1.99995e-05
-2.07907e-10
1.99995e-05
-2.233e-10
1.99994e-05
-2.4e-10
1.99994e-05
-2.58113e-10
1.99994e-05
-2.77753e-10
1.99993e-05
-2.9904e-10
1.99993e-05
-3.22105e-10
1.99993e-05
-3.47081e-10
1.99992e-05
-3.74115e-10
1.99992e-05
-4.03359e-10
1.99991e-05
-4.34973e-10
1.99991e-05
-4.69126e-10
1.9999e-05
-5.05995e-10
1.9999e-05
-5.45763e-10
1.99989e-05
-5.88619e-10
1.99989e-05
-6.3476e-10
1.99988e-05
-6.84384e-10
1.99988e-05
-7.37691e-10
1.99987e-05
-7.94878e-10
1.99986e-05
-8.56139e-10
1.99986e-05
-9.21655e-10
1.99985e-05
-9.9159e-10
1.99985e-05
-1.06608e-09
1.99984e-05
-1.14524e-09
1.99983e-05
-1.2291e-09
1.99982e-05
-1.31766e-09
1.99982e-05
-1.4108e-09
1.99981e-05
-1.50831e-09
1.9998e-05
-1.60981e-09
1.9998e-05
-1.71472e-09
1.99979e-05
-1.82223e-09
1.99978e-05
-1.9312e-09
1.99977e-05
-2.04009e-09
1.99977e-05
-2.14686e-09
1.99976e-05
-2.24883e-09
1.99975e-05
-2.34251e-09
1.99974e-05
-2.42341e-09
1.99974e-05
-2.48586e-09
-2.52303e-09
2e-05
-3.00707e-13
2e-05
-9.82172e-13
2e-05
-1.71236e-12
2e-05
-2.47084e-12
2e-05
-3.25394e-12
2e-05
-4.0597e-12
2e-05
-4.88606e-12
2e-05
-5.73128e-12
2e-05
-6.59404e-12
2e-05
-7.47344e-12
2e-05
-8.36891e-12
2e-05
-9.28024e-12
2e-05
-1.02074e-11
2e-05
-1.11507e-11
2e-05
-1.21104e-11
2e-05
-1.30871e-11
2e-05
-1.40815e-11
2e-05
-1.50943e-11
2e-05
-1.61265e-11
2e-05
-1.71792e-11
2e-05
-1.82536e-11
2e-05
-1.93512e-11
2e-05
-2.04737e-11
2e-05
-2.16228e-11
2e-05
-2.28009e-11
2e-05
-2.40103e-11
2e-05
-2.52541e-11
2e-05
-2.65353e-11
2e-05
-2.78577e-11
1.99999e-05
-2.92255e-11
1.99999e-05
-3.06435e-11
1.99999e-05
-3.2117e-11
1.99999e-05
-3.36521e-11
1.99999e-05
-3.52556e-11
1.99999e-05
-3.69351e-11
1.99999e-05
-3.86992e-11
1.99999e-05
-4.05573e-11
1.99999e-05
-4.25203e-11
1.99999e-05
-4.45997e-11
1.99999e-05
-4.68089e-11
1.99999e-05
-4.91622e-11
1.99999e-05
-5.16756e-11
1.99999e-05
-5.4367e-11
1.99998e-05
-5.72557e-11
1.99998e-05
-6.03631e-11
1.99998e-05
-6.37128e-11
1.99998e-05
-6.73305e-11
1.99998e-05
-7.12444e-11
1.99998e-05
-7.54852e-11
1.99998e-05
-8.00865e-11
1.99998e-05
-8.50849e-11
1.99997e-05
-9.05203e-11
1.99997e-05
-9.64358e-11
1.99997e-05
-1.02878e-10
1.99997e-05
-1.09899e-10
1.99997e-05
-1.17553e-10
1.99996e-05
-1.25899e-10
1.99996e-05
-1.35003e-10
1.99996e-05
-1.44932e-10
1.99996e-05
-1.55763e-10
1.99995e-05
-1.67576e-10
1.99995e-05
-1.80457e-10
1.99995e-05
-1.94499e-10
1.99995e-05
-2.09802e-10
1.99994e-05
-2.26472e-10
1.99994e-05
-2.44623e-10
1.99994e-05
-2.64377e-10
1.99993e-05
-2.85864e-10
1.99993e-05
-3.09221e-10
1.99992e-05
-3.34595e-10
1.99992e-05
-3.62141e-10
1.99992e-05
-3.92022e-10
1.99991e-05
-4.24411e-10
1.99991e-05
-4.59488e-10
1.9999e-05
-4.9744e-10
1.9999e-05
-5.38465e-10
1.99989e-05
-5.82762e-10
1.99989e-05
-6.30538e-10
1.99988e-05
-6.82e-10
1.99988e-05
-7.37355e-10
1.99987e-05
-7.96807e-10
1.99986e-05
-8.60547e-10
1.99986e-05
-9.28752e-10
1.99985e-05
-1.00157e-09
1.99984e-05
-1.07912e-09
1.99984e-05
-1.16147e-09
1.99983e-05
-1.24861e-09
1.99982e-05
-1.34045e-09
1.99982e-05
-1.43678e-09
1.99981e-05
-1.53724e-09
1.9998e-05
-1.64125e-09
1.99979e-05
-1.74801e-09
1.99979e-05
-1.85638e-09
1.99978e-05
-1.96482e-09
1.99977e-05
-2.07126e-09
1.99976e-05
-2.17301e-09
1.99976e-05
-2.26657e-09
1.99975e-05
-2.34743e-09
1.99974e-05
-2.40992e-09
-2.44712e-09
2e-05
-2.64463e-13
2e-05
-8.68559e-13
2e-05
-1.51828e-12
2e-05
-2.19447e-12
2e-05
-2.89385e-12
2e-05
-3.61449e-12
2e-05
-4.35417e-12
2e-05
-5.11081e-12
2e-05
-5.88264e-12
2e-05
-6.6682e-12
2e-05
-7.46639e-12
2e-05
-8.27638e-12
2e-05
-9.09759e-12
2e-05
-9.92966e-12
2e-05
-1.07724e-11
2e-05
-1.16258e-11
2e-05
-1.24899e-11
2e-05
-1.33651e-11
2e-05
-1.42516e-11
2e-05
-1.51501e-11
2e-05
-1.60611e-11
2e-05
-1.69856e-11
2e-05
-1.79247e-11
2e-05
-1.88796e-11
2e-05
-1.98519e-11
2e-05
-2.08435e-11
2e-05
-2.18566e-11
2e-05
-2.28936e-11
2e-05
-2.39578e-11
2e-05
-2.50524e-11
1.99999e-05
-2.61815e-11
1.99999e-05
-2.73498e-11
1.99999e-05
-2.85624e-11
1.99999e-05
-2.98254e-11
1.99999e-05
-3.11455e-11
1.99999e-05
-3.25304e-11
1.99999e-05
-3.39888e-11
1.99999e-05
-3.55302e-11
1.99999e-05
-3.71656e-11
1.99999e-05
-3.89071e-11
1.99999e-05
-4.07682e-11
1.99999e-05
-4.27638e-11
1.99999e-05
-4.49107e-11
1.99999e-05
-4.72271e-11
1.99998e-05
-4.97335e-11
1.99998e-05
-5.24522e-11
1.99998e-05
-5.54078e-11
1.99998e-05
-5.86274e-11
1.99998e-05
-6.21406e-11
1.99998e-05
-6.59798e-11
1.99998e-05
-7.01806e-11
1.99997e-05
-7.47816e-11
1.99997e-05
-7.9825e-11
1.99997e-05
-8.53567e-11
1.99997e-05
-9.14264e-11
1.99997e-05
-9.80884e-11
1.99997e-05
-1.05401e-10
1.99996e-05
-1.13428e-10
1.99996e-05
-1.22239e-10
1.99996e-05
-1.31906e-10
1.99996e-05
-1.4251e-10
1.99995e-05
-1.54137e-10
1.99995e-05
-1.6688e-10
1.99995e-05
-1.80838e-10
1.99994e-05
-1.96118e-10
1.99994e-05
-2.12834e-10
1.99994e-05
-2.31108e-10
1.99993e-05
-2.51071e-10
1.99993e-05
-2.72862e-10
1.99993e-05
-2.96628e-10
1.99992e-05
-3.22527e-10
1.99992e-05
-3.50725e-10
1.99992e-05
-3.81396e-10
1.99991e-05
-4.14724e-10
1.99991e-05
-4.50902e-10
1.9999e-05
-4.90128e-10
1.9999e-05
-5.32611e-10
1.99989e-05
-5.78561e-10
1.99989e-05
-6.28193e-10
1.99988e-05
-6.81722e-10
1.99987e-05
-7.39358e-10
1.99987e-05
-8.01303e-10
1.99986e-05
-8.67742e-10
1.99986e-05
-9.38838e-10
1.99985e-05
-1.01472e-09
1.99984e-05
-1.09545e-09
1.99984e-05
-1.18106e-09
1.99983e-05
-1.27145e-09
1.99982e-05
-1.36643e-09
1.99982e-05
-1.46563e-09
1.99981e-05
-1.56851e-09
1.9998e-05
-1.67426e-09
1.99979e-05
-1.78173e-09
1.99979e-05
-1.88938e-09
1.99978e-05
-1.99516e-09
1.99977e-05
-2.09635e-09
1.99976e-05
-2.18946e-09
1.99975e-05
-2.27e-09
1.99975e-05
-2.33228e-09
-2.36935e-09
2e-05
-2.30634e-13
2e-05
-7.62339e-13
2e-05
-1.33638e-12
2e-05
-1.93469e-12
2e-05
-2.5543e-12
2e-05
-3.19338e-12
2e-05
-3.84962e-12
2e-05
-4.52069e-12
2e-05
-5.20448e-12
2e-05
-5.89911e-12
2e-05
-6.603e-12
2e-05
-7.3148e-12
2e-05
-8.03344e-12
2e-05
-8.75801e-12
2e-05
-9.48781e-12
2e-05
-1.02223e-11
2e-05
-1.0961e-11
2e-05
-1.17037e-11
2e-05
-1.24502e-11
2e-05
-1.32006e-11
2e-05
-1.3955e-11
2e-05
-1.47136e-11
2e-05
-1.54771e-11
2e-05
-1.62461e-11
2e-05
-1.70216e-11
2e-05
-1.7805e-11
2e-05
-1.85976e-11
2e-05
-1.94015e-11
2e-05
-2.0219e-11
2e-05
-2.10529e-11
1.99999e-05
-2.19065e-11
1.99999e-05
-2.27836e-11
1.99999e-05
-2.36887e-11
1.99999e-05
-2.4627e-11
1.99999e-05
-2.56045e-11
1.99999e-05
-2.6628e-11
1.99999e-05
-2.77052e-11
1.99999e-05
-2.88451e-11
1.99999e-05
-3.00573e-11
1.99999e-05
-3.13533e-11
1.99999e-05
-3.27454e-11
1.99999e-05
-3.42477e-11
1.99999e-05
-3.58757e-11
1.99999e-05
-3.7647e-11
1.99998e-05
-3.95806e-11
1.99998e-05
-4.1698e-11
1.99998e-05
-4.40226e-11
1.99998e-05
-4.65804e-11
1.99998e-05
-4.94e-11
1.99998e-05
-5.25127e-11
1.99998e-05
-5.59528e-11
1.99998e-05
-5.9758e-11
1.99997e-05
-6.39692e-11
1.99997e-05
-6.86314e-11
1.99997e-05
-7.37933e-11
1.99997e-05
-7.95081e-11
1.99997e-05
-8.58334e-11
1.99997e-05
-9.28317e-11
1.99996e-05
-1.00571e-10
1.99996e-05
-1.09124e-10
1.99996e-05
-1.18571e-10
1.99996e-05
-1.28997e-10
1.99995e-05
-1.40494e-10
1.99995e-05
-1.53162e-10
1.99995e-05
-1.67106e-10
1.99994e-05
-1.82442e-10
1.99994e-05
-1.99292e-10
1.99994e-05
-2.17786e-10
1.99993e-05
-2.38065e-10
1.99993e-05
-2.60278e-10
1.99993e-05
-2.84583e-10
1.99992e-05
-3.11148e-10
1.99992e-05
-3.40149e-10
1.99991e-05
-3.71774e-10
1.99991e-05