/*--------------------------------*- C++ -*----------------------------------*\
  =========                 |
  \\      /  F ield         | OpenFOAM: The Open Source CFD Toolbox
   \\    /   O peration     | Website:  https://openfoam.org
    \\  /    A nd           | Version:  11
     \\/     M anipulation  |
\*---------------------------------------------------------------------------*/
FoamFile
{
    format      ascii;
    class       volVectorField;
    location    "1082";
    object      U;
}
// * * * * * * * * * * * * * * * * * * * * * * * * * * * * * * * * * * * * * //

dimensions      [0 1 -1 0 0 0 0];

internalField   nonuniform List<vector> 
10000
(
(0.005 -2.77805e-10 0)
(0.005 -7.64813e-10 0)
(0.005 -1.2229e-09 0)
(0.005 -1.66742e-09 0)
(0.005 -2.10789e-09 0)
(0.005 -2.55093e-09 0)
(0.005 -3.00117e-09 0)
(0.005 -3.46207e-09 0)
(0.005 -3.93639e-09 0)
(0.005 -4.42646e-09 0)
(0.005 -4.93432e-09 0)
(0.005 -5.46185e-09 0)
(0.005 -6.01083e-09 0)
(0.005 -6.58298e-09 0)
(0.005 -7.18e-09 0)
(0.005 -7.80362e-09 0)
(0.005 -8.45557e-09 0)
(0.005 -9.13762e-09 0)
(0.00499999 -9.85164e-09 0)
(0.00499999 -1.05995e-08 0)
(0.00499999 -1.13833e-08 0)
(0.00499999 -1.22051e-08 0)
(0.00499999 -1.3067e-08 0)
(0.00499999 -1.39716e-08 0)
(0.00499999 -1.49212e-08 0)
(0.00499999 -1.59185e-08 0)
(0.00499999 -1.69662e-08 0)
(0.00499999 -1.80675e-08 0)
(0.00499999 -1.92253e-08 0)
(0.00499998 -2.04432e-08 0)
(0.00499998 -2.17248e-08 0)
(0.00499998 -2.30737e-08 0)
(0.00499998 -2.44943e-08 0)
(0.00499998 -2.59907e-08 0)
(0.00499998 -2.75678e-08 0)
(0.00499998 -2.92303e-08 0)
(0.00499997 -3.09837e-08 0)
(0.00499997 -3.28336e-08 0)
(0.00499997 -3.4786e-08 0)
(0.00499997 -3.68474e-08 0)
(0.00499996 -3.90244e-08 0)
(0.00499996 -4.13245e-08 0)
(0.00499996 -4.37554e-08 0)
(0.00499995 -4.63252e-08 0)
(0.00499995 -4.90428e-08 0)
(0.00499995 -5.19173e-08 0)
(0.00499994 -5.49588e-08 0)
(0.00499994 -5.81776e-08 0)
(0.00499994 -6.15849e-08 0)
(0.00499993 -6.51925e-08 0)
(0.00499993 -6.90126e-08 0)
(0.00499992 -7.30587e-08 0)
(0.00499992 -7.73444e-08 0)
(0.00499991 -8.18846e-08 0)
(0.00499991 -8.66946e-08 0)
(0.0049999 -9.17909e-08 0)
(0.00499989 -9.71906e-08 0)
(0.00499989 -1.02912e-07 0)
(0.00499988 -1.08973e-07 0)
(0.00499987 -1.15395e-07 0)
(0.00499986 -1.22197e-07 0)
(0.00499985 -1.29402e-07 0)
(0.00499985 -1.37032e-07 0)
(0.00499984 -1.4511e-07 0)
(0.00499983 -1.53662e-07 0)
(0.00499982 -1.62711e-07 0)
(0.00499981 -1.72284e-07 0)
(0.0049998 -1.82408e-07 0)
(0.00499978 -1.9311e-07 0)
(0.00499977 -2.04417e-07 0)
(0.00499976 -2.16357e-07 0)
(0.00499975 -2.28959e-07 0)
(0.00499973 -2.4225e-07 0)
(0.00499972 -2.56257e-07 0)
(0.0049997 -2.71008e-07 0)
(0.00499969 -2.86526e-07 0)
(0.00499967 -3.02834e-07 0)
(0.00499966 -3.19953e-07 0)
(0.00499964 -3.37899e-07 0)
(0.00499962 -3.56682e-07 0)
(0.00499961 -3.76307e-07 0)
(0.00499959 -3.96771e-07 0)
(0.00499957 -4.1806e-07 0)
(0.00499955 -4.40148e-07 0)
(0.00499953 -4.62992e-07 0)
(0.00499951 -4.86531e-07 0)
(0.00499949 -5.1068e-07 0)
(0.00499948 -5.35325e-07 0)
(0.00499946 -5.60317e-07 0)
(0.00499944 -5.85467e-07 0)
(0.00499942 -6.10534e-07 0)
(0.0049994 -6.35222e-07 0)
(0.00499938 -6.59168e-07 0)
(0.00499936 -6.81931e-07 0)
(0.00499935 -7.02993e-07 0)
(0.00499933 -7.21751e-07 0)
(0.00499932 -7.37525e-07 0)
(0.00499931 -7.49585e-07 0)
(0.0049993 -7.5738e-07 0)
(0.00499929 -7.61261e-07 0)
(0.005 -2.34387e-10 0)
(0.005 -6.83033e-10 0)
(0.005 -1.11609e-09 0)
(0.005 -1.53767e-09 0)
(0.005 -1.95552e-09 0)
(0.005 -2.37538e-09 0)
(0.005 -2.8014e-09 0)
(0.005 -3.23675e-09 0)
(0.005 -3.68398e-09 0)
(0.005 -4.14523e-09 0)
(0.005 -4.62241e-09 0)
(0.005 -5.11723e-09 0)
(0.005 -5.63134e-09 0)
(0.005 -6.1663e-09 0)
(0.005 -6.72366e-09 0)
(0.005 -7.30499e-09 0)
(0.005 -7.91187e-09 0)
(0.005 -8.54589e-09 0)
(0.005 -9.20875e-09 0)
(0.00499999 -9.90218e-09 0)
(0.00499999 -1.0628e-08 0)
(0.00499999 -1.13881e-08 0)
(0.00499999 -1.21845e-08 0)
(0.00499999 -1.30194e-08 0)
(0.00499999 -1.3895e-08 0)
(0.00499999 -1.48138e-08 0)
(0.00499999 -1.57782e-08 0)
(0.00499999 -1.67911e-08 0)
(0.00499999 -1.78553e-08 0)
(0.00499999 -1.89739e-08 0)
(0.00499998 -2.01504e-08 0)
(0.00499998 -2.13881e-08 0)
(0.00499998 -2.2691e-08 0)
(0.00499998 -2.40631e-08 0)
(0.00499998 -2.55087e-08 0)
(0.00499998 -2.70325e-08 0)
(0.00499997 -2.86395e-08 0)
(0.00499997 -3.03348e-08 0)
(0.00499997 -3.21243e-08 0)
(0.00499997 -3.4014e-08 0)
(0.00499996 -3.60103e-08 0)
(0.00499996 -3.81201e-08 0)
(0.00499996 -4.03508e-08 0)
(0.00499995 -4.27103e-08 0)
(0.00499995 -4.52068e-08 0)
(0.00499995 -4.78494e-08 0)
(0.00499994 -5.06474e-08 0)
(0.00499994 -5.36111e-08 0)
(0.00499994 -5.6751e-08 0)
(0.00499993 -6.00786e-08 0)
(0.00499993 -6.36059e-08 0)
(0.00499992 -6.73458e-08 0)
(0.00499992 -7.13118e-08 0)
(0.00499991 -7.55183e-08 0)
(0.00499991 -7.99805e-08 0)
(0.0049999 -8.47145e-08 0)
(0.00499989 -8.9737e-08 0)
(0.00499989 -9.5066e-08 0)
(0.00499988 -1.0072e-07 0)
(0.00499987 -1.0672e-07 0)
(0.00499986 -1.13085e-07 0)
(0.00499986 -1.19837e-07 0)
(0.00499985 -1.26999e-07 0)
(0.00499984 -1.34596e-07 0)
(0.00499983 -1.4265e-07 0)
(0.00499982 -1.51189e-07 0)
(0.00499981 -1.60238e-07 0)
(0.0049998 -1.69826e-07 0)
(0.00499978 -1.79979e-07 0)
(0.00499977 -1.90728e-07 0)
(0.00499976 -2.02101e-07 0)
(0.00499975 -2.14129e-07 0)
(0.00499973 -2.2684e-07 0)
(0.00499972 -2.40265e-07 0)
(0.00499971 -2.54433e-07 0)
(0.00499969 -2.69372e-07 0)
(0.00499968 -2.85109e-07 0)
(0.00499966 -3.01666e-07 0)
(0.00499964 -3.19067e-07 0)
(0.00499963 -3.37326e-07 0)
(0.00499961 -3.56455e-07 0)
(0.00499959 -3.76458e-07 0)
(0.00499957 -3.97329e-07 0)
(0.00499955 -4.19051e-07 0)
(0.00499954 -4.41592e-07 0)
(0.00499952 -4.64902e-07 0)
(0.0049995 -4.8891e-07 0)
(0.00499948 -5.13517e-07 0)
(0.00499946 -5.38589e-07 0)
(0.00499944 -5.63956e-07 0)
(0.00499942 -5.894e-07 0)
(0.0049994 -6.14646e-07 0)
(0.00499938 -6.39356e-07 0)
(0.00499937 -6.63122e-07 0)
(0.00499935 -6.85455e-07 0)
(0.00499933 -7.05787e-07 0)
(0.00499932 -7.23475e-07 0)
(0.00499931 -7.37818e-07 0)
(0.0049993 -7.48201e-07 0)
(0.00499929 -7.5459e-07 0)
(0.005 -1.99589e-10 0)
(0.005 -6.06946e-10 0)
(0.005 -1.01102e-09 0)
(0.005 -1.40841e-09 0)
(0.005 -1.80334e-09 0)
(0.005 -2.20017e-09 0)
(0.005 -2.60234e-09 0)
(0.005 -3.01265e-09 0)
(0.005 -3.43338e-09 0)
(0.005 -3.86649e-09 0)
(0.005 -4.31371e-09 0)
(0.005 -4.77663e-09 0)
(0.005 -5.25673e-09 0)
(0.005 -5.75545e-09 0)
(0.005 -6.27418e-09 0)
(0.005 -6.81434e-09 0)
(0.005 -7.37735e-09 0)
(0.005 -7.96466e-09 0)
(0.005 -8.57778e-09 0)
(0.00499999 -9.21827e-09 0)
(0.00499999 -9.88778e-09 0)
(0.00499999 -1.0588e-08 0)
(0.00499999 -1.13208e-08 0)
(0.00499999 -1.20881e-08 0)
(0.00499999 -1.2892e-08 0)
(0.00499999 -1.37345e-08 0)
(0.00499999 -1.46182e-08 0)
(0.00499999 -1.55454e-08 0)
(0.00499999 -1.65188e-08 0)
(0.00499999 -1.75414e-08 0)
(0.00499998 -1.8616e-08 0)
(0.00499998 -1.97461e-08 0)
(0.00499998 -2.09352e-08 0)
(0.00499998 -2.21869e-08 0)
(0.00499998 -2.35054e-08 0)
(0.00499998 -2.4895e-08 0)
(0.00499997 -2.63603e-08 0)
(0.00499997 -2.79063e-08 0)
(0.00499997 -2.95384e-08 0)
(0.00499997 -3.12621e-08 0)
(0.00499996 -3.30838e-08 0)
(0.00499996 -3.50098e-08 0)
(0.00499996 -3.70473e-08 0)
(0.00499996 -3.92036e-08 0)
(0.00499995 -4.14868e-08 0)
(0.00499995 -4.39054e-08 0)
(0.00499994 -4.64686e-08 0)
(0.00499994 -4.9186e-08 0)
(0.00499994 -5.20679e-08 0)
(0.00499993 -5.51255e-08 0)
(0.00499993 -5.83704e-08 0)
(0.00499992 -6.18152e-08 0)
(0.00499992 -6.5473e-08 0)
(0.00499991 -6.93579e-08 0)
(0.00499991 -7.34848e-08 0)
(0.0049999 -7.78695e-08 0)
(0.00499989 -8.25287e-08 0)
(0.00499989 -8.74801e-08 0)
(0.00499988 -9.27423e-08 0)
(0.00499987 -9.83349e-08 0)
(0.00499986 -1.04279e-07 0)
(0.00499986 -1.10595e-07 0)
(0.00499985 -1.17308e-07 0)
(0.00499984 -1.2444e-07 0)
(0.00499983 -1.32016e-07 0)
(0.00499982 -1.40064e-07 0)
(0.00499981 -1.48609e-07 0)
(0.0049998 -1.5768e-07 0)
(0.00499979 -1.67306e-07 0)
(0.00499978 -1.77518e-07 0)
(0.00499976 -1.88346e-07 0)
(0.00499975 -1.9982e-07 0)
(0.00499974 -2.11974e-07 0)
(0.00499972 -2.24839e-07 0)
(0.00499971 -2.38447e-07 0)
(0.00499969 -2.52828e-07 0)
(0.00499968 -2.68014e-07 0)
(0.00499966 -2.84031e-07 0)
(0.00499965 -3.00906e-07 0)
(0.00499963 -3.1866e-07 0)
(0.00499961 -3.3731e-07 0)
(0.00499959 -3.56868e-07 0)
(0.00499958 -3.77334e-07 0)
(0.00499956 -3.987e-07 0)
(0.00499954 -4.20946e-07 0)
(0.00499952 -4.44031e-07 0)
(0.0049995 -4.67896e-07 0)
(0.00499948 -4.92455e-07 0)
(0.00499946 -5.17593e-07 0)
(0.00499944 -5.43155e-07 0)
(0.00499942 -5.6894e-07 0)
(0.00499941 -5.94696e-07 0)
(0.00499939 -6.20106e-07 0)
(0.00499937 -6.44783e-07 0)
(0.00499935 -6.6826e-07 0)
(0.00499934 -6.89983e-07 0)
(0.00499932 -7.09303e-07 0)
(0.00499931 -7.25463e-07 0)
(0.0049993 -7.37658e-07 0)
(0.00499929 -7.45582e-07 0)
(0.005 -1.75596e-10 0)
(0.005 -5.45983e-10 0)
(0.005 -9.21021e-10 0)
(0.005 -1.29398e-09 0)
(0.005 -1.66655e-09 0)
(0.005 -2.04155e-09 0)
(0.005 -2.42158e-09 0)
(0.005 -2.80889e-09 0)
(0.005 -3.20545e-09 0)
(0.005 -3.61298e-09 0)
(0.005 -4.03303e-09 0)
(0.005 -4.46704e-09 0)
(0.005 -4.91634e-09 0)
(0.005 -5.38224e-09 0)
(0.005 -5.866e-09 0)
(0.005 -6.36888e-09 0)
(0.005 -6.89218e-09 0)
(0.005 -7.43719e-09 0)
(0.005 -8.00528e-09 0)
(0.00499999 -8.59784e-09 0)
(0.00499999 -9.21637e-09 0)
(0.00499999 -9.8624e-09 0)
(0.00499999 -1.05376e-08 0)
(0.00499999 -1.12437e-08 0)
(0.00499999 -1.19825e-08 0)
(0.00499999 -1.27562e-08 0)
(0.00499999 -1.35667e-08 0)
(0.00499999 -1.44163e-08 0)
(0.00499999 -1.53076e-08 0)
(0.00499999 -1.62431e-08 0)
(0.00499998 -1.72256e-08 0)
(0.00499998 -1.82582e-08 0)
(0.00499998 -1.93442e-08 0)
(0.00499998 -2.0487e-08 0)
(0.00499998 -2.16904e-08 0)
(0.00499998 -2.29585e-08 0)
(0.00499997 -2.42955e-08 0)
(0.00499997 -2.57063e-08 0)
(0.00499997 -2.71958e-08 0)
(0.00499997 -2.87694e-08 0)
(0.00499996 -3.04329e-08 0)
(0.00499996 -3.21926e-08 0)
(0.00499996 -3.40551e-08 0)
(0.00499996 -3.60275e-08 0)
(0.00499995 -3.81176e-08 0)
(0.00499995 -4.03334e-08 0)
(0.00499995 -4.26839e-08 0)
(0.00499994 -4.51784e-08 0)
(0.00499994 -4.78268e-08 0)
(0.00499993 -5.06399e-08 0)
(0.00499993 -5.36292e-08 0)
(0.00499992 -5.68066e-08 0)
(0.00499992 -6.01853e-08 0)
(0.00499991 -6.3779e-08 0)
(0.00499991 -6.76023e-08 0)
(0.0049999 -7.16708e-08 0)
(0.0049999 -7.6001e-08 0)
(0.00499989 -8.06103e-08 0)
(0.00499988 -8.55173e-08 0)
(0.00499987 -9.07416e-08 0)
(0.00499987 -9.63037e-08 0)
(0.00499986 -1.02226e-07 0)
(0.00499985 -1.0853e-07 0)
(0.00499984 -1.15241e-07 0)
(0.00499983 -1.22385e-07 0)
(0.00499982 -1.29987e-07 0)
(0.00499981 -1.38075e-07 0)
(0.0049998 -1.46678e-07 0)
(0.00499979 -1.55826e-07 0)
(0.00499978 -1.6555e-07 0)
(0.00499977 -1.75882e-07 0)
(0.00499975 -1.86855e-07 0)
(0.00499974 -1.98503e-07 0)
(0.00499973 -2.10858e-07 0)
(0.00499971 -2.23956e-07 0)
(0.0049997 -2.3783e-07 0)
(0.00499968 -2.52513e-07 0)
(0.00499967 -2.68037e-07 0)
(0.00499965 -2.84432e-07 0)
(0.00499963 -3.01723e-07 0)
(0.00499962 -3.19934e-07 0)
(0.0049996 -3.3908e-07 0)
(0.00499958 -3.59171e-07 0)
(0.00499956 -3.80206e-07 0)
(0.00499954 -4.02171e-07 0)
(0.00499953 -4.25036e-07 0)
(0.00499951 -4.48754e-07 0)
(0.00499949 -4.7325e-07 0)
(0.00499947 -4.98421e-07 0)
(0.00499945 -5.24125e-07 0)
(0.00499943 -5.50179e-07 0)
(0.00499941 -5.76343e-07 0)
(0.00499939 -6.02317e-07 0)
(0.00499938 -6.27727e-07 0)
(0.00499936 -6.5211e-07 0)
(0.00499934 -6.74908e-07 0)
(0.00499933 -6.9544e-07 0)
(0.00499931 -7.12869e-07 0)
(0.0049993 -7.26214e-07 0)
(0.00499929 -7.34245e-07 0)
(0.005 -1.56492e-10 0)
(0.005 -4.92896e-10 0)
(0.005 -8.38574e-10 0)
(0.005 -1.1859e-09 0)
(0.005 -1.535e-09 0)
(0.005 -1.88742e-09 0)
(0.005 -2.24489e-09 0)
(0.005 -2.60907e-09 0)
(0.005 -2.98153e-09 0)
(0.005 -3.36371e-09 0)
(0.005 -3.75694e-09 0)
(0.005 -4.16246e-09 0)
(0.005 -4.58148e-09 0)
(0.005 -5.01512e-09 0)
(0.005 -5.46453e-09 0)
(0.005 -5.93083e-09 0)
(0.005 -6.41514e-09 0)
(0.005 -6.91865e-09 0)
(0.005 -7.44255e-09 0)
(0.00499999 -7.98809e-09 0)
(0.00499999 -8.55659e-09 0)
(0.00499999 -9.14944e-09 0)
(0.00499999 -9.76811e-09 0)
(0.00499999 -1.04142e-08 0)
(0.00499999 -1.10893e-08 0)
(0.00499999 -1.17952e-08 0)
(0.00499999 -1.2534e-08 0)
(0.00499999 -1.33076e-08 0)
(0.00499999 -1.41182e-08 0)
(0.00499999 -1.49683e-08 0)
(0.00499998 -1.58605e-08 0)
(0.00499998 -1.67975e-08 0)
(0.00499998 -1.77824e-08 0)
(0.00499998 -1.88183e-08 0)
(0.00499998 -1.99088e-08 0)
(0.00499998 -2.10577e-08 0)
(0.00499997 -2.22691e-08 0)
(0.00499997 -2.35472e-08 0)
(0.00499997 -2.48969e-08 0)
(0.00499997 -2.63232e-08 0)
(0.00499997 -2.78317e-08 0)
(0.00499996 -2.94282e-08 0)
(0.00499996 -3.1119e-08 0)
(0.00499996 -3.29111e-08 0)
(0.00499995 -3.48118e-08 0)
(0.00499995 -3.68288e-08 0)
(0.00499995 -3.89707e-08 0)
(0.00499994 -4.12465e-08 0)
(0.00499994 -4.36658e-08 0)
(0.00499993 -4.62392e-08 0)
(0.00499993 -4.89776e-08 0)
(0.00499992 -5.18929e-08 0)
(0.00499992 -5.49978e-08 0)
(0.00499991 -5.83058e-08 0)
(0.00499991 -6.18312e-08 0)
(0.0049999 -6.55894e-08 0)
(0.0049999 -6.95967e-08 0)
(0.00499989 -7.38704e-08 0)
(0.00499988 -7.84288e-08 0)
(0.00499988 -8.32915e-08 0)
(0.00499987 -8.84791e-08 0)
(0.00499986 -9.40134e-08 0)
(0.00499985 -9.99174e-08 0)
(0.00499984 -1.06215e-07 0)
(0.00499983 -1.12933e-07 0)
(0.00499982 -1.20097e-07 0)
(0.00499981 -1.27736e-07 0)
(0.0049998 -1.35879e-07 0)
(0.00499979 -1.44557e-07 0)
(0.00499978 -1.53801e-07 0)
(0.00499977 -1.63646e-07 0)
(0.00499976 -1.74125e-07 0)
(0.00499974 -1.85273e-07 0)
(0.00499973 -1.97127e-07 0)
(0.00499972 -2.09721e-07 0)
(0.0049997 -2.23094e-07 0)
(0.00499969 -2.3728e-07 0)
(0.00499967 -2.52315e-07 0)
(0.00499966 -2.68233e-07 0)
(0.00499964 -2.85064e-07 0)
(0.00499962 -3.02835e-07 0)
(0.00499961 -3.21569e-07 0)
(0.00499959 -3.41281e-07 0)
(0.00499957 -3.61976e-07 0)
(0.00499955 -3.83651e-07 0)
(0.00499953 -4.06283e-07 0)
(0.00499951 -4.29834e-07 0)
(0.00499949 -4.5424e-07 0)
(0.00499948 -4.7941e-07 0)
(0.00499946 -5.05214e-07 0)
(0.00499944 -5.3148e-07 0)
(0.00499942 -5.57981e-07 0)
(0.0049994 -5.84427e-07 0)
(0.00499938 -6.10448e-07 0)
(0.00499937 -6.35581e-07 0)
(0.00499935 -6.59249e-07 0)
(0.00499933 -6.80729e-07 0)
(0.00499932 -6.99095e-07 0)
(0.0049993 -7.1319e-07 0)
(0.00499929 -7.21105e-07 0)
(0.005 -1.40066e-10 0)
(0.005 -4.45006e-10 0)
(0.005 -7.61895e-10 0)
(0.005 -1.0831e-09 0)
(0.005 -1.40788e-09 0)
(0.005 -1.73693e-09 0)
(0.005 -2.0712e-09 0)
(0.005 -2.41183e-09 0)
(0.005 -2.75994e-09 0)
(0.005 -3.11666e-09 0)
(0.005 -3.48309e-09 0)
(0.005 -3.86025e-09 0)
(0.005 -4.24917e-09 0)
(0.005 -4.65083e-09 0)
(0.005 -5.0662e-09 0)
(0.005 -5.49627e-09 0)
(0.005 -5.94203e-09 0)
(0.005 -6.40449e-09 0)
(0.005 -6.8847e-09 0)
(0.00499999 -7.38377e-09 0)
(0.00499999 -7.90284e-09 0)
(0.00499999 -8.44314e-09 0)
(0.00499999 -9.00598e-09 0)
(0.00499999 -9.59273e-09 0)
(0.00499999 -1.02049e-08 0)
(0.00499999 -1.0844e-08 0)
(0.00499999 -1.15119e-08 0)
(0.00499999 -1.22104e-08 0)
(0.00499999 -1.29415e-08 0)
(0.00499999 -1.37073e-08 0)
(0.00499998 -1.45103e-08 0)
(0.00499998 -1.53529e-08 0)
(0.00499998 -1.6238e-08 0)
(0.00499998 -1.71685e-08 0)
(0.00499998 -1.81476e-08 0)
(0.00499998 -1.91789e-08 0)
(0.00499997 -2.02662e-08 0)
(0.00499997 -2.14134e-08 0)
(0.00499997 -2.26252e-08 0)
(0.00499997 -2.39062e-08 0)
(0.00499997 -2.52617e-08 0)
(0.00499996 -2.66972e-08 0)
(0.00499996 -2.82188e-08 0)
(0.00499996 -2.98329e-08 0)
(0.00499995 -3.15467e-08 0)
(0.00499995 -3.33676e-08 0)
(0.00499995 -3.53037e-08 0)
(0.00499994 -3.73637e-08 0)
(0.00499994 -3.95571e-08 0)
(0.00499994 -4.18939e-08 0)
(0.00499993 -4.43849e-08 0)
(0.00499993 -4.70416e-08 0)
(0.00499992 -4.98763e-08 0)
(0.00499992 -5.29024e-08 0)
(0.00499991 -5.61339e-08 0)
(0.0049999 -5.95859e-08 0)
(0.0049999 -6.32746e-08 0)
(0.00499989 -6.7217e-08 0)
(0.00499989 -7.14313e-08 0)
(0.00499988 -7.59371e-08 0)
(0.00499987 -8.07548e-08 0)
(0.00499986 -8.59063e-08 0)
(0.00499986 -9.14148e-08 0)
(0.00499985 -9.73046e-08 0)
(0.00499984 -1.03602e-07 0)
(0.00499983 -1.10333e-07 0)
(0.00499982 -1.17528e-07 0)
(0.00499981 -1.25216e-07 0)
(0.0049998 -1.33428e-07 0)
(0.00499979 -1.42198e-07 0)
(0.00499977 -1.5156e-07 0)
(0.00499976 -1.61549e-07 0)
(0.00499975 -1.72203e-07 0)
(0.00499974 -1.83557e-07 0)
(0.00499972 -1.95652e-07 0)
(0.00499971 -2.08526e-07 0)
(0.00499969 -2.22217e-07 0)
(0.00499968 -2.36764e-07 0)
(0.00499966 -2.52205e-07 0)
(0.00499965 -2.68573e-07 0)
(0.00499963 -2.85902e-07 0)
(0.00499961 -3.04217e-07 0)
(0.0049996 -3.23542e-07 0)
(0.00499958 -3.43888e-07 0)
(0.00499956 -3.65257e-07 0)
(0.00499954 -3.87637e-07 0)
(0.00499952 -4.10996e-07 0)
(0.0049995 -4.35283e-07 0)
(0.00499948 -4.60413e-07 0)
(0.00499947 -4.86268e-07 0)
(0.00499945 -5.12685e-07 0)
(0.00499943 -5.39446e-07 0)
(0.00499941 -5.66267e-07 0)
(0.00499939 -5.92777e-07 0)
(0.00499937 -6.18507e-07 0)
(0.00499936 -6.42857e-07 0)
(0.00499934 -6.65058e-07 0)
(0.00499933 -6.84099e-07 0)
(0.00499931 -6.98649e-07 0)
(0.00499929 -7.06842e-07 0)
(0.005 -1.25626e-10 0)
(0.005 -4.01611e-10 0)
(0.005 -6.90892e-10 0)
(0.005 -9.86204e-10 0)
(0.005 -1.28644e-09 0)
(0.005 -1.59172e-09 0)
(0.005 -1.90245e-09 0)
(0.005 -2.21926e-09 0)
(0.005 -2.54292e-09 0)
(0.005 -2.87422e-09 0)
(0.005 -3.214e-09 0)
(0.005 -3.56307e-09 0)
(0.005 -3.92226e-09 0)
(0.005 -4.29239e-09 0)
(0.005 -4.67427e-09 0)
(0.005 -5.06873e-09 0)
(0.005 -5.47662e-09 0)
(0.005 -5.89879e-09 0)
(0.005 -6.33616e-09 0)
(0.00499999 -6.78966e-09 0)
(0.00499999 -7.26029e-09 0)
(0.00499999 -7.7491e-09 0)
(0.00499999 -8.25724e-09 0)
(0.00499999 -8.78591e-09 0)
(0.00499999 -9.33641e-09 0)
(0.00499999 -9.91016e-09 0)
(0.00499999 -1.05087e-08 0)
(0.00499999 -1.11336e-08 0)
(0.00499999 -1.17868e-08 0)
(0.00499999 -1.24702e-08 0)
(0.00499998 -1.31859e-08 0)
(0.00499998 -1.39362e-08 0)
(0.00499998 -1.47236e-08 0)
(0.00499998 -1.55509e-08 0)
(0.00499998 -1.64211e-08 0)
(0.00499998 -1.73374e-08 0)
(0.00499998 -1.83032e-08 0)
(0.00499997 -1.93225e-08 0)
(0.00499997 -2.03993e-08 0)
(0.00499997 -2.15383e-08 0)
(0.00499997 -2.27441e-08 0)
(0.00499996 -2.40222e-08 0)
(0.00499996 -2.53782e-08 0)
(0.00499996 -2.68184e-08 0)
(0.00499996 -2.83494e-08 0)
(0.00499995 -2.99785e-08 0)
(0.00499995 -3.17134e-08 0)
(0.00499994 -3.35625e-08 0)
(0.00499994 -3.5535e-08 0)
(0.00499994 -3.76404e-08 0)
(0.00499993 -3.98894e-08 0)
(0.00499993 -4.22931e-08 0)
(0.00499992 -4.48637e-08 0)
(0.00499992 -4.7614e-08 0)
(0.00499991 -5.0558e-08 0)
(0.00499991 -5.37105e-08 0)
(0.0049999 -5.70874e-08 0)
(0.00499989 -6.07057e-08 0)
(0.00499989 -6.45833e-08 0)
(0.00499988 -6.87397e-08 0)
(0.00499987 -7.31954e-08 0)
(0.00499987 -7.79722e-08 0)
(0.00499986 -8.30933e-08 0)
(0.00499985 -8.85833e-08 0)
(0.00499984 -9.44682e-08 0)
(0.00499983 -1.00776e-07 0)
(0.00499982 -1.07535e-07 0)
(0.00499981 -1.14776e-07 0)
(0.0049998 -1.22532e-07 0)
(0.00499979 -1.30836e-07 0)
(0.00499978 -1.39723e-07 0)
(0.00499977 -1.49231e-07 0)
(0.00499976 -1.59397e-07 0)
(0.00499974 -1.70261e-07 0)
(0.00499973 -1.81862e-07 0)
(0.00499971 -1.94243e-07 0)
(0.0049997 -2.07444e-07 0)
(0.00499969 -2.21507e-07 0)
(0.00499967 -2.36472e-07 0)
(0.00499965 -2.52379e-07 0)
(0.00499964 -2.69263e-07 0)
(0.00499962 -2.87157e-07 0)
(0.0049996 -3.06087e-07 0)
(0.00499959 -3.26072e-07 0)
(0.00499957 -3.47121e-07 0)
(0.00499955 -3.69227e-07 0)
(0.00499953 -3.92369e-07 0)
(0.00499951 -4.16501e-07 0)
(0.0049995 -4.41547e-07 0)
(0.00499948 -4.67399e-07 0)
(0.00499946 -4.93899e-07 0)
(0.00499944 -5.20835e-07 0)
(0.00499942 -5.47926e-07 0)
(0.0049994 -5.74798e-07 0)
(0.00499938 -6.00972e-07 0)
(0.00499937 -6.25823e-07 0)
(0.00499935 -6.48545e-07 0)
(0.00499933 -6.68071e-07 0)
(0.00499932 -6.83007e-07 0)
(0.0049993 -6.91692e-07 0)
(0.005 -1.12669e-10 0)
(0.005 -3.61988e-10 0)
(0.005 -6.25056e-10 0)
(0.005 -8.95135e-10 0)
(0.005 -1.17102e-09 0)
(0.005 -1.45248e-09 0)
(0.005 -1.73955e-09 0)
(0.005 -2.03248e-09 0)
(0.005 -2.33169e-09 0)
(0.005 -2.63769e-09 0)
(0.005 -2.95104e-09 0)
(0.005 -3.27235e-09 0)
(0.005 -3.60226e-09 0)
(0.005 -3.94139e-09 0)
(0.005 -4.29042e-09 0)
(0.005 -4.64999e-09 0)
(0.005 -5.02082e-09 0)
(0.005 -5.4036e-09 0)
(0.005 -5.7991e-09 0)
(0.005 -6.2081e-09 0)
(0.00499999 -6.63144e-09 0)
(0.00499999 -7.07002e-09 0)
(0.00499999 -7.52481e-09 0)
(0.00499999 -7.99683e-09 0)
(0.00499999 -8.48723e-09 0)
(0.00499999 -8.99722e-09 0)
(0.00499999 -9.52815e-09 0)
(0.00499999 -1.00815e-08 0)
(0.00499999 -1.06588e-08 0)
(0.00499999 -1.12618e-08 0)
(0.00499999 -1.18925e-08 0)
(0.00499998 -1.25529e-08 0)
(0.00499998 -1.32452e-08 0)
(0.00499998 -1.39721e-08 0)
(0.00499998 -1.47362e-08 0)
(0.00499998 -1.55404e-08 0)
(0.00499998 -1.63881e-08 0)
(0.00499997 -1.72828e-08 0)
(0.00499997 -1.82284e-08 0)
(0.00499997 -1.9229e-08 0)
(0.00499997 -2.02892e-08 0)
(0.00499996 -2.14141e-08 0)
(0.00499996 -2.2609e-08 0)
(0.00499996 -2.38799e-08 0)
(0.00499996 -2.52331e-08 0)
(0.00499995 -2.66755e-08 0)
(0.00499995 -2.82146e-08 0)
(0.00499995 -2.98584e-08 0)
(0.00499994 -3.16158e-08 0)
(0.00499994 -3.34961e-08 0)
(0.00499993 -3.55096e-08 0)
(0.00499993 -3.76671e-08 0)
(0.00499993 -3.99805e-08 0)
(0.00499992 -4.24624e-08 0)
(0.00499992 -4.51265e-08 0)
(0.00499991 -4.79873e-08 0)
(0.0049999 -5.10606e-08 0)
(0.0049999 -5.43631e-08 0)
(0.00499989 -5.79127e-08 0)
(0.00499988 -6.17287e-08 0)
(0.00499988 -6.58315e-08 0)
(0.00499987 -7.0243e-08 0)
(0.00499986 -7.49864e-08 0)
(0.00499985 -8.00863e-08 0)
(0.00499985 -8.55692e-08 0)
(0.00499984 -9.14628e-08 0)
(0.00499983 -9.77965e-08 0)
(0.00499982 -1.04602e-07 0)
(0.00499981 -1.11911e-07 0)
(0.0049998 -1.19759e-07 0)
(0.00499979 -1.28182e-07 0)
(0.00499977 -1.37217e-07 0)
(0.00499976 -1.46905e-07 0)
(0.00499975 -1.57286e-07 0)
(0.00499974 -1.68402e-07 0)
(0.00499972 -1.80297e-07 0)
(0.00499971 -1.93014e-07 0)
(0.00499969 -2.06597e-07 0)
(0.00499968 -2.21091e-07 0)
(0.00499966 -2.36536e-07 0)
(0.00499965 -2.52974e-07 0)
(0.00499963 -2.70442e-07 0)
(0.00499961 -2.8897e-07 0)
(0.0049996 -3.08582e-07 0)
(0.00499958 -3.29294e-07 0)
(0.00499956 -3.51105e-07 0)
(0.00499954 -3.74e-07 0)
(0.00499953 -3.9794e-07 0)
(0.00499951 -4.22857e-07 0)
(0.00499949 -4.48646e-07 0)
(0.00499947 -4.75158e-07 0)
(0.00499945 -5.02183e-07 0)
(0.00499943 -5.2944e-07 0)
(0.00499941 -5.56551e-07 0)
(0.0049994 -5.83026e-07 0)
(0.00499938 -6.08221e-07 0)
(0.00499936 -6.31299e-07 0)
(0.00499934 -6.51166e-07 0)
(0.00499932 -6.66422e-07 0)
(0.00499931 -6.75438e-07 0)
(0.005 -1.00847e-10 0)
(0.005 -3.25507e-10 0)
(0.005 -5.63799e-10 0)
(0.005 -8.09537e-10 0)
(0.005 -1.06154e-09 0)
(0.005 -1.31942e-09 0)
(0.005 -1.58295e-09 0)
(0.005 -1.8521e-09 0)
(0.005 -2.12699e-09 0)
(0.005 -2.40788e-09 0)
(0.005 -2.6951e-09 0)
(0.005 -2.98905e-09 0)
(0.005 -3.29015e-09 0)
(0.005 -3.59888e-09 0)
(0.005 -3.91573e-09 0)
(0.005 -4.2412e-09 0)
(0.005 -4.57583e-09 0)
(0.005 -4.9202e-09 0)
(0.005 -5.2749e-09 0)
(0.005 -5.64056e-09 0)
(0.00499999 -6.01787e-09 0)
(0.00499999 -6.40758e-09 0)
(0.00499999 -6.81047e-09 0)
(0.00499999 -7.22744e-09 0)
(0.00499999 -7.65942e-09 0)
(0.00499999 -8.10747e-09 0)
(0.00499999 -8.57274e-09 0)
(0.00499999 -9.05649e-09 0)
(0.00499999 -9.56012e-09 0)
(0.00499999 -1.00852e-08 0)
(0.00499999 -1.06333e-08 0)
(0.00499998 -1.12064e-08 0)
(0.00499998 -1.18065e-08 0)
(0.00499998 -1.24359e-08 0)
(0.00499998 -1.30971e-08 0)
(0.00499998 -1.37927e-08 0)
(0.00499998 -1.45258e-08 0)
(0.00499997 -1.52996e-08 0)
(0.00499997 -1.61178e-08 0)
(0.00499997 -1.69843e-08 0)
(0.00499997 -1.79033e-08 0)
(0.00499997 -1.88796e-08 0)
(0.00499996 -1.99183e-08 0)
(0.00499996 -2.1025e-08 0)
(0.00499996 -2.22057e-08 0)
(0.00499995 -2.34671e-08 0)
(0.00499995 -2.48163e-08 0)
(0.00499995 -2.62611e-08 0)
(0.00499994 -2.78099e-08 0)
(0.00499994 -2.94718e-08 0)
(0.00499994 -3.12568e-08 0)
(0.00499993 -3.31755e-08 0)
(0.00499993 -3.52394e-08 0)
(0.00499992 -3.74608e-08 0)
(0.00499992 -3.98533e-08 0)
(0.00499991 -4.24311e-08 0)
(0.00499991 -4.52096e-08 0)
(0.0049999 -4.82056e-08 0)
(0.00499989 -5.14367e-08 0)
(0.00499989 -5.49221e-08 0)
(0.00499988 -5.8682e-08 0)
(0.00499987 -6.27384e-08 0)
(0.00499987 -6.71146e-08 0)
(0.00499986 -7.18352e-08 0)
(0.00499985 -7.69268e-08 0)
(0.00499984 -8.24173e-08 0)
(0.00499983 -8.83368e-08 0)
(0.00499982 -9.47166e-08 0)
(0.00499981 -1.0159e-07 0)
(0.0049998 -1.08993e-07 0)
(0.00499979 -1.16962e-07 0)
(0.00499978 -1.25536e-07 0)
(0.00499977 -1.34755e-07 0)
(0.00499976 -1.44663e-07 0)
(0.00499974 -1.55302e-07 0)
(0.00499973 -1.66718e-07 0)
(0.00499972 -1.78957e-07 0)
(0.0049997 -1.92066e-07 0)
(0.00499969 -2.0609e-07 0)
(0.00499967 -2.21075e-07 0)
(0.00499966 -2.37066e-07 0)
(0.00499964 -2.54102e-07 0)
(0.00499963 -2.72219e-07 0)
(0.00499961 -2.91447e-07 0)
(0.00499959 -3.11804e-07 0)
(0.00499957 -3.33296e-07 0)
(0.00499956 -3.55914e-07 0)
(0.00499954 -3.79623e-07 0)
(0.00499952 -4.04362e-07 0)
(0.0049995 -4.30031e-07 0)
(0.00499948 -4.56484e-07 0)
(0.00499946 -4.83513e-07 0)
(0.00499945 -5.10836e-07 0)
(0.00499943 -5.38074e-07 0)
(0.00499941 -5.64722e-07 0)
(0.00499939 -5.90126e-07 0)
(0.00499937 -6.13428e-07 0)
(0.00499935 -6.33517e-07 0)
(0.00499933 -6.48985e-07 0)
(0.00499931 -6.58172e-07 0)
(0.005 -8.99585e-11 0)
(0.005 -2.91702e-10 0)
(0.005 -5.06628e-10 0)
(0.005 -7.29046e-10 0)
(0.005 -9.57874e-10 0)
(0.005 -1.19264e-09 0)
(0.005 -1.43296e-09 0)
(0.005 -1.67859e-09 0)
(0.005 -1.92944e-09 0)
(0.005 -2.18554e-09 0)
(0.005 -2.447e-09 0)
(0.005 -2.71404e-09 0)
(0.005 -2.9869e-09 0)
(0.005 -3.26587e-09 0)
(0.005 -3.55128e-09 0)
(0.005 -3.84349e-09 0)
(0.005 -4.14288e-09 0)
(0.005 -4.44987e-09 0)
(0.005 -4.76491e-09 0)
(0.005 -5.08848e-09 0)
(0.00499999 -5.42113e-09 0)
(0.00499999 -5.76343e-09 0)
(0.00499999 -6.11603e-09 0)
(0.00499999 -6.47964e-09 0)
(0.00499999 -6.85504e-09 0)
(0.00499999 -7.24311e-09 0)
(0.00499999 -7.64481e-09 0)
(0.00499999 -8.06123e-09 0)
(0.00499999 -8.49357e-09 0)
(0.00499999 -8.94315e-09 0)
(0.00499999 -9.41148e-09 0)
(0.00499998 -9.90018e-09 0)
(0.00499998 -1.04111e-08 0)
(0.00499998 -1.09463e-08 0)
(0.00499998 -1.15079e-08 0)
(0.00499998 -1.20985e-08 0)
(0.00499998 -1.27208e-08 0)
(0.00499998 -1.33779e-08 0)
(0.00499997 -1.4073e-08 0)
(0.00499997 -1.48099e-08 0)
(0.00499997 -1.55925e-08 0)
(0.00499997 -1.64252e-08 0)
(0.00499996 -1.7313e-08 0)
(0.00499996 -1.8261e-08 0)
(0.00499996 -1.92751e-08 0)
(0.00499996 -2.03616e-08 0)
(0.00499995 -2.15273e-08 0)
(0.00499995 -2.27797e-08 0)
(0.00499995 -2.4127e-08 0)
(0.00499994 -2.55779e-08 0)
(0.00499994 -2.71421e-08 0)
(0.00499993 -2.88299e-08 0)
(0.00499993 -3.06526e-08 0)
(0.00499993 -3.26223e-08 0)
(0.00499992 -3.4752e-08 0)
(0.00499992 -3.7056e-08 0)
(0.00499991 -3.95495e-08 0)
(0.0049999 -4.22488e-08 0)
(0.0049999 -4.51716e-08 0)
(0.00499989 -4.83369e-08 0)
(0.00499989 -5.17648e-08 0)
(0.00499988 -5.54772e-08 0)
(0.00499987 -5.94973e-08 0)
(0.00499986 -6.38501e-08 0)
(0.00499986 -6.8562e-08 0)
(0.00499985 -7.36614e-08 0)
(0.00499984 -7.91783e-08 0)
(0.00499983 -8.51448e-08 0)
(0.00499982 -9.15947e-08 0)
(0.00499981 -9.85638e-08 0)
(0.0049998 -1.0609e-07 0)
(0.00499979 -1.14213e-07 0)
(0.00499978 -1.22975e-07 0)
(0.00499976 -1.32419e-07 0)
(0.00499975 -1.4259e-07 0)
(0.00499974 -1.53535e-07 0)
(0.00499973 -1.65303e-07 0)
(0.00499971 -1.77941e-07 0)
(0.0049997 -1.91499e-07 0)
(0.00499968 -2.06025e-07 0)
(0.00499967 -2.21566e-07 0)
(0.00499965 -2.38166e-07 0)
(0.00499964 -2.55864e-07 0)
(0.00499962 -2.74693e-07 0)
(0.0049996 -2.94677e-07 0)
(0.00499959 -3.15827e-07 0)
(0.00499957 -3.38136e-07 0)
(0.00499955 -3.61576e-07 0)
(0.00499953 -3.86089e-07 0)
(0.00499952 -4.1158e-07 0)
(0.0049995 -4.37905e-07 0)
(0.00499948 -4.64858e-07 0)
(0.00499946 -4.92156e-07 0)
(0.00499944 -5.19414e-07 0)
(0.00499942 -5.46125e-07 0)
(0.0049994 -5.71622e-07 0)
(0.00499939 -5.95036e-07 0)
(0.00499937 -6.15246e-07 0)
(0.00499935 -6.30836e-07 0)
(0.00499933 -6.40112e-07 0)
(0.005 -7.98747e-11 0)
(0.005 -2.60239e-10 0)
(0.005 -4.5315e-10 0)
(0.005 -6.53334e-10 0)
(0.005 -8.59818e-10 0)
(0.005 -1.07211e-09 0)
(0.005 -1.28972e-09 0)
(0.005 -1.51228e-09 0)
(0.005 -1.7395e-09 0)
(0.005 -1.97124e-09 0)
(0.005 -2.20745e-09 0)
(0.005 -2.44813e-09 0)
(0.005 -2.69338e-09 0)
(0.005 -2.94331e-09 0)
(0.005 -3.1981e-09 0)
(0.005 -3.45796e-09 0)
(0.005 -3.72312e-09 0)
(0.005 -3.99386e-09 0)
(0.005 -4.27047e-09 0)
(0.005 -4.5533e-09 0)
(0.00499999 -4.84274e-09 0)
(0.00499999 -5.13921e-09 0)
(0.00499999 -5.44322e-09 0)
(0.00499999 -5.7553e-09 0)
(0.00499999 -6.07608e-09 0)
(0.00499999 -6.40627e-09 0)
(0.00499999 -6.74666e-09 0)
(0.00499999 -7.09816e-09 0)
(0.00499999 -7.46177e-09 0)
(0.00499999 -7.83863e-09 0)
(0.00499999 -8.23004e-09 0)
(0.00499999 -8.63744e-09 0)
(0.00499998 -9.06243e-09 0)
(0.00499998 -9.50683e-09 0)
(0.00499998 -9.97266e-09 0)
(0.00499998 -1.04622e-08 0)
(0.00499998 -1.09779e-08 0)
(0.00499998 -1.15225e-08 0)
(0.00499997 -1.20991e-08 0)
(0.00499997 -1.27112e-08 0)
(0.00499997 -1.33625e-08 0)
(0.00499997 -1.40571e-08 0)
(0.00499997 -1.47996e-08 0)
(0.00499996 -1.55949e-08 0)
(0.00499996 -1.64487e-08 0)
(0.00499996 -1.73668e-08 0)
(0.00499995 -1.83559e-08 0)
(0.00499995 -1.94231e-08 0)
(0.00499995 -2.05764e-08 0)
(0.00499994 -2.18241e-08 0)
(0.00499994 -2.31757e-08 0)
(0.00499994 -2.46412e-08 0)
(0.00499993 -2.62316e-08 0)
(0.00499993 -2.79586e-08 0)
(0.00499992 -2.98353e-08 0)
(0.00499992 -3.18754e-08 0)
(0.00499991 -3.40941e-08 0)
(0.00499991 -3.65073e-08 0)
(0.0049999 -3.91327e-08 0)
(0.0049999 -4.19891e-08 0)
(0.00499989 -4.50965e-08 0)
(0.00499988 -4.84766e-08 0)
(0.00499988 -5.21528e-08 0)
(0.00499987 -5.61499e-08 0)
(0.00499986 -6.04945e-08 0)
(0.00499985 -6.52152e-08 0)
(0.00499984 -7.03421e-08 0)
(0.00499984 -7.59077e-08 0)
(0.00499983 -8.19462e-08 0)
(0.00499982 -8.8494e-08 0)
(0.00499981 -9.55895e-08 0)
(0.0049998 -1.03273e-07 0)
(0.00499978 -1.11588e-07 0)
(0.00499977 -1.20579e-07 0)
(0.00499976 -1.30291e-07 0)
(0.00499975 -1.40774e-07 0)
(0.00499974 -1.52077e-07 0)
(0.00499972 -1.64251e-07 0)
(0.00499971 -1.77346e-07 0)
(0.0049997 -1.91414e-07 0)
(0.00499968 -2.06503e-07 0)
(0.00499967 -2.22661e-07 0)
(0.00499965 -2.39931e-07 0)
(0.00499963 -2.58349e-07 0)
(0.00499962 -2.77941e-07 0)
(0.0049996 -2.98723e-07 0)
(0.00499958 -3.20693e-07 0)
(0.00499957 -3.43825e-07 0)
(0.00499955 -3.68066e-07 0)
(0.00499953 -3.93323e-07 0)
(0.00499951 -4.19455e-07 0)