/*--------------------------------*- C++ -*----------------------------------*\
  =========                 |
  \\      /  F ield         | OpenFOAM: The Open Source CFD Toolbox
   \\    /   O peration     | Website:  https://openfoam.org
    \\  /    A nd           | Version:  11
     \\/     M anipulation  |
\*---------------------------------------------------------------------------*/
FoamFile
{
    format      ascii;
    class       volScalarField;
    location    "1404";
    object      p;
}
// * * * * * * * * * * * * * * * * * * * * * * * * * * * * * * * * * * * * * //

dimensions      [0 2 -2 0 0 0 0];

internalField   nonuniform List<scalar> 
10000
(
1.51897e-13
1.47918e-13
1.52916e-13
1.64072e-13
1.77101e-13
1.91013e-13
2.05719e-13
2.21184e-13
2.37399e-13
2.54384e-13
2.72179e-13
2.90831e-13
3.10393e-13
3.30916e-13
3.52457e-13
3.75072e-13
3.98818e-13
4.23754e-13
4.4994e-13
4.77437e-13
5.06305e-13
5.36609e-13
5.68411e-13
6.01778e-13
6.36776e-13
6.73472e-13
7.11935e-13
7.52235e-13
7.94442e-13
8.38627e-13
8.84864e-13
9.33225e-13
9.83784e-13
1.03661e-12
1.09179e-12
1.14939e-12
1.20948e-12
1.27215e-12
1.33745e-12
1.40547e-12
1.47628e-12
1.54994e-12
1.62652e-12
1.70609e-12
1.7887e-12
1.87442e-12
1.9633e-12
2.05539e-12
2.15072e-12
2.24934e-12
2.35128e-12
2.45654e-12
2.56516e-12
2.67711e-12
2.79239e-12
2.91098e-12
3.03284e-12
3.15789e-12
3.28608e-12
3.41729e-12
3.55141e-12
3.68829e-12
3.82774e-12
3.96957e-12
4.11353e-12
4.25933e-12
4.40665e-12
4.55511e-12
4.70427e-12
4.85365e-12
5.00269e-12
5.15076e-12
5.29714e-12
5.44104e-12
5.58155e-12
5.71764e-12
5.84817e-12
5.97185e-12
6.08724e-12
6.19272e-12
6.28644e-12
6.36635e-12
6.43011e-12
6.47506e-12
6.49814e-12
6.49579e-12
6.46355e-12
6.39471e-12
6.2801e-12
6.13036e-12
5.9598e-12
5.74361e-12
5.46056e-12
5.11584e-12
4.68647e-12
4.12041e-12
3.39492e-12
2.50897e-12
1.38553e-12
1.04502e-13
2.88092e-13
2.72175e-13
2.62039e-13
2.65568e-13
2.75187e-13
2.87833e-13
3.02677e-13
3.19289e-13
3.3739e-13
3.56839e-13
3.77571e-13
3.99569e-13
4.22839e-13
4.47408e-13
4.73312e-13
5.00596e-13
5.29311e-13
5.59512e-13
5.9126e-13
6.24616e-13
6.59647e-13
6.9642e-13
7.35004e-13
7.75471e-13
8.17895e-13
8.62351e-13
9.08915e-13
9.57665e-13
1.00868e-12
1.06204e-12
1.11782e-12
1.17611e-12
1.23699e-12
1.30054e-12
1.36684e-12
1.43598e-12
1.50803e-12
1.58308e-12
1.6612e-12
1.74247e-12
1.82697e-12
1.91477e-12
2.00594e-12
2.10054e-12
2.19863e-12
2.30028e-12
2.40552e-12
2.51441e-12
2.62698e-12
2.74325e-12
2.86325e-12
2.98697e-12
3.11441e-12
3.24556e-12
3.38036e-12
3.51877e-12
3.66071e-12
3.80609e-12
3.95479e-12
4.10666e-12
4.26152e-12
4.41916e-12
4.57934e-12
4.74177e-12
4.90613e-12
5.07202e-12
5.23901e-12
5.40662e-12
5.57426e-12
5.74132e-12
5.90706e-12
6.07067e-12
6.23125e-12
6.38776e-12
6.53906e-12
6.68385e-12
6.82069e-12
6.94796e-12
7.06384e-12
7.16631e-12
7.25308e-12
7.3216e-12
7.36899e-12
7.39201e-12
7.38702e-12
7.34991e-12
7.27599e-12
7.15957e-12
6.99597e-12
6.79348e-12
6.54265e-12
6.20217e-12
5.7562e-12
5.21634e-12
4.59356e-12
3.87835e-12
3.01408e-12
1.87198e-12
3.00292e-13
-1.04513e-12
3.56094e-13
3.33363e-13
3.13219e-13
3.07259e-13
3.08821e-13
3.14578e-13
3.23419e-13
3.34682e-13
3.479e-13
3.62786e-13
3.79164e-13
3.96932e-13
4.16031e-13
4.36433e-13
4.58133e-13
4.81137e-13
5.05467e-13
5.3115e-13
5.58222e-13
5.86722e-13
6.16693e-13
6.48185e-13
6.81247e-13
7.15931e-13
7.52293e-13
7.90389e-13
8.30278e-13
8.72018e-13
9.15671e-13
9.61296e-13
1.00896e-12
1.05871e-12
1.11063e-12
1.16477e-12
1.22119e-12
1.27996e-12
1.34113e-12
1.40477e-12
1.47093e-12
1.53966e-12
1.61103e-12
1.68507e-12
1.76185e-12
1.84139e-12
1.92374e-12
2.00894e-12
2.097e-12
2.18795e-12
2.2818e-12
2.37856e-12
2.47821e-12
2.58076e-12
2.68615e-12
2.79437e-12
2.90534e-12
3.019e-12
3.13525e-12
3.25399e-12
3.37507e-12
3.49835e-12
3.62363e-12
3.7507e-12
3.87932e-12
4.00918e-12
4.13998e-12
4.27132e-12
4.4028e-12
4.53394e-12
4.66419e-12
4.79296e-12
4.91956e-12
5.04323e-12
5.16312e-12
5.27829e-12
5.38765e-12
5.49004e-12
5.58411e-12
5.6684e-12
5.74125e-12
5.80083e-12
5.8451e-12
5.87176e-12
5.87829e-12
5.86186e-12
5.81936e-12
5.7474e-12
5.64234e-12
5.50036e-12
5.31843e-12
5.09791e-12
4.83554e-12
4.51161e-12
4.1067e-12
3.61175e-12
3.01208e-12
2.28814e-12
1.41844e-12
3.04075e-13
-1.19801e-12
-2.16845e-12
4.15204e-13
3.90243e-13
3.68074e-13
3.58401e-13
3.55957e-13
3.58046e-13
3.63647e-13
3.72069e-13
3.82788e-13
3.95453e-13
4.09831e-13
4.25771e-13
4.43171e-13
4.6197e-13
4.82132e-13
5.03643e-13
5.26503e-13
5.50721e-13
5.76317e-13
6.03318e-13
6.31755e-13
6.61665e-13
6.93087e-13
7.26064e-13
7.60641e-13
7.96867e-13
8.34788e-13
8.74456e-13
9.15922e-13
9.59238e-13
1.00446e-12
1.05163e-12
1.10081e-12
1.15205e-12
1.2054e-12
1.26092e-12
1.31865e-12
1.37864e-12
1.44093e-12
1.50558e-12
1.57262e-12
1.64209e-12
1.71402e-12
1.78844e-12
1.86538e-12
1.94486e-12
2.02689e-12
2.11147e-12
2.19861e-12
2.28829e-12
2.38048e-12
2.47517e-12
2.57229e-12
2.6718e-12
2.77362e-12
2.87766e-12
2.9838e-12
3.09193e-12
3.20188e-12
3.31348e-12
3.42652e-12
3.54077e-12
3.65596e-12
3.77178e-12
3.88788e-12
4.00388e-12
4.11933e-12
4.23373e-12
4.34653e-12
4.45711e-12
4.56477e-12
4.66873e-12
4.76814e-12
4.86201e-12
4.94929e-12
5.02878e-12
5.09915e-12
5.15892e-12
5.20647e-12
5.23998e-12
5.25744e-12
5.25662e-12
5.23505e-12
5.19002e-12
5.11856e-12
5.01744e-12
4.88322e-12
4.71223e-12
4.50082e-12
4.24607e-12
3.94296e-12
3.57992e-12
3.14325e-12
2.62125e-12
1.99994e-12
1.268e-12
4.13967e-13
-6.74734e-13
-2.18138e-12
-2.91122e-12
4.66438e-13
4.4167e-13
4.19839e-13
4.08742e-13
4.04194e-13
4.04131e-13
4.07721e-13
4.1433e-13
4.23446e-13
4.34705e-13
4.4785e-13
4.62703e-13
4.7914e-13
4.97075e-13
5.16455e-13
5.37246e-13
5.59434e-13
5.83016e-13
6.08001e-13
6.34404e-13
6.62247e-13
6.91559e-13
7.22371e-13
7.54718e-13
7.8864e-13
8.24176e-13
8.61368e-13
9.00261e-13
9.40898e-13
9.83326e-13
1.02759e-12
1.07374e-12
1.12181e-12
1.17186e-12
1.22392e-12
1.27804e-12
1.33427e-12
1.39264e-12
1.45319e-12
1.51595e-12
1.58096e-12
1.64825e-12
1.71783e-12
1.78974e-12
1.86397e-12
1.94054e-12
2.01945e-12
2.1007e-12
2.18426e-12
2.27012e-12
2.35823e-12
2.44855e-12
2.54102e-12
2.63557e-12
2.7321e-12
2.8305e-12
2.93066e-12
3.03241e-12
3.1356e-12
3.24001e-12
3.34543e-12
3.45159e-12
3.55821e-12
3.66495e-12
3.77145e-12
3.87729e-12
3.982e-12
4.08506e-12
4.18589e-12
4.28384e-12
4.37818e-12
4.46811e-12
4.55275e-12
4.63109e-12
4.70204e-12
4.76438e-12
4.81676e-12
4.8577e-12
4.88554e-12
4.89845e-12
4.89443e-12
4.87124e-12
4.82646e-12
4.75739e-12
4.66111e-12
4.53442e-12
4.37387e-12
4.17571e-12
3.93588e-12
3.65004e-12
3.31233e-12
2.91398e-12
2.44493e-12
1.89525e-12
1.25476e-12
5.19444e-13
-3.15604e-13
-1.38149e-12
-2.94413e-12
-3.40617e-12
5.0998e-13
4.8637e-13
4.65353e-13
4.53607e-13
4.4772e-13
4.46105e-13
4.48113e-13
4.53196e-13
4.60888e-13
4.70835e-13
4.8278e-13
4.96532e-13
5.11953e-13
5.28944e-13
5.47437e-13
5.67385e-13
5.88762e-13
6.11553e-13
6.35757e-13
6.6138e-13
6.88436e-13
7.16945e-13
7.46931e-13
7.78422e-13
8.11448e-13
8.46045e-13
8.82247e-13
9.2009e-13
9.59614e-13
1.00086e-12
1.04386e-12
1.08865e-12
1.13529e-12
1.18379e-12
1.23421e-12
1.28657e-12
1.34091e-12
1.39726e-12
1.45565e-12
1.5161e-12
1.57865e-12
1.6433e-12
1.71007e-12
1.77897e-12
1.85e-12
1.92317e-12
1.99845e-12
2.07583e-12
2.15528e-12
2.23677e-12
2.32024e-12
2.40563e-12
2.49288e-12
2.58188e-12
2.67254e-12
2.76473e-12
2.85831e-12
2.95311e-12
3.04894e-12
3.14559e-12
3.24282e-12
3.34034e-12
3.43786e-12
3.53501e-12
3.63142e-12
3.72664e-12
3.82019e-12
3.91154e-12
4.00007e-12
4.08512e-12
4.16596e-12
4.24175e-12
4.31161e-12
4.37451e-12
4.42935e-12
4.47491e-12
4.50983e-12
4.53262e-12
4.54165e-12
4.5351e-12
4.51098e-12
4.46712e-12
4.40111e-12
4.31035e-12
4.19196e-12
4.04285e-12
3.85961e-12
3.63855e-12
3.37558e-12
3.06616e-12
2.7047e-12
2.28413e-12
1.79665e-12
1.2342e-12
5.89514e-13
-1.35982e-13
-9.39441e-13
-1.96011e-12
-3.53163e-12
-3.77489e-12
5.48088e-13
5.25867e-13
5.05852e-13
4.93928e-13
4.87236e-13
4.84531e-13
4.85319e-13
4.89149e-13
4.95609e-13
5.04374e-13
5.15197e-13
5.27886e-13
5.42299e-13
5.58328e-13
5.75896e-13
5.94947e-13
6.15444e-13
6.37365e-13
6.60699e-13
6.85444e-13
7.11607e-13
7.39199e-13
7.68238e-13
7.98745e-13
8.30744e-13
8.64261e-13
8.99327e-13
9.35971e-13
9.74224e-13
1.01412e-12
1.05569e-12
1.09896e-12
1.14397e-12
1.19075e-12
1.23933e-12
1.28973e-12
1.34199e-12
1.39611e-12
1.45214e-12
1.51007e-12
1.56994e-12
1.63173e-12
1.69547e-12
1.76115e-12
1.82875e-12
1.89828e-12
1.9697e-12
2.04298e-12
2.1181e-12
2.19499e-12
2.27359e-12
2.35384e-12
2.43564e-12
2.51889e-12
2.60347e-12
2.68925e-12
2.77607e-12
2.86375e-12
2.95208e-12
3.04083e-12
3.12975e-12
3.21855e-12
3.3069e-12
3.39443e-12
3.48075e-12
3.56541e-12
3.6479e-12
3.72766e-12
3.8041e-12
3.87653e-12
3.9442e-12
4.00628e-12
4.06186e-12
4.10993e-12
4.14939e-12
4.17902e-12
4.19747e-12
4.20328e-12
4.19482e-12
4.17033e-12
4.12785e-12
4.06528e-12
3.98028e-12
3.87033e-12
3.73268e-12
3.56433e-12
3.36202e-12
3.1222e-12
2.84095e-12
2.51396e-12
2.13624e-12
1.70205e-12
1.20525e-12
6.39429e-13
-5.77678e-16
-7.09713e-13
-1.48005e-12
-2.45688e-12
-4.00997e-12
-4.12935e-12
5.82306e-13
5.61456e-13
5.42496e-13
5.30695e-13
5.23581e-13
5.20152e-13
5.20041e-13
5.22881e-13
5.28318e-13
5.36064e-13
5.45887e-13
5.57605e-13
5.71075e-13
5.86187e-13
6.02858e-13
6.21027e-13
6.4065e-13
6.61698e-13
6.84152e-13
7.08005e-13
7.33254e-13
7.59907e-13
7.87974e-13
8.17468e-13
8.48409e-13
8.80817e-13
9.14715e-13
9.50126e-13
9.87076e-13
1.02559e-12
1.0657e-12
1.10742e-12
1.15078e-12
1.1958e-12
1.24251e-12
1.29093e-12
1.34108e-12
1.39296e-12
1.4466e-12
1.502e-12
1.55917e-12
1.61811e-12
1.67882e-12
1.74127e-12
1.80547e-12
1.87138e-12
1.93896e-12
2.00819e-12
2.07902e-12
2.15137e-12
2.22518e-12
2.30036e-12
2.37681e-12
2.45443e-12
2.53307e-12
2.61259e-12
2.69283e-12
2.77357e-12
2.85462e-12
2.93573e-12
3.01662e-12
3.097e-12
3.17652e-12
3.25482e-12
3.33148e-12
3.40603e-12
3.47798e-12
3.54675e-12
3.61172e-12
3.67222e-12
3.72749e-12
3.77671e-12
3.81895e-12
3.85322e-12
3.87843e-12
3.89336e-12
3.8967e-12
3.88701e-12
3.8627e-12
3.82206e-12
3.76319e-12
3.68406e-12
3.58242e-12
3.45586e-12
3.30176e-12
3.11725e-12
2.89927e-12
2.64447e-12
2.34922e-12
2.00957e-12
1.62118e-12
1.17934e-12
6.79197e-13
1.15669e-13
-5.14892e-13
-1.2052e-12
-1.94509e-12
-2.88919e-12
-4.4397e-12
-4.46693e-12
6.1345e-13
5.93875e-13
5.75932e-13
5.64414e-13
5.57123e-13
5.53231e-13
5.52464e-13
5.54527e-13
5.59121e-13
5.65991e-13
5.74929e-13
5.85763e-13
5.98355e-13
6.12598e-13
6.28407e-13
6.45715e-13
6.64476e-13
6.84654e-13
7.06226e-13
7.29178e-13
7.53503e-13
7.79202e-13
8.06278e-13
8.34741e-13
8.64602e-13
8.95878e-13
9.28585e-13
9.6274e-13
9.98364e-13
1.03548e-12
1.07409e-12
1.11424e-12
1.15593e-12
1.19918e-12
1.24401e-12
1.29043e-12
1.33846e-12
1.38809e-12
1.43934e-12
1.49221e-12
1.5467e-12
1.60279e-12
1.66047e-12
1.71974e-12
1.78055e-12
1.84287e-12
1.90668e-12
1.97191e-12
2.0385e-12
2.10639e-12
2.1755e-12
2.24572e-12
2.31695e-12
2.38907e-12
2.46192e-12
2.53536e-12
2.6092e-12
2.68323e-12
2.75724e-12
2.83097e-12
2.90413e-12
2.97642e-12
3.04749e-12
3.11696e-12
3.18439e-12
3.24934e-12
3.31128e-12
3.36964e-12
3.42381e-12
3.4731e-12
3.51675e-12
3.55395e-12
3.58379e-12
3.60529e-12
3.61736e-12
3.61883e-12
3.6084e-12
3.58467e-12
3.54611e-12
3.49105e-12
3.41769e-12
3.32406e-12
3.20802e-12
3.0673e-12
2.89939e-12
2.70164e-12
2.47116e-12
2.20486e-12
1.89945e-12
1.55139e-12
1.15693e-12
7.12222e-13
2.1338e-13
-3.43643e-13
-9.61402e-13
-1.6311e-12
-2.34129e-12
-3.2544e-12
-4.79489e-12
-4.73203e-12
6.42023e-13
6.23598e-13
6.06602e-13
5.95445e-13
5.88131e-13
5.83954e-13
5.8271e-13
5.84162e-13
5.88057e-13
5.94173e-13
6.02323e-13
6.1235e-13
6.24126e-13
6.37543e-13
6.5252e-13
6.68989e-13
6.86899e-13
7.06211e-13
7.26899e-13
7.48944e-13
7.72333e-13
7.97062e-13
8.23131e-13
8.50543e-13
8.79305e-13
9.09426e-13
9.40919e-13
9.73795e-13
1.00807e-12
1.04375e-12
1.08086e-12
1.11941e-12
1.15941e-12
1.20087e-12
1.2438e-12
1.28821e-12
1.3341e-12
1.38148e-12
1.43034e-12
1.48067e-12
1.53248e-12
1.58573e-12
1.64041e-12
1.6965e-12
1.75395e-12
1.81274e-12
1.8728e-12
1.93408e-12
1.99652e-12
2.06002e-12
2.12451e-12
2.18987e-12
2.25599e-12
2.32274e-12
2.38995e-12
2.45747e-12
2.52511e-12
2.59264e-12
2.65984e-12
2.72645e-12
2.79218e-12
2.8567e-12
2.91967e-12
2.9807e-12
3.03936e-12
3.09517e-12
3.14763e-12
3.19617e-12
3.24016e-12
3.27892e-12
3.31172e-12
3.33774e-12
3.35609e-12
3.3658e-12
3.36582e-12
3.355e-12
3.33208e-12
3.29572e-12
3.24443e-12
3.17661e-12
3.09055e-12
2.98436e-12
2.85605e-12
2.70344e-12
2.52422e-12
2.31589e-12
2.07581e-12
1.80117e-12
1.48898e-12
1.13615e-12
7.39468e-13
2.95747e-13
-1.98126e-13
-7.45417e-13
-1.34788e-12
-1.99566e-12
-2.67642e-12
-3.55838e-12
-5.08152e-12
-4.93742e-12
6.68371e-13
6.50977e-13
6.34855e-13
6.24091e-13
6.16848e-13
6.1251e-13
6.10921e-13
6.1189e-13
6.15202e-13
6.20665e-13
6.28113e-13
6.37404e-13
6.48417e-13
6.61052e-13
6.75229e-13
6.90879e-13
7.07952e-13
7.26407e-13
7.46212e-13
7.67346e-13
7.89793e-13
8.13543e-13
8.38592e-13
8.64938e-13
8.92584e-13
9.21535e-13
9.51796e-13
9.83376e-13
1.01628e-12
1.05052e-12
1.08611e-12
1.12304e-12
1.16134e-12
1.201e-12
1.24202e-12
1.28441e-12
1.32817e-12
1.37328e-12
1.41975e-12
1.46756e-12
1.51669e-12
1.56712e-12
1.61882e-12
1.67176e-12
1.7259e-12
1.78118e-12
1.83756e-12
1.89496e-12
1.9533e-12
2.01251e-12
2.07248e-12
2.13309e-12
2.19423e-12
2.25575e-12
2.31748e-12
2.37926e-12
2.44089e-12
2.50215e-12
2.56279e-12
2.62256e-12
2.68115e-12
2.73824e-12
2.79347e-12
2.84646e-12
2.89678e-12
2.94394e-12
2.98745e-12
3.02674e-12
3.06118e-12
3.09011e-12
3.11281e-12
3.12846e-12
3.13621e-12
3.13511e-12
3.12413e-12
3.10217e-12
3.06802e-12
3.02036e-12
2.9578e-12
2.87881e-12
2.78175e-12
2.66485e-12
2.52624e-12
2.36388e-12
2.17562e-12
1.95917e-12
1.71212e-12
1.43191e-12
1.11591e-12
7.61395e-13
3.65631e-13
-7.40161e-14
-5.60064e-13
-1.09518e-12
-1.68055e-12
-2.30555e-12
-2.95723e-12
-3.80804e-12
-5.30911e-12
-5.09441e-12
6.92742e-13
6.76277e-13
6.60958e-13
6.50598e-13
6.43486e-13
6.39071e-13
6.37235e-13
6.37819e-13
6.40642e-13
6.45536e-13
6.52356e-13
6.60972e-13
6.71274e-13
6.83168e-13
6.96575e-13
7.11431e-13
7.27683e-13
7.4529e-13
7.64218e-13
7.84443e-13
8.05945e-13
8.28711e-13
8.52732e-13
8.78004e-13
9.04525e-13
9.32293e-13
9.61312e-13
9.91583e-13
1.02311e-12
1.0559e-12
1.08995e-12
1.12526e-12
1.16185e-12
1.1997e-12
1.23881e-12
1.27918e-12
1.3208e-12
1.36367e-12
1.40776e-12
1.45306e-12
1.49954e-12
1.54717e-12
1.59593e-12
1.64576e-12
1.69663e-12
1.74847e-12
1.80122e-12
1.85481e-12
1.90915e-12
1.96415e-12
2.01971e-12
2.0757e-12
2.13199e-12
2.18843e-12
2.24486e-12
2.30109e-12
2.35693e-12
2.41214e-12
2.46648e-12
2.51968e-12
2.57144e-12
2.62144e-12
2.66931e-12
2.71467e-12
2.75709e-12
2.7961e-12
2.83119e-12
2.8618e-12
2.88733e-12
2.90712e-12
2.92045e-12
2.92655e-12
2.92457e-12
2.91361e-12
2.89266e-12
2.86066e-12
2.81646e-12
2.75881e-12
2.68637e-12
2.5977e-12
2.49125e-12
2.36536e-12
2.21829e-12
2.04814e-12
1.85294e-12
1.63059e-12
1.3789e-12
1.09559e-12
7.78314e-13
4.24711e-13
3.24506e-14
-4.00655e-13
-8.7665e-13
-1.39775e-12
-1.96471e-12
-2.56639e-12
-3.18941e-12
-4.00915e-12
-5.4844e-12
-5.20912e-12
7.15326e-13
6.99705e-13
6.85128e-13
6.75169e-13
6.68223e-13
6.63789e-13
6.61776e-13
6.62052e-13
6.64461e-13
6.68857e-13
6.7511e-13
6.83106e-13
6.92743e-13
7.03933e-13
7.16601e-13
7.30687e-13
7.46136e-13
7.62908e-13
7.80967e-13
8.00287e-13
8.20845e-13
8.42627e-13
8.65618e-13
8.89811e-13
9.152e-13
9.41781e-13
9.6955e-13
9.98507e-13
1.02865e-12
1.05998e-12
1.09249e-12
1.12619e-12
1.16106e-12
1.1971e-12
1.23431e-12
1.27267e-12
1.31217e-12
1.3528e-12
1.39453e-12
1.43734e-12
1.4812e-12
1.52607e-12
1.57192e-12
1.6187e-12
1.66635e-12
1.71481e-12
1.76401e-12
1.81387e-12
1.8643e-12
1.9152e-12
1.96647e-12
2.01796e-12
2.06955e-12
2.12108e-12
2.17238e-12
2.22326e-12
2.27352e-12
2.32292e-12
2.37122e-12
2.41815e-12
2.4634e-12
2.50665e-12
2.54754e-12
2.58569e-12
2.62065e-12
2.65199e-12
2.67918e-12
2.70169e-12
2.71893e-12
2.73025e-12
2.73495e-12
2.73228e-12
2.72143e-12
2.70151e-12
2.67159e-12
2.63062e-12
2.57752e-12
2.5111e-12
2.4301e-12
2.33315e-12
2.21881e-12
2.08554e-12
1.9317e-12
1.75557e-12
1.55532e-12
1.32906e-12
1.0748e-12
7.90521e-13
4.74154e-13
1.23646e-13
-2.6299e-13
-6.87573e-13
-1.15177e-12
-1.65746e-12
-2.20507e-12
-2.78309e-12
-3.3779e-12
-4.16666e-12
-5.61275e-12
-5.28595e-12
7.36273e-13
7.21423e-13
7.07535e-13
6.9797e-13
6.9121e-13
6.86798e-13
6.8466e-13
6.84686e-13
6.8674e-13
6.90695e-13
6.96436e-13
7.0386e-13
7.12872e-13
7.23393e-13
7.35353e-13
7.48691e-13
7.63357e-13
7.79307e-13
7.96508e-13
8.14931e-13
8.34551e-13
8.55349e-13
8.77312e-13
9.00426e-13
9.24683e-13
9.50074e-13
9.76593e-13
1.00423e-12
1.03299e-12
1.06286e-12
1.09384e-12
1.12591e-12
1.15908e-12
1.19332e-12
1.22863e-12
1.265e-12
1.3024e-12
1.34081e-12
1.3802e-12
1.42055e-12
1.46183e-12
1.50398e-12
1.54697e-12
1.59075e-12
1.63524e-12
1.68039e-12
1.72613e-12
1.77235e-12
1.81897e-12
1.86589e-12
1.91298e-12
1.96012e-12
2.00716e-12
2.05395e-12
2.1003e-12
2.14604e-12
2.19094e-12
2.23478e-12
2.27732e-12
2.31826e-12
2.35732e-12
2.39417e-12
2.42845e-12
2.45979e-12
2.48775e-12
2.51189e-12
2.53171e-12
2.54669e-12
2.55624e-12
2.55974e-12
2.55652e-12
2.54585e-12
2.52695e-12
2.49897e-12
2.461e-12
2.41209e-12
2.35117e-12
2.27714e-12
2.18881e-12
2.0849e-12
1.96407e-12
1.82488e-12
1.66584e-12
1.48536e-12
1.28177e-12
1.05336e-12
7.98364e-13
5.14971e-13
2.01372e-13
-1.44216e-13
-5.23486e-13
-9.37955e-13
-1.389e-12
-1.87821e-12
-2.40578e-12
-2.95999e-12
-3.52707e-12
-4.28493e-12
-5.69883e-12
-5.32864e-12
7.55706e-13
7.41569e-13
7.28326e-13
7.19142e-13
7.1258e-13
7.08216e-13
7.05992e-13
7.05813e-13
7.0756e-13
7.11122e-13
7.16396e-13
7.23288e-13
7.31714e-13
7.41598e-13
7.52877e-13
7.6549e-13
7.79391e-13
7.94537e-13
8.10893e-13
8.28427e-13
8.47116e-13
8.66939e-13
8.87877e-13
9.09915e-13
9.33042e-13
9.57247e-13
9.82518e-13
1.00885e-12
1.03623e-12
1.06464e-12
1.09409e-12
1.12455e-12
1.15602e-12
1.18848e-12
1.22191e-12
1.2563e-12
1.29161e-12
1.32783e-12
1.36493e-12
1.40286e-12
1.44159e-12
1.48107e-12
1.52126e-12
1.56209e-12
1.6035e-12
1.64542e-12
1.68777e-12
1.73045e-12
1.77337e-12
1.81642e-12
1.85948e-12
1.9024e-12
1.94505e-12
1.98727e-12
2.02887e-12
2.06967e-12
2.10945e-12
2.14798e-12
2.18501e-12
2.22026e-12
2.25345e-12
2.28424e-12
2.31229e-12
2.33722e-12
2.35862e-12
2.37604e-12
2.38901e-12
2.397e-12
2.39946e-12
2.39579e-12
2.38533e-12
2.36739e-12
2.34122e-12
2.30602e-12
2.26093e-12
2.20502e-12
2.13731e-12
2.05676e-12
1.96226e-12
1.85261e-12
1.72657e-12
1.58283e-12
1.42e-12
1.23663e-12
1.03123e-12
8.02244e-13
5.48098e-13
2.67192e-13
-4.20602e-14
-3.81203e-13
-7.5168e-13
-1.15476e-12
-1.59158e-12
-2.06351e-12
-2.57057e-12
-3.10093e-12
-3.64078e-12
-4.36783e-12
-5.74675e-12
-5.34044e-12
7.73731e-13
7.60258e-13
7.47621e-13
7.38805e-13
7.32447e-13
7.2815e-13
7.25868e-13
7.25519e-13
7.26998e-13
7.30206e-13
7.3505e-13
7.41447e-13
7.49319e-13
7.58598e-13
7.6922e-13
7.81133e-13
7.94289e-13
8.08647e-13
8.24171e-13
8.4083e-13
8.58598e-13
8.77452e-13
8.97374e-13
9.18344e-13
9.40348e-13
9.63372e-13
9.87402e-13
1.01243e-12
1.03843e-12
1.06541e-12
1.09333e-12
1.1222e-12
1.15199e-12
1.18268e-12
1.21426e-12
1.24669e-12
1.27995e-12
1.31401e-12
1.34884e-12
1.38439e-12
1.42063e-12
1.45749e-12
1.49494e-12
1.53289e-12
1.57129e-12
1.61006e-12
1.64912e-12
1.68836e-12
1.72769e-12
1.76699e-12
1.80615e-12
1.84501e-12
1.88344e-12
1.92126e-12
1.9583e-12
1.99437e-12
2.02925e-12
2.06272e-12
2.09452e-12
2.12438e-12
2.15201e-12
2.17709e-12
2.19928e-12
2.21821e-12
2.23348e-12
2.24464e-12
2.25125e-12
2.2528e-12
2.24874e-12
2.23851e-12
2.22147e-12
2.19697e-12
2.16429e-12
2.12267e-12
2.0713e-12
2.00931e-12
1.93577e-12
1.84972e-12
1.75011e-12
1.63585e-12
1.50579e-12
1.35872e-12
1.19338e-12
1.00845e-12
8.02593e-13
5.74411e-13
3.22501e-13
4.54546e-14
-2.58115e-13
-5.89543e-13
-9.50065e-13
-1.34074e-12
-1.7625e-12
-2.21656e-12
-2.70279e-12
-3.20935e-12
-3.72246e-12
-4.4188e-12
-5.7602e-12
-5.32428e-12
7.9044e-13
7.77589e-13
7.65525e-13
7.57065e-13
7.50912e-13
7.46696e-13
7.44377e-13
7.43885e-13
7.45127e-13
7.48013e-13
7.52461e-13
7.58394e-13
7.65742e-13
7.74442e-13
7.84434e-13
7.95668e-13
8.08099e-13
8.21686e-13
8.36394e-13
8.52191e-13
8.69051e-13
8.86949e-13
9.05864e-13
9.25775e-13
9.46667e-13
9.6852e-13
9.91321e-13
1.01505e-12
1.0397e-12
1.06524e-12
1.09167e-12
1.11895e-12
1.14708e-12
1.17603e-12
1.20577e-12
1.23628e-12
1.26752e-12
1.29946e-12
1.33207e-12
1.36529e-12
1.39908e-12
1.43338e-12
1.46815e-12
1.5033e-12
1.53877e-12
1.57448e-12
1.61034e-12
1.64625e-12
1.68211e-12
1.71779e-12
1.75318e-12
1.78813e-12
1.8225e-12
1.85611e-12
1.88879e-12
1.92034e-12
1.95056e-12
1.97921e-12
2.00605e-12
2.03081e-12
2.0532e-12
2.07291e-12
2.08961e-12
2.10293e-12
2.11248e-12
2.11784e-12
2.11858e-12
2.11419e-12
2.10418e-12
2.08798e-12
2.065e-12
2.03461e-12
1.99613e-12
1.94885e-12
1.89201e-12
1.82478e-12
1.74632e-12
1.65571e-12
1.55199e-12
1.43415e-12
1.30114e-12
1.15186e-12
9.8516e-13
7.99856e-13
5.94733e-13
3.68557e-13
1.2008e-13
-1.51934e-13
-4.48698e-13
-7.71363e-13
-1.12098e-12
-1.49844e-12
-1.90452e-12
-2.34027e-12
-2.80548e-12
-3.28835e-12
-3.77523e-12
-4.44096e-12
-5.74252e-12
-5.28283e-12
8.05915e-13
7.93652e-13
7.82131e-13
7.74014e-13
7.68066e-13
7.63938e-13
7.61599e-13
7.60987e-13
7.62017e-13
7.64608e-13
7.68687e-13
7.74185e-13
7.81036e-13
7.89181e-13
7.98567e-13
8.09145e-13
8.2087e-13
8.33705e-13
8.47613e-13
8.62565e-13
8.78531e-13
8.95486e-13
9.13407e-13
9.32273e-13
9.52064e-13
9.72761e-13
9.94345e-13
1.0168e-12
1.0401e-12
1.06423e-12
1.08917e-12
1.1149e-12
1.1414e-12
1.16863e-12
1.19657e-12
1.22518e-12
1.25444e-12
1.28431e-12
1.31473e-12
1.34567e-12
1.37707e-12
1.40888e-12
1.44104e-12
1.47346e-12
1.50609e-12
1.53883e-12
1.57159e-12
1.60428e-12
1.63678e-12
1.66898e-12
1.70075e-12
1.73194e-12
1.76242e-12
1.792e-12
1.82051e-12
1.84777e-12
1.87355e-12
1.89764e-12
1.91978e-12
1.93973e-12
1.95719e-12
1.97186e-12
1.98342e-12
1.99151e-12
1.99576e-12
1.99576e-12
1.99109e-12
1.98128e-12
1.96583e-12
1.94423e-12
1.91591e-12
1.88027e-12
1.83668e-12
1.78446e-12
1.72289e-12
1.65123e-12
1.56866e-12
1.47436e-12
1.36744e-12
1.24697e-12
1.112e-12
9.61512e-13
7.9448e-13
6.09841e-13
4.06508e-13
1.83384e-13
-6.06306e-14
-3.26621e-13
-6.15639e-13
-9.2868e-13
-1.26664e-12
-1.63026e-12
-2.02017e-12
-2.43732e-12
-2.88141e-12
-3.34076e-12
-3.8019e-12
-4.43715e-12
-5.69677e-12
-5.21856e-12
8.20231e-13
8.08525e-13
7.97523e-13
7.89736e-13
7.8399e-13
7.79957e-13
7.7761e-13
7.76894e-13
7.77732e-13
7.80053e-13
7.83788e-13
7.88874e-13
7.95253e-13
8.02868e-13
8.1167e-13
8.21612e-13
8.32652e-13
8.44753e-13
8.57881e-13
8.72002e-13
8.87091e-13
9.03119e-13
9.20062e-13
9.37899e-13
9.56606e-13
9.76162e-13
9.96547e-13
1.01774e-12
1.03972e-12
1.06246e-12
1.08594e-12
1.11014e-12
1.13502e-12
1.16057e-12
1.18674e-12
1.2135e-12
1.24082e-12
1.26865e-12
1.29695e-12
1.32566e-12
1.35474e-12
1.38412e-12
1.41373e-12
1.44351e-12
1.47338e-12
1.50324e-12
1.53302e-12
1.56259e-12
1.59187e-12
1.62071e-12
1.64901e-12
1.6766e-12
1.70335e-12
1.72909e-12
1.75363e-12
1.7768e-12
1.79838e-12
1.81814e-12
1.83586e-12
1.85128e-12
1.86411e-12
1.87407e-12
1.88084e-12
1.88407e-12
1.88342e-12
1.87848e-12
1.86885e-12
1.85409e-12
1.83373e-12
1.80727e-12
1.77418e-12
1.73389e-12
1.68581e-12
1.62932e-12
1.56374e-12
1.48837e-12
1.40248e-12
1.30529e-12
1.196e-12
1.07376e-12
9.37696e-13
7.86905e-13
6.20458e-13
4.37404e-13
2.36778e-13
1.76097e-14
-2.21066e-13
-4.80196e-13
-7.60692e-13
-1.06341e-12
-1.38911e-12
-1.7384e-12
-2.11181e-12
-2.51017e-12
-2.93313e-12
-3.36917e-12
-3.80508e-12
-4.40998e-12
-5.6258e-12
-5.13379e-12
8.33456e-13
8.2228e-13
8.11773e-13
8.04306e-13
7.9876e-13
7.94825e-13
7.92479e-13
7.91673e-13
7.92337e-13
7.94406e-13
7.97819e-13
8.02517e-13
8.08445e-13
8.15552e-13
8.23791e-13
8.33118e-13
8.43494e-13
8.54881e-13
8.67246e-13
8.80557e-13
8.94785e-13
9.09904e-13
9.25887e-13
9.42711e-13
9.60352e-13
9.78788e-13
9.97993e-13
1.01795e-12
1.03862e-12
1.06e-12
1.08205e-12
1.10474e-12
1.12805e-12
1.15194e-12
1.17638e-12
1.20133e-12
1.22675e-12
1.2526e-12
1.27882e-12
1.30537e-12
1.33219e-12
1.35921e-12
1.38636e-12
1.41358e-12
1.44077e-12
1.46787e-12
1.49475e-12
1.52134e-12
1.5475e-12
1.57313e-12
1.59809e-12
1.62225e-12
1.64544e-12
1.66752e-12
1.68829e-12
1.70758e-12
1.72518e-12
1.74087e-12
1.75442e-12
1.76558e-12
1.77408e-12
1.77965e-12
1.78196e-12
1.7807e-12
1.77553e-12
1.76606e-12
1.75191e-12
1.73266e-12
1.70786e-12
1.67705e-12
1.63972e-12
1.59536e-12
1.5434e-12
1.48325e-12
1.41431e-12
1.33592e-12
1.24741e-12
1.14806e-12
1.03715e-12
9.13914e-13
7.77553e-13
6.2726e-13
4.62204e-13
2.81539e-13
8.44146e-14
-1.30024e-13
-3.62619e-13
-6.14193e-13
-8.85532e-13
-1.17737e-12
-1.49034e-12
-1.82494e-12
-2.18162e-12
-2.5611e-12
-2.96299e-12
-3.37599e-12
-3.78715e-12
-4.36188e-12
-5.53227e-12
-5.0307e-12
8.45654e-13
8.34986e-13
8.24953e-13
8.17794e-13
8.12443e-13
8.08608e-13
8.06271e-13
8.05386e-13
8.05891e-13
8.07726e-13
8.10835e-13
8.15164e-13
8.20662e-13
8.27282e-13
8.3498e-13
8.43713e-13
8.53445e-13
8.64138e-13
8.75759e-13
8.88279e-13
9.01666e-13
9.15895e-13
9.30938e-13
9.4677e-13
9.63366e-13
9.80702e-13
9.98751e-13
1.01749e-12
1.03689e-12
1.05693e-12
1.07757e-12
1.09879e-12
1.12056e-12
1.14284e-12
1.16559e-12
1.18877e-12
1.21234e-12
1.23626e-12
1.26047e-12
1.28491e-12
1.30953e-12
1.33426e-12
1.35904e-12
1.38378e-12
1.4084e-12
1.43281e-12
1.45693e-12
1.48063e-12
1.50382e-12
1.52637e-12
1.54815e-12
1.56902e-12
1.58883e-12
1.60742e-12
1.62461e-12
1.64023e-12
1.65407e-12
1.66593e-12
1.67556e-12
1.68274e-12
1.68721e-12
1.68868e-12
1.68687e-12
1.68146e-12
1.67213e-12
1.65852e-12
1.64026e-12
1.61695e-12
1.58818e-12
1.5535e-12
1.51245e-12
1.46453e-12
1.40924e-12
1.34603e-12
1.27432e-12
1.19354e-12
1.10305e-12
1.00222e-12
8.90372e-13
7.66827e-13
6.30873e-13
4.81785e-13
3.18827e-13
1.41251e-13
-5.1691e-14
-2.60744e-13
-4.86639e-13
-7.30086e-13
-9.91757e-13
-1.27227e-12
-1.57217e-12
-1.89184e-12
-2.23165e-12
-2.59225e-12
-2.97319e-12
-3.36343e-12
-3.75036e-12
-4.29512e-12
-5.41871e-12
-4.91138e-12
8.56885e-13
8.46702e-13
8.37124e-13
8.30264e-13
8.25104e-13
8.2137e-13
8.19046e-13
8.18092e-13
8.18451e-13
8.20067e-13
8.22889e-13
8.26868e-13
8.31956e-13
8.38109e-13
8.45285e-13
8.53445e-13
8.62552e-13
8.72571e-13
8.8347e-13
8.95219e-13
9.07786e-13
9.21146e-13
9.3527e-13
9.50132e-13
9.65706e-13
9.81966e-13
9.98884e-13
1.01643e-12
1.03459e-12
1.05332e-12
1.07259e-12
1.09238e-12
1.11264e-12
1.13334e-12
1.15445e-12
1.17591e-12
1.19768e-12
1.21972e-12
1.24197e-12
1.26438e-12
1.28688e-12
1.3094e-12
1.33187e-12
1.35422e-12
1.37636e-12
1.3982e-12
1.41965e-12
1.4406e-12
1.46093e-12
1.48054e-12
1.49928e-12
1.51702e-12
1.53361e-12
1.5489e-12
1.56271e-12
1.57487e-12
1.58517e-12
1.59342e-12
1.59939e-12
1.60285e-12
1.60355e-12
1.60123e-12
1.59561e-12
1.58639e-12
1.57325e-12
1.55587e-12
1.53389e-12
1.50693e-12
1.47461e-12
1.43652e-12
1.39222e-12
1.34125e-12
1.28314e-12
1.21739e-12
1.14348e-12
1.06087e-12
9.68995e-13
8.67273e-13
7.55105e-13
6.31874e-13
4.96949e-13
3.49689e-13
1.89442e-13
1.55549e-14
-1.72625e-13
-3.75743e-13
-5.94429e-13
-8.29289e-13
-1.08089e-12
-1.34976e-12
-1.63633e-12
-1.94093e-12
-2.26382e-12
-2.60559e-12
-2.96576e-12
-3.33359e-12
-3.6968e-12
-4.21185e-12
-5.28748e-12
-4.7778e-12
8.67204e-13
8.57487e-13
8.48348e-13
8.41776e-13
8.36802e-13
8.33169e-13
8.30863e-13
8.29848e-13
8.30071e-13
8.31482e-13
8.34033e-13
8.37678e-13
8.42374e-13
8.48079e-13
8.54753e-13
8.6236e-13
8.70863e-13
8.8023e-13
8.90427e-13
9.01426e-13
9.13196e-13
9.25709e-13
9.38937e-13
9.52853e-13
9.6743e-13
9.82639e-13
9.98454e-13
1.01485e-12
1.03178e-12
1.04924e-12
1.06717e-12
1.08556e-12
1.10436e-12
1.12353e-12
1.14303e-12
1.16283e-12
1.18286e-12
1.20308e-12
1.22344e-12
1.24387e-12
1.26431e-12
1.2847e-12
1.30496e-12
1.32501e-12
1.34477e-12
1.36414e-12
1.38303e-12
1.40134e-12
1.41895e-12
1.43575e-12
1.4516e-12
1.46637e-12
1.47991e-12
1.49207e-12
1.50268e-12
1.51157e-12
1.51855e-12
1.52342e-12
1.52597e-12
1.52596e-12
1.52317e-12
1.51735e-12
1.50821e-12
1.4955e-12
1.47889e-12
1.45809e-12
1.43275e-12
1.40254e-12
1.36708e-12
1.326e-12
1.27888e-12
1.22532e-12
1.16487e-12
1.09708e-12
1.02147e-12
9.37548e-13
8.44813e-13
7.42741e-13
6.30794e-13
5.08425e-13
3.75076e-13
2.30182e-13
7.31749e-14
-9.65136e-14
-2.79447e-13
-4.76178e-13
-6.87243e-13
-9.13155e-13
-1.15439e-12
-1.41138e-12
-1.68447e-12
-1.97392e-12
-2.27993e-12
-2.60301e-12
-2.94264e-12
-3.28841e-12
-3.62843e-12
-4.11408e-12
-5.14085e-12
-4.63186e-12
8.76665e-13
8.67396e-13
8.58678e-13
8.52384e-13
8.47593e-13
8.4406e-13
8.41775e-13
8.40706e-13
8.40803e-13
8.42021e-13
8.44314e-13
8.47643e-13
8.51964e-13
8.57239e-13
8.63431e-13
8.70504e-13
8.78425e-13
8.87159e-13
8.96678e-13
9.06949e-13
9.17944e-13
9.29634e-13
9.41991e-13
9.54986e-13
9.68592e-13
9.8278e-13
9.9752e-13
1.01278e-12
1.02854e-12
1.04475e-12
1.06139e-12
1.07841e-12
1.09579e-12
1.11348e-12
1.13143e-12
1.1496e-12
1.16795e-12
1.18641e-12
1.20494e-12
1.22347e-12
1.24194e-12
1.26027e-12
1.2784e-12
1.29624e-12
1.31371e-12
1.33072e-12
1.34717e-12
1.36296e-12
1.37797e-12
1.39209e-12
1.40519e-12
1.41715e-12
1.4278e-12
1.43701e-12
1.44461e-12
1.45043e-12
1.4543e-12
1.456e-12
1.45535e-12
1.45213e-12
1.44611e-12
1.43705e-12
1.4247e-12
1.40878e-12
1.38903e-12
1.36513e-12
1.3368e-12
1.30369e-12
1.26547e-12
1.22179e-12
1.17227e-12
1.11653e-12
1.05418e-12
9.8479e-13
9.07937e-13
8.23179e-13
7.30061e-13
6.28118e-13
5.16875e-13
3.95848e-13
2.64548e-13
1.22485e-13
-3.08345e-14
-1.95898e-13
-3.73185e-13
-5.63166e-13
-7.66289e-13
-9.82981e-13
-1.21363e-12
-1.45859e-12
-1.71814e-12
-1.99246e-12
-2.28168e-12
-2.58624e-12
-2.90563e-12
-3.22974e-12
-3.54711e-12
-4.00373e-12
-4.98098e-12
-4.47535e-12
8.85319e-13
8.76481e-13
8.68169e-13
8.62143e-13
8.57528e-13
8.54095e-13
8.51834e-13
8.50716e-13
8.50696e-13
8.51732e-13
8.53782e-13
8.56808e-13
8.60772e-13
8.65635e-13
8.71364e-13
8.77924e-13
8.85282e-13
8.93406e-13
9.02267e-13
9.11834e-13
9.22078e-13
9.3297e-13
9.44482e-13
9.56584e-13
9.69247e-13
9.82443e-13
9.9614e-13
1.01031e-12
1.02491e-12
1.03992e-12
1.0553e-12
1.07101e-12
1.08701e-12
1.10326e-12
1.11971e-12
1.13632e-12
1.15304e-12
1.16981e-12
1.18657e-12
1.20326e-12
1.21983e-12
1.23619e-12
1.25227e-12
1.268e-12
1.28328e-12
1.29803e-12