/*--------------------------------*- C++ -*----------------------------------*\
  =========                 |
  \\      /  F ield         | OpenFOAM: The Open Source CFD Toolbox
   \\    /   O peration     | Website:  https://openfoam.org
    \\  /    A nd           | Version:  11
     \\/     M anipulation  |
\*---------------------------------------------------------------------------*/
FoamFile
{
    format      ascii;
    class       volScalarField;
    location    "574";
    object      nut;
}
// * * * * * * * * * * * * * * * * * * * * * * * * * * * * * * * * * * * * * //

dimensions      [0 2 -1 0 0 0 0];

internalField   nonuniform List<scalar> 
10000
(
0.000977118
0.000936709
0.000899654
0.000865633
0.000834357
0.00080557
0.000779038
0.000754554
0.000731929
0.000710995
0.000691599
0.000673604
0.000656887
0.000641337
0.000626851
0.000613341
0.000600722
0.000588922
0.000577872
0.000567512
0.000557785
0.000548642
0.000540037
0.000531928
0.000524277
0.00051705
0.000510215
0.000503744
0.000497609
0.000491787
0.000486255
0.000480994
0.000475985
0.000471209
0.000466653
0.000462301
0.000458139
0.000454155
0.000450338
0.000446678
0.000443164
0.000439787
0.000436539
0.000433412
0.0004304
0.000427494
0.000424689
0.000421979
0.000419359
0.000416824
0.000414368
0.000411989
0.000409682
0.000407444
0.00040527
0.00040316
0.000401108
0.000399115
0.000397177
0.000395293
0.000393461
0.000391681
0.000389952
0.000388274
0.000386646
0.00038507
0.000383546
0.000382076
0.000380661
0.000379304
0.000378009
0.000376778
0.000375616
0.000374527
0.000373517
0.000372592
0.000371758
0.000371023
0.000370394
0.000369881
0.000369492
0.000369236
0.000369123
0.000369162
0.000369362
0.000369731
0.000370278
0.000371006
0.000371919
0.000373016
0.000374292
0.000375735
0.000377323
0.000379026
0.000380797
0.000382572
0.000384263
0.00038575
0.000386883
0.000387489
0.000977118
0.000936709
0.000899654
0.000865633
0.000834357
0.00080557
0.000779038
0.000754554
0.000731929
0.000710995
0.000691599
0.000673604
0.000656887
0.000641337
0.000626852
0.000613341
0.000600723
0.000588922
0.000577872
0.000567512
0.000557785
0.000548642
0.000540037
0.000531928
0.000524278
0.000517051
0.000510216
0.000503744
0.000497609
0.000491787
0.000486256
0.000480995
0.000475985
0.00047121
0.000466654
0.000462301
0.000458139
0.000454156
0.000450339
0.000446679
0.000443165
0.000439788
0.00043654
0.000433413
0.000430401
0.000427495
0.00042469
0.00042198
0.00041936
0.000416825
0.00041437
0.000411991
0.000409684
0.000407445
0.000405272
0.000403161
0.00040111
0.000399116
0.000397178
0.000395294
0.000393463
0.000391683
0.000389954
0.000388275
0.000386648
0.000385072
0.000383548
0.000382077
0.000380663
0.000379306
0.000378011
0.00037678
0.000375618
0.000374529
0.000373519
0.000372593
0.000371759
0.000371024
0.000370396
0.000369882
0.000369493
0.000369236
0.000369123
0.000369161
0.000369361
0.00036973
0.000370276
0.000371003
0.000371916
0.000373013
0.000374288
0.00037573
0.000377317
0.00037902
0.00038079
0.000382565
0.000384255
0.000385742
0.000386875
0.000387481
0.000977118
0.000936709
0.000899654
0.000865633
0.000834357
0.00080557
0.000779038
0.000754554
0.000731929
0.000710995
0.000691599
0.000673605
0.000656888
0.000641337
0.000626852
0.000613341
0.000600723
0.000588923
0.000577873
0.000567512
0.000557786
0.000548643
0.000540038
0.000531929
0.000524278
0.000517051
0.000510217
0.000503745
0.00049761
0.000491788
0.000486257
0.000480996
0.000475986
0.000471211
0.000466655
0.000462302
0.000458141
0.000454157
0.000450341
0.00044668
0.000443166
0.00043979
0.000436542
0.000433415
0.000430402
0.000427497
0.000424692
0.000421982
0.000419362
0.000416827
0.000414372
0.000411993
0.000409686
0.000407448
0.000405275
0.000403164
0.000401113
0.000399119
0.000397182
0.000395298
0.000393466
0.000391686
0.000389957
0.000388279
0.000386651
0.000385075
0.000383551
0.000382081
0.000380666
0.00037931
0.000378014
0.000376783
0.000375621
0.000374532
0.000373521
0.000372596
0.000371762
0.000371026
0.000370397
0.000369883
0.000369493
0.000369236
0.000369122
0.00036916
0.000369358
0.000369726
0.000370271
0.000370998
0.000371909
0.000373004
0.000374278
0.000375719
0.000377306
0.000379007
0.000380777
0.00038255
0.00038424
0.000385726
0.000386859
0.000387464
0.000977118
0.000936709
0.000899654
0.000865633
0.000834357
0.00080557
0.000779039
0.000754554
0.00073193
0.000710995
0.0006916
0.000673605
0.000656888
0.000641338
0.000626852
0.000613342
0.000600724
0.000588923
0.000577874
0.000567513
0.000557787
0.000548644
0.000540039
0.00053193
0.000524279
0.000517053
0.000510218
0.000503746
0.000497612
0.00049179
0.000486258
0.000480997
0.000475988
0.000471213
0.000466657
0.000462304
0.000458143
0.000454159
0.000450343
0.000446683
0.000443169
0.000439792
0.000436544
0.000433418
0.000430405
0.0004275
0.000424695
0.000421985
0.000419366
0.00041683
0.000414376
0.000411997
0.00040969
0.000407452
0.000405279
0.000403168
0.000401117
0.000399124
0.000397186
0.000395302
0.000393471
0.000391691
0.000389962
0.000388284
0.000386656
0.00038508
0.000383556
0.000382086
0.000380672
0.000379315
0.000378019
0.000376788
0.000375625
0.000374536
0.000373525
0.000372599
0.000371765
0.000371029
0.000370399
0.000369884
0.000369493
0.000369236
0.00036912
0.000369157
0.000369354
0.000369721
0.000370264
0.000370989
0.000371898
0.000372992
0.000374264
0.000375703
0.000377288
0.000378988
0.000380756
0.000382528
0.000384217
0.000385703
0.000386835
0.000387439
0.000977118
0.000936709
0.000899654
0.000865633
0.000834358
0.00080557
0.000779039
0.000754555
0.00073193
0.000710996
0.0006916
0.000673606
0.000656889
0.000641338
0.000626853
0.000613343
0.000600724
0.000588924
0.000577874
0.000567514
0.000557788
0.000548645
0.00054004
0.000531931
0.000524281
0.000517054
0.000510219
0.000503748
0.000497613
0.000491792
0.00048626
0.000480999
0.00047599
0.000471215
0.000466659
0.000462307
0.000458145
0.000454162
0.000450346
0.000446686
0.000443172
0.000439795
0.000436548
0.000433421
0.000430409
0.000427503
0.000424699
0.00042199
0.00041937
0.000416835
0.00041438
0.000412002
0.000409695
0.000407457
0.000405284
0.000403174
0.000401123
0.00039913
0.000397192
0.000395308
0.000393477
0.000391697
0.000389969
0.000388291
0.000386663
0.000385087
0.000383563
0.000382093
0.000380678
0.000379322
0.000378026
0.000376795
0.000375632
0.000374542
0.000373531
0.000372604
0.000371769
0.000371032
0.000370402
0.000369886
0.000369494
0.000369235
0.000369118
0.000369153
0.000369348
0.000369713
0.000370254
0.000370977
0.000371884
0.000372976
0.000374246
0.000375682
0.000377265
0.000378963
0.000380729
0.0003825
0.000384187
0.000385672
0.000386803
0.000387407
0.000977118
0.000936709
0.000899654
0.000865633
0.000834358
0.000805571
0.000779039
0.000754555
0.00073193
0.000710996
0.000691601
0.000673606
0.000656889
0.000641339
0.000626854
0.000613343
0.000600725
0.000588925
0.000577876
0.000567515
0.000557789
0.000548646
0.000540041
0.000531933
0.000524282
0.000517056
0.000510221
0.00050375
0.000497616
0.000491794
0.000486263
0.000481002
0.000475993
0.000471218
0.000466662
0.00046231
0.000458148
0.000454165
0.000450349
0.000446689
0.000443176
0.000439799
0.000436552
0.000433426
0.000430413
0.000427508
0.000424704
0.000421995
0.000419375
0.00041684
0.000414386
0.000412007
0.000409701
0.000407463
0.000405291
0.00040318
0.00040113
0.000399137
0.0003972
0.000395316
0.000393485
0.000391705
0.000389977
0.000388299
0.000386672
0.000385096
0.000383572
0.000382102
0.000380687
0.00037933
0.000378034
0.000376802
0.000375639
0.000374549
0.000373538
0.00037261
0.000371774
0.000371037
0.000370405
0.000369888
0.000369495
0.000369234
0.000369115
0.000369148
0.000369342
0.000369704
0.000370243
0.000370963
0.000371868
0.000372956
0.000374223
0.000375657
0.000377237
0.000378932
0.000380696
0.000382465
0.00038415
0.000385633
0.000386763
0.000387367
0.000977118
0.00093671
0.000899655
0.000865633
0.000834358
0.000805571
0.00077904
0.000754555
0.000731931
0.000710997
0.000691601
0.000673607
0.00065689
0.00064134
0.000626855
0.000613344
0.000600727
0.000588926
0.000577877
0.000567517
0.00055779
0.000548648
0.000540043
0.000531935
0.000524284
0.000517058
0.000510223
0.000503752
0.000497618
0.000491796
0.000486266
0.000481005
0.000475996
0.000471221
0.000466665
0.000462313
0.000458152
0.000454169
0.000450353
0.000446694
0.00044318
0.000439804
0.000436557
0.000433431
0.000430419
0.000427514
0.00042471
0.000422001
0.000419381
0.000416847
0.000414393
0.000412015
0.000409708
0.000407471
0.000405298
0.000403188
0.000401138
0.000399146
0.000397208
0.000395325
0.000393494
0.000391715
0.000389986
0.000388309
0.000386682
0.000385106
0.000383582
0.000382112
0.000380697
0.00037934
0.000378044
0.000376812
0.000375648
0.000374558
0.000373546
0.000372618
0.000371781
0.000371042
0.000370409
0.000369891
0.000369496
0.000369233
0.000369112
0.000369143
0.000369334
0.000369694
0.000370229
0.000370947
0.000371848
0.000372933
0.000374197
0.000375628
0.000377204
0.000378896
0.000380657
0.000382423
0.000384106
0.000385588
0.000386717
0.00038732
0.000977118
0.00093671
0.000899655
0.000865633
0.000834358
0.000805571
0.00077904
0.000754556
0.000731931
0.000710997
0.000691602
0.000673608
0.000656891
0.000641341
0.000626856
0.000613346
0.000600728
0.000588928
0.000577878
0.000567518
0.000557792
0.00054865
0.000540045
0.000531937
0.000524287
0.00051706
0.000510226
0.000503755
0.000497621
0.000491799
0.000486269
0.000481008
0.000475999
0.000471225
0.000466669
0.000462318
0.000458157
0.000454174
0.000450358
0.000446698
0.000443185
0.00043981
0.000436563
0.000433437
0.000430425
0.00042752
0.000424716
0.000422008
0.000419389
0.000416855
0.000414401
0.000412023
0.000409717
0.000407479
0.000405307
0.000403198
0.000401148
0.000399155
0.000397218
0.000395335
0.000393505
0.000391726
0.000389998
0.00038832
0.000386693
0.000385117
0.000383593
0.000382123
0.000380709
0.000379352
0.000378055
0.000376823
0.000375659
0.000374568
0.000373555
0.000372626
0.000371788
0.000371048
0.000370414
0.000369894
0.000369497
0.000369232
0.000369109
0.000369137
0.000369326
0.000369682
0.000370215
0.000370928
0.000371826
0.000372908
0.000374168
0.000375594
0.000377167
0.000378855
0.000380613
0.000382376
0.000384057
0.000385536
0.000386664
0.000387266
0.000977118
0.00093671
0.000899655
0.000865633
0.000834358
0.000805571
0.00077904
0.000754556
0.000731932
0.000710998
0.000691603
0.000673608
0.000656892
0.000641342
0.000626857
0.000613347
0.000600729
0.000588929
0.00057788
0.00056752
0.000557794
0.000548652
0.000540047
0.000531939
0.000524289
0.000517063
0.000510229
0.000503758
0.000497624
0.000491803
0.000486272
0.000481012
0.000476003
0.000471229
0.000466674
0.000462322
0.000458161
0.000454179
0.000450363
0.000446704
0.000443191
0.000439816
0.000436569
0.000433444
0.000430432
0.000427527
0.000424724
0.000422016
0.000419397
0.000416863
0.000414409
0.000412032
0.000409726
0.000407489
0.000405317
0.000403208
0.000401159
0.000399166
0.00039723
0.000395347
0.000393517
0.000391738
0.00039001
0.000388333
0.000386706
0.00038513
0.000383607
0.000382136
0.000380722
0.000379364
0.000378068
0.000376835
0.000375671
0.000374579
0.000373566
0.000372636
0.000371797
0.000371055
0.00037042
0.000369898
0.000369499
0.000369232
0.000369106
0.000369132
0.000369317
0.00036967
0.000370198
0.000370908
0.000371802
0.000372879
0.000374135
0.000375557
0.000377126
0.00037881
0.000380564
0.000382324
0.000384002
0.000385479
0.000386605
0.000387206
0.000977118
0.00093671
0.000899655
0.000865634
0.000834359
0.000805572
0.000779041
0.000754557
0.000731932
0.000710999
0.000691603
0.000673609
0.000656893
0.000641343
0.000626858
0.000613348
0.000600731
0.000588931
0.000577882
0.000567522
0.000557796
0.000548654
0.00054005
0.000531942
0.000524292
0.000517066
0.000510232
0.000503761
0.000497628
0.000491807
0.000486276
0.000481016
0.000476008
0.000471234
0.000466678
0.000462327
0.000458167
0.000454185
0.000450369
0.00044671
0.000443198
0.000439822
0.000436576
0.000433451
0.00043044
0.000427535
0.000424732
0.000422024
0.000419406
0.000416872
0.000414419
0.000412042
0.000409737
0.0004075
0.000405329
0.00040322
0.00040117
0.000399179
0.000397242
0.00039536
0.00039353
0.000391752
0.000390024
0.000388347
0.00038672
0.000385145
0.000383621
0.000382151
0.000380736
0.000379379
0.000378082
0.000376849
0.000375684
0.000374592
0.000373577
0.000372647
0.000371806
0.000371064
0.000370426
0.000369903
0.000369501
0.000369232
0.000369103
0.000369125
0.000369307
0.000369656
0.000370181
0.000370886
0.000371776
0.000372848
0.000374099
0.000375517
0.000377081
0.000378761
0.000380511
0.000382267
0.000383941
0.000385416
0.00038654
0.00038714
0.000977118
0.00093671
0.000899655
0.000865634
0.000834359
0.000805572
0.000779041
0.000754557
0.000731933
0.000710999
0.000691604
0.00067361
0.000656894
0.000641344
0.00062686
0.00061335
0.000600732
0.000588933
0.000577884
0.000567524
0.000557798
0.000548656
0.000540052
0.000531944
0.000524295
0.000517069
0.000510235
0.000503765
0.000497631
0.000491811
0.00048628
0.000481021
0.000476012
0.000471239
0.000466684
0.000462333
0.000458173
0.000454191
0.000450376
0.000446717
0.000443205
0.00043983
0.000436584
0.000433459
0.000430448
0.000427544
0.000424741
0.000422034
0.000419416
0.000416882
0.00041443
0.000412053
0.000409748
0.000407512
0.000405341
0.000403232
0.000401183
0.000399192
0.000397256
0.000395374
0.000393545
0.000391766
0.000390039
0.000388362
0.000386736
0.00038516
0.000383637
0.000382167
0.000380752
0.000379395
0.000378098
0.000376864
0.000375699
0.000374606
0.00037359
0.000372659
0.000371817
0.000371073
0.000370434
0.000369908
0.000369504
0.000369232
0.0003691
0.000369119
0.000369297
0.000369642
0.000370163
0.000370863
0.000371748
0.000372816
0.000374061
0.000375474
0.000377033
0.000378708
0.000380453
0.000382205
0.000383876
0.000385348
0.00038647
0.000387069
0.000977118
0.00093671
0.000899655
0.000865634
0.000834359
0.000805572
0.000779041
0.000754558
0.000731934
0.000711
0.000691605
0.000673611
0.000656895
0.000641345
0.000626861
0.000613351
0.000600734
0.000588934
0.000577886
0.000567526
0.000557801
0.000548659
0.000540055
0.000531947
0.000524298
0.000517072
0.000510239
0.000503769
0.000497635
0.000491815
0.000486285
0.000481025
0.000476017
0.000471244
0.000466689
0.000462339
0.000458179
0.000454197
0.000450382
0.000446724
0.000443212
0.000439837
0.000436592
0.000433467
0.000430457
0.000427553
0.000424751
0.000422044
0.000419426
0.000416893
0.000414441
0.000412064
0.00040976
0.000407524
0.000405354
0.000403246
0.000401197
0.000399206
0.000397271
0.000395389
0.00039356
0.000391782
0.000390055
0.000388379
0.000386753
0.000385177
0.000383654
0.000382184
0.000380769
0.000379412
0.000378114
0.000376881
0.000375715
0.000374621
0.000373605
0.000372672
0.000371829
0.000371083
0.000370442
0.000369914
0.000369508
0.000369232
0.000369098
0.000369113
0.000369287
0.000369628
0.000370143
0.000370839
0.000371719
0.000372781
0.000374021
0.000375428
0.000376982
0.000378651
0.000380392
0.000382139
0.000383806
0.000385275
0.000386395
0.000386993
0.000977118
0.00093671
0.000899655
0.000865634
0.000834359
0.000805573
0.000779042
0.000754558
0.000731934
0.000711001
0.000691606
0.000673612
0.000656896
0.000641346
0.000626862
0.000613353
0.000600736
0.000588936
0.000577888
0.000567528
0.000557803
0.000548662
0.000540058
0.00053195
0.000524301
0.000517076
0.000510243
0.000503773
0.00049764
0.000491819
0.00048629
0.00048103
0.000476023
0.00047125
0.000466695
0.000462345
0.000458185
0.000454204
0.00045039
0.000446732
0.00044322
0.000439846
0.0004366
0.000433476
0.000430466
0.000427563
0.000424761
0.000422054
0.000419437
0.000416905
0.000414453
0.000412077
0.000409773
0.000407538
0.000405368
0.00040326
0.000401212
0.000399222
0.000397287
0.000395405
0.000393577
0.000391799
0.000390073
0.000388396
0.00038677
0.000385196
0.000383673
0.000382203
0.000380788
0.00037943
0.000378132
0.000376898
0.000375732
0.000374637
0.00037362
0.000372686
0.000371842
0.000371094
0.000370451
0.00036992
0.000369512
0.000369233
0.000369095
0.000369106
0.000369276
0.000369613
0.000370123
0.000370814
0.000371688
0.000372744
0.000373979
0.00037538
0.000376928
0.000378592
0.000380327
0.000382069
0.000383732
0.000385198
0.000386316
0.000386913
0.000977118
0.00093671
0.000899655
0.000865634
0.00083436
0.000805573
0.000779042
0.000754559
0.000731935
0.000711002
0.000691607
0.000673613
0.000656897
0.000641348
0.000626864
0.000613354
0.000600737
0.000588938
0.00057789
0.000567531
0.000557806
0.000548664
0.000540061
0.000531954
0.000524305
0.000517079
0.000510246
0.000503777
0.000497644
0.000491824
0.000486295
0.000481036
0.000476028
0.000471255
0.000466701
0.000462351
0.000458192
0.000454211
0.000450397
0.00044674
0.000443228
0.000439854
0.00043661
0.000433486
0.000430476
0.000427574
0.000424772
0.000422066
0.000419449
0.000416917
0.000414466
0.00041209
0.000409787
0.000407552
0.000405382
0.000403275
0.000401228
0.000399238
0.000397303
0.000395423
0.000393594
0.000391817
0.000390091
0.000388415
0.00038679
0.000385215
0.000383692
0.000382222
0.000380807
0.000379449
0.000378151
0.000376917
0.00037575
0.000374655
0.000373636
0.000372701
0.000371855
0.000371106
0.000370461
0.000369928
0.000369516
0.000369235
0.000369093
0.0003691
0.000369266
0.000369597
0.000370103
0.000370788
0.000371656
0.000372707
0.000373935
0.00037533
0.000376872
0.00037853
0.000380259
0.000381997
0.000383655
0.000385117
0.000386233
0.000386829
0.000977118
0.00093671
0.000899655
0.000865634
0.00083436
0.000805573
0.000779043
0.000754559
0.000731935
0.000711002
0.000691607
0.000673614
0.000656898
0.000641349
0.000626865
0.000613356
0.000600739
0.00058894
0.000577892
0.000567533
0.000557808
0.000548667
0.000540064
0.000531957
0.000524308
0.000517083
0.000510251
0.000503781
0.000497649
0.000491829
0.0004863
0.000481041
0.000476034
0.000471262
0.000466708
0.000462358
0.000458199
0.000454219
0.000450405
0.000446748
0.000443237
0.000439864
0.000436619
0.000433496
0.000430487
0.000427584
0.000424783
0.000422077
0.000419461
0.00041693
0.000414479
0.000412104
0.000409801
0.000407567
0.000405398
0.000403291
0.000401244
0.000399255
0.000397321
0.000395441
0.000393613
0.000391836
0.00039011
0.000388435
0.000386809
0.000385235
0.000383712
0.000382243
0.000380828
0.00037947
0.000378172
0.000376937
0.000375769
0.000374673
0.000373654
0.000372717
0.00037187
0.000371118
0.000370471
0.000369936
0.000369521
0.000369237
0.000369091
0.000369094
0.000369255
0.000369582
0.000370082
0.000370762
0.000371624
0.000372668
0.00037389
0.000375278
0.000376813
0.000378465
0.000380189
0.000381921
0.000383575
0.000385033
0.000386146
0.000386741
0.000977118
0.00093671
0.000899655
0.000865635
0.00083436
0.000805574
0.000779043
0.00075456
0.000731936
0.000711003
0.000691608
0.000673615
0.0006569
0.00064135
0.000626867
0.000613358
0.000600741
0.000588942
0.000577894
0.000567536
0.000557811
0.00054867
0.000540067
0.00053196
0.000524312
0.000517087
0.000510255
0.000503786
0.000497653
0.000491834
0.000486305
0.000481047
0.00047604
0.000471268
0.000466715
0.000462365
0.000458207
0.000454227
0.000450413
0.000446756
0.000443246
0.000439873
0.000436629
0.000433506
0.000430497
0.000427596
0.000424795
0.00042209
0.000419474
0.000416943
0.000414493
0.000412118
0.000409816
0.000407582
0.000405414
0.000403308
0.000401261
0.000399272
0.000397339
0.000395459
0.000393632
0.000391856
0.00039013
0.000388455
0.00038683
0.000385256
0.000383734
0.000382264
0.000380849
0.000379491
0.000378193
0.000376957
0.000375789
0.000374692
0.000373672
0.000372734
0.000371885
0.000371132
0.000370482
0.000369944
0.000369527
0.000369239
0.00036909
0.000369088
0.000369245
0.000369566
0.000370061
0.000370735
0.00037159
0.000372628
0.000373844
0.000375225
0.000376754
0.000378399
0.000380116
0.000381843
0.000383492
0.000384947
0.000386057
0.00038665
0.000977118
0.00093671
0.000899656
0.000865635
0.00083436
0.000805574
0.000779043
0.00075456
0.000731937
0.000711004
0.000691609
0.000673616
0.000656901
0.000641352
0.000626868
0.000613359
0.000600743
0.000588944
0.000577897
0.000567538
0.000557814
0.000548673
0.00054007
0.000531964
0.000524316
0.000517091
0.000510259
0.00050379
0.000497658
0.000491839
0.000486311
0.000481053
0.000476046
0.000471274
0.000466721
0.000462373
0.000458214
0.000454235
0.000450422
0.000446765
0.000443255
0.000439883
0.000436639
0.000433517
0.000430509
0.000427607
0.000424807
0.000422102
0.000419487
0.000416957
0.000414507
0.000412133
0.000409831
0.000407598
0.00040543
0.000403325
0.000401279
0.000399291
0.000397358
0.000395479
0.000393652
0.000391876
0.000390151
0.000388476
0.000386852
0.000385278
0.000383756
0.000382286
0.000380871
0.000379513
0.000378215
0.000376979
0.00037581
0.000374712
0.000373691
0.000372752
0.000371901
0.000371146
0.000370494
0.000369954
0.000369533
0.000369241
0.000369088
0.000369083
0.000369234
0.000369551
0.00037004
0.000370707
0.000371557
0.000372588
0.000373796
0.000375171
0.000376693
0.000378331
0.000380042
0.000381763
0.000383407
0.000384858
0.000385965
0.000386557
0.000977118
0.00093671
0.000899656
0.000865635
0.00083436
0.000805574
0.000779044
0.000754561
0.000731937
0.000711004
0.00069161
0.000673617
0.000656902
0.000641353
0.00062687
0.000613361
0.000600745
0.000588946
0.000577899
0.000567541
0.000557816
0.000548676
0.000540073
0.000531967
0.000524319
0.000517095
0.000510263
0.000503795
0.000497663
0.000491844
0.000486316
0.000481059
0.000476053
0.000471281
0.000466728
0.00046238
0.000458222
0.000454243
0.00045043
0.000446774
0.000443265
0.000439893
0.00043665
0.000433528
0.00043052
0.000427619
0.00042482
0.000422115
0.000419501
0.000416971
0.000414522
0.000412148
0.000409847
0.000407615
0.000405447
0.000403342
0.000401297
0.000399309
0.000397377
0.000395498
0.000393672
0.000391897
0.000390173
0.000388498
0.000386874
0.000385301
0.000383779
0.000382309
0.000380894
0.000379536
0.000378237
0.000377001
0.000375831
0.000374733
0.000373711
0.00037277
0.000371918
0.000371161
0.000370507
0.000369963
0.00036954
0.000369245
0.000369088
0.000369078
0.000369224
0.000369535
0.000370019
0.00037068
0.000371523
0.000372547
0.000373748
0.000375116
0.00037663
0.000378262
0.000379967
0.000381682
0.00038332
0.000384767
0.000385872
0.000386462
0.000977118
0.00093671
0.000899656
0.000865635
0.000834361
0.000805574
0.000779044
0.000754561
0.000731938
0.000711005
0.000691611
0.000673618
0.000656903
0.000641354
0.000626871
0.000613363
0.000600747
0.000588949
0.000577901
0.000567543
0.000557819
0.000548679
0.000540077
0.000531971
0.000524323
0.000517099
0.000510268
0.000503799
0.000497668
0.00049185
0.000486322
0.000481065
0.000476059
0.000471288
0.000466736
0.000462387
0.00045823
0.000454251
0.000450439
0.000446784
0.000443275
0.000439903
0.00043666
0.000433539
0.000430532
0.000427632
0.000424833
0.000422129
0.000419515
0.000416986
0.000414537
0.000412164
0.000409863
0.000407631
0.000405465
0.00040336
0.000401316
0.000399329
0.000397397
0.000395519
0.000393693
0.000391919
0.000390195
0.000388521
0.000386897
0.000385324
0.000383802
0.000382333
0.000380918
0.000379559
0.00037826
0.000377024
0.000375854
0.000374754
0.000373731
0.000372789
0.000371935
0.000371176
0.00037052
0.000369974
0.000369547
0.000369248
0.000369087
0.000369073
0.000369214
0.00036952
0.000369997
0.000370653
0.000371489
0.000372506
0.0003737
0.00037506
0.000376568
0.000378192
0.00037989
0.000381599
0.000383232
0.000384675
0.000385776
0.000386366
0.000977118
0.00093671
0.000899656
0.000865635
0.000834361
0.000805575
0.000779045
0.000754562
0.000731938
0.000711006
0.000691612
0.000673619
0.000656904
0.000641356
0.000626873
0.000613364
0.000600748
0.000588951
0.000577903
0.000567546
0.000557822
0.000548682
0.00054008
0.000531974
0.000524327
0.000517103
0.000510272
0.000503804
0.000497673
0.000491855
0.000486328
0.000481071
0.000476065
0.000471295
0.000466743
0.000462395
0.000458238
0.00045426
0.000450448
0.000446793
0.000443284
0.000439913
0.000436671
0.00043355
0.000430544
0.000427644
0.000424845
0.000422142
0.000419529
0.000417
0.000414552
0.00041218
0.00040988
0.000407649
0.000405482
0.000403379
0.000401335
0.000399348
0.000397417
0.00039554
0.000393714
0.00039194
0.000390217
0.000388544
0.00038692
0.000385347
0.000383826
0.000382357
0.000380942
0.000379583
0.000378284
0.000377047
0.000375876
0.000374776
0.000373752
0.000372809
0.000371953
0.000371192
0.000370533
0.000369984
0.000369554
0.000369252
0.000369087
0.000369068
0.000369205
0.000369505
0.000369976
0.000370625
0.000371455
0.000372465
0.000373652
0.000375004
0.000376504
0.000378122
0.000379813
0.000381515
0.000383143
0.000384581
0.00038568
0.000386268
0.000977118
0.00093671
0.000899656
0.000865635
0.000834361
0.000805575
0.000779045
0.000754562
0.000731939
0.000711006
0.000691613
0.00067362
0.000656905
0.000641357
0.000626874
0.000613366
0.00060075
0.000588953
0.000577906
0.000567548
0.000557825
0.000548685
0.000540083
0.000531978
0.000524331
0.000517108
0.000510277
0.000503809
0.000497678
0.000491861
0.000486334
0.000481077
0.000476072
0.000471302
0.00046675
0.000462403
0.000458246
0.000454268
0.000450457
0.000446803
0.000443294
0.000439924
0.000436682
0.000433562
0.000430556
0.000427657
0.000424859
0.000422156
0.000419543
0.000417015
0.000414567
0.000412196
0.000409897
0.000407666
0.0004055
0.000403397
0.000401354
0.000399368
0.000397438
0.000395561
0.000393736
0.000391963
0.00039024
0.000388567
0.000386944
0.000385371
0.00038385
0.000382381
0.000380966
0.000379608
0.000378308
0.000377071
0.0003759
0.000374799
0.000373773
0.000372828
0.000371971
0.000371208
0.000370547
0.000369996
0.000369563
0.000369257
0.000369087
0.000369064
0.000369195
0.00036949
0.000369956
0.000370598
0.000371421
0.000372424
0.000373603
0.000374948
0.000376441
0.000378051
0.000379735
0.000381431
0.000383054
0.000384487
0.000385583
0.000386169
0.000977118
0.00093671
0.000899656
0.000865635
0.000834361
0.000805575
0.000779045
0.000754563
0.00073194
0.000711007
0.000691613
0.000673621
0.000656906
0.000641358
0.000626875
0.000613368
0.000600752
0.000588955
0.000577908
0.000567551
0.000557827
0.000548688
0.000540087
0.000531981
0.000524335
0.000517112
0.000510281
0.000503814
0.000497683
0.000491866
0.000486339
0.000481083
0.000476079
0.000471309
0.000466757
0.000462411
0.000458255
0.000454277
0.000450466
0.000446812
0.000443304
0.000439934
0.000436693
0.000433573
0.000430568
0.000427669
0.000424872
0.00042217
0.000419557
0.00041703
0.000414583
0.000412212
0.000409913
0.000407683
0.000405519
0.000403416
0.000401373
0.000399388
0.000397458
0.000395582
0.000393758
0.000391985
0.000390263
0.00038859
0.000386968
0.000385396
0.000383874
0.000382406
0.000380991
0.000379632
0.000378333
0.000377095
0.000375923
0.000374821
0.000373795
0.000372849
0.00037199
0.000371225
0.000370561
0.000370007
0.000369571
0.000369262
0.000369088
0.00036906
0.000369187
0.000369476
0.000369935
0.000370571
0.000371387
0.000372383
0.000373555
0.000374893
0.000376377
0.00037798
0.000379657
0.000381347
0.000382964
0.000384393
0.000385486
0.000386071
0.000977118
0.00093671
0.000899656
0.000865636
0.000834361
0.000805575
0.000779046
0.000754563
0.00073194
0.000711008
0.000691614
0.000673622
0.000656907
0.000641359
0.000626877
0.000613369
0.000600754
0.000588957
0.00057791
0.000567553
0.00055783
0.000548691
0.00054009
0.000531985
0.000524338
0.000517116
0.000510285
0.000503818
0.000497689
0.000491871
0.000486345
0.000481089
0.000476085
0.000471315
0.000466765
0.000462418
0.000458263
0.000454286
0.000450475
0.000446822
0.000443314
0.000439945
0.000436704
0.000433585
0.00043058
0.000427682
0.000424885
0.000422183
0.000419572
0.000417045
0.000414599
0.000412228
0.00040993
0.000407701
0.000405537
0.000403435
0.000401393
0.000399408
0.000397479
0.000395603
0.00039378
0.000392008
0.000390286
0.000388614
0.000386992
0.00038542
0.000383899
0.000382431
0.000381016
0.000379657
0.000378357
0.000377119
0.000375947
0.000374844
0.000373817
0.000372869
0.000372009
0.000371242
0.000370576
0.000370019
0.00036958
0.000369267
0.000369089
0.000369057
0.000369178
0.000369462
0.000369915
0.000370545
0.000371354
0.000372342
0.000373507
0.000374837
0.000376314
0.00037791
0.00037958
0.000381263
0.000382874
0.000384299
0.000385388
0.000385972
0.000977118
0.00093671
0.000899656
0.000865636
0.000834362
0.000805576
0.000779046
0.000754563
0.000731941
0.000711008
0.000691615
0.000673623
0.000656908
0.000641361
0.000626878
0.000613371
0.000600756
0.000588959
0.000577912
0.000567556
0.000557833
0.000548694
0.000540093
0.000531988
0.000524342
0.00051712
0.00051029
0.000503823
0.000497694
0.000491877
0.000486351
0.000481095
0.000476092
0.000471322
0.000466772
0.000462426
0.000458271
0.000454294
0.000450484
0.000446831
0.000443324
0.000439955
0.000436715
0.000433596
0.000430592
0.000427694
0.000424898
0.000422197
0.000419586
0.00041706
0.000414614
0.000412245
0.000409947
0.000407718
0.000405555
0.000403454
0.000401412
0.000399428
0.0003975
0.000395625
0.000393802
0.00039203
0.000390309
0.000388637
0.000387016
0.000385444
0.000383924
0.000382456
0.000381041
0.000379682
0.000378382
0.000377144
0.000375971
0.000374867
0.000373839
0.00037289
0.000372028
0.000371259
0.000370591
0.000370031
0.000369589
0.000369272
0.000369091
0.000369054
0.00036917
0.000369448
0.000369896
0.000370519
0.000371321
0.000372302
0.00037346
0.000374782
0.000376252
0.00037784
0.000379503
0.000381179
0.000382785
0.000384205
0.000385291
0.000385874
0.000977118
0.00093671
0.000899656
0.000865636
0.000834362
0.000805576
0.000779046
0.000754564
0.000731941
0.000711009
0.000691616
0.000673624
0.000656909
0.000641362
0.00062688
0.000613372
0.000600757
0.000588961
0.000577915
0.000567558
0.000557835
0.000548697
0.000540096
0.000531992
0.000524346
0.000517124
0.000510294
0.000503828
0.000497698
0.000491882
0.000486356
0.000481101
0.000476098
0.000471329
0.000466779
0.000462434
0.000458279
0.000454303
0.000450493
0.000446841
0.000443334
0.000439966
0.000436726
0.000433608
0.000430604
0.000427707
0.000424911
0.000422211
0.000419601
0.000417075
0.00041463
0.000412261
0.000409964
0.000407736
0.000405573
0.000403473
0.000401432
0.000399449
0.000397521
0.000395646
0.000393824
0.000392053
0.000390332
0.000388661
0.00038704
0.000385469