/*--------------------------------*- C++ -*----------------------------------*\
  =========                 |
  \\      /  F ield         | OpenFOAM: The Open Source CFD Toolbox
   \\    /   O peration     | Website:  https://openfoam.org
    \\  /    A nd           | Version:  11
     \\/     M anipulation  |
\*---------------------------------------------------------------------------*/
FoamFile
{
    format      ascii;
    class       volScalarField;
    location    "418";
    object      k;
}
// * * * * * * * * * * * * * * * * * * * * * * * * * * * * * * * * * * * * * //

dimensions      [0 2 -2 0 0 0 0];

internalField   nonuniform List<scalar> 
10000
(
0.000939685
0.000835712
0.000745879
0.000668016
0.000600315
0.000541266
0.000489604
0.000444265
0.000404355
0.00036912
0.000337921
0.000310216
0.000285544
0.000263513
0.000243786
0.000226076
0.000210136
0.000195752
0.000182741
0.000170944
0.000160222
0.000150456
0.00014154
0.000133384
0.000125906
0.000119037
0.000112714
0.000106884
0.000101498
9.6512e-05
9.18897e-05
8.75969e-05
8.36035e-05
7.98827e-05
7.64106e-05
7.31657e-05
7.01287e-05
6.72823e-05
6.4611e-05
6.21006e-05
5.97385e-05
5.75133e-05
5.54145e-05
5.34327e-05
5.15594e-05
4.97869e-05
4.81081e-05
4.65167e-05
4.50068e-05
4.35732e-05
4.2211e-05
4.0916e-05
3.96841e-05
3.85119e-05
3.7396e-05
3.63336e-05
3.53221e-05
3.43592e-05
3.34426e-05
3.25706e-05
3.17416e-05
3.0954e-05
3.02065e-05
2.94982e-05
2.88278e-05
2.81947e-05
2.75979e-05
2.70367e-05
2.65106e-05
2.60188e-05
2.55606e-05
2.51355e-05
2.47427e-05
2.43814e-05
2.40508e-05
2.375e-05
2.34778e-05
2.32333e-05
2.30152e-05
2.28224e-05
2.26534e-05
2.25068e-05
2.2381e-05
2.22743e-05
2.21851e-05
2.21118e-05
2.20527e-05
2.20062e-05
2.19708e-05
2.19448e-05
2.19267e-05
2.1915e-05
2.19083e-05
2.19052e-05
2.19042e-05
2.19044e-05
2.19048e-05
2.19047e-05
2.19035e-05
2.19013e-05
0.000939685
0.000835712
0.000745879
0.000668016
0.000600316
0.000541267
0.000489604
0.000444265
0.000404355
0.00036912
0.000337921
0.000310216
0.000285544
0.000263513
0.000243786
0.000226076
0.000210136
0.000195752
0.000182742
0.000170944
0.000160223
0.000150456
0.000141541
0.000133384
0.000125906
0.000119037
0.000112715
0.000106884
0.000101498
9.65124e-05
9.18901e-05
8.75973e-05
8.36039e-05
7.98831e-05
7.6411e-05
7.31661e-05
7.01291e-05
6.72828e-05
6.46114e-05
6.21011e-05
5.9739e-05
5.75138e-05
5.5415e-05
5.34333e-05
5.156e-05
4.97875e-05
4.81087e-05
4.65173e-05
4.50074e-05
4.35738e-05
4.22117e-05
4.09167e-05
3.96848e-05
3.85126e-05
3.73968e-05
3.63345e-05
3.5323e-05
3.436e-05
3.34435e-05
3.25716e-05
3.17426e-05
3.0955e-05
3.02076e-05
2.94992e-05
2.88289e-05
2.81957e-05
2.7599e-05
2.70378e-05
2.65117e-05
2.60198e-05
2.55617e-05
2.51366e-05
2.47437e-05
2.43824e-05
2.40518e-05
2.3751e-05
2.34788e-05
2.32343e-05
2.30163e-05
2.28234e-05
2.26544e-05
2.25076e-05
2.23816e-05
2.22748e-05
2.21855e-05
2.21121e-05
2.20529e-05
2.20064e-05
2.19709e-05
2.19448e-05
2.19267e-05
2.1915e-05
2.19083e-05
2.19052e-05
2.19042e-05
2.19044e-05
2.19047e-05
2.19046e-05
2.19034e-05
2.19012e-05
0.000939685
0.000835712
0.000745879
0.000668016
0.000600316
0.000541267
0.000489604
0.000444266
0.000404356
0.000369121
0.000337922
0.000310217
0.000285545
0.000263514
0.000243787
0.000226077
0.000210137
0.000195753
0.000182742
0.000170945
0.000160223
0.000150457
0.000141541
0.000133385
0.000125907
0.000119038
0.000112715
0.000106885
0.000101499
9.65131e-05
9.18908e-05
8.7598e-05
8.36046e-05
7.98839e-05
7.64118e-05
7.31669e-05
7.01299e-05
6.72836e-05
6.46123e-05
6.21019e-05
5.97399e-05
5.75147e-05
5.54159e-05
5.34342e-05
5.1561e-05
4.97885e-05
4.81097e-05
4.65184e-05
4.50085e-05
4.35749e-05
4.22128e-05
4.09178e-05
3.9686e-05
3.85138e-05
3.7398e-05
3.63357e-05
3.53242e-05
3.43613e-05
3.34448e-05
3.25729e-05
3.17439e-05
3.09563e-05
3.02089e-05
2.95005e-05
2.88302e-05
2.8197e-05
2.76002e-05
2.70391e-05
2.65129e-05
2.6021e-05
2.55628e-05
2.51376e-05
2.47447e-05
2.43834e-05
2.40527e-05
2.37518e-05
2.34796e-05
2.32351e-05
2.3017e-05
2.2824e-05
2.26549e-05
2.2508e-05
2.23819e-05
2.22749e-05
2.21855e-05
2.2112e-05
2.20528e-05
2.20062e-05
2.19706e-05
2.19445e-05
2.19264e-05
2.19147e-05
2.1908e-05
2.19049e-05
2.19039e-05
2.19041e-05
2.19045e-05
2.19044e-05
2.19032e-05
2.19011e-05
0.000939686
0.000835713
0.00074588
0.000668017
0.000600317
0.000541268
0.000489605
0.000444266
0.000404357
0.000369122
0.000337923
0.000310218
0.000285546
0.000263515
0.000243788
0.000226078
0.000210138
0.000195754
0.000182743
0.000170946
0.000160224
0.000150458
0.000141542
0.000133386
0.000125908
0.000119039
0.000112717
0.000106886
0.0001015
9.65142e-05
9.18919e-05
8.75991e-05
8.36057e-05
7.9885e-05
7.64129e-05
7.3168e-05
7.01311e-05
6.72848e-05
6.46135e-05
6.21032e-05
5.97412e-05
5.7516e-05
5.54172e-05
5.34355e-05
5.15623e-05
4.97899e-05
4.81112e-05
4.65198e-05
4.501e-05
4.35764e-05
4.22143e-05
4.09194e-05
3.96876e-05
3.85154e-05
3.73997e-05
3.63374e-05
3.5326e-05
3.4363e-05
3.34466e-05
3.25746e-05
3.17456e-05
3.09581e-05
3.02106e-05
2.95023e-05
2.88319e-05
2.81987e-05
2.76019e-05
2.70406e-05
2.65144e-05
2.60224e-05
2.55642e-05
2.51389e-05
2.47459e-05
2.43844e-05
2.40536e-05
2.37526e-05
2.34803e-05
2.32357e-05
2.30175e-05
2.28244e-05
2.26551e-05
2.25081e-05
2.23819e-05
2.22748e-05
2.21853e-05
2.21117e-05
2.20524e-05
2.20057e-05
2.19701e-05
2.1944e-05
2.19258e-05
2.19141e-05
2.19075e-05
2.19044e-05
2.19035e-05
2.19037e-05
2.19041e-05
2.1904e-05
2.19029e-05
2.19007e-05
0.000939686
0.000835713
0.00074588
0.000668018
0.000600317
0.000541269
0.000489606
0.000444267
0.000404358
0.000369123
0.000337924
0.000310219
0.000285547
0.000263516
0.000243789
0.000226079
0.000210139
0.000195755
0.000182745
0.000170947
0.000160226
0.000150459
0.000141544
0.000133387
0.000125909
0.00011904
0.000112718
0.000106887
0.000101501
9.65155e-05
9.18933e-05
8.76005e-05
8.36071e-05
7.98864e-05
7.64144e-05
7.31695e-05
7.01326e-05
6.72863e-05
6.46151e-05
6.21048e-05
5.97428e-05
5.75177e-05
5.54189e-05
5.34373e-05
5.15641e-05
4.97917e-05
4.8113e-05
4.65217e-05
4.50119e-05
4.35784e-05
4.22164e-05
4.09214e-05
3.96897e-05
3.85176e-05
3.74018e-05
3.63396e-05
3.53282e-05
3.43653e-05
3.34488e-05
3.25769e-05
3.17479e-05
3.09603e-05
3.02129e-05
2.95045e-05
2.88341e-05
2.82008e-05
2.76039e-05
2.70426e-05
2.65163e-05
2.60242e-05
2.55658e-05
2.51404e-05
2.47473e-05
2.43856e-05
2.40547e-05
2.37535e-05
2.34811e-05
2.32363e-05
2.30179e-05
2.28247e-05
2.26552e-05
2.25081e-05
2.23817e-05
2.22744e-05
2.21848e-05
2.21111e-05
2.20517e-05
2.2005e-05
2.19694e-05
2.19432e-05
2.19251e-05
2.19134e-05
2.19067e-05
2.19037e-05
2.19028e-05
2.19031e-05
2.19036e-05
2.19036e-05
2.19025e-05
2.19003e-05
0.000939686
0.000835713
0.00074588
0.000668018
0.000600318
0.00054127
0.000489607
0.000444269
0.000404359
0.000369124
0.000337925
0.00031022
0.000285548
0.000263517
0.000243791
0.000226081
0.00021014
0.000195757
0.000182746
0.000170949
0.000160227
0.000150461
0.000141545
0.000133388
0.000125911
0.000119042
0.000112719
0.000106889
0.000101503
9.65172e-05
9.1895e-05
8.76022e-05
8.36089e-05
7.98882e-05
7.64162e-05
7.31714e-05
7.01345e-05
6.72882e-05
6.4617e-05
6.21068e-05
5.97448e-05
5.75197e-05
5.54211e-05
5.34394e-05
5.15663e-05
4.9794e-05
4.81153e-05
4.65241e-05
4.50143e-05
4.35809e-05
4.22189e-05
4.0924e-05
3.96923e-05
3.85202e-05
3.74045e-05
3.63423e-05
3.53309e-05
3.4368e-05
3.34516e-05
3.25797e-05
3.17506e-05
3.09631e-05
3.02156e-05
2.95072e-05
2.88367e-05
2.82034e-05
2.76064e-05
2.7045e-05
2.65185e-05
2.60263e-05
2.55678e-05
2.51422e-05
2.47489e-05
2.43871e-05
2.40559e-05
2.37545e-05
2.34819e-05
2.32369e-05
2.30183e-05
2.28249e-05
2.26552e-05
2.25079e-05
2.23813e-05
2.22739e-05
2.21842e-05
2.21104e-05
2.20509e-05
2.20041e-05
2.19684e-05
2.19423e-05
2.19241e-05
2.19124e-05
2.19058e-05
2.19028e-05
2.1902e-05
2.19023e-05
2.19029e-05
2.19029e-05
2.19018e-05
2.18997e-05
0.000939686
0.000835713
0.000745881
0.000668019
0.000600319
0.00054127
0.000489608
0.00044427
0.00040436
0.000369126
0.000337927
0.000310222
0.00028555
0.000263519
0.000243792
0.000226082
0.000210142
0.000195759
0.000182748
0.000170951
0.000160229
0.000150463
0.000141547
0.00013339
0.000125913
0.000119044
0.000112721
0.000106891
0.000101505
9.65192e-05
9.1897e-05
8.76042e-05
8.36109e-05
7.98903e-05
7.64183e-05
7.31735e-05
7.01367e-05
6.72905e-05
6.46193e-05
6.21091e-05
5.97472e-05
5.75222e-05
5.54235e-05
5.3442e-05
5.15689e-05
4.97966e-05
4.81181e-05
4.65268e-05
4.50172e-05
4.35837e-05
4.22218e-05
4.0927e-05
3.96953e-05
3.85233e-05
3.74076e-05
3.63454e-05
3.53341e-05
3.43713e-05
3.34548e-05
3.25829e-05
3.17539e-05
3.09663e-05
3.02188e-05
2.95103e-05
2.88398e-05
2.82064e-05
2.76093e-05
2.70477e-05
2.65211e-05
2.60288e-05
2.557e-05
2.51443e-05
2.47507e-05
2.43887e-05
2.40573e-05
2.37557e-05
2.34828e-05
2.32375e-05
2.30187e-05
2.28251e-05
2.26552e-05
2.25076e-05
2.23808e-05
2.22733e-05
2.21833e-05
2.21094e-05
2.20498e-05
2.2003e-05
2.19673e-05
2.19411e-05
2.19229e-05
2.19113e-05
2.19047e-05
2.19017e-05
2.1901e-05
2.19014e-05
2.1902e-05
2.19021e-05
2.1901e-05
2.18988e-05
0.000939686
0.000835713
0.000745881
0.000668019
0.00060032
0.000541271
0.000489609
0.000444271
0.000404362
0.000369127
0.000337928
0.000310223
0.000285552
0.00026352
0.000243794
0.000226084
0.000210144
0.00019576
0.00018275
0.000170953
0.000160231
0.000150465
0.000141549
0.000133392
0.000125915
0.000119046
0.000112723
0.000106893
0.000101507
9.65214e-05
9.18992e-05
8.76065e-05
8.36132e-05
7.98926e-05
7.64207e-05
7.3176e-05
7.01392e-05
6.7293e-05
6.46219e-05
6.21118e-05
5.97499e-05
5.75249e-05
5.54264e-05
5.34449e-05
5.15719e-05
4.97997e-05
4.81212e-05
4.653e-05
4.50204e-05
4.3587e-05
4.22252e-05
4.09304e-05
3.96988e-05
3.85268e-05
3.74112e-05
3.63491e-05
3.53378e-05
3.4375e-05
3.34585e-05
3.25866e-05
3.17576e-05
3.097e-05
3.02224e-05
2.95139e-05
2.88433e-05
2.82098e-05
2.76125e-05
2.70509e-05
2.65241e-05
2.60315e-05
2.55726e-05
2.51466e-05
2.47528e-05
2.43905e-05
2.40588e-05
2.37569e-05
2.34837e-05
2.32382e-05
2.30191e-05
2.28251e-05
2.2655e-05
2.25072e-05
2.23802e-05
2.22724e-05
2.21823e-05
2.21083e-05
2.20486e-05
2.20016e-05
2.19659e-05
2.19397e-05
2.19215e-05
2.19099e-05
2.19033e-05
2.19005e-05
2.18997e-05
2.19002e-05
2.19009e-05
2.19011e-05
2.19e-05
2.18978e-05
0.000939686
0.000835714
0.000745881
0.00066802
0.00060032
0.000541272
0.00048961
0.000444272
0.000404363
0.000369129
0.00033793
0.000310225
0.000285553
0.000263522
0.000243796
0.000226086
0.000210146
0.000195762
0.000182752
0.000170955
0.000160233
0.000150467
0.000141551
0.000133395
0.000125917
0.000119048
0.000112726
0.000106896
0.000101509
9.65238e-05
9.19017e-05
8.7609e-05
8.36158e-05
7.98953e-05
7.64234e-05
7.31787e-05
7.0142e-05
6.72959e-05
6.46248e-05
6.21148e-05
5.9753e-05
5.75281e-05
5.54296e-05
5.34482e-05
5.15752e-05
4.98031e-05
4.81246e-05
4.65336e-05
4.5024e-05
4.35908e-05
4.22289e-05
4.09343e-05
3.97027e-05
3.85308e-05
3.74153e-05
3.63532e-05
3.53419e-05
3.43791e-05
3.34627e-05
3.25908e-05
3.17618e-05
3.09741e-05
3.02265e-05
2.95179e-05
2.88472e-05
2.82136e-05
2.76162e-05
2.70543e-05
2.65274e-05
2.60346e-05
2.55754e-05
2.51491e-05
2.4755e-05
2.43924e-05
2.40605e-05
2.37582e-05
2.34847e-05
2.32388e-05
2.30194e-05
2.28252e-05
2.26548e-05
2.25067e-05
2.23794e-05
2.22715e-05
2.21812e-05
2.21069e-05
2.20471e-05
2.20001e-05
2.19643e-05
2.19381e-05
2.19199e-05
2.19083e-05
2.19018e-05
2.1899e-05
2.18983e-05
2.18989e-05
2.18997e-05
2.18999e-05
2.18989e-05
2.18966e-05
0.000939686
0.000835714
0.000745882
0.00066802
0.000600321
0.000541273
0.000489611
0.000444273
0.000404364
0.00036913
0.000337931
0.000310227
0.000285555
0.000263524
0.000243798
0.000226088
0.000210148
0.000195765
0.000182754
0.000170957
0.000160235
0.000150469
0.000141553
0.000133397
0.000125919
0.000119051
0.000112728
0.000106898
0.000101512
9.65265e-05
9.19044e-05
8.76118e-05
8.36187e-05
7.98982e-05
7.64263e-05
7.31817e-05
7.01451e-05
6.7299e-05
6.4628e-05
6.2118e-05
5.97564e-05
5.75315e-05
5.54331e-05
5.34517e-05
5.15789e-05
4.98068e-05
4.81285e-05
4.65375e-05
4.5028e-05
4.35949e-05
4.22331e-05
4.09385e-05
3.97071e-05
3.85352e-05
3.74197e-05
3.63577e-05
3.53464e-05
3.43837e-05
3.34673e-05
3.25954e-05
3.17663e-05
3.09786e-05
3.0231e-05
2.95223e-05
2.88515e-05
2.82177e-05
2.76202e-05
2.70581e-05
2.65309e-05
2.60379e-05
2.55785e-05
2.51519e-05
2.47575e-05
2.43946e-05
2.40622e-05
2.37596e-05
2.34858e-05
2.32396e-05
2.30198e-05
2.28252e-05
2.26545e-05
2.25061e-05
2.23786e-05
2.22704e-05
2.21799e-05
2.21055e-05
2.20455e-05
2.19984e-05
2.19625e-05
2.19363e-05
2.19181e-05
2.19065e-05
2.19001e-05
2.18973e-05
2.18967e-05
2.18974e-05
2.18982e-05
2.18985e-05
2.18975e-05
2.18952e-05
0.000939686
0.000835714
0.000745882
0.000668021
0.000600321
0.000541274
0.000489612
0.000444274
0.000404366
0.000369131
0.000337933
0.000310228
0.000285557
0.000263526
0.0002438
0.00022609
0.00021015
0.000195767
0.000182756
0.000170959
0.000160238
0.000150471
0.000141556
0.000133399
0.000125922
0.000119053
0.000112731
0.000106901
0.000101515
9.65294e-05
9.19073e-05
8.76148e-05
8.36217e-05
7.99013e-05
7.64295e-05
7.3185e-05
7.01484e-05
6.73024e-05
6.46315e-05
6.21216e-05
5.976e-05
5.75352e-05
5.54369e-05
5.34557e-05
5.15829e-05
4.98109e-05
4.81327e-05
4.65418e-05
4.50324e-05
4.35993e-05
4.22377e-05
4.09431e-05
3.97118e-05
3.854e-05
3.74246e-05
3.63626e-05
3.53514e-05
3.43887e-05
3.34723e-05
3.26004e-05
3.17713e-05
3.09836e-05
3.02359e-05
2.95271e-05
2.88562e-05
2.82222e-05
2.76245e-05
2.70623e-05
2.65348e-05
2.60416e-05
2.55818e-05
2.51549e-05
2.47602e-05
2.43969e-05
2.40642e-05
2.37612e-05
2.34869e-05
2.32403e-05
2.30202e-05
2.28252e-05
2.26541e-05
2.25054e-05
2.23776e-05
2.22691e-05
2.21784e-05
2.21038e-05
2.20437e-05
2.19965e-05
2.19605e-05
2.19342e-05
2.19161e-05
2.19045e-05
2.18981e-05
2.18954e-05
2.18949e-05
2.18956e-05
2.18965e-05
2.18969e-05
2.18959e-05
2.18937e-05
0.000939686
0.000835714
0.000745882
0.000668021
0.000600322
0.000541275
0.000489613
0.000444276
0.000404367
0.000369133
0.000337934
0.00031023
0.000285559
0.000263528
0.000243802
0.000226092
0.000210152
0.000195769
0.000182759
0.000170962
0.00016024
0.000150474
0.000141559
0.000133402
0.000125925
0.000119056
0.000112734
0.000106904
0.000101518
9.65324e-05
9.19104e-05
8.7618e-05
8.3625e-05
7.99046e-05
7.64329e-05
7.31884e-05
7.01519e-05
6.73061e-05
6.46352e-05
6.21254e-05
5.97639e-05
5.75392e-05
5.5441e-05
5.34599e-05
5.15872e-05
4.98153e-05
4.81372e-05
4.65464e-05
4.50371e-05
4.36041e-05
4.22426e-05
4.09481e-05
3.97168e-05
3.85451e-05
3.74298e-05
3.63678e-05
3.53567e-05
3.4394e-05
3.34777e-05
3.26058e-05
3.17767e-05
3.09889e-05
3.02411e-05
2.95322e-05
2.88612e-05
2.82271e-05
2.76292e-05
2.70667e-05
2.6539e-05
2.60454e-05
2.55854e-05
2.51581e-05
2.4763e-05
2.43993e-05
2.40662e-05
2.37628e-05
2.34881e-05
2.32411e-05
2.30205e-05
2.28252e-05
2.26537e-05
2.25047e-05
2.23765e-05
2.22678e-05
2.21768e-05
2.2102e-05
2.20418e-05
2.19944e-05
2.19584e-05
2.1932e-05
2.19139e-05
2.19023e-05
2.1896e-05
2.18933e-05
2.18929e-05
2.18937e-05
2.18947e-05
2.1895e-05
2.18941e-05
2.18919e-05
0.000939686
0.000835714
0.000745883
0.000668021
0.000600323
0.000541275
0.000489614
0.000444277
0.000404368
0.000369134
0.000337936
0.000310232
0.000285561
0.00026353
0.000243804
0.000226094
0.000210155
0.000195771
0.000182761
0.000170964
0.000160243
0.000150477
0.000141561
0.000133405
0.000125928
0.000119059
0.000112737
0.000106907
0.000101521
9.65356e-05
9.19137e-05
8.76213e-05
8.36284e-05
7.99081e-05
7.64365e-05
7.31921e-05
7.01557e-05
6.73099e-05
6.46392e-05
6.21295e-05
5.97681e-05
5.75435e-05
5.54454e-05
5.34643e-05
5.15918e-05
4.982e-05
4.8142e-05
4.65513e-05
4.50421e-05
4.36092e-05
4.22478e-05
4.09534e-05
3.97222e-05
3.85506e-05
3.74353e-05
3.63735e-05
3.53624e-05
3.43997e-05
3.34834e-05
3.26115e-05
3.17824e-05
3.09945e-05
3.02467e-05
2.95377e-05
2.88665e-05
2.82322e-05
2.76341e-05
2.70714e-05
2.65435e-05
2.60496e-05
2.55891e-05
2.51615e-05
2.4766e-05
2.44019e-05
2.40684e-05
2.37645e-05
2.34894e-05
2.32419e-05
2.30209e-05
2.28252e-05
2.26533e-05
2.25038e-05
2.23754e-05
2.22663e-05
2.21751e-05
2.21001e-05
2.20396e-05
2.19922e-05
2.1956e-05
2.19297e-05
2.19115e-05
2.19e-05
2.18936e-05
2.1891e-05
2.18906e-05
2.18915e-05
2.18926e-05
2.1893e-05
2.18921e-05
2.18899e-05
0.000939686
0.000835714
0.000745883
0.000668022
0.000600323
0.000541276
0.000489615
0.000444278
0.000404369
0.000369136
0.000337938
0.000310233
0.000285562
0.000263532
0.000243806
0.000226097
0.000210157
0.000195774
0.000182763
0.000170967
0.000160245
0.000150479
0.000141564
0.000133408
0.000125931
0.000119062
0.00011274
0.00010691
0.000101524
9.65389e-05
9.19171e-05
8.76248e-05
8.3632e-05
7.99118e-05
7.64403e-05
7.3196e-05
7.01596e-05
6.7314e-05
6.46433e-05
6.21337e-05
5.97724e-05
5.7548e-05
5.545e-05
5.3469e-05
5.15966e-05
4.98249e-05
4.8147e-05
4.65564e-05
4.50474e-05
4.36146e-05
4.22533e-05
4.0959e-05
3.97279e-05
3.85564e-05
3.74412e-05
3.63794e-05
3.53684e-05
3.44058e-05
3.34894e-05
3.26175e-05
3.17884e-05
3.10005e-05
3.02526e-05
2.95434e-05
2.88721e-05
2.82377e-05
2.76393e-05
2.70764e-05
2.65481e-05
2.60539e-05
2.55931e-05
2.51651e-05
2.47692e-05
2.44046e-05
2.40706e-05
2.37663e-05
2.34907e-05
2.32428e-05
2.30213e-05
2.28251e-05
2.26528e-05
2.2503e-05
2.23742e-05
2.22648e-05
2.21733e-05
2.2098e-05
2.20374e-05
2.19898e-05
2.19535e-05
2.19271e-05
2.19089e-05
2.18974e-05
2.18911e-05
2.18885e-05
2.18882e-05
2.18891e-05
2.18903e-05
2.18908e-05
2.18899e-05
2.18877e-05
0.000939686
0.000835714
0.000745883
0.000668022
0.000600324
0.000541277
0.000489616
0.000444279
0.000404371
0.000369137
0.000337939
0.000310235
0.000285564
0.000263534
0.000243808
0.000226099
0.000210159
0.000195776
0.000182766
0.000170969
0.000160248
0.000150482
0.000141567
0.000133411
0.000125934
0.000119065
0.000112743
0.000106913
0.000101527
9.65424e-05
9.19207e-05
8.76284e-05
8.36357e-05
7.99156e-05
7.64442e-05
7.32e-05
7.01638e-05
6.73182e-05
6.46477e-05
6.21382e-05
5.9777e-05
5.75526e-05
5.54548e-05
5.34739e-05
5.16016e-05
4.98301e-05
4.81523e-05
4.65618e-05
4.50529e-05
4.36202e-05
4.2259e-05
4.09649e-05
3.97339e-05
3.85625e-05
3.74473e-05
3.63856e-05
3.53746e-05
3.44121e-05
3.34958e-05
3.26239e-05
3.17947e-05
3.10067e-05
3.02587e-05
2.95495e-05
2.8878e-05
2.82434e-05
2.76448e-05
2.70816e-05
2.6553e-05
2.60585e-05
2.55973e-05
2.51689e-05
2.47725e-05
2.44075e-05
2.4073e-05
2.37682e-05
2.34921e-05
2.32437e-05
2.30217e-05
2.2825e-05
2.26523e-05
2.25021e-05
2.23729e-05
2.22632e-05
2.21714e-05
2.20958e-05
2.2035e-05
2.19872e-05
2.19509e-05
2.19244e-05
2.19061e-05
2.18946e-05
2.18883e-05
2.18858e-05
2.18856e-05
2.18866e-05
2.18878e-05
2.18883e-05
2.18875e-05
2.18853e-05
0.000939686
0.000835715
0.000745883
0.000668022
0.000600324
0.000541277
0.000489617
0.000444279
0.000404372
0.000369138
0.00033794
0.000310237
0.000285566
0.000263536
0.00024381
0.000226101
0.000210161
0.000195779
0.000182768
0.000170972
0.000160251
0.000150485
0.00014157
0.000133414
0.000125937
0.000119068
0.000112746
0.000106917
0.000101531
9.65459e-05
9.19243e-05
8.76322e-05
8.36395e-05
7.99195e-05
7.64482e-05
7.32041e-05
7.0168e-05
6.73226e-05
6.46522e-05
6.21428e-05
5.97817e-05
5.75575e-05
5.54597e-05
5.3479e-05
5.16069e-05
4.98355e-05
4.81578e-05
4.65675e-05
4.50587e-05
4.36261e-05
4.2265e-05
4.0971e-05
3.97401e-05
3.85688e-05
3.74537e-05
3.63921e-05
3.53812e-05
3.44186e-05
3.35023e-05
3.26304e-05
3.18012e-05
3.10132e-05
3.02651e-05
2.95557e-05
2.88841e-05
2.82493e-05
2.76505e-05
2.7087e-05
2.65581e-05
2.60632e-05
2.56016e-05
2.51728e-05
2.4776e-05
2.44104e-05
2.40755e-05
2.37702e-05
2.34935e-05
2.32446e-05
2.30221e-05
2.2825e-05
2.26518e-05
2.25011e-05
2.23715e-05
2.22615e-05
2.21693e-05
2.20936e-05
2.20325e-05
2.19846e-05
2.19481e-05
2.19215e-05
2.19032e-05
2.18917e-05
2.18854e-05
2.1883e-05
2.18828e-05
2.18838e-05
2.1885e-05
2.18857e-05
2.18849e-05
2.18827e-05
0.000939686
0.000835715
0.000745883
0.000668023
0.000600325
0.000541278
0.000489617
0.00044428
0.000404373
0.000369139
0.000337942
0.000310238
0.000285568
0.000263537
0.000243812
0.000226103
0.000210164
0.000195781
0.000182771
0.000170974
0.000160253
0.000150488
0.000141573
0.000133417
0.00012594
0.000119071
0.00011275
0.00010692
0.000101534
9.65495e-05
9.1928e-05
8.7636e-05
8.36434e-05
7.99236e-05
7.64524e-05
7.32084e-05
7.01724e-05
6.73271e-05
6.46568e-05
6.21475e-05
5.97866e-05
5.75625e-05
5.54649e-05
5.34843e-05
5.16123e-05
4.9841e-05
4.81635e-05
4.65733e-05
4.50646e-05
4.36322e-05
4.22712e-05
4.09773e-05
3.97465e-05
3.85753e-05
3.74603e-05
3.63988e-05
3.53879e-05
3.44254e-05
3.35092e-05
3.26372e-05
3.1808e-05
3.10199e-05
3.02717e-05
2.95622e-05
2.88904e-05
2.82554e-05
2.76563e-05
2.70925e-05
2.65633e-05
2.60681e-05
2.56061e-05
2.51768e-05
2.47795e-05
2.44135e-05
2.4078e-05
2.37722e-05
2.3495e-05
2.32456e-05
2.30226e-05
2.28249e-05
2.26512e-05
2.25001e-05
2.23701e-05
2.22597e-05
2.21672e-05
2.20912e-05
2.20299e-05
2.19818e-05
2.19452e-05
2.19185e-05
2.19002e-05
2.18886e-05
2.18824e-05
2.18799e-05
2.18797e-05
2.18808e-05
2.18821e-05
2.18828e-05
2.18821e-05
2.18799e-05
0.000939686
0.000835715
0.000745884
0.000668023
0.000600325
0.000541278
0.000489618
0.000444281
0.000404374
0.000369141
0.000337943
0.00031024
0.000285569
0.000263539
0.000243814
0.000226105
0.000210166
0.000195783
0.000182773
0.000170977
0.000160256
0.00015049
0.000141576
0.00013342
0.000125943
0.000119075
0.000112753
0.000106923
0.000101538
9.65532e-05
9.19318e-05
8.76399e-05
8.36475e-05
7.99277e-05
7.64566e-05
7.32128e-05
7.01769e-05
6.73317e-05
6.46615e-05
6.21524e-05
5.97916e-05
5.75676e-05
5.54702e-05
5.34897e-05
5.16178e-05
4.98467e-05
4.81693e-05
4.65793e-05
4.50707e-05
4.36384e-05
4.22776e-05
4.09838e-05
3.97531e-05
3.8582e-05
3.74672e-05
3.64056e-05
3.53949e-05
3.44324e-05
3.35162e-05
3.26442e-05
3.1815e-05
3.10268e-05
3.02785e-05
2.95689e-05
2.88969e-05
2.82617e-05
2.76624e-05
2.70983e-05
2.65687e-05
2.60731e-05
2.56107e-05
2.5181e-05
2.47832e-05
2.44167e-05
2.40807e-05
2.37743e-05
2.34966e-05
2.32465e-05
2.30231e-05
2.28249e-05
2.26507e-05
2.24991e-05
2.23687e-05
2.22579e-05
2.21651e-05
2.20888e-05
2.20272e-05
2.19789e-05
2.19422e-05
2.19154e-05
2.1897e-05
2.18854e-05
2.18791e-05
2.18767e-05
2.18766e-05
2.18777e-05
2.1879e-05
2.18797e-05
2.18791e-05
2.18769e-05
0.000939686
0.000835715
0.000745884
0.000668023
0.000600325
0.000541279
0.000489619
0.000444282
0.000404375
0.000369142
0.000337944
0.000310241
0.000285571
0.000263541
0.000243816
0.000226107
0.000210168
0.000195785
0.000182776
0.000170979
0.000160259
0.000150493
0.000141578
0.000133423
0.000125946
0.000119078
0.000112756
0.000106927
0.000101541
9.65569e-05
9.19356e-05
8.76438e-05
8.36515e-05
7.99319e-05
7.64609e-05
7.32172e-05
7.01815e-05
6.73364e-05
6.46664e-05
6.21574e-05
5.97967e-05
5.75729e-05
5.54756e-05
5.34953e-05
5.16235e-05
4.98525e-05
4.81753e-05
4.65854e-05
4.5077e-05
4.36448e-05
4.22841e-05
4.09904e-05
3.97599e-05
3.85889e-05
3.74741e-05
3.64127e-05
3.5402e-05
3.44395e-05
3.35233e-05
3.26514e-05
3.18221e-05
3.10339e-05
3.02855e-05
2.95757e-05
2.89035e-05
2.82681e-05
2.76685e-05
2.71041e-05
2.65742e-05
2.60782e-05
2.56154e-05
2.51852e-05
2.47869e-05
2.44199e-05
2.40834e-05
2.37764e-05
2.34982e-05
2.32476e-05
2.30235e-05
2.28248e-05
2.26501e-05
2.24981e-05
2.23672e-05
2.2256e-05
2.21629e-05
2.20862e-05
2.20245e-05
2.19759e-05
2.1939e-05
2.19121e-05
2.18936e-05
2.1882e-05
2.18758e-05
2.18734e-05
2.18733e-05
2.18744e-05
2.18758e-05
2.18765e-05
2.18759e-05
2.18738e-05
0.000939686
0.000835715
0.000745884
0.000668024
0.000600326
0.000541279
0.000489619
0.000444283
0.000404376
0.000369143
0.000337946
0.000310242
0.000285572
0.000263543
0.000243817
0.000226109
0.00021017
0.000195788
0.000182778
0.000170982
0.000160261
0.000150496
0.000141581
0.000133426
0.000125949
0.000119081
0.00011276
0.00010693
0.000101545
9.65606e-05
9.19395e-05
8.76478e-05
8.36556e-05
7.99361e-05
7.64653e-05
7.32217e-05
7.01861e-05
6.73411e-05
6.46713e-05
6.21624e-05
5.98019e-05
5.75782e-05
5.5481e-05
5.35009e-05
5.16293e-05
4.98584e-05
4.81813e-05
4.65916e-05
4.50833e-05
4.36513e-05
4.22907e-05
4.09972e-05
3.97668e-05
3.85959e-05
3.74812e-05
3.64198e-05
3.54092e-05
3.44468e-05
3.35306e-05
3.26587e-05
3.18293e-05
3.1041e-05
3.02925e-05
2.95826e-05
2.89103e-05
2.82746e-05
2.76748e-05
2.71101e-05
2.65799e-05
2.60834e-05
2.56202e-05
2.51895e-05
2.47908e-05
2.44232e-05
2.40861e-05
2.37786e-05
2.34998e-05
2.32486e-05
2.3024e-05
2.28248e-05
2.26496e-05
2.2497e-05
2.23657e-05
2.22541e-05
2.21606e-05
2.20837e-05
2.20216e-05
2.19729e-05
2.19358e-05
2.19088e-05
2.18902e-05
2.18786e-05
2.18723e-05
2.18699e-05
2.18698e-05
2.1871e-05
2.18724e-05
2.18732e-05
2.18726e-05
2.18705e-05
0.000939686
0.000835715
0.000745884
0.000668024
0.000600326
0.00054128
0.00048962
0.000444284
0.000404376
0.000369144
0.000337947
0.000310244
0.000285574
0.000263544
0.000243819
0.000226111
0.000210172
0.00019579
0.00018278
0.000170984
0.000160264
0.000150499
0.000141584
0.000133429
0.000125952
0.000119084
0.000112763
0.000106934
0.000101549
9.65644e-05
9.19433e-05
8.76518e-05
8.36597e-05
7.99404e-05
7.64697e-05
7.32262e-05
7.01908e-05
6.7346e-05
6.46762e-05
6.21675e-05
5.98071e-05
5.75836e-05
5.54866e-05
5.35066e-05
5.16351e-05
4.98644e-05
4.81875e-05
4.65979e-05
4.50898e-05
4.36579e-05
4.22975e-05
4.10041e-05
3.97738e-05
3.86029e-05
3.74884e-05
3.64271e-05
3.54165e-05
3.44542e-05
3.3538e-05
3.2666e-05
3.18367e-05
3.10483e-05
3.02997e-05
2.95897e-05
2.89171e-05
2.82812e-05
2.76812e-05
2.71162e-05
2.65856e-05
2.60887e-05
2.56251e-05
2.51939e-05
2.47947e-05
2.44266e-05
2.40889e-05
2.37808e-05
2.35014e-05
2.32497e-05
2.30245e-05
2.28247e-05
2.2649e-05
2.2496e-05
2.23642e-05
2.22522e-05
2.21583e-05
2.2081e-05
2.20187e-05
2.19698e-05
2.19325e-05
2.19054e-05
2.18867e-05
2.1875e-05
2.18687e-05
2.18663e-05
2.18663e-05
2.18675e-05
2.18689e-05
2.18697e-05
2.18692e-05
2.18671e-05
0.000939686
0.000835715
0.000745884
0.000668024
0.000600326
0.00054128
0.00048962
0.000444284
0.000404377
0.000369145
0.000337948
0.000310245
0.000285575
0.000263546
0.000243821
0.000226113
0.000210174
0.000195792
0.000182783
0.000170987
0.000160267
0.000150501
0.000141587
0.000133432
0.000125955
0.000119088
0.000112766
0.000106937
0.000101552
9.65681e-05
9.19472e-05
8.76558e-05
8.36639e-05
7.99446e-05
7.64741e-05
7.32308e-05
7.01954e-05
6.73508e-05
6.46812e-05
6.21726e-05
5.98124e-05
5.7589e-05
5.54922e-05
5.35123e-05
5.1641e-05
4.98705e-05
4.81937e-05
4.66042e-05
4.50963e-05
4.36645e-05
4.23042e-05
4.1011e-05
3.97808e-05
3.86101e-05
3.74956e-05
3.64344e-05
3.54239e-05
3.44616e-05
3.35454e-05
3.26735e-05
3.18441e-05
3.10557e-05
3.03069e-05
2.95968e-05
2.89241e-05
2.82879e-05
2.76876e-05
2.71223e-05
2.65913e-05
2.60941e-05
2.563e-05
2.51984e-05
2.47986e-05
2.443e-05
2.40917e-05
2.37831e-05
2.35031e-05
2.32508e-05
2.30251e-05
2.28247e-05
2.26484e-05
2.24949e-05
2.23627e-05
2.22502e-05
2.2156e-05
2.20784e-05
2.20158e-05
2.19666e-05
2.19292e-05
2.19019e-05
2.18831e-05
2.18714e-05
2.1865e-05
2.18626e-05
2.18626e-05
2.18639e-05
2.18653e-05
2.18661e-05
2.18656e-05
2.18635e-05
0.000939686
0.000835715
0.000745884
0.000668024
0.000600327
0.000541281
0.000489621
0.000444285
0.000404378
0.000369146
0.000337949
0.000310246
0.000285577
0.000263547
0.000243823
0.000226115
0.000210176
0.000195794
0.000182785
0.000170989
0.000160269
0.000150504
0.00014159
0.000133435
0.000125958
0.000119091
0.00011277
0.000106941
0.000101556
9.65718e-05
9.19511e-05
8.76598e-05
8.3668e-05
7.99489e-05
7.64785e-05
7.32353e-05
7.02001e-05
6.73556e-05
6.46862e-05
6.21778e-05
5.98177e-05
5.75945e-05
5.54978e-05
5.35181e-05
5.16469e-05
4.98766e-05
4.81999e-05
4.66106e-05
4.51028e-05
4.36712e-05
4.23111e-05
4.10179e-05
3.97879e-05
3.86173e-05
3.75029e-05
3.64418e-05
3.54313e-05
3.44691e-05
3.35529e-05
3.2681e-05
3.18515e-05
3.1063e-05
3.03142e-05
2.96039e-05
2.8931e-05
2.82946e-05
2.7694e-05
2.71284e-05
2.65971e-05
2.60995e-05
2.56349e-05
2.52028e-05
2.48025e-05
2.44334e-05
2.40946e-05
2.37854e-05
2.35048e-05
2.32519e-05
2.30256e-05
2.28247e-05
2.26479e-05
2.24939e-05
2.23611e-05
2.22483e-05
2.21536e-05
2.20757e-05
2.20128e-05
2.19634e-05
2.19258e-05
2.18983e-05
2.18795e-05
2.18677e-05
2.18613e-05
2.18589e-05
2.18588e-05
2.18601e-05
2.18616e-05
2.18624e-05
2.18619e-05
2.18599e-05
0.000939686
0.000835715
0.000745884
0.000668025
0.000600327
0.000541281
0.000489621
0.000444286
0.000404379
0.000369147
0.00033795
0.000310247
0.000285578
0.000263549
0.000243824
0.000226116
0.000210178
0.000195796
0.000182787
0.000170992
0.000160272
0.000150507
0.000141593
0.000133438
0.000125961
0.000119094
0.000112773
0.000106944
0.000101559
9.65755e-05
9.19549e-05
8.76637e-05
8.36721e-05
7.99531e-05
7.64829e-05
7.32398e-05
7.02048e-05
6.73604e-05
6.46912e-05
6.21829e-05
5.9823e-05
5.75999e-05
5.55034e-05
5.35238e-05
5.16528e-05
4.98826e-05
4.82061e-05
4.6617e-05
4.51093e-05
4.36779e-05
4.23179e-05
4.10249e-05
3.97949e-05
3.86245e-05
3.75102e-05
3.64492e-05
3.54387e-05
3.44765e-05
3.35604e-05
3.26885e-05
3.1859e-05
3.10704e-05
3.03215e-05
2.9611e-05
2.89379e-05
2.83014e-05
2.77005e-05
2.71345e-05
2.66029e-05
2.61048e-05
2.56399e-05
2.52073e-05
2.48065e-05
2.44368e-05
2.40975e-05
2.37877e-05
2.35065e-05
2.3253e-05
2.30261e-05
2.28247e-05
2.26473e-05
2.24928e-05
2.23596e-05
2.22463e-05
2.21513e-05
2.2073e-05
2.20099e-05
2.19602e-05
2.19224e-05
2.18948e-05
2.18758e-05
2.18639e-05
2.18575e-05
2.18551e-05
2.1855e-05
2.18563e-05
2.18578e-05
2.18587e-05
2.18582e-05
2.18561e-05
0.000939686
0.000835715
0.000745885
0.000668025
0.000600327
0.000541281
0.000489622
0.000444286
0.00040438
0.000369147
0.000337951
0.000310249
0.000285579
0.00026355
0.000243826
0.000226118
0.00021018
0.000195798
0.000182789
0.000170994
0.000160274
0.000150509
0.000141595
0.00013344
0.000125964
0.000119097
0.000112776
0.000106948
0.000101563
9.65791e-05
9.19586e-05
8.76677e-05
8.36761e-05
7.99573e-05
7.64872e-05
7.32443e-05
7.02094e-05
6.73652e-05
6.46961e-05
6.2188e-05
5.98282e-05
5.76053e-05
5.55089e-05
5.35296e-05
5.16587e-05
4.98887e-05
4.82124e-05
4.66233e-05
4.51158e-05
4.36846e-05
4.23247e-05
4.10318e-05
3.9802e-05
3.86316e-05
3.75174e-05
3.64565e-05
3.54462e-05
3.4484e-05
3.35679e-05
3.26959e-05
3.18664e-05
3.10778e-05
3.03287e-05
2.96181e-05
2.89449e-05