/*--------------------------------*- C++ -*----------------------------------*\
  =========                 |
  \\      /  F ield         | OpenFOAM: The Open Source CFD Toolbox
   \\    /   O peration     | Website:  https://openfoam.org
    \\  /    A nd           | Version:  11
     \\/     M anipulation  |
\*---------------------------------------------------------------------------*/
FoamFile
{
    format      ascii;
    class       volScalarField;
    location    "224";
    object      k;
}
// * * * * * * * * * * * * * * * * * * * * * * * * * * * * * * * * * * * * * //

dimensions      [0 2 -2 0 0 0 0];

internalField   nonuniform List<scalar> 
10000
(
0.000939674
0.000835669
0.000745796
0.000667886
0.000600132
0.000541024
0.000489297
0.000443888
0.000403905
0.000368593
0.000337313
0.000309525
0.000284769
0.00026265
0.000242836
0.000225037
0.000209008
0.000194536
0.000181437
0.000169553
0.000158748
0.000148901
0.000139909
0.000131682
0.00012414
0.000117215
0.000110847
0.000104983
9.9576e-05
9.45865e-05
8.99789e-05
8.57218e-05
8.17883e-05
7.81542e-05
7.47987e-05
7.17033e-05
6.88515e-05
6.62287e-05
6.38219e-05
6.1619e-05
5.9609e-05
5.77815e-05
5.61264e-05
5.4634e-05
5.32947e-05
5.20992e-05
5.10379e-05
5.01015e-05
4.92806e-05
4.85659e-05
4.79483e-05
4.74193e-05
4.6971e-05
4.65953e-05
4.6285e-05
4.60328e-05
4.5832e-05
4.56764e-05
4.55602e-05
4.54782e-05
4.54257e-05
4.53988e-05
4.53936e-05
4.54063e-05
4.54351e-05
4.54766e-05
4.55286e-05
4.55889e-05
4.56558e-05
4.57276e-05
4.58029e-05
4.58804e-05
4.59591e-05
4.6038e-05
4.61162e-05
4.61932e-05
4.62684e-05
4.63411e-05
4.64111e-05
4.6478e-05
4.65415e-05
4.66015e-05
4.66578e-05
4.67102e-05
4.67588e-05
4.68035e-05
4.68443e-05
4.68813e-05
4.69144e-05
4.69439e-05
4.69697e-05
4.69921e-05
4.7011e-05
4.70268e-05
4.70395e-05
4.70494e-05
4.70567e-05
4.70616e-05
4.70643e-05
4.7065e-05
0.000939674
0.00083567
0.000745797
0.000667888
0.000600134
0.000541026
0.000489299
0.00044389
0.000403907
0.000368595
0.000337316
0.000309528
0.000284771
0.000262653
0.000242838
0.00022504
0.00020901
0.000194538
0.000181439
0.000169556
0.00015875
0.000148903
0.000139912
0.000131684
0.000124143
0.000117218
0.00011085
0.000104986
9.95792e-05
9.45899e-05
8.99824e-05
8.57255e-05
8.17921e-05
7.81582e-05
7.48028e-05
7.17075e-05
6.88558e-05
6.62331e-05
6.38264e-05
6.16236e-05
5.96136e-05
5.7786e-05
5.61309e-05
5.46384e-05
5.32991e-05
5.21035e-05
5.10421e-05
5.01056e-05
4.92845e-05
4.85698e-05
4.79524e-05
4.74237e-05
4.69754e-05
4.65997e-05
4.62891e-05
4.60366e-05
4.58353e-05
4.56792e-05
4.55625e-05
4.54801e-05
4.54275e-05
4.54004e-05
4.53951e-05
4.54077e-05
4.54363e-05
4.54778e-05
4.55297e-05
4.559e-05
4.56568e-05
4.57286e-05
4.58038e-05
4.58812e-05
4.59599e-05
4.60387e-05
4.61169e-05
4.61939e-05
4.6269e-05
4.63417e-05
4.64117e-05
4.64785e-05
4.6542e-05
4.6602e-05
4.66582e-05
4.67106e-05
4.67592e-05
4.68039e-05
4.68446e-05
4.68816e-05
4.69147e-05
4.69442e-05
4.697e-05
4.69923e-05
4.70113e-05
4.7027e-05
4.70398e-05
4.70497e-05
4.70569e-05
4.70618e-05
4.70645e-05
4.70653e-05
0.000939674
0.000835671
0.000745799
0.000667891
0.000600138
0.00054103
0.000489303
0.000443895
0.000403912
0.0003686
0.00033732
0.000309532
0.000284775
0.000262657
0.000242843
0.000225044
0.000209015
0.000194542
0.000181444
0.00016956
0.000158755
0.000148908
0.000139916
0.000131689
0.000124148
0.000117223
0.000110855
0.000104991
9.95844e-05
9.45952e-05
8.99878e-05
8.5731e-05
8.17976e-05
7.81638e-05
7.48085e-05
7.17132e-05
6.88615e-05
6.62389e-05
6.38321e-05
6.16291e-05
5.9619e-05
5.77913e-05
5.61359e-05
5.46432e-05
5.33036e-05
5.21077e-05
5.1046e-05
5.01091e-05
4.92878e-05
4.85728e-05
4.79552e-05
4.74264e-05
4.6978e-05
4.66021e-05
4.62912e-05
4.60383e-05
4.58366e-05
4.56801e-05
4.55631e-05
4.54805e-05
4.54276e-05
4.54004e-05
4.5395e-05
4.54075e-05
4.5436e-05
4.54774e-05
4.55293e-05
4.55896e-05
4.56564e-05
4.57282e-05
4.58034e-05
4.58809e-05
4.59595e-05
4.60383e-05
4.61166e-05
4.61936e-05
4.62687e-05
4.63414e-05
4.64114e-05
4.64783e-05
4.65418e-05
4.66018e-05
4.6658e-05
4.67105e-05
4.67591e-05
4.68038e-05
4.68446e-05
4.68815e-05
4.69147e-05
4.69442e-05
4.697e-05
4.69924e-05
4.70114e-05
4.70272e-05
4.704e-05
4.70499e-05
4.70572e-05
4.70622e-05
4.70649e-05
4.70657e-05
0.000939675
0.000835672
0.000745802
0.000667894
0.000600142
0.000541035
0.000489308
0.0004439
0.000403918
0.000368606
0.000337326
0.000309539
0.000284782
0.000262664
0.000242849
0.000225051
0.000209021
0.000194549
0.00018145
0.000169567
0.000158762
0.000148915
0.000139923
0.000131696
0.000124154
0.00011723
0.000110862
0.000104998
9.95917e-05
9.46026e-05
8.99953e-05
8.57386e-05
8.18053e-05
7.81715e-05
7.48162e-05
7.17209e-05
6.88692e-05
6.62464e-05
6.38394e-05
6.16363e-05
5.96259e-05
5.77978e-05
5.61421e-05
5.46489e-05
5.33089e-05
5.21125e-05
5.10502e-05
5.01129e-05
4.92911e-05
4.85756e-05
4.79576e-05
4.74284e-05
4.69797e-05
4.66034e-05
4.62922e-05
4.60388e-05
4.58367e-05
4.56798e-05
4.55625e-05
4.54796e-05
4.54266e-05
4.53992e-05
4.53937e-05
4.54061e-05
4.54346e-05
4.54759e-05
4.55278e-05
4.55881e-05
4.56549e-05
4.57267e-05
4.5802e-05
4.58795e-05
4.59581e-05
4.6037e-05
4.61154e-05
4.61924e-05
4.62676e-05
4.63404e-05
4.64104e-05
4.64774e-05
4.6541e-05
4.6601e-05
4.66574e-05
4.67099e-05
4.67585e-05
4.68033e-05
4.68442e-05
4.68812e-05
4.69145e-05
4.6944e-05
4.697e-05
4.69924e-05
4.70115e-05
4.70274e-05
4.70403e-05
4.70503e-05
4.70577e-05
4.70627e-05
4.70655e-05
4.70663e-05
0.000939675
0.000835674
0.000745805
0.000667898
0.000600147
0.00054104
0.000489314
0.000443907
0.000403925
0.000368613
0.000337334
0.000309547
0.00028479
0.000262672
0.000242857
0.000225059
0.00020903
0.000194557
0.000181459
0.000169575
0.00015877
0.000148923
0.000139932
0.000131705
0.000124163
0.000117239
0.000110871
0.000105007
9.96012e-05
9.46123e-05
9.0005e-05
8.57485e-05
8.18153e-05
7.81815e-05
7.48262e-05
7.17308e-05
6.8879e-05
6.6256e-05
6.38488e-05
6.16454e-05
5.96346e-05
5.7806e-05
5.61497e-05
5.4656e-05
5.33153e-05
5.21182e-05
5.10553e-05
5.01172e-05
4.92947e-05
4.85786e-05
4.796e-05
4.74302e-05
4.69809e-05
4.66042e-05
4.62924e-05
4.60386e-05
4.5836e-05
4.56788e-05
4.55611e-05
4.54779e-05
4.54246e-05
4.53971e-05
4.53914e-05
4.54037e-05
4.54322e-05
4.54735e-05
4.55254e-05
4.55857e-05
4.56526e-05
4.57244e-05
4.57997e-05
4.58773e-05
4.5956e-05
4.6035e-05
4.61134e-05
4.61906e-05
4.62658e-05
4.63387e-05
4.64089e-05
4.6476e-05
4.65397e-05
4.65998e-05
4.66563e-05
4.67089e-05
4.67577e-05
4.68025e-05
4.68435e-05
4.68807e-05
4.69141e-05
4.69437e-05
4.69698e-05
4.69924e-05
4.70116e-05
4.70276e-05
4.70406e-05
4.70507e-05
4.70582e-05
4.70633e-05
4.70662e-05
4.70669e-05
0.000939676
0.000835675
0.000745807
0.000667902
0.000600152
0.000541046
0.000489321
0.000443915
0.000403933
0.000368622
0.000337343
0.000309556
0.000284799
0.000262681
0.000242867
0.000225069
0.000209039
0.000194567
0.000181469
0.000169586
0.00015878
0.000148934
0.000139942
0.000131716
0.000124174
0.00011725
0.000110883
0.000105019
9.96129e-05
9.46241e-05
9.0017e-05
8.57606e-05
8.18274e-05
7.81937e-05
7.48384e-05
7.17429e-05
6.88909e-05
6.62677e-05
6.38602e-05
6.16563e-05
5.9645e-05
5.78158e-05
5.61589e-05
5.46644e-05
5.33228e-05
5.21249e-05
5.10611e-05
5.01221e-05
4.92987e-05
4.85818e-05
4.79624e-05
4.74319e-05
4.69819e-05
4.66044e-05
4.62921e-05
4.60377e-05
4.58346e-05
4.56769e-05
4.55588e-05
4.54754e-05
4.54218e-05
4.5394e-05
4.53883e-05
4.54005e-05
4.54289e-05
4.54702e-05
4.55221e-05
4.55824e-05
4.56493e-05
4.57212e-05
4.57966e-05
4.58743e-05
4.59532e-05
4.60323e-05
4.61108e-05
4.61881e-05
4.62635e-05
4.63365e-05
4.64068e-05
4.6474e-05
4.65379e-05
4.65982e-05
4.66547e-05
4.67075e-05
4.67564e-05
4.68015e-05
4.68426e-05
4.68799e-05
4.69135e-05
4.69433e-05
4.69695e-05
4.69923e-05
4.70117e-05
4.70278e-05
4.7041e-05
4.70513e-05
4.70589e-05
4.70641e-05
4.70669e-05
4.70677e-05
0.000939676
0.000835677
0.00074581
0.000667906
0.000600157
0.000541052
0.000489328
0.000443923
0.000403942
0.000368631
0.000337353
0.000309566
0.00028481
0.000262692
0.000242878
0.00022508
0.000209051
0.000194579
0.000181481
0.000169598
0.000158793
0.000148946
0.000139955
0.000131728
0.000124187
0.000117263
0.000110896
0.000105032
9.96267e-05
9.46381e-05
9.00311e-05
8.57748e-05
8.18418e-05
7.82081e-05
7.48527e-05
7.17571e-05
6.89049e-05
6.62814e-05
6.38734e-05
6.1669e-05
5.96571e-05
5.78272e-05
5.61694e-05
5.4674e-05
5.33314e-05
5.21324e-05
5.10676e-05
5.01275e-05
4.93031e-05
4.85852e-05
4.79648e-05
4.74334e-05
4.69825e-05
4.66043e-05
4.62912e-05
4.60361e-05
4.58325e-05
4.56743e-05
4.55558e-05
4.5472e-05
4.54181e-05
4.53901e-05
4.53842e-05
4.53963e-05
4.54246e-05
4.54659e-05
4.55178e-05
4.55782e-05
4.56452e-05
4.57172e-05
4.57927e-05
4.58705e-05
4.59495e-05
4.60288e-05
4.61075e-05
4.61849e-05
4.62604e-05
4.63337e-05
4.64041e-05
4.64715e-05
4.65356e-05
4.6596e-05
4.66528e-05
4.67058e-05
4.67549e-05
4.68001e-05
4.68415e-05
4.6879e-05
4.69127e-05
4.69427e-05
4.69692e-05
4.69921e-05
4.70117e-05
4.70281e-05
4.70414e-05
4.70518e-05
4.70596e-05
4.70649e-05
4.70678e-05
4.70686e-05
0.000939676
0.000835678
0.000745812
0.000667909
0.000600162
0.000541058
0.000489335
0.000443931
0.00040395
0.000368641
0.000337363
0.000309576
0.000284821
0.000262704
0.00024289
0.000225092
0.000209063
0.000194592
0.000181494
0.000169611
0.000158806
0.00014896
0.000139969
0.000131743
0.000124202
0.000117278
0.000110911
0.000105048
9.96424e-05
9.4654e-05
9.00473e-05
8.57911e-05
8.18581e-05
7.82245e-05
7.48691e-05
7.17733e-05
6.89208e-05
6.62969e-05
6.38885e-05
6.16835e-05
5.96708e-05
5.784e-05
5.61812e-05
5.46847e-05
5.33411e-05
5.21409e-05
5.10748e-05
5.01335e-05
4.93079e-05
4.85887e-05
4.79672e-05
4.74347e-05
4.69829e-05
4.66038e-05
4.62898e-05
4.6034e-05
4.58298e-05
4.56709e-05
4.5552e-05
4.54677e-05
4.54136e-05
4.53854e-05
4.53792e-05
4.53913e-05
4.54195e-05
4.54608e-05
4.55127e-05
4.55731e-05
4.56402e-05
4.57123e-05
4.5788e-05
4.58659e-05
4.59451e-05
4.60245e-05
4.61034e-05
4.6181e-05
4.62568e-05
4.63302e-05
4.64009e-05
4.64685e-05
4.65327e-05
4.65934e-05
4.66504e-05
4.67036e-05
4.6753e-05
4.67984e-05
4.684e-05
4.68778e-05
4.69117e-05
4.6942e-05
4.69687e-05
4.69918e-05
4.70116e-05
4.70282e-05
4.70418e-05
4.70524e-05
4.70603e-05
4.70657e-05
4.70687e-05
4.70695e-05
0.000939677
0.000835679
0.000745815
0.000667913
0.000600166
0.000541064
0.000489342
0.000443939
0.000403959
0.00036865
0.000337374
0.000309588
0.000284833
0.000262716
0.000242903
0.000225105
0.000209077
0.000194606
0.000181508
0.000169625
0.000158821
0.000148975
0.000139985
0.000131758
0.000124218
0.000117295
0.000110928
0.000105065
9.966e-05
9.46718e-05
9.00653e-05
8.58093e-05
8.18764e-05
7.82428e-05
7.48873e-05
7.17914e-05
6.89386e-05
6.63143e-05
6.39052e-05
6.16995e-05
5.9686e-05
5.78542e-05
5.61944e-05
5.46967e-05
5.33517e-05
5.21502e-05
5.10827e-05
5.014e-05
4.9313e-05
4.85925e-05
4.79698e-05
4.74361e-05
4.69831e-05
4.66029e-05
4.62881e-05
4.60314e-05
4.58264e-05
4.5667e-05
4.55474e-05
4.54628e-05
4.54083e-05
4.53798e-05
4.53735e-05
4.53853e-05
4.54135e-05
4.54548e-05
4.55067e-05
4.55672e-05
4.56344e-05
4.57066e-05
4.57824e-05
4.58605e-05
4.59399e-05
4.60195e-05
4.60986e-05
4.61765e-05
4.62525e-05
4.63261e-05
4.6397e-05
4.64649e-05
4.65294e-05
4.65904e-05
4.66476e-05
4.67011e-05
4.67507e-05
4.67964e-05
4.68383e-05
4.68763e-05
4.69105e-05
4.69411e-05
4.6968e-05
4.69915e-05
4.70115e-05
4.70284e-05
4.70421e-05
4.7053e-05
4.70611e-05
4.70666e-05
4.70696e-05
4.70704e-05
0.000939677
0.00083568
0.000745817
0.000667916
0.000600171
0.00054107
0.000489349
0.000443947
0.000403968
0.00036866
0.000337384
0.000309599
0.000284845
0.000262729
0.000242916
0.000225119
0.000209091
0.00019462
0.000181523
0.000169641
0.000158837
0.000148992
0.000140002
0.000131776
0.000124236
0.000117313
0.000110947
0.000105084
9.96792e-05
9.46914e-05
9.00851e-05
8.58293e-05
8.18966e-05
7.82629e-05
7.49073e-05
7.18112e-05
6.89581e-05
6.63333e-05
6.39236e-05
6.17171e-05
5.97026e-05
5.78698e-05
5.62087e-05
5.47097e-05
5.33633e-05
5.21603e-05
5.10913e-05
5.01471e-05
4.93185e-05
4.85966e-05
4.79724e-05
4.74373e-05
4.69831e-05
4.66018e-05
4.62859e-05
4.60283e-05
4.58225e-05
4.56624e-05
4.55423e-05
4.54571e-05
4.54022e-05
4.53734e-05
4.53669e-05
4.53786e-05
4.54067e-05
4.54479e-05
4.54999e-05
4.55605e-05
4.56278e-05
4.57001e-05
4.57761e-05
4.58544e-05
4.5934e-05
4.60138e-05
4.60931e-05
4.61712e-05
4.62475e-05
4.63214e-05
4.63927e-05
4.64608e-05
4.65256e-05
4.65868e-05
4.66444e-05
4.66982e-05
4.67481e-05
4.67941e-05
4.68363e-05
4.68746e-05
4.69092e-05
4.694e-05
4.69672e-05
4.6991e-05
4.70113e-05
4.70284e-05
4.70424e-05
4.70535e-05
4.70618e-05
4.70674e-05
4.70706e-05
4.70713e-05
0.000939677
0.000835681
0.000745819
0.000667919
0.000600175
0.000541075
0.000489356
0.000443954
0.000403977
0.00036867
0.000337395
0.000309611
0.000284857
0.000262742
0.00024293
0.000225133
0.000209106
0.000194636
0.000181539
0.000169658
0.000158854
0.000149009
0.00014002
0.000131794
0.000124255
0.000117333
0.000110967
0.000105105
9.97001e-05
9.47126e-05
9.01066e-05
8.58509e-05
8.19183e-05
7.82847e-05
7.4929e-05
7.18327e-05
6.89791e-05
6.63538e-05
6.39434e-05
6.1736e-05
5.97205e-05
5.78865e-05
5.62241e-05
5.47237e-05
5.33757e-05
5.21711e-05
5.11004e-05
5.01546e-05
4.93243e-05
4.86008e-05
4.79751e-05
4.74386e-05
4.6983e-05
4.66004e-05
4.62834e-05
4.60248e-05
4.58181e-05
4.56572e-05
4.55364e-05
4.54507e-05
4.53954e-05
4.53663e-05
4.53595e-05
4.53711e-05
4.53991e-05
4.54403e-05
4.54923e-05
4.55529e-05
4.56203e-05
4.56928e-05
4.5769e-05
4.58475e-05
4.59273e-05
4.60074e-05
4.6087e-05
4.61654e-05
4.62419e-05
4.63162e-05
4.63877e-05
4.64562e-05
4.65213e-05
4.65829e-05
4.66407e-05
4.66948e-05
4.67451e-05
4.67915e-05
4.6834e-05
4.68726e-05
4.69075e-05
4.69387e-05
4.69663e-05
4.69903e-05
4.7011e-05
4.70284e-05
4.70427e-05
4.70539e-05
4.70624e-05
4.70682e-05
4.70714e-05
4.70722e-05
0.000939677
0.000835682
0.00074582
0.000667922
0.000600179
0.00054108
0.000489362
0.000443962
0.000403986
0.00036868
0.000337406
0.000309622
0.00028487
0.000262755
0.000242944
0.000225148
0.000209122
0.000194652
0.000181556
0.000169675
0.000158872
0.000149028
0.000140039
0.000131814
0.000124275
0.000117353
0.000110988
0.000105126
9.97223e-05
9.47352e-05
9.01295e-05
8.58741e-05
8.19416e-05
7.8308e-05
7.49522e-05
7.18556e-05
6.90016e-05
6.63757e-05
6.39646e-05
6.17563e-05
5.97397e-05
5.79044e-05
5.62406e-05
5.47385e-05
5.3389e-05
5.21826e-05
5.11102e-05
5.01625e-05
4.93305e-05
4.86052e-05
4.79778e-05
4.74398e-05
4.69827e-05
4.65989e-05
4.62806e-05
4.60209e-05
4.58133e-05
4.56515e-05
4.55301e-05
4.54438e-05
4.5388e-05
4.53585e-05
4.53514e-05
4.53628e-05
4.53907e-05
4.54319e-05
4.54839e-05
4.55446e-05
4.56122e-05
4.56848e-05
4.57612e-05
4.58399e-05
4.592e-05
4.60004e-05
4.60802e-05
4.61589e-05
4.62358e-05
4.63104e-05
4.63822e-05
4.6451e-05
4.65165e-05
4.65784e-05
4.66367e-05
4.66912e-05
4.67418e-05
4.67885e-05
4.68314e-05
4.68704e-05
4.69057e-05
4.69372e-05
4.69652e-05
4.69896e-05
4.70105e-05
4.70282e-05
4.70428e-05
4.70543e-05
4.7063e-05
4.70689e-05
4.70722e-05
4.70731e-05
0.000939678
0.000835683
0.000745822
0.000667925
0.000600182
0.000541085
0.000489368
0.000443969
0.000403994
0.000368689
0.000337416
0.000309634
0.000284882
0.000262768
0.000242958
0.000225163
0.000209137
0.000194669
0.000181573
0.000169693
0.000158891
0.000149047
0.000140059
0.000131835
0.000124297
0.000117375
0.000111011
0.000105149
9.97458e-05
9.47591e-05
9.01537e-05
8.58986e-05
8.19662e-05
7.83327e-05
7.49767e-05
7.18798e-05
6.90255e-05
6.63989e-05
6.3987e-05
6.17777e-05
5.97599e-05
5.79233e-05
5.62579e-05
5.47543e-05
5.34029e-05
5.21947e-05
5.11204e-05
5.01708e-05
4.9337e-05
4.86099e-05
4.79807e-05
4.7441e-05
4.69824e-05
4.65971e-05
4.62775e-05
4.60167e-05
4.5808e-05
4.56454e-05
4.55232e-05
4.54363e-05
4.538e-05
4.53501e-05
4.53427e-05
4.53539e-05
4.53817e-05
4.54228e-05
4.54749e-05
4.55356e-05
4.56033e-05
4.56761e-05
4.57527e-05
4.58317e-05
4.5912e-05
4.59927e-05
4.60729e-05
4.61519e-05
4.62291e-05
4.6304e-05
4.63762e-05
4.64454e-05
4.65112e-05
4.65736e-05
4.66322e-05
4.66871e-05
4.67381e-05
4.67852e-05
4.68285e-05
4.6868e-05
4.69036e-05
4.69355e-05
4.69638e-05
4.69886e-05
4.70099e-05
4.70279e-05
4.70428e-05
4.70545e-05
4.70634e-05
4.70695e-05
4.7073e-05
4.70738e-05
0.000939678
0.000835684
0.000745824
0.000667927
0.000600186
0.00054109
0.000489374
0.000443976
0.000404002
0.000368698
0.000337426
0.000309645
0.000284894
0.000262782
0.000242972
0.000225178
0.000209154
0.000194686
0.000181591
0.000169712
0.00015891
0.000149067
0.00014008
0.000131856
0.000124319
0.000117398
0.000111034
0.000105173
9.97703e-05
9.47841e-05
9.01791e-05
8.59242e-05
8.1992e-05
7.83585e-05
7.50024e-05
7.19052e-05
6.90504e-05
6.64232e-05
6.40104e-05
6.18001e-05
5.97811e-05
5.7943e-05
5.62761e-05
5.47707e-05
5.34176e-05
5.22074e-05
5.11311e-05
5.01795e-05
4.93437e-05
4.86147e-05
4.79837e-05
4.74422e-05
4.6982e-05
4.65951e-05
4.62742e-05
4.60122e-05
4.58024e-05
4.56388e-05
4.55158e-05
4.54282e-05
4.53714e-05
4.53411e-05
4.53334e-05
4.53444e-05
4.5372e-05
4.54131e-05
4.54651e-05
4.5526e-05
4.55938e-05
4.56668e-05
4.57436e-05
4.58228e-05
4.59034e-05
4.59844e-05
4.60649e-05
4.61443e-05
4.62218e-05
4.62971e-05
4.63697e-05
4.64393e-05
4.65056e-05
4.65683e-05
4.66274e-05
4.66827e-05
4.67341e-05
4.67817e-05
4.68254e-05
4.68652e-05
4.69013e-05
4.69336e-05
4.69623e-05
4.69874e-05
4.70091e-05
4.70275e-05
4.70426e-05
4.70546e-05
4.70637e-05
4.707e-05
4.70736e-05
4.70744e-05
0.000939678
0.000835685
0.000745825
0.000667929
0.000600189
0.000541094
0.000489379
0.000443982
0.00040401
0.000368707
0.000337436
0.000309656
0.000284907
0.000262795
0.000242987
0.000225194
0.00020917
0.000194703
0.000181609
0.000169731
0.00015893
0.000149088
0.000140101
0.000131879
0.000124342
0.000117422
0.000111058
0.000105198
9.97958e-05
9.48101e-05
9.02055e-05
8.59509e-05
8.20189e-05
7.83853e-05
7.50292e-05
7.19317e-05
6.90763e-05
6.64485e-05
6.40348e-05
6.18234e-05
5.98031e-05
5.79636e-05
5.6295e-05
5.47878e-05
5.34327e-05
5.22206e-05
5.11422e-05
5.01886e-05
4.93507e-05
4.86197e-05
4.79867e-05
4.74434e-05
4.69815e-05
4.6593e-05
4.62707e-05
4.60074e-05
4.57965e-05
4.56319e-05
4.5508e-05
4.54198e-05
4.53623e-05
4.53316e-05
4.53236e-05
4.53343e-05
4.53618e-05
4.54028e-05
4.54548e-05
4.55158e-05
4.55837e-05
4.56569e-05
4.57339e-05
4.58134e-05
4.58943e-05
4.59755e-05
4.60564e-05
4.61361e-05
4.62141e-05
4.62898e-05
4.63628e-05
4.64328e-05
4.64995e-05
4.65626e-05
4.66221e-05
4.66779e-05
4.67298e-05
4.67778e-05
4.68219e-05
4.68622e-05
4.68987e-05
4.69315e-05
4.69606e-05
4.69861e-05
4.70081e-05
4.70268e-05
4.70422e-05
4.70545e-05
4.70639e-05
4.70703e-05
4.7074e-05
4.70749e-05
0.000939678
0.000835685
0.000745826
0.000667931
0.000600192
0.000541098
0.000489384
0.000443989
0.000404017
0.000368716
0.000337446
0.000309667
0.000284919
0.000262808
0.000243001
0.000225209
0.000209186
0.00019472
0.000181627
0.00016975
0.00015895
0.000149109
0.000140123
0.000131901
0.000124365
0.000117446
0.000111083
0.000105224
9.98221e-05
9.48368e-05
9.02327e-05
8.59784e-05
8.20465e-05
7.84131e-05
7.50568e-05
7.1959e-05
6.91031e-05
6.64745e-05
6.406e-05
6.18474e-05
5.98258e-05
5.79848e-05
5.63145e-05
5.48054e-05
5.34484e-05
5.22342e-05
5.11537e-05
5.01979e-05
4.93579e-05
4.86248e-05
4.79898e-05
4.74446e-05
4.69809e-05
4.65909e-05
4.6267e-05
4.60023e-05
4.57902e-05
4.56246e-05
4.54999e-05
4.54109e-05
4.53529e-05
4.53216e-05
4.53132e-05
4.53237e-05
4.5351e-05
4.53919e-05
4.5444e-05
4.5505e-05
4.5573e-05
4.56464e-05
4.57236e-05
4.58034e-05
4.58846e-05
4.59662e-05
4.60474e-05
4.61275e-05
4.62059e-05
4.6282e-05
4.63554e-05
4.64258e-05
4.6493e-05
4.65566e-05
4.66166e-05
4.66728e-05
4.67251e-05
4.67736e-05
4.68182e-05
4.6859e-05
4.68959e-05
4.69291e-05
4.69586e-05
4.69845e-05
4.7007e-05
4.7026e-05
4.70417e-05
4.70543e-05
4.70638e-05
4.70705e-05
4.70743e-05
4.70753e-05
0.000939678
0.000835686
0.000745828
0.000667933
0.000600195
0.000541102
0.000489389
0.000443995
0.000404024
0.000368724
0.000337456
0.000309678
0.000284931
0.000262821
0.000243015
0.000225224
0.000209202
0.000194737
0.000181646
0.000169769
0.00015897
0.00014913
0.000140145
0.000131924
0.000124389
0.000117471
0.000111109
0.00010525
9.98489e-05
9.48642e-05
9.02605e-05
8.60066e-05
8.20749e-05
7.84415e-05
7.5085e-05
7.19869e-05
6.91306e-05
6.65013e-05
6.40858e-05
6.18721e-05
5.98491e-05
5.80065e-05
5.63345e-05
5.48235e-05
5.34645e-05
5.22481e-05
5.11655e-05
5.02075e-05
4.93653e-05
4.863e-05
4.7993e-05
4.74459e-05
4.69803e-05
4.65886e-05
4.62632e-05
4.59971e-05
4.57838e-05
4.56171e-05
4.54915e-05
4.54017e-05
4.5343e-05
4.53112e-05
4.53025e-05
4.53127e-05
4.53398e-05
4.53806e-05
4.54327e-05
4.54937e-05
4.55619e-05
4.56354e-05
4.57129e-05
4.57929e-05
4.58744e-05
4.59564e-05
4.6038e-05
4.61185e-05
4.61972e-05
4.62738e-05
4.63477e-05
4.64185e-05
4.64861e-05
4.65502e-05
4.66107e-05
4.66673e-05
4.67202e-05
4.67691e-05
4.68142e-05
4.68554e-05
4.68929e-05
4.69265e-05
4.69564e-05
4.69828e-05
4.70056e-05
4.70249e-05
4.7041e-05
4.70539e-05
4.70636e-05
4.70704e-05
4.70744e-05
4.70754e-05
0.000939679
0.000835687
0.000745829
0.000667935
0.000600198
0.000541106
0.000489394
0.000444
0.000404031
0.000368732
0.000337465
0.000309688
0.000284942
0.000262834
0.000243029
0.000225239
0.000209218
0.000194754
0.000181664
0.000169789
0.000158991
0.000149152
0.000140167
0.000131948
0.000124413
0.000117496
0.000111135
0.000105277
9.98763e-05
9.48921e-05
9.02889e-05
8.60353e-05
8.21038e-05
7.84704e-05
7.51139e-05
7.20155e-05
6.91586e-05
6.65286e-05
6.41121e-05
6.18972e-05
5.98729e-05
5.80287e-05
5.63549e-05
5.4842e-05
5.34809e-05
5.22624e-05
5.11775e-05
5.02173e-05
4.93729e-05
4.86354e-05
4.79963e-05
4.74471e-05
4.69797e-05
4.65862e-05
4.62592e-05
4.59917e-05
4.57771e-05
4.56093e-05
4.54827e-05
4.53921e-05
4.53328e-05
4.53005e-05
4.52914e-05
4.53013e-05
4.53282e-05
4.53689e-05
4.54209e-05
4.5482e-05
4.55503e-05
4.56241e-05
4.57017e-05
4.5782e-05
4.58639e-05
4.59462e-05
4.60281e-05
4.6109e-05
4.61882e-05
4.62652e-05
4.63395e-05
4.64109e-05
4.64789e-05
4.65435e-05
4.66045e-05
4.66616e-05
4.6715e-05
4.67644e-05
4.681e-05
4.68517e-05
4.68896e-05
4.69237e-05
4.6954e-05
4.69808e-05
4.7004e-05
4.70237e-05
4.70401e-05
4.70532e-05
4.70632e-05
4.70702e-05
4.70742e-05
4.70754e-05
0.000939679
0.000835687
0.00074583
0.000667937
0.0006002
0.000541109
0.000489398
0.000444006
0.000404038
0.00036874
0.000337474
0.000309698
0.000284953
0.000262847
0.000243042
0.000225254
0.000209234
0.000194772
0.000181682
0.000169808
0.000159011
0.000149173
0.00014019
0.000131971
0.000124438
0.000117521
0.000111161
0.000105304
9.99039e-05
9.49204e-05
9.03176e-05
8.60644e-05
8.21331e-05
7.84998e-05
7.51431e-05
7.20444e-05
6.9187e-05
6.65562e-05
6.41388e-05
6.19227e-05
5.9897e-05
5.80512e-05
5.63756e-05
5.48608e-05
5.34975e-05
5.22769e-05
5.11897e-05
5.02272e-05
4.93805e-05
4.86409e-05
4.79996e-05
4.74484e-05
4.6979e-05
4.65838e-05
4.62552e-05
4.59862e-05
4.57703e-05
4.56014e-05
4.54738e-05
4.53824e-05
4.53224e-05
4.52895e-05
4.52799e-05
4.52896e-05
4.53162e-05
4.53568e-05
4.54088e-05
4.547e-05
4.55384e-05
4.56123e-05
4.56902e-05
4.57708e-05
4.58529e-05
4.59356e-05
4.60179e-05
4.60992e-05
4.61788e-05
4.62562e-05
4.63311e-05
4.64029e-05
4.64714e-05
4.65365e-05
4.6598e-05
4.66556e-05
4.67095e-05
4.67594e-05
4.68055e-05
4.68477e-05
4.6886e-05
4.69206e-05
4.69514e-05
4.69786e-05
4.70022e-05
4.70223e-05
4.7039e-05
4.70524e-05
4.70626e-05
4.70698e-05
4.70739e-05
4.70751e-05
0.000939679
0.000835688
0.000745831
0.000667939
0.000600203
0.000541112
0.000489403
0.000444011
0.000404044
0.000368748
0.000337483
0.000309708
0.000284964
0.000262859
0.000243056
0.000225269
0.00020925
0.000194789
0.0001817
0.000169827
0.000159032
0.000149195
0.000140212
0.000131995
0.000124462
0.000117547
0.000111187
0.000105331
9.99317e-05
9.49488e-05
9.03466e-05
8.60937e-05
8.21627e-05
7.85294e-05
7.51726e-05
7.20736e-05
6.92157e-05
6.65841e-05
6.41658e-05
6.19485e-05
5.99213e-05
5.80739e-05
5.63965e-05
5.48797e-05
5.35144e-05
5.22915e-05
5.12021e-05
5.02373e-05
4.93883e-05
4.86464e-05
4.8003e-05
4.74497e-05
4.69784e-05
4.65813e-05
4.62511e-05
4.59806e-05
4.57634e-05
4.55933e-05
4.54647e-05
4.53724e-05
4.53117e-05
4.52783e-05
4.52682e-05
4.52775e-05
4.5304e-05
4.53445e-05
4.53964e-05
4.54576e-05
4.55261e-05
4.56002e-05
4.56783e-05
4.57592e-05
4.58416e-05
4.59247e-05
4.60074e-05
4.60891e-05
4.61691e-05
4.6247e-05
4.63223e-05
4.63946e-05
4.64637e-05
4.65293e-05
4.65912e-05
4.66494e-05
4.67037e-05
4.67542e-05
4.68008e-05
4.68435e-05
4.68823e-05
4.69173e-05
4.69486e-05
4.69762e-05
4.70002e-05
4.70206e-05
4.70377e-05
4.70513e-05
4.70618e-05
4.70691e-05
4.70734e-05
4.70746e-05
0.000939679
0.000835688
0.000745832
0.00066794
0.000600205
0.000541116
0.000489407
0.000444016
0.00040405
0.000368755
0.000337491
0.000309718
0.000284975
0.000262871
0.000243069
0.000225283
0.000209266
0.000194805
0.000181718
0.000169846
0.000159052
0.000149216
0.000140235
0.000132018
0.000124487
0.000117572
0.000111214
0.000105358
9.99596e-05
9.49773e-05
9.03756e-05
8.61231e-05
8.21923e-05
7.85591e-05
7.52022e-05
7.21029e-05
6.92444e-05
6.66122e-05
6.41928e-05
6.19744e-05
5.99458e-05
5.80968e-05
5.64175e-05
5.48988e-05
5.35313e-05
5.23062e-05
5.12145e-05
5.02474e-05
4.93961e-05
4.8652e-05
4.80064e-05
4.7451e-05
4.69777e-05
4.65788e-05
4.62469e-05
4.59749e-05
4.57564e-05
4.55851e-05
4.54555e-05
4.53623e-05
4.53009e-05
4.52668e-05
4.52563e-05
4.52653e-05
4.52915e-05
4.53319e-05
4.53838e-05
4.5445e-05
4.55136e-05
4.55879e-05
4.56662e-05
4.57474e-05
4.58301e-05
4.59135e-05
4.59966e-05
4.60787e-05
4.61592e-05
4.62375e-05
4.63133e-05
4.63861e-05
4.64556e-05
4.65217e-05
4.65842e-05
4.66429e-05
4.66978e-05
4.67488e-05
4.67959e-05
4.68391e-05
4.68784e-05
4.69139e-05
4.69456e-05
4.69736e-05
4.6998e-05
4.70188e-05
4.70362e-05
4.70501e-05
4.70608e-05
4.70683e-05
4.70727e-05
4.7074e-05
0.000939679
0.000835689
0.000745833
0.000667942
0.000600207
0.000541119
0.000489411
0.000444021
0.000404056
0.000368762
0.000337499
0.000309727
0.000284986
0.000262882
0.000243082
0.000225297
0.000209281
0.000194822
0.000181736
0.000169865
0.000159072
0.000149237
0.000140257
0.000132041
0.000124511
0.000117597
0.00011124
0.000105385
9.99874e-05
9.50058e-05
9.04046e-05
8.61525e-05
8.2222e-05
7.85888e-05
7.52318e-05
7.21322e-05
6.92732e-05
6.66402e-05
6.42199e-05
6.20003e-05
5.99703e-05
5.81196e-05
5.64386e-05
5.49179e-05
5.35483e-05
5.2321e-05
5.1227e-05
5.02576e-05
4.9404e-05
4.86576e-05
4.80098e-05
4.74523e-05
4.69771e-05
4.65764e-05
4.62427e-05
4.59692e-05
4.57493e-05
4.55768e-05
4.54462e-05
4.53521e-05
4.52899e-05
4.52553e-05
4.52443e-05
4.5253e-05
4.52789e-05
4.53191e-05
4.53709e-05
4.54322e-05
4.55009e-05
4.55753e-05
4.56539e-05
4.57353e-05
4.58184e-05
4.59021e-05
4.59856e-05
4.60681e-05
4.6149e-05
4.62278e-05
4.63041e-05
4.63774e-05
4.64474e-05
4.6514e-05
4.6577e-05
4.66362e-05
4.66916e-05
4.67431e-05
4.67907e-05
4.68344e-05
4.68743e-05
4.69102e-05
4.69424e-05
4.69708e-05
4.69956e-05
4.70168e-05
4.70344e-05
4.70487e-05
4.70596e-05
4.70673e-05
4.70718e-05
4.70731e-05
0.000939679
0.000835689
0.000745834
0.000667943
0.00060021
0.000541122
0.000489414
0.000444026
0.000404062
0.000368769
0.000337507
0.000309736
0.000284996
0.000262894
0.000243094
0.000225311
0.000209296
0.000194838
0.000181753
0.000169884
0.000159092
0.000149258
0.000140279
0.000132065
0.000124535
0.000117623
0.000111266
0.000105412
0.000100015
9.50341e-05
9.04334e-05
8.61817e-05
8.22514e-05
7.86184e-05
7.52613e-05
7.21613e-05
6.93019e-05
6.66682e-05
6.42469e-05
6.20261e-05
5.99947e-05
5.81424e-05
5.64596e-05
5.49369e-05
5.35653e-05
5.23357e-05
5.12395e-05
5.02678e-05
4.94119e-05
4.86632e-05
4.80132e-05
4.74536e-05
4.69764e-05
4.65739e-05
4.62386e-05
4.59635e-05
4.57422e-05
4.55685e-05
4.54368e-05
4.53419e-05
4.52789e-05
4.52437e-05
4.52322e-05
4.52405e-05
4.52661e-05
4.53062e-05
4.5358e-05
4.54193e-05
4.54881e-05
4.55626e-05
4.56414e-05
4.57231e-05
4.58064e-05
4.58905e-05
4.59744e-05
4.60573e-05
4.61387e-05
4.6218e-05
4.62947e-05
4.63685e-05
4.6439e-05
4.65062e-05
4.65697e-05
4.66294e-05
4.66853e-05
4.67373e-05
4.67855e-05
4.68297e-05
4.687e-05
4.69064e-05
4.6939e-05
4.69679e-05
4.69931e-05
4.70146e-05
4.70326e-05
4.70471e-05
4.70582e-05
4.70661e-05
4.70707e-05
4.7072e-05
0.000939679
0.00083569
0.000745835
0.000667945
0.000600212
0.000541124
0.000489418
0.00044403
0.000404068
0.000368775
0.000337515
0.000309745
0.000285006
0.000262905
0.000243107
0.000225324
0.000209311
0.000194854
0.00018177
0.000169902
0.000159111
0.000149279
0.000140301
0.000132087
0.000124559
0.000117647
0.000111291
0.000105439
0.000100042
9.50621e-05
9.04619e-05
8.62107e-05
8.22806e-05
7.86477e-05
7.52905e-05
7.21903e-05
6.93303e-05
6.66959e-05
6.42737e-05
6.20517e-05
6.00189e-05
5.81651e-05
5.64805e-05
5.49559e-05
5.35821e-05
5.23504e-05
5.12519e-05
5.02779e-05
4.94197e-05
4.86688e-05
4.80166e-05
4.7455e-05
4.69758e-05
4.65714e-05
4.62344e-05
4.59578e-05
4.57352e-05
4.55603e-05
4.54275e-05
4.53316e-05
4.52679e-05
4.5232e-05
4.52201e-05
4.5228e-05
4.52534e-05
4.52932e-05
4.53449e-05
4.54062e-05
4.54751e-05
4.55498e-05
4.56288e-05
4.57107e-05
4.57944e-05
4.58788e-05
4.59631e-05
4.60464e-05
4.61282e-05
4.6208e-05
4.62851e-05
4.63594e-05
4.64305e-05
4.64981e-05
4.65622e-05
4.66224e-05
4.66789e-05
4.67314e-05
4.678e-05
4.68247e-05
4.68655e-05
4.69024e-05
4.69355e-05
4.69648e-05
4.69903e-05
4.70122e-05
4.70305e-05
4.70453e-05
4.70566e-05
4.70647e-05
4.70694e-05
4.70708e-05
0.00093968
0.00083569
0.000745836
0.000667946
0.000600214
0.000541127
0.000489421
0.000444035
0.000404073
0.000368781
0.000337522
0.000309753
0.000285015
0.000262916
0.000243119
0.000225337
0.000209325
0.000194869
0.000181787
0.00016992
0.00015913
0.000149299
0.000140322
0.00013211
0.000124583
0.000117672
0.000111317
0.000105465
0.000100069
9.50897e-05
9.04901e-05
8.62392e-05
8.23095e-05
7.86766e-05
7.53194e-05
7.22188e-05
6.93584e-05
6.67233e-05
6.43002e-05
6.2077e-05
6.00429e-05
5.81875e-05
5.65012e-05
5.49746e-05
5.35988e-05
5.2365e-05
5.12642e-05
5.0288e-05
4.94275e-05
4.86744e-05
4.802e-05
4.74563e-05
4.69752e-05
4.65689e-05
4.62303e-05
4.59522e-05
4.57281e-05
4.5552e-05
4.54182e-05
4.53214e-05
4.52569e-05
4.52204e-05
4.5208e-05
4.52155e-05
4.52406e-05
4.52803e-05