/*--------------------------------*- C++ -*----------------------------------*\
  =========                 |
  \\      /  F ield         | OpenFOAM: The Open Source CFD Toolbox
   \\    /   O peration     | Website:  https://openfoam.org
    \\  /    A nd           | Version:  11
     \\/     M anipulation  |
\*---------------------------------------------------------------------------*/
FoamFile
{
    format      ascii;
    class       surfaceScalarField;
    location    "82";
    object      phi;
}
// * * * * * * * * * * * * * * * * * * * * * * * * * * * * * * * * * * * * * //

dimensions      [0 3 -1 0 0 0 0];

internalField   nonuniform List<scalar> 
19800
(
1.99684e-05
-2.55849e-07
1.99161e-05
-7.51949e-07
1.98501e-05
-1.24375e-06
1.97704e-05
-1.73899e-06
1.96773e-05
-2.24264e-06
1.95705e-05
-2.75731e-06
1.94499e-05
-3.28422e-06
1.93149e-05
-3.82356e-06
1.91653e-05
-4.37465e-06
1.90007e-05
-4.93601e-06
1.88212e-05
-5.50538e-06
1.86265e-05
-6.07981e-06
1.8417e-05
-6.6557e-06
1.8193e-05
-7.22885e-06
1.79551e-05
-7.79462e-06
1.77041e-05
-8.34808e-06
1.74412e-05
-8.88423e-06
1.71677e-05
-9.39825e-06
1.6885e-05
-9.88569e-06
1.65945e-05
-1.03427e-05
1.6298e-05
-1.07664e-05
1.5997e-05
-1.11544e-05
1.56929e-05
-1.15055e-05
1.53871e-05
-1.18194e-05
1.50809e-05
-1.20964e-05
1.47754e-05
-1.23373e-05
1.44716e-05
-1.25436e-05
1.41707e-05
-1.27172e-05
1.38732e-05
-1.28599e-05
1.35771e-05
-1.29729e-05
1.32795e-05
-1.30577e-05
1.29807e-05
-1.31163e-05
1.26816e-05
-1.31513e-05
1.23859e-05
-1.31654e-05
1.2097e-05
-1.31602e-05
1.18151e-05
-1.3136e-05
1.15401e-05
-1.30934e-05
1.12716e-05
-1.30334e-05
1.10075e-05
-1.29569e-05
1.07462e-05
-1.28657e-05
1.0488e-05
-1.2761e-05
1.02331e-05
-1.26435e-05
9.98192e-06
-1.2514e-05
9.73451e-06
-1.23732e-05
9.49101e-06
-1.22216e-05
9.25154e-06
-1.20601e-05
9.01619e-06
-1.18892e-05
8.78507e-06
-1.17097e-05
8.55826e-06
-1.15221e-05
8.33586e-06
-1.13272e-05
8.11794e-06
-1.11256e-05
7.90459e-06
-1.09178e-05
7.69588e-06
-1.07044e-05
7.49189e-06
-1.04862e-05
7.29267e-06
-1.02635e-05
7.09827e-06
-1.00371e-05
6.90876e-06
-9.80749e-06
6.72417e-06
-9.57513e-06
6.54452e-06
-9.34058e-06
6.36984e-06
-9.10432e-06
6.20015e-06
-8.86685e-06
6.03545e-06
-8.62859e-06
5.87574e-06
-8.39e-06
5.72101e-06
-8.15147e-06
5.57124e-06
-7.9134e-06
5.4264e-06
-7.67616e-06
5.28647e-06
-7.4401e-06
5.1514e-06
-7.20554e-06
5.02115e-06
-6.9728e-06
4.89568e-06
-6.74218e-06
4.77492e-06
-6.51396e-06
4.65883e-06
-6.28841e-06
4.54733e-06
-6.06578e-06
4.44036e-06
-5.84632e-06
4.33787e-06
-5.63027e-06
4.23977e-06
-5.41788e-06
4.146e-06
-5.20936e-06
4.05649e-06
-5.00494e-06
3.97116e-06
-4.80486e-06
3.88996e-06
-4.60935e-06
3.8128e-06
-4.41865e-06
3.73961e-06
-4.23299e-06
3.67034e-06
-4.05264e-06
3.60492e-06
-3.87787e-06
3.54329e-06
-3.70894e-06
3.48538e-06
-3.54616e-06
3.43116e-06
-3.38985e-06
3.38056e-06
-3.24034e-06
3.33355e-06
-3.09802e-06
3.29009e-06
-2.96328e-06
3.25017e-06
-2.83657e-06
3.21376e-06
-2.71836e-06
3.18087e-06
-2.60921e-06
3.1515e-06
-2.50972e-06
3.12571e-06
-2.42057e-06
3.10356e-06
-2.34257e-06
3.08513e-06
-2.27667e-06
3.07061e-06
-2.22398e-06
3.06019e-06
-2.18618e-06
-2.16584e-06
1.99765e-05
-2.32303e-07
1.99273e-05
-7.02842e-07
1.98617e-05
-1.1781e-06
1.97819e-05
-1.65921e-06
1.96886e-05
-2.14928e-06
1.95816e-05
-2.65033e-06
1.94607e-05
-3.16335e-06
1.93256e-05
-3.68847e-06
1.9176e-05
-4.225e-06
1.90115e-05
-4.77152e-06
1.8832e-05
-5.3259e-06
1.86375e-05
-5.88534e-06
1.84282e-05
-6.4464e-06
1.82045e-05
-7.00511e-06
1.79669e-05
-7.55705e-06
1.77164e-05
-8.09754e-06
1.74539e-05
-8.62178e-06
1.71808e-05
-9.12516e-06
1.68985e-05
-9.60338e-06
1.66085e-05
-1.00527e-05
1.63124e-05
-1.04702e-05
1.60117e-05
-1.08536e-05
1.57078e-05
-1.12016e-05
1.5402e-05
-1.15137e-05
1.50957e-05
-1.179e-05
1.47897e-05
-1.20313e-05
1.44848e-05
-1.22388e-05
1.41815e-05
-1.24139e-05
1.38797e-05
-1.25581e-05
1.35794e-05
-1.26726e-05
1.32811e-05
-1.27594e-05
1.2986e-05
-1.28212e-05
1.26945e-05
-1.28598e-05
1.24065e-05
-1.28775e-05
1.2122e-05
-1.28757e-05
1.1841e-05
-1.2855e-05
1.1564e-05
-1.28165e-05
1.12918e-05
-1.27612e-05
1.10243e-05
-1.26895e-05
1.07611e-05
-1.26025e-05
1.05019e-05
-1.25017e-05
1.02464e-05
-1.23881e-05
9.99478e-06
-1.22624e-05
9.74705e-06
-1.21254e-05
9.50329e-06
-1.19779e-05
9.2636e-06
-1.18204e-05
9.02807e-06
-1.16537e-05
8.79678e-06
-1.14784e-05
8.56983e-06
-1.12952e-05
8.3473e-06
-1.11047e-05
8.12927e-06
-1.09075e-05
7.91582e-06
-1.07043e-05
7.70702e-06
-1.04956e-05
7.50295e-06
-1.02821e-05
7.30365e-06
-1.00643e-05
7.10919e-06
-9.84268e-06
6.91962e-06
-9.61791e-06
6.73496e-06
-9.39048e-06
6.55526e-06
-9.16088e-06
6.38053e-06
-8.9296e-06
6.21079e-06
-8.6971e-06
6.04604e-06
-8.46384e-06
5.88628e-06
-8.23024e-06
5.7315e-06
-7.99669e-06
5.58168e-06
-7.76358e-06
5.4368e-06
-7.53128e-06
5.29682e-06
-7.30012e-06
5.1617e-06
-7.07043e-06
5.03141e-06
-6.84251e-06
4.90589e-06
-6.61666e-06
4.78508e-06
-6.39316e-06
4.66893e-06
-6.17226e-06
4.55739e-06
-5.95423e-06
4.45037e-06
-5.73931e-06
4.34783e-06
-5.52773e-06
4.24968e-06
-5.31973e-06
4.15586e-06
-5.11553e-06
4.06629e-06
-4.91538e-06
3.98092e-06
-4.71949e-06
3.89966e-06
-4.52809e-06
3.82245e-06
-4.34144e-06
3.74921e-06
-4.15976e-06
3.67989e-06
-3.98332e-06
3.61441e-06
-3.81239e-06
3.55272e-06
-3.64724e-06
3.49475e-06
-3.48819e-06
3.44045e-06
-3.33555e-06
3.38978e-06
-3.18967e-06
3.34269e-06
-3.05093e-06
3.29914e-06
-2.91973e-06
3.2591e-06
-2.79653e-06
3.22255e-06
-2.68182e-06
3.18949e-06
-2.57615e-06
3.1599e-06
-2.48013e-06
3.13381e-06
-2.39448e-06
3.11123e-06
-2.31999e-06
3.09218e-06
-2.25761e-06
3.07664e-06
-2.20844e-06
3.06437e-06
-2.17392e-06
-2.15608e-06
1.99824e-05
-2.14655e-07
1.99388e-05
-6.59308e-07
1.98763e-05
-1.11554e-06
1.97981e-05
-1.58101e-06
1.97055e-05
-2.0567e-06
1.95989e-05
-2.54376e-06
1.94783e-05
-3.04274e-06
1.93434e-05
-3.5536e-06
1.9194e-05
-4.0756e-06
1.90299e-05
-4.60737e-06
1.88509e-05
-5.14687e-06
1.86569e-05
-5.69143e-06
1.84484e-05
-6.23781e-06
1.82255e-05
-6.78222e-06
1.79889e-05
-7.32046e-06
1.77394e-05
-7.84808e-06
1.74781e-05
-8.3605e-06
1.72062e-05
-8.85328e-06
1.69251e-05
-9.32229e-06
1.66363e-05
-9.76389e-06
1.63412e-05
-1.01751e-05
1.60413e-05
-1.05538e-05
1.57381e-05
-1.08984e-05
1.54328e-05
-1.12084e-05
1.51265e-05
-1.14837e-05
1.48202e-05
-1.1725e-05
1.45146e-05
-1.19332e-05
1.42103e-05
-1.21095e-05
1.39075e-05
-1.22554e-05
1.36071e-05
-1.23721e-05
1.33096e-05
-1.24619e-05
1.30153e-05
-1.25269e-05
1.27245e-05
-1.2569e-05
1.24372e-05
-1.25901e-05
1.21532e-05
-1.25917e-05
1.18726e-05
-1.25745e-05
1.15958e-05
-1.25397e-05
1.13228e-05
-1.24882e-05
1.1054e-05
-1.24206e-05
1.07894e-05
-1.23379e-05
1.0529e-05
-1.22413e-05
1.02725e-05
-1.21317e-05
1.00201e-05
-1.201e-05
9.77171e-06
-1.1877e-05
9.52738e-06
-1.17335e-05
9.28719e-06
-1.15802e-05
9.05121e-06
-1.14177e-05
8.81953e-06
-1.12467e-05
8.59223e-06
-1.10679e-05
8.36938e-06
-1.08818e-05
8.15106e-06
-1.06892e-05
7.93736e-06
-1.04906e-05
7.72833e-06
-1.02866e-05
7.52404e-06
-1.00778e-05
7.32455e-06
-9.86477e-06
7.12992e-06
-9.64805e-06
6.94018e-06
-9.42818e-06
6.75538e-06
-9.20567e-06
6.57554e-06
-8.98103e-06
6.40068e-06
-8.75474e-06
6.23081e-06
-8.52724e-06
6.06595e-06
-8.29898e-06
5.90608e-06
-8.07037e-06
5.75119e-06
-7.8418e-06
5.60127e-06
-7.61366e-06
5.45628e-06
-7.38629e-06
5.3162e-06
-7.16004e-06
5.18099e-06
-6.93521e-06
5.05059e-06
-6.71212e-06
4.92497e-06
-6.49104e-06
4.80407e-06
-6.27225e-06
4.68783e-06
-6.05602e-06
4.57618e-06
-5.84259e-06
4.46907e-06
-5.6322e-06
4.36643e-06
-5.42508e-06
4.26818e-06
-5.22148e-06
4.17426e-06
-5.02162e-06
4.0846e-06
-4.82572e-06
3.99913e-06
-4.63401e-06
3.91777e-06
-4.44673e-06
3.84046e-06
-4.26412e-06
3.76712e-06
-4.08642e-06
3.69769e-06
-3.91389e-06
3.6321e-06
-3.7468e-06
3.57029e-06
-3.58543e-06
3.51219e-06
-3.4301e-06
3.45776e-06
-3.28112e-06
3.40693e-06
-3.13884e-06
3.35966e-06
-3.00366e-06
3.31591e-06
-2.87598e-06
3.27562e-06
-2.75625e-06
3.23877e-06
-2.64497e-06
3.20533e-06
-2.5427e-06
3.17526e-06
-2.45006e-06
3.14852e-06
-2.36774e-06
3.12506e-06
-2.29653e-06
3.10478e-06
-2.23733e-06
3.08745e-06
-2.19112e-06
3.07263e-06
-2.15909e-06
-2.14285e-06
1.99858e-05
-2.00409e-07
1.99474e-05
-6.20964e-07
1.98892e-05
-1.05728e-06
1.9814e-05
-1.50582e-06
1.97234e-05
-1.96618e-06
1.96183e-05
-2.43861e-06
1.94987e-05
-2.9232e-06
1.93648e-05
-3.41961e-06
1.92162e-05
-3.92704e-06
1.90529e-05
-4.44408e-06
1.88748e-05
-4.96879e-06
1.8682e-05
-5.49861e-06
1.84746e-05
-6.03045e-06
1.82531e-05
-6.56072e-06
1.80181e-05
-7.08542e-06
1.77703e-05
-7.6003e-06
1.75108e-05
-8.10099e-06
1.72408e-05
-8.58323e-06
1.69615e-05
-9.043e-06
1.66744e-05
-9.47678e-06
1.63809e-05
-9.88162e-06
1.60824e-05
-1.02553e-05
1.57803e-05
-1.05963e-05
1.54759e-05
-1.09039e-05
1.51701e-05
-1.1178e-05
1.48641e-05
-1.14189e-05
1.45584e-05
-1.16275e-05
1.42539e-05
-1.1805e-05
1.3951e-05
-1.19525e-05
1.36506e-05
-1.20717e-05
1.33531e-05
-1.21644e-05
1.30589e-05
-1.22326e-05
1.2768e-05
-1.22782e-05
1.24805e-05
-1.23026e-05
1.21964e-05
-1.23075e-05
1.19156e-05
-1.22937e-05
1.16384e-05
-1.22624e-05
1.13648e-05
-1.22146e-05
1.10951e-05
-1.21509e-05
1.08294e-05
-1.20723e-05
1.05679e-05
-1.19797e-05
1.03104e-05
-1.18742e-05
1.00571e-05
-1.17566e-05
9.80786e-06
-1.16278e-05
9.56279e-06
-1.14885e-05
9.32194e-06
-1.13393e-05
9.08537e-06
-1.11811e-05
8.85315e-06
-1.10145e-05
8.62535e-06
-1.08401e-05
8.40206e-06
-1.06586e-05
8.18334e-06
-1.04705e-05
7.96926e-06
-1.02765e-05
7.75989e-06
-1.00772e-05
7.55529e-06
-9.8732e-06
7.35552e-06
-9.66499e-06
7.16062e-06
-9.45315e-06
6.97064e-06
-9.23819e-06
6.7856e-06
-9.02064e-06
6.60555e-06
-8.80098e-06
6.43048e-06
-8.57967e-06
6.26042e-06
-8.35718e-06
6.09537e-06
-8.13393e-06
5.93532e-06
-7.91032e-06
5.78026e-06
-7.68674e-06
5.63017e-06
-7.46357e-06
5.48502e-06
-7.24114e-06
5.34477e-06
-7.01979e-06
5.20939e-06
-6.79983e-06
5.07884e-06
-6.58156e-06
4.95306e-06
-6.36526e-06
4.832e-06
-6.15119e-06
4.7156e-06
-5.93962e-06
4.60379e-06
-5.73078e-06
4.49653e-06
-5.52493e-06
4.39372e-06
-5.32228e-06
4.29532e-06
-5.12308e-06
4.20125e-06
-4.92754e-06
4.11143e-06
-4.7359e-06
4.0258e-06
-4.54838e-06
3.94428e-06
-4.36521e-06
3.8668e-06
-4.18664e-06
3.79329e-06
-4.01291e-06
3.72369e-06
-3.84428e-06
3.65792e-06
-3.68103e-06
3.59591e-06
-3.52343e-06
3.53761e-06
-3.3718e-06
3.48295e-06
-3.22646e-06
3.43187e-06
-3.08777e-06
3.38432e-06
-2.95611e-06
3.34023e-06
-2.83189e-06
3.29956e-06
-2.71557e-06
3.26225e-06
-2.60766e-06
3.22823e-06
-2.50868e-06
3.19744e-06
-2.41927e-06
3.16978e-06
-2.34008e-06
3.14513e-06
-2.27188e-06
3.12327e-06
-2.21547e-06
3.10389e-06
-2.17174e-06
3.08646e-06
-2.14165e-06
-2.12651e-06
1.9988e-05
-1.88403e-07
1.99538e-05
-5.86771e-07
1.98998e-05
-1.00333e-06
1.98283e-05
-1.43431e-06
1.97408e-05
-1.87861e-06
1.9638e-05
-2.33581e-06
1.95203e-05
-2.80556e-06
1.9388e-05
-3.28727e-06
1.92409e-05
-3.77999e-06
1.90791e-05
-4.28229e-06
1.89026e-05
-4.79225e-06
1.87114e-05
-5.30743e-06
1.85058e-05
-5.82487e-06
1.82863e-05
-6.34114e-06
1.80533e-05
-6.85244e-06
1.78077e-05
-7.3547e-06
1.75504e-05
-7.84375e-06
1.72827e-05
-8.31547e-06
1.70057e-05
-8.76598e-06
1.67207e-05
-9.19184e-06
1.64293e-05
-9.59014e-06
1.61326e-05
-9.95865e-06
1.58321e-05
-1.02958e-05
1.55289e-05
-1.06007e-05
1.52241e-05
-1.08732e-05
1.49187e-05
-1.11135e-05
1.46135e-05
-1.13223e-05
1.43093e-05
-1.15007e-05
1.40066e-05
-1.16499e-05
1.37063e-05
-1.17714e-05
1.34088e-05
-1.18669e-05
1.31143e-05
-1.19381e-05
1.2823e-05
-1.19869e-05
1.2535e-05
-1.20147e-05
1.22504e-05
-1.20228e-05
1.1969e-05
-1.20124e-05
1.16912e-05
-1.19846e-05
1.14169e-05
-1.19403e-05
1.11464e-05
-1.18804e-05
1.08798e-05
-1.18057e-05
1.06173e-05
-1.17172e-05
1.03589e-05
-1.16158e-05
1.01046e-05
-1.15023e-05
9.85448e-06
-1.13777e-05
9.6086e-06
-1.12426e-05
9.36699e-06
-1.10977e-05
9.12972e-06
-1.09439e-05
8.89686e-06
-1.07816e-05
8.66848e-06
-1.06117e-05
8.44464e-06
-1.04347e-05
8.22542e-06
-1.02513e-05
8.01088e-06
-1.0062e-05
7.80109e-06
-9.86744e-06
7.5961e-06
-9.66821e-06
7.39596e-06
-9.46485e-06
7.20072e-06
-9.25791e-06
7.01041e-06
-9.04789e-06
6.82508e-06
-8.8353e-06
6.64473e-06
-8.62063e-06
6.4694e-06
-8.40434e-06
6.29908e-06
-8.18686e-06
6.13377e-06
-7.96862e-06
5.97348e-06
-7.75002e-06
5.81818e-06
-7.53144e-06
5.66785e-06
-7.31324e-06
5.52246e-06
-7.09576e-06
5.38199e-06
-6.87932e-06
5.24639e-06
-6.66423e-06
5.11561e-06
-6.45079e-06
4.98961e-06
-6.23926e-06
4.86833e-06
-6.02991e-06
4.75171e-06
-5.823e-06
4.63969e-06
-5.61876e-06
4.5322e-06
-5.41744e-06
4.42918e-06
-5.21926e-06
4.33056e-06
-5.02446e-06
4.23627e-06
-4.83325e-06
4.14623e-06
-4.64586e-06
4.06037e-06
-4.46252e-06
3.97863e-06
-4.28347e-06
3.90092e-06
-4.10894e-06
3.82718e-06
-3.93917e-06
3.75733e-06
-3.77444e-06
3.6913e-06
-3.615e-06
3.62903e-06
-3.46116e-06
3.57044e-06
-3.31321e-06
3.51547e-06
-3.17148e-06
3.46404e-06
-3.03634e-06
3.4161e-06
-2.90816e-06
3.37156e-06
-2.78736e-06
3.33037e-06
-2.67438e-06
3.29243e-06
-2.56972e-06
3.25767e-06
-2.47392e-06
3.22597e-06
-2.38757e-06
3.19719e-06
-2.31131e-06
3.17115e-06
-2.24583e-06
3.14757e-06
-2.1919e-06
3.12608e-06
-2.15025e-06
3.10616e-06
-2.12173e-06
-2.10739e-06
1.99895e-05
-1.77952e-07
1.99587e-05
-5.5589e-07
1.99086e-05
-9.53299e-07
1.9841e-05
-1.36663e-06
1.97568e-05
-1.79447e-06
1.9657e-05
-2.236e-06
1.9542e-05
-2.69055e-06
1.9412e-05
-3.15729e-06
1.92672e-05
-3.63513e-06
1.91075e-05
-4.12262e-06
1.89331e-05
-4.61785e-06
1.87441e-05
-5.11845e-06
1.85408e-05
-5.62159e-06
1.83237e-05
-6.12398e-06
1.80932e-05
-6.62199e-06
1.78503e-05
-7.11174e-06
1.75957e-05
-7.5892e-06
1.73307e-05
-8.05041e-06
1.70563e-05
-8.49162e-06
1.67739e-05
-8.90945e-06
1.64848e-05
-9.30105e-06
1.61903e-05
-9.66415e-06
1.58917e-05
-9.99717e-06
1.55901e-05
-1.02992e-05
1.52867e-05
-1.05698e-05
1.49823e-05
-1.08092e-05
1.46779e-05
-1.1018e-05
1.43743e-05
-1.11971e-05
1.40721e-05
-1.13477e-05
1.37719e-05
-1.14712e-05
1.34743e-05
-1.15693e-05
1.31796e-05
-1.16434e-05
1.28879e-05
-1.16952e-05
1.25993e-05
-1.17261e-05
1.2314e-05
-1.17375e-05
1.2032e-05
-1.17304e-05
1.17535e-05
-1.1706e-05
1.14784e-05
-1.16653e-05
1.12071e-05
-1.16091e-05
1.09397e-05
-1.15383e-05
1.06762e-05
-1.14537e-05
1.04168e-05
-1.13564e-05
1.01616e-05
-1.12471e-05
9.91059e-06
-1.11267e-05
9.66384e-06
-1.09958e-05
9.42142e-06
-1.08553e-05
9.1834e-06
-1.07058e-05
8.94983e-06
-1.05481e-05
8.72079e-06
-1.03827e-05
8.49634e-06
-1.02103e-05
8.27655e-06
-1.00315e-05
8.06148e-06
-9.84692e-06
7.85119e-06
-9.65715e-06
7.64573e-06
-9.46275e-06
7.44515e-06
-9.26428e-06
7.2495e-06
-9.06225e-06
7.05881e-06
-8.8572e-06
6.8731e-06
-8.6496e-06
6.69241e-06
-8.43994e-06
6.51673e-06
-8.22866e-06
6.34608e-06
-8.01621e-06
6.18046e-06
-7.803e-06
6.01986e-06
-7.58942e-06
5.86425e-06
-7.37584e-06
5.71363e-06
-7.16261e-06
5.56796e-06
-6.95008e-06
5.4272e-06
-6.73856e-06
5.29131e-06
-6.52835e-06
5.16025e-06
-6.31973e-06
5.03397e-06
-6.11297e-06
4.91241e-06
-5.90835e-06
4.79551e-06
-5.7061e-06
4.68321e-06
-5.50646e-06
4.57544e-06
-5.30968e-06
4.47215e-06
-5.11597e-06
4.37325e-06
-4.92556e-06
4.27867e-06
-4.73868e-06
4.18835e-06
-4.55554e-06
4.10222e-06
-4.37639e-06
4.02018e-06
-4.20144e-06
3.94218e-06
-4.03094e-06
3.86814e-06
-3.86513e-06
3.79798e-06
-3.70428e-06
3.73163e-06
-3.54865e-06
3.66901e-06
-3.39854e-06
3.61005e-06
-3.25425e-06
3.55467e-06
-3.11611e-06
3.50281e-06
-2.98447e-06
3.45437e-06
-2.85972e-06
3.40927e-06
-2.74226e-06
3.36744e-06
-2.63254e-06
3.32875e-06
-2.53104e-06
3.29311e-06
-2.43828e-06
3.26036e-06
-2.35482e-06
3.23033e-06
-2.28128e-06
3.20278e-06
-2.21829e-06
3.17743e-06
-2.16654e-06
3.15388e-06
-2.1267e-06
3.13162e-06
-2.09947e-06
-2.08579e-06
1.99907e-05
-1.68609e-07
1.99624e-05
-5.27673e-07
1.99159e-05
-9.06747e-07
1.98519e-05
-1.30266e-06
1.97714e-05
-1.71394e-06
1.9675e-05
-2.13958e-06
1.95631e-05
-2.57867e-06
1.9436e-05
-3.03022e-06
1.92939e-05
-3.49306e-06
1.9137e-05
-3.96566e-06
1.89653e-05
-4.44614e-06
1.8779e-05
-4.93221e-06
1.85786e-05
-5.42111e-06
1.83643e-05
-5.90971e-06
1.81368e-05
-6.39452e-06
1.78969e-05
-6.87181e-06
1.76454e-05
-7.33772e-06
1.73834e-05
-7.78841e-06
1.7112e-05
-8.22025e-06
1.68325e-05
-8.62994e-06
1.65461e-05
-9.01465e-06
1.62541e-05
-9.37214e-06
1.59577e-05
-9.70077e-06
1.56581e-05
-9.99952e-06
1.53563e-05
-1.0268e-05
1.50533e-05
-1.05062e-05
1.475e-05
-1.07147e-05
1.44472e-05
-1.08943e-05
1.41456e-05
-1.10461e-05
1.38457e-05
-1.11714e-05
1.35482e-05
-1.12717e-05
1.32532e-05
-1.13484e-05
1.29611e-05
-1.14031e-05
1.2672e-05
-1.1437e-05
1.23861e-05
-1.14515e-05
1.21034e-05
-1.14477e-05
1.18241e-05
-1.14267e-05
1.15484e-05
-1.13895e-05
1.12763e-05
-1.1337e-05
1.1008e-05
-1.127e-05
1.07436e-05
-1.11894e-05
1.04833e-05
-1.10961e-05
1.02272e-05
-1.0991e-05
9.97527e-06
-1.08748e-05
9.72765e-06
-1.07482e-05
9.48439e-06
-1.06121e-05
9.24558e-06
-1.0467e-05
9.01126e-06
-1.03138e-05
8.78151e-06
-1.01529e-05
8.55639e-06
-9.98515e-06
8.33597e-06
-9.81107e-06
8.12031e-06
-9.63126e-06
7.90946e-06
-9.4463e-06
7.70348e-06
-9.25677e-06
7.50241e-06
-9.06321e-06
7.30628e-06
-8.86613e-06
7.11514e-06
-8.66605e-06
6.92901e-06
-8.46346e-06
6.7479e-06
-8.25883e-06
6.57182e-06
-8.05259e-06
6.40079e-06
-7.84518e-06
6.23479e-06
-7.637e-06
6.07382e-06
-7.42845e-06
5.91786e-06
-7.21988e-06
5.76688e-06
-7.01164e-06
5.62085e-06
-6.80406e-06
5.47975e-06
-6.59745e-06
5.34352e-06
-6.39212e-06
5.21212e-06
-6.18833e-06
5.0855e-06
-5.98635e-06
4.9636e-06
-5.78645e-06
4.84637e-06
-5.58886e-06
4.73373e-06
-5.39383e-06
4.62564e-06
-5.20158e-06
4.522e-06
-5.01233e-06
4.42277e-06
-4.82632e-06
4.32786e-06
-4.64377e-06
4.2372e-06
-4.46488e-06
4.15072e-06
-4.2899e-06
4.06834e-06
-4.11906e-06
3.98998e-06
-3.95258e-06
3.91557e-06
-3.79072e-06
3.84503e-06
-3.63374e-06
3.77829e-06
-3.4819e-06
3.71525e-06
-3.3355e-06
3.65585e-06
-3.19484e-06
3.59999e-06
-3.06025e-06
3.54759e-06
-2.93208e-06
3.49857e-06
-2.8107e-06
3.45282e-06
-2.69651e-06
3.41023e-06
-2.58996e-06
3.37069e-06
-2.4915e-06
3.33406e-06
-2.40164e-06
3.30017e-06
-2.32092e-06
3.2688e-06
-2.24991e-06
3.23972e-06
-2.18921e-06
3.2126e-06
-2.13942e-06
3.18706e-06
-2.10115e-06
3.16263e-06
-2.07504e-06
-2.06191e-06
1.99915e-05
-1.60095e-07
1.99654e-05
-5.01623e-07
1.99219e-05
-8.63235e-07
1.98614e-05
-1.24217e-06
1.97845e-05
-1.63703e-06
1.96917e-05
-2.04673e-06
1.95832e-05
-2.47024e-06
1.94595e-05
-2.90649e-06
1.93207e-05
-3.35422e-06
1.91669e-05
-3.81188e-06
1.89984e-05
-4.27761e-06
1.88153e-05
-4.74916e-06
1.86181e-05
-5.22388e-06
1.84071e-05
-5.69874e-06
1.8183e-05
-6.17041e-06
1.79465e-05
-6.63528e-06
1.76984e-05
-7.08964e-06
1.74398e-05
-7.52979e-06
1.71717e-05
-7.95218e-06
1.68953e-05
-8.35359e-06
1.66119e-05
-8.73124e-06
1.63227e-05
-9.08289e-06
1.60288e-05
-9.40686e-06
1.57314e-05
-9.7021e-06
1.54315e-05
-9.9681e-06
1.51301e-05
-1.02048e-05
1.48282e-05
-1.04127e-05
1.45264e-05
-1.05925e-05
1.42256e-05
-1.07452e-05
1.39262e-05
-1.08721e-05
1.36289e-05
-1.09743e-05
1.33339e-05
-1.10534e-05
1.30415e-05
-1.11107e-05
1.2752e-05
-1.11475e-05
1.24655e-05
-1.11651e-05
1.21822e-05
-1.11645e-05
1.19023e-05
-1.11468e-05
1.16258e-05
-1.1113e-05
1.13529e-05
-1.10641e-05
1.10838e-05
-1.10008e-05
1.08186e-05
-1.09242e-05
1.05574e-05
-1.0835e-05
1.03004e-05
-1.0734e-05
1.00476e-05
-1.0622e-05
9.79916e-06
-1.04997e-05
9.55507e-06
-1.0368e-05
9.31545e-06
-1.02274e-05
9.08036e-06
-1.00787e-05
8.84987e-06
-9.92244e-06
8.62405e-06
-9.75934e-06
8.40297e-06
-9.58998e-06
8.18667e-06
-9.41496e-06
7.97523e-06
-9.23485e-06
7.76867e-06
-9.05022e-06
7.56705e-06
-8.86159e-06
7.3704e-06
-8.66948e-06
7.17876e-06
-8.47441e-06
6.99214e-06
-8.27684e-06
6.81056e-06
-8.07725e-06
6.63403e-06
-7.87606e-06
6.46256e-06
-7.6737e-06
6.29613e-06
-7.47058e-06
6.13474e-06
-7.26705e-06
5.97836e-06
-7.0635e-06
5.82697e-06
-6.86025e-06
5.68054e-06
-6.65763e-06
5.53904e-06
-6.45595e-06
5.40241e-06
-6.25549e-06
5.27062e-06
-6.05653e-06
5.14361e-06
-5.85934e-06
5.02132e-06
-5.66416e-06
4.9037e-06
-5.47124e-06
4.79067e-06
-5.28081e-06
4.68219e-06
-5.09309e-06
4.57817e-06
-4.90831e-06
4.47854e-06
-4.7267e-06
4.38324e-06
-4.54846e-06
4.29219e-06
-4.37383e-06
4.20531e-06
-4.20302e-06
4.12252e-06
-4.03627e-06
4.04375e-06
-3.87381e-06
3.96891e-06
-3.71588e-06
3.89793e-06
-3.56276e-06
3.83072e-06
-3.41469e-06
3.7672e-06
-3.27198e-06
3.70727e-06
-3.13492e-06
3.65086e-06
-3.00384e-06
3.59786e-06
-2.87908e-06
3.54817e-06
-2.76101e-06
3.50168e-06
-2.65002e-06
3.45826e-06
-2.54654e-06
3.41779e-06
-2.45103e-06
3.3801e-06
-2.36395e-06
3.34499e-06
-2.28582e-06
3.31226e-06
-2.21718e-06
3.28163e-06
-2.15858e-06
3.25278e-06
-2.11058e-06
3.22535e-06
-2.07372e-06
3.19889e-06
-2.04858e-06
-2.03594e-06
1.99921e-05
-1.52232e-07
1.99679e-05
-4.77371e-07
1.9927e-05
-8.22382e-07
1.98697e-05
-1.18489e-06
1.97963e-05
-1.56361e-06
1.97071e-05
-1.95748e-06
1.96023e-05
-2.36544e-06
1.94822e-05
-2.78637e-06
1.93469e-05
-3.21895e-06
1.91967e-05
-3.66166e-06
1.90317e-05
-4.11264e-06
1.88522e-05
-4.56969e-06
1.86586e-05
-5.03027e-06
1.84513e-05
-5.49144e-06
1.82309e-05
-5.95e-06
1.79981e-05
-6.40247e-06
1.77537e-05
-6.84527e-06
1.74988e-05
-7.27482e-06
1.72343e-05
-7.68767e-06
1.69613e-05
-8.08066e-06
1.66812e-05
-8.45107e-06
1.63949e-05
-8.79665e-06
1.61038e-05
-9.11572e-06
1.58088e-05
-9.40716e-06
1.55111e-05
-9.6704e-06
1.52117e-05
-9.90535e-06
1.49113e-05
-1.01123e-05
1.46108e-05
-1.0292e-05
1.43109e-05
-1.04453e-05
1.40122e-05
-1.05734e-05
1.37152e-05
-1.06773e-05
1.34203e-05
-1.07585e-05
1.31279e-05
-1.08183e-05
1.28381e-05
-1.08578e-05
1.25512e-05
-1.08782e-05
1.22674e-05
-1.08807e-05
1.19868e-05
-1.08662e-05
1.17097e-05
-1.08359e-05
1.14361e-05
-1.07905e-05
1.11663e-05
-1.0731e-05
1.09003e-05
-1.06582e-05
1.06383e-05
-1.0573e-05
1.03805e-05
-1.04761e-05
1.01269e-05
-1.03683e-05
9.87755e-06
-1.02504e-05
9.63264e-06
-1.01231e-05
9.39222e-06
-9.98697e-06
9.15636e-06
-9.8428e-06
8.92512e-06
-9.6912e-06
8.69859e-06
-9.5328e-06
8.47681e-06
-9.36821e-06
8.25986e-06
-9.19801e-06
8.04777e-06
-9.02277e-06
7.84061e-06
-8.84305e-06
7.6384e-06
-8.65938e-06
7.44119e-06
-8.47227e-06
7.24899e-06
-8.28222e-06
7.06185e-06
-8.08969e-06
6.87975e-06
-7.89516e-06
6.70273e-06
-7.69903e-06
6.53076e-06
-7.50174e-06
6.36385e-06
-7.30367e-06
6.20199e-06
-7.10519e-06
6.04515e-06
-6.90666e-06
5.8933e-06
-6.7084e-06
5.74642e-06
-6.51075e-06
5.60446e-06
-6.31399e-06
5.46739e-06
-6.11842e-06
5.33515e-06
-5.9243e-06
5.2077e-06
-5.73189e-06
5.08497e-06
-5.54143e-06
4.9669e-06
-5.35318e-06
4.85344e-06
-5.16734e-06
4.74452e-06
-4.98416e-06
4.64006e-06
-4.80385e-06
4.53999e-06
-4.62663e-06
4.44424e-06
-4.45272e-06
4.35274e-06
-4.28233e-06
4.26541e-06
-4.11569e-06
4.18216e-06
-3.95302e-06
4.10292e-06
-3.79457e-06
4.0276e-06
-3.64056e-06
3.95611e-06
-3.49127e-06
3.88838e-06
-3.34696e-06
3.82431e-06
-3.20791e-06
3.7638e-06
-3.07441e-06
3.70677e-06
-2.9468e-06
3.65309e-06
-2.8254e-06
3.60266e-06
-2.71058e-06
3.55537e-06
-2.60272e-06
3.51106e-06
-2.50224e-06
3.46959e-06
-2.40956e-06
3.43079e-06
-2.32514e-06
3.39444e-06
-2.24948e-06
3.36033e-06
-2.18307e-06
3.32817e-06
-2.12642e-06
3.29766e-06
-2.08006e-06
3.26843e-06
-2.04449e-06
3.24008e-06
-2.02023e-06
-2.00803e-06
1.99927e-05
-1.44899e-07
1.99699e-05
-4.54643e-07
1.99314e-05
-7.8387e-07
1.98771e-05
-1.13053e-06
1.9807e-05
-1.49351e-06
1.97213e-05
-1.87179e-06
1.96202e-05
-2.26433e-06
1.95038e-05
-2.66999e-06
1.93723e-05
-3.08748e-06
1.92259e-05
-3.51526e-06
1.90648e-05
-3.95152e-06
1.88892e-05
-4.39412e-06
1.86996e-05
-4.84059e-06
1.84962e-05
-5.28811e-06
1.82798e-05
-5.73358e-06
1.8051e-05
-6.17366e-06
1.78106e-05
-6.60487e-06
1.75595e-05
-7.02375e-06
1.72988e-05
-7.42695e-06
1.70295e-05
-7.81139e-06
1.67528e-05
-8.17436e-06
1.64698e-05
-8.51365e-06
1.61817e-05
-8.82755e-06
1.58894e-05
-9.11491e-06
1.55941e-05
-9.3751e-06
1.52967e-05
-9.60796e-06
1.49981e-05
-9.81374e-06
1.46991e-05
-9.99301e-06
1.44004e-05
-1.01466e-05
1.41025e-05
-1.02755e-05
1.38061e-05
-1.03809e-05
1.35115e-05
-1.0464e-05
1.32191e-05
-1.05259e-05
1.29293e-05
-1.05679e-05
1.26421e-05
-1.0591e-05
1.23579e-05
-1.05965e-05
1.20769e-05
-1.05852e-05
1.17992e-05
-1.05582e-05
1.15251e-05
-1.05163e-05
1.12545e-05
-1.04605e-05
1.09879e-05
-1.03915e-05
1.07252e-05
-1.03103e-05
1.04665e-05
-1.02175e-05
1.02121e-05
-1.01139e-05
9.96203e-06
-1.00003e-05
9.71634e-06
-9.87738e-06
9.47514e-06
-9.74577e-06
9.23851e-06
-9.60618e-06
9.00654e-06
-9.45923e-06
8.77928e-06
-9.30554e-06
8.5568e-06
-9.14573e-06
8.33917e-06
-8.98037e-06
8.12642e-06
-8.81003e-06
7.91862e-06
-8.63525e-06
7.71579e-06
-8.45655e-06
7.51798e-06
-8.27446e-06
7.32521e-06
-8.08944e-06
7.13749e-06
-7.90198e-06
6.95484e-06
-7.71251e-06
6.77727e-06
-7.52146e-06
6.60478e-06
-7.32924e-06
6.43734e-06
-7.13624e-06
6.27496e-06
-6.94281e-06
6.11761e-06
-6.7493e-06
5.96526e-06
-6.55605e-06
5.81788e-06
-6.36337e-06
5.67543e-06
-6.17154e-06
5.53786e-06
-5.98085e-06
5.40513e-06
-5.79157e-06
5.27719e-06
-5.60394e-06
5.15397e-06
-5.41822e-06
5.03542e-06
-5.23462e-06
4.92147e-06
-5.0534e-06
4.81206e-06
-4.87475e-06
4.70711e-06
-4.69891e-06
4.60655e-06
-4.52608e-06
4.51031e-06
-4.35648e-06
4.41831e-06
-4.19033e-06
4.33048e-06
-4.02785e-06
4.24671e-06
-3.86926e-06
4.16695e-06
-3.7148e-06
4.09109e-06
-3.56471e-06
4.01905e-06
-3.41924e-06
3.95075e-06
-3.27865e-06
3.88607e-06
-3.14323e-06
3.82492e-06
-3.01327e-06
3.7672e-06
-2.88908e-06
3.7128e-06
-2.77099e-06
3.66158e-06
-2.65936e-06
3.61342e-06
-2.55456e-06
3.56817e-06
-2.45699e-06
3.52567e-06
-2.36705e-06
3.48572e-06
-2.2852e-06
3.44813e-06
-2.21189e-06
3.41265e-06
-2.14758e-06
3.379e-06
-2.09277e-06
3.34688e-06
-2.04794e-06
3.31595e-06
-2.01355e-06
3.28583e-06
-1.99011e-06
-1.97831e-06
1.99931e-05
-1.38014e-07
1.99717e-05
-4.33232e-07
1.99353e-05
-7.47437e-07
1.98836e-05
-1.07887e-06
1.98166e-05
-1.42655e-06
1.97344e-05
-1.78955e-06
1.9637e-05
-2.16689e-06
1.95244e-05
-2.55743e-06
1.93968e-05
-2.95992e-06
1.92544e-05
-3.37285e-06
1.90974e-05
-3.79446e-06
1.89259e-05
-4.22267e-06
1.87404e-05
-4.65508e-06
1.85413e-05
-5.08899e-06
1.83291e-05
-5.52139e-06
1.81045e-05
-5.94906e-06
1.78683e-05
-6.36865e-06
1.76213e-05
-6.77679e-06
1.73646e-05
-7.17024e-06
1.70992e-05
-7.54596e-06
1.68261e-05
-7.90131e-06
1.65465e-05
-8.23407e-06
1.62616e-05
-8.54255e-06
1.59722e-05
-8.82556e-06
1.56795e-05
-9.08241e-06
1.53844e-05
-9.31287e-06
1.50878e-05
-9.51712e-06
1.47904e-05
-9.69566e-06
1.44931e-05
-9.84922e-06
1.41963e-05
-9.97874e-06
1.39006e-05
-1.00853e-05
1.36065e-05
-1.01699e-05
1.33144e-05
-1.02338e-05
1.30246e-05
-1.02781e-05
1.27374e-05
-1.03038e-05
1.2453e-05
-1.03121e-05
1.21717e-05
-1.03038e-05
1.18935e-05
-1.02801e-05
1.16189e-05
-1.02416e-05
1.13478e-05
-1.01894e-05
1.10805e-05
-1.01243e-05
1.08171e-05
-1.00469e-05
1.05578e-05
-9.95818e-06
1.03027e-05
-9.8588e-06
1.00518e-05
-9.74949e-06
9.80541e-06
-9.63094e-06
9.56346e-06
-9.50383e-06
9.3261e-06
-9.36881e-06
9.09339e-06
-9.22652e-06
8.86542e-06
-9.07757e-06
8.64224e-06
-8.92255e-06
8.42392e-06
-8.76205e-06
8.2105e-06
-8.59661e-06
8.00205e-06
-8.42679e-06
7.79858e-06
-8.25309e-06
7.60014e-06
-8.07602e-06
7.40676e-06
-7.89606e-06
7.21844e-06
-7.71366e-06
7.03521e-06
-7.52928e-06
6.85706e-06
-7.34331e-06
6.68399e-06
-7.15618e-06
6.516e-06
-6.96824e-06
6.35306e-06
-6.77987e-06
6.19516e-06
-6.5914e-06
6.04227e-06
-6.40316e-06
5.89434e-06
-6.21544e-06
5.75135e-06
-6.02855e-06
5.61325e-06
-5.84275e-06
5.47999e-06
-5.65831e-06
5.35151e-06
-5.47546e-06
5.22776e-06
-5.29447e-06
5.10868e-06
-5.11554e-06
4.9942e-06
-4.93892e-06
4.88426e-06
-4.76481e-06
4.77878e-06
-4.59342e-06
4.67769e-06
-4.42499e-06
4.58091e-06
-4.2597e-06
4.48837e-06
-4.09779e-06
4.39998e-06
-3.93946e-06
4.31566e-06
-3.78494e-06
4.23532e-06
-3.63446e-06
4.15888e-06
-3.48827e-06
4.08624e-06
-3.3466e-06
4.0173e-06
-3.20971e-06
3.95197e-06
-3.0779e-06
3.89014e-06
-2.95143e-06
3.83169e-06
-2.83063e-06
3.7765e-06
-2.71581e-06
3.72445e-06
-2.60731e-06
3.67539e-06
-2.5055e-06
3.62916e-06
-2.41076e-06
3.5856e-06
-2.32349e-06
3.54451e-06
-2.24411e-06
3.50566e-06
-2.17304e-06
3.46883e-06
-2.11075e-06
3.43374e-06
-2.05768e-06
3.40008e-06
-2.01428e-06
3.36753e-06
-1.98101e-06
3.33575e-06
-1.95833e-06
-1.94689e-06
1.99935e-05
-1.31515e-07
1.99732e-05
-4.12978e-07
1.99387e-05
-7.12866e-07
1.98895e-05
-1.02966e-06
1.98254e-05
-1.36253e-06
1.97465e-05
-1.71063e-06
1.96527e-05
-2.07303e-06
1.95439e-05
-2.44868e-06
1.94203e-05
-2.83633e-06
1.9282e-05
-3.23454e-06
1.91291e-05
-3.64159e-06
1.8962e-05
-4.05549e-06
1.87808e-05
-4.47391e-06
1.8586e-05
-4.89424e-06
1.83782e-05
-5.31359e-06
1.8158e-05
-5.72885e-06
1.79262e-05
-6.13678e-06
1.76835e-05
-6.53412e-06
1.74309e-05
-6.91769e-06
1.71695e-05
-7.28455e-06
1.69003e-05
-7.63208e-06
1.66243e-05
-7.95811e-06
1.63427e-05
-8.26091e-06
1.60564e-05
-8.53929e-06
1.57665e-05
-8.79249e-06
1.54739e-05
-9.02026e-06
1.51795e-05
-9.22267e-06
1.4884e-05
-9.40016e-06
1.45881e-05
-9.55339e-06
1.42926e-05
-9.6832e-06
1.39979e-05
-9.79057e-06
1.37045e-05
-9.87653e-06
1.34129e-05
-9.94217e-06
1.31234e-05
-9.98853e-06
1.28362e-05
-1.00167e-05
1.25518e-05
-1.00276e-05
1.22702e-05
-1.00223e-05
1.19918e-05
-1.00017e-05
1.17168e-05
-9.96658e-06
1.14452e-05
-9.9179e-06
1.11774e-05
-9.85644e-06
1.09135e-05
-9.78297e-06
1.06535e-05
-9.69825e-06
1.03978e-05
-9.60302e-06
1.01463e-05
-9.49798e-06
9.89912e-06
-9.38381e-06
9.65648e-06
-9.26119e-06
9.41841e-06
-9.13074e-06
9.185e-06
-8.99311e-06
8.95633e-06
-8.84889e-06
8.73246e-06
-8.69868e-06
8.51345e-06
-8.54304e-06
8.29936e-06
-8.38253e-06
8.09024e-06
-8.21767e-06
7.88613e-06
-8.04897e-06
7.68705e-06
-7.87694e-06
7.49303e-06
-7.70204e-06
7.30409e-06
-7.52472e-06
7.12024e-06
-7.34543e-06
6.94149e-06
-7.16456e-06
6.76782e-06
-6.98251e-06
6.59923e-06
-6.79965e-06
6.43571e-06
-6.61634e-06
6.27722e-06
-6.43292e-06
6.12374e-06
-6.24968e-06
5.97524e-06
-6.06694e-06
5.83167e-06
-5.88498e-06
5.693e-06
-5.70408e-06
5.55917e-06
-5.52447e-06
5.43012e-06
-5.34642e-06
5.3058e-06
-5.17015e-06
5.18615e-06
-4.99589e-06
5.0711e-06
-4.82387e-06
4.96059e-06
-4.65429e-06
4.85453e-06
-4.48737e-06
4.75287e-06
-4.32332e-06
4.65551e-06
-4.16235e-06
4.56239e-06
-4.00466e-06
4.47341e-06
-3.85048e-06
4.38848e-06
-3.70002e-06
4.30754e-06
-3.55351e-06
4.23047e-06
-3.41119e-06
4.15718e-06
-3.27331e-06
4.08757e-06
-3.14011e-06
4.02154e-06
-3.01187e-06
3.95898e-06
-2.88887e-06
3.89975e-06
-2.77141e-06
3.84375e-06
-2.6598e-06