/*--------------------------------*- C++ -*----------------------------------*\
  =========                 |
  \\      /  F ield         | OpenFOAM: The Open Source CFD Toolbox
   \\    /   O peration     | Website:  https://openfoam.org
    \\  /    A nd           | Version:  11
     \\/     M anipulation  |
\*---------------------------------------------------------------------------*/
FoamFile
{
    format      ascii;
    class       volScalarField;
    location    "766";
    object      omega;
}
// * * * * * * * * * * * * * * * * * * * * * * * * * * * * * * * * * * * * * //

dimensions      [0 0 -1 0 0 0 0];

internalField   nonuniform List<scalar> 
10000
(
0.961692
0.892185
0.829084
0.771728
0.719523
0.671944
0.628523
0.588843
0.552532
0.519258
0.488725
0.460668
0.434851
0.411062
0.389111
0.36883
0.350064
0.332679
0.31655
0.301567
0.28763
0.27465
0.262546
0.251244
0.240679
0.23079
0.221524
0.212831
0.204665
0.196988
0.189761
0.182951
0.176527
0.170462
0.164728
0.159304
0.154167
0.149297
0.144677
0.14029
0.13612
0.132154
0.128377
0.124779
0.121348
0.118074
0.114946
0.111958
0.1091
0.106364
0.103744
0.101233
0.0988246
0.0965136
0.0942946
0.0921625
0.0901126
0.0881407
0.0862427
0.0844147
0.0826532
0.0809549
0.0793166
0.0777353
0.0762082
0.0747328
0.0733065
0.0719271
0.0705922
0.0692999
0.0680482
0.0668351
0.065659
0.064518
0.0634108
0.0623356
0.0612912
0.060276
0.0592889
0.0583286
0.0573938
0.0564836
0.0555969
0.0547328
0.0538903
0.0530688
0.0522677
0.0514866
0.0507254
0.0499843
0.0492642
0.0485665
0.0478938
0.0472502
0.0466418
0.0460776
0.0455708
0.0451403
0.0448128
0.0446259
0.961692
0.892185
0.829084
0.771728
0.719523
0.671944
0.628523
0.588843
0.552532
0.519258
0.488725
0.460668
0.434851
0.411062
0.389111
0.36883
0.350064
0.332679
0.31655
0.301567
0.28763
0.27465
0.262546
0.251244
0.240679
0.230791
0.221524
0.212831
0.204666
0.196988
0.189761
0.182951
0.176528
0.170462
0.164729
0.159304
0.154167
0.149298
0.144677
0.14029
0.13612
0.132154
0.128377
0.124779
0.121348
0.118074
0.114947
0.111958
0.1091
0.106364
0.103744
0.101233
0.0988247
0.0965138
0.0942947
0.0921626
0.0901128
0.0881409
0.0862428
0.0844149
0.0826534
0.0809551
0.0793167
0.0777354
0.0762084
0.074733
0.0733067
0.0719273
0.0705924
0.0693001
0.0680484
0.0668353
0.0656592
0.0645183
0.063411
0.0623359
0.0612915
0.0602763
0.0592892
0.0583289
0.0573942
0.056484
0.0555973
0.0547331
0.0538907
0.0530692
0.0522681
0.051487
0.0507258
0.0499847
0.0492646
0.048567
0.0478943
0.0472507
0.0466423
0.0460781
0.0455713
0.0451407
0.0448133
0.0446264
0.961692
0.892185
0.829084
0.771728
0.719523
0.671944
0.628523
0.588843
0.552532
0.519258
0.488725
0.460668
0.434851
0.411062
0.389111
0.36883
0.350064
0.332679
0.31655
0.301567
0.28763
0.27465
0.262546
0.251244
0.240679
0.230791
0.221524
0.212831
0.204666
0.196988
0.189761
0.182951
0.176528
0.170462
0.164729
0.159304
0.154167
0.149298
0.144678
0.14029
0.13612
0.132154
0.128377
0.124779
0.121348
0.118074
0.114947
0.111958
0.1091
0.106364
0.103744
0.101233
0.0988249
0.096514
0.094295
0.0921628
0.090113
0.0881411
0.0862431
0.0844152
0.0826537
0.0809554
0.0793171
0.0777358
0.0762088
0.0747334
0.0733071
0.0719277
0.0705929
0.0693006
0.0680489
0.0668358
0.0656597
0.0645188
0.0634116
0.0623364
0.061292
0.0602769
0.0592898
0.0583295
0.0573948
0.0564847
0.055598
0.0547338
0.0538914
0.0530699
0.0522689
0.0514878
0.0507266
0.0499856
0.0492655
0.0485678
0.0478952
0.0472516
0.0466432
0.046079
0.0455722
0.0451417
0.0448142
0.0446274
0.961692
0.892185
0.829084
0.771728
0.719523
0.671944
0.628523
0.588843
0.552532
0.519258
0.488725
0.460668
0.434851
0.411062
0.389111
0.36883
0.350064
0.332679
0.31655
0.301567
0.28763
0.27465
0.262546
0.251244
0.240679
0.230791
0.221524
0.212831
0.204666
0.196988
0.189761
0.182951
0.176528
0.170462
0.164729
0.159304
0.154167
0.149298
0.144678
0.14029
0.136121
0.132154
0.128378
0.124779
0.121348
0.118074
0.114947
0.111958
0.1091
0.106364
0.103744
0.101233
0.0988252
0.0965143
0.0942953
0.0921632
0.0901134
0.0881415
0.0862435
0.0844156
0.0826542
0.0809559
0.0793176
0.0777363
0.0762093
0.0747339
0.0733077
0.0719283
0.0705935
0.0693012
0.0680495
0.0668365
0.0656604
0.0645195
0.0634123
0.0623372
0.0612928
0.0602778
0.0592907
0.0583304
0.0573958
0.0564856
0.055599
0.0547349
0.0538925
0.0530711
0.05227
0.051489
0.0507278
0.0499868
0.0492668
0.0485692
0.0478965
0.047253
0.0466446
0.0460804
0.0455736
0.0451431
0.0448156
0.0446288
0.961692
0.892185
0.829084
0.771728
0.719523
0.671944
0.628523
0.588843
0.552532
0.519258
0.488725
0.460668
0.434851
0.411062
0.389111
0.36883
0.350064
0.332679
0.31655
0.301567
0.28763
0.27465
0.262546
0.251245
0.240679
0.230791
0.221524
0.212831
0.204666
0.196988
0.189761
0.182952
0.176528
0.170462
0.164729
0.159304
0.154167
0.149298
0.144678
0.140291
0.136121
0.132154
0.128378
0.12478
0.121349
0.118074
0.114947
0.111959
0.1091
0.106365
0.103745
0.101234
0.0988256
0.0965148
0.0942958
0.0921637
0.0901139
0.088142
0.0862441
0.0844162
0.0826547
0.0809565
0.0793182
0.077737
0.07621
0.0747346
0.0733084
0.0719291
0.0705943
0.0693021
0.0680504
0.0668374
0.0656614
0.0645205
0.0634133
0.0623383
0.0612939
0.0602789
0.0592919
0.0583316
0.057397
0.0564869
0.0556003
0.0547363
0.0538939
0.0530725
0.0522715
0.0514905
0.0507294
0.0499885
0.0492685
0.0485709
0.0478983
0.0472547
0.0466464
0.0460822
0.0455754
0.0451449
0.0448175
0.0446306
0.961692
0.892185
0.829084
0.771728
0.719523
0.671944
0.628523
0.588843
0.552532
0.519258
0.488725
0.460668
0.434851
0.411062
0.389111
0.36883
0.350064
0.332679
0.31655
0.301567
0.28763
0.27465
0.262546
0.251245
0.240679
0.230791
0.221524
0.212831
0.204666
0.196988
0.189762
0.182952
0.176528
0.170462
0.164729
0.159305
0.154168
0.149298
0.144678
0.140291
0.136121
0.132154
0.128378
0.12478
0.121349
0.118075
0.114948
0.111959
0.109101
0.106365
0.103745
0.101234
0.0988262
0.0965153
0.0942963
0.0921643
0.0901145
0.0881427
0.0862447
0.0844169
0.0826555
0.0809572
0.079319
0.0777378
0.0762109
0.0747355
0.0733094
0.07193
0.0705953
0.0693031
0.0680515
0.0668385
0.0656625
0.0645217
0.0634146
0.0623396
0.0612953
0.0602803
0.0592933
0.0583331
0.0573986
0.0564885
0.055602
0.054738
0.0538957
0.0530743
0.0522734
0.0514925
0.0507314
0.0499905
0.0492705
0.048573
0.0479004
0.0472569
0.0466486
0.0460844
0.0455777
0.0451472
0.0448197
0.0446328
0.961692
0.892184
0.829084
0.771728
0.719523
0.671944
0.628523
0.588843
0.552532
0.519258
0.488725
0.460668
0.434851
0.411062
0.389111
0.36883
0.350065
0.332679
0.31655
0.301567
0.28763
0.27465
0.262546
0.251245
0.24068
0.230791
0.221524
0.212831
0.204666
0.196989
0.189762
0.182952
0.176528
0.170463
0.164729
0.159305
0.154168
0.149298
0.144678
0.140291
0.136121
0.132155
0.128378
0.12478
0.121349
0.118075
0.114948
0.11196
0.109101
0.106366
0.103746
0.101235
0.0988268
0.0965159
0.094297
0.092165
0.0901152
0.0881434
0.0862455
0.0844177
0.0826563
0.0809581
0.0793199
0.0777388
0.0762119
0.0747366
0.0733105
0.0719312
0.0705965
0.0693043
0.0680527
0.0668398
0.0656639
0.0645231
0.063416
0.0623411
0.0612968
0.0602819
0.059295
0.0583349
0.0574004
0.0564904
0.0556039
0.0547399
0.0538977
0.0530764
0.0522756
0.0514947
0.0507337
0.0499929
0.0492729
0.0485754
0.047903
0.0472595
0.0466512
0.0460871
0.0455803
0.0451498
0.0448224
0.0446355
0.961692
0.892184
0.829084
0.771728
0.719523
0.671944
0.628523
0.588843
0.552532
0.519258
0.488725
0.460668
0.434851
0.411062
0.389111
0.36883
0.350065
0.332679
0.31655
0.301567
0.28763
0.27465
0.262546
0.251245
0.24068
0.230791
0.221525
0.212831
0.204666
0.196989
0.189762
0.182952
0.176528
0.170463
0.16473
0.159305
0.154168
0.149299
0.144679
0.140292
0.136122
0.132155
0.128379
0.124781
0.12135
0.118076
0.114949
0.11196
0.109102
0.106366
0.103746
0.101235
0.0988274
0.0965166
0.0942977
0.0921658
0.0901161
0.0881443
0.0862464
0.0844186
0.0826573
0.0809591
0.079321
0.0777399
0.076213
0.0747378
0.0733117
0.0719324
0.0705978
0.0693057
0.0680542
0.0668413
0.0656654
0.0645247
0.0634177
0.0623428
0.0612986
0.0602837
0.0592969
0.0583368
0.0574024
0.0564925
0.0556061
0.0547422
0.0539
0.0530788
0.052278
0.0514972
0.0507363
0.0499955
0.0492757
0.0485783
0.0479058
0.0472624
0.0466541
0.04609
0.0455833
0.0451528
0.0448254
0.0446385
0.961692
0.892184
0.829084
0.771728
0.719523
0.671944
0.628523
0.588843
0.552532
0.519258
0.488725
0.460668
0.434851
0.411062
0.389112
0.36883
0.350065
0.332679
0.31655
0.301567
0.28763
0.274651
0.262546
0.251245
0.24068
0.230791
0.221525
0.212831
0.204666
0.196989
0.189762
0.182952
0.176529
0.170463
0.16473
0.159305
0.154168
0.149299
0.144679
0.140292
0.136122
0.132156
0.128379
0.124781
0.12135
0.118076
0.114949
0.111961
0.109102
0.106367
0.103747
0.101236
0.0988282
0.0965174
0.0942986
0.0921666
0.090117
0.0881452
0.0862474
0.0844196
0.0826584
0.0809603
0.0793221
0.0777411
0.0762143
0.0747391
0.0733131
0.0719339
0.0705993
0.0693072
0.0680558
0.066843
0.0656671
0.0645265
0.0634195
0.0623447
0.0613006
0.0602858
0.059299
0.058339
0.0574047
0.0564948
0.0556085
0.0547447
0.0539026
0.0530815
0.0522808
0.0515001
0.0507392
0.0499985
0.0492787
0.0485814
0.047909
0.0472657
0.0466574
0.0460934
0.0455867
0.0451562
0.0448288
0.0446419
0.961692
0.892184
0.829084
0.771727
0.719523
0.671944
0.628523
0.588843
0.552532
0.519258
0.488725
0.460668
0.434851
0.411062
0.389112
0.36883
0.350065
0.332679
0.31655
0.301567
0.28763
0.274651
0.262546
0.251245
0.24068
0.230791
0.221525
0.212831
0.204666
0.196989
0.189762
0.182952
0.176529
0.170463
0.16473
0.159306
0.154169
0.149299
0.144679
0.140292
0.136123
0.132156
0.12838
0.124782
0.121351
0.118077
0.11495
0.111961
0.109103
0.106368
0.103748
0.101237
0.098829
0.0965183
0.0942995
0.0921676
0.090118
0.0881463
0.0862485
0.0844208
0.0826596
0.0809615
0.0793234
0.0777424
0.0762156
0.0747405
0.0733146
0.0719354
0.0706009
0.0693089
0.0680575
0.0668448
0.065669
0.0645284
0.0634216
0.0623468
0.0613027
0.060288
0.0593013
0.0583414
0.0574071
0.0564974
0.0556111
0.0547474
0.0539055
0.0530844
0.0522838
0.0515032
0.0507424
0.0500018
0.0492821
0.0485848
0.0479125
0.0472692
0.046661
0.046097
0.0455904
0.0451599
0.0448325
0.0446456
0.961692
0.892184
0.829084
0.771727
0.719523
0.671944
0.628523
0.588843
0.552532
0.519258
0.488725
0.460668
0.434851
0.411062
0.389112
0.36883
0.350065
0.332679
0.31655
0.301567
0.28763
0.274651
0.262547
0.251245
0.24068
0.230791
0.221525
0.212832
0.204667
0.196989
0.189762
0.182953
0.176529
0.170464
0.16473
0.159306
0.154169
0.1493
0.14468
0.140293
0.136123
0.132157
0.12838
0.124782
0.121351
0.118077
0.11495
0.111962
0.109104
0.106368
0.103749
0.101238
0.0988299
0.0965192
0.0943004
0.0921686
0.090119
0.0881474
0.0862497
0.084422
0.0826608
0.0809628
0.0793248
0.0777438
0.0762171
0.0747421
0.0733162
0.0719371
0.0706026
0.0693107
0.0680594
0.0668467
0.065671
0.0645305
0.0634237
0.062349
0.0613051
0.0602904
0.0593038
0.058344
0.0574098
0.0565001
0.055614
0.0547504
0.0539085
0.0530876
0.052287
0.0515065
0.0507458
0.0500053
0.0492857
0.0485885
0.0479163
0.0472731
0.0466649
0.046101
0.0455943
0.0451639
0.0448365
0.0446495
0.961692
0.892184
0.829084
0.771727
0.719523
0.671944
0.628523
0.588843
0.552532
0.519258
0.488725
0.460668
0.434851
0.411062
0.389112
0.36883
0.350065
0.332679
0.31655
0.301567
0.287631
0.274651
0.262547
0.251245
0.24068
0.230791
0.221525
0.212832
0.204667
0.196989
0.189763
0.182953
0.176529
0.170464
0.164731
0.159306
0.15417
0.1493
0.14468
0.140293
0.136123
0.132157
0.128381
0.124783
0.121352
0.118078
0.114951
0.111963
0.109105
0.106369
0.103749
0.101239
0.0988309
0.0965202
0.0943015
0.0921697
0.0901202
0.0881486
0.0862509
0.0844233
0.0826622
0.0809642
0.0793263
0.0777454
0.0762187
0.0747437
0.0733179
0.0719389
0.0706045
0.0693126
0.0680614
0.0668488
0.0656731
0.0645328
0.063426
0.0623514
0.0613075
0.060293
0.0593065
0.0583467
0.0574126
0.0565031
0.055617
0.0547535
0.0539117
0.0530909
0.0522905
0.05151
0.0507495
0.0500091
0.0492895
0.0485924
0.0479203
0.0472771
0.0466691
0.0461052
0.0455986
0.0451682
0.0448408
0.0446538
0.961692
0.892184
0.829084
0.771727
0.719523
0.671944
0.628523
0.588843
0.552532
0.519258
0.488725
0.460668
0.434851
0.411062
0.389112
0.36883
0.350065
0.332679
0.31655
0.301567
0.287631
0.274651
0.262547
0.251245
0.24068
0.230792
0.221525
0.212832
0.204667
0.19699
0.189763
0.182953
0.17653
0.170464
0.164731
0.159307
0.15417
0.149301
0.144681
0.140294
0.136124
0.132158
0.128381
0.124783
0.121353
0.118079
0.114952
0.111964
0.109105
0.10637
0.10375
0.10124
0.0988318
0.0965213
0.0943026
0.0921708
0.0901213
0.0881498
0.0862522
0.0844246
0.0826636
0.0809657
0.0793278
0.077747
0.0762204
0.0747454
0.0733197
0.0719407
0.0706064
0.0693146
0.0680635
0.066851
0.0656754
0.0645351
0.0634284
0.0623539
0.0613101
0.0602957
0.0593093
0.0583496
0.0574156
0.0565062
0.0556202
0.0547568
0.0539151
0.0530944
0.0522941
0.0515138
0.0507533
0.050013
0.0492936
0.0485966
0.0479245
0.0472815
0.0466735
0.0461096
0.0456031
0.0451727
0.0448453
0.0446583
0.961692
0.892184
0.829084
0.771727
0.719523
0.671944
0.628523
0.588843
0.552532
0.519258
0.488725
0.460668
0.434851
0.411062
0.389112
0.36883
0.350065
0.332679
0.31655
0.301567
0.287631
0.274651
0.262547
0.251245
0.24068
0.230792
0.221525
0.212832
0.204667
0.19699
0.189763
0.182953
0.17653
0.170464
0.164731
0.159307
0.15417
0.149301
0.144681
0.140294
0.136125
0.132158
0.128382
0.124784
0.121353
0.118079
0.114953
0.111964
0.109106
0.106371
0.103751
0.101241
0.0988329
0.0965223
0.0943037
0.092172
0.0901226
0.0881511
0.0862535
0.084426
0.0826651
0.0809672
0.0793294
0.0777486
0.0762221
0.0747472
0.0733215
0.0719427
0.0706084
0.0693168
0.0680656
0.0668532
0.0656778
0.0645375
0.063431
0.0623566
0.0613129
0.0602985
0.0593122
0.0583526
0.0574187
0.0565094
0.0556236
0.0547603
0.0539187
0.0530981
0.0522979
0.0515177
0.0507573
0.0500171
0.0492978
0.0486009
0.047929
0.047286
0.0466781
0.0461143
0.0456077
0.0451774
0.04485
0.044663
0.961692
0.892184
0.829084
0.771727
0.719523
0.671944
0.628523
0.588843
0.552532
0.519258
0.488725
0.460668
0.434851
0.411062
0.389112
0.36883
0.350065
0.332679
0.31655
0.301567
0.287631
0.274651
0.262547
0.251245
0.24068
0.230792
0.221526
0.212832
0.204667
0.19699
0.189763
0.182954
0.17653
0.170465
0.164732
0.159308
0.154171
0.149301
0.144682
0.140295
0.136125
0.132159
0.128383
0.124785
0.121354
0.11808
0.114953
0.111965
0.109107
0.106372
0.103752
0.101242
0.0988339
0.0965235
0.0943049
0.0921732
0.0901239
0.0881525
0.0862549
0.0844275
0.0826666
0.0809688
0.0793311
0.0777504
0.0762239
0.0747491
0.0733235
0.0719447
0.0706105
0.0693189
0.0680679
0.0668556
0.0656802
0.0645401
0.0634336
0.0623593
0.0613157
0.0603014
0.0593152
0.0583558
0.057422
0.0565127
0.055627
0.0547638
0.0539224
0.0531019
0.0523018
0.0515217
0.0507615
0.0500214
0.0493022
0.0486054
0.0479335
0.0472906
0.0466828
0.0461191
0.0456126
0.0451823
0.0448549
0.0446679
0.961692
0.892184
0.829084
0.771727
0.719523
0.671944
0.628523
0.588843
0.552532
0.519258
0.488725
0.460668
0.434851
0.411062
0.389112
0.36883
0.350065
0.332679
0.31655
0.301567
0.287631
0.274651
0.262547
0.251246
0.240681
0.230792
0.221526
0.212832
0.204668
0.19699
0.189764
0.182954
0.17653
0.170465
0.164732
0.159308
0.154171
0.149302
0.144682
0.140295
0.136126
0.132159
0.128383
0.124785
0.121355
0.118081
0.114954
0.111966
0.109108
0.106373
0.103753
0.101243
0.098835
0.0965246
0.0943061
0.0921745
0.0901252
0.0881538
0.0862564
0.084429
0.0826681
0.0809704
0.0793328
0.0777521
0.0762258
0.074751
0.0733255
0.0719468
0.0706127
0.0693212
0.0680702
0.066858
0.0656827
0.0645427
0.0634363
0.0623621
0.0613186
0.0603044
0.0593183
0.058359
0.0574253
0.0565162
0.0556306
0.0547675
0.0539262
0.0531058
0.0523058
0.0515259
0.0507658
0.0500258
0.0493067
0.04861
0.0479383
0.0472955
0.0466877
0.0461241
0.0456176
0.0451874
0.04486
0.044673
0.961692
0.892184
0.829084
0.771727
0.719523
0.671944
0.628523
0.588843
0.552532
0.519258
0.488725
0.460668
0.434851
0.411062
0.389112
0.36883
0.350065
0.332679
0.31655
0.301567
0.287631
0.274651
0.262547
0.251246
0.240681
0.230792
0.221526
0.212833
0.204668
0.196991
0.189764
0.182954
0.176531
0.170465
0.164732
0.159308
0.154172
0.149302
0.144683
0.140296
0.136126
0.13216
0.128384
0.124786
0.121355
0.118082
0.114955
0.111967
0.109109
0.106374
0.103754
0.101244
0.0988361
0.0965258
0.0943073
0.0921758
0.0901265
0.0881552
0.0862579
0.0844305
0.0826698
0.0809721
0.0793345
0.0777539
0.0762276
0.074753
0.0733275
0.0719489
0.0706149
0.0693235
0.0680726
0.0668605
0.0656852
0.0645453
0.063439
0.0623649
0.0613215
0.0603075
0.0593214
0.0583622
0.0574287
0.0565197
0.0556342
0.0547713
0.05393
0.0531098
0.05231
0.0515301
0.0507702
0.0500303
0.0493114
0.0486148
0.0479431
0.0473004
0.0466927
0.0461292
0.0456228
0.0451925
0.0448652
0.0446782
0.961692
0.892184
0.829084
0.771727
0.719522
0.671944
0.628523
0.588843
0.552532
0.519258
0.488725
0.460668
0.434851
0.411062
0.389112
0.36883
0.350065
0.332679
0.31655
0.301567
0.287631
0.274651
0.262547
0.251246
0.240681
0.230792
0.221526
0.212833
0.204668
0.196991
0.189764
0.182955
0.176531
0.170466
0.164733
0.159309
0.154172
0.149303
0.144683
0.140296
0.136127
0.132161
0.128385
0.124787
0.121356
0.118082
0.114956
0.111968
0.10911
0.106375
0.103755
0.101245
0.0988373
0.096527
0.0943085
0.0921771
0.0901279
0.0881567
0.0862593
0.0844321
0.0826714
0.0809738
0.0793363
0.0777558
0.0762296
0.074755
0.0733296
0.0719511
0.0706172
0.0693258
0.068075
0.066863
0.0656879
0.064548
0.0634418
0.0623678
0.0613245
0.0603106
0.0593247
0.0583656
0.0574321
0.0565232
0.0556379
0.0547751
0.053934
0.0531139
0.0523142
0.0515345
0.0507746
0.0500349
0.0493161
0.0486196
0.0479481
0.0473055
0.0466979
0.0461344
0.045628
0.0451978
0.0448705
0.0446835
0.961692
0.892184
0.829084
0.771727
0.719522
0.671944
0.628523
0.588843
0.552532
0.519258
0.488725
0.460668
0.434851
0.411062
0.389112
0.36883
0.350065
0.332679
0.31655
0.301567
0.287631
0.274651
0.262547
0.251246
0.240681
0.230792
0.221526
0.212833
0.204668
0.196991
0.189764
0.182955
0.176531
0.170466
0.164733
0.159309
0.154172
0.149303
0.144684
0.140297
0.136127
0.132161
0.128385
0.124788
0.121357
0.118083
0.114957
0.111969
0.109111
0.106376
0.103756
0.101246
0.0988384
0.0965282
0.0943098
0.0921784
0.0901293
0.0881581
0.0862609
0.0844337
0.082673
0.0809755
0.0793381
0.0777576
0.0762315
0.074757
0.0733317
0.0719532
0.0706194
0.0693281
0.0680775
0.0668655
0.0656905
0.0645507
0.0634447
0.0623707
0.0613276
0.0603137
0.0593279
0.058369
0.0574356
0.0565269
0.0556416
0.0547789
0.053938
0.053118
0.0523184
0.0515388
0.0507791
0.0500395
0.0493208
0.0486245
0.0479531
0.0473106
0.0467031
0.0461396
0.0456334
0.0452032
0.0448759
0.0446889
0.961692
0.892184
0.829084
0.771727
0.719522
0.671944
0.628523
0.588843
0.552532
0.519258
0.488725
0.460668
0.434851
0.411062
0.389112
0.36883
0.350065
0.332679
0.31655
0.301567
0.287631
0.274651
0.262547
0.251246
0.240681
0.230793
0.221526
0.212833
0.204668
0.196991
0.189765
0.182955
0.176532
0.170466
0.164733
0.159309
0.154173
0.149304
0.144684
0.140297
0.136128
0.132162
0.128386
0.124788
0.121358
0.118084
0.114957
0.111969
0.109112
0.106377
0.103757
0.101247
0.0988396
0.0965294
0.0943111
0.0921797
0.0901307
0.0881596
0.0862624
0.0844353
0.0826747
0.0809773
0.0793399
0.0777595
0.0762335
0.0747591
0.0733338
0.0719554
0.0706217
0.0693305
0.0680799
0.0668681
0.0656931
0.0645535
0.0634475
0.0623737
0.0613306
0.0603169
0.0593312
0.0583723
0.0574391
0.0565305
0.0556454
0.0547828
0.053942
0.0531221
0.0523227
0.0515433
0.0507837
0.0500442
0.0493256
0.0486294
0.0479581
0.0473157
0.0467083
0.0461449
0.0456388
0.0452086
0.0448813
0.0446943
0.961692
0.892184
0.829084
0.771727
0.719522
0.671944
0.628523
0.588843
0.552532
0.519258
0.488725
0.460668
0.434851
0.411062
0.389112
0.36883
0.350065
0.332679
0.31655
0.301567
0.287631
0.274651
0.262547
0.251246
0.240681
0.230793
0.221527
0.212833
0.204669
0.196991
0.189765
0.182955
0.176532
0.170467
0.164734
0.15931
0.154173
0.149304
0.144685
0.140298
0.136128
0.132162
0.128387
0.124789
0.121358
0.118085
0.114958
0.11197
0.109113
0.106378
0.103758
0.101248
0.0988407
0.0965306
0.0943123
0.0921811
0.0901321
0.088161
0.0862639
0.0844369
0.0826763
0.080979
0.0793417
0.0777614
0.0762354
0.0747611
0.0733359
0.0719576
0.070624
0.0693329
0.0680824
0.0668706
0.0656958
0.0645562
0.0634504
0.0623767
0.0613337
0.0603201
0.0593345
0.0583758
0.0574427
0.0565341
0.0556491
0.0547867
0.053946
0.0531263
0.052327
0.0515477
0.0507882
0.0500489
0.0493305
0.0486344
0.0479632
0.0473209
0.0467136
0.0461503
0.0456442
0.0452141
0.0448868
0.0446998
0.961692
0.892184
0.829084
0.771727
0.719522
0.671944
0.628523
0.588843
0.552532
0.519258
0.488725
0.460668
0.434851
0.411062
0.389111
0.36883
0.350065
0.332679
0.31655
0.301567
0.287631
0.274651
0.262547
0.251246
0.240681
0.230793
0.221527
0.212834
0.204669
0.196992
0.189765
0.182956
0.176532
0.170467
0.164734
0.15931
0.154174
0.149305
0.144685
0.140298
0.136129
0.132163
0.128387
0.12479
0.121359
0.118085
0.114959
0.111971
0.109114
0.106379
0.103759
0.101249
0.0988419
0.0965318
0.0943136
0.0921824
0.0901334
0.0881625
0.0862654
0.0844384
0.082678
0.0809807
0.0793435
0.0777633
0.0762374
0.0747631
0.073338
0.0719598
0.0706263
0.0693353
0.0680848
0.0668732
0.0656984
0.064559
0.0634532
0.0623796
0.0613367
0.0603232
0.0593378
0.0583791
0.0574462
0.0565378
0.0556529
0.0547906
0.05395
0.0531305
0.0523313
0.0515521
0.0507928
0.0500536
0.0493353
0.0486393
0.0479682
0.0473261
0.0467189
0.0461557
0.0456496
0.0452195
0.0448923
0.0447052
0.961692
0.892184
0.829084
0.771727
0.719522
0.671944
0.628523
0.588843
0.552532
0.519258
0.488725
0.460668
0.434851
0.411062
0.389111
0.36883
0.350065
0.332679
0.31655
0.301567
0.287631
0.274651
0.262548
0.251246
0.240681
0.230793
0.221527
0.212834
0.204669
0.196992
0.189765
0.182956
0.176533
0.170467
0.164735
0.159311
0.154174
0.149305
0.144686
0.140299
0.13613
0.132164
0.128388
0.12479
0.12136
0.118086
0.11496
0.111972
0.109115
0.10638
0.10376
0.10125
0.098843
0.096533
0.0943149
0.0921837
0.0901348
0.0881639
0.0862669
0.08444
0.0826796
0.0809824
0.0793452
0.0777651
0.0762393
0.0747651
0.0733401
0.071962
0.0706285
0.0693376
0.0680873
0.0668757
0.0657011
0.0645617
0.063456
0.0623825
0.0613398
0.0603264
0.059341
0.0583825
0.0574497
0.0565414
0.0556566
0.0547945
0.053954
0.0531346
0.0523355
0.0515565
0.0507973
0.0500583
0.0493401
0.0486442
0.0479733
0.0473312
0.0467241
0.046161
0.045655
0.045225
0.0448977
0.0447107
0.961692
0.892184
0.829084
0.771727
0.719522
0.671944
0.628523
0.588843
0.552532
0.519258
0.488725
0.460668
0.434851
0.411062
0.389111
0.36883
0.350065
0.332679
0.31655
0.301567
0.287631
0.274652
0.262548
0.251246
0.240681
0.230793
0.221527
0.212834
0.204669
0.196992
0.189766
0.182956
0.176533
0.170468
0.164735
0.159311
0.154175
0.149306
0.144686
0.140299
0.13613
0.132164
0.128388
0.124791
0.121361
0.118087
0.114961
0.111973
0.109115
0.106381
0.103761
0.101251
0.0988441
0.0965342
0.0943161
0.092185
0.0901362
0.0881654
0.0862684
0.0844416
0.0826813
0.0809841
0.079347
0.077767
0.0762412
0.0747671
0.0733422
0.0719642
0.0706308
0.0693399
0.0680897
0.0668782
0.0657037
0.0645644
0.0634588
0.0623854
0.0613428
0.0603295
0.0593443
0.0583859
0.0574531
0.056545
0.0556603
0.0547983
0.053958
0.0531387
0.0523398
0.0515609
0.0508018
0.0500629
0.0493448
0.0486491
0.0479783
0.0473363
0.0467293
0.0461663
0.0456604
0.0452304
0.0449031
0.0447161
0.961692
0.892184
0.829084
0.771727
0.719522
0.671944
0.628523
0.588843
0.552532
0.519258
0.488725
0.460668
0.434851
0.411062
0.389111
0.36883
0.350065
0.332679
0.31655
0.301567
0.287631
0.274652
0.262548
0.251246
0.240682
0.230793
0.221527
0.212834
0.204669
0.196992
0.189766
0.182956
0.176533
0.170468
0.164735
0.159311
0.154175
0.149306
0.144687
0.1403
0.136131
0.132165
0.128389
0.124792
0.121361
0.118088
0.114962
0.111974
0.109116
0.106382
0.103762
0.101252
0.0988452
0.0965353
0.0943173
0.0921863
0.0901375
0.0881668
0.0862699
0.0844431
0.0826829
0.0809858
0.0793488
0.0777688
0.0762431
0.0747691
0.0733443
0.0719663
0.070633
0.0693422
0.0680921
0.0668807
0.0657062
0.0645671
0.0634616
0.0623883
0.0613458
0.0603326
0.0593474
0.0583892
0.0574566
0.0565485
0.055664
0.0548021
0.0539619
0.0531427
0.052344
0.0515652
0.0508063
0.0500675
0.0493495
0.048654
0.0479833
0.0473414
0.0467345
0.0461715
0.0456657
0.0452357
0.0449085
0.0447215
0.961692
0.892184
0.829084
0.771727
0.719522
0.671944
0.628523
0.588843
0.552532
0.519258
0.488725
0.460668
0.434851
0.411062
0.389111
0.36883
0.350065
0.332679
0.31655
0.301568
0.287631
0.274652
0.262548
0.251246
0.240682
0.230793
0.221527
0.212834
0.204669
0.196992
0.189766
0.182957
0.176533
0.170468
0.164736
0.159312
0.154175
0.149306
0.144687
0.1403
0.136131
0.132165
0.12839
0.124792
0.121362
0.118089
0.114962
0.111975
0.109117
0.106383
0.103763
0.101253
0.0988463
0.0965365
0.0943185
0.0921875
0.0901389
0.0881681
0.0862713
0.0844446
0.0826844
0.0809874
0.0793505
0.0777706
0.076245
0.074771
0.0733463
0.0719684
0.0706352
0.0693445
0.0680944
0.0668831
0.0657088
0.0645697
0.0634643
0.0623911
0.0613487
0.0603356
0.0593506
0.0583924
0.0574599
0.056552
0.0556676
0.0548058
0.0539658
0.0531467
0.0523481
0.0515694
0.0508107
0.050072
0.0493542
0.0486587
0.0479881
0.0473464
0.0467396
0.0461767
0.0456709
0.045241
0.0449138
0.0447268
0.961692
0.892184
0.829084
0.771727
0.719522
0.671944
0.628523
0.588843
0.552532
0.519258
0.488725
0.460668
0.434851
0.411062
0.389111
0.36883
0.350065
0.332679
0.31655
0.301568
0.287631
0.274652
0.262548
0.251247
0.240682
0.230793
0.221527
0.212834
0.20467
0.196993
0.189766
0.182957
0.176534
0.170469
0.164736
0.159312
0.154176
0.149307
0.144687
0.140301
0.136132
0.132166
0.12839
0.124793
0.121363
0.118089
0.114963
0.111975
0.109118
0.106383
0.103764
0.101254
0.0988474
0.0965376
0.0943197
0.0921888
0.0901401
0.0881695
0.0862727
0.0844461
0.082686
0.0809891
0.0793522
0.0777723
0.0762468
0.0747729
0.0733483
0.0719704
0.0706373
0.0693467
0.0680967
0.0668855
0.0657112
0.0645723
0.063467
0.0623939
0.0613515
0.0603386
0.0593537
0.0583956
0.0574632
0.0565554
0.0556711
0.0548095
0.0539695
0.0531506
0.0523521
0.0515736
0.0508149
0.0500764
0.0493587
0.0486634
0.0479929
0.0473513
0.0467446
0.0461818
0.045676
0.0452462
0.044919
0.044732
0.961692
0.892184
0.829084
0.771727
0.719522
0.671944
0.628523
0.588843
0.552532
0.519258
0.488724
0.460668
0.434851
0.411062
0.389111
0.36883
0.350065
0.332679
0.31655
0.301568
0.287631
0.274652
0.262548
0.251247
0.240682
0.230793
0.221527
0.212834
0.20467
0.196993
0.189767
0.182957
0.176534
0.170469
0.164736
0.159312
0.154176
0.149307
0.144688
0.140301
0.136132
0.132166
0.128391
0.124794
0.121363
0.11809
0.114964
0.111976
0.109119
0.106384
0.103765
0.101255
0.0988484
0.0965387
0.0943209
0.09219
0.0901414
0.0881708
0.0862741
0.0844475
0.0826875
0.0809906
0.0793538
0.077774
0.0762486
0.0747748
0.0733502
0.0719725
0.0706394
0.0693489
0.068099
0.0668878
0.0657137
0.0645748
0.0634696
0.0623966
0.0613543
0.0603415
0.0593567
0.0583987
0.0574664
0.0565587
0.0556746
0.054813
0.0539732
0.0531544
0.052356
0.0515777
0.0508191
0.0500807
0.0493632
0.048668
0.0479976
0.0473561
0.0467495
0.0461868
0.0456811
0.0452513
0.0449241
0.0447371
0.961692
0.892184
0.829084
0.771727
0.719522
0.671944
0.628523
0.588843
0.552532
0.519258
0.488724
0.460668
0.434851
0.411062
0.389111
0.36883
0.350065
0.332679
0.31655
0.301568
0.287631
0.274652
0.262548
0.251247
0.240682
0.230794
0.221528
0.212835
0.20467
0.196993
0.189767
0.182957
0.176534
0.170469
0.164737
0.159313
0.154176
0.149308
0.144688
0.140302
0.136133
0.132167
0.128391
0.124794
0.121364
0.118091
0.114965
0.111977
0.10912
0.106385
0.103766
0.101256
0.0988495
0.0965398
0.094322
0.0921911
0.0901426
0.0881721
0.0862755
0.0844489
0.082689
0.0809922
0.0793554
0.0777757
0.0762503
0.0747766
0.0733521
0.0719744
0.0706414
0.069351
0.0681012
0.0668901
0.065716
0.0645772
0.0634721
0.0623992
0.061357
0.0603443
0.0593596
0.0584017
0.0574696
0.056562
0.0556779
0.0548165
0.0539768
0.0531581
0.0523599
0.0515816
0.0508232
0.0500849
0.0493675
0.0486724
0.0480022
0.0473608
0.0467542
0.0461916
0.045686
0.0452563
0.0449291
0.044742
0.961692
0.892184
0.829084
0.771727
0.719522
0.671944
0.628523
0.588843
0.552532
0.519258
0.488724
0.460668
0.434851
0.411062
0.389111
0.36883
0.350065
0.332679
0.31655
0.301568
0.287631
0.274652
0.262548
0.251247
0.240682
0.230794
0.221528
0.212835
0.20467
0.196993
0.189767
0.182958
0.176534
0.170469
0.164737
0.159313
0.154177
0.149308
0.144689
0.140302
0.136133
0.132167
0.128392
0.124795
0.121365
0.118091
0.114965
0.111978
0.109121
0.106386
0.103767
0.101257
0.0988504
0.0965408
0.0943231
0.0921923
0.0901438
0.0881733
0.0862768
0.0844503
0.0826904
0.0809936
0.0793569
0.0777773
0.076252
0.0747783
0.0733539
0.0719763
0.0706434
0.069353
0.0681033
0.0668923
0.0657183
0.0645796
0.0634746
0.0624017
0.0613597
0.060347
0.0593624
0.0584047
0.0574726
0.0565651
0.0556812
0.0548199
0.0539803
0.0531617
0.0523636
0.0515855
0.0508272
0.050089
0.0493717
0.0486768
0.0480066
0.0473653
0.0467589
0.0461963
0.0456908
0.0452611
0.044934
0.0447469
0.961692
0.892184
0.829084
0.771727
0.719522
0.671944
0.628523
0.588843
0.552532
0.519258
0.488724
0.460668
0.434851
0.411062
0.389111
0.36883
0.350065
0.332679
0.31655
0.301568
0.287631
0.274652
0.262548
0.251247
0.240682
0.230794
0.221528
0.212835
0.20467
0.196993
0.189767
0.182958
0.176535
0.17047
0.164737
0.159313
0.154177
0.149308
0.144689
0.140303
0.136134
0.132168
0.128393
0.124795
0.121365
0.118092
0.114966
0.111979
0.109121
0.106387
0.103768
0.101258
0.0988514
0.0965418
0.0943241
0.0921934
0.090145
0.0881745
0.086278
0.0844516
0.0826918
0.0809951
0.0793584
0.0777789
0.0762536
0.07478
0.0733556
0.0719781
0.0706453
0.069355
0.0681053
0.0668944
0.0657205
0.0645819
0.0634769
0.0624042
0.0613622
0.0603496
0.0593651
0.0584075
0.0574755
0.0565682
0.0556843
0.0548231
0.0539837
0.0531652
0.0523672
0.0515892
0.050831
0.050093
0.0493758
0.0486809
0.0480109
0.0473697
0.0467634
0.0462009
0.0456954
0.0452657
0.0449386
0.0447516
0.961692
0.892184
0.829084
0.771727
0.719522
0.671944
0.628523
0.588843
0.552532
0.519258
0.488724
0.460668
0.434851
0.411062
0.389111
0.36883
0.350065
0.332679
0.31655
0.301568
0.287631
0.274652
0.262548
0.251247
0.240682
0.230794
0.221528
0.212835
0.20467
0.196993
0.189767
0.182958