/*--------------------------------*- C++ -*----------------------------------*\
  =========                 |
  \\      /  F ield         | OpenFOAM: The Open Source CFD Toolbox
   \\    /   O peration     | Website:  https://openfoam.org
    \\  /    A nd           | Version:  11
     \\/     M anipulation  |
\*---------------------------------------------------------------------------*/
FoamFile
{
    format      ascii;
    class       volScalarField;
    location    "982";
    object      p;
}
// * * * * * * * * * * * * * * * * * * * * * * * * * * * * * * * * * * * * * //

dimensions      [0 2 -2 0 0 0 0];

internalField   nonuniform List<scalar> 
10000
(
2.29083e-11
2.23617e-11
2.33959e-11
2.53858e-11
2.76446e-11
3.00258e-11
3.25319e-11
3.5168e-11
3.79388e-11
4.08523e-11
4.39183e-11
4.71479e-11
5.05523e-11
5.41434e-11
5.79338e-11
6.19363e-11
6.61641e-11
7.06311e-11
7.53514e-11
8.03397e-11
8.56112e-11
9.11816e-11
9.70671e-11
1.03285e-10
1.09851e-10
1.16785e-10
1.24104e-10
1.31828e-10
1.39977e-10
1.4857e-10
1.57629e-10
1.67174e-10
1.77229e-10
1.87816e-10
1.98957e-10
2.10677e-10
2.22999e-10
2.35948e-10
2.4955e-10
2.63828e-10
2.7881e-10
2.9452e-10
3.10984e-10
3.28228e-10
3.46278e-10
3.65159e-10
3.84896e-10
4.05513e-10
4.27034e-10
4.49482e-10
4.72879e-10
4.97243e-10
5.22594e-10
5.48948e-10
5.76318e-10
6.04716e-10
6.34149e-10
6.64622e-10
6.96133e-10
7.28679e-10
7.62247e-10
7.96822e-10
8.32379e-10
8.68885e-10
9.063e-10
9.44572e-10
9.83639e-10
1.02342e-09
1.06384e-09
1.10477e-09
1.1461e-09
1.18768e-09
1.22935e-09
1.27091e-09
1.31213e-09
1.35277e-09
1.39253e-09
1.43109e-09
1.46806e-09
1.50301e-09
1.53548e-09
1.5649e-09
1.59065e-09
1.61204e-09
1.62827e-09
1.63843e-09
1.64152e-09
1.63638e-09
1.62171e-09
1.596e-09
1.55756e-09
1.50442e-09
1.43427e-09
1.34432e-09
1.23117e-09
1.0907e-09
9.16914e-10
6.94262e-10
3.98712e-10
3.34203e-11
4.0483e-11
3.774e-11
3.63426e-11
3.71445e-11
3.88875e-11
4.10964e-11
4.36594e-11
4.65192e-11
4.96383e-11
5.29985e-11
5.65936e-11
6.04241e-11
6.44948e-11
6.88137e-11
7.33906e-11
7.82372e-11
8.33665e-11
8.87923e-11
9.45297e-11
1.00595e-10
1.07003e-10
1.13773e-10
1.20923e-10
1.28471e-10
1.36436e-10
1.4484e-10
1.53703e-10
1.63047e-10
1.72893e-10
1.83266e-10
1.94188e-10
2.05684e-10
2.1778e-10
2.30499e-10
2.43869e-10
2.57916e-10
2.72666e-10
2.88148e-10
3.04389e-10
3.21416e-10
3.39258e-10
3.57942e-10
3.77497e-10
3.97951e-10
4.1933e-10
4.41663e-10
4.64973e-10
4.89288e-10
5.14631e-10
5.41024e-10
5.68488e-10
5.97043e-10
6.26703e-10
6.57483e-10
6.89394e-10
7.2244e-10
7.56624e-10
7.91944e-10
8.28391e-10
8.6595e-10
9.04599e-10
9.44308e-10
9.85037e-10
1.02674e-09
1.06935e-09
1.11279e-09
1.15699e-09
1.20182e-09
1.24718e-09
1.29291e-09
1.33885e-09
1.38481e-09
1.43057e-09
1.47588e-09
1.52045e-09
1.56395e-09
1.60602e-09
1.64623e-09
1.6841e-09
1.71911e-09
1.75063e-09
1.77799e-09
1.8004e-09
1.81699e-09
1.82678e-09
1.82864e-09
1.82131e-09
1.80337e-09
1.77318e-09
1.7289e-09
1.6684e-09
1.58921e-09
1.48842e-09
1.36252e-09
1.20726e-09
1.0182e-09
7.89356e-10
4.96215e-10
8.72583e-11
-2.79434e-10
4.62096e-11
4.19392e-11
3.87154e-11
3.79063e-11
3.83053e-11
3.93811e-11
4.09641e-11
4.29537e-11
4.52787e-11
4.78951e-11
5.07774e-11
5.39112e-11
5.72898e-11
6.09117e-11
6.47789e-11
6.88964e-11
7.32712e-11
7.79117e-11
8.2828e-11
8.80311e-11
9.3533e-11
9.93465e-11
1.05485e-10
1.11964e-10
1.18798e-10
1.26002e-10
1.33593e-10
1.41588e-10
1.50004e-10
1.5886e-10
1.68173e-10
1.77964e-10
1.8825e-10
1.99053e-10
2.10392e-10
2.22288e-10
2.34761e-10
2.47833e-10
2.61524e-10
2.75856e-10
2.90849e-10
3.06524e-10
3.22902e-10
3.40003e-10
3.57847e-10
3.76452e-10
3.95836e-10
4.16016e-10
4.37008e-10
4.58825e-10
4.8148e-10
5.04983e-10
5.29341e-10
5.54559e-10
5.80638e-10
6.07576e-10
6.35367e-10
6.63999e-10
6.93456e-10
7.23715e-10
7.54746e-10
7.86513e-10
8.18971e-10
8.52064e-10
8.85725e-10
9.19879e-10
9.54434e-10
9.89283e-10
1.02431e-09
1.05936e-09
1.09429e-09
1.1289e-09
1.16299e-09
1.19632e-09
1.22862e-09
1.25958e-09
1.28886e-09
1.31607e-09
1.34078e-09
1.36249e-09
1.38065e-09
1.39463e-09
1.40374e-09
1.40719e-09
1.40409e-09
1.39345e-09
1.37415e-09
1.34492e-09
1.30432e-09
1.25072e-09
1.18226e-09
1.09679e-09
9.91774e-10
8.6418e-10
7.10508e-10
5.27806e-10
3.11764e-10
3.27773e-11
-3.64439e-10
-5.94958e-10
5.00568e-11
4.55343e-11
4.19005e-11
4.04166e-11
4.01308e-11
4.05977e-11
4.16532e-11
4.3187e-11
4.51158e-11
4.73833e-11
4.99527e-11
5.28008e-11
5.59132e-11
5.92822e-11
6.29049e-11
6.67817e-11
7.0916e-11
7.53131e-11
7.99799e-11
8.4925e-11
9.01577e-11
9.56887e-11
1.01529e-10
1.07692e-10
1.14189e-10
1.21035e-10
1.28243e-10
1.35828e-10
1.43806e-10
1.52191e-10
1.61001e-10
1.70252e-10
1.7996e-10
1.90143e-10
2.00818e-10
2.12002e-10
2.23714e-10
2.35972e-10
2.48792e-10
2.62193e-10
2.76191e-10
2.90805e-10
3.0605e-10
3.21943e-10
3.38499e-10
3.55733e-10
3.73658e-10
3.92285e-10
4.11626e-10
4.31689e-10
4.52482e-10
4.74008e-10
4.96269e-10
5.19264e-10
5.42989e-10
5.67434e-10
5.92587e-10
6.18429e-10
6.44938e-10
6.72084e-10
6.99829e-10
7.2813e-10
7.56933e-10
7.86176e-10
8.15785e-10
8.45675e-10
8.75748e-10
9.05888e-10
9.35968e-10
9.65838e-10
9.95329e-10
1.02425e-09
1.05239e-09
1.07949e-09
1.10529e-09
1.12948e-09
1.1517e-09
1.17158e-09
1.18866e-09
1.20246e-09
1.21243e-09
1.21795e-09
1.21835e-09
1.21284e-09
1.20057e-09
1.18057e-09
1.15176e-09
1.11292e-09
1.06269e-09
9.9953e-10
9.21682e-10
8.27162e-10
7.13676e-10
5.78503e-10
4.18678e-10
2.32282e-10
1.60407e-11
-2.62638e-10
-6.5365e-10
-8.29304e-10
5.26229e-11
4.83665e-11
4.4777e-11
4.30258e-11
4.23795e-11
4.24891e-11
4.32175e-11
4.44617e-11
4.61383e-11
4.81876e-11
5.05679e-11
5.32508e-11
5.62172e-11
5.94553e-11
6.29584e-11
6.67241e-11
7.07527e-11
7.50472e-11
7.96125e-11
8.4455e-11
8.95824e-11
9.50034e-11
1.00728e-10
1.06767e-10
1.13131e-10
1.19833e-10
1.26884e-10
1.343e-10
1.42092e-10
1.50275e-10
1.58863e-10
1.67872e-10
1.77316e-10
1.8721e-10
1.97571e-10
2.08413e-10
2.19752e-10
2.31604e-10
2.43984e-10
2.56906e-10
2.70387e-10
2.8444e-10
2.99079e-10
3.14317e-10
3.30165e-10
3.46636e-10
3.63739e-10
3.81482e-10
3.99871e-10
4.18912e-10
4.38607e-10
4.58956e-10
4.79955e-10
5.01599e-10
5.23878e-10
5.46777e-10
5.70277e-10
5.94355e-10
6.18981e-10
6.44119e-10
6.69726e-10
6.95749e-10
7.22128e-10
7.48794e-10
7.75664e-10
8.02646e-10
8.29632e-10
8.565e-10
8.83111e-10
9.09309e-10
9.34914e-10
9.59727e-10
9.83523e-10
1.00605e-09
1.02702e-09
1.04611e-09
1.06298e-09
1.07722e-09
1.0884e-09
1.096e-09
1.09949e-09
1.09824e-09
1.09157e-09
1.07872e-09
1.05884e-09
1.03098e-09
9.94084e-10
9.46978e-10
8.88351e-10
8.1674e-10
7.30509e-10
6.27832e-10
5.06647e-10
3.64555e-10
1.99101e-10
9.38766e-12
-2.06597e-10
-4.84599e-10
-8.80078e-10
-1.00764e-09
5.39755e-11
5.00865e-11
4.66628e-11
4.48041e-11
4.39394e-11
4.37983e-11
4.42732e-11
4.52744e-11
4.67252e-11
4.85672e-11
5.07579e-11
5.32666e-11
5.60716e-11
5.91581e-11
6.25169e-11
6.61429e-11
7.00343e-11
7.41918e-11
7.86183e-11
8.33183e-11
8.82979e-11
9.35641e-11
9.91251e-11
1.0499e-10
1.11168e-10
1.17671e-10
1.24508e-10
1.31692e-10
1.39235e-10
1.47149e-10
1.55446e-10
1.6414e-10
1.73244e-10
1.82771e-10
1.92735e-10
2.03148e-10
2.14025e-10
2.25378e-10
2.3722e-10
2.49565e-10
2.62423e-10
2.75807e-10
2.89728e-10
3.04194e-10
3.19216e-10
3.34801e-10
3.50954e-10
3.67681e-10
3.84985e-10
4.02866e-10
4.21322e-10
4.40349e-10
4.5994e-10
4.80082e-10
5.00762e-10
5.2196e-10
5.43652e-10
5.65808e-10
5.88394e-10
6.11367e-10
6.34678e-10
6.58268e-10
6.82072e-10
7.06013e-10
7.30002e-10
7.5394e-10
7.77713e-10
8.01191e-10
8.24229e-10
8.46664e-10
8.68311e-10
8.88964e-10
9.08392e-10
9.26335e-10
9.42506e-10
9.56583e-10
9.68206e-10
9.76978e-10
9.82455e-10
9.84145e-10
9.815e-10
9.73916e-10
9.60721e-10
9.41171e-10
9.14443e-10
8.79626e-10
8.35714e-10
7.81597e-10
7.16047e-10
6.37716e-10
5.45122e-10
4.36647e-10
3.10509e-10
1.64682e-10
-2.74377e-12
-1.91545e-10
-4.02194e-10
-6.74926e-10
-1.08498e-09
-1.14703e-09
5.4489e-11
5.09606e-11
4.77485e-11
4.5878e-11
4.4893e-11
4.45833e-11
4.4868e-11
4.56723e-11
4.69282e-11
4.85818e-11
5.05923e-11
5.29287e-11
5.55683e-11
5.84946e-11
6.16968e-11
6.51678e-11
6.89039e-11
7.29042e-11
7.71696e-11
8.17032e-11
8.65092e-11
9.15931e-11
9.69615e-11
1.02622e-10
1.08583e-10
1.14852e-10
1.21441e-10
1.28357e-10
1.35613e-10
1.43218e-10
1.51183e-10
1.5952e-10
1.6824e-10
1.77354e-10
1.86873e-10
1.9681e-10
2.07174e-10
2.17977e-10
2.29229e-10
2.40941e-10
2.53122e-10
2.6578e-10
2.78924e-10
2.9256e-10
3.06695e-10
3.21332e-10
3.36474e-10
3.52123e-10
3.68278e-10
3.84936e-10
4.0209e-10
4.19732e-10
4.3785e-10
4.5643e-10
4.75451e-10
4.94889e-10
5.14716e-10
5.34898e-10
5.55393e-10
5.76156e-10
5.9713e-10
6.18253e-10
6.39453e-10
6.60647e-10
6.81744e-10
7.02636e-10
7.23205e-10
7.43316e-10
7.62821e-10
7.81549e-10
7.99313e-10
8.15903e-10
8.31084e-10
8.44596e-10
8.56149e-10
8.65421e-10
8.72057e-10
8.75659e-10
8.75793e-10
8.71974e-10
8.63668e-10
8.50287e-10
8.31182e-10
8.05638e-10
7.72871e-10
7.32019e-10
6.82137e-10
6.22195e-10
5.51068e-10
4.6754e-10
3.703e-10
2.5796e-10
1.29034e-10
-1.81289e-11
-1.84916e-10
-3.70024e-10
-5.72338e-10
-8.36281e-10
-1.25922e-09
-1.2596e-09
5.44175e-11
5.12122e-11
4.82226e-11
4.63967e-11
4.53593e-11
4.49448e-11
4.5094e-11
4.57458e-11
4.68414e-11
4.83325e-11
5.0181e-11
5.23574e-11
5.48389e-11
5.76087e-11
6.06546e-11
6.39686e-11
6.75456e-11
7.1383e-11
7.54805e-11
7.98396e-11
8.4463e-11
8.93549e-11
9.45203e-11
9.99654e-11
1.05697e-10
1.11722e-10
1.18048e-10
1.24685e-10
1.31641e-10
1.38924e-10
1.46544e-10
1.5451e-10
1.62832e-10
1.7152e-10
1.80582e-10
1.90029e-10
1.99868e-10
2.10109e-10
2.20759e-10
2.31828e-10
2.4332e-10
2.55243e-10
2.67602e-10
2.804e-10
2.93642e-10
3.07327e-10
3.21456e-10
3.36026e-10
3.51034e-10
3.66472e-10
3.82331e-10
3.98599e-10
4.15259e-10
4.32293e-10
4.49677e-10
4.67383e-10
4.85378e-10
5.03622e-10
5.22072e-10
5.40675e-10
5.59372e-10
5.78096e-10
5.9677e-10
6.15307e-10
6.3361e-10
6.51569e-10
6.69062e-10
6.85949e-10
7.02078e-10
7.17278e-10
7.31356e-10
7.44103e-10
7.55283e-10
7.64635e-10
7.71871e-10
7.76672e-10
7.78688e-10
7.77531e-10
7.72772e-10
7.63943e-10
7.50526e-10
7.31956e-10
7.07611e-10
6.76814e-10
6.38822e-10
5.9283e-10
5.37962e-10
4.73275e-10
3.97753e-10
3.10314e-10
2.09824e-10
9.51116e-11
-3.50252e-11
-1.81891e-10
-3.46408e-10
-5.26335e-10
-7.18937e-10
-9.70892e-10
-1.3975e-09
-1.35537e-09
5.38894e-11
5.09677e-11
4.81933e-11
4.64417e-11
4.53945e-11
4.49192e-11
4.49736e-11
4.55082e-11
4.64725e-11
4.78238e-11
4.95277e-11
5.15563e-11
5.38881e-11
5.65062e-11
5.93981e-11
6.2555e-11
6.59707e-11
6.96417e-11
7.35664e-11
7.77449e-11
8.21789e-11
8.68711e-11
9.18253e-11
9.70462e-11
1.02539e-10
1.0831e-10
1.14365e-10
1.20711e-10
1.27356e-10
1.34307e-10
1.41571e-10
1.49157e-10
1.57072e-10
1.65323e-10
1.73918e-10
1.82865e-10
1.9217e-10
2.0184e-10
2.11881e-10
2.22298e-10
2.33096e-10
2.44279e-10
2.55849e-10
2.67807e-10
2.80154e-10
2.92888e-10
3.06006e-10
3.19502e-10
3.3337e-10
3.47598e-10
3.62175e-10
3.77085e-10
3.92307e-10
4.0782e-10
4.23596e-10
4.39603e-10
4.55804e-10
4.72157e-10
4.88612e-10
5.05115e-10
5.21603e-10
5.38003e-10
5.54236e-10
5.70212e-10
5.85829e-10
6.00976e-10
6.15525e-10
6.29337e-10
6.42256e-10
6.54109e-10
6.64706e-10
6.73834e-10
6.81259e-10
6.86725e-10
6.89945e-10
6.90608e-10
6.8837e-10
6.82853e-10
6.73643e-10
6.60288e-10
6.42291e-10
6.19112e-10
5.90164e-10
5.54806e-10
5.12346e-10
4.62038e-10
4.03079e-10
3.34611e-10
2.55729e-10
1.65483e-10
6.28972e-11
-5.29983e-11
-1.83166e-10
-3.28631e-10
-4.89971e-10
-6.64318e-10
-8.47981e-10
-1.08961e-09
-1.51457e-09
-1.44689e-09
5.2979e-11
5.03128e-11
4.77412e-11
4.60767e-11
4.50455e-11
4.45393e-11
4.45283e-11
4.49724e-11
4.58282e-11
4.70585e-11
4.86322e-11
5.05242e-11
5.27138e-11
5.51849e-11
5.79252e-11
6.0925e-11
6.41779e-11
6.76794e-11
7.1427e-11
7.54196e-11
7.96579e-11
8.41434e-11
8.88786e-11
9.38669e-11
9.91125e-11
1.0462e-10
1.10394e-10
1.16441e-10
1.22765e-10
1.29374e-10
1.36273e-10
1.43467e-10
1.50964e-10
1.5877e-10
1.66889e-10
1.75327e-10
1.84089e-10
1.93181e-10
2.02605e-10
2.12364e-10
2.22463e-10
2.329e-10
2.43677e-10
2.54793e-10
2.66245e-10
2.78029e-10
2.90139e-10
3.02567e-10
3.15302e-10
3.28332e-10
3.4164e-10
3.55208e-10
3.69013e-10
3.83029e-10
3.97225e-10
4.11567e-10
4.26014e-10
4.4052e-10
4.55033e-10
4.69495e-10
4.83839e-10
4.97991e-10
5.11868e-10
5.25377e-10
5.38415e-10
5.50866e-10
5.62604e-10
5.73486e-10
5.83357e-10
5.92044e-10
5.99356e-10
6.05083e-10
6.08995e-10
6.10838e-10
6.10334e-10
6.07178e-10
6.01036e-10
5.91543e-10
5.78301e-10
5.60878e-10
5.38801e-10
5.11558e-10
4.78598e-10
4.39321e-10
3.93088e-10
3.39211e-10
2.7696e-10
2.05564e-10
1.24221e-10
3.21013e-11
-7.16254e-11
-1.87762e-10
-3.17081e-10
-4.604e-10
-6.18078e-10
-7.86879e-10
-9.62753e-10
-1.19705e-09
-1.62383e-09
-1.53498e-09
5.17446e-11
4.9313e-11
4.69303e-11
4.53579e-11
4.43583e-11
4.38412e-11
4.37861e-11
4.41598e-11
4.49252e-11
4.60498e-11
4.75061e-11
4.9271e-11
5.13256e-11
5.36546e-11
5.62456e-11
5.90894e-11
6.21787e-11
6.55085e-11
6.90756e-11
7.28781e-11
7.69155e-11
8.11884e-11
8.56982e-11
9.04471e-11
9.5438e-11
1.00674e-10
1.0616e-10
1.11898e-10
1.17894e-10
1.24153e-10
1.30677e-10
1.37473e-10
1.44545e-10
1.51897e-10
1.59532e-10
1.67455e-10
1.75668e-10
1.84175e-10
1.92977e-10
2.02076e-10
2.11471e-10
2.21161e-10
2.31145e-10
2.4142e-10
2.51979e-10
2.62817e-10
2.73926e-10
2.85293e-10
2.96907e-10
3.08752e-10
3.20808e-10
3.33054e-10
3.45466e-10
3.58013e-10
3.70663e-10
3.83378e-10
3.96113e-10
4.08822e-10
4.21448e-10
4.33931e-10
4.46203e-10
4.58185e-10
4.69794e-10
4.80934e-10
4.91501e-10
5.01379e-10
5.10438e-10
5.18539e-10
5.25524e-10
5.31224e-10
5.35448e-10
5.37992e-10
5.38628e-10
5.37109e-10
5.33165e-10
5.265e-10
5.16793e-10
5.03693e-10
4.86821e-10
4.65765e-10
4.40079e-10
4.09284e-10
3.72861e-10
3.30257e-10
2.80882e-10
2.24109e-10
1.59278e-10
8.57008e-11
2.66801e-12
-9.05391e-11
-1.94628e-10
-3.10262e-10
-4.38063e-10
-5.78705e-10
-7.32395e-10
-8.95649e-10
-1.06421e-09
-1.29177e-09
-1.71868e-09
-1.6081e-09
5.0257e-11
4.80255e-11
4.58127e-11
4.43311e-11
4.33722e-11
4.28582e-11
4.27745e-11
4.30933e-11
4.37828e-11
4.48145e-11
4.6164e-11
4.78105e-11
4.97367e-11
5.19281e-11
5.43729e-11
5.70618e-11
5.99874e-11
6.31443e-11
6.65285e-11
7.01376e-11
7.39702e-11
7.80259e-11
8.23052e-11
8.68091e-11
9.15394e-11
9.64983e-11
1.01688e-10
1.07113e-10
1.12774e-10
1.18675e-10
1.2482e-10
1.31211e-10
1.37851e-10
1.44743e-10
1.5189e-10
1.59293e-10
1.66953e-10
1.74873e-10
1.8305e-10
1.91486e-10
2.00177e-10
2.09121e-10
2.18315e-10
2.27751e-10
2.37424e-10
2.47324e-10
2.5744e-10
2.67759e-10
2.78266e-10
2.88943e-10
2.99768e-10
3.10718e-10
3.21764e-10
3.32874e-10
3.44014e-10
3.55143e-10
3.66214e-10
3.77178e-10
3.87977e-10
3.98548e-10
4.0882e-10
4.18716e-10
4.28148e-10
4.3702e-10
4.45228e-10
4.52655e-10
4.59172e-10
4.6464e-10
4.68904e-10
4.71794e-10
4.73128e-10
4.72701e-10
4.70295e-10
4.65668e-10
4.58561e-10
4.48688e-10
4.35742e-10
4.19388e-10
3.99268e-10
3.74991e-10
3.4614e-10
3.12265e-10
2.72887e-10
2.27497e-10
1.75552e-10
1.16485e-10
4.97024e-11
-2.54088e-11
-1.09472e-10
-2.03111e-10
-3.06926e-10
-4.21469e-10
-5.47245e-10
-6.84818e-10
-8.34296e-10
-9.92006e-10
-1.15354e-09
-1.37443e-09
-1.79984e-09
-1.66897e-09
4.85543e-11
4.64859e-11
4.44217e-11
4.30289e-11
4.21184e-11
4.16183e-11
4.15182e-11
4.17947e-11
4.24201e-11
4.33695e-11
4.46214e-11
4.61572e-11
4.7961e-11
5.00192e-11
5.23207e-11
5.48563e-11
5.76186e-11
6.06019e-11
6.38018e-11
6.72152e-11
7.08399e-11
7.46748e-11
7.87194e-11
8.2974e-11
8.7439e-11
9.21158e-11
9.70057e-11
1.0211e-10
1.07431e-10
1.12971e-10
1.18731e-10
1.24712e-10
1.30917e-10
1.37346e-10
1.44001e-10
1.50881e-10
1.57987e-10
1.65317e-10
1.7287e-10
1.80643e-10
1.88633e-10
1.96835e-10
2.05242e-10
2.13847e-10
2.22641e-10
2.31613e-10
2.40749e-10
2.50035e-10
2.59453e-10
2.68982e-10
2.786e-10
2.88279e-10
2.97991e-10
3.077e-10
3.17369e-10
3.26957e-10
3.36414e-10
3.45689e-10
3.54723e-10
3.63451e-10
3.71801e-10
3.79694e-10
3.87042e-10
3.9375e-10
3.99712e-10
4.04811e-10
4.08922e-10
4.11906e-10
4.1361e-10
4.13869e-10
4.12504e-10
4.09317e-10
4.04096e-10
3.96609e-10
3.86605e-10
3.73812e-10
3.57938e-10
3.38667e-10
3.15658e-10
2.88546e-10
2.56941e-10
2.20426e-10
1.78559e-10
1.30872e-10
7.68716e-11
1.60452e-11
-5.2139e-11
-1.28225e-10
-2.12759e-10
-3.06282e-10
-4.09308e-10
-5.22293e-10
-6.45654e-10
-7.79875e-10
-9.24988e-10
-1.07718e-09
-1.2319e-09
-1.44622e-09
-1.86913e-09
-1.71996e-09
4.66298e-11
4.46953e-11
4.2774e-11
4.14762e-11
4.06222e-11
4.01464e-11
4.00405e-11
4.02849e-11
4.08559e-11
4.17321e-11
4.28944e-11
4.43261e-11
4.60128e-11
4.7942e-11
5.01031e-11
5.24872e-11
5.5087e-11
5.78967e-11
6.09113e-11
6.41274e-11
6.75422e-11
7.11537e-11
7.49607e-11
7.89625e-11
8.31588e-11
8.75498e-11
9.21357e-11
9.69171e-11
1.01895e-10
1.07069e-10
1.1244e-10
1.18009e-10
1.23776e-10
1.2974e-10
1.35901e-10
1.42258e-10
1.48809e-10
1.55551e-10
1.62481e-10
1.69595e-10
1.76888e-10
1.84352e-10
1.9198e-10
1.99763e-10
2.07688e-10
2.15745e-10
2.23916e-10
2.32186e-10
2.40535e-10
2.4894e-10
2.57376e-10
2.65815e-10
2.74226e-10
2.82571e-10
2.90812e-10
2.98905e-10
3.06801e-10
3.14445e-10
3.21778e-10
3.28734e-10
3.3524e-10
3.41217e-10
3.46576e-10
3.51223e-10
3.55052e-10
3.57948e-10
3.59788e-10
3.60434e-10
3.59738e-10
3.5754e-10
3.53664e-10
3.47921e-10
3.40105e-10
3.29995e-10
3.1735e-10
3.01914e-10
2.83408e-10
2.61534e-10
2.35974e-10
2.06387e-10
1.72409e-10
1.33657e-10
8.97233e-11
4.01814e-11
-1.54153e-11
-7.75291e-11
-1.46635e-10
-2.23214e-10
-3.07747e-10
-4.00701e-10
-5.02516e-10
-6.13576e-10
-7.34223e-10
-8.64883e-10
-1.00553e-09
-1.15224e-09
-1.30037e-09
-1.50819e-09
-1.92784e-09
-1.76236e-09
4.45235e-11
4.26832e-11
4.09003e-11
3.97033e-11
3.89126e-11
3.84687e-11
3.83648e-11
3.85852e-11
3.91098e-11
3.99201e-11
4.09994e-11
4.23328e-11
4.39073e-11
4.57112e-11
4.77348e-11
4.99694e-11
5.24079e-11
5.50442e-11
5.78733e-11
6.08912e-11
6.40947e-11
6.74811e-11
7.10484e-11
7.47952e-11
7.87203e-11
8.28229e-11
8.71023e-11
9.15581e-11
9.61896e-11
1.00996e-10
1.05978e-10
1.11133e-10
1.16461e-10
1.2196e-10
1.27627e-10
1.33462e-10
1.39459e-10
1.45616e-10
1.51927e-10
1.58387e-10
1.64988e-10
1.71722e-10
1.7858e-10
1.85551e-10
1.92622e-10
1.99777e-10
2.07001e-10
2.14275e-10
2.21577e-10
2.28882e-10
2.36166e-10
2.43397e-10
2.50541e-10
2.57563e-10
2.6442e-10
2.71068e-10
2.77456e-10
2.8353e-10
2.89228e-10
2.94484e-10
2.99226e-10
3.03373e-10
3.06838e-10
3.09527e-10
3.11336e-10
3.12153e-10
3.11854e-10
3.10307e-10
3.07369e-10
3.02882e-10
2.96678e-10
2.88575e-10
2.78377e-10
2.65871e-10
2.50831e-10
2.33011e-10
2.12152e-10
1.87972e-10
1.60176e-10
1.28445e-10
9.24456e-11
5.18233e-11
6.20641e-12
-4.47932e-11
-1.01579e-10
-1.64565e-10
-2.34176e-10
-3.10837e-10
-3.94969e-10
-4.8698e-10
-5.87245e-10
-6.96088e-10
-8.13794e-10
-9.40743e-10
-1.07687e-09
-1.21816e-09
-1.35988e-09
-1.56129e-09
-1.97704e-09
-1.79708e-09
4.23018e-11
4.049e-11
3.88393e-11
3.77449e-11
3.70203e-11
3.6612e-11
3.65151e-11
3.67171e-11
3.72012e-11
3.79514e-11
3.89532e-11
4.01933e-11
4.16597e-11
4.3342e-11
4.52308e-11
4.7318e-11
4.95965e-11
5.20603e-11
5.47041e-11
5.75237e-11
6.05152e-11
6.36755e-11
6.70021e-11
7.04926e-11
7.4145e-11
7.79578e-11
8.19294e-11
8.60581e-11
9.03426e-11
9.47812e-11
9.93722e-11
1.04113e-10
1.09003e-10
1.14037e-10
1.19213e-10
1.24528e-10
1.29975e-10
1.35551e-10
1.41248e-10
1.4706e-10
1.52978e-10
1.58992e-10
1.65091e-10
1.71263e-10
1.77493e-10
1.83765e-10
1.9006e-10
1.96359e-10
2.02638e-10
2.08872e-10
2.15033e-10
2.21089e-10
2.27006e-10
2.32746e-10
2.38265e-10
2.43519e-10
2.48455e-10
2.53019e-10
2.57149e-10
2.60779e-10
2.63836e-10
2.66241e-10
2.67907e-10
2.68741e-10
2.68642e-10
2.67499e-10
2.65194e-10
2.61596e-10
2.56566e-10
2.49955e-10
2.416e-10
2.31327e-10
2.18949e-10
2.04265e-10
1.87059e-10
1.67103e-10
1.44151e-10
1.17943e-10
8.82013e-11
5.46343e-11
1.69334e-11
-2.52255e-11
-7.21806e-11
-1.24284e-10
-1.81898e-10
-2.45395e-10
-3.15151e-10
-3.91543e-10
-4.7494e-10
-5.65697e-10
-6.64138e-10
-7.70535e-10
-8.8513e-10
-1.00826e-09
-1.13984e-09
-1.27578e-09
-1.41129e-09
-1.60638e-09
-2.01766e-09
-1.8249e-09
3.98984e-11
3.81625e-11
3.66301e-11
3.56335e-11
3.49735e-11
3.46013e-11
3.45139e-11
3.47013e-11
3.51494e-11
3.58441e-11
3.67729e-11
3.79237e-11
3.92859e-11
4.08497e-11
4.26065e-11
4.45484e-11
4.66685e-11
4.8961e-11
5.14203e-11
5.40418e-11
5.68215e-11
5.97556e-11
6.2841e-11
6.60747e-11
6.94541e-11
7.29767e-11
7.664e-11
8.04417e-11
8.43793e-11
8.84501e-11
9.26514e-11
9.69801e-11
1.01433e-10
1.06005e-10
1.10693e-10
1.15491e-10
1.20394e-10
1.25395e-10
1.30485e-10
1.35658e-10
1.40902e-10
1.46207e-10
1.5156e-10
1.56947e-10
1.62352e-10
1.67759e-10
1.73147e-10
1.78494e-10
1.83777e-10
1.88968e-10
1.94039e-10
1.98956e-10
2.03684e-10
2.08184e-10
2.12413e-10
2.16324e-10
2.19866e-10
2.22982e-10
2.25612e-10
2.27689e-10
2.29141e-10
2.29891e-10
2.29852e-10
2.28934e-10
2.27036e-10
2.24053e-10
2.19868e-10
2.14356e-10
2.07384e-10
1.98807e-10
1.8847e-10
1.76208e-10
1.61843e-10
1.45186e-10
1.26034e-10
1.04172e-10
7.93714e-11
5.13906e-11
1.99736e-11
-1.51488e-11
-5.42594e-11
-9.76532e-11
-1.45637e-10
-1.9853e-10
-2.56656e-10
-3.20348e-10
-3.8994e-10
-4.65765e-10
-5.48147e-10
-6.37397e-10
-7.33793e-10
-8.37568e-10
-9.48926e-10
-1.06818e-09
-1.19521e-09
-1.32588e-09
-1.45535e-09
-1.64422e-09
-2.05054e-09
-1.84651e-09
3.72695e-11
3.5728e-11
3.43141e-11
3.33967e-11
3.27949e-11
3.24578e-11
3.23813e-11
3.25569e-11
3.29723e-11
3.36154e-11
3.44748e-11
3.55401e-11
3.68014e-11
3.82498e-11
3.98771e-11
4.1676e-11
4.36397e-11
4.57623e-11
4.80383e-11
5.04627e-11
5.30312e-11
5.57397e-11
5.85844e-11
6.15618e-11
6.46686e-11
6.79015e-11
7.12573e-11
7.47328e-11
7.83246e-11
8.20293e-11
8.5843e-11
8.97615e-11
9.37805e-11
9.78948e-11
1.02099e-10
1.06387e-10
1.10751e-10
1.15183e-10
1.19676e-10
1.24219e-10
1.288e-10
1.33409e-10
1.3803e-10
1.42649e-10
1.47248e-10
1.51809e-10
1.56312e-10
1.60733e-10
1.65046e-10
1.69225e-10
1.73239e-10
1.77054e-10
1.80635e-10
1.8394e-10
1.86927e-10
1.89548e-10
1.91752e-10
1.93483e-10
1.9468e-10
1.95278e-10
1.95205e-10
1.94385e-10
1.92734e-10
1.90163e-10
1.86575e-10
1.81867e-10
1.75927e-10
1.68635e-10
1.59862e-10
1.49471e-10
1.37315e-10
1.23236e-10
1.07068e-10
8.86312e-11
6.77374e-11
4.41856e-11
1.77636e-11
-1.17523e-11
-4.45977e-11
-8.10193e-11
-1.21275e-10
-1.65633e-10
-2.1437e-10
-2.67773e-10
-3.26133e-10
-3.89747e-10
-4.58911e-10
-5.33918e-10
-6.15054e-10
-7.0259e-10
-7.96768e-10
-8.97786e-10
-1.00582e-09
-1.12115e-09
-1.24366e-09
-1.36916e-09
-1.49277e-09
-1.67551e-09
-2.07643e-09
-1.86249e-09
3.45312e-11
3.31646e-11
3.18805e-11
3.10448e-11
3.05005e-11
3.01988e-11
3.0135e-11
3.03014e-11
3.06871e-11
3.12818e-11
3.20753e-11
3.30583e-11
3.42219e-11
3.55577e-11
3.70583e-11
3.87165e-11
4.05259e-11
4.24805e-11
4.45747e-11
4.68035e-11
4.91622e-11
5.16462e-11
5.42514e-11
5.69736e-11
5.9809e-11
6.27537e-11
6.58036e-11
6.89549e-11
7.22033e-11
7.55444e-11
7.89736e-11
8.24857e-11
8.60754e-11
8.97366e-11
9.34627e-11
9.72463e-11
1.0108e-10
1.04953e-10
1.08858e-10
1.12782e-10
1.16714e-10
1.20639e-10
1.24545e-10
1.28412e-10
1.32225e-10
1.35963e-10
1.39604e-10
1.43125e-10
1.46498e-10
1.49696e-10
1.52688e-10
1.55439e-10
1.57913e-10
1.60068e-10
1.61862e-10
1.63246e-10
1.64171e-10
1.64579e-10
1.64411e-10
1.63603e-10
1.62084e-10
1.59779e-10
1.56607e-10
1.52481e-10
1.47308e-10
1.40988e-10
1.33413e-10
1.24468e-10
1.14031e-10
1.01972e-10
8.81504e-11
7.24188e-11
5.46198e-11
3.45864e-11
1.21424e-11
-1.28986e-11
-4.07325e-11
-7.15655e-11
-1.05613e-10
-1.43101e-10
-1.84263e-10
-2.29342e-10
-2.78588e-10
-3.32257e-10
-3.9061e-10
-4.5391e-10
-5.2242e-10
-5.96398e-10
-6.76097e-10
-7.61753e-10
-8.53578e-10
-9.5174e-10
-1.05639e-09
-1.16779e-09
-1.28581e-09
-1.40623e-09
-1.52417e-09
-1.70088e-09
-2.09602e-09
-1.87341e-09
3.17013e-11
3.04946e-11
2.93439e-11
2.85926e-11
2.81065e-11
2.78411e-11
2.77917e-11
2.79512e-11
2.83102e-11
2.88594e-11
2.95901e-11
3.04939e-11
3.15627e-11
3.27889e-11
3.41653e-11
3.56854e-11
3.73427e-11
3.91315e-11
4.1046e-11
4.30811e-11
4.52317e-11
4.74931e-11
4.98607e-11
5.23297e-11
5.48959e-11
5.75545e-11
6.03011e-11
6.3131e-11
6.60391e-11
6.90204e-11
7.20692e-11
7.51798e-11
7.83456e-11
8.15599e-11
8.48149e-11
8.81025e-11
9.14137e-11
9.47384e-11
9.80658e-11
1.01384e-10
1.0468e-10
1.07938e-10
1.11144e-10
1.1428e-10
1.17327e-10
1.20264e-10
1.23069e-10
1.25716e-10
1.2818e-10
1.3043e-10
1.32435e-10
1.34161e-10
1.35569e-10
1.3662e-10
1.37271e-10
1.37472e-10
1.37174e-10
1.36322e-10
1.34857e-10
1.32715e-10
1.29827e-10
1.2612e-10
1.21517e-10
1.15932e-10
1.09275e-10
1.01451e-10
9.23567e-11
8.18829e-11
6.99131e-11
5.63237e-11
4.09835e-11
2.37532e-11
4.48587e-12
-1.69739e-11
-4.07899e-11
-6.7134e-11
-9.61869e-11
-1.28137e-10
-1.63182e-10
-2.01525e-10
-2.4338e-10
-2.88964e-10
-3.38502e-10
-3.92223e-10
-4.50358e-10
-5.13143e-10
-5.80809e-10
-6.53584e-10
-7.31691e-10
-8.15335e-10
-9.04703e-10
-9.99938e-10
-1.10117e-09
-1.20865e-09
-1.32223e-09
-1.43769e-09
-1.55012e-09
-1.7209e-09
-2.10992e-09
-1.87977e-09
2.88e-11
2.77439e-11
2.67245e-11
2.60585e-11
2.56309e-11
2.54024e-11
2.53687e-11
2.55232e-11
2.58578e-11
2.63642e-11
2.70349e-11
2.78623e-11
2.88391e-11
2.99584e-11
3.12135e-11
3.25981e-11
3.41059e-11
3.57312e-11
3.74685e-11
3.93122e-11
4.12572e-11
4.32984e-11
4.54308e-11
4.76493e-11
4.9949e-11
5.23247e-11
5.47714e-11
5.72835e-11
5.98556e-11
6.24816e-11
6.51553e-11
6.787e-11
7.06185e-11
7.3393e-11
7.61851e-11
7.89857e-11
8.17848e-11
8.45715e-11
8.73342e-11
9.00598e-11
9.27344e-11
9.53426e-11
9.78677e-11
1.00292e-10
1.02594e-10
1.04754e-10
1.06749e-10
1.08551e-10
1.10136e-10
1.11471e-10
1.12526e-10
1.13265e-10
1.13652e-10
1.13645e-10
1.13201e-10
1.12273e-10
1.10811e-10
1.0876e-10
1.06063e-10
1.02658e-10
9.84776e-11
9.3451e-11
8.75024e-11
8.05506e-11
7.25091e-11
6.32862e-11
5.27839e-11
4.08986e-11
2.75202e-11
1.25321e-11
-4.18881e-12
-2.27726e-11
-4.33562e-11
-6.60837e-11
-9.11063e-11
-1.18582e-10
-1.48677e-10
-1.81562e-10
-2.17417e-10
-2.56427e-10
-2.98783e-10
-3.4468e-10
-3.9432e-10
-4.47906e-10
-5.05645e-10
-5.67743e-10
-6.34405e-10
-7.05834e-10
-7.82223e-10
-8.63755e-10
-9.50591e-10
-1.04285e-09
-1.14066e-09
-1.24424e-09
-1.35345e-09
-1.46405e-09
-1.57115e-09
-1.7361e-09
-2.1187e-09
-1.88203e-09
2.58465e-11
2.4934e-11
2.40429e-11
2.3461e-11
2.30916e-11
2.29e-11
2.28827e-11
2.30338e-11
2.33458e-11
2.38118e-11
2.44249e-11
2.51786e-11
2.60663e-11
2.70815e-11
2.8218e-11
2.94697e-11
3.08308e-11
3.22955e-11
3.38582e-11
3.55134e-11
3.72556e-11
3.90795e-11
4.09798e-11
4.29511e-11
4.49878e-11
4.70845e-11
4.92353e-11
5.14343e-11
5.36753e-11
5.59515e-11
5.82562e-11
6.05818e-11
6.29203e-11
6.52633e-11
6.76016e-11
6.99251e-11
7.22232e-11
7.44842e-11
7.66954e-11
7.88433e-11
8.09128e-11
8.2888e-11
8.47514e-11
8.6484e-11
8.80653e-11
8.94733e-11
9.06838e-11
9.16712e-11
9.24074e-11
9.28625e-11
9.30039e-11
9.2797e-11
9.2204e-11
9.11848e-11
8.96961e-11
8.76916e-11
8.51219e-11
8.19338e-11
7.80708e-11
7.34722e-11
6.80737e-11
6.18063e-11
5.4597e-11
4.63679e-11
3.70365e-11
2.65152e-11
1.47113e-11
1.52663e-12
-1.31424e-11
-2.94052e-11
-4.73767e-11
-6.71781e-11
-8.89362e-11
-1.12784e-10
-1.38861e-10
-1.67311e-10
-1.98285e-10
-2.31941e-10
-2.68438e-10
-3.07944e-10
-3.50631e-10
-3.96673e-10
-4.46249e-10
-4.99539e-10
-5.56727e-10
-6.17994e-10
-6.83522e-10
-7.53487e-10
-8.28061e-10
-9.07404e-10
-9.91657e-10
-1.08093e-09
-1.17531e-09
-1.27504e-09
-1.37994e-09
-1.4858e-09
-1.58773e-09
-1.74696e-09
-2.12291e-09
-1.88063e-09
2.28577e-11
2.20827e-11
2.13163e-11
2.08176e-11
2.05057e-11
2.03509e-11
2.03504e-11
2.04989e-11
2.079e-11
2.12175e-11
2.17754e-11
2.24578e-11
2.32589e-11
2.41728e-11
2.51935e-11
2.63154e-11
2.75327e-11
2.88397e-11
3.02309e-11
3.17007e-11
3.32435e-11
3.48536e-11
3.65255e-11
3.82534e-11
4.00314e-11
4.18535e-11
4.37133e-11
4.56045e-11
4.75201e-11
4.9453e-11
5.13955e-11
5.33396e-11
5.52765e-11
5.71972e-11
5.90916e-11
6.0949e-11
6.27581e-11
6.45064e-11
6.61805e-11
6.77661e-11
6.92476e-11
7.06082e-11
7.18299e-11
7.2893e-11
7.37764e-11
7.44576e-11
7.49122e-11
7.51137e-11
7.50341e-11
7.46432e-11
7.39084e-11
7.27949e-11
7.12655e-11
6.928e-11
6.67959e-11
6.37675e-11
6.01464e-11
5.58809e-11
5.09156e-11
4.51921e-11
3.86477e-11
3.12164e-11
2.28279e-11
1.34078e-11
2.87752e-12
-8.84599e-12
-2.18504e-11
-3.62281e-11
-5.20762e-11
-6.94969e-11
-8.85972e-11
-1.09489e-10
-1.3229e-10
-1.57122e-10
-1.84113e-10
-2.13393e-10
-2.45101e-10
-2.79376e-10
-3.16365e-10
-3.56217e-10
-3.99084e-10
-4.45123e-10
-4.94491e-10
-5.47347e-10
-6.03854e-10
-6.6417e-10
-7.28456e-10
-7.96866e-10
-8.6955e-10
-9.4665e-10
-1.02829e-09
-1.11456e-09
-1.20554e-09
-1.30146e-09
-1.40215e-09
-1.50339e-09
-1.60032e-09
-1.75394e-09
-2.12304e-09
-1.87598e-09
1.98494e-11
1.92072e-11
1.8562e-11
1.81446e-11
1.78893e-11
1.7771e-11
1.77874e-11
1.79342e-11
1.82056e-11
1.85963e-11
1.9101e-11
1.97146e-11
2.04317e-11
2.12469e-11
2.21548e-11
2.31497e-11
2.42264e-11
2.5379e-11
2.66022e-11
2.78901e-11
2.92371e-11
3.06374e-11
3.20851e-11
3.35741e-11
3.50981e-11
3.66507e-11
3.82252e-11
3.98145e-11
4.14113e-11
4.30079e-11
4.4596e-11
4.6167e-11
4.77115e-11
4.92197e-11
5.06811e-11
5.20843e-11
5.34172e-11
5.46667e-11
5.58188e-11
5.68586e-11
5.77698e-11
5.85351e-11
5.91358e-11
5.95519e-11
5.97617e-11
5.97423e-11
5.94688e-11
5.89148e-11
5.80518e-11
5.68496e-11
5.52759e-11
5.32959e-11
5.08727e-11
4.79667e-11
4.45358e-11
4.05354e-11
3.59183e-11
3.06341e-11
2.46293e-11
1.7847e-11
1.02271e-11
1.70614e-12
-7.78311e-12
-1.83114e-11
-2.99534e-11
-4.27875e-11
-5.68963e-11
-7.23664e-11
-8.92885e-11
-1.07758e-10
-1.27873e-10
-1.49738e-10
-1.7346e-10
-1.99151e-10
-2.26926e-10
-2.56906e-10
-2.89214e-10
-3.23975e-10
-3.61321e-10
-4.01385e-10
-4.44301e-10
-4.90207e-10
-5.39243e-10
-5.91549e-10
-6.47265e-10
-7.06533e-10
-7.69491e-10
-8.36274e-10
-9.07016e-10
-9.81839e-10
-1.06085e-09
-1.14413e-09
-1.23175e-09
-1.32393e-09
-1.42049e-09
-1.51724e-09
-1.60933e-09
-1.75745e-09
-2.11955e-09
-1.86846e-09
1.68371e-11
1.63225e-11
1.57951e-11
1.54574e-11
1.52577e-11
1.51754e-11
1.52089e-11
1.53544e-11
1.56072e-11
1.59626e-11
1.64161e-11
1.69631e-11
1.75987e-11
1.8318e-11
1.91159e-11
1.99871e-11
2.09264e-11
2.19282e-11
2.29869e-11
2.40969e-11
2.52523e-11
2.64472e-11
2.76753e-11
2.89304e-11
3.02057e-11
3.14946e-11
3.27899e-11
3.40841e-11
3.53693e-11
3.66374e-11
3.78795e-11
3.90865e-11
4.02485e-11
4.13551e-11