/*--------------------------------*- C++ -*----------------------------------*\
  =========                 |
  \\      /  F ield         | OpenFOAM: The Open Source CFD Toolbox
   \\    /   O peration     | Website:  https://openfoam.org
    \\  /    A nd           | Version:  11
     \\/     M anipulation  |
\*---------------------------------------------------------------------------*/
FoamFile
{
    format      ascii;
    class       volScalarField;
    location    "492";
    object      p;
}
// * * * * * * * * * * * * * * * * * * * * * * * * * * * * * * * * * * * * * //

dimensions      [0 2 -2 0 0 0 0];

internalField   nonuniform List<scalar> 
10000
(
1.11918e-08
1.09315e-08
1.13232e-08
1.21564e-08
1.31235e-08
1.41523e-08
1.52374e-08
1.63777e-08
1.75724e-08
1.88233e-08
2.01331e-08
2.15051e-08
2.29426e-08
2.44493e-08
2.60289e-08
2.76852e-08
2.9422e-08
3.12431e-08
3.31525e-08
3.51541e-08
3.7252e-08
3.94501e-08
4.17527e-08
4.41638e-08
4.66875e-08
4.93282e-08
5.209e-08
5.49772e-08
5.7994e-08
6.11447e-08
6.44335e-08
6.78647e-08
7.14423e-08
7.51706e-08
7.90535e-08
8.30949e-08
8.72988e-08
9.16688e-08
9.62083e-08
1.00921e-07
1.05809e-07
1.10876e-07
1.16124e-07
1.21555e-07
1.27171e-07
1.32973e-07
1.38961e-07
1.45136e-07
1.51497e-07
1.58043e-07
1.64771e-07
1.71678e-07
1.7876e-07
1.86011e-07
1.93426e-07
2.00995e-07
2.0871e-07
2.16559e-07
2.2453e-07
2.32606e-07
2.40771e-07
2.49006e-07
2.57287e-07
2.65591e-07
2.73889e-07
2.8215e-07
2.9034e-07
2.98419e-07
3.06348e-07
3.14078e-07
3.21561e-07
3.28741e-07
3.35559e-07
3.41953e-07
3.47852e-07
3.53184e-07
3.57871e-07
3.61827e-07
3.64962e-07
3.67175e-07
3.68358e-07
3.68381e-07
3.67061e-07
3.64026e-07
3.58796e-07
3.53495e-07
3.48561e-07
3.4162e-07
3.32576e-07
3.21751e-07
3.07263e-07
2.88664e-07
2.6684e-07
2.42306e-07
2.17096e-07
1.90343e-07
1.58259e-07
1.18463e-07
6.37864e-08
2.63888e-09
2.12489e-08
2.01522e-08
1.94415e-08
1.97199e-08
2.04402e-08
2.13776e-08
2.24734e-08
2.36976e-08
2.50307e-08
2.64622e-08
2.79875e-08
2.9605e-08
3.1315e-08
3.3119e-08
3.50191e-08
3.70184e-08
3.91201e-08
4.13278e-08
4.36452e-08
4.60765e-08
4.86258e-08
5.12973e-08
5.40954e-08
5.70248e-08
6.00898e-08
6.32951e-08
6.66454e-08
7.01453e-08
7.37995e-08
7.76127e-08
8.15896e-08
8.57348e-08
9.00528e-08
9.4548e-08
9.9225e-08
1.04088e-07
1.0914e-07
1.14387e-07
1.19831e-07
1.25475e-07
1.31324e-07
1.37378e-07
1.43642e-07
1.50116e-07
1.56801e-07
1.63699e-07
1.70809e-07
1.7813e-07
1.85661e-07
1.934e-07
2.01342e-07
2.09483e-07
2.17817e-07
2.26336e-07
2.35032e-07
2.43894e-07
2.52909e-07
2.62063e-07
2.71339e-07
2.80717e-07
2.90177e-07
2.99694e-07
3.09239e-07
3.18781e-07
3.28285e-07
3.37713e-07
3.47022e-07
3.56164e-07
3.65088e-07
3.73735e-07
3.82044e-07
3.89946e-07
3.97369e-07
4.04233e-07
4.10453e-07
4.15937e-07
4.20589e-07
4.24304e-07
4.26971e-07
4.28471e-07
4.28679e-07
4.27465e-07
4.24678e-07
4.20107e-07
4.13746e-07
4.07119e-07
3.98433e-07
3.85189e-07
3.68528e-07
3.50245e-07
3.31067e-07
3.10179e-07
2.85585e-07
2.55078e-07
2.20324e-07
1.82704e-07
1.39466e-07
8.53793e-08
8.39527e-09
-5.28643e-08
2.63007e-08
2.46692e-08
2.31985e-08
2.27717e-08
2.28963e-08
2.3326e-08
2.398e-08
2.4811e-08
2.57856e-08
2.68828e-08
2.80897e-08
2.93987e-08
3.08052e-08
3.23071e-08
3.39035e-08
3.55948e-08
3.73819e-08
3.92668e-08
4.12513e-08
4.33381e-08
4.55299e-08
4.78295e-08
5.02403e-08
5.27653e-08
5.5408e-08
5.81719e-08
6.10605e-08
6.40773e-08
6.72259e-08
7.05099e-08
7.3933e-08
7.74986e-08
8.12101e-08
8.50711e-08
8.90849e-08
9.32545e-08
9.7583e-08
1.02073e-07
1.06728e-07
1.11549e-07
1.16539e-07
1.217e-07
1.27032e-07
1.32537e-07
1.38215e-07
1.44067e-07
1.5009e-07
1.56285e-07
1.62648e-07
1.69178e-07
1.75869e-07
1.82717e-07
1.89715e-07
1.96858e-07
2.04135e-07
2.11536e-07
2.1905e-07
2.26662e-07
2.34357e-07
2.42117e-07
2.4992e-07
2.57745e-07
2.65565e-07
2.7335e-07
2.81067e-07
2.88682e-07
2.96153e-07
3.03436e-07
3.10482e-07
3.17237e-07
3.23643e-07
3.29637e-07
3.35148e-07
3.40104e-07
3.44424e-07
3.48025e-07
3.50815e-07
3.52701e-07
3.53584e-07
3.53362e-07
3.51933e-07
3.49202e-07
3.45084e-07
3.39508e-07
3.32534e-07
3.24762e-07
3.15899e-07
3.04571e-07
2.90493e-07
2.73704e-07
2.53529e-07
2.29664e-07
2.02182e-07
1.7078e-07
1.36684e-07
9.97697e-08
5.86866e-08
7.36802e-09
-6.75056e-08
-1.04055e-07
3.07116e-08
2.88747e-08
2.72446e-08
2.65372e-08
2.63621e-08
2.65189e-08
2.69332e-08
2.75551e-08
2.83467e-08
2.9282e-08
3.0344e-08
3.15214e-08
3.28066e-08
3.41949e-08
3.56836e-08
3.7271e-08
3.89571e-08
4.07421e-08
4.26272e-08
4.46138e-08
4.67039e-08
4.88997e-08
5.12036e-08
5.36183e-08
5.61463e-08
5.87908e-08
6.15545e-08
6.44405e-08
6.74518e-08
7.05916e-08
7.38627e-08
7.72683e-08
8.08113e-08
8.44945e-08
8.83208e-08
9.22927e-08
9.64128e-08
1.00683e-07
1.05106e-07
1.09683e-07
1.14416e-07
1.19306e-07
1.24354e-07
1.29559e-07
1.34923e-07
1.40444e-07
1.4612e-07
1.51951e-07
1.57933e-07
1.64063e-07
1.70336e-07
1.76746e-07
1.83287e-07
1.89952e-07
1.9673e-07
2.03611e-07
2.10583e-07
2.1763e-07
2.24736e-07
2.31884e-07
2.3905e-07
2.46213e-07
2.53344e-07
2.60413e-07
2.67388e-07
2.74231e-07
2.80901e-07
2.87352e-07
2.93534e-07
2.99392e-07
3.04866e-07
3.09891e-07
3.14398e-07
3.18309e-07
3.21546e-07
3.24022e-07
3.25647e-07
3.26327e-07
3.25966e-07
3.24466e-07
3.21729e-07
3.17668e-07
3.12206e-07
3.05278e-07
2.96862e-07
2.8708e-07
2.75786e-07
2.62394e-07
2.46547e-07
2.27999e-07
2.06303e-07
1.81269e-07
1.52955e-07
1.21324e-07
8.67088e-08
4.91048e-08
8.02674e-09
-4.30747e-08
-1.1861e-07
-1.40073e-07
3.4531e-08
3.27029e-08
3.10919e-08
3.02741e-08
2.99394e-08
2.99349e-08
3.01997e-08
3.06878e-08
3.13617e-08
3.21948e-08
3.3168e-08
3.42683e-08
3.54861e-08
3.68152e-08
3.82512e-08
3.97915e-08
4.14347e-08
4.31804e-08
4.50287e-08
4.69806e-08
4.90372e-08
5.12001e-08
5.34713e-08
5.58529e-08
5.83471e-08
6.09565e-08
6.36835e-08
6.65307e-08
6.95007e-08
7.25963e-08
7.58201e-08
7.91747e-08
8.26626e-08
8.62863e-08
9.00481e-08
9.39504e-08
9.79951e-08
1.02184e-07
1.06519e-07
1.11001e-07
1.15631e-07
1.20411e-07
1.25339e-07
1.30417e-07
1.35643e-07
1.41017e-07
1.46536e-07
1.52197e-07
1.57998e-07
1.63935e-07
1.70001e-07
1.76192e-07
1.82499e-07
1.88915e-07
1.95428e-07
2.02028e-07
2.087e-07
2.1543e-07
2.222e-07
2.2899e-07
2.35779e-07
2.42541e-07
2.49248e-07
2.55869e-07
2.62368e-07
2.68708e-07
2.74845e-07
2.80731e-07
2.86315e-07
2.91541e-07
2.96345e-07
3.00661e-07
3.04415e-07
3.07532e-07
3.09927e-07
3.11513e-07
3.12199e-07
3.11888e-07
3.10485e-07
3.0789e-07
3.04007e-07
2.98744e-07
2.92017e-07
2.83748e-07
2.73867e-07
2.62335e-07
2.48997e-07
2.33531e-07
2.15689e-07
1.95272e-07
1.72041e-07
1.45839e-07
1.16592e-07
8.42099e-08
4.87208e-08
1.03231e-08
-3.10939e-08
-8.2659e-08
-1.59381e-07
-1.70546e-07
3.778e-08
3.6043e-08
3.44903e-08
3.36211e-08
3.31848e-08
3.30641e-08
3.32115e-08
3.35871e-08
3.41568e-08
3.48947e-08
3.57817e-08
3.68038e-08
3.79506e-08
3.92146e-08
4.05906e-08
4.2075e-08
4.36655e-08
4.53608e-08
4.71605e-08
4.90647e-08
5.10741e-08
5.31898e-08
5.54131e-08
5.77456e-08
6.01892e-08
6.2746e-08
6.54179e-08
6.82072e-08
7.1116e-08
7.41468e-08
7.73016e-08
8.05827e-08
8.39923e-08
8.75324e-08
9.12049e-08
9.50117e-08
9.89543e-08
1.03034e-07
1.07253e-07
1.1161e-07
1.16108e-07
1.20746e-07
1.25523e-07
1.3044e-07
1.35495e-07
1.40687e-07
1.46012e-07
1.51468e-07
1.57051e-07
1.62757e-07
1.68579e-07
1.74511e-07
1.80544e-07
1.8667e-07
1.92878e-07
1.99155e-07
2.05487e-07
2.11859e-07
2.18251e-07
2.24644e-07
2.31015e-07
2.37337e-07
2.43581e-07
2.49715e-07
2.55704e-07
2.61507e-07
2.6708e-07
2.72375e-07
2.77338e-07
2.81911e-07
2.8603e-07
2.89628e-07
2.92631e-07
2.94958e-07
2.96527e-07
2.97249e-07
2.97032e-07
2.95779e-07
2.93393e-07
2.89776e-07
2.8483e-07
2.7846e-07
2.70578e-07
2.61092e-07
2.49918e-07
2.36967e-07
2.22095e-07
2.0509e-07
1.8577e-07
1.63975e-07
1.39541e-07
1.12343e-07
8.22897e-08
4.92872e-08
1.33152e-08
-2.5307e-08
-6.65378e-08
-1.17948e-07
-1.93904e-07
-1.9745e-07
4.06421e-08
3.90087e-08
3.75279e-08
3.66431e-08
3.61453e-08
3.5943e-08
3.60001e-08
3.62836e-08
3.67634e-08
3.74158e-08
3.82225e-08
3.91694e-08
4.02458e-08
4.14437e-08
4.27572e-08
4.4182e-08
4.5715e-08
4.73545e-08
4.90994e-08
5.09492e-08
5.2904e-08
5.49645e-08
5.71315e-08
5.94061e-08
6.17899e-08
6.42843e-08
6.68911e-08
6.9612e-08
7.24488e-08
7.54034e-08
7.84777e-08
8.16734e-08
8.49922e-08
8.84359e-08
9.2006e-08
9.57038e-08
9.95305e-08
1.03487e-07
1.07574e-07
1.11793e-07
1.16143e-07
1.20623e-07
1.25234e-07
1.29974e-07
1.34842e-07
1.39834e-07
1.4495e-07
1.50184e-07
1.55532e-07
1.60989e-07
1.66549e-07
1.72205e-07
1.77948e-07
1.83767e-07
1.89652e-07
1.9559e-07
2.01566e-07
2.07564e-07
2.13564e-07
2.19545e-07
2.25483e-07
2.31353e-07
2.37123e-07
2.42761e-07
2.48231e-07
2.53491e-07
2.58497e-07
2.63198e-07
2.67542e-07
2.71469e-07
2.74915e-07
2.7781e-07
2.8008e-07
2.81645e-07
2.82422e-07
2.8232e-07
2.81248e-07
2.79111e-07
2.75809e-07
2.71245e-07
2.65322e-07
2.57942e-07
2.49012e-07
2.38438e-07
2.26127e-07
2.1198e-07
1.95872e-07
1.77652e-07
1.57175e-07
1.34312e-07
1.08944e-07
8.09754e-08
5.03373e-08
1.69578e-08
-1.91666e-08
-5.76229e-08
-9.82741e-08
-1.48902e-07
-2.22656e-07
-2.20091e-07
4.32305e-08
4.16955e-08
4.02891e-08
3.94106e-08
3.88796e-08
3.86226e-08
3.8613e-08
3.88239e-08
3.92295e-08
3.98087e-08
4.05443e-08
4.14229e-08
4.2434e-08
4.35693e-08
4.48226e-08
4.61891e-08
4.76654e-08
4.92491e-08
5.09387e-08
5.27333e-08
5.46324e-08
5.66363e-08
5.87454e-08
6.09605e-08
6.32825e-08
6.57127e-08
6.82522e-08
7.09026e-08
7.36651e-08
7.65414e-08
7.95328e-08
8.26409e-08
8.58668e-08
8.92119e-08
9.26774e-08
9.62642e-08
9.99731e-08
1.03805e-07
1.07759e-07
1.11837e-07
1.16037e-07
1.20359e-07
1.24802e-07
1.29364e-07
1.34044e-07
1.38838e-07
1.43743e-07
1.48755e-07
1.53869e-07
1.59079e-07
1.64379e-07
1.6976e-07
1.75214e-07
1.8073e-07
1.86296e-07
1.919e-07
1.97524e-07
2.03153e-07
2.08767e-07
2.14343e-07
2.19859e-07
2.25285e-07
2.30593e-07
2.35748e-07
2.40713e-07
2.45447e-07
2.49904e-07
2.54034e-07
2.57782e-07
2.6109e-07
2.63892e-07
2.66119e-07
2.67695e-07
2.68542e-07
2.68574e-07
2.67704e-07
2.65838e-07
2.62882e-07
2.58739e-07
2.5331e-07
2.46497e-07
2.38204e-07
2.28336e-07
2.16797e-07
2.03494e-07
1.88329e-07
1.71197e-07
1.51979e-07
1.30565e-07
1.06855e-07
8.07629e-08
5.22242e-08
2.11942e-08
-1.23728e-08
-4.84469e-08
-8.65407e-08
-1.26474e-07
-1.76248e-07
-2.47862e-07
-2.40126e-07
4.56025e-08
4.41567e-08
4.28208e-08
4.19599e-08
4.14135e-08
4.11209e-08
4.10623e-08
4.12163e-08
4.1561e-08
4.20775e-08
4.27506e-08
4.35677e-08
4.45185e-08
4.5595e-08
4.67908e-08
4.81009e-08
4.95216e-08
5.10501e-08
5.26845e-08
5.44235e-08
5.62664e-08
5.82129e-08
6.02631e-08
6.24174e-08
6.46763e-08
6.70407e-08
6.95116e-08
7.20898e-08
7.47766e-08
7.75729e-08
8.04799e-08
8.34987e-08
8.66302e-08
8.98754e-08
9.32348e-08
9.67093e-08
1.00299e-07
1.04004e-07
1.07825e-07
1.11761e-07
1.15811e-07
1.19974e-07
1.24249e-07
1.28634e-07
1.33126e-07
1.37721e-07
1.42417e-07
1.47208e-07
1.52089e-07
1.57055e-07
1.62097e-07
1.67207e-07
1.72376e-07
1.77592e-07
1.82845e-07
1.88118e-07
1.93398e-07
1.98665e-07
2.03901e-07
2.09082e-07
2.14184e-07
2.19179e-07
2.24037e-07
2.28723e-07
2.332e-07
2.37425e-07
2.41353e-07
2.44934e-07
2.48112e-07
2.50829e-07
2.53018e-07
2.54612e-07
2.55534e-07
2.55705e-07
2.55042e-07
2.53457e-07
2.50856e-07
2.47147e-07
2.42233e-07
2.36017e-07
2.28401e-07
2.1929e-07
2.08589e-07
1.96205e-07
1.82047e-07
1.66024e-07
1.48044e-07
1.28015e-07
1.05851e-07
8.14797e-08
5.48419e-08
2.59007e-08
-5.36356e-09
-3.89704e-08
-7.48552e-08
-1.1247e-07
-1.51628e-07
-2.0067e-07
-2.70902e-07
-2.58601e-07
4.77936e-08
4.64265e-08
4.5155e-08
4.43169e-08
4.37661e-08
4.34507e-08
4.33563e-08
4.34655e-08
4.37597e-08
4.42227e-08
4.48407e-08
4.5602e-08
4.64972e-08
4.75184e-08
4.86592e-08
4.99146e-08
5.12807e-08
5.27546e-08
5.43339e-08
5.60171e-08
5.78031e-08
5.96914e-08
6.16816e-08
6.37739e-08
6.59684e-08
6.82657e-08
7.06662e-08
7.31708e-08
7.57801e-08
7.84948e-08
8.13158e-08
8.42436e-08
8.72791e-08
9.04226e-08
9.36746e-08
9.70352e-08
1.00505e-07
1.04082e-07
1.07768e-07
1.11562e-07
1.15461e-07
1.19465e-07
1.23571e-07
1.27778e-07
1.32082e-07
1.3648e-07
1.40967e-07
1.45538e-07
1.50188e-07
1.5491e-07
1.59696e-07
1.64538e-07
1.69425e-07
1.74347e-07
1.79289e-07
1.84239e-07
1.89179e-07
1.94092e-07
1.98957e-07
2.03751e-07
2.0845e-07
2.13026e-07
2.17446e-07
2.21677e-07
2.25681e-07
2.29415e-07
2.32834e-07
2.35888e-07
2.38521e-07
2.40674e-07
2.42282e-07
2.43276e-07
2.43582e-07
2.4312e-07
2.41808e-07
2.39558e-07
2.3628e-07
2.3188e-07
2.26263e-07
2.19334e-07
2.10997e-07
2.01158e-07
1.89724e-07
1.76606e-07
1.61718e-07
1.44976e-07
1.26302e-07
1.05621e-07
8.28679e-08
5.79921e-08
3.09588e-08
1.75526e-09
-2.96139e-08
-6.31417e-08
-9.87284e-08
-1.35758e-07
-1.73989e-07
-2.22145e-07
-2.91943e-07
-2.74332e-07
4.9828e-08
4.85302e-08
4.73168e-08
4.65035e-08
4.5955e-08
4.56257e-08
4.5505e-08
4.55787e-08
4.58311e-08
4.6248e-08
4.68172e-08
4.75281e-08
4.83718e-08
4.93409e-08
5.04293e-08
5.16318e-08
5.29447e-08
5.43645e-08
5.58891e-08
5.75165e-08
5.92453e-08
6.10748e-08
6.30044e-08
6.50337e-08
6.71627e-08
6.93917e-08
7.17207e-08
7.41503e-08
7.66808e-08
7.93126e-08
8.20462e-08
8.48819e-08
8.782e-08
9.08606e-08
9.4004e-08
9.72498e-08
1.00598e-07
1.04047e-07
1.07598e-07
1.11248e-07
1.14996e-07
1.1884e-07
1.22778e-07
1.26808e-07
1.30925e-07
1.35125e-07
1.39405e-07
1.43758e-07
1.48179e-07
1.5266e-07
1.57194e-07
1.61771e-07
1.6638e-07
1.7101e-07
1.75649e-07
1.8028e-07
1.84888e-07
1.89454e-07
1.93957e-07
1.98374e-07
2.02681e-07
2.06848e-07
2.10844e-07
2.14635e-07
2.18183e-07
2.21445e-07
2.24376e-07
2.26925e-07
2.29038e-07
2.30655e-07
2.31712e-07
2.32141e-07
2.31868e-07
2.30814e-07
2.28898e-07
2.26034e-07
2.22132e-07
2.171e-07
2.10846e-07
2.03275e-07
1.94294e-07
1.83811e-07
1.71737e-07
1.57987e-07
1.4248e-07
1.2514e-07
1.05901e-07
8.47009e-08
6.14928e-08
3.62434e-08
8.93839e-09
-2.04141e-08
-5.17865e-08
-8.51476e-08
-1.20364e-07
-1.5674e-07
-1.93927e-07
-2.4104e-07
-3.11242e-07
-2.87624e-07
5.17233e-08
5.04868e-08
4.93258e-08
4.85376e-08
4.79954e-08
4.76583e-08
4.75182e-08
4.75636e-08
4.77811e-08
4.81581e-08
4.8684e-08
4.93491e-08
5.01452e-08
5.10654e-08
5.21037e-08
5.32553e-08
5.45161e-08
5.5883e-08
5.73533e-08
5.8925e-08
6.05967e-08
6.23671e-08
6.42355e-08
6.62013e-08
6.82641e-08
7.04239e-08
7.26807e-08
7.50344e-08
7.74851e-08
8.00331e-08
8.26784e-08
8.5421e-08
8.82609e-08
9.1198e-08
9.4232e-08
9.73624e-08
1.00589e-07
1.0391e-07
1.07324e-07
1.10831e-07
1.14428e-07
1.18114e-07
1.21884e-07
1.25737e-07
1.29668e-07
1.33673e-07
1.37747e-07
1.41885e-07
1.46079e-07
1.50323e-07
1.54607e-07
1.58923e-07
1.6326e-07
1.67605e-07
1.71945e-07
1.76264e-07
1.80547e-07
1.84775e-07
1.88925e-07
1.92977e-07
1.96902e-07
2.00674e-07
2.0426e-07
2.07627e-07
2.10736e-07
2.13544e-07
2.16008e-07
2.18075e-07
2.19693e-07
2.20802e-07
2.21339e-07
2.21236e-07
2.20421e-07
2.18816e-07
2.1634e-07
2.12909e-07
2.08435e-07
2.02828e-07
1.95997e-07
1.87851e-07
1.78298e-07
1.67249e-07
1.5462e-07
1.40329e-07
1.24302e-07
1.0647e-07
8.67747e-08
6.51683e-08
4.16163e-08
1.61008e-08
-1.13764e-08
-4.07891e-08
-7.20908e-08
-1.05231e-07
-1.40049e-07
-1.75782e-07
-2.11982e-07
-2.58233e-07
-3.29457e-07
-3.00548e-07
5.34927e-08
5.23107e-08
5.11972e-08
5.04336e-08
4.99002e-08
4.95594e-08
4.9405e-08
4.94277e-08
4.96155e-08
4.99579e-08
5.0445e-08
5.10684e-08
5.18203e-08
5.26944e-08
5.36851e-08
5.47875e-08
5.59977e-08
5.73126e-08
5.87294e-08
6.02459e-08
6.18605e-08
6.35719e-08
6.53789e-08
6.72808e-08
6.92771e-08
7.13672e-08
7.35511e-08
7.58283e-08
7.81987e-08
8.06623e-08
8.32186e-08
8.58677e-08
8.8609e-08
9.14421e-08
9.43665e-08
9.73814e-08
1.00486e-07
1.03678e-07
1.06958e-07
1.10322e-07
1.13769e-07
1.17296e-07
1.209e-07
1.24577e-07
1.28324e-07
1.32136e-07
1.36008e-07
1.39932e-07
1.43903e-07
1.47913e-07
1.51953e-07
1.56012e-07
1.60081e-07
1.64147e-07
1.68195e-07
1.72211e-07
1.76177e-07
1.80075e-07
1.83883e-07
1.87579e-07
1.91136e-07
1.94526e-07
1.97717e-07
2.00675e-07
2.03363e-07
2.05737e-07
2.07754e-07
2.09364e-07
2.10512e-07
2.11141e-07
2.11188e-07
2.10586e-07
2.09264e-07
2.07146e-07
2.04152e-07
2.002e-07
1.95204e-07
1.89076e-07
1.81726e-07
1.73066e-07
1.63008e-07
1.51466e-07
1.38358e-07
1.23608e-07
1.07146e-07
8.89122e-08
6.88549e-08
4.69361e-08
2.31325e-08
-2.56183e-09
-3.01317e-08
-5.95369e-08
-9.0716e-08
-1.23605e-07
-1.58027e-07
-1.93163e-07
-2.28498e-07
-2.7414e-07
-3.46885e-07
-3.13683e-07
5.51467e-08
5.40136e-08
5.29433e-08
5.22035e-08
5.16802e-08
5.13384e-08
5.11736e-08
5.11776e-08
5.13403e-08
5.16521e-08
5.21044e-08
5.26895e-08
5.34004e-08
5.42311e-08
5.51762e-08
5.62312e-08
5.73924e-08
5.86563e-08
6.00204e-08
6.14823e-08
6.30402e-08
6.46926e-08
6.64383e-08
6.82763e-08
7.02057e-08
7.22261e-08
7.43367e-08
7.65371e-08
7.8827e-08
8.12057e-08
8.3673e-08
8.62282e-08
8.88708e-08
9.15999e-08
9.44148e-08
9.73143e-08
1.00297e-07
1.03362e-07
1.06506e-07
1.09729e-07
1.13026e-07
1.16397e-07
1.19836e-07
1.2334e-07
1.26905e-07
1.30526e-07
1.34198e-07
1.37913e-07
1.41664e-07
1.45444e-07
1.49244e-07
1.53053e-07
1.5686e-07
1.60652e-07
1.64416e-07
1.68136e-07
1.71794e-07
1.75372e-07
1.78849e-07
1.822e-07
1.85401e-07
1.88423e-07
1.91234e-07
1.938e-07
1.96084e-07
1.98045e-07
1.99636e-07
2.00811e-07
2.01514e-07
2.0169e-07
2.01277e-07
2.00209e-07
1.98415e-07
1.95821e-07
1.9235e-07
1.8792e-07
1.82449e-07
1.75848e-07
1.68034e-07
1.58917e-07
1.48415e-07
1.36444e-07
1.22926e-07
1.0779e-07
9.09701e-08
7.24122e-08
5.20722e-08
2.992e-08
5.94089e-09
-1.98612e-08
-4.74607e-08
-7.68066e-08
-1.07827e-07
-1.40448e-07
-1.74484e-07
-2.09072e-07
-2.43642e-07
-2.88817e-07
-3.63199e-07
-3.2624e-07
5.66937e-08
5.56051e-08
5.45745e-08
5.38573e-08
5.33447e-08
5.30039e-08
5.28312e-08
5.28199e-08
5.29609e-08
5.32456e-08
5.36664e-08
5.42163e-08
5.48888e-08
5.56784e-08
5.65801e-08
5.75894e-08
5.87028e-08
5.9917e-08
6.12292e-08
6.26372e-08
6.41389e-08
6.57328e-08
6.74174e-08
6.91915e-08
7.10543e-08
7.30047e-08
7.50421e-08
7.71658e-08
7.9375e-08
8.1669e-08
8.40472e-08
8.65087e-08
8.90527e-08
9.16781e-08
9.43839e-08
9.71685e-08
1.0003e-07
1.02968e-07
1.05979e-07
1.09061e-07
1.12211e-07
1.15426e-07
1.18702e-07
1.22036e-07
1.25422e-07
1.28855e-07
1.32329e-07
1.35838e-07
1.39375e-07
1.4293e-07
1.46494e-07
1.50058e-07
1.5361e-07
1.57136e-07
1.60623e-07
1.64055e-07
1.67415e-07
1.70683e-07
1.73838e-07
1.76858e-07
1.79715e-07
1.82383e-07
1.8483e-07
1.87021e-07
1.88919e-07
1.90485e-07
1.91673e-07
1.92435e-07
1.92719e-07
1.92468e-07
1.91623e-07
1.90119e-07
1.87886e-07
1.84853e-07
1.80943e-07
1.76077e-07
1.70173e-07
1.63148e-07
1.54917e-07
1.45398e-07
1.34507e-07
1.22166e-07
1.083e-07
9.28406e-08
7.57289e-08
5.69144e-08
3.63592e-08
1.40396e-08
-1.00519e-08
-3.59039e-08
-6.3483e-08
-9.27298e-08
-1.23564e-07
-1.55908e-07
-1.89569e-07
-2.2365e-07
-2.57528e-07
-3.02307e-07
-3.78246e-07
-3.37892e-07
5.81411e-08
5.70932e-08
5.60991e-08
5.54035e-08
5.49018e-08
5.45632e-08
5.43849e-08
5.43606e-08
5.44826e-08
5.47431e-08
5.51351e-08
5.56524e-08
5.62889e-08
5.70396e-08
5.78997e-08
5.88651e-08
5.99322e-08
6.10977e-08
6.23591e-08
6.37139e-08
6.51601e-08
6.66959e-08
6.83198e-08
7.00305e-08
7.18268e-08
7.37076e-08
7.5672e-08
7.7719e-08
7.98478e-08
8.20574e-08
8.43468e-08
8.6715e-08
8.91609e-08
9.16832e-08
9.42805e-08
9.69511e-08
9.96932e-08
1.02505e-07
1.05383e-07
1.08326e-07
1.1133e-07
1.14392e-07
1.17508e-07
1.20673e-07
1.23883e-07
1.27132e-07
1.30413e-07
1.33721e-07
1.37046e-07
1.40382e-07
1.43717e-07
1.47042e-07
1.50344e-07
1.53612e-07
1.5683e-07
1.59983e-07
1.63054e-07
1.66022e-07
1.68868e-07
1.71567e-07
1.74095e-07
1.76423e-07
1.7852e-07
1.80353e-07
1.81884e-07
1.83074e-07
1.83879e-07
1.84251e-07
1.84139e-07
1.83489e-07
1.8224e-07
1.80329e-07
1.7769e-07
1.74251e-07
1.69938e-07
1.64674e-07
1.58379e-07
1.50972e-07
1.42372e-07
1.32497e-07
1.21268e-07
1.08609e-07
9.44492e-08
7.8724e-08
6.13776e-08
4.23643e-08
2.16511e-08
-7.80588e-10
-2.49325e-08
-5.07875e-08
-7.8306e-08
-1.07423e-07
-1.38052e-07
-1.70112e-07
-2.03408e-07
-2.3701e-07
-2.70253e-07
-3.14666e-07
-3.92012e-07
-3.48575e-07
5.94952e-08
5.84848e-08
5.75247e-08
5.68496e-08
5.63588e-08
5.60233e-08
5.58406e-08
5.58054e-08
5.59105e-08
5.61491e-08
5.65147e-08
5.70016e-08
5.76043e-08
5.83181e-08
5.91384e-08
6.00613e-08
6.10834e-08
6.22016e-08
6.34131e-08
6.47157e-08
6.61071e-08
6.75855e-08
6.91493e-08
7.0797e-08
7.25273e-08
7.43389e-08
7.62307e-08
7.82016e-08
8.02504e-08
8.2376e-08
8.45772e-08
8.68528e-08
8.92013e-08
9.16214e-08
9.41112e-08
9.66689e-08
9.92925e-08
1.0198e-07
1.04728e-07
1.07533e-07
1.10394e-07
1.13305e-07
1.16263e-07
1.19263e-07
1.223e-07
1.25368e-07
1.28461e-07
1.31571e-07
1.3469e-07
1.37811e-07
1.40923e-07
1.44015e-07
1.47076e-07
1.50092e-07
1.5305e-07
1.55933e-07
1.58724e-07
1.61404e-07
1.63951e-07
1.66343e-07
1.68554e-07
1.70556e-07
1.72319e-07
1.7381e-07
1.74992e-07
1.75826e-07
1.76268e-07
1.76272e-07
1.75789e-07
1.74763e-07
1.73137e-07
1.70849e-07
1.67833e-07
1.64021e-07
1.59339e-07
1.53713e-07
1.47065e-07
1.39316e-07
1.30388e-07
1.20201e-07
1.0868e-07
9.57502e-08
8.13451e-08
6.5403e-08
4.78716e-08
2.87089e-08
7.88604e-09
-1.46114e-08
-3.87809e-08
-6.46006e-08
-9.20265e-08
-1.20989e-07
-1.51398e-07
-1.8317e-07
-2.16107e-07
-2.49253e-07
-2.81899e-07
-3.25958e-07
-4.04528e-07
-3.58295e-07
6.07616e-08
5.9786e-08
5.88577e-08
5.82019e-08
5.7722e-08
5.739e-08
5.7204e-08
5.71594e-08
5.72495e-08
5.74681e-08
5.78093e-08
5.82678e-08
5.88386e-08
5.95171e-08
6.02992e-08
6.11812e-08
6.21597e-08
6.32317e-08
6.43945e-08
6.56458e-08
6.69832e-08
6.84051e-08
6.99095e-08
7.14949e-08
7.31598e-08
7.49028e-08
7.67227e-08
7.8618e-08
8.05875e-08
8.26299e-08
8.47438e-08
8.69276e-08
8.91798e-08
9.14986e-08
9.38823e-08
9.63286e-08
9.88352e-08
1.014e-07
1.04019e-07
1.0669e-07
1.09409e-07
1.12172e-07
1.14975e-07
1.17814e-07
1.20681e-07
1.23572e-07
1.2648e-07
1.29398e-07
1.32317e-07
1.35229e-07
1.38124e-07
1.4099e-07
1.43816e-07
1.4659e-07
1.49295e-07
1.51917e-07
1.54439e-07
1.5684e-07
1.59101e-07
1.61198e-07
1.63105e-07
1.64796e-07
1.66241e-07
1.67406e-07
1.68256e-07
1.68752e-07
1.68852e-07
1.6851e-07
1.67677e-07
1.66301e-07
1.64323e-07
1.61685e-07
1.58322e-07
1.54166e-07
1.49147e-07
1.43193e-07
1.36227e-07
1.28173e-07
1.18955e-07
1.08496e-07
9.67225e-08
8.35645e-08
6.89565e-08
5.28405e-08
3.51669e-08
1.58972e-08
-4.99458e-09
-2.75193e-08
-5.16709e-08
-7.74242e-08
-1.04732e-07
-1.3352e-07
-1.63698e-07
-1.95178e-07
-2.27762e-07
-2.60466e-07
-2.92545e-07
-3.3625e-07
-4.15852e-07
-3.67079e-07
6.19454e-08
6.10024e-08
6.01037e-08
5.94664e-08
5.8997e-08
5.86689e-08
5.84805e-08
5.84277e-08
5.85042e-08
5.87043e-08
5.90228e-08
5.94546e-08
5.99951e-08
6.064e-08
6.13856e-08
6.2228e-08
6.31643e-08
6.41913e-08
6.53065e-08
6.65075e-08
6.7792e-08
6.91581e-08
7.06039e-08
7.21278e-08
7.37282e-08
7.54035e-08
7.71522e-08
7.89728e-08
8.0864e-08
8.28241e-08
8.48516e-08
8.69447e-08
8.91018e-08
9.13209e-08
9.35998e-08
9.59363e-08
9.83278e-08
1.00772e-07
1.03264e-07
1.05803e-07
1.08384e-07
1.11002e-07
1.13653e-07
1.16333e-07
1.19035e-07
1.21754e-07
1.24482e-07
1.27213e-07
1.29937e-07
1.32645e-07
1.35329e-07
1.37977e-07
1.40576e-07
1.43114e-07
1.45577e-07
1.47947e-07
1.50209e-07
1.52343e-07
1.54329e-07
1.56143e-07
1.5776e-07
1.59155e-07
1.60296e-07
1.61152e-07
1.61687e-07
1.61864e-07
1.61641e-07
1.60974e-07
1.59814e-07
1.58109e-07
1.55805e-07
1.52842e-07
1.49158e-07
1.44688e-07
1.39362e-07
1.3311e-07
1.25858e-07
1.17533e-07
1.08059e-07
9.73641e-08
8.53756e-08
7.20259e-08
5.72526e-08
4.09999e-08
2.32211e-08
3.88016e-09
-1.70461e-08
-3.95659e-08
-6.36707e-08
-8.93325e-08
-1.16501e-07
-1.45101e-07
-1.75037e-07
-2.06223e-07
-2.38457e-07
-2.70733e-07
-3.02269e-07
-3.45612e-07
-4.26056e-07
-3.74978e-07
6.30513e-08
6.21388e-08
6.12681e-08
6.06483e-08
6.01891e-08
5.98651e-08
5.96749e-08
5.96147e-08
5.96788e-08
5.98619e-08
6.0159e-08
6.05656e-08
6.10774e-08
6.16903e-08
6.24006e-08
6.3205e-08
6.41002e-08
6.50835e-08
6.61522e-08
6.7304e-08
6.85366e-08
6.9848e-08
7.12363e-08
7.26996e-08
7.42364e-08
7.58448e-08
7.75234e-08
7.92704e-08
8.10842e-08
8.29632e-08
8.49056e-08
8.69095e-08
8.89729e-08
9.10937e-08
9.32697e-08
9.54982e-08
9.77767e-08
1.00102e-07
1.02471e-07
1.0488e-07
1.07325e-07
1.09801e-07
1.12305e-07
1.1483e-07
1.17371e-07
1.19922e-07
1.22475e-07
1.25023e-07
1.27558e-07
1.3007e-07
1.32549e-07
1.34985e-07
1.37365e-07
1.39677e-07
1.41905e-07
1.44033e-07
1.46046e-07
1.47924e-07
1.49646e-07
1.51189e-07
1.5253e-07
1.53641e-07
1.54494e-07
1.55057e-07
1.55295e-07
1.5517e-07
1.54643e-07
1.5367e-07
1.52204e-07
1.50193e-07
1.47586e-07
1.44323e-07
1.40344e-07
1.35585e-07
1.2998e-07
1.23459e-07
1.15952e-07
1.07386e-07
9.76884e-08
8.67886e-08
7.46172e-08
6.11086e-08
4.62025e-08
2.98455e-08
1.19931e-08
-7.38859e-09
-2.83206e-08
-5.08091e-08
-7.48433e-08
-1.00393e-07
-1.27407e-07
-1.55807e-07
-1.85496e-07
-2.16386e-07
-2.48274e-07
-2.80131e-07
-3.11145e-07
-3.5412e-07
-4.35223e-07
-3.82053e-07
6.40835e-08
6.31998e-08
6.23555e-08
6.17524e-08
6.13031e-08
6.09832e-08
6.07916e-08
6.07248e-08
6.07775e-08
6.09447e-08
6.12218e-08
6.16046e-08
6.2089e-08
6.26712e-08
6.33477e-08
6.41152e-08
6.49707e-08
6.59115e-08
6.6935e-08
6.80387e-08
6.92205e-08
7.04783e-08
7.18101e-08
7.3214e-08
7.46882e-08
7.62309e-08
7.78404e-08
7.9515e-08
8.12528e-08
8.3052e-08
8.49107e-08
8.68268e-08
8.87982e-08
9.08226e-08
9.28975e-08
9.50202e-08
9.71879e-08
9.93973e-08
1.01645e-07
1.03927e-07
1.0624e-07
1.08578e-07
1.10937e-07
1.13312e-07
1.15696e-07
1.18083e-07
1.20467e-07
1.22838e-07
1.25189e-07
1.27511e-07
1.29793e-07
1.32024e-07
1.34193e-07
1.36286e-07
1.38288e-07
1.40185e-07
1.41959e-07
1.43591e-07
1.4506e-07
1.46346e-07
1.47423e-07
1.48266e-07
1.48845e-07
1.49129e-07
1.49086e-07
1.48678e-07
1.47865e-07
1.46605e-07
1.44853e-07
1.42558e-07
1.39669e-07
1.36129e-07
1.31879e-07
1.26857e-07
1.20998e-07
1.14235e-07
1.06499e-07
9.77197e-08
8.78268e-08
7.6751e-08
6.44255e-08
5.07867e-08
3.57763e-08
1.93428e-08
1.44367e-09
-1.79532e-08
-3.8867e-08
-6.13024e-08
-8.5247e-08
-1.10669e-07
-1.37516e-07
-1.65707e-07
-1.95144e-07
-2.25739e-07
-2.57284e-07
-2.88733e-07
-3.19246e-07
-3.61849e-07
-4.43442e-07
-3.88373e-07
6.50462e-08
6.41897e-08
6.33704e-08
6.27831e-08
6.23434e-08
6.20276e-08
6.1835e-08
6.17621e-08
6.18042e-08
6.19565e-08
6.22147e-08
6.25749e-08
6.30332e-08
6.35859e-08
6.42299e-08
6.49619e-08
6.5779e-08
6.66785e-08
6.76579e-08
6.87148e-08
6.9847e-08
7.10523e-08
7.23288e-08
7.36744e-08
7.50873e-08
7.65655e-08
7.81074e-08
7.97108e-08
8.1374e-08
8.30949e-08
8.48715e-08
8.67015e-08
8.85828e-08
9.05127e-08
9.24887e-08
9.4508e-08
9.65673e-08
9.86635e-08
1.00793e-07
1.02951e-07
1.05135e-07
1.07338e-07
1.09557e-07
1.11786e-07
1.14018e-07
1.16246e-07
1.18465e-07
1.20665e-07
1.22839e-07
1.24977e-07
1.27069e-07
1.29103e-07
1.31068e-07
1.32951e-07
1.34737e-07
1.36411e-07
1.37956e-07
1.39353e-07
1.40582e-07
1.41622e-07
1.42448e-07
1.43035e-07
1.43355e-07
1.43377e-07
1.43068e-07
1.42393e-07
1.41312e-07
1.39784e-07
1.37765e-07
1.35206e-07
1.32056e-07
1.2826e-07
1.23762e-07
1.185e-07
1.12411e-07
1.0543e-07
9.74898e-08
8.85222e-08
7.8459e-08
6.72329e-08
5.47786e-08
4.10346e-08
2.59445e-08
9.4584e-09
-8.46468e-09
-2.78553e-08
-4.87313e-08
-7.1096e-08
-9.49359e-08
-1.20218e-07
-1.46889e-07
-1.74866e-07
-2.04049e-07
-2.3435e-07
-2.65558e-07
-2.9661e-07
-3.26642e-07
-3.68872e-07
-4.50802e-07
-3.94008e-07
6.5943e-08
6.51123e-08
6.43168e-08
6.37446e-08
6.3314e-08
6.30024e-08
6.28089e-08
6.27305e-08
6.27627e-08
6.2901e-08
6.31413e-08
6.348e-08
6.39133e-08
6.44378e-08
6.50504e-08
6.57481e-08
6.6528e-08
6.73875e-08
6.83241e-08
6.93355e-08
7.04193e-08
7.15734e-08
7.27958e-08
7.40844e-08
7.54373e-08
7.68525e-08
7.8328e-08
7.98619e-08
8.1452e-08
8.30963e-08
8.47925e-08
8.65384e-08
8.83315e-08
9.01692e-08
9.20486e-08
9.39668e-08
9.59205e-08
9.79063e-08
9.99203e-08
1.01959e-07
1.04016e-07
1.06089e-07
1.08172e-07
1.10258e-07
1.12343e-07
1.14418e-07
1.16478e-07
1.18513e-07
1.20515e-07
1.22476e-07
1.24384e-07
1.26229e-07
1.27999e-07
1.2968e-07
1.31259e-07
1.32719e-07
1.34045e-07
1.35218e-07
1.36218e-07
1.37024e-07
1.37612e-07
1.37958e-07
1.38032e-07
1.37806e-07
1.37247e-07
1.36321e-07
1.34989e-07
1.3321e-07
1.30942e-07
1.28138e-07
1.24746e-07
1.20716e-07
1.15989e-07
1.10508e-07
1.04212e-07
9.70349e-08
8.89133e-08
7.97802e-08
6.95695e-08
5.82154e-08
4.56548e-08
3.18275e-08
1.66788e-08
1.60345e-10
-1.77676e-08
-3.71342e-08
-5.79565e-08
-8.02366e-08
-1.0396e-07
-1.29094e-07
-1.55582e-07
-1.83341e-07
-2.12272e-07
-2.42283e-07
-2.73161e-07
-3.03827e-07
-3.33401e-07
-3.75261e-07
-4.57391e-07
-3.99026e-07
6.67775e-08
6.59714e-08
6.51984e-08
6.46406e-08
6.42189e-08
6.39112e-08
6.37171e-08
6.36337e-08
6.36565e-08
6.37815e-08
6.40049e-08
6.4323e-08
6.47324e-08
6.52299e-08
6.58124e-08
6.6477e-08
6.7221e-08
6.80418e-08
6.89368e-08
6.99038e-08
7.09406e-08
7.20448e-08
7.32145e-08
7.44476e-08
7.57419e-08
7.70955e-08
7.85063e-08
7.99721e-08
8.14909e-08
8.30604e-08
8.46782e-08
8.6342e-08
8.80491e-08
8.97967e-08
9.1582e-08
9.34019e-08
9.52528e-08
9.71312e-08
9.90333e-08
1.00955e-07
1.02891e-07
1.04837e-07
1.06787e-07
1.08737e-07
1.10678e-07
1.12606e-07
1.14511e-07
1.16387e-07
1.18225e-07
1.20015e-07
1.21746e-07
1.23409e-07
1.24992e-07
1.2648e-07
1.2786e-07
1.29117e-07
1.30234e-07
1.31194e-07
1.31976e-07
1.3256e-07
1.32922e-07
1.33038e-07
1.32881e-07
1.32421e-07
1.31627e-07
1.30465e-07
1.28898e-07
1.26886e-07
1.24387e-07
1.21354e-07
1.1774e-07
1.13493e-07
1.08559e-07
1.02879e-07
9.63935e-08
8.90414e-08
8.07586e-08
7.14804e-08
6.11423e-08
4.96804e-08
3.70328e-08
2.31411e-08
7.95192e-09
-8.58182e-09
-2.64987e-08
-4.5827e-08
-6.65828e-08
-8.87676e-08
-1.12366e-07
-1.37345e-07
-1.63647e-07
-1.91189e-07
-2.19869e-07
-2.49595e-07
-2.80151e-07
-3.10446e-07
-3.39584e-07
-3.81083e-07
-4.6329e-07
-4.03494e-07
6.75532e-08
6.67703e-08
6.60189e-08
6.54749e-08
6.50616e-08
6.47578e-08
6.45632e-08
6.4475e-08
6.44891e-08
6.46015e-08
6.48088e-08
6.51073e-08
6.54939e-08
6.59654e-08
6.65189e-08
6.71516e-08
6.78609e-08
6.86441e-08
6.94989e-08
7.0423e-08
7.1414e-08
7.24698e-08
7.35882e-08
7.47672e-08
7.60045e-08
7.72981e-08
7.86457e-08
8.00454e-08
8.14947e-08
8.29913e-08
8.45328e-08
8.61166e-08
8.774e-08
8.94001e-08
9.10939e-08
9.28182e-08
9.45693e-08
9.63436e-08
9.8137e-08
9.99452e-08
1.01763e-07
1.03587e-07
1.0541e-07
1.07226e-07
1.0903e-07
1.10815e-07
1.12572e-07
1.14295e-07