/*--------------------------------*- C++ -*----------------------------------*\
  =========                 |
  \\      /  F ield         | OpenFOAM: The Open Source CFD Toolbox
   \\    /   O peration     | Website:  https://openfoam.org
    \\  /    A nd           | Version:  11
     \\/     M anipulation  |
\*---------------------------------------------------------------------------*/
FoamFile
{
    format      ascii;
    class       surfaceScalarField;
    location    "246";
    object      phi;
}
// * * * * * * * * * * * * * * * * * * * * * * * * * * * * * * * * * * * * * //

dimensions      [0 3 -1 0 0 0 0];

internalField   nonuniform List<scalar> 
19800
(
1.99962e-05
-3.9198e-08
1.999e-05
-1.16227e-07
1.99821e-05
-1.93361e-07
1.99725e-05
-2.7172e-07
1.99613e-05
-3.52073e-07
1.99485e-05
-4.34931e-07
1.99338e-05
-5.20686e-07
1.99173e-05
-6.09661e-07
1.98989e-05
-7.02126e-07
1.98784e-05
-7.98323e-07
1.98557e-05
-8.98469e-07
1.98307e-05
-1.00276e-06
1.98033e-05
-1.11139e-06
1.97733e-05
-1.22451e-06
1.97407e-05
-1.3423e-06
1.97052e-05
-1.46488e-06
1.96667e-05
-1.5924e-06
1.9625e-05
-1.72496e-06
1.958e-05
-1.86266e-06
1.95316e-05
-2.00558e-06
1.94795e-05
-2.15377e-06
1.94236e-05
-2.30727e-06
1.93636e-05
-2.46609e-06
1.92996e-05
-2.63019e-06
1.92311e-05
-2.79951e-06
1.91582e-05
-2.97395e-06
1.90805e-05
-3.15336e-06
1.8998e-05
-3.33755e-06
1.89105e-05
-3.52625e-06
1.88178e-05
-3.71916e-06
1.87198e-05
-3.91587e-06
1.86164e-05
-4.11594e-06
1.85075e-05
-4.31882e-06
1.83929e-05
-4.52388e-06
1.82727e-05
-4.7304e-06
1.81468e-05
-4.93758e-06
1.80153e-05
-5.14451e-06
1.78782e-05
-5.35021e-06
1.77356e-05
-5.5536e-06
1.75878e-05
-5.75356e-06
1.74349e-05
-5.94889e-06
1.72773e-05
-6.13836e-06
1.71152e-05
-6.32075e-06
1.69491e-05
-6.49485e-06
1.67795e-05
-6.6595e-06
1.66068e-05
-6.81363e-06
1.64315e-05
-6.95628e-06
1.62543e-05
-7.08664e-06
1.60757e-05
-7.20406e-06
1.58965e-05
-7.30811e-06
1.57175e-05
-7.39857e-06
1.5539e-05
-7.47525e-06
1.53599e-05
-7.53785e-06
1.51795e-05
-7.58623e-06
1.49983e-05
-7.62075e-06
1.48168e-05
-7.64232e-06
1.46367e-05
-7.65208e-06
1.446e-05
-7.65094e-06
1.42875e-05
-7.63909e-06
1.4119e-05
-7.61676e-06
1.3955e-05
-7.58451e-06
1.37951e-05
-7.54279e-06
1.36381e-05
-7.49236e-06
1.34837e-05
-7.43438e-06
1.3332e-05
-7.36955e-06
1.31832e-05
-7.29834e-06
1.30375e-05
-7.22123e-06
1.2895e-05
-7.13872e-06
1.27555e-05
-7.05127e-06
1.26193e-05
-6.95932e-06
1.24862e-05
-6.86329e-06
1.23563e-05
-6.76359e-06
1.22297e-05
-6.66058e-06
1.21063e-05
-6.55462e-06
1.19861e-05
-6.44606e-06
1.18692e-05
-6.33523e-06
1.17556e-05
-6.22246e-06
1.16453e-05
-6.10806e-06
1.15384e-05
-5.99235e-06
1.14348e-05
-5.87566e-06
1.13347e-05
-5.75831e-06
1.1238e-05
-5.64064e-06
1.11449e-05
-5.52299e-06
1.10553e-05
-5.40573e-06
1.09694e-05
-5.28923e-06
1.08873e-05
-5.1739e-06
1.08089e-05
-5.06015e-06
1.07345e-05
-4.94846e-06
1.06641e-05
-4.83932e-06
1.05979e-05
-4.73326e-06
1.05359e-05
-4.63088e-06
1.04784e-05
-4.53282e-06
1.04256e-05
-4.43981e-06
1.03775e-05
-4.35267e-06
1.03346e-05
-4.27235e-06
1.02971e-05
-4.19994e-06
1.02654e-05
-4.13674e-06
1.02399e-05
-4.08437e-06
1.02217e-05
-4.04533e-06
-4.02435e-06
1.99972e-05
-3.63838e-08
1.99913e-05
-1.10346e-07
1.99834e-05
-1.85497e-07
1.99739e-05
-2.62148e-07
1.99626e-05
-3.40837e-07
1.99497e-05
-4.22002e-07
1.9935e-05
-5.05998e-07
1.99185e-05
-5.93127e-07
1.99e-05
-6.83648e-07
1.98795e-05
-7.77792e-07
1.98568e-05
-8.75769e-07
1.98318e-05
-9.77771e-07
1.98044e-05
-1.08397e-06
1.97744e-05
-1.19454e-06
1.97417e-05
-1.30963e-06
1.97062e-05
-1.42937e-06
1.96677e-05
-1.55389e-06
1.96261e-05
-1.6833e-06
1.95811e-05
-1.81769e-06
1.95327e-05
-1.95714e-06
1.94806e-05
-2.10169e-06
1.94247e-05
-2.25138e-06
1.93648e-05
-2.4062e-06
1.93008e-05
-2.56614e-06
1.92324e-05
-2.73112e-06
1.91595e-05
-2.90105e-06
1.90819e-05
-3.07578e-06
1.89994e-05
-3.25512e-06
1.8912e-05
-3.43881e-06
1.88194e-05
-3.62655e-06
1.87215e-05
-3.81797e-06
1.86182e-05
-4.01263e-06
1.85094e-05
-4.20998e-06
1.83949e-05
-4.40945e-06
1.82748e-05
-4.61033e-06
1.81491e-05
-4.81185e-06
1.80178e-05
-5.01316e-06
1.78809e-05
-5.2133e-06
1.77385e-05
-5.41126e-06
1.75909e-05
-5.60595e-06
1.74383e-05
-5.79624e-06
1.72809e-05
-5.98096e-06
1.71191e-05
-6.15894e-06
1.69532e-05
-6.32902e-06
1.67838e-05
-6.49009e-06
1.66113e-05
-6.64112e-06
1.64362e-05
-6.7812e-06
1.62591e-05
-6.90951e-06
1.60805e-05
-7.02544e-06
1.59009e-05
-7.12848e-06
1.57206e-05
-7.2183e-06
1.55398e-05
-7.29451e-06
1.53588e-05
-7.35683e-06
1.51782e-05
-7.40558e-06
1.49988e-05
-7.4414e-06
1.48213e-05
-7.46477e-06
1.46458e-05
-7.47656e-06
1.44724e-05
-7.47754e-06
1.43012e-05
-7.46796e-06
1.41327e-05
-7.44823e-06
1.39672e-05
-7.41903e-06
1.38053e-05
-7.38083e-06
1.36468e-05
-7.33393e-06
1.34917e-05
-7.27921e-06
1.33396e-05
-7.21748e-06
1.31906e-05
-7.14936e-06
1.30447e-05
-7.07537e-06
1.2902e-05
-6.99599e-06
1.27625e-05
-6.9117e-06
1.26261e-05
-6.82294e-06
1.24929e-05
-6.73011e-06
1.23629e-05
-6.63361e-06
1.22361e-05
-6.53382e-06
1.21126e-05
-6.4311e-06
1.19923e-05
-6.32579e-06
1.18753e-05
-6.21823e-06
1.17616e-05
-6.10874e-06
1.16512e-05
-5.99765e-06
1.15442e-05
-5.88529e-06
1.14405e-05
-5.77199e-06
1.13402e-05
-5.65806e-06
1.12434e-05
-5.54386e-06
1.11502e-05
-5.42973e-06
1.10605e-05
-5.31605e-06
1.09745e-05
-5.2032e-06
1.08922e-05
-5.09159e-06
1.08137e-05
-4.98166e-06
1.07391e-05
-4.87387e-06
1.06685e-05
-4.76873e-06
1.0602e-05
-4.66679e-06
1.05398e-05
-4.56866e-06
1.0482e-05
-4.47499e-06
1.04287e-05
-4.38655e-06
1.03802e-05
-4.30416e-06
1.03367e-05
-4.22879e-06
1.02983e-05
-4.16157e-06
1.02653e-05
-4.10381e-06
1.02381e-05
-4.05709e-06
1.02163e-05
-4.02357e-06
-4.00663e-06
1.99979e-05
-3.42678e-08
1.99927e-05
-1.0512e-07
1.99851e-05
-1.77987e-07
1.99757e-05
-2.52744e-07
1.99646e-05
-3.2967e-07
1.99517e-05
-4.09091e-07
1.9937e-05
-4.91303e-07
1.99204e-05
-5.76575e-07
1.99019e-05
-6.65147e-07
1.98814e-05
-7.57239e-07
1.98586e-05
-8.53049e-07
1.98336e-05
-9.52762e-07
1.98062e-05
-1.05655e-06
1.97762e-05
-1.16457e-06
1.97436e-05
-1.27696e-06
1.97081e-05
-1.39387e-06
1.96696e-05
-1.5154e-06
1.96279e-05
-1.64167e-06
1.9583e-05
-1.77275e-06
1.95346e-05
-1.90873e-06
1.94825e-05
-2.04965e-06
1.94267e-05
-2.19553e-06
1.93669e-05
-2.34638e-06
1.93029e-05
-2.50216e-06
1.92346e-05
-2.66282e-06
1.91618e-05
-2.82825e-06
1.90843e-05
-2.99831e-06
1.9002e-05
-3.17282e-06
1.89147e-05
-3.35152e-06
1.88223e-05
-3.53413e-06
1.87246e-05
-3.72027e-06
1.86215e-05
-3.90953e-06
1.85129e-05
-4.10141e-06
1.83988e-05
-4.29531e-06
1.8279e-05
-4.49058e-06
1.81537e-05
-4.68649e-06
1.80227e-05
-4.8822e-06
1.78863e-05
-5.07683e-06
1.77444e-05
-5.26939e-06
1.75973e-05
-5.45885e-06
1.74452e-05
-5.64414e-06
1.72883e-05
-5.82413e-06
1.71271e-05
-5.99771e-06
1.69619e-05
-6.16378e-06
1.67931e-05
-6.32126e-06
1.66211e-05
-6.46917e-06
1.64465e-05
-6.60661e-06
1.62698e-05
-6.7328e-06
1.60914e-05
-6.84707e-06
1.59119e-05
-6.94893e-06
1.57316e-05
-7.03796e-06
1.55509e-05
-7.11381e-06
1.53704e-05
-7.17637e-06
1.51908e-05
-7.22593e-06
1.50124e-05
-7.26301e-06
1.48357e-05
-7.2881e-06
1.4661e-05
-7.30183e-06
1.44883e-05
-7.30483e-06
1.43178e-05
-7.29751e-06
1.41499e-05
-7.28033e-06
1.39847e-05
-7.25388e-06
1.38225e-05
-7.21862e-06
1.36635e-05
-7.17492e-06
1.35078e-05
-7.12345e-06
1.33552e-05
-7.06492e-06
1.32058e-05
-6.99997e-06
1.30596e-05
-6.92914e-06
1.29165e-05
-6.85294e-06
1.27767e-05
-6.77183e-06
1.264e-05
-6.68625e-06
1.25065e-05
-6.59663e-06
1.23762e-05
-6.50334e-06
1.22492e-05
-6.40678e-06
1.21254e-05
-6.30729e-06
1.20048e-05
-6.20523e-06
1.18875e-05
-6.10094e-06
1.17735e-05
-5.99474e-06
1.16629e-05
-5.88697e-06
1.15555e-05
-5.77795e-06
1.14516e-05
-5.66803e-06
1.1351e-05
-5.55752e-06
1.12539e-05
-5.44678e-06
1.11604e-05
-5.33617e-06
1.10704e-05
-5.22606e-06
1.0984e-05
-5.11685e-06
1.09014e-05
-5.00894e-06
1.08225e-05
-4.90279e-06
1.07475e-05
-4.79886e-06
1.06764e-05
-4.69768e-06
1.06094e-05
-4.5998e-06
1.05466e-05
-4.50583e-06
1.04881e-05
-4.41646e-06
1.0434e-05
-4.33242e-06
1.03844e-05
-4.25457e-06
1.03395e-05
-4.18387e-06
1.02993e-05
-4.12141e-06
1.0264e-05
-4.06846e-06
1.02333e-05
-4.02641e-06
1.02067e-05
-3.997e-06
-3.98253e-06
1.99983e-05
-3.25484e-08
1.99937e-05
-1.00503e-07
1.99866e-05
-1.70969e-07
1.99776e-05
-2.43669e-07
1.99666e-05
-3.18708e-07
1.99538e-05
-3.96299e-07
1.99392e-05
-4.76673e-07
1.99227e-05
-5.60053e-07
1.99042e-05
-6.46657e-07
1.98836e-05
-7.36683e-07
1.98609e-05
-8.30321e-07
1.98359e-05
-9.27743e-07
1.98084e-05
-1.02911e-06
1.97785e-05
-1.13458e-06
1.97458e-05
-1.24429e-06
1.97103e-05
-1.35837e-06
1.96718e-05
-1.47692e-06
1.96302e-05
-1.60005e-06
1.95853e-05
-1.72784e-06
1.95369e-05
-1.86036e-06
1.94849e-05
-1.99766e-06
1.94291e-05
-2.13975e-06
1.93694e-05
-2.28663e-06
1.93055e-05
-2.43828e-06
1.92373e-05
-2.59464e-06
1.91647e-05
-2.75559e-06
1.90874e-05
-2.92101e-06
1.90053e-05
-3.0907e-06
1.89182e-05
-3.26445e-06
1.8826e-05
-3.44195e-06
1.87286e-05
-3.62286e-06
1.86258e-05
-3.80677e-06
1.85176e-05
-3.9932e-06
1.84039e-05
-4.18159e-06
1.82846e-05
-4.37131e-06
1.81598e-05
-4.56165e-06
1.80294e-05
-4.75183e-06
1.78936e-05
-4.94099e-06
1.77524e-05
-5.12821e-06
1.7606e-05
-5.3125e-06
1.74547e-05
-5.49283e-06
1.72987e-05
-5.66813e-06
1.71384e-05
-5.83735e-06
1.6974e-05
-5.99942e-06
1.68061e-05
-6.15331e-06
1.6635e-05
-6.29808e-06
1.64612e-05
-6.43284e-06
1.62852e-05
-6.55683e-06
1.61076e-05
-6.66939e-06
1.59286e-05
-6.77e-06
1.57489e-05
-6.85824e-06
1.55689e-05
-6.93383e-06
1.53893e-05
-6.99671e-06
1.52104e-05
-7.0471e-06
1.50328e-05
-7.08541e-06
1.48568e-05
-7.11209e-06
1.46827e-05
-7.12766e-06
1.45105e-05
-7.13266e-06
1.43405e-05
-7.12754e-06
1.4173e-05
-7.11278e-06
1.4008e-05
-7.08892e-06
1.38458e-05
-7.05642e-06
1.36866e-05
-7.0157e-06
1.35305e-05
-6.96734e-06
1.33775e-05
-6.91197e-06
1.32277e-05
-6.85018e-06
1.30811e-05
-6.78252e-06
1.29377e-05
-6.70949e-06
1.27974e-05
-6.63156e-06
1.26603e-05
-6.54918e-06
1.25264e-05
-6.46275e-06
1.23958e-05
-6.37268e-06
1.22683e-05
-6.27933e-06
1.21441e-05
-6.18308e-06
1.20232e-05
-6.08427e-06
1.19055e-05
-5.98324e-06
1.17911e-05
-5.88034e-06
1.168e-05
-5.77588e-06
1.15722e-05
-5.67021e-06
1.14679e-05
-5.56365e-06
1.13669e-05
-5.45656e-06
1.12694e-05
-5.34927e-06
1.11754e-05
-5.24216e-06
1.10849e-05
-5.13561e-06
1.09981e-05
-5.03e-06
1.09149e-05
-4.92576e-06
1.08355e-05
-4.82335e-06
1.07598e-05
-4.72323e-06
1.06881e-05
-4.62594e-06
1.06203e-05
-4.53203e-06
1.05566e-05
-4.44211e-06
1.0497e-05
-4.35687e-06
1.04416e-05
-4.27705e-06
1.03905e-05
-4.20347e-06
1.03437e-05
-4.13706e-06
1.03012e-05
-4.07887e-06
1.02627e-05
-4.03002e-06
1.02281e-05
-3.99176e-06
1.01966e-05
-3.96548e-06
-3.95307e-06
1.99985e-05
-3.1093e-08
1.99944e-05
-9.63635e-08
1.99879e-05
-1.64436e-07
1.99792e-05
-2.3499e-07
1.99685e-05
-3.08042e-07
1.99559e-05
-3.83718e-07
1.99415e-05
-4.62185e-07
1.9925e-05
-5.43626e-07
1.99066e-05
-6.28227e-07
1.98861e-05
-7.16166e-07
1.98634e-05
-8.07616e-07
1.98384e-05
-9.0274e-07
1.9811e-05
-1.00169e-06
1.9781e-05
-1.10461e-06
1.97483e-05
-1.21164e-06
1.97128e-05
-1.32288e-06
1.96744e-05
-1.43846e-06
1.96328e-05
-1.55847e-06
1.95879e-05
-1.68298e-06
1.95396e-05
-1.81205e-06
1.94877e-05
-1.94574e-06
1.9432e-05
-2.08406e-06
1.93724e-05
-2.227e-06
1.93086e-05
-2.37454e-06
1.92406e-05
-2.5266e-06
1.91681e-05
-2.68311e-06
1.9091e-05
-2.84392e-06
1.90092e-05
-3.00884e-06
1.89224e-05
-3.17766e-06
1.88305e-05
-3.35011e-06
1.87335e-05
-3.52583e-06
1.86312e-05
-3.70444e-06
1.85234e-05
-3.88548e-06
1.84103e-05
-4.06841e-06
1.82916e-05
-4.25263e-06
1.81674e-05
-4.43748e-06
1.80378e-05
-4.62219e-06
1.79028e-05
-4.80596e-06
1.77624e-05
-4.9879e-06
1.7617e-05
-5.16708e-06
1.74667e-05
-5.34251e-06
1.73117e-05
-5.51318e-06
1.71525e-05
-5.67807e-06
1.69892e-05
-5.83616e-06
1.68224e-05
-5.98648e-06
1.66524e-05
-6.12809e-06
1.64797e-05
-6.26015e-06
1.63048e-05
-6.38191e-06
1.61281e-05
-6.49271e-06
1.59501e-05
-6.59204e-06
1.57714e-05
-6.67949e-06
1.55924e-05
-6.75483e-06
1.54136e-05
-6.81798e-06
1.52357e-05
-6.86913e-06
1.50588e-05
-6.90859e-06
1.48835e-05
-6.93674e-06
1.47099e-05
-6.95403e-06
1.45382e-05
-6.96096e-06
1.43686e-05
-6.95796e-06
1.42013e-05
-6.94553e-06
1.40365e-05
-6.92415e-06
1.38744e-05
-6.89429e-06
1.37151e-05
-6.8564e-06
1.35588e-05
-6.81102e-06
1.34055e-05
-6.75871e-06
1.32554e-05
-6.70003e-06
1.31084e-05
-6.6355e-06
1.29645e-05
-6.56562e-06
1.28238e-05
-6.49086e-06
1.26863e-05
-6.41165e-06
1.25519e-05
-6.32842e-06
1.24208e-05
-6.24155e-06
1.22929e-05
-6.15142e-06
1.21682e-05
-6.05839e-06
1.20468e-05
-5.96283e-06
1.19286e-05
-5.86506e-06
1.18137e-05
-5.76544e-06
1.17021e-05
-5.66429e-06
1.15938e-05
-5.56195e-06
1.14889e-05
-5.45876e-06
1.13875e-05
-5.35506e-06
1.12894e-05
-5.25121e-06
1.11948e-05
-5.14758e-06
1.11038e-05
-5.04455e-06
1.10163e-05
-4.94252e-06
1.09324e-05
-4.84191e-06
1.08522e-05
-4.74317e-06
1.07758e-05
-4.6468e-06
1.07032e-05
-4.5533e-06
1.06344e-05
-4.46325e-06
1.05695e-05
-4.37724e-06
1.05086e-05
-4.29595e-06
1.04516e-05
-4.2201e-06
1.03987e-05
-4.15049e-06
1.03496e-05
-4.08799e-06
1.03043e-05
-4.03357e-06
1.02625e-05
-3.98823e-06
1.02238e-05
-3.95303e-06
1.01875e-05
-3.92919e-06
-3.91869e-06
1.99987e-05
-2.98176e-08
1.9995e-05
-9.25996e-08
1.99889e-05
-1.58335e-07
1.99806e-05
-2.26716e-07
1.99703e-05
-2.97716e-07
1.99579e-05
-3.71406e-07
1.99437e-05
-4.47905e-07
1.99274e-05
-5.27355e-07
1.99091e-05
-6.09913e-07
1.98887e-05
-6.95735e-07
1.9866e-05
-7.84977e-07
1.98411e-05
-8.77788e-07
1.98137e-05
-9.74311e-07
1.97837e-05
-1.07468e-06
1.97511e-05
-1.17902e-06
1.97157e-05
-1.28744e-06
1.96773e-05
-1.40005e-06
1.96358e-05
-1.51694e-06
1.9591e-05
-1.63818e-06
1.95427e-05
-1.76383e-06
1.94909e-05
-1.89392e-06
1.94353e-05
-2.02848e-06
1.93758e-05
-2.16751e-06
1.93123e-05
-2.31096e-06
1.92444e-05
-2.45877e-06
1.91722e-05
-2.61086e-06
1.90954e-05
-2.76709e-06
1.90138e-05
-2.92729e-06
1.89274e-05
-3.09124e-06
1.88359e-05
-3.25866e-06
1.87394e-05
-3.42925e-06
1.86375e-05
-3.60262e-06
1.85304e-05
-3.77833e-06
1.84179e-05
-3.95588e-06
1.82999e-05
-4.13468e-06
1.81766e-05
-4.3141e-06
1.80478e-05
-4.49343e-06
1.79137e-05
-4.67188e-06
1.77744e-05
-4.84862e-06
1.76301e-05
-5.02275e-06
1.74809e-05
-5.19334e-06
1.73272e-05
-5.35943e-06
1.71691e-05
-5.52003e-06
1.70072e-05
-5.67418e-06
1.68416e-05
-5.82094e-06
1.66729e-05
-5.9594e-06
1.65015e-05
-6.08875e-06
1.63279e-05
-6.20824e-06
1.61524e-05
-6.31726e-06
1.59757e-05
-6.41528e-06
1.57981e-05
-6.50192e-06
1.56202e-05
-6.57695e-06
1.54425e-05
-6.64031e-06
1.52655e-05
-6.6921e-06
1.50895e-05
-6.73258e-06
1.49148e-05
-6.76207e-06
1.47418e-05
-6.78098e-06
1.45705e-05
-6.78973e-06
1.44014e-05
-6.78877e-06
1.42344e-05
-6.77856e-06
1.40698e-05
-6.75956e-06
1.39078e-05
-6.73225e-06
1.37484e-05
-6.69709e-06
1.3592e-05
-6.65457e-06
1.34385e-05
-6.60522e-06
1.3288e-05
-6.54956e-06
1.31406e-05
-6.48811e-06
1.29964e-05
-6.42134e-06
1.28552e-05
-6.34971e-06
1.27172e-05
-6.27366e-06
1.25824e-05
-6.19359e-06
1.24507e-05
-6.1099e-06
1.23223e-05
-6.02297e-06
1.21971e-05
-5.93317e-06
1.20751e-05
-5.84083e-06
1.19563e-05
-5.74632e-06
1.18409e-05
-5.64997e-06
1.17287e-05
-5.55211e-06
1.16198e-05
-5.45309e-06
1.15143e-05
-5.35325e-06
1.14122e-05
-5.25293e-06
1.13135e-05
-5.1525e-06
1.12182e-05
-5.05232e-06
1.11264e-05
-4.95277e-06
1.10382e-05
-4.85427e-06
1.09535e-05
-4.75723e-06
1.08724e-05
-4.66211e-06
1.0795e-05
-4.56939e-06
1.07213e-05
-4.47959e-06
1.06513e-05
-4.39325e-06
1.05851e-05
-4.31099e-06
1.05226e-05
-4.23345e-06
1.04638e-05
-4.16133e-06
1.04087e-05
-4.09538e-06
1.03571e-05
-4.03643e-06
1.03089e-05
-3.98535e-06
1.02637e-05
-3.94302e-06
1.0221e-05
-3.91035e-06
1.01802e-05
-3.88837e-06
-3.87935e-06
1.99988e-05
-2.86673e-08
1.99954e-05
-8.91299e-08
1.99897e-05
-1.52606e-07
1.99818e-05
-2.18825e-07
1.99718e-05
-2.87742e-07
1.99598e-05
-3.59398e-07
1.99457e-05
-4.33877e-07
1.99297e-05
-5.11289e-07
1.99115e-05
-5.91764e-07
1.98912e-05
-6.75437e-07
1.98687e-05
-7.62446e-07
1.98438e-05
-8.52927e-07
1.98165e-05
-9.47009e-07
1.97867e-05
-1.04482e-06
1.97541e-05
-1.14647e-06
1.97188e-05
-1.25207e-06
1.96804e-05
-1.36172e-06
1.9639e-05
-1.4755e-06
1.95943e-05
-1.59348e-06
1.95462e-05
-1.71572e-06
1.94945e-05
-1.84224e-06
1.94391e-05
-1.97307e-06
1.93798e-05
-2.10819e-06
1.93164e-05
-2.24759e-06
1.92488e-05
-2.39119e-06
1.91769e-05
-2.5389e-06
1.91004e-05
-2.69059e-06
1.90192e-05
-2.84611e-06
1.89332e-05
-3.00523e-06
1.88422e-05
-3.1677e-06
1.87462e-05
-3.33322e-06
1.8645e-05
-3.50141e-06
1.85385e-05
-3.67187e-06
1.84267e-05
-3.8441e-06
1.83096e-05
-4.01756e-06
1.81871e-05
-4.19164e-06
1.80594e-05
-4.36565e-06
1.79263e-05
-4.53886e-06
1.77882e-05
-4.71048e-06
1.76451e-05
-4.87964e-06
1.74972e-05
-5.04546e-06
1.73448e-05
-5.20703e-06
1.71882e-05
-5.36339e-06
1.70276e-05
-5.51363e-06
1.68635e-05
-5.65684e-06
1.66963e-05
-5.79216e-06
1.65263e-05
-5.91879e-06
1.63541e-05
-6.03601e-06
1.618e-05
-6.1432e-06
1.60047e-05
-6.23988e-06
1.58284e-05
-6.32567e-06
1.56518e-05
-6.40032e-06
1.54752e-05
-6.46377e-06
1.52992e-05
-6.51608e-06
1.51241e-05
-6.55745e-06
1.49502e-05
-6.58815e-06
1.47777e-05
-6.60854e-06
1.4607e-05
-6.61902e-06
1.44382e-05
-6.61999e-06
1.42716e-05
-6.61189e-06
1.41072e-05
-6.59519e-06
1.39453e-05
-6.57033e-06
1.3786e-05
-6.53778e-06
1.36294e-05
-6.49802e-06
1.34757e-05
-6.45153e-06
1.3325e-05
-6.39882e-06
1.31773e-05
-6.34038e-06
1.30326e-05
-6.27666e-06
1.2891e-05
-6.20812e-06
1.27525e-05
-6.13518e-06
1.26172e-05
-6.05825e-06
1.2485e-05
-5.97772e-06
1.2356e-05
-5.89397e-06
1.22302e-05
-5.80736e-06
1.21076e-05
-5.71824e-06
1.19882e-05
-5.62696e-06
1.18721e-05
-5.53386e-06
1.17593e-05
-5.43928e-06
1.16497e-05
-5.34356e-06
1.15435e-05
-5.24704e-06
1.14407e-05
-5.15008e-06
1.13412e-05
-5.05303e-06
1.12452e-05
-4.95626e-06
1.11526e-05
-4.86016e-06
1.10634e-05
-4.76513e-06
1.09778e-05
-4.6716e-06
1.08957e-05
-4.58001e-06
1.08171e-05
-4.49085e-06
1.07422e-05
-4.40462e-06
1.06708e-05
-4.32187e-06
1.0603e-05
-4.24319e-06
1.05387e-05
-4.16919e-06
1.0478e-05
-4.10055e-06
1.04206e-05
-4.03798e-06
1.03664e-05
-3.98224e-06
1.03151e-05
-3.93412e-06
1.02665e-05
-3.8944e-06
1.022e-05
-3.86386e-06
1.0175e-05
-3.84338e-06
-3.83522e-06
1.99989e-05
-2.76076e-08
1.99957e-05
-8.58916e-08
1.99903e-05
-1.47193e-07
1.99827e-05
-2.11279e-07
1.99731e-05
-2.78109e-07
1.99614e-05
-3.47704e-07
1.99477e-05
-4.20126e-07
1.99318e-05
-4.95463e-07
1.99139e-05
-5.7382e-07
1.98938e-05
-6.55314e-07
1.98714e-05
-7.40066e-07
1.98467e-05
-8.28196e-07
1.98195e-05
-9.19826e-07
1.97897e-05
-1.01507e-06
1.97573e-05
-1.11403e-06
1.9722e-05
-1.21681e-06
1.96838e-05
-1.32351e-06
1.96425e-05
-1.43419e-06
1.95979e-05
-1.54892e-06
1.955e-05
-1.66776e-06
1.94985e-05
-1.79073e-06
1.94432e-05
-1.91785e-06
1.93841e-05
-2.04911e-06
1.9321e-05
-2.18448e-06
1.92537e-05
-2.32389e-06
1.91821e-05
-2.46727e-06
1.9106e-05
-2.61447e-06
1.90252e-05
-2.76536e-06
1.89397e-05
-2.91971e-06
1.88493e-05
-3.07729e-06
1.87539e-05
-3.2378e-06
1.86534e-05
-3.40089e-06
1.85477e-05
-3.56617e-06
1.84367e-05
-3.73316e-06
1.83205e-05
-3.90136e-06
1.81991e-05
-4.07018e-06
1.80724e-05
-4.23897e-06
1.79405e-05
-4.40702e-06
1.78036e-05
-4.57359e-06
1.76619e-05
-4.73786e-06
1.75154e-05
-4.89899e-06
1.73644e-05
-5.05608e-06
1.72093e-05
-5.20826e-06
1.70503e-05
-5.35463e-06
1.68878e-05
-5.49431e-06
1.67221e-05
-5.62649e-06
1.65537e-05
-5.75039e-06
1.6383e-05
-5.86532e-06
1.62105e-05
-5.97067e-06
1.60366e-05
-6.06596e-06
1.58617e-05
-6.15082e-06
1.56864e-05
-6.22501e-06
1.55111e-05
-6.28844e-06
1.53361e-05
-6.34115e-06
1.5162e-05
-6.38327e-06
1.49889e-05
-6.41505e-06
1.48171e-05
-6.4368e-06
1.4647e-05
-6.44887e-06
1.44786e-05
-6.45166e-06
1.43123e-05
-6.44558e-06
1.41482e-05
-6.43107e-06
1.39864e-05
-6.40857e-06
1.38272e-05
-6.37853e-06
1.36706e-05
-6.34142e-06
1.35167e-05
-6.2977e-06
1.33658e-05
-6.24785e-06
1.32177e-05
-6.19233e-06
1.30727e-05
-6.1316e-06
1.29306e-05
-6.06609e-06
1.27917e-05
-5.99622e-06
1.26558e-05
-5.92239e-06
1.25231e-05
-5.84498e-06
1.23935e-05
-5.76438e-06
1.22671e-05
-5.68093e-06
1.21438e-05
-5.595e-06
1.20238e-05
-5.50693e-06
1.1907e-05
-5.41706e-06
1.17935e-05
-5.32574e-06
1.16832e-05
-5.23329e-06
1.15762e-05
-5.14007e-06
1.14726e-05
-5.04643e-06
1.13723e-05
-4.95272e-06
1.12753e-05
-4.85932e-06
1.11818e-05
-4.76662e-06
1.10917e-05
-4.675e-06
1.1005e-05
-4.5849e-06
1.09217e-05
-4.49676e-06
1.08419e-05
-4.41106e-06
1.07656e-05
-4.32828e-06
1.06927e-05
-4.24897e-06
1.06232e-05
-4.17369e-06
1.0557e-05
-4.10303e-06
1.04941e-05
-4.03764e-06
1.04343e-05
-3.97818e-06
1.03774e-05
-3.92535e-06
1.03232e-05
-3.87987e-06
1.02712e-05
-3.84245e-06
1.02211e-05
-3.81375e-06
1.01723e-05
-3.79453e-06
-3.78659e-06
1.9999e-05
-2.66161e-08
1.9996e-05
-8.28377e-08
1.99908e-05
-1.42045e-07
1.99836e-05
-2.04042e-07
1.99743e-05
-2.68795e-07
1.99629e-05
-3.3632e-07
1.99494e-05
-4.06663e-07
1.99338e-05
-4.79897e-07
1.99161e-05
-5.56109e-07
1.98962e-05
-6.35398e-07
1.9874e-05
-7.1787e-07
1.98495e-05
-8.03634e-07
1.98224e-05
-8.92797e-07
1.97928e-05
-9.85464e-07
1.97605e-05
-1.08173e-06
1.97254e-05
-1.1817e-06
1.96873e-05
-1.28544e-06
1.96462e-05
-1.39303e-06
1.96018e-05
-1.50453e-06
1.9554e-05
-1.61999e-06
1.95027e-05
-1.73943e-06
1.94477e-05
-1.86286e-06
1.93889e-05
-1.99029e-06
1.93261e-05
-2.12167e-06
1.92592e-05
-2.25694e-06
1.91879e-05
-2.39602e-06
1.91122e-05
-2.53879e-06
1.9032e-05
-2.6851e-06
1.8947e-05
-2.83474e-06
1.88572e-05
-2.98749e-06
1.87625e-05
-3.14306e-06
1.86627e-05
-3.30112e-06
1.85578e-05
-3.4613e-06
1.84478e-05
-3.62314e-06
1.83326e-05
-3.78616e-06
1.82122e-05
-3.9498e-06
1.80867e-05
-4.11345e-06
1.79561e-05
-4.27644e-06
1.78206e-05
-4.43805e-06
1.76802e-05
-4.5975e-06
1.75352e-05
-4.75399e-06
1.73858e-05
-4.90668e-06
1.72323e-05
-5.05472e-06
1.70749e-05
-5.19725e-06
1.6914e-05
-5.33344e-06
1.675e-05
-5.46249e-06
1.65833e-05
-5.58365e-06
1.64142e-05
-5.69626e-06
1.62433e-05
-5.79973e-06
1.60709e-05
-5.89357e-06
1.58975e-05
-5.97744e-06
1.57236e-05
-6.05108e-06
1.55496e-05
-6.11438e-06
1.53758e-05
-6.16735e-06
1.52026e-05
-6.21009e-06
1.50304e-05
-6.24282e-06
1.48593e-05
-6.26579e-06
1.46898e-05
-6.27934e-06
1.4522e-05
-6.28383e-06
1.43561e-05
-6.27966e-06
1.41922e-05
-6.26724e-06
1.40307e-05
-6.247e-06
1.38715e-05
-6.21937e-06
1.37149e-05
-6.1848e-06
1.35609e-05
-6.14376e-06
1.34098e-05
-6.09667e-06
1.32614e-05
-6.04401e-06
1.3116e-05
-5.98619e-06
1.29736e-05
-5.92365e-06
1.28342e-05
-5.85679e-06
1.26978e-05
-5.78601e-06
1.25645e-05
-5.71168e-06
1.24343e-05
-5.63418e-06
1.23072e-05
-5.55387e-06
1.21833e-05
-5.4711e-06
1.20626e-05
-5.38621e-06
1.19451e-05
-5.29954e-06
1.18308e-05
-5.21144e-06
1.17197e-05
-5.12223e-06
1.16119e-05
-5.03228e-06
1.15074e-05
-4.94192e-06
1.14062e-05
-4.85151e-06
1.13083e-05
-4.76143e-06
1.12138e-05
-4.67206e-06
1.11226e-05
-4.58379e-06
1.10347e-05
-4.49705e-06
1.09502e-05
-4.41227e-06
1.08691e-05
-4.32991e-06
1.07912e-05
-4.25046e-06
1.07167e-05
-4.17444e-06
1.06454e-05
-4.10238e-06
1.05773e-05
-4.03487e-06
1.05121e-05
-3.97251e-06
1.04499e-05
-3.91592e-06
1.03903e-05
-3.86575e-06
1.03331e-05
-3.82266e-06
1.02779e-05
-3.78728e-06
1.02244e-05
-3.76021e-06
1.01719e-05
-3.74207e-06
-3.73375e-06
1.99991e-05
-2.56775e-08
1.99962e-05
-7.99331e-08
1.99912e-05
-1.37121e-07
1.99843e-05
-1.97075e-07
1.99752e-05
-2.59774e-07
1.99642e-05
-3.25232e-07
1.9951e-05
-3.93489e-07
1.99357e-05
-4.64603e-07
1.99182e-05
-5.38649e-07
1.98985e-05
-6.15714e-07
1.98766e-05
-6.95889e-07
1.98522e-05
-7.79272e-07
1.98254e-05
-8.65958e-07
1.97959e-05
-9.56042e-07
1.97638e-05
-1.04962e-06
1.97289e-05
-1.14676e-06
1.9691e-05
-1.24756e-06
1.965e-05
-1.35207e-06
1.96059e-05
-1.46035e-06
1.95583e-05
-1.57245e-06
1.95073e-05
-1.68838e-06
1.94526e-05
-1.80816e-06
1.93941e-05
-1.93178e-06
1.93316e-05
-2.05921e-06
1.92651e-05
-2.19038e-06
1.91942e-05
-2.32522e-06
1.91191e-05
-2.4636e-06
1.90393e-05
-2.60538e-06
1.8955e-05
-2.75038e-06
1.88659e-05
-2.89836e-06
1.87719e-05
-3.04907e-06
1.86729e-05
-3.20218e-06
1.85689e-05
-3.35733e-06
1.84599e-05
-3.5141e-06
1.83458e-05
-3.67203e-06
1.82266e-05
-3.83058e-06
1.81023e-05
-3.98918e-06
1.7973e-05
-4.14718e-06
1.78389e-05
-4.30391e-06
1.77e-05
-4.45862e-06
1.75566e-05
-4.61055e-06
1.74088e-05
-4.75889e-06
1.72569e-05
-4.90283e-06
1.71012e-05
-5.04156e-06
1.69421e-05
-5.17428e-06
1.67798e-05
-5.30021e-06
1.66147e-05
-5.41863e-06
1.64474e-05
-5.5289e-06
1.62781e-05
-5.63044e-06
1.61073e-05
-5.72279e-06
1.59355e-05
-5.80559e-06
1.5763e-05
-5.87858e-06
1.55902e-05
-5.94164e-06
1.54176e-05
-5.99475e-06
1.52455e-05
-6.03798e-06
1.50742e-05
-6.07151e-06
1.4904e-05
-6.09558e-06
1.47351e-05
-6.11048e-06
1.45679e-05
-6.11656e-06
1.44024e-05
-6.11418e-06
1.42389e-05
-6.10374e-06
1.40775e-05
-6.08565e-06
1.39185e-05
-6.06033e-06
1.37619e-05
-6.02822e-06
1.36079e-05
-5.98974e-06
1.34566e-05
-5.94534e-06
1.3308e-05
-5.89544e-06
1.31623e-05
-5.84046e-06
1.30194e-05
-5.78082e-06
1.28795e-05
-5.71691e-06
1.27427e-05
-5.64912e-06
1.26088e-05
-5.57783e-06
1.2478e-05
-5.50339e-06
1.23503e-05
-5.42618e-06
1.22257e-05
-5.34652e-06
1.21043e-05
-5.26477e-06
1.1986e-05
-5.18127e-06
1.18709e-05
-5.09635e-06
1.1759e-05
-5.01035e-06
1.16504e-05
-4.92361e-06
1.1545e-05
-4.83649e-06
1.14428e-05
-4.74934e-06
1.13439e-05
-4.66253e-06
1.12482e-05
-4.57643e-06
1.11559e-05
-4.49143e-06
1.10668e-05
-4.40796e-06
1.0981e-05
-4.32644e-06
1.08984e-05
-4.24732e-06
1.0819e-05
-4.17107e-06
1.07428e-05
-4.0982e-06
1.06696e-05
-4.02921e-06
1.05994e-05
-3.96467e-06
1.0532e-05
-3.90514e-06
1.04673e-05
-3.8512e-06
1.0405e-05
-3.80346e-06
1.03449e-05
-3.76252e-06
1.02866e-05
-3.72898e-06
1.02297e-05
-3.70337e-06
1.01739e-05
-3.68621e-06
-3.67741e-06
1.99991e-05
-2.47812e-08
1.99963e-05
-7.71515e-08
1.99916e-05
-1.32386e-07
1.99849e-05
-1.90346e-07
1.99761e-05
-2.5102e-07
1.99653e-05
-3.14424e-07
1.99524e-05
-3.80595e-07
1.99374e-05
-4.49583e-07
1.99202e-05
-5.21453e-07
1.99008e-05
-5.9628e-07
1.9879e-05
-6.74146e-07
1.98549e-05
-7.55136e-07
1.98283e-05
-8.39337e-07
1.9799e-05
-9.26834e-07
1.97671e-05
-1.01771e-06
1.97324e-05
-1.11204e-06
1.96948e-05
-1.2099e-06
1.9654e-05
-1.31134e-06
1.96101e-05
-1.41642e-06
1.95628e-05
-1.52517e-06
1.95121e-05
-1.63763e-06
1.94577e-05
-1.75378e-06
1.93995e-05
-1.87363e-06
1.93375e-05
-1.99714e-06
1.92714e-05
-2.12426e-06
1.9201e-05
-2.2549e-06
1.91264e-05
-2.38895e-06
1.90473e-05
-2.52627e-06
1.89636e-05
-2.66668e-06
1.88752e-05
-2.80997e-06
1.8782e-05
-2.95588e-06
1.86839e-05
-3.10411e-06
1.85809e-05
-3.25432e-06
1.84729e-05
-3.40611e-06
1.83599e-05
-3.55903e-06
1.82419e-05
-3.71258e-06
1.81189e-05
-3.86621e-06
1.79911e-05
-4.01931e-06
1.78584e-05
-4.17123e-06
1.7721e-05
-4.32127e-06
1.75792e-05
-4.4687e-06
1.74331e-05
-4.61276e-06
1.72829e-05
-4.75266e-06
1.71289e-05
-4.88762e-06
1.69715e-05
-5.01688e-06
1.6811e-05
-5.13969e-06
1.66478e-05
-5.25536e-06
1.64821e-05
-5.36327e-06
1.63145e-05
-5.46284e-06
1.61454e-05
-5.55364e-06
1.59751e-05
-5.63529e-06
1.58041e-05
-5.70754e-06
1.56327e-05
-5.77025e-06
1.54613e-05
-5.82337e-06
1.52903e-05
-5.86697e-06
1.512e-05
-5.90118e-06
1.49506e-05
-5.92622e-06
1.47825e-05
-5.94235e-06
1.46158e-05
-5.94989e-06
1.44508e-05
-5.94919e-06
1.42877e-05
-5.94062e-06
1.41266e-05
-5.92457e-06
1.39677e-05
-5.90146e-06
1.38112e-05
-5.8717e-06
1.36572e-05
-5.8357e-06
1.35057e-05
-5.79388e-06
1.33569e-05
-5.74665e-06
1.32109e-05
-5.69444e-06
1.30677e-05
-5.63762e-06
1.29274e-05
-5.5766e-06
1.279e-05
-5.51174e-06
1.26556e-05
-5.44343e-06
1.25242e-05
-5.37201e-06
1.23959e-05
-5.29783e-06
1.22706e-05
-5.22125e-06
1.21484e-05
-5.1426e-06
1.20294e-05
-5.06222e-06
1.19135e-05
-4.98044e-06
1.18007e-05
-4.8976e-06
1.16912e-05
-4.81405e-06
1.15848e-05
-4.73011e-06
1.14816e-05
-4.64616e-06
1.13816e-05
-4.56255e-06
1.12849e-05
-4.47966e-06
1.11913e-05
-4.39787e-06
1.11009e-05
-4.31758e-06
1.10137e-05
-4.23923e-06
1.09296e-05
-4.16324e-06
1.08486e-05
-4.09007e-06
1.07706e-05
-4.0202e-06
1.06956e-05
-3.95414e-06
1.06233e-05
-3.89239e-06
1.05536e-05
-3.8355e-06
1.04865e-05
-3.78403e-06
1.04215e-05
-3.73852e-06
1.03585e-05
-3.69954e-06
1.02972e-05
-3.66766e-06
1.02372e-05
-3.64335e-06
1.01781e-05
-3.62713e-06
-3.61826e-06
1.99991e-05
-2.39196e-08
1.99965e-05
-7.44729e-08
1.99919e-05
-1.27814e-07
1.99854e-05
-1.83826e-07
1.99769e-05
-2.42507e-07
1.99663e-05
-3.03878e-07
1.99537e-05
-3.67971e-07
1.99389e-05
-4.34834e-07
1.9922e-05
-5.04524e-07
1.99028e-05
-5.77107e-07
1.98813e-05
-6.52656e-07
1.98575e-05
-7.31247e-07
1.98311e-05
-8.12958e-07
1.98021e-05
-8.97866e-07
1.97704e-05
-9.86046e-07
1.9736e-05
-1.07757e-06
1.96986e-05
-1.17249e-06
1.96581e-05
-1.27088e-06
1.96145e-05
-1.37278e-06
1.95675e-05
-1.47821e-06
1.95171e-05
-1.5872e-06
1.94631e-05
-1.69977e-06
1.94053e-05
-1.81588e-06
1.93437e-05
-1.93552e-06
1.9278e-05
-2.05862e-06
1.92083e-05
-2.18511e-06
1.91342e-05
-2.31488e-06
1.90557e-05
-2.4478e-06
1.89727e-05
-2.58369e-06
1.88851e-05
-2.72235e-06
1.87928e-05
-2.86354e-06
1.86956e-05
-3.00698e-06
1.85936e-05
-3.15232e-06
1.84867e-05
-3.29921e-06
1.83749e-05
-3.4472e-06
1.82582e-05
-3.59584e-06
1.81365e-05
-3.74458e-06
1.80101e-05
-3.89286e-06
1.78789e-05
-4.04006e-06
1.77431e-05
-4.1855e-06
1.76029e-05
-4.3285e-06
1.74585e-05
-4.46832e-06
1.73101e-05
-4.60422e-06
1.71579e-05
-4.73545e-06
1.70023e-05
-4.86127e-06
1.68436e-05
-4.98097e-06
1.66821e-05
-5.09388e-06
1.65182e-05
-5.19939e-06
1.63523e-05
-5.29696e-06
1.61848e-05
-5.38614e-06
1.60161e-05
-5.46657e-06
1.58466e-05
-5.53799e-06
1.56765e-05
-5.60024e-06
1.55064e-05
-5.65327e-06
1.53366e-05
-5.69711e-06
1.51673e-05
-5.73187e-06
1.49988e-05
-5.75775e-06
1.48314e-05
-5.77498e-06
1.46654e-05
-5.78386e-06
1.45009e-05
-5.78472e-06
1.43382e-05
-5.77791e-06
1.41775e-05
-5.76381e-06
1.40188e-05
-5.7428e-06
1.38624e-05
-5.71528e-06
1.37083e-05
-5.68165e-06
1.35568e-05
-5.64233e-06
1.34078e-05
-5.59769e-06
1.32615e-05
-5.54815e-06
1.3118e-05
-5.49409e-06
1.29773e-05
-5.43588e-06
1.28394e-05
-5.37389e-06
1.27045e-05
-5.30849e-06
1.25725e-05
-5.24003e-06
1.24436e-05
-5.16885e-06
1.23176e-05
-5.0953e-06
1.21947e-05
-5.0197e-06
1.20749e-05
-4.94239e-06
1.19581e-05
-4.86371e-06
1.18445e-05
-4.78398e-06
1.1734e-05
-4.70355e-06
1.16266e-05
-4.62275e-06
1.15224e-05
-4.54194e-06
1.14214e-05
-4.46147e-06
1.13234e-05
-4.38172e-06
1.12286e-05
-4.30305e-06
1.11369e-05
-4.22587e-06
1.10482e-05
-4.15058e-06
1.09626e-05