/*--------------------------------*- C++ -*----------------------------------*\
  =========                 |
  \\      /  F ield         | OpenFOAM: The Open Source CFD Toolbox
   \\    /   O peration     | Website:  https://openfoam.org
    \\  /    A nd           | Version:  11
     \\/     M anipulation  |
\*---------------------------------------------------------------------------*/
FoamFile
{
    format      ascii;
    class       surfaceScalarField;
    location    "382";
    object      phi;
}
// * * * * * * * * * * * * * * * * * * * * * * * * * * * * * * * * * * * * * //

dimensions      [0 3 -1 0 0 0 0];

internalField   nonuniform List<scalar> 
19800
(
1.99991e-05
-9.31874e-09
1.99975e-05
-2.77028e-08
1.99956e-05
-4.62035e-08
1.99933e-05
-6.51094e-08
1.99905e-05
-8.4622e-08
1.99874e-05
-1.04878e-07
1.99838e-05
-1.25988e-07
1.99797e-05
-1.48044e-07
1.99752e-05
-1.71128e-07
1.99701e-05
-1.95317e-07
1.99646e-05
-2.20683e-07
1.99584e-05
-2.47294e-07
1.99516e-05
-2.75218e-07
1.99442e-05
-3.04522e-07
1.99362e-05
-3.35273e-07
1.99274e-05
-3.67535e-07
1.99178e-05
-4.01374e-07
1.99075e-05
-4.36856e-07
1.98963e-05
-4.74045e-07
1.98842e-05
-5.13007e-07
1.98712e-05
-5.53808e-07
1.98571e-05
-5.96511e-07
1.98421e-05
-6.41181e-07
1.98259e-05
-6.87882e-07
1.98086e-05
-7.36677e-07
1.97901e-05
-7.87627e-07
1.97703e-05
-8.40793e-07
1.97491e-05
-8.96233e-07
1.97266e-05
-9.54004e-07
1.97026e-05
-1.01416e-06
1.9677e-05
-1.07675e-06
1.96499e-05
-1.14182e-06
1.96211e-05
-1.20941e-06
1.95905e-05
-1.27957e-06
1.95581e-05
-1.35232e-06
1.95238e-05
-1.42768e-06
1.94876e-05
-1.50569e-06
1.94493e-05
-1.58633e-06
1.94088e-05
-1.66961e-06
1.93662e-05
-1.75552e-06
1.93213e-05
-1.84404e-06
1.9274e-05
-1.93511e-06
1.92242e-05
-2.0287e-06
1.9172e-05
-2.12472e-06
1.91172e-05
-2.22308e-06
1.90597e-05
-2.32368e-06
1.89995e-05
-2.42636e-06
1.89365e-05
-2.53098e-06
1.88707e-05
-2.63734e-06
1.8802e-05
-2.74523e-06
1.87304e-05
-2.85438e-06
1.86559e-05
-2.96452e-06
1.85784e-05
-3.07534e-06
1.8498e-05
-3.18646e-06
1.84146e-05
-3.29751e-06
1.83284e-05
-3.40804e-06
1.82393e-05
-3.51761e-06
1.81475e-05
-3.62571e-06
1.8053e-05
-3.73182e-06
1.79559e-05
-3.83538e-06
1.78565e-05
-3.93583e-06
1.77549e-05
-4.03257e-06
1.76513e-05
-4.12504e-06
1.75459e-05
-4.21264e-06
1.7439e-05
-4.29483e-06
1.73308e-05
-4.37108e-06
1.72217e-05
-4.44092e-06
1.71121e-05
-4.50392e-06
1.70023e-05
-4.55977e-06
1.6893e-05
-4.60822e-06
1.67836e-05
-4.64889e-06
1.66733e-05
-4.6814e-06
1.65623e-05
-4.70548e-06
1.6451e-05
-4.72147e-06
1.63404e-05
-4.72986e-06
1.62318e-05
-4.73117e-06
1.61265e-05
-4.72555e-06
1.60246e-05
-4.71294e-06
1.59263e-05
-4.69348e-06
1.58311e-05
-4.66744e-06
1.57385e-05
-4.63547e-06
1.56485e-05
-4.59842e-06
1.55612e-05
-4.55678e-06
1.54769e-05
-4.51102e-06
1.53958e-05
-4.46165e-06
1.5318e-05
-4.40919e-06
1.52437e-05
-4.35419e-06
1.5173e-05
-4.29721e-06
1.51059e-05
-4.23881e-06
1.50427e-05
-4.17959e-06
1.49835e-05
-4.12014e-06
1.49284e-05
-4.06112e-06
1.48776e-05
-4.00319e-06
1.48314e-05
-3.9471e-06
1.47899e-05
-3.89369e-06
1.47535e-05
-3.84395e-06
1.47225e-05
-3.79903e-06
1.46976e-05
-3.76039e-06
1.46796e-05
-3.73039e-06
-3.71363e-06
1.99993e-05
-8.62936e-09
1.99979e-05
-2.62603e-08
1.99959e-05
-4.42747e-08
1.99936e-05
-6.27623e-08
1.99908e-05
-8.18668e-08
1.99877e-05
-1.01707e-07
1.99841e-05
-1.22384e-07
1.998e-05
-1.43986e-07
1.99755e-05
-1.6659e-07
1.99704e-05
-1.90271e-07
1.99648e-05
-2.15098e-07
1.99587e-05
-2.41139e-07
1.99519e-05
-2.6846e-07
1.99445e-05
-2.97125e-07
1.99364e-05
-3.27198e-07
1.99277e-05
-3.58744e-07
1.99181e-05
-3.91826e-07
1.99078e-05
-4.26508e-07
1.98966e-05
-4.62853e-07
1.98845e-05
-5.00924e-07
1.98715e-05
-5.40784e-07
1.98574e-05
-5.82497e-07
1.98424e-05
-6.26125e-07
1.98262e-05
-6.71729e-07
1.98089e-05
-7.19371e-07
1.97904e-05
-7.6911e-07
1.97706e-05
-8.21004e-07
1.97495e-05
-8.7511e-07
1.9727e-05
-9.31483e-07
1.9703e-05
-9.90174e-07
1.96775e-05
-1.05123e-06
1.96504e-05
-1.1147e-06
1.96216e-05
-1.18063e-06
1.9591e-05
-1.24904e-06
1.95587e-05
-1.31997e-06
1.95244e-05
-1.39344e-06
1.94882e-05
-1.46947e-06
1.945e-05
-1.54806e-06
1.94096e-05
-1.62922e-06
1.9367e-05
-1.71293e-06
1.93221e-05
-1.79916e-06
1.92748e-05
-1.88788e-06
1.92252e-05
-1.97902e-06
1.9173e-05
-2.07254e-06
1.91182e-05
-2.16832e-06
1.90608e-05
-2.26626e-06
1.90007e-05
-2.36624e-06
1.89378e-05
-2.46808e-06
1.88721e-05
-2.57162e-06
1.88035e-05
-2.67663e-06
1.8732e-05
-2.78288e-06
1.86575e-05
-2.8901e-06
1.85802e-05
-2.99797e-06
1.84999e-05
-3.10615e-06
1.84166e-05
-3.21428e-06
1.83305e-05
-3.32193e-06
1.82416e-05
-3.42867e-06
1.81499e-05
-3.53402e-06
1.80555e-05
-3.63747e-06
1.79587e-05
-3.7385e-06
1.78594e-05
-3.83656e-06
1.77579e-05
-3.93109e-06
1.76544e-05
-4.02155e-06
1.75491e-05
-4.10736e-06
1.74423e-05
-4.18801e-06
1.73342e-05
-4.26299e-06
1.72251e-05
-4.33183e-06
1.71153e-05
-4.39413e-06
1.70051e-05
-4.44952e-06
1.68945e-05
-4.49764e-06
1.67837e-05
-4.53804e-06
1.66728e-05
-4.57051e-06
1.65626e-05
-4.59528e-06
1.64536e-05
-4.61245e-06
1.6346e-05
-4.62229e-06
1.624e-05
-4.62522e-06
1.61359e-05
-4.62139e-06
1.60338e-05
-4.6109e-06
1.59344e-05
-4.59402e-06
1.58379e-05
-4.57093e-06
1.57444e-05
-4.54199e-06
1.56539e-05
-4.50788e-06
1.55663e-05
-4.46922e-06
1.54818e-05
-4.42655e-06
1.54005e-05
-4.38038e-06
1.53226e-05
-4.33125e-06
1.52481e-05
-4.2797e-06
1.51772e-05
-4.22628e-06
1.51099e-05
-4.17157e-06
1.50465e-05
-4.11615e-06
1.4987e-05
-4.06064e-06
1.49316e-05
-4.0057e-06
1.48804e-05
-3.95201e-06
1.48337e-05
-3.90035e-06
1.47916e-05
-3.85159e-06
1.47543e-05
-3.80672e-06
1.47222e-05
-3.76694e-06
1.46955e-05
-3.73368e-06
1.46741e-05
-3.70901e-06
-3.69621e-06
1.99995e-05
-8.11105e-09
1.99982e-05
-2.49787e-08
1.99964e-05
-4.24339e-08
1.99941e-05
-6.04577e-08
1.99913e-05
-7.91302e-08
1.99882e-05
-9.85428e-08
1.99846e-05
-1.18781e-07
1.99805e-05
-1.39925e-07
1.99759e-05
-1.62049e-07
1.99709e-05
-1.85222e-07
1.99653e-05
-2.09512e-07
1.99592e-05
-2.34984e-07
1.99524e-05
-2.61702e-07
1.9945e-05
-2.89729e-07
1.99369e-05
-3.19128e-07
1.99282e-05
-3.49959e-07
1.99186e-05
-3.82286e-07
1.99083e-05
-4.16169e-07
1.98971e-05
-4.51671e-07
1.9885e-05
-4.88853e-07
1.9872e-05
-5.27776e-07
1.9858e-05
-5.68501e-07
1.9843e-05
-6.11088e-07
1.98268e-05
-6.55598e-07
1.98096e-05
-7.02089e-07
1.97911e-05
-7.5062e-07
1.97713e-05
-8.01246e-07
1.97502e-05
-8.54022e-07
1.97277e-05
-9.09e-07
1.97038e-05
-9.66231e-07
1.96783e-05
-1.02576e-06
1.96513e-05
-1.08764e-06
1.96225e-05
-1.15189e-06
1.95921e-05
-1.21856e-06
1.95598e-05
-1.28768e-06
1.95256e-05
-1.35926e-06
1.94894e-05
-1.43332e-06
1.94513e-05
-1.50987e-06
1.94109e-05
-1.58891e-06
1.93684e-05
-1.67042e-06
1.93237e-05
-1.75438e-06
1.92765e-05
-1.84074e-06
1.9227e-05
-1.92947e-06
1.91749e-05
-2.02048e-06
1.91203e-05
-2.11369e-06
1.9063e-05
-2.20899e-06
1.9003e-05
-2.30626e-06
1.89403e-05
-2.40534e-06
1.88747e-05
-2.50607e-06
1.88063e-05
-2.60822e-06
1.8735e-05
-2.71158e-06
1.86608e-05
-2.81588e-06
1.85837e-05
-2.92083e-06
1.85036e-05
-3.02609e-06
1.84206e-05
-3.1313e-06
1.83348e-05
-3.23608e-06
1.82461e-05
-3.34e-06
1.81547e-05
-3.44261e-06
1.80606e-05
-3.54342e-06
1.79641e-05
-3.64192e-06
1.78651e-05
-3.7376e-06
1.77639e-05
-3.82993e-06
1.76608e-05
-3.91836e-06
1.75558e-05
-4.00237e-06
1.74492e-05
-4.08146e-06
1.73413e-05
-4.15511e-06
1.72324e-05
-4.2229e-06
1.71227e-05
-4.28439e-06
1.70124e-05
-4.3392e-06
1.69017e-05
-4.38698e-06
1.6791e-05
-4.42737e-06
1.66808e-05
-4.46026e-06
1.65713e-05
-4.48578e-06
1.64629e-05
-4.50407e-06
1.63559e-05
-4.51532e-06
1.62505e-05
-4.51981e-06
1.61469e-05
-4.51774e-06
1.60452e-05
-4.50928e-06
1.59459e-05
-4.49469e-06
1.58492e-05
-4.47418e-06
1.57552e-05
-4.44807e-06
1.56643e-05
-4.41691e-06
1.55763e-05
-4.38128e-06
1.54915e-05
-4.34172e-06
1.54099e-05
-4.29876e-06
1.53316e-05
-4.25294e-06
1.52567e-05
-4.20481e-06
1.51853e-05
-4.15492e-06
1.51176e-05
-4.10384e-06
1.50536e-05
-4.05216e-06
1.49935e-05
-4.00052e-06
1.49373e-05
-3.94955e-06
1.48853e-05
-3.89997e-06
1.48375e-05
-3.85254e-06
1.4794e-05
-3.80814e-06
1.47551e-05
-3.76775e-06
1.47206e-05
-3.73251e-06
1.46907e-05
-3.70371e-06
1.46646e-05
-3.68299e-06
-3.67261e-06
1.99996e-05
-7.68944e-09
1.99984e-05
-2.38479e-08
1.99967e-05
-4.07155e-08
1.99945e-05
-5.82356e-08
1.99918e-05
-7.64461e-08
1.99887e-05
-9.54102e-08
1.99851e-05
-1.15197e-07
1.99811e-05
-1.35876e-07
1.99765e-05
-1.57514e-07
1.99715e-05
-1.80177e-07
1.99659e-05
-2.03928e-07
1.99597e-05
-2.28832e-07
1.9953e-05
-2.54948e-07
1.99456e-05
-2.82338e-07
1.99375e-05
-3.11062e-07
1.99288e-05
-3.41181e-07
1.99192e-05
-3.72754e-07
1.99089e-05
-4.05841e-07
1.98977e-05
-4.40502e-07
1.98857e-05
-4.76797e-07
1.98727e-05
-5.14785e-07
1.98587e-05
-5.54525e-07
1.98437e-05
-5.96076e-07
1.98276e-05
-6.39494e-07
1.98103e-05
-6.84839e-07
1.97919e-05
-7.32164e-07
1.97722e-05
-7.81526e-07
1.97511e-05
-8.32976e-07
1.97287e-05
-8.86565e-07
1.97048e-05
-9.42341e-07
1.96794e-05
-1.00035e-06
1.96524e-05
-1.06063e-06
1.96237e-05
-1.12322e-06
1.95933e-05
-1.18816e-06
1.95611e-05
-1.25547e-06
1.9527e-05
-1.32517e-06
1.9491e-05
-1.39728e-06
1.94529e-05
-1.47179e-06
1.94127e-05
-1.54872e-06
1.93703e-05
-1.62804e-06
1.93257e-05
-1.70973e-06
1.92787e-05
-1.79376e-06
1.92293e-05
-1.88006e-06
1.91774e-05
-1.96858e-06
1.91229e-05
-2.05924e-06
1.90659e-05
-2.15191e-06
1.90061e-05
-2.2465e-06
1.89436e-05
-2.34283e-06
1.88783e-05
-2.44076e-06
1.88101e-05
-2.54008e-06
1.87391e-05
-2.64056e-06
1.86652e-05
-2.74197e-06
1.85884e-05
-2.844e-06
1.85086e-05
-2.94636e-06
1.8426e-05
-3.04869e-06
1.83406e-05
-3.15061e-06
1.82523e-05
-3.25174e-06
1.81613e-05
-3.35162e-06
1.80677e-05
-3.4498e-06
1.79715e-05
-3.54579e-06
1.7873e-05
-3.6391e-06
1.77723e-05
-3.72922e-06
1.76696e-05
-3.81564e-06
1.75651e-05
-3.89784e-06
1.7459e-05
-3.97534e-06
1.73515e-05
-4.04765e-06
1.72429e-05
-4.11434e-06
1.71335e-05
-4.17499e-06
1.70236e-05
-4.22922e-06
1.69133e-05
-4.27671e-06
1.68031e-05
-4.31718e-06
1.66934e-05
-4.35053e-06
1.65844e-05
-4.37684e-06
1.64766e-05
-4.3962e-06
1.637e-05
-4.40878e-06
1.6265e-05
-4.41479e-06
1.61617e-05
-4.41444e-06
1.60603e-05
-4.40791e-06
1.59611e-05
-4.39548e-06
1.58643e-05
-4.37738e-06
1.57702e-05
-4.35395e-06
1.56789e-05
-4.32564e-06
1.55906e-05
-4.29297e-06
1.55054e-05
-4.25648e-06
1.54233e-05
-4.21669e-06
1.53445e-05
-4.17415e-06
1.52691e-05
-4.12938e-06
1.51971e-05
-4.08295e-06
1.51287e-05
-4.03542e-06
1.5064e-05
-3.9874e-06
1.50029e-05
-3.93949e-06
1.49457e-05
-3.89235e-06
1.48924e-05
-3.84668e-06
1.48431e-05
-3.80323e-06
1.47979e-05
-3.76286e-06
1.47566e-05
-3.72648e-06
1.47192e-05
-3.69513e-06
1.46854e-05
-3.66994e-06
1.46547e-05
-3.65224e-06
-3.64387e-06
1.99996e-05
-7.33313e-09
1.99986e-05
-2.28352e-08
1.9997e-05
-3.91174e-08
1.99949e-05
-5.61131e-08
1.99923e-05
-7.38373e-08
1.99892e-05
-9.23323e-08
1.99857e-05
-1.11652e-07
1.99817e-05
-1.31854e-07
1.99771e-05
-1.52998e-07
1.99721e-05
-1.75146e-07
1.99665e-05
-1.98356e-07
1.99604e-05
-2.22688e-07
1.99536e-05
-2.48202e-07
1.99463e-05
-2.74955e-07
1.99382e-05
-3.03005e-07
1.99294e-05
-3.32412e-07
1.99199e-05
-3.63233e-07
1.99096e-05
-3.95527e-07
1.98985e-05
-4.2935e-07
1.98864e-05
-4.6476e-07
1.98734e-05
-5.01816e-07
1.98595e-05
-5.40574e-07
1.98445e-05
-5.81091e-07
1.98284e-05
-6.23423e-07
1.98112e-05
-6.67624e-07
1.97928e-05
-7.1375e-07
1.97731e-05
-7.61852e-07
1.97521e-05
-8.11981e-07
1.97298e-05
-8.64186e-07
1.97059e-05
-9.18513e-07
1.96806e-05
-9.75005e-07
1.96537e-05
-1.0337e-06
1.96251e-05
-1.09464e-06
1.95948e-05
-1.15785e-06
1.95627e-05
-1.22336e-06
1.95287e-05
-1.29119e-06
1.94928e-05
-1.36135e-06
1.94548e-05
-1.43384e-06
1.94148e-05
-1.50867e-06
1.93725e-05
-1.58581e-06
1.93281e-05
-1.66525e-06
1.92812e-05
-1.74695e-06
1.9232e-05
-1.83086e-06
1.91804e-05
-1.91691e-06
1.91261e-05
-2.00501e-06
1.90693e-05
-2.09508e-06
1.90098e-05
-2.187e-06
1.89476e-05
-2.28061e-06
1.88826e-05
-2.37576e-06
1.88148e-05
-2.47226e-06
1.87441e-05
-2.5699e-06
1.86706e-05
-2.66843e-06
1.85942e-05
-2.76758e-06
1.85149e-05
-2.86706e-06
1.84327e-05
-2.96652e-06
1.83477e-05
-3.06563e-06
1.82599e-05
-3.16398e-06
1.81695e-05
-3.26116e-06
1.80764e-05
-3.35673e-06
1.79809e-05
-3.45023e-06
1.78829e-05
-3.54119e-06
1.77828e-05
-3.62911e-06
1.76807e-05
-3.71351e-06
1.75768e-05
-3.7939e-06
1.74712e-05
-3.86981e-06
1.73643e-05
-3.94076e-06
1.72563e-05
-4.00634e-06
1.71475e-05
-4.06613e-06
1.70381e-05
-4.1198e-06
1.69284e-05
-4.16703e-06
1.68188e-05
-4.20759e-06
1.67096e-05
-4.24138e-06
1.66012e-05
-4.26842e-06
1.64938e-05
-4.2888e-06
1.63877e-05
-4.30263e-06
1.6283e-05
-4.31011e-06
1.618e-05
-4.31141e-06
1.60788e-05
-4.30676e-06
1.59797e-05
-4.2964e-06
1.58829e-05
-4.28061e-06
1.57887e-05
-4.25971e-06
1.56972e-05
-4.23412e-06
1.56085e-05
-4.20433e-06
1.55229e-05
-4.17083e-06
1.54403e-05
-4.13413e-06
1.5361e-05
-4.09478e-06
1.52849e-05
-4.05329e-06
1.52122e-05
-4.01023e-06
1.51429e-05
-3.96616e-06
1.50772e-05
-3.92165e-06
1.5015e-05
-3.87734e-06
1.49565e-05
-3.83384e-06
1.49017e-05
-3.79186e-06
1.48506e-05
-3.75212e-06
1.48031e-05
-3.71541e-06
1.47592e-05
-3.68259e-06
1.47187e-05
-3.65457e-06
1.4681e-05
-3.63232e-06
1.46458e-05
-3.61697e-06
-3.61044e-06
1.99997e-05
-7.02147e-09
1.99988e-05
-2.19157e-08
1.99973e-05
-3.76273e-08
1.99953e-05
-5.40925e-08
1.99927e-05
-7.13152e-08
1.99897e-05
-8.93244e-08
1.99862e-05
-1.08161e-07
1.99823e-05
-1.27874e-07
1.99778e-05
-1.48516e-07
1.99728e-05
-1.70141e-07
1.99672e-05
-1.92805e-07
1.99611e-05
-2.16563e-07
1.99544e-05
-2.41471e-07
1.9947e-05
-2.67586e-07
1.9939e-05
-2.94964e-07
1.99302e-05
-3.2366e-07
1.99207e-05
-3.5373e-07
1.99104e-05
-3.85231e-07
1.98993e-05
-4.18218e-07
1.98873e-05
-4.52747e-07
1.98743e-05
-4.88874e-07
1.98604e-05
-5.26653e-07
1.98454e-05
-5.6614e-07
1.98294e-05
-6.07389e-07
1.98122e-05
-6.50453e-07
1.97939e-05
-6.95383e-07
1.97743e-05
-7.42231e-07
1.97533e-05
-7.91046e-07
1.9731e-05
-8.41873e-07
1.97072e-05
-8.94758e-07
1.9682e-05
-9.49743e-07
1.96551e-05
-1.00686e-06
1.96267e-05
-1.06616e-06
1.95965e-05
-1.12765e-06
1.95645e-05
-1.19137e-06
1.95306e-05
-1.25734e-06
1.94948e-05
-1.32556e-06
1.9457e-05
-1.39605e-06
1.94172e-05
-1.46879e-06
1.93751e-05
-1.54377e-06
1.93308e-05
-1.62097e-06
1.92842e-05
-1.70036e-06
1.92353e-05
-1.78188e-06
1.91838e-05
-1.86548e-06
1.91299e-05
-1.95107e-06
1.90734e-05
-2.03855e-06
1.90142e-05
-2.12782e-06
1.89523e-05
-2.21873e-06
1.88877e-05
-2.31113e-06
1.88202e-05
-2.40484e-06
1.875e-05
-2.49966e-06
1.86769e-05
-2.59534e-06
1.8601e-05
-2.69164e-06
1.85222e-05
-2.78827e-06
1.84406e-05
-2.8849e-06
1.83561e-05
-2.98121e-06
1.8269e-05
-3.07681e-06
1.81791e-05
-3.17132e-06
1.80867e-05
-3.26431e-06
1.79918e-05
-3.35534e-06
1.78946e-05
-3.44396e-06
1.77952e-05
-3.52971e-06
1.76938e-05
-3.6121e-06
1.75905e-05
-3.69068e-06
1.74857e-05
-3.76499e-06
1.73795e-05
-3.83457e-06
1.72722e-05
-3.89903e-06
1.71641e-05
-3.95798e-06
1.70554e-05
-4.01108e-06
1.69464e-05
-4.05804e-06
1.68374e-05
-4.09866e-06
1.67289e-05
-4.13284e-06
1.6621e-05
-4.16056e-06
1.65141e-05
-4.18187e-06
1.64084e-05
-4.19688e-06
1.6304e-05
-4.20575e-06
1.62012e-05
-4.20865e-06
1.61003e-05
-4.20579e-06
1.60013e-05
-4.19743e-06
1.59046e-05
-4.18385e-06
1.58102e-05
-4.16537e-06
1.57185e-05
-4.14238e-06
1.56295e-05
-4.11535e-06
1.55434e-05
-4.08473e-06
1.54603e-05
-4.05104e-06
1.53803e-05
-4.01477e-06
1.53035e-05
-3.97647e-06
1.52299e-05
-3.93666e-06
1.51596e-05
-3.89591e-06
1.50928e-05
-3.85478e-06
1.50293e-05
-3.81389e-06
1.49693e-05
-3.77384e-06
1.49128e-05
-3.73531e-06
1.48596e-05
-3.69898e-06
1.48098e-05
-3.6656e-06
1.47632e-05
-3.63593e-06
1.47194e-05
-3.61078e-06
1.4678e-05
-3.59098e-06
1.46385e-05
-3.57744e-06
-3.57236e-06
1.99997e-05
-6.74103e-09
1.99989e-05
-2.10699e-08
1.99975e-05
-3.62308e-08
1.99956e-05
-5.21683e-08
1.99931e-05
-6.88827e-08
1.99902e-05
-8.63947e-08
1.99868e-05
-1.04737e-07
1.99828e-05
-1.2395e-07
1.99784e-05
-1.44079e-07
1.99734e-05
-1.65174e-07
1.99679e-05
-1.87285e-07
1.99618e-05
-2.10465e-07
1.99551e-05
-2.34766e-07
1.99478e-05
-2.60241e-07
1.99398e-05
-2.86944e-07
1.9931e-05
-3.14929e-07
1.99215e-05
-3.4425e-07
1.99113e-05
-3.74959e-07
1.99002e-05
-4.07112e-07
1.98882e-05
-4.40763e-07
1.98753e-05
-4.75964e-07
1.98614e-05
-5.12769e-07
1.98465e-05
-5.5123e-07
1.98305e-05
-5.91401e-07
1.98134e-05
-6.33332e-07
1.97951e-05
-6.77073e-07
1.97755e-05
-7.22673e-07
1.97546e-05
-7.7018e-07
1.97324e-05
-8.19637e-07
1.97087e-05
-8.71089e-07
1.96836e-05
-9.24574e-07
1.96568e-05
-9.80129e-07
1.96285e-05
-1.03779e-06
1.95984e-05
-1.09758e-06
1.95665e-05
-1.15952e-06
1.95328e-05
-1.22364e-06
1.94972e-05
-1.28994e-06
1.94596e-05
-1.35842e-06
1.94199e-05
-1.42909e-06
1.9378e-05
-1.50193e-06
1.9334e-05
-1.57692e-06
1.92876e-05
-1.65402e-06
1.92389e-05
-1.73318e-06
1.91878e-05
-1.81434e-06
1.91342e-05
-1.89743e-06
1.9078e-05
-1.98235e-06
1.90191e-05
-2.069e-06
1.89576e-05
-2.15723e-06
1.88934e-05
-2.24692e-06
1.88265e-05
-2.33787e-06
1.87567e-05
-2.42989e-06
1.86841e-05
-2.52276e-06
1.86087e-05
-2.61624e-06
1.85305e-05
-2.71005e-06
1.84495e-05
-2.80389e-06
1.83657e-05
-2.89743e-06
1.82792e-05
-2.99032e-06
1.81901e-05
-3.08218e-06
1.80984e-05
-3.17262e-06
1.80043e-05
-3.26121e-06
1.79078e-05
-3.34751e-06
1.78092e-05
-3.43109e-06
1.77086e-05
-3.51149e-06
1.76062e-05
-3.58827e-06
1.75022e-05
-3.66098e-06
1.73968e-05
-3.7292e-06
1.72903e-05
-3.79254e-06
1.71829e-05
-3.85062e-06
1.7075e-05
-3.90313e-06
1.69668e-05
-3.94981e-06
1.68586e-05
-3.99046e-06
1.67507e-05
-4.02496e-06
1.66434e-05
-4.05328e-06
1.6537e-05
-4.07545e-06
1.64317e-05
-4.09156e-06
1.63276e-05
-4.10173e-06
1.62251e-05
-4.10615e-06
1.61244e-05
-4.10501e-06
1.60255e-05
-4.09857e-06
1.59287e-05
-4.0871e-06
1.58343e-05
-4.07092e-06
1.57423e-05
-4.05043e-06
1.5653e-05
-4.02603e-06
1.55665e-05
-3.99818e-06
1.54828e-05
-3.96737e-06
1.54021e-05
-3.93408e-06
1.53245e-05
-3.89883e-06
1.525e-05
-3.86214e-06
1.51786e-05
-3.82457e-06
1.51105e-05
-3.78666e-06
1.50456e-05
-3.74901e-06
1.4984e-05
-3.7122e-06
1.49256e-05
-3.67688e-06
1.48703e-05
-3.64369e-06
1.4818e-05
-3.61331e-06
1.47685e-05
-3.58645e-06
1.47215e-05
-3.56381e-06
1.46766e-05
-3.54609e-06
1.46332e-05
-3.53403e-06
-3.52985e-06
1.99997e-05
-6.48336e-09
1.9999e-05
-2.02822e-08
1.99976e-05
-3.49139e-08
1.99958e-05
-5.0332e-08
1.99935e-05
-6.65373e-08
1.99906e-05
-8.3546e-08
1.99873e-05
-1.01385e-07
1.99834e-05
-1.20089e-07
1.9979e-05
-1.39698e-07
1.99741e-05
-1.60255e-07
1.99686e-05
-1.81808e-07
1.99626e-05
-2.04405e-07
1.99559e-05
-2.28095e-07
1.99486e-05
-2.52928e-07
1.99406e-05
-2.78956e-07
1.99319e-05
-3.06229e-07
1.99224e-05
-3.348e-07
1.99122e-05
-3.6472e-07
1.99011e-05
-3.96041e-07
1.98892e-05
-4.28815e-07
1.98763e-05
-4.63093e-07
1.98625e-05
-4.98927e-07
1.98476e-05
-5.36368e-07
1.98317e-05
-5.75465e-07
1.98146e-05
-6.16269e-07
1.97964e-05
-6.58827e-07
1.97769e-05
-7.03186e-07
1.97561e-05
-7.49392e-07
1.97339e-05
-7.97488e-07
1.97104e-05
-8.47514e-07
1.96853e-05
-8.9951e-07
1.96587e-05
-9.53509e-07
1.96304e-05
-1.00954e-06
1.96005e-05
-1.06764e-06
1.95688e-05
-1.12782e-06
1.95353e-05
-1.1901e-06
1.94998e-05
-1.25449e-06
1.94624e-05
-1.321e-06
1.94229e-05
-1.38962e-06
1.93813e-05
-1.46033e-06
1.93375e-05
-1.53312e-06
1.92914e-05
-1.60794e-06
1.9243e-05
-1.68476e-06
1.91922e-05
-1.76352e-06
1.91389e-05
-1.84413e-06
1.90831e-05
-1.92652e-06
1.90247e-05
-2.01058e-06
1.89636e-05
-2.09617e-06
1.88998e-05
-2.18316e-06
1.88334e-05
-2.27139e-06
1.87641e-05
-2.36065e-06
1.86921e-05
-2.45075e-06
1.86173e-05
-2.54144e-06
1.85397e-05
-2.63247e-06
1.84594e-05
-2.72355e-06
1.83763e-05
-2.81436e-06
1.82906e-05
-2.90457e-06
1.82022e-05
-2.99382e-06
1.81113e-05
-3.08173e-06
1.8018e-05
-3.1679e-06
1.79224e-05
-3.25191e-06
1.78247e-05
-3.33334e-06
1.77249e-05
-3.41176e-06
1.76234e-05
-3.48674e-06
1.75203e-05
-3.55786e-06
1.74158e-05
-3.62471e-06
1.73102e-05
-3.68692e-06
1.72037e-05
-3.74413e-06
1.70966e-05
-3.79604e-06
1.69892e-05
-3.8424e-06
1.68818e-05
-3.88302e-06
1.67746e-05
-3.91777e-06
1.66679e-05
-3.94661e-06
1.6562e-05
-3.96956e-06
1.64571e-05
-3.98667e-06
1.63535e-05
-3.99808e-06
1.62513e-05
-4.00393e-06
1.61507e-05
-4.00442e-06
1.60519e-05
-3.99981e-06
1.59552e-05
-3.99035e-06
1.58606e-05
-3.97638e-06
1.57684e-05
-3.95825e-06
1.56788e-05
-3.93637e-06
1.55918e-05
-3.91116e-06
1.55075e-05
-3.8831e-06
1.54261e-05
-3.85266e-06
1.53476e-05
-3.82032e-06
1.5272e-05
-3.78662e-06
1.51995e-05
-3.75207e-06
1.51301e-05
-3.71721e-06
1.50637e-05
-3.6826e-06
1.50003e-05
-3.64883e-06
1.49399e-05
-3.61649e-06
1.48824e-05
-3.58618e-06
1.48276e-05
-3.55853e-06
1.47754e-05
-3.53418e-06
1.47253e-05
-3.51375e-06
1.4677e-05
-3.49783e-06
1.46301e-05
-3.48707e-06
-3.48331e-06
1.99998e-05
-6.24296e-09
1.9999e-05
-1.95413e-08
1.99978e-05
-3.36642e-08
1.9996e-05
-4.85743e-08
1.99937e-05
-6.42737e-08
1.9991e-05
-8.07774e-08
1.99877e-05
-9.81083e-08
1.99839e-05
-1.16297e-07
1.99796e-05
-1.35378e-07
1.99747e-05
-1.55392e-07
1.99693e-05
-1.76381e-07
1.99633e-05
-1.98391e-07
1.99567e-05
-2.21466e-07
1.99494e-05
-2.45655e-07
1.99414e-05
-2.71005e-07
1.99328e-05
-2.97567e-07
1.99234e-05
-3.25389e-07
1.99132e-05
-3.5452e-07
1.99021e-05
-3.85011e-07
1.98902e-05
-4.16911e-07
1.98774e-05
-4.5027e-07
1.98636e-05
-4.85137e-07
1.98488e-05
-5.21561e-07
1.98329e-05
-5.5959e-07
1.98159e-05
-5.99272e-07
1.97978e-05
-6.40654e-07
1.97784e-05
-6.83779e-07
1.97577e-05
-7.28693e-07
1.97356e-05
-7.75435e-07
1.97121e-05
-8.24046e-07
1.96872e-05
-8.74562e-07
1.96607e-05
-9.27017e-07
1.96326e-05
-9.81439e-07
1.96028e-05
-1.03786e-06
1.95713e-05
-1.09629e-06
1.95379e-05
-1.15675e-06
1.95027e-05
-1.21925e-06
1.94655e-05
-1.28379e-06
1.94262e-05
-1.35038e-06
1.93849e-05
-1.41898e-06
1.93413e-05
-1.48959e-06
1.92956e-05
-1.56217e-06
1.92475e-05
-1.63668e-06
1.9197e-05
-1.71305e-06
1.91441e-05
-1.79122e-06
1.90887e-05
-1.8711e-06
1.90307e-05
-1.95259e-06
1.89701e-05
-2.03558e-06
1.89069e-05
-2.11991e-06
1.88409e-05
-2.20544e-06
1.87722e-05
-2.29199e-06
1.87008e-05
-2.37934e-06
1.86267e-05
-2.46729e-06
1.85498e-05
-2.55557e-06
1.84702e-05
-2.64392e-06
1.83879e-05
-2.73204e-06
1.83029e-05
-2.81961e-06
1.82154e-05
-2.90628e-06
1.81253e-05
-2.9917e-06
1.80329e-05
-3.07548e-06
1.79382e-05
-3.15722e-06
1.78414e-05
-3.23652e-06
1.77426e-05
-3.31298e-06
1.7642e-05
-3.38617e-06
1.75399e-05
-3.4557e-06
1.74363e-05
-3.52118e-06
1.73317e-05
-3.58224e-06
1.72261e-05
-3.63856e-06
1.71199e-05
-3.68984e-06
1.70133e-05
-3.73584e-06
1.69067e-05
-3.77637e-06
1.68002e-05
-3.81131e-06
1.66942e-05
-3.84059e-06
1.65889e-05
-3.86423e-06
1.64844e-05
-3.88226e-06
1.63812e-05
-3.8948e-06
1.62792e-05
-3.902e-06
1.61788e-05
-3.90404e-06
1.60802e-05
-3.90115e-06
1.59834e-05
-3.89361e-06
1.58888e-05
-3.88172e-06
1.57964e-05
-3.86584e-06
1.57064e-05
-3.84635e-06
1.56189e-05
-3.82366e-06
1.5534e-05
-3.79822e-06
1.54518e-05
-3.77048e-06
1.53724e-05
-3.74092e-06
1.52958e-05
-3.71004e-06
1.52221e-05
-3.67835e-06
1.51513e-05
-3.64637e-06
1.50833e-05
-3.61463e-06
1.50181e-05
-3.58368e-06
1.49558e-05
-3.55409e-06
1.4896e-05
-3.52643e-06
1.48387e-05
-3.50127e-06
1.47837e-05
-3.47918e-06
1.47307e-05
-3.46073e-06
1.46793e-05
-3.44642e-06
1.4629e-05
-3.4368e-06
-3.43302e-06
1.99998e-05
-6.01607e-09
1.99991e-05
-1.88385e-08
1.99979e-05
-3.24717e-08
1.99962e-05
-4.68858e-08
1.9994e-05
-6.20857e-08
1.99913e-05
-7.80855e-08
1.99881e-05
-9.49065e-08
1.99844e-05
-1.12576e-07
1.99801e-05
-1.31125e-07
1.99753e-05
-1.50591e-07
1.997e-05
-1.71012e-07
1.9964e-05
-1.92429e-07
1.99574e-05
-2.14887e-07
1.99502e-05
-2.38429e-07
1.99423e-05
-2.63102e-07
1.99337e-05
-2.88951e-07
1.99243e-05
-3.16023e-07
1.99142e-05
-3.44367e-07
1.99032e-05
-3.74029e-07
1.98913e-05
-4.05058e-07
1.98786e-05
-4.375e-07
1.98648e-05
-4.71404e-07
1.98501e-05
-5.06816e-07
1.98343e-05
-5.43783e-07
1.98173e-05
-5.8235e-07
1.97993e-05
-6.22562e-07
1.97799e-05
-6.64461e-07
1.97593e-05
-7.08091e-07
1.97374e-05
-7.53489e-07
1.9714e-05
-8.00695e-07
1.96892e-05
-8.49743e-07
1.96629e-05
-9.00664e-07
1.96349e-05
-9.53487e-07
1.96053e-05
-1.00824e-06
1.95739e-05
-1.06493e-06
1.95408e-05
-1.12359e-06
1.95058e-05
-1.18422e-06
1.94688e-05
-1.24682e-06
1.94298e-05
-1.31139e-06
1.93887e-05
-1.37791e-06
1.93455e-05
-1.44637e-06
1.93e-05
-1.51672e-06
1.92523e-05
-1.58894e-06
1.92022e-05
-1.66296e-06
1.91497e-05
-1.73871e-06
1.90947e-05
-1.81612e-06
1.90372e-05
-1.89508e-06
1.89771e-05
-1.97548e-06
1.89144e-05
-2.0572e-06
1.8849e-05
-2.14007e-06
1.8781e-05
-2.22393e-06
1.87102e-05
-2.30859e-06
1.86368e-05
-2.39382e-06
1.85606e-05
-2.4794e-06
1.84817e-05
-2.56507e-06
1.84002e-05
-2.65053e-06
1.83161e-05
-2.73549e-06
1.82294e-05
-2.81962e-06
1.81403e-05
-2.90257e-06
1.80488e-05
-2.98398e-06
1.79551e-05
-3.06348e-06
1.78592e-05
-3.14067e-06
1.77614e-05
-3.21517e-06
1.76618e-05
-3.28659e-06
1.75607e-05
-3.35453e-06
1.74581e-05
-3.41863e-06
1.73544e-05
-3.47854e-06
1.72498e-05
-3.53395e-06
1.71445e-05
-3.58456e-06
1.70388e-05
-3.63015e-06
1.6933e-05
-3.67054e-06
1.68273e-05
-3.70559e-06
1.67219e-05
-3.73524e-06
1.66172e-05
-3.75948e-06
1.65133e-05
-3.77834e-06
1.64104e-05
-3.79193e-06
1.63088e-05
-3.80037e-06
1.62086e-05
-3.80386e-06
1.611e-05
-3.8026e-06
1.60133e-05
-3.79687e-06
1.59185e-05
-3.78696e-06
1.58259e-05
-3.7732e-06
1.57355e-05
-3.75597e-06
1.56475e-05
-3.73566e-06
1.5562e-05
-3.7127e-06
1.54791e-05
-3.68753e-06
1.53987e-05
-3.6606e-06
1.53211e-05
-3.63239e-06
1.52461e-05
-3.6034e-06
1.51739e-05
-3.57412e-06
1.51043e-05
-3.54506e-06
1.50374e-05
-3.51674e-06
1.4973e-05
-3.4897e-06
1.4911e-05
-3.46446e-06
1.48513e-05
-3.44157e-06
1.47937e-05
-3.42154e-06
1.47378e-05
-3.40488e-06
1.46834e-05
-3.39204e-06
1.46301e-05
-3.38346e-06
-3.37938e-06
1.99998e-05
-5.80008e-09
1.99991e-05
-1.81673e-08
1.9998e-05
-3.1328e-08
1.99963e-05
-4.52586e-08
1.99942e-05
-5.99664e-08
1.99916e-05
-7.54661e-08
1.99885e-05
-9.17777e-08
1.99848e-05
-1.08926e-07
1.99806e-05
-1.26941e-07
1.99759e-05
-1.45855e-07
1.99706e-05
-1.65704e-07
1.99647e-05
-1.86527e-07
1.99582e-05
-2.08365e-07
1.9951e-05
-2.31258e-07
1.99432e-05
-2.55251e-07
1.99346e-05
-2.80387e-07
1.99253e-05
-3.06711e-07
1.99152e-05
-3.34268e-07
1.99043e-05
-3.63104e-07
1.98925e-05
-3.93263e-07
1.98797e-05
-4.24793e-07
1.98661e-05
-4.57738e-07
1.98514e-05
-4.92143e-07
1.98357e-05
-5.28052e-07
1.98188e-05
-5.6551e-07
1.98008e-05
-6.04559e-07
1.97816e-05
-6.45241e-07
1.97611e-05
-6.87595e-07
1.97393e-05
-7.3166e-07
1.97161e-05
-7.7747e-07
1.96914e-05
-8.25061e-07
1.96652e-05
-8.74462e-07
1.96374e-05
-9.257e-07
1.9608e-05
-9.78799e-07
1.95768e-05
-1.03378e-06
1.95439e-05
-1.09065e-06
1.95091e-05
-1.14942e-06
1.94723e-05
-1.2101e-06
1.94336e-05
-1.27267e-06
1.93928e-05
-1.33713e-06
1.93499e-05
-1.40346e-06
1.93048e-05
-1.47162e-06
1.92575e-05
-1.54157e-06
1.92078e-05
-1.61326e-06
1.91557e-05
-1.68663e-06
1.91012e-05
-1.76159e-06
1.90441e-05
-1.83806e-06
1.89846e-05
-1.91592e-06
1.89224e-05
-1.99505e-06
1.88577e-05
-2.07531e-06
1.87903e-05
-2.15652e-06
1.87202e-05
-2.23851e-06
1.86474e-05
-2.32108e-06
1.8572e-05
-2.40399e-06
1.8494e-05
-2.487e-06
1.84133e-05
-2.56985e-06
1.833e-05
-2.65224e-06
1.82443e-05
-2.73386e-06
1.81561e-05
-2.81438e-06
1.80655e-05
-2.89345e-06
1.79728e-05
-2.97073e-06
1.78779e-05
-3.04583e-06
1.77812e-05
-3.11839e-06
1.76826e-05
-3.18803e-06
1.75825e-05
-3.25439e-06
1.74809e-05
-3.3171e-06
1.73782e-05
-3.37584e-06
1.72746e-05
-3.43031e-06
1.71703e-05
-3.48022e-06
1.70655e-05
-3.52536e-06
1.69605e-05
-3.56554e-06
1.68555e-05
-3.60063e-06
1.67509e-05
-3.63057e-06
1.66467e-05
-3.65532e-06
1.65433e-05
-3.67493e-06
1.64408e-05
-3.68947e-06
1.63395e-05
-3.69907e-06
1.62396e-05
-3.7039e-06
1.61411e-05
-3.70417e-06
1.60444e-05
-3.70014e-06
1.59495e-05
-3.69208e-06
1.58567e-05
-3.68033e-06
1.57659e-05
-3.66523e-06
1.56774e-05
-3.64717e-06
1.55913e-05
-3.62655e-06
1.55076e-05
-3.6038e-06
1.54263e-05
-3.57935e-06
1.53476e-05
-3.55366e-06
1.52714e-05
-3.5272e-06
1.51977e-05
-3.50045e-06
1.51265e-05
-3.47389e-06
1.50578e-05
-3.44802e-06
1.49914e-05
-3.42333e-06
1.49273e-05
-3.40032e-06
1.48652e-05
-3.3795e-06
1.4805e-05
-3.36134e-06
1.47465e-05
-3.34631e-06
1.46893e-05
-3.33481e-06
1.4633e-05
-3.32722e-06
-3.32304e-06
1.99998e-05
-5.5931e-09
1.99991e-05
-1.75226e-08
1.9998e-05
-3.02263e-08
1.99965e-05
-4.36854e-08
1.99944e-05
-5.79096e-08
1.99919e-05
-7.29142e-08
1.99888e-05
-8.87188e-08
1.99852e-05
-1.05347e-07
1.99811e-05
-1.22826e-07
1.99764e-05
-1.41187e-07
1.99712e-05
-1.60462e-07
1.99654e-05
-1.80689e-07
1.99589e-05
-2.01904e-07
1.99518e-05
-2.24148e-07
1.9944e-05
-2.4746e-07
1.99355e-05
-2.71883e-07
1.99262e-05
-2.97458e-07
1.99162e-05
-3.2423e-07
1.99053e-05
-3.52241e-07
1.98936e-05
-3.81534e-07
1.9881e-05
-4.12155e-07
1.98674e-05
-4.44144e-07
1.98528e-05
-4.77547e-07
1.98371e-05
-5.12406e-07
1.98204e-05
-5.48761e-07
1.98025e-05
-5.86655e-07
1.97834e-05
-6.26127e-07
1.9763e-05
-6.67215e-07
1.97413e-05
-7.09955e-07
1.97182e-05
-7.54382e-07
1.96937e-05
-8.00528e-07
1.96676e-05
-8.48422e-07
1.964e-05
-8.98089e-07
1.96108e-05
-9.49551e-07
1.95798e-05
-1.00283e-06
1.95471e-05
-1.05793e-06
1.95125e-05
-1.11487e-06
1.94761e-05
-1.17364e-06
1.94377e-05
-1.23424e-06
1.93972e-05
-1.29667e-06
1.93546e-05
-1.36089e-06
1.93099e-05
-1.42687e-06
1.92629e-05
-1.49459e-06
1.92136e-05
-1.56399e-06
1.9162e-05
-1.635e-06
1.9108e-05
-1.70755e-06
1.90515e-05
-1.78156e-06
1.89924e-05
-1.85691e-06
1.89309e-05
-1.93349e-06
1.88668e-05
-2.01117e-06
1.88e-05
-2.08977e-06
1.87306e-05
-2.16914e-06
1.86586e-05
-2.24908e-06
1.8584e-05
-2.32936e-06
1.85068e-05
-2.40977e-06
1.8427e-05
-2.49003e-06
1.83446e-05
-2.56989e-06
1.82598e-05
-2.64903e-06
1.81725e-05
-2.72715e-06
1.8083e-05
-2.80392e-06
1.79913e-05
-2.87899e-06
1.78975e-05
-2.95202e-06
1.78017e-05
-3.02265e-06
1.77042e-05
-3.09053e-06
1.76051e-05
-3.15529e-06
1.75046e-05
-3.21661e-06
1.7403e-05
-3.27417e-06
1.73003e-05
-3.32766e-06
1.71969e-05
-3.37684e-06
1.7093e-05
-3.42147e-06
1.69889e-05
-3.46139e-06
1.68847e-05
-3.49646e-06
1.67808e-05
-3.5266e-06
1.66772e-05
-3.55179e-06
1.65743e-05
-3.57204e-06
1.64723e-05
-3.58744e-06
1.63713e-05
-3.5981e-06
1.62716e-05
-3.60417e-06
1.61733e-05
-3.60586e-06
1.60766e-05
-3.60341e-06
1.59816e-05
-3.5971e-06
1.58885e-05
-3.58723e-06
1.57974e-05
-3.57413e-06
1.57084e-05
-3.55819e-06
1.56216e-05
-3.53977e-06
1.55371e-05
-3.51929e-06
1.54549e-05
-3.49718e-06
1.53751e-05
-3.47385e-06