/*--------------------------------*- C++ -*----------------------------------*\
  =========                 |
  \\      /  F ield         | OpenFOAM: The Open Source CFD Toolbox
   \\    /   O peration     | Website:  https://openfoam.org
    \\  /    A nd           | Version:  11
     \\/     M anipulation  |
\*---------------------------------------------------------------------------*/
FoamFile
{
    format      ascii;
    class       volVectorField;
    location    "1414";
    object      U;
}
// * * * * * * * * * * * * * * * * * * * * * * * * * * * * * * * * * * * * * //

dimensions      [0 1 -1 0 0 0 0];

internalField   nonuniform List<vector> 
10000
(
(0.005 -6.63427e-12 0)
(0.005 -1.88762e-11 0)
(0.005 -3.08869e-11 0)
(0.005 -4.2992e-11 0)
(0.005 -5.53802e-11 0)
(0.005 -6.81856e-11 0)
(0.005 -8.15095e-11 0)
(0.005 -9.54338e-11 0)
(0.005 -1.10029e-10 0)
(0.005 -1.25359e-10 0)
(0.005 -1.41482e-10 0)
(0.005 -1.58456e-10 0)
(0.005 -1.76334e-10 0)
(0.005 -1.9517e-10 0)
(0.005 -2.15019e-10 0)
(0.005 -2.35932e-10 0)
(0.005 -2.57964e-10 0)
(0.005 -2.81167e-10 0)
(0.005 -3.05596e-10 0)
(0.005 -3.31305e-10 0)
(0.005 -3.58349e-10 0)
(0.005 -3.86784e-10 0)
(0.005 -4.16666e-10 0)
(0.005 -4.48051e-10 0)
(0.005 -4.80996e-10 0)
(0.005 -5.1556e-10 0)
(0.005 -5.518e-10 0)
(0.005 -5.89776e-10 0)
(0.005 -6.29546e-10 0)
(0.005 -6.71168e-10 0)
(0.005 -7.14703e-10 0)
(0.005 -7.6021e-10 0)
(0.005 -8.07748e-10 0)
(0.005 -8.57376e-10 0)
(0.005 -9.09153e-10 0)
(0.005 -9.63137e-10 0)
(0.005 -1.01939e-09 0)
(0.005 -1.07795e-09 0)
(0.005 -1.1389e-09 0)
(0.005 -1.20228e-09 0)
(0.005 -1.26814e-09 0)
(0.005 -1.33654e-09 0)
(0.005 -1.40752e-09 0)
(0.005 -1.48114e-09 0)
(0.005 -1.55744e-09 0)
(0.005 -1.63645e-09 0)
(0.005 -1.71823e-09 0)
(0.005 -1.8028e-09 0)
(0.005 -1.8902e-09 0)
(0.005 -1.98045e-09 0)
(0.005 -2.07359e-09 0)
(0.005 -2.16963e-09 0)
(0.005 -2.26858e-09 0)
(0.005 -2.37046e-09 0)
(0.005 -2.47527e-09 0)
(0.005 -2.583e-09 0)
(0.005 -2.69364e-09 0)
(0.005 -2.80718e-09 0)
(0.005 -2.92359e-09 0)
(0.005 -3.04283e-09 0)
(0.005 -3.16486e-09 0)
(0.005 -3.28963e-09 0)
(0.005 -3.41707e-09 0)
(0.005 -3.54711e-09 0)
(0.005 -3.67964e-09 0)
(0.005 -3.81458e-09 0)
(0.005 -3.9518e-09 0)
(0.005 -4.09116e-09 0)
(0.005 -4.23251e-09 0)
(0.005 -4.37568e-09 0)
(0.005 -4.52048e-09 0)
(0.005 -4.66669e-09 0)
(0.005 -4.81406e-09 0)
(0.005 -4.96233e-09 0)
(0.005 -5.1112e-09 0)
(0.005 -5.26033e-09 0)
(0.00499999 -5.40936e-09 0)
(0.00499999 -5.55787e-09 0)
(0.00499999 -5.7054e-09 0)
(0.00499999 -5.85146e-09 0)
(0.00499999 -5.99547e-09 0)
(0.00499999 -6.13682e-09 0)
(0.00499999 -6.27483e-09 0)
(0.00499999 -6.40873e-09 0)
(0.00499999 -6.53769e-09 0)
(0.00499999 -6.66079e-09 0)
(0.00499999 -6.77704e-09 0)
(0.00499999 -6.88534e-09 0)
(0.00499999 -6.98456e-09 0)
(0.00499999 -7.0737e-09 0)
(0.00499999 -7.15199e-09 0)
(0.00499999 -7.2177e-09 0)
(0.00499999 -7.26745e-09 0)
(0.00499999 -7.29983e-09 0)
(0.00499999 -7.31337e-09 0)
(0.00499999 -7.307e-09 0)
(0.00499999 -7.2816e-09 0)
(0.00499999 -7.23944e-09 0)
(0.00499999 -7.18738e-09 0)
(0.00499999 -7.14717e-09 0)
(0.005 -5.83415e-12 0)
(0.005 -1.73619e-11 0)
(0.005 -2.89113e-11 0)
(0.005 -4.05957e-11 0)
(0.005 -5.25677e-11 0)
(0.005 -6.49458e-11 0)
(0.005 -7.78229e-11 0)
(0.005 -9.12761e-11 0)
(0.005 -1.05372e-10 0)
(0.005 -1.20172e-10 0)
(0.005 -1.35732e-10 0)
(0.005 -1.52106e-10 0)
(0.005 -1.69347e-10 0)
(0.005 -1.87505e-10 0)
(0.005 -2.06633e-10 0)
(0.005 -2.2678e-10 0)
(0.005 -2.47997e-10 0)
(0.005 -2.70336e-10 0)
(0.005 -2.93847e-10 0)
(0.005 -3.18584e-10 0)
(0.005 -3.44597e-10 0)
(0.005 -3.7194e-10 0)
(0.005 -4.00665e-10 0)
(0.005 -4.30828e-10 0)
(0.005 -4.62481e-10 0)
(0.005 -4.9568e-10 0)
(0.005 -5.30479e-10 0)
(0.005 -5.66933e-10 0)
(0.005 -6.05099e-10 0)
(0.005 -6.45033e-10 0)
(0.005 -6.86789e-10 0)
(0.005 -7.30424e-10 0)
(0.005 -7.75993e-10 0)
(0.005 -8.23552e-10 0)
(0.005 -8.73156e-10 0)
(0.005 -9.24859e-10 0)
(0.005 -9.78714e-10 0)
(0.005 -1.03478e-09 0)
(0.005 -1.0931e-09 0)
(0.005 -1.15372e-09 0)
(0.005 -1.21671e-09 0)
(0.005 -1.2821e-09 0)
(0.005 -1.34994e-09 0)
(0.005 -1.42028e-09 0)
(0.005 -1.49315e-09 0)
(0.005 -1.56859e-09 0)
(0.005 -1.64665e-09 0)
(0.005 -1.72735e-09 0)
(0.005 -1.81072e-09 0)
(0.005 -1.8968e-09 0)
(0.005 -1.98559e-09 0)
(0.005 -2.07712e-09 0)
(0.005 -2.1714e-09 0)
(0.005 -2.26844e-09 0)
(0.005 -2.36824e-09 0)
(0.005 -2.47079e-09 0)
(0.005 -2.57609e-09 0)
(0.005 -2.68411e-09 0)
(0.005 -2.79484e-09 0)
(0.005 -2.90824e-09 0)
(0.005 -3.02427e-09 0)
(0.005 -3.14288e-09 0)
(0.005 -3.26401e-09 0)
(0.005 -3.38759e-09 0)
(0.005 -3.51353e-09 0)
(0.005 -3.64175e-09 0)
(0.005 -3.77214e-09 0)
(0.005 -3.90457e-09 0)
(0.005 -4.03891e-09 0)
(0.005 -4.17501e-09 0)
(0.005 -4.31269e-09 0)
(0.005 -4.45177e-09 0)
(0.005 -4.59203e-09 0)
(0.005 -4.73323e-09 0)
(0.005 -4.87512e-09 0)
(0.005 -5.01741e-09 0)
(0.00499999 -5.15977e-09 0)
(0.00499999 -5.30185e-09 0)
(0.00499999 -5.44325e-09 0)
(0.00499999 -5.58355e-09 0)
(0.00499999 -5.72226e-09 0)
(0.00499999 -5.85886e-09 0)
(0.00499999 -5.99275e-09 0)
(0.00499999 -6.12331e-09 0)
(0.00499999 -6.24982e-09 0)
(0.00499999 -6.37152e-09 0)
(0.00499999 -6.48758e-09 0)
(0.00499999 -6.59709e-09 0)
(0.00499999 -6.69908e-09 0)
(0.00499999 -6.79234e-09 0)
(0.00499999 -6.8751e-09 0)
(0.00499999 -6.94549e-09 0)
(0.00499999 -7.00265e-09 0)
(0.00499999 -7.04581e-09 0)
(0.00499999 -7.0753e-09 0)
(0.00499999 -7.09252e-09 0)
(0.00499999 -7.09758e-09 0)
(0.00499999 -7.08995e-09 0)
(0.00499999 -7.07389e-09 0)
(0.00499999 -7.06855e-09 0)
(0.005 -5.19459e-12 0)
(0.005 -1.59599e-11 0)
(0.005 -2.69774e-11 0)
(0.005 -3.82167e-11 0)
(0.005 -4.97664e-11 0)
(0.005 -6.17194e-11 0)
(0.005 -7.41562e-11 0)
(0.005 -8.7147e-11 0)
(0.005 -1.00754e-10 0)
(0.005 -1.15036e-10 0)
(0.005 -1.30045e-10 0)
(0.005 -1.45833e-10 0)
(0.005 -1.62451e-10 0)
(0.005 -1.79948e-10 0)
(0.005 -1.98372e-10 0)
(0.005 -2.17771e-10 0)
(0.005 -2.38195e-10 0)
(0.005 -2.59691e-10 0)
(0.005 -2.82309e-10 0)
(0.005 -3.06098e-10 0)
(0.005 -3.31108e-10 0)
(0.005 -3.57388e-10 0)
(0.005 -3.8499e-10 0)
(0.005 -4.13964e-10 0)
(0.005 -4.44361e-10 0)
(0.005 -4.76233e-10 0)
(0.005 -5.09632e-10 0)
(0.005 -5.4461e-10 0)
(0.005 -5.8122e-10 0)
(0.005 -6.19514e-10 0)
(0.005 -6.59544e-10 0)
(0.005 -7.01364e-10 0)
(0.005 -7.45024e-10 0)
(0.005 -7.90578e-10 0)
(0.005 -8.38075e-10 0)
(0.005 -8.87569e-10 0)
(0.005 -9.39107e-10 0)
(0.005 -9.9274e-10 0)
(0.005 -1.04852e-09 0)
(0.005 -1.10648e-09 0)
(0.005 -1.16668e-09 0)
(0.005 -1.22916e-09 0)
(0.005 -1.29396e-09 0)
(0.005 -1.36113e-09 0)
(0.005 -1.43069e-09 0)
(0.005 -1.50269e-09 0)
(0.005 -1.57715e-09 0)
(0.005 -1.65411e-09 0)
(0.005 -1.7336e-09 0)
(0.005 -1.81563e-09 0)
(0.005 -1.90023e-09 0)
(0.005 -1.9874e-09 0)
(0.005 -2.07717e-09 0)
(0.005 -2.16954e-09 0)
(0.005 -2.26451e-09 0)
(0.005 -2.36207e-09 0)
(0.005 -2.46221e-09 0)
(0.005 -2.56492e-09 0)
(0.005 -2.67018e-09 0)
(0.005 -2.77794e-09 0)
(0.005 -2.88819e-09 0)
(0.005 -3.00086e-09 0)
(0.005 -3.11591e-09 0)
(0.005 -3.23327e-09 0)
(0.005 -3.35286e-09 0)
(0.005 -3.47462e-09 0)
(0.005 -3.59843e-09 0)
(0.005 -3.72419e-09 0)
(0.005 -3.85179e-09 0)
(0.005 -3.98108e-09 0)
(0.005 -4.11192e-09 0)
(0.005 -4.24414e-09 0)
(0.005 -4.37756e-09 0)
(0.005 -4.51197e-09 0)
(0.005 -4.64715e-09 0)
(0.005 -4.78286e-09 0)
(0.005 -4.91881e-09 0)
(0.00499999 -5.0547e-09 0)
(0.00499999 -5.19022e-09 0)
(0.00499999 -5.32497e-09 0)
(0.00499999 -5.45858e-09 0)
(0.00499999 -5.59058e-09 0)
(0.00499999 -5.7205e-09 0)
(0.00499999 -5.8478e-09 0)
(0.00499999 -5.97189e-09 0)
(0.00499999 -6.09213e-09 0)
(0.00499999 -6.20781e-09 0)
(0.00499999 -6.31816e-09 0)
(0.00499999 -6.4223e-09 0)
(0.00499999 -6.51913e-09 0)
(0.00499999 -6.60744e-09 0)
(0.00499999 -6.68629e-09 0)
(0.00499999 -6.75493e-09 0)
(0.00499999 -6.81261e-09 0)
(0.00499999 -6.85899e-09 0)
(0.00499999 -6.89438e-09 0)
(0.00499999 -6.91936e-09 0)
(0.00499999 -6.93471e-09 0)
(0.00499999 -6.94288e-09 0)
(0.00499999 -6.9549e-09 0)
(0.005 -4.7572e-12 0)
(0.005 -1.48362e-11 0)
(0.005 -2.53183e-11 0)
(0.005 -3.61073e-11 0)
(0.005 -4.72438e-11 0)
(0.005 -5.8793e-11 0)
(0.005 -7.08196e-11 0)
(0.005 -8.33845e-11 0)
(0.005 -9.65444e-11 0)
(0.005 -1.10353e-10 0)
(0.005 -1.2486e-10 0)
(0.005 -1.40116e-10 0)
(0.005 -1.56168e-10 0)
(0.005 -1.73063e-10 0)
(0.005 -1.90847e-10 0)
(0.005 -2.09568e-10 0)
(0.005 -2.2927e-10 0)
(0.005 -2.50001e-10 0)
(0.005 -2.71806e-10 0)
(0.005 -2.94735e-10 0)
(0.005 -3.18832e-10 0)
(0.005 -3.44147e-10 0)
(0.005 -3.70726e-10 0)
(0.005 -3.98619e-10 0)
(0.005 -4.27874e-10 0)
(0.005 -4.58541e-10 0)
(0.005 -4.90667e-10 0)
(0.005 -5.24303e-10 0)
(0.005 -5.59498e-10 0)
(0.005 -5.96302e-10 0)
(0.005 -6.34763e-10 0)
(0.005 -6.74933e-10 0)
(0.005 -7.16858e-10 0)
(0.005 -7.60588e-10 0)
(0.005 -8.06172e-10 0)
(0.005 -8.53657e-10 0)
(0.005 -9.03089e-10 0)
(0.005 -9.54515e-10 0)
(0.005 -1.00798e-09 0)
(0.005 -1.06353e-09 0)
(0.005 -1.1212e-09 0)
(0.005 -1.18103e-09 0)
(0.005 -1.24307e-09 0)
(0.005 -1.30735e-09 0)
(0.005 -1.3739e-09 0)
(0.005 -1.44277e-09 0)
(0.005 -1.51397e-09 0)
(0.005 -1.58753e-09 0)
(0.005 -1.66348e-09 0)
(0.005 -1.74184e-09 0)
(0.005 -1.82263e-09 0)
(0.005 -1.90585e-09 0)
(0.005 -1.99153e-09 0)
(0.005 -2.07965e-09 0)
(0.005 -2.17023e-09 0)
(0.005 -2.26325e-09 0)
(0.005 -2.35872e-09 0)
(0.005 -2.4566e-09 0)
(0.005 -2.55688e-09 0)
(0.005 -2.65953e-09 0)
(0.005 -2.76452e-09 0)
(0.005 -2.8718e-09 0)
(0.005 -2.98133e-09 0)
(0.005 -3.09304e-09 0)
(0.005 -3.20687e-09 0)
(0.005 -3.32275e-09 0)
(0.005 -3.44059e-09 0)
(0.005 -3.5603e-09 0)
(0.005 -3.68177e-09 0)
(0.005 -3.80487e-09 0)
(0.005 -3.9295e-09 0)
(0.005 -4.05549e-09 0)
(0.005 -4.18269e-09 0)
(0.005 -4.31092e-09 0)
(0.005 -4.44e-09 0)
(0.005 -4.56971e-09 0)
(0.005 -4.69983e-09 0)
(0.00499999 -4.83009e-09 0)
(0.00499999 -4.96021e-09 0)
(0.00499999 -5.08991e-09 0)
(0.00499999 -5.21882e-09 0)
(0.00499999 -5.3466e-09 0)
(0.00499999 -5.47282e-09 0)
(0.00499999 -5.59705e-09 0)
(0.00499999 -5.7188e-09 0)
(0.00499999 -5.83752e-09 0)
(0.00499999 -5.95262e-09 0)
(0.00499999 -6.06343e-09 0)
(0.00499999 -6.16919e-09 0)
(0.00499999 -6.26899e-09 0)
(0.00499999 -6.36192e-09 0)
(0.00499999 -6.44725e-09 0)
(0.00499999 -6.52443e-09 0)
(0.00499999 -6.59295e-09 0)
(0.00499999 -6.6525e-09 0)
(0.00499999 -6.70308e-09 0)
(0.00499999 -6.74474e-09 0)
(0.00499999 -6.77729e-09 0)
(0.00499999 -6.80096e-09 0)
(0.00499999 -6.81372e-09 0)
(0.005 -4.40753e-12 0)
(0.005 -1.38563e-11 0)
(0.005 -2.37964e-11 0)
(0.005 -3.41115e-11 0)
(0.005 -4.48128e-11 0)
(0.005 -5.59426e-11 0)
(0.005 -6.75498e-11 0)
(0.005 -7.96845e-11 0)
(0.005 -9.23964e-11 0)
(0.005 -1.05734e-10 0)
(0.005 -1.19744e-10 0)
(0.005 -1.34473e-10 0)
(0.005 -1.49965e-10 0)
(0.005 -1.66266e-10 0)
(0.005 -1.83419e-10 0)
(0.005 -2.01469e-10 0)
(0.005 -2.2046e-10 0)
(0.005 -2.40435e-10 0)
(0.005 -2.6144e-10 0)
(0.005 -2.83519e-10 0)
(0.005 -3.06717e-10 0)
(0.005 -3.31079e-10 0)
(0.005 -3.56651e-10 0)
(0.005 -3.83478e-10 0)
(0.005 -4.11607e-10 0)
(0.005 -4.41084e-10 0)
(0.005 -4.71956e-10 0)
(0.005 -5.04268e-10 0)
(0.005 -5.38068e-10 0)
(0.005 -5.73403e-10 0)
(0.005 -6.10317e-10 0)
(0.005 -6.48859e-10 0)
(0.005 -6.89074e-10 0)
(0.005 -7.31007e-10 0)
(0.005 -7.74704e-10 0)
(0.005 -8.20208e-10 0)
(0.005 -8.67564e-10 0)
(0.005 -9.16814e-10 0)
(0.005 -9.68e-10 0)
(0.005 -1.02116e-09 0)
(0.005 -1.07634e-09 0)
(0.005 -1.13357e-09 0)
(0.005 -1.19288e-09 0)
(0.005 -1.25432e-09 0)
(0.005 -1.31791e-09 0)
(0.005 -1.38369e-09 0)
(0.005 -1.45167e-09 0)
(0.005 -1.52189e-09 0)
(0.005 -1.59436e-09 0)
(0.005 -1.6691e-09 0)
(0.005 -1.74613e-09 0)
(0.005 -1.82546e-09 0)
(0.005 -1.9071e-09 0)
(0.005 -1.99105e-09 0)
(0.005 -2.0773e-09 0)
(0.005 -2.16586e-09 0)
(0.005 -2.25671e-09 0)
(0.005 -2.34984e-09 0)
(0.005 -2.44522e-09 0)
(0.005 -2.54284e-09 0)
(0.005 -2.64265e-09 0)
(0.005 -2.74462e-09 0)
(0.005 -2.84871e-09 0)
(0.005 -2.95486e-09 0)
(0.005 -3.06302e-09 0)
(0.005 -3.17311e-09 0)
(0.005 -3.28507e-09 0)
(0.005 -3.39881e-09 0)
(0.005 -3.51424e-09 0)
(0.005 -3.63126e-09 0)
(0.005 -3.74976e-09 0)
(0.005 -3.86961e-09 0)
(0.005 -3.99068e-09 0)
(0.005 -4.11282e-09 0)
(0.005 -4.23587e-09 0)
(0.005 -4.35967e-09 0)
(0.005 -4.48401e-09 0)
(0.00499999 -4.6087e-09 0)
(0.00499999 -4.73349e-09 0)
(0.00499999 -4.85814e-09 0)
(0.00499999 -4.98239e-09 0)
(0.00499999 -5.10592e-09 0)
(0.00499999 -5.22841e-09 0)
(0.00499999 -5.34951e-09 0)
(0.00499999 -5.4688e-09 0)
(0.00499999 -5.58586e-09 0)
(0.00499999 -5.70017e-09 0)
(0.00499999 -5.81121e-09 0)
(0.00499999 -5.91832e-09 0)
(0.00499999 -6.02084e-09 0)
(0.00499999 -6.11804e-09 0)
(0.00499999 -6.20934e-09 0)
(0.00499999 -6.29426e-09 0)
(0.00499999 -6.37233e-09 0)
(0.00499999 -6.44315e-09 0)
(0.00499999 -6.50634e-09 0)
(0.00499999 -6.56128e-09 0)
(0.00499999 -6.60661e-09 0)
(0.00499999 -6.64005e-09 0)
(0.00499999 -6.65324e-09 0)
(0.005 -4.10378e-12 0)
(0.005 -1.29716e-11 0)
(0.005 -2.23793e-11 0)
(0.005 -3.22095e-11 0)
(0.005 -4.24583e-11 0)
(0.005 -5.3152e-11 0)
(0.005 -6.4326e-11 0)
(0.005 -7.60204e-11 0)
(0.005 -8.82772e-11 0)
(0.005 -1.01139e-10 0)
(0.005 -1.1465e-10 0)
(0.005 -1.2885e-10 0)
(0.005 -1.43783e-10 0)
(0.005 -1.59491e-10 0)
(0.005 -1.76015e-10 0)
(0.005 -1.93397e-10 0)
(0.005 -2.11679e-10 0)
(0.005 -2.30903e-10 0)
(0.005 -2.51111e-10 0)
(0.005 -2.72345e-10 0)
(0.005 -2.94649e-10 0)
(0.005 -3.18064e-10 0)
(0.005 -3.42634e-10 0)
(0.005 -3.68402e-10 0)
(0.005 -3.95411e-10 0)
(0.005 -4.23706e-10 0)
(0.005 -4.53331e-10 0)
(0.005 -4.84328e-10 0)
(0.005 -5.16741e-10 0)
(0.005 -5.50616e-10 0)
(0.005 -5.85994e-10 0)
(0.005 -6.22919e-10 0)
(0.005 -6.61434e-10 0)
(0.005 -7.01582e-10 0)
(0.005 -7.43405e-10 0)
(0.005 -7.86943e-10 0)
(0.005 -8.32237e-10 0)
(0.005 -8.79327e-10 0)
(0.005 -9.2825e-10 0)
(0.005 -9.79044e-10 0)
(0.005 -1.03174e-09 0)
(0.005 -1.08639e-09 0)
(0.005 -1.143e-09 0)
(0.005 -1.20162e-09 0)
(0.005 -1.26227e-09 0)
(0.005 -1.32498e-09 0)
(0.005 -1.38977e-09 0)
(0.005 -1.45667e-09 0)
(0.005 -1.52568e-09 0)
(0.005 -1.59684e-09 0)
(0.005 -1.67015e-09 0)
(0.005 -1.74562e-09 0)
(0.005 -1.82325e-09 0)
(0.005 -1.90306e-09 0)
(0.005 -1.98502e-09 0)
(0.005 -2.06915e-09 0)
(0.005 -2.15543e-09 0)
(0.005 -2.24385e-09 0)
(0.005 -2.33438e-09 0)
(0.005 -2.427e-09 0)
(0.005 -2.52169e-09 0)
(0.005 -2.6184e-09 0)
(0.005 -2.7171e-09 0)
(0.005 -2.81774e-09 0)
(0.005 -2.92028e-09 0)
(0.005 -3.02464e-09 0)
(0.005 -3.13077e-09 0)
(0.005 -3.2386e-09 0)
(0.005 -3.34805e-09 0)
(0.005 -3.45903e-09 0)
(0.005 -3.57145e-09 0)
(0.005 -3.68521e-09 0)
(0.005 -3.8002e-09 0)
(0.005 -3.9163e-09 0)
(0.005 -4.03337e-09 0)
(0.005 -4.15129e-09 0)
(0.005 -4.26989e-09 0)
(0.00499999 -4.38902e-09 0)
(0.00499999 -4.50849e-09 0)
(0.00499999 -4.6281e-09 0)
(0.00499999 -4.74765e-09 0)
(0.00499999 -4.86691e-09 0)
(0.00499999 -4.9856e-09 0)
(0.00499999 -5.10346e-09 0)
(0.00499999 -5.22018e-09 0)
(0.00499999 -5.33539e-09 0)
(0.00499999 -5.44872e-09 0)
(0.00499999 -5.55972e-09 0)
(0.00499999 -5.6679e-09 0)
(0.00499999 -5.77273e-09 0)
(0.00499999 -5.87366e-09 0)
(0.00499999 -5.97019e-09 0)
(0.00499999 -6.06183e-09 0)
(0.00499999 -6.14809e-09 0)
(0.00499999 -6.22836e-09 0)
(0.00499999 -6.30187e-09 0)
(0.00499999 -6.36732e-09 0)
(0.00499999 -6.42232e-09 0)
(0.00499999 -6.46254e-09 0)
(0.00499999 -6.48237e-09 0)
(0.005 -3.83514e-12 0)
(0.005 -1.21682e-11 0)
(0.005 -2.10638e-11 0)
(0.005 -3.04117e-11 0)
(0.005 -4.02017e-11 0)
(0.005 -5.04499e-11 0)
(0.005 -6.11816e-11 0)
(0.005 -7.24283e-11 0)
(0.005 -8.42252e-11 0)
(0.005 -9.66093e-11 0)
(0.005 -1.09619e-10 0)
(0.005 -1.23293e-10 0)
(0.005 -1.37669e-10 0)
(0.005 -1.52788e-10 0)
(0.005 -1.68688e-10 0)
(0.005 -1.85409e-10 0)
(0.005 -2.0299e-10 0)
(0.005 -2.2147e-10 0)
(0.005 -2.4089e-10 0)
(0.005 -2.61289e-10 0)
(0.005 -2.82709e-10 0)
(0.005 -3.05188e-10 0)
(0.005 -3.28769e-10 0)
(0.005 -3.53491e-10 0)
(0.005 -3.79395e-10 0)
(0.005 -4.06524e-10 0)
(0.005 -4.34917e-10 0)
(0.005 -4.64616e-10 0)
(0.005 -4.95662e-10 0)
(0.005 -5.28096e-10 0)
(0.005 -5.61958e-10 0)
(0.005 -5.97288e-10 0)
(0.005 -6.34128e-10 0)
(0.005 -6.72515e-10 0)
(0.005 -7.1249e-10 0)
(0.005 -7.54089e-10 0)
(0.005 -7.9735e-10 0)
(0.005 -8.4231e-10 0)
(0.005 -8.89004e-10 0)
(0.005 -9.37465e-10 0)
(0.005 -9.87726e-10 0)
(0.005 -1.03982e-09 0)
(0.005 -1.09377e-09 0)
(0.005 -1.14961e-09 0)
(0.005 -1.20736e-09 0)
(0.005 -1.26706e-09 0)
(0.005 -1.32871e-09 0)
(0.005 -1.39233e-09 0)
(0.005 -1.45795e-09 0)
(0.005 -1.52558e-09 0)
(0.005 -1.59522e-09 0)
(0.005 -1.66689e-09 0)
(0.005 -1.74059e-09 0)
(0.005 -1.81631e-09 0)
(0.005 -1.89406e-09 0)
(0.005 -1.97384e-09 0)
(0.005 -2.05562e-09 0)
(0.005 -2.1394e-09 0)
(0.005 -2.22516e-09 0)
(0.005 -2.31287e-09 0)
(0.005 -2.40252e-09 0)
(0.005 -2.49406e-09 0)
(0.005 -2.58746e-09 0)
(0.005 -2.68269e-09 0)
(0.005 -2.77969e-09 0)
(0.005 -2.87842e-09 0)
(0.005 -2.97882e-09 0)
(0.005 -3.08084e-09 0)
(0.005 -3.18441e-09 0)
(0.005 -3.28945e-09 0)
(0.005 -3.3959e-09 0)
(0.005 -3.50367e-09 0)
(0.005 -3.61267e-09 0)
(0.005 -3.72281e-09 0)
(0.005 -3.83399e-09 0)
(0.005 -3.94611e-09 0)
(0.005 -4.05904e-09 0)
(0.005 -4.17267e-09 0)
(0.00499999 -4.28686e-09 0)
(0.00499999 -4.40146e-09 0)
(0.00499999 -4.51633e-09 0)
(0.00499999 -4.63128e-09 0)
(0.00499999 -4.74613e-09 0)
(0.00499999 -4.86067e-09 0)
(0.00499999 -4.97468e-09 0)
(0.00499999 -5.08788e-09 0)
(0.00499999 -5.19998e-09 0)
(0.00499999 -5.31065e-09 0)
(0.00499999 -5.4195e-09 0)
(0.00499999 -5.52613e-09 0)
(0.00499999 -5.63009e-09 0)
(0.00499999 -5.73092e-09 0)
(0.00499999 -5.82812e-09 0)
(0.00499999 -5.92108e-09 0)
(0.00499999 -6.009e-09 0)
(0.00499999 -6.09071e-09 0)
(0.00499999 -6.1644e-09 0)
(0.00499999 -6.22706e-09 0)
(0.00499999 -6.27423e-09 0)
(0.00499999 -6.30155e-09 0)
(0.005 -3.59329e-12 0)
(0.005 -1.14319e-11 0)
(0.005 -1.98395e-11 0)
(0.005 -2.87153e-11 0)
(0.005 -3.80477e-11 0)
(0.005 -4.78469e-11 0)
(0.005 -5.81315e-11 0)
(0.005 -6.89261e-11 0)
(0.005 -8.02598e-11 0)
(0.005 -9.21644e-11 0)
(0.005 -1.04674e-10 0)
(0.005 -1.17822e-10 0)
(0.005 -1.31646e-10 0)
(0.005 -1.4618e-10 0)
(0.005 -1.61463e-10 0)
(0.005 -1.77529e-10 0)
(0.005 -1.94417e-10 0)
(0.005 -2.12164e-10 0)
(0.005 -2.30807e-10 0)
(0.005 -2.50383e-10 0)
(0.005 -2.70931e-10 0)
(0.005 -2.92489e-10 0)
(0.005 -3.15095e-10 0)
(0.005 -3.38787e-10 0)
(0.005 -3.63604e-10 0)
(0.005 -3.89584e-10 0)
(0.005 -4.16766e-10 0)
(0.005 -4.45188e-10 0)
(0.005 -4.74888e-10 0)
(0.005 -5.05905e-10 0)
(0.005 -5.38276e-10 0)
(0.005 -5.72039e-10 0)
(0.005 -6.0723e-10 0)
(0.005 -6.43887e-10 0)
(0.005 -6.82045e-10 0)
(0.005 -7.21739e-10 0)
(0.005 -7.63003e-10 0)
(0.005 -8.0587e-10 0)
(0.005 -8.50373e-10 0)
(0.005 -8.96542e-10 0)
(0.005 -9.44407e-10 0)
(0.005 -9.93996e-10 0)
(0.005 -1.04534e-09 0)
(0.005 -1.09845e-09 0)
(0.005 -1.15336e-09 0)
(0.005 -1.21009e-09 0)
(0.005 -1.26865e-09 0)
(0.005 -1.32907e-09 0)
(0.005 -1.39136e-09 0)
(0.005 -1.45552e-09 0)
(0.005 -1.52157e-09 0)
(0.005 -1.58951e-09 0)
(0.005 -1.65935e-09 0)
(0.005 -1.73107e-09 0)
(0.005 -1.80469e-09 0)
(0.005 -1.8802e-09 0)
(0.005 -1.95758e-09 0)
(0.005 -2.03681e-09 0)
(0.005 -2.11789e-09 0)
(0.005 -2.2008e-09 0)
(0.005 -2.2855e-09 0)
(0.005 -2.37198e-09 0)
(0.005 -2.46019e-09 0)
(0.005 -2.55011e-09 0)
(0.005 -2.6417e-09 0)
(0.005 -2.73491e-09 0)
(0.005 -2.8297e-09 0)
(0.005 -2.92603e-09 0)
(0.005 -3.02383e-09 0)
(0.005 -3.12306e-09 0)
(0.005 -3.22365e-09 0)
(0.005 -3.32554e-09 0)
(0.005 -3.42867e-09 0)
(0.005 -3.53297e-09 0)
(0.005 -3.63836e-09 0)
(0.005 -3.74477e-09 0)
(0.005 -3.85212e-09 0)
(0.005 -3.96032e-09 0)
(0.00499999 -4.06928e-09 0)
(0.00499999 -4.17891e-09 0)
(0.00499999 -4.2891e-09 0)
(0.00499999 -4.39974e-09 0)
(0.00499999 -4.5107e-09 0)
(0.00499999 -4.62184e-09 0)
(0.00499999 -4.733e-09 0)
(0.00499999 -4.84399e-09 0)
(0.00499999 -4.95462e-09 0)
(0.00499999 -5.06462e-09 0)
(0.00499999 -5.17371e-09 0)
(0.00499999 -5.28157e-09 0)
(0.00499999 -5.38781e-09 0)
(0.00499999 -5.49199e-09 0)
(0.00499999 -5.59358e-09 0)
(0.00499999 -5.69185e-09 0)
(0.00499999 -5.78579e-09 0)
(0.00499999 -5.87392e-09 0)
(0.00499999 -5.954e-09 0)
(0.00499999 -6.02263e-09 0)
(0.00499999 -6.07505e-09 0)
(0.00499999 -6.10639e-09 0)
(0.005 -3.37196e-12 0)
(0.005 -1.07507e-11 0)
(0.005 -1.86947e-11 0)
(0.005 -2.71126e-11 0)
(0.005 -3.59937e-11 0)
(0.005 -4.53454e-11 0)
(0.005 -5.51819e-11 0)
(0.005 -6.55227e-11 0)
(0.005 -7.63918e-11 0)
(0.005 -8.78164e-11 0)
(0.005 -9.98261e-11 0)
(0.005 -1.12452e-10 0)
(0.005 -1.25726e-10 0)
(0.005 -1.39682e-10 0)
(0.005 -1.54353e-10 0)
(0.005 -1.69773e-10 0)
(0.005 -1.85977e-10 0)
(0.005 -2.03e-10 0)
(0.005 -2.20877e-10 0)
(0.005 -2.39643e-10 0)
(0.005 -2.59334e-10 0)
(0.005 -2.79985e-10 0)
(0.005 -3.01632e-10 0)
(0.005 -3.24311e-10 0)
(0.005 -3.48059e-10 0)
(0.005 -3.7291e-10 0)
(0.005 -3.98902e-10 0)
(0.005 -4.26069e-10 0)
(0.005 -4.54448e-10 0)
(0.005 -4.84073e-10 0)
(0.005 -5.1498e-10 0)
(0.005 -5.47204e-10 0)
(0.005 -5.80778e-10 0)
(0.005 -6.15737e-10 0)
(0.005 -6.52113e-10 0)
(0.005 -6.89937e-10 0)
(0.005 -7.29243e-10 0)
(0.005 -7.70058e-10 0)
(0.005 -8.12413e-10 0)
(0.005 -8.56336e-10 0)
(0.005 -9.01853e-10 0)
(0.005 -9.48988e-10 0)
(0.005 -9.97767e-10 0)
(0.005 -1.04821e-09 0)
(0.005 -1.10033e-09 0)
(0.005 -1.15416e-09 0)
(0.005 -1.20971e-09 0)
(0.005 -1.26699e-09 0)
(0.005 -1.32601e-09 0)
(0.005 -1.38678e-09 0)
(0.005 -1.44931e-09 0)
(0.005 -1.51361e-09 0)
(0.005 -1.57966e-09 0)
(0.005 -1.64748e-09 0)
(0.005 -1.71706e-09 0)
(0.005 -1.78839e-09 0)
(0.005 -1.86146e-09 0)
(0.005 -1.93625e-09 0)
(0.005 -2.01276e-09 0)
(0.005 -2.09097e-09 0)
(0.005 -2.17084e-09 0)
(0.005 -2.25237e-09 0)
(0.005 -2.33551e-09 0)
(0.005 -2.42024e-09 0)
(0.005 -2.50654e-09 0)
(0.005 -2.59436e-09 0)
(0.005 -2.68367e-09 0)
(0.005 -2.77443e-09 0)
(0.005 -2.86659e-09 0)
(0.005 -2.96013e-09 0)
(0.005 -3.05499e-09 0)
(0.005 -3.15114e-09 0)
(0.005 -3.24852e-09 0)
(0.005 -3.34709e-09 0)
(0.005 -3.4468e-09 0)
(0.005 -3.54761e-09 0)
(0.005 -3.64946e-09 0)
(0.005 -3.75232e-09 0)
(0.005 -3.85612e-09 0)
(0.00499999 -3.96081e-09 0)
(0.00499999 -4.06635e-09 0)
(0.00499999 -4.17266e-09 0)
(0.00499999 -4.27968e-09 0)
(0.00499999 -4.38732e-09 0)
(0.00499999 -4.4955e-09 0)
(0.00499999 -4.60409e-09 0)
(0.00499999 -4.71297e-09 0)
(0.00499999 -4.82195e-09 0)
(0.00499999 -4.93082e-09 0)
(0.00499999 -5.03932e-09 0)
(0.00499999 -5.1471e-09 0)
(0.00499999 -5.25372e-09 0)
(0.00499999 -5.3586e-09 0)
(0.00499999 -5.46091e-09 0)
(0.00499999 -5.55946e-09 0)
(0.00499999 -5.6525e-09 0)
(0.00499999 -5.7375e-09 0)
(0.00499999 -5.81076e-09 0)
(0.00499999 -5.86725e-09 0)
(0.00499999 -5.90134e-09 0)
(0.005 -3.16706e-12 0)
(0.005 -1.01157e-11 0)
(0.005 -1.76197e-11 0)
(0.005 -2.55957e-11 0)
(0.005 -3.40355e-11 0)
(0.005 -4.29452e-11 0)
(0.005 -5.23361e-11 0)
(0.005 -6.22242e-11 0)
(0.005 -7.26296e-11 0)
(0.005 -8.35755e-11 0)
(0.005 -9.50877e-11 0)
(0.005 -1.07194e-10 0)
(0.005 -1.19923e-10 0)
(0.005 -1.33306e-10 0)
(0.005 -1.47372e-10 0)
(0.005 -1.62154e-10 0)
(0.005 -1.77684e-10 0)
(0.005 -1.93994e-10 0)
(0.005 -2.11117e-10 0)
(0.005 -2.29086e-10 0)
(0.005 -2.47933e-10 0)
(0.005 -2.67693e-10 0)
(0.005 -2.88399e-10 0)
(0.005 -3.10084e-10 0)
(0.005 -3.32782e-10 0)
(0.005 -3.56526e-10 0)
(0.005 -3.8135e-10 0)
(0.005 -4.07287e-10 0)
(0.005 -4.3437e-10 0)
(0.005 -4.62631e-10 0)
(0.005 -4.92104e-10 0)
(0.005 -5.2282e-10 0)
(0.005 -5.5481e-10 0)
(0.005 -5.88105e-10 0)
(0.005 -6.22736e-10 0)
(0.005 -6.58731e-10 0)
(0.005 -6.96118e-10 0)
(0.005 -7.34926e-10 0)
(0.005 -7.7518e-10 0)
(0.005 -8.16904e-10 0)
(0.005 -8.60124e-10 0)
(0.005 -9.04861e-10 0)
(0.005 -9.51135e-10 0)
(0.005 -9.98965e-10 0)
(0.005 -1.04837e-09 0)
(0.005 -1.09936e-09 0)
(0.005 -1.15196e-09 0)
(0.005 -1.20617e-09 0)
(0.005 -1.262e-09 0)
(0.005 -1.31946e-09 0)
(0.005 -1.37856e-09 0)
(0.005 -1.43929e-09 0)
(0.005 -1.50166e-09 0)
(0.005 -1.56567e-09 0)
(0.005 -1.6313e-09 0)
(0.005 -1.69856e-09 0)
(0.005 -1.76742e-09 0)
(0.005 -1.83789e-09 0)
(0.005 -1.90994e-09 0)
(0.005 -1.98356e-09 0)
(0.005 -2.05873e-09 0)
(0.005 -2.13542e-09 0)
(0.005 -2.21362e-09 0)
(0.005 -2.2933e-09 0)
(0.005 -2.37444e-09 0)
(0.005 -2.457e-09 0)
(0.005 -2.54096e-09 0)
(0.005 -2.6263e-09 0)
(0.005 -2.71297e-09 0)
(0.005 -2.80096e-09 0)
(0.005 -2.89023e-09 0)
(0.005 -2.98076e-09 0)
(0.005 -3.07252e-09 0)
(0.005 -3.16549e-09 0)
(0.005 -3.25964e-09 0)
(0.005 -3.35495e-09 0)
(0.005 -3.45142e-09 0)
(0.005 -3.54901e-09 0)
(0.005 -3.64772e-09 0)
(0.00499999 -3.74752e-09 0)
(0.00499999 -3.84842e-09 0)
(0.00499999 -3.9504e-09 0)
(0.00499999 -4.05342e-09 0)
(0.00499999 -4.15748e-09 0)
(0.00499999 -4.26254e-09 0)
(0.00499999 -4.36853e-09 0)
(0.00499999 -4.47539e-09 0)
(0.00499999 -4.58299e-09 0)
(0.00499999 -4.69119e-09 0)
(0.00499999 -4.79974e-09 0)
(0.00499999 -4.90835e-09 0)
(0.00499999 -5.01656e-09 0)
(0.00499999 -5.12373e-09 0)
(0.00499999 -5.22893e-09 0)
(0.00499999 -5.33083e-09 0)
(0.00499999 -5.4275e-09 0)
(0.00499999 -5.51616e-09 0)
(0.00499999 -5.59288e-09 0)
(0.00499999 -5.65237e-09 0)
(0.00499999 -5.68833e-09 0)
(0.005 -2.97587e-12 0)
(0.005 -9.52055e-12 0)
(0.005 -1.66065e-11 0)
(0.005 -2.41579e-11 0)
(0.005 -3.21684e-11 0)
(0.005 -4.06443e-11 0)
(0.005 -4.95952e-11 0)
(0.005 -5.90345e-11 0)
(0.005 -6.89793e-11 0)
(0.005 -7.94497e-11 0)
(0.005 -9.0468e-11 0)
(0.005 -1.02059e-10 0)
(0.005 -1.14249e-10 0)
(0.005 -1.27064e-10 0)
(0.005 -1.40534e-10 0)
(0.005 -1.54687e-10 0)
(0.005 -1.69553e-10 0)
(0.005 -1.85161e-10 0)
(0.005 -2.01542e-10 0)
(0.005 -2.18728e-10 0)
(0.005 -2.36748e-10 0)
(0.005 -2.55633e-10 0)
(0.005 -2.75416e-10 0)
(0.005 -2.96126e-10 0)
(0.005 -3.17795e-10 0)
(0.005 -3.40455e-10 0)
(0.005 -3.64135e-10 0)
(0.005 -3.88868e-10 0)
(0.005 -4.14682e-10 0)
(0.005 -4.4161e-10 0)
(0.005 -4.69679e-10 0)
(0.005 -4.9892e-10 0)
(0.005 -5.29361e-10 0)
(0.005 -5.61031e-10 0)
(0.005 -5.93955e-10 0)
(0.005 -6.28162e-10 0)
(0.005 -6.63677e-10 0)
(0.005 -7.00523e-10 0)
(0.005 -7.38725e-10 0)
(0.005 -7.78304e-10 0)
(0.005 -8.19281e-10 0)
(0.005 -8.61677e-10 0)
(0.005 -9.05508e-10 0)
(0.005 -9.50791e-10 0)
(0.005 -9.97541e-10 0)
(0.005 -1.04577e-09 0)
(0.005 -1.09549e-09 0)
(0.005 -1.14671e-09 0)
(0.005 -1.19943e-09 0)
(0.005 -1.25367e-09 0)
(0.005 -1.30942e-09 0)
(0.005 -1.36669e-09 0)
(0.005 -1.42547e-09 0)
(0.005 -1.48576e-09 0)
(0.005 -1.54755e-09 0)
(0.005 -1.61084e-09 0)
(0.005 -1.67562e-09 0)
(0.005 -1.74187e-09 0)
(0.005 -1.80959e-09 0)
(0.005 -1.87875e-09 0)
(0.005 -1.94933e-09 0)
(0.005 -2.02134e-09 0)
(0.005 -2.09473e-09 0)
(0.005 -2.16949e-09 0)
(0.005 -2.24561e-09 0)
(0.005 -2.32306e-09 0)
(0.005 -2.40182e-09 0)
(0.005 -2.48188e-09 0)
(0.005 -2.5632e-09 0)
(0.005 -2.64579e-09 0)
(0.005 -2.72962e-09 0)
(0.005 -2.81468e-09 0)
(0.005 -2.90096e-09 0)
(0.005 -2.98846e-09 0)
(0.005 -3.07718e-09 0)
(0.005 -3.16713e-09 0)
(0.005 -3.2583e-09 0)
(0.005 -3.35072e-09 0)
(0.005 -3.44441e-09 0)
(0.005 -3.53938e-09 0)
(0.00499999 -3.63567e-09 0)
(0.00499999 -3.7333e-09 0)
(0.00499999 -3.83229e-09 0)
(0.00499999 -3.93268e-09 0)
(0.00499999 -4.03448e-09 0)
(0.00499999 -4.13767e-09 0)
(0.00499999 -4.24224e-09 0)
(0.00499999 -4.34812e-09 0)
(0.00499999 -4.45519e-09 0)
(0.00499999 -4.56325e-09 0)
(0.00499999 -4.67201e-09 0)
(0.00499999 -4.78101e-09 0)
(0.00499999 -4.88956e-09 0)
(0.00499999 -4.99665e-09 0)
(0.00499999 -5.10082e-09 0)
(0.00499999 -5.2e-09 0)
(0.00499999 -5.29122e-09 0)
(0.00499999 -5.37039e-09 0)
(0.00499999 -5.43199e-09 0)
(0.00499999 -5.46921e-09 0)
(0.005 -2.79649e-12 0)
(0.005 -8.96026e-12 0)
(0.005 -1.56489e-11 0)
(0.005 -2.27927e-11 0)
(0.005 -3.03875e-11 0)
(0.005 -3.84399e-11 0)
(0.005 -4.69587e-11 0)
(0.005 -5.59555e-11 0)
(0.005 -6.5445e-11 0)
(0.005 -7.54447e-11 0)
(0.005 -8.59744e-11 0)
(0.005 -9.70557e-11 0)
(0.005 -1.08712e-10 0)
(0.005 -1.20968e-10 0)
(0.005 -1.3385e-10 0)
(0.005 -1.47383e-10 0)
(0.005 -1.61595e-10 0)
(0.005 -1.76514e-10 0)
(0.005 -1.92168e-10 0)
(0.005 -2.08585e-10 0)
(0.005 -2.25793e-10 0)
(0.005 -2.43822e-10 0)
(0.005 -2.627e-10 0)
(0.005 -2.82456e-10 0)
(0.005 -3.03119e-10 0)
(0.005 -3.24718e-10 0)
(0.005 -3.4728e-10 0)
(0.005 -3.70836e-10 0)
(0.005 -3.95411e-10 0)
(0.005 -4.21035e-10 0)
(0.005 -4.47734e-10 0)
(0.005 -4.75535e-10 0)
(0.005 -5.04465e-10 0)
(0.005 -5.34548e-10 0)
(0.005 -5.65809e-10 0)
(0.005 -5.98272e-10 0)
(0.005 -6.3196e-10 0)
(0.005 -6.66894e-10 0)
(0.005 -7.03096e-10 0)
(0.005 -7.40585e-10 0)
(0.005 -7.79378e-10 0)
(0.005 -8.19494e-10 0)
(0.005 -8.60946e-10 0)
(0.005 -9.03749e-10 0)
(0.005 -9.47916e-10 0)
(0.005 -9.93455e-10 0)
(0.005 -1.04038e-09 0)
(0.005 -1.08869e-09 0)
(0.005 -1.13839e-09 0)
(0.005 -1.18949e-09 0)
(0.005 -1.24199e-09 0)
(0.005 -1.29589e-09 0)
(0.005 -1.35118e-09 0)
(0.005 -1.40786e-09 0)
(0.005 -1.46593e-09 0)
(0.005 -1.52537e-09 0)
(0.005 -1.58618e-09 0)
(0.005 -1.64834e-09 0)
(0.005 -1.71184e-09 0)
(0.005 -1.77668e-09 0)
(0.005 -1.84282e-09 0)
(0.005 -1.91027e-09 0)
(0.005 -1.979e-09 0)
(0.005 -2.049e-09 0)
(0.005 -2.12025e-09 0)
(0.005 -2.19274e-09 0)
(0.005 -2.26645e-09 0)
(0.005 -2.34138e-09 0)
(0.005 -2.41752e-09 0)
(0.005 -2.49486e-09 0)
(0.005 -2.5734e-09 0)
(0.005 -2.65314e-09 0)
(0.005 -2.73409e-09 0)
(0.005 -2.81627e-09 0)
(0.005 -2.8997e-09 0)
(0.005 -2.98439e-09 0)
(0.005 -3.07039e-09 0)
(0.005 -3.15774e-09 0)
(0.005 -3.24648e-09 0)
(0.005 -3.33668e-09 0)
(0.00499999 -3.42839e-09 0)
(0.00499999 -3.52167e-09 0)
(0.00499999 -3.6166e-09 0)
(0.00499999 -3.71324e-09 0)
(0.00499999 -3.81164e-09 0)
(0.00499999 -3.91185e-09 0)
(0.00499999 -4.01387e-09 0)
(0.00499999 -4.11769e-09 0)
(0.00499999 -4.22321e-09 0)
(0.00499999 -4.33027e-09 0)
(0.00499999 -4.43857e-09 0)
(0.00499999 -4.54764e-09 0)
(0.00499999 -4.65674e-09 0)
(0.00499999 -4.76482e-09 0)
(0.00499999 -4.87031e-09 0)
(0.00499999 -4.97103e-09 0)
(0.00499999 -5.06389e-09 0)
(0.00499999 -5.14464e-09 0)
(0.00499999 -5.20762e-09 0)
(0.00499999 -5.24564e-09 0)
(0.005 -2.62749e-12 0)
(0.005 -8.43111e-12 0)
(0.005 -1.47418e-11 0)
(0.005 -2.14949e-11 0)
(0.005 -2.86883e-11 0)
(0.005 -3.63289e-11 0)
(0.005 -4.44251e-11 0)
(0.005 -5.29875e-11 0)
(0.005 -6.20289e-11 0)
(0.005 -7.15647e-11 0)
(0.005 -8.16123e-11 0)
(0.005 -9.21911e-11 0)
(0.005 -1.03322e-10 0)
(0.005 -1.15027e-10 0)
(0.005 -1.2733e-10 0)
(0.005 -1.40254e-10 0)
(0.005 -1.53824e-10 0)
(0.005 -1.68067e-10 0)
(0.005 -1.83007e-10 0)
(0.005 -1.98671e-10 0)
(0.005 -2.15085e-10 0)
(0.005 -2.32275e-10 0)
(0.005 -2.50269e-10 0)
(0.005 -2.69092e-10 0)