/*--------------------------------*- C++ -*----------------------------------*\
  =========                 |
  \\      /  F ield         | OpenFOAM: The Open Source CFD Toolbox
   \\    /   O peration     | Website:  https://openfoam.org
    \\  /    A nd           | Version:  11
     \\/     M anipulation  |
\*---------------------------------------------------------------------------*/
FoamFile
{
    format      ascii;
    class       surfaceScalarField;
    location    "1788";
    object      phi;
}
// * * * * * * * * * * * * * * * * * * * * * * * * * * * * * * * * * * * * * //

dimensions      [0 3 -1 0 0 0 0];

internalField   nonuniform List<scalar> 
19800
(
2e-05
-1.95627e-16
2e-05
-5.52857e-16
2e-05
-8.93778e-16
2e-05
-1.23442e-15
2e-05
-1.58279e-15
2e-05
-1.9435e-15
2e-05
-2.3203e-15
2e-05
-2.71636e-15
2e-05
-3.13457e-15
2e-05
-3.57763e-15
2e-05
-4.04814e-15
2e-05
-4.54866e-15
2e-05
-5.08176e-15
2e-05
-5.65003e-15
2e-05
-6.2561e-15
2e-05
-6.90269e-15
2e-05
-7.59258e-15
2e-05
-8.32866e-15
2e-05
-9.11393e-15
2e-05
-9.9515e-15
2e-05
-1.08446e-14
2e-05
-1.17966e-14
2e-05
-1.2811e-14
2e-05
-1.38914e-14
2e-05
-1.50417e-14
2e-05
-1.62659e-14
2e-05
-1.7568e-14
2e-05
-1.89524e-14
2e-05
-2.04236e-14
2e-05
-2.19862e-14
2e-05
-2.36451e-14
2e-05
-2.54054e-14
2e-05
-2.72724e-14
2e-05
-2.92514e-14
2e-05
-3.13482e-14
2e-05
-3.35687e-14
2e-05
-3.59188e-14
2e-05
-3.8405e-14
2e-05
-4.10338e-14
2e-05
-4.38119e-14
2e-05
-4.67462e-14
2e-05
-4.98441e-14
2e-05
-5.31128e-14
2e-05
-5.656e-14
2e-05
-6.01936e-14
2e-05
-6.40216e-14
2e-05
-6.80522e-14
2e-05
-7.2294e-14
2e-05
-7.67556e-14
2e-05
-8.14458e-14
2e-05
-8.63736e-14
2e-05
-9.15484e-14
2e-05
-9.69793e-14
2e-05
-1.02676e-13
2e-05
-1.08648e-13
2e-05
-1.14904e-13
2e-05
-1.21455e-13
2e-05
-1.28311e-13
2e-05
-1.35481e-13
2e-05
-1.42974e-13
2e-05
-1.50802e-13
2e-05
-1.58972e-13
2e-05
-1.67495e-13
2e-05
-1.76379e-13
2e-05
-1.85634e-13
2e-05
-1.95268e-13
2e-05
-2.05289e-13
2e-05
-2.15705e-13
2e-05
-2.26522e-13
2e-05
-2.37746e-13
2e-05
-2.49383e-13
2e-05
-2.61436e-13
2e-05
-2.73908e-13
2e-05
-2.86801e-13
2e-05
-3.00114e-13
2e-05
-3.13845e-13
2e-05
-3.27988e-13
2e-05
-3.42537e-13
2e-05
-3.5748e-13
2e-05
-3.72802e-13
2e-05
-3.88485e-13
2e-05
-4.04504e-13
2e-05
-4.2083e-13
2e-05
-4.37424e-13
2e-05
-4.5424e-13
2e-05
-4.71223e-13
2e-05
-4.88303e-13
2e-05
-5.054e-13
2e-05
-5.22414e-13
2e-05
-5.39227e-13
2e-05
-5.55697e-13
2e-05
-5.71657e-13
2e-05
-5.8691e-13
2e-05
-6.01224e-13
2e-05
-6.14334e-13
2e-05
-6.25939e-13
2e-05
-6.35709e-13
2e-05
-6.43298e-13
2e-05
-6.48435e-13
-6.51302e-13
2e-05
-1.68961e-16
2e-05
-4.96477e-16
2e-05
-8.18367e-16
2e-05
-1.14287e-15
2e-05
-1.47545e-15
2e-05
-1.82004e-15
2e-05
-2.17998e-15
2e-05
-2.55826e-15
2e-05
-2.95759e-15
2e-05
-3.38057e-15
2e-05
-3.82968e-15
2e-05
-4.30739e-15
2e-05
-4.81616e-15
2e-05
-5.35846e-15
2e-05
-5.93685e-15
2e-05
-6.55392e-15
2e-05
-7.21236e-15
2e-05
-7.91493e-15
2e-05
-8.66451e-15
2e-05
-9.4641e-15
2e-05
-1.03168e-14
2e-05
-1.12259e-14
2e-05
-1.21946e-14
2e-05
-1.32267e-14
2e-05
-1.43256e-14
2e-05
-1.54953e-14
2e-05
-1.67397e-14
2e-05
-1.80629e-14
2e-05
-1.94694e-14
2e-05
-2.09636e-14
2e-05
-2.25502e-14
2e-05
-2.42341e-14
2e-05
-2.60204e-14
2e-05
-2.79143e-14
2e-05
-2.99214e-14
2e-05
-3.20473e-14
2e-05
-3.42979e-14
2e-05
-3.66794e-14
2e-05
-3.9198e-14
2e-05
-4.18603e-14
2e-05
-4.46731e-14
2e-05
-4.76434e-14
2e-05
-5.07783e-14
2e-05
-5.40854e-14
2e-05
-5.75721e-14
2e-05
-6.12464e-14
2e-05
-6.51164e-14
2e-05
-6.91903e-14
2e-05
-7.34766e-14
2e-05
-7.79839e-14
2e-05
-8.27212e-14
2e-05
-8.76974e-14
2e-05
-9.29217e-14
2e-05
-9.84034e-14
2e-05
-1.04152e-13
2e-05
-1.10177e-13
2e-05
-1.16489e-13
2e-05
-1.23096e-13
2e-05
-1.30009e-13
2e-05
-1.37237e-13
2e-05
-1.44791e-13
2e-05
-1.52679e-13
2e-05
-1.60912e-13
2e-05
-1.69498e-13
2e-05
-1.78448e-13
2e-05
-1.87769e-13
2e-05
-1.9747e-13
2e-05
-2.0756e-13
2e-05
-2.18046e-13
2e-05
-2.28935e-13
2e-05
-2.40232e-13
2e-05
-2.51943e-13
2e-05
-2.64072e-13
2e-05
-2.76622e-13
2e-05
-2.89593e-13
2e-05
-3.02986e-13
2e-05
-3.16798e-13
2e-05
-3.31023e-13
2e-05
-3.45653e-13
2e-05
-3.60678e-13
2e-05
-3.76082e-13
2e-05
-3.91844e-13
2e-05
-4.0794e-13
2e-05
-4.24337e-13
2e-05
-4.40994e-13
2e-05
-4.57863e-13
2e-05
-4.74882e-13
2e-05
-4.91979e-13
2e-05
-5.09063e-13
2e-05
-5.26027e-13
2e-05
-5.42741e-13
2e-05
-5.59051e-13
2e-05
-5.74773e-13
2e-05
-5.89692e-13
2e-05
-6.03557e-13
2e-05
-6.16083e-13
2e-05
-6.2695e-13
2e-05
-6.35801e-13
2e-05
-6.42315e-13
-6.46422e-13
2e-05
-1.48882e-16
2e-05
-4.46563e-16
2e-05
-7.46719e-16
2e-05
-1.05332e-15
2e-05
-1.36927e-15
2e-05
-1.69735e-15
2e-05
-2.04034e-15
2e-05
-2.40086e-15
2e-05
-2.78143e-15
2e-05
-3.18447e-15
2e-05
-3.61237e-15
2e-05
-4.06746e-15
2e-05
-4.55209e-15
2e-05
-5.06866e-15
2e-05
-5.6196e-15
2e-05
-6.20739e-15
2e-05
-6.83462e-15
2e-05
-7.50395e-15
2e-05
-8.21813e-15
2e-05
-8.98004e-15
2e-05
-9.79267e-15
2e-05
-1.06591e-14
2e-05
-1.15826e-14
2e-05
-1.25666e-14
2e-05
-1.36145e-14
2e-05
-1.47301e-14
2e-05
-1.59172e-14
2e-05
-1.71798e-14
2e-05
-1.85221e-14
2e-05
-1.99483e-14
2e-05
-2.14631e-14
2e-05
-2.30712e-14
2e-05
-2.47773e-14
2e-05
-2.65868e-14
2e-05
-2.85048e-14
2e-05
-3.05368e-14
2e-05
-3.26886e-14
2e-05
-3.4966e-14
2e-05
-3.73753e-14
2e-05
-3.99227e-14
2e-05
-4.26148e-14
2e-05
-4.54584e-14
2e-05
-4.84604e-14
2e-05
-5.16282e-14
2e-05
-5.49691e-14
2e-05
-5.84908e-14
2e-05
-6.22012e-14
2e-05
-6.61084e-14
2e-05
-7.02205e-14
2e-05
-7.45463e-14
2e-05
-7.90942e-14
2e-05
-8.38731e-14
2e-05
-8.88922e-14
2e-05
-9.41606e-14
2e-05
-9.96877e-14
2e-05
-1.05483e-13
2e-05
-1.11556e-13
2e-05
-1.17916e-13
2e-05
-1.24574e-13
2e-05
-1.31539e-13
2e-05
-1.3882e-13
2e-05
-1.46428e-13
2e-05
-1.54372e-13
2e-05
-1.62663e-13
2e-05
-1.71308e-13
2e-05
-1.80319e-13
2e-05
-1.89703e-13
2e-05
-1.99469e-13
2e-05
-2.09625e-13
2e-05
-2.2018e-13
2e-05
-2.31139e-13
2e-05
-2.4251e-13
2e-05
-2.54297e-13
2e-05
-2.66504e-13
2e-05
-2.79135e-13
2e-05
-2.92191e-13
2e-05
-3.05671e-13
2e-05
-3.19573e-13
2e-05
-3.33892e-13
2e-05
-3.48618e-13
2e-05
-3.63742e-13
2e-05
-3.79245e-13
2e-05
-3.95109e-13
2e-05
-4.11304e-13
2e-05
-4.27797e-13
2e-05
-4.44546e-13
2e-05
-4.61495e-13
2e-05
-4.7858e-13
2e-05
-4.95721e-13
2e-05
-5.12818e-13
2e-05
-5.29752e-13
2e-05
-5.46381e-13
2e-05
-5.62531e-13
2e-05
-5.77998e-13
2e-05
-5.92539e-13
2e-05
-6.05869e-13
2e-05
-6.17655e-13
2e-05
-6.27502e-13
2e-05
-6.34998e-13
-6.39924e-13
2e-05
-1.32565e-16
2e-05
-4.02704e-16
2e-05
-6.80206e-16
2e-05
-9.67486e-16
2e-05
-1.26577e-15
2e-05
-1.57671e-15
2e-05
-1.90239e-15
2e-05
-2.24502e-15
2e-05
-2.60682e-15
2e-05
-2.99003e-15
2e-05
-3.39687e-15
2e-05
-3.82954e-15
2e-05
-4.29029e-15
2e-05
-4.78139e-15
2e-05
-5.30516e-15
2e-05
-5.864e-15
2e-05
-6.46035e-15
2e-05
-7.09679e-15
2e-05
-7.77595e-15
2e-05
-8.50059e-15
2e-05
-9.27356e-15
2e-05
-1.00979e-14
2e-05
-1.09766e-14
2e-05
-1.1913e-14
2e-05
-1.29105e-14
2e-05
-1.39726e-14
2e-05
-1.5103e-14
2e-05
-1.63055e-14
2e-05
-1.75842e-14
2e-05
-1.89432e-14
2e-05
-2.03869e-14
2e-05
-2.19198e-14
2e-05
-2.35468e-14
2e-05
-2.52726e-14
2e-05
-2.71024e-14
2e-05
-2.90415e-14
2e-05
-3.10954e-14
2e-05
-3.32699e-14
2e-05
-3.55708e-14
2e-05
-3.80044e-14
2e-05
-4.0577e-14
2e-05
-4.32951e-14
2e-05
-4.61656e-14
2e-05
-4.91955e-14
2e-05
-5.2392e-14
2e-05
-5.57626e-14
2e-05
-5.9315e-14
2e-05
-6.3057e-14
2e-05
-6.69967e-14
2e-05
-7.11425e-14
2e-05
-7.55029e-14
2e-05
-8.00865e-14
2e-05
-8.49023e-14
2e-05
-8.99594e-14
2e-05
-9.52669e-14
2e-05
-1.00834e-13
2e-05
-1.06671e-13
2e-05
-1.12787e-13
2e-05
-1.19192e-13
2e-05
-1.25895e-13
2e-05
-1.32907e-13
2e-05
-1.40237e-13
2e-05
-1.47895e-13
2e-05
-1.55892e-13
2e-05
-1.64236e-13
2e-05
-1.72938e-13
2e-05
-1.82007e-13
2e-05
-1.91452e-13
2e-05
-2.01282e-13
2e-05
-2.11505e-13
2e-05
-2.22129e-13
2e-05
-2.33161e-13
2e-05
-2.44608e-13
2e-05
-2.56475e-13
2e-05
-2.68768e-13
2e-05
-2.81488e-13
2e-05
-2.94638e-13
2e-05
-3.08217e-13
2e-05
-3.22223e-13
2e-05
-3.36651e-13
2e-05
-3.51492e-13
2e-05
-3.66735e-13
2e-05
-3.82362e-13
2e-05
-3.98351e-13
2e-05
-4.14673e-13
2e-05
-4.31291e-13
2e-05
-4.48159e-13
2e-05
-4.65218e-13
2e-05
-4.82394e-13
2e-05
-4.99599e-13
2e-05
-5.16723e-13
2e-05
-5.33629e-13
2e-05
-5.50153e-13
2e-05
-5.66096e-13
2e-05
-5.81217e-13
2e-05
-5.95221e-13
2e-05
-6.07751e-13
2e-05
-6.1836e-13
2e-05
-6.26523e-13
-6.31799e-13
2e-05
-1.18738e-16
2e-05
-3.63719e-16
2e-05
-6.18846e-16
2e-05
-8.86186e-16
2e-05
-1.16604e-15
2e-05
-1.45922e-15
2e-05
-1.76719e-15
2e-05
-2.09169e-15
2e-05
-2.43466e-15
2e-05
-2.79808e-15
2e-05
-3.18397e-15
2e-05
-3.59443e-15
2e-05
-4.03154e-15
2e-05
-4.49746e-15
2e-05
-4.9944e-15
2e-05
-5.52464e-15
2e-05
-6.09053e-15
2e-05
-6.69452e-15
2e-05
-7.33912e-15
2e-05
-8.02697e-15
2e-05
-8.76082e-15
2e-05
-9.54353e-15
2e-05
-1.03781e-14
2e-05
-1.12676e-14
2e-05
-1.22152e-14
2e-05
-1.32245e-14
2e-05
-1.42989e-14
2e-05
-1.54422e-14
2e-05
-1.66581e-14
2e-05
-1.79508e-14
2e-05
-1.93243e-14
2e-05
-2.07832e-14
2e-05
-2.23318e-14
2e-05
-2.39751e-14
2e-05
-2.57178e-14
2e-05
-2.75652e-14
2e-05
-2.95225e-14
2e-05
-3.15953e-14
2e-05
-3.37893e-14
2e-05
-3.61106e-14
2e-05
-3.85651e-14
2e-05
-4.11594e-14
2e-05
-4.39e-14
2e-05
-4.67937e-14
2e-05
-4.98477e-14
2e-05
-5.3069e-14
2e-05
-5.64653e-14
2e-05
-6.00442e-14
2e-05
-6.38136e-14
2e-05
-6.77817e-14
2e-05
-7.19568e-14
2e-05
-7.63474e-14
2e-05
-8.09624e-14
2e-05
-8.58106e-14
2e-05
-9.09012e-14
2e-05
-9.62435e-14
2e-05
-1.01847e-13
2e-05
-1.07721e-13
2e-05
-1.13876e-13
2e-05
-1.20321e-13
2e-05
-1.27066e-13
2e-05
-1.34121e-13
2e-05
-1.41497e-13
2e-05
-1.49203e-13
2e-05
-1.5725e-13
2e-05
-1.65647e-13
2e-05
-1.74404e-13
2e-05
-1.8353e-13
2e-05
-1.93036e-13
2e-05
-2.02931e-13
2e-05
-2.13222e-13
2e-05
-2.23919e-13
2e-05
-2.35029e-13
2e-05
-2.46559e-13
2e-05
-2.58515e-13
2e-05
-2.70901e-13
2e-05
-2.83722e-13
2e-05
-2.96979e-13
2e-05
-3.10673e-13
2e-05
-3.24801e-13
2e-05
-3.39358e-13
2e-05
-3.54336e-13
2e-05
-3.69722e-13
2e-05
-3.85498e-13
2e-05
-4.0164e-13
2e-05
-4.18117e-13
2e-05
-4.34888e-13
2e-05
-4.51901e-13
2e-05
-4.6909e-13
2e-05
-4.86373e-13
2e-05
-5.03646e-13
2e-05
-5.2078e-13
2e-05
-5.37616e-13
2e-05
-5.53955e-13
2e-05
-5.69552e-13
2e-05
-5.84101e-13
2e-05
-5.97215e-13
2e-05
-6.08395e-13
2e-05
-6.17017e-13
-6.22256e-13
2e-05
-1.06715e-16
2e-05
-3.2864e-16
2e-05
-5.6223e-16
2e-05
-8.09618e-16
2e-05
-1.07068e-15
2e-05
-1.34569e-15
2e-05
-1.63561e-15
2e-05
-1.94178e-15
2e-05
-2.26582e-15
2e-05
-2.60946e-15
2e-05
-2.97453e-15
2e-05
-3.36295e-15
2e-05
-3.77668e-15
2e-05
-4.21774e-15
2e-05
-4.68822e-15
2e-05
-5.19028e-15
2e-05
-5.72616e-15
2e-05
-6.29818e-15
2e-05
-6.90875e-15
2e-05
-7.5604e-15
2e-05
-8.25574e-15
2e-05
-8.9975e-15
2e-05
-9.78855e-15
2e-05
-1.06319e-14
2e-05
-1.15305e-14
2e-05
-1.24878e-14
2e-05
-1.35072e-14
2e-05
-1.45921e-14
2e-05
-1.57463e-14
2e-05
-1.69736e-14
2e-05
-1.82781e-14
2e-05
-1.96639e-14
2e-05
-2.11356e-14
2e-05
-2.26975e-14
2e-05
-2.43545e-14
2e-05
-2.61116e-14
2e-05
-2.79738e-14
2e-05
-2.99465e-14
2e-05
-3.20353e-14
2e-05
-3.42458e-14
2e-05
-3.65842e-14
2e-05
-3.90565e-14
2e-05
-4.16691e-14
2e-05
-4.44288e-14
2e-05
-4.73422e-14
2e-05
-5.04166e-14
2e-05
-5.36591e-14
2e-05
-5.70773e-14
2e-05
-6.06789e-14
2e-05
-6.44719e-14
2e-05
-6.84645e-14
2e-05
-7.2665e-14
2e-05
-7.7082e-14
2e-05
-8.17244e-14
2e-05
-8.66012e-14
2e-05
-9.17216e-14
2e-05
-9.70949e-14
2e-05
-1.02731e-13
2e-05
-1.08639e-13
2e-05
-1.14829e-13
2e-05
-1.21311e-13
2e-05
-1.28096e-13
2e-05
-1.35193e-13
2e-05
-1.42612e-13
2e-05
-1.50365e-13
2e-05
-1.5846e-13
2e-05
-1.66909e-13
2e-05
-1.75722e-13
2e-05
-1.84908e-13
2e-05
-1.94478e-13
2e-05
-2.0444e-13
2e-05
-2.14805e-13
2e-05
-2.25581e-13
2e-05
-2.36776e-13
2e-05
-2.48397e-13
2e-05
-2.60451e-13
2e-05
-2.72945e-13
2e-05
-2.85881e-13
2e-05
-2.99262e-13
2e-05
-3.13089e-13
2e-05
-3.2736e-13
2e-05
-3.42069e-13
2e-05
-3.57208e-13
2e-05
-3.72763e-13
2e-05
-3.88715e-13
2e-05
-4.05037e-13
2e-05
-4.21694e-13
2e-05
-4.3864e-13
2e-05
-4.55813e-13
2e-05
-4.73139e-13
2e-05
-4.90517e-13
2e-05
-5.07825e-13
2e-05
-5.24905e-13
2e-05
-5.41556e-13
2e-05
-5.57528e-13
2e-05
-5.72499e-13
2e-05
-5.86054e-13
2e-05
-5.97645e-13
2e-05
-6.06569e-13
-6.11667e-13
2e-05
-9.60281e-17
2e-05
-2.96759e-16
2e-05
-5.09855e-16
2e-05
-7.37686e-16
2e-05
-9.79963e-16
2e-05
-1.23664e-15
2e-05
-1.50832e-15
2e-05
-1.79604e-15
2e-05
-2.10109e-15
2e-05
-2.42498e-15
2e-05
-2.76936e-15
2e-05
-3.13595e-15
2e-05
-3.52657e-15
2e-05
-3.9431e-15
2e-05
-4.38751e-15
2e-05
-4.86183e-15
2e-05
-5.3682e-15
2e-05
-5.90881e-15
2e-05
-6.48596e-15
2e-05
-7.10204e-15
2e-05
-7.75956e-15
2e-05
-8.46112e-15
2e-05
-9.20947e-15
2e-05
-1.00074e-14
2e-05
-1.0858e-14
2e-05
-1.17643e-14
2e-05
-1.27295e-14
2e-05
-1.37572e-14
2e-05
-1.48507e-14
2e-05
-1.60139e-14
2e-05
-1.72506e-14
2e-05
-1.85648e-14
2e-05
-1.99608e-14
2e-05
-2.14429e-14
2e-05
-2.30158e-14
2e-05
-2.46841e-14
2e-05
-2.64529e-14
2e-05
-2.83273e-14
2e-05
-3.03126e-14
2e-05
-3.24145e-14
2e-05
-3.46387e-14
2e-05
-3.69912e-14
2e-05
-3.94781e-14
2e-05
-4.2106e-14
2e-05
-4.48815e-14
2e-05
-4.78113e-14
2e-05
-5.09028e-14
2e-05
-5.41631e-14
2e-05
-5.75998e-14
2e-05
-6.12207e-14
2e-05
-6.50338e-14
2e-05
-6.90474e-14
2e-05
-7.32699e-14
2e-05
-7.77099e-14
2e-05
-8.23765e-14
2e-05
-8.72786e-14
2e-05
-9.24256e-14
2e-05
-9.7827e-14
2e-05
-1.03493e-13
2e-05
-1.09432e-13
2e-05
-1.15656e-13
2e-05
-1.22173e-13
2e-05
-1.28995e-13
2e-05
-1.36133e-13
2e-05
-1.43595e-13
2e-05
-1.51394e-13
2e-05
-1.59539e-13
2e-05
-1.68042e-13
2e-05
-1.76913e-13
2e-05
-1.86162e-13
2e-05
-1.95799e-13
2e-05
-2.05836e-13
2e-05
-2.16281e-13
2e-05
-2.27144e-13
2e-05
-2.38434e-13
2e-05
-2.50158e-13
2e-05
-2.62325e-13
2e-05
-2.74941e-13
2e-05
-2.88009e-13
2e-05
-3.01534e-13
2e-05
-3.15515e-13
2e-05
-3.29951e-13
2e-05
-3.44837e-13
2e-05
-3.60162e-13
2e-05
-3.75912e-13
2e-05
-3.92064e-13
2e-05
-4.08587e-13
2e-05
-4.2544e-13
2e-05
-4.42568e-13
2e-05
-4.59898e-13
2e-05
-4.77336e-13
2e-05
-4.94761e-13
2e-05
-5.12015e-13
2e-05
-5.28897e-13
2e-05
-5.45147e-13
2e-05
-5.60427e-13
2e-05
-5.74297e-13
2e-05
-5.86169e-13
2e-05
-5.95276e-13
-6.0033e-13
2e-05
-8.63654e-17
2e-05
-2.67539e-16
2e-05
-4.61258e-16
2e-05
-6.70152e-16
2e-05
-8.93923e-16
2e-05
-1.13235e-15
2e-05
-1.38579e-15
2e-05
-1.65502e-15
2e-05
-1.94112e-15
2e-05
-2.24537e-15
2e-05
-2.5692e-15
2e-05
-2.91419e-15
2e-05
-3.28199e-15
2e-05
-3.67436e-15
2e-05
-4.09313e-15
2e-05
-4.54021e-15
2e-05
-5.0176e-15
2e-05
-5.5274e-15
2e-05
-6.07177e-15
2e-05
-6.653e-15
2e-05
-7.27346e-15
2e-05
-7.93565e-15
2e-05
-8.64216e-15
2e-05
-9.39571e-15
2e-05
-1.01992e-14
2e-05
-1.10555e-14
2e-05
-1.19678e-14
2e-05
-1.29393e-14
2e-05
-1.39735e-14
2e-05
-1.50738e-14
2e-05
-1.62441e-14
2e-05
-1.74881e-14
2e-05
-1.881e-14
2e-05
-2.0214e-14
2e-05
-2.17044e-14
2e-05
-2.32858e-14
2e-05
-2.49631e-14
2e-05
-2.67411e-14
2e-05
-2.86252e-14
2e-05
-3.06206e-14
2e-05
-3.27329e-14
2e-05
-3.49679e-14
2e-05
-3.73317e-14
2e-05
-3.98304e-14
2e-05
-4.24706e-14
2e-05
-4.52589e-14
2e-05
-4.82022e-14
2e-05
-5.13077e-14
2e-05
-5.45827e-14
2e-05
-5.80348e-14
2e-05
-6.1672e-14
2e-05
-6.55022e-14
2e-05
-6.95338e-14
2e-05
-7.37753e-14
2e-05
-7.82356e-14
2e-05
-8.29235e-14
2e-05
-8.78484e-14
2e-05
-9.30197e-14
2e-05
-9.84471e-14
2e-05
-1.0414e-13
2e-05
-1.1011e-13
2e-05
-1.16365e-13
2e-05
-1.22918e-13
2e-05
-1.29777e-13
2e-05
-1.36955e-13
2e-05
-1.44462e-13
2e-05
-1.52308e-13
2e-05
-1.60506e-13
2e-05
-1.69065e-13
2e-05
-1.77998e-13
2e-05
-1.87315e-13
2e-05
-1.97027e-13
2e-05
-2.07145e-13
2e-05
-2.1768e-13
2e-05
-2.28641e-13
2e-05
-2.40038e-13
2e-05
-2.5188e-13
2e-05
-2.64175e-13
2e-05
-2.76931e-13
2e-05
-2.90151e-13
2e-05
-3.0384e-13
2e-05
-3.17998e-13
2e-05
-3.32623e-13
2e-05
-3.47708e-13
2e-05
-3.63242e-13
2e-05
-3.79207e-13
2e-05
-3.95576e-13
2e-05
-4.12311e-13
2e-05
-4.2936e-13
2e-05
-4.46656e-13
2e-05
-4.64106e-13
2e-05
-4.81591e-13
2e-05
-4.98953e-13
2e-05
-5.15986e-13
2e-05
-5.32422e-13
2e-05
-5.47912e-13
2e-05
-5.61992e-13
2e-05
-5.74046e-13
2e-05
-5.83252e-13
-5.8838e-13
2e-05
-7.75253e-17
2e-05
-2.40575e-16
2e-05
-4.16039e-16
2e-05
-6.06751e-16
2e-05
-8.12481e-16
2e-05
-1.03293e-15
2e-05
-1.26829e-15
2e-05
-1.51917e-15
2e-05
-1.78644e-15
2e-05
-2.0712e-15
2e-05
-2.37471e-15
2e-05
-2.69838e-15
2e-05
-3.0437e-15
2e-05
-3.41231e-15
2e-05
-3.8059e-15
2e-05
-4.22626e-15
2e-05
-4.67526e-15
2e-05
-5.15489e-15
2e-05
-5.66719e-15
2e-05
-6.21433e-15
2e-05
-6.79856e-15
2e-05
-7.42225e-15
2e-05
-8.08787e-15
2e-05
-8.79803e-15
2e-05
-9.55543e-15
2e-05
-1.03629e-14
2e-05
-1.12235e-14
2e-05
-1.21402e-14
2e-05
-1.31163e-14
2e-05
-1.41553e-14
2e-05
-1.52607e-14
2e-05
-1.64362e-14
2e-05
-1.76856e-14
2e-05
-1.90132e-14
2e-05
-2.0423e-14
2e-05
-2.19195e-14
2e-05
-2.35073e-14
2e-05
-2.51912e-14
2e-05
-2.69762e-14
2e-05
-2.88675e-14
2e-05
-3.08705e-14
2e-05
-3.29907e-14
2e-05
-3.5234e-14
2e-05
-3.76065e-14
2e-05
-4.01143e-14
2e-05
-4.27641e-14
2e-05
-4.55625e-14
2e-05
-4.85165e-14
2e-05
-5.16334e-14
2e-05
-5.49204e-14
2e-05
-5.83853e-14
2e-05
-6.20361e-14
2e-05
-6.58808e-14
2e-05
-6.9928e-14
2e-05
-7.41862e-14
2e-05
-7.86644e-14
2e-05
-8.33717e-14
2e-05
-8.83176e-14
2e-05
-9.35115e-14
2e-05
-9.89635e-14
2e-05
-1.04684e-13
2e-05
-1.10682e-13
2e-05
-1.1697e-13
2e-05
-1.23557e-13
2e-05
-1.30455e-13
2e-05
-1.37674e-13
2e-05
-1.45227e-13
2e-05
-1.53125e-13
2e-05
-1.61378e-13
2e-05
-1.7e-13
2e-05
-1.79001e-13
2e-05
-1.88393e-13
2e-05
-1.98188e-13
2e-05
-2.08397e-13
2e-05
-2.19033e-13
2e-05
-2.30105e-13
2e-05
-2.41623e-13
2e-05
-2.53599e-13
2e-05
-2.6604e-13
2e-05
-2.78954e-13
2e-05
-2.92346e-13
2e-05
-3.06221e-13
2e-05
-3.20577e-13
2e-05
-3.35412e-13
2e-05
-3.50717e-13
2e-05
-3.66477e-13
2e-05
-3.82669e-13
2e-05
-3.99259e-13
2e-05
-4.16198e-13
2e-05
-4.33419e-13
2e-05
-4.50835e-13
2e-05
-4.68324e-13
2e-05
-4.85728e-13
2e-05
-5.02839e-13
2e-05
-5.19381e-13
2e-05
-5.34992e-13
2e-05
-5.49196e-13
2e-05
-5.61354e-13
2e-05
-5.70625e-13
-5.75905e-13
2e-05
-6.9372e-17
2e-05
-2.15579e-16
2e-05
-3.73857e-16
2e-05
-5.47212e-16
2e-05
-7.35494e-16
2e-05
-9.38377e-16
2e-05
-1.15598e-15
2e-05
-1.38876e-15
2e-05
-1.63745e-15
2e-05
-1.90297e-15
2e-05
-2.18645e-15
2e-05
-2.48912e-15
2e-05
-2.81236e-15
2e-05
-3.15765e-15
2e-05
-3.52656e-15
2e-05
-3.92076e-15
2e-05
-4.342e-15
2e-05
-4.79215e-15
2e-05
-5.27313e-15
2e-05
-5.787e-15
2e-05
-6.33587e-15
2e-05
-6.92202e-15
2e-05
-7.54777e-15
2e-05
-8.21562e-15
2e-05
-8.92813e-15
2e-05
-9.68801e-15
2e-05
-1.04981e-14
2e-05
-1.13614e-14
2e-05
-1.2281e-14
2e-05
-1.32601e-14
2e-05
-1.43022e-14
2e-05
-1.54109e-14
2e-05
-1.65898e-14
2e-05
-1.78428e-14
2e-05
-1.91741e-14
2e-05
-2.05878e-14
2e-05
-2.20884e-14
2e-05
-2.36805e-14
2e-05
-2.53689e-14
2e-05
-2.71586e-14
2e-05
-2.90548e-14
2e-05
-3.1063e-14
2e-05
-3.31888e-14
2e-05
-3.54381e-14
2e-05
-3.78169e-14
2e-05
-4.03315e-14
2e-05
-4.29885e-14
2e-05
-4.57946e-14
2e-05
-4.8757e-14
2e-05
-5.18828e-14
2e-05
-5.51795e-14
2e-05
-5.8655e-14
2e-05
-6.23172e-14
2e-05
-6.61744e-14
2e-05
-7.02352e-14
2e-05
-7.45084e-14
2e-05
-7.9003e-14
2e-05
-8.37283e-14
2e-05
-8.8694e-14
2e-05
-9.39098e-14
2e-05
-9.93859e-14
2e-05
-1.05133e-13
2e-05
-1.11161e-13
2e-05
-1.17481e-13
2e-05
-1.24105e-13
2e-05
-1.31043e-13
2e-05
-1.38307e-13
2e-05
-1.4591e-13
2e-05
-1.53863e-13
2e-05
-1.62178e-13
2e-05
-1.70868e-13
2e-05
-1.79944e-13
2e-05
-1.8942e-13
2e-05
-1.99309e-13
2e-05
-2.09621e-13
2e-05
-2.2037e-13
2e-05
-2.31567e-13
2e-05
-2.43224e-13
2e-05
-2.5535e-13
2e-05
-2.67955e-13
2e-05
-2.81047e-13
2e-05
-2.94631e-13
2e-05
-3.08711e-13
2e-05
-3.23284e-13
2e-05
-3.38346e-13
2e-05
-3.53884e-13
2e-05
-3.69877e-13
2e-05
-3.86294e-13
2e-05
-4.03089e-13
2e-05
-4.20198e-13
2e-05
-4.37533e-13
2e-05
-4.54974e-13
2e-05
-4.72361e-13
2e-05
-4.89482e-13
2e-05
-5.06056e-13
2e-05
-5.21714e-13
2e-05
-5.35968e-13
2e-05
-5.48175e-13
2e-05
-5.57497e-13
-5.62929e-13
2e-05
-6.18156e-17
2e-05
-1.92326e-16
2e-05
-3.34443e-16
2e-05
-4.91291e-16
2e-05
-6.62799e-16
2e-05
-8.48662e-16
2e-05
-1.04894e-15
2e-05
-1.26399e-15
2e-05
-1.49443e-15
2e-05
-1.74106e-15
2e-05
-2.00485e-15
2e-05
-2.28693e-15
2e-05
-2.58852e-15
2e-05
-2.91099e-15
2e-05
-3.25578e-15
2e-05
-3.62443e-15
2e-05
-4.01859e-15
2e-05
-4.43999e-15
2e-05
-4.89045e-15
2e-05
-5.3719e-15
2e-05
-5.88636e-15
2e-05
-6.43596e-15
2e-05
-7.02292e-15
2e-05
-7.64959e-15
2e-05
-8.31843e-15
2e-05
-9.03202e-15
2e-05
-9.79305e-15
2e-05
-1.06044e-14
2e-05
-1.1469e-14
2e-05
-1.23899e-14
2e-05
-1.33705e-14
2e-05
-1.44141e-14
2e-05
-1.55243e-14
2e-05
-1.67049e-14
2e-05
-1.79597e-14
2e-05
-1.92929e-14
2e-05
-2.07086e-14
2e-05
-2.22114e-14
2e-05
-2.38058e-14
2e-05
-2.54966e-14
2e-05
-2.72891e-14
2e-05
-2.91882e-14
2e-05
-3.11996e-14
2e-05
-3.33289e-14
2e-05
-3.55819e-14
2e-05
-3.79649e-14
2e-05
-4.04841e-14
2e-05
-4.31463e-14
2e-05
-4.59581e-14
2e-05
-4.89267e-14
2e-05
-5.20596e-14
2e-05
-5.53642e-14
2e-05
-5.88484e-14
2e-05
-6.25204e-14
2e-05
-6.63886e-14
2e-05
-7.04617e-14
2e-05
-7.47487e-14
2e-05
-7.92587e-14
2e-05
-8.40014e-14
2e-05
-8.89866e-14
2e-05
-9.42243e-14
2e-05
-9.9725e-14
2e-05
-1.05499e-13
2e-05
-1.11558e-13
2e-05
-1.17913e-13
2e-05
-1.24576e-13
2e-05
-1.31558e-13
2e-05
-1.38871e-13
2e-05
-1.46529e-13
2e-05
-1.54543e-13
2e-05
-1.62926e-13
2e-05
-1.71692e-13
2e-05
-1.80853e-13
2e-05
-1.90424e-13
2e-05
-2.00416e-13
2e-05
-2.10845e-13
2e-05
-2.21721e-13
2e-05
-2.33059e-13
2e-05
-2.44869e-13
2e-05
-2.57164e-13
2e-05
-2.69951e-13
2e-05
-2.83239e-13
2e-05
-2.97033e-13
2e-05
-3.11334e-13
2e-05
-3.26138e-13
2e-05
-3.41435e-13
2e-05
-3.57207e-13
2e-05
-3.73426e-13
2e-05
-3.90046e-13
2e-05
-4.07005e-13
2e-05
-4.24215e-13
2e-05
-4.41559e-13
2e-05
-4.58873e-13
2e-05
-4.75944e-13
2e-05
-4.92488e-13
2e-05
-5.08129e-13
2e-05
-5.22376e-13
2e-05
-5.34586e-13
2e-05
-5.43935e-13
-5.49447e-13
2e-05
-5.47847e-17
2e-05
-1.7065e-16
2e-05
-2.97576e-16
2e-05
-4.38777e-16
2e-05
-5.94241e-16
2e-05
-7.63694e-16
2e-05
-9.47172e-16
2e-05
-1.14496e-15
2e-05
-1.35759e-15
2e-05
-1.58575e-15
2e-05
-1.8303e-15
2e-05
-2.09224e-15
2e-05
-2.37269e-15
2e-05
-2.67288e-15
2e-05
-2.99414e-15
2e-05
-3.3379e-15
2e-05
-3.70568e-15
2e-05
-4.09912e-15
2e-05
-4.5199e-15
2e-05
-4.96985e-15
2e-05
-5.45088e-15
2e-05
-5.96498e-15
2e-05
-6.51428e-15
2e-05
-7.10098e-15
2e-05
-7.72744e-15
2e-05
-8.39609e-15
2e-05
-9.10951e-15
2e-05
-9.8704e-15
2e-05
-1.06816e-14
2e-05
-1.15461e-14
2e-05
-1.24669e-14
2e-05
-1.34475e-14
2e-05
-1.4491e-14
2e-05
-1.56013e-14
2e-05
-1.67819e-14
2e-05
-1.80369e-14
2e-05
-1.93702e-14
2e-05
-2.07862e-14
2e-05
-2.22893e-14
2e-05
-2.38842e-14
2e-05
-2.55758e-14
2e-05
-2.7369e-14
2e-05
-2.92693e-14
2e-05
-3.1282e-14
2e-05
-3.34128e-14
2e-05
-3.56678e-14
2e-05
-3.80532e-14
2e-05
-4.05752e-14
2e-05
-4.32407e-14
2e-05
-4.60565e-14
2e-05
-4.90298e-14
2e-05
-5.21681e-14
2e-05
-5.54791e-14
2e-05
-5.89708e-14
2e-05
-6.26515e-14
2e-05
-6.65297e-14
2e-05
-7.06144e-14
2e-05
-7.49146e-14
2e-05
-7.94399e-14
2e-05
-8.42e-14
2e-05
-8.92051e-14
2e-05
-9.44655e-14
2e-05
-9.99921e-14
2e-05
-1.05796e-13
2e-05
-1.11888e-13
2e-05
-1.18281e-13
2e-05
-1.24986e-13
2e-05
-1.32016e-13
2e-05
-1.39383e-13
2e-05
-1.47102e-13
2e-05
-1.55184e-13
2e-05
-1.63643e-13
2e-05
-1.72494e-13
2e-05
-1.81751e-13
2e-05
-1.91427e-13
2e-05
-2.01537e-13
2e-05
-2.12094e-13
2e-05
-2.23114e-13
2e-05
-2.34607e-13
2e-05
-2.46588e-13
2e-05
-2.59067e-13
2e-05
-2.72053e-13
2e-05
-2.85552e-13
2e-05
-2.99569e-13
2e-05
-3.14101e-13
2e-05
-3.2914e-13
2e-05
-3.4467e-13
2e-05
-3.60664e-13
2e-05
-3.77078e-13
2e-05
-3.93852e-13
2e-05
-4.10898e-13
2e-05
-4.28098e-13
2e-05
-4.45291e-13
2e-05
-4.62258e-13
2e-05
-4.78716e-13
2e-05
-4.94286e-13
2e-05
-5.08477e-13
2e-05
-5.20649e-13
2e-05
-5.29989e-13
-5.35517e-13
2e-05
-4.8238e-17
2e-05
-1.50422e-16
2e-05
-2.63085e-16
2e-05
-3.89479e-16
2e-05
-5.29662e-16
2e-05
-6.83379e-16
2e-05
-8.50649e-16
2e-05
-1.03173e-15
2e-05
-1.22705e-15
2e-05
-1.43724e-15
2e-05
-1.66306e-15
2e-05
-1.9054e-15
2e-05
-2.16526e-15
2e-05
-2.44377e-15
2e-05
-2.74215e-15
2e-05
-3.06172e-15
2e-05
-3.40389e-15
2e-05
-3.77017e-15
2e-05
-4.16217e-15
2e-05
-4.58158e-15
2e-05
-5.03019e-15
2e-05
-5.5099e-15
2e-05
-6.0227e-15
2e-05
-6.5707e-15
2e-05
-7.1561e-15
2e-05
-7.78124e-15
2e-05
-8.44855e-15
2e-05
-9.16061e-15
2e-05
-9.92012e-15
2e-05
-1.07299e-14
2e-05
-1.1593e-14
2e-05
-1.25124e-14
2e-05
-1.34914e-14
2e-05
-1.45336e-14
2e-05
-1.56423e-14
2e-05
-1.68215e-14
2e-05
-1.8075e-14
2e-05
-1.9407e-14
2e-05
-2.08216e-14
2e-05
-2.23235e-14
2e-05
-2.39173e-14
2e-05
-2.56079e-14
2e-05
-2.74004e-14
2e-05
-2.93e-14
2e-05
-3.13124e-14
2e-05
-3.34433e-14
2e-05
-3.56987e-14
2e-05
-3.80848e-14
2e-05
-4.06082e-14
2e-05
-4.32756e-14
2e-05
-4.60941e-14
2e-05
-4.90709e-14
2e-05
-5.22135e-14
2e-05
-5.553e-14
2e-05
-5.90283e-14
2e-05
-6.2717e-14
2e-05
-6.66049e-14
2e-05
-7.07009e-14
2e-05
-7.50145e-14
2e-05
-7.95555e-14
2e-05
-8.43338e-14
2e-05
-8.936e-14
2e-05
-9.46448e-14
2e-05
-1.00199e-13
2e-05
-1.06035e-13
2e-05
-1.12164e-13
2e-05
-1.18598e-13
2e-05
-1.25351e-13
2e-05
-1.32434e-13
2e-05
-1.39862e-13
2e-05
-1.47648e-13
2e-05
-1.55806e-13
2e-05
-1.64351e-13
2e-05
-1.73298e-13
2e-05
-1.8266e-13
2e-05
-1.92454e-13
2e-05
-2.02694e-13
2e-05
-2.13395e-13
2e-05
-2.24571e-13
2e-05
-2.36235e-13
2e-05
-2.48401e-13
2e-05
-2.61079e-13
2e-05
-2.74276e-13
2e-05
-2.87997e-13
2e-05
-3.02243e-13
2e-05
-3.17007e-13
2e-05
-3.32274e-13
2e-05
-3.48018e-13
2e-05
-3.64199e-13
2e-05
-3.80754e-13
2e-05
-3.97599e-13
2e-05
-4.14615e-13
2e-05
-4.31639e-13
2e-05
-4.48456e-13
2e-05
-4.64779e-13
2e-05
-4.80231e-13
2e-05
-4.94322e-13
2e-05
-5.06417e-13
2e-05
-5.15711e-13
-5.21218e-13
2e-05
-4.21348e-17
2e-05
-1.31542e-16
2e-05
-2.30824e-16
2e-05
-3.43245e-16
2e-05
-4.68914e-16
2e-05
-6.07599e-16
2e-05
-7.5932e-16
2e-05
-9.24288e-16
2e-05
-1.1029e-15
2e-05
-1.29569e-15
2e-05
-1.50335e-15
2e-05
-1.72666e-15
2e-05
-1.96655e-15
2e-05
-2.22403e-15
2e-05
-2.50022e-15
2e-05
-2.79635e-15
2e-05
-3.11371e-15
2e-05
-3.45371e-15
2e-05
-3.81784e-15
2e-05
-4.2077e-15
2e-05
-4.62497e-15
2e-05
-5.07142e-15
2e-05
-5.54896e-15
2e-05
-6.05954e-15
2e-05
-6.60527e-15
2e-05
-7.18836e-15
2e-05
-7.81113e-15
2e-05
-8.47602e-15
2e-05
-9.18559e-15
2e-05
-9.94256e-15
2e-05
-1.07497e-14
2e-05
-1.16101e-14
2e-05
-1.25268e-14
2e-05
-1.35031e-14
2e-05
-1.45424e-14
2e-05
-1.56484e-14
2e-05
-1.68247e-14
2e-05
-1.80754e-14
2e-05
-1.94045e-14
2e-05
-2.08165e-14
2e-05
-2.23157e-14
2e-05
-2.39069e-14
2e-05
-2.55951e-14
2e-05
-2.73853e-14
2e-05
-2.9283e-14
2e-05
-3.12937e-14
2e-05
-3.34233e-14
2e-05
-3.56778e-14
2e-05
-3.80635e-14
2e-05
-4.05871e-14
2e-05
-4.32554e-14
2e-05
-4.60756e-14
2e-05
-4.9055e-14
2e-05
-5.22014e-14
2e-05
-5.55228e-14
2e-05
-5.90275e-14
2e-05
-6.27241e-14
2e-05
-6.66217e-14
2e-05
-7.07295e-14
2e-05
-7.50573e-14
2e-05
-7.9615e-14
2e-05
-8.4413e-14
2e-05
-8.94622e-14
2e-05
-9.47737e-14
2e-05
-1.00359e-13
2e-05
-1.0623e-13
2e-05
-1.124e-13
2e-05
-1.18881e-13
2e-05
-1.25686e-13
2e-05
-1.32829e-13
2e-05
-1.40324e-13
2e-05
-1.48186e-13
2e-05
-1.56429e-13
2e-05
-1.65069e-13
2e-05
-1.74121e-13
2e-05
-1.83602e-13
2e-05
-1.93525e-13
2e-05
-2.03908e-13
2e-05
-2.14766e-13
2e-05
-2.26112e-13
2e-05
-2.3796e-13
2e-05
-2.50323e-13
2e-05
-2.6321e-13
2e-05
-2.76626e-13
2e-05
-2.90572e-13
2e-05
-3.05045e-13
2e-05
-3.20029e-13
2e-05
-3.35501e-13
2e-05
-3.5142e-13
2e-05
-3.67726e-13
2e-05
-3.84335e-13
2e-05
-4.01129e-13
2e-05
-4.17945e-13
2e-05
-4.34568e-13
2e-05
-4.50713e-13
2e-05
-4.66005e-13
2e-05
-4.79956e-13
2e-05
-4.91939e-13
2e-05
-5.01154e-13
-5.06617e-13
2e-05
-3.64474e-17
2e-05
-1.13928e-16
2e-05
-2.00671e-16
2e-05
-2.99939e-16
2e-05
-4.1187e-16
2e-05
-5.36254e-16
2e-05
-6.7311e-16
2e-05
-8.22629e-16
2e-05
-9.85157e-16
2e-05
-1.16118e-15
2e-05
-1.3513e-15
2e-05
-1.55623e-15
2e-05
-1.77682e-15
2e-05
-2.01397e-15
2e-05
-2.26871e-15
2e-05
-2.54218e-15
2e-05
-2.83557e-15
2e-05
-3.15019e-15
2e-05
-3.48743e-15
2e-05
-3.84877e-15
2e-05
-4.2358e-15
2e-05
-4.65018e-15
2e-05
-5.09369e-15
2e-05
-5.5682e-15
2e-05
-6.07569e-15
2e-05
-6.61825e-15
2e-05
-7.19808e-15
2e-05
-7.81749e-15
2e-05
-8.47893e-15
2e-05
-9.18496e-15
2e-05
-9.93829e-15
2e-05
-1.07417e-14
2e-05
-1.15983e-14
2e-05
-1.25111e-14
2e-05
-1.34835e-14
2e-05
-1.45188e-14
2e-05
-1.56207e-14
2e-05
-1.67929e-14
2e-05
-1.80395e-14
2e-05
-1.93646e-14
2e-05
-2.07726e-14
2e-05
-2.22679e-14
2e-05
-2.38553e-14
2e-05
-2.55399e-14
2e-05
-2.73267e-14
2e-05
-2.92213e-14
2e-05
-3.12292e-14
2e-05
-3.33564e-14
2e-05
-3.5609e-14
2e-05
-3.79935e-14
2e-05
-4.05165e-14
2e-05
-4.3185e-14
2e-05
-4.60063e-14
2e-05
-4.8988e-14
2e-05
-5.21379e-14
2e-05
-5.54641e-14
2e-05
-5.89753e-14
2e-05
-6.26803e-14
2e-05
-6.65883e-14
2e-05
-7.0709e-14
2e-05
-7.50522e-14
2e-05
-7.96283e-14
2e-05
-8.44482e-14
2e-05
-8.9523e-14
2e-05
-9.48642e-14
2e-05
-1.00484e-13
2e-05
-1.06395e-13
2e-05
-1.1261e-13
2e-05
-1.19142e-13
2e-05
-1.26006e-13
2e-05
-1.33216e-13
2e-05
-1.40786e-13
2e-05
-1.48732e-13
2e-05
-1.5707e-13
2e-05
-1.65815e-13
2e-05
-1.74984e-13
2e-05
-1.84593e-13
2e-05
-1.94658e-13
2e-05
-2.05196e-13
2e-05
-2.16222e-13
2e-05
-2.27749e-13
2e-05
-2.39792e-13
2e-05
-2.5236e-13
2e-05
-2.6546e-13
2e-05
-2.79095e-13
2e-05
-2.9326e-13
2e-05
-3.07943e-13
2e-05
-3.23121e-13
2e-05
-3.38754e-13
2e-05
-3.54783e-13
2e-05
-3.71125e-13
2e-05
-3.87662e-13
2e-05
-4.04233e-13
2e-05
-4.20625e-13
2e-05
-4.36553e-13
2e-05
-4.51647e-13
2e-05
-4.65423e-13
2e-05
-4.77262e-13
2e-05
-4.86372e-13
-4.91773e-13
2e-05
-3.1151e-17
2e-05
-9.7511e-17
2e-05
-1.7253e-16
2e-05
-2.59442e-16
2e-05
-3.58406e-16
2e-05
-4.69235e-16
2e-05
-5.91945e-16
2e-05
-7.26707e-16
2e-05
-8.73831e-16
2e-05
-1.03375e-15
2e-05
-1.207e-15
2e-05
-1.39425e-15
2e-05
-1.59623e-15
2e-05
-1.8138e-15
2e-05
-2.04789e-15
2e-05
-2.29952e-15
2e-05
-2.56983e-15
2e-05
-2.86e-15
2e-05
-3.17134e-15
2e-05
-3.50524e-15
2e-05
-3.86316e-15
2e-05
-4.24668e-15
2e-05
-4.65746e-15
2e-05
-5.09727e-15
2e-05
-5.56798e-15
2e-05
-6.07156e-15
2e-05
-6.61008e-15
2e-05
-7.18576e-15
2e-05
-7.80089e-15
2e-05
-8.45794e-15
2e-05
-9.15945e-15
2e-05
-9.90815e-15
2e-05
-1.07069e-14
2e-05
-1.15586e-14
2e-05
-1.24665e-14
2e-05
-1.34338e-14
2e-05
-1.4464e-14
2e-05
-1.55608e-14
2e-05
-1.67279e-14
2e-05
-1.79694e-14
2e-05
-1.92893e-14
2e-05
-2.06922e-14
2e-05
-2.21826e-14
2e-05
-2.37652e-14
2e-05
-2.54452e-14
2e-05
-2.72277e-14
2e-05
-2.91182e-14
2e-05
-3.11226e-14
2e-05
-3.32466e-14
2e-05
-3.54967e-14
2e-05
-3.78794e-14
2e-05
-4.04013e-14
2e-05
-4.30697e-14
2e-05
-4.5892e-14
2e-05
-4.88759e-14
2e-05
-5.20294e-14
2e-05
-5.5361e-14
2e-05