/*--------------------------------*- C++ -*----------------------------------*\
  =========                 |
  \\      /  F ield         | OpenFOAM: The Open Source CFD Toolbox
   \\    /   O peration     | Website:  https://openfoam.org
    \\  /    A nd           | Version:  11
     \\/     M anipulation  |
\*---------------------------------------------------------------------------*/
FoamFile
{
    format      ascii;
    class       volScalarField;
    location    "620";
    object      k;
}
// * * * * * * * * * * * * * * * * * * * * * * * * * * * * * * * * * * * * * //

dimensions      [0 2 -2 0 0 0 0];

internalField   nonuniform List<scalar> 
10000
(
0.000939687
0.000835718
0.00074589
0.000668034
0.000600341
0.0005413
0.000489647
0.000444318
0.000404418
0.000369194
0.000338006
0.000310313
0.000285654
0.000263635
0.000243921
0.000226225
0.000210298
0.000195929
0.000182932
0.00017115
0.000160443
0.000150692
0.000141792
0.000133652
0.000126191
0.000119339
0.000113033
0.00010722
0.000101852
9.68844e-05
9.22807e-05
8.80067e-05
8.40325e-05
8.03312e-05
7.68788e-05
7.3654e-05
7.06372e-05
6.78113e-05
6.51606e-05
6.26709e-05
6.03295e-05
5.81249e-05
5.60466e-05
5.40851e-05
5.22318e-05
5.04786e-05
4.88186e-05
4.7245e-05
4.5752e-05
4.43339e-05
4.29858e-05
4.1703e-05
4.04812e-05
3.93166e-05
3.82056e-05
3.71447e-05
3.6131e-05
3.51615e-05
3.42337e-05
3.33452e-05
3.24937e-05
3.1677e-05
3.08934e-05
3.0141e-05
2.94181e-05
2.87233e-05
2.8055e-05
2.7412e-05
2.67931e-05
2.61971e-05
2.56231e-05
2.50699e-05
2.45368e-05
2.4023e-05
2.35277e-05
2.30502e-05
2.25899e-05
2.21463e-05
2.17189e-05
2.13072e-05
2.09109e-05
2.05295e-05
2.01629e-05
1.98108e-05
1.94729e-05
1.91493e-05
1.88397e-05
1.85442e-05
1.82628e-05
1.79958e-05
1.77433e-05
1.75058e-05
1.7284e-05
1.70787e-05
1.68912e-05
1.67233e-05
1.65775e-05
1.64575e-05
1.6368e-05
1.63163e-05
0.000939687
0.000835718
0.000745891
0.000668034
0.000600341
0.000541301
0.000489647
0.000444318
0.000404418
0.000369194
0.000338006
0.000310313
0.000285654
0.000263635
0.000243921
0.000226225
0.000210298
0.000195929
0.000182932
0.00017115
0.000160443
0.000150692
0.000141793
0.000133652
0.000126191
0.000119339
0.000113033
0.000107221
0.000101852
9.68846e-05
9.22808e-05
8.80068e-05
8.40326e-05
8.03313e-05
7.6879e-05
7.36541e-05
7.06374e-05
6.78115e-05
6.51607e-05
6.26711e-05
6.03297e-05
5.81251e-05
5.60468e-05
5.40853e-05
5.22319e-05
5.04788e-05
4.88188e-05
4.72452e-05
4.57522e-05
4.43341e-05
4.2986e-05
4.17032e-05
4.04815e-05
3.93169e-05
3.82058e-05
3.71449e-05
3.61312e-05
3.51618e-05
3.4234e-05
3.33455e-05
3.24939e-05
3.16773e-05
3.08937e-05
3.01413e-05
2.94184e-05
2.87236e-05
2.80553e-05
2.74123e-05
2.67934e-05
2.61975e-05
2.56234e-05
2.50702e-05
2.45372e-05
2.40233e-05
2.3528e-05
2.30505e-05
2.25903e-05
2.21467e-05
2.17193e-05
2.13076e-05
2.09112e-05
2.05299e-05
2.01633e-05
1.98111e-05
1.94733e-05
1.91496e-05
1.884e-05
1.85445e-05
1.82632e-05
1.79961e-05
1.77436e-05
1.75061e-05
1.72843e-05
1.7079e-05
1.68914e-05
1.67235e-05
1.65778e-05
1.64577e-05
1.63682e-05
1.63165e-05
0.000939687
0.000835718
0.000745891
0.000668034
0.000600341
0.000541301
0.000489647
0.000444318
0.000404419
0.000369194
0.000338007
0.000310313
0.000285654
0.000263635
0.000243921
0.000226225
0.000210299
0.000195929
0.000182933
0.00017115
0.000160444
0.000150693
0.000141793
0.000133652
0.000126191
0.000119339
0.000113034
0.000107221
0.000101852
9.68848e-05
9.2281e-05
8.80071e-05
8.40329e-05
8.03316e-05
7.68793e-05
7.36544e-05
7.06377e-05
6.78118e-05
6.51611e-05
6.26714e-05
6.033e-05
5.81255e-05
5.60472e-05
5.40857e-05
5.22323e-05
5.04792e-05
4.88192e-05
4.72456e-05
4.57526e-05
4.43345e-05
4.29864e-05
4.17036e-05
4.04819e-05
3.93173e-05
3.82063e-05
3.71454e-05
3.61317e-05
3.51623e-05
3.42345e-05
3.3346e-05
3.24945e-05
3.16779e-05
3.08942e-05
3.01418e-05
2.9419e-05
2.87241e-05
2.80559e-05
2.74129e-05
2.6794e-05
2.61981e-05
2.5624e-05
2.50709e-05
2.45378e-05
2.4024e-05
2.35287e-05
2.30512e-05
2.25909e-05
2.21474e-05
2.17199e-05
2.13082e-05
2.09119e-05
2.05306e-05
2.01639e-05
1.98118e-05
1.94739e-05
1.91503e-05
1.88407e-05
1.85452e-05
1.82638e-05
1.79967e-05
1.77442e-05
1.75067e-05
1.72848e-05
1.70795e-05
1.68919e-05
1.6724e-05
1.65782e-05
1.64581e-05
1.63686e-05
1.63169e-05
0.000939687
0.000835718
0.000745891
0.000668034
0.000600341
0.000541301
0.000489647
0.000444318
0.000404419
0.000369195
0.000338007
0.000310313
0.000285654
0.000263635
0.000243922
0.000226225
0.000210299
0.000195929
0.000182933
0.00017115
0.000160444
0.000150693
0.000141793
0.000133653
0.000126191
0.000119339
0.000113034
0.000107221
0.000101852
9.68852e-05
9.22814e-05
8.80075e-05
8.40333e-05
8.0332e-05
7.68797e-05
7.36548e-05
7.06381e-05
6.78122e-05
6.51615e-05
6.26719e-05
6.03305e-05
5.8126e-05
5.60477e-05
5.40862e-05
5.22329e-05
5.04798e-05
4.88197e-05
4.72462e-05
4.57532e-05
4.43351e-05
4.29871e-05
4.17043e-05
4.04826e-05
3.9318e-05
3.82069e-05
3.71461e-05
3.61324e-05
3.5163e-05
3.42352e-05
3.33467e-05
3.24952e-05
3.16786e-05
3.08951e-05
3.01427e-05
2.94198e-05
2.8725e-05
2.80568e-05
2.74138e-05
2.67949e-05
2.6199e-05
2.56249e-05
2.50718e-05
2.45388e-05
2.40249e-05
2.35296e-05
2.30522e-05
2.25919e-05
2.21483e-05
2.17209e-05
2.13092e-05
2.09129e-05
2.05315e-05
2.01649e-05
1.98128e-05
1.94749e-05
1.91512e-05
1.88416e-05
1.85461e-05
1.82647e-05
1.79976e-05
1.7745e-05
1.75075e-05
1.72856e-05
1.70802e-05
1.68927e-05
1.67247e-05
1.65789e-05
1.64588e-05
1.63692e-05
1.63175e-05
0.000939687
0.000835718
0.000745891
0.000668034
0.000600341
0.000541301
0.000489647
0.000444318
0.000404419
0.000369195
0.000338007
0.000310314
0.000285654
0.000263636
0.000243922
0.000226226
0.000210299
0.00019593
0.000182933
0.000171151
0.000160444
0.000150693
0.000141793
0.000133653
0.000126192
0.00011934
0.000113034
0.000107222
0.000101853
9.68857e-05
9.22819e-05
8.8008e-05
8.40338e-05
8.03325e-05
7.68802e-05
7.36554e-05
7.06387e-05
6.78128e-05
6.51621e-05
6.26725e-05
6.03312e-05
5.81266e-05
5.60484e-05
5.40869e-05
5.22336e-05
5.04805e-05
4.88205e-05
4.7247e-05
4.5754e-05
4.43359e-05
4.29879e-05
4.17051e-05
4.04834e-05
3.93189e-05
3.82078e-05
3.7147e-05
3.61333e-05
3.51639e-05
3.42362e-05
3.33477e-05
3.24962e-05
3.16797e-05
3.08961e-05
3.01437e-05
2.94209e-05
2.87261e-05
2.80579e-05
2.7415e-05
2.67961e-05
2.62002e-05
2.56261e-05
2.5073e-05
2.454e-05
2.40262e-05
2.35309e-05
2.30534e-05
2.25932e-05
2.21496e-05
2.17222e-05
2.13105e-05
2.09142e-05
2.05328e-05
2.01662e-05
1.9814e-05
1.94762e-05
1.91524e-05
1.88428e-05
1.85473e-05
1.82658e-05
1.79987e-05
1.77461e-05
1.75086e-05
1.72866e-05
1.70812e-05
1.68936e-05
1.67256e-05
1.65797e-05
1.64596e-05
1.637e-05
1.63183e-05
0.000939687
0.000835718
0.000745891
0.000668035
0.000600342
0.000541301
0.000489647
0.000444318
0.000404419
0.000369195
0.000338007
0.000310314
0.000285655
0.000263636
0.000243922
0.000226226
0.000210299
0.00019593
0.000182934
0.000171151
0.000160445
0.000150694
0.000141794
0.000133653
0.000126192
0.00011934
0.000113035
0.000107222
0.000101853
9.68862e-05
9.22825e-05
8.80086e-05
8.40344e-05
8.03332e-05
7.68809e-05
7.36561e-05
7.06394e-05
6.78136e-05
6.51629e-05
6.26733e-05
6.0332e-05
5.81274e-05
5.60492e-05
5.40878e-05
5.22344e-05
5.04814e-05
4.88214e-05
4.72479e-05
4.57549e-05
4.43369e-05
4.29889e-05
4.17061e-05
4.04845e-05
3.93199e-05
3.82089e-05
3.71481e-05
3.61345e-05
3.51651e-05
3.42374e-05
3.3349e-05
3.24975e-05
3.1681e-05
3.08974e-05
3.01451e-05
2.94223e-05
2.87275e-05
2.80593e-05
2.74164e-05
2.67975e-05
2.62016e-05
2.56276e-05
2.50745e-05
2.45415e-05
2.40277e-05
2.35324e-05
2.3055e-05
2.25948e-05
2.21512e-05
2.17238e-05
2.13121e-05
2.09158e-05
2.05344e-05
2.01678e-05
1.98156e-05
1.94777e-05
1.9154e-05
1.88443e-05
1.85487e-05
1.82672e-05
1.80001e-05
1.77475e-05
1.75098e-05
1.72879e-05
1.70824e-05
1.68947e-05
1.67267e-05
1.65807e-05
1.64605e-05
1.63709e-05
1.63192e-05
0.000939687
0.000835718
0.000745891
0.000668035
0.000600342
0.000541301
0.000489648
0.000444318
0.000404419
0.000369195
0.000338008
0.000310314
0.000285655
0.000263636
0.000243923
0.000226226
0.0002103
0.00019593
0.000182934
0.000171152
0.000160445
0.000150694
0.000141794
0.000133654
0.000126193
0.000119341
0.000113036
0.000107223
0.000101854
9.68869e-05
9.22832e-05
8.80093e-05
8.40352e-05
8.0334e-05
7.68817e-05
7.36569e-05
7.06403e-05
6.78144e-05
6.51638e-05
6.26742e-05
6.03329e-05
5.81284e-05
5.60502e-05
5.40888e-05
5.22355e-05
5.04824e-05
4.88225e-05
4.7249e-05
4.5756e-05
4.43381e-05
4.29901e-05
4.17074e-05
4.04857e-05
3.93212e-05
3.82102e-05
3.71495e-05
3.61358e-05
3.51665e-05
3.42388e-05
3.33504e-05
3.2499e-05
3.16825e-05
3.08989e-05
3.01466e-05
2.94238e-05
2.87291e-05
2.80609e-05
2.74181e-05
2.67992e-05
2.62033e-05
2.56294e-05
2.50763e-05
2.45433e-05
2.40295e-05
2.35343e-05
2.30568e-05
2.25966e-05
2.2153e-05
2.17256e-05
2.1314e-05
2.09176e-05
2.05362e-05
2.01696e-05
1.98174e-05
1.94795e-05
1.91557e-05
1.8846e-05
1.85504e-05
1.82689e-05
1.80017e-05
1.7749e-05
1.75113e-05
1.72893e-05
1.70837e-05
1.6896e-05
1.67279e-05
1.65819e-05
1.64617e-05
1.6372e-05
1.63202e-05
0.000939687
0.000835718
0.000745891
0.000668035
0.000600342
0.000541301
0.000489648
0.000444319
0.00040442
0.000369196
0.000338008
0.000310315
0.000285655
0.000263637
0.000243923
0.000226227
0.0002103
0.000195931
0.000182935
0.000171152
0.000160446
0.000150695
0.000141795
0.000133655
0.000126194
0.000119341
0.000113036
0.000107223
0.000101855
9.68877e-05
9.2284e-05
8.80102e-05
8.4036e-05
8.03349e-05
7.68826e-05
7.36578e-05
7.06412e-05
6.78154e-05
6.51648e-05
6.26752e-05
6.0334e-05
5.81295e-05
5.60513e-05
5.40899e-05
5.22366e-05
5.04836e-05
4.88237e-05
4.72503e-05
4.57573e-05
4.43394e-05
4.29914e-05
4.17087e-05
4.04871e-05
3.93227e-05
3.82117e-05
3.7151e-05
3.61374e-05
3.51681e-05
3.42404e-05
3.3352e-05
3.25006e-05
3.16842e-05
3.09007e-05
3.01484e-05
2.94257e-05
2.87309e-05
2.80628e-05
2.742e-05
2.68012e-05
2.62053e-05
2.56313e-05
2.50783e-05
2.45453e-05
2.40316e-05
2.35363e-05
2.30589e-05
2.25987e-05
2.21552e-05
2.17278e-05
2.13161e-05
2.09197e-05
2.05383e-05
2.01717e-05
1.98195e-05
1.94815e-05
1.91577e-05
1.8848e-05
1.85523e-05
1.82708e-05
1.80035e-05
1.77508e-05
1.7513e-05
1.72909e-05
1.70853e-05
1.68975e-05
1.67293e-05
1.65833e-05
1.64629e-05
1.63733e-05
1.63214e-05
0.000939687
0.000835718
0.000745891
0.000668035
0.000600342
0.000541301
0.000489648
0.000444319
0.00040442
0.000369196
0.000338008
0.000310315
0.000285656
0.000263637
0.000243924
0.000226227
0.000210301
0.000195931
0.000182935
0.000171153
0.000160446
0.000150696
0.000141796
0.000133655
0.000126194
0.000119342
0.000113037
0.000107224
0.000101856
9.68886e-05
9.22849e-05
8.80111e-05
8.4037e-05
8.03358e-05
7.68836e-05
7.36589e-05
7.06423e-05
6.78165e-05
6.51659e-05
6.26764e-05
6.03351e-05
5.81307e-05
5.60525e-05
5.40912e-05
5.22379e-05
5.0485e-05
4.88251e-05
4.72517e-05
4.57588e-05
4.43409e-05
4.29929e-05
4.17103e-05
4.04887e-05
3.93243e-05
3.82134e-05
3.71527e-05
3.61391e-05
3.51698e-05
3.42422e-05
3.33539e-05
3.25025e-05
3.16861e-05
3.09026e-05
3.01504e-05
2.94277e-05
2.8733e-05
2.80649e-05
2.74221e-05
2.68033e-05
2.62075e-05
2.56335e-05
2.50805e-05
2.45476e-05
2.40339e-05
2.35386e-05
2.30612e-05
2.2601e-05
2.21575e-05
2.17301e-05
2.13184e-05
2.09221e-05
2.05407e-05
2.0174e-05
1.98218e-05
1.94838e-05
1.916e-05
1.88502e-05
1.85545e-05
1.82729e-05
1.80055e-05
1.77527e-05
1.75149e-05
1.72927e-05
1.7087e-05
1.68991e-05
1.67309e-05
1.65847e-05
1.64644e-05
1.63746e-05
1.63228e-05
0.000939687
0.000835718
0.000745891
0.000668035
0.000600342
0.000541302
0.000489648
0.000444319
0.00040442
0.000369196
0.000338009
0.000310315
0.000285656
0.000263638
0.000243924
0.000226228
0.000210301
0.000195932
0.000182936
0.000171154
0.000160447
0.000150696
0.000141796
0.000133656
0.000126195
0.000119343
0.000113038
0.000107225
0.000101857
9.68895e-05
9.22859e-05
8.80121e-05
8.4038e-05
8.03369e-05
7.68847e-05
7.366e-05
7.06434e-05
6.78177e-05
6.51671e-05
6.26776e-05
6.03364e-05
5.8132e-05
5.60539e-05
5.40926e-05
5.22394e-05
5.04864e-05
4.88266e-05
4.72532e-05
4.57603e-05
4.43425e-05
4.29946e-05
4.1712e-05
4.04904e-05
3.9326e-05
3.82152e-05
3.71545e-05
3.6141e-05
3.51717e-05
3.42442e-05
3.33559e-05
3.25046e-05
3.16882e-05
3.09047e-05
3.01525e-05
2.94299e-05
2.87352e-05
2.80672e-05
2.74244e-05
2.68057e-05
2.62099e-05
2.5636e-05
2.5083e-05
2.45501e-05
2.40364e-05
2.35412e-05
2.30638e-05
2.26036e-05
2.21601e-05
2.17327e-05
2.1321e-05
2.09246e-05
2.05432e-05
2.01765e-05
1.98243e-05
1.94863e-05
1.91624e-05
1.88526e-05
1.85568e-05
1.82751e-05
1.80077e-05
1.77549e-05
1.7517e-05
1.72947e-05
1.70889e-05
1.69009e-05
1.67325e-05
1.65863e-05
1.64659e-05
1.63761e-05
1.63242e-05
0.000939687
0.000835719
0.000745891
0.000668035
0.000600342
0.000541302
0.000489648
0.000444319
0.00040442
0.000369196
0.000338009
0.000310316
0.000285656
0.000263638
0.000243925
0.000226228
0.000210302
0.000195933
0.000182936
0.000171154
0.000160448
0.000150697
0.000141797
0.000133657
0.000126196
0.000119344
0.000113039
0.000107226
0.000101858
9.68905e-05
9.2287e-05
8.80132e-05
8.40391e-05
8.0338e-05
7.68859e-05
7.36612e-05
7.06447e-05
6.7819e-05
6.51684e-05
6.2679e-05
6.03378e-05
5.81334e-05
5.60554e-05
5.40941e-05
5.22409e-05
5.0488e-05
4.88282e-05
4.72549e-05
4.5762e-05
4.43442e-05
4.29963e-05
4.17138e-05
4.04923e-05
3.93279e-05
3.82171e-05
3.71565e-05
3.6143e-05
3.51738e-05
3.42463e-05
3.3358e-05
3.25068e-05
3.16904e-05
3.0907e-05
3.01549e-05
2.94323e-05
2.87377e-05
2.80696e-05
2.74269e-05
2.68082e-05
2.62125e-05
2.56386e-05
2.50857e-05
2.45528e-05
2.40391e-05
2.35439e-05
2.30665e-05
2.26064e-05
2.21629e-05
2.17355e-05
2.13238e-05
2.09274e-05
2.0546e-05
2.01793e-05
1.9827e-05
1.94889e-05
1.9165e-05
1.88552e-05
1.85593e-05
1.82776e-05
1.80101e-05
1.77571e-05
1.75191e-05
1.72967e-05
1.70909e-05
1.69028e-05
1.67343e-05
1.6588e-05
1.64675e-05
1.63776e-05
1.63257e-05
0.000939687
0.000835719
0.000745891
0.000668035
0.000600342
0.000541302
0.000489649
0.00044432
0.000404421
0.000369197
0.000338009
0.000310316
0.000285657
0.000263638
0.000243925
0.000226229
0.000210303
0.000195933
0.000182937
0.000171155
0.000160449
0.000150698
0.000141798
0.000133658
0.000126197
0.000119345
0.00011304
0.000107227
0.000101859
9.68916e-05
9.22881e-05
8.80143e-05
8.40403e-05
8.03393e-05
7.68872e-05
7.36625e-05
7.0646e-05
6.78203e-05
6.51698e-05
6.26804e-05
6.03393e-05
5.8135e-05
5.60569e-05
5.40957e-05
5.22426e-05
5.04897e-05
4.88299e-05
4.72566e-05
4.57639e-05
4.43461e-05
4.29982e-05
4.17157e-05
4.04943e-05
3.933e-05
3.82192e-05
3.71586e-05
3.61452e-05
3.5176e-05
3.42486e-05
3.33604e-05
3.25091e-05
3.16928e-05
3.09095e-05
3.01574e-05
2.94348e-05
2.87402e-05
2.80723e-05
2.74296e-05
2.68109e-05
2.62152e-05
2.56414e-05
2.50885e-05
2.45556e-05
2.4042e-05
2.35468e-05
2.30695e-05
2.26093e-05
2.21658e-05
2.17384e-05
2.13268e-05
2.09304e-05
2.05489e-05
2.01822e-05
1.98299e-05
1.94918e-05
1.91678e-05
1.88579e-05
1.8562e-05
1.82802e-05
1.80126e-05
1.77596e-05
1.75215e-05
1.7299e-05
1.7093e-05
1.69048e-05
1.67362e-05
1.65898e-05
1.64692e-05
1.63793e-05
1.63273e-05
0.000939687
0.000835719
0.000745891
0.000668035
0.000600342
0.000541302
0.000489649
0.00044432
0.000404421
0.000369197
0.00033801
0.000310317
0.000285657
0.000263639
0.000243926
0.000226229
0.000210303
0.000195934
0.000182938
0.000171156
0.000160449
0.000150699
0.000141799
0.000133659
0.000126198
0.000119346
0.000113041
0.000107228
0.00010186
9.68927e-05
9.22892e-05
8.80155e-05
8.40416e-05
8.03405e-05
7.68885e-05
7.36639e-05
7.06474e-05
6.78218e-05
6.51713e-05
6.26819e-05
6.03409e-05
5.81366e-05
5.60586e-05
5.40974e-05
5.22443e-05
5.04915e-05
4.88317e-05
4.72585e-05
4.57658e-05
4.4348e-05
4.30002e-05
4.17178e-05
4.04964e-05
3.93321e-05
3.82214e-05
3.71609e-05
3.61475e-05
3.51784e-05
3.4251e-05
3.33628e-05
3.25116e-05
3.16954e-05
3.09121e-05
3.016e-05
2.94375e-05
2.8743e-05
2.80751e-05
2.74324e-05
2.68138e-05
2.62181e-05
2.56443e-05
2.50915e-05
2.45586e-05
2.4045e-05
2.35499e-05
2.30726e-05
2.26124e-05
2.21689e-05
2.17416e-05
2.13299e-05
2.09335e-05
2.0552e-05
2.01853e-05
1.98329e-05
1.94948e-05
1.91708e-05
1.88608e-05
1.85648e-05
1.82829e-05
1.80152e-05
1.77621e-05
1.75239e-05
1.73013e-05
1.70952e-05
1.69069e-05
1.67382e-05
1.65917e-05
1.6471e-05
1.6381e-05
1.6329e-05
0.000939687
0.000835719
0.000745891
0.000668035
0.000600342
0.000541302
0.000489649
0.00044432
0.000404421
0.000369197
0.00033801
0.000310317
0.000285658
0.000263639
0.000243926
0.00022623
0.000210304
0.000195935
0.000182939
0.000171156
0.00016045
0.0001507
0.0001418
0.00013366
0.000126199
0.000119347
0.000113042
0.000107229
0.000101861
9.68939e-05
9.22905e-05
8.80168e-05
8.40429e-05
8.03419e-05
7.68899e-05
7.36653e-05
7.06489e-05
6.78233e-05
6.51729e-05
6.26835e-05
6.03425e-05
5.81382e-05
5.60603e-05
5.40991e-05
5.22461e-05
5.04933e-05
4.88336e-05
4.72605e-05
4.57678e-05
4.43501e-05
4.30024e-05
4.17199e-05
4.04986e-05
3.93344e-05
3.82237e-05
3.71632e-05
3.61499e-05
3.51809e-05
3.42535e-05
3.33654e-05
3.25142e-05
3.1698e-05
3.09148e-05
3.01628e-05
2.94403e-05
2.87459e-05
2.8078e-05
2.74354e-05
2.68168e-05
2.62212e-05
2.56474e-05
2.50946e-05
2.45618e-05
2.40482e-05
2.35531e-05
2.30758e-05
2.26157e-05
2.21722e-05
2.17448e-05
2.13332e-05
2.09368e-05
2.05553e-05
2.01885e-05
1.98361e-05
1.94979e-05
1.91739e-05
1.88638e-05
1.85677e-05
1.82858e-05
1.8018e-05
1.77647e-05
1.75264e-05
1.73037e-05
1.70975e-05
1.69091e-05
1.67403e-05
1.65937e-05
1.64729e-05
1.63828e-05
1.63308e-05
0.000939687
0.000835719
0.000745891
0.000668035
0.000600343
0.000541302
0.000489649
0.00044432
0.000404422
0.000369198
0.00033801
0.000310317
0.000285658
0.00026364
0.000243927
0.000226231
0.000210305
0.000195935
0.000182939
0.000171157
0.000160451
0.0001507
0.000141801
0.000133661
0.0001262
0.000119348
0.000113043
0.00010723
0.000101862
9.68951e-05
9.22917e-05
8.80181e-05
8.40442e-05
8.03433e-05
7.68913e-05
7.36668e-05
7.06504e-05
6.78249e-05
6.51745e-05
6.26852e-05
6.03442e-05
5.814e-05
5.60621e-05
5.4101e-05
5.2248e-05
5.04953e-05
4.88356e-05
4.72625e-05
4.57699e-05
4.43522e-05
4.30045e-05
4.17222e-05
4.05009e-05
3.93367e-05
3.82261e-05
3.71657e-05
3.61524e-05
3.51834e-05
3.42561e-05
3.3368e-05
3.2517e-05
3.17008e-05
3.09176e-05
3.01657e-05
2.94433e-05
2.87489e-05
2.8081e-05
2.74385e-05
2.682e-05
2.62244e-05
2.56507e-05
2.50979e-05
2.45651e-05
2.40516e-05
2.35565e-05
2.30792e-05
2.26191e-05
2.21756e-05
2.17483e-05
2.13366e-05
2.09401e-05
2.05587e-05
2.01918e-05
1.98394e-05
1.95012e-05
1.9177e-05
1.88669e-05
1.85708e-05
1.82887e-05
1.80208e-05
1.77675e-05
1.75291e-05
1.73062e-05
1.70999e-05
1.69113e-05
1.67424e-05
1.65957e-05
1.64748e-05
1.63846e-05
1.63325e-05
0.000939687
0.000835719
0.000745891
0.000668035
0.000600343
0.000541302
0.000489649
0.000444321
0.000404422
0.000369198
0.000338011
0.000310318
0.000285659
0.00026364
0.000243927
0.000226231
0.000210305
0.000195936
0.00018294
0.000171158
0.000160452
0.000150701
0.000141802
0.000133662
0.000126201
0.000119349
0.000113044
0.000107232
0.000101863
9.68964e-05
9.2293e-05
8.80194e-05
8.40456e-05
8.03447e-05
7.68928e-05
7.36683e-05
7.0652e-05
6.78265e-05
6.51761e-05
6.26869e-05
6.0346e-05
5.81418e-05
5.60639e-05
5.41029e-05
5.22499e-05
5.04973e-05
4.88377e-05
4.72646e-05
4.5772e-05
4.43544e-05
4.30068e-05
4.17245e-05
4.05032e-05
3.93391e-05
3.82286e-05
3.71682e-05
3.6155e-05
3.51861e-05
3.42588e-05
3.33708e-05
3.25198e-05
3.17037e-05
3.09206e-05
3.01687e-05
2.94463e-05
2.87519e-05
2.80842e-05
2.74417e-05
2.68232e-05
2.62277e-05
2.5654e-05
2.51012e-05
2.45685e-05
2.4055e-05
2.35599e-05
2.30827e-05
2.26226e-05
2.21791e-05
2.17518e-05
2.13401e-05
2.09436e-05
2.05621e-05
2.01953e-05
1.98428e-05
1.95045e-05
1.91803e-05
1.88701e-05
1.85739e-05
1.82917e-05
1.80238e-05
1.77703e-05
1.75318e-05
1.73088e-05
1.71023e-05
1.69136e-05
1.67446e-05
1.65977e-05
1.64767e-05
1.63865e-05
1.63344e-05
0.000939687
0.000835719
0.000745891
0.000668035
0.000600343
0.000541303
0.000489649
0.000444321
0.000404422
0.000369198
0.000338011
0.000310318
0.000285659
0.000263641
0.000243928
0.000226232
0.000210306
0.000195937
0.000182941
0.000171159
0.000160453
0.000150702
0.000141803
0.000133663
0.000126202
0.00011935
0.000113045
0.000107233
0.000101865
9.68977e-05
9.22943e-05
8.80208e-05
8.4047e-05
8.03462e-05
7.68943e-05
7.36698e-05
7.06536e-05
6.78281e-05
6.51778e-05
6.26886e-05
6.03478e-05
5.81436e-05
5.60658e-05
5.41048e-05
5.22519e-05
5.04993e-05
4.88398e-05
4.72668e-05
4.57742e-05
4.43567e-05
4.30091e-05
4.17269e-05
4.05057e-05
3.93416e-05
3.82311e-05
3.71708e-05
3.61576e-05
3.51888e-05
3.42616e-05
3.33736e-05
3.25227e-05
3.17066e-05
3.09236e-05
3.01717e-05
2.94494e-05
2.87551e-05
2.80874e-05
2.74449e-05
2.68265e-05
2.6231e-05
2.56574e-05
2.51047e-05
2.4572e-05
2.40585e-05
2.35635e-05
2.30863e-05
2.26262e-05
2.21827e-05
2.17554e-05
2.13437e-05
2.09472e-05
2.05657e-05
2.01988e-05
1.98463e-05
1.9508e-05
1.91837e-05
1.88734e-05
1.85771e-05
1.82949e-05
1.80268e-05
1.77732e-05
1.75345e-05
1.73114e-05
1.71048e-05
1.6916e-05
1.67468e-05
1.65998e-05
1.64787e-05
1.63884e-05
1.63363e-05
0.000939687
0.000835719
0.000745891
0.000668035
0.000600343
0.000541303
0.00048965
0.000444321
0.000404422
0.000369199
0.000338011
0.000310319
0.00028566
0.000263642
0.000243928
0.000226232
0.000210306
0.000195937
0.000182942
0.00017116
0.000160454
0.000150703
0.000141804
0.000133664
0.000126203
0.000119351
0.000113046
0.000107234
0.000101866
9.6899e-05
9.22957e-05
8.80222e-05
8.40484e-05
8.03476e-05
7.68958e-05
7.36714e-05
7.06552e-05
6.78298e-05
6.51796e-05
6.26904e-05
6.03496e-05
5.81455e-05
5.60678e-05
5.41068e-05
5.2254e-05
5.05014e-05
4.88419e-05
4.7269e-05
4.57765e-05
4.4359e-05
4.30115e-05
4.17293e-05
4.05081e-05
3.93442e-05
3.82337e-05
3.71735e-05
3.61604e-05
3.51915e-05
3.42644e-05
3.33765e-05
3.25256e-05
3.17096e-05
3.09266e-05
3.01749e-05
2.94526e-05
2.87584e-05
2.80907e-05
2.74483e-05
2.68299e-05
2.62345e-05
2.56609e-05
2.51082e-05
2.45756e-05
2.40621e-05
2.35671e-05
2.30899e-05
2.26299e-05
2.21864e-05
2.17591e-05
2.13473e-05
2.09509e-05
2.05693e-05
2.02024e-05
1.98498e-05
1.95115e-05
1.91871e-05
1.88768e-05
1.85804e-05
1.8298e-05
1.80298e-05
1.77761e-05
1.75373e-05
1.73141e-05
1.71073e-05
1.69184e-05
1.67491e-05
1.6602e-05
1.64807e-05
1.63904e-05
1.63381e-05
0.000939687
0.000835719
0.000745891
0.000668036
0.000600343
0.000541303
0.00048965
0.000444321
0.000404423
0.000369199
0.000338012
0.000310319
0.00028566
0.000263642
0.000243929
0.000226233
0.000210307
0.000195938
0.000182942
0.00017116
0.000160454
0.000150704
0.000141805
0.000133665
0.000126204
0.000119352
0.000113048
0.000107235
0.000101867
9.69003e-05
9.2297e-05
8.80236e-05
8.40499e-05
8.03491e-05
7.68974e-05
7.3673e-05
7.06569e-05
6.78315e-05
6.51813e-05
6.26922e-05
6.03514e-05
5.81474e-05
5.60697e-05
5.41088e-05
5.2256e-05
5.05035e-05
4.88441e-05
4.72712e-05
4.57788e-05
4.43613e-05
4.30139e-05
4.17317e-05
4.05107e-05
3.93467e-05
3.82363e-05
3.71762e-05
3.61631e-05
3.51944e-05
3.42673e-05
3.33795e-05
3.25286e-05
3.17127e-05
3.09298e-05
3.0178e-05
2.94558e-05
2.87616e-05
2.8094e-05
2.74517e-05
2.68334e-05
2.6238e-05
2.56644e-05
2.51118e-05
2.45792e-05
2.40658e-05
2.35708e-05
2.30936e-05
2.26336e-05
2.21901e-05
2.17628e-05
2.13511e-05
2.09546e-05
2.0573e-05
2.02061e-05
1.98534e-05
1.9515e-05
1.91906e-05
1.88802e-05
1.85837e-05
1.83012e-05
1.80329e-05
1.77791e-05
1.75402e-05
1.73168e-05
1.71099e-05
1.69208e-05
1.67513e-05
1.66041e-05
1.64828e-05
1.63923e-05
1.634e-05
0.000939687
0.000835719
0.000745891
0.000668036
0.000600343
0.000541303
0.00048965
0.000444321
0.000404423
0.000369199
0.000338012
0.000310319
0.000285661
0.000263643
0.000243929
0.000226234
0.000210308
0.000195939
0.000182943
0.000171161
0.000160455
0.000150705
0.000141806
0.000133666
0.000126205
0.000119353
0.000113049
0.000107236
0.000101868
9.69016e-05
9.22984e-05
8.8025e-05
8.40514e-05
8.03507e-05
7.68989e-05
7.36746e-05
7.06585e-05
6.78332e-05
6.51831e-05
6.2694e-05
6.03533e-05
5.81494e-05
5.60717e-05
5.41108e-05
5.22581e-05
5.05057e-05
4.88463e-05
4.72734e-05
4.57811e-05
4.43637e-05
4.30163e-05
4.17342e-05
4.05132e-05
3.93493e-05
3.8239e-05
3.71789e-05
3.61659e-05
3.51972e-05
3.42702e-05
3.33824e-05
3.25317e-05
3.17158e-05
3.09329e-05
3.01812e-05
2.94591e-05
2.8765e-05
2.80974e-05
2.74551e-05
2.68369e-05
2.62415e-05
2.5668e-05
2.51154e-05
2.45829e-05
2.40695e-05
2.35745e-05
2.30974e-05
2.26374e-05
2.21939e-05
2.17666e-05
2.13548e-05
2.09583e-05
2.05767e-05
2.02097e-05
1.98571e-05
1.95186e-05
1.91941e-05
1.88836e-05
1.8587e-05
1.83045e-05
1.80361e-05
1.77821e-05
1.7543e-05
1.73195e-05
1.71125e-05
1.69232e-05
1.67536e-05
1.66063e-05
1.64848e-05
1.63943e-05
1.63419e-05
0.000939687
0.000835719
0.000745891
0.000668036
0.000600343
0.000541303
0.00048965
0.000444322
0.000404423
0.0003692
0.000338012
0.00031032
0.000285661
0.000263643
0.00024393
0.000226234
0.000210308
0.00019594
0.000182944
0.000171162
0.000160456
0.000150706
0.000141806
0.000133667
0.000126206
0.000119354
0.00011305
0.000107238
0.00010187
9.69029e-05
9.22997e-05
8.80264e-05
8.40528e-05
8.03522e-05
7.69005e-05
7.36763e-05
7.06602e-05
6.78349e-05
6.51849e-05
6.26959e-05
6.03552e-05
5.81513e-05
5.60737e-05
5.41129e-05
5.22602e-05
5.05078e-05
4.88485e-05
4.72757e-05
4.57834e-05
4.43661e-05
4.30188e-05
4.17367e-05
4.05158e-05
3.9352e-05
3.82417e-05
3.71816e-05
3.61687e-05
3.52001e-05
3.42731e-05
3.33854e-05
3.25347e-05
3.17189e-05
3.09361e-05
3.01845e-05
2.94624e-05
2.87683e-05
2.81008e-05
2.74586e-05
2.68404e-05
2.62451e-05
2.56716e-05
2.51191e-05
2.45866e-05
2.40732e-05
2.35783e-05
2.31012e-05
2.26411e-05
2.21977e-05
2.17704e-05
2.13586e-05
2.09621e-05
2.05805e-05
2.02135e-05
1.98608e-05
1.95222e-05
1.91977e-05
1.88871e-05
1.85904e-05
1.83077e-05
1.80392e-05
1.77851e-05
1.75459e-05
1.73222e-05
1.7115e-05
1.69256e-05
1.67559e-05
1.66084e-05
1.64868e-05
1.63962e-05
1.63438e-05
0.000939687
0.000835719
0.000745892
0.000668036
0.000600343
0.000541303
0.00048965
0.000444322
0.000404423
0.0003692
0.000338013
0.00031032
0.000285661
0.000263643
0.000243931
0.000226235
0.000210309
0.00019594
0.000182945
0.000171163
0.000160457
0.000150707
0.000141807
0.000133668
0.000126207
0.000119356
0.000113051
0.000107239
0.000101871
9.69042e-05
9.23011e-05
8.80278e-05
8.40543e-05
8.03537e-05
7.6902e-05
7.36779e-05
7.06619e-05
6.78367e-05
6.51866e-05
6.26977e-05
6.03571e-05
5.81532e-05
5.60757e-05
5.41149e-05
5.22623e-05
5.051e-05
4.88507e-05
4.7278e-05
4.57857e-05
4.43685e-05
4.30212e-05
4.17392e-05
4.05184e-05
3.93546e-05
3.82444e-05
3.71844e-05
3.61715e-05
3.5203e-05
3.42761e-05
3.33884e-05
3.25378e-05
3.1722e-05
3.09393e-05
3.01877e-05
2.94657e-05
2.87717e-05
2.81042e-05
2.74621e-05
2.68439e-05
2.62487e-05
2.56753e-05
2.51228e-05
2.45902e-05
2.40769e-05
2.35821e-05
2.31049e-05
2.26449e-05
2.22015e-05
2.17742e-05
2.13624e-05
2.09659e-05
2.05843e-05
2.02172e-05
1.98644e-05
1.95258e-05
1.92012e-05
1.88905e-05
1.85937e-05
1.8311e-05
1.80423e-05
1.77881e-05
1.75488e-05
1.73249e-05
1.71176e-05
1.69281e-05
1.67582e-05
1.66106e-05
1.64889e-05
1.63982e-05
1.63457e-05
0.000939687
0.000835719
0.000745892
0.000668036
0.000600343
0.000541303
0.00048965
0.000444322
0.000404424
0.0003692
0.000338013
0.000310321
0.000285662
0.000263644
0.000243931
0.000226235
0.00021031
0.000195941
0.000182945
0.000171164
0.000160458
0.000150708
0.000141808
0.000133669
0.000126208
0.000119357
0.000113052
0.00010724
0.000101872
9.69055e-05
9.23024e-05
8.80292e-05
8.40557e-05
8.03552e-05
7.69036e-05
7.36795e-05
7.06635e-05
6.78384e-05
6.51884e-05
6.26995e-05
6.03589e-05
5.81552e-05
5.60777e-05
5.4117e-05
5.22644e-05
5.05121e-05
4.88529e-05
4.72803e-05
4.57881e-05
4.43709e-05
4.30237e-05
4.17418e-05
4.05209e-05
3.93572e-05
3.82471e-05
3.71871e-05
3.61743e-05
3.52058e-05
3.4279e-05
3.33914e-05
3.25408e-05
3.17252e-05
3.09425e-05
3.0191e-05
2.9469e-05
2.87751e-05
2.81077e-05
2.74655e-05
2.68474e-05
2.62522e-05
2.56789e-05
2.51264e-05
2.45939e-05
2.40807e-05
2.35858e-05
2.31087e-05
2.26487e-05
2.22053e-05
2.1778e-05
2.13662e-05
2.09697e-05
2.0588e-05
2.02209e-05
1.98681e-05
1.95294e-05
1.92047e-05
1.8894e-05
1.85971e-05
1.83142e-05
1.80454e-05
1.77911e-05
1.75516e-05
1.73277e-05
1.71202e-05
1.69305e-05
1.67604e-05
1.66127e-05
1.64909e-05
1.64001e-05
1.63476e-05
0.000939687
0.000835719
0.000745892
0.000668036
0.000600343
0.000541304
0.000489651
0.000444322
0.000404424
0.0003692
0.000338013
0.000310321
0.000285662
0.000263644
0.000243932
0.000226236
0.00021031
0.000195942
0.000182946
0.000171164
0.000160459
0.000150708
0.000141809
0.00013367
0.000126209
0.000119358
0.000113053
0.000107241
0.000101873
9.69068e-05
9.23038e-05
8.80306e-05
8.40572e-05
8.03567e-05
7.69051e-05
7.36811e-05
7.06652e-05
6.78401e-05
6.51902e-05
6.27013e-05
6.03608e-05
5.81571e-05
5.60796e-05
5.4119e-05
5.22665e-05
5.05143e-05
4.88551e-05
4.72825e-05
4.57904e-05
4.43733e-05
4.30261e-05
4.17442e-05
4.05235e-05
3.93598e-05
3.82498e-05
3.71899e-05
3.61771e-05
3.52087e-05
3.42819e-05
3.33944e-05
3.25439e-05
3.17283e-05
3.09456e-05
3.01942e-05
2.94723e-05
2.87784e-05
2.81111e-05
2.7469e-05
2.68509e-05
2.62558e-05
2.56825e-05
2.513e-05
2.45976e-05
2.40844e-05
2.35895e-05
2.31125e-05
2.26525e-05
2.22091e-05
2.17818e-05
2.137e-05
2.09734e-05
2.05917e-05
2.02246e-05
1.98717e-05
1.9533e-05
1.92082e-05
1.88974e-05
1.86004e-05
1.83174e-05
1.80485e-05
1.77941e-05
1.75544e-05
1.73303e-05
1.71227e-05
1.69329e-05
1.67627e-05
1.66148e-05
1.64929e-05
1.6402e-05
1.63495e-05
0.000939687
0.000835719
0.000745892
0.000668036
0.000600344
0.000541304
0.000489651
0.000444322
0.000404424
0.000369201
0.000338014
0.000310321
0.000285663
0.000263645
0.000243932
0.000226236
0.000210311
0.000195942
0.000182947
0.000171165
0.000160459
0.000150709
0.00014181
0.000133671
0.00012621
0.000119359
0.000113054
0.000107242
0.000101874
9.6908e-05
9.23051e-05
8.8032e-05
8.40586e-05
8.03581e-05
7.69067e-05
7.36826e-05
7.06668e-05
6.78418e-05
6.51919e-05
6.27031e-05
6.03627e-05
5.8159e-05
5.60816e-05
5.4121e-05
5.22686e-05
5.05164e-05
4.88573e-05
4.72847e-05
4.57927e-05
4.43756e-05
4.30285e-05
4.17467e-05
4.0526e-05
3.93624e-05
3.82524e-05
3.71926e-05
3.61799e-05
3.52115e-05
3.42848e-05
3.33974e-05
3.25469e-05
3.17313e-05
3.09488e-05
3.01974e-05
2.94756e-05
2.87817e-05
2.81144e-05