/*--------------------------------*- C++ -*----------------------------------*\
  =========                 |
  \\      /  F ield         | OpenFOAM: The Open Source CFD Toolbox
   \\    /   O peration     | Website:  https://openfoam.org
    \\  /    A nd           | Version:  11
     \\/     M anipulation  |
\*---------------------------------------------------------------------------*/
FoamFile
{
    format      ascii;
    class       volScalarField;
    location    "154";
    object      nut;
}
// * * * * * * * * * * * * * * * * * * * * * * * * * * * * * * * * * * * * * //

dimensions      [0 2 -1 0 0 0 0];

internalField   nonuniform List<scalar> 
10000
(
0.000977078
0.000936568
0.000899384
0.000865206
0.000833746
0.000804745
0.000777971
0.00075322
0.000730305
0.000709063
0.000689348
0.000671034
0.000654007
0.000638172
0.000623448
0.000609766
0.000597073
0.000585329
0.000574508
0.000564594
0.000555588
0.0005475
0.000540352
0.000534179
0.000529022
0.000524929
0.000521954
0.000520151
0.00051957
0.000520258
0.000522248
0.000525561
0.0005302
0.000536149
0.000543371
0.000551808
0.000561383
0.000572001
0.000583551
0.000595912
0.000608955
0.00062255
0.000636565
0.000650873
0.000665351
0.000679882
0.000694358
0.000708683
0.000722768
0.000736539
0.00074993
0.000762889
0.000775373
0.000787348
0.000798788
0.000809675
0.000819999
0.000829757
0.000838949
0.00084758
0.000855658
0.000863197
0.000870211
0.000876718
0.000882737
0.00088829
0.000893397
0.00089808
0.000902363
0.000906268
0.000909817
0.000913034
0.000915939
0.000918555
0.000920902
0.000923001
0.00092487
0.000926527
0.000927992
0.00092928
0.000930407
0.000931389
0.000932239
0.00093297
0.000933596
0.000934127
0.000934575
0.000934949
0.000935259
0.000935513
0.000935719
0.000935885
0.000936016
0.00093612
0.0009362
0.000936262
0.000936308
0.000936342
0.000936365
0.000936379
0.000977079
0.000936569
0.000899386
0.000865209
0.000833749
0.000804749
0.000777976
0.000753225
0.00073031
0.000709069
0.000689355
0.000671041
0.000654015
0.000638181
0.000623457
0.000609776
0.000597084
0.00058534
0.000574519
0.000564606
0.0005556
0.000547512
0.000540365
0.000534192
0.000529034
0.00052494
0.000521964
0.000520158
0.000519575
0.000520259
0.000522245
0.000525553
0.000530188
0.000536131
0.000543348
0.000551779
0.000561349
0.000571961
0.000583506
0.000595863
0.000608905
0.000622498
0.000636513
0.00065082
0.000665296
0.000679825
0.000694299
0.000708622
0.000722706
0.000736476
0.000749868
0.000762829
0.000775315
0.000787292
0.000798736
0.000809625
0.000819952
0.000829714
0.000838909
0.000847543
0.000855624
0.000863166
0.000870183
0.000876692
0.000882714
0.000888269
0.000893378
0.000898064
0.000902349
0.000906255
0.000909806
0.000913024
0.000915931
0.000918548
0.000920897
0.000922996
0.000924866
0.000926524
0.000927989
0.000929278
0.000930406
0.000931388
0.000932238
0.00093297
0.000933596
0.000934128
0.000934575
0.00093495
0.000935259
0.000935514
0.00093572
0.000935886
0.000936017
0.000936121
0.000936201
0.000936263
0.000936309
0.000936343
0.000936366
0.00093638
0.000977079
0.000936571
0.00089939
0.000865214
0.000833755
0.000804756
0.000777984
0.000753234
0.000730321
0.00070908
0.000689368
0.000671055
0.00065403
0.000638197
0.000623474
0.000609794
0.000597102
0.00058536
0.000574539
0.000564627
0.000555621
0.000547533
0.000540385
0.00053421
0.00052905
0.000524954
0.000521973
0.000520162
0.000519573
0.000520249
0.000522226
0.000525525
0.000530148
0.00053608
0.000543284
0.000551704
0.000561261
0.000571862
0.000583396
0.000595744
0.000608777
0.000622365
0.000636374
0.000650676
0.000665149
0.000679675
0.000694148
0.00070847
0.000722554
0.000736326
0.000749721
0.000762686
0.000775177
0.00078716
0.00079861
0.000809506
0.000819839
0.000829607
0.000838809
0.000847449
0.000855536
0.000863084
0.000870107
0.000876623
0.00088265
0.00088821
0.000893324
0.000898015
0.000902304
0.000906215
0.000909769
0.000912991
0.000915901
0.000918521
0.000920872
0.000922974
0.000924847
0.000926507
0.000927974
0.000929265
0.000930394
0.000931378
0.00093223
0.000932963
0.00093359
0.000934122
0.000934571
0.000934946
0.000935257
0.000935511
0.000935718
0.000935885
0.000936017
0.000936121
0.000936201
0.000936263
0.00093631
0.000936344
0.000936368
0.000936382
0.00097708
0.000936574
0.000899395
0.000865221
0.000833764
0.000804766
0.000777996
0.000753248
0.000730336
0.000709097
0.000689386
0.000671075
0.000654051
0.00063822
0.000623498
0.000609819
0.00059713
0.000585388
0.000574569
0.000564657
0.000555651
0.000547563
0.000540414
0.000534237
0.000529073
0.000524972
0.000521985
0.000520166
0.000519567
0.000520232
0.000522196
0.00052548
0.000530087
0.000536001
0.000543188
0.000551589
0.000561129
0.000571712
0.000583231
0.000595564
0.000608585
0.000622161
0.000636162
0.000650457
0.000664924
0.000679447
0.000693917
0.000708239
0.000722325
0.0007361
0.0007495
0.000762471
0.000774969
0.00078696
0.000798418
0.000809323
0.000819666
0.000829444
0.000838655
0.000847304
0.000855401
0.000862958
0.00086999
0.000876514
0.00088255
0.000888118
0.000893239
0.000897936
0.000902232
0.000906149
0.00090971
0.000912937
0.000915852
0.000918477
0.000920832
0.000922938
0.000924814
0.000926478
0.000927948
0.000929241
0.000930374
0.00093136
0.000932214
0.000932949
0.000933578
0.000934112
0.000934562
0.000934939
0.000935251
0.000935507
0.000935715
0.000935882
0.000936015
0.00093612
0.000936201
0.000936264
0.000936312
0.000936346
0.00093637
0.000936384
0.000977081
0.000936577
0.0008994
0.000865229
0.000833774
0.000804779
0.000778011
0.000753265
0.000730355
0.000709119
0.00068941
0.0006711
0.000654079
0.00063825
0.00062353
0.000609853
0.000597165
0.000585426
0.000574607
0.000564696
0.000555691
0.000547602
0.000540451
0.000534271
0.000529103
0.000524996
0.000522001
0.000520172
0.00051956
0.000520211
0.000522158
0.000525422
0.000530009
0.000535901
0.000543065
0.000551443
0.000560959
0.000571521
0.000583018
0.000595332
0.000608336
0.000621898
0.000635886
0.000650172
0.000664632
0.000679149
0.000693618
0.000707939
0.000722027
0.000735806
0.000749212
0.000762191
0.000774698
0.000786699
0.000798168
0.000809085
0.000819439
0.000829229
0.000838452
0.000847114
0.000855223
0.000862791
0.000869835
0.00087637
0.000882416
0.000887994
0.000893125
0.000897831
0.000902136
0.000906061
0.000909629
0.000912863
0.000915785
0.000918416
0.000920777
0.000922888
0.000924769
0.000926438
0.000927912
0.000929209
0.000930345
0.000931334
0.000932191
0.000932929
0.000933561
0.000934098
0.00093455
0.000934929
0.000935242
0.0009355
0.000935709
0.000935878
0.000936013
0.000936119
0.000936201
0.000936265
0.000936313
0.000936349
0.000936373
0.000936387
0.000977082
0.00093658
0.000899406
0.000865237
0.000833786
0.000804793
0.000778029
0.000753285
0.000730378
0.000709144
0.000689438
0.000671131
0.000654113
0.000638286
0.000623569
0.000609895
0.000597209
0.000585471
0.000574655
0.000564744
0.000555739
0.000547649
0.000540497
0.000534313
0.00052914
0.000525026
0.000522021
0.00052018
0.000519554
0.000520186
0.000522113
0.000525355
0.000529917
0.000535783
0.000542919
0.000551269
0.000560757
0.000571292
0.000582764
0.000595055
0.000608037
0.000621581
0.000635554
0.000649828
0.000664278
0.00067879
0.000693255
0.000707576
0.000721667
0.000735451
0.000748864
0.000761852
0.000774369
0.000786382
0.000797864
0.000808794
0.000819163
0.000828967
0.000838205
0.000846881
0.000855004
0.000862587
0.000869643
0.000876192
0.000882251
0.000887841
0.000892984
0.000897701
0.000902016
0.000905951
0.000909528
0.000912771
0.000915701
0.00091834
0.000920708
0.000922826
0.000924712
0.000926387
0.000927866
0.000929168
0.000930308
0.000931302
0.000932162
0.000932904
0.000933539
0.000934078
0.000934534
0.000934915
0.000935231
0.000935491
0.000935702
0.000935873
0.000936009
0.000936116
0.000936201
0.000936266
0.000936315
0.000936351
0.000936376
0.00093639
0.000977083
0.000936583
0.000899412
0.000865246
0.000833798
0.000804809
0.000778048
0.000753307
0.000730404
0.000709173
0.00068947
0.000671167
0.000654151
0.000638328
0.000623614
0.000609943
0.00059726
0.000585525
0.00057471
0.000564801
0.000555796
0.000547706
0.000540551
0.000534363
0.000529185
0.000525062
0.000522046
0.000520191
0.000519548
0.00052016
0.000522064
0.00052528
0.000529813
0.000535649
0.000542753
0.000551071
0.000560527
0.00057103
0.000582473
0.000594736
0.000607694
0.000621217
0.000635172
0.000649431
0.000663871
0.000678376
0.000692837
0.000707158
0.000721251
0.00073504
0.000748461
0.000761459
0.000773988
0.000786014
0.000797511
0.000808456
0.00081884
0.000828661
0.000837915
0.000846608
0.000854748
0.000862346
0.000869419
0.000875982
0.000882056
0.00088766
0.000892817
0.000897547
0.000901874
0.00090582
0.000909409
0.000912661
0.000915601
0.000918248
0.000920625
0.00092275
0.000924644
0.000926325
0.000927811
0.000929118
0.000930264
0.000931262
0.000932127
0.000932873
0.000933512
0.000934055
0.000934513
0.000934898
0.000935217
0.000935479
0.000935693
0.000935866
0.000936004
0.000936113
0.000936199
0.000936266
0.000936316
0.000936354
0.000936379
0.000936393
0.000977084
0.000936587
0.000899418
0.000865256
0.000833811
0.000804825
0.000778068
0.000753331
0.000730432
0.000709205
0.000689506
0.000671206
0.000654195
0.000638375
0.000623665
0.000609997
0.000597317
0.000585585
0.000574773
0.000564865
0.000555861
0.00054777
0.000540613
0.000534421
0.000529236
0.000525103
0.000522076
0.000520205
0.000519543
0.000520133
0.000522011
0.000525198
0.000529699
0.000535502
0.00054257
0.000550852
0.000560273
0.000570741
0.00058215
0.000594383
0.000607313
0.000620811
0.000634746
0.000648989
0.000663417
0.000677912
0.000692369
0.000706689
0.000720784
0.000734579
0.000748008
0.000761016
0.000773558
0.000785599
0.000797111
0.000808074
0.000818476
0.000828314
0.000837587
0.000846298
0.000854456
0.000862072
0.000869163
0.000875743
0.000881834
0.000887454
0.000892625
0.00089737
0.00090171
0.00090567
0.00090927
0.000912535
0.000915485
0.000918143
0.000920528
0.000922663
0.000924565
0.000926253
0.000927746
0.00092906
0.000930212
0.000931215
0.000932086
0.000932836
0.000933479
0.000934027
0.000934489
0.000934877
0.000935199
0.000935465
0.000935682
0.000935857
0.000935998
0.000936109
0.000936197
0.000936265
0.000936317
0.000936356
0.000936382
0.000936396
0.000977085
0.00093659
0.000899424
0.000865265
0.000833824
0.000804842
0.000778089
0.000753356
0.000730461
0.000709239
0.000689544
0.000671249
0.000654242
0.000638426
0.00062372
0.000610057
0.000597381
0.000585652
0.000574842
0.000564937
0.000555933
0.000547841
0.000540682
0.000534486
0.000529293
0.000525151
0.00052211
0.000520223
0.00051954
0.000520106
0.000521956
0.000525111
0.000529578
0.000535344
0.000542374
0.000550616
0.000559998
0.000570427
0.0005818
0.000593999
0.000606899
0.00062037
0.000634282
0.000648506
0.00066292
0.000677406
0.000691857
0.000706175
0.000720272
0.000734073
0.00074751
0.00076053
0.000773086
0.000785142
0.000796671
0.000807651
0.000818072
0.00082793
0.000837223
0.000845954
0.000854131
0.000861768
0.000868877
0.000875477
0.000881585
0.000887223
0.000892411
0.000897171
0.000901527
0.000905501
0.000909115
0.000912392
0.000915354
0.000918023
0.000920419
0.000922563
0.000924475
0.000926171
0.000927672
0.000928994
0.000930152
0.000931162
0.000932038
0.000932794
0.000933442
0.000933994
0.000934461
0.000934853
0.000935179
0.000935448
0.000935668
0.000935847
0.00093599
0.000936104
0.000936194
0.000936264
0.000936318
0.000936357
0.000936384
0.000936399
0.000977086
0.000936593
0.00089943
0.000865275
0.000833837
0.00080486
0.00077811
0.000753382
0.000730492
0.000709274
0.000689584
0.000671294
0.000654292
0.000638481
0.00062378
0.000610121
0.00059745
0.000585724
0.000574918
0.000565015
0.000556012
0.00054792
0.000540758
0.000534557
0.000529357
0.000525204
0.000522149
0.000520244
0.000519539
0.000520079
0.000521899
0.000525021
0.000529451
0.000535177
0.000542166
0.000550366
0.000559706
0.000570094
0.000581428
0.00059359
0.000606457
0.000619898
0.000633785
0.000647989
0.000662387
0.000676862
0.000691306
0.000705622
0.000719721
0.000733527
0.000746973
0.000760004
0.000772574
0.000784646
0.000796193
0.000807192
0.000817633
0.000827512
0.000836826
0.000845578
0.000853777
0.000861435
0.000868565
0.000875184
0.000881312
0.000886969
0.000892175
0.000896953
0.000901325
0.000905314
0.000908943
0.000912234
0.000915209
0.00091789
0.000920298
0.000922453
0.000924374
0.00092608
0.00092759
0.000928919
0.000930085
0.000931102
0.000931985
0.000932747
0.0009334
0.000933958
0.000934429
0.000934825
0.000935156
0.000935429
0.000935652
0.000935834
0.00093598
0.000936097
0.00093619
0.000936262
0.000936317
0.000936358
0.000936385
0.0009364
0.000977087
0.000936596
0.000899436
0.000865284
0.00083385
0.000804877
0.000778132
0.000753409
0.000730523
0.00070931
0.000689626
0.000671341
0.000654344
0.000638539
0.000623844
0.00061019
0.000597523
0.000585802
0.000574999
0.000565098
0.000556097
0.000548004
0.000540839
0.000534634
0.000529426
0.000525262
0.000522192
0.000520268
0.000519541
0.000520053
0.000521842
0.000524928
0.00052932
0.000535004
0.00054195
0.000550105
0.0005594
0.000569745
0.000581036
0.000593159
0.00060599
0.000619401
0.000633261
0.000647442
0.000661823
0.000676285
0.000690722
0.000705034
0.000719135
0.000732946
0.000746401
0.000759443
0.000772027
0.000784116
0.000795681
0.000806701
0.000817163
0.000827064
0.0008364
0.000845174
0.000853396
0.000861076
0.000868228
0.000874869
0.000881017
0.000886694
0.000891919
0.000896716
0.000901105
0.000905111
0.000908756
0.000912062
0.000915051
0.000917745
0.000920165
0.000922332
0.000924264
0.00092598
0.000927499
0.000928837
0.000930011
0.000931035
0.000931925
0.000932694
0.000933354
0.000933916
0.000934393
0.000934794
0.000935129
0.000935406
0.000935634
0.000935819
0.000935969
0.000936089
0.000936184
0.000936258
0.000936315
0.000936357
0.000936386
0.000936401
0.000977088
0.000936599
0.000899442
0.000865293
0.000833863
0.000804894
0.000778153
0.000753435
0.000730555
0.000709348
0.000689669
0.00067139
0.000654399
0.0006386
0.00062391
0.000610261
0.0005976
0.000585883
0.000575084
0.000565186
0.000556187
0.000548093
0.000540927
0.000534716
0.0005295
0.000525325
0.00052224
0.000520296
0.000519545
0.000520029
0.000521785
0.000524834
0.000529185
0.000534826
0.000541726
0.000549835
0.000559083
0.000569382
0.000580629
0.000592711
0.000605504
0.000618881
0.000632712
0.00064687
0.000661232
0.000675681
0.000690109
0.000704418
0.000718519
0.000732334
0.000745798
0.000758852
0.000771451
0.000783556
0.000795141
0.000806181
0.000816664
0.000826588
0.000835947
0.000844745
0.00085299
0.000860693
0.000867868
0.000874531
0.000880702
0.0008864
0.000891645
0.000896461
0.00090087
0.000904893
0.000908555
0.000911876
0.00091488
0.000917589
0.000920022
0.000922201
0.000924144
0.000925871
0.0009274
0.000928748
0.00092993
0.000930963
0.00093186
0.000932636
0.000933302
0.000933871
0.000934354
0.00093476
0.0009351
0.000935382
0.000935613
0.000935803
0.000935956
0.000936079
0.000936176
0.000936253
0.000936312
0.000936355
0.000936385
0.0009364
0.000977088
0.000936602
0.000899448
0.000865302
0.000833875
0.00080491
0.000778175
0.000753462
0.000730587
0.000709385
0.000689712
0.00067144
0.000654455
0.000638662
0.000623978
0.000610336
0.00059768
0.000585968
0.000575173
0.000565279
0.000556281
0.000548187
0.000541018
0.000534803
0.000529579
0.000525391
0.000522291
0.000520327
0.000519551
0.000520006
0.000521728
0.00052474
0.000529049
0.000534644
0.000541497
0.000549558
0.000558757
0.000569008
0.00058021
0.000592249
0.000605003
0.000618344
0.000632145
0.000646278
0.000660619
0.000675053
0.000689472
0.000703776
0.000717877
0.000731697
0.000745168
0.000758234
0.000770847
0.00078297
0.000794574
0.000805635
0.000816141
0.000826087
0.00083547
0.000844293
0.000852562
0.000860289
0.000867488
0.000874175
0.000880368
0.000886088
0.000891355
0.000896191
0.000900619
0.000904661
0.00090834
0.000911678
0.000914698
0.000917421
0.000919868
0.00092206
0.000924016
0.000925754
0.000927294
0.000928651
0.000929843
0.000930884
0.00093179
0.000932573
0.000933246
0.000933822
0.00093431
0.000934722
0.000935067
0.000935354
0.00093559
0.000935784
0.00093594
0.000936067
0.000936167
0.000936246
0.000936307
0.000936352
0.000936382
0.000936398
0.000977089
0.000936605
0.000899453
0.00086531
0.000833888
0.000804927
0.000778196
0.000753488
0.000730619
0.000709423
0.000689756
0.00067149
0.000654512
0.000638725
0.000624048
0.000610412
0.000597762
0.000586056
0.000575266
0.000565374
0.000556378
0.000548285
0.000541114
0.000534893
0.000529661
0.000525462
0.000522345
0.000520361
0.00051956
0.000519985
0.000521672
0.000524645
0.000528911
0.000534461
0.000541265
0.000549276
0.000558425
0.000568627
0.000579781
0.000591776
0.000604488
0.000617793
0.000631562
0.000645668
0.000659988
0.000674407
0.000688815
0.000703113
0.000717214
0.000731037
0.000744517
0.000757594
0.000770222
0.000782362
0.000793985
0.000805067
0.000815595
0.000825565
0.000834973
0.00084382
0.000852114
0.000859866
0.00086709
0.000873801
0.000880018
0.00088576
0.000891049
0.000895906
0.000900355
0.000904416
0.000908113
0.000911469
0.000914505
0.000917244
0.000919705
0.000921911
0.000923879
0.00092563
0.000927181
0.000928548
0.00092975
0.0009308
0.000931714
0.000932505
0.000933186
0.000933768
0.000934264
0.000934682
0.000935032
0.000935324
0.000935565
0.000935762
0.000935923
0.000936053
0.000936156
0.000936238
0.0009363
0.000936347
0.000936378
0.000936395
0.00097709
0.000936608
0.000899458
0.000865318
0.000833899
0.000804943
0.000778217
0.000753514
0.00073065
0.000709461
0.0006898
0.000671541
0.000654569
0.00063879
0.000624119
0.00061049
0.000597846
0.000586146
0.00057536
0.000565472
0.000556478
0.000548386
0.000541212
0.000534987
0.000529746
0.000525535
0.000522402
0.000520398
0.000519571
0.000519966
0.000521618
0.000524551
0.000528773
0.000534276
0.000541032
0.000548991
0.000558089
0.000568241
0.000579346
0.000591295
0.000603965
0.000617232
0.000630968
0.000645046
0.000659344
0.000673745
0.000688142
0.000702434
0.000716533
0.00073036
0.000743846
0.000756935
0.000769577
0.000781734
0.000793376
0.00080448
0.000815031
0.000825025
0.000834457
0.00084333
0.00085165
0.000859427
0.000866676
0.000873411
0.000879652
0.000885418
0.00089073
0.000895609
0.000900078
0.000904159
0.000907876
0.000911249
0.000914303
0.000917057
0.000919534
0.000921753
0.000923735
0.000925498
0.000927061
0.00092844
0.000929651
0.000930711
0.000931634
0.000932433
0.000933122
0.000933711
0.000934213
0.000934637
0.000934994
0.000935291
0.000935537
0.000935739
0.000935903
0.000936037
0.000936143
0.000936227
0.000936292
0.000936341
0.000936373
0.00093639
0.000977091
0.00093661
0.000899463
0.000865326
0.000833911
0.000804959
0.000778237
0.00075354
0.000730682
0.000709498
0.000689844
0.000671591
0.000654627
0.000638854
0.000624191
0.000610568
0.000597931
0.000586236
0.000575456
0.000565572
0.000556581
0.000548488
0.000541313
0.000535083
0.000529834
0.000525611
0.000522462
0.000520437
0.000519584
0.000519949
0.000521565
0.000524458
0.000528637
0.000534092
0.000540797
0.000548705
0.000557751
0.000567851
0.000578907
0.000590808
0.000603435
0.000616663
0.000630365
0.000644414
0.000658688
0.000673072
0.000687456
0.000701741
0.000715838
0.000729668
0.000743161
0.00075626
0.000768916
0.00078109
0.000792752
0.000803877
0.000814451
0.00082447
0.000833927
0.000842825
0.00085117
0.000858973
0.000866248
0.000873008
0.000879274
0.000885064
0.000890399
0.0008953
0.000899791
0.000903893
0.000907628
0.000911021
0.000914091
0.000916862
0.000919355
0.000921589
0.000923585
0.000925361
0.000926935
0.000928325
0.000929547
0.000930617
0.000931549
0.000932357
0.000933054
0.000933651
0.00093416
0.00093459
0.000934952
0.000935255
0.000935506
0.000935713
0.000935882
0.000936018
0.000936128
0.000936215
0.000936282
0.000936332
0.000936366
0.000936383
0.000977091
0.000936613
0.000899468
0.000865334
0.000833922
0.000804974
0.000778257
0.000753565
0.000730712
0.000709535
0.000689888
0.000671641
0.000654684
0.000638919
0.000624263
0.000610647
0.000598016
0.000586328
0.000575553
0.000565673
0.000556684
0.000548593
0.000541416
0.000535181
0.000529924
0.000525689
0.000522524
0.000520478
0.0005196
0.000519933
0.000521514
0.000524367
0.000528501
0.000533908
0.000540563
0.000548419
0.000557412
0.00056746
0.000578466
0.000590319
0.000602902
0.00061609
0.000629756
0.000643776
0.000658026
0.000672391
0.000686762
0.000701039
0.000715134
0.000728965
0.000742465
0.000755574
0.000768244
0.000780434
0.000792115
0.000803261
0.000813858
0.000823901
0.000833383
0.000842307
0.000850678
0.000858508
0.000865808
0.000872594
0.000878885
0.000884699
0.000890057
0.000894982
0.000899494
0.000903617
0.000907372
0.000910783
0.000913872
0.00091666
0.000919169
0.000921418
0.000923428
0.000925217
0.000926804
0.000928206
0.000929439
0.000930519
0.00093146
0.000932277
0.000932982
0.000933587
0.000934103
0.00093454
0.000934908
0.000935217
0.000935473
0.000935684
0.000935858
0.000935998
0.000936111
0.000936201
0.000936271
0.000936322
0.000936357
0.000936375
0.000977092
0.000936615
0.000899472
0.000865341
0.000833933
0.000804989
0.000778276
0.000753589
0.000730742
0.000709571
0.00068993
0.000671691
0.000654741
0.000638983
0.000624334
0.000610726
0.000598102
0.00058642
0.00057565
0.000565775
0.000556789
0.000548698
0.000541519
0.00053528
0.000530016
0.000525769
0.000522588
0.000520521
0.000519617
0.00051992
0.000521465
0.000524278
0.000528367
0.000533727
0.000540331
0.000548134
0.000557075
0.00056707
0.000578024
0.00058983
0.000602368
0.000615515
0.000629146
0.000643134
0.00065736
0.000671705
0.000686062
0.000700331
0.000714422
0.000728255
0.00074176
0.000754879
0.000767562
0.000779769
0.000791469
0.000802636
0.000813256
0.000823322
0.000832829
0.000841779
0.000850176
0.000858032
0.000865358
0.00087217
0.000878486
0.000884325
0.000889707
0.000894654
0.000899189
0.000903333
0.000907109
0.000910539
0.000913646
0.000916451
0.000918976
0.000921241
0.000923265
0.000925068
0.000926668
0.000928081
0.000929326
0.000930416
0.000931368
0.000932194
0.000932907
0.00093352
0.000934043
0.000934487
0.000934862
0.000935176
0.000935438
0.000935654
0.000935831
0.000935976
0.000936093
0.000936185
0.000936257
0.00093631
0.000936346
0.000936364
0.000977093
0.000936617
0.000899477
0.000865348
0.000833943
0.000805003
0.000778295
0.000753613
0.000730772
0.000709607
0.000689972
0.00067174
0.000654797
0.000639046
0.000624405
0.000610804
0.000598187
0.000586512
0.000575747
0.000565877
0.000556893
0.000548804
0.000541623
0.00053538
0.000530108
0.00052585
0.000522653
0.000520565
0.000519636
0.000519908
0.000521419
0.000524191
0.000528236
0.000533548
0.000540101
0.000547852
0.000556739
0.000566682
0.000577585
0.000589342
0.000601834
0.000614941
0.000628535
0.000642492
0.000656692
0.000671017
0.00068536
0.000699619
0.000713706
0.00072754
0.00074105
0.000754179
0.000766874
0.000779097
0.000790815
0.000802003
0.000812645
0.000822736
0.000832268
0.000841243
0.000849667
0.000857548
0.0008649
0.000871738
0.00087808
0.000883943
0.00088935
0.00089432
0.000898877
0.000903042
0.000906839
0.000910289
0.000913414
0.000916237
0.000918778
0.000921059
0.000923098
0.000924915
0.000926527
0.000927953
0.000929209
0.00093031
0.000931271
0.000932107
0.000932829
0.00093345
0.00093398
0.000934432
0.000934813
0.000935133
0.0009354
0.000935621
0.000935803
0.000935952
0.000936072
0.000936167
0.000936241
0.000936296
0.000936333
0.000936352
0.000977093
0.00093662
0.000899481
0.000865355
0.000833953
0.000805017
0.000778313
0.000753636
0.0007308
0.000709642
0.000690014
0.000671788
0.000654852
0.000639109
0.000624475
0.000610881
0.000598271
0.000586603
0.000575844
0.000565978
0.000556998
0.000548909
0.000541727
0.00053548
0.0005302
0.000525931
0.000522718
0.000520611
0.000519656
0.000519899
0.000521374
0.000524106
0.000528107
0.000533371
0.000539874
0.000547573
0.000556407
0.000566297
0.000577149
0.000588857
0.000601304
0.000614369
0.000627926
0.000641852
0.000656026
0.00067033
0.000684657
0.000698907
0.000712989
0.000726823
0.000740339
0.000753475
0.000766183
0.000778421
0.000790158
0.000801366
0.00081203
0.000822144
0.000831701
0.000840702
0.000849151
0.000857059
0.000864437
0.000871301
0.000877667
0.000883556
0.000888986
0.00089398
0.00089856
0.000902747
0.000906564
0.000910033
0.000913178
0.000916018
0.000918576
0.000920872
0.000922926
0.000924757
0.000926383
0.000927821
0.000929089
0.000930201
0.000931172
0.000932017
0.000932748
0.000933377
0.000933915
0.000934374
0.000934761
0.000935088
0.00093536
0.000935587
0.000935773
0.000935926
0.000936049
0.000936147
0.000936224
0.000936281
0.000936319
0.000936338
0.000977094
0.000936622
0.000899485
0.000865362
0.000833963
0.00080503
0.000778331
0.000753659
0.000730828
0.000709675
0.000690054
0.000671835
0.000654906
0.00063917
0.000624544
0.000610957
0.000598355
0.000586692
0.00057594
0.000566078
0.000557101
0.000549014
0.000541831
0.000535579
0.000530293
0.000526012
0.000522784
0.000520657
0.000519678
0.000519891
0.000521331
0.000524024
0.000527982
0.000533199
0.000539652
0.000547299
0.00055608
0.000565918
0.000576719
0.000588378
0.000600779
0.000613802
0.000627323
0.000641217
0.000655363
0.000669647
0.000683958
0.000698198
0.000712275
0.000726108
0.000739627
0.000752772
0.000765492
0.000777745
0.000789498
0.000800727
0.000811412
0.00082155
0.000831131
0.000840157
0.000848632
0.000856566
0.00086397
0.000870859
0.000877251
0.000883164
0.000888619
0.000893636
0.000898238
0.000902447
0.000906285
0.000909774
0.000912937
0.000915795
0.00091837
0.000920682
0.000922751
0.000924597
0.000926235
0.000927686
0.000928965
0.000930089
0.00093107
0.000931925
0.000932664
0.000933302
0.000933848
0.000934314
0.000934708
0.00093504
0.000935318
0.00093555
0.000935741
0.000935898
0.000936025
0.000936126
0.000936205
0.000936264
0.000936303
0.000936323
0.000977094
0.000936624
0.000899489
0.000865368
0.000833973
0.000805043
0.000778348
0.00075368
0.000730855
0.000709708
0.000690093
0.000671881
0.000654959
0.000639231
0.000624611
0.000611032
0.000598437
0.000586781
0.000576034
0.000566177
0.000557203
0.000549117
0.000541934
0.000535678
0.000530385
0.000526093
0.000522851
0.000520704
0.000519701
0.000519884
0.00052129
0.000523945
0.00052786
0.00053303
0.000539434
0.00054703
0.000555759
0.000565544
0.000576295
0.000587905
0.000600261
0.000613242
0.000626726
0.000640587
0.000654707
0.000668969
0.000683264
0.000697493
0.000711564
0.000725396
0.000738919
0.000752071
0.000764802
0.000777069
0.00078884
0.000800088
0.000810795
0.000820955
0.00083056
0.000839611
0.000848111
0.000856071
0.0008635
0.000870415
0.000876832
0.00088277
0.000888249
0.000893289
0.000897914
0.000902144
0.000906003
0.000909512
0.000912694
0.00091557
0.000918162
0.00092049
0.000922574
0.000924433
0.000926086
0.000927549
0.00092884
0.000929974
0.000930966
0.00093183
0.000932579
0.000933225
0.000933779
0.000934251
0.000934653
0.000934991
0.000935275
0.000935511
0.000935707
0.000935868
0.000935998
0.000936103
0.000936184
0.000936245
0.000936285
0.000936306
0.000977095
0.000936626
0.000899493
0.000865374
0.000833982
0.000805055
0.000778364
0.000753701
0.000730882
0.00070974
0.000690131
0.000671925
0.000655011
0.000639289
0.000624677
0.000611105
0.000598517
0.000586868
0.000576126
0.000566274
0.000557304
0.000549219
0.000542035
0.000535776
0.000530475
0.000526174
0.000522917
0.000520751
0.000519724
0.000519879
0.000521252
0.000523869
0.000527741
0.000532866
0.000539221
0.000546766
0.000555444
0.000565178
0.000575878
0.00058744
0.000599751
0.000612691
0.000626137
0.000639967
0.000654059
0.000668299
0.000682578
0.000696795
0.00071086
0.000724691
0.000738216
0.000751376
0.000764117
0.000776398
0.000788185
0.000799452
0.000810179
0.000820362
0.00082999
0.000839065
0.000847591
0.000855575
0.000863031
0.000869971
0.000876413
0.000882375
0.000887877
0.000892941
0.000897588
0.00090184
0.000905719
0.000909248
0.000912448
0.000915342
0.000917951
0.000920295
0.000922394
0.000924268
0.000925934
0.00092741
0.000928712
0.000929858
0.00093086
0.000931734
0.000932491
0.000933146
0.000933708
0.000934188
0.000934596
0.00093494
0.00093523
0.000935471
0.000935672
0.000935837
0.000935971
0.000936078
0.000936162
0.000936224
0.000936266
0.000936287
0.000977095
0.000936628
0.000899497
0.00086538
0.00083399
0.000805067
0.00077838
0.000753722
0.000730907
0.000709771
0.000690168
0.000671969
0.000655061
0.000639346
0.000624742
0.000611177
0.000598595
0.000586952
0.000576217
0.000566369
0.000557402
0.000549319
0.000542134
0.000535872
0.000530565
0.000526253
0.000522982
0.000520798
0.000519748
0.000519875
0.000521216
0.000523795
0.000527626
0.000532706
0.000539013
0.000546509
0.000555136
0.00056482
0.00057547
0.000586984
0.00059925
0.000612149
0.000625559
0.000639356
0.000653421
0.000667639
0.000681901
0.000696107
0.000710165
0.000723994
0.000737522
0.000750687
0.000763438
0.000775733
0.000787536
0.00079882
0.000809568
0.000819772
0.000829424
0.000838523
0.000847073
0.000855082
0.000862562
0.000869527
0.000875994
0.00088198
0.000887506
0.000892593
0.000897261
0.000901535
0.000905434
0.000908983
0.000912202
0.000915114
0.000917739
0.000920099
0.000922213
0.000924101
0.000925781
0.000927269
0.000928584
0.00092974
0.000930753
0.000931636
0.000932403
0.000933065
0.000933635
0.000934122
0.000934537
0.000934888
0.000935183
0.00093543
0.000935635
0.000935804
0.000935941
0.000936052
0.000936138
0.000936202
0.000936246
0.000936267
0.000977096
0.000936629
0.0008995
0.000865386
0.000833999
0.000805079
0.000778396
0.000753741
0.000730931
0.000709801
0.000690203
0.000672011
0.000655109
0.000639402
0.000624804
0.000611246
0.000598671
0.000587035
0.000576305
0.000566462
0.000557498
0.000549417
0.000542231
0.000535966
0.000530653
0.000526332
0.000523047
0.000520845
0.000519772
0.000519872
0.000521181
0.000523725
0.000527516
0.000532551
0.000538812
0.000546259
0.000554837
0.00056447
0.000575072
0.000586539
0.000598761
0.000611619
0.000624992
0.000638757
0.000652796
0.000666991
0.000681236
0.00069543
0.000709481
0.000723307
0.000736837
0.000750008
0.000762769
0.000775075
0.000786894
0.000798196
0.000808963
0.000819189
0.000828863
0.000837985
0.000846559
0.000854592
0.000862097
0.000869086
0.000875577
0.000881587
0.000887136
0.000892245
0.000896936