/*--------------------------------*- C++ -*----------------------------------*\
  =========                 |
  \\      /  F ield         | OpenFOAM: The Open Source CFD Toolbox
   \\    /   O peration     | Website:  https://openfoam.org
    \\  /    A nd           | Version:  11
     \\/     M anipulation  |
\*---------------------------------------------------------------------------*/
FoamFile
{
    format      ascii;
    class       volScalarField;
    location    "154";
    object      omega;
}
// * * * * * * * * * * * * * * * * * * * * * * * * * * * * * * * * * * * * * //

dimensions      [0 0 -1 0 0 0 0];

internalField   nonuniform List<scalar> 
10000
(
0.961703
0.892209
0.829112
0.771747
0.719522
0.671909
0.628439
0.588695
0.552302
0.518927
0.488272
0.460072
0.434086
0.4101
0.387923
0.367381
0.348318
0.330594
0.314082
0.298667
0.284246
0.270727
0.258025
0.246067
0.234787
0.224126
0.214037
0.204476
0.195409
0.186808
0.178652
0.170924
0.163611
0.156705
0.150197
0.14408
0.138348
0.132991
0.128
0.123362
0.119063
0.115089
0.111424
0.108051
0.104952
0.10211
0.0995067
0.0971247
0.0949474
0.0929586
0.091143
0.0894866
0.0879764
0.0865999
0.085346
0.0842042
0.0831649
0.0822191
0.0813589
0.0805768
0.079866
0.0792202
0.0786337
0.0781013
0.0776183
0.0771802
0.076783
0.076423
0.076097
0.0758018
0.0755346
0.0752928
0.0750741
0.0748763
0.0746975
0.0745359
0.0743897
0.0742576
0.0741382
0.0740302
0.0739325
0.0738441
0.0737641
0.0736916
0.0736259
0.0735664
0.0735125
0.0734636
0.0734192
0.0733791
0.0733428
0.0733101
0.0732808
0.0732548
0.0732319
0.0732123
0.0731959
0.073183
0.0731738
0.0731685
0.961703
0.89221
0.829113
0.771749
0.719524
0.671912
0.628442
0.588698
0.552305
0.51893
0.488276
0.460075
0.43409
0.410105
0.387928
0.367386
0.348323
0.3306
0.314088
0.298673
0.284253
0.270735
0.258034
0.246077
0.234797
0.224138
0.21405
0.20449
0.195424
0.186825
0.17867
0.170942
0.163631
0.156725
0.150218
0.144102
0.13837
0.133013
0.128021
0.123383
0.119084
0.11511
0.111445
0.108071
0.104971
0.102128
0.0995237
0.0971405
0.0949619
0.0929718
0.0911552
0.089498
0.0879869
0.0866097
0.0853551
0.0842126
0.0831726
0.0822264
0.0813656
0.080583
0.0798717
0.0792255
0.0786386
0.0781059
0.0776225
0.0771841
0.0767866
0.0764263
0.0761
0.0758046
0.0755372
0.0752952
0.0750763
0.0748783
0.0746994
0.0745376
0.0743913
0.074259
0.0741395
0.0740314
0.0739336
0.0738451
0.073765
0.0736924
0.0736267
0.0735671
0.0735131
0.0734641
0.0734197
0.0733795
0.0733432
0.0733105
0.0732812
0.0732551
0.0732322
0.0732125
0.0731962
0.0731832
0.073174
0.0731688
0.961703
0.892211
0.829115
0.771752
0.719528
0.671916
0.628447
0.588703
0.552311
0.518937
0.488283
0.460083
0.434097
0.410112
0.387936
0.367394
0.348332
0.330609
0.314098
0.298684
0.284265
0.270748
0.258048
0.246092
0.234815
0.224157
0.214071
0.204513
0.195449
0.186852
0.178699
0.170973
0.163663
0.156759
0.150253
0.144138
0.138406
0.133049
0.128056
0.123417
0.119118
0.115143
0.111477
0.108102
0.105001
0.102156
0.0995503
0.0971654
0.0949851
0.0929934
0.0911752
0.0895165
0.088004
0.0866255
0.0853697
0.0842262
0.0831852
0.0822379
0.0813763
0.0805928
0.0798807
0.0792338
0.0786462
0.0781129
0.0776289
0.0771899
0.0767919
0.0764312
0.0761045
0.0758087
0.0755409
0.0752985
0.0750794
0.0748811
0.0747019
0.0745398
0.0743934
0.0742609
0.0741412
0.0740329
0.0739349
0.0738463
0.0737661
0.0736934
0.0736276
0.0735679
0.0735139
0.0734648
0.0734204
0.0733801
0.0733438
0.073311
0.0732816
0.0732555
0.0732327
0.073213
0.0731966
0.0731837
0.0731744
0.0731692
0.961703
0.892211
0.829117
0.771755
0.719532
0.671921
0.628454
0.588711
0.552319
0.518945
0.488292
0.460092
0.434107
0.410123
0.387947
0.367406
0.348345
0.330623
0.314113
0.2987
0.284282
0.270766
0.258068
0.246115
0.234839
0.224184
0.2141
0.204545
0.195484
0.186889
0.178739
0.171016
0.163708
0.156806
0.150301
0.144187
0.138455
0.133098
0.128105
0.123465
0.119165
0.115189
0.111521
0.108144
0.105041
0.102195
0.0995864
0.0971992
0.0950167
0.0930228
0.0912026
0.0895419
0.0880276
0.0866473
0.0853899
0.0842447
0.0832023
0.0822536
0.0813907
0.0806061
0.0798929
0.079245
0.0786565
0.0781222
0.0776374
0.0771977
0.076799
0.0764377
0.0761104
0.075814
0.0755457
0.0753029
0.0750833
0.0748847
0.0747051
0.0745428
0.074396
0.0742633
0.0741433
0.0740348
0.0739367
0.0738479
0.0737675
0.0736947
0.0736288
0.073569
0.0735148
0.0734657
0.0734212
0.0733809
0.0733445
0.0733117
0.0732823
0.0732562
0.0732333
0.0732136
0.0731972
0.0731843
0.0731751
0.0731698
0.961704
0.892212
0.829119
0.771758
0.719536
0.671927
0.628461
0.588719
0.552328
0.518955
0.488303
0.460104
0.43412
0.410136
0.387961
0.367421
0.348361
0.33064
0.314131
0.29872
0.284304
0.27079
0.258094
0.246143
0.23487
0.224218
0.214137
0.204586
0.195528
0.186937
0.17879
0.17107
0.163765
0.156865
0.150362
0.144248
0.138517
0.13316
0.128167
0.123526
0.119224
0.115246
0.111576
0.108197
0.105092
0.102242
0.0996313
0.0972415
0.0950562
0.0930597
0.0912369
0.0895738
0.0880571
0.0866747
0.0854151
0.084268
0.0832238
0.0822734
0.0814089
0.0806228
0.0799083
0.079259
0.0786693
0.078134
0.0776481
0.0772075
0.0768079
0.0764458
0.0761177
0.0758207
0.0755517
0.0753084
0.0750883
0.0748892
0.0747091
0.0745464
0.0743992
0.0742662
0.0741459
0.0740372
0.0739388
0.0738498
0.0737692
0.0736963
0.0736302
0.0735703
0.073516
0.0734668
0.0734222
0.0733818
0.0733453
0.0733125
0.0732831
0.073257
0.073234
0.0732144
0.073198
0.0731851
0.0731758
0.0731706
0.961703
0.892212
0.82912
0.77176
0.71954
0.671932
0.628467
0.588727
0.552337
0.518966
0.488314
0.460117
0.434134
0.410151
0.387977
0.367439
0.34838
0.33066
0.314153
0.298744
0.28433
0.270818
0.258125
0.246177
0.234907
0.224259
0.214182
0.204635
0.195581
0.186994
0.178851
0.171134
0.163832
0.156935
0.150433
0.144321
0.138591
0.133233
0.128239
0.123597
0.119293
0.115313
0.111641
0.108259
0.105151
0.102298
0.0996842
0.0972912
0.0951028
0.0931032
0.0912775
0.0896115
0.0880921
0.0867071
0.0854451
0.0842957
0.0832492
0.0822969
0.0814305
0.0806426
0.0799264
0.0792756
0.0786845
0.0781479
0.0776608
0.077219
0.0768184
0.0764553
0.0761264
0.0758285
0.0755588
0.0753148
0.075094
0.0748944
0.0747138
0.0745506
0.074403
0.0742696
0.074149
0.0740399
0.0739412
0.073852
0.0737712
0.073698
0.0736318
0.0735717
0.0735173
0.073468
0.0734233
0.0733829
0.0733464
0.0733135
0.073284
0.0732579
0.073235
0.0732153
0.0731989
0.073186
0.0731768
0.0731715
0.961703
0.892213
0.829121
0.771762
0.719543
0.671937
0.628474
0.588734
0.552347
0.518977
0.488327
0.46013
0.434148
0.410168
0.387995
0.367458
0.348401
0.330683
0.314177
0.29877
0.284359
0.27085
0.25816
0.246216
0.23495
0.224306
0.214233
0.20469
0.195642
0.187059
0.17892
0.171207
0.163909
0.157014
0.150515
0.144404
0.138674
0.133317
0.128322
0.123678
0.119372
0.11539
0.111714
0.108329
0.105218
0.102362
0.0997442
0.0973477
0.0951557
0.0931527
0.0913236
0.0896544
0.0881319
0.0867439
0.0854792
0.0843272
0.0832783
0.0823236
0.0814551
0.0806652
0.0799471
0.0792946
0.0787018
0.0781637
0.0776752
0.0772321
0.0768304
0.0764662
0.0761362
0.0758374
0.0755669
0.0753221
0.0751006
0.0749003
0.0747191
0.0745553
0.0744073
0.0742734
0.0741524
0.074043
0.073944
0.0738544
0.0737734
0.0737
0.0736336
0.0735733
0.0735188
0.0734694
0.0734246
0.0733841
0.0733475
0.0733146
0.0732851
0.073259
0.073236
0.0732164
0.0732
0.0731871
0.0731779
0.0731726
0.961703
0.892212
0.829122
0.771764
0.719546
0.671941
0.628479
0.588742
0.552355
0.518987
0.488339
0.460144
0.434164
0.410185
0.388014
0.367479
0.348423
0.330707
0.314204
0.2988
0.284391
0.270886
0.2582
0.246259
0.234998
0.224358
0.21429
0.204752
0.195709
0.187131
0.178997
0.171289
0.163994
0.157102
0.150605
0.144496
0.138766
0.133409
0.128413
0.123767
0.119459
0.115474
0.111795
0.108407
0.105292
0.102432
0.0998105
0.09741
0.0952142
0.0932074
0.0913746
0.0897018
0.0881759
0.0867848
0.085517
0.0843621
0.0833105
0.0823533
0.0814823
0.0806902
0.07997
0.0793156
0.078721
0.0781812
0.0776912
0.0772467
0.0768436
0.0764782
0.0761471
0.0758472
0.0755758
0.0753301
0.0751078
0.0749067
0.0747249
0.0745605
0.0744119
0.0742776
0.0741561
0.0740463
0.0739469
0.0738571
0.0737758
0.0737022
0.0736355
0.0735751
0.0735204
0.0734708
0.073426
0.0733854
0.0733488
0.0733158
0.0732863
0.0732601
0.0732372
0.0732175
0.0732012
0.0731883
0.0731791
0.0731738
0.961703
0.892212
0.829122
0.771764
0.719548
0.671944
0.628484
0.588748
0.552364
0.518997
0.488351
0.460158
0.434179
0.410202
0.388033
0.3675
0.348447
0.330733
0.314233
0.298832
0.284427
0.270925
0.258242
0.246306
0.235049
0.224415
0.214352
0.20482
0.195781
0.187209
0.17908
0.171376
0.164086
0.157197
0.150703
0.144595
0.138866
0.133508
0.128512
0.123864
0.119554
0.115565
0.111883
0.108491
0.105372
0.102508
0.0998824
0.0974776
0.0952776
0.0932667
0.0914299
0.0897533
0.0882238
0.0868291
0.085558
0.0844
0.0833454
0.0823855
0.0815119
0.0807174
0.079995
0.0793384
0.0787419
0.0782003
0.0777086
0.0772625
0.0768579
0.0764912
0.0761589
0.0758579
0.0755854
0.0753387
0.0751156
0.0749137
0.0747312
0.0745661
0.0744169
0.074282
0.0741601
0.0740498
0.0739501
0.0738599
0.0737783
0.0737044
0.0736375
0.073577
0.0735221
0.0734724
0.0734274
0.0733868
0.0733501
0.0733171
0.0732876
0.0732614
0.0732384
0.0732188
0.0732024
0.0731895
0.0731803
0.073175
0.961703
0.892212
0.829121
0.771765
0.719549
0.671947
0.628488
0.588754
0.552371
0.519006
0.488362
0.460171
0.434195
0.410219
0.388053
0.367522
0.348471
0.330761
0.314263
0.298865
0.284464
0.270966
0.258288
0.246356
0.235105
0.224476
0.214419
0.204892
0.195859
0.187293
0.179169
0.17147
0.164184
0.157299
0.150807
0.144701
0.138973
0.133615
0.128617
0.123967
0.119654
0.115663
0.111977
0.108581
0.105458
0.102589
0.0999589
0.0975497
0.0953453
0.09333
0.091489
0.0898083
0.0882749
0.0868765
0.0856019
0.0844406
0.0833829
0.0824199
0.0815437
0.0807465
0.0800217
0.0793629
0.0787643
0.0782206
0.0777272
0.0772794
0.0768733
0.0765051
0.0761715
0.0758693
0.0755956
0.0753479
0.0751239
0.0749211
0.0747378
0.0745721
0.0744222
0.0742868
0.0741643
0.0740536
0.0739535
0.0738629
0.073781
0.0737068
0.0736397
0.0735789
0.0735239
0.0734741
0.073429
0.0733882
0.0733515
0.0733184
0.0732889
0.0732627
0.0732397
0.0732201
0.0732037
0.0731909
0.0731816
0.0731763
0.961703
0.892211
0.829121
0.771765
0.71955
0.671949
0.628491
0.588759
0.552378
0.519015
0.488372
0.460183
0.43421
0.410237
0.388072
0.367544
0.348496
0.330789
0.314295
0.2989
0.284502
0.271009
0.258336
0.246409
0.235163
0.224539
0.214489
0.204968
0.195941
0.18738
0.179262
0.171569
0.164287
0.157405
0.150916
0.144812
0.139085
0.133726
0.128727
0.124076
0.11976
0.115765
0.112076
0.108676
0.105548
0.102675
0.10004
0.0976257
0.0954166
0.0933967
0.0915513
0.0898664
0.0883289
0.0869266
0.0856483
0.0844834
0.0834224
0.0824564
0.0815772
0.0807773
0.0800499
0.0793887
0.0787879
0.0782422
0.0777468
0.0772972
0.0768895
0.0765198
0.0761847
0.0758812
0.0756064
0.0753577
0.0751326
0.074929
0.0747448
0.0745783
0.0744278
0.0742917
0.0741687
0.0740575
0.0739569
0.073866
0.0737837
0.0737093
0.0736419
0.0735809
0.0735257
0.0734758
0.0734306
0.0733897
0.0733529
0.0733198
0.0732902
0.073264
0.0732411
0.0732214
0.0732051
0.0731922
0.073183
0.0731777
0.961702
0.892211
0.829121
0.771765
0.719551
0.67195
0.628494
0.588763
0.552384
0.519023
0.488382
0.460195
0.434224
0.410253
0.388092
0.367566
0.348521
0.330817
0.314327
0.298936
0.284542
0.271053
0.258385
0.246464
0.235223
0.224606
0.214561
0.205047
0.196027
0.187472
0.179359
0.171671
0.164394
0.157516
0.15103
0.144927
0.139201
0.133842
0.128842
0.124189
0.11987
0.115872
0.112178
0.108774
0.105641
0.102764
0.100124
0.0977049
0.095491
0.0934664
0.0916164
0.089927
0.0883853
0.0869789
0.0856967
0.0845282
0.0834638
0.0824945
0.0816122
0.0808095
0.0800794
0.0794157
0.0788126
0.0782647
0.0777673
0.0773159
0.0769064
0.0765351
0.0761986
0.0758938
0.0756177
0.0753678
0.0751417
0.0749371
0.0747521
0.0745848
0.0744336
0.0742968
0.0741733
0.0740615
0.0739605
0.0738692
0.0737866
0.0737118
0.0736442
0.073583
0.0735276
0.0734775
0.0734322
0.0733913
0.0733544
0.0733212
0.0732916
0.0732654
0.0732425
0.0732228
0.0732065
0.0731936
0.0731843
0.073179
0.961702
0.89221
0.82912
0.771765
0.719551
0.671951
0.628496
0.588767
0.552389
0.51903
0.488391
0.460207
0.434238
0.41027
0.388111
0.367588
0.348547
0.330846
0.314359
0.298972
0.284583
0.271098
0.258435
0.24652
0.235285
0.224674
0.214636
0.205128
0.196114
0.187566
0.17946
0.171777
0.164504
0.157631
0.151147
0.145047
0.139321
0.133962
0.128961
0.124305
0.119984
0.115982
0.112285
0.108876
0.105738
0.102856
0.100211
0.0977869
0.095568
0.0935385
0.0916838
0.0899898
0.0884437
0.0870331
0.085747
0.0845747
0.0835067
0.082534
0.0816486
0.0808429
0.0801101
0.0794438
0.0788382
0.0782881
0.0777886
0.0773353
0.076924
0.076551
0.076213
0.0759067
0.0756293
0.0753783
0.075151
0.0749455
0.0747596
0.0745915
0.0744395
0.0743021
0.0741779
0.0740657
0.0739642
0.0738724
0.0737894
0.0737144
0.0736465
0.0735851
0.0735295
0.0734792
0.0734338
0.0733928
0.0733558
0.0733227
0.073293
0.0732668
0.0732438
0.0732241
0.0732078
0.0731949
0.0731857
0.0731804
0.961702
0.89221
0.829119
0.771764
0.719551
0.671952
0.628498
0.58877
0.552394
0.519036
0.4884
0.460217
0.434251
0.410285
0.388129
0.36761
0.348571
0.330874
0.314391
0.299009
0.284624
0.271144
0.258487
0.246577
0.235348
0.224744
0.214712
0.205211
0.196204
0.187663
0.179562
0.171885
0.164617
0.157748
0.151267
0.145169
0.139444
0.134085
0.129082
0.124425
0.1201
0.116095
0.112393
0.10898
0.105838
0.10295
0.1003
0.0978711
0.0956471
0.0936126
0.091753
0.0900544
0.0885037
0.0870889
0.0857986
0.0846225
0.0835508
0.0825747
0.081686
0.0808773
0.0801416
0.0794727
0.0788646
0.0783122
0.0778105
0.0773552
0.076942
0.0765674
0.0762278
0.07592
0.0756413
0.075389
0.0751606
0.0749541
0.0747672
0.0745983
0.0744455
0.0743074
0.0741827
0.0740698
0.0739679
0.0738757
0.0737924
0.073717
0.0736488
0.0735872
0.0735314
0.073481
0.0734354
0.0733943
0.0733573
0.0733241
0.0732944
0.0732681
0.0732452
0.0732255
0.0732092
0.0731963
0.073187
0.0731817
0.961702
0.892209
0.829119
0.771763
0.719551
0.671953
0.628499
0.588772
0.552398
0.519042
0.488407
0.460227
0.434263
0.4103
0.388147
0.367631
0.348596
0.330902
0.314423
0.299045
0.284665
0.271191
0.258539
0.246635
0.235412
0.224814
0.21479
0.205295
0.196295
0.18776
0.179666
0.171995
0.164732
0.157866
0.151389
0.145292
0.139569
0.134209
0.129205
0.124546
0.120219
0.11621
0.112504
0.109086
0.105939
0.103046
0.100391
0.0979569
0.0957278
0.0936883
0.0918238
0.0901204
0.0885651
0.0871459
0.0858515
0.0846714
0.0835959
0.0826163
0.0817244
0.0809125
0.0801739
0.0795022
0.0788916
0.0783368
0.077833
0.0773756
0.0769605
0.0765841
0.0762428
0.0759336
0.0756535
0.0753999
0.0751704
0.0749628
0.074775
0.0746052
0.0744516
0.0743129
0.0741874
0.0740741
0.0739716
0.073879
0.0737953
0.0737196
0.0736511
0.0735892
0.0735333
0.0734827
0.073437
0.0733958
0.0733587
0.0733254
0.0732957
0.0732694
0.0732465
0.0732268
0.0732105
0.0731976
0.0731883
0.073183
0.961701
0.892209
0.829118
0.771763
0.71955
0.671953
0.6285
0.588774
0.552401
0.519047
0.488415
0.460237
0.434275
0.410315
0.388164
0.367651
0.34862
0.33093
0.314455
0.299081
0.284706
0.271237
0.258591
0.246693
0.235477
0.224885
0.214867
0.20538
0.196387
0.187859
0.179771
0.172106
0.164848
0.157986
0.151512
0.145418
0.139695
0.134335
0.12933
0.124669
0.120338
0.116326
0.112616
0.109193
0.106042
0.103144
0.100483
0.098044
0.0958097
0.0937651
0.0918956
0.0901874
0.0886275
0.0872039
0.0859052
0.0847211
0.0836419
0.0826587
0.0817633
0.0809483
0.0802067
0.0795323
0.0789191
0.0783619
0.0778558
0.0773963
0.0769793
0.0766011
0.0762582
0.0759474
0.0756659
0.075411
0.0751804
0.0749716
0.0747829
0.0746121
0.0744578
0.0743183
0.0741923
0.0740783
0.0739753
0.0738823
0.0737982
0.0737221
0.0736534
0.0735913
0.0735351
0.0734844
0.0734386
0.0733973
0.0733601
0.0733268
0.073297
0.0732707
0.0732477
0.0732281
0.0732117
0.0731988
0.0731896
0.0731842
0.961701
0.892208
0.829117
0.771762
0.71955
0.671953
0.628501
0.588776
0.552404
0.519052
0.488421
0.460245
0.434286
0.410328
0.388181
0.367671
0.348643
0.330957
0.314486
0.299117
0.284747
0.271283
0.258642
0.24675
0.235541
0.224956
0.214945
0.205465
0.196479
0.187958
0.179877
0.172217
0.164964
0.158107
0.151636
0.145543
0.139821
0.134462
0.129456
0.124792
0.120459
0.116443
0.112729
0.109302
0.106145
0.103242
0.100577
0.098132
0.0958925
0.0938427
0.0919682
0.0902551
0.0886906
0.0872625
0.0859596
0.0847714
0.0836883
0.0827015
0.0818028
0.0809846
0.08024
0.0795627
0.0789469
0.0783872
0.0778788
0.0774172
0.0769983
0.0766182
0.0762736
0.0759613
0.0756784
0.0754222
0.0751904
0.0749805
0.0747908
0.0746192
0.074464
0.0743238
0.0741971
0.0740825
0.0739791
0.0738855
0.073801
0.0737247
0.0736556
0.0735933
0.0735369
0.073486
0.0734401
0.0733987
0.0733614
0.073328
0.0732983
0.0732719
0.073249
0.0732293
0.0732129
0.0732
0.0731908
0.0731854
0.961701
0.892207
0.829116
0.771761
0.719549
0.671952
0.628502
0.588778
0.552407
0.519056
0.488427
0.460253
0.434296
0.410341
0.388197
0.36769
0.348665
0.330983
0.314517
0.299152
0.284787
0.271329
0.258694
0.246808
0.235605
0.225027
0.215023
0.20555
0.196571
0.188056
0.179982
0.172328
0.16508
0.158227
0.151759
0.145669
0.139948
0.134589
0.129582
0.124916
0.12058
0.11656
0.112842
0.109411
0.106249
0.103341
0.10067
0.0982204
0.0959757
0.0939208
0.0920412
0.0903233
0.0887541
0.0873215
0.0860143
0.0848221
0.0837352
0.0827447
0.0818425
0.0810211
0.0802735
0.0795934
0.0789749
0.0784128
0.0779021
0.0774383
0.0770174
0.0766355
0.0762892
0.0759754
0.075691
0.0754335
0.0752004
0.0749895
0.0747987
0.0746262
0.0744702
0.0743292
0.0742018
0.0740867
0.0739827
0.0738888
0.0738039
0.0737271
0.0736578
0.0735952
0.0735387
0.0734876
0.0734415
0.0734
0.0733627
0.0733293
0.0732994
0.0732731
0.0732501
0.0732304
0.0732141
0.0732012
0.0731919
0.0731865
0.961701
0.892207
0.829115
0.77176
0.719548
0.671952
0.628502
0.588779
0.552409
0.51906
0.488433
0.460261
0.434306
0.410354
0.388212
0.367708
0.348687
0.331009
0.314547
0.299187
0.284826
0.271373
0.258744
0.246864
0.235668
0.225097
0.2151
0.205634
0.196662
0.188154
0.180086
0.172438
0.165196
0.158347
0.151882
0.145794
0.140075
0.134715
0.129707
0.12504
0.120701
0.116678
0.112956
0.109519
0.106353
0.10344
0.100764
0.0983089
0.096059
0.093999
0.0921144
0.0903917
0.0888178
0.0873807
0.0860692
0.0848729
0.0837821
0.082788
0.0818824
0.0810577
0.0803071
0.0796241
0.079003
0.0784384
0.0779254
0.0774595
0.0770366
0.0766528
0.0763048
0.0759894
0.0757036
0.0754447
0.0752104
0.0749984
0.0748066
0.0746332
0.0744764
0.0743346
0.0742066
0.0740909
0.0739864
0.0738919
0.0738066
0.0737296
0.07366
0.0735971
0.0735403
0.0734891
0.0734429
0.0734013
0.0733639
0.0733304
0.0733005
0.0732742
0.0732512
0.0732315
0.0732151
0.0732022
0.073193
0.0731876
0.9617
0.892206
0.829115
0.771759
0.719547
0.671952
0.628502
0.58878
0.552411
0.519063
0.488438
0.460268
0.434315
0.410365
0.388227
0.367726
0.348709
0.331034
0.314576
0.29922
0.284865
0.271417
0.258794
0.24692
0.23573
0.225166
0.215176
0.205717
0.196752
0.188251
0.180189
0.172547
0.16531
0.158466
0.152004
0.145919
0.1402
0.134841
0.129832
0.125162
0.120821
0.116794
0.113068
0.109628
0.106457
0.103539
0.100857
0.0983972
0.0961421
0.094077
0.0921875
0.0904599
0.0888813
0.0874398
0.0861241
0.0849237
0.0838291
0.0828313
0.0819223
0.0810944
0.0803407
0.0796549
0.0790311
0.078464
0.0779487
0.0774806
0.0770557
0.0766701
0.0763204
0.0760034
0.0757161
0.0754559
0.0752204
0.0750073
0.0748144
0.0746401
0.0744825
0.07434
0.0742113
0.074095
0.0739899
0.073895
0.0738093
0.0737319
0.073662
0.0735989
0.0735419
0.0734905
0.0734442
0.0734025
0.073365
0.0733315
0.0733016
0.0732752
0.0732521
0.0732324
0.0732161
0.0732032
0.0731939
0.0731885
0.9617
0.892206
0.829114
0.771758
0.719547
0.671951
0.628502
0.588781
0.552413
0.519067
0.488443
0.460275
0.434324
0.410377
0.388241
0.367743
0.348729
0.331058
0.314604
0.299253
0.284903
0.27146
0.258842
0.246975
0.235792
0.225234
0.215251
0.205799
0.196841
0.188347
0.180291
0.172655
0.165423
0.158583
0.152125
0.146041
0.140324
0.134965
0.129955
0.125284
0.12094
0.11691
0.11318
0.109735
0.106559
0.103636
0.10095
0.0984849
0.0962247
0.0941546
0.0922602
0.0905278
0.0889446
0.0874986
0.0861787
0.0849743
0.0838758
0.0828745
0.081962
0.0811309
0.0803742
0.0796855
0.0790591
0.0784895
0.0779719
0.0775017
0.0770748
0.0766873
0.0763359
0.0760173
0.0757286
0.0754671
0.0752303
0.075016
0.0748222
0.0746469
0.0744885
0.0743453
0.0742159
0.074099
0.0739934
0.073898
0.0738119
0.0737342
0.073664
0.0736006
0.0735435
0.0734919
0.0734454
0.0734036
0.073366
0.0733324
0.0733025
0.0732761
0.073253
0.0732333
0.073217
0.0732041
0.0731948
0.0731894
0.9617
0.892205
0.829113
0.771757
0.719546
0.671951
0.628502
0.588781
0.552415
0.51907
0.488447
0.460281
0.434332
0.410387
0.388254
0.36776
0.348749
0.331081
0.314632
0.299285
0.284939
0.271502
0.25889
0.247029
0.235851
0.2253
0.215324
0.205879
0.196928
0.188441
0.180391
0.172761
0.165534
0.158698
0.152244
0.146162
0.140446
0.135087
0.130077
0.125404
0.121057
0.117024
0.113291
0.109841
0.106661
0.103733
0.101042
0.0985717
0.0963065
0.0942315
0.0923322
0.0905951
0.0890074
0.087557
0.0862328
0.0850245
0.0839222
0.0829173
0.0820014
0.0811671
0.0804074
0.0797159
0.0790869
0.0785149
0.0779949
0.0775226
0.0770937
0.0767044
0.0763513
0.0760311
0.0757409
0.0754781
0.0752401
0.0750247
0.0748299
0.0746537
0.0744944
0.0743504
0.0742204
0.0741029
0.0739968
0.073901
0.0738145
0.0737364
0.0736659
0.0736023
0.0735449
0.0734931
0.0734465
0.0734046
0.073367
0.0733333
0.0733034
0.0732769
0.0732538
0.0732341
0.0732178
0.0732049
0.0731956
0.0731902
0.9617
0.892205
0.829112
0.771757
0.719545
0.67195
0.628502
0.588782
0.552417
0.519072
0.488451
0.460287
0.43434
0.410398
0.388267
0.367775
0.348768
0.331104
0.314658
0.299316
0.284975
0.271543
0.258936
0.247081
0.23591
0.225365
0.215396
0.205958
0.197013
0.188532
0.180489
0.172865
0.165643
0.158811
0.15236
0.146281
0.140566
0.135208
0.130196
0.125522
0.121173
0.117137
0.113399
0.109946
0.106761
0.103829
0.101133
0.0986575
0.0963873
0.0943074
0.0924033
0.0906616
0.0890694
0.0876147
0.0862864
0.0850741
0.0839681
0.0829596
0.0820404
0.081203
0.0804403
0.079746
0.0791144
0.0785399
0.0780177
0.0775432
0.0771124
0.0767213
0.0763664
0.0760447
0.0757531
0.0754889
0.0752497
0.0750333
0.0748374
0.0746603
0.0745002
0.0743555
0.0742248
0.0741067
0.0740001
0.0739038
0.0738169
0.0737385
0.0736677
0.0736038
0.0735462
0.0734943
0.0734476
0.0734056
0.0733678
0.0733341
0.0733041
0.0732776
0.0732545
0.0732348
0.0732185
0.0732056
0.0731963
0.0731909
0.9617
0.892204
0.829112
0.771756
0.719544
0.671949
0.628502
0.588782
0.552418
0.519075
0.488455
0.460292
0.434348
0.410407
0.388279
0.36779
0.348786
0.331126
0.314684
0.299346
0.28501
0.271582
0.258981
0.247131
0.235967
0.225428
0.215466
0.206034
0.197096
0.188622
0.180585
0.172966
0.165749
0.158922
0.152474
0.146397
0.140684
0.135326
0.130313
0.125637
0.121286
0.117247
0.113506
0.110049
0.10686
0.103923
0.101222
0.0987419
0.0964669
0.0943822
0.0924735
0.0907272
0.0891305
0.0876716
0.0863393
0.0851231
0.0840134
0.0830014
0.0820789
0.0812383
0.0804727
0.0797757
0.0791415
0.0785646
0.0780402
0.0775636
0.0771308
0.0767379
0.0763814
0.0760581
0.0757651
0.0754996
0.0752592
0.0750416
0.0748448
0.0746668
0.0745059
0.0743604
0.074229
0.0741104
0.0740032
0.0739065
0.0738192
0.0737404
0.0736694
0.0736053
0.0735475
0.0734954
0.0734485
0.0734064
0.0733686
0.0733348
0.0733048
0.0732783
0.0732552
0.0732354
0.0732191
0.0732062
0.0731969
0.0731915
0.9617
0.892204
0.829111
0.771755
0.719543
0.671949
0.628502
0.588783
0.552419
0.519077
0.488459
0.460298
0.434355
0.410417
0.388291
0.367805
0.348803
0.331147
0.314708
0.299375
0.285043
0.271621
0.259025
0.24718
0.236022
0.22549
0.215533
0.206108
0.197177
0.188709
0.180678
0.173065
0.165853
0.159029
0.152585
0.146511
0.140799
0.135441
0.130428
0.125751
0.121397
0.117355
0.113611
0.11015
0.106956
0.104015
0.101309
0.0988246
0.096545
0.0944556
0.0925423
0.0907915
0.0891906
0.0877275
0.0863912
0.0851712
0.0840579
0.0830425
0.0821167
0.0812731
0.0805046
0.0798049
0.0791682
0.0785889
0.0780622
0.0775836
0.0771489
0.0767542
0.0763961
0.0760713
0.0757768
0.0755101
0.0752685
0.0750498
0.074852
0.0746731
0.0745114
0.0743652
0.0742332
0.074114
0.0740063
0.0739091
0.0738214
0.0737423
0.073671
0.0736066
0.0735486
0.0734964
0.0734494
0.0734071
0.0733693
0.0733354
0.0733053
0.0732788
0.0732557
0.0732359
0.0732196
0.0732067
0.0731974
0.073192
0.961699
0.892203
0.82911
0.771754
0.719543
0.671948
0.628501
0.588783
0.55242
0.519079
0.488462
0.460302
0.434362
0.410425
0.388302
0.367819
0.34882
0.331167
0.314732
0.299402
0.285075
0.271657
0.259067
0.247228
0.236075
0.225549
0.215599
0.20618
0.197255
0.188793
0.180769
0.173161
0.165953
0.159134
0.152693
0.146621
0.14091
0.135553
0.13054
0.125861
0.121505
0.117461
0.113713
0.110248
0.107051
0.104105
0.101395
0.0989056
0.0966214
0.0945275
0.0926097
0.0908546
0.0892495
0.0877823
0.0864421
0.0852184
0.0841015
0.0830828
0.0821538
0.0813072
0.0805359
0.0798336
0.0791943
0.0786127
0.0780839
0.0776032
0.0771666
0.0767702
0.0764104
0.0760841
0.0757883
0.0755203
0.0752776
0.0750578
0.074859
0.0746793
0.0745167
0.0743699
0.0742372
0.0741174
0.0740093
0.0739116
0.0738236
0.0737441
0.0736725
0.0736079
0.0735497
0.0734973
0.0734502
0.0734078
0.0733699
0.0733359
0.0733058
0.0732793
0.0732561
0.0732364
0.07322
0.0732071
0.0731978
0.0731924
0.961699
0.892203
0.829109
0.771753
0.719542
0.671948
0.628501
0.588784
0.552421
0.519081
0.488465
0.460307
0.434368
0.410434
0.388313
0.367832
0.348836
0.331186
0.314755
0.299429
0.285106
0.271693
0.259107
0.247274
0.236126
0.225606
0.215662
0.20625
0.197331
0.188875
0.180856
0.173253
0.166051
0.159236
0.152798
0.146728
0.141019
0.135662
0.130648
0.125968
0.121611
0.117563
0.113813
0.110344
0.107142
0.104192
0.101478
0.0989846
0.0966959
0.0945976
0.0926755
0.0909162
0.0893069
0.0878358
0.0864918
0.0852644
0.0841442
0.0831221
0.0821901
0.0813405
0.0805665
0.0798615
0.0792198
0.078636
0.078105
0.0776224
0.0771839
0.0767858
0.0764245
0.0760967
0.0757995
0.0755303
0.0752864
0.0750656
0.0748659
0.0746852
0.0745219
0.0743744
0.0742411
0.0741207
0.0740121
0.073914
0.0738256
0.0737458
0.0736739
0.0736091
0.0735507
0.0734981
0.0734508
0.0734084
0.0733703
0.0733364
0.0733062
0.0732796
0.0732565
0.0732367
0.0732203
0.0732074
0.0731981
0.0731927
0.961699
0.892202
0.829109
0.771753
0.719541
0.671947
0.628501
0.588784
0.552422
0.519083
0.488469
0.460312
0.434374
0.410442
0.388323
0.367844
0.348852
0.331204
0.314777
0.299454
0.285135
0.271727
0.259146
0.247317
0.236176
0.225661
0.215723
0.206317
0.197404
0.188954
0.18094
0.173343
0.166145
0.159334
0.152899
0.146831
0.141124
0.135767
0.130753
0.126072
0.121713
0.117663
0.113909
0.110437
0.107232
0.104278
0.101559
0.0990614
0.0967684
0.0946659
0.0927395
0.0909761
0.0893629
0.0878879
0.0865402
0.0853093
0.0841857
0.0831605
0.0822254
0.081373
0.0805963
0.0798888
0.0792447
0.0786587
0.0781256
0.0776411
0.0772008
0.076801
0.0764381
0.0761089
0.0758104
0.0755399
0.0752949
0.0750732
0.0748725
0.074691
0.0745269
0.0743787
0.0742448
0.0741239
0.0740148
0.0739163
0.0738275
0.0737474
0.0736752
0.0736101
0.0735515
0.0734988
0.0734514
0.0734089
0.0733708
0.0733367
0.0733065
0.0732799
0.0732567
0.0732369
0.0732206
0.0732076
0.0731984
0.0731929
0.961699
0.892202
0.829108
0.771752
0.71954
0.671947
0.628501
0.588784
0.552423
0.519085
0.488471
0.460316
0.43438
0.410449
0.388332
0.367856
0.348866
0.331222
0.314797
0.299479
0.285164
0.271759
0.259183
0.24736
0.236223
0.225714
0.215782
0.206381
0.197474
0.18903
0.181022
0.173429
0.166236
0.159428
0.152996
0.146931
0.141225
0.135869
0.130855
0.126173
0.121811
0.117759
0.114002
0.110527
0.107318
0.10436
0.101638
0.0991359
0.0968388
0.0947321
0.0928017
0.0910343
0.0894172
0.0879385
0.0865872
0.0853529
0.0842261
0.0831977
0.0822597
0.0814046
0.0806252
0.0799153
0.0792689
0.0786807
0.0781456
0.0776592
0.0772172
0.0768157
0.0764513
0.0761207
0.075821
0.0755493
0.0753032
0.0750805
0.0748789
0.0746966
0.0745318
0.0743829
0.0742484
0.0741269
0.0740173
0.0739184
0.0738292
0.0737488
0.0736764
0.0736111
0.0735523
0.0734994
0.0734519
0.0734093
0.0733711
0.073337
0.0733067
0.0732801
0.0732569
0.0732371
0.0732207
0.0732078
0.0731985
0.073193
0.961699
0.892201
0.829108
0.771751
0.71954
0.671946
0.6285
0.588784
0.552424
0.519087
0.488474
0.46032
0.434385
0.410456
0.388341
0.367868
0.34888
0.331238
0.314817
0.299502
0.285191
0.271791
0.259218
0.2474
0.236268
0.225765
0.215838
0.206442
0.197541
0.189102
0.181099
0.173512
0.166323
0.159519
0.15309
0.147027
0.141322
0.135967
0.130953
0.126269
0.121907
0.117852
0.114093
0.110614
0.107402
0.10444
0.101714
0.0992078
0.0969067
0.0947961
0.0928618
0.0910905
0.0894697
0.0879875
0.0866327
0.0853952
0.0842651
0.0832338
0.082293
0.0814351
0.0806532
0.0799409
0.0792923
0.078702
0.078165
0.0776767
0.077233
0.07683
0.0764641
0.0761322
0.0758312
0.0755583
0.0753112
0.0750875
0.074885
0.0747019
0.0745364
0.0743868
0.0742518
0.0741298
0.0740197
0.0739205
0.0738309
0.0737502
0.0736775
0.073612
0.073553
0.0735
0.0734523
0.0734096
0.0733713
0.0733372
0.0733069
0.0732802
0.073257
0.0732372
0.0732208
0.0732079
0.0731986
0.0731931
0.961699
0.892201
0.829107
0.771751
0.719539
0.671946
0.6285
0.588784
0.552425
0.519088
0.488477
0.460323
0.43439
0.410463
0.38835
0.367878
0.348893
0.331254
0.314836
0.299524
0.285216
0.27182
0.259252
0.247438
0.236311
0.225813
0.215891
0.206501
0.197606
0.189172
0.181174
0.173591
0.166406
0.159606
0.15318
0.147119
0.141416
0.136061
0.131046
0.126362
0.121998
0.117941
0.114179
0.110698
0.107482
0.104517
0.101787
0.0992771
0.0969722
0.0948578
0.0929197
0.0911448
0.0895204
0.0880347
0.0866767
0.0854359
0.0843028
0.0832686
0.082325
0.0814646
0.0806803
0.0799657
0.0793149
0.0787226
0.0781837
0.0776936
0.0772483
0.0768437
0.0764765
0.0761432
0.075841
0.075567
0.0753189
0.0750942
0.0748909
0.0747071
0.0745408
0.0743906
0.074255
0.0741325
0.074022
0.0739224
0.0738325
0.0737515
0.0736785
0.0736128
0.0735536
0.0735005
0.0734527
0.0734098
0.0733715
0.0733373
0.073307
0.0732802
0.073257
0.0732372
0.0732208
0.0732079
0.0731986
0.0731931
0.961698
0.892201
0.829107
0.77175
0.719539
0.671945
0.6285
0.588785
0.552426
0.51909
0.488479
0.460327
0.434395
0.410469
0.388358