/*--------------------------------*- C++ -*----------------------------------*\
  =========                 |
  \\      /  F ield         | OpenFOAM: The Open Source CFD Toolbox
   \\    /   O peration     | Website:  https://openfoam.org
    \\  /    A nd           | Version:  11
     \\/     M anipulation  |
\*---------------------------------------------------------------------------*/
FoamFile
{
    format      ascii;
    class       volScalarField;
    location    "878";
    object      omega;
}
// * * * * * * * * * * * * * * * * * * * * * * * * * * * * * * * * * * * * * //

dimensions      [0 0 -1 0 0 0 0];

internalField   nonuniform List<scalar> 
10000
(
0.961692
0.892185
0.829084
0.771728
0.719523
0.671944
0.628523
0.588843
0.552532
0.519258
0.488725
0.460668
0.434851
0.411062
0.389112
0.36883
0.350065
0.332679
0.316551
0.301568
0.287631
0.274651
0.262547
0.251246
0.240681
0.230792
0.221526
0.212833
0.204668
0.196991
0.189764
0.182954
0.176531
0.170465
0.164732
0.159308
0.154171
0.149302
0.144683
0.140296
0.136126
0.13216
0.128384
0.124786
0.121355
0.118081
0.114955
0.111967
0.109109
0.106374
0.103754
0.101244
0.0988362
0.0965259
0.0943076
0.0921761
0.090127
0.0881559
0.0862587
0.0844315
0.0826709
0.0809735
0.0793362
0.0777559
0.0762299
0.0747556
0.0733305
0.0719523
0.0706187
0.0693278
0.0680775
0.0668659
0.0656913
0.0645521
0.0634466
0.0623734
0.0613309
0.0603178
0.0593329
0.0583749
0.0574426
0.056535
0.055651
0.0547897
0.0539502
0.0531318
0.0523339
0.0515561
0.0507983
0.0500606
0.0493438
0.0486494
0.0479799
0.0473392
0.0467333
0.0461712
0.045666
0.0452364
0.0449092
0.0447221
0.961692
0.892185
0.829084
0.771728
0.719523
0.671944
0.628523
0.588843
0.552532
0.519258
0.488725
0.460668
0.434851
0.411062
0.389112
0.36883
0.350065
0.332679
0.316551
0.301568
0.287631
0.274651
0.262547
0.251246
0.240681
0.230792
0.221526
0.212833
0.204668
0.196991
0.189764
0.182954
0.176531
0.170465
0.164732
0.159308
0.154171
0.149302
0.144683
0.140296
0.136126
0.13216
0.128384
0.124786
0.121355
0.118081
0.114955
0.111967
0.109109
0.106374
0.103754
0.101244
0.0988363
0.096526
0.0943077
0.0921762
0.0901271
0.088156
0.0862588
0.0844316
0.0826711
0.0809737
0.0793363
0.077756
0.07623
0.0747557
0.0733306
0.0719524
0.0706189
0.069328
0.0680776
0.0668661
0.0656916
0.0645523
0.0634468
0.0623736
0.0613311
0.0603181
0.0593332
0.0583752
0.0574429
0.0565353
0.0556513
0.05479
0.0539506
0.0531322
0.0523343
0.0515565
0.0507986
0.050061
0.0493442
0.0486498
0.0479803
0.0473396
0.0467337
0.0461716
0.0456664
0.0452368
0.0449097
0.0447225
0.961692
0.892185
0.829084
0.771728
0.719523
0.671944
0.628523
0.588843
0.552532
0.519258
0.488725
0.460668
0.434851
0.411062
0.389112
0.36883
0.350065
0.332679
0.316551
0.301568
0.287631
0.274651
0.262547
0.251246
0.240681
0.230792
0.221526
0.212833
0.204668
0.196991
0.189764
0.182954
0.176531
0.170465
0.164732
0.159308
0.154172
0.149302
0.144683
0.140296
0.136126
0.13216
0.128384
0.124786
0.121355
0.118082
0.114955
0.111967
0.109109
0.106374
0.103754
0.101244
0.0988365
0.0965262
0.0943079
0.0921764
0.0901273
0.0881562
0.086259
0.0844319
0.0826713
0.0809739
0.0793366
0.0777563
0.0762303
0.074756
0.073331
0.0719528
0.0706192
0.0693283
0.068078
0.0668665
0.065692
0.0645528
0.0634473
0.062374
0.0613316
0.0603186
0.0593337
0.0583757
0.0574435
0.0565359
0.0556519
0.0547906
0.0539512
0.0531328
0.0523349
0.0515572
0.0507993
0.0500617
0.049345
0.0486506
0.0479811
0.0473404
0.0467345
0.0461724
0.0456672
0.0452376
0.0449105
0.0447233
0.961692
0.892185
0.829084
0.771728
0.719523
0.671944
0.628523
0.588843
0.552532
0.519258
0.488725
0.460668
0.434851
0.411062
0.389112
0.36883
0.350065
0.33268
0.316551
0.301568
0.287631
0.274651
0.262547
0.251246
0.240681
0.230792
0.221526
0.212833
0.204668
0.196991
0.189764
0.182954
0.176531
0.170466
0.164733
0.159308
0.154172
0.149302
0.144683
0.140296
0.136126
0.13216
0.128384
0.124786
0.121356
0.118082
0.114955
0.111967
0.109109
0.106374
0.103755
0.101244
0.0988368
0.0965265
0.0943081
0.0921767
0.0901277
0.0881565
0.0862593
0.0844322
0.0826717
0.0809743
0.079337
0.0777567
0.0762308
0.0747565
0.0733314
0.0719533
0.0706198
0.0693289
0.0680786
0.0668671
0.0656926
0.0645534
0.0634479
0.0623747
0.0613323
0.0603193
0.0593344
0.0583765
0.0574443
0.0565367
0.0556528
0.0547915
0.0539521
0.0531338
0.0523359
0.0515582
0.0508004
0.0500628
0.0493461
0.0486517
0.0479822
0.0473416
0.0467357
0.0461736
0.0456684
0.0452389
0.0449117
0.0447246
0.961692
0.892185
0.829084
0.771728
0.719523
0.671944
0.628523
0.588843
0.552532
0.519258
0.488725
0.460668
0.434851
0.411062
0.389112
0.36883
0.350065
0.33268
0.316551
0.301568
0.287631
0.274651
0.262547
0.251246
0.240681
0.230792
0.221526
0.212833
0.204668
0.196991
0.189764
0.182955
0.176531
0.170466
0.164733
0.159309
0.154172
0.149303
0.144683
0.140296
0.136126
0.13216
0.128384
0.124786
0.121356
0.118082
0.114955
0.111967
0.10911
0.106374
0.103755
0.101245
0.0988371
0.0965268
0.0943085
0.0921771
0.0901281
0.088157
0.0862598
0.0844327
0.0826722
0.0809748
0.0793375
0.0777573
0.0762314
0.0747571
0.0733321
0.0719539
0.0706204
0.0693296
0.0680793
0.0668678
0.0656934
0.0645542
0.0634488
0.0623756
0.0613332
0.0603203
0.0593354
0.0583775
0.0574453
0.0565378
0.0556539
0.0547927
0.0539533
0.053135
0.0523372
0.0515595
0.0508018
0.0500642
0.0493475
0.0486532
0.0479838
0.0473431
0.0467373
0.0461752
0.04567
0.0452405
0.0449133
0.0447262
0.961692
0.892185
0.829084
0.771728
0.719523
0.671944
0.628523
0.588843
0.552532
0.519258
0.488725
0.460668
0.434851
0.411062
0.389112
0.36883
0.350065
0.33268
0.316551
0.301568
0.287631
0.274652
0.262548
0.251246
0.240681
0.230793
0.221526
0.212833
0.204668
0.196991
0.189764
0.182955
0.176531
0.170466
0.164733
0.159309
0.154172
0.149303
0.144683
0.140296
0.136127
0.13216
0.128384
0.124787
0.121356
0.118082
0.114956
0.111968
0.10911
0.106375
0.103755
0.101245
0.0988375
0.0965273
0.094309
0.0921776
0.0901286
0.0881575
0.0862603
0.0844333
0.0826728
0.0809754
0.0793382
0.077758
0.0762321
0.0747578
0.0733328
0.0719547
0.0706213
0.0693304
0.0680802
0.0668688
0.0656943
0.0645552
0.0634498
0.0623767
0.0613344
0.0603214
0.0593367
0.0583788
0.0574467
0.0565392
0.0556553
0.0547942
0.0539548
0.0531366
0.0523388
0.0515612
0.0508035
0.0500659
0.0493493
0.048655
0.0479856
0.047345
0.0467392
0.0461772
0.045672
0.0452425
0.0449153
0.0447282
0.961692
0.892184
0.829084
0.771728
0.719523
0.671944
0.628523
0.588843
0.552532
0.519258
0.488725
0.460668
0.434851
0.411062
0.389112
0.36883
0.350065
0.33268
0.316551
0.301568
0.287631
0.274652
0.262548
0.251246
0.240681
0.230793
0.221526
0.212833
0.204668
0.196991
0.189764
0.182955
0.176531
0.170466
0.164733
0.159309
0.154172
0.149303
0.144683
0.140296
0.136127
0.132161
0.128385
0.124787
0.121356
0.118083
0.114956
0.111968
0.10911
0.106375
0.103756
0.101245
0.098838
0.0965278
0.0943095
0.0921782
0.0901291
0.0881581
0.086261
0.084434
0.0826735
0.0809762
0.0793389
0.0777588
0.0762329
0.0747587
0.0733337
0.0719557
0.0706223
0.0693315
0.0680813
0.0668699
0.0656955
0.0645564
0.0634511
0.062378
0.0613357
0.0603228
0.0593381
0.0583803
0.0574482
0.0565408
0.055657
0.0547959
0.0539566
0.0531384
0.0523407
0.0515631
0.0508054
0.050068
0.0493514
0.0486572
0.0479878
0.0473472
0.0467415
0.0461795
0.0456743
0.0452448
0.0449177
0.0447305
0.961692
0.892184
0.829084
0.771728
0.719523
0.671944
0.628523
0.588843
0.552532
0.519258
0.488725
0.460668
0.434851
0.411062
0.389112
0.36883
0.350065
0.33268
0.316551
0.301568
0.287631
0.274652
0.262548
0.251246
0.240681
0.230793
0.221526
0.212833
0.204668
0.196991
0.189765
0.182955
0.176531
0.170466
0.164733
0.159309
0.154172
0.149303
0.144684
0.140297
0.136127
0.132161
0.128385
0.124787
0.121357
0.118083
0.114956
0.111968
0.109111
0.106376
0.103756
0.101246
0.0988385
0.0965284
0.0943101
0.0921788
0.0901298
0.0881588
0.0862617
0.0844347
0.0826743
0.080977
0.0793398
0.0777597
0.0762338
0.0747597
0.0733348
0.0719567
0.0706234
0.0693326
0.0680825
0.0668711
0.0656968
0.0645578
0.0634525
0.0623794
0.0613372
0.0603244
0.0593397
0.0583819
0.0574499
0.0565426
0.0556588
0.0547978
0.0539586
0.0531405
0.0523428
0.0515653
0.0508077
0.0500703
0.0493538
0.0486596
0.0479903
0.0473498
0.0467441
0.0461821
0.045677
0.0452475
0.0449203
0.0447332
0.961692
0.892184
0.829084
0.771728
0.719523
0.671944
0.628523
0.588843
0.552532
0.519258
0.488725
0.460668
0.434851
0.411062
0.389112
0.36883
0.350065
0.33268
0.316551
0.301568
0.287631
0.274652
0.262548
0.251246
0.240681
0.230793
0.221527
0.212833
0.204668
0.196991
0.189765
0.182955
0.176532
0.170466
0.164733
0.159309
0.154173
0.149303
0.144684
0.140297
0.136127
0.132161
0.128385
0.124788
0.121357
0.118083
0.114957
0.111969
0.109111
0.106376
0.103757
0.101247
0.0988391
0.096529
0.0943108
0.0921795
0.0901305
0.0881596
0.0862625
0.0844356
0.0826752
0.0809779
0.0793408
0.0777607
0.0762349
0.0747608
0.0733359
0.0719579
0.0706246
0.0693339
0.0680838
0.0668725
0.0656982
0.0645593
0.063454
0.0623811
0.0613389
0.0603261
0.0593415
0.0583838
0.0574519
0.0565446
0.0556609
0.0547999
0.0539608
0.0531428
0.0523452
0.0515677
0.0508102
0.0500729
0.0493564
0.0486624
0.0479931
0.0473526
0.046747
0.046185
0.0456799
0.0452504
0.0449233
0.0447362
0.961692
0.892184
0.829084
0.771727
0.719523
0.671944
0.628523
0.588843
0.552532
0.519258
0.488725
0.460668
0.434851
0.411062
0.389112
0.36883
0.350065
0.33268
0.316551
0.301568
0.287631
0.274652
0.262548
0.251246
0.240681
0.230793
0.221527
0.212833
0.204669
0.196991
0.189765
0.182955
0.176532
0.170466
0.164733
0.159309
0.154173
0.149304
0.144684
0.140297
0.136128
0.132162
0.128386
0.124788
0.121358
0.118084
0.114957
0.111969
0.109112
0.106377
0.103757
0.101247
0.0988398
0.0965297
0.0943115
0.0921803
0.0901314
0.0881604
0.0862634
0.0844365
0.0826761
0.0809789
0.0793418
0.0777618
0.076236
0.074762
0.0733372
0.0719592
0.070626
0.0693353
0.0680853
0.066874
0.0656998
0.0645609
0.0634557
0.0623828
0.0613407
0.060328
0.0593435
0.0583859
0.057454
0.0565468
0.0556632
0.0548023
0.0539632
0.0531453
0.0523478
0.0515704
0.050813
0.0500757
0.0493594
0.0486653
0.0479962
0.0473557
0.0467501
0.0461882
0.0456832
0.0452537
0.0449266
0.0447394
0.961692
0.892184
0.829084
0.771727
0.719523
0.671944
0.628523
0.588843
0.552532
0.519258
0.488725
0.460668
0.434851
0.411062
0.389112
0.36883
0.350065
0.33268
0.316551
0.301568
0.287631
0.274652
0.262548
0.251246
0.240681
0.230793
0.221527
0.212833
0.204669
0.196991
0.189765
0.182955
0.176532
0.170467
0.164734
0.15931
0.154173
0.149304
0.144684
0.140297
0.136128
0.132162
0.128386
0.124789
0.121358
0.118084
0.114958
0.11197
0.109112
0.106377
0.103758
0.101248
0.0988405
0.0965304
0.0943123
0.0921811
0.0901322
0.0881613
0.0862644
0.0844375
0.0826772
0.08098
0.079343
0.077763
0.0762373
0.0747633
0.0733385
0.0719606
0.0706274
0.0693368
0.0680869
0.0668757
0.0657015
0.0645627
0.0634576
0.0623847
0.0613427
0.0603301
0.0593456
0.0583881
0.0574563
0.0565491
0.0556656
0.0548048
0.0539659
0.053148
0.0523506
0.0515733
0.050816
0.0500788
0.0493625
0.0486686
0.0479994
0.0473591
0.0467535
0.0461917
0.0456867
0.0452572
0.0449301
0.044743
0.961692
0.892184
0.829084
0.771727
0.719523
0.671944
0.628523
0.588843
0.552532
0.519258
0.488725
0.460668
0.434851
0.411062
0.389112
0.36883
0.350065
0.33268
0.316551
0.301568
0.287631
0.274652
0.262548
0.251246
0.240681
0.230793
0.221527
0.212834
0.204669
0.196992
0.189765
0.182956
0.176532
0.170467
0.164734
0.15931
0.154173
0.149304
0.144685
0.140298
0.136128
0.132162
0.128387
0.124789
0.121358
0.118085
0.114958
0.111971
0.109113
0.106378
0.103759
0.101249
0.0988413
0.0965312
0.0943131
0.092182
0.0901331
0.0881623
0.0862654
0.0844385
0.0826783
0.0809812
0.0793442
0.0777642
0.0762386
0.0747647
0.0733399
0.0719621
0.070629
0.0693384
0.0680885
0.0668774
0.0657033
0.0645646
0.0634595
0.0623868
0.0613448
0.0603323
0.0593479
0.0583904
0.0574587
0.0565517
0.0556683
0.0548075
0.0539687
0.0531509
0.0523536
0.0515764
0.0508191
0.050082
0.0493658
0.048672
0.048003
0.0473627
0.0467572
0.0461954
0.0456904
0.045261
0.0449339
0.0447467
0.961692
0.892184
0.829084
0.771727
0.719523
0.671944
0.628523
0.588843
0.552532
0.519258
0.488725
0.460668
0.434851
0.411062
0.389112
0.36883
0.350065
0.33268
0.316551
0.301568
0.287631
0.274652
0.262548
0.251246
0.240681
0.230793
0.221527
0.212834
0.204669
0.196992
0.189765
0.182956
0.176532
0.170467
0.164734
0.15931
0.154174
0.149305
0.144685
0.140298
0.136129
0.132163
0.128387
0.124789
0.121359
0.118085
0.114959
0.111971
0.109114
0.106379
0.103759
0.101249
0.0988421
0.0965321
0.094314
0.0921829
0.0901341
0.0881633
0.0862664
0.0844397
0.0826794
0.0809824
0.0793454
0.0777656
0.07624
0.0747661
0.0733415
0.0719637
0.0706306
0.0693401
0.0680903
0.0668793
0.0657052
0.0645665
0.0634616
0.0623889
0.061347
0.0603346
0.0593503
0.0583929
0.0574613
0.0565543
0.055671
0.0548104
0.0539716
0.0531539
0.0523567
0.0515796
0.0508225
0.0500855
0.0493694
0.0486756
0.0480067
0.0473665
0.046761
0.0461993
0.0456944
0.045265
0.0449379
0.0447507
0.961692
0.892184
0.829084
0.771727
0.719523
0.671944
0.628523
0.588843
0.552532
0.519258
0.488725
0.460668
0.434851
0.411062
0.389112
0.36883
0.350065
0.33268
0.316551
0.301568
0.287631
0.274652
0.262548
0.251246
0.240682
0.230793
0.221527
0.212834
0.204669
0.196992
0.189765
0.182956
0.176533
0.170467
0.164734
0.15931
0.154174
0.149305
0.144685
0.140299
0.136129
0.132163
0.128387
0.12479
0.121359
0.118086
0.11496
0.111972
0.109114
0.106379
0.10376
0.10125
0.0988429
0.0965329
0.0943149
0.0921839
0.0901351
0.0881644
0.0862675
0.0844408
0.0826807
0.0809837
0.0793468
0.0777669
0.0762414
0.0747676
0.073343
0.0719653
0.0706323
0.0693419
0.0680922
0.0668812
0.0657072
0.0645686
0.0634638
0.0623911
0.0613493
0.060337
0.0593528
0.0583955
0.057464
0.0565571
0.0556739
0.0548134
0.0539747
0.0531571
0.05236
0.051583
0.050826
0.0500891
0.0493731
0.0486794
0.0480105
0.0473704
0.0467651
0.0462034
0.0456985
0.0452692
0.0449421
0.0447549
0.961692
0.892184
0.829084
0.771727
0.719523
0.671944
0.628523
0.588843
0.552532
0.519258
0.488725
0.460668
0.434851
0.411062
0.389112
0.36883
0.350065
0.33268
0.316551
0.301568
0.287631
0.274652
0.262548
0.251247
0.240682
0.230793
0.221527
0.212834
0.204669
0.196992
0.189766
0.182956
0.176533
0.170467
0.164735
0.159311
0.154174
0.149305
0.144686
0.140299
0.13613
0.132164
0.128388
0.12479
0.12136
0.118086
0.11496
0.111972
0.109115
0.10638
0.103761
0.101251
0.0988437
0.0965338
0.0943159
0.0921849
0.0901362
0.0881655
0.0862687
0.084442
0.0826819
0.080985
0.0793481
0.0777684
0.0762429
0.0747692
0.0733447
0.071967
0.0706341
0.0693438
0.0680941
0.0668832
0.0657093
0.0645708
0.063466
0.0623935
0.0613517
0.0603395
0.0593554
0.0583982
0.0574667
0.05656
0.0556769
0.0548164
0.0539779
0.0531604
0.0523634
0.0515865
0.0508296
0.0500928
0.0493769
0.0486833
0.0480146
0.0473745
0.0467693
0.0462077
0.0457028
0.0452735
0.0449465
0.0447593
0.961692
0.892184
0.829084
0.771727
0.719523
0.671944
0.628523
0.588843
0.552532
0.519258
0.488725
0.460668
0.434851
0.411062
0.389112
0.36883
0.350065
0.33268
0.316551
0.301568
0.287631
0.274652
0.262548
0.251247
0.240682
0.230793
0.221527
0.212834
0.204669
0.196992
0.189766
0.182956
0.176533
0.170468
0.164735
0.159311
0.154174
0.149305
0.144686
0.140299
0.13613
0.132164
0.128388
0.124791
0.121361
0.118087
0.114961
0.111973
0.109116
0.106381
0.103762
0.101252
0.0988446
0.0965348
0.0943168
0.0921859
0.0901372
0.0881666
0.0862699
0.0844433
0.0826832
0.0809864
0.0793496
0.0777699
0.0762445
0.0747708
0.0733463
0.0719688
0.0706359
0.0693457
0.068096
0.0668852
0.0657114
0.064573
0.0634683
0.0623958
0.0613542
0.060342
0.059358
0.0584009
0.0574696
0.0565629
0.0556799
0.0548196
0.0539811
0.0531638
0.0523669
0.0515901
0.0508333
0.0500966
0.0493809
0.0486874
0.0480187
0.0473788
0.0467736
0.0462121
0.0457073
0.045278
0.044951
0.0447638
0.961692
0.892184
0.829084
0.771727
0.719523
0.671944
0.628523
0.588843
0.552532
0.519258
0.488725
0.460668
0.434851
0.411062
0.389112
0.36883
0.350065
0.33268
0.316551
0.301568
0.287631
0.274652
0.262548
0.251247
0.240682
0.230793
0.221527
0.212834
0.204669
0.196992
0.189766
0.182956
0.176533
0.170468
0.164735
0.159311
0.154175
0.149306
0.144686
0.1403
0.13613
0.132165
0.128389
0.124791
0.121361
0.118088
0.114961
0.111974
0.109116
0.106382
0.103763
0.101253
0.0988455
0.0965357
0.0943178
0.0921869
0.0901383
0.0881678
0.0862711
0.0844445
0.0826845
0.0809877
0.079351
0.0777714
0.0762461
0.0747724
0.0733481
0.0719706
0.0706378
0.0693476
0.0680981
0.0668873
0.0657136
0.0645752
0.0634706
0.0623983
0.0613567
0.0603447
0.0593607
0.0584037
0.0574725
0.056566
0.0556831
0.0548229
0.0539845
0.0531673
0.0523705
0.0515938
0.0508371
0.0501006
0.0493849
0.0486915
0.048023
0.0473831
0.046778
0.0462166
0.0457118
0.0452826
0.0449556
0.0447684
0.961692
0.892184
0.829084
0.771727
0.719522
0.671944
0.628523
0.588843
0.552532
0.519258
0.488725
0.460668
0.434851
0.411062
0.389112
0.36883
0.350065
0.332679
0.316551
0.301568
0.287631
0.274652
0.262548
0.251247
0.240682
0.230793
0.221527
0.212834
0.204669
0.196992
0.189766
0.182957
0.176533
0.170468
0.164735
0.159312
0.154175
0.149306
0.144687
0.1403
0.136131
0.132165
0.128389
0.124792
0.121362
0.118088
0.114962
0.111974
0.109117
0.106382
0.103763
0.101253
0.0988464
0.0965367
0.0943188
0.092188
0.0901395
0.0881689
0.0862723
0.0844458
0.0826859
0.0809892
0.0793525
0.0777729
0.0762477
0.0747741
0.0733498
0.0719724
0.0706397
0.0693496
0.0681001
0.0668895
0.0657158
0.0645775
0.063473
0.0624008
0.0613593
0.0603473
0.0593635
0.0584066
0.0574755
0.0565691
0.0556863
0.0548262
0.0539879
0.0531708
0.0523742
0.0515976
0.050841
0.0501046
0.049389
0.0486958
0.0480273
0.0473876
0.0467825
0.0462212
0.0457165
0.0452873
0.0449603
0.0447731
0.961692
0.892184
0.829084
0.771727
0.719522
0.671944
0.628523
0.588843
0.552532
0.519258
0.488725
0.460668
0.434851
0.411062
0.389112
0.36883
0.350065
0.332679
0.316551
0.301568
0.287631
0.274652
0.262548
0.251247
0.240682
0.230793
0.221527
0.212834
0.20467
0.196993
0.189766
0.182957
0.176534
0.170468
0.164736
0.159312
0.154175
0.149307
0.144687
0.140301
0.136131
0.132165
0.12839
0.124793
0.121362
0.118089
0.114963
0.111975
0.109118
0.106383
0.103764
0.101254
0.0988473
0.0965376
0.0943199
0.0921891
0.0901406
0.0881701
0.0862736
0.0844471
0.0826873
0.0809906
0.079354
0.0777745
0.0762493
0.0747758
0.0733516
0.0719742
0.0706416
0.0693516
0.0681022
0.0668916
0.0657181
0.0645799
0.0634754
0.0624033
0.0613619
0.06035
0.0593663
0.0584095
0.0574785
0.0565722
0.0556895
0.0548295
0.0539914
0.0531744
0.0523779
0.0516014
0.050845
0.0501087
0.0493932
0.0487001
0.0480317
0.0473921
0.0467871
0.0462258
0.0457212
0.0452921
0.0449651
0.0447779
0.961692
0.892184
0.829084
0.771727
0.719522
0.671944
0.628523
0.588843
0.552532
0.519258
0.488725
0.460668
0.434851
0.411062
0.389112
0.36883
0.350065
0.332679
0.316551
0.301568
0.287631
0.274652
0.262548
0.251247
0.240682
0.230794
0.221527
0.212834
0.20467
0.196993
0.189766
0.182957
0.176534
0.170469
0.164736
0.159312
0.154176
0.149307
0.144687
0.140301
0.136132
0.132166
0.12839
0.124793
0.121363
0.118089
0.114963
0.111976
0.109119
0.106384
0.103765
0.101255
0.0988483
0.0965386
0.0943209
0.0921901
0.0901417
0.0881713
0.0862748
0.0844484
0.0826886
0.080992
0.0793555
0.077776
0.0762509
0.0747775
0.0733533
0.0719761
0.0706435
0.0693536
0.0681043
0.0668938
0.0657203
0.0645822
0.0634779
0.0624058
0.0613646
0.0603528
0.0593691
0.0584125
0.0574816
0.0565753
0.0556928
0.0548329
0.0539949
0.053178
0.0523816
0.0516053
0.0508489
0.0501128
0.0493974
0.0487044
0.0480362
0.0473966
0.0467918
0.0462306
0.045726
0.0452969
0.04497
0.0447828
0.961692
0.892184
0.829084
0.771727
0.719522
0.671944
0.628523
0.588843
0.552532
0.519258
0.488725
0.460668
0.434851
0.411062
0.389112
0.36883
0.350065
0.332679
0.316551
0.301568
0.287631
0.274652
0.262548
0.251247
0.240682
0.230794
0.221528
0.212835
0.20467
0.196993
0.189767
0.182957
0.176534
0.170469
0.164736
0.159312
0.154176
0.149307
0.144688
0.140301
0.136132
0.132166
0.128391
0.124794
0.121363
0.11809
0.114964
0.111977
0.109119
0.106385
0.103766
0.101256
0.0988492
0.0965396
0.0943219
0.0921912
0.0901429
0.0881725
0.0862761
0.0844498
0.08269
0.0809935
0.079357
0.0777776
0.0762526
0.0747792
0.0733551
0.0719779
0.0706454
0.0693556
0.0681064
0.066896
0.0657226
0.0645846
0.0634803
0.0624083
0.0613672
0.0603555
0.059372
0.0584154
0.0574846
0.0565785
0.055696
0.0548363
0.0539984
0.0531816
0.0523853
0.0516092
0.0508529
0.0501169
0.0494017
0.0487088
0.0480406
0.0474012
0.0467964
0.0462353
0.0457308
0.0453017
0.0449748
0.0447876
0.961692
0.892184
0.829084
0.771727
0.719522
0.671944
0.628523
0.588843
0.552532
0.519258
0.488725
0.460668
0.434851
0.411062
0.389112
0.36883
0.350065
0.332679
0.316551
0.301568
0.287631
0.274652
0.262548
0.251247
0.240682
0.230794
0.221528
0.212835
0.20467
0.196993
0.189767
0.182957
0.176534
0.170469
0.164736
0.159313
0.154176
0.149308
0.144688
0.140302
0.136133
0.132167
0.128391
0.124794
0.121364
0.118091
0.114965
0.111977
0.10912
0.106386
0.103767
0.101257
0.0988501
0.0965406
0.094323
0.0921923
0.090144
0.0881737
0.0862773
0.0844511
0.0826914
0.0809949
0.0793585
0.0777792
0.0762542
0.0747809
0.0733569
0.0719798
0.0706474
0.0693576
0.0681085
0.0668981
0.0657249
0.0645869
0.0634828
0.0624109
0.0613698
0.0603582
0.0593748
0.0584183
0.0574877
0.0565816
0.0556993
0.0548397
0.0540019
0.0531852
0.0523891
0.051613
0.0508569
0.050121
0.0494059
0.0487131
0.0480451
0.0474058
0.0468011
0.04624
0.0457356
0.0453066
0.0449797
0.0447925
0.961692
0.892184
0.829084
0.771727
0.719522
0.671944
0.628523
0.588843
0.552532
0.519258
0.488725
0.460668
0.434851
0.411062
0.389112
0.36883
0.350065
0.332679
0.316551
0.301568
0.287631
0.274652
0.262548
0.251247
0.240682
0.230794
0.221528
0.212835
0.20467
0.196993
0.189767
0.182957
0.176534
0.170469
0.164737
0.159313
0.154177
0.149308
0.144689
0.140302
0.136133
0.132167
0.128392
0.124795
0.121365
0.118091
0.114965
0.111978
0.109121
0.106386
0.103768
0.101258
0.098851
0.0965415
0.094324
0.0921934
0.0901451
0.0881749
0.0862786
0.0844524
0.0826927
0.0809963
0.07936
0.0777807
0.0762558
0.0747826
0.0733587
0.0719816
0.0706493
0.0693596
0.0681105
0.0669003
0.0657271
0.0645893
0.0634852
0.0624134
0.0613724
0.0603609
0.0593776
0.0584213
0.0574907
0.0565848
0.0557026
0.054843
0.0540054
0.0531889
0.0523928
0.0516169
0.0508609
0.0501251
0.0494101
0.0487175
0.0480496
0.0474103
0.0468058
0.0462448
0.0457404
0.0453115
0.0449846
0.0447974
0.961692
0.892184
0.829084
0.771727
0.719522
0.671944
0.628523
0.588843
0.552532
0.519258
0.488725
0.460668
0.434851
0.411062
0.389112
0.36883
0.350065
0.332679
0.316551
0.301568
0.287631
0.274652
0.262548
0.251247
0.240682
0.230794
0.221528
0.212835
0.20467
0.196993
0.189767
0.182958
0.176535
0.170469
0.164737
0.159313
0.154177
0.149308
0.144689
0.140302
0.136133
0.132168
0.128392
0.124795
0.121365
0.118092
0.114966
0.111979
0.109121
0.106387
0.103768
0.101259
0.0988519
0.0965425
0.094325
0.0921944
0.0901462
0.088176
0.0862798
0.0844537
0.0826941
0.0809977
0.0793614
0.0777823
0.0762574
0.0747843
0.0733604
0.0719835
0.0706512
0.0693616
0.0681126
0.0669024
0.0657293
0.0645916
0.0634876
0.0624159
0.061375
0.0603636
0.0593804
0.0584242
0.0574937
0.0565879
0.0557058
0.0548464
0.0540088
0.0531924
0.0523965
0.0516207
0.0508649
0.0501292
0.0494143
0.0487218
0.048054
0.0474149
0.0468104
0.0462495
0.0457452
0.0453163
0.0449895
0.0448022
0.961692
0.892184
0.829084
0.771727
0.719522
0.671944
0.628523
0.588843
0.552532
0.519258
0.488725
0.460668
0.434851
0.411062
0.389112
0.36883
0.350065
0.332679
0.316551
0.301568
0.287631
0.274652
0.262548
0.251247
0.240682
0.230794
0.221528
0.212835
0.20467
0.196993
0.189767
0.182958
0.176535
0.17047
0.164737
0.159313
0.154177
0.149308
0.144689
0.140303
0.136134
0.132168
0.128393
0.124796
0.121366
0.118092
0.114967
0.111979
0.109122
0.106388
0.103769
0.10126
0.0988528
0.0965434
0.094326
0.0921955
0.0901474
0.0881772
0.086281
0.0844549
0.0826954
0.0809991
0.0793629
0.0777838
0.076259
0.074786
0.0733622
0.0719853
0.0706531
0.0693635
0.0681146
0.0669046
0.0657315
0.0645939
0.06349
0.0624184
0.0613776
0.0603663
0.0593832
0.058427
0.0574967
0.056591
0.055709
0.0548497
0.0540123
0.053196
0.0524002
0.0516245
0.0508688
0.0501332
0.0494185
0.048726
0.0480584
0.0474193
0.046815
0.0462541
0.0457499
0.0453211
0.0449943
0.044807
0.961692
0.892184
0.829084
0.771727
0.719522
0.671944
0.628523
0.588843
0.552532
0.519258
0.488725
0.460668
0.434851
0.411062
0.389111
0.36883
0.350065
0.332679
0.31655
0.301568
0.287631
0.274652
0.262548
0.251247
0.240682
0.230794
0.221528
0.212835
0.20467
0.196993
0.189767
0.182958
0.176535
0.17047
0.164737
0.159314
0.154177
0.149309
0.14469
0.140303
0.136134
0.132169
0.128393
0.124796
0.121366
0.118093
0.114967
0.11198
0.109123
0.106389
0.10377
0.10126
0.0988537
0.0965444
0.094327
0.0921965
0.0901484
0.0881783
0.0862822
0.0844562
0.0826967
0.0810005
0.0793643
0.0777853
0.0762606
0.0747876
0.0733639
0.071987
0.0706549
0.0693654
0.0681166
0.0669066
0.0657337
0.0645961
0.0634923
0.0624208
0.0613801
0.0603689
0.0593859
0.0584298
0.0574996
0.056594
0.0557121
0.0548529
0.0540156
0.0531994
0.0524038
0.0516282
0.0508726
0.0501371
0.0494225
0.0487302
0.0480627
0.0474237
0.0468195
0.0462587
0.0457546
0.0453258
0.044999
0.0448118
0.961692
0.892184
0.829084
0.771727
0.719522
0.671944
0.628523
0.588843
0.552532
0.519258
0.488725
0.460668
0.434851
0.411062
0.389111
0.36883
0.350065
0.332679
0.31655
0.301568
0.287631
0.274652
0.262548
0.251247
0.240682
0.230794
0.221528
0.212835
0.20467
0.196994
0.189767
0.182958
0.176535
0.17047
0.164738
0.159314
0.154178
0.149309
0.14469
0.140304
0.136135
0.132169
0.128394
0.124797
0.121367
0.118094
0.114968
0.111981
0.109124
0.106389
0.103771
0.101261
0.0988546
0.0965453
0.0943279
0.0921975
0.0901495
0.0881795
0.0862834
0.0844574
0.082698
0.0810018
0.0793657
0.0777868
0.0762621
0.0747892
0.0733655
0.0719888
0.0706567
0.0693673
0.0681186
0.0669087
0.0657358
0.0645983
0.0634946
0.0624232
0.0613826
0.0603715
0.0593886
0.0584326
0.0575024
0.056597
0.0557152
0.0548561
0.0540189
0.0532029
0.0524073
0.0516319
0.0508764
0.050141
0.0494266
0.0487344
0.0480669
0.0474281
0.0468239
0.0462632
0.0457592
0.0453304
0.0450036
0.0448164
0.961692
0.892184
0.829084
0.771727
0.719522
0.671944
0.628523
0.588843
0.552532
0.519258
0.488724
0.460668
0.434851
0.411062
0.389111
0.36883
0.350065
0.332679
0.31655
0.301568
0.287631
0.274652
0.262548
0.251247
0.240682
0.230794
0.221528
0.212835
0.204671
0.196994
0.189767
0.182958
0.176535
0.17047
0.164738
0.159314
0.154178
0.149309
0.14469
0.140304
0.136135
0.132169
0.128394
0.124797
0.121367
0.118094
0.114968
0.111981
0.109124
0.10639
0.103771
0.101262
0.0988554
0.0965462
0.0943288
0.0921985
0.0901505
0.0881805
0.0862845
0.0844586
0.0826993
0.0810032
0.0793671
0.0777882
0.0762636
0.0747908
0.0733672
0.0719905
0.0706585
0.0693692
0.0681205
0.0669107
0.0657379
0.0646005
0.0634968
0.0624255
0.061385
0.060374
0.0593912
0.0584353
0.0575052
0.0565999
0.0557182
0.0548592
0.0540222
0.0532062
0.0524108
0.0516354
0.0508801
0.0501448
0.0494305
0.0487384
0.048071
0.0474323
0.0468282
0.0462677
0.0457636
0.0453349
0.0450082
0.044821
0.961692
0.892184
0.829084
0.771727
0.719522
0.671944
0.628523
0.588843
0.552532
0.519258
0.488724
0.460668
0.434851
0.411062
0.389111
0.36883
0.350065
0.332679
0.31655
0.301568
0.287631
0.274652
0.262548
0.251247
0.240682
0.230794
0.221528
0.212835
0.204671
0.196994
0.189768
0.182958
0.176535
0.17047
0.164738
0.159314
0.154178
0.14931
0.144691
0.140304
0.136135
0.13217
0.128395
0.124798
0.121368
0.118095
0.114969
0.111982
0.109125
0.106391
0.103772
0.101263
0.0988562
0.096547
0.0943298
0.0921995
0.0901515
0.0881816
0.0862856
0.0844598
0.0827005
0.0810044
0.0793684
0.0777896
0.0762651
0.0747923
0.0733687
0.0719921
0.0706602
0.069371
0.0681224
0.0669126
0.0657399
0.0646026
0.063499
0.0624278
0.0613873
0.0603764
0.0593937
0.0584379
0.057508
0.0566027
0.0557211
0.0548623
0.0540253
0.0532095
0.0524141
0.0516389
0.0508837
0.0501486
0.0494343
0.0487423
0.0480751
0.0474365
0.0468325
0.046272
0.045768
0.0453393
0.0450126
0.0448254
0.961692
0.892184
0.829084
0.771727
0.719522
0.671944
0.628523
0.588843
0.552532
0.519258
0.488724
0.460668
0.434851
0.411062
0.389111
0.36883
0.350065
0.332679
0.31655
0.301568
0.287631
0.274652
0.262548
0.251247
0.240682
0.230794
0.221528
0.212835
0.204671
0.196994
0.189768
0.182959
0.176536
0.170471
0.164738
0.159315
0.154178
0.14931
0.144691
0.140305
0.136136
0.13217
0.128395
0.124798
0.121368
0.118095
0.11497
0.111982
0.109125
0.106391
0.103773
0.101263
0.098857
0.0965479
0.0943306
0.0922004
0.0901525
0.0881826
0.0862867
0.0844609
0.0827017
0.0810057
0.0793697
0.0777909
0.0762665
0.0747938
0.0733703
0.0719937
0.0706619
0.0693727
0.0681242
0.0669145
0.0657419
0.0646046
0.0635011
0.06243
0.0613896
0.0603788
0.0593961
0.0584405
0.0575106
0.0566054
0.055724
0.0548652
0.0540283
0.0532126
0.0524174
0.0516423
0.0508872
0.0501522
0.049438
0.0487462
0.048079
0.0474405
0.0468366
0.0462762
0.0457723
0.0453436
0.045017
0.0448298
0.961692
0.892184
0.829084
0.771727
0.719522
0.671944
0.628523
0.588843
0.552532
0.519258
0.488724
0.460668
0.434851
0.411062
0.389111
0.36883
0.350065
0.332679
0.31655
0.301568
0.287631
0.274652
0.262548
0.251247
0.240682
0.230794
0.221528
0.212835
0.204671
0.196994
0.189768
0.182959
0.176536
0.170471
0.164738
0.159315
0.154179
0.14931
0.144691
0.140305
0.136136
0.132171
0.128395
0.124798
0.121369
0.118096
0.11497
0.111983
0.109126
0.106392
0.103774
0.101264
0.0988578
0.0965487
0.0943315
0.0922013
0.0901534
0.0881836
0.0862877
0.084462
0.0827028
0.0810069
0.079371
0.0777923
0.0762679
0.0747952
0.0733718
0.0719953
0.0706635
0.0693744
0.0681259
0.0669163
0.0657437
0.0646066
0.0635032
0.0624321
0.0613918
0.0603811
0.0593985
0.0584429
0.0575131
0.0566081
0.0557267
0.0548681
0.0540313
0.0532157
0.0524206
0.0516456
0.0508905
0.0501557
0.0494416
0.0487499
0.0480828
0.0474444
0.0468406
0.0462802
0.0457764
0.0453478
0.0450212
0.044834
0.961692
0.892184
0.829084
0.771727
0.719522
0.671944
0.628523
0.588843
0.552532
0.519258
0.488724
0.460668
0.43485
0.411062
0.389111
0.36883
0.350065
0.332679
0.31655
0.301568
0.287631
0.274652
0.262548
0.251247