/*--------------------------------*- C++ -*----------------------------------*\
  =========                 |
  \\      /  F ield         | OpenFOAM: The Open Source CFD Toolbox
   \\    /   O peration     | Website:  https://openfoam.org
    \\  /    A nd           | Version:  11
     \\/     M anipulation  |
\*---------------------------------------------------------------------------*/
FoamFile
{
    format      ascii;
    class       volVectorField;
    location    "878";
    object      U;
}
// * * * * * * * * * * * * * * * * * * * * * * * * * * * * * * * * * * * * * //

dimensions      [0 1 -1 0 0 0 0];

internalField   nonuniform List<vector> 
10000
(
(0.005 -2.66323e-09 0)
(0.005 -7.05192e-09 0)
(0.005 -1.10416e-08 0)
(0.005 -1.48443e-08 0)
(0.00499999 -1.85954e-08 0)
(0.00499999 -2.23934e-08 0)
(0.00499999 -2.63111e-08 0)
(0.00499999 -3.04072e-08 0)
(0.00499998 -3.47322e-08 0)
(0.00499998 -3.93318e-08 0)
(0.00499998 -4.42497e-08 0)
(0.00499997 -4.95288e-08 0)
(0.00499997 -5.52124e-08 0)
(0.00499996 -6.13443e-08 0)
(0.00499996 -6.79703e-08 0)
(0.00499995 -7.51377e-08 0)
(0.00499995 -8.28963e-08 0)
(0.00499994 -9.12986e-08 0)
(0.00499993 -1.004e-07 0)
(0.00499992 -1.10259e-07 0)
(0.00499992 -1.20937e-07 0)
(0.00499991 -1.32501e-07 0)
(0.0049999 -1.45019e-07 0)
(0.00499988 -1.58567e-07 0)
(0.00499987 -1.73222e-07 0)
(0.00499986 -1.89068e-07 0)
(0.00499984 -2.06193e-07 0)
(0.00499983 -2.2469e-07 0)
(0.00499981 -2.44659e-07 0)
(0.0049998 -2.66204e-07 0)
(0.00499978 -2.89436e-07 0)
(0.00499976 -3.14472e-07 0)
(0.00499973 -3.41437e-07 0)
(0.00499971 -3.7046e-07 0)
(0.00499969 -4.01679e-07 0)
(0.00499966 -4.3524e-07 0)
(0.00499963 -4.71296e-07 0)
(0.0049996 -5.10006e-07 0)
(0.00499957 -5.51539e-07 0)
(0.00499953 -5.96074e-07 0)
(0.00499949 -6.43796e-07 0)
(0.00499946 -6.949e-07 0)
(0.00499941 -7.4959e-07 0)
(0.00499937 -8.08079e-07 0)
(0.00499932 -8.7059e-07 0)
(0.00499927 -9.37357e-07 0)
(0.00499922 -1.00862e-06 0)
(0.00499916 -1.08464e-06 0)
(0.0049991 -1.16567e-06 0)
(0.00499904 -1.25199e-06 0)
(0.00499897 -1.34388e-06 0)
(0.0049989 -1.44163e-06 0)
(0.00499882 -1.54556e-06 0)
(0.00499874 -1.65597e-06 0)
(0.00499866 -1.7732e-06 0)
(0.00499857 -1.89757e-06 0)
(0.00499847 -2.02944e-06 0)
(0.00499838 -2.16916e-06 0)
(0.00499827 -2.31709e-06 0)
(0.00499816 -2.4736e-06 0)
(0.00499805 -2.63909e-06 0)
(0.00499793 -2.81393e-06 0)
(0.0049978 -2.99852e-06 0)
(0.00499767 -3.19326e-06 0)
(0.00499753 -3.39856e-06 0)
(0.00499738 -3.61482e-06 0)
(0.00499723 -3.84245e-06 0)
(0.00499707 -4.08186e-06 0)
(0.0049969 -4.33344e-06 0)
(0.00499673 -4.5976e-06 0)
(0.00499654 -4.87471e-06 0)
(0.00499635 -5.16515e-06 0)
(0.00499616 -5.46926e-06 0)
(0.00499595 -5.78737e-06 0)
(0.00499574 -6.11977e-06 0)
(0.00499552 -6.46671e-06 0)
(0.0049953 -6.82837e-06 0)
(0.00499506 -7.2049e-06 0)
(0.00499482 -7.59635e-06 0)
(0.00499457 -8.00266e-06 0)
(0.00499431 -8.42368e-06 0)
(0.00499405 -8.85909e-06 0)
(0.00499379 -9.3084e-06 0)
(0.00499351 -9.77091e-06 0)
(0.00499323 -1.02456e-05 0)
(0.00499295 -1.07313e-05 0)
(0.00499267 -1.12262e-05 0)
(0.00499238 -1.17282e-05 0)
(0.0049921 -1.22346e-05 0)
(0.00499182 -1.27419e-05 0)
(0.00499154 -1.32459e-05 0)
(0.00499126 -1.37414e-05 0)
(0.00499099 -1.4222e-05 0)
(0.00499074 -1.46801e-05 0)
(0.0049905 -1.51063e-05 0)
(0.00499028 -1.54898e-05 0)
(0.00499008 -1.58178e-05 0)
(0.00498991 -1.60759e-05 0)
(0.00498977 -1.62504e-05 0)
(0.00498966 -1.63397e-05 0)
(0.005 -2.08545e-09 0)
(0.005 -5.9638e-09 0)
(0.005 -9.62058e-09 0)
(0.005 -1.3118e-08 0)
(0.00499999 -1.65679e-08 0)
(0.00499999 -2.00568e-08 0)
(0.00499999 -2.3651e-08 0)
(0.00499999 -2.74049e-08 0)
(0.00499999 -3.13661e-08 0)
(0.00499998 -3.55777e-08 0)
(0.00499998 -4.00813e-08 0)
(0.00499997 -4.49173e-08 0)
(0.00499997 -5.01269e-08 0)
(0.00499997 -5.57517e-08 0)
(0.00499996 -6.1835e-08 0)
(0.00499995 -6.8422e-08 0)
(0.00499995 -7.55599e-08 0)
(0.00499994 -8.32987e-08 0)
(0.00499993 -9.1691e-08 0)
(0.00499993 -1.00793e-07 0)
(0.00499992 -1.10663e-07 0)
(0.00499991 -1.21364e-07 0)
(0.0049999 -1.32963e-07 0)
(0.00499988 -1.45531e-07 0)
(0.00499987 -1.59142e-07 0)
(0.00499986 -1.73877e-07 0)
(0.00499985 -1.89821e-07 0)
(0.00499983 -2.07061e-07 0)
(0.00499981 -2.25695e-07 0)
(0.0049998 -2.45823e-07 0)
(0.00499978 -2.67551e-07 0)
(0.00499976 -2.90992e-07 0)
(0.00499974 -3.16266e-07 0)
(0.00499971 -3.43498e-07 0)
(0.00499969 -3.72822e-07 0)
(0.00499966 -4.04378e-07 0)
(0.00499963 -4.38313e-07 0)
(0.0049996 -4.74783e-07 0)
(0.00499957 -5.13952e-07 0)
(0.00499953 -5.55992e-07 0)
(0.0049995 -6.01083e-07 0)
(0.00499946 -6.49415e-07 0)
(0.00499942 -7.01186e-07 0)
(0.00499937 -7.56604e-07 0)
(0.00499932 -8.15887e-07 0)
(0.00499927 -8.79261e-07 0)
(0.00499922 -9.46964e-07 0)
(0.00499916 -1.01924e-06 0)
(0.0049991 -1.09636e-06 0)
(0.00499904 -1.17857e-06 0)
(0.00499897 -1.26616e-06 0)
(0.0049989 -1.35943e-06 0)
(0.00499883 -1.45866e-06 0)
(0.00499875 -1.56418e-06 0)
(0.00499866 -1.6763e-06 0)
(0.00499857 -1.79535e-06 0)
(0.00499848 -1.92168e-06 0)
(0.00499838 -2.05564e-06 0)
(0.00499828 -2.19759e-06 0)
(0.00499817 -2.3479e-06 0)
(0.00499805 -2.50696e-06 0)
(0.00499793 -2.67515e-06 0)
(0.00499781 -2.85287e-06 0)
(0.00499767 -3.04053e-06 0)
(0.00499754 -3.23853e-06 0)
(0.00499739 -3.44729e-06 0)
(0.00499724 -3.66722e-06 0)
(0.00499708 -3.89875e-06 0)
(0.00499691 -4.14228e-06 0)
(0.00499674 -4.39824e-06 0)
(0.00499656 -4.66701e-06 0)
(0.00499637 -4.94901e-06 0)
(0.00499617 -5.24459e-06 0)
(0.00499597 -5.55413e-06 0)
(0.00499576 -5.87796e-06 0)
(0.00499554 -6.21635e-06 0)
(0.00499531 -6.56957e-06 0)
(0.00499508 -6.9378e-06 0)
(0.00499484 -7.32117e-06 0)
(0.00499459 -7.7197e-06 0)
(0.00499434 -8.13333e-06 0)
(0.00499408 -8.56184e-06 0)
(0.00499381 -9.00486e-06 0)
(0.00499354 -9.46181e-06 0)
(0.00499326 -9.93188e-06 0)
(0.00499298 -1.04139e-05 0)
(0.0049927 -1.09065e-05 0)
(0.00499241 -1.14076e-05 0)
(0.00499213 -1.19147e-05 0)
(0.00499184 -1.24248e-05 0)
(0.00499156 -1.29339e-05 0)
(0.00499129 -1.34371e-05 0)
(0.00499102 -1.39284e-05 0)
(0.00499076 -1.44006e-05 0)
(0.00499052 -1.4845e-05 0)
(0.00499029 -1.52511e-05 0)
(0.00499009 -1.5607e-05 0)
(0.00498991 -1.58986e-05 0)
(0.00498975 -1.61113e-05 0)
(0.00498961 -1.62353e-05 0)
(0.005 -1.62307e-09 0)
(0.005 -4.95233e-09 0)
(0.005 -8.22408e-09 0)
(0.005 -1.14001e-08 0)
(0.005 -1.45455e-08 0)
(0.00499999 -1.77278e-08 0)
(0.00499999 -2.1004e-08 0)
(0.00499999 -2.44231e-08 0)
(0.00499999 -2.80289e-08 0)
(0.00499998 -3.18621e-08 0)
(0.00499998 -3.59616e-08 0)
(0.00499997 -4.03658e-08 0)
(0.00499997 -4.51137e-08 0)
(0.00499997 -5.02446e-08 0)
(0.00499996 -5.57998e-08 0)
(0.00499995 -6.1822e-08 0)
(0.00499995 -6.83562e-08 0)
(0.00499994 -7.54499e-08 0)
(0.00499993 -8.31531e-08 0)
(0.00499993 -9.1519e-08 0)
(0.00499992 -1.00604e-07 0)
(0.00499991 -1.10468e-07 0)
(0.0049999 -1.21175e-07 0)
(0.00499989 -1.32791e-07 0)
(0.00499987 -1.4539e-07 0)
(0.00499986 -1.59048e-07 0)
(0.00499985 -1.73845e-07 0)
(0.00499983 -1.89868e-07 0)
(0.00499982 -2.07208e-07 0)
(0.0049998 -2.25962e-07 0)
(0.00499978 -2.46233e-07 0)
(0.00499976 -2.6813e-07 0)
(0.00499974 -2.91766e-07 0)
(0.00499971 -3.17265e-07 0)
(0.00499969 -3.44754e-07 0)
(0.00499966 -3.74369e-07 0)
(0.00499964 -4.06253e-07 0)
(0.00499961 -4.40556e-07 0)
(0.00499957 -4.77438e-07 0)
(0.00499954 -5.17065e-07 0)
(0.0049995 -5.59613e-07 0)
(0.00499946 -6.05265e-07 0)
(0.00499942 -6.54214e-07 0)
(0.00499938 -7.06664e-07 0)
(0.00499933 -7.62826e-07 0)
(0.00499928 -8.22922e-07 0)
(0.00499923 -8.87183e-07 0)
(0.00499917 -9.55852e-07 0)
(0.00499911 -1.02918e-06 0)
(0.00499905 -1.10743e-06 0)
(0.00499898 -1.19088e-06 0)
(0.00499891 -1.27981e-06 0)
(0.00499884 -1.37452e-06 0)
(0.00499876 -1.4753e-06 0)
(0.00499867 -1.58249e-06 0)
(0.00499859 -1.69641e-06 0)
(0.00499849 -1.81739e-06 0)
(0.0049984 -1.94579e-06 0)
(0.00499829 -2.08198e-06 0)
(0.00499818 -2.22631e-06 0)
(0.00499807 -2.37917e-06 0)
(0.00499795 -2.54095e-06 0)
(0.00499783 -2.71205e-06 0)
(0.00499769 -2.89287e-06 0)
(0.00499756 -3.08384e-06 0)
(0.00499741 -3.28537e-06 0)
(0.00499726 -3.49789e-06 0)
(0.0049971 -3.72182e-06 0)
(0.00499694 -3.95759e-06 0)
(0.00499676 -4.20564e-06 0)
(0.00499659 -4.46638e-06 0)
(0.0049964 -4.74024e-06 0)
(0.0049962 -5.02761e-06 0)
(0.004996 -5.32889e-06 0)
(0.00499579 -5.64445e-06 0)
(0.00499557 -5.97461e-06 0)
(0.00499535 -6.31968e-06 0)
(0.00499512 -6.67991e-06 0)
(0.00499488 -7.05548e-06 0)
(0.00499463 -7.4465e-06 0)
(0.00499438 -7.85298e-06 0)
(0.00499412 -8.27481e-06 0)
(0.00499385 -8.71172e-06 0)
(0.00499358 -9.16327e-06 0)
(0.00499331 -9.62877e-06 0)
(0.00499303 -1.01072e-05 0)
(0.00499274 -1.05974e-05 0)
(0.00499246 -1.10975e-05 0)
(0.00499217 -1.16052e-05 0)
(0.00499189 -1.21177e-05 0)
(0.00499161 -1.26314e-05 0)
(0.00499133 -1.31415e-05 0)
(0.00499106 -1.36426e-05 0)
(0.0049908 -1.41275e-05 0)
(0.00499056 -1.45881e-05 0)
(0.00499033 -1.5014e-05 0)
(0.00499011 -1.53934e-05 0)
(0.00498992 -1.57119e-05 0)
(0.00498974 -1.5954e-05 0)
(0.00498956 -1.61063e-05 0)
(0.005 -1.30429e-09 0)
(0.005 -4.14286e-09 0)
(0.005 -7.02963e-09 0)
(0.005 -9.88212e-09 0)
(0.005 -1.2731e-08 0)
(0.00499999 -1.56238e-08 0)
(0.00499999 -1.86055e-08 0)
(0.00499999 -2.1718e-08 0)
(0.00499999 -2.50006e-08 0)
(0.00499998 -2.84906e-08 0)
(0.00499998 -3.22244e-08 0)
(0.00499998 -3.62382e-08 0)
(0.00499997 -4.05687e-08 0)
(0.00499997 -4.52533e-08 0)
(0.00499996 -5.0331e-08 0)
(0.00499996 -5.58427e-08 0)
(0.00499995 -6.1831e-08 0)
(0.00499994 -6.83412e-08 0)
(0.00499994 -7.54211e-08 0)
(0.00499993 -8.31214e-08 0)
(0.00499992 -9.1496e-08 0)
(0.00499991 -1.00602e-07 0)
(0.0049999 -1.10501e-07 0)
(0.00499989 -1.21257e-07 0)
(0.00499988 -1.32939e-07 0)
(0.00499986 -1.45622e-07 0)
(0.00499985 -1.59381e-07 0)
(0.00499983 -1.74301e-07 0)
(0.00499982 -1.9047e-07 0)
(0.0049998 -2.0798e-07 0)
(0.00499978 -2.26931e-07 0)
(0.00499976 -2.47427e-07 0)
(0.00499974 -2.69581e-07 0)
(0.00499972 -2.93508e-07 0)
(0.00499969 -3.19335e-07 0)
(0.00499967 -3.47191e-07 0)
(0.00499964 -3.77216e-07 0)
(0.00499961 -4.09555e-07 0)
(0.00499958 -4.44364e-07 0)
(0.00499954 -4.81803e-07 0)
(0.00499951 -5.22045e-07 0)
(0.00499947 -5.65267e-07 0)
(0.00499943 -6.11658e-07 0)
(0.00499939 -6.61416e-07 0)
(0.00499934 -7.14748e-07 0)
(0.00499929 -7.71871e-07 0)
(0.00499924 -8.33011e-07 0)
(0.00499918 -8.98405e-07 0)
(0.00499912 -9.68301e-07 0)
(0.00499906 -1.04296e-06 0)
(0.00499899 -1.12264e-06 0)
(0.00499892 -1.20764e-06 0)
(0.00499885 -1.29823e-06 0)
(0.00499877 -1.39473e-06 0)
(0.00499869 -1.49744e-06 0)
(0.0049986 -1.60669e-06 0)
(0.00499851 -1.72283e-06 0)
(0.00499842 -1.84618e-06 0)
(0.00499831 -1.97712e-06 0)
(0.00499821 -2.11602e-06 0)
(0.00499809 -2.26325e-06 0)
(0.00499798 -2.4192e-06 0)
(0.00499785 -2.58429e-06 0)
(0.00499772 -2.7589e-06 0)
(0.00499758 -2.94348e-06 0)
(0.00499744 -3.13843e-06 0)
(0.00499729 -3.3442e-06 0)
(0.00499714 -3.56122e-06 0)
(0.00499697 -3.78993e-06 0)
(0.0049968 -4.03078e-06 0)
(0.00499662 -4.2842e-06 0)
(0.00499644 -4.55064e-06 0)
(0.00499625 -4.83053e-06 0)
(0.00499605 -5.12427e-06 0)
(0.00499584 -5.43228e-06 0)
(0.00499562 -5.75491e-06 0)
(0.0049954 -6.09253e-06 0)
(0.00499517 -6.44543e-06 0)
(0.00499493 -6.81384e-06 0)
(0.00499469 -7.19795e-06 0)
(0.00499444 -7.59784e-06 0)
(0.00499418 -8.01348e-06 0)
(0.00499391 -8.4447e-06 0)
(0.00499365 -8.89117e-06 0)
(0.00499337 -9.35231e-06 0)
(0.00499309 -9.82731e-06 0)
(0.00499281 -1.0315e-05 0)
(0.00499253 -1.08138e-05 0)
(0.00499224 -1.13217e-05 0)
(0.00499196 -1.18358e-05 0)
(0.00499168 -1.23529e-05 0)
(0.0049914 -1.28686e-05 0)
(0.00499113 -1.33773e-05 0)
(0.00499087 -1.38725e-05 0)
(0.00499061 -1.43456e-05 0)
(0.00499037 -1.47867e-05 0)
(0.00499015 -1.51833e-05 0)
(0.00498994 -1.552e-05 0)
(0.00498973 -1.57788e-05 0)
(0.00498952 -1.59458e-05 0)
(0.005 -1.05086e-09 0)
(0.005 -3.43966e-09 0)
(0.005 -5.93822e-09 0)
(0.005 -8.45207e-09 0)
(0.005 -1.09909e-08 0)
(0.00499999 -1.3585e-08 0)
(0.00499999 -1.62677e-08 0)
(0.00499999 -1.9073e-08 0)
(0.00499999 -2.20344e-08 0)
(0.00499998 -2.51855e-08 0)
(0.00499998 -2.85593e-08 0)
(0.00499998 -3.21896e-08 0)
(0.00499997 -3.61105e-08 0)
(0.00499997 -4.03574e-08 0)
(0.00499996 -4.49673e-08 0)
(0.00499996 -4.99786e-08 0)
(0.00499995 -5.5432e-08 0)
(0.00499994 -6.13705e-08 0)
(0.00499994 -6.78396e-08 0)
(0.00499993 -7.48875e-08 0)
(0.00499992 -8.25658e-08 0)
(0.00499991 -9.09291e-08 0)
(0.0049999 -1.00036e-07 0)
(0.00499989 -1.09948e-07 0)
(0.00499988 -1.20731e-07 0)
(0.00499987 -1.32456e-07 0)
(0.00499985 -1.45198e-07 0)
(0.00499984 -1.59036e-07 0)
(0.00499982 -1.74054e-07 0)
(0.0049998 -1.90344e-07 0)
(0.00499979 -2.07999e-07 0)
(0.00499977 -2.27121e-07 0)
(0.00499975 -2.47818e-07 0)
(0.00499972 -2.70204e-07 0)
(0.0049997 -2.94397e-07 0)
(0.00499967 -3.20526e-07 0)
(0.00499965 -3.48725e-07 0)
(0.00499962 -3.79135e-07 0)
(0.00499959 -4.11907e-07 0)
(0.00499955 -4.47197e-07 0)
(0.00499952 -4.85172e-07 0)
(0.00499948 -5.26006e-07 0)
(0.00499944 -5.69883e-07 0)
(0.0049994 -6.16995e-07 0)
(0.00499935 -6.67544e-07 0)
(0.0049993 -7.21743e-07 0)
(0.00499925 -7.79813e-07 0)
(0.00499919 -8.41987e-07 0)
(0.00499914 -9.08506e-07 0)
(0.00499908 -9.79625e-07 0)
(0.00499901 -1.05561e-06 0)
(0.00499894 -1.13673e-06 0)
(0.00499887 -1.22328e-06 0)
(0.00499879 -1.31555e-06 0)
(0.00499871 -1.41386e-06 0)
(0.00499863 -1.51852e-06 0)
(0.00499854 -1.62987e-06 0)
(0.00499844 -1.74826e-06 0)
(0.00499834 -1.87404e-06 0)
(0.00499823 -2.00758e-06 0)
(0.00499812 -2.14927e-06 0)
(0.00499801 -2.29948e-06 0)
(0.00499788 -2.45863e-06 0)
(0.00499776 -2.62712e-06 0)
(0.00499762 -2.80539e-06 0)
(0.00499748 -2.99385e-06 0)
(0.00499733 -3.19296e-06 0)
(0.00499718 -3.40316e-06 0)
(0.00499702 -3.62489e-06 0)
(0.00499685 -3.85863e-06 0)
(0.00499667 -4.10482e-06 0)
(0.00499649 -4.36392e-06 0)
(0.0049963 -4.63639e-06 0)
(0.0049961 -4.92266e-06 0)
(0.0049959 -5.22318e-06 0)
(0.00499568 -5.53835e-06 0)
(0.00499546 -5.86855e-06 0)
(0.00499524 -6.21414e-06 0)
(0.004995 -6.57541e-06 0)
(0.00499476 -6.95259e-06 0)
(0.00499451 -7.34586e-06 0)
(0.00499426 -7.75525e-06 0)
(0.00499399 -8.18068e-06 0)
(0.00499373 -8.62193e-06 0)
(0.00499345 -9.07855e-06 0)
(0.00499318 -9.54982e-06 0)
(0.0049929 -1.00347e-05 0)
(0.00499262 -1.05318e-05 0)
(0.00499233 -1.10393e-05 0)
(0.00499205 -1.15545e-05 0)
(0.00499176 -1.20742e-05 0)
(0.00499149 -1.25942e-05 0)
(0.00499121 -1.31093e-05 0)
(0.00499094 -1.36128e-05 0)
(0.00499068 -1.40963e-05 0)
(0.00499043 -1.45495e-05 0)
(0.00499019 -1.49594e-05 0)
(0.00498997 -1.53096e-05 0)
(0.00498974 -1.55798e-05 0)
(0.0049895 -1.575e-05 0)
(0.005 -8.33513e-10 0)
(0.005 -2.80745e-09 0)
(0.005 -4.92662e-09 0)
(0.005 -7.0964e-09 0)
(0.005 -9.31518e-09 0)
(0.00499999 -1.16012e-08 0)
(0.00499999 -1.39779e-08 0)
(0.00499999 -1.64714e-08 0)
(0.00499999 -1.91097e-08 0)
(0.00499998 -2.19217e-08 0)
(0.00499998 -2.49372e-08 0)
(0.00499998 -2.81867e-08 0)
(0.00499997 -3.1702e-08 0)
(0.00499997 -3.5516e-08 0)
(0.00499996 -3.96634e-08 0)
(0.00499996 -4.41806e-08 0)
(0.00499995 -4.91058e-08 0)
(0.00499995 -5.44798e-08 0)
(0.00499994 -6.03458e-08 0)
(0.00499993 -6.67498e-08 0)
(0.00499992 -7.37407e-08 0)
(0.00499991 -8.13706e-08 0)
(0.0049999 -8.96952e-08 0)
(0.00499989 -9.87737e-08 0)
(0.00499988 -1.08669e-07 0)
(0.00499987 -1.19449e-07 0)
(0.00499986 -1.31186e-07 0)
(0.00499984 -1.43955e-07 0)
(0.00499983 -1.57837e-07 0)
(0.00499981 -1.7292e-07 0)
(0.00499979 -1.89295e-07 0)
(0.00499977 -2.0706e-07 0)
(0.00499975 -2.26318e-07 0)
(0.00499973 -2.47178e-07 0)
(0.00499971 -2.69758e-07 0)
(0.00499968 -2.94179e-07 0)
(0.00499965 -3.20572e-07 0)
(0.00499962 -3.49075e-07 0)
(0.00499959 -3.79832e-07 0)
(0.00499956 -4.12997e-07 0)
(0.00499953 -4.4873e-07 0)
(0.00499949 -4.87201e-07 0)
(0.00499945 -5.2859e-07 0)
(0.00499941 -5.73084e-07 0)
(0.00499936 -6.2088e-07 0)
(0.00499931 -6.72185e-07 0)
(0.00499926 -7.27217e-07 0)
(0.00499921 -7.86202e-07 0)
(0.00499915 -8.49378e-07 0)
(0.00499909 -9.16994e-07 0)
(0.00499903 -9.8931e-07 0)
(0.00499896 -1.0666e-06 0)
(0.00499889 -1.14914e-06 0)
(0.00499882 -1.23722e-06 0)
(0.00499874 -1.33117e-06 0)
(0.00499865 -1.43128e-06 0)
(0.00499856 -1.5379e-06 0)
(0.00499847 -1.65136e-06 0)
(0.00499837 -1.77202e-06 0)
(0.00499827 -1.90025e-06 0)
(0.00499816 -2.03642e-06 0)
(0.00499804 -2.18094e-06 0)
(0.00499792 -2.3342e-06 0)
(0.0049978 -2.49661e-06 0)
(0.00499766 -2.66861e-06 0)
(0.00499753 -2.85063e-06 0)
(0.00499738 -3.04312e-06 0)
(0.00499723 -3.24653e-06 0)
(0.00499707 -3.46133e-06 0)
(0.0049969 -3.68798e-06 0)
(0.00499673 -3.92696e-06 0)
(0.00499655 -4.17875e-06 0)
(0.00499636 -4.44382e-06 0)
(0.00499617 -4.72264e-06 0)
(0.00499597 -5.01567e-06 0)
(0.00499576 -5.32336e-06 0)
(0.00499554 -5.64613e-06 0)
(0.00499532 -5.98437e-06 0)
(0.00499508 -6.33844e-06 0)
(0.00499484 -6.70863e-06 0)
(0.0049946 -7.09517e-06 0)
(0.00499435 -7.49817e-06 0)
(0.00499409 -7.91766e-06 0)
(0.00499382 -8.35348e-06 0)
(0.00499355 -8.8053e-06 0)
(0.00499328 -9.27251e-06 0)
(0.004993 -9.75423e-06 0)
(0.00499272 -1.02492e-05 0)
(0.00499244 -1.07556e-05 0)
(0.00499215 -1.1271e-05 0)
(0.00499187 -1.17924e-05 0)
(0.00499159 -1.23157e-05 0)
(0.00499131 -1.28357e-05 0)
(0.00499103 -1.33457e-05 0)
(0.00499077 -1.38374e-05 0)
(0.00499051 -1.43e-05 0)
(0.00499026 -1.472e-05 0)
(0.00499001 -1.508e-05 0)
(0.00498977 -1.53581e-05 0)
(0.00498949 -1.55247e-05 0)
(0.005 -6.43223e-10 0)
(0.005 -2.23736e-09 0)
(0.005 -3.99417e-09 0)
(0.005 -5.82437e-09 0)
(0.005 -7.72132e-09 0)
(0.00499999 -9.69557e-09 0)
(0.00499999 -1.17629e-08 0)
(0.00499999 -1.39429e-08 0)
(0.00499999 -1.62581e-08 0)
(0.00499998 -1.8733e-08 0)
(0.00499998 -2.13936e-08 0)
(0.00499998 -2.42675e-08 0)
(0.00499997 -2.73835e-08 0)
(0.00499997 -3.07723e-08 0)
(0.00499996 -3.4466e-08 0)
(0.00499996 -3.84987e-08 0)
(0.00499995 -4.29064e-08 0)
(0.00499995 -4.77276e-08 0)
(0.00499994 -5.30031e-08 0)
(0.00499993 -5.87766e-08 0)
(0.00499992 -6.50945e-08 0)
(0.00499992 -7.20063e-08 0)
(0.00499991 -7.95652e-08 0)
(0.0049999 -8.78277e-08 0)
(0.00499988 -9.6854e-08 0)
(0.00499987 -1.06709e-07 0)
(0.00499986 -1.1746e-07 0)
(0.00499984 -1.29182e-07 0)
(0.00499983 -1.41952e-07 0)
(0.00499981 -1.55853e-07 0)
(0.0049998 -1.70974e-07 0)
(0.00499978 -1.87408e-07 0)
(0.00499976 -2.05255e-07 0)
(0.00499974 -2.24621e-07 0)
(0.00499971 -2.45618e-07 0)
(0.00499969 -2.68365e-07 0)
(0.00499966 -2.92988e-07 0)
(0.00499963 -3.19619e-07 0)
(0.0049996 -3.484e-07 0)
(0.00499957 -3.79479e-07 0)
(0.00499954 -4.13013e-07 0)
(0.0049995 -4.49166e-07 0)
(0.00499946 -4.88113e-07 0)
(0.00499942 -5.30037e-07 0)
(0.00499938 -5.7513e-07 0)
(0.00499933 -6.23594e-07 0)
(0.00499928 -6.75641e-07 0)
(0.00499923 -7.31494e-07 0)
(0.00499917 -7.91386e-07 0)
(0.00499911 -8.55561e-07 0)
(0.00499905 -9.24273e-07 0)
(0.00499899 -9.9779e-07 0)
(0.00499892 -1.07639e-06 0)
(0.00499884 -1.16036e-06 0)
(0.00499876 -1.25001e-06 0)
(0.00499868 -1.34565e-06 0)
(0.00499859 -1.4476e-06 0)
(0.0049985 -1.55621e-06 0)
(0.00499841 -1.67184e-06 0)
(0.0049983 -1.79484e-06 0)
(0.0049982 -1.92559e-06 0)
(0.00499809 -2.06449e-06 0)
(0.00499797 -2.21194e-06 0)
(0.00499784 -2.36837e-06 0)
(0.00499771 -2.53419e-06 0)
(0.00499758 -2.70984e-06 0)
(0.00499743 -2.8958e-06 0)
(0.00499729 -3.0925e-06 0)
(0.00499713 -3.30044e-06 0)
(0.00499697 -3.52009e-06 0)
(0.0049968 -3.75194e-06 0)
(0.00499662 -3.99648e-06 0)
(0.00499644 -4.25421e-06 0)
(0.00499625 -4.52563e-06 0)
(0.00499605 -4.81122e-06 0)
(0.00499584 -5.11145e-06 0)
(0.00499563 -5.4268e-06 0)
(0.00499541 -5.7577e-06 0)
(0.00499518 -6.10455e-06 0)
(0.00499494 -6.46769e-06 0)
(0.0049947 -6.84741e-06 0)
(0.00499445 -7.24392e-06 0)
(0.00499419 -7.65729e-06 0)
(0.00499393 -8.08746e-06 0)
(0.00499366 -8.5342e-06 0)
(0.00499339 -8.997e-06 0)
(0.00499312 -9.47508e-06 0)
(0.00499284 -9.96728e-06 0)
(0.00499255 -1.04719e-05 0)
(0.00499227 -1.09868e-05 0)
(0.00499198 -1.15088e-05 0)
(0.0049917 -1.20341e-05 0)
(0.00499142 -1.25574e-05 0)
(0.00499114 -1.30721e-05 0)
(0.00499086 -1.35696e-05 0)
(0.0049906 -1.4039e-05 0)
(0.00499033 -1.44661e-05 0)
(0.00499007 -1.48327e-05 0)
(0.00498981 -1.51157e-05 0)
(0.00498951 -1.52785e-05 0)
(0.005 -4.73644e-10 0)
(0.005 -1.72013e-09 0)
(0.005 -3.13447e-09 0)
(0.005 -4.63533e-09 0)
(0.005 -6.21455e-09 0)
(0.005 -7.87803e-09 0)
(0.00499999 -9.63612e-09 0)
(0.00499999 -1.15033e-08 0)
(0.00499999 -1.34971e-08 0)
(0.00499999 -1.56381e-08 0)
(0.00499998 -1.79486e-08 0)
(0.00499998 -2.0453e-08 0)
(0.00499997 -2.31774e-08 0)
(0.00499997 -2.61498e-08 0)
(0.00499997 -2.93999e-08 0)
(0.00499996 -3.29593e-08 0)
(0.00499995 -3.68619e-08 0)
(0.00499995 -4.11438e-08 0)
(0.00499994 -4.58436e-08 0)
(0.00499993 -5.10023e-08 0)
(0.00499993 -5.66641e-08 0)
(0.00499992 -6.28761e-08 0)
(0.00499991 -6.96885e-08 0)
(0.0049999 -7.71554e-08 0)
(0.00499989 -8.53342e-08 0)
(0.00499988 -9.42865e-08 0)
(0.00499986 -1.04078e-07 0)
(0.00499985 -1.14778e-07 0)
(0.00499983 -1.26463e-07 0)
(0.00499982 -1.39211e-07 0)
(0.0049998 -1.53108e-07 0)
(0.00499978 -1.68244e-07 0)
(0.00499976 -1.84714e-07 0)
(0.00499974 -2.02621e-07 0)
(0.00499972 -2.22074e-07 0)
(0.0049997 -2.43186e-07 0)
(0.00499967 -2.66079e-07 0)
(0.00499964 -2.90883e-07 0)
(0.00499961 -3.17734e-07 0)
(0.00499958 -3.46775e-07 0)
(0.00499955 -3.78159e-07 0)
(0.00499951 -4.12047e-07 0)
(0.00499948 -4.48607e-07 0)
(0.00499944 -4.88017e-07 0)
(0.00499939 -5.30467e-07 0)
(0.00499935 -5.76151e-07 0)
(0.0049993 -6.25279e-07 0)
(0.00499925 -6.78068e-07 0)
(0.00499919 -7.34745e-07 0)
(0.00499914 -7.95551e-07 0)
(0.00499908 -8.60735e-07 0)
(0.00499901 -9.30559e-07 0)
(0.00499894 -1.0053e-06 0)
(0.00499887 -1.08524e-06 0)
(0.00499879 -1.17068e-06 0)
(0.00499871 -1.26193e-06 0)
(0.00499863 -1.35931e-06 0)
(0.00499854 -1.46317e-06 0)
(0.00499845 -1.57385e-06 0)
(0.00499835 -1.69171e-06 0)
(0.00499824 -1.81714e-06 0)
(0.00499813 -1.95053e-06 0)
(0.00499802 -2.09228e-06 0)
(0.0049979 -2.24281e-06 0)
(0.00499777 -2.40255e-06 0)
(0.00499764 -2.57195e-06 0)
(0.0049975 -2.75146e-06 0)
(0.00499735 -2.94157e-06 0)
(0.0049972 -3.14274e-06 0)
(0.00499704 -3.35548e-06 0)
(0.00499687 -3.58028e-06 0)
(0.0049967 -3.81766e-06 0)
(0.00499652 -4.06813e-06 0)
(0.00499633 -4.3322e-06 0)
(0.00499613 -4.6104e-06 0)
(0.00499593 -4.90322e-06 0)
(0.00499572 -5.21117e-06 0)
(0.0049955 -5.53472e-06 0)
(0.00499528 -5.87431e-06 0)
(0.00499505 -6.23035e-06 0)
(0.00499481 -6.60317e-06 0)
(0.00499456 -6.99304e-06 0)
(0.00499431 -7.40011e-06 0)
(0.00499405 -7.82439e-06 0)
(0.00499379 -8.26573e-06 0)
(0.00499352 -8.72372e-06 0)
(0.00499324 -9.19767e-06 0)
(0.00499297 -9.68652e-06 0)
(0.00499268 -1.01887e-05 0)
(0.0049924 -1.0702e-05 0)
(0.00499211 -1.12236e-05 0)
(0.00499183 -1.17495e-05 0)
(0.00499154 -1.22746e-05 0)
(0.00499126 -1.27921e-05 0)
(0.00499098 -1.32933e-05 0)
(0.0049907 -1.3767e-05 0)
(0.00499042 -1.41986e-05 0)
(0.00499015 -1.45692e-05 0)
(0.00498986 -1.48546e-05 0)
(0.00498955 -1.50165e-05 0)
(0.005 -3.19875e-10 0)
(0.005 -1.24736e-09 0)
(0.005 -2.33995e-09 0)
(0.005 -3.52503e-09 0)
(0.005 -4.79475e-09 0)
(0.005 -6.15241e-09 0)
(0.00499999 -7.6047e-09 0)
(0.00499999 -9.16202e-09 0)
(0.00499999 -1.08381e-08 0)
(0.00499999 -1.26497e-08 0)
(0.00499998 -1.46158e-08 0)
(0.00499998 -1.67577e-08 0)
(0.00499998 -1.90988e-08 0)
(0.00499997 -2.16644e-08 0)
(0.00499997 -2.44817e-08 0)
(0.00499996 -2.758e-08 0)
(0.00499996 -3.0991e-08 0)
(0.00499995 -3.47482e-08 0)
(0.00499994 -3.8888e-08 0)
(0.00499994 -4.34492e-08 0)
(0.00499993 -4.84733e-08 0)
(0.00499992 -5.4005e-08 0)
(0.00499991 -6.0092e-08 0)
(0.0049999 -6.67857e-08 0)
(0.00499989 -7.41407e-08 0)
(0.00499988 -8.22158e-08 0)
(0.00499987 -9.10737e-08 0)
(0.00499985 -1.00781e-07 0)
(0.00499984 -1.11411e-07 0)
(0.00499982 -1.23038e-07 0)
(0.00499981 -1.35744e-07 0)
(0.00499979 -1.49616e-07 0)
(0.00499977 -1.64747e-07 0)
(0.00499975 -1.81234e-07 0)
(0.00499973 -1.99183e-07 0)
(0.00499971 -2.18703e-07 0)
(0.00499968 -2.39913e-07 0)
(0.00499965 -2.62937e-07 0)
(0.00499963 -2.87907e-07 0)
(0.0049996 -3.14963e-07 0)
(0.00499956 -3.44252e-07 0)
(0.00499953 -3.7593e-07 0)
(0.00499949 -4.10163e-07 0)
(0.00499945 -4.47123e-07 0)
(0.00499941 -4.86993e-07 0)
(0.00499937 -5.29967e-07 0)
(0.00499932 -5.76245e-07 0)
(0.00499927 -6.26042e-07 0)
(0.00499922 -6.79581e-07 0)
(0.00499916 -7.37096e-07 0)
(0.0049991 -7.98833e-07 0)
(0.00499904 -8.6505e-07 0)
(0.00499897 -9.36017e-07 0)
(0.0049989 -1.01201e-06 0)
(0.00499883 -1.09334e-06 0)
(0.00499875 -1.18029e-06 0)
(0.00499867 -1.27321e-06 0)
(0.00499858 -1.37241e-06 0)
(0.00499849 -1.47824e-06 0)
(0.00499839 -1.59108e-06 0)
(0.00499829 -1.71129e-06 0)
(0.00499818 -1.83927e-06 0)
(0.00499807 -1.97542e-06 0)
(0.00499795 -2.12016e-06 0)
(0.00499783 -2.27394e-06 0)
(0.0049977 -2.43718e-06 0)
(0.00499756 -2.61037e-06 0)
(0.00499742 -2.79397e-06 0)
(0.00499727 -2.98849e-06 0)
(0.00499712 -3.19441e-06 0)
(0.00499695 -3.41226e-06 0)
(0.00499678 -3.64255e-06 0)
(0.00499661 -3.88583e-06 0)
(0.00499642 -4.14263e-06 0)
(0.00499623 -4.41348e-06 0)
(0.00499603 -4.69892e-06 0)
(0.00499583 -4.99949e-06 0)
(0.00499561 -5.31568e-06 0)
(0.00499539 -5.64799e-06 0)
(0.00499517 -5.99685e-06 0)
(0.00499493 -6.36266e-06 0)
(0.00499469 -6.74574e-06 0)
(0.00499444 -7.1463e-06 0)
(0.00499418 -7.56443e-06 0)
(0.00499392 -8.00003e-06 0)
(0.00499366 -8.45278e-06 0)
(0.00499338 -8.92208e-06 0)
(0.00499311 -9.40692e-06 0)
(0.00499283 -9.90584e-06 0)
(0.00499254 -1.04167e-05 0)
(0.00499225 -1.09368e-05 0)
(0.00499197 -1.1462e-05 0)
(0.00499168 -1.19873e-05 0)
(0.00499139 -1.25058e-05 0)
(0.0049911 -1.30088e-05 0)
(0.00499081 -1.34847e-05 0)
(0.00499052 -1.39187e-05 0)
(0.00499024 -1.42911e-05 0)
(0.00498994 -1.4577e-05 0)
(0.00498961 -1.47386e-05 0)
(0.005 -1.81714e-10 0)
(0.005 -8.12585e-10 0)
(0.005 -1.60412e-09 0)
(0.005 -2.48906e-09 0)
(0.005 -3.46051e-09 0)
(0.005 -4.52048e-09 0)
(0.00499999 -5.67327e-09 0)
(0.00499999 -6.92634e-09 0)
(0.00499999 -8.29027e-09 0)
(0.00499999 -9.77855e-09 0)
(0.00499998 -1.14072e-08 0)
(0.00499998 -1.31948e-08 0)
(0.00499998 -1.51619e-08 0)
(0.00499997 -1.73312e-08 0)
(0.00499997 -1.97276e-08 0)
(0.00499996 -2.23781e-08 0)
(0.00499996 -2.53117e-08 0)
(0.00499995 -2.85601e-08 0)
(0.00499995 -3.2157e-08 0)
(0.00499994 -3.61389e-08 0)
(0.00499993 -4.05451e-08 0)
(0.00499992 -4.54177e-08 0)
(0.00499991 -5.0802e-08 0)
(0.00499991 -5.67465e-08 0)
(0.0049999 -6.33035e-08 0)
(0.00499988 -7.05286e-08 0)
(0.00499987 -7.84819e-08 0)
(0.00499986 -8.72274e-08 0)
(0.00499985 -9.68334e-08 0)
(0.00499983 -1.07373e-07 0)
(0.00499981 -1.18925e-07 0)
(0.0049998 -1.31572e-07 0)
(0.00499978 -1.45403e-07 0)
(0.00499976 -1.60513e-07 0)
(0.00499974 -1.77002e-07 0)
(0.00499972 -1.94977e-07 0)
(0.00499969 -2.14552e-07 0)
(0.00499967 -2.35847e-07 0)
(0.00499964 -2.5899e-07 0)
(0.00499961 -2.84117e-07 0)
(0.00499958 -3.1137e-07 0)
(0.00499954 -3.40901e-07 0)
(0.00499951 -3.7287e-07 0)
(0.00499947 -4.07447e-07 0)
(0.00499943 -4.44808e-07 0)
(0.00499939 -4.85143e-07 0)
(0.00499934 -5.28648e-07 0)
(0.00499929 -5.75532e-07 0)
(0.00499924 -6.26013e-07 0)
(0.00499919 -6.80323e-07 0)
(0.00499913 -7.387e-07 0)
(0.00499907 -8.014e-07 0)
(0.00499901 -8.68687e-07 0)
(0.00499894 -9.40838e-07 0)
(0.00499887 -1.01814e-06 0)
(0.00499879 -1.10091e-06 0)
(0.00499871 -1.18945e-06 0)
(0.00499863 -1.2841e-06 0)
(0.00499854 -1.38521e-06 0)
(0.00499844 -1.49312e-06 0)
(0.00499834 -1.60823e-06 0)
(0.00499824 -1.73091e-06 0)
(0.00499813 -1.86158e-06 0)
(0.00499801 -2.00065e-06 0)
(0.00499789 -2.14857e-06 0)
(0.00499777 -2.30578e-06 0)
(0.00499763 -2.47275e-06 0)
(0.0049975 -2.64996e-06 0)
(0.00499735 -2.83791e-06 0)
(0.0049972 -3.03712e-06 0)
(0.00499704 -3.24811e-06 0)
(0.00499687 -3.47141e-06 0)
(0.0049967 -3.70757e-06 0)
(0.00499652 -3.95716e-06 0)
(0.00499633 -4.22072e-06 0)
(0.00499614 -4.49881e-06 0)
(0.00499594 -4.792e-06 0)
(0.00499573 -5.10082e-06 0)
(0.00499551 -5.4258e-06 0)
(0.00499529 -5.76741e-06 0)
(0.00499506 -6.1261e-06 0)
(0.00499482 -6.50222e-06 0)
(0.00499458 -6.89605e-06 0)
(0.00499432 -7.30774e-06 0)
(0.00499407 -7.73724e-06 0)
(0.0049938 -8.18431e-06 0)
(0.00499353 -8.6484e-06 0)
(0.00499326 -9.12858e-06 0)
(0.00499298 -9.62346e-06 0)
(0.00499269 -1.0131e-05 0)
(0.0049924 -1.06483e-05 0)
(0.00499211 -1.11716e-05 0)
(0.00499182 -1.16957e-05 0)
(0.00499153 -1.22137e-05 0)
(0.00499123 -1.27166e-05 0)
(0.00499094 -1.31929e-05 0)
(0.00499064 -1.36273e-05 0)
(0.00499034 -1.39999e-05 0)
(0.00499003 -1.4285e-05 0)
(0.00498968 -1.44473e-05 0)
(0.005 -5.73876e-11 0)
(0.005 -4.12069e-10 0)
(0.005 -9.22267e-10 0)
(0.005 -1.52363e-09 0)
(0.005 -2.20995e-09 0)
(0.005 -2.98277e-09 0)
(0.00499999 -3.84486e-09 0)
(0.00499999 -4.80154e-09 0)
(0.00499999 -5.8609e-09 0)
(0.00499999 -7.03379e-09 0)
(0.00499998 -8.33361e-09 0)
(0.00499998 -9.77621e-09 0)
(0.00499998 -1.13797e-08 0)
(0.00499997 -1.31644e-08 0)
(0.00499997 -1.51528e-08 0)
(0.00499997 -1.73695e-08 0)
(0.00499996 -1.98415e-08 0)
(0.00499995 -2.25978e-08 0)
(0.00499995 -2.56701e-08 0)
(0.00499994 -2.90925e-08 0)
(0.00499993 -3.29019e-08 0)
(0.00499993 -3.7138e-08 0)
(0.00499992 -4.18436e-08 0)
(0.00499991 -4.70648e-08 0)
(0.0049999 -5.2851e-08 0)
(0.00499989 -5.92554e-08 0)
(0.00499988 -6.63349e-08 0)
(0.00499987 -7.41507e-08 0)
(0.00499985 -8.27682e-08 0)
(0.00499984 -9.22574e-08 0)
(0.00499982 -1.02693e-07 0)
(0.00499981 -1.14156e-07 0)
(0.00499979 -1.2673e-07 0)
(0.00499977 -1.40507e-07 0)
(0.00499975 -1.55584e-07 0)
(0.00499973 -1.72064e-07 0)
(0.0049997 -1.90056e-07 0)
(0.00499968 -2.09677e-07 0)
(0.00499965 -2.31051e-07 0)
(0.00499962 -2.54308e-07 0)
(0.00499959 -2.79588e-07 0)
(0.00499956 -3.07038e-07 0)
(0.00499953 -3.36812e-07 0)
(0.00499949 -3.69076e-07 0)
(0.00499945 -4.04003e-07 0)
(0.00499941 -4.41776e-07 0)
(0.00499937 -4.82588e-07 0)
(0.00499932 -5.26643e-07 0)
(0.00499927 -5.74154e-07 0)
(0.00499922 -6.25347e-07 0)
(0.00499916 -6.80459e-07 0)
(0.0049991 -7.39737e-07 0)
(0.00499904 -8.03443e-07 0)
(0.00499898 -8.71849e-07 0)
(0.00499891 -9.45244e-07 0)
(0.00499883 -1.02393e-06 0)
(0.00499875 -1.10821e-06 0)
(0.00499867 -1.19842e-06 0)
(0.00499859 -1.29491e-06 0)
(0.00499849 -1.39802e-06 0)
(0.0049984 -1.50814e-06 0)
(0.0049983 -1.62565e-06 0)
(0.00499819 -1.75095e-06 0)
(0.00499808 -1.88448e-06 0)
(0.00499796 -2.02665e-06 0)