/*--------------------------------*- C++ -*----------------------------------*\
  =========                 |
  \\      /  F ield         | OpenFOAM: The Open Source CFD Toolbox
   \\    /   O peration     | Website:  https://openfoam.org
    \\  /    A nd           | Version:  11
     \\/     M anipulation  |
\*---------------------------------------------------------------------------*/
FoamFile
{
    format      ascii;
    class       surfaceScalarField;
    location    "960";
    object      phi;
}
// * * * * * * * * * * * * * * * * * * * * * * * * * * * * * * * * * * * * * //

dimensions      [0 3 -1 0 0 0 0];

internalField   nonuniform List<scalar> 
19800
(
2e-05
-3.74498e-12
2e-05
-1.01499e-11
2e-05
-1.59118e-11
2e-05
-2.14303e-11
2e-05
-2.68851e-11
2e-05
-3.23703e-11
2e-05
-3.79583e-11
2e-05
-4.37091e-11
2e-05
-4.96747e-11
2e-05
-5.59025e-11
2e-05
-6.24376e-11
2e-05
-6.93239e-11
2e-05
-7.66051e-11
1.99999e-05
-8.43256e-11
1.99999e-05
-9.2531e-11
1.99999e-05
-1.01268e-10
1.99999e-05
-1.10587e-10
1.99999e-05
-1.2054e-10
1.99999e-05
-1.3118e-10
1.99999e-05
-1.42567e-10
1.99999e-05
-1.54763e-10
1.99999e-05
-1.67833e-10
1.99998e-05
-1.81847e-10
1.99998e-05
-1.9688e-10
1.99998e-05
-2.13012e-10
1.99998e-05
-2.30329e-10
1.99998e-05
-2.4892e-10
1.99998e-05
-2.68884e-10
1.99997e-05
-2.90323e-10
1.99997e-05
-3.13347e-10
1.99997e-05
-3.38075e-10
1.99996e-05
-3.64632e-10
1.99996e-05
-3.9315e-10
1.99996e-05
-4.23771e-10
1.99995e-05
-4.56646e-10
1.99995e-05
-4.91935e-10
1.99995e-05
-5.29808e-10
1.99994e-05
-5.70444e-10
1.99994e-05
-6.14035e-10
1.99993e-05
-6.60783e-10
1.99993e-05
-7.10902e-10
1.99992e-05
-7.64618e-10
1.99992e-05
-8.22169e-10
1.99991e-05
-8.83808e-10
1.9999e-05
-9.498e-10
1.9999e-05
-1.02043e-09
1.99989e-05
-1.09598e-09
1.99988e-05
-1.17677e-09
1.99987e-05
-1.26313e-09
1.99986e-05
-1.35539e-09
1.99985e-05
-1.45392e-09
1.99984e-05
-1.55908e-09
1.99983e-05
-1.67128e-09
1.99982e-05
-1.79091e-09
1.99981e-05
-1.91842e-09
1.9998e-05
-2.05425e-09
1.99978e-05
-2.19885e-09
1.99977e-05
-2.35272e-09
1.99975e-05
-2.51635e-09
1.99974e-05
-2.69027e-09
1.99972e-05
-2.87501e-09
1.9997e-05
-3.07112e-09
1.99969e-05
-3.27919e-09
1.99967e-05
-3.4998e-09
1.99965e-05
-3.73354e-09
1.99963e-05
-3.98105e-09
1.99961e-05
-4.24294e-09
1.99958e-05
-4.51986e-09
1.99956e-05
-4.81246e-09
1.99953e-05
-5.12138e-09
1.99951e-05
-5.44726e-09
1.99948e-05
-5.79077e-09
1.99945e-05
-6.15251e-09
1.99943e-05
-6.53312e-09
1.9994e-05
-6.93316e-09
1.99936e-05
-7.35319e-09
1.99933e-05
-7.79369e-09
1.9993e-05
-8.25507e-09
1.99927e-05
-8.73767e-09
1.99923e-05
-9.24169e-09
1.99919e-05
-9.76718e-09
1.99916e-05
-1.0314e-08
1.99912e-05
-1.08819e-08
1.99908e-05
-1.14701e-08
1.99904e-05
-1.20776e-08
1.999e-05
-1.27031e-08
1.99896e-05
-1.33446e-08
1.99892e-05
-1.39993e-08
1.99888e-05
-1.4664e-08
1.99884e-05
-1.53343e-08
1.99881e-05
-1.60046e-08
1.99877e-05
-1.66681e-08
1.99873e-05
-1.73163e-08
1.9987e-05
-1.79389e-08
1.99866e-05
-1.85235e-08
1.99863e-05
-1.90555e-08
1.99861e-05
-1.95182e-08
1.99859e-05
-1.98925e-08
1.99857e-05
-2.01601e-08
-2.03151e-08
2e-05
-3.09813e-12
2e-05
-8.78819e-12
2e-05
-1.40907e-11
2e-05
-1.922e-11
2e-05
-2.42945e-11
2e-05
-2.9391e-11
2e-05
-3.45729e-11
2e-05
-3.98949e-11
2e-05
-4.54052e-11
2e-05
-5.11482e-11
2e-05
-5.71664e-11
2e-05
-6.35007e-11
2e-05
-7.01924e-11
1.99999e-05
-7.72831e-11
1.99999e-05
-8.48154e-11
1.99999e-05
-9.28338e-11
1.99999e-05
-1.01385e-10
1.99999e-05
-1.10517e-10
1.99999e-05
-1.20283e-10
1.99999e-05
-1.30736e-10
1.99999e-05
-1.41936e-10
1.99999e-05
-1.53944e-10
1.99998e-05
-1.66828e-10
1.99998e-05
-1.80657e-10
1.99998e-05
-1.95508e-10
1.99998e-05
-2.11461e-10
1.99998e-05
-2.28603e-10
1.99998e-05
-2.47027e-10
1.99997e-05
-2.6683e-10
1.99997e-05
-2.88119e-10
1.99997e-05
-3.11006e-10
1.99996e-05
-3.3561e-10
1.99996e-05
-3.62059e-10
1.99996e-05
-3.9049e-10
1.99995e-05
-4.21046e-10
1.99995e-05
-4.53883e-10
1.99995e-05
-4.89163e-10
1.99994e-05
-5.27061e-10
1.99994e-05
-5.6776e-10
1.99993e-05
-6.11456e-10
1.99993e-05
-6.58357e-10
1.99992e-05
-7.08681e-10
1.99992e-05
-7.6266e-10
1.99991e-05
-8.2054e-10
1.9999e-05
-8.82579e-10
1.9999e-05
-9.49049e-10
1.99989e-05
-1.02024e-09
1.99988e-05
-1.09645e-09
1.99987e-05
-1.178e-09
1.99986e-05
-1.26523e-09
1.99985e-05
-1.35848e-09
1.99984e-05
-1.45813e-09
1.99983e-05
-1.56456e-09
1.99982e-05
-1.67818e-09
1.99981e-05
-1.79941e-09
1.9998e-05
-1.92868e-09
1.99978e-05
-2.06646e-09
1.99977e-05
-2.21323e-09
1.99976e-05
-2.36949e-09
1.99974e-05
-2.53575e-09
1.99972e-05
-2.71256e-09
1.99971e-05
-2.90046e-09
1.99969e-05
-3.10004e-09
1.99967e-05
-3.31188e-09
1.99965e-05
-3.53659e-09
1.99963e-05
-3.7748e-09
1.99961e-05
-4.02715e-09
1.99959e-05
-4.2943e-09
1.99956e-05
-4.5769e-09
1.99954e-05
-4.87562e-09
1.99951e-05
-5.19114e-09
1.99948e-05
-5.52414e-09
1.99946e-05
-5.87527e-09
1.99943e-05
-6.2452e-09
1.9994e-05
-6.63454e-09
1.99937e-05
-7.04392e-09
1.99934e-05
-7.47386e-09
1.9993e-05
-7.92487e-09
1.99927e-05
-8.39737e-09
1.99923e-05
-8.89164e-09
1.9992e-05
-9.40787e-09
1.99916e-05
-9.94606e-09
1.99912e-05
-1.0506e-08
1.99908e-05
-1.10872e-08
1.99905e-05
-1.16889e-08
1.99901e-05
-1.23097e-08
1.99897e-05
-1.29481e-08
1.99893e-05
-1.36017e-08
1.99889e-05
-1.42672e-08
1.99885e-05
-1.49408e-08
1.99881e-05
-1.56172e-08
1.99877e-05
-1.62899e-08
1.99873e-05
-1.69511e-08
1.9987e-05
-1.75908e-08
1.99867e-05
-1.81971e-08
1.99864e-05
-1.87559e-08
1.99861e-05
-1.92506e-08
1.99859e-05
-1.96618e-08
1.99857e-05
-1.99695e-08
-2.01624e-08
2e-05
-2.61114e-12
2e-05
-7.58332e-12
2e-05
-1.23611e-11
2e-05
-1.70586e-11
2e-05
-2.17327e-11
2e-05
-2.64321e-11
2e-05
-3.12061e-11
2e-05
-3.61007e-11
2e-05
-4.11592e-11
2e-05
-4.64221e-11
2e-05
-5.19285e-11
2e-05
-5.77167e-11
2e-05
-6.3825e-11
1.99999e-05
-7.02923e-11
1.99999e-05
-7.71585e-11
1.99999e-05
-8.44653e-11
1.99999e-05
-9.22561e-11
1.99999e-05
-1.00577e-10
1.99999e-05
-1.09476e-10
1.99999e-05
-1.19005e-10
1.99999e-05
-1.29218e-10
1.99999e-05
-1.40176e-10
1.99998e-05
-1.51939e-10
1.99998e-05
-1.64576e-10
1.99998e-05
-1.78157e-10
1.99998e-05
-1.9276e-10
1.99998e-05
-2.08467e-10
1.99998e-05
-2.25365e-10
1.99997e-05
-2.43548e-10
1.99997e-05
-2.63117e-10
1.99997e-05
-2.8418e-10
1.99997e-05
-3.0685e-10
1.99996e-05
-3.31249e-10
1.99996e-05
-3.57509e-10
1.99996e-05
-3.85768e-10
1.99995e-05
-4.16175e-10
1.99995e-05
-4.48886e-10
1.99994e-05
-4.84069e-10
1.99994e-05
-5.21902e-10
1.99993e-05
-5.62574e-10
1.99993e-05
-6.06286e-10
1.99992e-05
-6.53249e-10
1.99992e-05
-7.03688e-10
1.99991e-05
-7.57841e-10
1.9999e-05
-8.15961e-10
1.9999e-05
-8.78312e-10
1.99989e-05
-9.45175e-10
1.99988e-05
-1.01685e-09
1.99987e-05
-1.09363e-09
1.99986e-05
-1.17587e-09
1.99985e-05
-1.2639e-09
1.99984e-05
-1.35808e-09
1.99983e-05
-1.45879e-09
1.99982e-05
-1.56644e-09
1.99981e-05
-1.68143e-09
1.9998e-05
-1.8042e-09
1.99979e-05
-1.93522e-09
1.99977e-05
-2.07495e-09
1.99976e-05
-2.22389e-09
1.99974e-05
-2.38256e-09
1.99973e-05
-2.5515e-09
1.99971e-05
-2.73125e-09
1.99969e-05
-2.92239e-09
1.99967e-05
-3.12553e-09
1.99965e-05
-3.34127e-09
1.99963e-05
-3.57026e-09
1.99961e-05
-3.81313e-09
1.99959e-05
-4.07056e-09
1.99957e-05
-4.34323e-09
1.99954e-05
-4.63182e-09
1.99952e-05
-4.93704e-09
1.99949e-05
-5.25958e-09
1.99946e-05
-5.60015e-09
1.99943e-05
-5.95945e-09
1.9994e-05
-6.33814e-09
1.99937e-05
-6.73689e-09
1.99934e-05
-7.15631e-09
1.99931e-05
-7.59696e-09
1.99927e-05
-8.05935e-09
1.99924e-05
-8.54387e-09
1.9992e-05
-9.05079e-09
1.99917e-05
-9.58026e-09
1.99913e-05
-1.01322e-08
1.99909e-05
-1.07063e-08
1.99905e-05
-1.13019e-08
1.99901e-05
-1.19179e-08
1.99897e-05
-1.2553e-08
1.99893e-05
-1.32049e-08
1.9989e-05
-1.38709e-08
1.99886e-05
-1.45471e-08
1.99882e-05
-1.52289e-08
1.99878e-05
-1.591e-08
1.99874e-05
-1.65828e-08
1.99871e-05
-1.72379e-08
1.99867e-05
-1.78635e-08
1.99864e-05
-1.84457e-08
1.99861e-05
-1.89673e-08
1.99859e-05
-1.94079e-08
1.99857e-05
-1.97444e-08
-1.99583e-08
2e-05
-2.21907e-12
2e-05
-6.52353e-12
2e-05
-1.07552e-11
2e-05
-1.49881e-11
2e-05
-1.92374e-11
2e-05
-2.35251e-11
2e-05
-2.78838e-11
2e-05
-3.2349e-11
2e-05
-3.69569e-11
2e-05
-4.17432e-11
2e-05
-4.67431e-11
2e-05
-5.19916e-11
2e-05
-5.75239e-11
1.99999e-05
-6.33761e-11
1.99999e-05
-6.95853e-11
1.99999e-05
-7.61902e-11
1.99999e-05
-8.32312e-11
1.99999e-05
-9.07511e-11
1.99999e-05
-9.87955e-11
1.99999e-05
-1.07412e-10
1.99999e-05
-1.16654e-10
1.99999e-05
-1.26574e-10
1.99999e-05
-1.37233e-10
1.99998e-05
-1.48693e-10
1.99998e-05
-1.61022e-10
1.99998e-05
-1.74293e-10
1.99998e-05
-1.88583e-10
1.99998e-05
-2.03976e-10
1.99997e-05
-2.2056e-10
1.99997e-05
-2.38433e-10
1.99997e-05
-2.57695e-10
1.99997e-05
-2.78456e-10
1.99996e-05
-3.00833e-10
1.99996e-05
-3.2495e-10
1.99996e-05
-3.50942e-10
1.99995e-05
-3.7895e-10
1.99995e-05
-4.09125e-10
1.99994e-05
-4.41629e-10
1.99994e-05
-4.76633e-10
1.99993e-05
-5.14319e-10
1.99993e-05
-5.54882e-10
1.99992e-05
-5.98526e-10
1.99992e-05
-6.4547e-10
1.99991e-05
-6.95944e-10
1.99991e-05
-7.50194e-10
1.9999e-05
-8.08476e-10
1.99989e-05
-8.71066e-10
1.99988e-05
-9.38251e-10
1.99987e-05
-1.01034e-09
1.99987e-05
-1.08764e-09
1.99986e-05
-1.1705e-09
1.99985e-05
-1.25928e-09
1.99984e-05
-1.35435e-09
1.99983e-05
-1.45609e-09
1.99981e-05
-1.56492e-09
1.9998e-05
-1.68128e-09
1.99979e-05
-1.80561e-09
1.99977e-05
-1.93838e-09
1.99976e-05
-2.08009e-09
1.99975e-05
-2.23125e-09
1.99973e-05
-2.39239e-09
1.99971e-05
-2.56408e-09
1.99969e-05
-2.74689e-09
1.99968e-05
-2.94141e-09
1.99966e-05
-3.14828e-09
1.99964e-05
-3.36813e-09
1.99962e-05
-3.60162e-09
1.99959e-05
-3.84943e-09
1.99957e-05
-4.11225e-09
1.99955e-05
-4.3908e-09
1.99952e-05
-4.6858e-09
1.9995e-05
-4.99798e-09
1.99947e-05
-5.32806e-09
1.99944e-05
-5.6768e-09
1.99941e-05
-6.0449e-09
1.99938e-05
-6.43308e-09
1.99935e-05
-6.84201e-09
1.99932e-05
-7.27233e-09
1.99928e-05
-7.72461e-09
1.99925e-05
-8.19935e-09
1.99921e-05
-8.69693e-09
1.99918e-05
-9.21759e-09
1.99914e-05
-9.76139e-09
1.9991e-05
-1.03282e-08
1.99906e-05
-1.09175e-08
1.99902e-05
-1.15284e-08
1.99899e-05
-1.21597e-08
1.99895e-05
-1.28096e-08
1.99891e-05
-1.34753e-08
1.99887e-05
-1.41534e-08
1.99883e-05
-1.48395e-08
1.99879e-05
-1.55277e-08
1.99875e-05
-1.62105e-08
1.99872e-05
-1.68787e-08
1.99868e-05
-1.75208e-08
1.99865e-05
-1.81223e-08
1.99862e-05
-1.86656e-08
1.99859e-05
-1.91285e-08
1.99857e-05
-1.94845e-08
-1.97039e-08
2e-05
-1.88679e-12
2e-05
-5.58251e-12
2e-05
-9.2752e-12
2e-05
-1.30289e-11
2e-05
-1.68361e-11
2e-05
-2.06983e-11
2e-05
-2.4633e-11
2e-05
-2.86646e-11
2e-05
-3.28217e-11
2e-05
-3.7134e-11
2e-05
-4.16323e-11
2e-05
-4.63477e-11
2e-05
-5.13122e-11
2e-05
-5.65588e-11
1.99999e-05
-6.21215e-11
1.99999e-05
-6.8036e-11
1.99999e-05
-7.43399e-11
1.99999e-05
-8.10728e-11
1.99999e-05
-8.82772e-11
1.99999e-05
-9.59979e-11
1.99999e-05
-1.04283e-10
1.99999e-05
-1.13185e-10
1.99999e-05
-1.22758e-10
1.99998e-05
-1.33061e-10
1.99998e-05
-1.4416e-10
1.99998e-05
-1.56121e-10
1.99998e-05
-1.69019e-10
1.99998e-05
-1.82932e-10
1.99997e-05
-1.97946e-10
1.99997e-05
-2.1415e-10
1.99997e-05
-2.31642e-10
1.99997e-05
-2.50526e-10
1.99996e-05
-2.70915e-10
1.99996e-05
-2.92926e-10
1.99996e-05
-3.16688e-10
1.99995e-05
-3.42337e-10
1.99995e-05
-3.70019e-10
1.99994e-05
-3.99888e-10
1.99994e-05
-4.32109e-10
1.99994e-05
-4.66859e-10
1.99993e-05
-5.04324e-10
1.99993e-05
-5.44704e-10
1.99992e-05
-5.88209e-10
1.99991e-05
-6.35063e-10
1.99991e-05
-6.85505e-10
1.9999e-05
-7.39785e-10
1.99989e-05
-7.98169e-10
1.99989e-05
-8.6094e-10
1.99988e-05
-9.28394e-10
1.99987e-05
-1.00085e-09
1.99986e-05
-1.07863e-09
1.99985e-05
-1.16208e-09
1.99984e-05
-1.25159e-09
1.99983e-05
-1.34752e-09
1.99982e-05
-1.45029e-09
1.9998e-05
-1.56032e-09
1.99979e-05
-1.67805e-09
1.99978e-05
-1.80397e-09
1.99976e-05
-1.93855e-09
1.99975e-05
-2.08231e-09
1.99973e-05
-2.23578e-09
1.99972e-05
-2.39951e-09
1.9997e-05
-2.57409e-09
1.99968e-05
-2.76013e-09
1.99966e-05
-2.95823e-09
1.99964e-05
-3.16906e-09
1.99962e-05
-3.39329e-09
1.9996e-05
-3.63159e-09
1.99958e-05
-3.88469e-09
1.99955e-05
-4.15331e-09
1.99953e-05
-4.4382e-09
1.9995e-05
-4.74012e-09
1.99948e-05
-5.05982e-09
1.99945e-05
-5.39808e-09
1.99942e-05
-5.75567e-09
1.99939e-05
-6.13335e-09
1.99936e-05
-6.53184e-09
1.99933e-05
-6.95185e-09
1.99929e-05
-7.39403e-09
1.99926e-05
-7.85897e-09
1.99922e-05
-8.34713e-09
1.99919e-05
-8.85888e-09
1.99915e-05
-9.39441e-09
1.99911e-05
-9.95367e-09
1.99908e-05
-1.05364e-08
1.99904e-05
-1.11418e-08
1.999e-05
-1.17689e-08
1.99896e-05
-1.2416e-08
1.99892e-05
-1.30807e-08
1.99888e-05
-1.37598e-08
1.99884e-05
-1.4449e-08
1.9988e-05
-1.51426e-08
1.99877e-05
-1.58335e-08
1.99873e-05
-1.65123e-08
1.99869e-05
-1.71675e-08
1.99866e-05
-1.77844e-08
1.99863e-05
-1.83443e-08
1.9986e-05
-1.88237e-08
1.99857e-05
-1.91927e-08
-1.94092e-08
2e-05
-1.59714e-12
2e-05
-4.73707e-12
2e-05
-7.9117e-12
2e-05
-1.11869e-11
2e-05
-1.45445e-11
2e-05
-1.79726e-11
2e-05
-2.14765e-11
2e-05
-2.50711e-11
2e-05
-2.87768e-11
2e-05
-3.26176e-11
2e-05
-3.66191e-11
2e-05
-4.08085e-11
2e-05
-4.52141e-11
2e-05
-4.98654e-11
1.99999e-05
-5.47935e-11
1.99999e-05
-6.00309e-11
1.99999e-05
-6.56122e-11
1.99999e-05
-7.1574e-11
1.99999e-05
-7.79555e-11
1.99999e-05
-8.47984e-11
1.99999e-05
-9.21476e-11
1.99999e-05
-1.00051e-10
1.99999e-05
-1.08561e-10
1.99998e-05
-1.17733e-10
1.99998e-05
-1.27626e-10
1.99998e-05
-1.38305e-10
1.99998e-05
-1.49839e-10
1.99998e-05
-1.62304e-10
1.99997e-05
-1.75778e-10
1.99997e-05
-1.90348e-10
1.99997e-05
-2.06107e-10
1.99997e-05
-2.23153e-10
1.99996e-05
-2.41594e-10
1.99996e-05
-2.61542e-10
1.99996e-05
-2.8312e-10
1.99995e-05
-3.06458e-10
1.99995e-05
-3.31696e-10
1.99995e-05
-3.58983e-10
1.99994e-05
-3.88478e-10
1.99994e-05
-4.2035e-10
1.99993e-05
-4.5478e-10
1.99993e-05
-4.91959e-10
1.99992e-05
-5.32094e-10
1.99992e-05
-5.75399e-10
1.99991e-05
-6.22107e-10
1.9999e-05
-6.72462e-10
1.99989e-05
-7.26723e-10
1.99989e-05
-7.85164e-10
1.99988e-05
-8.48076e-10
1.99987e-05
-9.15767e-10
1.99986e-05
-9.88559e-10
1.99985e-05
-1.0668e-09
1.99984e-05
-1.15084e-09
1.99983e-05
-1.24107e-09
1.99982e-05
-1.33788e-09
1.99981e-05
-1.4417e-09
1.9998e-05
-1.55297e-09
1.99978e-05
-1.67215e-09
1.99977e-05
-1.79972e-09
1.99975e-05
-1.93621e-09
1.99974e-05
-2.08213e-09
1.99972e-05
-2.23805e-09
1.99971e-05
-2.40454e-09
1.99969e-05
-2.58222e-09
1.99967e-05
-2.7717e-09
1.99965e-05
-2.97366e-09
1.99963e-05
-3.18875e-09
1.99961e-05
-3.41769e-09
1.99959e-05
-3.6612e-09
1.99956e-05
-3.92003e-09
1.99954e-05
-4.19494e-09
1.99951e-05
-4.48671e-09
1.99949e-05
-4.79614e-09
1.99946e-05
-5.12404e-09
1.99943e-05
-5.47121e-09
1.9994e-05
-5.83845e-09
1.99937e-05
-6.22656e-09
1.99934e-05
-6.6363e-09
1.99931e-05
-7.06838e-09
1.99927e-05
-7.52348e-09
1.99924e-05
-8.00216e-09
1.9992e-05
-8.50488e-09
1.99917e-05
-9.03193e-09
1.99913e-05
-9.58343e-09
1.99909e-05
-1.01592e-08
1.99905e-05
-1.07587e-08
1.99901e-05
-1.1381e-08
1.99898e-05
-1.20247e-08
1.99894e-05
-1.26875e-08
1.9989e-05
-1.33664e-08
1.99886e-05
-1.40572e-08
1.99882e-05
-1.47545e-08
1.99878e-05
-1.54512e-08
1.99874e-05
-1.61381e-08
1.99871e-05
-1.68032e-08
1.99867e-05
-1.74315e-08
1.99864e-05
-1.80036e-08
1.9986e-05
-1.84943e-08
1.99857e-05
-1.88714e-08
-1.90855e-08
2e-05
-1.33933e-12
2e-05
-3.96987e-12
2e-05
-6.65305e-12
2e-05
-9.46037e-12
2e-05
-1.23698e-11
2e-05
-1.53615e-11
2e-05
-1.8432e-11
2e-05
-2.15881e-11
2e-05
-2.48434e-11
2e-05
-2.82159e-11
2e-05
-3.17262e-11
2e-05
-3.53972e-11
2e-05
-3.92534e-11
2e-05
-4.3321e-11
1.99999e-05
-4.76276e-11
1.99999e-05
-5.22027e-11
1.99999e-05
-5.70777e-11
1.99999e-05
-6.22863e-11
1.99999e-05
-6.78643e-11
1.99999e-05
-7.38503e-11
1.99999e-05
-8.02859e-11
1.99999e-05
-8.72158e-11
1.99999e-05
-9.46881e-11
1.99998e-05
-1.02755e-10
1.99998e-05
-1.11472e-10
1.99998e-05
-1.209e-10
1.99998e-05
-1.31105e-10
1.99998e-05
-1.42155e-10
1.99998e-05
-1.54128e-10
1.99997e-05
-1.67104e-10
1.99997e-05
-1.81171e-10
1.99997e-05
-1.96424e-10
1.99996e-05
-2.12963e-10
1.99996e-05
-2.30897e-10
1.99996e-05
-2.50343e-10
1.99996e-05
-2.71425e-10
1.99995e-05
-2.94278e-10
1.99995e-05
-3.19044e-10
1.99994e-05
-3.45876e-10
1.99994e-05
-3.74938e-10
1.99993e-05
-4.06403e-10
1.99993e-05
-4.40457e-10
1.99992e-05
-4.77298e-10
1.99992e-05
-5.17137e-10
1.99991e-05
-5.60197e-10
1.9999e-05
-6.06716e-10
1.9999e-05
-6.56946e-10
1.99989e-05
-7.11155e-10
1.99988e-05
-7.69627e-10
1.99987e-05
-8.32662e-10
1.99987e-05
-9.00577e-10
1.99986e-05
-9.73708e-10
1.99985e-05
-1.05241e-09
1.99984e-05
-1.13706e-09
1.99982e-05
-1.22804e-09
1.99981e-05
-1.32578e-09
1.9998e-05
-1.43071e-09
1.99979e-05
-1.54329e-09
1.99977e-05
-1.66401e-09
1.99976e-05
-1.79337e-09
1.99974e-05
-1.93189e-09
1.99973e-05
-2.08014e-09
1.99971e-05
-2.2387e-09
1.9997e-05
-2.40818e-09
1.99968e-05
-2.5892e-09
1.99966e-05
-2.78244e-09
1.99964e-05
-2.98856e-09
1.99962e-05
-3.20829e-09
1.99959e-05
-3.44237e-09
1.99957e-05
-3.69155e-09
1.99955e-05
-3.95663e-09
1.99952e-05
-4.23839e-09
1.9995e-05
-4.53768e-09
1.99947e-05
-4.85533e-09
1.99944e-05
-5.19217e-09
1.99941e-05
-5.54907e-09
1.99938e-05
-5.92685e-09
1.99935e-05
-6.32634e-09
1.99932e-05
-6.74833e-09
1.99929e-05
-7.19354e-09
1.99925e-05
-7.66264e-09
1.99922e-05
-8.15618e-09
1.99918e-05
-8.67456e-09
1.99915e-05
-9.21799e-09
1.99911e-05
-9.78642e-09
1.99907e-05
-1.03795e-08
1.99903e-05
-1.09964e-08
1.99899e-05
-1.16358e-08
1.99896e-05
-1.22957e-08
1.99892e-05
-1.29731e-08
1.99888e-05
-1.36641e-08
1.99884e-05
-1.43634e-08
1.9988e-05
-1.50637e-08
1.99876e-05
-1.57559e-08
1.99872e-05
-1.64278e-08
1.99869e-05
-1.7064e-08
1.99865e-05
-1.76444e-08
1.99861e-05
-1.81425e-08
1.99858e-05
-1.85239e-08
-1.87399e-08
2e-05
-1.10645e-12
2e-05
-3.26806e-12
2e-05
-5.48833e-12
2e-05
-7.84442e-12
2e-05
-1.03139e-11
2e-05
-1.28729e-11
2e-05
-1.55118e-11
2e-05
-1.82315e-11
2e-05
-2.10395e-11
2e-05
-2.39485e-11
2e-05
-2.69743e-11
2e-05
-3.01357e-11
2e-05
-3.34533e-11
2e-05
-3.69496e-11
1.99999e-05
-4.06492e-11
1.99999e-05
-4.45782e-11
1.99999e-05
-4.87649e-11
1.99999e-05
-5.32398e-11
1.99999e-05
-5.80358e-11
1.99999e-05
-6.31881e-11
1.99999e-05
-6.8735e-11
1.99999e-05
-7.4718e-11
1.99999e-05
-8.11816e-11
1.99999e-05
-8.81743e-11
1.99998e-05
-9.57484e-11
1.99998e-05
-1.0396e-10
1.99998e-05
-1.12871e-10
1.99998e-05
-1.22548e-10
1.99998e-05
-1.3306e-10
1.99997e-05
-1.44486e-10
1.99997e-05
-1.56909e-10
1.99997e-05
-1.70417e-10
1.99997e-05
-1.85107e-10
1.99996e-05
-2.01083e-10
1.99996e-05
-2.18455e-10
1.99996e-05
-2.37343e-10
1.99995e-05
-2.57875e-10
1.99995e-05
-2.80189e-10
1.99994e-05
-3.0443e-10
1.99994e-05
-3.30757e-10
1.99994e-05
-3.59336e-10
1.99993e-05
-3.90348e-10
1.99993e-05
-4.23984e-10
1.99992e-05
-4.60446e-10
1.99991e-05
-4.99954e-10
1.99991e-05
-5.42737e-10
1.9999e-05
-5.8904e-10
1.99989e-05
-6.39126e-10
1.99989e-05
-6.9327e-10
1.99988e-05
-7.51767e-10
1.99987e-05
-8.14926e-10
1.99986e-05
-8.83078e-10
1.99985e-05
-9.56571e-10
1.99984e-05
-1.03577e-09
1.99983e-05
-1.12107e-09
1.99982e-05
-1.21288e-09
1.99981e-05
-1.31162e-09
1.99979e-05
-1.41776e-09
1.99978e-05
-1.53177e-09
1.99977e-05
-1.65416e-09
1.99975e-05
-1.78546e-09
1.99974e-05
-1.92621e-09
1.99972e-05
-2.07701e-09
1.9997e-05
-2.23846e-09
1.99969e-05
-2.41119e-09
1.99967e-05
-2.59588e-09
1.99965e-05
-2.79321e-09
1.99963e-05
-3.0039e-09
1.99961e-05
-3.22871e-09
1.99958e-05
-3.46841e-09
1.99956e-05
-3.72381e-09
1.99954e-05
-3.99572e-09
1.99951e-05
-4.285e-09
1.99948e-05
-4.59252e-09
1.99946e-05
-4.91915e-09
1.99943e-05
-5.26578e-09
1.9994e-05
-5.63329e-09
1.99937e-05
-6.02257e-09
1.99934e-05
-6.43445e-09
1.9993e-05
-6.86973e-09
1.99927e-05
-7.32915e-09
1.99924e-05
-7.81334e-09
1.9992e-05
-8.3228e-09
1.99917e-05
-8.85783e-09
1.99913e-05
-9.41851e-09
1.99909e-05
-1.00046e-08
1.99905e-05
-1.06154e-08
1.99902e-05
-1.12497e-08
1.99898e-05
-1.19056e-08
1.99894e-05
-1.25803e-08
1.9989e-05
-1.32699e-08
1.99886e-05
-1.39692e-08
1.99882e-05
-1.4671e-08
1.99878e-05
-1.5366e-08
1.99874e-05
-1.60419e-08
1.9987e-05
-1.66828e-08
1.99867e-05
-1.7268e-08
1.99863e-05
-1.77704e-08
1.99859e-05
-1.81547e-08
-1.83759e-08
2e-05
-8.9394e-13
2e-05
-2.62217e-12
2e-05
-4.40812e-12
2e-05
-6.33317e-12
2e-05
-8.37594e-12
2e-05
-1.05107e-11
2e-05
-1.27244e-11
2e-05
-1.5013e-11
2e-05
-1.73796e-11
2e-05
-1.9832e-11
2e-05
-2.23819e-11
2e-05
-2.50439e-11
2e-05
-2.78348e-11
2e-05
-3.07739e-11
2e-05
-3.38822e-11
1.99999e-05
-3.71827e-11
1.99999e-05
-4.07006e-11
1.99999e-05
-4.44634e-11
1.99999e-05
-4.85005e-11
1.99999e-05
-5.28443e-11
1.99999e-05
-5.75299e-11
1.99999e-05
-6.25952e-11
1.99999e-05
-6.80814e-11
1.99999e-05
-7.40336e-11
1.99998e-05
-8.05002e-11
1.99998e-05
-8.75341e-11
1.99998e-05
-9.51925e-11
1.99998e-05
-1.03537e-10
1.99998e-05
-1.12636e-10
1.99997e-05
-1.2256e-10
1.99997e-05
-1.33389e-10
1.99997e-05
-1.45207e-10
1.99997e-05
-1.58106e-10
1.99996e-05
-1.72184e-10
1.99996e-05
-1.87546e-10
1.99996e-05
-2.04307e-10
1.99995e-05
-2.2259e-10
1.99995e-05
-2.42526e-10
1.99995e-05
-2.64255e-10
1.99994e-05
-2.87929e-10
1.99994e-05
-3.1371e-10
1.99993e-05
-3.4177e-10
1.99993e-05
-3.72295e-10
1.99992e-05
-4.05482e-10
1.99992e-05
-4.41541e-10
1.99991e-05
-4.80697e-10
1.9999e-05
-5.23188e-10
1.9999e-05
-5.69268e-10
1.99989e-05
-6.19209e-10
1.99988e-05
-6.73296e-10
1.99987e-05
-7.31834e-10
1.99986e-05
-7.95145e-10
1.99985e-05
-8.63572e-10
1.99984e-05
-9.37476e-10
1.99983e-05
-1.01724e-09
1.99982e-05
-1.10327e-09
1.99981e-05
-1.19599e-09
1.9998e-05
-1.29585e-09
1.99979e-05
-1.40334e-09
1.99977e-05
-1.51893e-09
1.99976e-05
-1.64318e-09
1.99974e-05
-1.77662e-09
1.99973e-05
-1.91983e-09
1.99971e-05
-2.07344e-09
1.99969e-05
-2.23807e-09
1.99968e-05
-2.4144e-09
1.99966e-05
-2.60312e-09
1.99964e-05
-2.80496e-09
1.99962e-05
-3.02069e-09
1.9996e-05
-3.25108e-09
1.99957e-05
-3.49697e-09
1.99955e-05
-3.75918e-09
1.99952e-05
-4.0386e-09
1.9995e-05
-4.33612e-09
1.99947e-05
-4.65265e-09
1.99944e-05
-4.9891e-09
1.99942e-05
-5.34641e-09
1.99939e-05
-5.72549e-09
1.99936e-05
-6.12725e-09
1.99932e-05
-6.55254e-09
1.99929e-05
-7.00216e-09
1.99926e-05
-7.47682e-09
1.99922e-05
-7.97709e-09
1.99919e-05
-8.50339e-09
1.99915e-05
-9.05586e-09
1.99911e-05
-9.63435e-09
1.99908e-05
-1.02383e-08
1.99904e-05
-1.08666e-08
1.999e-05
-1.15175e-08
1.99896e-05
-1.21882e-08
1.99892e-05
-1.28749e-08
1.99888e-05
-1.35724e-08
1.99884e-05
-1.42736e-08
1.9988e-05
-1.4969e-08
1.99876e-05
-1.56462e-08
1.99872e-05
-1.6289e-08
1.99868e-05
-1.68764e-08
1.99864e-05
-1.73808e-08
1.99861e-05
-1.77672e-08
-1.79935e-08
2e-05
-6.98571e-13
2e-05
-2.02526e-12
2e-05
-3.40495e-12
2e-05
-4.92092e-12
2e-05
-6.55345e-12
2e-05
-8.2765e-12
2e-05
-1.00749e-11
2e-05
-1.19414e-11
2e-05
-1.38753e-11
2e-05
-1.58805e-11
2e-05
-1.79649e-11
2e-05
-2.01394e-11
2e-05
-2.24173e-11
2e-05
-2.48145e-11
2e-05
-2.73487e-11
1.99999e-05
-3.00399e-11
1.99999e-05
-3.29101e-11
1.99999e-05
-3.59837e-11
1.99999e-05
-3.92871e-11
1.99999e-05
-4.28496e-11
1.99999e-05
-4.6703e-11
1.99999e-05
-5.08821e-11
1.99999e-05
-5.54248e-11
1.99999e-05
-6.03725e-11
1.99998e-05
-6.57702e-11
1.99998e-05
-7.16671e-11
1.99998e-05
-7.81165e-11
1.99998e-05
-8.51764e-11
1.99998e-05
-9.29098e-11
1.99998e-05
-1.01385e-10
1.99997e-05
-1.10676e-10
1.99997e-05
-1.20863e-10
1.99997e-05
-1.32032e-10
1.99997e-05
-1.44277e-10
1.99996e-05
-1.57698e-10
1.99996e-05
-1.72406e-10
1.99996e-05
-1.88515e-10
1.99995e-05
-2.06154e-10
1.99995e-05
-2.25455e-10
1.99994e-05
-2.46566e-10
1.99994e-05
-2.69642e-10
1.99993e-05
-2.94848e-10
1.99993e-05
-3.22365e-10
1.99992e-05
-3.52383e-10
1.99992e-05
-3.85106e-10
1.99991e-05
-4.20752e-10
1.99991e-05
-4.59553e-10
1.9999e-05
-5.01756e-10
1.99989e-05
-5.47625e-10
1.99989e-05
-5.97441e-10
1.99988e-05
-6.515e-10
1.99987e-05
-7.10119e-10
1.99986e-05
-7.73634e-10
1.99985e-05
-8.42401e-10
1.99984e-05
-9.16796e-10
1.99983e-05
-9.97219e-10
1.99982e-05
-1.08409e-09
1.99981e-05
-1.17786e-09
1.99979e-05
-1.27899e-09
1.99978e-05
-1.38798e-09
1.99977e-05
-1.50536e-09
1.99975e-05
-1.63168e-09
1.99974e-05
-1.76752e-09
1.99972e-05
-1.91348e-09
1.9997e-05
-2.07021e-09
1.99969e-05
-2.23838e-09
1.99967e-05
-2.41869e-09
1.99965e-05
-2.61187e-09
1.99963e-05
-2.8187e-09
1.99961e-05
-3.03997e-09
1.99959e-05
-3.27652e-09
1.99956e-05
-3.52921e-09
1.99954e-05
-3.79892e-09
1.99951e-05
-4.08657e-09
1.99949e-05
-4.39311e-09
1.99946e-05
-4.71948e-09
1.99943e-05
-5.06664e-09
1.9994e-05
-5.43555e-09
1.99937e-05
-5.82717e-09
1.99934e-05
-6.2424e-09
1.99931e-05
-6.68209e-09
1.99928e-05
-7.14703e-09
1.99924e-05
-7.63785e-09
1.99921e-05
-8.15503e-09
1.99917e-05
-8.69882e-09
1.99914e-05
-9.26914e-09
1.9991e-05
-9.86552e-09
1.99906e-05
-1.04869e-08
1.99902e-05
-1.11317e-08
1.99898e-05
-1.17971e-08
1.99894e-05
-1.24795e-08
1.9989e-05
-1.31735e-08
1.99886e-05
-1.38721e-08
1.99882e-05
-1.45658e-08
1.99878e-05
-1.5242e-08
1.99874e-05
-1.58843e-08
1.9987e-05
-1.64716e-08
1.99866e-05
-1.69763e-08
1.99862e-05
-1.73638e-08
-1.75926e-08
2e-05
-5.17228e-13
2e-05
-1.47237e-12
2e-05
-2.47325e-12
2e-05
-3.6028e-12
2e-05
-4.84353e-12
2e-05
-6.17016e-12
2e-05
-7.5663e-12
2e-05
-9.02257e-12
2e-05
-1.05352e-11
2e-05
-1.21051e-11
2e-05
-1.37367e-11
2e-05
-1.54375e-11
2e-05
-1.72177e-11
2e-05
-1.90899e-11
2e-05
-2.10688e-11
1.99999e-05
-2.31713e-11
1.99999e-05
-2.54164e-11
1.99999e-05
-2.78254e-11
1.99999e-05
-3.0422e-11
1.99999e-05
-3.32321e-11
1.99999e-05
-3.62846e-11
1.99999e-05
-3.9611e-11
1.99999e-05
-4.3246e-11
1.99999e-05
-4.72276e-11
1.99999e-05
-5.15975e-11
1.99998e-05
-5.64011e-11
1.99998e-05
-6.16881e-11
1.99998e-05
-6.75125e-11
1.99998e-05
-7.39335e-11
1.99998e-05
-8.1015e-11
1.99997e-05
-8.88268e-11
1.99997e-05
-9.74444e-11
1.99997e-05
-1.0695e-10
1.99997e-05
-1.17432e-10
1.99996e-05
-1.28986e-10
1.99996e-05
-1.41717e-10
1.99996e-05
-1.55735e-10
1.99995e-05
-1.71162e-10
1.99995e-05
-1.88126e-10
1.99995e-05
-2.06768e-10
1.99994e-05
-2.27237e-10
1.99994e-05
-2.49695e-10
1.99993e-05
-2.74313e-10
1.99993e-05
-3.01276e-10
1.99992e-05
-3.30782e-10
1.99992e-05
-3.63042e-10
1.99991e-05
-3.98283e-10
1.9999e-05
-4.36744e-10
1.9999e-05
-4.78682e-10
1.99989e-05
-5.24372e-10
1.99988e-05
-5.74105e-10
1.99987e-05
-6.2819e-10
1.99986e-05
-6.86956e-10
1.99986e-05
-7.50753e-10
1.99985e-05
-8.19952e-10
1.99984e-05
-8.94947e-10
1.99983e-05
-9.76153e-10
1.99981e-05
-1.06401e-09
1.9998e-05
-1.15899e-09
1.99979e-05
-1.26158e-09
1.99978e-05
-1.3723e-09
1.99976e-05
-1.4917e-09
1.99975e-05
-1.62035e-09
1.99973e-05
-1.75888e-09
1.99972e-05
-1.90791e-09
1.9997e-05
-2.06813e-09
1.99968e-05
-2.24023e-09
1.99966e-05
-2.42496e-09
1.99964e-05
-2.6231e-09
1.99962e-05
-2.83544e-09
1.9996e-05
-3.06284e-09
1.99958e-05
-3.30616e-09
1.99955e-05
-3.56632e-09
1.99953e-05
-3.84425e-09
1.99951e-05
-4.14091e-09
1.99948e-05
-4.45728e-09
1.99945e-05
-4.79435e-09
1.99942e-05
-5.15312e-09
1.99939e-05
-5.53458e-09
1.99936e-05
-5.93967e-09
1.99933e-05
-6.36931e-09
1.9993e-05
-6.82432e-09
1.99927e-05
-7.3054e-09
1.99923e-05
-7.8131e-09
1.9992e-05
-8.34773e-09
1.99916e-05
-8.90929e-09
1.99913e-05
-9.49736e-09
1.99909e-05
-1.0111e-08
1.99905e-05
-1.07486e-08
1.99901e-05
-1.14075e-08
1.99897e-05
-1.2084e-08
1.99893e-05
-1.2773e-08
1.99889e-05
-1.34672e-08
1.99885e-05
-1.41572e-08
1.99881e-05
-1.48303e-08
1.99877e-05
-1.54702e-08
1.99873e-05
-1.60556e-08
1.99868e-05
-1.6559e-08
1.99864e-05
-1.6946e-08
-1.71753e-08
2e-05
-3.44142e-13
2e-05
-9.62757e-13
2e-05
-1.60969e-12
2e-05
-2.37445e-12
2e-05
-3.24302e-12
2e-05
-4.19061e-12
2e-05
-5.20013e-12
2e-05
-6.26061e-12
2e-05
-7.36608e-12
2e-05
-8.51473e-12
2e-05
-9.70819e-12
2e-05
-1.09511e-11
2e-05
-1.22506e-11
2e-05
-1.36164e-11
2e-05
-1.50603e-11
2e-05
-1.65962e-11
1.99999e-05
-1.82403e-11
1.99999e-05
-2.00111e-11
1.99999e-05
-2.1929e-11
1.99999e-05
-2.40174e-11
1.99999e-05
-2.63019e-11
1.99999e-05
-2.8811e-11
1.99999e-05
-3.15763e-11
1.99999e-05
-3.46324e-11
1.99999e-05
-3.80177e-11
1.99998e-05
-4.17742e-11
1.99998e-05
-4.59478e-11
1.99998e-05
-5.0589e-11
1.99998e-05
-5.57528e-11
1.99998e-05
-6.14994e-11
1.99998e-05
-6.78942e-11
1.99997e-05
-7.50085e-11
1.99997e-05
-8.29198e-11
1.99997e-05
-9.17121e-11
1.99997e-05
-1.01477e-10
1.99996e-05
-1.12312e-10
1.99996e-05
-1.24324e-10
1.99996e-05
-1.3763e-10
1.99995e-05
-1.52352e-10
1.99995e-05
-1.68625e-10
1.99994e-05
-1.86592e-10
1.99994e-05
-2.0641e-10
1.99994e-05
-2.28243e-10
1.99993e-05
-2.52272e-10
1.99993e-05
-2.78686e-10
1.99992e-05
-3.07692e-10
1.99991e-05
-3.39508e-10
1.99991e-05
-3.74368e-10
1.9999e-05
-4.12524e-10
1.99989e-05
-4.54242e-10
1.99989e-05
-4.99807e-10
1.99988e-05
-5.49521e-10
1.99987e-05
-6.03709e-10
1.99986e-05
-6.62713e-10
1.99985e-05
-7.26898e-10
1.99984e-05
-7.96651e-10
1.99983e-05
-8.72383e-10
1.99982e-05
-9.5453e-10
1.99981e-05
-1.04355e-09
1.9998e-05
-1.13994e-09
1.99978e-05
-1.24421e-09
1.99977e-05
-1.3569e-09
1.99976e-05
-1.4786e-09
1.99974e-05
-1.6099e-09
1.99973e-05
-1.75146e-09
1.99971e-05
-1.90394e-09
1.99969e-05
-2.06805e-09
1.99967e-05
-2.24453e-09
1.99966e-05
-2.43417e-09
1.99964e-05
-2.63778e-09
1.99962e-05
-2.85621e-09
1.99959e-05
-3.09035e-09
1.99957e-05
-3.34112e-09
1.99955e-05
-3.60946e-09
1.99952e-05
-3.89636e-09
1.9995e-05
-4.20283e-09
1.99947e-05
-4.52987e-09
1.99944e-05
-4.87852e-09
1.99942e-05
-5.24979e-09
1.99939e-05
-5.64467e-09
1.99936e-05
-6.06411e-09
1.99932e-05
-6.50899e-09
1.99929e-05
-6.98005e-09
1.99926e-05
-7.4779e-09
1.99922e-05
-8.00289e-09
1.99919e-05
-8.55509e-09
1.99915e-05
-9.13415e-09
1.99911e-05
-9.73917e-09
1.99908e-05
-1.03685e-08
1.99904e-05
-1.10198e-08
1.999e-05
-1.16892e-08
1.99896e-05
-1.23715e-08
1.99892e-05
-1.30598e-08
1.99888e-05
-1.37443e-08
1.99883e-05
-1.44126e-08
1.99879e-05
-1.50482e-08
1.99875e-05
-1.56299e-08
1.99871e-05
-1.61305e-08
1.99866e-05
-1.65158e-08
-1.67442e-08
2e-05
-1.85614e-13
2e-05
-4.91165e-13
2e-05
-8.07753e-13
2e-05
-1.23087e-12
2e-05
-1.74838e-12
2e-05
-2.33611e-12
2e-05
-2.97669e-12
2e-05
-3.65804e-12
2e-05
-4.37251e-12
2e-05
-5.11617e-12
2e-05
-5.88825e-12
2e-05
-6.69082e-12
2e-05
-7.52847e-12
2e-05
-8.40807e-12
2e-05
-9.33875e-12
2e-05
-1.03318e-11
1.99999e-05
-1.14005e-11
1.99999e-05
-1.25606e-11
1.99999e-05
-1.38299e-11
1.99999e-05
-1.52286e-11
1.99999e-05
-1.67797e-11
1.99999e-05
-1.85086e-11
1.99999e-05
-2.04439e-11
1.99999e-05
-2.2617e-11
1.99999e-05
-2.5063e-11
1.99999e-05
-2.78205e-11
1.99998e-05
-3.09321e-11
1.99998e-05
-3.44445e-11
1.99998e-05
-3.84091e-11
1.99998e-05
-4.2882e-11
1.99998e-05
-4.79248e-11
1.99997e-05
-5.36045e-11