/*--------------------------------*- C++ -*----------------------------------*\
  =========                 |
  \\      /  F ield         | OpenFOAM: The Open Source CFD Toolbox
   \\    /   O peration     | Website:  https://openfoam.org
    \\  /    A nd           | Version:  11
     \\/     M anipulation  |
\*---------------------------------------------------------------------------*/
FoamFile
{
    format      ascii;
    class       volVectorField;
    location    "396";
    object      U;
}
// * * * * * * * * * * * * * * * * * * * * * * * * * * * * * * * * * * * * * //

dimensions      [0 1 -1 0 0 0 0];

internalField   nonuniform List<vector> 
10000
(
(0.00499994 -2.10518e-06 0)
(0.00499966 -6.12028e-06 0)
(0.00499928 -1.01291e-05 0)
(0.00499882 -1.42217e-05 0)
(0.00499827 -1.84463e-05 0)
(0.00499763 -2.28348e-05 0)
(0.0049969 -2.74126e-05 0)
(0.00499608 -3.22006e-05 0)
(0.00499515 -3.72175e-05 0)
(0.00499412 -4.24803e-05 0)
(0.00499297 -4.80054e-05 0)
(0.0049917 -5.38084e-05 0)
(0.00499031 -5.99046e-05 0)
(0.00498878 -6.63091e-05 0)
(0.00498711 -7.30371e-05 0)
(0.00498528 -8.01034e-05 0)
(0.0049833 -8.75231e-05 0)
(0.00498115 -9.53112e-05 0)
(0.00497882 -0.000103483 0)
(0.0049763 -0.000112053 0)
(0.00497358 -0.000121036 0)
(0.00497065 -0.000130449 0)
(0.0049675 -0.000140305 0)
(0.00496412 -0.000150621 0)
(0.0049605 -0.00016141 0)
(0.00495661 -0.000172688 0)
(0.00495246 -0.000184469 0)
(0.00494802 -0.000196767 0)
(0.00494328 -0.000209598 0)
(0.00493823 -0.000222973 0)
(0.00493286 -0.000236907 0)
(0.00492714 -0.00025141 0)
(0.00492106 -0.000266496 0)
(0.00491461 -0.000282175 0)
(0.00490777 -0.000298455 0)
(0.00490052 -0.000315346 0)
(0.00489285 -0.000332854 0)
(0.00488474 -0.000350985 0)
(0.00487617 -0.000369741 0)
(0.00486712 -0.000389125 0)
(0.00485757 -0.000409135 0)
(0.00484752 -0.000429766 0)
(0.00483693 -0.000451013 0)
(0.00482579 -0.000472865 0)
(0.00481409 -0.000495307 0)
(0.00480181 -0.000518322 0)
(0.00478892 -0.000541886 0)
(0.00477542 -0.000565972 0)
(0.00476129 -0.000590546 0)
(0.00474652 -0.000615568 0)
(0.00473109 -0.000640992 0)
(0.004715 -0.000666765 0)
(0.00469823 -0.000692825 0)
(0.00468078 -0.000719105 0)
(0.00466264 -0.000745526 0)
(0.00464383 -0.000772004 0)
(0.00462433 -0.000798444 0)
(0.00460415 -0.000824743 0)
(0.00458332 -0.000850791 0)
(0.00456184 -0.000876467 0)
(0.00453974 -0.000901647 0)
(0.00451704 -0.000926198 0)
(0.00449378 -0.000949984 0)
(0.00446999 -0.000972866 0)
(0.00444573 -0.000994705 0)
(0.00442104 -0.00101536 0)
(0.00439597 -0.00103471 0)
(0.00437061 -0.00105261 0)
(0.00434501 -0.00106897 0)
(0.00431925 -0.00108366 0)
(0.00429342 -0.00109662 0)
(0.00426763 -0.00110779 0)
(0.00424208 -0.0011172 0)
(0.00421628 -0.00112486 0)
(0.00419026 -0.00113049 0)
(0.00416423 -0.00113415 0)
(0.00413819 -0.00113586 0)
(0.0041125 -0.00113565 0)
(0.0040876 -0.00113364 0)
(0.0040635 -0.00112993 0)
(0.00404027 -0.0011246 0)
(0.00401798 -0.00111784 0)
(0.00399631 -0.00110982 0)
(0.00397523 -0.00110063 0)
(0.00395486 -0.00109037 0)
(0.00393524 -0.00107915 0)
(0.00391641 -0.00106711 0)
(0.00389842 -0.00105438 0)
(0.00388131 -0.00104111 0)
(0.00386512 -0.00102744 0)
(0.00384988 -0.00101353 0)
(0.00383563 -0.000999534 0)
(0.00382243 -0.000985622 0)
(0.00381031 -0.000971975 0)
(0.00379934 -0.000958797 0)
(0.0037896 -0.000946323 0)
(0.00378117 -0.000934831 0)
(0.00377417 -0.000924661 0)
(0.00376857 -0.000916384 0)
(0.00376459 -0.000911356 0)
(0.00499998 -1.92193e-06 0)
(0.00499972 -5.7685e-06 0)
(0.00499936 -9.66901e-06 0)
(0.00499889 -1.36643e-05 0)
(0.00499834 -1.77924e-05 0)
(0.0049977 -2.20818e-05 0)
(0.00499697 -2.6556e-05 0)
(0.00499614 -3.12349e-05 0)
(0.00499521 -3.61364e-05 0)
(0.00499418 -4.1277e-05 0)
(0.00499303 -4.66726e-05 0)
(0.00499176 -5.23383e-05 0)
(0.00499037 -5.82889e-05 0)
(0.00498884 -6.45391e-05 0)
(0.00498717 -7.11036e-05 0)
(0.00498534 -7.79968e-05 0)
(0.00498336 -8.52333e-05 0)
(0.00498121 -9.28277e-05 0)
(0.00497888 -0.000100794 0)
(0.00497636 -0.000109148 0)
(0.00497365 -0.000117904 0)
(0.00497072 -0.000127076 0)
(0.00496757 -0.000136679 0)
(0.0049642 -0.000146727 0)
(0.00496057 -0.000157235 0)
(0.00495669 -0.000168218 0)
(0.00495254 -0.000179688 0)
(0.0049481 -0.000191661 0)
(0.00494337 -0.00020415 0)
(0.00493833 -0.000217167 0)
(0.00493296 -0.000230725 0)
(0.00492724 -0.000244837 0)
(0.00492117 -0.000259512 0)
(0.00491473 -0.000274761 0)
(0.0049079 -0.000290594 0)
(0.00490066 -0.000307018 0)
(0.00489299 -0.00032404 0)
(0.00488489 -0.000341664 0)
(0.00487633 -0.000359895 0)
(0.00486729 -0.000378732 0)
(0.00485775 -0.000398174 0)
(0.00484771 -0.000418219 0)
(0.00483713 -0.000438858 0)
(0.00482601 -0.000460082 0)
(0.00481433 -0.000481876 0)
(0.00480206 -0.000504225 0)
(0.00478919 -0.000527104 0)
(0.00477571 -0.000550487 0)
(0.0047616 -0.000574342 0)
(0.00474684 -0.00059863 0)
(0.00473144 -0.000623307 0)
(0.00471536 -0.000648322 0)
(0.00469862 -0.000673617 0)
(0.00468119 -0.000699125 0)
(0.00466309 -0.000724773 0)
(0.0046443 -0.000750479 0)
(0.00462483 -0.000776153 0)
(0.00460468 -0.000801697 0)
(0.00458388 -0.000827006 0)
(0.00456243 -0.000851965 0)
(0.00454036 -0.000876455 0)
(0.0045177 -0.000900352 0)
(0.00449447 -0.000923524 0)
(0.00447072 -0.000945841 0)
(0.00444649 -0.000967169 0)
(0.00442183 -0.000987379 0)
(0.00439679 -0.00100634 0)
(0.00437144 -0.00102395 0)
(0.00434585 -0.00104008 0)
(0.00432007 -0.00105464 0)
(0.00429418 -0.00106755 0)
(0.00426822 -0.00107873 0)
(0.00424225 -0.00108806 0)
(0.00421616 -0.00109541 0)
(0.00419022 -0.00110086 0)
(0.00416455 -0.00110448 0)
(0.00413923 -0.00110643 0)
(0.00411431 -0.00110687 0)
(0.00408981 -0.00110576 0)
(0.0040658 -0.00110308 0)
(0.00404235 -0.00109883 0)
(0.00401966 -0.00109303 0)
(0.00399774 -0.00108583 0)
(0.00397654 -0.00107744 0)
(0.00395609 -0.00106802 0)
(0.00393641 -0.00105768 0)
(0.00391753 -0.00104656 0)
(0.0038995 -0.0010348 0)
(0.00388234 -0.00102254 0)
(0.00386609 -0.00100992 0)
(0.00385079 -0.000997095 0)
(0.00383648 -0.000984235 0)
(0.00382318 -0.000971508 0)
(0.00381096 -0.000959105 0)
(0.00379986 -0.000947239 0)
(0.00378994 -0.000936158 0)
(0.00378129 -0.000926158 0)
(0.00377394 -0.000917602 0)
(0.00376762 -0.000911035 0)
(0.00376236 -0.00090746 0)
(0.00499999 -1.77477e-06 0)
(0.00499977 -5.44297e-06 0)
(0.00499944 -9.22035e-06 0)
(0.00499899 -1.31124e-05 0)
(0.00499844 -1.71423e-05 0)
(0.0049978 -2.13329e-05 0)
(0.00499707 -2.57047e-05 0)
(0.00499625 -3.02762e-05 0)
(0.00499532 -3.50645e-05 0)
(0.00499428 -4.00854e-05 0)
(0.00499314 -4.53541e-05 0)
(0.00499187 -5.08854e-05 0)
(0.00499047 -5.66936e-05 0)
(0.00498894 -6.27929e-05 0)
(0.00498727 -6.91977e-05 0)
(0.00498545 -7.59218e-05 0)
(0.00498347 -8.29796e-05 0)
(0.00498132 -9.0385e-05 0)
(0.004979 -9.81522e-05 0)
(0.00497648 -0.000106295 0)
(0.00497377 -0.000114829 0)
(0.00497085 -0.000123766 0)
(0.0049677 -0.000133123 0)
(0.00496433 -0.000142911 0)
(0.00496071 -0.000153147 0)
(0.00495684 -0.000163842 0)
(0.00495269 -0.000175012 0)
(0.00494827 -0.000186669 0)
(0.00494354 -0.000198826 0)
(0.00493851 -0.000211497 0)
(0.00493315 -0.000224692 0)
(0.00492744 -0.000238423 0)
(0.00492139 -0.000252701 0)
(0.00491496 -0.000267536 0)
(0.00490814 -0.000282936 0)
(0.00490091 -0.000298909 0)
(0.00489326 -0.000315462 0)
(0.00488518 -0.000332598 0)
(0.00487663 -0.000350321 0)
(0.00486761 -0.000368631 0)
(0.0048581 -0.000387528 0)
(0.00484808 -0.000407007 0)
(0.00483753 -0.000427061 0)
(0.00482643 -0.000447682 0)
(0.00481477 -0.000468855 0)
(0.00480254 -0.000490563 0)
(0.0047897 -0.000512785 0)
(0.00477625 -0.000535495 0)
(0.00476218 -0.000558661 0)
(0.00474747 -0.000582247 0)
(0.0047321 -0.000606209 0)
(0.00471607 -0.0006305 0)
(0.00469937 -0.000655062 0)
(0.004682 -0.000679832 0)
(0.00466394 -0.000704741 0)
(0.00464521 -0.00072971 0)
(0.0046258 -0.000754653 0)
(0.00460572 -0.000779476 0)
(0.00458498 -0.000804079 0)
(0.0045636 -0.000828353 0)
(0.0045416 -0.000852185 0)
(0.004519 -0.000875454 0)
(0.00449585 -0.000898037 0)
(0.00447217 -0.00091981 0)
(0.00444801 -0.000940645 0)
(0.00442342 -0.000960417 0)
(0.00439845 -0.000979007 0)
(0.00437316 -0.0009963 0)
(0.0043476 -0.00101219 0)
(0.00432185 -0.00102658 0)
(0.00429595 -0.00103938 0)
(0.00426997 -0.00105051 0)
(0.00424397 -0.00105987 0)
(0.00421803 -0.00106745 0)
(0.00419226 -0.00107329 0)
(0.00416674 -0.00107739 0)
(0.00414156 -0.00107982 0)
(0.00411676 -0.00108062 0)
(0.00409237 -0.00107986 0)
(0.00406847 -0.00107759 0)
(0.00404511 -0.00107387 0)
(0.00402237 -0.00106875 0)
(0.00400033 -0.00106233 0)
(0.00397902 -0.00105475 0)
(0.00395846 -0.00104615 0)
(0.00393869 -0.00103667 0)
(0.00391972 -0.00102645 0)
(0.00390158 -0.00101562 0)
(0.00388431 -0.00100432 0)
(0.00386794 -0.000992701 0)
(0.00385249 -0.000980923 0)
(0.00383801 -0.000969146 0)
(0.00382452 -0.000957546 0)
(0.00381207 -0.000946319 0)
(0.00380068 -0.000935682 0)
(0.00379039 -0.000925884 0)
(0.00378126 -0.000917218 0)
(0.00377324 -0.000910028 0)
(0.00376581 -0.000904762 0)
(0.00375904 -0.000902087 0)
(0.00499999 -1.67403e-06 0)
(0.00499981 -5.18238e-06 0)
(0.00499951 -8.83475e-06 0)
(0.00499908 -1.26217e-05 0)
(0.00499855 -1.65549e-05 0)
(0.00499792 -2.0651e-05 0)
(0.00499719 -2.49269e-05 0)
(0.00499637 -2.93991e-05 0)
(0.00499544 -3.40832e-05 0)
(0.00499441 -3.89942e-05 0)
(0.00499326 -4.41468e-05 0)
(0.004992 -4.95551e-05 0)
(0.0049906 -5.5233e-05 0)
(0.00498907 -6.11945e-05 0)
(0.0049874 -6.74533e-05 0)
(0.00498559 -7.40229e-05 0)
(0.00498361 -8.09173e-05 0)
(0.00498146 -8.815e-05 0)
(0.00497914 -9.57348e-05 0)
(0.00497663 -0.000103686 0)
(0.00497392 -0.000112016 0)
(0.004971 -0.00012074 0)
(0.00496786 -0.00012987 0)
(0.00496449 -0.000139422 0)
(0.00496088 -0.000149408 0)
(0.00495702 -0.000159841 0)
(0.00495288 -0.000170736 0)
(0.00494846 -0.000182104 0)
(0.00494375 -0.000193958 0)
(0.00493873 -0.000206311 0)
(0.00493338 -0.000219174 0)
(0.00492769 -0.000232557 0)
(0.00492165 -0.000246472 0)
(0.00491523 -0.000260928 0)
(0.00490843 -0.000275933 0)
(0.00490123 -0.000291493 0)
(0.0048936 -0.000307616 0)
(0.00488554 -0.000324306 0)
(0.00487702 -0.000341565 0)
(0.00486802 -0.000359393 0)
(0.00485854 -0.000377791 0)
(0.00484855 -0.000396753 0)
(0.00483803 -0.000416273 0)
(0.00482697 -0.000436341 0)
(0.00481535 -0.000456945 0)
(0.00480316 -0.000478068 0)
(0.00479037 -0.000499689 0)
(0.00477697 -0.000521782 0)
(0.00476294 -0.000544318 0)
(0.00474828 -0.000567261 0)
(0.00473298 -0.00059057 0)
(0.00471701 -0.000614197 0)
(0.00470038 -0.000638089 0)
(0.00468307 -0.000662185 0)
(0.0046651 -0.000686418 0)
(0.00464644 -0.000710712 0)
(0.00462711 -0.000734986 0)
(0.00460712 -0.000759149 0)
(0.00458648 -0.000783106 0)
(0.00456519 -0.000806753 0)
(0.0045433 -0.00082998 0)
(0.00452081 -0.000852674 0)
(0.00449776 -0.000874717 0)
(0.00447419 -0.000895988 0)
(0.00445014 -0.000916367 0)
(0.00442565 -0.000935733 0)
(0.00440078 -0.000953971 0)
(0.00437559 -0.000970969 0)
(0.00435013 -0.000986622 0)
(0.00432445 -0.00100083 0)
(0.00429863 -0.00101352 0)
(0.00427273 -0.00102459 0)
(0.00424683 -0.00103398 0)
(0.00422101 -0.00104167 0)
(0.00419537 -0.00104769 0)
(0.00416997 -0.00105206 0)
(0.00414489 -0.00105482 0)
(0.00412018 -0.00105603 0)
(0.00409587 -0.00105573 0)
(0.00407203 -0.00105398 0)
(0.00404871 -0.00105084 0)
(0.00402597 -0.00104637 0)
(0.00400388 -0.00104065 0)
(0.00398249 -0.0010338 0)
(0.00396184 -0.00102596 0)
(0.00394195 -0.00101727 0)
(0.00392286 -0.00100786 0)
(0.00390459 -0.000997872 0)
(0.00388716 -0.000987446 0)
(0.00387061 -0.000976731 0)
(0.00385497 -0.000965884 0)
(0.00384025 -0.000955067 0)
(0.00382649 -0.000944458 0)
(0.0038137 -0.000934248 0)
(0.00380191 -0.000924652 0)
(0.00379112 -0.000915909 0)
(0.00378136 -0.00090829 0)
(0.00377251 -0.000902094 0)
(0.00376392 -0.000897682 0)
(0.00375574 -0.000895521 0)
(0.00499999 -1.59237e-06 0)
(0.00499984 -4.95382e-06 0)
(0.00499956 -8.47936e-06 0)
(0.00499916 -1.2155e-05 0)
(0.00499864 -1.59859e-05 0)
(0.00499803 -1.99832e-05 0)
(0.00499731 -2.41604e-05 0)
(0.0049965 -2.85315e-05 0)
(0.00499558 -3.31105e-05 0)
(0.00499455 -3.79114e-05 0)
(0.0049934 -4.29479e-05 0)
(0.00499214 -4.82337e-05 0)
(0.00499075 -5.3782e-05 0)
(0.00498922 -5.96064e-05 0)
(0.00498755 -6.57201e-05 0)
(0.00498574 -7.21364e-05 0)
(0.00498376 -7.88685e-05 0)
(0.00498162 -8.59297e-05 0)
(0.0049793 -9.33335e-05 0)
(0.00497679 -0.000101093 0)
(0.00497409 -0.000109222 0)
(0.00497118 -0.000117733 0)
(0.00496805 -0.00012664 0)
(0.00496469 -0.000135956 0)
(0.00496108 -0.000145695 0)
(0.00495722 -0.000155868 0)
(0.0049531 -0.000166489 0)
(0.00494869 -0.00017757 0)
(0.00494399 -0.000189124 0)
(0.00493898 -0.000201162 0)
(0.00493365 -0.000213695 0)
(0.00492798 -0.000226734 0)
(0.00492195 -0.000240289 0)
(0.00491556 -0.000254368 0)
(0.00490878 -0.00026898 0)
(0.0049016 -0.000284132 0)
(0.004894 -0.000299829 0)
(0.00488596 -0.000316075 0)
(0.00487747 -0.000332874 0)
(0.00486851 -0.000350225 0)
(0.00485907 -0.000368127 0)
(0.00484911 -0.000386576 0)
(0.00483864 -0.000405566 0)
(0.00482762 -0.000425087 0)
(0.00481605 -0.000445127 0)
(0.00480391 -0.00046567 0)
(0.00479117 -0.000486695 0)
(0.00477783 -0.000508177 0)
(0.00476387 -0.000530089 0)
(0.00474928 -0.000552395 0)
(0.00473405 -0.000575056 0)
(0.00471816 -0.000598027 0)
(0.00470161 -0.000621256 0)
(0.0046844 -0.000644684 0)
(0.00466651 -0.000668248 0)
(0.00464796 -0.000691875 0)
(0.00462874 -0.000715486 0)
(0.00460886 -0.000738997 0)
(0.00458833 -0.000762314 0)
(0.00456718 -0.00078534 0)
(0.0045454 -0.000807969 0)
(0.00452305 -0.000830093 0)
(0.00450014 -0.000851599 0)
(0.0044767 -0.000872372 0)
(0.00445279 -0.000892296 0)
(0.00442844 -0.000911255 0)
(0.00440371 -0.000929139 0)
(0.00437865 -0.000945838 0)
(0.00435332 -0.000961251 0)
(0.00432778 -0.000975284 0)
(0.00430208 -0.000987853 0)
(0.00427631 -0.000998882 0)
(0.00425054 -0.00100832 0)
(0.00422486 -0.00101614 0)
(0.00419934 -0.00102236 0)
(0.00417406 -0.00102699 0)
(0.00414907 -0.00103008 0)
(0.00412443 -0.00103167 0)
(0.00410019 -0.00103181 0)
(0.0040764 -0.00103055 0)
(0.00405311 -0.00102794 0)
(0.00403037 -0.00102407 0)
(0.00400825 -0.001019 0)
(0.00398679 -0.00101285 0)
(0.00396605 -0.00100575 0)
(0.00394605 -0.000997827 0)
(0.00392681 -0.000989211 0)
(0.00390838 -0.000980042 0)
(0.00389077 -0.000970462 0)
(0.00387401 -0.000960617 0)
(0.00385811 -0.000950663 0)
(0.00384311 -0.00094076 0)
(0.00382901 -0.000931083 0)
(0.00381582 -0.000921818 0)
(0.00380354 -0.000913168 0)
(0.00379217 -0.000905356 0)
(0.00378171 -0.000898623 0)
(0.003772 -0.000893229 0)
(0.00376227 -0.000889485 0)
(0.00375277 -0.000887819 0)
(0.00499999 -1.52095e-06 0)
(0.00499986 -4.74639e-06 0)
(0.0049996 -8.14678e-06 0)
(0.00499922 -1.17079e-05 0)
(0.00499873 -1.54317e-05 0)
(0.00499813 -1.93257e-05 0)
(0.00499743 -2.34002e-05 0)
(0.00499663 -2.7667e-05 0)
(0.00499571 -3.21384e-05 0)
(0.00499469 -3.68272e-05 0)
(0.00499355 -4.17462e-05 0)
(0.00499229 -4.69082e-05 0)
(0.0049909 -5.2326e-05 0)
(0.00498938 -5.80124e-05 0)
(0.00498772 -6.39803e-05 0)
(0.00498591 -7.02425e-05 0)
(0.00498393 -7.68118e-05 0)
(0.0049818 -8.37012e-05 0)
(0.00497948 -9.09234e-05 0)
(0.00497698 -9.84915e-05 0)
(0.00497428 -0.000106418 0)
(0.00497138 -0.000114717 0)
(0.00496825 -0.0001234 0)
(0.0049649 -0.00013248 0)
(0.00496131 -0.00014197 0)
(0.00495746 -0.000151883 0)
(0.00495335 -0.000162231 0)
(0.00494896 -0.000173025 0)
(0.00494427 -0.000184278 0)
(0.00493928 -0.000196001 0)
(0.00493396 -0.000208204 0)
(0.00492831 -0.000220898 0)
(0.00492231 -0.000234092 0)
(0.00491594 -0.000247795 0)
(0.00490918 -0.000262015 0)
(0.00490203 -0.000276757 0)
(0.00489446 -0.000292028 0)
(0.00488645 -0.000307832 0)
(0.004878 -0.00032417 0)
(0.00486908 -0.000341043 0)
(0.00485968 -0.00035845 0)
(0.00484977 -0.000376387 0)
(0.00483934 -0.000394848 0)
(0.00482838 -0.000413823 0)
(0.00481686 -0.0004333 0)
(0.00480478 -0.000453263 0)
(0.00479211 -0.000473693 0)
(0.00477884 -0.000494567 0)
(0.00476496 -0.000515856 0)
(0.00475045 -0.000537527 0)
(0.0047353 -0.000559543 0)
(0.00471951 -0.000581859 0)
(0.00470306 -0.000604427 0)
(0.00468595 -0.000627191 0)
(0.00466818 -0.000650088 0)
(0.00464975 -0.00067305 0)
(0.00463065 -0.000696003 0)
(0.00461091 -0.000718863 0)
(0.00459052 -0.000741544 0)
(0.0045695 -0.00076395 0)
(0.00454789 -0.000785983 0)
(0.00452568 -0.000807538 0)
(0.00450293 -0.000828508 0)
(0.00447966 -0.000848782 0)
(0.00445592 -0.00086825 0)
(0.00443174 -0.000886801 0)
(0.00440717 -0.000904327 0)
(0.00438228 -0.000920723 0)
(0.0043571 -0.000935893 0)
(0.00433172 -0.000949746 0)
(0.00430619 -0.000962202 0)
(0.00428058 -0.000973193 0)
(0.00425496 -0.000982672 0)
(0.00422943 -0.000990615 0)
(0.00420404 -0.000997025 0)
(0.00417887 -0.00100192 0)
(0.00415398 -0.00100532 0)
(0.00412941 -0.00100728 0)
(0.00410523 -0.00100783 0)
(0.00408148 -0.00100703 0)
(0.00405821 -0.00100494 0)
(0.00403547 -0.00100164 0)
(0.00401332 -0.000997197 0)
(0.0039918 -0.000991723 0)
(0.00397096 -0.000985333 0)
(0.00395084 -0.00097815 0)
(0.00393145 -0.000970306 0)
(0.00391284 -0.000961934 0)
(0.00389502 -0.000953174 0)
(0.00387801 -0.000944169 0)
(0.00386183 -0.000935072 0)
(0.00384649 -0.000926041 0)
(0.003832 -0.000917243 0)
(0.00381836 -0.000908855 0)
(0.00380555 -0.000901069 0)
(0.00379356 -0.000894086 0)
(0.00378237 -0.000888118 0)
(0.0037718 -0.000883384 0)
(0.00376104 -0.000880135 0)
(0.00375021 -0.000878908 0)
(0.00499999 -1.45736e-06 0)
(0.00499987 -4.55656e-06 0)
(0.00499964 -7.83576e-06 0)
(0.00499928 -1.12823e-05 0)
(0.0049988 -1.48967e-05 0)
(0.00499823 -1.86843e-05 0)
(0.00499754 -2.26531e-05 0)
(0.00499675 -2.68129e-05 0)
(0.00499585 -3.11745e-05 0)
(0.00499483 -3.57496e-05 0)
(0.0049937 -4.05497e-05 0)
(0.00499245 -4.5587e-05 0)
(0.00499107 -5.08737e-05 0)
(0.00498955 -5.64218e-05 0)
(0.00498789 -6.22438e-05 0)
(0.00498609 -6.8352e-05 0)
(0.00498412 -7.47586e-05 0)
(0.00498199 -8.14763e-05 0)
(0.00497968 -8.85174e-05 0)
(0.00497718 -9.58944e-05 0)
(0.00497449 -0.00010362 0)
(0.0049716 -0.000111706 0)
(0.00496849 -0.000120166 0)
(0.00496514 -0.000129011 0)
(0.00496156 -0.000138254 0)
(0.00495773 -0.000147908 0)
(0.00495363 -0.000157983 0)
(0.00494925 -0.000168491 0)
(0.00494458 -0.000179445 0)
(0.00493961 -0.000190854 0)
(0.00493431 -0.000202729 0)
(0.00492868 -0.000215079 0)
(0.0049227 -0.000227915 0)
(0.00491636 -0.000241244 0)
(0.00490963 -0.000255073 0)
(0.00490251 -0.000269408 0)
(0.00489498 -0.000284256 0)
(0.00488701 -0.000299619 0)
(0.0048786 -0.0003155 0)
(0.00486972 -0.000331899 0)
(0.00486036 -0.000348814 0)
(0.00485051 -0.000366242 0)
(0.00484014 -0.000384177 0)
(0.00482924 -0.000402609 0)
(0.00481779 -0.000421527 0)
(0.00480577 -0.000440916 0)
(0.00479318 -0.000460757 0)
(0.00477999 -0.000481026 0)
(0.00476619 -0.000501698 0)
(0.00475178 -0.00052274 0)
(0.00473673 -0.000544116 0)
(0.00472104 -0.000565784 0)
(0.00470471 -0.000587698 0)
(0.00468772 -0.000609803 0)
(0.00467008 -0.000632041 0)
(0.00465178 -0.000654345 0)
(0.00463282 -0.000676645 0)
(0.00461323 -0.000698862 0)
(0.004593 -0.000720912 0)
(0.00457215 -0.000742706 0)
(0.0045507 -0.000764148 0)
(0.00452867 -0.000785139 0)
(0.0045061 -0.000805576 0)
(0.00448302 -0.000825355 0)
(0.00445946 -0.000844368 0)
(0.00443547 -0.00086251 0)
(0.00441109 -0.000879677 0)
(0.00438638 -0.00089577 0)
(0.0043614 -0.000910695 0)
(0.0043362 -0.000924366 0)
(0.00431085 -0.000936707 0)
(0.00428541 -0.000947656 0)
(0.00425997 -0.000957168 0)
(0.00423459 -0.000965218 0)
(0.00420934 -0.000971803 0)
(0.00418429 -0.000976932 0)
(0.00415949 -0.00098063 0)
(0.00413501 -0.000982931 0)
(0.00411088 -0.00098388 0)
(0.00408717 -0.000983528 0)
(0.00406392 -0.000981937 0)
(0.00404117 -0.000979177 0)
(0.00401899 -0.000975332 0)
(0.00399741 -0.0009705 0)
(0.00397647 -0.000964789 0)
(0.00395622 -0.00095832 0)
(0.00393668 -0.000951216 0)
(0.00391787 -0.000943608 0)
(0.00389981 -0.000935632 0)
(0.00388253 -0.000927428 0)
(0.00386604 -0.000919144 0)
(0.00385034 -0.000910932 0)
(0.00383542 -0.000902952 0)
(0.0038213 -0.000895372 0)
(0.00380793 -0.000888368 0)
(0.0037953 -0.000882122 0)
(0.00378337 -0.000876819 0)
(0.00377197 -0.000872641 0)
(0.00376028 -0.000869788 0)
(0.0037482 -0.000868828 0)
(0.00499999 -1.39957e-06 0)
(0.00499988 -4.38093e-06 0)
(0.00499966 -7.54364e-06 0)
(0.00499932 -1.08771e-05 0)
(0.00499887 -1.43814e-05 0)
(0.00499831 -1.80608e-05 0)
(0.00499764 -2.19217e-05 0)
(0.00499686 -2.59724e-05 0)
(0.00499597 -3.02224e-05 0)
(0.00499497 -3.46821e-05 0)
(0.00499385 -3.93622e-05 0)
(0.00499261 -4.4274e-05 0)
(0.00499123 -4.94288e-05 0)
(0.00498973 -5.48383e-05 0)
(0.00498808 -6.05142e-05 0)
(0.00498628 -6.64684e-05 0)
(0.00498432 -7.27126e-05 0)
(0.00498219 -7.9259e-05 0)
(0.00497989 -8.61194e-05 0)
(0.00497741 -9.3306e-05 0)
(0.00497472 -0.000100831 0)
(0.00497184 -0.000108706 0)
(0.00496874 -0.000116943 0)
(0.00496541 -0.000125555 0)
(0.00496184 -0.000134552 0)
(0.00495802 -0.000143948 0)
(0.00495393 -0.000153752 0)
(0.00494957 -0.000163976 0)
(0.00494492 -0.000174632 0)
(0.00493997 -0.000185729 0)
(0.0049347 -0.000197278 0)
(0.00492909 -0.000209288 0)
(0.00492314 -0.000221767 0)
(0.00491683 -0.000234724 0)
(0.00491013 -0.000248165 0)
(0.00490305 -0.000262097 0)
(0.00489555 -0.000276524 0)
(0.00488763 -0.00029145 0)
(0.00487926 -0.000306878 0)
(0.00487043 -0.000322806 0)
(0.00486113 -0.000339234 0)
(0.00485133 -0.000356157 0)
(0.00484102 -0.000373571 0)
(0.00483019 -0.000391466 0)
(0.00481881 -0.00040983 0)
(0.00480687 -0.00042865 0)
(0.00479436 -0.000447906 0)
(0.00478126 -0.000467578 0)
(0.00476756 -0.000487639 0)
(0.00475325 -0.000508058 0)
(0.00473831 -0.000528802 0)
(0.00472274 -0.00054983 0)
(0.00470653 -0.000571097 0)
(0.00468968 -0.000592551 0)
(0.00467217 -0.000614137 0)
(0.00465402 -0.000635792 0)
(0.00463523 -0.000657447 0)
(0.0046158 -0.000679028 0)
(0.00459574 -0.000700455 0)
(0.00457507 -0.000721643 0)
(0.00455381 -0.0007425 0)
(0.00453197 -0.000762933 0)
(0.0045096 -0.000782843 0)
(0.00448671 -0.000802129 0)
(0.00446336 -0.00082069 0)
(0.00443957 -0.000838424 0)
(0.00441541 -0.000855234 0)
(0.0043909 -0.000871022 0)
(0.00436612 -0.0008857 0)
(0.00434113 -0.000899186 0)
(0.00431597 -0.000911407 0)
(0.00429073 -0.000922306 0)
(0.00426546 -0.000931838 0)
(0.00424025 -0.000939978 0)
(0.00421514 -0.000946717 0)
(0.00419022 -0.000952063 0)
(0.00416552 -0.000956033 0)
(0.00414112 -0.00095866 0)
(0.00411706 -0.000959985 0)
(0.00409338 -0.000960058 0)
(0.00407015 -0.00095894 0)
(0.00404739 -0.000956701 0)
(0.00402517 -0.000953424 0)
(0.00400353 -0.000949201 0)
(0.00398249 -0.000944137 0)
(0.0039621 -0.000938346 0)
(0.00394239 -0.000931946 0)
(0.00392337 -0.000925065 0)
(0.00390508 -0.000917834 0)
(0.00388751 -0.000910387 0)
(0.00387068 -0.000902868 0)
(0.00385459 -0.000895421 0)
(0.00383924 -0.000888199 0)
(0.00382461 -0.000881359 0)
(0.00381067 -0.000875062 0)
(0.00379739 -0.000869472 0)
(0.00378475 -0.000864751 0)
(0.00377254 -0.000861053 0)
(0.00376 -0.000858545 0)
(0.00374677 -0.00085774 0)
(0.005 -1.34608e-06 0)
(0.00499989 -4.21662e-06 0)
(0.00499968 -7.26748e-06 0)
(0.00499936 -1.049e-05 0)
(0.00499892 -1.38848e-05 0)
(0.00499838 -1.74552e-05 0)
(0.00499773 -2.12068e-05 0)
(0.00499697 -2.51469e-05 0)
(0.00499609 -2.92837e-05 0)
(0.0049951 -3.36266e-05 0)
(0.004994 -3.81854e-05 0)
(0.00499276 -4.29707e-05 0)
(0.0049914 -4.7993e-05 0)
(0.0049899 -5.32634e-05 0)
(0.00498826 -5.8793e-05 0)
(0.00498647 -6.45931e-05 0)
(0.00498452 -7.0675e-05 0)
(0.00498241 -7.70504e-05 0)
(0.00498011 -8.37307e-05 0)
(0.00497764 -9.07275e-05 0)
(0.00497497 -9.80525e-05 0)
(0.00497209 -0.000105717 0)
(0.004969 -0.000113733 0)
(0.00496569 -0.000122112 0)
(0.00496213 -0.000130865 0)
(0.00495833 -0.000140004 0)
(0.00495426 -0.000149539 0)
(0.00494992 -0.000159481 0)
(0.00494529 -0.000169841 0)
(0.00494036 -0.000180628 0)
(0.00493512 -0.000191853 0)
(0.00492954 -0.000203524 0)
(0.00492362 -0.000215649 0)
(0.00491734 -0.000228237 0)
(0.00491068 -0.000241293 0)
(0.00490363 -0.000254825 0)
(0.00489618 -0.000268835 0)
(0.0048883 -0.000283328 0)
(0.00487998 -0.000298305 0)
(0.00487121 -0.000313767 0)
(0.00486196 -0.000329712 0)
(0.00485223 -0.000346136 0)
(0.00484199 -0.000363033 0)
(0.00483122 -0.000380396 0)
(0.00481992 -0.000398212 0)
(0.00480807 -0.000416469 0)
(0.00479565 -0.000435147 0)
(0.00478265 -0.000454228 0)
(0.00476906 -0.000473685 0)
(0.00475486 -0.00049349 0)
(0.00474004 -0.000513608 0)
(0.0047246 -0.000534003 0)
(0.00470852 -0.000554631 0)
(0.00469181 -0.000575443 0)
(0.00467446 -0.000596386 0)
(0.00465647 -0.000617399 0)
(0.00463784 -0.000638418 0)
(0.00461859 -0.000659371 0)
(0.00459871 -0.000680183 0)
(0.00457823 -0.000700772 0)
(0.00455717 -0.000721051 0)
(0.00453554 -0.000740931 0)
(0.00451338 -0.000760318 0)
(0.00449071 -0.000779115 0)
(0.00446758 -0.000797227 0)
(0.00444401 -0.000814555 0)
(0.00442006 -0.000831006 0)
(0.00439578 -0.000846489 0)
(0.00437122 -0.000860917 0)
(0.00434644 -0.000874213 0)
(0.00432149 -0.000886308 0)
(0.00429644 -0.000897146 0)
(0.00427137 -0.000906685 0)
(0.00424632 -0.000914897 0)
(0.00422137 -0.000921772 0)
(0.00419657 -0.000927312 0)
(0.00417199 -0.000931533 0)
(0.00414767 -0.000934463 0)
(0.00412367 -0.000936142 0)
(0.00410003 -0.000936617 0)
(0.00407681 -0.000935948 0)
(0.00405405 -0.000934203 0)
(0.00403179 -0.000931463 0)
(0.00401007 -0.000927818 0)
(0.00398893 -0.000923366 0)
(0.00396841 -0.000918217 0)
(0.00394852 -0.000912486 0)
(0.00392929 -0.000906293 0)
(0.00391073 -0.000899764 0)
(0.00389287 -0.00089303 0)
(0.00387569 -0.000886226 0)
(0.00385921 -0.000879491 0)
(0.00384341 -0.000872969 0)
(0.00382827 -0.000866806 0)
(0.00381376 -0.00086115 0)
(0.00379985 -0.000856148 0)
(0.00378652 -0.000851944 0)
(0.00377355 -0.000848669 0)
(0.00376021 -0.000846465 0)
(0.00374591 -0.000845703 0)
(0.005 -1.29588e-06 0)
(0.0049999 -4.06145e-06 0)
(0.0049997 -7.00483e-06 0)
(0.00499939 -1.01192e-05 0)
(0.00499897 -1.34054e-05 0)
(0.00499845 -1.68669e-05 0)
(0.00499781 -2.05087e-05 0)
(0.00499707 -2.4337e-05 0)
(0.00499621 -2.83594e-05 0)
(0.00499523 -3.25844e-05 0)
(0.00499414 -3.7021e-05 0)
(0.00499292 -4.16788e-05 0)
(0.00499157 -4.6568e-05 0)
(0.00499008 -5.16988e-05 0)
(0.00498845 -5.70817e-05 0)
(0.00498667 -6.27277e-05 0)
(0.00498473 -6.86474e-05 0)
(0.00498262 -7.4852e-05 0)
(0.00498034 -8.13526e-05 0)
(0.00497788 -8.81602e-05 0)
(0.00497522 -9.5286e-05 0)
(0.00497236 -0.000102741 0)
(0.00496929 -0.000110537 0)
(0.00496598 -0.000118684 0)
(0.00496245 -0.000127194 0)
(0.00495866 -0.000136078 0)
(0.00495461 -0.000145345 0)
(0.00495029 -0.000155006 0)
(0.00494569 -0.000165072 0)
(0.00494078 -0.000175552 0)
(0.00493556 -0.000186455 0)
(0.00493002 -0.00019779 0)
(0.00492413 -0.000209564 0)
(0.00491788 -0.000221786 0)
(0.00491127 -0.000234461 0)
(0.00490426 -0.000247595 0)
(0.00489685 -0.000261192 0)
(0.00488902 -0.000275255 0)
(0.00488076 -0.000289787 0)
(0.00487204 -0.000304786 0)
(0.00486286 -0.000320253 0)
(0.00485319 -0.000336182 0)
(0.00484302 -0.000352569 0)
(0.00483234 -0.000369405 0)
(0.00482113 -0.000386679 0)
(0.00480937 -0.000404379 0)
(0.00479704 -0.000422486 0)
(0.00478415 -0.000440982 0)
(0.00477066 -0.000459843 0)
(0.00475658 -0.00047904 0)
(0.00474189 -0.000498542 0)
(0.00472658 -0.000518312 0)
(0.00471065 -0.00053831 0)
(0.00469409 -0.000558488 0)
(0.0046769 -0.000578795 0)
(0.00465908 -0.000599175 0)
(0.00464063 -0.000619566 0)
(0.00462157 -0.0006399 0)
(0.00460189 -0.000660104 0)
(0.00458161 -0.000680102 0)
(0.00456076 -0.00069981 0)
(0.00453935 -0.000719143 0)
(0.00451741 -0.000738011 0)
(0.00449497 -0.000756324 0)
(0.00447206 -0.000773989 0)
(0.00444872 -0.000790913 0)
(0.00442501 -0.000807006 0)
(0.00440096 -0.00082218 0)
(0.00437662 -0.000836355 0)
(0.00435206 -0.000849456 0)
(0.00432733 -0.000861416 0)
(0.00430249 -0.000872182 0)
(0.0042776 -0.000881712 0)
(0.00425273 -0.000889979 0)
(0.00422793 -0.000896969 0)
(0.00420327 -0.000902682 0)
(0.0041788 -0.000907132 0)
(0.00415457 -0.000910342 0)
(0.00413064 -0.000912351 0)
(0.00410705 -0.000913203 0)
(0.00408384 -0.000912957 0)
(0.00406107 -0.000911679 0)
(0.00403877 -0.000909447 0)
(0.00401698 -0.000906346 0)
(0.00399573 -0.000902472 0)
(0.00397506 -0.000897929 0)
(0.00395499 -0.000892827 0)
(0.00393555 -0.000887282 0)
(0.00391673 -0.000881413 0)
(0.00389856 -0.000875346 0)
(0.00388104 -0.00086921 0)
(0.00386415 -0.000863136 0)
(0.0038479 -0.000857259 0)
(0.00383226 -0.000851715 0)
(0.00381719 -0.000846641 0)
(0.00380266 -0.00084217 0)
(0.00378866 -0.000838431 0)
(0.00377498 -0.000835536 0)
(0.00376088 -0.000833603 0)
(0.00374565 -0.000832763 0)
(0.005 -1.24832e-06 0)
(0.0049999 -3.91382e-06 0)
(0.00499971 -6.75371e-06 0)
(0.00499941 -9.76257e-06 0)
(0.00499901 -1.2942e-05 0)
(0.0049985 -1.62952e-05 0)
(0.00499788 -1.9827e-05 0)
(0.00499715 -2.35431e-05 0)
(0.00499631 -2.74504e-05 0)
(0.00499535 -3.15566e-05 0)
(0.00499427 -3.58701e-05 0)
(0.00499306 -4.03998e-05 0)
(0.00499173 -4.51552e-05 0)
(0.00499025 -5.0146e-05 0)
(0.00498863 -5.53821e-05 0)
(0.00498687 -6.08738e-05 0)
(0.00498494 -6.66315e-05 0)
(0.00498285 -7.26656e-05 0)
(0.00498058 -7.89868e-05 0)
(0.00497813 -8.56057e-05 0)
(0.00497549 -9.25332e-05 0)
(0.00497264 -9.97798e-05 0)
(0.00496958 -0.000107356 0)
(0.0049663 -0.000115274 0)
(0.00496278 -0.000123542 0)
(0.00495901 -0.000132171 0)
(0.00495498 -0.000141173 0)
(0.00495069 -0.000150555 0)
(0.00494611 -0.000160329 0)
(0.00494123 -0.000170504 0)
(0.00493604 -0.000181087 0)
(0.00493053 -0.000192089 0)
(0.00492467 -0.000203515 0)
(0.00491847 -0.000215373 0)
(0.00491189 -0.00022767 0)
(0.00490493 -0.00024041 0)
(0.00489757 -0.000253598 0)
(0.00488979 -0.000267236 0)
(0.00488159 -0.000281326 0)
(0.00487293 -0.000295868 0)
(0.00486382 -0.000310861 0)
(0.00485422 -0.000326301 0)
(0.00484413 -0.000342182 0)
(0.00483353 -0.000358497 0)
(0.00482241 -0.000375236 0)
(0.00481074 -0.000392385 0)
(0.00479852 -0.000409929 0)
(0.00478574 -0.000427848 0)
(0.00477237 -0.00044612 0)
(0.00475841 -0.000464718 0)
(0.00474386 -0.000483611 0)
(0.00472869 -0.000502765 0)
(0.00471291 -0.00052214 0)
(0.00469651 -0.000541693 0)
(0.00467949 -0.000561375 0)
(0.00466185 -0.000581131 0)
(0.00464359 -0.000600902 0)
(0.00462472 -0.000620625 0)
(0.00460524 -0.00064023 0)
(0.00458518 -0.000659643 0)