/*--------------------------------*- C++ -*----------------------------------*\
  =========                 |
  \\      /  F ield         | OpenFOAM: The Open Source CFD Toolbox
   \\    /   O peration     | Website:  https://openfoam.org
    \\  /    A nd           | Version:  11
     \\/     M anipulation  |
\*---------------------------------------------------------------------------*/
FoamFile
{
    format      ascii;
    class       volScalarField;
    location    "204";
    object      k;
}
// * * * * * * * * * * * * * * * * * * * * * * * * * * * * * * * * * * * * * //

dimensions      [0 2 -2 0 0 0 0];

internalField   nonuniform List<scalar> 
10000
(
0.000939671
0.000835657
0.000745774
0.000667851
0.000600083
0.000540958
0.000489213
0.000443787
0.000403784
0.000368452
0.000337152
0.000309343
0.000284566
0.000262427
0.000242593
0.000224776
0.00020873
0.000194242
0.000181131
0.000169238
0.000158426
0.000148577
0.000139589
0.000131371
0.000123845
0.000116945
0.00011061
0.000104789
9.94378e-05
9.45161e-05
8.99898e-05
8.5829e-05
8.20071e-05
7.85009e-05
7.52897e-05
7.2355e-05
6.96798e-05
6.72487e-05
6.50471e-05
6.30612e-05
6.12776e-05
5.96833e-05
5.82654e-05
5.70114e-05
5.59087e-05
5.49451e-05
5.41086e-05
5.33875e-05
5.2771e-05
5.22488e-05
5.18112e-05
5.14492e-05
5.1154e-05
5.09176e-05
5.07327e-05
5.05923e-05
5.04904e-05
5.04215e-05
5.03809e-05
5.03643e-05
5.03678e-05
5.0388e-05
5.04225e-05
5.04682e-05
5.05229e-05
5.05846e-05
5.06514e-05
5.07218e-05
5.07945e-05
5.08682e-05
5.09421e-05
5.10153e-05
5.10869e-05
5.11566e-05
5.12236e-05
5.12877e-05
5.13485e-05
5.14058e-05
5.14593e-05
5.15091e-05
5.15549e-05
5.15969e-05
5.16349e-05
5.16692e-05
5.16997e-05
5.17266e-05
5.17501e-05
5.17702e-05
5.17872e-05
5.18013e-05
5.18127e-05
5.18216e-05
5.18283e-05
5.1833e-05
5.1836e-05
5.18376e-05
5.1838e-05
5.18377e-05
5.18369e-05
5.18359e-05
0.000939671
0.000835658
0.000745775
0.000667853
0.000600085
0.000540961
0.000489216
0.000443789
0.000403787
0.000368455
0.000337155
0.000309346
0.000284569
0.00026243
0.000242596
0.000224779
0.000208733
0.000194246
0.000181134
0.000169241
0.000158429
0.000148581
0.000139592
0.000131374
0.000123849
0.000116949
0.000110614
0.000104794
9.94422e-05
9.45207e-05
8.99946e-05
8.58339e-05
8.20121e-05
7.85061e-05
7.5295e-05
7.23603e-05
6.96852e-05
6.72542e-05
6.50526e-05
6.30666e-05
6.12829e-05
5.96885e-05
5.82705e-05
5.70163e-05
5.59134e-05
5.49497e-05
5.41132e-05
5.33922e-05
5.27759e-05
5.22539e-05
5.18163e-05
5.14541e-05
5.11585e-05
5.09216e-05
5.07361e-05
5.05952e-05
5.04928e-05
5.04236e-05
5.03828e-05
5.03661e-05
5.03695e-05
5.03896e-05
5.0424e-05
5.04696e-05
5.05243e-05
5.05858e-05
5.06526e-05
5.07229e-05
5.07956e-05
5.08693e-05
5.09431e-05
5.10162e-05
5.10879e-05
5.11574e-05
5.12244e-05
5.12885e-05
5.13492e-05
5.14065e-05
5.146e-05
5.15097e-05
5.15555e-05
5.15974e-05
5.16355e-05
5.16697e-05
5.17002e-05
5.17271e-05
5.17505e-05
5.17706e-05
5.17876e-05
5.18016e-05
5.1813e-05
5.18219e-05
5.18285e-05
5.18332e-05
5.18362e-05
5.18378e-05
5.18383e-05
5.18379e-05
5.18371e-05
5.18361e-05
0.000939671
0.00083566
0.000745778
0.000667857
0.000600089
0.000540966
0.000489221
0.000443795
0.000403792
0.00036846
0.00033716
0.000309352
0.000284574
0.000262436
0.000242602
0.000224785
0.000208739
0.000194252
0.00018114
0.000169247
0.000158436
0.000148587
0.000139598
0.000131381
0.000123856
0.000116955
0.000110621
0.0001048
9.94491e-05
9.45276e-05
9.00016e-05
8.5841e-05
8.20193e-05
7.85132e-05
7.53021e-05
7.23674e-05
6.96922e-05
6.72609e-05
6.50591e-05
6.30729e-05
6.12889e-05
5.96941e-05
5.82757e-05
5.70211e-05
5.59179e-05
5.49538e-05
5.41169e-05
5.33957e-05
5.27792e-05
5.2257e-05
5.18192e-05
5.14567e-05
5.11608e-05
5.09235e-05
5.07375e-05
5.05962e-05
5.04935e-05
5.04241e-05
5.03831e-05
5.03663e-05
5.03695e-05
5.03896e-05
5.04239e-05
5.04695e-05
5.05241e-05
5.05857e-05
5.06524e-05
5.07228e-05
5.07954e-05
5.08691e-05
5.0943e-05
5.10161e-05
5.10877e-05
5.11573e-05
5.12243e-05
5.12884e-05
5.13491e-05
5.14064e-05
5.14599e-05
5.15096e-05
5.15555e-05
5.15974e-05
5.16354e-05
5.16697e-05
5.17002e-05
5.17271e-05
5.17505e-05
5.17706e-05
5.17876e-05
5.18017e-05
5.18131e-05
5.18221e-05
5.18288e-05
5.18335e-05
5.18365e-05
5.18382e-05
5.18386e-05
5.18384e-05
5.18376e-05
5.18366e-05
0.000939672
0.000835662
0.000745781
0.000667861
0.000600095
0.000540972
0.000489228
0.000443802
0.0004038
0.000368468
0.000337168
0.00030936
0.000284583
0.000262444
0.00024261
0.000224793
0.000208747
0.00019426
0.000181149
0.000169256
0.000158444
0.000148596
0.000139607
0.00013139
0.000123865
0.000116965
0.00011063
0.00010481
9.94587e-05
9.45373e-05
9.00114e-05
8.58507e-05
8.2029e-05
7.85229e-05
7.53116e-05
7.23767e-05
6.97012e-05
6.72696e-05
6.50673e-05
6.30806e-05
6.12961e-05
5.97007e-05
5.82817e-05
5.70265e-05
5.59226e-05
5.49579e-05
5.41205e-05
5.33988e-05
5.27819e-05
5.22593e-05
5.18211e-05
5.14582e-05
5.11618e-05
5.0924e-05
5.07377e-05
5.0596e-05
5.0493e-05
5.04233e-05
5.03821e-05
5.03651e-05
5.03683e-05
5.03883e-05
5.04226e-05
5.04682e-05
5.05228e-05
5.05843e-05
5.06511e-05
5.07215e-05
5.07941e-05
5.08679e-05
5.09418e-05
5.1015e-05
5.10867e-05
5.11563e-05
5.12234e-05
5.12875e-05
5.13483e-05
5.14056e-05
5.14592e-05
5.1509e-05
5.15549e-05
5.15969e-05
5.1635e-05
5.16693e-05
5.16998e-05
5.17268e-05
5.17503e-05
5.17705e-05
5.17875e-05
5.18017e-05
5.18132e-05
5.18222e-05
5.1829e-05
5.18338e-05
5.18369e-05
5.18386e-05
5.18392e-05
5.18389e-05
5.18382e-05
5.18373e-05
0.000939672
0.000835664
0.000745785
0.000667866
0.000600101
0.000540979
0.000489236
0.00044381
0.000403809
0.000368478
0.000337178
0.00030937
0.000284593
0.000262455
0.000242621
0.000224804
0.000208758
0.000194271
0.00018116
0.000169267
0.000158455
0.000148607
0.000139619
0.000131401
0.000123877
0.000116977
0.000110642
0.000104822
9.94712e-05
9.45499e-05
9.0024e-05
8.58633e-05
8.20416e-05
7.85353e-05
7.53238e-05
7.23886e-05
6.97127e-05
6.72806e-05
6.50777e-05
6.30903e-05
6.13051e-05
5.97089e-05
5.82891e-05
5.7033e-05
5.59283e-05
5.49627e-05
5.41245e-05
5.34021e-05
5.27845e-05
5.22613e-05
5.18225e-05
5.1459e-05
5.1162e-05
5.09238e-05
5.07369e-05
5.05949e-05
5.04916e-05
5.04216e-05
5.03803e-05
5.03631e-05
5.03662e-05
5.03861e-05
5.04203e-05
5.04659e-05
5.05205e-05
5.05821e-05
5.06489e-05
5.07194e-05
5.07921e-05
5.08659e-05
5.09399e-05
5.10131e-05
5.10849e-05
5.11547e-05
5.12218e-05
5.1286e-05
5.13469e-05
5.14043e-05
5.1458e-05
5.15079e-05
5.15539e-05
5.15959e-05
5.16341e-05
5.16685e-05
5.16992e-05
5.17262e-05
5.17498e-05
5.17701e-05
5.17873e-05
5.18016e-05
5.18132e-05
5.18223e-05
5.18292e-05
5.18341e-05
5.18373e-05
5.18392e-05
5.18398e-05
5.18397e-05
5.1839e-05
5.1838e-05
0.000939673
0.000835665
0.000745788
0.000667871
0.000600107
0.000540986
0.000489244
0.00044382
0.000403819
0.000368488
0.000337189
0.000309382
0.000284605
0.000262467
0.000242633
0.000224817
0.000208771
0.000194284
0.000181173
0.00016928
0.000158469
0.000148621
0.000139633
0.000131416
0.000123891
0.000116991
0.000110657
0.000104837
9.94864e-05
9.45652e-05
9.00394e-05
8.58787e-05
8.20568e-05
7.85504e-05
7.53386e-05
7.24029e-05
6.97265e-05
6.72937e-05
6.50902e-05
6.31019e-05
6.13157e-05
5.97185e-05
5.82976e-05
5.70405e-05
5.59347e-05
5.49681e-05
5.41288e-05
5.34055e-05
5.2787e-05
5.22629e-05
5.18234e-05
5.14592e-05
5.11616e-05
5.09228e-05
5.07354e-05
5.05929e-05
5.04893e-05
5.0419e-05
5.03774e-05
5.03601e-05
5.03631e-05
5.03829e-05
5.04171e-05
5.04627e-05
5.05173e-05
5.0579e-05
5.06459e-05
5.07164e-05
5.07892e-05
5.08631e-05
5.09372e-05
5.10106e-05
5.10825e-05
5.11523e-05
5.12196e-05
5.12839e-05
5.1345e-05
5.14025e-05
5.14563e-05
5.15063e-05
5.15524e-05
5.15946e-05
5.16329e-05
5.16675e-05
5.16983e-05
5.17254e-05
5.17492e-05
5.17696e-05
5.1787e-05
5.18014e-05
5.18131e-05
5.18224e-05
5.18294e-05
5.18345e-05
5.18379e-05
5.18398e-05
5.18406e-05
5.18406e-05
5.18399e-05
5.1839e-05
0.000939673
0.000835667
0.000745791
0.000667876
0.000600113
0.000540994
0.000489253
0.00044383
0.00040383
0.0003685
0.000337202
0.000309395
0.000284618
0.000262481
0.000242648
0.000224831
0.000208786
0.000194299
0.000181188
0.000169296
0.000158485
0.000148637
0.000139649
0.000131432
0.000123908
0.000117009
0.000110675
0.000104855
9.95043e-05
9.45833e-05
9.00574e-05
8.58967e-05
8.20747e-05
7.8568e-05
7.53558e-05
7.24196e-05
6.97425e-05
6.7309e-05
6.51045e-05
6.31153e-05
6.13279e-05
5.97295e-05
5.83074e-05
5.70489e-05
5.59418e-05
5.4974e-05
5.41335e-05
5.3409e-05
5.27894e-05
5.22644e-05
5.1824e-05
5.14589e-05
5.11606e-05
5.09211e-05
5.07332e-05
5.05902e-05
5.04861e-05
5.04156e-05
5.03737e-05
5.03562e-05
5.0359e-05
5.03788e-05
5.0413e-05
5.04585e-05
5.05132e-05
5.05749e-05
5.06419e-05
5.07125e-05
5.07854e-05
5.08595e-05
5.09337e-05
5.10072e-05
5.10793e-05
5.11493e-05
5.12167e-05
5.12812e-05
5.13424e-05
5.14001e-05
5.14541e-05
5.15042e-05
5.15505e-05
5.15929e-05
5.16314e-05
5.16661e-05
5.1697e-05
5.17244e-05
5.17483e-05
5.17689e-05
5.17864e-05
5.1801e-05
5.1813e-05
5.18224e-05
5.18297e-05
5.18349e-05
5.18384e-05
5.18405e-05
5.18415e-05
5.18415e-05
5.1841e-05
5.184e-05
0.000939674
0.000835669
0.000745794
0.00066788
0.000600119
0.000541002
0.000489262
0.00044384
0.000403841
0.000368512
0.000337215
0.000309408
0.000284633
0.000262496
0.000242663
0.000224847
0.000208802
0.000194316
0.000181205
0.000169313
0.000158503
0.000148655
0.000139668
0.000131451
0.000123927
0.000117028
0.000110695
0.000104875
9.95247e-05
9.46038e-05
9.0078e-05
8.59172e-05
8.2095e-05
7.8588e-05
7.53753e-05
7.24386e-05
6.97607e-05
6.73263e-05
6.51208e-05
6.31303e-05
6.13416e-05
5.97419e-05
5.83183e-05
5.70583e-05
5.59497e-05
5.49804e-05
5.41385e-05
5.34127e-05
5.27919e-05
5.22657e-05
5.18242e-05
5.14582e-05
5.1159e-05
5.09188e-05
5.07302e-05
5.05866e-05
5.04821e-05
5.04112e-05
5.03691e-05
5.03514e-05
5.03541e-05
5.03737e-05
5.04079e-05
5.04535e-05
5.05082e-05
5.057e-05
5.0637e-05
5.07078e-05
5.07809e-05
5.08551e-05
5.09295e-05
5.10031e-05
5.10754e-05
5.11455e-05
5.12132e-05
5.12778e-05
5.13392e-05
5.13971e-05
5.14513e-05
5.15016e-05
5.15481e-05
5.15907e-05
5.16294e-05
5.16643e-05
5.16955e-05
5.1723e-05
5.17472e-05
5.1768e-05
5.17857e-05
5.18006e-05
5.18127e-05
5.18224e-05
5.18298e-05
5.18353e-05
5.1839e-05
5.18413e-05
5.18424e-05
5.18426e-05
5.1842e-05
5.18411e-05
0.000939674
0.00083567
0.000745797
0.000667885
0.000600125
0.000541009
0.000489271
0.00044385
0.000403853
0.000368525
0.000337228
0.000309423
0.000284648
0.000262512
0.00024268
0.000224864
0.00020882
0.000194334
0.000181224
0.000169333
0.000158523
0.000148676
0.000139689
0.000131472
0.000123949
0.00011705
0.000110717
0.000104898
9.95474e-05
9.46266e-05
9.01009e-05
8.594e-05
8.21176e-05
7.86102e-05
7.53971e-05
7.24596e-05
6.97809e-05
6.73454e-05
6.51387e-05
6.31469e-05
6.13568e-05
5.97554e-05
5.83302e-05
5.70686e-05
5.59583e-05
5.49873e-05
5.41439e-05
5.34165e-05
5.27943e-05
5.22668e-05
5.18241e-05
5.1457e-05
5.11569e-05
5.09158e-05
5.07265e-05
5.05823e-05
5.04773e-05
5.0406e-05
5.03636e-05
5.03456e-05
5.03482e-05
5.03678e-05
5.04019e-05
5.04475e-05
5.05023e-05
5.05641e-05
5.06313e-05
5.07022e-05
5.07754e-05
5.08498e-05
5.09244e-05
5.09983e-05
5.10707e-05
5.11411e-05
5.12089e-05
5.12738e-05
5.13355e-05
5.13936e-05
5.1448e-05
5.14986e-05
5.15453e-05
5.15881e-05
5.1627e-05
5.16622e-05
5.16936e-05
5.17214e-05
5.17458e-05
5.17669e-05
5.17849e-05
5.18e-05
5.18124e-05
5.18223e-05
5.183e-05
5.18357e-05
5.18396e-05
5.18421e-05
5.18433e-05
5.18436e-05
5.18432e-05
5.18422e-05
0.000939675
0.000835672
0.0007458
0.000667889
0.000600131
0.000541016
0.00048928
0.00044386
0.000403864
0.000368537
0.000337242
0.000309438
0.000284664
0.000262528
0.000242697
0.000224882
0.000208838
0.000194353
0.000181244
0.000169353
0.000158544
0.000148697
0.000139711
0.000131495
0.000123972
0.000117074
0.000110741
0.000104922
9.95723e-05
9.46516e-05
9.01259e-05
8.5965e-05
8.21423e-05
7.86345e-05
7.54208e-05
7.24826e-05
6.98029e-05
6.73663e-05
6.51582e-05
6.31649e-05
6.13732e-05
5.97701e-05
5.83431e-05
5.70796e-05
5.59675e-05
5.49947e-05
5.41495e-05
5.34205e-05
5.27967e-05
5.22678e-05
5.18238e-05
5.14555e-05
5.11543e-05
5.09123e-05
5.07222e-05
5.05774e-05
5.04718e-05
5.04e-05
5.03572e-05
5.03391e-05
5.03415e-05
5.03609e-05
5.0395e-05
5.04406e-05
5.04954e-05
5.05574e-05
5.06247e-05
5.06958e-05
5.07692e-05
5.08438e-05
5.09186e-05
5.09926e-05
5.10653e-05
5.11359e-05
5.1204e-05
5.12692e-05
5.13311e-05
5.13894e-05
5.14441e-05
5.1495e-05
5.1542e-05
5.1585e-05
5.16243e-05
5.16597e-05
5.16914e-05
5.17195e-05
5.17441e-05
5.17655e-05
5.17838e-05
5.17992e-05
5.18119e-05
5.18221e-05
5.183e-05
5.1836e-05
5.18401e-05
5.18428e-05
5.18443e-05
5.18447e-05
5.18443e-05
5.18433e-05
0.000939675
0.000835673
0.000745802
0.000667892
0.000600136
0.000541023
0.000489288
0.00044387
0.000403876
0.00036855
0.000337256
0.000309452
0.00028468
0.000262545
0.000242715
0.000224901
0.000208858
0.000194374
0.000181265
0.000169375
0.000158566
0.000148721
0.000139735
0.00013152
0.000123997
0.0001171
0.000110767
0.000104949
9.95991e-05
9.46786e-05
9.0153e-05
8.59919e-05
8.2169e-05
7.86607e-05
7.54464e-05
7.25073e-05
6.98266e-05
6.73887e-05
6.51792e-05
6.31843e-05
6.13908e-05
5.97859e-05
5.83569e-05
5.70915e-05
5.59773e-05
5.50026e-05
5.41555e-05
5.34246e-05
5.27991e-05
5.22686e-05
5.18232e-05
5.14536e-05
5.11513e-05
5.09083e-05
5.07173e-05
5.05717e-05
5.04655e-05
5.03933e-05
5.03501e-05
5.03317e-05
5.03339e-05
5.03532e-05
5.03872e-05
5.04329e-05
5.04878e-05
5.05499e-05
5.06173e-05
5.06885e-05
5.07621e-05
5.08369e-05
5.0912e-05
5.09863e-05
5.10592e-05
5.11301e-05
5.11985e-05
5.12639e-05
5.13261e-05
5.13848e-05
5.14397e-05
5.14909e-05
5.15382e-05
5.15816e-05
5.16211e-05
5.16568e-05
5.16888e-05
5.17173e-05
5.17422e-05
5.17639e-05
5.17825e-05
5.17982e-05
5.18112e-05
5.18217e-05
5.183e-05
5.18362e-05
5.18406e-05
5.18435e-05
5.18451e-05
5.18457e-05
5.18454e-05
5.18445e-05
0.000939675
0.000835674
0.000745804
0.000667896
0.000600141
0.000541029
0.000489296
0.00044388
0.000403887
0.000368562
0.00033727
0.000309468
0.000284696
0.000262563
0.000242733
0.000224921
0.000208878
0.000194395
0.000181287
0.000169398
0.00015859
0.000148745
0.00013976
0.000131546
0.000124024
0.000117127
0.000110795
0.000104977
9.96276e-05
9.47073e-05
9.01817e-05
8.60206e-05
8.21974e-05
7.86887e-05
7.54736e-05
7.25336e-05
6.98518e-05
6.74126e-05
6.52015e-05
6.32049e-05
6.14095e-05
5.98026e-05
5.83715e-05
5.7104e-05
5.59877e-05
5.50108e-05
5.41617e-05
5.34289e-05
5.28016e-05
5.22694e-05
5.18224e-05
5.14514e-05
5.11478e-05
5.09037e-05
5.07118e-05
5.05655e-05
5.04587e-05
5.03859e-05
5.03423e-05
5.03235e-05
5.03256e-05
5.03447e-05
5.03787e-05
5.04244e-05
5.04793e-05
5.05415e-05
5.06091e-05
5.06805e-05
5.07543e-05
5.08294e-05
5.09046e-05
5.09792e-05
5.10525e-05
5.11237e-05
5.11923e-05
5.12581e-05
5.13206e-05
5.13796e-05
5.14348e-05
5.14863e-05
5.1534e-05
5.15777e-05
5.16176e-05
5.16536e-05
5.1686e-05
5.17148e-05
5.17401e-05
5.17621e-05
5.17811e-05
5.17971e-05
5.18104e-05
5.18212e-05
5.18298e-05
5.18363e-05
5.1841e-05
5.18441e-05
5.18459e-05
5.18466e-05
5.18464e-05
5.18456e-05
0.000939676
0.000835675
0.000745806
0.000667899
0.000600146
0.000541036
0.000489304
0.000443889
0.000403897
0.000368575
0.000337283
0.000309482
0.000284712
0.00026258
0.000242752
0.00022494
0.000208899
0.000194417
0.00018131
0.000169422
0.000158615
0.000148771
0.000139787
0.000131573
0.000124052
0.000117155
0.000110824
0.000105007
9.96576e-05
9.47375e-05
9.0212e-05
8.60508e-05
8.22273e-05
7.87181e-05
7.55023e-05
7.25613e-05
6.98783e-05
6.74377e-05
6.5225e-05
6.32266e-05
6.14292e-05
5.98202e-05
5.83869e-05
5.71171e-05
5.59986e-05
5.50195e-05
5.41681e-05
5.34333e-05
5.2804e-05
5.227e-05
5.18214e-05
5.14489e-05
5.1144e-05
5.08988e-05
5.07059e-05
5.05587e-05
5.04512e-05
5.03778e-05
5.03338e-05
5.03147e-05
5.03165e-05
5.03355e-05
5.03694e-05
5.04151e-05
5.04701e-05
5.05324e-05
5.06001e-05
5.06717e-05
5.07458e-05
5.08211e-05
5.08966e-05
5.09715e-05
5.1045e-05
5.11166e-05
5.11856e-05
5.12516e-05
5.13145e-05
5.13738e-05
5.14295e-05
5.14813e-05
5.15293e-05
5.15734e-05
5.16136e-05
5.16501e-05
5.16828e-05
5.17119e-05
5.17376e-05
5.176e-05
5.17793e-05
5.17957e-05
5.18094e-05
5.18206e-05
5.18294e-05
5.18362e-05
5.18412e-05
5.18446e-05
5.18466e-05
5.18475e-05
5.18474e-05
5.18465e-05
0.000939676
0.000835676
0.000745808
0.000667902
0.00060015
0.000541041
0.000489311
0.000443898
0.000403908
0.000368587
0.000337297
0.000309497
0.000284728
0.000262598
0.000242771
0.00022496
0.00020892
0.000194439
0.000181334
0.000169446
0.00015864
0.000148797
0.000139814
0.000131601
0.000124081
0.000117185
0.000110855
0.000105038
9.96889e-05
9.47691e-05
9.02437e-05
8.60823e-05
8.22585e-05
7.87488e-05
7.55322e-05
7.25903e-05
6.9906e-05
6.74639e-05
6.52495e-05
6.32492e-05
6.14497e-05
5.98385e-05
5.84029e-05
5.71307e-05
5.60098e-05
5.50284e-05
5.41748e-05
5.34378e-05
5.28065e-05
5.22706e-05
5.18202e-05
5.14462e-05
5.11399e-05
5.08935e-05
5.06995e-05
5.05514e-05
5.04431e-05
5.03692e-05
5.03247e-05
5.03052e-05
5.03068e-05
5.03256e-05
5.03594e-05
5.04051e-05
5.04602e-05
5.05226e-05
5.05905e-05
5.06623e-05
5.07366e-05
5.08121e-05
5.0888e-05
5.09632e-05
5.1037e-05
5.11089e-05
5.11782e-05
5.12447e-05
5.13078e-05
5.13676e-05
5.14236e-05
5.14758e-05
5.15242e-05
5.15687e-05
5.16093e-05
5.16461e-05
5.16793e-05
5.17088e-05
5.17349e-05
5.17577e-05
5.17774e-05
5.17942e-05
5.18082e-05
5.18197e-05
5.18289e-05
5.1836e-05
5.18413e-05
5.18449e-05
5.18471e-05
5.18482e-05
5.18482e-05
5.18474e-05
0.000939676
0.000835677
0.00074581
0.000667905
0.000600154
0.000541047
0.000489318
0.000443906
0.000403918
0.000368598
0.00033731
0.000309512
0.000284744
0.000262615
0.000242789
0.00022498
0.000208942
0.000194462
0.000181358
0.000169471
0.000158666
0.000148824
0.000139842
0.00013163
0.000124111
0.000117216
0.000110886
0.000105069
9.97213e-05
9.48018e-05
9.02764e-05
8.6115e-05
8.22909e-05
7.87806e-05
7.55633e-05
7.26203e-05
6.99347e-05
6.7491e-05
6.52749e-05
6.32726e-05
6.1471e-05
5.98574e-05
5.84194e-05
5.71448e-05
5.60215e-05
5.50376e-05
5.41817e-05
5.34424e-05
5.2809e-05
5.22711e-05
5.18189e-05
5.14433e-05
5.11355e-05
5.08878e-05
5.06927e-05
5.05437e-05
5.04346e-05
5.036e-05
5.0315e-05
5.02952e-05
5.02964e-05
5.03151e-05
5.03488e-05
5.03945e-05
5.04496e-05
5.05121e-05
5.05802e-05
5.06522e-05
5.07267e-05
5.08026e-05
5.08787e-05
5.09542e-05
5.10284e-05
5.11006e-05
5.11703e-05
5.12371e-05
5.13007e-05
5.13608e-05
5.14172e-05
5.14699e-05
5.15187e-05
5.15636e-05
5.16046e-05
5.16419e-05
5.16754e-05
5.17054e-05
5.17319e-05
5.17551e-05
5.17752e-05
5.17924e-05
5.18068e-05
5.18187e-05
5.18282e-05
5.18357e-05
5.18412e-05
5.18451e-05
5.18475e-05
5.18487e-05
5.18488e-05
5.18481e-05
0.000939676
0.000835678
0.000745812
0.000667908
0.000600158
0.000541052
0.000489325
0.000443915
0.000403927
0.000368609
0.000337323
0.000309526
0.00028476
0.000262632
0.000242808
0.000225
0.000208963
0.000194484
0.000181382
0.000169497
0.000158693
0.000148852
0.000139871
0.00013166
0.000124141
0.000117247
0.000110918
0.000105102
9.97545e-05
9.48353e-05
9.03101e-05
8.61486e-05
8.23241e-05
7.88133e-05
7.55952e-05
7.26511e-05
6.99642e-05
6.75189e-05
6.5301e-05
6.32966e-05
6.14928e-05
5.98769e-05
5.84364e-05
5.71593e-05
5.60334e-05
5.50471e-05
5.41887e-05
5.34471e-05
5.28115e-05
5.22715e-05
5.18175e-05
5.14401e-05
5.11309e-05
5.08818e-05
5.06856e-05
5.05355e-05
5.04256e-05
5.03504e-05
5.03048e-05
5.02846e-05
5.02856e-05
5.0304e-05
5.03376e-05
5.03832e-05
5.04384e-05
5.05011e-05
5.05693e-05
5.06415e-05
5.07163e-05
5.07924e-05
5.08688e-05
5.09447e-05
5.10192e-05
5.10918e-05
5.11619e-05
5.12291e-05
5.12931e-05
5.13536e-05
5.14105e-05
5.14636e-05
5.15128e-05
5.15581e-05
5.15996e-05
5.16373e-05
5.16713e-05
5.17017e-05
5.17286e-05
5.17523e-05
5.17728e-05
5.17904e-05
5.18052e-05
5.18175e-05
5.18274e-05
5.18351e-05
5.18409e-05
5.18451e-05
5.18477e-05
5.18491e-05
5.18493e-05
5.18486e-05
0.000939677
0.000835679
0.000745813
0.000667911
0.000600162
0.000541057
0.000489331
0.000443922
0.000403937
0.00036862
0.000337335
0.00030954
0.000284776
0.000262649
0.000242827
0.00022502
0.000208985
0.000194507
0.000181406
0.000169522
0.00015872
0.00014888
0.0001399
0.00013169
0.000124173
0.000117279
0.000110951
0.000105136
9.97884e-05
9.48696e-05
9.03445e-05
8.61829e-05
8.23581e-05
7.88467e-05
7.56278e-05
7.26826e-05
6.99943e-05
6.75475e-05
6.53276e-05
6.33212e-05
6.15151e-05
5.98968e-05
5.84538e-05
5.71741e-05
5.60457e-05
5.50567e-05
5.41959e-05
5.34519e-05
5.2814e-05
5.22719e-05
5.18159e-05
5.14368e-05
5.1126e-05
5.08755e-05
5.06781e-05
5.0527e-05
5.04163e-05
5.03403e-05
5.02942e-05
5.02735e-05
5.02742e-05
5.02924e-05
5.03259e-05
5.03715e-05
5.04267e-05
5.04895e-05
5.05579e-05
5.06303e-05
5.07053e-05
5.07817e-05
5.08585e-05
5.09347e-05
5.10096e-05
5.10825e-05
5.1153e-05
5.12207e-05
5.12851e-05
5.1346e-05
5.14033e-05
5.14568e-05
5.15065e-05
5.15523e-05
5.15942e-05
5.16324e-05
5.16669e-05
5.16977e-05
5.17251e-05
5.17492e-05
5.17702e-05
5.17882e-05
5.18034e-05
5.1816e-05
5.18263e-05
5.18344e-05
5.18405e-05
5.18449e-05
5.18477e-05
5.18492e-05
5.18496e-05
5.1849e-05
0.000939677
0.00083568
0.000745815
0.000667913
0.000600166
0.000541062
0.000489337
0.00044393
0.000403946
0.000368631
0.000337347
0.000309554
0.000284791
0.000262666
0.000242845
0.00022504
0.000209006
0.00019453
0.00018143
0.000169548
0.000158746
0.000148908
0.000139929
0.00013172
0.000124204
0.000117312
0.000110984
0.00010517
9.98228e-05
9.49043e-05
9.03794e-05
8.62177e-05
8.23926e-05
7.88807e-05
7.56609e-05
7.27146e-05
7.0025e-05
6.75765e-05
6.53548e-05
6.33462e-05
6.15378e-05
5.99171e-05
5.84715e-05
5.71892e-05
5.60581e-05
5.50665e-05
5.42031e-05
5.34567e-05
5.28165e-05
5.22723e-05
5.18143e-05
5.14334e-05
5.11209e-05
5.0869e-05
5.06704e-05
5.05182e-05
5.04066e-05
5.03299e-05
5.02832e-05
5.0262e-05
5.02624e-05
5.02804e-05
5.03137e-05
5.03593e-05
5.04145e-05
5.04774e-05
5.05459e-05
5.06186e-05
5.06938e-05
5.07705e-05
5.08476e-05
5.09242e-05
5.09994e-05
5.10728e-05
5.11437e-05
5.12118e-05
5.12766e-05
5.1338e-05
5.13958e-05
5.14498e-05
5.14999e-05
5.15462e-05
5.15886e-05
5.16272e-05
5.16621e-05
5.16935e-05
5.17213e-05
5.17459e-05
5.17673e-05
5.17857e-05
5.18013e-05
5.18144e-05
5.1825e-05
5.18334e-05
5.18398e-05
5.18445e-05
5.18475e-05
5.18492e-05
5.18497e-05
5.18491e-05
0.000939677
0.00083568
0.000745816
0.000667915
0.000600169
0.000541067
0.000489343
0.000443937
0.000403954
0.000368641
0.000337359
0.000309567
0.000284806
0.000262683
0.000242863
0.00022506
0.000209027
0.000194553
0.000181454
0.000169573
0.000158773
0.000148936
0.000139959
0.000131751
0.000124236
0.000117344
0.000111018
0.000105204
9.98575e-05
9.49394e-05
9.04146e-05
8.62529e-05
8.24275e-05
7.8915e-05
7.56943e-05
7.2747e-05
7.00559e-05
6.76058e-05
6.53822e-05
6.33715e-05
6.15608e-05
5.99375e-05
5.84894e-05
5.72044e-05
5.60706e-05
5.50765e-05
5.42104e-05
5.34615e-05
5.2819e-05
5.22726e-05
5.18126e-05
5.14298e-05
5.11157e-05
5.08624e-05
5.06624e-05
5.05092e-05
5.03966e-05
5.03191e-05
5.02718e-05
5.02502e-05
5.02502e-05
5.02679e-05
5.03012e-05
5.03466e-05
5.04019e-05
5.04649e-05
5.05336e-05
5.06064e-05
5.06819e-05
5.07589e-05
5.08364e-05
5.09133e-05
5.09889e-05
5.10627e-05
5.1134e-05
5.12025e-05
5.12678e-05
5.13297e-05
5.13879e-05
5.14423e-05
5.1493e-05
5.15397e-05
5.15826e-05
5.16217e-05
5.16571e-05
5.16889e-05
5.17173e-05
5.17423e-05
5.17642e-05
5.1783e-05
5.17991e-05
5.18125e-05
5.18235e-05
5.18323e-05
5.1839e-05
5.18439e-05
5.18471e-05
5.1849e-05
5.18496e-05
5.1849e-05
0.000939677
0.000835681
0.000745818
0.000667918
0.000600172
0.000541071
0.000489349
0.000443944
0.000403963
0.000368651
0.00033737
0.00030958
0.00028482
0.000262699
0.000242881
0.000225079
0.000209048
0.000194575
0.000181478
0.000169598
0.0001588
0.000148964
0.000139988
0.000131782
0.000124267
0.000117377
0.000111051
0.000105238
9.98924e-05
9.49746e-05
9.045e-05
8.62882e-05
8.24626e-05
7.89495e-05
7.5728e-05
7.27795e-05
7.00871e-05
6.76353e-05
6.54098e-05
6.3397e-05
6.15839e-05
5.99582e-05
5.85075e-05
5.72198e-05
5.60833e-05
5.50864e-05
5.42178e-05
5.34664e-05
5.28215e-05
5.22728e-05
5.18108e-05
5.14262e-05
5.11104e-05
5.08555e-05
5.06543e-05
5.04999e-05
5.03864e-05
5.03081e-05
5.02602e-05
5.0238e-05
5.02377e-05
5.02552e-05
5.02882e-05
5.03337e-05
5.0389e-05
5.0452e-05
5.05209e-05
5.05939e-05
5.06697e-05
5.0747e-05
5.08247e-05
5.0902e-05
5.0978e-05
5.10522e-05
5.1124e-05
5.11929e-05
5.12587e-05
5.1321e-05
5.13797e-05
5.14346e-05
5.14857e-05
5.1533e-05
5.15764e-05
5.1616e-05
5.16519e-05
5.16842e-05
5.1713e-05
5.17385e-05
5.17608e-05
5.17801e-05
5.17966e-05
5.18104e-05
5.18218e-05
5.18309e-05
5.18379e-05
5.18431e-05
5.18466e-05
5.18486e-05
5.18493e-05
5.18487e-05
0.000939677
0.000835682
0.000745819
0.00066792
0.000600175
0.000541075
0.000489354
0.000443951
0.000403971
0.00036866
0.000337381
0.000309593
0.000284835
0.000262715
0.000242898
0.000225098
0.000209068
0.000194597
0.000181501
0.000169623
0.000158826
0.000148992
0.000140017
0.000131812
0.000124299
0.000117409
0.000111085
0.000105272
9.99272e-05
9.50098e-05
9.04854e-05
8.63236e-05
8.24977e-05
7.8984e-05
7.57617e-05
7.28121e-05
7.01183e-05
6.76649e-05
6.54374e-05
6.34225e-05
6.16071e-05
5.99789e-05
5.85255e-05
5.72352e-05
5.6096e-05
5.50965e-05
5.42252e-05
5.34713e-05
5.28239e-05
5.22731e-05
5.18089e-05
5.14224e-05
5.11049e-05
5.08486e-05
5.0646e-05
5.04905e-05
5.0376e-05
5.02969e-05
5.02483e-05
5.02257e-05
5.0225e-05
5.02422e-05
5.02751e-05
5.03204e-05
5.03757e-05
5.04388e-05
5.05078e-05
5.05811e-05
5.06571e-05
5.07347e-05
5.08128e-05
5.08904e-05
5.09669e-05
5.10414e-05
5.11136e-05
5.1183e-05
5.12492e-05
5.1312e-05
5.13712e-05
5.14267e-05
5.14783e-05
5.1526e-05
5.15699e-05
5.161e-05
5.16464e-05
5.16792e-05
5.17085e-05
5.17345e-05
5.17573e-05
5.1777e-05
5.17939e-05
5.18082e-05
5.18199e-05
5.18293e-05
5.18367e-05
5.18421e-05
5.18458e-05
5.1848e-05
5.18488e-05
5.18483e-05
0.000939677
0.000835682
0.00074582
0.000667922
0.000600178
0.000541079
0.000489359
0.000443957
0.000403979
0.00036867
0.000337392
0.000309605
0.000284848
0.00026273
0.000242915
0.000225117
0.000209089
0.000194619
0.000181525
0.000169648
0.000158853
0.00014902
0.000140046
0.000131842
0.00012433
0.000117442
0.000111118
0.000105306
9.99618e-05
9.50449e-05
9.05207e-05
8.63588e-05
8.25326e-05
7.90184e-05
7.57953e-05
7.28446e-05
7.01495e-05
6.76944e-05
6.5465e-05
6.3448e-05
6.16303e-05
5.99995e-05
5.85436e-05
5.72506e-05
5.61087e-05
5.51065e-05
5.42326e-05
5.34761e-05
5.28264e-05
5.22733e-05
5.18071e-05
5.14186e-05
5.10994e-05
5.08415e-05
5.06376e-05
5.0481e-05
5.03655e-05
5.02856e-05
5.02363e-05
5.02131e-05
5.02121e-05
5.02289e-05
5.02617e-05
5.03069e-05
5.03622e-05
5.04254e-05
5.04946e-05
5.0568e-05
5.06443e-05
5.07222e-05
5.08006e-05
5.08786e-05
5.09554e-05
5.10304e-05
5.11031e-05
5.11729e-05
5.12396e-05
5.13029e-05
5.13625e-05
5.14184e-05
5.14705e-05
5.15188e-05
5.15632e-05
5.16038e-05
5.16407e-05
5.1674e-05
5.17038e-05
5.17303e-05
5.17535e-05
5.17737e-05
5.1791e-05
5.18057e-05
5.18178e-05
5.18276e-05
5.18352e-05
5.18409e-05
5.18448e-05
5.18472e-05
5.18481e-05
5.18476e-05
0.000939678
0.000835683
0.000745822
0.000667924
0.000600181
0.000541083
0.000489364
0.000443963
0.000403986
0.000368679
0.000337403
0.000309617
0.000284862
0.000262745
0.000242932
0.000225135
0.000209108
0.00019464
0.000181547
0.000169672
0.000158878
0.000149047
0.000140074
0.000131872
0.000124361
0.000117474
0.000111151
0.00010534
9.99962e-05
9.50796e-05
9.05557e-05
8.63938e-05
8.25673e-05
7.90526e-05
7.58287e-05
7.28769e-05
7.01804e-05
6.77237e-05
6.54925e-05
6.34733e-05
6.16533e-05
6.00201e-05
5.85616e-05
5.72659e-05
5.61213e-05
5.51164e-05
5.42399e-05
5.34809e-05
5.28288e-05
5.22734e-05
5.18051e-05
5.14148e-05
5.10939e-05
5.08345e-05
5.06292e-05
5.04714e-05
5.03549e-05
5.02742e-05
5.02242e-05
5.02005e-05
5.0199e-05
5.02156e-05
5.02481e-05
5.02933e-05
5.03486e-05
5.04119e-05
5.04811e-05
5.05548e-05
5.06313e-05
5.07095e-05
5.07882e-05
5.08666e-05
5.09438e-05
5.10192e-05
5.10923e-05
5.11625e-05
5.12297e-05
5.12935e-05
5.13536e-05
5.141e-05
5.14626e-05
5.15114e-05
5.15563e-05
5.15975e-05
5.16349e-05
5.16686e-05
5.16989e-05
5.17259e-05
5.17496e-05
5.17702e-05
5.1788e-05
5.1803e-05
5.18155e-05
5.18256e-05
5.18336e-05
5.18395e-05
5.18436e-05
5.18462e-05
5.18472e-05
5.18468e-05
0.000939678
0.000835684
0.000745823
0.000667926
0.000600184
0.000541087
0.000489369
0.000443969
0.000403993
0.000368687
0.000337413
0.000309628
0.000284875
0.00026276
0.000242948
0.000225153
0.000209128
0.000194661
0.00018157
0.000169696
0.000158904
0.000149073
0.000140103
0.000131901
0.000124392
0.000117505
0.000111183
0.000105373
0.00010003
9.5114e-05
9.05902e-05
8.64283e-05
8.26016e-05
7.90864e-05
7.58617e-05
7.29089e-05
7.0211e-05
6.77527e-05
6.55196e-05
6.34984e-05
6.16761e-05
6.00405e-05
5.85794e-05
5.72811e-05
5.61338e-05
5.51263e-05
5.42472e-05
5.34857e-05
5.28312e-05
5.22736e-05
5.18032e-05
5.1411e-05
5.10883e-05
5.08274e-05
5.06208e-05
5.04618e-05
5.03443e-05
5.02627e-05
5.0212e-05
5.01878e-05
5.01859e-05
5.02022e-05
5.02345e-05
5.02796e-05
5.03348e-05
5.03982e-05
5.04676e-05
5.05414e-05
5.06182e-05
5.06966e-05
5.07757e-05
5.08544e-05
5.0932e-05
5.10078e-05
5.10813e-05
5.11521e-05
5.12197e-05
5.12839e-05
5.13446e-05
5.14015e-05
5.14546e-05
5.15039e-05
5.15493e-05
5.15909e-05
5.16288e-05
5.16631e-05
5.16939e-05
5.17213e-05
5.17455e-05
5.17666e-05
5.17848e-05
5.18002e-05
5.18131e-05
5.18235e-05
5.18318e-05
5.1838e-05
5.18423e-05
5.1845e-05
5.18461e-05
5.18457e-05
0.000939678
0.000835684
0.000745824
0.000667927
0.000600186
0.00054109
0.000489374
0.000443975
0.000404
0.000368696
0.000337422
0.00030964
0.000284887
0.000262774
0.000242964
0.00022517
0.000209146
0.000194681
0.000181592
0.00016972
0.000158929
0.0001491
0.00014013
0.00013193
0.000124422
0.000117536
0.000111215
0.000105406
0.000100063
9.51477e-05
9.06242e-05
8.64624e-05
8.26354e-05
7.91197e-05
7.58942e-05
7.29404e-05
7.02412e-05
6.77813e-05
6.55464e-05
6.35231e-05
6.16986e-05
6.00606e-05
5.8597e-05
5.72961e-05
5.61462e-05
5.51361e-05
5.42544e-05
5.34904e-05
5.28336e-05
5.22737e-05
5.18013e-05
5.14071e-05
5.10828e-05
5.08203e-05
5.06123e-05
5.04522e-05
5.03337e-05
5.02512e-05
5.01999e-05
5.01751e-05
5.01728e-05
5.01887e-05
5.02208e-05
5.02658e-05
5.03211e-05
5.03844e-05
5.04539e-05
5.05279e-05