/*--------------------------------*- C++ -*----------------------------------*\
  =========                 |
  \\      /  F ield         | OpenFOAM: The Open Source CFD Toolbox
   \\    /   O peration     | Website:  https://openfoam.org
    \\  /    A nd           | Version:  11
     \\/     M anipulation  |
\*---------------------------------------------------------------------------*/
FoamFile
{
    format      ascii;
    class       volScalarField;
    location    "694";
    object      k;
}
// * * * * * * * * * * * * * * * * * * * * * * * * * * * * * * * * * * * * * //

dimensions      [0 2 -2 0 0 0 0];

internalField   nonuniform List<scalar> 
10000
(
0.000939687
0.000835719
0.000745891
0.000668035
0.000600343
0.000541303
0.00048965
0.000444321
0.000404423
0.000369199
0.000338012
0.000310319
0.000285661
0.000263643
0.00024393
0.000226234
0.000210309
0.00019594
0.000182945
0.000171163
0.000160457
0.000150708
0.000141809
0.000133669
0.000126209
0.000119358
0.000113054
0.000107242
0.000101874
9.69083e-05
9.23058e-05
8.8033e-05
8.40601e-05
8.03601e-05
7.69091e-05
7.36856e-05
7.06702e-05
6.78457e-05
6.51965e-05
6.27083e-05
6.03685e-05
5.81654e-05
5.60887e-05
5.41289e-05
5.22772e-05
5.05257e-05
4.88674e-05
4.72956e-05
4.58043e-05
4.43881e-05
4.30418e-05
4.17608e-05
4.0541e-05
3.93782e-05
3.82691e-05
3.72101e-05
3.61982e-05
3.52306e-05
3.43047e-05
3.34179e-05
3.25681e-05
3.17532e-05
3.09712e-05
3.02203e-05
2.94989e-05
2.88053e-05
2.81382e-05
2.74961e-05
2.6878e-05
2.62825e-05
2.57087e-05
2.51555e-05
2.4622e-05
2.41073e-05
2.36108e-05
2.31316e-05
2.26691e-05
2.22227e-05
2.17919e-05
2.13761e-05
2.09749e-05
2.05879e-05
2.02147e-05
1.98552e-05
1.9509e-05
1.91759e-05
1.8856e-05
1.85491e-05
1.82553e-05
1.79749e-05
1.77082e-05
1.74556e-05
1.72181e-05
1.69967e-05
1.67931e-05
1.66096e-05
1.64493e-05
1.63165e-05
1.62175e-05
1.61606e-05
0.000939687
0.000835719
0.000745891
0.000668035
0.000600343
0.000541303
0.00048965
0.000444321
0.000404423
0.000369199
0.000338012
0.000310319
0.000285661
0.000263643
0.00024393
0.000226234
0.000210309
0.00019594
0.000182945
0.000171163
0.000160458
0.000150708
0.000141809
0.000133669
0.000126209
0.000119358
0.000113054
0.000107242
0.000101874
9.69084e-05
9.23059e-05
8.80331e-05
8.40602e-05
8.03602e-05
7.69092e-05
7.36857e-05
7.06703e-05
6.78459e-05
6.51966e-05
6.27084e-05
6.03686e-05
5.81656e-05
5.60889e-05
5.4129e-05
5.22773e-05
5.05259e-05
4.88676e-05
4.72958e-05
4.58045e-05
4.43883e-05
4.3042e-05
4.1761e-05
4.05412e-05
3.93784e-05
3.82692e-05
3.72103e-05
3.61984e-05
3.52308e-05
3.43049e-05
3.34181e-05
3.25684e-05
3.17534e-05
3.09714e-05
3.02205e-05
2.94991e-05
2.88055e-05
2.81384e-05
2.74964e-05
2.68782e-05
2.62828e-05
2.57089e-05
2.51557e-05
2.46222e-05
2.41076e-05
2.36111e-05
2.31319e-05
2.26694e-05
2.2223e-05
2.17922e-05
2.13764e-05
2.09752e-05
2.05882e-05
2.0215e-05
1.98555e-05
1.95092e-05
1.91762e-05
1.88563e-05
1.85494e-05
1.82556e-05
1.79752e-05
1.77084e-05
1.74559e-05
1.72183e-05
1.6997e-05
1.67934e-05
1.66098e-05
1.64495e-05
1.63167e-05
1.62177e-05
1.61608e-05
0.000939687
0.000835719
0.000745891
0.000668035
0.000600343
0.000541303
0.00048965
0.000444321
0.000404423
0.000369199
0.000338012
0.00031032
0.000285661
0.000263643
0.00024393
0.000226235
0.000210309
0.00019594
0.000182945
0.000171163
0.000160458
0.000150708
0.000141809
0.000133669
0.000126209
0.000119358
0.000113054
0.000107242
0.000101875
9.69086e-05
9.2306e-05
8.80333e-05
8.40604e-05
8.03604e-05
7.69094e-05
7.36859e-05
7.06706e-05
6.78461e-05
6.51968e-05
6.27087e-05
6.03689e-05
5.81658e-05
5.60892e-05
5.41293e-05
5.22776e-05
5.05262e-05
4.88679e-05
4.72961e-05
4.58048e-05
4.43886e-05
4.30423e-05
4.17614e-05
4.05415e-05
3.93788e-05
3.82696e-05
3.72106e-05
3.61988e-05
3.52312e-05
3.43053e-05
3.34186e-05
3.25688e-05
3.17539e-05
3.09719e-05
3.0221e-05
2.94996e-05
2.8806e-05
2.81389e-05
2.74969e-05
2.68787e-05
2.62833e-05
2.57094e-05
2.51562e-05
2.46228e-05
2.41082e-05
2.36116e-05
2.31325e-05
2.267e-05
2.22236e-05
2.17927e-05
2.13769e-05
2.09757e-05
2.05887e-05
2.02156e-05
1.9856e-05
1.95098e-05
1.91768e-05
1.88568e-05
1.85499e-05
1.82562e-05
1.79757e-05
1.7709e-05
1.74564e-05
1.72188e-05
1.69975e-05
1.67938e-05
1.66103e-05
1.64499e-05
1.63172e-05
1.62181e-05
1.61612e-05
0.000939687
0.000835719
0.000745891
0.000668035
0.000600343
0.000541303
0.00048965
0.000444321
0.000404423
0.000369199
0.000338012
0.00031032
0.000285661
0.000263643
0.00024393
0.000226235
0.000210309
0.000195941
0.000182945
0.000171164
0.000160458
0.000150708
0.000141809
0.00013367
0.000126209
0.000119358
0.000113054
0.000107242
0.000101875
9.69089e-05
9.23063e-05
8.80336e-05
8.40607e-05
8.03607e-05
7.69097e-05
7.36862e-05
7.06709e-05
6.78465e-05
6.51972e-05
6.27091e-05
6.03693e-05
5.81662e-05
5.60896e-05
5.41297e-05
5.2278e-05
5.05266e-05
4.88683e-05
4.72966e-05
4.58053e-05
4.43891e-05
4.30428e-05
4.17619e-05
4.0542e-05
3.93793e-05
3.82702e-05
3.72112e-05
3.61994e-05
3.52318e-05
3.43059e-05
3.34192e-05
3.25694e-05
3.17545e-05
3.09725e-05
3.02217e-05
2.95002e-05
2.88067e-05
2.81396e-05
2.74976e-05
2.68795e-05
2.6284e-05
2.57102e-05
2.5157e-05
2.46236e-05
2.4109e-05
2.36124e-05
2.31333e-05
2.26708e-05
2.22244e-05
2.17936e-05
2.13778e-05
2.09766e-05
2.05896e-05
2.02164e-05
1.98569e-05
1.95107e-05
1.91776e-05
1.88577e-05
1.85508e-05
1.8257e-05
1.79765e-05
1.77097e-05
1.74572e-05
1.72196e-05
1.69982e-05
1.67945e-05
1.66109e-05
1.64506e-05
1.63178e-05
1.62187e-05
1.61618e-05
0.000939687
0.000835719
0.000745891
0.000668036
0.000600343
0.000541303
0.00048965
0.000444321
0.000404423
0.000369199
0.000338012
0.00031032
0.000285661
0.000263643
0.00024393
0.000226235
0.000210309
0.000195941
0.000182945
0.000171164
0.000160458
0.000150708
0.000141809
0.00013367
0.00012621
0.000119359
0.000113055
0.000107243
0.000101875
9.69092e-05
9.23067e-05
8.8034e-05
8.40611e-05
8.03611e-05
7.69102e-05
7.36867e-05
7.06714e-05
6.78469e-05
6.51977e-05
6.27096e-05
6.03698e-05
5.81668e-05
5.60901e-05
5.41303e-05
5.22786e-05
5.05272e-05
4.88689e-05
4.72972e-05
4.58059e-05
4.43897e-05
4.30435e-05
4.17626e-05
4.05427e-05
3.93801e-05
3.82709e-05
3.7212e-05
3.62001e-05
3.52326e-05
3.43067e-05
3.342e-05
3.25703e-05
3.17554e-05
3.09734e-05
3.02226e-05
2.95012e-05
2.88076e-05
2.81405e-05
2.74986e-05
2.68804e-05
2.6285e-05
2.57112e-05
2.51581e-05
2.46246e-05
2.411e-05
2.36135e-05
2.31344e-05
2.26719e-05
2.22255e-05
2.17947e-05
2.13789e-05
2.09777e-05
2.05907e-05
2.02176e-05
1.9858e-05
1.95118e-05
1.91787e-05
1.88588e-05
1.85518e-05
1.8258e-05
1.79776e-05
1.77107e-05
1.74581e-05
1.72205e-05
1.69991e-05
1.67954e-05
1.66118e-05
1.64514e-05
1.63186e-05
1.62195e-05
1.61626e-05
0.000939687
0.000835719
0.000745891
0.000668036
0.000600343
0.000541303
0.00048965
0.000444321
0.000404423
0.0003692
0.000338012
0.00031032
0.000285661
0.000263643
0.000243931
0.000226235
0.00021031
0.000195941
0.000182946
0.000171164
0.000160458
0.000150709
0.00014181
0.00013367
0.00012621
0.000119359
0.000113055
0.000107243
0.000101876
9.69097e-05
9.23072e-05
8.80345e-05
8.40616e-05
8.03617e-05
7.69107e-05
7.36872e-05
7.0672e-05
6.78475e-05
6.51983e-05
6.27102e-05
6.03704e-05
5.81674e-05
5.60908e-05
5.4131e-05
5.22793e-05
5.05279e-05
4.88697e-05
4.72979e-05
4.58067e-05
4.43905e-05
4.30443e-05
4.17634e-05
4.05436e-05
3.93809e-05
3.82718e-05
3.72129e-05
3.62011e-05
3.52336e-05
3.43077e-05
3.3421e-05
3.25713e-05
3.17564e-05
3.09745e-05
3.02237e-05
2.95023e-05
2.88088e-05
2.81417e-05
2.74997e-05
2.68816e-05
2.62862e-05
2.57125e-05
2.51593e-05
2.46259e-05
2.41113e-05
2.36148e-05
2.31357e-05
2.26732e-05
2.22269e-05
2.17961e-05
2.13803e-05
2.09791e-05
2.05921e-05
2.02189e-05
1.98594e-05
1.95131e-05
1.91801e-05
1.88601e-05
1.85531e-05
1.82593e-05
1.79788e-05
1.7712e-05
1.74594e-05
1.72217e-05
1.70002e-05
1.67965e-05
1.66129e-05
1.64524e-05
1.63196e-05
1.62205e-05
1.61635e-05
0.000939687
0.000835719
0.000745891
0.000668036
0.000600343
0.000541303
0.00048965
0.000444322
0.000404423
0.0003692
0.000338013
0.00031032
0.000285661
0.000263644
0.000243931
0.000226235
0.00021031
0.000195941
0.000182946
0.000171164
0.000160459
0.000150709
0.00014181
0.000133671
0.000126211
0.000119359
0.000113055
0.000107244
0.000101876
9.69102e-05
9.23077e-05
8.80351e-05
8.40622e-05
8.03623e-05
7.69113e-05
7.36879e-05
7.06726e-05
6.78482e-05
6.5199e-05
6.27109e-05
6.03711e-05
5.81682e-05
5.60916e-05
5.41318e-05
5.22801e-05
5.05288e-05
4.88705e-05
4.72988e-05
4.58076e-05
4.43915e-05
4.30453e-05
4.17644e-05
4.05446e-05
3.9382e-05
3.82729e-05
3.7214e-05
3.62022e-05
3.52347e-05
3.43088e-05
3.34222e-05
3.25725e-05
3.17577e-05
3.09758e-05
3.02249e-05
2.95036e-05
2.88101e-05
2.81431e-05
2.75011e-05
2.6883e-05
2.62877e-05
2.57139e-05
2.51608e-05
2.46274e-05
2.41128e-05
2.36164e-05
2.31372e-05
2.26748e-05
2.22285e-05
2.17977e-05
2.13819e-05
2.09807e-05
2.05937e-05
2.02205e-05
1.9861e-05
1.95147e-05
1.91817e-05
1.88617e-05
1.85547e-05
1.82609e-05
1.79803e-05
1.77135e-05
1.74608e-05
1.72231e-05
1.70016e-05
1.67978e-05
1.66141e-05
1.64536e-05
1.63208e-05
1.62216e-05
1.61646e-05
0.000939687
0.000835719
0.000745891
0.000668036
0.000600343
0.000541303
0.00048965
0.000444322
0.000404423
0.0003692
0.000338013
0.00031032
0.000285662
0.000263644
0.000243931
0.000226236
0.00021031
0.000195942
0.000182946
0.000171165
0.000160459
0.000150709
0.000141811
0.000133671
0.000126211
0.00011936
0.000113056
0.000107244
0.000101877
9.69108e-05
9.23083e-05
8.80357e-05
8.40628e-05
8.03629e-05
7.6912e-05
7.36886e-05
7.06734e-05
6.7849e-05
6.51998e-05
6.27117e-05
6.0372e-05
5.81691e-05
5.60925e-05
5.41327e-05
5.22811e-05
5.05297e-05
4.88715e-05
4.72998e-05
4.58087e-05
4.43925e-05
4.30464e-05
4.17655e-05
4.05458e-05
3.93831e-05
3.82741e-05
3.72152e-05
3.62035e-05
3.5236e-05
3.43102e-05
3.34236e-05
3.25739e-05
3.17591e-05
3.09772e-05
3.02264e-05
2.95051e-05
2.88116e-05
2.81446e-05
2.75027e-05
2.68847e-05
2.62893e-05
2.57156e-05
2.51625e-05
2.46291e-05
2.41146e-05
2.36181e-05
2.3139e-05
2.26766e-05
2.22303e-05
2.17995e-05
2.13837e-05
2.09825e-05
2.05955e-05
2.02224e-05
1.98628e-05
1.95166e-05
1.91835e-05
1.88635e-05
1.85565e-05
1.82626e-05
1.7982e-05
1.77151e-05
1.74624e-05
1.72247e-05
1.70031e-05
1.67993e-05
1.66156e-05
1.6455e-05
1.63221e-05
1.62229e-05
1.61659e-05
0.000939687
0.000835719
0.000745891
0.000668036
0.000600343
0.000541303
0.00048965
0.000444322
0.000404423
0.0003692
0.000338013
0.000310321
0.000285662
0.000263644
0.000243932
0.000226236
0.000210311
0.000195942
0.000182947
0.000171165
0.00016046
0.00015071
0.000141811
0.000133672
0.000126212
0.000119361
0.000113057
0.000107245
0.000101877
9.69115e-05
9.2309e-05
8.80364e-05
8.40636e-05
8.03637e-05
7.69128e-05
7.36894e-05
7.06742e-05
6.78498e-05
6.52007e-05
6.27126e-05
6.03729e-05
5.817e-05
5.60935e-05
5.41337e-05
5.22821e-05
5.05308e-05
4.88726e-05
4.7301e-05
4.58098e-05
4.43937e-05
4.30476e-05
4.17668e-05
4.0547e-05
3.93845e-05
3.82754e-05
3.72166e-05
3.62049e-05
3.52374e-05
3.43116e-05
3.34251e-05
3.25754e-05
3.17607e-05
3.09788e-05
3.02281e-05
2.95068e-05
2.88133e-05
2.81464e-05
2.75045e-05
2.68865e-05
2.62911e-05
2.57174e-05
2.51644e-05
2.4631e-05
2.41165e-05
2.36201e-05
2.3141e-05
2.26786e-05
2.22323e-05
2.18015e-05
2.13857e-05
2.09846e-05
2.05976e-05
2.02244e-05
1.98649e-05
1.95186e-05
1.91855e-05
1.88654e-05
1.85584e-05
1.82645e-05
1.79839e-05
1.7717e-05
1.74642e-05
1.72264e-05
1.70048e-05
1.68009e-05
1.66171e-05
1.64565e-05
1.63236e-05
1.62243e-05
1.61673e-05
0.000939687
0.000835719
0.000745892
0.000668036
0.000600343
0.000541303
0.00048965
0.000444322
0.000404424
0.0003692
0.000338013
0.000310321
0.000285662
0.000263645
0.000243932
0.000226236
0.000210311
0.000195942
0.000182947
0.000171166
0.00016046
0.00015071
0.000141812
0.000133672
0.000126212
0.000119361
0.000113057
0.000107246
0.000101878
9.69122e-05
9.23098e-05
8.80372e-05
8.40644e-05
8.03645e-05
7.69137e-05
7.36903e-05
7.06751e-05
6.78508e-05
6.52017e-05
6.27136e-05
6.0374e-05
5.81711e-05
5.60945e-05
5.41348e-05
5.22833e-05
5.0532e-05
4.88739e-05
4.73022e-05
4.58111e-05
4.4395e-05
4.30489e-05
4.17682e-05
4.05485e-05
3.93859e-05
3.82769e-05
3.72181e-05
3.62064e-05
3.5239e-05
3.43133e-05
3.34267e-05
3.25771e-05
3.17624e-05
3.09806e-05
3.02299e-05
2.95086e-05
2.88152e-05
2.81483e-05
2.75064e-05
2.68884e-05
2.62932e-05
2.57195e-05
2.51664e-05
2.46331e-05
2.41186e-05
2.36222e-05
2.31432e-05
2.26808e-05
2.22345e-05
2.18037e-05
2.1388e-05
2.09868e-05
2.05998e-05
2.02267e-05
1.98671e-05
1.95208e-05
1.91877e-05
1.88676e-05
1.85606e-05
1.82667e-05
1.7986e-05
1.7719e-05
1.74662e-05
1.72283e-05
1.70067e-05
1.68027e-05
1.66189e-05
1.64582e-05
1.63252e-05
1.62259e-05
1.61689e-05
0.000939687
0.000835719
0.000745892
0.000668036
0.000600343
0.000541303
0.000489651
0.000444322
0.000404424
0.0003692
0.000338014
0.000310321
0.000285663
0.000263645
0.000243932
0.000226237
0.000210311
0.000195943
0.000182948
0.000171166
0.000160461
0.000150711
0.000141812
0.000133673
0.000126213
0.000119362
0.000113058
0.000107246
0.000101879
9.6913e-05
9.23106e-05
8.8038e-05
8.40653e-05
8.03654e-05
7.69146e-05
7.36913e-05
7.06761e-05
6.78518e-05
6.52027e-05
6.27147e-05
6.03751e-05
5.81722e-05
5.60957e-05
5.4136e-05
5.22845e-05
5.05333e-05
4.88752e-05
4.73036e-05
4.58125e-05
4.43965e-05
4.30504e-05
4.17696e-05
4.055e-05
3.93875e-05
3.82785e-05
3.72197e-05
3.62081e-05
3.52407e-05
3.4315e-05
3.34285e-05
3.2579e-05
3.17643e-05
3.09825e-05
3.02318e-05
2.95106e-05
2.88172e-05
2.81503e-05
2.75085e-05
2.68906e-05
2.62953e-05
2.57217e-05
2.51687e-05
2.46354e-05
2.41209e-05
2.36246e-05
2.31455e-05
2.26832e-05
2.22369e-05
2.18061e-05
2.13904e-05
2.09892e-05
2.06023e-05
2.02291e-05
1.98695e-05
1.95232e-05
1.91901e-05
1.887e-05
1.85629e-05
1.82689e-05
1.79882e-05
1.77212e-05
1.74683e-05
1.72304e-05
1.70087e-05
1.68047e-05
1.66207e-05
1.646e-05
1.63269e-05
1.62276e-05
1.61706e-05
0.000939687
0.000835719
0.000745892
0.000668036
0.000600343
0.000541304
0.000489651
0.000444322
0.000404424
0.000369201
0.000338014
0.000310321
0.000285663
0.000263645
0.000243933
0.000226237
0.000210312
0.000195943
0.000182948
0.000171167
0.000160461
0.000150712
0.000141813
0.000133674
0.000126214
0.000119363
0.000113059
0.000107247
0.00010188
9.69138e-05
9.23115e-05
8.80389e-05
8.40662e-05
8.03664e-05
7.69156e-05
7.36923e-05
7.06772e-05
6.78529e-05
6.52038e-05
6.27159e-05
6.03763e-05
5.81735e-05
5.6097e-05
5.41373e-05
5.22858e-05
5.05347e-05
4.88766e-05
4.7305e-05
4.5814e-05
4.4398e-05
4.30519e-05
4.17712e-05
4.05516e-05
3.93891e-05
3.82802e-05
3.72215e-05
3.62099e-05
3.52426e-05
3.43169e-05
3.34304e-05
3.25809e-05
3.17663e-05
3.09845e-05
3.02339e-05
2.95127e-05
2.88194e-05
2.81525e-05
2.75108e-05
2.68929e-05
2.62977e-05
2.57241e-05
2.51711e-05
2.46378e-05
2.41234e-05
2.36271e-05
2.31481e-05
2.26857e-05
2.22395e-05
2.18087e-05
2.1393e-05
2.09918e-05
2.06049e-05
2.02317e-05
1.98721e-05
1.95258e-05
1.91926e-05
1.88725e-05
1.85654e-05
1.82714e-05
1.79906e-05
1.77235e-05
1.74706e-05
1.72326e-05
1.70108e-05
1.68067e-05
1.66227e-05
1.64619e-05
1.63288e-05
1.62294e-05
1.61723e-05
0.000939687
0.000835719
0.000745892
0.000668036
0.000600344
0.000541304
0.000489651
0.000444322
0.000404424
0.000369201
0.000338014
0.000310322
0.000285663
0.000263646
0.000243933
0.000226238
0.000210312
0.000195944
0.000182949
0.000171167
0.000160462
0.000150712
0.000141813
0.000133674
0.000126214
0.000119363
0.000113059
0.000107248
0.000101881
9.69147e-05
9.23124e-05
8.80399e-05
8.40672e-05
8.03674e-05
7.69166e-05
7.36934e-05
7.06783e-05
6.7854e-05
6.5205e-05
6.27171e-05
6.03775e-05
5.81747e-05
5.60983e-05
5.41387e-05
5.22873e-05
5.05361e-05
4.88781e-05
4.73065e-05
4.58155e-05
4.43996e-05
4.30536e-05
4.17729e-05
4.05533e-05
3.93909e-05
3.8282e-05
3.72233e-05
3.62118e-05
3.52445e-05
3.43189e-05
3.34325e-05
3.2583e-05
3.17684e-05
3.09867e-05
3.02361e-05
2.9515e-05
2.88217e-05
2.81549e-05
2.75132e-05
2.68953e-05
2.63001e-05
2.57266e-05
2.51736e-05
2.46404e-05
2.4126e-05
2.36297e-05
2.31507e-05
2.26884e-05
2.22422e-05
2.18114e-05
2.13957e-05
2.09946e-05
2.06076e-05
2.02344e-05
1.98748e-05
1.95285e-05
1.91953e-05
1.88752e-05
1.8568e-05
1.82739e-05
1.79932e-05
1.7726e-05
1.7473e-05
1.72349e-05
1.7013e-05
1.68089e-05
1.66248e-05
1.64639e-05
1.63307e-05
1.62313e-05
1.61742e-05
0.000939687
0.000835719
0.000745892
0.000668036
0.000600344
0.000541304
0.000489651
0.000444323
0.000404424
0.000369201
0.000338014
0.000310322
0.000285664
0.000263646
0.000243933
0.000226238
0.000210313
0.000195944
0.000182949
0.000171168
0.000160462
0.000150713
0.000141814
0.000133675
0.000126215
0.000119364
0.00011306
0.000107249
0.000101881
9.69156e-05
9.23133e-05
8.80409e-05
8.40682e-05
8.03685e-05
7.69177e-05
7.36945e-05
7.06794e-05
6.78552e-05
6.52063e-05
6.27184e-05
6.03788e-05
5.81761e-05
5.60997e-05
5.41401e-05
5.22887e-05
5.05376e-05
4.88796e-05
4.73081e-05
4.58172e-05
4.44013e-05
4.30553e-05
4.17747e-05
4.05552e-05
3.93928e-05
3.82839e-05
3.72253e-05
3.62138e-05
3.52465e-05
3.4321e-05
3.34346e-05
3.25852e-05
3.17706e-05
3.0989e-05
3.02384e-05
2.95173e-05
2.88241e-05
2.81573e-05
2.75157e-05
2.68978e-05
2.63027e-05
2.57292e-05
2.51763e-05
2.46431e-05
2.41287e-05
2.36325e-05
2.31535e-05
2.26912e-05
2.2245e-05
2.18143e-05
2.13986e-05
2.09974e-05
2.06105e-05
2.02373e-05
1.98777e-05
1.95313e-05
1.91981e-05
1.88779e-05
1.85708e-05
1.82766e-05
1.79958e-05
1.77286e-05
1.74755e-05
1.72374e-05
1.70154e-05
1.68111e-05
1.6627e-05
1.6466e-05
1.63328e-05
1.62333e-05
1.61762e-05
0.000939687
0.000835719
0.000745892
0.000668036
0.000600344
0.000541304
0.000489651
0.000444323
0.000404424
0.000369201
0.000338015
0.000310322
0.000285664
0.000263646
0.000243934
0.000226238
0.000210313
0.000195945
0.00018295
0.000171168
0.000160463
0.000150713
0.000141815
0.000133676
0.000126216
0.000119365
0.000113061
0.00010725
0.000101882
9.69165e-05
9.23143e-05
8.80419e-05
8.40692e-05
8.03695e-05
7.69189e-05
7.36957e-05
7.06807e-05
6.78565e-05
6.52075e-05
6.27197e-05
6.03802e-05
5.81775e-05
5.61012e-05
5.41416e-05
5.22903e-05
5.05392e-05
4.88812e-05
4.73098e-05
4.58189e-05
4.4403e-05
4.30571e-05
4.17765e-05
4.0557e-05
3.93947e-05
3.82859e-05
3.72273e-05
3.62159e-05
3.52487e-05
3.43231e-05
3.34368e-05
3.25874e-05
3.17729e-05
3.09913e-05
3.02408e-05
2.95198e-05
2.88266e-05
2.81599e-05
2.75183e-05
2.69005e-05
2.63054e-05
2.57319e-05
2.5179e-05
2.46459e-05
2.41316e-05
2.36353e-05
2.31564e-05
2.26942e-05
2.2248e-05
2.18173e-05
2.14016e-05
2.10004e-05
2.06135e-05
2.02403e-05
1.98807e-05
1.95343e-05
1.92011e-05
1.88808e-05
1.85736e-05
1.82794e-05
1.79985e-05
1.77312e-05
1.74781e-05
1.72399e-05
1.70178e-05
1.68135e-05
1.66292e-05
1.64682e-05
1.63349e-05
1.62354e-05
1.61782e-05
0.000939687
0.000835719
0.000745892
0.000668036
0.000600344
0.000541304
0.000489651
0.000444323
0.000404425
0.000369202
0.000338015
0.000310323
0.000285664
0.000263647
0.000243934
0.000226239
0.000210314
0.000195945
0.00018295
0.000171169
0.000160464
0.000150714
0.000141815
0.000133676
0.000126217
0.000119366
0.000113062
0.00010725
0.000101883
9.69175e-05
9.23153e-05
8.80429e-05
8.40703e-05
8.03707e-05
7.692e-05
7.36969e-05
7.06819e-05
6.78578e-05
6.52089e-05
6.27211e-05
6.03816e-05
5.8179e-05
5.61026e-05
5.41432e-05
5.22918e-05
5.05408e-05
4.88829e-05
4.73115e-05
4.58206e-05
4.44048e-05
4.3059e-05
4.17784e-05
4.0559e-05
3.93967e-05
3.8288e-05
3.72294e-05
3.6218e-05
3.52509e-05
3.43254e-05
3.34391e-05
3.25898e-05
3.17753e-05
3.09938e-05
3.02433e-05
2.95223e-05
2.88292e-05
2.81625e-05
2.75209e-05
2.69032e-05
2.63081e-05
2.57347e-05
2.51819e-05
2.46488e-05
2.41345e-05
2.36383e-05
2.31594e-05
2.26972e-05
2.2251e-05
2.18203e-05
2.14046e-05
2.10035e-05
2.06165e-05
2.02434e-05
1.98837e-05
1.95373e-05
1.92041e-05
1.88838e-05
1.85765e-05
1.82823e-05
1.80014e-05
1.7734e-05
1.74808e-05
1.72425e-05
1.70203e-05
1.68159e-05
1.66316e-05
1.64705e-05
1.63371e-05
1.62375e-05
1.61803e-05
0.000939687
0.000835719
0.000745892
0.000668036
0.000600344
0.000541304
0.000489651
0.000444323
0.000404425
0.000369202
0.000338015
0.000310323
0.000285664
0.000263647
0.000243935
0.000226239
0.000210314
0.000195946
0.000182951
0.00017117
0.000160464
0.000150715
0.000141816
0.000133677
0.000126217
0.000119367
0.000113063
0.000107251
0.000101884
9.69185e-05
9.23163e-05
8.8044e-05
8.40714e-05
8.03718e-05
7.69212e-05
7.36981e-05
7.06832e-05
6.78591e-05
6.52102e-05
6.27225e-05
6.03831e-05
5.81804e-05
5.61042e-05
5.41447e-05
5.22935e-05
5.05425e-05
4.88846e-05
4.73133e-05
4.58225e-05
4.44067e-05
4.30609e-05
4.17804e-05
4.0561e-05
3.93987e-05
3.82901e-05
3.72316e-05
3.62202e-05
3.52531e-05
3.43277e-05
3.34415e-05
3.25922e-05
3.17778e-05
3.09963e-05
3.02459e-05
2.95249e-05
2.88319e-05
2.81652e-05
2.75237e-05
2.6906e-05
2.6311e-05
2.57376e-05
2.51848e-05
2.46518e-05
2.41375e-05
2.36413e-05
2.31625e-05
2.27003e-05
2.22541e-05
2.18235e-05
2.14078e-05
2.10067e-05
2.06197e-05
2.02465e-05
1.98869e-05
1.95405e-05
1.92072e-05
1.88869e-05
1.85796e-05
1.82853e-05
1.80043e-05
1.77368e-05
1.74835e-05
1.72451e-05
1.70229e-05
1.68184e-05
1.6634e-05
1.64728e-05
1.63393e-05
1.62397e-05
1.61824e-05
0.000939687
0.000835719
0.000745892
0.000668036
0.000600344
0.000541304
0.000489651
0.000444323
0.000404425
0.000369202
0.000338015
0.000310323
0.000285665
0.000263647
0.000243935
0.00022624
0.000210315
0.000195946
0.000182951
0.00017117
0.000160465
0.000150715
0.000141817
0.000133678
0.000126218
0.000119367
0.000113064
0.000107252
0.000101885
9.69195e-05
9.23174e-05
8.80451e-05
8.40725e-05
8.0373e-05
7.69224e-05
7.36994e-05
7.06845e-05
6.78604e-05
6.52116e-05
6.27239e-05
6.03845e-05
5.8182e-05
5.61057e-05
5.41463e-05
5.22951e-05
5.05442e-05
4.88864e-05
4.73151e-05
4.58243e-05
4.44086e-05
4.30628e-05
4.17824e-05
4.0563e-05
3.94008e-05
3.82922e-05
3.72338e-05
3.62224e-05
3.52554e-05
3.433e-05
3.34439e-05
3.25946e-05
3.17803e-05
3.09988e-05
3.02485e-05
2.95276e-05
2.88346e-05
2.8168e-05
2.75265e-05
2.69089e-05
2.63139e-05
2.57406e-05
2.51878e-05
2.46548e-05
2.41406e-05
2.36445e-05
2.31656e-05
2.27035e-05
2.22573e-05
2.18267e-05
2.1411e-05
2.10099e-05
2.06229e-05
2.02498e-05
1.98901e-05
1.95437e-05
1.92103e-05
1.889e-05
1.85826e-05
1.82883e-05
1.80072e-05
1.77397e-05
1.74863e-05
1.72479e-05
1.70255e-05
1.68209e-05
1.66364e-05
1.64751e-05
1.63416e-05
1.62419e-05
1.61846e-05
0.000939687
0.000835719
0.000745892
0.000668036
0.000600344
0.000541304
0.000489652
0.000444323
0.000404425
0.000369202
0.000338016
0.000310323
0.000285665
0.000263648
0.000243935
0.00022624
0.000210315
0.000195947
0.000182952
0.000171171
0.000160466
0.000150716
0.000141818
0.000133679
0.000126219
0.000119368
0.000113065
0.000107253
0.000101886
9.69205e-05
9.23184e-05
8.80462e-05
8.40737e-05
8.03742e-05
7.69237e-05
7.37006e-05
7.06858e-05
6.78618e-05
6.5213e-05
6.27253e-05
6.0386e-05
5.81835e-05
5.61073e-05
5.4148e-05
5.22968e-05
5.05459e-05
4.88881e-05
4.73169e-05
4.58262e-05
4.44105e-05
4.30648e-05
4.17844e-05
4.05651e-05
3.9403e-05
3.82944e-05
3.7236e-05
3.62247e-05
3.52578e-05
3.43324e-05
3.34463e-05
3.25971e-05
3.17828e-05
3.10014e-05
3.02512e-05
2.95303e-05
2.88373e-05
2.81708e-05
2.75294e-05
2.69118e-05
2.63169e-05
2.57436e-05
2.51909e-05
2.46579e-05
2.41437e-05
2.36476e-05
2.31688e-05
2.27067e-05
2.22606e-05
2.183e-05
2.14143e-05
2.10132e-05
2.06262e-05
2.0253e-05
1.98933e-05
1.95469e-05
1.92136e-05
1.88932e-05
1.85858e-05
1.82914e-05
1.80102e-05
1.77426e-05
1.74891e-05
1.72506e-05
1.70282e-05
1.68235e-05
1.66389e-05
1.64775e-05
1.63439e-05
1.62441e-05
1.61868e-05
0.000939687
0.000835719
0.000745892
0.000668036
0.000600344
0.000541304
0.000489652
0.000444324
0.000404425
0.000369202
0.000338016
0.000310324
0.000285665
0.000263648
0.000243936
0.000226241
0.000210315
0.000195947
0.000182952
0.000171171
0.000160466
0.000150717
0.000141818
0.000133679
0.00012622
0.000119369
0.000113065
0.000107254
0.000101887
9.69215e-05
9.23195e-05
8.80473e-05
8.40748e-05
8.03754e-05
7.69249e-05
7.37019e-05
7.06871e-05
6.78632e-05
6.52144e-05
6.27268e-05
6.03875e-05
5.81851e-05
5.61089e-05
5.41496e-05
5.22985e-05
5.05477e-05
4.88899e-05
4.73187e-05
4.58281e-05
4.44124e-05
4.30668e-05
4.17865e-05
4.05672e-05
3.94051e-05
3.82966e-05
3.72383e-05
3.6227e-05
3.52601e-05
3.43348e-05
3.34488e-05
3.25997e-05
3.17854e-05
3.10041e-05
3.02539e-05
2.95331e-05
2.88401e-05
2.81737e-05
2.75323e-05
2.69147e-05
2.63199e-05
2.57466e-05
2.5194e-05
2.4661e-05
2.41469e-05
2.36508e-05
2.31721e-05
2.271e-05
2.22639e-05
2.18333e-05
2.14176e-05
2.10165e-05
2.06296e-05
2.02564e-05
1.98966e-05
1.95502e-05
1.92168e-05
1.88964e-05
1.85889e-05
1.82945e-05
1.80132e-05
1.77456e-05
1.7492e-05
1.72534e-05
1.70309e-05
1.68261e-05
1.66414e-05
1.64799e-05
1.63462e-05
1.62464e-05
1.61891e-05
0.000939687
0.000835719
0.000745892
0.000668036
0.000600344
0.000541304
0.000489652
0.000444324
0.000404426
0.000369203
0.000338016
0.000310324
0.000285666
0.000263648
0.000243936
0.000226241
0.000210316
0.000195948
0.000182953
0.000171172
0.000160467
0.000150717
0.000141819
0.00013368
0.000126221
0.00011937
0.000113066
0.000107255
0.000101888
9.69226e-05
9.23206e-05
8.80484e-05
8.4076e-05
8.03766e-05
7.69261e-05
7.37032e-05
7.06885e-05
6.78646e-05
6.52159e-05
6.27283e-05
6.03891e-05
5.81866e-05
5.61106e-05
5.41513e-05
5.23002e-05
5.05494e-05
4.88917e-05
4.73206e-05
4.583e-05
4.44144e-05
4.30688e-05
4.17885e-05
4.05693e-05
3.94073e-05
3.82988e-05
3.72405e-05
3.62294e-05
3.52625e-05
3.43373e-05
3.34513e-05
3.26022e-05
3.1788e-05
3.10067e-05
3.02566e-05
2.95358e-05
2.8843e-05
2.81765e-05
2.75352e-05
2.69177e-05
2.63229e-05
2.57497e-05
2.51971e-05
2.46642e-05
2.41501e-05
2.36541e-05
2.31753e-05
2.27132e-05
2.22672e-05
2.18366e-05
2.1421e-05
2.10199e-05
2.06329e-05
2.02597e-05
1.99e-05
1.95535e-05
1.92201e-05
1.88996e-05
1.85921e-05
1.82976e-05
1.80163e-05
1.77485e-05
1.74949e-05
1.72562e-05
1.70336e-05
1.68287e-05
1.66439e-05
1.64823e-05
1.63485e-05
1.62487e-05
1.61913e-05
0.000939687
0.000835719
0.000745892
0.000668036
0.000600344
0.000541304
0.000489652
0.000444324
0.000404426
0.000369203
0.000338016
0.000310324
0.000285666
0.000263649
0.000243936
0.000226241
0.000210316
0.000195948
0.000182953
0.000171173
0.000160467
0.000150718
0.00014182
0.000133681
0.000126221
0.000119371
0.000113067
0.000107256
0.000101889
9.69236e-05
9.23216e-05
8.80495e-05
8.40772e-05
8.03778e-05
7.69274e-05
7.37045e-05
7.06898e-05
6.78659e-05
6.52173e-05
6.27298e-05
6.03906e-05
5.81882e-05
5.61122e-05
5.4153e-05
5.23019e-05
5.05512e-05
4.88936e-05
4.73225e-05
4.58319e-05
4.44164e-05
4.30708e-05
4.17906e-05
4.05715e-05
3.94095e-05
3.8301e-05
3.72428e-05
3.62317e-05
3.52649e-05
3.43397e-05
3.34538e-05
3.26048e-05
3.17906e-05
3.10094e-05
3.02593e-05
2.95386e-05
2.88458e-05
2.81794e-05
2.75381e-05
2.69207e-05
2.63259e-05
2.57528e-05
2.52002e-05
2.46674e-05
2.41533e-05
2.36573e-05
2.31786e-05
2.27165e-05
2.22705e-05
2.18399e-05
2.14243e-05
2.10232e-05
2.06363e-05
2.0263e-05
1.99033e-05
1.95568e-05
1.92233e-05
1.89028e-05
1.85953e-05
1.83007e-05
1.80193e-05
1.77515e-05
1.74978e-05
1.7259e-05
1.70363e-05
1.68313e-05
1.66464e-05
1.64848e-05
1.63509e-05
1.62509e-05
1.61936e-05
0.000939687
0.000835719
0.000745892
0.000668036
0.000600344
0.000541305
0.000489652
0.000444324
0.000404426
0.000369203
0.000338016
0.000310325
0.000285666
0.000263649
0.000243937
0.000226242
0.000210317
0.000195949
0.000182954
0.000171173
0.000160468
0.000150719
0.00014182
0.000133682
0.000126222
0.000119372
0.000113068
0.000107257
0.00010189
9.69246e-05
9.23227e-05
8.80506e-05
8.40783e-05
8.0379e-05
7.69286e-05
7.37058e-05
7.06911e-05
6.78673e-05
6.52187e-05
6.27312e-05
6.03921e-05
5.81898e-05
5.61138e-05
5.41546e-05
5.23036e-05
5.0553e-05
4.88954e-05
4.73243e-05
4.58338e-05
4.44183e-05
4.30728e-05
4.17927e-05
4.05736e-05
3.94117e-05
3.83033e-05
3.72451e-05
3.62341e-05
3.52673e-05
3.43422e-05
3.34563e-05
3.26073e-05
3.17933e-05
3.10121e-05
3.0262e-05
2.95414e-05
2.88486e-05
2.81823e-05
2.75411e-05
2.69237e-05
2.6329e-05
2.57559e-05
2.52033e-05
2.46705e-05
2.41565e-05
2.36605e-05
2.31819e-05
2.27198e-05
2.22738e-05
2.18433e-05
2.14277e-05
2.10266e-05
2.06396e-05
2.02664e-05
1.99066e-05
1.95601e-05
1.92266e-05
1.89061e-05
1.85984e-05
1.83038e-05
1.80224e-05
1.77545e-05
1.75007e-05
1.72618e-05
1.7039e-05
1.68339e-05
1.66489e-05
1.64872e-05
1.63532e-05
1.62532e-05
1.61958e-05
0.000939687
0.000835719
0.000745892
0.000668036
0.000600344
0.000541305
0.000489652
0.000444324
0.000404426
0.000369203
0.000338017
0.000310325
0.000285667
0.000263649
0.000243937
0.000226242
0.000210317
0.000195949
0.000182955
0.000171174
0.000160469
0.000150719
0.000141821
0.000133682
0.000126223
0.000119372
0.000113069
0.000107258
0.000101891
9.69256e-05
9.23237e-05
8.80517e-05
8.40794e-05
8.03802e-05
7.69299e-05
7.3707e-05
7.06924e-05
6.78687e-05
6.52201e-05
6.27327e-05
6.03936e-05
5.81913e-05
5.61154e-05
5.41563e-05
5.23053e-05
5.05547e-05
4.88972e-05
4.73262e-05
4.58357e-05
4.44203e-05
4.30748e-05
4.17947e-05
4.05757e-05
3.94138e-05
3.83055e-05
3.72474e-05
3.62364e-05
3.52697e-05
3.43446e-05
3.34588e-05
3.26099e-05
3.17959e-05
3.10147e-05
3.02647e-05
2.95441e-05
2.88514e-05
2.81852e-05
2.7544e-05
2.69266e-05
2.6332e-05
2.57589e-05
2.52065e-05
2.46737e-05
2.41597e-05
2.36638e-05
2.31851e-05
2.27231e-05
2.22771e-05
2.18466e-05
2.1431e-05
2.10299e-05
2.06429e-05
2.02697e-05
1.99099e-05
1.95634e-05
1.92299e-05
1.89093e-05
1.86016e-05
1.83069e-05
1.80254e-05
1.77574e-05
1.75036e-05
1.72646e-05
1.70417e-05
1.68365e-05
1.66514e-05
1.64896e-05
1.63555e-05
1.62555e-05
1.6198e-05
0.000939687
0.000835719
0.000745892
0.000668037
0.000600344
0.000541305
0.000489652
0.000444324
0.000404426
0.000369203
0.000338017
0.000310325
0.000285667
0.00026365
0.000243938
0.000226243
0.000210318
0.00019595
0.000182955
0.000171174
0.000160469
0.00015072
0.000141822
0.000133683
0.000126224
0.000119373
0.00011307
0.000107259
0.000101892
9.69266e-05
9.23248e-05
8.80528e-05
8.40806e-05
8.03813e-05
7.69311e-05
7.37083e-05
7.06937e-05
6.787e-05
6.52215e-05
6.27341e-05
6.03951e-05
5.81929e-05
5.6117e-05
5.41579e-05
5.2307e-05
5.05564e-05
4.8899e-05
4.7328e-05
4.58376e-05
4.44222e-05
4.30768e-05
4.17968e-05
4.05778e-05
3.9416e-05
3.83077e-05
3.72496e-05
3.62387e-05
3.5272e-05
3.4347e-05
3.34613e-05
3.26124e-05
3.17984e-05
3.10174e-05
3.02674e-05