/*--------------------------------*- C++ -*----------------------------------*\
  =========                 |
  \\      /  F ield         | OpenFOAM: The Open Source CFD Toolbox
   \\    /   O peration     | Website:  https://openfoam.org
    \\  /    A nd           | Version:  11
     \\/     M anipulation  |
\*---------------------------------------------------------------------------*/
FoamFile
{
    format      ascii;
    class       volScalarField;
    location    "694";
    object      p;
}
// * * * * * * * * * * * * * * * * * * * * * * * * * * * * * * * * * * * * * //

dimensions      [0 2 -2 0 0 0 0];

internalField   nonuniform List<scalar> 
10000
(
8.86345e-10
8.62259e-10
9.01797e-10
9.80129e-10
1.06961e-09
1.16427e-09
1.26406e-09
1.36914e-09
1.47966e-09
1.59592e-09
1.7183e-09
1.84721e-09
1.98308e-09
2.12637e-09
2.27752e-09
2.43702e-09
2.60534e-09
2.78298e-09
2.97045e-09
3.16827e-09
3.37696e-09
3.59708e-09
3.82919e-09
4.07384e-09
4.33164e-09
4.60317e-09
4.88906e-09
5.18991e-09
5.50637e-09
5.83909e-09
6.18873e-09
6.55595e-09
6.94144e-09
7.34588e-09
7.76997e-09
8.21442e-09
8.67991e-09
9.16717e-09
9.6769e-09
1.02098e-08
1.07666e-08
1.13479e-08
1.19544e-08
1.25869e-08
1.32459e-08
1.3932e-08
1.46459e-08
1.53881e-08
1.61591e-08
1.69593e-08
1.77893e-08
1.86492e-08
1.95394e-08
2.04601e-08
2.14113e-08
2.2393e-08
2.34052e-08
2.44475e-08
2.55194e-08
2.66205e-08
2.77499e-08
2.89067e-08
3.00895e-08
3.12969e-08
3.25271e-08
3.37781e-08
3.50472e-08
3.63316e-08
3.7628e-08
3.89325e-08
4.02408e-08
4.15477e-08
4.28476e-08
4.41338e-08
4.53991e-08
4.6635e-08
4.78322e-08
4.89798e-08
5.00659e-08
5.10769e-08
5.19975e-08
5.28105e-08
5.34963e-08
5.40333e-08
5.43967e-08
5.45586e-08
5.44877e-08
5.41482e-08
5.34997e-08
5.24958e-08
5.10834e-08
4.92003e-08
4.67731e-08
4.37122e-08
3.99057e-08
3.52189e-08
2.94537e-08
2.20714e-08
1.22248e-08
5.73633e-10
1.5375e-09
1.42705e-09
1.36978e-09
1.4006e-09
1.46927e-09
1.55677e-09
1.65847e-09
1.77202e-09
1.89591e-09
2.02938e-09
2.17216e-09
2.32425e-09
2.48582e-09
2.65714e-09
2.83857e-09
3.03053e-09
3.23346e-09
3.44787e-09
3.67428e-09
3.91324e-09
4.16531e-09
4.43111e-09
4.71123e-09
5.00632e-09
5.31703e-09
5.64401e-09
5.98797e-09
6.34959e-09
6.72958e-09
7.12868e-09
7.54763e-09
7.98716e-09
8.44804e-09
8.93103e-09
9.4369e-09
9.96642e-09
1.05204e-08
1.10995e-08
1.17046e-08
1.23365e-08
1.29958e-08
1.36833e-08
1.43997e-08
1.51458e-08
1.59221e-08
1.67293e-08
1.7568e-08
1.84386e-08
1.93417e-08
2.02777e-08
2.12469e-08
2.22496e-08
2.32858e-08
2.43557e-08
2.54591e-08
2.65958e-08
2.77654e-08
2.89674e-08
3.02011e-08
3.14654e-08
3.27591e-08
3.40808e-08
3.54287e-08
3.68006e-08
3.81942e-08
3.96064e-08
4.1034e-08
4.2473e-08
4.39191e-08
4.53672e-08
4.68115e-08
4.82455e-08
4.96618e-08
5.1052e-08
5.24066e-08
5.37151e-08
5.49653e-08
5.61438e-08
5.72355e-08
5.82232e-08
5.90877e-08
5.98076e-08
6.03585e-08
6.07132e-08
6.08412e-08
6.07077e-08
6.02738e-08
5.94952e-08
5.83218e-08
5.66962e-08
5.45522e-08
5.1813e-08
4.83875e-08
4.41641e-08
3.90069e-08
3.27759e-08
2.52817e-08
1.56756e-08
2.04506e-09
-9.78713e-09
1.71813e-09
1.55443e-09
1.42534e-09
1.39178e-09
1.40668e-09
1.44862e-09
1.5107e-09
1.58889e-09
1.68032e-09
1.78322e-09
1.89655e-09
2.01973e-09
2.15247e-09
2.29467e-09
2.4464e-09
2.60778e-09
2.77907e-09
2.96055e-09
3.15254e-09
3.35543e-09
3.56961e-09
3.79552e-09
4.03361e-09
4.28435e-09
4.54824e-09
4.82579e-09
5.11752e-09
5.42396e-09
5.74567e-09
6.08321e-09
6.43714e-09
6.80803e-09
7.19647e-09
7.60304e-09
8.02832e-09
8.47291e-09
8.93737e-09
9.42229e-09
9.92824e-09
1.04558e-08
1.10054e-08
1.15777e-08
1.21732e-08
1.27922e-08
1.34353e-08
1.41029e-08
1.47953e-08
1.55128e-08
1.62557e-08
1.70241e-08
1.78182e-08
1.8638e-08
1.94835e-08
2.03544e-08
2.12504e-08
2.21713e-08
2.31163e-08
2.40847e-08
2.50757e-08
2.60881e-08
2.71206e-08
2.81715e-08
2.92391e-08
3.03211e-08
3.14151e-08
3.25182e-08
3.36269e-08
3.47377e-08
3.58461e-08
3.69474e-08
3.8036e-08
3.91058e-08
4.01497e-08
4.11599e-08
4.21277e-08
4.3043e-08
4.38948e-08
4.46707e-08
4.53568e-08
4.59373e-08
4.6395e-08
4.67102e-08
4.68611e-08
4.68231e-08
4.65687e-08
4.60672e-08
4.52837e-08
4.41791e-08
4.27093e-08
4.0824e-08
3.84659e-08
3.5569e-08
3.20564e-08
2.7835e-08
2.27985e-08
1.68682e-08
9.9442e-09
1.04934e-09
-1.21126e-08
-1.91354e-08
1.82772e-09
1.65708e-09
1.51179e-09
1.45128e-09
1.43875e-09
1.45609e-09
1.49667e-09
1.55609e-09
1.631e-09
1.71915e-09
1.81908e-09
1.92985e-09
2.05085e-09
2.18178e-09
2.32246e-09
2.4729e-09
2.63316e-09
2.80342e-09
2.98389e-09
3.17485e-09
3.3766e-09
3.58949e-09
3.81388e-09
4.05017e-09
4.29876e-09
4.5601e-09
4.83462e-09
5.12278e-09
5.42505e-09
5.74191e-09
6.07384e-09
6.42133e-09
6.78488e-09
7.16498e-09
7.56212e-09
7.97679e-09
8.40948e-09
8.86066e-09
9.3308e-09
9.82034e-09
1.03297e-08
1.08593e-08
1.14096e-08
1.19808e-08
1.25733e-08
1.31874e-08
1.38233e-08
1.44811e-08
1.51609e-08
1.58629e-08
1.6587e-08
1.73329e-08
1.81006e-08
1.88897e-08
1.96997e-08
2.053e-08
2.13799e-08
2.22485e-08
2.31346e-08
2.4037e-08
2.49542e-08
2.58844e-08
2.68255e-08
2.77751e-08
2.87305e-08
2.96887e-08
3.06462e-08
3.1599e-08
3.25425e-08
3.34718e-08
3.43812e-08
3.52644e-08
3.61141e-08
3.69223e-08
3.76802e-08
3.83777e-08
3.90037e-08
3.95456e-08
3.99896e-08
4.03201e-08
4.05199e-08
4.05695e-08
4.04475e-08
4.013e-08
3.959e-08
3.87976e-08
3.77196e-08
3.63184e-08
3.45521e-08
3.23735e-08
2.97297e-08
2.65607e-08
2.27981e-08
1.83611e-08
1.31643e-08
7.17194e-09
3.37534e-10
-8.43993e-09
-2.17035e-08
-2.59786e-08
1.8897e-09
1.72672e-09
1.5837e-09
1.51293e-09
1.48598e-09
1.48883e-09
1.516e-09
1.56335e-09
1.62757e-09
1.70627e-09
1.79782e-09
1.90106e-09
2.01523e-09
2.13984e-09
2.27459e-09
2.41934e-09
2.57408e-09
2.73886e-09
2.91383e-09
3.09918e-09
3.29514e-09
3.502e-09
3.72005e-09
3.94964e-09
4.19111e-09
4.44484e-09
4.71122e-09
4.99065e-09
5.28353e-09
5.5903e-09
5.91137e-09
6.24717e-09
6.59813e-09
6.96469e-09
7.34727e-09
7.74629e-09
8.16216e-09
8.59528e-09
9.04604e-09
9.51481e-09
1.00019e-08
1.05077e-08
1.10325e-08
1.15764e-08
1.21398e-08
1.27228e-08
1.33255e-08
1.3948e-08
1.45902e-08
1.52521e-08
1.59335e-08
1.66342e-08
1.73537e-08
1.80916e-08
1.88473e-08
1.96201e-08
2.04089e-08
2.12129e-08
2.20306e-08
2.28606e-08
2.37012e-08
2.45503e-08
2.54058e-08
2.62651e-08
2.71252e-08
2.79828e-08
2.88341e-08
2.96751e-08
3.05009e-08
3.13062e-08
3.20851e-08
3.28311e-08
3.35366e-08
3.41934e-08
3.47923e-08
3.53231e-08
3.57743e-08
3.61333e-08
3.6386e-08
3.65166e-08
3.65078e-08
3.63402e-08
3.59924e-08
3.54406e-08
3.46583e-08
3.36162e-08
3.22818e-08
3.0619e-08
2.85877e-08
2.61435e-08
2.32371e-08
1.98141e-08
1.58139e-08
1.11665e-08
5.80344e-09
-2.81234e-10
-7.10978e-09
-1.58927e-08
-2.91547e-08
-3.17345e-08
1.90398e-09
1.75225e-09
1.61587e-09
1.54104e-09
1.50531e-09
1.49793e-09
1.51461e-09
1.55178e-09
1.60639e-09
1.67614e-09
1.75933e-09
1.85476e-09
1.96155e-09
2.0791e-09
2.207e-09
2.34503e-09
2.49308e-09
2.65111e-09
2.8192e-09
2.99747e-09
3.18609e-09
3.38527e-09
3.59525e-09
3.81631e-09
4.04874e-09
4.29286e-09
4.549e-09
4.8175e-09
5.09872e-09
5.393e-09
5.70072e-09
6.02224e-09
6.35793e-09
6.70815e-09
7.07326e-09
7.4536e-09
7.84953e-09
8.26135e-09
8.68938e-09
9.1339e-09
9.59517e-09
1.00734e-08
1.05689e-08
1.10816e-08
1.16119e-08
1.21596e-08
1.27249e-08
1.33077e-08
1.39078e-08
1.4525e-08
1.51591e-08
1.58097e-08
1.64762e-08
1.71581e-08
1.78545e-08
1.85647e-08
1.92875e-08
2.00218e-08
2.0766e-08
2.15185e-08
2.22776e-08
2.30409e-08
2.3806e-08
2.45703e-08
2.53306e-08
2.60834e-08
2.68248e-08
2.75504e-08
2.82552e-08
2.89339e-08
2.95803e-08
3.01876e-08
3.07482e-08
3.12538e-08
3.1695e-08
3.20615e-08
3.23418e-08
3.25231e-08
3.25915e-08
3.25313e-08
3.23253e-08
3.19544e-08
3.13977e-08
3.0632e-08
2.96316e-08
2.83684e-08
2.68113e-08
2.49264e-08
2.26762e-08
2.00198e-08
1.69129e-08
1.33075e-08
9.15145e-09
4.38653e-09
-1.03931e-09
-7.107e-09
-1.38199e-08
-2.24394e-08
-3.52784e-08
-3.66144e-08
1.88512e-09
1.74485e-09
1.61653e-09
1.54121e-09
1.50051e-09
1.48612e-09
1.49481e-09
1.52363e-09
1.56988e-09
1.63144e-09
1.7067e-09
1.79444e-09
1.89375e-09
2.00396e-09
2.12461e-09
2.25538e-09
2.3961e-09
2.54668e-09
2.70712e-09
2.87746e-09
3.05783e-09
3.24837e-09
3.44926e-09
3.66073e-09
3.88301e-09
4.11636e-09
4.36105e-09
4.61737e-09
4.88561e-09
5.16607e-09
5.45904e-09
5.76485e-09
6.08378e-09
6.41613e-09
6.7622e-09
7.12226e-09
7.49658e-09
7.8854e-09
8.28896e-09
8.70746e-09
9.14108e-09
9.58996e-09
1.00542e-08
1.05339e-08
1.10291e-08
1.15396e-08
1.20655e-08
1.26066e-08
1.31626e-08
1.37332e-08
1.4318e-08
1.49166e-08
1.55282e-08
1.61522e-08
1.67876e-08
1.74335e-08
1.80886e-08
1.87516e-08
1.94209e-08
2.00947e-08
2.0771e-08
2.14475e-08
2.21216e-08
2.27904e-08
2.34507e-08
2.40988e-08
2.47306e-08
2.53417e-08
2.5927e-08
2.6481e-08
2.69973e-08
2.74691e-08
2.78888e-08
2.8248e-08
2.85372e-08
2.87462e-08
2.88635e-08
2.88766e-08
2.87716e-08
2.85332e-08
2.81446e-08
2.75872e-08
2.68408e-08
2.5883e-08
2.46894e-08
2.32335e-08
2.1486e-08
1.94153e-08
1.69873e-08
1.41652e-08
1.09096e-08
7.17938e-09
2.93095e-09
-1.88305e-09
-7.29988e-09
-1.32805e-08
-1.98159e-08
-2.82048e-08
-4.05252e-08
-4.08408e-08
1.84299e-09
1.71338e-09
1.5934e-09
1.51967e-09
1.47664e-09
1.45772e-09
1.46057e-09
1.48279e-09
1.52205e-09
1.57648e-09
1.64457e-09
1.72516e-09
1.81733e-09
1.9204e-09
2.03388e-09
2.15739e-09
2.29072e-09
2.43371e-09
2.58631e-09
2.74851e-09
2.92038e-09
3.102e-09
3.29352e-09
3.49509e-09
3.7069e-09
3.92915e-09
4.16206e-09
4.40586e-09
4.66078e-09
4.92707e-09
5.20497e-09
5.49472e-09
5.79657e-09
6.11074e-09
6.43747e-09
6.77696e-09
7.12941e-09
7.49499e-09
7.87387e-09
8.26616e-09
8.67198e-09
9.09137e-09
9.52436e-09
9.97094e-09
1.0431e-08
1.09045e-08
1.13912e-08
1.18908e-08
1.2403e-08
1.29274e-08
1.34635e-08
1.40106e-08
1.4568e-08
1.51349e-08
1.57103e-08
1.6293e-08
1.68817e-08
1.7475e-08
1.8071e-08
1.8668e-08
1.92638e-08
1.98559e-08
2.04416e-08
2.1018e-08
2.15817e-08
2.21288e-08
2.26554e-08
2.31566e-08
2.36275e-08
2.40624e-08
2.44549e-08
2.47982e-08
2.50847e-08
2.53059e-08
2.54524e-08
2.55142e-08
2.548e-08
2.53374e-08
2.50728e-08
2.46714e-08
2.41169e-08
2.33915e-08
2.24757e-08
2.13483e-08
1.99862e-08
1.83645e-08
1.64563e-08
1.42325e-08
1.16622e-08
8.71274e-09
5.34998e-09
1.53902e-09
-2.75584e-09
-7.57248e-09
-1.29361e-08
-1.87922e-08
-2.5126e-08
-3.32946e-08
-4.52273e-08
-4.46308e-08
1.7827e-09
1.66278e-09
1.55079e-09
1.47976e-09
1.43605e-09
1.41434e-09
1.41296e-09
1.42997e-09
1.46341e-09
1.51162e-09
1.57326e-09
1.64722e-09
1.73263e-09
1.82882e-09
1.93527e-09
2.05159e-09
2.17751e-09
2.31285e-09
2.45751e-09
2.61143e-09
2.77462e-09
2.94714e-09
3.12907e-09
3.32052e-09
3.52162e-09
3.73252e-09
3.9534e-09
4.18442e-09
4.42578e-09
4.67765e-09
4.94023e-09
5.2137e-09
5.49825e-09
5.79404e-09
6.10123e-09
6.41998e-09
6.75041e-09
7.09264e-09
7.44673e-09
7.81277e-09
8.19075e-09
8.58067e-09
8.98248e-09
9.39607e-09
9.82129e-09
1.02579e-08
1.07057e-08
1.11642e-08
1.16331e-08
1.21119e-08
1.25998e-08
1.30963e-08
1.36005e-08
1.41114e-08
1.46279e-08
1.51487e-08
1.56726e-08
1.61978e-08
1.67225e-08
1.72448e-08
1.77624e-08
1.82728e-08
1.87731e-08
1.92603e-08
1.97309e-08
2.01812e-08
2.06067e-08
2.1003e-08
2.13648e-08
2.16864e-08
2.19616e-08
2.21834e-08
2.23444e-08
2.2436e-08
2.24493e-08
2.23741e-08
2.21995e-08
2.19135e-08
2.15028e-08
2.09532e-08
2.02489e-08
1.9373e-08
1.8307e-08
1.70309e-08
1.55232e-08
1.37606e-08
1.17184e-08
9.37039e-09
6.6888e-09
3.64494e-09
2.09501e-10
-3.64655e-09
-7.95194e-09
-1.27364e-08
-1.8015e-08
-2.37172e-08
-2.98149e-08
-3.77348e-08
-4.94973e-08
-4.78152e-08
1.70746e-09
1.59634e-09
1.49186e-09
1.42402e-09
1.38065e-09
1.35733e-09
1.35288e-09
1.36575e-09
1.3943e-09
1.43707e-09
1.49287e-09
1.56068e-09
1.63968e-09
1.72923e-09
1.8288e-09
1.93799e-09
2.05652e-09
2.18416e-09
2.32079e-09
2.4663e-09
2.62067e-09
2.78391e-09
2.95605e-09
3.13716e-09
3.32733e-09
3.52666e-09
3.73526e-09
3.95328e-09
4.18082e-09
4.41805e-09
4.66507e-09
4.92204e-09
5.18907e-09
5.46627e-09
5.75375e-09
6.0516e-09
6.35987e-09
6.67861e-09
7.00785e-09
7.34756e-09
7.6977e-09
8.05818e-09
8.42887e-09
8.8096e-09
9.20011e-09
9.60013e-09
1.00093e-08
1.04272e-08
1.08532e-08
1.12869e-08
1.17274e-08
1.2174e-08
1.26258e-08
1.30817e-08
1.35405e-08
1.40009e-08
1.44613e-08
1.49201e-08
1.53755e-08
1.58252e-08
1.62669e-08
1.66982e-08
1.7116e-08
1.75172e-08
1.78983e-08
1.82555e-08
1.85844e-08
1.88803e-08
1.91382e-08
1.93522e-08
1.95163e-08
1.96236e-08
1.96665e-08
1.96369e-08
1.95258e-08
1.93235e-08
1.90193e-08
1.86015e-08
1.80575e-08
1.73735e-08
1.65346e-08
1.55247e-08
1.43264e-08
1.2921e-08
1.12884e-08
9.40732e-09
7.25519e-09
4.80833e-09
2.04221e-09
-1.06822e-09
-4.54788e-09
-8.42061e-09
-1.27091e-08
-1.74363e-08
-2.26087e-08
-2.81389e-08
-3.3976e-08
-4.16214e-08
-5.34049e-08
-5.0492e-08
1.61963e-09
1.51652e-09
1.41905e-09
1.35465e-09
1.31227e-09
1.28815e-09
1.28149e-09
1.29106e-09
1.31545e-09
1.35343e-09
1.40392e-09
1.466e-09
1.53893e-09
1.62207e-09
1.71492e-09
1.81708e-09
1.92825e-09
2.04818e-09
2.17672e-09
2.31374e-09
2.45918e-09
2.613e-09
2.7752e-09
2.94581e-09
3.12487e-09
3.31244e-09
3.50859e-09
3.7134e-09
3.92696e-09
4.14935e-09
4.38066e-09
4.62095e-09
4.87031e-09
5.12879e-09
5.39644e-09
5.67328e-09
5.95933e-09
6.25455e-09
6.55891e-09
6.87233e-09
7.19469e-09
7.52583e-09
7.86556e-09
8.21362e-09
8.56971e-09
8.93346e-09
9.30442e-09
9.68209e-09
1.00659e-08
1.04551e-08
1.0849e-08
1.12466e-08
1.1647e-08
1.2049e-08
1.24514e-08
1.28527e-08
1.32514e-08
1.36456e-08
1.40335e-08
1.44128e-08
1.47812e-08
1.5136e-08
1.54742e-08
1.57928e-08
1.6088e-08
1.6356e-08
1.65926e-08
1.6793e-08
1.69521e-08
1.70643e-08
1.71235e-08
1.71229e-08
1.70552e-08
1.69124e-08
1.66858e-08
1.63659e-08
1.59424e-08
1.54041e-08
1.4739e-08
1.39339e-08
1.29747e-08
1.18462e-08
1.05321e-08
9.01501e-09
7.27648e-09
5.29697e-09
3.05602e-09
5.32452e-10
-2.29541e-09
-5.44928e-09
-8.95025e-09
-1.28178e-08
-1.70697e-08
-2.17238e-08
-2.67803e-08
-3.2138e-08
-3.77265e-08
-4.51373e-08
-5.70711e-08
-5.30871e-08
1.52099e-09
1.42529e-09
1.33441e-09
1.27353e-09
1.23253e-09
1.20819e-09
1.19995e-09
1.20685e-09
1.22771e-09
1.26143e-09
1.30707e-09
1.36381e-09
1.43095e-09
1.50791e-09
1.59421e-09
1.68945e-09
1.79332e-09
1.90556e-09
2.026e-09
2.15448e-09
2.29091e-09
2.43522e-09
2.58738e-09
2.74737e-09
2.91519e-09
3.09087e-09
3.27443e-09
3.46592e-09
3.66536e-09
3.87279e-09
4.08826e-09
4.31179e-09
4.54339e-09
4.78309e-09
5.03085e-09
5.28667e-09
5.55049e-09
5.82222e-09
6.10177e-09
6.389e-09
6.68372e-09
6.98572e-09
7.29474e-09
7.61044e-09
7.93247e-09
8.26037e-09
8.59365e-09
8.93171e-09
9.2739e-09
9.61946e-09
9.96754e-09
1.03172e-08
1.06673e-08
1.10167e-08
1.1364e-08
1.17078e-08
1.20464e-08
1.2378e-08
1.27005e-08
1.30118e-08
1.33093e-08
1.35905e-08
1.38522e-08
1.40914e-08
1.43044e-08
1.44873e-08
1.46359e-08
1.47456e-08
1.48112e-08
1.48272e-08
1.47877e-08
1.46859e-08
1.45149e-08
1.42667e-08
1.39331e-08
1.35048e-08
1.2972e-08
1.2324e-08
1.15493e-08
1.06355e-08
9.56932e-09
8.33646e-09
6.92179e-09
5.30922e-09
3.48177e-09
1.42165e-09
-8.89576e-10
-3.47084e-09
-6.34121e-09
-9.51953e-09
-1.30236e-08
-1.68695e-08
-2.10711e-08
-2.56428e-08
-3.0581e-08
-3.57742e-08
-4.11383e-08
-4.83658e-08
-6.055e-08
-5.57062e-08
1.41298e-09
1.32421e-09
1.23957e-09
1.18223e-09
1.14288e-09
1.11869e-09
1.10936e-09
1.1141e-09
1.1319e-09
1.1618e-09
1.20299e-09
1.25472e-09
1.31635e-09
1.38735e-09
1.46726e-09
1.5557e-09
1.65234e-09
1.75694e-09
1.86928e-09
1.98921e-09
2.11659e-09
2.25134e-09
2.39339e-09
2.54268e-09
2.69919e-09
2.86289e-09
3.03378e-09
3.21185e-09
3.39709e-09
3.58951e-09
3.78908e-09
3.99579e-09
4.20962e-09
4.43051e-09
4.65842e-09
4.89325e-09
5.1349e-09
5.38325e-09
5.63813e-09
5.89934e-09
6.16665e-09
6.43978e-09
6.7184e-09
7.00213e-09
7.29054e-09
7.58311e-09
7.87929e-09
8.17841e-09
8.47977e-09
8.78253e-09
9.08578e-09
9.3885e-09
9.68954e-09
9.98765e-09
1.02814e-08
1.05693e-08
1.08497e-08
1.11205e-08
1.13799e-08
1.16255e-08
1.18548e-08
1.20651e-08
1.22535e-08
1.24167e-08
1.25512e-08
1.2653e-08
1.27181e-08
1.27417e-08
1.2719e-08
1.26444e-08
1.25122e-08
1.23158e-08
1.20485e-08
1.17027e-08
1.12702e-08
1.07424e-08
1.01098e-08
9.36229e-09
8.48893e-09
7.47807e-09
6.31723e-09
4.99316e-09
3.49178e-09
1.79827e-09
-1.02906e-10
-2.22789e-09
-4.5933e-09
-7.21599e-09
-1.01128e-08
-1.33e-08
-1.67929e-08
-2.06046e-08
-2.47463e-08
-2.92301e-08
-3.40503e-08
-3.90878e-08
-4.42474e-08
-5.13194e-08
-6.3773e-08
-5.81813e-08
1.29674e-09
1.21464e-09
1.13599e-09
1.08214e-09
1.04457e-09
1.02083e-09
1.01076e-09
1.01372e-09
1.02885e-09
1.05531e-09
1.09237e-09
1.13938e-09
1.19575e-09
1.261e-09
1.33468e-09
1.41643e-09
1.50594e-09
1.60295e-09
1.70723e-09
1.81861e-09
1.93695e-09
2.06211e-09
2.19401e-09
2.33257e-09
2.47772e-09
2.6294e-09
2.78758e-09
2.95219e-09
3.12321e-09
3.30058e-09
3.48425e-09
3.67416e-09
3.87023e-09
4.07237e-09
4.28048e-09
4.49442e-09
4.71405e-09
4.93917e-09
5.16958e-09
5.40502e-09
5.6452e-09
5.8898e-09
6.13841e-09
6.39062e-09
6.64592e-09
6.90375e-09
7.16349e-09
7.42443e-09
7.68578e-09
7.94668e-09
8.20613e-09
8.46308e-09
8.71633e-09
8.96455e-09
9.20632e-09
9.44004e-09
9.66396e-09
9.87617e-09
1.00746e-08
1.02569e-08
1.04207e-08
1.05631e-08
1.06813e-08
1.07719e-08
1.08316e-08
1.08564e-08
1.08422e-08
1.07845e-08
1.06785e-08
1.05188e-08
1.02998e-08
1.00152e-08
9.65842e-09
9.2222e-09
8.69881e-09
8.07989e-09
7.3565e-09
6.51902e-09
5.5572e-09
4.46009e-09
3.21605e-09
1.81276e-09
2.37233e-10
-1.52414e-09
-3.48555e-09
-5.66161e-09
-8.06727e-09
-1.07176e-08
-1.36274e-08
-1.68109e-08
-2.02812e-08
-2.40492e-08
-2.81242e-08
-3.25168e-08
-3.72204e-08
-4.21094e-08
-4.70791e-08
-5.40086e-08
-6.67118e-08
-6.04488e-08
1.17323e-09
1.09779e-09
1.02492e-09
9.74503e-10
9.38794e-10
9.15681e-10
9.05131e-10
9.06614e-10
9.19372e-10
9.42685e-10
9.75903e-10
1.01844e-09
1.06978e-09
1.12946e-09
1.19707e-09
1.27227e-09
1.35474e-09
1.44423e-09
1.54051e-09
1.64338e-09
1.75269e-09
1.86828e-09
1.99004e-09
2.11785e-09
2.25164e-09
2.3913e-09
2.53675e-09
2.68792e-09
2.84472e-09
3.00707e-09
3.17488e-09
3.34803e-09
3.52642e-09
3.70991e-09
3.89835e-09
4.09156e-09
4.28933e-09
4.49145e-09
4.69765e-09
4.90762e-09
5.12103e-09
5.33748e-09
5.55655e-09
5.77775e-09
6.00052e-09
6.22427e-09
6.4483e-09
6.67186e-09
6.89412e-09
7.11414e-09
7.33091e-09
7.5433e-09
7.75008e-09
7.94989e-09
8.14125e-09
8.32253e-09
8.49196e-09
8.6476e-09
8.78735e-09
8.9089e-09
9.00975e-09
9.08719e-09
9.13828e-09
9.15981e-09
9.14831e-09
9.10004e-09
9.01092e-09
8.87656e-09
8.69222e-09
8.45277e-09
8.15268e-09
7.786e-09
7.34631e-09
6.82674e-09
6.21988e-09
5.51783e-09
4.71209e-09
3.79364e-09
2.75283e-09
1.57944e-09
2.62661e-10
-1.20892e-09
-2.84726e-09
-4.66484e-09
-6.67456e-09
-8.88967e-09
-1.13236e-08
-1.39898e-08
-1.69014e-08
-2.0071e-08
-2.35097e-08
-2.72269e-08
-3.12303e-08
-3.55297e-08
-4.01179e-08
-4.48641e-08
-4.96548e-08
-5.64478e-08
-6.93668e-08
-6.24992e-08
1.04349e-09
9.74901e-10
9.07595e-10
8.60464e-10
8.26621e-10
8.04247e-10
7.93398e-10
7.93624e-10
8.04257e-10
8.24667e-10
8.5428e-10
8.92574e-10
9.39077e-10
9.93367e-10
1.05506e-09
1.12384e-09
1.19938e-09
1.28144e-09
1.36979e-09
1.46421e-09
1.56452e-09
1.67058e-09
1.78222e-09
1.89933e-09
2.02178e-09
2.14944e-09
2.28221e-09
2.41998e-09
2.56262e-09
2.71002e-09
2.86204e-09
3.01855e-09
3.17938e-09
3.34436e-09
3.5133e-09
3.68597e-09
3.86214e-09
4.04153e-09
4.22382e-09
4.40868e-09
4.59571e-09
4.78449e-09
4.97452e-09
5.16528e-09
5.35618e-09
5.54654e-09
5.73565e-09
5.9227e-09
6.10682e-09
6.28703e-09
6.46227e-09
6.63138e-09
6.79308e-09
6.94599e-09
7.08859e-09
7.21924e-09
7.33613e-09
7.43732e-09
7.52069e-09
7.58395e-09
7.6246e-09
7.63996e-09
7.6271e-09
7.58287e-09
7.50388e-09
7.38643e-09
7.22657e-09
7.02003e-09
6.7622e-09
6.44814e-09
6.07251e-09
5.62962e-09
5.11333e-09
4.51708e-09
3.83386e-09
3.05616e-09
2.17602e-09
1.18494e-09
7.39116e-11
-1.16658e-09
-2.54656e-09
-4.07656e-09
-5.76756e-09
-7.63098e-09
-9.67856e-09
-1.19223e-08
-1.43743e-08
-1.70465e-08
-1.99507e-08
-2.30979e-08
-2.64979e-08
-3.01587e-08
-3.4087e-08
-3.82919e-08
-4.2766e-08
-4.73738e-08
-5.19937e-08
-5.86524e-08
-7.17483e-08
-6.43361e-08
9.09873e-10
8.47395e-10
7.85054e-10
7.4102e-10
7.09008e-10
6.87429e-10
6.7641e-10
6.7555e-10
6.84256e-10
7.0197e-10
7.28182e-10
7.62427e-10
8.04278e-10
8.53347e-10
9.0928e-10
9.71759e-10
1.04049e-09
1.11523e-09
1.19572e-09
1.28177e-09
1.37317e-09
1.46975e-09
1.57134e-09
1.6778e-09
1.78896e-09
1.9047e-09
2.02486e-09
2.1493e-09
2.27788e-09
2.41043e-09
2.5468e-09
2.68679e-09
2.83023e-09
2.97689e-09
3.12655e-09
3.27894e-09
3.43379e-09
3.59076e-09
3.74952e-09
3.90967e-09
4.07078e-09
4.23238e-09
4.39395e-09
4.5549e-09
4.7146e-09
4.87235e-09
5.02738e-09
5.17885e-09
5.32584e-09
5.46734e-09
5.60225e-09
5.72939e-09
5.84745e-09
5.95501e-09
6.05054e-09
6.13237e-09
6.19871e-09
6.24759e-09
6.2769e-09
6.28436e-09
6.2675e-09
6.22365e-09
6.14995e-09
6.04331e-09
5.90038e-09
5.7176e-09
5.4911e-09
5.21675e-09
4.89011e-09
4.50642e-09
4.06056e-09
3.54709e-09
2.96017e-09
2.29357e-09
1.54066e-09
6.94372e-10
-2.52788e-10
-1.30876e-09
-2.48194e-09
-3.78115e-09
-5.21567e-09
-6.7952e-09
-8.52981e-09
-1.04299e-08
-1.25062e-08
-1.47695e-08
-1.72308e-08
-1.99008e-08
-2.27899e-08
-2.5908e-08
-2.92638e-08
-3.2864e-08
-3.67146e-08
-4.08243e-08
-4.51855e-08
-4.96585e-08
-5.4114e-08
-6.06387e-08
-7.38709e-08
-6.59681e-08
7.74314e-10
7.15812e-10
6.57786e-10
6.16779e-10
5.86675e-10
5.65989e-10
5.5493e-10
5.5314e-10
5.6009e-10
5.75288e-10
5.98283e-10
6.28658e-10
6.66027e-10
7.10034e-10
7.60349e-10
8.1667e-10
8.78718e-10
9.46236e-10
1.01899e-09
1.09675e-09
1.17932e-09
1.26652e-09
1.35814e-09
1.45403e-09
1.55401e-09
1.65791e-09
1.76556e-09
1.8768e-09
1.99144e-09
2.10929e-09
2.23016e-09
2.35383e-09
2.48008e-09
2.60866e-09
2.7393e-09
2.8717e-09
3.00555e-09
3.14048e-09
3.27611e-09
3.412e-09
3.5477e-09
3.68269e-09
3.81639e-09
3.94821e-09
4.07746e-09
4.2034e-09
4.32523e-09
4.44208e-09
4.55299e-09
4.65693e-09
4.75277e-09
4.83928e-09
4.91516e-09
4.97895e-09
5.02913e-09
5.064e-09
5.08177e-09
5.08049e-09
5.05805e-09
5.01219e-09
4.94047e-09
4.84028e-09
4.70881e-09
4.54301e-09
4.33966e-09
4.09528e-09
3.80612e-09
3.46821e-09
3.07726e-09
2.62872e-09
2.11771e-09
1.53903e-09
8.87138e-10
1.56153e-10
-6.60183e-10
-1.5685e-09
-2.57582e-09
-3.68955e-09
-4.91748e-09
-6.26779e-09
-7.74904e-09
-9.37013e-09
-1.11403e-08
-1.30691e-08
-1.51661e-08
-1.74413e-08
-1.99044e-08
-2.25652e-08
-2.5433e-08
-2.85167e-08
-3.18238e-08
-3.53604e-08
-3.91315e-08
-4.31458e-08
-4.73953e-08
-5.17365e-08
-5.60334e-08
-6.24238e-08
-7.57531e-08
-6.74083e-08
6.36762e-10
5.78668e-10
5.25702e-10
4.88295e-10
4.60287e-10
4.4066e-10
4.29704e-10
4.27125e-10
4.3247e-10
4.4531e-10
4.6525e-10
4.91918e-10
5.24964e-10
5.64061e-10
6.08904e-10
6.59205e-10
7.14693e-10
7.75118e-10
8.4024e-10
9.09835e-10
9.8369e-10
1.0616e-09
1.14337e-09
1.2288e-09
1.31771e-09
1.40991e-09
1.50519e-09
1.60336e-09
1.70422e-09
1.80755e-09
1.91312e-09
2.02069e-09
2.13e-09
2.24077e-09
2.35269e-09
2.46544e-09
2.57866e-09
2.69195e-09
2.8049e-09
2.91704e-09
3.02787e-09
3.13683e-09
3.24334e-09
3.34673e-09
3.4463e-09
3.54129e-09
3.63085e-09
3.71408e-09
3.79001e-09
3.85756e-09
3.9156e-09
3.96287e-09
3.99805e-09
4.01969e-09
4.02623e-09
4.01601e-09
3.98721e-09
3.9379e-09
3.86601e-09
3.76929e-09
3.64536e-09
3.49164e-09
3.30539e-09
3.08366e-09
2.82329e-09
2.52093e-09
2.17297e-09
1.77557e-09
1.32465e-09
8.15836e-10
2.44491e-10
-3.94319e-10
-1.10583e-09
-1.8956e-09
-2.76951e-09
-3.73376e-09
-4.7949e-09
-5.95983e-09
-7.23576e-09
-8.63026e-09
-1.01512e-08
-1.18068e-08
-1.36054e-08
-1.55558e-08
-1.76667e-08
-1.99471e-08
-2.24058e-08
-2.50517e-08
-2.78932e-08
-3.09381e-08
-3.41933e-08
-3.7664e-08
-4.13548e-08
-4.52738e-08
-4.9413e-08
-5.36255e-08
-5.77692e-08
-6.40254e-08
-7.7415e-08
-6.8672e-08
4.91799e-10
4.39192e-10
3.91382e-10
3.56892e-10
3.30821e-10
3.12298e-10
3.01516e-10
2.98245e-10
3.02104e-10
3.12721e-10
3.29748e-10
3.52855e-10
3.81725e-10
4.1606e-10
4.55572e-10
4.99991e-10
5.49055e-10
6.02517e-10
6.60138e-10
7.21691e-10
7.86954e-10
8.55713e-10
9.27755e-10
1.00287e-09
1.08086e-09
1.16149e-09
1.24457e-09
1.32986e-09
1.41714e-09
1.50616e-09
1.59666e-09
1.68839e-09
1.78103e-09
1.8743e-09
1.96784e-09
2.06131e-09
2.1543e-09
2.24641e-09
2.33716e-09
2.42608e-09
2.51262e-09
2.5962e-09
2.67619e-09
2.75191e-09
2.82263e-09
2.88754e-09
2.94579e-09
2.99645e-09
3.0385e-09
3.07088e-09
3.09242e-09
3.10185e-09
3.09784e-09
3.07894e-09
3.04359e-09
2.99013e-09
2.91675e-09
2.82156e-09
2.70249e-09
2.55735e-09
2.38379e-09
2.1793e-09
1.94121e-09
1.66666e-09
1.35259e-09
9.95755e-10
5.92704e-10
1.39752e-10
-3.67011e-10
-9.31739e-10
-1.55884e-09
-2.25298e-09
-3.01909e-09
-3.86241e-09
-4.78844e-09
-5.80297e-09
-6.9121e-09
-8.12224e-09
-9.44005e-09
-1.08725e-08
-1.24269e-08
-1.41106e-08
-1.59314e-08
-1.78973e-08
-2.00162e-08
-2.22962e-08
-2.47454e-08
-2.73717e-08
-3.01828e-08
-3.31857e-08
-3.63865e-08
-3.979e-08
-4.34e-08
-4.72244e-08
-5.12551e-08
-5.53421e-08
-5.93381e-08
-6.5461e-08
-7.88775e-08
-6.97756e-08
3.43306e-10
2.99209e-10
2.55339e-10
2.23333e-10
1.99154e-10
1.81708e-10
1.71125e-10
1.67225e-10
1.69688e-10
1.78192e-10
1.9243e-10
2.12109e-10
2.36941e-10
2.66652e-10
3.00976e-10
3.39653e-10
3.82432e-10
4.29071e-10
4.79332e-10
5.32983e-10
5.89797e-10
6.4955e-10
7.12018e-10
7.76977e-10
8.44202e-10
9.13463e-10
9.84524e-10
1.05714e-09
1.13106e-09
1.20601e-09
1.28171e-09
1.35787e-09
1.43417e-09
1.51027e-09
1.58581e-09
1.6604e-09
1.73362e-09
1.80501e-09
1.8741e-09
1.94037e-09
2.00324e-09
2.0621e-09
2.11631e-09
2.16514e-09
2.20785e-09
2.24361e-09
2.27153e-09
2.29067e-09
2.3e-09
2.29843e-09
2.28479e-09
2.2578e-09
2.21612e-09
2.15831e-09
2.0828e-09
1.98795e-09
1.87198e-09
1.73301e-09
1.56901e-09
1.37784e-09
1.1572e-09
9.0464e-10
6.17572e-10
2.93222e-10
-7.13482e-11
-4.79264e-10
-9.33841e-10
-1.4386e-09
-1.99725e-09
-2.61376e-09
-3.29229e-09
-4.03723e-09
-4.85325e-09
-5.74523e-09
-6.71833e-09
-7.77794e-09
-8.92973e-09
-1.01796e-08
-1.15338e-08
-1.29986e-08
-1.45808e-08
-1.62871e-08
-1.81247e-08
-2.01007e-08
-2.22225e-08
-2.44975e-08
-2.69328e-08
-2.95358e-08
-3.23133e-08
-3.52718e-08
-3.84167e-08
-4.17522e-08
-4.52817e-08
-4.90129e-08
-5.29371e-08
-5.69021e-08
-6.07561e-08
-6.67475e-08
-8.01613e-08
-7.07356e-08
1.95866e-10
1.57221e-10
1.17483e-10
8.82235e-11
6.59459e-11
4.95799e-11
3.92224e-11
3.47471e-11
3.589e-11
4.23758e-11
5.39358e-11
7.03068e-11
9.12308e-11
1.16454e-10
1.45727e-10
1.78805e-10
2.15444e-10
2.55407e-10
2.98457e-10
3.4436e-10
3.92883e-10
4.43794e-10
4.96859e-10
5.51841e-10
6.08498e-10
6.66585e-10
7.25847e-10
7.86019e-10
8.46826e-10
9.07979e-10
9.69175e-10
1.03009e-09
1.09039e-09
1.1497e-09
1.20763e-09
1.26378e-09
1.31769e-09
1.3689e-09
1.41688e-09
1.46109e-09
1.50093e-09
1.53578e-09
1.56496e-09
1.58772e-09
1.6033e-09
1.61084e-09
1.60945e-09
1.59815e-09
1.57593e-09
1.54166e-09
1.49416e-09
1.43218e-09
1.35435e-09
1.25924e-09
1.14531e-09
1.01092e-09
8.54317e-10
6.7365e-10
4.66939e-10
2.3208e-10
-3.31607e-11
-3.31156e-10
-6.64423e-10
-1.03563e-09
-1.44762e-09
-1.90337e-09
-2.40605e-09
-2.95903e-09
-3.56584e-09
-4.23021e-09
-4.95608e-09
-5.7476e-09
-6.60913e-09
-7.54525e-09
-8.56074e-09
-9.66065e-09
-1.08502e-08
-1.21349e-08
-1.35204e-08
-1.50126e-08
-1.66176e-08
-1.83417e-08
-2.01913e-08
-2.2173e-08
-2.42935e-08
-2.65594e-08
-2.89774e-08
-3.15541e-08
-3.42957e-08
-3.72081e-08
-4.02962e-08
-4.35637e-08
-4.70135e-08
-5.06531e-08
-5.44736e-08
-5.83204e-08
-6.20384e-08
-6.79013e-08
-8.12861e-08
-7.15679e-08
4.8906e-11
1.4455e-11
-2.12397e-11
-4.77159e-11
-6.81271e-11
-8.34304e-11
-9.35411e-11
-9.85448e-11
-9.8654e-11
-9.4101e-11
-8.51189e-11
-7.19413e-11
-5.48019e-11
-3.39343e-11
-9.5724e-12
1.80501e-11
4.8699e-11
8.21402e-11
1.18139e-10
1.56459e-10
1.96864e-10
2.39114e-10
2.82964e-10
3.28168e-10
3.74469e-10
4.21607e-10
4.69309e-10
5.17295e-10
5.65268e-10
6.1292e-10
6.59926e-10
7.05942e-10
7.50603e-10
7.93522e-10
8.34289e-10
8.72462e-10
9.07575e-10
9.39126e-10
9.6658e-10
9.89365e-10
1.00687e-09
1.01843e-09
1.02335e-09
1.02088e-09
1.01022e-09
9.90514e-10
9.60837e-10
9.20216e-10
8.67605e-10
8.01892e-10
7.2189e-10
6.26335e-10
5.13881e-10
3.83096e-10
2.32458e-10
6.03491e-11
-1.34949e-10
-3.55259e-10
-6.02514e-10
-8.78765e-10
-1.18618e-09
-1.52706e-09
-1.90384e-09
-2.31908e-09
-2.7755e-09
-3.27597e-09
-3.82351e-09
-4.4213e-09
-5.07271e-09
-5.78125e-09
-6.55065e-09
-7.38478e-09
-8.28774e-09
-9.26379e-09
-1.03174e-08
-1.14532e-08
-1.26761e-08
-1.39911e-08
-1.54035e-08
-1.69186e-08
-1.85421e-08
-2.02797e-08
-2.21372e-08
-2.41208e-08
-2.62363e-08
-2.84901e-08
-3.0888e-08
-3.34362e-08
-3.61402e-08
-3.90055e-08
-4.20366e-08
-4.52365e-08
-4.8608e-08
-5.21582e-08
-5.5878e-08
-5.9611e-08
-6.31994e-08
-6.89375e-08
-8.22706e-08
-7.22875e-08
-9.75387e-11
-1.28004e-10
-1.59891e-10
-1.83772e-10
-2.02404e-10
-2.16688e-10
-2.26546e-10
-2.3204e-10
-2.3334e-10
-2.3064e-10
-2.2414e-10
-2.14046e-10
-2.00571e-10
-1.83928e-10
-1.64338e-10
-1.42023e-10
-1.1721e-10
-9.01282e-11
-6.10114e-11
-3.00965e-11
2.37548e-12
3.61583e-11
7.10002e-11
1.06642e-10
1.42818e-10
1.79252e-10
2.15657e-10
2.51735e-10
2.87174e-10
3.21646e-10
3.54807e-10
3.86292e-10
4.15716e-10
4.42673e-10
4.66728e-10
4.87421e-10
5.04262e-10
5.16729e-10
5.24266e-10
5.26279e-10
5.22136e-10
5.11162e-10
4.92638e-10
4.65796e-10
4.29819e-10
3.83836e-10
3.26919e-10
2.58083e-10
1.76276e-10
8.03831e-11
-3.07825e-11
-1.5848e-10
-3.04047e-10
-4.689e-10
-6.54542e-10
-8.62566e-10
-1.09466e-09
-1.3526e-09
-1.63828e-09
-1.95368e-09
-2.30092e-09
-2.68221e-09
-3.0999e-09
-3.55645e-09
-4.05446e-09
-4.59667e-09
-5.18596e-09
-5.82534e-09
-6.51799e-09
-7.26724e-09
-8.07657e-09
-8.94962e-09
-9.89021e-09
-1.09023e-08
-1.19901e-08
-1.31578e-08
-1.44101e-08
-1.57514e-08
-1.71866e-08
-1.87207e-08
-2.03589e-08
-2.21062e-08
-2.39683e-08
-2.59504e-08
-2.80581e-08
-3.02971e-08
-3.26729e-08
-3.51909e-08
-3.78563e-08
-4.06741e-08
-4.36484e-08
-4.67818e-08
-5.00768e-08
-5.35404e-08
-5.71629e-08
-6.07868e-08
-6.42522e-08
-6.98701e-08
-8.31321e-08
-7.29087e-08
-2.43398e-10
-2.69915e-10
-2.98031e-10
-3.19371e-10
-3.36299e-10
-3.49601e-10
-3.59205e-10
-3.65154e-10
-3.67588e-10
-3.66665e-10
-3.62555e-10
-3.55439e-10
-3.45508e-10
-3.32959e-10
-3.17999e-10
-3.00841e-10
-2.81704e-10
-2.60813e-10
-2.38401e-10
-2.14703e-10
-1.89967e-10
-1.64441e-10
-1.38387e-10
-1.12072e-10
-8.57732e-11
-5.9779e-11
-3.43894e-11
-9.91784e-12