/*--------------------------------*- C++ -*----------------------------------*\
  =========                 |
  \\      /  F ield         | OpenFOAM: The Open Source CFD Toolbox
   \\    /   O peration     | Website:  https://openfoam.org
    \\  /    A nd           | Version:  11
     \\/     M anipulation  |
\*---------------------------------------------------------------------------*/
FoamFile
{
    format      ascii;
    class       volVectorField;
    location    "694";
    object      U;
}
// * * * * * * * * * * * * * * * * * * * * * * * * * * * * * * * * * * * * * //

dimensions      [0 1 -1 0 0 0 0];

internalField   nonuniform List<vector> 
10000
(
(0.005 -3.47744e-08 0)
(0.00499999 -9.61837e-08 0)
(0.00499998 -1.55381e-07 0)
(0.00499996 -2.14866e-07 0)
(0.00499994 -2.76215e-07 0)
(0.00499992 -3.40602e-07 0)
(0.0049999 -4.08948e-07 0)
(0.00499987 -4.82036e-07 0)
(0.00499984 -5.60574e-07 0)
(0.00499981 -6.45227e-07 0)
(0.00499977 -7.36645e-07 0)
(0.00499973 -8.35474e-07 0)
(0.00499968 -9.42366e-07 0)
(0.00499963 -1.05799e-06 0)
(0.00499958 -1.18303e-06 0)
(0.00499952 -1.31819e-06 0)
(0.00499945 -1.46421e-06 0)
(0.00499938 -1.62184e-06 0)
(0.0049993 -1.79189e-06 0)
(0.00499921 -1.97517e-06 0)
(0.00499912 -2.17254e-06 0)
(0.00499902 -2.3849e-06 0)
(0.00499891 -2.61319e-06 0)
(0.00499879 -2.85836e-06 0)
(0.00499867 -3.12144e-06 0)
(0.00499853 -3.40348e-06 0)
(0.00499838 -3.70557e-06 0)
(0.00499822 -4.02885e-06 0)
(0.00499805 -4.3745e-06 0)
(0.00499787 -4.74376e-06 0)
(0.00499768 -5.13789e-06 0)
(0.00499747 -5.55822e-06 0)
(0.00499724 -6.00612e-06 0)
(0.004997 -6.483e-06 0)
(0.00499675 -6.99031e-06 0)
(0.00499648 -7.52958e-06 0)
(0.00499618 -8.10235e-06 0)
(0.00499587 -8.71024e-06 0)
(0.00499554 -9.35489e-06 0)
(0.00499519 -1.0038e-05 0)
(0.00499482 -1.07613e-05 0)
(0.00499442 -1.15266e-05 0)
(0.004994 -1.23357e-05 0)
(0.00499356 -1.31906e-05 0)
(0.00499308 -1.4093e-05 0)
(0.00499258 -1.50449e-05 0)
(0.00499205 -1.60484e-05 0)
(0.00499149 -1.71055e-05 0)
(0.0049909 -1.82181e-05 0)
(0.00499027 -1.93884e-05 0)
(0.00498961 -2.06185e-05 0)
(0.00498891 -2.19104e-05 0)
(0.00498818 -2.32662e-05 0)
(0.0049874 -2.46882e-05 0)
(0.00498659 -2.61783e-05 0)
(0.00498573 -2.77388e-05 0)
(0.00498483 -2.93716e-05 0)
(0.00498388 -3.10788e-05 0)
(0.00498289 -3.28625e-05 0)
(0.00498185 -3.47247e-05 0)
(0.00498076 -3.66671e-05 0)
(0.00497962 -3.86917e-05 0)
(0.00497842 -4.08002e-05 0)
(0.00497717 -4.29941e-05 0)
(0.00497586 -4.52751e-05 0)
(0.0049745 -4.76444e-05 0)
(0.00497308 -5.01032e-05 0)
(0.0049716 -5.26525e-05 0)
(0.00497006 -5.5293e-05 0)
(0.00496845 -5.80252e-05 0)
(0.00496679 -6.08493e-05 0)
(0.00496506 -6.37652e-05 0)
(0.00496327 -6.67722e-05 0)
(0.00496142 -6.98695e-05 0)
(0.0049595 -7.30556e-05 0)
(0.00495752 -7.63286e-05 0)
(0.00495548 -7.96857e-05 0)
(0.00495338 -8.31238e-05 0)
(0.00495123 -8.66386e-05 0)
(0.00494901 -9.02252e-05 0)
(0.00494675 -9.38775e-05 0)
(0.00494444 -9.75882e-05 0)
(0.00494208 -0.000101349 0)
(0.00493969 -0.000105149 0)
(0.00493726 -0.000108978 0)
(0.00493481 -0.00011282 0)
(0.00493235 -0.000116659 0)
(0.00492988 -0.000120477 0)
(0.00492742 -0.00012425 0)
(0.00492499 -0.000127952 0)
(0.00492259 -0.000131553 0)
(0.00492025 -0.000135016 0)
(0.00491799 -0.0001383 0)
(0.00491583 -0.000141354 0)
(0.00491381 -0.000144123 0)
(0.00491195 -0.000146542 0)
(0.00491028 -0.000148539 0)
(0.00490887 -0.000150031 0)
(0.00490774 -0.000150959 0)
(0.00490686 -0.000151385 0)
(0.005 -2.87291e-08 0)
(0.00499999 -8.47899e-08 0)
(0.00499998 -1.40508e-07 0)
(0.00499996 -1.96805e-07 0)
(0.00499995 -2.55002e-07 0)
(0.00499993 -3.1615e-07 0)
(0.0049999 -3.81103e-07 0)
(0.00499987 -4.50603e-07 0)
(0.00499984 -5.25326e-07 0)
(0.00499981 -6.05912e-07 0)
(0.00499977 -6.92988e-07 0)
(0.00499973 -7.87178e-07 0)
(0.00499969 -8.89113e-07 0)
(0.00499963 -9.99438e-07 0)
(0.00499958 -1.11882e-06 0)
(0.00499952 -1.24793e-06 0)
(0.00499945 -1.38749e-06 0)
(0.00499938 -1.53824e-06 0)
(0.0049993 -1.70094e-06 0)
(0.00499922 -1.8764e-06 0)
(0.00499912 -2.06543e-06 0)
(0.00499902 -2.26892e-06 0)
(0.00499892 -2.48777e-06 0)
(0.0049988 -2.72292e-06 0)
(0.00499867 -2.97534e-06 0)
(0.00499854 -3.24607e-06 0)
(0.00499839 -3.53617e-06 0)
(0.00499823 -3.84674e-06 0)
(0.00499806 -4.17893e-06 0)
(0.00499788 -4.53394e-06 0)
(0.00499769 -4.913e-06 0)
(0.00499748 -5.31741e-06 0)
(0.00499725 -5.74848e-06 0)
(0.00499702 -6.2076e-06 0)
(0.00499676 -6.69619e-06 0)
(0.00499649 -7.21571e-06 0)
(0.0049962 -7.7677e-06 0)
(0.00499589 -8.3537e-06 0)
(0.00499556 -8.97533e-06 0)
(0.00499521 -9.63425e-06 0)
(0.00499484 -1.03322e-05 0)
(0.00499444 -1.10708e-05 0)
(0.00499402 -1.1852e-05 0)
(0.00499358 -1.26775e-05 0)
(0.00499311 -1.35492e-05 0)
(0.00499261 -1.44691e-05 0)
(0.00499208 -1.5439e-05 0)
(0.00499152 -1.6461e-05 0)
(0.00499093 -1.7537e-05 0)
(0.0049903 -1.86691e-05 0)
(0.00498965 -1.98593e-05 0)
(0.00498895 -2.11098e-05 0)
(0.00498822 -2.24225e-05 0)
(0.00498745 -2.37997e-05 0)
(0.00498663 -2.52433e-05 0)
(0.00498578 -2.67555e-05 0)
(0.00498488 -2.83383e-05 0)
(0.00498394 -2.99938e-05 0)
(0.00498295 -3.1724e-05 0)
(0.00498191 -3.35309e-05 0)
(0.00498082 -3.54164e-05 0)
(0.00497968 -3.73823e-05 0)
(0.00497849 -3.94305e-05 0)
(0.00497724 -4.15625e-05 0)
(0.00497594 -4.378e-05 0)
(0.00497458 -4.60844e-05 0)
(0.00497316 -4.8477e-05 0)
(0.00497168 -5.09587e-05 0)
(0.00497015 -5.35307e-05 0)
(0.00496855 -5.61934e-05 0)
(0.00496689 -5.89472e-05 0)
(0.00496517 -6.17923e-05 0)
(0.00496338 -6.47285e-05 0)
(0.00496153 -6.77549e-05 0)
(0.00495962 -7.08707e-05 0)
(0.00495765 -7.40741e-05 0)
(0.00495561 -7.7363e-05 0)
(0.00495352 -8.07348e-05 0)
(0.00495136 -8.41857e-05 0)
(0.00494916 -8.77116e-05 0)
(0.0049469 -9.13071e-05 0)
(0.00494459 -9.49659e-05 0)
(0.00494224 -9.86804e-05 0)
(0.00493985 -0.000102442 0)
(0.00493742 -0.000106239 0)
(0.00493498 -0.000110059 0)
(0.00493252 -0.000113888 0)
(0.00493005 -0.000117708 0)
(0.00492759 -0.000121498 0)
(0.00492516 -0.000125234 0)
(0.00492276 -0.000128888 0)
(0.00492041 -0.000132427 0)
(0.00491814 -0.000135811 0)
(0.00491597 -0.000138995 0)
(0.00491393 -0.000141927 0)
(0.00491203 -0.000144546 0)
(0.00491033 -0.000146786 0)
(0.00490884 -0.000148569 0)
(0.00490754 -0.000149822 0)
(0.0049064 -0.000150526 0)
(0.005 -2.38784e-08 0)
(0.00499999 -7.42211e-08 0)
(0.00499998 -1.25919e-07 0)
(0.00499997 -1.78855e-07 0)
(0.00499995 -2.33862e-07 0)
(0.00499993 -2.91795e-07 0)
(0.00499991 -3.53411e-07 0)
(0.00499988 -4.19395e-07 0)
(0.00499985 -4.90388e-07 0)
(0.00499981 -5.67001e-07 0)
(0.00499978 -6.49839e-07 0)
(0.00499974 -7.39502e-07 0)
(0.00499969 -8.36601e-07 0)
(0.00499964 -9.4176e-07 0)
(0.00499959 -1.05562e-06 0)
(0.00499953 -1.17884e-06 0)
(0.00499946 -1.31212e-06 0)
(0.00499939 -1.45616e-06 0)
(0.00499931 -1.61171e-06 0)
(0.00499922 -1.77955e-06 0)
(0.00499913 -1.96048e-06 0)
(0.00499903 -2.15534e-06 0)
(0.00499893 -2.36501e-06 0)
(0.00499881 -2.59041e-06 0)
(0.00499868 -2.83249e-06 0)
(0.00499855 -3.09224e-06 0)
(0.0049984 -3.37069e-06 0)
(0.00499825 -3.66892e-06 0)
(0.00499808 -3.98804e-06 0)
(0.0049979 -4.32923e-06 0)
(0.00499771 -4.69367e-06 0)
(0.0049975 -5.08262e-06 0)
(0.00499728 -5.49738e-06 0)
(0.00499704 -5.93928e-06 0)
(0.00499679 -6.40972e-06 0)
(0.00499652 -6.91011e-06 0)
(0.00499623 -7.44195e-06 0)
(0.00499592 -8.00676e-06 0)
(0.00499559 -8.6061e-06 0)
(0.00499525 -9.2416e-06 0)
(0.00499488 -9.91491e-06 0)
(0.00499448 -1.06277e-05 0)
(0.00499407 -1.13818e-05 0)
(0.00499363 -1.2179e-05 0)
(0.00499316 -1.3021e-05 0)
(0.00499266 -1.39098e-05 0)
(0.00499213 -1.48473e-05 0)
(0.00499158 -1.58353e-05 0)
(0.00499099 -1.6876e-05 0)
(0.00499037 -1.79712e-05 0)
(0.00498971 -1.91229e-05 0)
(0.00498902 -2.03333e-05 0)
(0.0049883 -2.16044e-05 0)
(0.00498753 -2.29383e-05 0)
(0.00498672 -2.4337e-05 0)
(0.00498587 -2.58026e-05 0)
(0.00498498 -2.73371e-05 0)
(0.00498404 -2.89427e-05 0)
(0.00498305 -3.06212e-05 0)
(0.00498202 -3.23748e-05 0)
(0.00498094 -3.42053e-05 0)
(0.00497981 -3.61147e-05 0)
(0.00497862 -3.81046e-05 0)
(0.00497738 -4.0177e-05 0)
(0.00497608 -4.23333e-05 0)
(0.00497473 -4.45751e-05 0)
(0.00497332 -4.69038e-05 0)
(0.00497185 -4.93205e-05 0)
(0.00497032 -5.18263e-05 0)
(0.00496873 -5.4422e-05 0)
(0.00496708 -5.71082e-05 0)
(0.00496537 -5.98852e-05 0)
(0.00496359 -6.2753e-05 0)
(0.00496175 -6.57113e-05 0)
(0.00495985 -6.87592e-05 0)
(0.00495788 -7.18957e-05 0)
(0.00495586 -7.51189e-05 0)
(0.00495377 -7.84267e-05 0)
(0.00495163 -8.18161e-05 0)
(0.00494943 -8.52834e-05 0)
(0.00494718 -8.88241e-05 0)
(0.00494488 -9.24326e-05 0)
(0.00494253 -9.61023e-05 0)
(0.00494015 -9.98251e-05 0)
(0.00493773 -0.000103592 0)
(0.00493529 -0.00010739 0)
(0.00493283 -0.000111208 0)
(0.00493037 -0.000115029 0)
(0.00492791 -0.000118834 0)
(0.00492546 -0.000122601 0)
(0.00492305 -0.000126303 0)
(0.0049207 -0.000129911 0)
(0.00491841 -0.000133387 0)
(0.0049162 -0.000136688 0)
(0.00491412 -0.000139766 0)
(0.00491216 -0.000142561 0)
(0.00491037 -0.000145006 0)
(0.00490876 -0.000147023 0)
(0.00490725 -0.000148522 0)
(0.00490583 -0.000149429 0)
(0.005 -2.05739e-08 0)
(0.00499999 -6.57581e-08 0)
(0.00499998 -1.1343e-07 0)
(0.00499997 -1.62981e-07 0)
(0.00499995 -2.14882e-07 0)
(0.00499993 -2.69774e-07 0)
(0.00499991 -3.28295e-07 0)
(0.00499988 -3.91055e-07 0)
(0.00499985 -4.58646e-07 0)
(0.00499982 -5.3165e-07 0)
(0.00499978 -6.10642e-07 0)
(0.00499974 -6.96201e-07 0)
(0.0049997 -7.88917e-07 0)
(0.00499965 -8.89393e-07 0)
(0.00499959 -9.98251e-07 0)
(0.00499953 -1.11613e-06 0)
(0.00499947 -1.24371e-06 0)
(0.0049994 -1.38167e-06 0)
(0.00499932 -1.53073e-06 0)
(0.00499924 -1.69166e-06 0)
(0.00499914 -1.86523e-06 0)
(0.00499905 -2.05225e-06 0)
(0.00499894 -2.2536e-06 0)
(0.00499882 -2.47014e-06 0)
(0.0049987 -2.70282e-06 0)
(0.00499857 -2.95259e-06 0)
(0.00499842 -3.22047e-06 0)
(0.00499827 -3.50748e-06 0)
(0.0049981 -3.81474e-06 0)
(0.00499792 -4.14335e-06 0)
(0.00499773 -4.49451e-06 0)
(0.00499753 -4.86942e-06 0)
(0.00499731 -5.26935e-06 0)
(0.00499707 -5.6956e-06 0)
(0.00499682 -6.14953e-06 0)
(0.00499655 -6.63253e-06 0)
(0.00499627 -7.14605e-06 0)
(0.00499596 -7.69157e-06 0)
(0.00499564 -8.27064e-06 0)
(0.00499529 -8.88483e-06 0)
(0.00499493 -9.53576e-06 0)
(0.00499454 -1.02251e-05 0)
(0.00499413 -1.09546e-05 0)
(0.00499369 -1.17259e-05 0)
(0.00499322 -1.2541e-05 0)
(0.00499273 -1.34015e-05 0)
(0.00499221 -1.43094e-05 0)
(0.00499166 -1.52666e-05 0)
(0.00499108 -1.6275e-05 0)
(0.00499046 -1.73366e-05 0)
(0.00498981 -1.84533e-05 0)
(0.00498912 -1.96273e-05 0)
(0.0049884 -2.08604e-05 0)
(0.00498764 -2.21549e-05 0)
(0.00498684 -2.35126e-05 0)
(0.004986 -2.49358e-05 0)
(0.00498511 -2.64263e-05 0)
(0.00498418 -2.79864e-05 0)
(0.0049832 -2.96179e-05 0)
(0.00498218 -3.13229e-05 0)
(0.0049811 -3.31033e-05 0)
(0.00497998 -3.49611e-05 0)
(0.0049788 -3.68981e-05 0)
(0.00497757 -3.8916e-05 0)
(0.00497629 -4.10165e-05 0)
(0.00497495 -4.32012e-05 0)
(0.00497355 -4.54716e-05 0)
(0.00497209 -4.78289e-05 0)
(0.00497057 -5.02744e-05 0)
(0.00496899 -5.2809e-05 0)
(0.00496735 -5.54334e-05 0)
(0.00496565 -5.81481e-05 0)
(0.00496388 -6.09535e-05 0)
(0.00496205 -6.38493e-05 0)
(0.00496016 -6.68351e-05 0)
(0.00495821 -6.99102e-05 0)
(0.0049562 -7.30732e-05 0)
(0.00495412 -7.63222e-05 0)
(0.00495199 -7.96549e-05 0)
(0.00494981 -8.30682e-05 0)
(0.00494757 -8.65581e-05 0)
(0.00494528 -9.01198e-05 0)
(0.00494294 -9.37475e-05 0)
(0.00494057 -9.7434e-05 0)
(0.00493816 -0.000101171 0)
(0.00493572 -0.000104948 0)
(0.00493327 -0.000108753 0)
(0.0049308 -0.000112572 0)
(0.00492834 -0.000116387 0)
(0.00492589 -0.000120177 0)
(0.00492347 -0.000123918 0)
(0.00492109 -0.000127581 0)
(0.00491878 -0.000131131 0)
(0.00491654 -0.000134527 0)
(0.00491439 -0.000137719 0)
(0.00491236 -0.000140649 0)
(0.00491047 -0.000143246 0)
(0.00490871 -0.000145424 0)
(0.00490699 -0.000147082 0)
(0.00490529 -0.000148117 0)
(0.005 -1.79524e-08 0)
(0.00499999 -5.83984e-08 0)
(0.00499999 -1.02007e-07 0)
(0.00499997 -1.48012e-07 0)
(0.00499996 -1.96657e-07 0)
(0.00499994 -2.48409e-07 0)
(0.00499991 -3.0378e-07 0)
(0.00499989 -3.63299e-07 0)
(0.00499986 -4.27502e-07 0)
(0.00499983 -4.96928e-07 0)
(0.00499979 -5.72121e-07 0)
(0.00499975 -6.53634e-07 0)
(0.0049997 -7.42034e-07 0)
(0.00499966 -8.37903e-07 0)
(0.0049996 -9.41839e-07 0)
(0.00499954 -1.05447e-06 0)
(0.00499948 -1.17643e-06 0)
(0.00499941 -1.30841e-06 0)
(0.00499933 -1.45109e-06 0)
(0.00499925 -1.60521e-06 0)
(0.00499916 -1.77154e-06 0)
(0.00499906 -1.95086e-06 0)
(0.00499896 -2.144e-06 0)
(0.00499884 -2.35183e-06 0)
(0.00499872 -2.57524e-06 0)
(0.00499859 -2.81519e-06 0)
(0.00499845 -3.07264e-06 0)
(0.00499829 -3.34861e-06 0)
(0.00499813 -3.64416e-06 0)
(0.00499795 -3.96039e-06 0)
(0.00499776 -4.29844e-06 0)
(0.00499756 -4.65951e-06 0)
(0.00499734 -5.04481e-06 0)
(0.00499711 -5.45562e-06 0)
(0.00499686 -5.89327e-06 0)
(0.0049966 -6.35911e-06 0)
(0.00499632 -6.85456e-06 0)
(0.00499602 -7.38106e-06 0)
(0.0049957 -7.94012e-06 0)
(0.00499535 -8.53328e-06 0)
(0.00499499 -9.16213e-06 0)
(0.00499461 -9.82829e-06 0)
(0.0049942 -1.05335e-05 0)
(0.00499377 -1.12793e-05 0)
(0.00499331 -1.20677e-05 0)
(0.00499282 -1.29003e-05 0)
(0.0049923 -1.3779e-05 0)
(0.00499176 -1.47057e-05 0)
(0.00499118 -1.56823e-05 0)
(0.00499057 -1.67107e-05 0)
(0.00498993 -1.77928e-05 0)
(0.00498925 -1.89307e-05 0)
(0.00498854 -2.01264e-05 0)
(0.00498778 -2.13819e-05 0)
(0.00498699 -2.26992e-05 0)
(0.00498616 -2.40804e-05 0)
(0.00498528 -2.55275e-05 0)
(0.00498436 -2.70426e-05 0)
(0.00498339 -2.86276e-05 0)
(0.00498238 -3.02845e-05 0)
(0.00498131 -3.20154e-05 0)
(0.0049802 -3.38222e-05 0)
(0.00497903 -3.57066e-05 0)
(0.00497781 -3.76706e-05 0)
(0.00497654 -3.97159e-05 0)
(0.00497521 -4.18441e-05 0)
(0.00497382 -4.40568e-05 0)
(0.00497238 -4.63554e-05 0)
(0.00497087 -4.8741e-05 0)
(0.00496931 -5.1215e-05 0)
(0.00496768 -5.37781e-05 0)
(0.00496599 -5.6431e-05 0)
(0.00496424 -5.91743e-05 0)
(0.00496243 -6.20081e-05 0)
(0.00496056 -6.49322e-05 0)
(0.00495862 -6.79461e-05 0)
(0.00495662 -7.1049e-05 0)
(0.00495457 -7.42394e-05 0)
(0.00495245 -7.75153e-05 0)
(0.00495028 -8.08742e-05 0)
(0.00494805 -8.43129e-05 0)
(0.00494578 -8.78271e-05 0)
(0.00494345 -9.14119e-05 0)
(0.00494109 -9.50609e-05 0)
(0.00493869 -9.87667e-05 0)
(0.00493626 -0.00010252 0)
(0.00493381 -0.00010631 0)
(0.00493135 -0.000110123 0)
(0.00492889 -0.000113943 0)
(0.00492643 -0.000117751 0)
(0.00492399 -0.000121523 0)
(0.00492159 -0.000125233 0)
(0.00491924 -0.000128845 0)
(0.00491695 -0.00013232 0)
(0.00491474 -0.000135608 0)
(0.00491263 -0.000138647 0)
(0.00491063 -0.000141363 0)
(0.00490873 -0.00014366 0)
(0.00490682 -0.000145421 0)
(0.00490484 -0.000146552 0)
(0.005 -1.56882e-08 0)
(0.005 -5.1784e-08 0)
(0.00499999 -9.14175e-08 0)
(0.00499998 -1.3381e-07 0)
(0.00499996 -1.79088e-07 0)
(0.00499994 -2.27591e-07 0)
(0.00499992 -2.79729e-07 0)
(0.00499989 -3.3595e-07 0)
(0.00499987 -3.9673e-07 0)
(0.00499983 -4.62563e-07 0)
(0.0049998 -5.33958e-07 0)
(0.00499976 -6.11438e-07 0)
(0.00499971 -6.95543e-07 0)
(0.00499967 -7.86831e-07 0)
(0.00499961 -8.85881e-07 0)
(0.00499955 -9.93293e-07 0)
(0.00499949 -1.10969e-06 0)
(0.00499942 -1.23573e-06 0)
(0.00499935 -1.37208e-06 0)
(0.00499926 -1.51945e-06 0)
(0.00499918 -1.67859e-06 0)
(0.00499908 -1.85025e-06 0)
(0.00499898 -2.03526e-06 0)
(0.00499886 -2.23443e-06 0)
(0.00499874 -2.44866e-06 0)
(0.00499861 -2.67884e-06 0)
(0.00499847 -2.92594e-06 0)
(0.00499832 -3.19094e-06 0)
(0.00499816 -3.47487e-06 0)
(0.00499799 -3.77879e-06 0)
(0.0049978 -4.10383e-06 0)
(0.0049976 -4.45114e-06 0)
(0.00499739 -4.82191e-06 0)
(0.00499716 -5.21739e-06 0)
(0.00499691 -5.63885e-06 0)
(0.00499665 -6.08763e-06 0)
(0.00499637 -6.56511e-06 0)
(0.00499608 -7.0727e-06 0)
(0.00499576 -7.61187e-06 0)
(0.00499542 -8.18411e-06 0)
(0.00499507 -8.791e-06 0)
(0.00499469 -9.43411e-06 0)
(0.00499428 -1.01151e-05 0)
(0.00499386 -1.08356e-05 0)
(0.0049934 -1.15974e-05 0)
(0.00499292 -1.24023e-05 0)
(0.00499241 -1.3252e-05 0)
(0.00499188 -1.41483e-05 0)
(0.00499131 -1.50932e-05 0)
(0.0049907 -1.60885e-05 0)
(0.00499007 -1.71363e-05 0)
(0.0049894 -1.82383e-05 0)
(0.00498869 -1.93967e-05 0)
(0.00498795 -2.06134e-05 0)
(0.00498717 -2.18904e-05 0)
(0.00498634 -2.32298e-05 0)
(0.00498548 -2.46336e-05 0)
(0.00498457 -2.61038e-05 0)
(0.00498361 -2.76425e-05 0)
(0.00498261 -2.92516e-05 0)
(0.00498156 -3.09331e-05 0)
(0.00498046 -3.2689e-05 0)
(0.0049793 -3.45211e-05 0)
(0.0049781 -3.64314e-05 0)
(0.00497684 -3.84216e-05 0)
(0.00497552 -4.04934e-05 0)
(0.00497415 -4.26485e-05 0)
(0.00497272 -4.48883e-05 0)
(0.00497123 -4.72143e-05 0)
(0.00496969 -4.96276e-05 0)
(0.00496808 -5.21295e-05 0)
(0.00496641 -5.47206e-05 0)
(0.00496467 -5.74018e-05 0)
(0.00496288 -6.01734e-05 0)
(0.00496102 -6.30356e-05 0)
(0.0049591 -6.59881e-05 0)
(0.00495712 -6.90305e-05 0)
(0.00495508 -7.21616e-05 0)
(0.00495299 -7.53802e-05 0)
(0.00495083 -7.8684e-05 0)
(0.00494862 -8.20705e-05 0)
(0.00494636 -8.5536e-05 0)
(0.00494405 -8.90763e-05 0)
(0.0049417 -9.2686e-05 0)
(0.00493932 -9.63582e-05 0)
(0.0049369 -0.000100085 0)
(0.00493445 -0.000103856 0)
(0.00493199 -0.000107659 0)
(0.00492952 -0.000111479 0)
(0.00492705 -0.000115299 0)
(0.0049246 -0.000119095 0)
(0.00492217 -0.000122841 0)
(0.00491978 -0.000126505 0)
(0.00491744 -0.000130044 0)
(0.00491517 -0.000133408 0)
(0.00491296 -0.000136535 0)
(0.00491085 -0.000139344 0)
(0.00490881 -0.000141731 0)
(0.00490673 -0.000143567 0)
(0.0049045 -0.000144749 0)
(0.005 -1.36961e-08 0)
(0.005 -4.5814e-08 0)
(0.00499999 -8.16454e-08 0)
(0.00499998 -1.20465e-07 0)
(0.00499996 -1.62348e-07 0)
(0.00499994 -2.07553e-07 0)
(0.00499992 -2.5641e-07 0)
(0.0049999 -3.093e-07 0)
(0.00499987 -3.66643e-07 0)
(0.00499984 -4.28887e-07 0)
(0.0049998 -4.96502e-07 0)
(0.00499977 -5.69981e-07 0)
(0.00499972 -6.49835e-07 0)
(0.00499968 -7.36598e-07 0)
(0.00499962 -8.30825e-07 0)
(0.00499957 -9.33092e-07 0)
(0.0049995 -1.044e-06 0)
(0.00499944 -1.16419e-06 0)
(0.00499936 -1.2943e-06 0)
(0.00499928 -1.43502e-06 0)
(0.0049992 -1.58707e-06 0)
(0.0049991 -1.7512e-06 0)
(0.004999 -1.92818e-06 0)
(0.00499889 -2.11882e-06 0)
(0.00499877 -2.32399e-06 0)
(0.00499864 -2.54455e-06 0)
(0.0049985 -2.78145e-06 0)
(0.00499836 -3.03562e-06 0)
(0.0049982 -3.30809e-06 0)
(0.00499803 -3.59988e-06 0)
(0.00499784 -3.91208e-06 0)
(0.00499765 -4.24581e-06 0)
(0.00499743 -4.60224e-06 0)
(0.00499721 -4.98257e-06 0)
(0.00499697 -5.38807e-06 0)
(0.00499671 -5.82001e-06 0)
(0.00499644 -6.27975e-06 0)
(0.00499615 -6.76867e-06 0)
(0.00499584 -7.28818e-06 0)
(0.00499551 -7.83978e-06 0)
(0.00499515 -8.42497e-06 0)
(0.00499478 -9.04531e-06 0)
(0.00499438 -9.7024e-06 0)
(0.00499396 -1.03979e-05 0)
(0.00499351 -1.11335e-05 0)
(0.00499304 -1.19109e-05 0)
(0.00499254 -1.27318e-05 0)
(0.00499201 -1.35982e-05 0)
(0.00499145 -1.45118e-05 0)
(0.00499086 -1.54744e-05 0)
(0.00499023 -1.64881e-05 0)
(0.00498957 -1.75547e-05 0)
(0.00498887 -1.86761e-05 0)
(0.00498814 -1.98545e-05 0)
(0.00498737 -2.10917e-05 0)
(0.00498656 -2.23897e-05 0)
(0.0049857 -2.37506e-05 0)
(0.0049848 -2.51765e-05 0)
(0.00498386 -2.66692e-05 0)
(0.00498287 -2.82309e-05 0)
(0.00498183 -2.98635e-05 0)
(0.00498075 -3.1569e-05 0)
(0.00497961 -3.33493e-05 0)
(0.00497842 -3.52064e-05 0)
(0.00497718 -3.71419e-05 0)
(0.00497588 -3.91578e-05 0)
(0.00497453 -4.12558e-05 0)
(0.00497311 -4.34373e-05 0)
(0.00497164 -4.5704e-05 0)
(0.00497011 -4.80571e-05 0)
(0.00496852 -5.0498e-05 0)
(0.00496687 -5.30277e-05 0)
(0.00496516 -5.5647e-05 0)
(0.00496338 -5.83566e-05 0)
(0.00496155 -6.11569e-05 0)
(0.00495965 -6.4048e-05 0)
(0.00495769 -6.70298e-05 0)
(0.00495567 -7.01015e-05 0)
(0.00495359 -7.32622e-05 0)
(0.00495146 -7.65103e-05 0)
(0.00494927 -7.98436e-05 0)
(0.00494702 -8.32593e-05 0)
(0.00494473 -8.67536e-05 0)
(0.00494239 -9.03218e-05 0)
(0.00494002 -9.39581e-05 0)
(0.00493761 -9.76549e-05 0)
(0.00493517 -0.000101403 0)
(0.00493271 -0.000105192 0)
(0.00493023 -0.000109007 0)
(0.00492775 -0.00011283 0)
(0.00492528 -0.000116642 0)
(0.00492282 -0.000120414 0)
(0.00492039 -0.000124115 0)
(0.004918 -0.000127704 0)
(0.00491565 -0.000131127 0)
(0.00491336 -0.000134321 0)
(0.00491113 -0.000137199 0)
(0.00490896 -0.000139654 0)
(0.00490673 -0.000141545 0)
(0.00490427 -0.00014275 0)
(0.005 -1.19162e-08 0)
(0.005 -4.03846e-08 0)
(0.00499999 -7.26185e-08 0)
(0.00499998 -1.07966e-07 0)
(0.00499997 -1.46486e-07 0)
(0.00499995 -1.88391e-07 0)
(0.00499993 -2.33955e-07 0)
(0.0049999 -2.83505e-07 0)
(0.00499988 -3.37411e-07 0)
(0.00499985 -3.96079e-07 0)
(0.00499981 -4.59942e-07 0)
(0.00499977 -5.2946e-07 0)
(0.00499973 -6.05115e-07 0)
(0.00499969 -6.87416e-07 0)
(0.00499964 -7.76892e-07 0)
(0.00499958 -8.74098e-07 0)
(0.00499952 -9.79613e-07 0)
(0.00499945 -1.09404e-06 0)
(0.00499938 -1.21802e-06 0)
(0.0049993 -1.35221e-06 0)
(0.00499922 -1.4973e-06 0)
(0.00499912 -1.65402e-06 0)
(0.00499902 -1.82312e-06 0)
(0.00499892 -2.00538e-06 0)
(0.0049988 -2.20164e-06 0)
(0.00499867 -2.41275e-06 0)
(0.00499854 -2.63961e-06 0)
(0.00499839 -2.88315e-06 0)
(0.00499824 -3.14434e-06 0)
(0.00499807 -3.4242e-06 0)
(0.00499789 -3.72377e-06 0)
(0.0049977 -4.04414e-06 0)
(0.00499749 -4.38646e-06 0)
(0.00499727 -4.7519e-06 0)
(0.00499703 -5.14167e-06 0)
(0.00499678 -5.55704e-06 0)
(0.00499651 -5.99931e-06 0)
(0.00499623 -6.46984e-06 0)
(0.00499592 -6.97001e-06 0)
(0.00499559 -7.50127e-06 0)
(0.00499525 -8.06508e-06 0)
(0.00499488 -8.66299e-06 0)
(0.00499449 -9.29654e-06 0)
(0.00499408 -9.96736e-06 0)
(0.00499364 -1.06771e-05 0)
(0.00499317 -1.14274e-05 0)
(0.00499268 -1.22201e-05 0)
(0.00499216 -1.30569e-05 0)
(0.00499161 -1.39396e-05 0)
(0.00499102 -1.487e-05 0)
(0.00499041 -1.585e-05 0)
(0.00498976 -1.68816e-05 0)
(0.00498907 -1.79667e-05 0)
(0.00498835 -1.91071e-05 0)
(0.00498759 -2.0305e-05 0)
(0.00498679 -2.15622e-05 0)
(0.00498595 -2.28808e-05 0)
(0.00498507 -2.42628e-05 0)
(0.00498414 -2.57102e-05 0)
(0.00498316 -2.72251e-05 0)
(0.00498214 -2.88094e-05 0)
(0.00498107 -3.0465e-05 0)
(0.00497995 -3.21941e-05 0)
(0.00497878 -3.39984e-05 0)
(0.00497755 -3.588e-05 0)
(0.00497627 -3.78405e-05 0)
(0.00497494 -3.98818e-05 0)
(0.00497355 -4.20056e-05 0)
(0.0049721 -4.42135e-05 0)
(0.00497059 -4.65069e-05 0)
(0.00496902 -4.88873e-05 0)
(0.00496739 -5.13558e-05 0)
(0.0049657 -5.39135e-05 0)
(0.00496394 -5.65614e-05 0)
(0.00496213 -5.93e-05 0)
(0.00496025 -6.21297e-05 0)
(0.00495831 -6.50507e-05 0)
(0.00495632 -6.80627e-05 0)
(0.00495426 -7.1165e-05 0)
(0.00495214 -7.43566e-05 0)
(0.00494997 -7.76358e-05 0)
(0.00494775 -8.10003e-05 0)
(0.00494547 -8.44468e-05 0)
(0.00494315 -8.79715e-05 0)
(0.00494079 -9.1569e-05 0)
(0.00493838 -9.52327e-05 0)
(0.00493595 -9.89542e-05 0)
(0.00493349 -0.000102723 0)
(0.00493101 -0.000106526 0)
(0.00492852 -0.000110347 0)
(0.00492602 -0.000114164 0)
(0.00492354 -0.000117952 0)
(0.00492106 -0.000121678 0)
(0.00491861 -0.000125301 0)
(0.00491619 -0.000128767 0)
(0.00491381 -0.000132008 0)
(0.00491148 -0.000134937 0)
(0.00490918 -0.00013744 0)
(0.00490682 -0.00013937 0)
(0.00490416 -0.000140564 0)
(0.005 -1.03025e-08 0)
(0.005 -3.54082e-08 0)
(0.00499999 -6.42546e-08 0)
(0.00499998 -9.62616e-08 0)
(0.00499997 -1.31493e-07 0)
(0.00499995 -1.70135e-07 0)
(0.00499993 -2.12425e-07 0)
(0.00499991 -2.58649e-07 0)
(0.00499988 -3.09135e-07 0)
(0.00499985 -3.64252e-07 0)
(0.00499982 -4.24397e-07 0)
(0.00499978 -4.89999e-07 0)
(0.00499974 -5.61514e-07 0)
(0.0049997 -6.3942e-07 0)
(0.00499965 -7.24223e-07 0)
(0.00499959 -8.16455e-07 0)
(0.00499953 -9.16671e-07 0)
(0.00499947 -1.02545e-06 0)
(0.0049994 -1.14342e-06 0)
(0.00499932 -1.27119e-06 0)
(0.00499924 -1.40946e-06 0)
(0.00499915 -1.55891e-06 0)
(0.00499905 -1.72027e-06 0)
(0.00499895 -1.89431e-06 0)
(0.00499883 -2.08184e-06 0)
(0.00499871 -2.28367e-06 0)
(0.00499858 -2.50068e-06 0)
(0.00499843 -2.73377e-06 0)
(0.00499828 -2.9839e-06 0)
(0.00499812 -3.25203e-06 0)
(0.00499794 -3.5392e-06 0)
(0.00499775 -3.84646e-06 0)
(0.00499755 -4.17492e-06 0)
(0.00499733 -4.52571e-06 0)
(0.0049971 -4.90004e-06 0)
(0.00499685 -5.29912e-06 0)
(0.00499659 -5.72422e-06 0)
(0.00499631 -6.17667e-06 0)
(0.00499601 -6.65781e-06 0)
(0.00499569 -7.16906e-06 0)
(0.00499535 -7.71185e-06 0)
(0.00499499 -8.28768e-06 0)
(0.00499461 -8.89807e-06 0)
(0.0049942 -9.5446e-06 0)
(0.00499377 -1.02289e-05 0)
(0.00499332 -1.09526e-05 0)
(0.00499283 -1.17174e-05 0)
(0.00499232 -1.2525e-05 0)
(0.00499178 -1.33773e-05 0)
(0.00499121 -1.4276e-05 0)
(0.0049906 -1.52229e-05 0)
(0.00498996 -1.622e-05 0)
(0.00498929 -1.72692e-05 0)
(0.00498858 -1.83723e-05 0)
(0.00498783 -1.95313e-05 0)
(0.00498705 -2.07483e-05 0)
(0.00498622 -2.20251e-05 0)
(0.00498535 -2.33639e-05 0)
(0.00498444 -2.47666e-05 0)
(0.00498348 -2.62352e-05 0)
(0.00498248 -2.77717e-05 0)
(0.00498142 -2.93781e-05 0)
(0.00498032 -3.10565e-05 0)
(0.00497917 -3.28088e-05 0)
(0.00497796 -3.46368e-05 0)
(0.0049767 -3.65426e-05 0)
(0.00497539 -3.85279e-05 0)
(0.00497401 -4.05944e-05 0)
(0.00497258 -4.2744e-05 0)
(0.0049711 -4.49781e-05 0)
(0.00496955 -4.72984e-05 0)
(0.00496794 -4.97062e-05 0)
(0.00496627 -5.22026e-05 0)
(0.00496454 -5.47889e-05 0)
(0.00496275 -5.74659e-05 0)
(0.0049609 -6.02342e-05 0)
(0.00495899 -6.30942e-05 0)
(0.00495701 -6.60461e-05 0)
(0.00495498 -6.90895e-05 0)
(0.00495288 -7.22237e-05 0)
(0.00495073 -7.54476e-05 0)
(0.00494853 -7.87593e-05 0)
(0.00494627 -8.21562e-05 0)
(0.00494396 -8.56349e-05 0)
(0.00494161 -8.91906e-05 0)
(0.00493921 -9.28175e-05 0)
(0.00493678 -9.65077e-05 0)
(0.00493432 -0.000100252 0)
(0.00493184 -0.000104036 0)
(0.00492933 -0.000107846 0)
(0.00492682 -0.00011166 0)
(0.0049243 -0.000115454 0)
(0.00492179 -0.000119193 0)
(0.00491928 -0.000122836 0)
(0.00491679 -0.000126328 0)
(0.00491433 -0.000129601 0)
(0.0049119 -0.000132565 0)
(0.00490948 -0.0001351 0)
(0.00490698 -0.000137056 0)
(0.00490417 -0.000138215 0)
(0.005 -8.8258e-09 0)
(0.005 -3.08212e-08 0)
(0.00499999 -5.64854e-08 0)
(0.00499998 -8.53023e-08 0)
(0.00499997 -1.17347e-07 0)
(0.00499995 -1.52795e-07 0)
(0.00499994 -1.91859e-07 0)
(0.00499991 -2.34794e-07 0)
(0.00499989 -2.81897e-07 0)
(0.00499986 -3.33501e-07 0)
(0.00499983 -3.89974e-07 0)
(0.00499979 -4.51716e-07 0)
(0.00499975 -5.19152e-07 0)
(0.00499971 -5.92737e-07 0)
(0.00499966 -6.72952e-07 0)
(0.00499961 -7.60303e-07 0)
(0.00499955 -8.55323e-07 0)
(0.00499949 -9.58572e-07 0)
(0.00499942 -1.07064e-06 0)
(0.00499934 -1.19214e-06 0)
(0.00499926 -1.32371e-06 0)
(0.00499918 -1.46604e-06 0)
(0.00499908 -1.61983e-06 0)
(0.00499898 -1.78582e-06 0)
(0.00499887 -1.96479e-06 0)
(0.00499875 -2.15753e-06 0)
(0.00499862 -2.36489e-06 0)
(0.00499848 -2.58775e-06 0)
(0.00499833 -2.82703e-06 0)
(0.00499817 -3.08368e-06 0)
(0.004998 -3.35868e-06 0)
(0.00499781 -3.65308e-06 0)
(0.00499761 -3.96794e-06 0)
(0.0049974 -4.30437e-06 0)
(0.00499718 -4.66354e-06 0)
(0.00499693 -5.04662e-06 0)
(0.00499668 -5.45488e-06 0)
(0.0049964 -5.88957e-06 0)
(0.00499611 -6.35203e-06 0)
(0.0049958 -6.84363e-06 0)
(0.00499547 -7.36577e-06 0)
(0.00499511 -7.9199e-06 0)
(0.00499474 -8.50753e-06 0)
(0.00499434 -9.13019e-06 0)
(0.00499392 -9.78946e-06 0)
(0.00499347 -1.0487e-05 0)
(0.004993 -1.12243e-05 0)
(0.00499249 -1.20033e-05 0)
(0.00499196 -1.28257e-05 0)
(0.0049914 -1.36931e-05 0)
(0.00499081 -1.46075e-05 0)
(0.00499018 -1.55706e-05 0)
(0.00498952 -1.65844e-05 0)
(0.00498883 -1.76507e-05 0)
(0.0049881 -1.87716e-05 0)
(0.00498732 -1.99488e-05 0)
(0.00498651 -2.11845e-05 0)
(0.00498566 -2.24806e-05 0)
(0.00498476 -2.38392e-05 0)
(0.00498382 -2.52621e-05 0)
(0.00498283 -2.67515e-05 0)
(0.0049818 -2.83094e-05 0)
(0.00498072 -2.99377e-05 0)
(0.00497958 -3.16385e-05 0)
(0.0049784 -3.34137e-05 0)
(0.00497716 -3.52653e-05 0)
(0.00497586 -3.71951e-05 0)
(0.00497451 -3.9205e-05 0)
(0.00497311 -4.12967e-05 0)
(0.00497164 -4.34721e-05 0)
(0.00497012 -4.57326e-05 0)
(0.00496853 -4.80799e-05 0)
(0.00496689 -5.05154e-05 0)
(0.00496518 -5.30403e-05 0)
(0.00496342 -5.56556e-05 0)
(0.00496159 -5.83624e-05 0)
(0.0049597 -6.11612e-05 0)
(0.00495775 -6.40525e-05 0)
(0.00495573 -6.70362e-05 0)
(0.00495366 -7.01122e-05 0)
(0.00495153 -7.32795e-05 0)
(0.00494935 -7.65369e-05 0)
(0.00494711 -7.9882e-05 0)
(0.00494482 -8.33121e-05 0)
(0.00494248 -8.68229e-05 0)
(0.00494009 -9.04091e-05 0)
(0.00493767 -9.40635e-05 0)
(0.00493521 -9.77767e-05 0)
(0.00493271 -0.000101537 0)
(0.0049302 -0.000105328 0)
(0.00492766 -0.000109131 0)
(0.00492511 -0.000112919 0)
(0.00492256 -0.000116659 0)
(0.00492 -0.000120309 0)
(0.00491744 -0.000123815 0)
(0.0049149 -0.000127105 0)
(0.00491238 -0.000130087 0)
(0.00490985 -0.000132643 0)
(0.00490722 -0.000134618 0)
(0.00490429 -0.000135758 0)
(0.005 -7.46647e-09 0)
(0.005 -2.65776e-08 0)
(0.00499999 -4.92564e-08 0)
(0.00499998 -7.50412e-08 0)
(0.00499997 -1.04021e-07 0)
(0.00499996 -1.36368e-07 0)
(0.00499994 -1.72278e-07 0)
(0.00499992 -2.11984e-07 0)
(0.0049999 -2.55757e-07 0)
(0.00499987 -3.03904e-07 0)
(0.00499984 -3.56765e-07 0)
(0.0049998 -4.1471e-07 0)
(0.00499976 -4.78141e-07 0)
(0.00499972 -5.47487e-07 0)
(0.00499968 -6.23203e-07 0)
(0.00499962 -7.05774e-07 0)
(0.00499957 -7.95708e-07 0)
(0.00499951 -8.93543e-07 0)
(0.00499944 -9.99843e-07 0)
(0.00499937 -1.1152e-06 0)
(0.00499929 -1.24024e-06 0)
(0.0049992 -1.37561e-06 0)
(0.00499911 -1.522e-06 0)
(0.00499901 -1.68011e-06 0)
(0.0049989 -1.8507e-06 0)
(0.00499879 -2.03456e-06 0)
(0.00499866 -2.23248e-06 0)
(0.00499852 -2.44533e-06 0)
(0.00499838 -2.67399e-06 0)
(0.00499822 -2.91939e-06 0)
(0.00499805 -3.18249e-06 0)
(0.00499787 -3.46429e-06 0)
(0.00499768 -3.76584e-06 0)
(0.00499748 -4.0882e-06 0)
(0.00499725 -4.43251e-06 0)
(0.00499702 -4.79993e-06 0)
(0.00499677 -5.19167e-06 0)
(0.0049965 -5.60896e-06 0)
(0.00499621 -6.0531e-06 0)
(0.00499591 -6.52542e-06 0)
(0.00499558 -7.0273e-06 0)
(0.00499524 -7.56015e-06 0)
(0.00499487 -8.12544e-06 0)
(0.00499448 -8.72466e-06 0)
(0.00499407 -9.35936e-06 0)
(0.00499363 -1.00311e-05 0)
(0.00499317 -1.07416e-05 0)
(0.00499268 -1.14924e-05 0)
(0.00499216 -1.22853e-05 0)
(0.00499161 -1.31221e-05 0)
(0.00499103 -1.40044e-05 0)
(0.00499042 -1.49341e-05 0)
(0.00498977 -1.59131e-05 0)
(0.00498909 -1.69433e-05 0)
(0.00498837 -1.80265e-05 0)
(0.00498761 -1.91647e-05 0)
(0.00498682 -2.03599e-05 0)
(0.00498598 -2.1614e-05 0)
(0.0049851 -2.2929e-05 0)