/*--------------------------------*- C++ -*----------------------------------*\
  =========                 |
  \\      /  F ield         | OpenFOAM: The Open Source CFD Toolbox
   \\    /   O peration     | Website:  https://openfoam.org
    \\  /    A nd           | Version:  11
     \\/     M anipulation  |
\*---------------------------------------------------------------------------*/
FoamFile
{
    format      ascii;
    class       volScalarField;
    location    "1274";
    object      p;
}
// * * * * * * * * * * * * * * * * * * * * * * * * * * * * * * * * * * * * * //

dimensions      [0 2 -2 0 0 0 0];

internalField   nonuniform List<scalar> 
10000
(
7.04837e-13
6.87926e-13
7.14743e-13
7.68831e-13
8.3084e-13
8.96454e-13
9.6549e-13
1.03794e-12
1.11384e-12
1.19331e-12
1.27657e-12
1.36384e-12
1.45537e-12
1.55142e-12
1.65226e-12
1.75814e-12
1.86935e-12
1.98618e-12
2.1089e-12
2.23783e-12
2.37326e-12
2.51551e-12
2.66489e-12
2.82172e-12
2.98635e-12
3.15911e-12
3.34035e-12
3.53042e-12
3.72969e-12
3.93853e-12
4.15731e-12
4.38642e-12
4.62624e-12
4.87717e-12
5.13962e-12
5.41398e-12
5.70065e-12
6.00006e-12
6.3126e-12
6.63868e-12
6.97872e-12
7.33311e-12
7.70225e-12
8.08652e-12
8.48631e-12
8.90198e-12
9.33388e-12
9.78233e-12
1.02476e-11
1.07301e-11
1.12299e-11
1.17473e-11
1.22825e-11
1.28355e-11
1.34064e-11
1.39953e-11
1.46019e-11
1.52262e-11
1.5868e-11
1.65267e-11
1.7202e-11
1.78933e-11
1.85998e-11
1.93205e-11
2.00544e-11
2.08001e-11
2.15561e-11
2.23207e-11
2.30917e-11
2.38667e-11
2.46431e-11
2.54175e-11
2.61866e-11
2.69462e-11
2.76917e-11
2.84179e-11
2.91189e-11
2.97882e-11
3.04182e-11
3.10005e-11
3.15258e-11
3.19833e-11
3.23613e-11
3.26463e-11
3.28232e-11
3.28751e-11
3.27828e-11
3.25244e-11
3.2075e-11
3.14056e-11
3.04816e-11
2.92546e-11
2.76548e-11
2.56935e-11
2.3542e-11
2.11924e-11
1.81819e-11
1.38299e-11
7.59551e-12
5.22962e-13
1.32924e-12
1.25298e-12
1.21114e-12
1.23117e-12
1.27808e-12
1.33828e-12
1.40832e-12
1.48642e-12
1.57141e-12
1.66267e-12
1.75996e-12
1.86319e-12
1.97241e-12
2.08776e-12
2.20942e-12
2.3376e-12
2.47255e-12
2.61456e-12
2.7639e-12
2.92089e-12
3.08585e-12
3.25912e-12
3.44105e-12
3.63199e-12
3.83232e-12
4.04241e-12
4.26266e-12
4.49345e-12
4.73521e-12
4.98834e-12
5.25327e-12
5.53043e-12
5.82025e-12
6.12316e-12
6.43962e-12
6.77007e-12
7.11496e-12
7.47473e-12
7.84984e-12
8.24072e-12
8.64782e-12
9.07155e-12
9.51235e-12
9.97061e-12
1.04467e-11
1.09411e-11
1.1454e-11
1.19858e-11
1.25367e-11
1.31071e-11
1.36971e-11
1.43069e-11
1.49365e-11
1.5586e-11
1.62553e-11
1.69443e-11
1.76527e-11
1.83803e-11
1.91266e-11
1.98909e-11
2.06726e-11
2.14707e-11
2.22841e-11
2.31116e-11
2.39516e-11
2.48022e-11
2.56615e-11
2.65271e-11
2.73961e-11
2.82654e-11
2.91315e-11
2.99903e-11
3.08371e-11
3.16668e-11
3.24735e-11
3.32506e-11
3.39906e-11
3.46851e-11
3.53249e-11
3.58993e-11
3.63966e-11
3.68035e-11
3.71051e-11
3.7285e-11
3.73244e-11
3.72023e-11
3.68951e-11
3.6376e-11
3.56148e-11
3.45772e-11
3.32237e-11
3.15072e-11
2.93782e-11
2.68395e-11
2.38705e-11
2.02087e-11
1.56405e-11
9.89824e-12
1.93444e-12
-5.36444e-12
1.62726e-12
1.51424e-12
1.42228e-12
1.39714e-12
1.40629e-12
1.43453e-12
1.47689e-12
1.53045e-12
1.59312e-12
1.6636e-12
1.7411e-12
1.82516e-12
1.91553e-12
2.01207e-12
2.11478e-12
2.22369e-12
2.33892e-12
2.46061e-12
2.58893e-12
2.72408e-12
2.86628e-12
3.01577e-12
3.1728e-12
3.33764e-12
3.51057e-12
3.69187e-12
3.88185e-12
4.08081e-12
4.28906e-12
4.50692e-12
4.73472e-12
4.9728e-12
5.22147e-12
5.48109e-12
5.75199e-12
6.0345e-12
6.32898e-12
6.63574e-12
6.95513e-12
7.28747e-12
7.63308e-12
7.99226e-12
8.36531e-12
8.75251e-12
9.15412e-12
9.57038e-12
1.00015e-11
1.04477e-11
1.09091e-11
1.13857e-11
1.18778e-11
1.23853e-11
1.29081e-11
1.34462e-11
1.39993e-11
1.45673e-11
1.51497e-11
1.57462e-11
1.63562e-11
1.6979e-11
1.76137e-11
1.82594e-11
1.89149e-11
1.9579e-11
2.025e-11
2.09261e-11
2.16054e-11
2.22854e-11
2.29636e-11
2.36368e-11
2.43017e-11
2.49544e-11
2.55907e-11
2.62055e-11
2.67936e-11
2.73487e-11
2.7864e-11
2.83319e-11
2.87437e-11
2.90899e-11
2.93599e-11
2.95416e-11
2.96219e-11
2.95857e-11
2.94165e-11
2.90957e-11
2.86025e-11
2.79137e-11
2.70031e-11
2.58419e-11
2.43979e-11
2.26356e-11
2.05197e-11
1.80275e-11
1.51291e-11
1.17024e-11
7.53455e-12
2.01178e-12
-5.77344e-12
-1.09768e-11
1.87738e-12
1.75776e-12
1.65459e-12
1.61074e-12
1.60071e-12
1.61175e-12
1.63915e-12
1.67975e-12
1.73115e-12
1.79174e-12
1.86044e-12
1.93654e-12
2.01959e-12
2.1093e-12
2.20552e-12
2.30818e-12
2.4173e-12
2.53292e-12
2.65516e-12
2.78416e-12
2.92006e-12
3.06306e-12
3.21335e-12
3.37116e-12
3.53672e-12
3.71027e-12
3.89205e-12
4.08234e-12
4.2814e-12
4.48951e-12
4.70694e-12
4.93397e-12
5.1709e-12
5.41801e-12
5.67558e-12
5.94391e-12
6.22327e-12
6.51395e-12
6.81621e-12
7.13033e-12
7.45655e-12
7.79512e-12
8.14626e-12
8.51019e-12
8.88709e-12
9.27713e-12
9.68044e-12
1.00971e-11
1.05272e-11
1.09708e-11
1.14279e-11
1.18983e-11
1.23819e-11
1.28786e-11
1.3388e-11
1.39098e-11
1.44436e-11
1.49888e-11
1.55447e-11
1.61105e-11
1.66853e-11
1.7268e-11
1.78573e-11
1.84517e-11
1.90497e-11
1.96492e-11
2.02481e-11
2.0844e-11
2.14341e-11
2.20151e-11
2.25838e-11
2.3136e-11
2.36673e-11
2.41729e-11
2.46471e-11
2.50839e-11
2.54763e-11
2.58167e-11
2.60965e-11
2.63062e-11
2.64354e-11
2.64721e-11
2.64034e-11
2.62147e-11
2.589e-11
2.54112e-11
2.47585e-11
2.39097e-11
2.28402e-11
2.15228e-11
1.99276e-11
1.80219e-11
1.57701e-11
1.31338e-11
1.0067e-11
6.50705e-12
2.33329e-12
-3.1297e-12
-1.1019e-11
-1.46426e-11
2.09365e-12
1.97786e-12
1.876e-12
1.82491e-12
1.80476e-12
1.80569e-12
1.8238e-12
1.85616e-12
1.9004e-12
1.95481e-12
2.0182e-12
2.08973e-12
2.16882e-12
2.25507e-12
2.34825e-12
2.44819e-12
2.55485e-12
2.66822e-12
2.78834e-12
2.9153e-12
3.04922e-12
3.19025e-12
3.33854e-12
3.49428e-12
3.65767e-12
3.82891e-12
4.00823e-12
4.19585e-12
4.39201e-12
4.59695e-12
4.81092e-12
5.03417e-12
5.26694e-12
5.50949e-12
5.76207e-12
6.02493e-12
6.29831e-12
6.58244e-12
6.87756e-12
7.18388e-12
7.50161e-12
7.83094e-12
8.17205e-12
8.52509e-12
8.89019e-12
9.26746e-12
9.65696e-12
1.00587e-11
1.04728e-11
1.0899e-11
1.13374e-11
1.17878e-11
1.22499e-11
1.27235e-11
1.32082e-11
1.37035e-11
1.42089e-11
1.47237e-11
1.52472e-11
1.57785e-11
1.63164e-11
1.68598e-11
1.74073e-11
1.79573e-11
1.85079e-11
1.90572e-11
1.96028e-11
2.01422e-11
2.06723e-11
2.11899e-11
2.16914e-11
2.21726e-11
2.2629e-11
2.30554e-11
2.34462e-11
2.37951e-11
2.40951e-11
2.43383e-11
2.45162e-11
2.46191e-11
2.46365e-11
2.45566e-11
2.43664e-11
2.40515e-11
2.35959e-11
2.29822e-11
2.21909e-11
2.12005e-11
1.99875e-11
1.85258e-11
1.67871e-11
1.47404e-11
1.23511e-11
9.57913e-12
6.37954e-12
2.72644e-12
-1.42453e-12
-6.77678e-12
-1.48578e-11
-1.71021e-11
2.27558e-12
2.16666e-12
2.06892e-12
2.01473e-12
1.98832e-12
1.98209e-12
1.99299e-12
2.01847e-12
2.05635e-12
2.10499e-12
2.16317e-12
2.23e-12
2.30484e-12
2.38721e-12
2.4768e-12
2.5734e-12
2.67689e-12
2.78721e-12
2.90437e-12
3.0284e-12
3.15938e-12
3.29741e-12
3.44262e-12
3.59516e-12
3.75518e-12
3.92288e-12
4.09842e-12
4.28202e-12
4.47386e-12
4.67416e-12
4.88313e-12
5.10098e-12
5.32794e-12
5.5642e-12
5.80999e-12
6.06552e-12
6.33097e-12
6.60656e-12
6.89246e-12
7.18884e-12
7.49587e-12
7.81369e-12
8.14241e-12
8.48214e-12
8.83295e-12
9.19489e-12
9.56796e-12
9.95214e-12
1.03474e-11
1.07535e-11
1.11704e-11
1.15978e-11
1.20354e-11
1.24829e-11
1.29398e-11
1.34056e-11
1.38795e-11
1.4361e-11
1.48491e-11
1.53427e-11
1.58408e-11
1.6342e-11
1.68448e-11
1.73475e-11
1.78482e-11
1.83448e-11
1.88348e-11
1.93155e-11
1.97839e-11
2.02366e-11
2.06697e-11
2.10793e-11
2.14604e-11
2.18081e-11
2.21164e-11
2.23792e-11
2.25892e-11
2.27388e-11
2.28194e-11
2.28213e-11
2.27341e-11
2.25463e-11
2.22452e-11
2.18165e-11
2.12451e-11
2.05139e-11
1.96043e-11
1.84959e-11
1.71667e-11
1.55924e-11
1.37467e-11
1.16014e-11
9.12574e-12
6.28386e-12
3.03982e-12
-6.04698e-13
-4.64475e-12
-9.80226e-12
-1.78308e-11
-1.91588e-11
2.43344e-12
2.33176e-12
2.23905e-12
2.18419e-12
2.15415e-12
2.143e-12
2.14844e-12
2.16833e-12
2.20077e-12
2.24423e-12
2.29754e-12
2.35982e-12
2.4304e-12
2.50876e-12
2.59454e-12
2.6875e-12
2.78746e-12
2.89432e-12
3.00804e-12
3.12863e-12
3.25611e-12
3.39056e-12
3.53208e-12
3.68076e-12
3.83675e-12
4.00018e-12
4.17121e-12
4.35e-12
4.53672e-12
4.73155e-12
4.93466e-12
5.14623e-12
5.36644e-12
5.59548e-12
5.8335e-12
6.08069e-12
6.3372e-12
6.60318e-12
6.87879e-12
7.16413e-12
7.45933e-12
7.76448e-12
8.07965e-12
8.40489e-12
8.74021e-12
9.08561e-12
9.44103e-12
9.80639e-12
1.01815e-11
1.05663e-11
1.09605e-11
1.13638e-11
1.17757e-11
1.2196e-11
1.2624e-11
1.30591e-11
1.35006e-11
1.39477e-11
1.43994e-11
1.48547e-11
1.53122e-11
1.57706e-11
1.62283e-11
1.66835e-11
1.71342e-11
1.75782e-11
1.8013e-11
1.84357e-11
1.88432e-11
1.92322e-11
1.95988e-11
1.99387e-11
2.02472e-11
2.05191e-11
2.07488e-11
2.09297e-11
2.1055e-11
2.11169e-11
2.1107e-11
2.10159e-11
2.08333e-11
2.05481e-11
2.01479e-11
1.96191e-11
1.89471e-11
1.81157e-11
1.71074e-11
1.59032e-11
1.44825e-11
1.28233e-11
1.09019e-11
8.69329e-12
6.17091e-12
3.30463e-12
6.7443e-14
-3.51999e-12
-7.42638e-12
-1.24108e-11
-2.0405e-11
-2.11421e-11
2.57414e-12
2.47923e-12
2.39173e-12
2.33762e-12
2.30577e-12
2.29145e-12
2.29293e-12
2.30849e-12
2.33646e-12
2.3755e-12
2.42451e-12
2.48265e-12
2.54924e-12
2.62377e-12
2.70586e-12
2.79521e-12
2.89163e-12
2.99498e-12
3.10519e-12
3.22222e-12
3.34608e-12
3.4768e-12
3.61445e-12
3.75911e-12
3.91086e-12
4.06984e-12
4.23615e-12
4.40993e-12
4.59132e-12
4.78046e-12
4.9775e-12
5.18258e-12
5.39585e-12
5.61744e-12
5.84751e-12
6.08617e-12
6.33355e-12
6.58977e-12
6.85491e-12
7.12908e-12
7.41233e-12
7.70471e-12
8.00625e-12
8.31694e-12
8.63675e-12
8.96562e-12
9.30345e-12
9.65008e-12
1.00053e-11
1.0369e-11
1.07407e-11
1.11201e-11
1.15068e-11
1.19002e-11
1.22999e-11
1.2705e-11
1.31148e-11
1.35285e-11
1.39449e-11
1.43629e-11
1.47811e-11
1.51982e-11
1.56125e-11
1.6022e-11
1.64248e-11
1.68185e-11
1.72006e-11
1.75682e-11
1.79181e-11
1.8247e-11
1.85508e-11
1.88254e-11
1.90661e-11
1.92677e-11
1.94244e-11
1.953e-11
1.95776e-11
1.95597e-11
1.94679e-11
1.92933e-11
1.90258e-11
1.86546e-11
1.81679e-11
1.75528e-11
1.67954e-11
1.58805e-11
1.47917e-11
1.35115e-11
1.20211e-11
1.03005e-11
8.32881e-12
6.08432e-12
3.54451e-12
6.84453e-13
-2.51563e-12
-6.02235e-12
-9.78994e-12
-1.46187e-11
-2.25797e-11
-2.27943e-11
2.70122e-12
2.61241e-12
2.52985e-12
2.47724e-12
2.44474e-12
2.42846e-12
2.42712e-12
2.43932e-12
2.46367e-12
2.49895e-12
2.54419e-12
2.59858e-12
2.66149e-12
2.7324e-12
2.81092e-12
2.89674e-12
2.98965e-12
3.08948e-12
3.19613e-12
3.30954e-12
3.42969e-12
3.55658e-12
3.69024e-12
3.83073e-12
3.97812e-12
4.13249e-12
4.29394e-12
4.46255e-12
4.63846e-12
4.82176e-12
5.01257e-12
5.211e-12
5.41717e-12
5.63119e-12
5.85315e-12
6.08316e-12
6.3213e-12
6.56764e-12
6.82225e-12
7.08517e-12
7.35642e-12
7.63601e-12
7.92392e-12
8.2201e-12
8.52448e-12
8.83692e-12
9.15729e-12
9.48539e-12
9.82097e-12
1.01637e-11
1.05133e-11
1.08693e-11
1.12313e-11
1.15986e-11
1.19705e-11
1.23465e-11
1.27255e-11
1.31066e-11
1.34888e-11
1.38708e-11
1.42513e-11
1.46287e-11
1.50013e-11
1.53671e-11
1.57242e-11
1.607e-11
1.64021e-11
1.67176e-11
1.70132e-11
1.72856e-11
1.75307e-11
1.77444e-11
1.79221e-11
1.80586e-11
1.81482e-11
1.81849e-11
1.81619e-11
1.80718e-11
1.79066e-11
1.76576e-11
1.73152e-11
1.68691e-11
1.63079e-11
1.56196e-11
1.4791e-11
1.38079e-11
1.26554e-11
1.13172e-11
9.77641e-12
8.01516e-12
6.01505e-12
3.75754e-12
1.2238e-12
-1.6067e-12
-4.74819e-12
-8.15843e-12
-1.17826e-11
-1.64546e-11
-2.4345e-11
-2.40849e-11
2.81683e-12
2.73346e-12
2.65547e-12
2.60469e-12
2.57225e-12
2.55483e-12
2.55149e-12
2.56111e-12
2.58249e-12
2.61457e-12
2.65648e-12
2.70749e-12
2.76697e-12
2.83446e-12
2.90954e-12
2.99191e-12
3.08134e-12
3.17765e-12
3.28071e-12
3.39043e-12
3.50679e-12
3.62974e-12
3.75931e-12
3.89551e-12
4.0384e-12
4.18802e-12
4.34445e-12
4.50775e-12
4.67801e-12
4.85531e-12
5.03974e-12
5.23137e-12
5.4303e-12
5.63659e-12
5.85032e-12
6.07155e-12
6.30034e-12
6.53671e-12
6.78069e-12
7.0323e-12
7.29151e-12
7.55828e-12
7.83257e-12
8.11427e-12
8.40327e-12
8.69939e-12
9.00245e-12
9.3122e-12
9.62835e-12
9.95055e-12
1.02784e-11
1.06114e-11
1.09491e-11
1.12907e-11
1.16357e-11
1.19832e-11
1.23323e-11
1.26819e-11
1.30311e-11
1.33783e-11
1.37224e-11
1.40616e-11
1.43943e-11
1.47184e-11
1.50319e-11
1.53323e-11
1.56171e-11
1.58833e-11
1.61278e-11
1.63472e-11
1.65375e-11
1.66946e-11
1.6814e-11
1.68905e-11
1.69187e-11
1.68926e-11
1.68057e-11
1.66508e-11
1.64203e-11
1.61057e-11
1.56979e-11
1.51871e-11
1.45627e-11
1.38133e-11
1.29267e-11
1.18897e-11
1.06885e-11
9.30858e-12
7.73456e-12
5.95067e-12
3.9409e-12
1.68947e-12
-8.19224e-13
-3.60212e-12
-6.66929e-12
-9.9723e-12
-1.34503e-11
-1.7963e-11
-2.57529e-11
-2.50798e-11
2.92247e-12
2.84396e-12
2.77015e-12
2.72135e-12
2.6894e-12
2.67142e-12
2.66669e-12
2.67431e-12
2.69325e-12
2.7226e-12
2.76158e-12
2.80951e-12
2.86583e-12
2.93006e-12
3.00184e-12
3.08085e-12
3.16684e-12
3.25964e-12
3.35909e-12
3.4651e-12
3.57759e-12
3.69654e-12
3.82192e-12
3.95374e-12
4.09201e-12
4.23677e-12
4.38806e-12
4.54592e-12
4.71041e-12
4.88159e-12
5.05951e-12
5.24423e-12
5.4358e-12
5.63426e-12
5.83967e-12
6.05203e-12
6.27138e-12
6.49772e-12
6.73104e-12
6.97131e-12
7.21847e-12
7.47246e-12
7.73317e-12
8.00047e-12
8.27421e-12
8.55417e-12
8.84011e-12
9.13176e-12
9.42877e-12
9.73076e-12
1.00373e-11
1.03478e-11
1.06617e-11
1.09784e-11
1.12971e-11
1.1617e-11
1.1937e-11
1.22563e-11
1.25735e-11
1.28873e-11
1.31964e-11
1.34991e-11
1.37936e-11
1.4078e-11
1.43501e-11
1.46075e-11
1.48476e-11
1.50676e-11
1.52642e-11
1.54341e-11
1.55735e-11
1.56783e-11
1.57439e-11
1.57656e-11
1.57378e-11
1.5655e-11
1.55107e-11
1.52981e-11
1.50099e-11
1.4638e-11
1.41739e-11
1.36083e-11
1.29311e-11
1.21319e-11
1.11993e-11
1.01212e-11
8.88516e-12
7.47784e-12
5.88565e-12
4.09468e-12
2.09107e-12
-1.38539e-13
-2.60706e-12
-5.32858e-12
-8.31002e-12
-1.14987e-11
-1.48297e-11
-1.91815e-11
-2.68479e-11
-2.58215e-11
3.01925e-12
2.94512e-12
2.87515e-12
2.82837e-12
2.79719e-12
2.77903e-12
2.77336e-12
2.77944e-12
2.79638e-12
2.82338e-12
2.85975e-12
2.90488e-12
2.95825e-12
3.01942e-12
3.08803e-12
3.16376e-12
3.24638e-12
3.33569e-12
3.43153e-12
3.5338e-12
3.64241e-12
3.75729e-12
3.87842e-12
4.00577e-12
4.13935e-12
4.27916e-12
4.42522e-12
4.57755e-12
4.73618e-12
4.90115e-12
5.07247e-12
5.25019e-12
5.43433e-12
5.6249e-12
5.82191e-12
6.02536e-12
6.23525e-12
6.45154e-12
6.67419e-12
6.90315e-12
7.13831e-12
7.37958e-12
7.62682e-12
7.87986e-12
8.13851e-12
8.40251e-12
8.6716e-12
8.94545e-12
9.22368e-12
9.50586e-12
9.79151e-12
1.00801e-11
1.03709e-11
1.06633e-11
1.09565e-11
1.12497e-11
1.15417e-11
1.18316e-11
1.21182e-11
1.24e-11
1.26756e-11
1.29435e-11
1.32017e-11
1.34484e-11
1.36813e-11
1.38982e-11
1.40963e-11
1.42729e-11
1.44249e-11
1.45489e-11
1.46411e-11
1.46977e-11
1.47142e-11
1.46859e-11
1.46076e-11
1.44737e-11
1.42784e-11
1.40149e-11
1.36763e-11
1.32551e-11
1.27431e-11
1.21317e-11
1.14116e-11
1.0573e-11
9.60541e-12
8.49793e-12
7.23913e-12
5.81715e-12
4.21989e-12
2.43516e-12
4.50971e-13
-1.74394e-12
-4.16028e-12
-6.80984e-12
-9.69726e-12
-1.27669e-11
-1.59513e-11
-2.01412e-11
-2.76634e-11
-2.63375e-11
3.10802e-12
3.03788e-12
2.97146e-12
2.92669e-12
2.89644e-12
2.87838e-12
2.8721e-12
2.87698e-12
2.89225e-12
2.91722e-12
2.95127e-12
2.99385e-12
3.04448e-12
3.10274e-12
3.1683e-12
3.24085e-12
3.32016e-12
3.40602e-12
3.49828e-12
3.5968e-12
3.7015e-12
3.81229e-12
3.92912e-12
4.05196e-12
4.18079e-12
4.31558e-12
4.45634e-12
4.60308e-12
4.75579e-12
4.91447e-12
5.07915e-12
5.24982e-12
5.42647e-12
5.60911e-12
5.79771e-12
5.99224e-12
6.19267e-12
6.39893e-12
6.61096e-12
6.82866e-12
7.05192e-12
7.28058e-12
7.5145e-12
7.75346e-12
7.99722e-12
8.24553e-12
8.49806e-12
8.75446e-12
9.01431e-12
9.27715e-12
9.54246e-12
9.80966e-12
1.00781e-11
1.0347e-11
1.06155e-11
1.08829e-11
1.1148e-11
1.14097e-11
1.16668e-11
1.1918e-11
1.21618e-11
1.23965e-11
1.26203e-11
1.28313e-11
1.30274e-11
1.32061e-11
1.3365e-11
1.35012e-11
1.36117e-11
1.36932e-11
1.37421e-11
1.37545e-11
1.37263e-11
1.36528e-11
1.35291e-11
1.33499e-11
1.31094e-11
1.28015e-11
1.24195e-11
1.19563e-11
1.14044e-11
1.07557e-11
1.00016e-11
9.13306e-12
8.14053e-12
7.01407e-12
5.74339e-12
4.31791e-12
2.72691e-12
9.59729e-13
-9.93949e-13
-3.14364e-12
-5.49822e-12
-8.0677e-12
-1.0855e-11
-1.38025e-11
-1.68413e-11
-2.08684e-11
-2.82275e-11
-2.665e-11
3.18945e-12
3.12299e-12
3.05989e-12
3.01708e-12
2.98786e-12
2.97009e-12
2.96344e-12
2.96739e-12
2.98127e-12
3.00447e-12
3.03644e-12
3.07667e-12
3.12474e-12
3.18025e-12
3.24288e-12
3.31234e-12
3.38841e-12
3.47087e-12
3.55956e-12
3.65435e-12
3.75513e-12
3.86181e-12
3.97433e-12
4.09262e-12
4.21666e-12
4.3464e-12
4.48183e-12
4.62292e-12
4.76966e-12
4.92204e-12
5.08003e-12
5.24363e-12
5.41279e-12
5.58748e-12
5.76768e-12
5.95331e-12
6.14431e-12
6.34061e-12
6.54209e-12
6.74864e-12
6.96011e-12
7.17632e-12
7.39709e-12
7.62219e-12
7.85134e-12
8.08424e-12
8.32056e-12
8.55989e-12
8.80181e-12
9.04582e-12
9.29136e-12
9.53783e-12
9.78453e-12
1.00307e-11
1.02755e-11
1.0518e-11
1.07572e-11
1.09919e-11
1.1221e-11
1.1443e-11
1.16564e-11
1.18597e-11
1.2051e-11
1.22284e-11
1.23898e-11
1.25329e-11
1.26551e-11
1.27538e-11
1.28259e-11
1.28684e-11
1.28776e-11
1.28499e-11
1.27812e-11
1.26671e-11
1.25029e-11
1.22836e-11
1.20038e-11
1.16575e-11
1.12386e-11
1.07405e-11
1.0156e-11
9.47782e-12
8.69792e-12
7.80805e-12
6.79955e-12
5.66344e-12
4.39045e-12
2.97119e-12
1.3962e-12
-3.43831e-13
-2.25777e-12
-4.35366e-12
-6.63887e-12
-9.122e-12
-1.18047e-11
-1.46282e-11
-1.75228e-11
-2.13864e-11
-2.85647e-11
-2.67784e-11
3.26412e-12
3.20109e-12
3.14111e-12
3.10021e-12
3.07208e-12
3.05472e-12
3.04789e-12
3.05111e-12
3.06382e-12
3.08547e-12
3.11555e-12
3.15362e-12
3.19928e-12
3.25217e-12
3.31199e-12
3.37846e-12
3.45135e-12
3.53046e-12
3.61563e-12
3.70671e-12
3.80358e-12
3.90616e-12
4.01435e-12
4.12808e-12
4.24731e-12
4.37198e-12
4.50205e-12
4.63749e-12
4.77825e-12
4.9243e-12
5.07561e-12
5.23212e-12
5.3938e-12
5.56058e-12
5.73241e-12
5.90919e-12
6.09084e-12
6.27725e-12
6.46829e-12
6.66382e-12
6.86366e-12
7.06761e-12
7.27546e-12
7.48694e-12
7.70176e-12
7.9196e-12
8.14007e-12
8.36278e-12
8.58724e-12
8.81295e-12
9.03933e-12
9.26573e-12
9.49146e-12
9.71573e-12
9.93769e-12
1.01564e-11
1.03708e-11
1.05797e-11
1.0782e-11
1.09763e-11
1.1161e-11
1.13346e-11
1.14952e-11
1.16411e-11
1.17701e-11
1.18799e-11
1.19681e-11
1.2032e-11
1.20689e-11
1.20755e-11
1.20486e-11
1.19845e-11
1.18795e-11
1.17292e-11
1.15293e-11
1.1275e-11
1.09611e-11
1.05822e-11
1.01325e-11
9.60582e-12
8.99563e-12
8.29504e-12
7.49682e-12
6.59344e-12
5.57703e-12
4.43951e-12
3.17262e-12
1.76802e-12
2.17379e-13
-1.48739e-12
-3.35394e-12
-5.38903e-12
-7.59883e-12
-9.99078e-12
-1.25655e-11
-1.52639e-11
-1.8016e-11
-2.17155e-11
-2.86969e-11
-2.67398e-11
3.33255e-12
3.27273e-12
3.2157e-12
3.17666e-12
3.14964e-12
3.13279e-12
3.12589e-12
3.12856e-12
3.14027e-12
3.16053e-12
3.1889e-12
3.22497e-12
3.26836e-12
3.31876e-12
3.37587e-12
3.43944e-12
3.50923e-12
3.58505e-12
3.66673e-12
3.75413e-12
3.84713e-12
3.94561e-12
4.04948e-12
4.15866e-12
4.27308e-12
4.39267e-12
4.51739e-12
4.64717e-12
4.78196e-12
4.9217e-12
5.06633e-12
5.2158e-12
5.37003e-12
5.52895e-12
5.69246e-12
5.86047e-12
6.03287e-12
6.20951e-12
6.39025e-12
6.57491e-12
6.76331e-12
6.95522e-12
7.15039e-12
7.34854e-12
7.54936e-12
7.75249e-12
7.95754e-12
8.16407e-12
8.37159e-12
8.57957e-12
8.78741e-12
8.99446e-12
9.19998e-12
9.4032e-12
9.60323e-12
9.79913e-12
9.98985e-12
1.01743e-11
1.03511e-11
1.0519e-11
1.06766e-11
1.08222e-11
1.09541e-11
1.10705e-11
1.11692e-11
1.12481e-11
1.13048e-11
1.13368e-11
1.13413e-11
1.13154e-11
1.12557e-11
1.1159e-11
1.10215e-11
1.08392e-11
1.0608e-11
1.03234e-11
9.98056e-12
9.5744e-12
9.09953e-12
8.55024e-12
7.92053e-12
7.20408e-12
6.39432e-12
5.4844e-12
4.46725e-12
3.33563e-12
2.08217e-12
6.99498e-13
-8.19668e-13
-2.48238e-12
-4.29519e-12
-6.26383e-12
-8.39345e-12
-1.06905e-11
-1.3155e-11
-1.57277e-11
-1.83391e-11
-2.18741e-11
-2.86435e-11
-2.65497e-11
3.39516e-12
3.33839e-12
3.28416e-12
3.24692e-12
3.22103e-12
3.20474e-12
3.19789e-12
3.20012e-12
3.21097e-12
3.22999e-12
3.25679e-12
3.29099e-12
3.33225e-12
3.38027e-12
3.43477e-12
3.49551e-12
3.56228e-12
3.63487e-12
3.71312e-12
3.79689e-12
3.88603e-12
3.98044e-12
4.08002e-12
4.18466e-12
4.29429e-12
4.40884e-12
4.52822e-12
4.65236e-12
4.7812e-12
4.91466e-12
5.05266e-12
5.19513e-12
5.34198e-12
5.4931e-12
5.6484e-12
5.80774e-12
5.97099e-12
6.138e-12
6.3086e-12
6.4826e-12
6.65977e-12
6.83988e-12
7.02265e-12
7.20779e-12
7.39495e-12
7.58377e-12
7.77382e-12
7.96466e-12
8.15578e-12
8.34663e-12
8.53659e-12
8.72499e-12
8.9111e-12
9.09413e-12
9.27318e-12
9.44732e-12
9.61549e-12
9.77657e-12
9.92933e-12
1.00724e-11
1.02044e-11
1.03238e-11
1.04287e-11
1.05175e-11
1.05881e-11
1.06384e-11
1.06662e-11
1.06689e-11
1.06439e-11
1.05884e-11
1.04993e-11
1.03733e-11
1.02071e-11
9.99684e-12
9.73859e-12
9.42814e-12
9.06104e-12
8.63257e-12
8.13774e-12
7.5713e-12
6.92775e-12
6.20136e-12
5.38614e-12
4.47593e-12
3.46438e-12
2.34504e-12
1.11137e-12
-2.43103e-13
-1.72477e-12
-3.33973e-12
-5.09362e-12
-6.99125e-12
-9.03693e-12
-1.12364e-11
-1.35889e-11
-1.60359e-11
-1.85085e-11
-2.18785e-11
-2.84223e-11
-2.62226e-11
3.45237e-12
3.3985e-12
3.34694e-12
3.31145e-12
3.28669e-12
3.271e-12
3.26426e-12
3.26616e-12
3.27626e-12
3.29416e-12
3.31951e-12
3.35196e-12
3.3912e-12
3.43694e-12
3.48893e-12
3.54694e-12
3.61075e-12
3.68018e-12
3.75506e-12
3.83523e-12
3.92057e-12
4.01096e-12
4.10627e-12
4.20641e-12
4.31129e-12
4.42081e-12
4.53489e-12
4.65344e-12
4.77637e-12
4.9036e-12
5.03504e-12
5.17058e-12
5.31012e-12
5.45355e-12
5.60073e-12
5.75153e-12
5.90579e-12
6.06334e-12
6.22399e-12
6.38752e-12
6.55371e-12
6.72229e-12
6.89296e-12
7.06542e-12
7.2393e-12
7.41422e-12
7.58974e-12
7.76539e-12
7.94067e-12
8.11499e-12
8.28774e-12
8.45823e-12
8.62574e-12
8.78945e-12
8.94849e-12
9.1019e-12
9.24866e-12
9.38764e-12
9.51763e-12
9.63731e-12
9.74528e-12
9.84001e-12
9.91984e-12
9.98301e-12
1.00276e-11
1.00516e-11
1.00527e-11
1.00287e-11
9.97696e-12
9.89482e-12
9.77939e-12
9.62759e-12
9.43615e-12
9.20158e-12
8.9202e-12
8.58809e-12
8.20111e-12
7.75491e-12
7.24491e-12
6.6663e-12
6.01409e-12
5.28306e-12
4.46783e-12
3.56287e-12
2.56251e-12
1.46102e-12
2.52647e-13
-1.06831e-12
-2.50739e-12
-4.06989e-12
-5.76062e-12
-7.58363e-12
-9.5425e-12
-1.16423e-11
-1.38819e-11
-1.62034e-11
-1.85391e-11
-2.17441e-11
-2.805e-11
-2.57718e-11
3.50456e-12
3.45346e-12
3.40446e-12
3.37067e-12
3.34702e-12
3.33197e-12
3.3254e-12
3.32702e-12
3.33647e-12
3.35335e-12
3.37735e-12
3.40816e-12
3.44547e-12
3.48903e-12
3.5386e-12
3.59395e-12
3.65489e-12
3.72122e-12
3.79279e-12
3.86944e-12
3.95102e-12
4.03743e-12
4.12853e-12
4.22421e-12
4.32438e-12
4.42893e-12
4.53776e-12
4.65077e-12
4.76787e-12
4.88894e-12
5.01388e-12
5.14259e-12
5.27492e-12
5.41076e-12
5.54996e-12
5.69237e-12
5.8378e-12
5.98607e-12
6.13698e-12
6.29029e-12
6.44575e-12
6.60309e-12
6.76199e-12
6.92212e-12
7.08312e-12
7.24457e-12
7.40604e-12
7.56704e-12
7.72704e-12
7.88546e-12
8.04169e-12
8.19503e-12
8.34474e-12
8.49002e-12
8.63e-12
8.76373e-12
8.8902e-12
9.00829e-12
9.11682e-12
9.21451e-12
9.29998e-12
9.37174e-12
9.4282e-12
9.46764e-12
9.48823e-12
9.48801e-12
9.46488e-12
9.41657e-12
9.34071e-12
9.23473e-12
9.09592e-12
8.92138e-12
8.70806e-12
8.45269e-12
8.15186e-12
7.80193e-12
7.39911e-12
6.93939e-12
6.41859e-12
5.83235e-12
5.17613e-12
4.44523e-12
3.63484e-12
2.74001e-12
1.75572e-12
6.76915e-13
-5.01463e-13
-1.78438e-12
-3.17665e-12
-4.68283e-12
-6.307e-12
-8.05255e-12
-9.92245e-12
-1.19212e-11
-1.40473e-11
-1.62439e-11
-1.84449e-11
-2.14848e-11
-2.75419e-11
-2.521e-11
3.55208e-12
3.50362e-12
3.45709e-12
3.42494e-12
3.4024e-12
3.38799e-12
3.38162e-12
3.38305e-12
3.39191e-12
3.40786e-12
3.43061e-12
3.45985e-12
3.49534e-12
3.53681e-12
3.58404e-12
3.63682e-12
3.69495e-12
3.75826e-12
3.82658e-12
3.89976e-12
3.97765e-12
4.06014e-12
4.14708e-12
4.23837e-12
4.33389e-12
4.43353e-12
4.53718e-12
4.64472e-12
4.75605e-12
4.87106e-12
4.98961e-12
5.11158e-12
5.23683e-12
5.36522e-12
5.49659e-12
5.63076e-12
5.76755e-12
5.90676e-12
6.04815e-12
6.19149e-12
6.33651e-12
6.48291e-12
6.63038e-12
6.77856e-12
6.92708e-12
7.07552e-12
7.22343e-12
7.37031e-12
7.51562e-12
7.65879e-12
7.79919e-12
7.93613e-12
8.06887e-12
8.1966e-12
8.31848e-12
8.43356e-12
8.54085e-12
8.63926e-12
8.72763e-12
8.8047e-12
8.86916e-12
8.91955e-12
8.95433e-12
8.97188e-12
8.97042e-12
8.94808e-12
8.90286e-12
8.83264e-12
8.73514e-12
8.60796e-12
8.44856e-12
8.25423e-12
8.02211e-12
7.74921e-12
7.43233e-12
7.06816e-12
6.65321e-12
6.18382e-12
5.65619e-12
5.06639e-12
4.41033e-12
3.68382e-12
2.88255e-12
2.00213e-12
1.03816e-12
-1.38249e-14
-1.15821e-12
-2.39932e-12
-3.74129e-12
-5.18801e-12
-6.74295e-12
-8.40891e-12
-1.01883e-11
-1.20851e-11
-1.40976e-11
-1.61703e-11
-1.82387e-11
-2.11138e-11
-2.69124e-11
-2.45491e-11
3.59524e-12
3.54934e-12
3.50517e-12
3.47462e-12
3.45316e-12
3.43941e-12
3.43328e-12
3.43455e-12
3.44288e-12
3.45797e-12
3.47954e-12
3.50731e-12
3.54105e-12
3.58051e-12
3.62548e-12
3.67577e-12
3.73117e-12
3.79153e-12
3.85668e-12
3.92646e-12
4.00073e-12
4.07936e-12
4.16222e-12
4.24918e-12
4.34012e-12
4.43493e-12
4.53347e-12
4.63564e-12
4.7413e-12
4.85033e-12
4.9626e-12
5.07796e-12
5.19627e-12
5.31736e-12
5.44106e-12
5.56719e-12
5.69554e-12
5.8259e-12
5.95803e-12
6.09166e-12
6.22653e-12
6.36233e-12
6.49872e-12
6.63535e-12
6.77182e-12
6.90771e-12
7.04256e-12
7.17587e-12
7.3071e-12
7.43566e-12
7.56093e-12
7.68222e-12
7.7988e-12
7.90988e-12
8.0146e-12
8.11206e-12
8.20127e-12
8.28117e-12
8.35063e-12
8.40846e-12
8.45334e-12
8.4839e-12
8.49867e-12
8.49607e-12
8.47443e-12
8.43196e-12
8.36677e-12
8.27685e-12
8.16008e-12
8.0142e-12
7.83682e-12
7.62545e-12
7.37744e-12
7.09e-12
6.76023e-12
6.38509e-12
5.96138e-12
5.48582e-12
4.95496e-12
4.36527e-12
3.7131e-12
2.99471e-12
2.20631e-12
1.34404e-12
4.04018e-13
-6.17609e-13
-1.72466e-12
-2.92083e-12
-4.20967e-12
-5.59447e-12
-7.07815e-12
-8.66296e-12
-1.03509e-11
-1.21454e-11
-1.40445e-11
-1.59944e-11
-1.79324e-11
-2.06433e-11
-2.61754e-11
-2.38006e-11
3.63436e-12
3.59092e-12
3.54904e-12
3.52004e-12
3.49964e-12
3.48654e-12
3.48067e-12
3.48182e-12
3.48968e-12
3.50397e-12
3.52442e-12
3.5508e-12
3.58286e-12
3.62039e-12
3.66318e-12
3.71105e-12
3.76381e-12
3.82129e-12
3.88334e-12
3.9498e-12
4.02052e-12
4.09537e-12
4.17422e-12
4.25693e-12
4.34338e-12
4.43344e-12
4.52697e-12
4.62386e-12
4.72396e-12
4.82714e-12
4.93325e-12
5.04214e-12
5.15365e-12
5.26761e-12
5.38383e-12
5.50211e-12
5.62224e-12
5.74399e-12
5.86711e-12
5.99133e-12
6.11637e-12
6.2419e-12
6.36758e-12
6.49306e-12
6.61791e-12
6.74173e-12
6.86404e-12
6.98433e-12
7.10208e-12
7.21668e-12
7.32753e-12
7.43393e-12
7.53516e-12
7.63046e-12
7.71897e-12
7.7998e-12
7.87201e-12
7.93456e-12
7.98635e-12
8.02623e-12
8.05295e-12
8.06518e-12
8.06152e-12
8.04046e-12
8.00042e-12
7.93971e-12
7.85655e-12
7.74905e-12
7.61522e-12
7.45296e-12
7.26007e-12
7.03422e-12
6.77298e-12
6.4738e-12
6.13403e-12
5.7509e-12
5.32152e-12
4.84294e-12
4.31206e-12
3.72574e-12
3.08075e-12
2.37379e-12
1.60152e-12
7.60588e-13
-1.52371e-13
-1.14069e-12
-2.20762e-12
-3.35633e-12
-4.5898e-12
-5.91081e-12
-7.32174e-12
-8.82439e-12
-1.04203e-11
-1.21126e-11
-1.3899e-11
-1.57275e-11
-1.75374e-11
-2.0085e-11
-2.53439e-11
-2.29755e-11
3.66974e-12
3.62866e-12
3.58899e-12
3.56149e-12
3.54213e-12
3.52967e-12
3.52408e-12
3.52514e-12
3.53257e-12
3.54611e-12
3.56552e-12
3.59056e-12
3.62102e-12
3.65669e-12
3.69738e-12
3.74291e-12
3.7931e-12
3.84778e-12
3.90681e-12
3.97002e-12
4.03728e-12
4.10843e-12
4.18336e-12
4.26191e-12
4.34395e-12
4.42936e-12
4.51799e-12
4.60971e-12
4.70437e-12
4.80183e-12
4.90192e-12
5.0045e-12
5.10938e-12
5.21638e-12
5.3253e-12
5.43595e-12
5.54809e-12
5.66148e-12
5.77587e-12
5.89098e-12
6.0065e-12
6.12212e-12
6.23748e-12
6.35221e-12
6.46591e-12
6.57813e-12
6.68842e-12
6.79626e-12
6.90113e-12
7.00243e-12
7.09954e-12
7.1918e-12
7.2785e-12
7.35887e-12
7.43209e-12
7.49729e-12
7.55355e-12
7.59987e-12
7.63519e-12
7.65841e-12
7.66831e-12
7.66365e-12
7.64307e-12
7.60516e-12
7.54842e-12
7.47126e-12
7.37202e-12
7.24892e-12
7.10012e-12
6.92367e-12
6.71754e-12
6.47958e-12
6.20758e-12
5.89922e-12
5.55208e-12
5.16366e-12
4.7314e-12
4.25261e-12
3.72459e-12
3.14453e-12
2.5096e-12
1.81692e-12
1.0636e-12
2.46728e-13
-6.36567e-13
-1.58912e-12
-2.6137e-12
-3.71295e-12
-4.88936e-12
-6.1452e-12
-7.48241e-12
-8.90237e-12
-1.04062e-11
-1.19967e-11
-1.36714e-11
-1.538e-11
-1.70643e-11
-1.94499e-11
-2.44303e-11
-2.20841e-11
3.70165e-12
3.66285e-12
3.62531e-12
3.59926e-12
3.58091e-12
3.5691e-12
3.56379e-12
3.56478e-12
3.57182e-12
3.58466e-12
3.60308e-12
3.62685e-12
3.65577e-12
3.68966e-12
3.72832e-12
3.77158e-12
3.81928e-12
3.87124e-12
3.92733e-12
3.98738e-12
4.05125e-12
4.11881e-12
4.18989e-12
4.26438e-12
4.34213e-12
4.42299e-12
4.50684e-12
4.59351e-12
4.68286e-12
4.77473e-12
4.86896e-12
4.96538e-12
5.06381e-12
5.16404e-12
5.26589e-12
5.36913e-12
5.47352e-12
5.57883e-12
5.68477e-12
5.79107e-12
5.89742e-12
6.00348e-12
6.10891e-12
6.21331e-12
6.3163e-12
6.41742e-12
6.51621e-12
6.61217e-12
6.70475e-12
6.7934e-12
6.87748e-12
6.95635e-12
7.0293e-12
7.09559e-12
7.15442e-12
7.20496e-12
7.24629e-12
7.27747e-12
7.29748e-12
7.30525e-12
7.29964e-12
7.27945e-12
7.24341e-12
7.19019e-12
7.11836e-12
7.02645e-12
6.9129e-12
6.77606e-12
6.61423e-12
6.42562e-12
6.20835e-12
5.96047e-12
5.67997e-12
5.36475e-12
5.01263e-12
4.62139e-12
4.18871e-12
3.71225e-12
3.1896e-12
2.61833e-12
1.99597e-12
1.32003e-12
5.88032e-13
-2.02494e-13
-1.05398e-12
-1.96881e-12
-2.94927e-12
-3.99754e-12
-5.11566e-12
-6.30545e-12
-7.56841e-12
-8.90555e-12
-1.03177e-11
-1.18071e-11
-1.33713e-11
-1.4962e-11
-1.65233e-11
-1.87484e-11
-2.34465e-11
-2.11365e-11
3.73036e-12
3.69375e-12
3.65826e-12
3.63363e-12
3.61627e-12
3.60509e-12
3.60006e-12
3.60101e-12
3.60769e-12
3.61987e-12
3.63733e-12
3.65989e-12
3.68734e-12
3.71951e-12
3.75622e-12
3.79729e-12
3.84257e-12
3.89191e-12
3.94514e-12
4.00211e-12
4.0627e-12
4.12674e-12
4.19409e-12
4.26462e-12
4.33818e-12
4.41462e-12
4.49379e-12
4.57555e-12
4.65973e-12
4.74617e-12
4.8347e-12
4.92514e-12
5.0173e-12
5.11098e-12
5.20596e-12
5.30203e-12
5.39893e-12
5.49642e-12
5.59421e-12
5.69202e-12
5.78954e-12
5.88642e-12
5.9823e-12
6.07682e-12
6.16955e-12