/*--------------------------------*- C++ -*----------------------------------*\
  =========                 |
  \\      /  F ield         | OpenFOAM: The Open Source CFD Toolbox
   \\    /   O peration     | Website:  https://openfoam.org
    \\  /    A nd           | Version:  11
     \\/     M anipulation  |
\*---------------------------------------------------------------------------*/
FoamFile
{
    format      ascii;
    class       volScalarField;
    location    "258";
    object      nut;
}
// * * * * * * * * * * * * * * * * * * * * * * * * * * * * * * * * * * * * * //

dimensions      [0 2 -1 0 0 0 0];

internalField   nonuniform List<scalar> 
10000
(
0.000977105
0.000936662
0.000899563
0.000865489
0.00083415
0.000805287
0.000778669
0.000754084
0.000731347
0.000710286
0.000690749
0.000672599
0.000655711
0.000639975
0.000625289
0.000611563
0.000598714
0.000586669
0.000575361
0.000564731
0.000554724
0.000545293
0.000536395
0.000527992
0.000520052
0.000512544
0.000505446
0.000498736
0.000492399
0.000486423
0.000480801
0.00047553
0.000470609
0.000466045
0.000461848
0.000458032
0.000454615
0.000451621
0.000449077
0.000447015
0.000445467
0.00044447
0.000444063
0.000444284
0.00044517
0.000446757
0.000449077
0.000452155
0.000456012
0.000460659
0.000466099
0.000472324
0.000479317
0.000487052
0.000495491
0.000504591
0.000514299
0.000524558
0.000535305
0.000546472
0.000557988
0.000569784
0.000581789
0.000593935
0.000606157
0.000618394
0.00063059
0.000642688
0.000654645
0.000666422
0.000677977
0.000689275
0.000700287
0.000710989
0.000721358
0.000731377
0.000741033
0.000750313
0.000759209
0.000767716
0.00077583
0.000783548
0.000790869
0.000797795
0.000804327
0.000810466
0.000816216
0.000821577
0.000826554
0.000831148
0.000835359
0.000839188
0.000842633
0.000845692
0.00084836
0.000850629
0.000852487
0.000853921
0.000854908
0.000855424
0.000977105
0.000936662
0.000899564
0.00086549
0.000834151
0.000805288
0.00077867
0.000754086
0.000731348
0.000710287
0.00069075
0.0006726
0.000655713
0.000639977
0.000625291
0.000611565
0.000598716
0.000586672
0.000575364
0.000564734
0.000554727
0.000545296
0.000536399
0.000527996
0.000520056
0.000512548
0.00050545
0.000498741
0.000492404
0.000486429
0.000480807
0.000475535
0.000470615
0.000466051
0.000461854
0.000458038
0.000454622
0.000451628
0.000449084
0.00044702
0.000445471
0.000444474
0.000444066
0.000444285
0.000445169
0.000446754
0.000449071
0.000452147
0.000456001
0.000460644
0.00046608
0.000472301
0.000479291
0.000487023
0.00049546
0.000504557
0.000514264
0.00052452
0.000535263
0.000546426
0.000557939
0.000569731
0.000581732
0.000593875
0.000606096
0.000618333
0.000630529
0.000642627
0.000654585
0.000666363
0.000677919
0.000689219
0.000700233
0.000710936
0.000721307
0.000731329
0.000740986
0.000750268
0.000759167
0.000767676
0.000775792
0.000783512
0.000790836
0.000797763
0.000804297
0.000810438
0.000816189
0.000821553
0.000826531
0.000831126
0.000835339
0.000839169
0.000842615
0.000845676
0.000848345
0.000850614
0.000852474
0.000853908
0.000854896
0.000855412
0.000977105
0.000936663
0.000899565
0.000865491
0.000834153
0.000805291
0.000778672
0.000754089
0.000731351
0.00071029
0.000690754
0.000672604
0.000655717
0.000639981
0.000625296
0.00061157
0.000598721
0.000586677
0.000575369
0.000564739
0.000554733
0.000545303
0.000536405
0.000528003
0.000520063
0.000512556
0.000505458
0.000498749
0.000492413
0.000486438
0.000480816
0.000475545
0.000470625
0.000466061
0.000461864
0.000458047
0.00045463
0.000451635
0.000449089
0.000447024
0.000445473
0.000444473
0.000444061
0.000444277
0.000445157
0.000446736
0.000449047
0.000452116
0.000455963
0.000460599
0.000466027
0.00047224
0.000479222
0.000486946
0.000495375
0.000504466
0.000514165
0.000524415
0.000535152
0.000546308
0.000557815
0.000569602
0.000581599
0.00059374
0.000605959
0.000618195
0.000630392
0.000642492
0.000654451
0.000666232
0.000677791
0.000689094
0.000700112
0.000710819
0.000721194
0.00073122
0.000740882
0.000750169
0.000759073
0.000767587
0.000775707
0.000783432
0.00079076
0.000797692
0.00080423
0.000810376
0.000816131
0.000821499
0.000826481
0.000831079
0.000835295
0.000839129
0.000842578
0.000845642
0.000848313
0.000850585
0.000852447
0.000853883
0.000854872
0.000855388
0.000977105
0.000936664
0.000899567
0.000865493
0.000834155
0.000805294
0.000778676
0.000754092
0.000731355
0.000710295
0.000690759
0.000672609
0.000655723
0.000639987
0.000625302
0.000611576
0.000598728
0.000586684
0.000575377
0.000564747
0.000554741
0.000545311
0.000536415
0.000528013
0.000520073
0.000512567
0.000505469
0.000498761
0.000492425
0.00048645
0.000480829
0.000475558
0.000470638
0.000466074
0.000461876
0.000458059
0.000454641
0.000451644
0.000449097
0.000447029
0.000445475
0.00044447
0.000444053
0.000444262
0.000445135
0.000446707
0.000449009
0.000452068
0.000455904
0.000460529
0.000465945
0.000472146
0.000479116
0.000486827
0.000495245
0.000504324
0.000514013
0.000524252
0.00053498
0.000546127
0.000557626
0.000569407
0.000581399
0.000593537
0.000605754
0.00061799
0.000630187
0.000642288
0.00065425
0.000666035
0.000677598
0.000688906
0.000699929
0.000710642
0.000721024
0.000731057
0.000740726
0.00075002
0.00075893
0.000767452
0.000775579
0.000783311
0.000790646
0.000797585
0.00080413
0.000810282
0.000816043
0.000821417
0.000826405
0.000831009
0.00083523
0.000839069
0.000842523
0.000845591
0.000848266
0.000850542
0.000852407
0.000853845
0.000854836
0.000855353
0.000977106
0.000936665
0.000899568
0.000865495
0.000834158
0.000805297
0.00077868
0.000754097
0.000731361
0.000710301
0.000690765
0.000672616
0.00065573
0.000639995
0.00062531
0.000611585
0.000598737
0.000586693
0.000575387
0.000564758
0.000554753
0.000545323
0.000536427
0.000528026
0.000520087
0.000512581
0.000505484
0.000498776
0.000492441
0.000486467
0.000480846
0.000475575
0.000470655
0.000466091
0.000461893
0.000458075
0.000454655
0.000451657
0.000449106
0.000447035
0.000445476
0.000444466
0.000444043
0.000444244
0.000445108
0.000446669
0.00044896
0.000452006
0.000455828
0.000460438
0.000465839
0.000472024
0.000478978
0.000486673
0.000495075
0.000504139
0.000513814
0.00052404
0.000534755
0.000545892
0.000557381
0.000569153
0.00058114
0.000593272
0.000605487
0.000617722
0.00062992
0.000642023
0.000653989
0.000665777
0.000677346
0.00068866
0.000699691
0.000710411
0.000720801
0.000730843
0.00074052
0.000749824
0.000758743
0.000767274
0.000775411
0.000783152
0.000790496
0.000797444
0.000803997
0.000810158
0.000815928
0.00082131
0.000826305
0.000830917
0.000835145
0.00083899
0.000842451
0.000845524
0.000848204
0.000850485
0.000852353
0.000853795
0.000854788
0.000855306
0.000977106
0.000936666
0.00089957
0.000865498
0.000834161
0.000805301
0.000778685
0.000754103
0.000731367
0.000710308
0.000690772
0.000672624
0.000655738
0.000640004
0.00062532
0.000611595
0.000598748
0.000586705
0.000575399
0.000564771
0.000554766
0.000545338
0.000536442
0.000528042
0.000520104
0.000512599
0.000505503
0.000498796
0.000492461
0.000486488
0.000480868
0.000475597
0.000470677
0.000466113
0.000461914
0.000458095
0.000454673
0.000451672
0.000449119
0.000447043
0.000445479
0.000444462
0.00044403
0.000444222
0.000445075
0.000446624
0.000448901
0.000451932
0.000455737
0.000460329
0.000465711
0.000471877
0.000478811
0.000486487
0.00049487
0.000503916
0.000513573
0.000523783
0.000534483
0.000545606
0.000557084
0.000568847
0.000580826
0.000592953
0.000605164
0.000617398
0.000629596
0.000641702
0.000653671
0.000665464
0.000677039
0.000688361
0.0006994
0.00071013
0.000720529
0.000730581
0.000740269
0.000749584
0.000758515
0.000767056
0.000775204
0.000782957
0.000790312
0.000797271
0.000803835
0.000810006
0.000815786
0.000821178
0.000826183
0.000830803
0.00083504
0.000838893
0.000842362
0.000845442
0.000848129
0.000850415
0.000852288
0.000853733
0.000854728
0.000855247
0.000977106
0.000936667
0.000899572
0.000865501
0.000834165
0.000805306
0.00077869
0.000754109
0.000731374
0.000710315
0.000690781
0.000672633
0.000655748
0.000640014
0.000625331
0.000611607
0.000598761
0.000586718
0.000575414
0.000564786
0.000554783
0.000545355
0.00053646
0.000528061
0.000520124
0.00051262
0.000505525
0.000498819
0.000492485
0.000486513
0.000480893
0.000475623
0.000470703
0.000466139
0.000461939
0.000458118
0.000454695
0.000451691
0.000449133
0.000447053
0.000445482
0.000444458
0.000444017
0.000444198
0.000445038
0.000446573
0.000448833
0.000451847
0.000455633
0.000460204
0.000465565
0.000471708
0.00047862
0.000486273
0.000494634
0.000503658
0.000513295
0.000523485
0.000534168
0.000545276
0.00055674
0.000568492
0.000580462
0.000592583
0.000604789
0.000617021
0.00062922
0.000641328
0.000653301
0.0006651
0.000676682
0.000688012
0.00069906
0.000709801
0.000720212
0.000730275
0.000739976
0.000749302
0.000758246
0.000766801
0.000774962
0.000782727
0.000790096
0.000797068
0.000803644
0.000809827
0.000815619
0.000821023
0.000826039
0.00083067
0.000834917
0.00083878
0.000842257
0.000845345
0.000848039
0.000850332
0.00085221
0.000853659
0.000854657
0.000855177
0.000977107
0.000936668
0.000899574
0.000865503
0.000834169
0.00080531
0.000778696
0.000754115
0.000731381
0.000710324
0.00069079
0.000672643
0.000655759
0.000640026
0.000625344
0.000611621
0.000598775
0.000586734
0.00057543
0.000564804
0.000554801
0.000545374
0.000536481
0.000528083
0.000520147
0.000512644
0.000505551
0.000498846
0.000492513
0.000486541
0.000480923
0.000475653
0.000470733
0.000466168
0.000461968
0.000458146
0.00045472
0.000451713
0.000449151
0.000447065
0.000445488
0.000444455
0.000444004
0.000444172
0.000444998
0.000446517
0.000448759
0.000451752
0.000455517
0.000460065
0.000465402
0.00047152
0.000478406
0.000486034
0.00049437
0.00050337
0.000512983
0.000523152
0.000533815
0.000544906
0.000556355
0.000568094
0.000580053
0.000592166
0.000604368
0.000616597
0.000628796
0.000640906
0.000652883
0.000664688
0.000676278
0.000687617
0.000698676
0.000709428
0.000719851
0.000729927
0.000739642
0.000748983
0.000757941
0.000766511
0.000774687
0.000782467
0.00078985
0.000796836
0.000803427
0.000809624
0.000815429
0.000820845
0.000825874
0.000830518
0.000834776
0.00083865
0.000842137
0.000845234
0.000847937
0.000850236
0.000852121
0.000853575
0.000854576
0.000855096
0.000977107
0.000936669
0.000899575
0.000865506
0.000834172
0.000805315
0.000778701
0.000754122
0.000731389
0.000710332
0.0006908
0.000672654
0.000655771
0.000640039
0.000625357
0.000611635
0.000598791
0.000586751
0.000575448
0.000564823
0.000554822
0.000545396
0.000536504
0.000528108
0.000520173
0.000512672
0.000505579
0.000498876
0.000492545
0.000486574
0.000480956
0.000475687
0.000470767
0.000466202
0.000462001
0.000458177
0.000454749
0.000451739
0.000449172
0.00044708
0.000445495
0.000444453
0.00044399
0.000444146
0.000444956
0.000446457
0.000448679
0.000451651
0.000455392
0.000459915
0.000465225
0.000471316
0.000478174
0.000485774
0.000494081
0.000503055
0.000512643
0.000522788
0.000533429
0.0005445
0.000555932
0.000567656
0.000579605
0.000591709
0.000603905
0.000616131
0.000628329
0.000640441
0.000652422
0.000664234
0.000675832
0.00068718
0.00069825
0.000709015
0.000719451
0.000729542
0.000739271
0.000748628
0.000757602
0.000766188
0.00077438
0.000782176
0.000789575
0.000796578
0.000803184
0.000809397
0.000815217
0.000820648
0.000825691
0.000830348
0.000834619
0.000838504
0.000842002
0.00084511
0.000847822
0.000850129
0.000852021
0.000853479
0.000854483
0.000855005
0.000977107
0.000936669
0.000899577
0.000865509
0.000834176
0.00080532
0.000778707
0.000754129
0.000731397
0.000710341
0.00069081
0.000672665
0.000655783
0.000640053
0.000625372
0.000611652
0.000598809
0.00058677
0.000575468
0.000564844
0.000554844
0.000545421
0.00053653
0.000528135
0.000520202
0.000512702
0.000505611
0.000498909
0.000492579
0.00048661
0.000480993
0.000475725
0.000470805
0.00046624
0.000462038
0.000458213
0.000454782
0.000451768
0.000449196
0.000447098
0.000445504
0.000444452
0.000443977
0.000444118
0.000444912
0.000446394
0.000448595
0.000451543
0.000455259
0.000459754
0.000465035
0.000471097
0.000477925
0.000485494
0.000493772
0.000502716
0.000512277
0.000522396
0.000533013
0.000544063
0.000555476
0.000567185
0.00057912
0.000591215
0.000603404
0.000615627
0.000627824
0.000639938
0.000651923
0.00066374
0.000675347
0.000686706
0.000697787
0.000708565
0.000719016
0.000729122
0.000738867
0.00074824
0.000757232
0.000765835
0.000774044
0.000781858
0.000789275
0.000796295
0.000802918
0.000809148
0.000814985
0.000820431
0.000825489
0.000830161
0.000834446
0.000838344
0.000841854
0.000844973
0.000847695
0.000850011
0.000851909
0.000853373
0.000854381
0.000854904
0.000977107
0.00093667
0.000899579
0.000865511
0.000834179
0.000805324
0.000778713
0.000754136
0.000731405
0.000710351
0.000690821
0.000672677
0.000655796
0.000640067
0.000625388
0.000611669
0.000598827
0.000586789
0.000575489
0.000564867
0.000554869
0.000545447
0.000536558
0.000528164
0.000520233
0.000512735
0.000505646
0.000498946
0.000492617
0.000486649
0.000481033
0.000475766
0.000470847
0.000466282
0.000462079
0.000458252
0.000454818
0.0004518
0.000449224
0.000447118
0.000445516
0.000444452
0.000443965
0.000444091
0.000444867
0.000446329
0.000448507
0.000451431
0.000455119
0.000459586
0.000464836
0.000470866
0.000477662
0.000485199
0.000493445
0.000502358
0.000511889
0.000521981
0.000532572
0.000543599
0.000554992
0.000566684
0.000578605
0.000590689
0.000602871
0.000615088
0.000627284
0.000639399
0.000651388
0.000663212
0.000674827
0.000686197
0.000697291
0.000708082
0.000718548
0.00072867
0.000738433
0.000747823
0.000756833
0.000765454
0.000773683
0.000781515
0.000788951
0.000795989
0.000802631
0.000808878
0.000814733
0.000820196
0.000825271
0.000829958
0.000834258
0.00083817
0.000841694
0.000844824
0.000847556
0.000849882
0.000851787
0.000853257
0.000854269
0.000854793
0.000977108
0.000936671
0.00089958
0.000865514
0.000834183
0.000805329
0.000778719
0.000754143
0.000731413
0.00071036
0.000690831
0.000672689
0.00065581
0.000640082
0.000625404
0.000611686
0.000598846
0.00058681
0.000575512
0.000564891
0.000554895
0.000545475
0.000536588
0.000528196
0.000520267
0.000512771
0.000505684
0.000498985
0.000492658
0.000486692
0.000481077
0.000475811
0.000470892
0.000466327
0.000462123
0.000458294
0.000454858
0.000451836
0.000449254
0.000447141
0.00044553
0.000444455
0.000443954
0.000444064
0.000444822
0.000446262
0.000448417
0.000451314
0.000454974
0.00045941
0.000464629
0.000470626
0.000477387
0.00048489
0.000493103
0.000501983
0.000511482
0.000521545
0.000532109
0.000543111
0.000554483
0.000566156
0.000578062
0.000590134
0.000602308
0.00061452
0.000626714
0.00063883
0.000650823
0.000662653
0.000674277
0.000685657
0.000696764
0.000707569
0.000718051
0.00072819
0.00073797
0.000747379
0.000756408
0.000765049
0.000773297
0.00078115
0.000788605
0.000795663
0.000802324
0.000808591
0.000814464
0.000819945
0.000825037
0.000829741
0.000834057
0.000837984
0.000841521
0.000844664
0.000847407
0.000849742
0.000851656
0.000853132
0.000854147
0.000854674
0.000977108
0.000936672
0.000899582
0.000865516
0.000834186
0.000805333
0.000778724
0.00075415
0.000731421
0.00071037
0.000690842
0.000672702
0.000655824
0.000640097
0.000625421
0.000611705
0.000598867
0.000586832
0.000575536
0.000564917
0.000554923
0.000545504
0.000536619
0.00052823
0.000520303
0.000512809
0.000505724
0.000499027
0.000492702
0.000486737
0.000481124
0.000475859
0.000470941
0.000466375
0.000462171
0.00045834
0.000454901
0.000451875
0.000449287
0.000447166
0.000445546
0.00044446
0.000443944
0.000444038
0.000444776
0.000446195
0.000448325
0.000451195
0.000454825
0.00045923
0.000464415
0.000470377
0.000477103
0.000484571
0.000492748
0.000501594
0.00051106
0.000521092
0.000531628
0.000542604
0.000553953
0.000565606
0.000577496
0.000589556
0.00060172
0.000613927
0.000626118
0.000638235
0.000650231
0.000662067
0.0006737
0.000685091
0.00069621
0.00070703
0.000717528
0.000727684
0.000737483
0.000746912
0.00075596
0.000764621
0.00077289
0.000780763
0.000788239
0.000795318
0.000802
0.000808286
0.000814178
0.000819679
0.000824789
0.00082951
0.000833842
0.000837785
0.000841337
0.000844493
0.000847248
0.000849593
0.000851515
0.000852997
0.000854017
0.000854546
0.000977108
0.000936673
0.000899583
0.000865518
0.000834189
0.000805337
0.00077873
0.000754156
0.000731429
0.000710379
0.000690853
0.000672714
0.000655838
0.000640113
0.000625438
0.000611724
0.000598887
0.000586855
0.00057556
0.000564944
0.000554951
0.000545535
0.000536652
0.000528265
0.00052034
0.000512849
0.000505766
0.000499071
0.000492749
0.000486786
0.000481174
0.00047591
0.000470992
0.000466427
0.000462222
0.000458389
0.000454947
0.000451917
0.000449323
0.000447195
0.000445564
0.000444466
0.000443936
0.000444013
0.000444731
0.000446127
0.000448232
0.000451074
0.000454673
0.000459046
0.000464196
0.000470123
0.000476812
0.000484243
0.000492383
0.000501194
0.000510626
0.000520625
0.000531131
0.00054208
0.000553405
0.000565038
0.000576911
0.000588957
0.000601111
0.000613311
0.000625499
0.000637617
0.000649615
0.000661458
0.000673099
0.000684501
0.000695633
0.000706468
0.000716983
0.000727157
0.000736974
0.000746422
0.000755491
0.000764174
0.000772464
0.000780358
0.000787856
0.000794956
0.000801659
0.000807966
0.000813879
0.000819399
0.000824528
0.000829267
0.000833617
0.000837576
0.000841142
0.000844312
0.000847079
0.000849434
0.000851365
0.000852854
0.000853879
0.00085441
0.000977108
0.000936673
0.000899585
0.00086552
0.000834192
0.000805342
0.000778735
0.000754163
0.000731437
0.000710388
0.000690864
0.000672726
0.000655852
0.000640129
0.000625456
0.000611743
0.000598909
0.000586878
0.000575586
0.000564971
0.000554981
0.000545567
0.000536687
0.000528302
0.000520379
0.00051289
0.00050581
0.000499118
0.000492797
0.000486836
0.000481226
0.000475963
0.000471047
0.000466481
0.000462275
0.000458441
0.000454996
0.000451961
0.000449361
0.000447225
0.000445585
0.000444474
0.00044393
0.000443989
0.000444687
0.000446059
0.000448139
0.000450952
0.00045452
0.000458859
0.000463974
0.000469864
0.000476516
0.000483908
0.000492011
0.000500784
0.000510181
0.000520147
0.000530622
0.000541543
0.000552843
0.000564454
0.000576309
0.00058834
0.000600484
0.000612677
0.000624861
0.000636979
0.00064898
0.000660829
0.000672478
0.000683891
0.000695037
0.000705887
0.000716417
0.00072661
0.000736446
0.000745915
0.000755005
0.000763708
0.00077202
0.000779937
0.000787457
0.000794579
0.000801304
0.000807632
0.000813566
0.000819106
0.000824255
0.000829013
0.000833381
0.000837356
0.000840938
0.000844122
0.000846901
0.000849268
0.000851207
0.000852703
0.000853733
0.000854266
0.000977108
0.000936674
0.000899586
0.000865522
0.000834195
0.000805345
0.00077874
0.000754169
0.000731445
0.000710397
0.000690875
0.000672739
0.000655866
0.000640144
0.000625474
0.000611763
0.00059893
0.000586902
0.000575612
0.000565
0.000555012
0.0005456
0.000536722
0.00052834
0.00052042
0.000512934
0.000505856
0.000499166
0.000492848
0.000486889
0.000481281
0.000476019
0.000471103
0.000466538
0.000462331
0.000458496
0.000455048
0.000452008
0.000449403
0.000447258
0.000445608
0.000444485
0.000443925
0.000443966
0.000444644
0.000445993
0.000448045
0.000450829
0.000454366
0.00045867
0.000463749
0.000469602
0.000476215
0.000483569
0.000491633
0.000500369
0.000509729
0.00051966
0.000530104
0.000540995
0.000552269
0.000563858
0.000575694
0.000587711
0.000599843
0.000612028
0.000624208
0.000636325
0.000648329
0.000660183
0.00067184
0.000683264
0.000694423
0.000705288
0.000715836
0.000726046
0.000735902
0.000745391
0.000754502
0.000763228
0.000771562
0.000779502
0.000787044
0.000794189
0.000800936
0.000807286
0.000813242
0.000818803
0.000823972
0.000828749
0.000833135
0.000837128
0.000840725
0.000843923
0.000846716
0.000849093
0.000851042
0.000852545
0.00085358
0.000854115
0.000977109
0.000936675
0.000899587
0.000865524
0.000834198
0.000805349
0.000778745
0.000754175
0.000731452
0.000710406
0.000690885
0.000672751
0.00065588
0.00064016
0.000625491
0.000611783
0.000598952
0.000586926
0.000575638
0.000565028
0.000555043
0.000545634
0.000536759
0.000528379
0.000520462
0.000512978
0.000505903
0.000499216
0.0004929
0.000486943
0.000481337
0.000476077
0.000471162
0.000466597
0.00046239
0.000458552
0.000455101
0.000452058
0.000449446
0.000447294
0.000445633
0.000444497
0.000443923
0.000443945
0.000444602
0.000445927
0.000447953
0.000450707
0.000454211
0.000458481
0.000463524
0.000469338
0.000475912
0.000483226
0.000491251
0.000499949
0.000509272
0.000519168
0.000529579
0.00054044
0.000551688
0.000563254
0.00057507
0.000587071
0.000599191
0.000611368
0.000623543
0.000635659
0.000647665
0.000659524
0.000671189
0.000682624
0.000693795
0.000704675
0.00071524
0.000725469
0.000735345
0.000744854
0.000753987
0.000762735
0.000771092
0.000779054
0.00078662
0.000793787
0.000800557
0.00080693
0.000812907
0.00081849
0.000823679
0.000828476
0.00083288
0.000836891
0.000840504
0.000843718
0.000846523
0.000848912
0.00085087
0.000852381
0.00085342
0.000853958
0.000977109
0.000936675
0.000899588
0.000865526
0.000834201
0.000805353
0.000778749
0.000754181
0.00073146
0.000710415
0.000690895
0.000672763
0.000655894
0.000640176
0.000625509
0.000611803
0.000598974
0.000586951
0.000575665
0.000565058
0.000555075
0.000545669
0.000536796
0.000528419
0.000520505
0.000513024
0.000505951
0.000499267
0.000492954
0.000486999
0.000481395
0.000476136
0.000471223
0.000466658
0.00046245
0.000458611
0.000455157
0.000452109
0.000449491
0.000447331
0.00044566
0.000444512
0.000443921
0.000443926
0.000444562
0.000445863
0.000447861
0.000450586
0.000454057
0.000458292
0.000463298
0.000469073
0.000475608
0.000482883
0.000490868
0.000499526
0.000508812
0.000518672
0.000529049
0.000539881
0.000551101
0.000562643
0.000574439
0.000586423
0.00059853
0.000610699
0.000622869
0.000634984
0.000646991
0.000658855
0.000670528
0.000681973
0.000693157
0.000704052
0.000714633
0.00072488
0.000734776
0.000744307
0.000753461
0.000762231
0.000770611
0.000778597
0.000786185
0.000793376
0.000800169
0.000806565
0.000812564
0.000818169
0.000823379
0.000828196
0.000832619
0.000836647
0.000840277
0.000843505
0.000846324
0.000848724
0.000850692
0.00085221
0.000853255
0.000853795
0.000977109
0.000936676
0.000899589
0.000865528
0.000834203
0.000805356
0.000778754
0.000754187
0.000731467
0.000710424
0.000690906
0.000672775
0.000655907
0.000640192
0.000625527
0.000611822
0.000598996
0.000586975
0.000575692
0.000565087
0.000555107
0.000545704
0.000536834
0.00052846
0.000520549
0.00051307
0.000506001
0.000499319
0.000493009
0.000487057
0.000481454
0.000476197
0.000471285
0.00046672
0.000462512
0.000458671
0.000455215
0.000452162
0.000449538
0.00044737
0.000445689
0.000444528
0.000443922
0.000443909
0.000444523
0.0004458
0.000447772
0.000450466
0.000453905
0.000458105
0.000463073
0.00046881
0.000475305
0.000482539
0.000490484
0.000499103
0.000508351
0.000518175
0.000528518
0.000539318
0.000550511
0.000562028
0.000573804
0.000585771
0.000597865
0.000610024
0.000622189
0.000634302
0.00064631
0.000658178
0.000669859
0.000681314
0.000692511
0.000703421
0.000714018
0.000724284
0.000734199
0.00074375
0.000752927
0.000761719
0.000770122
0.000778131
0.000785743
0.000792958
0.000799774
0.000806192
0.000812214
0.00081784
0.000823072
0.000827909
0.000832351
0.000836397
0.000840043
0.000843287
0.000846119
0.000848531
0.000850509
0.000852034
0.000853084
0.000853627
0.000977109
0.000936677
0.00089959
0.00086553
0.000834206
0.00080536
0.000778758
0.000754192
0.000731474
0.000710432
0.000690916
0.000672786
0.000655921
0.000640207
0.000625544
0.000611842
0.000599018
0.000587
0.000575719
0.000565117
0.00055514
0.000545739
0.000536872
0.000528501
0.000520593
0.000513118
0.000506051
0.000499372
0.000493064
0.000487115
0.000481515
0.000476259
0.000471348
0.000466784
0.000462575
0.000458733
0.000455273
0.000452217
0.000449587
0.00044741
0.000445719
0.000444545
0.000443925
0.000443893
0.000444486
0.000445739
0.000447684
0.000450348
0.000453754
0.000457919
0.00046285
0.000468548
0.000475003
0.000482197
0.000490102
0.000498681
0.00050789
0.000517678
0.000527987
0.000538756
0.00054992
0.000561413
0.000573167
0.000585117
0.000597198
0.000609347
0.000621506
0.000633616
0.000645625
0.000657498
0.000669185
0.00068065
0.000691859
0.000702783
0.000713398
0.000723681
0.000733616
0.000743188
0.000752386
0.000761201
0.000769627
0.000777659
0.000785295
0.000792533
0.000799372
0.000805814
0.000811858
0.000817507
0.000822759
0.000827616
0.000832078
0.000836142
0.000839805
0.000843063
0.000845909
0.000848333
0.00085032
0.000851854
0.000852909
0.000853455
0.000977109
0.000936677
0.000899591
0.000865531
0.000834208
0.000805363
0.000778763
0.000754198
0.00073148
0.00071044
0.000690925
0.000672798
0.000655934
0.000640222
0.000625562
0.000611862
0.00059904
0.000587024
0.000575746
0.000565146
0.000555172
0.000545774
0.00053691
0.000528543
0.000520637
0.000513165
0.000506101
0.000499426
0.000493121
0.000487173
0.000481576
0.000476322
0.000471412
0.000466848
0.000462639
0.000458796
0.000455333
0.000452273
0.000449636
0.000447452
0.000445751
0.000444564
0.000443929
0.000443879
0.000444451
0.00044568
0.000447598
0.000450232
0.000453606
0.000457736
0.00046263
0.000468289
0.000474704
0.000481858
0.000489722
0.000498262
0.000507432
0.000517184
0.000527458
0.000538196
0.000549331
0.000560799
0.000572532
0.000584464
0.000596531
0.00060867
0.000620822
0.00063293
0.000644939
0.000656815
0.00066851
0.000679984
0.000691205
0.000702143
0.000712774
0.000723075
0.000733029
0.000742622
0.000751842
0.000760679
0.000769128
0.000777184
0.000784843
0.000792104
0.000798967
0.000805431
0.000811498
0.000817168
0.000822442
0.00082732
0.0008318
0.000835882
0.000839562
0.000842836
0.000845695
0.000848131
0.000850128
0.000851669
0.000852729
0.000853278
0.000977109
0.000936678
0.000899592
0.000865533
0.00083421
0.000805366
0.000778767
0.000754203
0.000731487
0.000710448
0.000690935
0.000672809
0.000655947
0.000640237
0.000625579
0.000611881
0.000599062
0.000587048
0.000575773
0.000565176
0.000555204
0.000545809
0.000536949
0.000528584
0.000520682
0.000513213
0.000506152
0.000499479
0.000493177
0.000487233
0.000481637
0.000476385
0.000471476
0.000466913
0.000462704
0.000458859
0.000455394
0.000452329
0.000449687
0.000447495
0.000445784
0.000444585
0.000443934
0.000443867
0.000444418
0.000445623
0.000447514
0.000450119
0.000453461
0.000457555
0.000462413
0.000468034
0.000474409
0.000481523
0.000489347
0.000497847
0.000506979
0.000516693
0.000526934
0.000537639
0.000548746
0.000560189
0.0005719
0.000583814
0.000595866
0.000607995
0.00062014
0.000632245
0.000644254
0.000656134
0.000667834
0.000679318
0.000690551
0.000701503
0.000712149
0.000722468
0.000732441
0.000742054
0.000751295
0.000760155
0.000768627
0.000776705
0.000784388
0.000791672
0.000798559
0.000805046
0.000811136
0.000816827
0.000822122
0.00082702
0.00083152
0.00083562
0.000839317
0.000842605
0.000845478
0.000847926
0.000849933
0.000851481
0.000852547
0.000853098
0.000977109
0.000936678
0.000899593
0.000865534
0.000834213
0.000805369
0.000778771
0.000754208
0.000731493
0.000710456
0.000690944
0.00067282
0.00065596
0.000640252
0.000625595
0.0006119
0.000599083
0.000587072
0.000575799
0.000565205
0.000555236
0.000545845
0.000536987
0.000528625
0.000520726
0.00051326
0.000506203
0.000499533
0.000493234
0.000487292
0.000481699
0.000476449
0.000471541
0.000466979
0.000462769
0.000458923
0.000455456
0.000452386
0.000449739
0.000447539
0.000445818
0.000444607
0.000443941
0.000443856
0.000444387
0.000445569
0.000447433
0.000450009
0.000453318
0.000457379
0.0004622
0.000467782
0.000474119
0.000481192
0.000488976
0.000497437
0.000506531
0.000516209
0.000526415
0.000537089
0.000548167
0.000559584
0.000571273
0.000583169
0.000595207
0.000607324
0.000619463
0.000631565
0.000643573
0.000655455
0.000667162
0.000678654
0.000689898
0.000700864
0.000711526
0.000721862
0.000731854
0.000741487
0.000750749
0.000759631
0.000768125
0.000776226
0.000783932
0.00079124
0.000798149
0.000804659
0.000810771
0.000816485
0.000821801
0.000826719
0.000831237
0.000835355
0.000839069
0.000842373
0.000845259
0.000847718
0.000849735
0.000851291
0.000852362
0.000852916
0.00097711
0.000936678
0.000899594
0.000865536
0.000834215
0.000805372
0.000778774
0.000754213
0.000731499
0.000710463
0.000690953
0.00067283
0.000655972
0.000640266
0.000625612
0.000611918
0.000599104
0.000587095
0.000575825
0.000565234
0.000555268
0.000545879
0.000537025
0.000528666
0.00052077
0.000513308
0.000506253
0.000499587
0.00049329
0.000487351
0.00048176
0.000476512
0.000471606
0.000467044
0.000462834
0.000458987
0.000455517
0.000452444
0.000449791
0.000447584
0.000445853
0.00044463
0.000443949
0.000443847
0.000444358
0.000445517
0.000447355
0.000449902
0.00045318
0.000457206
0.000461991
0.000467536
0.000473834
0.000480868
0.000488612
0.000497034
0.00050609
0.000515732
0.000525903
0.000536546
0.000547595
0.000558987
0.000570654
0.000582532
0.000594555
0.000606661
0.000618792
0.00063089
0.000642897
0.000654783
0.000666495
0.000677996
0.00068925
0.000700229
0.000710906
0.000721259
0.00073127
0.000740922
0.000750205
0.000759108
0.000767624
0.000775749
0.000783477
0.000790808
0.00079774
0.000804273
0.000810407
0.000816142
0.000821478
0.000826416
0.000830954
0.00083509
0.00083882
0.000842138
0.000845038
0.000847509
0.000849535
0.000851099
0.000852175
0.000852731
0.00097711
0.000936679
0.000899595
0.000865537
0.000834217
0.000805375
0.000778778
0.000754218
0.000731505
0.00071047
0.000690961
0.000672841
0.000655984
0.00064028
0.000625628
0.000611937
0.000599125
0.000587118
0.000575851
0.000565262
0.000555299
0.000545914
0.000537062
0.000528707
0.000520814
0.000513355
0.000506304
0.00049964
0.000493346
0.00048741
0.000481821
0.000476575
0.00047167
0.00046711
0.000462899
0.000459051
0.000455579
0.000452502
0.000449843
0.000447629
0.000445888
0.000444654
0.000443959
0.00044384
0.000444331
0.000445467
0.00044728
0.000449798
0.000453045
0.000457038
0.000461788
0.000467296
0.000473555
0.00048055
0.000488256
0.000496639
0.000505657
0.000515263
0.000525401
0.000536012
0.000547033
0.000558399
0.000570044
0.000581903
0.000593912