/*--------------------------------*- C++ -*----------------------------------*\
  =========                 |
  \\      /  F ield         | OpenFOAM: The Open Source CFD Toolbox
   \\    /   O peration     | Website:  https://openfoam.org
    \\  /    A nd           | Version:  11
     \\/     M anipulation  |
\*---------------------------------------------------------------------------*/
FoamFile
{
    format      ascii;
    class       surfaceScalarField;
    location    "258";
    object      phi;
}
// * * * * * * * * * * * * * * * * * * * * * * * * * * * * * * * * * * * * * //

dimensions      [0 3 -1 0 0 0 0];

internalField   nonuniform List<scalar> 
19800
(
1.99967e-05
-3.47037e-08
1.99912e-05
-1.02942e-07
1.99842e-05
-1.7131e-07
1.99758e-05
-2.408e-07
1.9966e-05
-3.12092e-07
1.99546e-05
-3.85643e-07
1.99417e-05
-4.61801e-07
1.99272e-05
-5.40854e-07
1.99109e-05
-6.2305e-07
1.98928e-05
-7.08606e-07
1.98729e-05
-7.97721e-07
1.98509e-05
-8.90579e-07
1.98267e-05
-9.87351e-07
1.98003e-05
-1.0882e-06
1.97715e-05
-1.19327e-06
1.97402e-05
-1.3027e-06
1.97062e-05
-1.41663e-06
1.96695e-05
-1.53517e-06
1.96298e-05
-1.65843e-06
1.9587e-05
-1.78649e-06
1.9541e-05
-1.91944e-06
1.94917e-05
-2.05732e-06
1.94387e-05
-2.20018e-06
1.93821e-05
-2.34803e-06
1.93215e-05
-2.50085e-06
1.9257e-05
-2.65861e-06
1.91882e-05
-2.82121e-06
1.91151e-05
-2.98854e-06
1.90375e-05
-3.16044e-06
1.89551e-05
-3.33671e-06
1.8868e-05
-3.51707e-06
1.87759e-05
-3.7012e-06
1.86787e-05
-3.88872e-06
1.85764e-05
-4.07916e-06
1.84688e-05
-4.27199e-06
1.83559e-05
-4.46659e-06
1.82376e-05
-4.66227e-06
1.81139e-05
-4.85824e-06
1.79849e-05
-5.05364e-06
1.78507e-05
-5.24753e-06
1.77114e-05
-5.43889e-06
1.75672e-05
-5.62664e-06
1.74182e-05
-5.80967e-06
1.72648e-05
-5.98683e-06
1.71074e-05
-6.15697e-06
1.69462e-05
-6.31898e-06
1.67818e-05
-6.47178e-06
1.66147e-05
-6.61438e-06
1.64453e-05
-6.74592e-06
1.62741e-05
-6.86564e-06
1.61019e-05
-6.97299e-06
1.59293e-05
-7.06756e-06
1.57572e-05
-7.14923e-06
1.55852e-05
-7.21765e-06
1.54121e-05
-7.27251e-06
1.52378e-05
-7.31375e-06
1.50628e-05
-7.34198e-06
1.48877e-05
-7.35806e-06
1.47146e-05
-7.36312e-06
1.45457e-05
-7.35773e-06
1.4381e-05
-7.34191e-06
1.42205e-05
-7.31607e-06
1.40643e-05
-7.28071e-06
1.39116e-05
-7.23629e-06
1.37614e-05
-7.18388e-06
1.36138e-05
-7.12442e-06
1.34691e-05
-7.05844e-06
1.33274e-05
-6.98642e-06
1.31888e-05
-6.90887e-06
1.30533e-05
-6.82625e-06
1.29211e-05
-6.73905e-06
1.2792e-05
-6.6477e-06
1.26661e-05
-6.55263e-06
1.25435e-05
-6.45424e-06
1.24242e-05
-6.3529e-06
1.23081e-05
-6.24899e-06
1.21953e-05
-6.14286e-06
1.20859e-05
-6.03485e-06
1.19798e-05
-5.92531e-06
1.18771e-05
-5.81457e-06
1.17778e-05
-5.70297e-06
1.16819e-05
-5.59086e-06
1.15896e-05
-5.47859e-06
1.15009e-05
-5.36651e-06
1.14157e-05
-5.25502e-06
1.13343e-05
-5.1445e-06
1.12567e-05
-5.03539e-06
1.11829e-05
-4.92812e-06
1.11131e-05
-4.82317e-06
1.10475e-05
-4.72108e-06
1.0986e-05
-4.62242e-06
1.0929e-05
-4.52781e-06
1.08765e-05
-4.43796e-06
1.08288e-05
-4.35366e-06
1.07862e-05
-4.27584e-06
1.07489e-05
-4.20556e-06
1.07174e-05
-4.14411e-06
1.06921e-05
-4.09305e-06
1.06739e-05
-4.0549e-06
-4.03434e-06
1.99975e-05
-3.22252e-08
1.99923e-05
-9.77618e-08
1.99854e-05
-1.64383e-07
1.9977e-05
-2.32368e-07
1.99671e-05
-3.02195e-07
1.99557e-05
-3.74254e-07
1.99428e-05
-4.48862e-07
1.99282e-05
-5.26289e-07
1.99119e-05
-6.06771e-07
1.98938e-05
-6.90517e-07
1.98738e-05
-7.7772e-07
1.98518e-05
-8.68556e-07
1.98276e-05
-9.63191e-07
1.98012e-05
-1.06178e-06
1.97724e-05
-1.16447e-06
1.97411e-05
-1.27139e-06
1.97072e-05
-1.38267e-06
1.96704e-05
-1.49843e-06
1.96307e-05
-1.61875e-06
1.9588e-05
-1.74374e-06
1.9542e-05
-1.87345e-06
1.94926e-05
-2.00795e-06
1.94397e-05
-2.14727e-06
1.93831e-05
-2.29141e-06
1.93226e-05
-2.44036e-06
1.92581e-05
-2.59408e-06
1.91894e-05
-2.75249e-06
1.91163e-05
-2.91547e-06
1.90387e-05
-3.08286e-06
1.89565e-05
-3.25446e-06
1.88694e-05
-3.43001e-06
1.87774e-05
-3.6092e-06
1.86804e-05
-3.79165e-06
1.85781e-05
-3.97692e-06
1.84706e-05
-4.1645e-06
1.83578e-05
-4.35379e-06
1.82397e-05
-4.54412e-06
1.81162e-05
-4.73475e-06
1.79874e-05
-4.92485e-06
1.78534e-05
-5.11351e-06
1.77143e-05
-5.29978e-06
1.75702e-05
-5.48261e-06
1.74215e-05
-5.66095e-06
1.72684e-05
-5.8337e-06
1.71112e-05
-5.99976e-06
1.69503e-05
-6.15807e-06
1.67861e-05
-6.3076e-06
1.66191e-05
-6.4474e-06
1.64498e-05
-6.57663e-06
1.62787e-05
-6.69456e-06
1.61064e-05
-6.80061e-06
1.59331e-05
-6.89434e-06
1.57593e-05
-6.97542e-06
1.5585e-05
-7.04337e-06
1.54105e-05
-7.09802e-06
1.52368e-05
-7.13996e-06
1.50644e-05
-7.16962e-06
1.48938e-05
-7.18748e-06
1.47252e-05
-7.19452e-06
1.45588e-05
-7.19127e-06
1.43947e-05
-7.17782e-06
1.42333e-05
-7.15473e-06
1.40753e-05
-7.12264e-06
1.39207e-05
-7.08173e-06
1.37695e-05
-7.03267e-06
1.36214e-05
-6.97634e-06
1.34764e-05
-6.91344e-06
1.33345e-05
-6.84453e-06
1.31957e-05
-6.7701e-06
1.30601e-05
-6.69065e-06
1.29277e-05
-6.60664e-06
1.27985e-05
-6.51851e-06
1.26726e-05
-6.42667e-06
1.25498e-05
-6.33152e-06
1.24304e-05
-6.23344e-06
1.23142e-05
-6.13281e-06
1.22013e-05
-6.02998e-06
1.20918e-05
-5.92529e-06
1.19855e-05
-5.8191e-06
1.18827e-05
-5.71174e-06
1.17833e-05
-5.60356e-06
1.16873e-05
-5.4949e-06
1.15949e-05
-5.38613e-06
1.1506e-05
-5.27762e-06
1.14207e-05
-5.16975e-06
1.13392e-05
-5.06293e-06
1.12613e-05
-4.95758e-06
1.11874e-05
-4.85417e-06
1.11174e-05
-4.75319e-06
1.10515e-05
-4.65517e-06
1.09898e-05
-4.5607e-06
1.09324e-05
-4.47043e-06
1.08795e-05
-4.38509e-06
1.08314e-05
-4.30549e-06
1.07881e-05
-4.23256e-06
1.07499e-05
-4.16742e-06
1.07172e-05
-4.11135e-06
1.069e-05
-4.0659e-06
1.06684e-05
-4.03322e-06
-4.01667e-06
1.99981e-05
-3.03616e-08
1.99935e-05
-9.31579e-08
1.99869e-05
-1.57768e-07
1.99786e-05
-2.24085e-07
1.99688e-05
-2.92359e-07
1.99574e-05
-3.62881e-07
1.99445e-05
-4.35917e-07
1.99299e-05
-5.11708e-07
1.99136e-05
-5.90472e-07
1.98955e-05
-6.72408e-07
1.98755e-05
-7.57699e-07
1.98534e-05
-8.46517e-07
1.98293e-05
-9.39019e-07
1.98028e-05
-1.03536e-06
1.9774e-05
-1.13567e-06
1.97427e-05
-1.24009e-06
1.97088e-05
-1.34873e-06
1.9672e-05
-1.4617e-06
1.96324e-05
-1.5791e-06
1.95897e-05
-1.70101e-06
1.95437e-05
-1.8275e-06
1.94944e-05
-1.95862e-06
1.94415e-05
-2.0944e-06
1.9385e-05
-2.23485e-06
1.93245e-05
-2.37995e-06
1.92601e-05
-2.52965e-06
1.91915e-05
-2.68387e-06
1.91185e-05
-2.84251e-06
1.90411e-05
-3.0054e-06
1.8959e-05
-3.17236e-06
1.88721e-05
-3.34312e-06
1.87803e-05
-3.51738e-06
1.86834e-05
-3.6948e-06
1.85814e-05
-3.87492e-06
1.84742e-05
-4.05727e-06
1.83617e-05
-4.24128e-06
1.82438e-05
-4.4263e-06
1.81207e-05
-4.61162e-06
1.79923e-05
-4.79644e-06
1.78587e-05
-4.97992e-06
1.772e-05
-5.16112e-06
1.75765e-05
-5.33907e-06
1.74283e-05
-5.51275e-06
1.72757e-05
-5.68111e-06
1.71191e-05
-5.84311e-06
1.69587e-05
-5.99773e-06
1.67951e-05
-6.14397e-06
1.66286e-05
-6.28093e-06
1.64598e-05
-6.40778e-06
1.6289e-05
-6.52381e-06
1.61168e-05
-6.62841e-06
1.59436e-05
-6.7211e-06
1.57697e-05
-6.8015e-06
1.55956e-05
-6.86926e-06
1.54219e-05
-6.92433e-06
1.52491e-05
-6.96717e-06
1.50776e-05
-6.99818e-06
1.4908e-05
-7.01781e-06
1.47402e-05
-7.02676e-06
1.45745e-05
-7.02552e-06
1.4411e-05
-7.0144e-06
1.42502e-05
-6.99391e-06
1.40922e-05
-6.96458e-06
1.39372e-05
-6.92673e-06
1.37854e-05
-6.88088e-06
1.36368e-05
-6.82775e-06
1.34914e-05
-6.76802e-06
1.33491e-05
-6.70226e-06
1.321e-05
-6.63101e-06
1.30741e-05
-6.55474e-06
1.29414e-05
-6.47393e-06
1.28119e-05
-6.38902e-06
1.26856e-05
-6.30041e-06
1.25626e-05
-6.20851e-06
1.24429e-05
-6.1137e-06
1.23264e-05
-6.01635e-06
1.22133e-05
-5.91681e-06
1.21034e-05
-5.81544e-06
1.19969e-05
-5.7126e-06
1.18938e-05
-5.60861e-06
1.17941e-05
-5.50384e-06
1.16978e-05
-5.39864e-06
1.1605e-05
-5.29336e-06
1.15158e-05
-5.1884e-06
1.14302e-05
-5.08413e-06
1.13482e-05
-4.98098e-06
1.127e-05
-4.87938e-06
1.11957e-05
-4.77979e-06
1.11252e-05
-4.68272e-06
1.10587e-05
-4.58871e-06
1.09964e-05
-4.49836e-06
1.09383e-05
-4.41233e-06
1.08845e-05
-4.33135e-06
1.08353e-05
-4.25623e-06
1.07907e-05
-4.18793e-06
1.07507e-05
-4.1275e-06
1.07156e-05
-4.07618e-06
1.0685e-05
-4.03536e-06
1.06585e-05
-4.00674e-06
-3.99261e-06
1.99985e-05
-2.88469e-08
1.99944e-05
-8.90908e-08
1.99882e-05
-1.51586e-07
1.99802e-05
-2.16091e-07
1.99706e-05
-2.82702e-07
1.99593e-05
-3.51612e-07
1.99464e-05
-4.23027e-07
1.99319e-05
-4.97152e-07
1.99156e-05
-5.7418e-07
1.98975e-05
-6.54296e-07
1.98774e-05
-7.37671e-07
1.98554e-05
-8.24468e-07
1.98312e-05
-9.14838e-07
1.98048e-05
-1.00893e-06
1.9776e-05
-1.10686e-06
1.97447e-05
-1.20878e-06
1.97107e-05
-1.31478e-06
1.9674e-05
-1.42498e-06
1.96344e-05
-1.53947e-06
1.95917e-05
-1.65832e-06
1.95458e-05
-1.7816e-06
1.94965e-05
-1.90935e-06
1.94437e-05
-2.0416e-06
1.93872e-05
-2.17837e-06
1.93269e-05
-2.31962e-06
1.92626e-05
-2.46532e-06
1.91941e-05
-2.61538e-06
1.91213e-05
-2.7697e-06
1.9044e-05
-2.92812e-06
1.89621e-05
-3.09045e-06
1.88754e-05
-3.25645e-06
1.87839e-05
-3.42583e-06
1.86873e-05
-3.59824e-06
1.85856e-05
-3.77326e-06
1.84788e-05
-3.95043e-06
1.83667e-05
-4.12919e-06
1.82494e-05
-4.30895e-06
1.81268e-05
-4.48901e-06
1.79989e-05
-4.66862e-06
1.7866e-05
-4.84696e-06
1.7728e-05
-5.02315e-06
1.75852e-05
-5.19625e-06
1.74377e-05
-5.36531e-06
1.72859e-05
-5.52932e-06
1.71301e-05
-5.68728e-06
1.69706e-05
-5.83822e-06
1.68078e-05
-5.98117e-06
1.66421e-05
-6.11527e-06
1.6474e-05
-6.2397e-06
1.6304e-05
-6.35375e-06
1.61324e-05
-6.45683e-06
1.59597e-05
-6.54844e-06
1.57865e-05
-6.62821e-06
1.56131e-05
-6.69587e-06
1.54402e-05
-6.75143e-06
1.52682e-05
-6.79519e-06
1.50975e-05
-6.8275e-06
1.49285e-05
-6.84879e-06
1.47613e-05
-6.85957e-06
1.45961e-05
-6.86032e-06
1.44332e-05
-6.85144e-06
1.42726e-05
-6.83339e-06
1.41147e-05
-6.80666e-06
1.39596e-05
-6.77164e-06
1.38076e-05
-6.72882e-06
1.36586e-05
-6.67881e-06
1.35128e-05
-6.62222e-06
1.33702e-05
-6.55962e-06
1.32307e-05
-6.49153e-06
1.30944e-05
-6.41845e-06
1.29613e-05
-6.34084e-06
1.28314e-05
-6.25914e-06
1.27048e-05
-6.17376e-06
1.25814e-05
-6.08511e-06
1.24613e-05
-5.99355e-06
1.23444e-05
-5.89947e-06
1.22308e-05
-5.80323e-06
1.21205e-05
-5.70518e-06
1.20136e-05
-5.60567e-06
1.19101e-05
-5.50506e-06
1.18099e-05
-5.40368e-06
1.17132e-05
-5.30192e-06
1.162e-05
-5.20013e-06
1.15302e-05
-5.09869e-06
1.14441e-05
-4.998e-06
1.13616e-05
-4.89849e-06
1.12828e-05
-4.80058e-06
1.12078e-05
-4.70476e-06
1.11366e-05
-4.61154e-06
1.10694e-05
-4.52145e-06
1.10061e-05
-4.43511e-06
1.09469e-05
-4.35316e-06
1.08919e-05
-4.27633e-06
1.08411e-05
-4.20544e-06
1.07946e-05
-4.14138e-06
1.07523e-05
-4.08518e-06
1.0714e-05
-4.03793e-06
1.06795e-05
-4.00086e-06
1.06481e-05
-3.97533e-06
-3.96319e-06
1.99987e-05
-2.75646e-08
1.99951e-05
-8.54445e-08
1.99893e-05
-1.45831e-07
1.99817e-05
-2.08445e-07
1.99723e-05
-2.73306e-07
1.99612e-05
-3.40528e-07
1.99484e-05
-4.10263e-07
1.9934e-05
-4.82678e-07
1.99177e-05
-5.57941e-07
1.98996e-05
-6.36216e-07
1.98796e-05
-7.17662e-07
1.98576e-05
-8.0243e-07
1.98334e-05
-8.90665e-07
1.9807e-05
-9.82502e-07
1.97782e-05
-1.07807e-06
1.97469e-05
-1.17749e-06
1.9713e-05
-1.28086e-06
1.96763e-05
-1.38829e-06
1.96367e-05
-1.49987e-06
1.9594e-05
-1.61567e-06
1.95482e-05
-1.73574e-06
1.9499e-05
-1.86014e-06
1.94463e-05
-1.98889e-06
1.93899e-05
-2.12199e-06
1.93297e-05
-2.25942e-06
1.92655e-05
-2.40113e-06
1.91972e-05
-2.54706e-06
1.91246e-05
-2.69709e-06
1.90475e-05
-2.85107e-06
1.89659e-05
-3.00881e-06
1.88795e-05
-3.17009e-06
1.87883e-05
-3.33462e-06
1.86921e-05
-3.50207e-06
1.85909e-05
-3.67204e-06
1.84845e-05
-3.84407e-06
1.8373e-05
-4.01766e-06
1.82562e-05
-4.1922e-06
1.81343e-05
-4.36706e-06
1.80072e-05
-4.54152e-06
1.7875e-05
-4.71478e-06
1.77379e-05
-4.88602e-06
1.7596e-05
-5.05435e-06
1.74495e-05
-5.21883e-06
1.72987e-05
-5.37853e-06
1.71439e-05
-5.53249e-06
1.69855e-05
-5.67976e-06
1.68237e-05
-5.81943e-06
1.66591e-05
-5.95064e-06
1.6492e-05
-6.07262e-06
1.6323e-05
-6.18467e-06
1.61523e-05
-6.2862e-06
1.59806e-05
-6.37672e-06
1.58083e-05
-6.45588e-06
1.56358e-05
-6.52345e-06
1.54638e-05
-6.57944e-06
1.52927e-05
-6.62404e-06
1.51228e-05
-6.65757e-06
1.49543e-05
-6.68037e-06
1.47877e-05
-6.6929e-06
1.46229e-05
-6.69559e-06
1.44604e-05
-6.68885e-06
1.43001e-05
-6.67313e-06
1.41423e-05
-6.6489e-06
1.39873e-05
-6.61658e-06
1.38351e-05
-6.57664e-06
1.36859e-05
-6.52963e-06
1.35398e-05
-6.47611e-06
1.33968e-05
-6.41662e-06
1.32569e-05
-6.35167e-06
1.31202e-05
-6.28176e-06
1.29867e-05
-6.20733e-06
1.28564e-05
-6.12883e-06
1.27293e-05
-6.04666e-06
1.26054e-05
-5.96123e-06
1.24848e-05
-5.87293e-06
1.23675e-05
-5.78211e-06
1.22534e-05
-5.68915e-06
1.21426e-05
-5.59441e-06
1.20352e-05
-5.49823e-06
1.19311e-05
-5.40096e-06
1.18304e-05
-5.30298e-06
1.17331e-05
-5.20463e-06
1.16392e-05
-5.1063e-06
1.15489e-05
-5.00836e-06
1.14621e-05
-4.91121e-06
1.13789e-05
-4.81529e-06
1.12994e-05
-4.72103e-06
1.12235e-05
-4.62891e-06
1.11514e-05
-4.53943e-06
1.10831e-05
-4.45315e-06
1.10187e-05
-4.37067e-06
1.09581e-05
-4.29262e-06
1.09015e-05
-4.21973e-06
1.08488e-05
-4.15276e-06
1.08e-05
-4.09257e-06
1.07549e-05
-4.04009e-06
1.07133e-05
-3.99632e-06
1.06748e-05
-3.96228e-06
1.06386e-05
-3.93918e-06
-3.9289e-06
1.99989e-05
-2.64409e-08
1.99956e-05
-8.21285e-08
1.99902e-05
-1.40456e-07
1.99829e-05
-2.01156e-07
1.99738e-05
-2.64209e-07
1.9963e-05
-3.29681e-07
1.99504e-05
-3.97681e-07
1.9936e-05
-4.68341e-07
1.99199e-05
-5.41802e-07
1.99019e-05
-6.1821e-07
1.98819e-05
-6.97707e-07
1.98599e-05
-7.80434e-07
1.98358e-05
-8.66525e-07
1.98094e-05
-9.56108e-07
1.97806e-05
-1.0493e-06
1.97494e-05
-1.14622e-06
1.97155e-05
-1.24697e-06
1.96788e-05
-1.35165e-06
1.96393e-05
-1.46032e-06
1.95967e-05
-1.57308e-06
1.95509e-05
-1.68997e-06
1.95018e-05
-1.81103e-06
1.94492e-05
-1.93628e-06
1.9393e-05
-2.06574e-06
1.93329e-05
-2.19937e-06
1.92689e-05
-2.33713e-06
1.92008e-05
-2.47895e-06
1.91284e-05
-2.62472e-06
1.90517e-05
-2.77429e-06
1.89704e-05
-2.92749e-06
1.88844e-05
-3.0841e-06
1.87936e-05
-3.24383e-06
1.86979e-05
-3.40637e-06
1.85972e-05
-3.57134e-06
1.84914e-05
-3.7383e-06
1.83805e-05
-3.90677e-06
1.82645e-05
-4.07618e-06
1.81433e-05
-4.24591e-06
1.80171e-05
-4.41528e-06
1.78859e-05
-4.58354e-06
1.77497e-05
-4.7499e-06
1.76089e-05
-4.9135e-06
1.74635e-05
-5.07348e-06
1.73139e-05
-5.22891e-06
1.71603e-05
-5.3789e-06
1.70031e-05
-5.52252e-06
1.68426e-05
-5.65892e-06
1.66792e-05
-5.78726e-06
1.65133e-05
-5.90678e-06
1.63455e-05
-6.0168e-06
1.6176e-05
-6.11675e-06
1.60054e-05
-6.20615e-06
1.58342e-05
-6.28467e-06
1.56629e-05
-6.35211e-06
1.54919e-05
-6.40843e-06
1.53216e-05
-6.45378e-06
1.51525e-05
-6.4884e-06
1.49847e-05
-6.51261e-06
1.48186e-05
-6.52677e-06
1.46543e-05
-6.53131e-06
1.44921e-05
-6.52662e-06
1.43321e-05
-6.51315e-06
1.41745e-05
-6.49132e-06
1.40195e-05
-6.46159e-06
1.38673e-05
-6.42441e-06
1.3718e-05
-6.38028e-06
1.35716e-05
-6.32974e-06
1.34283e-05
-6.27329e-06
1.3288e-05
-6.21144e-06
1.31509e-05
-6.14464e-06
1.3017e-05
-6.07336e-06
1.28862e-05
-5.99803e-06
1.27586e-05
-5.91906e-06
1.26342e-05
-5.83684e-06
1.2513e-05
-5.75177e-06
1.23951e-05
-5.6642e-06
1.22804e-05
-5.5745e-06
1.21691e-05
-5.48304e-06
1.2061e-05
-5.39017e-06
1.19563e-05
-5.29625e-06
1.1855e-05
-5.20162e-06
1.1757e-05
-5.10667e-06
1.16624e-05
-5.01176e-06
1.15714e-05
-4.91727e-06
1.14838e-05
-4.82363e-06
1.13997e-05
-4.73124e-06
1.13192e-05
-4.64055e-06
1.12424e-05
-4.55204e-06
1.11692e-05
-4.46621e-06
1.10996e-05
-4.38362e-06
1.10338e-05
-4.30483e-06
1.09717e-05
-4.23049e-06
1.09132e-05
-4.16127e-06
1.08584e-05
-4.09792e-06
1.0807e-05
-4.04124e-06
1.0759e-05
-3.99207e-06
1.0714e-05
-3.95128e-06
1.06714e-05
-3.91975e-06
1.06308e-05
-3.89851e-06
-3.88975e-06
1.9999e-05
-2.54275e-08
1.99959e-05
-7.90715e-08
1.99909e-05
-1.35409e-07
1.99839e-05
-1.94203e-07
1.99751e-05
-2.55421e-07
1.99646e-05
-3.191e-07
1.99522e-05
-3.85319e-07
1.9938e-05
-4.54182e-07
1.9922e-05
-5.25806e-07
1.99042e-05
-6.00318e-07
1.98843e-05
-6.77846e-07
1.98624e-05
-7.58515e-07
1.98383e-05
-8.42451e-07
1.9812e-05
-9.29773e-07
1.97833e-05
-1.02059e-06
1.9752e-05
-1.11502e-06
1.97182e-05
-1.21315e-06
1.96816e-05
-1.31507e-06
1.96422e-05
-1.42086e-06
1.95997e-05
-1.53058e-06
1.9554e-05
-1.6443e-06
1.9505e-05
-1.76204e-06
1.94526e-05
-1.88383e-06
1.93965e-05
-2.00966e-06
1.93366e-05
-2.13952e-06
1.92729e-05
-2.27336e-06
1.9205e-05
-2.4111e-06
1.91329e-05
-2.55265e-06
1.90565e-05
-2.69786e-06
1.89756e-05
-2.84656e-06
1.889e-05
-2.99853e-06
1.87997e-05
-3.15352e-06
1.87046e-05
-3.31121e-06
1.86045e-05
-3.47125e-06
1.84994e-05
-3.63321e-06
1.83892e-05
-3.79664e-06
1.8274e-05
-3.96098e-06
1.81538e-05
-4.12566e-06
1.80285e-05
-4.29002e-06
1.78983e-05
-4.45335e-06
1.77633e-05
-4.61489e-06
1.76237e-05
-4.77385e-06
1.74796e-05
-4.92937e-06
1.73312e-05
-5.08059e-06
1.7179e-05
-5.22664e-06
1.70231e-05
-5.36666e-06
1.6864e-05
-5.4998e-06
1.6702e-05
-5.62526e-06
1.65375e-05
-5.74231e-06
1.6371e-05
-5.85029e-06
1.62029e-05
-5.94863e-06
1.60337e-05
-6.03689e-06
1.58637e-05
-6.11473e-06
1.56936e-05
-6.18195e-06
1.55236e-05
-6.2385e-06
1.53543e-05
-6.28448e-06
1.5186e-05
-6.32007e-06
1.50189e-05
-6.34554e-06
1.48534e-05
-6.36124e-06
1.46896e-05
-6.36752e-06
1.45278e-05
-6.36479e-06
1.43681e-05
-6.35346e-06
1.42107e-05
-6.33395e-06
1.40558e-05
-6.3067e-06
1.39036e-05
-6.27217e-06
1.37541e-05
-6.23083e-06
1.36075e-05
-6.18317e-06
1.34639e-05
-6.12969e-06
1.33234e-05
-6.07085e-06
1.31858e-05
-6.00712e-06
1.30514e-05
-5.93895e-06
1.29201e-05
-5.86675e-06
1.2792e-05
-5.79093e-06
1.26671e-05
-5.7119e-06
1.25453e-05
-5.63002e-06
1.24268e-05
-5.54568e-06
1.23115e-05
-5.45922e-06
1.21995e-05
-5.37103e-06
1.20908e-05
-5.28144e-06
1.19853e-05
-5.19082e-06
1.18832e-05
-5.09953e-06
1.17845e-05
-5.00793e-06
1.16891e-05
-4.9164e-06
1.15972e-05
-4.82533e-06
1.15087e-05
-4.73513e-06
1.14237e-05
-4.6462e-06
1.13421e-05
-4.55901e-06
1.12641e-05
-4.47402e-06
1.11896e-05
-4.39172e-06
1.11187e-05
-4.31266e-06
1.10512e-05
-4.2374e-06
1.09873e-05
-4.16656e-06
1.09268e-05
-4.10079e-06
1.08697e-05
-4.04078e-06
1.08157e-05
-3.98727e-06
1.07647e-05
-3.94103e-06
1.07162e-05
-3.90282e-06
1.06699e-05
-3.87343e-06
1.0625e-05
-3.85367e-06
-3.84585e-06
1.99991e-05
-2.44937e-08
1.99962e-05
-7.62181e-08
1.99914e-05
-1.30639e-07
1.99848e-05
-1.87554e-07
1.99763e-05
-2.46931e-07
1.9966e-05
-3.08794e-07
1.99539e-05
-3.732e-07
1.99399e-05
-4.40232e-07
1.99241e-05
-5.09988e-07
1.99064e-05
-5.82577e-07
1.98866e-05
-6.58112e-07
1.98648e-05
-7.36708e-07
1.98409e-05
-8.18477e-07
1.98146e-05
-9.03529e-07
1.9786e-05
-9.91971e-07
1.97549e-05
-1.0839e-06
1.97211e-05
-1.17941e-06
1.96847e-05
-1.27859e-06
1.96453e-05
-1.3815e-06
1.96029e-05
-1.48821e-06
1.95574e-05
-1.59876e-06
1.95086e-05
-1.71321e-06
1.94563e-05
-1.83155e-06
1.94004e-05
-1.95378e-06
1.93408e-05
-2.0799e-06
1.92773e-05
-2.20985e-06
1.92097e-05
-2.34356e-06
1.9138e-05
-2.48093e-06
1.9062e-05
-2.62182e-06
1.89815e-05
-2.76607e-06
1.88964e-05
-2.91347e-06
1.88067e-05
-3.06378e-06
1.87121e-05
-3.21668e-06
1.86127e-05
-3.37185e-06
1.85084e-05
-3.52889e-06
1.83991e-05
-3.68734e-06
1.82848e-05
-3.84669e-06
1.81656e-05
-4.0064e-06
1.80414e-05
-4.16582e-06
1.79123e-05
-4.3243e-06
1.77786e-05
-4.48111e-06
1.76402e-05
-4.63548e-06
1.74974e-05
-4.78661e-06
1.73505e-05
-4.93368e-06
1.71997e-05
-5.07585e-06
1.70453e-05
-5.21228e-06
1.68877e-05
-5.34218e-06
1.67272e-05
-5.46477e-06
1.65643e-05
-5.57934e-06
1.63992e-05
-5.68526e-06
1.62326e-05
-5.78197e-06
1.60647e-05
-5.86904e-06
1.58961e-05
-5.94613e-06
1.57272e-05
-6.01305e-06
1.55584e-05
-6.06972e-06
1.53901e-05
-6.11619e-06
1.52227e-05
-6.15262e-06
1.50564e-05
-6.17924e-06
1.48915e-05
-6.19634e-06
1.47282e-05
-6.20427e-06
1.45668e-05
-6.20339e-06
1.44075e-05
-6.1941e-06
1.42503e-05
-6.17681e-06
1.40956e-05
-6.15195e-06
1.39434e-05
-6.11996e-06
1.37938e-05
-6.0813e-06
1.36471e-05
-6.03643e-06
1.35033e-05
-5.98583e-06
1.33623e-05
-5.92994e-06
1.32244e-05
-5.86921e-06
1.30896e-05
-5.80409e-06
1.29578e-05
-5.73497e-06
1.28291e-05
-5.66227e-06
1.27036e-05
-5.58638e-06
1.25813e-05
-5.50767e-06
1.24621e-05
-5.42651e-06
1.23461e-05
-5.34327e-06
1.22334e-05
-5.2583e-06
1.21239e-05
-5.17197e-06
1.20177e-05
-5.08462e-06
1.19148e-05
-4.99662e-06
1.18152e-05
-4.90834e-06
1.1719e-05
-4.82015e-06
1.16261e-05
-4.73244e-06
1.15366e-05
-4.64561e-06
1.14504e-05
-4.56008e-06
1.13677e-05
-4.47629e-06
1.12884e-05
-4.39471e-06
1.12125e-05
-4.31582e-06
1.114e-05
-4.24015e-06
1.10709e-05
-4.16825e-06
1.1005e-05
-4.10071e-06
1.09424e-05
-4.03814e-06
1.08828e-05
-3.98121e-06
1.08261e-05
-3.93058e-06
1.0772e-05
-3.88696e-06
1.07202e-05
-3.85104e-06
1.06703e-05
-3.82347e-06
1.06216e-05
-3.80498e-06
-3.79752e-06
1.99991e-05
-2.36199e-08
1.99964e-05
-7.35268e-08
1.99919e-05
-1.26102e-07
1.99855e-05
-1.81176e-07
1.99773e-05
-2.38722e-07
1.99673e-05
-2.98759e-07
1.99554e-05
-3.61333e-07
1.99417e-05
-4.26509e-07
1.99261e-05
-4.94373e-07
1.99085e-05
-5.65016e-07
1.98889e-05
-6.38538e-07
1.98673e-05
-7.15043e-07
1.98434e-05
-7.94633e-07
1.98173e-05
-8.77409e-07
1.97888e-05
-9.63468e-07
1.97578e-05
-1.0529e-06
1.97242e-05
-1.1458e-06
1.96878e-05
-1.24223e-06
1.96486e-05
-1.34228e-06
1.96064e-05
-1.44598e-06
1.9561e-05
-1.5534e-06
1.95124e-05
-1.66456e-06
1.94603e-05
-1.77948e-06
1.94047e-05
-1.89815e-06
1.93453e-05
-2.02056e-06
1.92822e-05
-2.14665e-06
1.9215e-05
-2.27637e-06
1.91436e-05
-2.4096e-06
1.9068e-05
-2.54622e-06
1.8988e-05
-2.68608e-06
1.89035e-05
-2.82897e-06
1.88144e-05
-2.97465e-06
1.87206e-05
-3.12284e-06
1.86219e-05
-3.27321e-06
1.85184e-05
-3.42539e-06
1.84101e-05
-3.57895e-06
1.82968e-05
-3.7334e-06
1.81786e-05
-3.88821e-06
1.80555e-05
-4.04278e-06
1.79277e-05
-4.19649e-06
1.77952e-05
-4.34864e-06
1.76583e-05
-4.49849e-06
1.75169e-05
-4.6453e-06
1.73715e-05
-4.78826e-06
1.72223e-05
-4.92658e-06
1.70694e-05
-5.05947e-06
1.69134e-05
-5.18615e-06
1.67545e-05
-5.30587e-06
1.65931e-05
-5.41796e-06
1.64297e-05
-5.52179e-06
1.62645e-05
-5.61683e-06
1.60981e-05
-5.70266e-06
1.5931e-05
-5.77893e-06
1.57634e-05
-5.84546e-06
1.55958e-05
-5.90213e-06
1.54286e-05
-5.94898e-06
1.52621e-05
-5.98613e-06
1.50966e-05
-6.01376e-06
1.49324e-05
-6.03215e-06
1.47697e-05
-6.04159e-06
1.46088e-05
-6.04246e-06
1.44498e-05
-6.0351e-06
1.42929e-05
-6.01994e-06
1.41383e-05
-5.99737e-06
1.39862e-05
-5.96782e-06
1.38367e-05
-5.93174e-06
1.36898e-05
-5.88957e-06
1.35457e-05
-5.84175e-06
1.34045e-05
-5.78873e-06
1.32662e-05
-5.73094e-06
1.31309e-05
-5.66879e-06
1.29987e-05
-5.6027e-06
1.28695e-05
-5.53307e-06
1.27433e-05
-5.46027e-06
1.26204e-05
-5.38468e-06
1.25005e-05
-5.30667e-06
1.23839e-05
-5.2266e-06
1.22704e-05
-5.14483e-06
1.21601e-05
-5.06171e-06
1.20531e-05
-4.97759e-06
1.19493e-05
-4.89285e-06
1.18488e-05
-4.80783e-06
1.17516e-05
-4.72292e-06
1.16577e-05
-4.63851e-06
1.1567e-05
-4.55499e-06
1.14797e-05
-4.47277e-06
1.13957e-05
-4.39229e-06
1.1315e-05
-4.31401e-06
1.12376e-05
-4.23841e-06
1.11635e-05
-4.16598e-06
1.10925e-05
-4.09727e-06
1.10246e-05
-4.03283e-06
1.09597e-05
-3.97326e-06
1.08977e-05
-3.91916e-06
1.08383e-05
-3.87117e-06
1.07812e-05
-3.82991e-06
1.07262e-05
-3.79602e-06
1.06728e-05
-3.77008e-06
1.06205e-05
-3.75269e-06
-3.74504e-06
1.99992e-05
-2.27927e-08
1.99966e-05
-7.09668e-08
1.99923e-05
-1.21761e-07
1.99861e-05
-1.75034e-07
1.99782e-05
-2.3077e-07
1.99684e-05
-2.88984e-07
1.99568e-05
-3.49716e-07
1.99433e-05
-4.13023e-07
1.99279e-05
-4.78975e-07
1.99105e-05
-5.47654e-07
1.98912e-05
-6.19148e-07
1.98697e-05
-6.93549e-07
1.9846e-05
-7.70949e-07
1.982e-05
-8.5144e-07
1.97917e-05
-9.35113e-07
1.97608e-05
-1.02205e-06
1.97273e-05
-1.11234e-06
1.96912e-05
-1.20604e-06
1.96521e-05
-1.30323e-06
1.96101e-05
-1.40395e-06
1.95649e-05
-1.50824e-06
1.95165e-05
-1.61615e-06
1.94647e-05
-1.72767e-06
1.94093e-05
-1.8428e-06
1.93503e-05
-1.96153e-06
1.92875e-05
-2.08381e-06
1.92207e-05
-2.20957e-06
1.91498e-05
-2.33872e-06
1.90747e-05
-2.47112e-06
1.89952e-05
-2.60664e-06
1.89114e-05
-2.74508e-06
1.88229e-05
-2.8862e-06
1.87298e-05
-3.02974e-06
1.8632e-05
-3.1754e-06
1.85294e-05
-3.3228e-06
1.8422e-05
-3.47154e-06
1.83097e-05
-3.62116e-06
1.81927e-05
-3.77116e-06
1.80709e-05
-3.92096e-06
1.79443e-05
-4.06997e-06
1.78132e-05
-4.21753e-06
1.76777e-05
-4.36295e-06
1.75379e-05
-4.50549e-06
1.7394e-05
-4.6444e-06
1.72464e-05
-4.77892e-06
1.70952e-05
-4.90829e-06
1.69408e-05
-5.03176e-06
1.67836e-05
-5.14863e-06
1.66238e-05
-5.25822e-06
1.6462e-05
-5.35994e-06
1.62984e-05
-5.45328e-06
1.61336e-05
-5.5378e-06
1.59678e-05
-5.61319e-06
1.58016e-05
-5.67922e-06
1.56352e-05
-5.73579e-06
1.54692e-05
-5.7829e-06
1.53037e-05
-5.82063e-06
1.51391e-05
-5.84915e-06
1.49756e-05
-5.8687e-06
1.48136e-05
-5.87955e-06
1.46532e-05
-5.88204e-06
1.44946e-05
-5.87652e-06
1.4338e-05
-5.86337e-06
1.41837e-05
-5.84299e-06
1.40316e-05
-5.81579e-06
1.38821e-05
-5.78218e-06
1.37351e-05
-5.74261e-06
1.35908e-05
-5.69749e-06
1.34494e-05
-5.64725e-06
1.33107e-05
-5.59231e-06
1.3175e-05
-5.53308e-06
1.30423e-05
-5.46996e-06
1.29125e-05
-5.40333e-06
1.27859e-05
-5.33357e-06
1.26622e-05
-5.26106e-06
1.25417e-05
-5.18615e-06
1.24243e-05
-5.10921e-06
1.23101e-05
-5.03058e-06
1.2199e-05
-4.95063e-06
1.20911e-05
-4.8697e-06
1.19864e-05
-4.78815e-06
1.18849e-05
-4.70635e-06
1.17867e-05
-4.62467e-06
1.16916e-05
-4.54348e-06
1.15998e-05
-4.46319e-06
1.15113e-05
-4.3842e-06
1.14259e-05
-4.30694e-06
1.13438e-05
-4.23185e-06
1.12647e-05
-4.1594e-06
1.11888e-05
-4.09008e-06
1.1116e-05
-4.02439e-06
1.1046e-05
-3.96288e-06
1.09789e-05
-3.9061e-06
1.09143e-05
-3.85463e-06
1.08522e-05
-3.80904e-06
1.07922e-05
-3.76994e-06
1.07341e-05
-3.73789e-06
1.06774e-05
-3.7134e-06
1.06217e-05
-3.69702e-06
-3.68892e-06
1.99992e-05
-2.20026e-08
1.99968e-05
-6.85146e-08
1.99926e-05
-1.17587e-07
1.99867e-05
-1.69102e-07
1.99789e-05
-2.23051e-07
1.99694e-05
-2.79454e-07
1.9958e-05
-3.38345e-07
1.99448e-05
-3.99775e-07
1.99296e-05
-4.63806e-07
1.99125e-05
-5.30509e-07
1.98933e-05
-5.99962e-07
1.9872e-05
-6.72247e-07
1.98485e-05
-7.47449e-07
1.98227e-05
-8.25652e-07
1.97945e-05
-9.06937e-07
1.97638e-05
-9.91382e-07
1.97306e-05
-1.07906e-06
1.96946e-05
-1.17004e-06
1.96557e-05
-1.26438e-06
1.96139e-05
-1.36213e-06
1.9569e-05
-1.46332e-06
1.95208e-05
-1.56799e-06
1.94693e-05
-1.67614e-06
1.94143e-05
-1.78778e-06
1.93556e-05
-1.90286e-06
1.92932e-05
-2.02137e-06
1.92268e-05
-2.14322e-06
1.91564e-05
-2.26832e-06
1.90819e-05
-2.39657e-06
1.9003e-05
-2.5278e-06
1.89198e-05
-2.66185e-06
1.88321e-05
-2.79848e-06
1.87398e-05
-2.93745e-06
1.86428e-05
-3.07845e-06
1.85412e-05
-3.22115e-06
1.84348e-05
-3.36516e-06
1.83237e-05
-3.51003e-06
1.82078e-05
-3.6553e-06
1.80873e-05
-3.80041e-06
1.79621e-05
-3.94481e-06
1.78324e-05
-4.08785e-06
1.76984e-05
-4.22889e-06
1.75601e-05
-4.36723e-06
1.74178e-05
-4.50214e-06
1.72718e-05
-4.6329e-06
1.71223e-05
-4.75879e-06
1.69696e-05
-4.87907e-06
1.68141e-05
-4.99308e-06
1.6656e-05
-5.10017e-06
1.64959e-05
-5.19976e-06
1.63339e-05
-5.29134e-06
1.61706e-05
-5.37451e-06
1.60064e-05
-5.44893e-06
1.58415e-05
-5.51438e-06
1.56765e-05
-5.57074e-06
1.55115e-05
-5.61798e-06
1.53471e-05
-5.65618e-06
1.51834e-05
-5.68547e-06
1.50208e-05
-5.70605e-06
1.48594e-05
-5.71819e-06
1.46996e-05
-5.7222e-06
1.45414e-05
-5.7184e-06
1.43852e-05
-5.70716e-06
1.42311e-05
-5.68886e-06
1.40792e-05
-5.66389e-06
1.39297e-05
-5.63267e-06
1.37826e-05
-5.59559e-06
1.36382e-05
-5.55308e-06
1.34965e-05
-5.50554e-06
1.33576e-05
-5.45337e-06
1.32215e-05
-5.39698e-06
1.30883e-05
-5.33675e-06
1.2958e-05
-5.27307e-06
1.28307e-05
-5.20629e-06
1.27065e-05
-5.1368e-06
1.25853e-05
-5.06494e-06
1.24671e-05
-4.99107e-06
1.23521e-05
-4.91554e-06
1.22401e-05
-4.8387e-06
1.21314e-05
-4.7609e-06
1.20257e-05
-4.6825e-06
1.19232e-05
-4.60386e-06
1.18239e-05
-4.52533e-06
1.17277e-05
-4.44731e-06
1.16347e-05
-4.37017e-06
1.15448e-05
-4.29432e-06
1.1458e-05
-4.22017e-06
1.13743e-05
-4.14816e-06
1.12937e-05
-4.07875e-06
1.1216e-05
-4.01239e-06
1.11412e-05
-3.94958e-06
1.10691e-05
-3.89083e-06
1.09997e-05
-3.83667e-06
1.09327e-05
-3.78763e-06
1.08679e-05
-3.74426e-06
1.08051e-05
-3.70712e-06
1.07439e-05
-3.67672e-06
1.06841e-05
-3.65356e-06
1.06252e-05
-3.63813e-06
-3.62984e-06
1.99992e-05
-2.12429e-08
1.99969e-05
-6.61526e-08
1.99928e-05
-1.13556e-07
1.99871e-05
-1.63352e-07
1.99796e-05
-2.15543e-07
1.99703e-05
-2.70151e-07
1.99592e-05
-3.27209e-07
1.99461e-05
-3.86763e-07
1.99312e-05
-4.48868e-07
1.99143e-05
-5.13588e-07
1.98953e-05
-5.80993e-07
1.98742e-05
-6.51157e-07
1.98509e-05
-7.24157e-07
1.98253e-05
-8.00067e-07
1.97974e-05
-8.78963e-07
1.97669e-05
-9.60917e-07
1.97338e-05
-1.046e-06
1.96981e-05
-1.13426e-06
1.96594e-05
-1.22577e-06
1.96179e-05
-1.32056e-06
1.95732e-05
-1.41868e-06
1.95254e-05
-1.52013e-06
1.94742e-05
-1.62494e-06
1.94195e-05
-1.7331e-06
1.93612e-05
-1.84459e-06
1.92992e-05
-1.95936e-06
1.92333e-05
-2.07734e-06
1.91635e-05
-2.19846e-06
1.90895e-05
-2.3226e-06
1.90113e-05
-2.44961e-06
1.89288e-05
-2.57932e-06
1.88419e-05
-2.71153e-06
1.87504e-05
-2.846e-06
1.86544e-05
-2.98243e-06
1.85537e-05
-3.1205e-06
1.84484e-05
-3.25985e-06
1.83385e-05
-3.40006e-06
1.82238e-05
-3.54067e-06
1.81046e-05
-3.68118e-06
1.79808e-05
-3.82103e-06
1.78526e-05
-3.95964e-06
1.77201e-05
-4.09637e-06
1.75834e-05
-4.23055e-06
1.74428e-05
-4.36152e-06
1.72984e-05
-4.48856e-06
1.71507e-05
-4.61099e-06
1.69997e-05
-4.72811e-06
1.68459e-05
-4.83926e-06
1.66895e-05
-4.94383e-06
1.6531e-05
-5.04126e-06
1.63707e-05
-5.13105e-06
1.6209e-05
-5.21279e-06
1.60463e-05
-5.28617e-06
1.58828e-05
-5.35094e-06
1.57191e-05
-5.40699e-06
1.55554e-05
-5.45426e-06
1.5392e-05
-5.49281e-06
1.52293e-05
-5.52274e-06
1.50674e-05
-5.54424e-06
1.49068e-05
-5.55756e-06
1.47476e-05
-5.56296e-06
1.45899e-05
-5.56077e-06
1.44341e-05
-5.55133e-06
1.42802e-05
-5.535e-06
1.41285e-05
-5.51217e-06
1.39791e-05
-5.48322e-06
1.3832e-05
-5.44855e-06
1.36875e-05
-5.40855e-06
1.35456e-05
-5.36361e-06
1.34063e-05
-5.31414e-06
1.32699e-05
-5.26051e-06
1.31362e-05
-5.20311e-06
1.30055e-05
-5.14229e-06
1.28776e-05
-5.07844e-06
1.27527e-05
-5.0119e-06
1.26308e-05
-4.94303e-06
1.25119e-05
-4.87218e-06
1.23961e-05
-4.79969e-06
1.22833e-05
-4.72591e-06
1.21736e-05
-4.65119e-06
1.20669e-05
-4.57587e-06
1.19634e-05
-4.50032e-06
1.1863e-05
-4.42489e-06
1.17656e-05
-4.34995e-06
1.16713e-05
-4.27588e-06
1.15801e-05
-4.20308e-06
1.14919e-05
-4.13195e-06
1.14066e-05
-4.06292e-06
1.13243e-05