/*--------------------------------*- C++ -*----------------------------------*\
  =========                 |
  \\      /  F ield         | OpenFOAM: The Open Source CFD Toolbox
   \\    /   O peration     | Website:  https://openfoam.org
    \\  /    A nd           | Version:  11
     \\/     M anipulation  |
\*---------------------------------------------------------------------------*/
FoamFile
{
    format      ascii;
    class       volScalarField;
    location    "260";
    object      k;
}
// * * * * * * * * * * * * * * * * * * * * * * * * * * * * * * * * * * * * * //

dimensions      [0 2 -2 0 0 0 0];

internalField   nonuniform List<scalar> 
10000
(
0.000939678
0.000835684
0.000745826
0.000667933
0.000600198
0.000541111
0.000489407
0.000444024
0.000404067
0.000368782
0.000337531
0.000309772
0.000285045
0.000262956
0.000243171
0.000225402
0.000209401
0.000194957
0.000181884
0.000170025
0.000159242
0.000149414
0.000140438
0.000132221
0.000124686
0.00011776
0.000111385
0.000105504
0.000100072
9.50458e-05
9.0389e-05
8.60689e-05
8.20569e-05
7.83276e-05
7.48585e-05
7.163e-05
6.86244e-05
6.58266e-05
6.32229e-05
6.08013e-05
5.85513e-05
5.64634e-05
5.45294e-05
5.27416e-05
5.10932e-05
4.95778e-05
4.81894e-05
4.69221e-05
4.57704e-05
4.47285e-05
4.3791e-05
4.2952e-05
4.22057e-05
4.15463e-05
4.09678e-05
4.04643e-05
4.00301e-05
3.96598e-05
3.93479e-05
3.9089e-05
3.8878e-05
3.87097e-05
3.85795e-05
3.84829e-05
3.84158e-05
3.83746e-05
3.8356e-05
3.83568e-05
3.8374e-05
3.84058e-05
3.84495e-05
3.85032e-05
3.8565e-05
3.86332e-05
3.87064e-05
3.87833e-05
3.88627e-05
3.89436e-05
3.9025e-05
3.91062e-05
3.91865e-05
3.92653e-05
3.9342e-05
3.94162e-05
3.94874e-05
3.95553e-05
3.96196e-05
3.96801e-05
3.97364e-05
3.97885e-05
3.98361e-05
3.9879e-05
3.99172e-05
3.99505e-05
3.99789e-05
4.00024e-05
4.00208e-05
4.00343e-05
4.00428e-05
4.00464e-05
0.000939678
0.000835685
0.000745827
0.000667934
0.000600199
0.000541113
0.000489409
0.000444025
0.000404068
0.000368784
0.000337533
0.000309774
0.000285046
0.000262958
0.000243173
0.000225404
0.000209403
0.000194958
0.000181886
0.000170027
0.000159244
0.000149416
0.000140439
0.000132223
0.000124687
0.000117762
0.000111386
0.000105506
0.000100074
9.50477e-05
9.0391e-05
8.60711e-05
8.20592e-05
7.83299e-05
7.4861e-05
7.16325e-05
6.86271e-05
6.58293e-05
6.32257e-05
6.08042e-05
5.85543e-05
5.64666e-05
5.45326e-05
5.27449e-05
5.10966e-05
4.95812e-05
4.81927e-05
4.69255e-05
4.57737e-05
4.47318e-05
4.37942e-05
4.29551e-05
4.22088e-05
4.15494e-05
4.09709e-05
4.04675e-05
4.00335e-05
3.96633e-05
3.93513e-05
3.90922e-05
3.88808e-05
3.87121e-05
3.85815e-05
3.84845e-05
3.84172e-05
3.83758e-05
3.83571e-05
3.83578e-05
3.83748e-05
3.84066e-05
3.84503e-05
3.85039e-05
3.85656e-05
3.86338e-05
3.8707e-05
3.87838e-05
3.88631e-05
3.8944e-05
3.90254e-05
3.91066e-05
3.91868e-05
3.92656e-05
3.93423e-05
3.94164e-05
3.94876e-05
3.95555e-05
3.96198e-05
3.96802e-05
3.97366e-05
3.97886e-05
3.98362e-05
3.98791e-05
3.99173e-05
3.99507e-05
3.99791e-05
4.00025e-05
4.00209e-05
4.00344e-05
4.00429e-05
4.00465e-05
0.000939678
0.000835686
0.000745828
0.000667936
0.000600202
0.000541115
0.000489411
0.000444028
0.000404071
0.000368787
0.000337536
0.000309777
0.000285049
0.000262961
0.000243176
0.000225407
0.000209406
0.000194961
0.000181889
0.00017003
0.000159246
0.000149419
0.000140442
0.000132226
0.00012469
0.000117765
0.000111389
0.000105509
0.000100077
9.5051e-05
9.03943e-05
8.60744e-05
8.20626e-05
7.83334e-05
7.48646e-05
7.16362e-05
6.86308e-05
6.58332e-05
6.32296e-05
6.08082e-05
5.85583e-05
5.64706e-05
5.45366e-05
5.27489e-05
5.11005e-05
4.9585e-05
4.81964e-05
4.6929e-05
4.57771e-05
4.4735e-05
4.37972e-05
4.29579e-05
4.22114e-05
4.15517e-05
4.09731e-05
4.04696e-05
4.00355e-05
3.96651e-05
3.9353e-05
3.90936e-05
3.88819e-05
3.87129e-05
3.8582e-05
3.84847e-05
3.84172e-05
3.83757e-05
3.83568e-05
3.83574e-05
3.83744e-05
3.8406e-05
3.84497e-05
3.85033e-05
3.8565e-05
3.86332e-05
3.87063e-05
3.87832e-05
3.88625e-05
3.89434e-05
3.90248e-05
3.9106e-05
3.91863e-05
3.92651e-05
3.93418e-05
3.9416e-05
3.94872e-05
3.95552e-05
3.96195e-05
3.968e-05
3.97364e-05
3.97885e-05
3.98361e-05
3.98791e-05
3.99173e-05
3.99507e-05
3.99792e-05
4.00026e-05
4.00211e-05
4.00346e-05
4.00432e-05
4.00468e-05
0.000939679
0.000835687
0.00074583
0.000667938
0.000600205
0.000541119
0.000489415
0.000444032
0.000404075
0.000368791
0.00033754
0.000309781
0.000285054
0.000262965
0.00024318
0.000225411
0.00020941
0.000194966
0.000181893
0.000170034
0.000159251
0.000149423
0.000140446
0.00013223
0.000124694
0.000117769
0.000111394
0.000105514
0.000100081
9.50555e-05
9.0399e-05
8.60792e-05
8.20674e-05
7.83383e-05
7.48695e-05
7.16412e-05
6.8636e-05
6.58383e-05
6.32348e-05
6.08134e-05
5.85635e-05
5.64758e-05
5.45418e-05
5.27539e-05
5.11054e-05
4.95897e-05
4.82009e-05
4.69333e-05
4.57811e-05
4.47387e-05
4.38005e-05
4.29608e-05
4.22139e-05
4.15539e-05
4.0975e-05
4.04712e-05
4.00368e-05
3.96662e-05
3.93537e-05
3.9094e-05
3.8882e-05
3.87126e-05
3.85814e-05
3.84839e-05
3.84161e-05
3.83744e-05
3.83554e-05
3.83559e-05
3.83728e-05
3.84045e-05
3.84481e-05
3.85017e-05
3.85634e-05
3.86316e-05
3.87048e-05
3.87817e-05
3.88611e-05
3.8942e-05
3.90235e-05
3.91048e-05
3.91851e-05
3.9264e-05
3.93408e-05
3.9415e-05
3.94864e-05
3.95544e-05
3.96188e-05
3.96794e-05
3.97358e-05
3.9788e-05
3.98357e-05
3.98788e-05
3.99172e-05
3.99507e-05
3.99792e-05
4.00028e-05
4.00214e-05
4.00349e-05
4.00436e-05
4.00472e-05
0.000939679
0.000835688
0.000745832
0.000667941
0.000600208
0.000541122
0.000489419
0.000444036
0.00040408
0.000368796
0.000337545
0.000309786
0.000285059
0.00026297
0.000243185
0.000225416
0.000209416
0.000194971
0.000181899
0.00017004
0.000159256
0.000149428
0.000140452
0.000132236
0.0001247
0.000117775
0.0001114
0.000105519
0.000100087
9.50615e-05
9.0405e-05
8.60854e-05
8.20737e-05
7.83448e-05
7.48761e-05
7.16478e-05
6.86426e-05
6.58451e-05
6.32416e-05
6.08202e-05
5.85703e-05
5.64825e-05
5.45483e-05
5.27603e-05
5.11116e-05
4.95956e-05
4.82066e-05
4.69385e-05
4.57859e-05
4.47431e-05
4.38044e-05
4.29643e-05
4.22168e-05
4.15563e-05
4.09769e-05
4.04727e-05
4.00379e-05
3.96668e-05
3.93539e-05
3.90938e-05
3.88813e-05
3.87116e-05
3.858e-05
3.84823e-05
3.84143e-05
3.83724e-05
3.83532e-05
3.83536e-05
3.83704e-05
3.8402e-05
3.84456e-05
3.84992e-05
3.8561e-05
3.86292e-05
3.87024e-05
3.87794e-05
3.88589e-05
3.89399e-05
3.90215e-05
3.91029e-05
3.91834e-05
3.92623e-05
3.93392e-05
3.94136e-05
3.94851e-05
3.95532e-05
3.96178e-05
3.96785e-05
3.97351e-05
3.97874e-05
3.98352e-05
3.98785e-05
3.9917e-05
3.99506e-05
3.99793e-05
4.0003e-05
4.00217e-05
4.00353e-05
4.0044e-05
4.00477e-05
0.000939679
0.000835689
0.000745833
0.000667944
0.000600211
0.000541126
0.000489424
0.000444042
0.000404086
0.000368801
0.000337551
0.000309792
0.000285065
0.000262977
0.000243192
0.000225423
0.000209422
0.000194977
0.000181905
0.000170046
0.000159263
0.000149435
0.000140459
0.000132242
0.000124707
0.000117782
0.000111407
0.000105527
0.000100095
9.50689e-05
9.04125e-05
8.6093e-05
8.20815e-05
7.83526e-05
7.48841e-05
7.16559e-05
6.86508e-05
6.58533e-05
6.32499e-05
6.08285e-05
5.85785e-05
5.64906e-05
5.45563e-05
5.27681e-05
5.1119e-05
4.96028e-05
4.82133e-05
4.69448e-05
4.57916e-05
4.47482e-05
4.3809e-05
4.29682e-05
4.22201e-05
4.1559e-05
4.09789e-05
4.04741e-05
4.00387e-05
3.96671e-05
3.93536e-05
3.9093e-05
3.88801e-05
3.871e-05
3.8578e-05
3.84799e-05
3.84116e-05
3.83695e-05
3.83502e-05
3.83505e-05
3.83672e-05
3.83988e-05
3.84424e-05
3.8496e-05
3.85577e-05
3.8626e-05
3.86994e-05
3.87764e-05
3.8856e-05
3.89371e-05
3.90188e-05
3.91004e-05
3.9181e-05
3.92601e-05
3.93372e-05
3.94117e-05
3.94833e-05
3.95517e-05
3.96164e-05
3.96773e-05
3.97341e-05
3.97866e-05
3.98346e-05
3.9878e-05
3.99167e-05
3.99505e-05
3.99793e-05
4.00032e-05
4.0022e-05
4.00358e-05
4.00445e-05
4.00481e-05
0.000939679
0.00083569
0.000745835
0.000667946
0.000600215
0.000541131
0.000489429
0.000444047
0.000404091
0.000368808
0.000337557
0.000309799
0.000285072
0.000262984
0.000243199
0.00022543
0.000209429
0.000194985
0.000181912
0.000170054
0.00015927
0.000149443
0.000140466
0.00013225
0.000124715
0.00011779
0.000111415
0.000105535
0.000100103
9.50776e-05
9.04214e-05
8.6102e-05
8.20907e-05
7.8362e-05
7.48935e-05
7.16655e-05
6.86605e-05
6.58631e-05
6.32597e-05
6.08382e-05
5.85882e-05
5.65001e-05
5.45656e-05
5.27771e-05
5.11277e-05
4.96111e-05
4.82211e-05
4.6952e-05
4.57982e-05
4.47541e-05
4.38141e-05
4.29726e-05
4.22237e-05
4.15618e-05
4.0981e-05
4.04754e-05
4.00393e-05
3.9667e-05
3.9353e-05
3.90918e-05
3.88783e-05
3.87077e-05
3.85753e-05
3.84768e-05
3.84083e-05
3.83659e-05
3.83464e-05
3.83465e-05
3.83632e-05
3.83947e-05
3.84383e-05
3.84919e-05
3.85537e-05
3.86221e-05
3.86955e-05
3.87727e-05
3.88524e-05
3.89337e-05
3.90155e-05
3.90973e-05
3.91781e-05
3.92574e-05
3.93347e-05
3.94094e-05
3.94812e-05
3.95498e-05
3.96147e-05
3.96758e-05
3.97328e-05
3.97855e-05
3.98338e-05
3.98774e-05
3.99163e-05
3.99503e-05
3.99793e-05
4.00033e-05
4.00223e-05
4.00362e-05
4.0045e-05
4.00486e-05
0.00093968
0.000835691
0.000745837
0.000667949
0.000600218
0.000541135
0.000489433
0.000444052
0.000404097
0.000368814
0.000337564
0.000309806
0.000285079
0.000262991
0.000243207
0.000225438
0.000209437
0.000194993
0.000181921
0.000170062
0.000159279
0.000149451
0.000140475
0.000132259
0.000124724
0.000117799
0.000111424
0.000105545
0.000100113
9.50876e-05
9.04316e-05
8.61124e-05
8.21012e-05
7.83727e-05
7.49044e-05
7.16765e-05
6.86716e-05
6.58743e-05
6.32709e-05
6.08494e-05
5.85993e-05
5.6511e-05
5.45763e-05
5.27875e-05
5.11377e-05
4.96205e-05
4.82299e-05
4.69601e-05
4.58056e-05
4.47607e-05
4.38199e-05
4.29774e-05
4.22277e-05
4.15649e-05
4.09832e-05
4.04767e-05
4.00398e-05
3.96667e-05
3.93519e-05
3.90901e-05
3.8876e-05
3.87048e-05
3.85719e-05
3.84731e-05
3.84042e-05
3.83615e-05
3.83418e-05
3.83418e-05
3.83583e-05
3.83898e-05
3.84334e-05
3.8487e-05
3.85489e-05
3.86174e-05
3.86909e-05
3.87682e-05
3.88481e-05
3.89295e-05
3.90116e-05
3.90935e-05
3.91746e-05
3.92541e-05
3.93316e-05
3.94066e-05
3.94787e-05
3.95475e-05
3.96127e-05
3.9674e-05
3.97313e-05
3.97842e-05
3.98328e-05
3.98766e-05
3.99157e-05
3.995e-05
3.99793e-05
4.00035e-05
4.00226e-05
4.00366e-05
4.00455e-05
4.00491e-05
0.00093968
0.000835691
0.000745838
0.000667951
0.000600221
0.000541139
0.000489438
0.000444058
0.000404103
0.00036882
0.000337571
0.000309813
0.000285087
0.000262999
0.000243215
0.000225446
0.000209446
0.000195002
0.00018193
0.000170071
0.000159288
0.000149461
0.000140485
0.000132269
0.000124734
0.00011781
0.000111435
0.000105555
0.000100124
9.50987e-05
9.0443e-05
8.6124e-05
8.21131e-05
7.83847e-05
7.49166e-05
7.16889e-05
6.86841e-05
6.58868e-05
6.32835e-05
6.08619e-05
5.86117e-05
5.65233e-05
5.45882e-05
5.2799e-05
5.11487e-05
4.9631e-05
4.82397e-05
4.69692e-05
4.58139e-05
4.47681e-05
4.38262e-05
4.29828e-05
4.2232e-05
4.15682e-05
4.09855e-05
4.04781e-05
4.00402e-05
3.96662e-05
3.93506e-05
3.9088e-05
3.88732e-05
3.87014e-05
3.8568e-05
3.84687e-05
3.83994e-05
3.83565e-05
3.83365e-05
3.83363e-05
3.83527e-05
3.83841e-05
3.84277e-05
3.84814e-05
3.85433e-05
3.86119e-05
3.86856e-05
3.8763e-05
3.88431e-05
3.89248e-05
3.90071e-05
3.90892e-05
3.91705e-05
3.92503e-05
3.93281e-05
3.94034e-05
3.94757e-05
3.95448e-05
3.96103e-05
3.96719e-05
3.97295e-05
3.97828e-05
3.98316e-05
3.98757e-05
3.99151e-05
3.99496e-05
3.99791e-05
4.00036e-05
4.00229e-05
4.0037e-05
4.00459e-05
4.00495e-05
0.00093968
0.000835692
0.00074584
0.000667953
0.000600224
0.000541142
0.000489443
0.000444063
0.000404109
0.000368827
0.000337578
0.000309821
0.000285095
0.000263008
0.000243223
0.000225455
0.000209455
0.000195011
0.000181939
0.000170081
0.000159298
0.000149471
0.000140495
0.00013228
0.000124745
0.000117821
0.000111446
0.000105567
0.000100136
9.51111e-05
9.04556e-05
8.61368e-05
8.21261e-05
7.83981e-05
7.49301e-05
7.17026e-05
6.86979e-05
6.59007e-05
6.32973e-05
6.08758e-05
5.86254e-05
5.65367e-05
5.46014e-05
5.28117e-05
5.11609e-05
4.96425e-05
4.82505e-05
4.69792e-05
4.58229e-05
4.47761e-05
4.38332e-05
4.29886e-05
4.22367e-05
4.15718e-05
4.09879e-05
4.04794e-05
4.00405e-05
3.96656e-05
3.9349e-05
3.90856e-05
3.887e-05
3.86976e-05
3.85635e-05
3.84637e-05
3.8394e-05
3.83507e-05
3.83305e-05
3.83302e-05
3.83464e-05
3.83777e-05
3.84213e-05
3.8475e-05
3.85371e-05
3.86058e-05
3.86796e-05
3.87572e-05
3.88375e-05
3.89194e-05
3.90019e-05
3.90844e-05
3.91659e-05
3.9246e-05
3.93241e-05
3.93997e-05
3.94723e-05
3.95418e-05
3.96076e-05
3.96696e-05
3.97274e-05
3.9781e-05
3.98302e-05
3.98746e-05
3.99143e-05
3.99491e-05
3.99789e-05
4.00035e-05
4.0023e-05
4.00373e-05
4.00463e-05
4.00499e-05
0.00093968
0.000835693
0.000745841
0.000667955
0.000600227
0.000541146
0.000489447
0.000444068
0.000404115
0.000368833
0.000337585
0.000309828
0.000285103
0.000263016
0.000243232
0.000225464
0.000209465
0.000195021
0.000181949
0.000170091
0.000159309
0.000149482
0.000140507
0.000132291
0.000124757
0.000117833
0.000111459
0.00010558
0.000100149
9.51244e-05
9.04692e-05
8.61508e-05
8.21404e-05
7.84125e-05
7.49449e-05
7.17175e-05
6.8713e-05
6.59158e-05
6.33125e-05
6.08908e-05
5.86403e-05
5.65513e-05
5.46156e-05
5.28255e-05
5.11741e-05
4.9655e-05
4.82622e-05
4.69899e-05
4.58326e-05
4.47847e-05
4.38407e-05
4.29949e-05
4.22418e-05
4.15756e-05
4.09905e-05
4.04808e-05
4.00408e-05
3.96648e-05
3.93472e-05
3.90828e-05
3.88665e-05
3.86932e-05
3.85586e-05
3.84582e-05
3.8388e-05
3.83444e-05
3.83239e-05
3.83233e-05
3.83394e-05
3.83707e-05
3.84142e-05
3.8468e-05
3.85301e-05
3.85989e-05
3.86729e-05
3.87508e-05
3.88313e-05
3.89134e-05
3.89962e-05
3.9079e-05
3.91608e-05
3.92412e-05
3.93197e-05
3.93956e-05
3.94686e-05
3.95384e-05
3.96045e-05
3.96669e-05
3.97251e-05
3.97791e-05
3.98286e-05
3.98734e-05
3.99134e-05
3.99485e-05
3.99785e-05
4.00034e-05
4.00231e-05
4.00375e-05
4.00466e-05
4.00503e-05
0.00093968
0.000835694
0.000745842
0.000667957
0.00060023
0.000541149
0.000489451
0.000444073
0.000404121
0.00036884
0.000337592
0.000309836
0.000285111
0.000263024
0.000243241
0.000225474
0.000209474
0.000195031
0.00018196
0.000170102
0.00015932
0.000149494
0.000140519
0.000132304
0.000124769
0.000117846
0.000111472
0.000105593
0.000100163
9.51387e-05
9.04839e-05
8.61658e-05
8.21557e-05
7.84281e-05
7.49607e-05
7.17335e-05
6.87291e-05
6.59321e-05
6.33287e-05
6.0907e-05
5.86563e-05
5.65671e-05
5.4631e-05
5.28403e-05
5.11883e-05
4.96684e-05
4.82747e-05
4.70014e-05
4.5843e-05
4.47939e-05
4.38487e-05
4.30016e-05
4.22472e-05
4.15796e-05
4.09932e-05
4.04823e-05
4.0041e-05
3.96638e-05
3.93452e-05
3.90798e-05
3.88626e-05
3.86886e-05
3.85532e-05
3.84522e-05
3.83815e-05
3.83375e-05
3.83166e-05
3.83159e-05
3.83318e-05
3.8363e-05
3.84065e-05
3.84603e-05
3.85225e-05
3.85915e-05
3.86656e-05
3.87437e-05
3.88245e-05
3.89069e-05
3.899e-05
3.9073e-05
3.91552e-05
3.9236e-05
3.93148e-05
3.93911e-05
3.94645e-05
3.95346e-05
3.96012e-05
3.96639e-05
3.97226e-05
3.97769e-05
3.98267e-05
3.98719e-05
3.99123e-05
3.99477e-05
3.9978e-05
4.00032e-05
4.00231e-05
4.00377e-05
4.00468e-05
4.00505e-05
0.000939681
0.000835694
0.000745843
0.000667959
0.000600232
0.000541152
0.000489455
0.000444078
0.000404126
0.000368846
0.000337599
0.000309843
0.000285119
0.000263033
0.00024325
0.000225483
0.000209484
0.000195041
0.000181971
0.000170114
0.000159332
0.000149506
0.000140531
0.000132317
0.000124783
0.00011786
0.000111486
0.000105608
0.000100178
9.51539e-05
9.04994e-05
8.61817e-05
8.21719e-05
7.84447e-05
7.49775e-05
7.17505e-05
6.87463e-05
6.59493e-05
6.3346e-05
6.09242e-05
5.86733e-05
5.65838e-05
5.46472e-05
5.28561e-05
5.12033e-05
4.96826e-05
4.8288e-05
4.70137e-05
4.58541e-05
4.48038e-05
4.38571e-05
4.30087e-05
4.22529e-05
4.15839e-05
4.09961e-05
4.04838e-05
4.00412e-05
3.96628e-05
3.9343e-05
3.90766e-05
3.88584e-05
3.86835e-05
3.85474e-05
3.84458e-05
3.83746e-05
3.83301e-05
3.83089e-05
3.83079e-05
3.83237e-05
3.83547e-05
3.83982e-05
3.8452e-05
3.85144e-05
3.85834e-05
3.86578e-05
3.87361e-05
3.88171e-05
3.88998e-05
3.89832e-05
3.90666e-05
3.91492e-05
3.92303e-05
3.93095e-05
3.93861e-05
3.946e-05
3.95305e-05
3.95975e-05
3.96607e-05
3.97197e-05
3.97745e-05
3.98247e-05
3.98703e-05
3.9911e-05
3.99467e-05
3.99774e-05
4.00028e-05
4.00229e-05
4.00377e-05
4.0047e-05
4.00507e-05
0.000939681
0.000835695
0.000745844
0.00066796
0.000600234
0.000541155
0.000489459
0.000444082
0.000404131
0.000368852
0.000337605
0.00030985
0.000285127
0.000263042
0.000243259
0.000225493
0.000209494
0.000195052
0.000181982
0.000170125
0.000159344
0.000149518
0.000140544
0.00013233
0.000124796
0.000117874
0.000111501
0.000105623
0.000100193
9.51699e-05
9.05158e-05
8.61984e-05
8.2189e-05
7.84621e-05
7.49952e-05
7.17685e-05
6.87644e-05
6.59676e-05
6.33642e-05
6.09423e-05
5.86912e-05
5.66014e-05
5.46644e-05
5.28726e-05
5.12192e-05
4.96976e-05
4.8302e-05
4.70266e-05
4.58658e-05
4.48141e-05
4.38661e-05
4.30162e-05
4.22589e-05
4.15884e-05
4.09992e-05
4.04854e-05
4.00415e-05
3.96617e-05
3.93408e-05
3.90732e-05
3.8854e-05
3.86782e-05
3.85413e-05
3.8439e-05
3.83672e-05
3.83222e-05
3.83007e-05
3.82994e-05
3.8315e-05
3.83459e-05
3.83894e-05
3.84432e-05
3.85056e-05
3.85749e-05
3.86494e-05
3.87279e-05
3.88092e-05
3.88922e-05
3.8976e-05
3.90597e-05
3.91426e-05
3.92242e-05
3.93037e-05
3.93809e-05
3.94551e-05
3.95261e-05
3.95935e-05
3.96571e-05
3.97166e-05
3.97718e-05
3.98224e-05
3.98684e-05
3.99095e-05
3.99456e-05
3.99765e-05
4.00022e-05
4.00226e-05
4.00375e-05
4.00469e-05
4.00507e-05
0.000939681
0.000835695
0.000745845
0.000667962
0.000600236
0.000541158
0.000489462
0.000444086
0.000404136
0.000368858
0.000337612
0.000309858
0.000285135
0.00026305
0.000243268
0.000225502
0.000209505
0.000195063
0.000181993
0.000170137
0.000159356
0.000149531
0.000140557
0.000132344
0.000124811
0.000117889
0.000111516
0.000105639
0.000100209
9.51865e-05
9.05329e-05
8.62159e-05
8.22069e-05
7.84803e-05
7.50137e-05
7.17873e-05
6.87834e-05
6.59866e-05
6.33832e-05
6.09613e-05
5.87099e-05
5.66198e-05
5.46823e-05
5.28899e-05
5.12357e-05
4.97133e-05
4.83166e-05
4.704e-05
4.58779e-05
4.48249e-05
4.38754e-05
4.3024e-05
4.22651e-05
4.15931e-05
4.10023e-05
4.04871e-05
4.00417e-05
3.96606e-05
3.93384e-05
3.90696e-05
3.88493e-05
3.86726e-05
3.85349e-05
3.84318e-05
3.83594e-05
3.8314e-05
3.8292e-05
3.82905e-05
3.83058e-05
3.83366e-05
3.838e-05
3.84339e-05
3.84964e-05
3.85658e-05
3.86405e-05
3.87193e-05
3.88009e-05
3.88842e-05
3.89683e-05
3.90524e-05
3.91357e-05
3.92177e-05
3.92977e-05
3.93752e-05
3.94499e-05
3.95214e-05
3.95893e-05
3.96533e-05
3.97132e-05
3.97689e-05
3.982e-05
3.98663e-05
3.99078e-05
3.99443e-05
3.99755e-05
4.00015e-05
4.00221e-05
4.00372e-05
4.00467e-05
4.00505e-05
0.000939681
0.000835696
0.000745846
0.000667963
0.000600238
0.000541161
0.000489466
0.00044409
0.000404141
0.000368863
0.000337618
0.000309865
0.000285142
0.000263058
0.000243277
0.000225512
0.000209515
0.000195074
0.000182005
0.000170149
0.000159368
0.000149544
0.000140571
0.000132358
0.000124825
0.000117904
0.000111531
0.000105655
0.000100226
9.52037e-05
9.05505e-05
8.6234e-05
8.22254e-05
7.84992e-05
7.50329e-05
7.18067e-05
6.8803e-05
6.60064e-05
6.3403e-05
6.09809e-05
5.87294e-05
5.66388e-05
5.47009e-05
5.29079e-05
5.12529e-05
4.97295e-05
4.83318e-05
4.7054e-05
4.58906e-05
4.48361e-05
4.38851e-05
4.30321e-05
4.22717e-05
4.1598e-05
4.10057e-05
4.04888e-05
4.0042e-05
3.96595e-05
3.93359e-05
3.90659e-05
3.88445e-05
3.86668e-05
3.85282e-05
3.84244e-05
3.83513e-05
3.83053e-05
3.8283e-05
3.82811e-05
3.82962e-05
3.83269e-05
3.83703e-05
3.84242e-05
3.84868e-05
3.85563e-05
3.86312e-05
3.87102e-05
3.87921e-05
3.88757e-05
3.89602e-05
3.90447e-05
3.91284e-05
3.92108e-05
3.92912e-05
3.93692e-05
3.94444e-05
3.95163e-05
3.95847e-05
3.96492e-05
3.97096e-05
3.97657e-05
3.98172e-05
3.9864e-05
3.99059e-05
3.99427e-05
3.99744e-05
4.00006e-05
4.00214e-05
4.00367e-05
4.00464e-05
4.00502e-05
0.000939681
0.000835696
0.000745847
0.000667965
0.00060024
0.000541163
0.000489469
0.000444094
0.000404146
0.000368868
0.000337624
0.000309871
0.00028515
0.000263066
0.000243286
0.000225521
0.000209525
0.000195084
0.000182016
0.000170161
0.000159381
0.000149557
0.000140584
0.000132372
0.00012484
0.000117919
0.000111548
0.000105671
0.000100243
9.52214e-05
9.05687e-05
8.62527e-05
8.22445e-05
7.85187e-05
7.50527e-05
7.18268e-05
6.88233e-05
6.60267e-05
6.34234e-05
6.10012e-05
5.87494e-05
5.66585e-05
5.47201e-05
5.29264e-05
5.12706e-05
4.97462e-05
4.83474e-05
4.70684e-05
4.59036e-05
4.48476e-05
4.38951e-05
4.30405e-05
4.22784e-05
4.16031e-05
4.10091e-05
4.04907e-05
4.00423e-05
3.96583e-05
3.93333e-05
3.90621e-05
3.88395e-05
3.86608e-05
3.85213e-05
3.84167e-05
3.8343e-05
3.82964e-05
3.82736e-05
3.82715e-05
3.82863e-05
3.83168e-05
3.83601e-05
3.84141e-05
3.84767e-05
3.85464e-05
3.86215e-05
3.87008e-05
3.87829e-05
3.88669e-05
3.89517e-05
3.90366e-05
3.91208e-05
3.92036e-05
3.92845e-05
3.9363e-05
3.94386e-05
3.9511e-05
3.95799e-05
3.96449e-05
3.97058e-05
3.97623e-05
3.98143e-05
3.98615e-05
3.99038e-05
3.9941e-05
3.9973e-05
3.99995e-05
4.00206e-05
4.00361e-05
4.00459e-05
4.00498e-05
0.000939681
0.000835696
0.000745848
0.000667966
0.000600242
0.000541166
0.000489472
0.000444098
0.00040415
0.000368873
0.00033763
0.000309878
0.000285157
0.000263074
0.000243295
0.000225531
0.000209535
0.000195095
0.000182027
0.000170173
0.000159394
0.00014957
0.000140598
0.000132387
0.000124855
0.000117935
0.000111564
0.000105688
0.000100261
9.52394e-05
9.05873e-05
8.62717e-05
8.2264e-05
7.85386e-05
7.5073e-05
7.18474e-05
6.88441e-05
6.60476e-05
6.34443e-05
6.1022e-05
5.87699e-05
5.66787e-05
5.47397e-05
5.29454e-05
5.12887e-05
4.97634e-05
4.83634e-05
4.70831e-05
4.59169e-05
4.48595e-05
4.39054e-05
4.30492e-05
4.22853e-05
4.16084e-05
4.10127e-05
4.04926e-05
4.00426e-05
3.96571e-05
3.93308e-05
3.90582e-05
3.88345e-05
3.86547e-05
3.85142e-05
3.84088e-05
3.83344e-05
3.82873e-05
3.8264e-05
3.82615e-05
3.82761e-05
3.83065e-05
3.83497e-05
3.84036e-05
3.84663e-05
3.85361e-05
3.86115e-05
3.8691e-05
3.87734e-05
3.88577e-05
3.89429e-05
3.90282e-05
3.91128e-05
3.91961e-05
3.92774e-05
3.93564e-05
3.94325e-05
3.95054e-05
3.95748e-05
3.96403e-05
3.97017e-05
3.97587e-05
3.98111e-05
3.98588e-05
3.99015e-05
3.99391e-05
3.99714e-05
3.99982e-05
4.00196e-05
4.00353e-05
4.00452e-05
4.00491e-05
0.000939681
0.000835697
0.000745849
0.000667967
0.000600244
0.000541168
0.000489475
0.000444101
0.000404154
0.000368878
0.000337636
0.000309884
0.000285164
0.000263082
0.000243303
0.00022554
0.000209545
0.000195106
0.000182039
0.000170185
0.000159406
0.000149584
0.000140612
0.000132401
0.000124871
0.000117951
0.00011158
0.000105705
0.000100279
9.52577e-05
9.06062e-05
8.62911e-05
8.22839e-05
7.85589e-05
7.50937e-05
7.18683e-05
6.88652e-05
6.60689e-05
6.34656e-05
6.10431e-05
5.87909e-05
5.66992e-05
5.47597e-05
5.29647e-05
5.13072e-05
4.97809e-05
4.83798e-05
4.70982e-05
4.59306e-05
4.48716e-05
4.39159e-05
4.3058e-05
4.22925e-05
4.16138e-05
4.10163e-05
4.04946e-05
4.0043e-05
3.9656e-05
3.93282e-05
3.90543e-05
3.88293e-05
3.86484e-05
3.8507e-05
3.84007e-05
3.83256e-05
3.82779e-05
3.82542e-05
3.82513e-05
3.82656e-05
3.82958e-05
3.83389e-05
3.83929e-05
3.84557e-05
3.85256e-05
3.86011e-05
3.86809e-05
3.87636e-05
3.88482e-05
3.89338e-05
3.90195e-05
3.91045e-05
3.91883e-05
3.92701e-05
3.93496e-05
3.94262e-05
3.94996e-05
3.95695e-05
3.96355e-05
3.96973e-05
3.97549e-05
3.98078e-05
3.98559e-05
3.9899e-05
3.9937e-05
3.99696e-05
3.99968e-05
4.00183e-05
4.00342e-05
4.00443e-05
4.00483e-05
0.000939681
0.000835697
0.000745849
0.000667968
0.000600245
0.00054117
0.000489477
0.000444105
0.000404158
0.000368883
0.000337641
0.00030989
0.000285171
0.00026309
0.000243312
0.000225549
0.000209555
0.000195116
0.00018205
0.000170197
0.000159419
0.000149597
0.000140626
0.000132416
0.000124886
0.000117967
0.000111597
0.000105723
0.000100296
9.52763e-05
9.06253e-05
8.63108e-05
8.2304e-05
7.85795e-05
7.51146e-05
7.18896e-05
6.88867e-05
6.60905e-05
6.34871e-05
6.10646e-05
5.88121e-05
5.67201e-05
5.478e-05
5.29843e-05
5.1326e-05
4.97987e-05
4.83964e-05
4.71135e-05
4.59444e-05
4.48839e-05
4.39266e-05
4.3067e-05
4.22997e-05
4.16193e-05
4.10201e-05
4.04967e-05
4.00434e-05
3.96548e-05
3.93256e-05
3.90503e-05
3.88241e-05
3.86421e-05
3.84997e-05
3.83926e-05
3.83167e-05
3.82684e-05
3.82441e-05
3.82409e-05
3.82549e-05
3.82849e-05
3.8328e-05
3.83819e-05
3.84447e-05
3.85148e-05
3.85905e-05
3.86705e-05
3.87536e-05
3.88385e-05
3.89245e-05
3.90106e-05
3.90961e-05
3.91802e-05
3.92626e-05
3.93425e-05
3.94196e-05
3.94936e-05
3.95639e-05
3.96304e-05
3.96928e-05
3.97508e-05
3.98042e-05
3.98528e-05
3.98963e-05
3.99346e-05
3.99676e-05
3.99951e-05
4.00169e-05
4.0033e-05
4.00432e-05
4.00472e-05
0.000939682
0.000835697
0.00074585
0.000667969
0.000600247
0.000541172
0.00048948
0.000444108
0.000404162
0.000368888
0.000337646
0.000309896
0.000285178
0.000263097
0.00024332
0.000225558
0.000209564
0.000195127
0.000182061
0.000170209
0.000159432
0.00014961
0.00014064
0.000132431
0.000124901
0.000117983
0.000111614
0.00010574
0.000100315
9.52949e-05
9.06445e-05
8.63306e-05
8.23243e-05
7.86002e-05
7.51357e-05
7.1911e-05
6.89083e-05
6.61122e-05
6.35089e-05
6.10863e-05
5.88335e-05
5.67411e-05
5.48005e-05
5.30041e-05
5.13449e-05
4.98166e-05
4.84131e-05
4.71289e-05
4.59585e-05
4.48964e-05
4.39374e-05
4.30761e-05
4.23071e-05
4.16249e-05
4.1024e-05
4.04988e-05
4.00439e-05
3.96537e-05
3.9323e-05
3.90464e-05
3.88189e-05
3.86357e-05
3.84923e-05
3.83843e-05
3.83077e-05
3.82588e-05
3.8234e-05
3.82304e-05
3.82441e-05
3.82739e-05
3.83168e-05
3.83707e-05
3.84336e-05
3.85038e-05
3.85797e-05
3.866e-05
3.87433e-05
3.88286e-05
3.8915e-05
3.90015e-05
3.90874e-05
3.9172e-05
3.92548e-05
3.93353e-05
3.94129e-05
3.94873e-05
3.95582e-05
3.96252e-05
3.96881e-05
3.97466e-05
3.98004e-05
3.98494e-05
3.98934e-05
3.99321e-05
3.99654e-05
3.99932e-05
4.00153e-05
4.00316e-05
4.00419e-05
4.0046e-05
0.000939682
0.000835698
0.000745851
0.00066797
0.000600248
0.000541174
0.000489482
0.000444111
0.000404166
0.000368892
0.000337651
0.000309902
0.000285184
0.000263105
0.000243328
0.000225567
0.000209574
0.000195137
0.000182072
0.00017022
0.000159444
0.000149623
0.000140654
0.000132445
0.000124917
0.000117999
0.000111631
0.000105758
0.000100333
9.53136e-05
9.06638e-05
8.63504e-05
8.23446e-05
7.8621e-05
7.51569e-05
7.19325e-05
6.89301e-05
6.61341e-05
6.35308e-05
6.1108e-05
5.8855e-05
5.67622e-05
5.48211e-05
5.3024e-05
5.1364e-05
4.98346e-05
4.843e-05
4.71445e-05
4.59726e-05
4.49089e-05
4.39483e-05
4.30853e-05
4.23145e-05
4.16305e-05
4.10279e-05
4.0501e-05
4.00444e-05
3.96527e-05
3.93204e-05
3.90424e-05
3.88137e-05
3.86294e-05
3.84849e-05
3.8376e-05
3.82987e-05
3.82491e-05
3.82238e-05
3.82198e-05
3.82331e-05
3.82627e-05
3.83056e-05
3.83594e-05
3.84224e-05
3.84927e-05
3.85688e-05
3.86493e-05
3.87329e-05
3.88185e-05
3.89052e-05
3.89922e-05
3.90785e-05
3.91636e-05
3.92469e-05
3.93278e-05
3.9406e-05
3.94809e-05
3.95523e-05
3.96198e-05
3.96832e-05
3.97422e-05
3.97965e-05
3.98459e-05
3.98903e-05
3.99294e-05
3.99631e-05
3.99911e-05
4.00135e-05
4.00299e-05
4.00404e-05
4.00446e-05
0.000939682
0.000835698
0.000745851
0.000667971
0.00060025
0.000541176
0.000489485
0.000444114
0.000404169
0.000368896
0.000337656
0.000309908
0.000285191
0.000263112
0.000243336
0.000225575
0.000209583
0.000195147
0.000182083
0.000170232
0.000159456
0.000149636
0.000140668
0.00013246
0.000124932
0.000118015
0.000111647
0.000105775
0.000100351
9.53322e-05
9.0683e-05
8.63702e-05
8.2365e-05
7.86418e-05
7.51781e-05
7.1954e-05
6.89518e-05
6.61559e-05
6.35527e-05
6.11298e-05
5.88766e-05
5.67834e-05
5.48417e-05
5.30439e-05
5.1383e-05
4.98527e-05
4.84469e-05
4.716e-05
4.59867e-05
4.49215e-05
4.39592e-05
4.30945e-05
4.2322e-05
4.16362e-05
4.10318e-05
4.05032e-05
4.0045e-05
3.96516e-05
3.93179e-05
3.90385e-05
3.88085e-05
3.8623e-05
3.84775e-05
3.83677e-05
3.82896e-05
3.82393e-05
3.82135e-05
3.82091e-05
3.82221e-05
3.82515e-05
3.82942e-05
3.8348e-05
3.8411e-05
3.84815e-05
3.85577e-05
3.86384e-05
3.87223e-05
3.88083e-05
3.88954e-05
3.89827e-05
3.90695e-05
3.91551e-05
3.92388e-05
3.93203e-05
3.93989e-05
3.94744e-05
3.95463e-05
3.96143e-05
3.96782e-05
3.97376e-05
3.97924e-05
3.98423e-05
3.98871e-05
3.99266e-05
3.99606e-05
3.99889e-05
4.00115e-05
4.00281e-05
4.00387e-05
4.00429e-05
0.000939682
0.000835698
0.000745852
0.000667972
0.000600251
0.000541178
0.000489487
0.000444117
0.000404173
0.0003689
0.000337661
0.000309913
0.000285197
0.000263119
0.000243343
0.000225584
0.000209592
0.000195157
0.000182093
0.000170243
0.000159468
0.000149649
0.000140682
0.000132474
0.000124947
0.000118031
0.000111664
0.000105792
0.000100368
9.53508e-05
9.07021e-05
8.63899e-05
8.23852e-05
7.86625e-05
7.51992e-05
7.19754e-05
6.89734e-05
6.61777e-05
6.35745e-05
6.11515e-05
5.8898e-05
5.68045e-05
5.48623e-05
5.30638e-05
5.1402e-05
4.98706e-05
4.84637e-05
4.71756e-05
4.60008e-05
4.49341e-05
4.39702e-05
4.31038e-05
4.23295e-05
4.1642e-05
4.10358e-05
4.05055e-05
4.00456e-05
3.96507e-05
3.93154e-05
3.90346e-05
3.88033e-05
3.86167e-05
3.84702e-05
3.83595e-05
3.82805e-05
3.82296e-05
3.82032e-05
3.81984e-05
3.82111e-05
3.82403e-05
3.82828e-05
3.83366e-05
3.83997e-05
3.84702e-05
3.85466e-05
3.86275e-05
3.87117e-05
3.8798e-05
3.88855e-05
3.89732e-05
3.90604e-05
3.91464e-05
3.92307e-05
3.93126e-05
3.93917e-05
3.94677e-05
3.95401e-05
3.96086e-05
3.9673e-05
3.97329e-05
3.97882e-05
3.98385e-05
3.98837e-05
3.99235e-05
3.99579e-05
3.99865e-05
4.00093e-05
4.00262e-05
4.00368e-05
4.00411e-05
0.000939682
0.000835699
0.000745852
0.000667973
0.000600252
0.000541179
0.000489489
0.00044412
0.000404176
0.000368904
0.000337666
0.000309919
0.000285203
0.000263125
0.000243351
0.000225592
0.000209601
0.000195166
0.000182104
0.000170254
0.00015948
0.000149662
0.000140695
0.000132488
0.000124962
0.000118046
0.00011168
0.000105809
0.000100386
9.53691e-05
9.07211e-05
8.64094e-05
8.24052e-05
7.8683e-05
7.52201e-05
7.19966e-05
6.89949e-05
6.61993e-05
6.35961e-05
6.1173e-05
5.89193e-05
5.68254e-05
5.48826e-05
5.30835e-05
5.14209e-05
4.98885e-05
4.84804e-05
4.7191e-05
4.60148e-05
4.49466e-05
4.39811e-05
4.3113e-05
4.2337e-05
4.16477e-05
4.10398e-05
4.05078e-05
4.00462e-05
3.96497e-05
3.9313e-05
3.90308e-05
3.87982e-05
3.86104e-05
3.84629e-05
3.83513e-05
3.82716e-05
3.822e-05
3.81931e-05