/*--------------------------------*- C++ -*----------------------------------*\
  =========                 |
  \\      /  F ield         | OpenFOAM: The Open Source CFD Toolbox
   \\    /   O peration     | Website:  https://openfoam.org
    \\  /    A nd           | Version:  11
     \\/     M anipulation  |
\*---------------------------------------------------------------------------*/
FoamFile
{
    format      ascii;
    class       volScalarField;
    location    "260";
    object      omega;
}
// * * * * * * * * * * * * * * * * * * * * * * * * * * * * * * * * * * * * * //

dimensions      [0 0 -1 0 0 0 0];

internalField   nonuniform List<scalar> 
10000
(
0.961696
0.892193
0.829096
0.771738
0.719529
0.671943
0.628512
0.588817
0.552488
0.519192
0.488633
0.460546
0.434695
0.410868
0.388875
0.368546
0.349729
0.332287
0.316096
0.301046
0.287036
0.273978
0.261788
0.250393
0.239727
0.229729
0.220343
0.211521
0.203215
0.195384
0.18799
0.180998
0.174376
0.168094
0.162125
0.156444
0.151028
0.145856
0.140909
0.13617
0.131623
0.127254
0.123051
0.119004
0.115103
0.111343
0.107717
0.104223
0.100856
0.097616
0.0945024
0.0915149
0.0886541
0.0859202
0.0833135
0.0808336
0.0784802
0.0762523
0.0741482
0.0721655
0.0703008
0.0685504
0.06691
0.0653748
0.06394
0.0626006
0.0613516
0.060188
0.0591047
0.0580969
0.0571599
0.0562892
0.0554804
0.0547293
0.0540322
0.0533853
0.0527852
0.0522287
0.0517128
0.0512347
0.0507919
0.0503819
0.0500026
0.0496521
0.0493284
0.0490299
0.0487552
0.0485028
0.0482716
0.0480606
0.047869
0.0476959
0.0475409
0.0474036
0.0472838
0.0471816
0.0470974
0.0470318
0.0469858
0.046961
0.961696
0.892194
0.829096
0.771739
0.71953
0.671944
0.628512
0.588818
0.552489
0.519193
0.488634
0.460547
0.434696
0.410869
0.388876
0.368547
0.34973
0.332288
0.316097
0.301047
0.287038
0.273979
0.261789
0.250394
0.239728
0.22973
0.220345
0.211522
0.203216
0.195386
0.187992
0.181001
0.174378
0.168097
0.162128
0.156447
0.151032
0.14586
0.140914
0.136175
0.131628
0.12726
0.123057
0.119011
0.115111
0.111351
0.107726
0.104232
0.100866
0.0976262
0.0945129
0.0915258
0.0886652
0.0859315
0.083325
0.0808454
0.0784922
0.0762645
0.0741603
0.0721772
0.070312
0.068561
0.0669199
0.0653841
0.0639487
0.0626088
0.0613594
0.0601953
0.0591115
0.0581033
0.057166
0.0562948
0.0554856
0.0547343
0.0540368
0.0533896
0.0527892
0.0522324
0.0517162
0.0512379
0.0507948
0.0503846
0.0500052
0.0496544
0.0493306
0.0490319
0.048757
0.0485045
0.0482732
0.0480621
0.0478703
0.0476972
0.0475421
0.0474047
0.0472848
0.0471826
0.0470983
0.0470327
0.0469867
0.0469619
0.961696
0.892194
0.829097
0.77174
0.719531
0.671945
0.628514
0.58882
0.552491
0.519195
0.488636
0.460549
0.434698
0.410871
0.388878
0.368549
0.349732
0.33229
0.3161
0.301049
0.28704
0.273981
0.261791
0.250397
0.239731
0.229733
0.220348
0.211525
0.203219
0.195389
0.187996
0.181004
0.174382
0.168101
0.162132
0.156452
0.151037
0.145866
0.14092
0.136182
0.131636
0.127269
0.123067
0.119021
0.115123
0.111364
0.10774
0.104246
0.100881
0.0976423
0.0945297
0.0915432
0.088683
0.0859497
0.0833434
0.080864
0.0785109
0.0762831
0.0741787
0.0721953
0.0703295
0.0685778
0.066936
0.0653994
0.0639632
0.0626225
0.0613723
0.0602075
0.059123
0.0581141
0.0571761
0.0563043
0.0554945
0.0547425
0.0540445
0.0533968
0.0527959
0.0522386
0.051722
0.0512433
0.0507998
0.0503893
0.0500095
0.0496584
0.0493343
0.0490354
0.0487602
0.0485075
0.048276
0.0480647
0.0478727
0.0476994
0.0475442
0.0474067
0.0472867
0.0471844
0.0471
0.0470344
0.0469884
0.0469636
0.961696
0.892194
0.829097
0.771741
0.719532
0.671947
0.628516
0.588822
0.552493
0.519197
0.488638
0.460552
0.434701
0.410874
0.388881
0.368552
0.349736
0.332293
0.316103
0.301053
0.287043
0.273985
0.261795
0.2504
0.239734
0.229736
0.220351
0.211529
0.203224
0.195393
0.188
0.181009
0.174388
0.168107
0.162139
0.156459
0.151045
0.145875
0.14093
0.136193
0.131648
0.127281
0.123081
0.119036
0.115139
0.111381
0.107758
0.104266
0.100902
0.0976644
0.0945528
0.091567
0.0887075
0.0859746
0.0833686
0.0808894
0.0785364
0.0763084
0.0742037
0.0722197
0.0703533
0.0686007
0.0669579
0.0654203
0.0639832
0.0626415
0.0613902
0.0602244
0.059139
0.0581291
0.0571902
0.0563175
0.0555069
0.0547541
0.0540553
0.0534068
0.0528053
0.0522474
0.0517301
0.0512508
0.0508068
0.0503958
0.0500155
0.0496641
0.0493395
0.0490402
0.0487647
0.0485117
0.0482799
0.0480683
0.0478762
0.0477026
0.0475472
0.0474096
0.0472895
0.0471871
0.0471026
0.0470369
0.0469909
0.046966
0.961696
0.892194
0.829098
0.771741
0.719534
0.671949
0.628518
0.588824
0.552496
0.5192
0.488642
0.460555
0.434704
0.410877
0.388885
0.368556
0.349739
0.332297
0.316107
0.301057
0.287048
0.273989
0.261799
0.250405
0.239739
0.229741
0.220356
0.211534
0.203229
0.195399
0.188006
0.181016
0.174395
0.168114
0.162147
0.156468
0.151055
0.145885
0.140942
0.136206
0.131662
0.127297
0.123098
0.119055
0.115159
0.111403
0.107782
0.104291
0.100929
0.0976924
0.0945819
0.0915971
0.0887383
0.086006
0.0834004
0.0809213
0.0785683
0.0763401
0.0742349
0.0722502
0.0703829
0.0686294
0.0669855
0.0654467
0.0640083
0.0626654
0.0614129
0.0602458
0.0591592
0.0581482
0.057208
0.0563343
0.0555226
0.0547688
0.054069
0.0534196
0.0528172
0.0522585
0.0517405
0.0512605
0.0508158
0.0504041
0.0500233
0.0496712
0.0493462
0.0490464
0.0487705
0.0485171
0.0482849
0.0480731
0.0478806
0.0477068
0.0475512
0.0474133
0.0472931
0.0471905
0.047106
0.0470402
0.0469941
0.0469692
0.961696
0.892195
0.829098
0.771742
0.719535
0.671951
0.62852
0.588827
0.552499
0.519203
0.488645
0.460559
0.434708
0.410881
0.388889
0.36856
0.349744
0.332302
0.316111
0.301062
0.287052
0.273994
0.261804
0.25041
0.239744
0.229747
0.220362
0.21154
0.203236
0.195406
0.188014
0.181024
0.174403
0.168124
0.162157
0.156479
0.151067
0.145899
0.140956
0.136222
0.131679
0.127316
0.123119
0.119078
0.115184
0.11143
0.10781
0.104321
0.10096
0.0977257
0.0946165
0.0916329
0.088775
0.0860434
0.0834381
0.0809592
0.0786061
0.0763775
0.0742717
0.0722862
0.0704179
0.0686633
0.0670181
0.065478
0.0640382
0.0626938
0.0614399
0.0602713
0.0591833
0.0581708
0.0572294
0.0563543
0.0555413
0.0547863
0.0540854
0.053435
0.0528315
0.0522718
0.0517529
0.051272
0.0508265
0.0504141
0.0500326
0.0496799
0.0493542
0.0490539
0.0487775
0.0485236
0.048291
0.0480788
0.047886
0.0477119
0.047556
0.0474179
0.0472975
0.0471948
0.0471101
0.0470442
0.0469981
0.0469731
0.961696
0.892195
0.829099
0.771743
0.719536
0.671952
0.628522
0.588829
0.552501
0.519206
0.488648
0.460563
0.434712
0.410886
0.388893
0.368565
0.349749
0.332307
0.316117
0.301067
0.287058
0.273999
0.26181
0.250416
0.239751
0.229753
0.220369
0.211548
0.203243
0.195414
0.188022
0.181033
0.174413
0.168134
0.162169
0.156492
0.151081
0.145914
0.140973
0.13624
0.1317
0.127338
0.123143
0.119104
0.115212
0.11146
0.107843
0.104356
0.100997
0.0977638
0.0946562
0.0916738
0.088817
0.0860861
0.0834812
0.0810025
0.0786492
0.0764202
0.0743137
0.0723273
0.0704579
0.0687019
0.0670553
0.0655137
0.0640723
0.0627263
0.0614707
0.0603005
0.0592108
0.0581968
0.0572538
0.0563772
0.0555628
0.0548065
0.0541043
0.0534526
0.0528479
0.0522871
0.0517672
0.0512853
0.0508389
0.0504257
0.0500433
0.0496899
0.0493636
0.0490626
0.0487856
0.0485312
0.0482981
0.0480854
0.0478922
0.0477178
0.0475616
0.0474233
0.0473026
0.0471997
0.0471149
0.0470489
0.0470027
0.0469777
0.961696
0.892195
0.829099
0.771743
0.719537
0.671953
0.628524
0.588831
0.552504
0.51921
0.488652
0.460566
0.434716
0.41089
0.388898
0.36857
0.349754
0.332312
0.316122
0.301073
0.287064
0.274006
0.261817
0.250423
0.239758
0.229761
0.220377
0.211556
0.203252
0.195423
0.188032
0.181043
0.174425
0.168147
0.162182
0.156507
0.151097
0.145931
0.140992
0.136261
0.131722
0.127363
0.12317
0.119133
0.115243
0.111494
0.107879
0.104394
0.101037
0.0978063
0.0947004
0.0917194
0.0888637
0.0861335
0.0835292
0.0810505
0.078697
0.0764675
0.0743603
0.0723728
0.0705022
0.0687448
0.0670966
0.0655533
0.0641102
0.0627624
0.061505
0.060333
0.0592416
0.0582258
0.0572811
0.0564029
0.0555869
0.054829
0.0541254
0.0534723
0.0528663
0.0523043
0.0517832
0.0513002
0.0508528
0.0504386
0.0500554
0.0497011
0.049374
0.0490724
0.0487947
0.0485397
0.0483061
0.048093
0.0478993
0.0477245
0.047568
0.0474294
0.0473084
0.0472053
0.0471204
0.0470542
0.0470079
0.0469828
0.961696
0.892195
0.829099
0.771744
0.719538
0.671954
0.628525
0.588833
0.552506
0.519212
0.488655
0.46057
0.43472
0.410895
0.388903
0.368575
0.349759
0.332318
0.316128
0.301079
0.28707
0.274012
0.261824
0.25043
0.239766
0.229769
0.220385
0.211565
0.203261
0.195434
0.188043
0.181055
0.174437
0.168161
0.162197
0.156523
0.151114
0.145951
0.141013
0.136284
0.131748
0.12739
0.1232
0.119165
0.115278
0.111531
0.107919
0.104437
0.101082
0.0978528
0.0947487
0.0917692
0.0889146
0.0861853
0.0835814
0.0811029
0.0787491
0.0765191
0.0744109
0.0724224
0.0705504
0.0687915
0.0671416
0.0655965
0.0641515
0.0628017
0.0615424
0.0603685
0.0592751
0.0582574
0.0573109
0.0564309
0.0556132
0.0548537
0.0541484
0.0534939
0.0528865
0.0523231
0.0518008
0.0513166
0.0508681
0.0504529
0.0500687
0.0497135
0.0493856
0.0490832
0.0488048
0.0485491
0.048315
0.0481013
0.0479072
0.0477319
0.047575
0.0474361
0.0473149
0.0472116
0.0471264
0.0470601
0.0470137
0.0469885
0.961696
0.892195
0.829099
0.771744
0.719538
0.671955
0.628527
0.588835
0.552509
0.519215
0.488658
0.460574
0.434724
0.410899
0.388907
0.36858
0.349765
0.332324
0.316134
0.301085
0.287077
0.274019
0.261831
0.250438
0.239774
0.229778
0.220395
0.211575
0.203272
0.195445
0.188055
0.181068
0.174451
0.168176
0.162214
0.156541
0.151134
0.145972
0.141036
0.136309
0.131775
0.12742
0.123232
0.1192
0.115316
0.111572
0.107962
0.104482
0.10113
0.0979028
0.0948005
0.0918226
0.0889693
0.0862408
0.0836374
0.081159
0.078805
0.0765743
0.0744653
0.0724755
0.0706021
0.0688415
0.0671898
0.0656428
0.0641958
0.062844
0.0615826
0.0604066
0.0593111
0.0582915
0.0573429
0.056461
0.0556415
0.0548802
0.0541733
0.0535171
0.0529083
0.0523435
0.0518197
0.0513343
0.0508846
0.0504683
0.050083
0.0497269
0.0493981
0.0490948
0.0488157
0.0485594
0.0483246
0.0481103
0.0479157
0.04774
0.0475827
0.0474434
0.0473219
0.0472183
0.047133
0.0470665
0.04702
0.0469947
0.961696
0.892195
0.829099
0.771744
0.719539
0.671956
0.628528
0.588837
0.552511
0.519217
0.488661
0.460577
0.434728
0.410903
0.388912
0.368585
0.34977
0.332329
0.31614
0.301092
0.287084
0.274027
0.261839
0.250446
0.239782
0.229787
0.220404
0.211585
0.203283
0.195457
0.188068
0.181082
0.174466
0.168192
0.162231
0.15656
0.151155
0.145995
0.141061
0.136336
0.131805
0.127452
0.123267
0.119238
0.115356
0.111615
0.108008
0.10453
0.101181
0.0979559
0.0948556
0.0918793
0.0890272
0.0862996
0.0836967
0.0812184
0.0788641
0.0766328
0.0745227
0.0725317
0.0706568
0.0688945
0.0672409
0.0656918
0.0642427
0.0628888
0.0616252
0.060447
0.0593494
0.0583276
0.057377
0.0564931
0.0556716
0.0549084
0.0541998
0.0535419
0.0529314
0.0523651
0.05184
0.0513532
0.0509022
0.0504847
0.0500984
0.0497412
0.0494114
0.0491073
0.0488274
0.0485703
0.0483348
0.04812
0.0479248
0.0477487
0.0475909
0.0474513
0.0473295
0.0472256
0.04714
0.0470734
0.0470267
0.0470014
0.961696
0.892194
0.829099
0.771744
0.719539
0.671956
0.628529
0.588838
0.552512
0.51922
0.488664
0.46058
0.434732
0.410907
0.388917
0.36859
0.349775
0.332335
0.316146
0.301098
0.287091
0.274034
0.261847
0.250455
0.239791
0.229796
0.220415
0.211596
0.203295
0.195469
0.188082
0.181097
0.174482
0.168209
0.16225
0.15658
0.151177
0.146019
0.141087
0.136365
0.131836
0.127486
0.123303
0.119277
0.115399
0.11166
0.108056
0.104581
0.101234
0.0980117
0.0949134
0.0919388
0.089088
0.0863613
0.0837589
0.0812806
0.078926
0.076694
0.074583
0.0725906
0.0707141
0.06895
0.0672945
0.0657433
0.064292
0.0629358
0.0616699
0.0604894
0.0593895
0.0583655
0.0574127
0.0565267
0.0557032
0.0549381
0.0542276
0.053568
0.0529558
0.0523879
0.0518613
0.0513731
0.0509208
0.050502
0.0501145
0.0497563
0.0494256
0.0491206
0.0488398
0.0485819
0.0483457
0.0481302
0.0479345
0.0477578
0.0475997
0.0474596
0.0473375
0.0472333
0.0471475
0.0470807
0.0470339
0.0470084
0.961696
0.892194
0.829099
0.771744
0.719539
0.671957
0.628529
0.588839
0.552514
0.519221
0.488666
0.460583
0.434735
0.410911
0.388921
0.368595
0.34978
0.332341
0.316153
0.301105
0.287098
0.274042
0.261855
0.250463
0.239801
0.229806
0.220425
0.211608
0.203307
0.195483
0.188096
0.181112
0.174499
0.168227
0.16227
0.156602
0.1512
0.146044
0.141115
0.136395
0.131869
0.127522
0.123342
0.119319
0.115443
0.111707
0.108106
0.104634
0.10129
0.0980698
0.0949735
0.0920007
0.0891512
0.0864255
0.0838235
0.0813453
0.0789904
0.0767577
0.0746456
0.0726518
0.0707736
0.0690077
0.0673501
0.0657968
0.0643432
0.0629846
0.0617164
0.0605336
0.0594313
0.058405
0.05745
0.0565618
0.0557362
0.0549691
0.0542567
0.0535952
0.0529813
0.0524117
0.0518835
0.0513939
0.0509402
0.0505202
0.0501315
0.0497722
0.0494404
0.0491344
0.0488528
0.0485941
0.0483572
0.048141
0.0479447
0.0477675
0.0476088
0.0474683
0.0473458
0.0472414
0.0471554
0.0470884
0.0470414
0.0470159
0.961696
0.892194
0.829099
0.771744
0.719539
0.671957
0.62853
0.58884
0.552515
0.519223
0.488668
0.460585
0.434738
0.410914
0.388925
0.368599
0.349786
0.332346
0.316159
0.301112
0.287105
0.27405
0.261863
0.250472
0.23981
0.229817
0.220436
0.211619
0.20332
0.195497
0.188111
0.181128
0.174517
0.168246
0.16229
0.156624
0.151225
0.146071
0.141144
0.136427
0.131903
0.127559
0.123382
0.119362
0.115489
0.111756
0.108158
0.104689
0.101347
0.0981298
0.0950357
0.0920645
0.0892165
0.0864916
0.0838902
0.0814121
0.0790568
0.0768233
0.0747101
0.072715
0.0708351
0.0690672
0.0674076
0.065852
0.064396
0.0630351
0.0617644
0.0605792
0.0594746
0.0584459
0.0574886
0.0565981
0.0557704
0.0550012
0.0542868
0.0536234
0.0530077
0.0524364
0.0519066
0.0514155
0.0509604
0.050539
0.0501491
0.0497886
0.0494558
0.0491488
0.0488662
0.0486067
0.0483691
0.0481522
0.0479553
0.0477775
0.0476184
0.0474774
0.0473546
0.0472498
0.0471635
0.0470963
0.0470492
0.0470236
0.961696
0.892194
0.829098
0.771744
0.719539
0.671957
0.62853
0.58884
0.552516
0.519225
0.48867
0.460588
0.434741
0.410918
0.388929
0.368604
0.34979
0.332352
0.316165
0.301118
0.287112
0.274057
0.261871
0.250481
0.23982
0.229827
0.220448
0.211632
0.203333
0.195511
0.188126
0.181145
0.174535
0.168266
0.162312
0.156648
0.15125
0.146099
0.141174
0.136459
0.131938
0.127597
0.123423
0.119406
0.115536
0.111807
0.108212
0.104746
0.101406
0.0981914
0.0950994
0.0921301
0.0892834
0.0865595
0.0839585
0.0814805
0.0791248
0.0768906
0.0747763
0.0727797
0.0708981
0.0691283
0.0674665
0.0659086
0.0644503
0.0630869
0.0618138
0.060626
0.059519
0.0584879
0.0575282
0.0566355
0.0558055
0.0550342
0.0543177
0.0536524
0.0530349
0.0524619
0.0519304
0.0514377
0.0509812
0.0505584
0.0501673
0.0498056
0.0494716
0.0491637
0.0488802
0.0486198
0.0483814
0.0481638
0.0479662
0.0477879
0.0476282
0.0474869
0.0473636
0.0472585
0.047172
0.0471046
0.0470573
0.0470316
0.961696
0.892194
0.829098
0.771744
0.719539
0.671957
0.62853
0.588841
0.552517
0.519226
0.488672
0.46059
0.434743
0.410921
0.388932
0.368608
0.349795
0.332357
0.31617
0.301124
0.287119
0.274065
0.26188
0.25049
0.23983
0.229838
0.220459
0.211644
0.203347
0.195525
0.188142
0.181162
0.174553
0.168286
0.162334
0.156671
0.151276
0.146127
0.141205
0.136493
0.131974
0.127636
0.123465
0.119451
0.115585
0.111858
0.108266
0.104803
0.101467
0.0982542
0.0951644
0.0921969
0.0893515
0.0866286
0.0840282
0.0815502
0.0791942
0.0769592
0.0748437
0.0728456
0.0709623
0.0691905
0.0675265
0.0659664
0.0645056
0.0631398
0.0618641
0.0606739
0.0595643
0.0585307
0.0575686
0.0566736
0.0558414
0.0550679
0.0543494
0.0536821
0.0530627
0.0524879
0.0519548
0.0514605
0.0510025
0.0505784
0.0501859
0.049823
0.0494879
0.0491789
0.0488945
0.0486332
0.048394
0.0481757
0.0479774
0.0477985
0.0476383
0.0474965
0.0473729
0.0472674
0.0471806
0.047113
0.0470656
0.0470398
0.961696
0.892194
0.829098
0.771744
0.719539
0.671957
0.628531
0.588842
0.552518
0.519227
0.488673
0.460592
0.434746
0.410924
0.388936
0.368612
0.349799
0.332362
0.316176
0.301131
0.287126
0.274072
0.261888
0.250499
0.23984
0.229849
0.220471
0.211657
0.20336
0.19554
0.188158
0.18118
0.174572
0.168307
0.162356
0.156696
0.151303
0.146156
0.141236
0.136527
0.132011
0.127676
0.123508
0.119497
0.115634
0.111911
0.108322
0.104862
0.101528
0.098318
0.0952303
0.0922646
0.0894207
0.0866987
0.0840988
0.0816208
0.0792644
0.0770287
0.0749121
0.0729125
0.0710274
0.0692536
0.0675875
0.066025
0.0645618
0.0631934
0.0619152
0.0607224
0.0596103
0.0585743
0.0576098
0.0567124
0.0558779
0.0551022
0.0543816
0.0537123
0.053091
0.0525144
0.0519796
0.0514837
0.0510242
0.0505986
0.0502048
0.0498408
0.0495045
0.0491945
0.0489091
0.0486469
0.0484069
0.0481878
0.0479889
0.0478094
0.0476487
0.0475064
0.0473823
0.0472765
0.0471894
0.0471216
0.0470741
0.0470482
0.961695
0.892194
0.829098
0.771743
0.719539
0.671957
0.628531
0.588842
0.552518
0.519228
0.488674
0.460593
0.434748
0.410926
0.388939
0.368615
0.349804
0.332367
0.316181
0.301137
0.287133
0.27408
0.261896
0.250508
0.23985
0.229859
0.220483
0.211669
0.203374
0.195555
0.188175
0.181198
0.174592
0.168328
0.162379
0.156721
0.15133
0.146185
0.141268
0.136561
0.132049
0.127716
0.123552
0.119544
0.115684
0.111964
0.108378
0.104921
0.10159
0.0983824
0.0952969
0.092333
0.0894905
0.0867694
0.08417
0.0816921
0.0793354
0.0770988
0.0749811
0.0729801
0.0710932
0.0693174
0.067649
0.0660842
0.0646185
0.0632477
0.0619669
0.0607715
0.0596569
0.0586184
0.0576514
0.0567516
0.0559148
0.055137
0.0544142
0.0537429
0.0531197
0.0525413
0.0520047
0.0515072
0.0510462
0.0506192
0.0502241
0.0498588
0.0495214
0.0492103
0.0489239
0.0486608
0.0484199
0.0482002
0.0480006
0.0478204
0.0476591
0.0475164
0.0473919
0.0472858
0.0471984
0.0471303
0.0470826
0.0470567
0.961695
0.892193
0.829098
0.771743
0.719538
0.671957
0.628531
0.588842
0.552519
0.519229
0.488676
0.460595
0.43475
0.410929
0.388942
0.368619
0.349808
0.332371
0.316187
0.301143
0.28714
0.274087
0.261904
0.250517
0.239859
0.22987
0.220494
0.211682
0.203388
0.19557
0.188191
0.181216
0.174611
0.168349
0.162402
0.156746
0.151357
0.146215
0.141301
0.136596
0.132086
0.127757
0.123595
0.119591
0.115734
0.112017
0.108434
0.104981
0.101652
0.0984472
0.0953639
0.0924017
0.0895606
0.0868405
0.0842416
0.0817638
0.0794067
0.0771693
0.0750504
0.0730479
0.0711593
0.0693815
0.0677109
0.0661437
0.0646757
0.0633022
0.0620189
0.060821
0.0597038
0.0586627
0.0576933
0.0567912
0.0559521
0.055172
0.0544471
0.0537738
0.0531486
0.0525684
0.0520301
0.051531
0.0510684
0.05064
0.0502435
0.049877
0.0495384
0.0492262
0.0489388
0.0486749
0.0484332
0.0482126
0.0480123
0.0478316
0.0476697
0.0475265
0.0474016
0.0472951
0.0472074
0.0471391
0.0470913
0.0470652
0.961695
0.892193
0.829098
0.771743
0.719538
0.671957
0.628531
0.588842
0.552519
0.519229
0.488677
0.460596
0.434752
0.410931
0.388944
0.368622
0.349812
0.332376
0.316192
0.301148
0.287146
0.274094
0.261912
0.250526
0.239869
0.229881
0.220506
0.211695
0.203402
0.195586
0.188208
0.181234
0.174631
0.168371
0.162426
0.156771
0.151385
0.146245
0.141333
0.136631
0.132124
0.127798
0.12364
0.119638
0.115785
0.112071
0.108491
0.10504
0.101715
0.098512
0.0954309
0.0924705
0.0896308
0.0869116
0.0843132
0.0818355
0.079478
0.0772399
0.0751199
0.0731159
0.0712255
0.0694457
0.067773
0.0662034
0.0647329
0.063357
0.0620711
0.0608706
0.0597509
0.0587073
0.0577354
0.0568309
0.0559894
0.0552071
0.0544801
0.0538048
0.0531777
0.0525956
0.0520556
0.0515549
0.0510908
0.0506609
0.0502631
0.0498953
0.0495556
0.0492423
0.0489539
0.048689
0.0484465
0.0482251
0.0480242
0.0478428
0.0476804
0.0475366
0.0474113
0.0473045
0.0472165
0.047148
0.0470999
0.0470738
0.961695
0.892193
0.829097
0.771743
0.719538
0.671957
0.628531
0.588842
0.55252
0.51923
0.488678
0.460598
0.434753
0.410933
0.388947
0.368625
0.349815
0.33238
0.316197
0.301154
0.287152
0.274101
0.26192
0.250535
0.239879
0.229891
0.220517
0.211708
0.203416
0.195601
0.188224
0.181252
0.174651
0.168392
0.162449
0.156797
0.151412
0.146275
0.141366
0.136667
0.132162
0.127839
0.123684
0.119685
0.115835
0.112124
0.108548
0.1051
0.101777
0.0985767
0.0954977
0.0925391
0.0897007
0.0869826
0.0843847
0.081907
0.0795492
0.0773103
0.0751892
0.0731837
0.0712916
0.0695098
0.0678349
0.066263
0.0647901
0.0634116
0.0621232
0.0609202
0.0597979
0.0587518
0.0577775
0.0568706
0.0560268
0.0552423
0.0545132
0.0538358
0.0532068
0.0526229
0.0520811
0.0515788
0.0511131
0.0506818
0.0502827
0.0499136
0.0495727
0.0492584
0.048969
0.0487032
0.0484598
0.0482377
0.048036
0.047854
0.047691
0.0475468
0.047421
0.0473138
0.0472255
0.0471568
0.0471086
0.0470824
0.961695
0.892193
0.829097
0.771743
0.719538
0.671957
0.628531
0.588843
0.55252
0.519231
0.488678
0.460599
0.434755
0.410935
0.38895
0.368628
0.349819
0.332384
0.316201
0.301159
0.287158
0.274108
0.261928
0.250543
0.239888
0.229901
0.220529
0.21172
0.20343
0.195616
0.188241
0.18127
0.17467
0.168413
0.162472
0.156822
0.15144
0.146305
0.141398
0.136702
0.1322
0.12788
0.123727
0.119732
0.115885
0.112178
0.108604
0.105159
0.101839
0.0986409
0.0955641
0.0926073
0.0897703
0.0870531
0.0844557
0.0819781
0.0796199
0.0773803
0.0752581
0.0732512
0.0713573
0.0695736
0.0678965
0.0663223
0.064847
0.063466
0.0621751
0.0609695
0.0598447
0.0587962
0.0578194
0.0569101
0.0560641
0.0552774
0.0545461
0.0538667
0.0532358
0.0526501
0.0521066
0.0516026
0.0511355
0.0507027
0.0503022
0.0499319
0.0495899
0.0492744
0.0489841
0.0487174
0.0484731
0.0482502
0.0480479
0.0478652
0.0477017
0.0475569
0.0474307
0.0473231
0.0472345
0.0471656
0.0471172
0.0470909
0.961695
0.892193
0.829097
0.771742
0.719538
0.671957
0.628531
0.588843
0.55252
0.519231
0.488679
0.4606
0.434756
0.410937
0.388952
0.368631
0.349822
0.332388
0.316206
0.301165
0.287164
0.274115
0.261935
0.250552
0.239897
0.229912
0.22054
0.211732
0.203443
0.195631
0.188257
0.181287
0.17469
0.168435
0.162495
0.156847
0.151467
0.146334
0.14143
0.136736
0.132238
0.12792
0.123771
0.119779
0.115935
0.11223
0.10866
0.105217
0.1019
0.0987046
0.0956298
0.0926748
0.0898391
0.0871229
0.084526
0.0820485
0.07969
0.0774497
0.0753263
0.073318
0.0714225
0.0696368
0.0679576
0.0663812
0.0649034
0.06352
0.0622266
0.0610185
0.0598912
0.0588402
0.057861
0.0569494
0.0561011
0.0553122
0.0545789
0.0538975
0.0532646
0.0526771
0.0521319
0.0516263
0.0511577
0.0507235
0.0503217
0.0499501
0.0496069
0.0492904
0.0489991
0.0487314
0.0484863
0.0482627
0.0480596
0.0478763
0.0477123
0.047567
0.0474404
0.0473324
0.0472435
0.0471743
0.0471258
0.0470994
0.961695
0.892193
0.829097
0.771742
0.719537
0.671957
0.628531
0.588843
0.55252
0.519232
0.48868
0.460601
0.434758
0.410939
0.388954
0.368634
0.349825
0.332392
0.31621
0.30117
0.28717
0.274122
0.261943
0.25056
0.239906
0.229922
0.220551
0.211745
0.203457
0.195645
0.188273
0.181305
0.174709
0.168456
0.162518
0.156872
0.151494
0.146364
0.141462
0.136771
0.132275
0.12796
0.123814
0.119825
0.115984
0.112282
0.108715
0.105275
0.10196
0.0987674
0.0956947
0.0927414
0.0899071
0.0871918
0.0845954
0.082118
0.0797592
0.0775182
0.0753937
0.0733841
0.0714869
0.0696993
0.068018
0.0664393
0.0649592
0.0635734
0.0622775
0.061067
0.0599372
0.0588838
0.0579022
0.0569883
0.0561378
0.0553467
0.0546113
0.0539279
0.0532932
0.0527039
0.052157
0.0516498
0.0511797
0.0507441
0.050341
0.0499682
0.0496238
0.0493063
0.0490139
0.0487454
0.0484995
0.0482751
0.0480713
0.0478874
0.0477227
0.047577
0.0474499
0.0473416
0.0472523
0.0471829
0.0471342
0.0471077
0.961695
0.892193
0.829097
0.771742
0.719537
0.671956
0.628531
0.588843
0.552521
0.519232
0.488681
0.460602
0.434759
0.41094
0.388956
0.368636
0.349829
0.332396
0.316215
0.301175
0.287176
0.274128
0.26195
0.250568
0.239915
0.229932
0.220562
0.211757
0.20347
0.19566
0.188289
0.181322
0.174728
0.168476
0.162541
0.156897
0.151521
0.146393
0.141493
0.136805
0.132312
0.128
0.123856
0.11987
0.116032
0.112334
0.108769
0.105332
0.10202
0.0988292
0.0957586
0.0928069
0.089974
0.0872595
0.0846637
0.0821864
0.0798273
0.0775856
0.0754601
0.0734491
0.0715503
0.0697608
0.0680775
0.0664966
0.0650142
0.0636261
0.0623277
0.0611148
0.0599826
0.0589268
0.0579429
0.0570267
0.0561739
0.0553808
0.0546433
0.053958
0.0533214
0.0527303
0.0521818
0.051673
0.0512014
0.0507645
0.05036
0.049986
0.0496405
0.0493219
0.0490286
0.0487592
0.0485124
0.0482873
0.0480828
0.0478983
0.0477331
0.0475868
0.0474593
0.0473506
0.0472611
0.0471914
0.0471425
0.0471159
0.961695
0.892193
0.829096
0.771742
0.719537
0.671956
0.628531
0.588843
0.552521
0.519232
0.488681
0.460603
0.43476
0.410942
0.388958
0.368639
0.349831
0.332399
0.316219
0.301179
0.287181
0.274134
0.261957
0.250575
0.239924
0.229941
0.220573
0.211768
0.203483
0.195674
0.188304
0.181339
0.174746
0.168496
0.162563
0.156921
0.151547
0.146421
0.141524
0.136838
0.132348
0.128038
0.123898
0.119915
0.116079
0.112384
0.108822
0.105388
0.102078
0.0988898
0.0958211
0.0928712
0.0900395
0.087326
0.0847307
0.0822535
0.0798941
0.0776517
0.0755252
0.0735129
0.0716125
0.0698213
0.068136
0.0665529
0.0650683
0.0636778
0.0623771
0.0611617
0.0600272
0.058969
0.0579829
0.0570644
0.0562095
0.0554143
0.0546748
0.0539876
0.0533492
0.0527564
0.0522062
0.0516959
0.0512228
0.0507845
0.0503788
0.0500035
0.049657
0.0493373
0.049043
0.0487727
0.0485252
0.0482993
0.0480941
0.047909
0.0477432
0.0475965
0.0474685
0.0473595
0.0472696
0.0471997
0.0471507
0.047124
0.961695
0.892193
0.829096
0.771742
0.719537
0.671956
0.628531
0.588843
0.552521
0.519233
0.488682
0.460604
0.434761
0.410943
0.38896
0.368641
0.349834
0.332402
0.316223
0.301184
0.287186
0.27414
0.261963
0.250583
0.239932
0.22995
0.220583
0.21178
0.203495
0.195688
0.18832
0.181356
0.174764
0.168516
0.162584
0.156944
0.151573
0.146449
0.141554
0.136871
0.132383
0.128076
0.123938
0.119958
0.116126
0.112433
0.108874
0.105442
0.102135
0.098949
0.0958823
0.092934
0.0901036
0.087391
0.0847962
0.0823191
0.0799594
0.0777164
0.075589
0.0735754
0.0716735
0.0698805
0.0681932
0.0666081
0.0651212
0.0637285
0.0624255
0.0612078
0.060071
0.0590105
0.0580221
0.0571014
0.0562444
0.0554471
0.0547057
0.0540166
0.0533764
0.0527819
0.0522301
0.0517183
0.0512438
0.0508041
0.0503972
0.0500208
0.0496731
0.0493524
0.0490572
0.048786
0.0485377
0.048311
0.0481052
0.0479195
0.0477532
0.0476059
0.0474776
0.0473681
0.047278
0.0472078
0.0471587
0.0471319
0.961695
0.892192
0.829096
0.771741
0.719537
0.671956
0.62853
0.588843
0.552521
0.519233
0.488682
0.460604
0.434763
0.410945
0.388962
0.368643
0.349837
0.332406
0.316226
0.301188
0.287191
0.274146
0.26197
0.25059
0.23994
0.22996
0.220593
0.211791
0.203507
0.195701
0.188334
0.181372
0.174782
0.168536
0.162606
0.156967
0.151598
0.146476
0.141584
0.136903
0.132417
0.128113
0.123978
0.12
0.116171
0.112481
0.108924
0.105496
0.102191
0.0990067
0.0959419
0.0929952
0.0901661
0.0874544
0.0848601
0.0823831
0.0800232
0.0777796
0.0756512
0.0736364
0.0717329
0.0699382
0.0682491
0.0666619
0.065173
0.063778
0.0624727
0.0612528
0.0601137
0.059051
0.0580604
0.0571376
0.0562785
0.0554792
0.0547359
0.054045
0.053403
0.0528069
0.0522536
0.0517402
0.0512643
0.0508234
0.0504151
0.0500376
0.0496889
0.0493672
0.0490711
0.048799
0.0485499
0.0483226
0.0481161
0.0479297
0.0477629
0.0476152
0.0474864
0.0473766
0.0472862
0.0472158
0.0471664
0.0471395
0.961695
0.892192
0.829096
0.771741
0.719537
0.671956
0.62853
0.588843
0.552521
0.519233
0.488683
0.460605
0.434764
0.410946
0.388964
0.368645
0.349839
0.332409
0.31623
0.301192
0.287196
0.274151
0.261976
0.250597
0.239948
0.229968
0.220603
0.211802
0.203519
0.195714
0.188349
0.181388
0.174799
0.168554
0.162626
0.156989
0.151622
0.146502
0.141612
0.136933
0.132451
0.128149
0.124017
0.120042
0.116215
0.112528
0.108973
0.105547
0.102245
0.0990628
0.0959998
0.0930547
0.0902268
0.0875159
0.0849221
0.0824453
0.0800851
0.0778409
0.0757117
0.0736957
0.0717908
0.0699944
0.0683034
0.0667143
0.0652233
0.0638262
0.0625187
0.0612966
0.0601553
0.0590905
0.0580977
0.0571729
0.0563118
0.0555105
0.0547653
0.0540726
0.053429
0.0528312
0.0522764
0.0517616
0.0512843
0.0508421
0.0504327
0.050054
0.0497043
0.0493816
0.0490846
0.0488117
0.0485618
0.0483338
0.0481266
0.0479397
0.0477724
0.0476242
0.047495
0.0473849
0.0472941
0.0472235
0.047174
0.047147
0.961695
0.892192
0.829096
0.771741
0.719536
0.671956
0.62853
0.588843
0.552521
0.519233
0.488683
0.460606
0.434764
0.410947
0.388965
0.368647
0.349842
0.332412
0.316233
0.301196
0.287201
0.274156
0.261982
0.250604
0.239956
0.229977
0.220612
0.211812
0.203531
0.195727
0.188363
0.181403
0.174816
0.168573
0.162646
0.157011
0.151645
0.146528
0.14164
0.136963
0.132483
0.128184
0.124054
0.120081
0.116257
0.112573
0.109021
0.105597
0.102297
0.099117
0.0960559
0.0931123
0.0902855
0.0875755
0.0849822
0.0825055
0.0801451
0.0779004
0.0757703
0.0737531
0.0718469
0.0700489
0.0683562
0.0667652
0.0652721
0.063873
0.0625634
0.0613391
0.0601957
0.0591288
0.058134
0.0572071
0.0563441
0.0555409
0.0547939
0.0540995
0.0534542
0.0528549
0.0522985
0.0517824
0.0513038
0.0508603
0.0504497
0.05007
0.0497192
0.0493956
0.0490977
0.048824
0.0485734
0.0483446
0.0481369
0.0479494
0.0477815
0.0476329
0.0475033
0.0473928
0.0473018
0.047231
0.0471813
0.0471542
0.961695
0.892192
0.829096
0.771741
0.719536
0.671955
0.62853
0.588843
0.552521
0.519234
0.488684
0.460606
0.434765
0.410949
0.388967
0.368649
0.349844
0.332414
0.316237
0.3012
0.287205
0.274161
0.261988
0.25061
0.239963
0.229985
0.220621
0.211822
0.203542
0.195739
0.188376
0.181418
0.174832
0.16859
0.162665
0.157032
0.151668
0.146553
0.141667
0.136992
0.132514
0.128217
0.12409
0.12012
0.116298
0.112616
0.109067
0.105645
0.102347
0.0991694
0.09611
0.0931678
0.0903422
0.087633
0.0850402
0.0825637
0.0802031
0.0779578
0.0758269
0.0738087
0.0719011
0.0701016
0.0684072
0.0668143
0.0653194
0.0639182
0.0626066
0.0613803
0.0602348
0.0591658
0.058169
0.0572402
0.0563753
0.0555704
0.0548216
0.0541255
0.0534786
0.0528778
0.05232
0.0518025
0.0513226
0.0508779
0.0504662
0.0500854
0.0497336
0.0494092
0.0491104
0.0488359
0.0485846
0.0483552
0.0481468
0.0479588
0.0477904
0.0476413
0.0475114
0.0474006
0.0473093
0.0472382
0.0471884
0.0471612
0.961695
0.892192
0.829096
0.771741
0.719536
0.671955
0.62853
0.588843
0.552521
0.519234
0.488684
0.460607
0.434766
0.41095
0.388968
0.368651
0.349846
0.332417
0.31624
0.301204
0.287209