/*--------------------------------*- C++ -*----------------------------------*\
  =========                 |
  \\      /  F ield         | OpenFOAM: The Open Source CFD Toolbox
   \\    /   O peration     | Website:  https://openfoam.org
    \\  /    A nd           | Version:  11
     \\/     M anipulation  |
\*---------------------------------------------------------------------------*/
FoamFile
{
    format      ascii;
    class       volScalarField;
    location    "736";
    object      p;
}
// * * * * * * * * * * * * * * * * * * * * * * * * * * * * * * * * * * * * * //

dimensions      [0 2 -2 0 0 0 0];

internalField   nonuniform List<scalar> 
10000
(
5.44012e-10
5.2539e-10
5.43351e-10
5.86889e-10
6.38281e-10
6.9354e-10
7.52259e-10
8.143e-10
8.79644e-10
9.48416e-10
1.02083e-09
1.09712e-09
1.17757e-09
1.26245e-09
1.35204e-09
1.44664e-09
1.54655e-09
1.65208e-09
1.76354e-09
1.88126e-09
2.00558e-09
2.13683e-09
2.27536e-09
2.42154e-09
2.57573e-09
2.73832e-09
2.90968e-09
3.09023e-09
3.28035e-09
3.48047e-09
3.69101e-09
3.9124e-09
4.14508e-09
4.38949e-09
4.64608e-09
4.91531e-09
5.19764e-09
5.49352e-09
5.80343e-09
6.12782e-09
6.46716e-09
6.8219e-09
7.1925e-09
7.57941e-09
7.98305e-09
8.40385e-09
8.84222e-09
9.29853e-09
9.77314e-09
1.02664e-08
1.07786e-08
1.131e-08
1.18608e-08
1.24312e-08
1.30213e-08
1.36311e-08
1.42606e-08
1.49097e-08
1.55783e-08
1.62659e-08
1.69721e-08
1.76965e-08
1.84382e-08
1.91965e-08
1.99702e-08
2.07582e-08
2.15589e-08
2.23705e-08
2.31912e-08
2.40184e-08
2.48496e-08
2.56816e-08
2.65109e-08
2.73335e-08
2.81448e-08
2.89396e-08
2.97119e-08
3.04552e-08
3.11619e-08
3.18235e-08
3.24303e-08
3.29715e-08
3.34349e-08
3.38065e-08
3.40707e-08
3.42098e-08
3.42037e-08
3.40297e-08
3.36617e-08
3.30699e-08
3.22202e-08
3.10725e-08
2.95795e-08
2.76835e-08
2.53126e-08
2.23802e-08
1.87602e-08
1.41175e-08
7.92008e-09
4.43434e-10
9.67787e-10
8.99335e-10
8.56605e-10
8.6969e-10
9.07506e-10
9.57821e-10
1.01726e-09
1.08405e-09
1.1571e-09
1.23589e-09
1.32021e-09
1.41007e-09
1.50557e-09
1.60687e-09
1.71421e-09
1.82783e-09
1.94804e-09
2.07514e-09
2.20945e-09
2.35134e-09
2.50115e-09
2.65926e-09
2.82607e-09
3.00198e-09
3.18739e-09
3.38274e-09
3.58846e-09
3.805e-09
4.03282e-09
4.27238e-09
4.52415e-09
4.78863e-09
5.0663e-09
5.35765e-09
5.66319e-09
5.98343e-09
6.31886e-09
6.67001e-09
7.03736e-09
7.42144e-09
7.82273e-09
8.24173e-09
8.67892e-09
9.13476e-09
9.60971e-09
1.01042e-08
1.06186e-08
1.11534e-08
1.17088e-08
1.22852e-08
1.28828e-08
1.35018e-08
1.41424e-08
1.48047e-08
1.54886e-08
1.61942e-08
1.69211e-08
1.76692e-08
1.8438e-08
1.92271e-08
2.00356e-08
2.08628e-08
2.17076e-08
2.25687e-08
2.34448e-08
2.4334e-08
2.52343e-08
2.61434e-08
2.70586e-08
2.79767e-08
2.88943e-08
2.98073e-08
3.07111e-08
3.16005e-08
3.24698e-08
3.33121e-08
3.41201e-08
3.48852e-08
3.5598e-08
3.62477e-08
3.68223e-08
3.73081e-08
3.76898e-08
3.79502e-08
3.80698e-08
3.80266e-08
3.77956e-08
3.73486e-08
3.66535e-08
3.56733e-08
3.43655e-08
3.26807e-08
3.05602e-08
2.79322e-08
2.47097e-08
2.08026e-08
1.60914e-08
1.00492e-08
1.47814e-09
-6.10637e-09
1.1199e-09
1.02739e-09
9.46949e-10
9.22999e-10
9.29093e-10
9.5212e-10
9.87635e-10
1.03296e-09
1.08625e-09
1.14637e-09
1.2127e-09
1.28485e-09
1.36267e-09
1.4461e-09
1.53517e-09
1.62999e-09
1.7307e-09
1.83749e-09
1.95058e-09
2.07021e-09
2.19662e-09
2.33011e-09
2.47096e-09
2.61947e-09
2.77597e-09
2.94079e-09
3.11425e-09
3.29671e-09
3.48852e-09
3.69005e-09
3.90166e-09
4.12374e-09
4.35665e-09
4.60078e-09
4.85651e-09
5.12423e-09
5.40432e-09
5.69716e-09
6.00314e-09
6.32262e-09
6.65597e-09
7.00353e-09
7.36566e-09
7.74268e-09
8.13489e-09
8.54259e-09
8.96602e-09
9.40542e-09
9.86098e-09
1.03329e-08
1.08212e-08
1.1326e-08
1.18472e-08
1.2385e-08
1.2939e-08
1.35091e-08
1.40949e-08
1.46962e-08
1.53123e-08
1.59425e-08
1.65863e-08
1.72424e-08
1.791e-08
1.85876e-08
1.92737e-08
1.99666e-08
2.06643e-08
2.13645e-08
2.20645e-08
2.27613e-08
2.34516e-08
2.41314e-08
2.47966e-08
2.54421e-08
2.60626e-08
2.66518e-08
2.72027e-08
2.77077e-08
2.81579e-08
2.85436e-08
2.88538e-08
2.90761e-08
2.91967e-08
2.92e-08
2.90687e-08
2.87831e-08
2.8321e-08
2.76575e-08
2.67643e-08
2.5609e-08
2.41549e-08
2.23596e-08
2.01733e-08
1.75362e-08
1.438e-08
1.06534e-08
6.29137e-09
6.78141e-10
-7.62567e-09
-1.20855e-08
1.2364e-09
1.13728e-09
1.04953e-09
1.0114e-09
1.00194e-09
1.01056e-09
1.0332e-09
1.06709e-09
1.11016e-09
1.16105e-09
1.21888e-09
1.28309e-09
1.35333e-09
1.42943e-09
1.51128e-09
1.5989e-09
1.69235e-09
1.79173e-09
1.8972e-09
2.00893e-09
2.12712e-09
2.252e-09
2.38382e-09
2.52281e-09
2.66927e-09
2.82346e-09
2.98567e-09
3.15622e-09
3.33539e-09
3.52351e-09
3.7209e-09
3.92787e-09
4.14476e-09
4.37188e-09
4.60956e-09
4.85813e-09
5.11791e-09
5.38923e-09
5.67238e-09
5.96767e-09
6.27541e-09
6.59586e-09
6.92929e-09
7.27595e-09
7.63606e-09
8.00983e-09
8.39742e-09
8.79898e-09
9.2146e-09
9.64435e-09
1.00882e-08
1.05462e-08
1.10182e-08
1.1504e-08
1.20034e-08
1.2516e-08
1.30415e-08
1.35792e-08
1.41286e-08
1.4689e-08
1.52592e-08
1.58385e-08
1.64253e-08
1.70184e-08
1.76161e-08
1.82165e-08
1.88175e-08
1.94165e-08
2.00109e-08
2.05975e-08
2.11728e-08
2.17329e-08
2.22732e-08
2.27889e-08
2.32744e-08
2.37233e-08
2.41288e-08
2.44829e-08
2.4777e-08
2.50012e-08
2.51448e-08
2.51954e-08
2.51396e-08
2.49621e-08
2.46458e-08
2.41719e-08
2.3519e-08
2.26632e-08
2.15777e-08
2.02321e-08
1.85925e-08
1.66201e-08
1.42708e-08
1.14925e-08
8.22985e-09
4.45826e-09
1.44354e-10
-5.40818e-09
-1.37674e-08
-1.64811e-08
1.32143e-09
1.22338e-09
1.13742e-09
1.0941e-09
1.07662e-09
1.07686e-09
1.09152e-09
1.11807e-09
1.15452e-09
1.19943e-09
1.25185e-09
1.31112e-09
1.37678e-09
1.44856e-09
1.52631e-09
1.60994e-09
1.69945e-09
1.79491e-09
1.89641e-09
2.00408e-09
2.11808e-09
2.23861e-09
2.36585e-09
2.50005e-09
2.64142e-09
2.79022e-09
2.9467e-09
3.11113e-09
3.28378e-09
3.46494e-09
3.65487e-09
3.85388e-09
4.06223e-09
4.28023e-09
4.50815e-09
4.74627e-09
4.99488e-09
5.25424e-09
5.52462e-09
5.80627e-09
6.09942e-09
6.40431e-09
6.72113e-09
7.05008e-09
7.39131e-09
7.74496e-09
8.11112e-09
8.48987e-09
8.88123e-09
9.28517e-09
9.70163e-09
1.01305e-08
1.05715e-08
1.10245e-08
1.1489e-08
1.19647e-08
1.2451e-08
1.29474e-08
1.34529e-08
1.39668e-08
1.44879e-08
1.50152e-08
1.55472e-08
1.60824e-08
1.66189e-08
1.71547e-08
1.76876e-08
1.82149e-08
1.87336e-08
1.92406e-08
1.97321e-08
2.0204e-08
2.06517e-08
2.107e-08
2.14532e-08
2.17949e-08
2.2088e-08
2.23244e-08
2.24953e-08
2.25908e-08
2.26001e-08
2.25109e-08
2.23096e-08
2.19813e-08
2.1509e-08
2.08742e-08
2.00562e-08
1.90319e-08
1.77757e-08
1.6259e-08
1.44501e-08
1.2314e-08
9.81128e-09
6.89685e-09
3.52605e-09
-3.07339e-10
-4.62278e-09
-1.01805e-08
-1.84852e-08
-2.01815e-08
1.37642e-09
1.28271e-09
1.2002e-09
1.15462e-09
1.13204e-09
1.12621e-09
1.13454e-09
1.15486e-09
1.18533e-09
1.22461e-09
1.27169e-09
1.32589e-09
1.3867e-09
1.45378e-09
1.52691e-09
1.60597e-09
1.6909e-09
1.78171e-09
1.87845e-09
1.98121e-09
2.09013e-09
2.20533e-09
2.327e-09
2.45531e-09
2.59047e-09
2.73269e-09
2.8822e-09
3.03922e-09
3.20398e-09
3.37674e-09
3.55774e-09
3.74721e-09
3.94542e-09
4.1526e-09
4.36899e-09
4.59484e-09
4.83037e-09
5.07581e-09
5.33137e-09
5.59724e-09
5.87362e-09
6.16068e-09
6.45855e-09
6.76736e-09
7.08721e-09
7.41817e-09
7.76026e-09
8.11349e-09
8.4778e-09
8.85309e-09
9.23922e-09
9.63596e-09
1.0043e-08
1.04601e-08
1.08867e-08
1.13224e-08
1.17664e-08
1.22181e-08
1.26766e-08
1.31409e-08
1.36099e-08
1.40822e-08
1.45563e-08
1.50306e-08
1.55032e-08
1.59718e-08
1.64341e-08
1.68873e-08
1.73285e-08
1.77542e-08
1.81605e-08
1.85433e-08
1.88979e-08
1.9219e-08
1.95008e-08
1.97367e-08
1.99197e-08
2.00417e-08
2.00939e-08
2.00665e-08
1.99487e-08
1.97284e-08
1.93924e-08
1.8926e-08
1.8313e-08
1.75355e-08
1.65737e-08
1.54059e-08
1.40081e-08
1.23542e-08
1.04155e-08
8.16098e-09
5.55699e-09
2.56569e-09
-8.46999e-10
-4.67167e-09
-8.91595e-09
-1.43697e-08
-2.23891e-08
-2.33648e-08
1.40958e-09
1.32127e-09
1.24291e-09
1.19685e-09
1.17123e-09
1.1611e-09
1.1645e-09
1.17961e-09
1.20484e-09
1.23894e-09
1.28095e-09
1.33018e-09
1.38611e-09
1.44835e-09
1.51666e-09
1.59085e-09
1.67085e-09
1.75661e-09
1.84815e-09
1.94553e-09
2.04883e-09
2.15816e-09
2.27365e-09
2.39546e-09
2.52376e-09
2.65872e-09
2.80052e-09
2.94938e-09
3.10548e-09
3.26904e-09
3.44025e-09
3.61933e-09
3.80649e-09
4.00193e-09
4.20584e-09
4.41843e-09
4.63987e-09
4.87034e-09
5.11001e-09
5.35903e-09
5.61752e-09
5.8856e-09
6.16336e-09
6.45086e-09
6.74814e-09
7.0552e-09
7.372e-09
7.69848e-09
8.03451e-09
8.37993e-09
8.73449e-09
9.09792e-09
9.46986e-09
9.84987e-09
1.02374e-08
1.06319e-08
1.10326e-08
1.14387e-08
1.18493e-08
1.22632e-08
1.26792e-08
1.30959e-08
1.35117e-08
1.39248e-08
1.43332e-08
1.47348e-08
1.51268e-08
1.55066e-08
1.58711e-08
1.62166e-08
1.65394e-08
1.68352e-08
1.70992e-08
1.73261e-08
1.751e-08
1.76446e-08
1.77227e-08
1.77363e-08
1.76768e-08
1.75345e-08
1.72989e-08
1.69582e-08
1.64997e-08
1.59093e-08
1.51714e-08
1.42692e-08
1.31841e-08
1.18959e-08
1.03829e-08
8.62119e-09
6.58568e-09
4.24966e-09
1.58489e-09
-1.4394e-09
-4.84778e-09
-8.61784e-09
-1.27488e-08
-1.80594e-08
-2.57756e-08
-2.61143e-08
1.42691e-09
1.34418e-09
1.27024e-09
1.2249e-09
1.19774e-09
1.18476e-09
1.18446e-09
1.19539e-09
1.21616e-09
1.24568e-09
1.28307e-09
1.32766e-09
1.37891e-09
1.43645e-09
1.49999e-09
1.56934e-09
1.64437e-09
1.72501e-09
1.81126e-09
1.90312e-09
2.00066e-09
2.10396e-09
2.21311e-09
2.32824e-09
2.44948e-09
2.57697e-09
2.71089e-09
2.85137e-09
2.9986e-09
3.15274e-09
3.31397e-09
3.48245e-09
3.65836e-09
3.84186e-09
4.0331e-09
4.23224e-09
4.43943e-09
4.65478e-09
4.87842e-09
5.11045e-09
5.35094e-09
5.59996e-09
5.85755e-09
6.12371e-09
6.39841e-09
6.68161e-09
6.97321e-09
7.27307e-09
7.58099e-09
7.89676e-09
8.22006e-09
8.55054e-09
8.88776e-09
9.23121e-09
9.58031e-09
9.93435e-09
1.02925e-08
1.0654e-08
1.10176e-08
1.13823e-08
1.17467e-08
1.21094e-08
1.24686e-08
1.28224e-08
1.31689e-08
1.35057e-08
1.38302e-08
1.41395e-08
1.44305e-08
1.46996e-08
1.49428e-08
1.5156e-08
1.53343e-08
1.54724e-08
1.55646e-08
1.56045e-08
1.55849e-08
1.54982e-08
1.53358e-08
1.50884e-08
1.47457e-08
1.42965e-08
1.37286e-08
1.30285e-08
1.21816e-08
1.1172e-08
9.98272e-09
8.59512e-09
6.98945e-09
5.14472e-09
3.03894e-09
6.49594e-10
-2.04646e-09
-5.07377e-09
-8.44883e-09
-1.21372e-08
-1.61283e-08
-2.12824e-08
-2.88314e-08
-2.84638e-08
1.43193e-09
1.35448e-09
1.28488e-09
1.24091e-09
1.21321e-09
1.1984e-09
1.19537e-09
1.20293e-09
1.21994e-09
1.24543e-09
1.27861e-09
1.31886e-09
1.36566e-09
1.41865e-09
1.47751e-09
1.54204e-09
1.6121e-09
1.68759e-09
1.76848e-09
1.85474e-09
1.94642e-09
2.04357e-09
2.14625e-09
2.25455e-09
2.36859e-09
2.48848e-09
2.61434e-09
2.7463e-09
2.8845e-09
3.02908e-09
3.18017e-09
3.3379e-09
3.50241e-09
3.67384e-09
3.85228e-09
4.03787e-09
4.23069e-09
4.43084e-09
4.63838e-09
4.85337e-09
5.07584e-09
5.30581e-09
5.54325e-09
5.78813e-09
6.04036e-09
6.29984e-09
6.56641e-09
6.83987e-09
7.11998e-09
7.40643e-09
7.69887e-09
7.99687e-09
8.29993e-09
8.60748e-09
8.91884e-09
9.23327e-09
9.54989e-09
9.86773e-09
1.01857e-08
1.05025e-08
1.08168e-08
1.11271e-08
1.14315e-08
1.17282e-08
1.2015e-08
1.22896e-08
1.25493e-08
1.27912e-08
1.30121e-08
1.32084e-08
1.33763e-08
1.35114e-08
1.36089e-08
1.36638e-08
1.36702e-08
1.36218e-08
1.35118e-08
1.33326e-08
1.3076e-08
1.2733e-08
1.22936e-08
1.17473e-08
1.10822e-08
1.02859e-08
9.34467e-09
8.24376e-09
6.96744e-09
5.49895e-09
3.82056e-09
1.91383e-09
-2.40122e-10
-2.66009e-09
-5.36468e-09
-8.37318e-09
-1.16953e-08
-1.52845e-08
-1.91154e-08
-2.41003e-08
-3.16441e-08
-3.04509e-08
1.42695e-09
1.3542e-09
1.28867e-09
1.24644e-09
1.21882e-09
1.20292e-09
1.19786e-09
1.2027e-09
1.2165e-09
1.23841e-09
1.26775e-09
1.30394e-09
1.3465e-09
1.39506e-09
1.44933e-09
1.50909e-09
1.57418e-09
1.64449e-09
1.71995e-09
1.80055e-09
1.88627e-09
1.97716e-09
2.07324e-09
2.1746e-09
2.2813e-09
2.39343e-09
2.51109e-09
2.63438e-09
2.7634e-09
2.89826e-09
3.03907e-09
3.18591e-09
3.3389e-09
3.49812e-09
3.66365e-09
3.83557e-09
4.01394e-09
4.1988e-09
4.39018e-09
4.58809e-09
4.79253e-09
5.00344e-09
5.22078e-09
5.44444e-09
5.6743e-09
5.91019e-09
6.15192e-09
6.39922e-09
6.65179e-09
6.90927e-09
7.17126e-09
7.43726e-09
7.70671e-09
7.97898e-09
8.25334e-09
8.52897e-09
8.80495e-09
9.08024e-09
9.35368e-09
9.62397e-09
9.88966e-09
1.01491e-08
1.04006e-08
1.06422e-08
1.08716e-08
1.10864e-08
1.12841e-08
1.14616e-08
1.16157e-08
1.1743e-08
1.18394e-08
1.19008e-08
1.19225e-08
1.18993e-08
1.18256e-08
1.16954e-08
1.15019e-08
1.12378e-08
1.08952e-08
1.04654e-08
9.93917e-09
9.30622e-09
8.55562e-09
7.67556e-09
6.65336e-09
5.47549e-09
4.12759e-09
2.59456e-09
8.60668e-10
-1.0902e-09
-3.27416e-09
-5.70673e-09
-8.40274e-09
-1.13774e-08
-1.46352e-08
-1.8119e-08
-2.17887e-08
-2.66185e-08
-3.42677e-08
-3.22914e-08
1.41364e-09
1.34486e-09
1.28307e-09
1.24277e-09
1.21566e-09
1.19916e-09
1.19261e-09
1.19525e-09
1.20628e-09
1.22501e-09
1.25083e-09
1.2832e-09
1.32171e-09
1.36599e-09
1.41576e-09
1.4708e-09
1.53094e-09
1.59605e-09
1.66607e-09
1.74094e-09
1.82064e-09
1.90517e-09
1.99457e-09
2.08888e-09
2.18813e-09
2.2924e-09
2.40175e-09
2.51625e-09
2.63598e-09
2.76101e-09
2.89142e-09
3.02728e-09
3.16864e-09
3.31557e-09
3.46812e-09
3.62631e-09
3.79017e-09
3.95971e-09
4.13492e-09
4.31577e-09
4.50219e-09
4.69411e-09
4.89143e-09
5.094e-09
5.30165e-09
5.51417e-09
5.73129e-09
5.95272e-09
6.1781e-09
6.40703e-09
6.63903e-09
6.87357e-09
7.11004e-09
7.34773e-09
7.58589e-09
7.82363e-09
8.05998e-09
8.29385e-09
8.52403e-09
8.74917e-09
8.96779e-09
9.17824e-09
9.3787e-09
9.56716e-09
9.74143e-09
9.89908e-09
1.00374e-08
1.01536e-08
1.02443e-08
1.03061e-08
1.03351e-08
1.03272e-08
1.02777e-08
1.01816e-08
1.00336e-08
9.82759e-09
9.55723e-09
9.21548e-09
8.79476e-09
8.28683e-09
7.68284e-09
6.97322e-09
6.14771e-09
5.19534e-09
4.1044e-09
2.86253e-09
1.45671e-09
-1.26594e-10
-1.90128e-09
-3.88139e-09
-6.08063e-09
-8.51181e-09
-1.11868e-08
-1.41178e-08
-1.73062e-08
-2.06863e-08
-2.4207e-08
-2.89122e-08
-3.6741e-08
-3.41205e-08
1.39319e-09
1.32747e-09
1.26917e-09
1.23098e-09
1.20467e-09
1.18794e-09
1.18029e-09
1.18112e-09
1.18977e-09
1.20565e-09
1.22821e-09
1.25701e-09
1.29165e-09
1.33179e-09
1.37715e-09
1.42753e-09
1.48275e-09
1.54268e-09
1.60723e-09
1.67634e-09
1.74997e-09
1.82811e-09
1.91076e-09
1.99794e-09
2.08967e-09
2.186e-09
2.28695e-09
2.39259e-09
2.50295e-09
2.61808e-09
2.73803e-09
2.86283e-09
2.99252e-09
3.12713e-09
3.26665e-09
3.4111e-09
3.56046e-09
3.71471e-09
3.87378e-09
4.03762e-09
4.20612e-09
4.37917e-09
4.55662e-09
4.73829e-09
4.92395e-09
5.11334e-09
5.30618e-09
5.5021e-09
5.70072e-09
5.90157e-09
6.10413e-09
6.30783e-09
6.512e-09
6.71591e-09
6.91873e-09
7.11955e-09
7.31735e-09
7.51099e-09
7.69924e-09
7.8807e-09
8.05386e-09
8.21705e-09
8.36841e-09
8.50595e-09
8.62743e-09
8.73043e-09
8.8123e-09
8.87013e-09
8.90076e-09
8.90073e-09
8.86628e-09
8.79329e-09
8.67731e-09
8.51347e-09
8.29653e-09
8.02075e-09
7.67997e-09
7.26749e-09
6.7761e-09
6.19803e-09
5.52493e-09
4.74786e-09
3.85726e-09
2.84301e-09
1.69435e-09
4.00029e-10
-1.0517e-09
-2.67293e-09
-4.47593e-09
-6.4729e-09
-8.67557e-09
-1.10946e-08
-1.37395e-08
-1.66207e-08
-1.97375e-08
-2.3018e-08
-2.64024e-08
-3.10052e-08
-3.90431e-08
-3.58803e-08
1.36693e-09
1.30252e-09
1.24778e-09
1.21198e-09
1.1867e-09
1.17e-09
1.16156e-09
1.16089e-09
1.16746e-09
1.18075e-09
1.20031e-09
1.22573e-09
1.25666e-09
1.29278e-09
1.33384e-09
1.37963e-09
1.42998e-09
1.48475e-09
1.54384e-09
1.60719e-09
1.67473e-09
1.74645e-09
1.82231e-09
1.90232e-09
1.98648e-09
2.07481e-09
2.16733e-09
2.26405e-09
2.365e-09
2.47019e-09
2.57965e-09
2.69337e-09
2.81137e-09
2.93364e-09
3.06016e-09
3.19089e-09
3.3258e-09
3.4648e-09
3.60783e-09
3.75477e-09
3.9055e-09
4.05984e-09
4.21762e-09
4.37862e-09
4.54256e-09
4.70917e-09
4.87808e-09
5.04892e-09
5.22124e-09
5.39454e-09
5.56827e-09
5.7418e-09
5.91444e-09
6.08539e-09
6.25381e-09
6.41874e-09
6.57912e-09
6.7338e-09
6.88149e-09
7.02079e-09
7.15015e-09
7.26789e-09
7.37215e-09
7.46092e-09
7.53197e-09
7.58291e-09
7.6111e-09
7.61367e-09
7.58753e-09
7.52927e-09
7.43522e-09
7.30139e-09
7.12347e-09
6.89676e-09
6.6162e-09
6.27633e-09
5.87125e-09
5.39461e-09
4.8396e-09
4.19889e-09
3.46469e-09
2.62867e-09
1.68198e-09
6.15283e-10
-5.81218e-10
-1.91775e-09
-3.40489e-09
-5.05342e-09
-6.87417e-09
-8.87779e-09
-1.10743e-08
-1.34727e-08
-1.60809e-08
-1.8908e-08
-2.19522e-08
-2.51367e-08
-2.83944e-08
-3.29049e-08
-4.11444e-08
-3.75026e-08
1.33682e-09
1.27045e-09
1.21996e-09
1.18681e-09
1.16263e-09
1.14611e-09
1.13706e-09
1.13511e-09
1.13982e-09
1.15075e-09
1.1675e-09
1.18972e-09
1.21709e-09
1.24932e-09
1.28618e-09
1.32746e-09
1.37299e-09
1.42264e-09
1.4763e-09
1.53389e-09
1.59535e-09
1.66062e-09
1.72968e-09
1.80251e-09
1.87908e-09
1.9594e-09
2.04345e-09
2.13124e-09
2.22277e-09
2.31801e-09
2.41698e-09
2.51964e-09
2.62597e-09
2.73594e-09
2.8495e-09
2.96658e-09
3.08711e-09
3.21099e-09
3.3381e-09
3.46829e-09
3.60142e-09
3.73727e-09
3.87563e-09
4.01624e-09
4.15879e-09
4.30297e-09
4.44838e-09
4.5946e-09
4.74115e-09
4.8875e-09
5.03305e-09
5.17714e-09
5.31903e-09
5.45792e-09
5.59292e-09
5.72303e-09
5.84718e-09
5.96418e-09
6.07274e-09
6.17142e-09
6.25867e-09
6.33281e-09
6.39197e-09
6.43415e-09
6.45715e-09
6.45859e-09
6.43588e-09
6.38621e-09
6.30653e-09
6.19356e-09
6.04371e-09
5.85313e-09
5.61766e-09
5.3328e-09
4.9937e-09
4.59516e-09
4.13159e-09
3.59698e-09
2.98494e-09
2.2886e-09
1.5007e-09
6.13506e-10
-3.81119e-10
-1.49174e-09
-2.72729e-09
-4.09702e-09
-5.61044e-09
-7.27716e-09
-9.10677e-09
-1.11086e-08
-1.32913e-08
-1.56625e-08
-1.82288e-08
-2.09986e-08
-2.39695e-08
-2.70608e-08
-3.01982e-08
-3.46196e-08
-4.30373e-08
-3.89671e-08
1.29578e-09
1.23499e-09
1.18833e-09
1.15667e-09
1.13329e-09
1.11694e-09
1.10739e-09
1.10432e-09
1.10734e-09
1.11608e-09
1.1302e-09
1.14937e-09
1.17332e-09
1.20178e-09
1.23453e-09
1.27137e-09
1.31215e-09
1.35674e-09
1.405e-09
1.45687e-09
1.51226e-09
1.57111e-09
1.63337e-09
1.69901e-09
1.768e-09
1.84031e-09
1.91591e-09
1.99478e-09
2.07689e-09
2.16222e-09
2.25072e-09
2.34236e-09
2.43708e-09
2.53482e-09
2.6355e-09
2.73903e-09
2.8453e-09
2.95419e-09
3.06555e-09
3.1792e-09
3.29494e-09
3.41255e-09
3.53178e-09
3.65232e-09
3.77386e-09
3.89602e-09
4.01838e-09
4.1405e-09
4.26185e-09
4.38187e-09
4.49994e-09
4.61535e-09
4.72736e-09
4.83511e-09
4.9377e-09
5.03411e-09
5.12324e-09
5.2039e-09
5.27476e-09
5.3344e-09
5.38126e-09
5.41364e-09
5.42972e-09
5.42748e-09
5.40478e-09
5.35926e-09
5.2884e-09
5.18944e-09
5.05943e-09
4.89516e-09
4.69319e-09
4.44981e-09
4.16102e-09
3.82253e-09
3.42972e-09
2.97766e-09
2.46106e-09
1.8743e-09
1.21135e-09
4.65849e-10
-3.68966e-10
-1.30022e-09
-2.3354e-09
-3.48233e-09
-4.74913e-09
-6.14416e-09
-7.67596e-09
-9.35309e-09
-1.11841e-08
-1.31771e-08
-1.53397e-08
-1.76784e-08
-2.01989e-08
-2.2909e-08
-2.58061e-08
-2.88058e-08
-3.18275e-08
-3.61597e-08
-4.4726e-08
-4.02728e-08
1.24585e-09
1.19514e-09
1.15178e-09
1.12156e-09
1.09907e-09
1.08296e-09
1.07302e-09
1.06897e-09
1.07046e-09
1.07716e-09
1.08879e-09
1.10506e-09
1.12571e-09
1.15051e-09
1.17925e-09
1.21175e-09
1.24785e-09
1.28742e-09
1.33035e-09
1.37653e-09
1.42588e-09
1.47834e-09
1.53384e-09
1.59232e-09
1.65375e-09
1.71808e-09
1.78526e-09
1.85525e-09
1.92799e-09
2.00345e-09
2.08155e-09
2.16224e-09
2.24543e-09
2.33103e-09
2.41895e-09
2.50907e-09
2.60124e-09
2.69532e-09
2.79112e-09
2.88845e-09
2.98708e-09
3.08674e-09
3.18716e-09
3.28801e-09
3.38892e-09
3.48952e-09
3.58934e-09
3.6879e-09
3.78466e-09
3.87902e-09
3.97034e-09
4.05789e-09
4.14088e-09
4.21846e-09
4.28969e-09
4.35354e-09
4.4089e-09
4.45456e-09
4.48919e-09
4.51137e-09
4.51955e-09
4.51204e-09
4.48703e-09
4.44254e-09
4.37647e-09
4.2865e-09
4.17017e-09
4.02482e-09
3.84756e-09
3.63533e-09
3.3848e-09
3.09241e-09
2.75434e-09
2.36652e-09
1.92457e-09
1.42384e-09
8.59353e-10
2.2583e-10
-4.82327e-10
-1.27104e-09
-2.14657e-09
-3.11545e-09
-4.18456e-09
-5.36101e-09
-6.65218e-09
-8.06562e-09
-9.60897e-09
-1.12899e-08
-1.3116e-08
-1.50944e-08
-1.72318e-08
-1.95338e-08
-2.20055e-08
-2.4654e-08
-2.74767e-08
-3.03859e-08
-3.32951e-08
-3.75364e-08
-4.62199e-08
-4.14246e-08
1.19234e-09
1.14996e-09
1.11014e-09
1.08178e-09
1.06035e-09
1.04462e-09
1.03442e-09
1.02951e-09
1.0296e-09
1.0344e-09
1.04367e-09
1.05716e-09
1.07463e-09
1.09588e-09
1.12071e-09
1.14895e-09
1.18045e-09
1.21508e-09
1.25272e-09
1.29327e-09
1.33665e-09
1.38276e-09
1.43154e-09
1.48292e-09
1.53684e-09
1.59324e-09
1.65205e-09
1.71321e-09
1.77666e-09
1.84232e-09
1.91012e-09
1.97995e-09
2.05173e-09
2.12533e-09
2.20064e-09
2.2775e-09
2.35576e-09
2.43524e-09
2.51573e-09
2.59699e-09
2.67879e-09
2.76083e-09
2.8428e-09
2.92435e-09
3.0051e-09
3.08461e-09
3.16242e-09
3.23801e-09
3.31082e-09
3.38023e-09
3.44556e-09
3.50608e-09
3.56097e-09
3.60936e-09
3.6503e-09
3.68276e-09
3.70561e-09
3.71763e-09
3.71751e-09
3.70382e-09
3.67503e-09
3.62947e-09
3.56535e-09
3.48076e-09
3.37359e-09
3.24163e-09
3.08247e-09
2.89353e-09
2.67204e-09
2.41505e-09
2.11936e-09
1.78159e-09
1.3981e-09
9.65034e-10
4.78263e-10
-6.65951e-11
-6.74193e-10
-1.34946e-09
-2.09759e-09
-2.92407e-09
-3.83466e-09
-4.83537e-09
-5.93247e-09
-7.13244e-09
-8.44195e-09
-9.8678e-09
-1.14169e-08
-1.3096e-08
-1.49119e-08
-1.6871e-08
-1.89791e-08
-2.12412e-08
-2.36615e-08
-2.62471e-08
-2.89949e-08
-3.18145e-08
-3.46138e-08
-3.8762e-08
-4.75316e-08
-4.24309e-08
1.13686e-09
1.10118e-09
1.0648e-09
1.03813e-09
1.01774e-09
1.00243e-09
9.9204e-10
9.86369e-10
9.85166e-10
9.88194e-10
9.95227e-10
1.00605e-09
1.02046e-09
1.03826e-09
1.05927e-09
1.08334e-09
1.11033e-09
1.1401e-09
1.17253e-09
1.20752e-09
1.24498e-09
1.28481e-09
1.32694e-09
1.37128e-09
1.41776e-09
1.4663e-09
1.51682e-09
1.56925e-09
1.62349e-09
1.67946e-09
1.73705e-09
1.79616e-09
1.85666e-09
1.91842e-09
1.98129e-09
2.0451e-09
2.10966e-09
2.17478e-09
2.24021e-09
2.30571e-09
2.37101e-09
2.43578e-09
2.4997e-09
2.56238e-09
2.62342e-09
2.68237e-09
2.73873e-09
2.79197e-09
2.8415e-09
2.88669e-09
2.92683e-09
2.96117e-09
2.98889e-09
3.00911e-09
3.02086e-09
3.0231e-09
3.0147e-09
2.99445e-09
2.96105e-09
2.91308e-09
2.84902e-09
2.76724e-09
2.66599e-09
2.54337e-09
2.39736e-09
2.2258e-09
2.02636e-09
1.79656e-09
1.53373e-09
1.23505e-09
8.97467e-10
5.17768e-10
9.25134e-11
-3.8195e-10
-9.09497e-10
-1.49423e-09
-2.1405e-09
-2.85288e-09
-3.63618e-09
-4.49547e-09
-5.43603e-09
-6.46336e-09
-7.58317e-09
-8.80135e-09
-1.01239e-08
-1.1557e-08
-1.31068e-08
-1.47794e-08
-1.65808e-08
-1.85168e-08
-2.05923e-08
-2.28118e-08
-2.5179e-08
-2.77006e-08
-3.03734e-08
-3.31043e-08
-3.57962e-08
-3.98493e-08
-4.86755e-08
-4.33026e-08
1.08164e-09
1.04857e-09
1.01561e-09
9.90941e-10
9.71667e-10
9.56834e-10
9.46324e-10
9.39978e-10
9.37581e-10
9.38931e-10
9.43833e-10
9.52098e-10
9.63543e-10
9.77997e-10
9.95298e-10
1.0153e-09
1.03785e-09
1.06284e-09
1.09015e-09
1.11967e-09
1.15129e-09
1.18492e-09
1.22047e-09
1.25786e-09
1.29698e-09
1.33775e-09
1.38009e-09
1.42388e-09
1.46904e-09
1.51544e-09
1.56297e-09
1.61151e-09
1.6609e-09
1.711e-09
1.76163e-09
1.8126e-09
1.86371e-09
1.91473e-09
1.9654e-09
2.01547e-09
2.06461e-09
2.1125e-09
2.15878e-09
2.20306e-09
2.24489e-09
2.28382e-09
2.31933e-09
2.35086e-09
2.37781e-09
2.39952e-09
2.41528e-09
2.42433e-09
2.42583e-09
2.4189e-09
2.40255e-09
2.37576e-09
2.3374e-09
2.28626e-09
2.22104e-09
2.14036e-09
2.04272e-09
1.92652e-09
1.79004e-09
1.63146e-09
1.44879e-09
1.23996e-09
1.00272e-09
7.34675e-10
4.33291e-10
9.58572e-11
-2.80506e-10
-6.98857e-10
-1.16244e-09
-1.67468e-09
-2.23922e-09
-2.85989e-09
-3.54072e-09
-4.28596e-09
-5.10005e-09
-5.98764e-09
-6.95358e-09
-8.00288e-09
-9.14074e-09
-1.03725e-08
-1.17036e-08
-1.31395e-08
-1.46858e-08
-1.63479e-08
-1.81313e-08
-2.0041e-08
-2.20814e-08
-2.42564e-08
-2.65693e-08
-2.90264e-08
-3.16243e-08
-3.42675e-08
-3.68545e-08
-4.08116e-08
-4.96673e-08
-4.40518e-08
1.02376e-09
9.93435e-10
9.63516e-10
9.40785e-10
9.22637e-10
9.08304e-10
8.97718e-10
8.90757e-10
8.87244e-10
8.87003e-10
8.89868e-10
8.95673e-10
9.04257e-10
9.15465e-10
9.29149e-10
9.45169e-10
9.63394e-10
9.83701e-10
1.00597e-09
1.0301e-09
1.05598e-09
1.08351e-09
1.11258e-09
1.14311e-09
1.17498e-09
1.2081e-09
1.24236e-09
1.27765e-09
1.31385e-09
1.35084e-09
1.38847e-09
1.4266e-09
1.46508e-09
1.50372e-09
1.54233e-09
1.58072e-09
1.61864e-09
1.65586e-09
1.6921e-09
1.72706e-09
1.76043e-09
1.79185e-09
1.82095e-09
1.8473e-09
1.87045e-09
1.88993e-09
1.9052e-09
1.91568e-09
1.92076e-09
1.91977e-09
1.91199e-09
1.89664e-09
1.87289e-09
1.83983e-09
1.7965e-09
1.74187e-09
1.67481e-09
1.59414e-09
1.49856e-09
1.38673e-09
1.25717e-09
1.10831e-09
9.38498e-10
7.45942e-10
5.28747e-10
2.84892e-10
1.22271e-11
-2.91533e-10
-6.28814e-10
-1.00219e-09
-1.41439e-09
-1.8683e-09
-2.36697e-09
-2.91361e-09
-3.51162e-09
-4.16456e-09
-4.87618e-09
-5.65039e-09
-6.49128e-09
-7.40312e-09
-8.39032e-09
-9.45747e-09
-1.06093e-08
-1.18505e-08
-1.31862e-08
-1.46211e-08
-1.61604e-08
-1.78089e-08
-1.95714e-08
-2.14523e-08
-2.34558e-08
-2.5585e-08
-2.78429e-08
-3.02354e-08
-3.27588e-08
-3.53158e-08
-3.7801e-08
-4.16617e-08
-5.05226e-08
-4.46909e-08
9.63583e-10
9.36122e-10
9.09033e-10
8.88134e-10
8.71091e-10
8.57268e-10
8.46638e-10
8.39113e-10
8.34545e-10
8.3279e-10
8.33702e-10
8.37138e-10
8.42956e-10
8.51015e-10
8.6118e-10
8.73321e-10
8.87312e-10
9.03035e-10
9.20374e-10
9.39218e-10
9.59457e-10
9.80984e-10
1.00369e-09
1.02747e-09
1.05222e-09
1.07781e-09
1.10414e-09
1.13107e-09
1.15847e-09
1.1862e-09
1.21411e-09
1.24204e-09
1.26981e-09
1.29722e-09
1.32407e-09
1.35013e-09
1.37516e-09
1.3989e-09
1.42104e-09
1.44128e-09
1.45927e-09
1.47466e-09
1.48703e-09
1.49597e-09
1.50099e-09
1.5016e-09
1.49726e-09
1.48738e-09
1.47132e-09
1.44842e-09
1.41794e-09
1.3791e-09
1.33106e-09
1.27292e-09
1.20373e-09
1.12243e-09
1.02795e-09
9.19091e-10
7.94604e-10
6.53146e-10
4.93289e-10
3.1351e-10
1.1219e-10
-1.12392e-10
-3.62065e-10
-6.38771e-10
-9.44566e-10
-1.28163e-09
-1.65227e-09
-2.05893e-09
-2.50418e-09
-2.99074e-09
-3.52146e-09
-4.09935e-09
-4.72756e-09
-5.40941e-09
-6.14835e-09
-6.94799e-09
-7.81208e-09
-8.74452e-09
-9.74933e-09
-1.08307e-08
-1.19928e-08
-1.32401e-08
-1.45769e-08
-1.60078e-08
-1.75372e-08
-1.91694e-08
-2.09087e-08
-2.27592e-08
-2.47244e-08
-2.6807e-08
-2.90096e-08
-3.1338e-08
-3.37879e-08
-3.62605e-08
-3.86471e-08
-4.24122e-08
-5.12569e-08
-4.52325e-08
9.0157e-10
8.76903e-10
8.5252e-10
8.33388e-10
8.17431e-10
8.04125e-10
7.93476e-10
7.85427e-10
7.79862e-10
7.7666e-10
7.75697e-10
7.7685e-10
7.79992e-10
7.84998e-10
7.91743e-10
8.00106e-10
8.09968e-10
8.21212e-10
8.33726e-10
8.47395e-10
8.62109e-10
8.77755e-10
8.9422e-10
9.11388e-10
9.29139e-10
9.4735e-10
9.65889e-10
9.84621e-10
1.0034e-09
1.02207e-09
1.04046e-09
1.0584e-09
1.07569e-09
1.09212e-09
1.10748e-09
1.12151e-09
1.13396e-09
1.14454e-09
1.15295e-09
1.15885e-09
1.1619e-09
1.1617e-09
1.15784e-09
1.14988e-09
1.13734e-09
1.11969e-09
1.09639e-09
1.06684e-09
1.0304e-09
9.8638e-10
9.34055e-10
8.72637e-10
8.01287e-10
7.1911e-10
6.25149e-10
5.18383e-10
3.97727e-10
2.6202e-10
1.10033e-10
-5.95443e-11
-2.48104e-10
-4.57122e-10
-6.88165e-10
-9.42893e-10
-1.22306e-09
-1.53053e-09
-1.86726e-09
-2.23534e-09
-2.63693e-09
-3.07435e-09
-3.55003e-09
-4.0665e-09
-4.62644e-09
-5.23265e-09
-5.88806e-09
-6.59572e-09
-7.35882e-09
-8.18068e-09
-9.06472e-09
-1.00145e-08
-1.10337e-08
-1.2126e-08
-1.32954e-08
-1.45457e-08
-1.58809e-08
-1.73051e-08
-1.88221e-08
-2.0436e-08
-2.21505e-08
-2.39692e-08
-2.58953e-08
-2.79311e-08
-3.00788e-08
-3.23438e-08
-3.47217e-08
-3.71121e-08
-3.9404e-08
-4.30751e-08
-5.18848e-08
-4.56883e-08
8.38058e-10
8.16118e-10
7.94351e-10
7.76925e-10
7.6203e-10
7.49245e-10
7.386e-10
7.30065e-10
7.23553e-10
7.18966e-10
7.16202e-10
7.15154e-10
7.1571e-10
7.17757e-10
7.21182e-10
7.25871e-10
7.31711e-10
7.38589e-10
7.46392e-10
7.55007e-10
7.6432e-10
7.74215e-10
7.84572e-10
7.95268e-10
8.06175e-10
8.17161e-10
8.28084e-10
8.38797e-10
8.4914e-10
8.58947e-10
8.68036e-10
8.76216e-10
8.83279e-10
8.89004e-10
8.9315e-10
8.95461e-10
8.9566e-10
8.93449e-10
8.88506e-10
8.80488e-10
8.69024e-10
8.53716e-10
8.34135e-10
8.09824e-10
7.80291e-10
7.45008e-10
7.03412e-10
6.549e-10
5.98826e-10
5.34502e-10
4.61192e-10
3.78112e-10
2.84426e-10
1.79245e-10
6.16229e-11
-6.94479e-11
-2.15036e-10
-3.76276e-10
-5.54372e-10
-7.50599e-10
-9.66308e-10
-1.20293e-09
-1.46197e-09
-1.74503e-09
-2.05379e-09
-2.39002e-09
-2.7556e-09
-3.15248e-09
-3.58275e-09
-4.04856e-09
-4.55219e-09
-5.09603e-09
-5.68256e-09
-6.31438e-09
-6.9942e-09
-7.72484e-09
-8.50924e-09
-9.35041e-09
-1.02515e-08
-1.12157e-08
-1.22464e-08
-1.3347e-08
-1.45209e-08
-1.57717e-08
-1.71029e-08
-1.85182e-08
-2.00211e-08
-2.16151e-08
-2.33036e-08
-2.50898e-08
-2.69765e-08
-2.89657e-08
-3.10592e-08
-3.32621e-08
-3.55698e-08
-3.78808e-08
-4.0082e-08
-4.36615e-08
-5.24203e-08
-4.60697e-08
7.73416e-10
7.54117e-10
7.34878e-10
7.19105e-10
7.05249e-10
6.92984e-10
6.82361e-10
6.73374e-10
6.65963e-10
6.60052e-10
6.55557e-10
6.52387e-10
6.50444e-10
6.49628e-10
6.49835e-10
6.50957e-10
6.52887e-10
6.55515e-10
6.5873e-10
6.62419e-10
6.66464e-10
6.70747e-10
6.75142e-10
6.79521e-10
6.83748e-10
6.87681e-10
6.9117e-10
6.94057e-10
6.96172e-10
6.97337e-10
6.97357e-10
6.9603e-10
6.93133e-10
6.88433e-10
6.81677e-10
6.72593e-10
6.60891e-10
6.46261e-10
6.28368e-10
6.06854e-10
5.81336e-10
5.51405e-10
5.16621e-10
4.76515e-10
4.30586e-10
3.783e-10
3.19083e-10
2.52329e-10
1.77388e-10
9.35689e-11
1.37301e-13
-1.03688e-10
-2.18737e-10
-3.4589e-10
-4.86082e-10
-6.40303e-10
-8.09601e-10
-9.95085e-10
-1.19793e-09
-1.41937e-09
-1.66072e-09
-1.92335e-09
-2.20872e-09
-2.51837e-09
-2.85388e-09
-3.21697e-09
-3.60939e-09
-4.03302e-09
-4.4898e-09
-4.98177e-09
-5.51105e-09
-6.07988e-09
-6.69055e-09
-7.34548e-09
-8.04718e-09
-8.79823e-09
-9.60131e-09
-1.04592e-08
-1.13747e-08
-1.23509e-08
-1.33906e-08
-1.4497e-08
-1.56731e-08
-1.69223e-08
-1.82476e-08
-1.96523e-08
-2.11396e-08
-2.27126e-08
-2.43744e-08
-2.61278e-08
-2.79752e-08
-2.99184e-08
-3.19588e-08
-3.41014e-08
-3.63411e-08
-3.85757e-08
-4.06908e-08
-4.4182e-08
-5.2876e-08
-4.63871e-08
7.08011e-10
6.91249e-10
6.74455e-10
6.60277e-10
6.47431e-10
6.35682e-10
6.25097e-10
6.1569e-10
6.07425e-10
6.00247e-10
5.9409e-10
5.88876e-10
5.84523e-10
5.8094e-10
5.78031e-10
5.75696e-10
5.73832e-10
5.72332e-10
5.71088e-10
5.69985e-10
5.68905e-10
5.67725e-10
5.66316e-10
5.64543e-10
5.62264e-10
5.5933e-10
5.55581e-10
5.50849e-10
5.44957e-10
5.37712e-10