/*--------------------------------*- C++ -*----------------------------------*\
  =========                 |
  \\      /  F ield         | OpenFOAM: The Open Source CFD Toolbox
   \\    /   O peration     | Website:  https://openfoam.org
    \\  /    A nd           | Version:  11
     \\/     M anipulation  |
\*---------------------------------------------------------------------------*/
FoamFile
{
    format      ascii;
    class       volScalarField;
    location    "178";
    object      p;
}
// * * * * * * * * * * * * * * * * * * * * * * * * * * * * * * * * * * * * * //

dimensions      [0 2 -2 0 0 0 0];

internalField   nonuniform List<scalar> 
10000
(
3.417e-07
3.34228e-07
3.45249e-07
3.68584e-07
3.95541e-07
4.24076e-07
4.53998e-07
4.85218e-07
5.17671e-07
5.51348e-07
5.86265e-07
6.22447e-07
6.59917e-07
6.98696e-07
7.38796e-07
7.80223e-07
8.22969e-07
8.67018e-07
9.12339e-07
9.58885e-07
1.00659e-06
1.05538e-06
1.10515e-06
1.15576e-06
1.20708e-06
1.25892e-06
1.31108e-06
1.36335e-06
1.41545e-06
1.46713e-06
1.51809e-06
1.56804e-06
1.61666e-06
1.66366e-06
1.70874e-06
1.75163e-06
1.79205e-06
1.82974e-06
1.86441e-06
1.89556e-06
1.922e-06
1.94178e-06
1.9617e-06
1.98912e-06
2.01454e-06
2.03327e-06
2.05101e-06
2.06496e-06
2.07171e-06
2.08055e-06
2.09543e-06
2.10334e-06
2.1002e-06
2.1014e-06
2.1097e-06
2.11313e-06
2.11184e-06
2.1074e-06
2.10038e-06
2.09098e-06
2.07936e-06
2.06558e-06
2.0497e-06
2.03176e-06
2.01179e-06
1.9898e-06
1.96583e-06
1.93988e-06
1.91199e-06
1.88218e-06
1.85047e-06
1.81688e-06
1.78144e-06
1.74418e-06
1.70513e-06
1.6643e-06
1.62173e-06
1.57743e-06
1.53144e-06
1.48377e-06
1.43443e-06
1.38344e-06
1.3308e-06
1.2765e-06
1.22053e-06
1.16286e-06
1.10344e-06
1.04221e-06
9.79084e-07
9.13923e-07
8.46557e-07
7.76747e-07
7.04154e-07
6.28286e-07
5.48457e-07
4.63906e-07
3.73351e-07
2.70374e-07
1.39054e-07
6.24691e-09
6.78886e-07
6.47049e-07
6.27025e-07
6.34658e-07
6.54501e-07
6.80266e-07
7.10264e-07
7.43597e-07
7.79654e-07
8.18077e-07
8.58664e-07
9.0129e-07
9.45875e-07
9.92365e-07
1.04072e-06
1.09089e-06
1.14285e-06
1.19654e-06
1.25191e-06
1.30888e-06
1.36737e-06
1.42726e-06
1.48842e-06
1.55069e-06
1.61386e-06
1.67772e-06
1.742e-06
1.80639e-06
1.87058e-06
1.93419e-06
1.99684e-06
2.05813e-06
2.11764e-06
2.17498e-06
2.22976e-06
2.28162e-06
2.33024e-06
2.37535e-06
2.41673e-06
2.45412e-06
2.48709e-06
2.51589e-06
2.54686e-06
2.57791e-06
2.59454e-06
2.5984e-06
2.60124e-06
2.61017e-06
2.62697e-06
2.65049e-06
2.67645e-06
2.69335e-06
2.69268e-06
2.68684e-06
2.68687e-06
2.6855e-06
2.68083e-06
2.67322e-06
2.66285e-06
2.64978e-06
2.63406e-06
2.61576e-06
2.59489e-06
2.57147e-06
2.54553e-06
2.51706e-06
2.48607e-06
2.45259e-06
2.41661e-06
2.37816e-06
2.33724e-06
2.29388e-06
2.2481e-06
2.19992e-06
2.14936e-06
2.09643e-06
2.04116e-06
1.98357e-06
1.92368e-06
1.86148e-06
1.797e-06
1.73022e-06
1.66113e-06
1.58972e-06
1.51593e-06
1.43971e-06
1.36098e-06
1.27962e-06
1.19547e-06
1.10832e-06
1.01788e-06
9.23762e-07
8.25429e-07
7.221e-07
6.12738e-07
4.96416e-07
3.71285e-07
2.24827e-07
3.13703e-08
-1.06941e-07
8.75045e-07
8.28007e-07
7.86522e-07
7.74329e-07
7.77516e-07
7.89198e-07
8.07083e-07
8.29802e-07
8.56371e-07
8.8615e-07
9.18724e-07
9.53819e-07
9.91242e-07
1.03085e-06
1.07255e-06
1.11624e-06
1.16187e-06
1.20934e-06
1.25859e-06
1.30954e-06
1.36209e-06
1.4161e-06
1.47146e-06
1.52797e-06
1.58544e-06
1.64362e-06
1.70223e-06
1.76095e-06
1.8194e-06
1.8772e-06
1.9339e-06
1.98905e-06
2.04221e-06
2.09294e-06
2.14082e-06
2.1855e-06
2.22666e-06
2.26412e-06
2.29777e-06
2.32765e-06
2.35396e-06
2.37747e-06
2.40149e-06
2.42719e-06
2.44942e-06
2.46544e-06
2.4776e-06
2.48515e-06
2.48722e-06
2.4863e-06
2.48327e-06
2.47515e-06
2.46067e-06
2.44737e-06
2.43746e-06
2.42767e-06
2.41656e-06
2.4038e-06
2.38924e-06
2.37277e-06
2.35434e-06
2.33394e-06
2.31154e-06
2.28712e-06
2.26067e-06
2.23215e-06
2.20156e-06
2.16888e-06
2.1341e-06
2.09722e-06
2.05822e-06
2.0171e-06
1.97386e-06
1.92849e-06
1.88101e-06
1.83141e-06
1.77968e-06
1.72583e-06
1.66985e-06
1.61174e-06
1.55148e-06
1.48904e-06
1.42439e-06
1.3575e-06
1.2883e-06
1.21671e-06
1.14262e-06
1.06589e-06
9.86344e-07
9.03737e-07
8.17757e-07
7.27993e-07
6.33887e-07
5.34657e-07
4.29363e-07
3.17508e-07
1.97623e-07
5.45166e-08
-1.38927e-07
-2.204e-07
1.05267e-06
1.00055e-06
9.54455e-07
9.34304e-07
9.29115e-07
9.33262e-07
9.4463e-07
9.61781e-07
9.83613e-07
1.00936e-06
1.03849e-06
1.07064e-06
1.10554e-06
1.14299e-06
1.18284e-06
1.22495e-06
1.26924e-06
1.31559e-06
1.36391e-06
1.41411e-06
1.46605e-06
1.51961e-06
1.57462e-06
1.63089e-06
1.68818e-06
1.74622e-06
1.80469e-06
1.86324e-06
1.92144e-06
1.97885e-06
2.03499e-06
2.08936e-06
2.14145e-06
2.19078e-06
2.2369e-06
2.27942e-06
2.31805e-06
2.35259e-06
2.38297e-06
2.40929e-06
2.43182e-06
2.4511e-06
2.46849e-06
2.48476e-06
2.49837e-06
2.50788e-06
2.51349e-06
2.51465e-06
2.51106e-06
2.50393e-06
2.49409e-06
2.48102e-06
2.46495e-06
2.44878e-06
2.43336e-06
2.41768e-06
2.40111e-06
2.38334e-06
2.36418e-06
2.34349e-06
2.32119e-06
2.29722e-06
2.27154e-06
2.24409e-06
2.21484e-06
2.18374e-06
2.15077e-06
2.11588e-06
2.07905e-06
2.04025e-06
1.99947e-06
1.95667e-06
1.91184e-06
1.86496e-06
1.81602e-06
1.76501e-06
1.7119e-06
1.65668e-06
1.59934e-06
1.53984e-06
1.47816e-06
1.41425e-06
1.34809e-06
1.27959e-06
1.20869e-06
1.13529e-06
1.05927e-06
9.80451e-07
8.98647e-07
8.13597e-07
7.24971e-07
6.3235e-07
5.35182e-07
4.32714e-07
3.24132e-07
2.0932e-07
8.70819e-08
-5.98627e-08
-2.58445e-07
-3.07913e-07
1.21425e-06
1.16254e-06
1.11688e-06
1.09357e-06
1.08394e-06
1.08366e-06
1.091e-06
1.10464e-06
1.1235e-06
1.14678e-06
1.17392e-06
1.2045e-06
1.23819e-06
1.27476e-06
1.31401e-06
1.3558e-06
1.39998e-06
1.44645e-06
1.49507e-06
1.54573e-06
1.59828e-06
1.65258e-06
1.70842e-06
1.76561e-06
1.82387e-06
1.88292e-06
1.94238e-06
2.00188e-06
2.06096e-06
2.11913e-06
2.17587e-06
2.23064e-06
2.28289e-06
2.33211e-06
2.37782e-06
2.4196e-06
2.45714e-06
2.49023e-06
2.5188e-06
2.54293e-06
2.56284e-06
2.57891e-06
2.5918e-06
2.60188e-06
2.60862e-06
2.61156e-06
2.61084e-06
2.60648e-06
2.59863e-06
2.58782e-06
2.57444e-06
2.55849e-06
2.54028e-06
2.52103e-06
2.50137e-06
2.48109e-06
2.45994e-06
2.43773e-06
2.4143e-06
2.38955e-06
2.36337e-06
2.33571e-06
2.30649e-06
2.27565e-06
2.24313e-06
2.20888e-06
2.17285e-06
2.135e-06
2.09527e-06
2.05364e-06
2.01005e-06
1.96448e-06
1.9169e-06
1.86728e-06
1.81558e-06
1.76178e-06
1.70585e-06
1.64777e-06
1.58749e-06
1.525e-06
1.46023e-06
1.39315e-06
1.3237e-06
1.2518e-06
1.17736e-06
1.10027e-06
1.0204e-06
9.37579e-07
8.51587e-07
7.62164e-07
6.68983e-07
5.71636e-07
4.69599e-07
3.62174e-07
2.48679e-07
1.29301e-07
2.96504e-09
-1.49219e-07
-3.52068e-07
-3.85093e-07
1.36008e-06
1.31078e-06
1.26663e-06
1.24184e-06
1.2294e-06
1.22596e-06
1.23019e-06
1.24093e-06
1.2572e-06
1.27823e-06
1.30346e-06
1.33243e-06
1.36481e-06
1.40034e-06
1.43879e-06
1.47999e-06
1.52378e-06
1.57002e-06
1.61858e-06
1.66931e-06
1.72205e-06
1.77663e-06
1.83285e-06
1.89046e-06
1.94919e-06
2.00871e-06
2.06865e-06
2.12857e-06
2.188e-06
2.24644e-06
2.30331e-06
2.35805e-06
2.4101e-06
2.4589e-06
2.50394e-06
2.54481e-06
2.58115e-06
2.61276e-06
2.63954e-06
2.66152e-06
2.67889e-06
2.69194e-06
2.7011e-06
2.70662e-06
2.70842e-06
2.70642e-06
2.70083e-06
2.69184e-06
2.6797e-06
2.6648e-06
2.64744e-06
2.62782e-06
2.60624e-06
2.5834e-06
2.55973e-06
2.53526e-06
2.5099e-06
2.48357e-06
2.45616e-06
2.42756e-06
2.39769e-06
2.36648e-06
2.33385e-06
2.29974e-06
2.26407e-06
2.22679e-06
2.18782e-06
2.14711e-06
2.1046e-06
2.06025e-06
2.01399e-06
1.96579e-06
1.9156e-06
1.86337e-06
1.80908e-06
1.75268e-06
1.69412e-06
1.63338e-06
1.57041e-06
1.50516e-06
1.43758e-06
1.36761e-06
1.29518e-06
1.22022e-06
1.14262e-06
1.06226e-06
9.79011e-07
8.92689e-07
8.03088e-07
7.09949e-07
6.12964e-07
5.11753e-07
4.05846e-07
2.94617e-07
1.77526e-07
5.50523e-08
-7.37442e-08
-2.29204e-07
-4.34959e-07
-4.53989e-07
1.49501e-06
1.44843e-06
1.40615e-06
1.38089e-06
1.36675e-06
1.36114e-06
1.36302e-06
1.37144e-06
1.38553e-06
1.40458e-06
1.42806e-06
1.45551e-06
1.4866e-06
1.52104e-06
1.5586e-06
1.59908e-06
1.64232e-06
1.68815e-06
1.73643e-06
1.78699e-06
1.83965e-06
1.89424e-06
1.95052e-06
2.00824e-06
2.0671e-06
2.12676e-06
2.18681e-06
2.24682e-06
2.30628e-06
2.36465e-06
2.42136e-06
2.47582e-06
2.52743e-06
2.57562e-06
2.61987e-06
2.65973e-06
2.69485e-06
2.72497e-06
2.74999e-06
2.76992e-06
2.78488e-06
2.79513e-06
2.80099e-06
2.80272e-06
2.80045e-06
2.79432e-06
2.78455e-06
2.77142e-06
2.75522e-06
2.73632e-06
2.71504e-06
2.69165e-06
2.6665e-06
2.64001e-06
2.6125e-06
2.5841e-06
2.5548e-06
2.52458e-06
2.49335e-06
2.46106e-06
2.42762e-06
2.39297e-06
2.35702e-06
2.31971e-06
2.28095e-06
2.24068e-06
2.19882e-06
2.15531e-06
2.11007e-06
2.06305e-06
2.01419e-06
1.96342e-06
1.91069e-06
1.85596e-06
1.79916e-06
1.74026e-06
1.6792e-06
1.61594e-06
1.55041e-06
1.48258e-06
1.41237e-06
1.33972e-06
1.26455e-06
1.18679e-06
1.10632e-06
1.02302e-06
9.3676e-07
8.47363e-07
7.54629e-07
6.58319e-07
5.58149e-07
4.53787e-07
3.4482e-07
2.30707e-07
1.11046e-07
-1.33564e-08
-1.43182e-07
-3.00693e-07
-5.12776e-07
-5.12733e-07
1.62211e-06
1.57808e-06
1.53773e-06
1.5126e-06
1.49757e-06
1.49053e-06
1.49072e-06
1.49737e-06
1.50971e-06
1.52712e-06
1.54909e-06
1.5752e-06
1.60511e-06
1.63853e-06
1.67523e-06
1.71499e-06
1.75763e-06
1.80299e-06
1.8509e-06
1.90117e-06
1.95364e-06
2.00808e-06
2.06426e-06
2.12192e-06
2.18072e-06
2.24033e-06
2.30031e-06
2.36021e-06
2.41952e-06
2.47767e-06
2.53407e-06
2.58811e-06
2.63919e-06
2.68672e-06
2.73015e-06
2.76902e-06
2.80296e-06
2.8317e-06
2.8551e-06
2.87314e-06
2.88592e-06
2.89365e-06
2.89662e-06
2.8951e-06
2.88933e-06
2.87957e-06
2.8661e-06
2.84925e-06
2.82937e-06
2.80679e-06
2.78188e-06
2.75493e-06
2.72628e-06
2.69626e-06
2.66513e-06
2.63302e-06
2.60001e-06
2.5661e-06
2.53125e-06
2.49541e-06
2.45852e-06
2.42051e-06
2.38132e-06
2.34086e-06
2.29905e-06
2.25583e-06
2.2111e-06
2.16479e-06
2.11683e-06
2.06714e-06
2.01567e-06
1.96233e-06
1.90707e-06
1.84983e-06
1.79054e-06
1.72915e-06
1.66561e-06
1.59985e-06
1.53182e-06
1.46145e-06
1.38868e-06
1.31343e-06
1.23563e-06
1.15519e-06
1.07199e-06
9.85933e-07
8.96871e-07
8.04644e-07
7.09069e-07
6.09926e-07
5.06968e-07
3.9991e-07
2.88404e-07
1.71987e-07
5.03844e-08
-7.52523e-08
-2.0525e-07
-3.64338e-07
-5.8667e-07
-5.64355e-07
1.7429e-06
1.70115e-06
1.6626e-06
1.63791e-06
1.62248e-06
1.61455e-06
1.61355e-06
1.61886e-06
1.62981e-06
1.64587e-06
1.66656e-06
1.6915e-06
1.72034e-06
1.75282e-06
1.78868e-06
1.82772e-06
1.86975e-06
1.91459e-06
1.96205e-06
2.01196e-06
2.06411e-06
2.11828e-06
2.17423e-06
2.23167e-06
2.29028e-06
2.34967e-06
2.40943e-06
2.46907e-06
2.52807e-06
2.58586e-06
2.64184e-06
2.69537e-06
2.74585e-06
2.79267e-06
2.83527e-06
2.87318e-06
2.906e-06
2.93344e-06
2.95535e-06
2.97167e-06
2.9825e-06
2.988e-06
2.98843e-06
2.9841e-06
2.9753e-06
2.96235e-06
2.94561e-06
2.92542e-06
2.90217e-06
2.87623e-06
2.84794e-06
2.81764e-06
2.78565e-06
2.75224e-06
2.71766e-06
2.68207e-06
2.64555e-06
2.60814e-06
2.56984e-06
2.5306e-06
2.49038e-06
2.44913e-06
2.40677e-06
2.36323e-06
2.31842e-06
2.27228e-06
2.22471e-06
2.17563e-06
2.12496e-06
2.07263e-06
2.01855e-06
1.96266e-06
1.90488e-06
1.84514e-06
1.78338e-06
1.71953e-06
1.65353e-06
1.58531e-06
1.51482e-06
1.44197e-06
1.3667e-06
1.28894e-06
1.20861e-06
1.1256e-06
1.03983e-06
9.51167e-07
8.59497e-07
7.64665e-07
6.66506e-07
5.64827e-07
4.59417e-07
3.5004e-07
2.36411e-07
1.18138e-07
-4.95068e-09
-1.31383e-07
-2.61152e-07
-4.21702e-07
-6.5572e-07
-6.13158e-07
1.85827e-06
1.81852e-06
1.7816e-06
1.75748e-06
1.74196e-06
1.73349e-06
1.73166e-06
1.73595e-06
1.74581e-06
1.76075e-06
1.78036e-06
1.80426e-06
1.83214e-06
1.86373e-06
1.8988e-06
1.93713e-06
1.97852e-06
2.02279e-06
2.06975e-06
2.1192e-06
2.17094e-06
2.22474e-06
2.28034e-06
2.33745e-06
2.39571e-06
2.45476e-06
2.51416e-06
2.57341e-06
2.63199e-06
2.6893e-06
2.74475e-06
2.7977e-06
2.84752e-06
2.89359e-06
2.93536e-06
2.97232e-06
3.00406e-06
3.03029e-06
3.05082e-06
3.06559e-06
3.07464e-06
3.07816e-06
3.07637e-06
3.06958e-06
3.05813e-06
3.04238e-06
3.02272e-06
2.99953e-06
2.97321e-06
2.94416e-06
2.91274e-06
2.87928e-06
2.8441e-06
2.80747e-06
2.76963e-06
2.73073e-06
2.69089e-06
2.65016e-06
2.60856e-06
2.56606e-06
2.52264e-06
2.47825e-06
2.43281e-06
2.38627e-06
2.33854e-06
2.28953e-06
2.23917e-06
2.18736e-06
2.13402e-06
2.07906e-06
2.02241e-06
1.96399e-06
1.90371e-06
1.84151e-06
1.77731e-06
1.71103e-06
1.64262e-06
1.572e-06
1.49909e-06
1.42384e-06
1.34616e-06
1.26598e-06
1.18322e-06
1.09778e-06
1.00957e-06
9.18478e-07
8.2439e-07
7.27169e-07
6.26669e-07
5.22725e-07
4.1516e-07
3.03788e-07
1.88383e-07
6.86158e-08
-5.55901e-08
-1.82469e-07
-3.11651e-07
-4.72986e-07
-7.17602e-07
-6.57666e-07
1.96884e-06
1.9308e-06
1.89533e-06
1.87184e-06
1.8564e-06
1.84764e-06
1.84524e-06
1.84877e-06
1.85776e-06
1.87179e-06
1.89046e-06
1.91345e-06
1.94047e-06
1.97124e-06
2.00555e-06
2.04317e-06
2.08391e-06
2.12758e-06
2.17398e-06
2.22292e-06
2.27417e-06
2.32751e-06
2.38266e-06
2.43932e-06
2.49714e-06
2.55574e-06
2.61466e-06
2.67342e-06
2.73146e-06
2.78822e-06
2.84306e-06
2.89535e-06
2.94446e-06
2.98977e-06
3.03069e-06
3.06672e-06
3.09744e-06
3.12253e-06
3.14179e-06
3.15513e-06
3.1626e-06
3.16433e-06
3.16057e-06
3.15162e-06
3.13784e-06
3.1196e-06
3.09732e-06
3.07142e-06
3.04231e-06
3.01039e-06
2.97605e-06
2.93963e-06
2.90144e-06
2.86177e-06
2.82083e-06
2.7788e-06
2.73581e-06
2.69192e-06
2.64718e-06
2.60156e-06
2.55506e-06
2.50764e-06
2.45923e-06
2.40977e-06
2.35917e-06
2.30737e-06
2.25426e-06
2.19977e-06
2.1438e-06
2.08627e-06
2.02708e-06
1.96617e-06
1.90343e-06
1.8388e-06
1.7722e-06
1.70355e-06
1.63277e-06
1.5598e-06
1.48456e-06
1.40697e-06
1.32697e-06
1.24446e-06
1.15939e-06
1.07164e-06
9.81136e-07
8.87775e-07
7.91447e-07
6.92035e-07
5.89409e-07
4.83435e-07
3.73969e-07
2.60867e-07
1.43957e-07
2.29726e-08
-1.02075e-07
-2.29144e-07
-3.57435e-07
-5.1844e-07
-7.70118e-07
-6.96404e-07
2.07501e-06
2.03846e-06
2.00427e-06
1.98142e-06
1.96617e-06
1.95728e-06
1.95449e-06
1.95746e-06
1.96576e-06
1.97902e-06
1.9969e-06
2.0191e-06
2.04532e-06
2.07534e-06
2.10891e-06
2.14584e-06
2.18592e-06
2.22897e-06
2.27478e-06
2.32315e-06
2.37385e-06
2.42666e-06
2.48128e-06
2.53741e-06
2.5947e-06
2.65274e-06
2.7111e-06
2.76928e-06
2.82672e-06
2.88283e-06
2.93701e-06
2.9886e-06
3.03697e-06
3.08148e-06
3.12157e-06
3.15669e-06
3.18643e-06
3.21045e-06
3.22853e-06
3.24057e-06
3.2466e-06
3.24674e-06
3.24123e-06
3.23036e-06
3.21449e-06
3.19404e-06
3.16941e-06
3.14105e-06
3.10938e-06
3.07483e-06
3.03777e-06
2.99858e-06
2.95757e-06
2.91502e-06
2.87115e-06
2.82616e-06
2.78017e-06
2.73329e-06
2.68554e-06
2.63695e-06
2.58749e-06
2.53714e-06
2.48586e-06
2.43356e-06
2.38019e-06
2.32565e-06
2.26987e-06
2.21275e-06
2.1542e-06
2.09414e-06
2.03246e-06
1.9691e-06
1.90395e-06
1.83694e-06
1.76799e-06
1.69701e-06
1.62393e-06
1.54867e-06
1.47116e-06
1.39132e-06
1.30908e-06
1.22436e-06
1.13707e-06
1.04714e-06
9.54478e-07
8.58994e-07
7.60589e-07
6.59161e-07
5.546e-07
4.46795e-07
3.35634e-07
2.21008e-07
1.02793e-07
-1.9234e-08
-1.44992e-07
-2.72236e-07
-3.99897e-07
-5.60891e-07
-8.17542e-07
-7.34066e-07
2.17707e-06
2.14181e-06
2.10877e-06
2.08654e-06
2.07155e-06
2.06264e-06
2.0596e-06
2.06214e-06
2.0699e-06
2.08253e-06
2.09973e-06
2.12121e-06
2.14672e-06
2.17602e-06
2.2089e-06
2.24515e-06
2.28458e-06
2.32698e-06
2.37217e-06
2.41993e-06
2.47004e-06
2.52224e-06
2.57627e-06
2.6318e-06
2.68849e-06
2.74592e-06
2.80364e-06
2.86116e-06
2.91793e-06
2.97336e-06
3.02682e-06
3.07767e-06
3.12527e-06
3.16899e-06
3.20824e-06
3.24248e-06
3.27128e-06
3.29429e-06
3.31128e-06
3.32213e-06
3.32685e-06
3.32556e-06
3.31847e-06
3.30588e-06
3.28816e-06
3.26571e-06
3.23897e-06
3.20837e-06
3.17437e-06
3.13738e-06
3.09782e-06
3.05604e-06
3.01237e-06
2.96711e-06
2.92048e-06
2.87268e-06
2.82386e-06
2.77412e-06
2.72352e-06
2.67207e-06
2.61978e-06
2.56662e-06
2.51255e-06
2.45752e-06
2.40144e-06
2.34425e-06
2.28586e-06
2.22617e-06
2.16511e-06
2.10257e-06
2.03846e-06
1.9727e-06
1.90519e-06
1.83585e-06
1.7646e-06
1.69136e-06
1.61604e-06
1.53856e-06
1.45886e-06
1.37684e-06
1.29245e-06
1.2056e-06
1.11622e-06
1.02422e-06
9.29524e-07
8.32053e-07
7.31719e-07
6.28432e-07
5.22101e-07
4.12634e-07
2.99945e-07
1.83956e-07
6.45738e-08
-5.83938e-08
-1.84826e-07
-3.12343e-07
-4.39791e-07
-6.01696e-07
-8.64104e-07
-7.72064e-07
2.27523e-06
2.24113e-06
2.20912e-06
2.18748e-06
2.17278e-06
2.16392e-06
2.16073e-06
2.16295e-06
2.17027e-06
2.18237e-06
2.19897e-06
2.21983e-06
2.24468e-06
2.27332e-06
2.30553e-06
2.34112e-06
2.37989e-06
2.42165e-06
2.46619e-06
2.51331e-06
2.56278e-06
2.61434e-06
2.66773e-06
2.72261e-06
2.77863e-06
2.83538e-06
2.89242e-06
2.94923e-06
3.00528e-06
3.05998e-06
3.11269e-06
3.16277e-06
3.20959e-06
3.25251e-06
3.29092e-06
3.32431e-06
3.35221e-06
3.37427e-06
3.39024e-06
3.4e-06
3.40353e-06
3.40093e-06
3.39243e-06
3.3783e-06
3.35891e-06
3.33466e-06
3.306e-06
3.27337e-06
3.23722e-06
3.19799e-06
3.1561e-06
3.1119e-06
3.06575e-06
3.01794e-06
2.96871e-06
2.91826e-06
2.86675e-06
2.8143e-06
2.76097e-06
2.70679e-06
2.65178e-06
2.59592e-06
2.53918e-06
2.4815e-06
2.42281e-06
2.36304e-06
2.30211e-06
2.23993e-06
2.17641e-06
2.11145e-06
2.04497e-06
1.97687e-06
1.90706e-06
1.83546e-06
1.76197e-06
1.68652e-06
1.60902e-06
1.5294e-06
1.44758e-06
1.36347e-06
1.27702e-06
1.18814e-06
1.09676e-06
1.0028e-06
9.06194e-07
8.06864e-07
7.04734e-07
5.99727e-07
4.91767e-07
3.80781e-07
2.66702e-07
1.49475e-07
2.90297e-08
-9.48097e-08
-2.21899e-07
-3.49755e-07
-4.77195e-07
-6.40274e-07
-9.08136e-07
-8.07193e-07
2.36967e-06
2.3366e-06
2.30553e-06
2.28445e-06
2.27005e-06
2.26128e-06
2.25801e-06
2.26e-06
2.26696e-06
2.27861e-06
2.2947e-06
2.31498e-06
2.33924e-06
2.36725e-06
2.39883e-06
2.43377e-06
2.47189e-06
2.51299e-06
2.55687e-06
2.60333e-06
2.65213e-06
2.70302e-06
2.75572e-06
2.80991e-06
2.86522e-06
2.92125e-06
2.97756e-06
3.03363e-06
3.08892e-06
3.14285e-06
3.19478e-06
3.24409e-06
3.29011e-06
3.33223e-06
3.36983e-06
3.40238e-06
3.42942e-06
3.45058e-06
3.4656e-06
3.47434e-06
3.47678e-06
3.47301e-06
3.46323e-06
3.44771e-06
3.4268e-06
3.40093e-06
3.37052e-06
3.33603e-06
3.29792e-06
3.25663e-06
3.21257e-06
3.16613e-06
3.11765e-06
3.06744e-06
3.01575e-06
2.9628e-06
2.90874e-06
2.85371e-06
2.79779e-06
2.74101e-06
2.6834e-06
2.62494e-06
2.56562e-06
2.50539e-06
2.44418e-06
2.38191e-06
2.31853e-06
2.25392e-06
2.18801e-06
2.12071e-06
2.05191e-06
1.98153e-06
1.90948e-06
1.83567e-06
1.76002e-06
1.68243e-06
1.60282e-06
1.52113e-06
1.43726e-06
1.35115e-06
1.26272e-06
1.1719e-06
1.07862e-06
9.82813e-07
8.84405e-07
7.83332e-07
6.79527e-07
5.72924e-07
4.6346e-07
3.51076e-07
2.3572e-07
1.17357e-07
-4.06919e-09
-1.28726e-07
-2.56455e-07
-3.84682e-07
-5.12199e-07
-6.7644e-07
-9.49196e-07
-8.39478e-07
2.46052e-06
2.42839e-06
2.39817e-06
2.37762e-06
2.36353e-06
2.35489e-06
2.35158e-06
2.35339e-06
2.36006e-06
2.37133e-06
2.38696e-06
2.40673e-06
2.43043e-06
2.45786e-06
2.48882e-06
2.52313e-06
2.5606e-06
2.60105e-06
2.64427e-06
2.69005e-06
2.73816e-06
2.78835e-06
2.84033e-06
2.89379e-06
2.94837e-06
3.00365e-06
3.05919e-06
3.11448e-06
3.16899e-06
3.22213e-06
3.27327e-06
3.32178e-06
3.36701e-06
3.40833e-06
3.44513e-06
3.47687e-06
3.50309e-06
3.52339e-06
3.53753e-06
3.54533e-06
3.54677e-06
3.54192e-06
3.53097e-06
3.51419e-06
3.49192e-06
3.46456e-06
3.43257e-06
3.39638e-06
3.35646e-06
3.31325e-06
3.26718e-06
3.21865e-06
3.168e-06
3.11554e-06
3.06154e-06
3.00621e-06
2.94974e-06
2.89227e-06
2.83388e-06
2.77462e-06
2.71451e-06
2.65357e-06
2.59178e-06
2.52909e-06
2.46544e-06
2.40077e-06
2.335e-06
2.26805e-06
2.19982e-06
2.13024e-06
2.0592e-06
1.98661e-06
1.91239e-06
1.83644e-06
1.75868e-06
1.67902e-06
1.59738e-06
1.51368e-06
1.42785e-06
1.33981e-06
1.24949e-06
1.15683e-06
1.06174e-06
9.64181e-07
8.64075e-07
7.61366e-07
6.55995e-07
5.47906e-07
4.37045e-07
3.23367e-07
2.06833e-07
8.74185e-08
-3.49216e-08
-1.6035e-07
-2.88697e-07
-4.17306e-07
-5.44943e-07
-7.10303e-07
-9.8756e-07
-8.69515e-07
2.5479e-06
2.51662e-06
2.48719e-06
2.46715e-06
2.45336e-06
2.44487e-06
2.44155e-06
2.44323e-06
2.44966e-06
2.46059e-06
2.47581e-06
2.49511e-06
2.5183e-06
2.54517e-06
2.57554e-06
2.60924e-06
2.64608e-06
2.68587e-06
2.72842e-06
2.77351e-06
2.82092e-06
2.8704e-06
2.92165e-06
2.97435e-06
3.02816e-06
3.08267e-06
3.13742e-06
3.19192e-06
3.24563e-06
3.29797e-06
3.34831e-06
3.39602e-06
3.44045e-06
3.48098e-06
3.51699e-06
3.54795e-06
3.57337e-06
3.59287e-06
3.60617e-06
3.6131e-06
3.61362e-06
3.60778e-06
3.59577e-06
3.57783e-06
3.55432e-06
3.52562e-06
3.49216e-06
3.45442e-06
3.41283e-06
3.36786e-06
3.31993e-06
3.26944e-06
3.21675e-06
3.16218e-06
3.106e-06
3.04844e-06
2.98969e-06
2.9299e-06
2.86916e-06
2.80753e-06
2.74505e-06
2.68173e-06
2.61756e-06
2.5525e-06
2.48651e-06
2.41952e-06
2.35145e-06
2.28223e-06
2.21176e-06
2.13997e-06
2.06675e-06
1.99203e-06
1.9157e-06
1.83768e-06
1.75788e-06
1.67623e-06
1.59262e-06
1.507e-06
1.41928e-06
1.3294e-06
1.23727e-06
1.14284e-06
1.04605e-06
9.46828e-07
8.4512e-07
7.40873e-07
6.34034e-07
5.24557e-07
4.12397e-07
2.97516e-07
1.79887e-07
5.9493e-08
-6.37018e-08
-1.89859e-07
-3.18801e-07
-4.47794e-07
-5.75577e-07
-7.42013e-07
-1.02348e-06
-8.97624e-07
2.63192e-06
2.60142e-06
2.57271e-06
2.55315e-06
2.53966e-06
2.53132e-06
2.52803e-06
2.52961e-06
2.53583e-06
2.54647e-06
2.56132e-06
2.58019e-06
2.60289e-06
2.62923e-06
2.65905e-06
2.69215e-06
2.72836e-06
2.76751e-06
2.80938e-06
2.85379e-06
2.90048e-06
2.94923e-06
2.99973e-06
3.05168e-06
3.10471e-06
3.15842e-06
3.21237e-06
3.26606e-06
3.31896e-06
3.37048e-06
3.42002e-06
3.46693e-06
3.51057e-06
3.55032e-06
3.58556e-06
3.61576e-06
3.64042e-06
3.65915e-06
3.67166e-06
3.67778e-06
3.67745e-06
3.6707e-06
3.65772e-06
3.63873e-06
3.61408e-06
3.58414e-06
3.54936e-06
3.51018e-06
3.46706e-06
3.42045e-06
3.37079e-06
3.31848e-06
3.26389e-06
3.20734e-06
3.14911e-06
3.08944e-06
3.02853e-06
2.96653e-06
2.90356e-06
2.83968e-06
2.77493e-06
2.70933e-06
2.64289e-06
2.57556e-06
2.50732e-06
2.43808e-06
2.3678e-06
2.29639e-06
2.22376e-06
2.14983e-06
2.07452e-06
1.99772e-06
1.91936e-06
1.83934e-06
1.75758e-06
1.67399e-06
1.5885e-06
1.50103e-06
1.4115e-06
1.31985e-06
1.226e-06
1.12989e-06
1.03147e-06
9.30678e-07
8.27458e-07
7.21762e-07
6.13547e-07
5.0277e-07
3.89396e-07
2.73393e-07
1.54741e-07
3.34327e-08
-9.05652e-08
-2.17413e-07
-3.46927e-07
-4.76301e-07
-6.04247e-07
-7.7172e-07
-1.05716e-06
-9.23989e-07
2.71265e-06
2.68288e-06
2.65485e-06
2.63574e-06
2.62254e-06
2.61436e-06
2.61111e-06
2.61261e-06
2.61866e-06
2.62904e-06
2.64355e-06
2.66202e-06
2.68426e-06
2.7101e-06
2.73937e-06
2.77189e-06
2.8075e-06
2.846e-06
2.88721e-06
2.93092e-06
2.97691e-06
3.02492e-06
3.07466e-06
3.12584e-06
3.17808e-06
3.23099e-06
3.28414e-06
3.33701e-06
3.38909e-06
3.4398e-06
3.48853e-06
3.53464e-06
3.57751e-06
3.61649e-06
3.65098e-06
3.68043e-06
3.70436e-06
3.72236e-06
3.73414e-06
3.7395e-06
3.73837e-06
3.73079e-06
3.71691e-06
3.69696e-06
3.67126e-06
3.6402e-06
3.60419e-06
3.56369e-06
3.51915e-06
3.47103e-06
3.41977e-06
3.36576e-06
3.30938e-06
3.25097e-06
3.19082e-06
3.12916e-06
3.06621e-06
3.00212e-06
2.93703e-06
2.871e-06
2.80409e-06
2.73632e-06
2.6677e-06
2.5982e-06
2.52778e-06
2.4564e-06
2.38398e-06
2.31046e-06
2.23575e-06
2.15976e-06
2.08242e-06
2.00363e-06
1.9233e-06
1.84136e-06
1.75771e-06
1.67227e-06
1.58496e-06
1.49571e-06
1.40445e-06
1.3111e-06
1.21561e-06
1.11791e-06
1.01794e-06
9.15657e-07
8.11008e-07
7.03948e-07
5.94438e-07
4.82443e-07
3.67932e-07
2.50879e-07
1.3127e-07
9.10303e-09
-1.15652e-07
-2.43155e-07
-3.73219e-07
-5.02969e-07
-6.31092e-07
-7.99566e-07
-1.08876e-06
-9.48754e-07
2.79018e-06
2.76109e-06
2.7337e-06
2.71501e-06
2.7021e-06
2.69408e-06
2.69087e-06
2.69232e-06
2.69821e-06
2.70836e-06
2.72256e-06
2.74066e-06
2.76247e-06
2.78783e-06
2.81657e-06
2.84853e-06
2.88353e-06
2.92141e-06
2.96196e-06
3.00498e-06
3.05026e-06
3.09753e-06
3.14652e-06
3.19692e-06
3.24837e-06
3.30049e-06
3.35281e-06
3.40488e-06
3.45614e-06
3.50604e-06
3.55396e-06
3.59929e-06
3.64138e-06
3.67961e-06
3.71337e-06
3.74211e-06
3.76533e-06
3.78264e-06
3.79371e-06
3.79836e-06
3.79649e-06
3.78814e-06
3.77343e-06
3.75259e-06
3.72594e-06
3.69384e-06
3.65671e-06
3.61499e-06
3.56914e-06
3.51962e-06
3.46686e-06
3.41127e-06
3.35322e-06
3.29307e-06
3.2311e-06
3.16757e-06
3.10268e-06
3.03663e-06
2.96952e-06
2.90145e-06
2.83247e-06
2.76263e-06
2.69193e-06
2.62035e-06
2.54786e-06
2.47441e-06
2.39994e-06
2.32439e-06
2.24767e-06
2.16971e-06
2.09041e-06
2.0097e-06
1.92748e-06
1.84368e-06
1.75821e-06
1.67099e-06
1.58194e-06
1.49099e-06
1.39806e-06
1.3031e-06
1.20604e-06
1.10682e-06
1.00539e-06
9.01693e-07
7.95694e-07
6.87347e-07
5.76619e-07
4.63479e-07
3.47901e-07
2.29863e-07
1.09356e-07
-1.36182e-08
-1.39087e-07
-2.67215e-07
-3.97808e-07
-5.27927e-07
-6.56239e-07
-8.25679e-07
-1.11844e-06
-9.72039e-07
2.86457e-06
2.83613e-06
2.80934e-06
2.79105e-06
2.77841e-06
2.77055e-06
2.7674e-06
2.7688e-06
2.77456e-06
2.78449e-06
2.79841e-06
2.81616e-06
2.83756e-06
2.86246e-06
2.8907e-06
2.92211e-06
2.95653e-06
2.99378e-06
3.03368e-06
3.07602e-06
3.12059e-06
3.16713e-06
3.21537e-06
3.265e-06
3.31567e-06
3.36698e-06
3.4185e-06
3.46975e-06
3.5202e-06
3.5693e-06
3.61643e-06
3.66098e-06
3.70231e-06
3.7398e-06
3.77285e-06
3.80089e-06
3.82344e-06
3.84008e-06
3.85049e-06
3.85447e-06
3.85191e-06
3.84284e-06
3.82737e-06
3.80572e-06
3.77818e-06
3.74512e-06
3.70696e-06
3.66411e-06
3.61706e-06
3.56623e-06
3.51208e-06
3.45501e-06
3.39541e-06
3.33362e-06
3.26994e-06
3.20464e-06
3.13793e-06
3.07001e-06
3.00099e-06
2.93098e-06
2.86004e-06
2.78822e-06
2.71553e-06
2.64196e-06
2.56748e-06
2.49206e-06
2.41563e-06
2.33812e-06
2.25948e-06
2.17961e-06
2.09844e-06
2.01588e-06
1.93185e-06
1.84626e-06
1.75904e-06
1.67011e-06
1.57939e-06
1.48681e-06
1.3923e-06
1.29579e-06
1.19724e-06
1.09657e-06
9.93747e-07
8.88718e-07
7.81441e-07
6.71881e-07
5.60005e-07
4.45788e-07
3.29206e-07
2.10244e-07
8.88929e-08
-3.48422e-08
-1.60987e-07
-2.89708e-07
-4.20809e-07
-5.51293e-07
-6.79801e-07
-8.50176e-07
-1.14633e-06
-9.9394e-07
2.93591e-06
2.90807e-06
2.88185e-06
2.86394e-06
2.85156e-06
2.84386e-06
2.84077e-06
2.84214e-06
2.84778e-06
2.85751e-06
2.87116e-06
2.88858e-06
2.90959e-06
2.93405e-06
2.9618e-06
2.99268e-06
3.02652e-06
3.06317e-06
3.10243e-06
3.14411e-06
3.18798e-06
3.2338e-06
3.28129e-06
3.33015e-06
3.38004e-06
3.43056e-06
3.48128e-06
3.53172e-06
3.58137e-06
3.62967e-06
3.67602e-06
3.71981e-06
3.7604e-06
3.79717e-06
3.82952e-06
3.8569e-06
3.87879e-06
3.89479e-06
3.90458e-06
3.90792e-06
3.90473e-06
3.89498e-06
3.87881e-06
3.8564e-06
3.82805e-06
3.79411e-06
3.75499e-06
3.71111e-06
3.66292e-06
3.61089e-06
3.55544e-06
3.49699e-06
3.43593e-06
3.37261e-06
3.30733e-06
3.24036e-06
3.17194e-06
3.10224e-06
3.03142e-06
2.95957e-06
2.88676e-06
2.81305e-06
2.73847e-06
2.663e-06
2.58662e-06
2.5093e-06
2.43099e-06
2.35162e-06
2.27112e-06
2.18943e-06
2.10645e-06
2.02212e-06
1.93634e-06
1.84905e-06
1.76016e-06
1.66959e-06
1.57727e-06
1.48313e-06
1.3871e-06
1.28912e-06
1.18914e-06
1.0871e-06
9.8296e-07
8.76664e-07
7.6818e-07
6.57474e-07
5.44516e-07
4.29285e-07
3.1176e-07
1.91927e-07
6.97816e-08
-5.46706e-08
-1.81455e-07
-3.10741e-07
-4.4233e-07
-5.73169e-07
-7.0188e-07
-8.73159e-07
-1.17253e-06
-1.01454e-06
3.00425e-06
2.97697e-06
2.95129e-06
2.93376e-06
2.92163e-06
2.91408e-06
2.91105e-06
2.91239e-06
2.91792e-06
2.92747e-06
2.94087e-06
2.95797e-06
2.97861e-06
3.00265e-06
3.02992e-06
3.06029e-06
3.09358e-06
3.12964e-06
3.16827e-06
3.20929e-06
3.25247e-06
3.29758e-06
3.34434e-06
3.39245e-06
3.44156e-06
3.49129e-06
3.54122e-06
3.59088e-06
3.63974e-06
3.68726e-06
3.73284e-06
3.77588e-06
3.81574e-06
3.85182e-06
3.88349e-06
3.91022e-06
3.93149e-06
3.94688e-06
3.95607e-06
3.95882e-06
3.95502e-06
3.94465e-06
3.92782e-06
3.90471e-06
3.87561e-06
3.84086e-06
3.80085e-06
3.75601e-06
3.70678e-06
3.65363e-06
3.59697e-06
3.53724e-06
3.47481e-06
3.41005e-06
3.34326e-06
3.27473e-06
3.20467e-06
3.13331e-06
3.06077e-06
2.98717e-06
2.9126e-06
2.8371e-06
2.7607e-06
2.68342e-06
2.60523e-06
2.5261e-06
2.44598e-06
2.36483e-06
2.28256e-06
2.19911e-06
2.11441e-06
2.02838e-06
1.94094e-06
1.85201e-06
1.76151e-06
1.66937e-06
1.57552e-06
1.47989e-06
1.38242e-06
1.28304e-06
1.18171e-06
1.07836e-06
9.72965e-07
8.6547e-07
7.55844e-07
6.44055e-07
5.30078e-07
4.13891e-07
2.95477e-07
1.74826e-07
5.19322e-08
-7.31961e-08
-2.00585e-07
-3.30408e-07
-4.62464e-07
-5.93649e-07
-7.22568e-07
-8.94718e-07
-1.19714e-06
-1.03391e-06
3.06965e-06
3.04292e-06
3.01774e-06
3.00055e-06
2.98867e-06
2.98127e-06
2.9783e-06
2.97962e-06
2.98505e-06
2.99443e-06
3.00759e-06
3.02439e-06
3.04468e-06
3.06831e-06
3.09513e-06
3.125e-06
3.15775e-06
3.19323e-06
3.23126e-06
3.27163e-06
3.31414e-06
3.35855e-06
3.40459e-06
3.45195e-06
3.50031e-06
3.54927e-06
3.59842e-06
3.6473e-06
3.69539e-06
3.74214e-06
3.78697e-06
3.82928e-06
3.86844e-06
3.90382e-06
3.93485e-06
3.96095e-06
3.98161e-06
3.99643e-06
4.00505e-06
4.00723e-06
4.00286e-06
3.99192e-06
3.97448e-06
3.95073e-06
3.92093e-06
3.88542e-06
3.84459e-06
3.79886e-06
3.74867e-06
3.69447e-06
3.63669e-06
3.57575e-06
3.51205e-06
3.44594e-06
3.37774e-06
3.30772e-06
3.23614e-06
3.16319e-06
3.08904e-06
3.01378e-06
2.93752e-06
2.86032e-06
2.78221e-06
2.7032e-06
2.62328e-06
2.54242e-06
2.46058e-06
2.37772e-06
2.29376e-06
2.20864e-06
2.12229e-06
2.03463e-06
1.94559e-06
1.85509e-06
1.76306e-06
1.66942e-06
1.57411e-06
1.47706e-06
1.37821e-06
1.2775e-06
1.17488e-06
1.07029e-06
9.63706e-07
8.55076e-07
7.4437e-07
6.31559e-07
5.16619e-07
3.99531e-07
2.80282e-07
1.5886e-07
3.5262e-08
-9.05035e-08
-2.18463e-07
-3.48795e-07
-4.81297e-07
-6.12818e-07
-7.41944e-07
-9.14931e-07
-1.22024e-06
-1.05212e-06
3.13217e-06
3.10595e-06
3.08126e-06
3.0644e-06
3.05274e-06
3.04549e-06
3.04258e-06
3.04389e-06
3.04923e-06
3.05845e-06
3.07138e-06
3.0879e-06
3.10785e-06
3.13109e-06
3.15747e-06
3.18686e-06
3.21909e-06
3.25401e-06
3.29143e-06
3.33118e-06
3.37304e-06
3.41676e-06
3.46209e-06
3.50873e-06
3.55634e-06
3.60455e-06
3.65295e-06
3.70106e-06
3.7484e-06
3.7944e-06
3.8385e-06
3.88009e-06
3.91856e-06
3.95329e-06
3.98368e-06
4.00917e-06
4.02926e-06
4.04352e-06
4.0516e-06
4.05325e-06
4.04835e-06
4.03686e-06
4.01885e-06
3.9945e-06
3.96406e-06
3.92785e-06
3.88627e-06
3.83971e-06
3.78862e-06
3.73345e-06
3.67462e-06
3.61256e-06
3.54766e-06
3.48029e-06