/*--------------------------------*- C++ -*----------------------------------*\
  =========                 |
  \\      /  F ield         | OpenFOAM: The Open Source CFD Toolbox
   \\    /   O peration     | Website:  https://openfoam.org
    \\  /    A nd           | Version:  11
     \\/     M anipulation  |
\*---------------------------------------------------------------------------*/
FoamFile
{
    format      ascii;
    class       volScalarField;
    location    "508";
    object      k;
}
// * * * * * * * * * * * * * * * * * * * * * * * * * * * * * * * * * * * * * //

dimensions      [0 2 -2 0 0 0 0];

internalField   nonuniform List<scalar> 
10000
(
0.000939687
0.000835716
0.000745887
0.000668029
0.000600333
0.00054129
0.000489634
0.000444302
0.000404399
0.000369172
0.000337981
0.000310284
0.000285621
0.000263598
0.000243881
0.00022618
0.000210249
0.000195876
0.000182875
0.000171088
0.000160377
0.000150621
0.000141717
0.000133571
0.000126105
0.000119248
0.000112937
0.000107119
0.000101745
9.67723e-05
9.21628e-05
8.7883e-05
8.39028e-05
8.01955e-05
7.67369e-05
7.35057e-05
7.04825e-05
6.76499e-05
6.49924e-05
6.24959e-05
6.01475e-05
5.79358e-05
5.58503e-05
5.38815e-05
5.20207e-05
5.02602e-05
4.85926e-05
4.70115e-05
4.55109e-05
4.40852e-05
4.27296e-05
4.14394e-05
4.02104e-05
3.90387e-05
3.79207e-05
3.68532e-05
3.58333e-05
3.4858e-05
3.3925e-05
3.30318e-05
3.21763e-05
3.13565e-05
3.05708e-05
2.98173e-05
2.90947e-05
2.84016e-05
2.77366e-05
2.70988e-05
2.6487e-05
2.59004e-05
2.53382e-05
2.47997e-05
2.42843e-05
2.37913e-05
2.33203e-05
2.28709e-05
2.24428e-05
2.20356e-05
2.16489e-05
2.12827e-05
2.09365e-05
2.06102e-05
2.03035e-05
2.00161e-05
1.97477e-05
1.9498e-05
1.92665e-05
1.90528e-05
1.88565e-05
1.86769e-05
1.85135e-05
1.83659e-05
1.82333e-05
1.81154e-05
1.80117e-05
1.79219e-05
1.78461e-05
1.77847e-05
1.77391e-05
1.77123e-05
0.000939687
0.000835716
0.000745887
0.000668029
0.000600333
0.00054129
0.000489634
0.000444302
0.000404399
0.000369172
0.000337981
0.000310284
0.000285621
0.000263598
0.000243881
0.00022618
0.00021025
0.000195876
0.000182875
0.000171088
0.000160377
0.000150622
0.000141717
0.000133572
0.000126105
0.000119248
0.000112938
0.000107119
0.000101745
9.67725e-05
9.2163e-05
8.78832e-05
8.39031e-05
8.01957e-05
7.67371e-05
7.35059e-05
7.04827e-05
6.76502e-05
6.49927e-05
6.24962e-05
6.01478e-05
5.79361e-05
5.58506e-05
5.38818e-05
5.2021e-05
5.02605e-05
4.85929e-05
4.70118e-05
4.55112e-05
4.40856e-05
4.273e-05
4.14398e-05
4.02108e-05
3.90391e-05
3.79211e-05
3.68537e-05
3.58337e-05
3.48584e-05
3.39254e-05
3.30322e-05
3.21767e-05
3.1357e-05
3.05713e-05
2.98179e-05
2.90952e-05
2.84021e-05
2.77372e-05
2.70993e-05
2.64876e-05
2.5901e-05
2.53388e-05
2.48003e-05
2.42849e-05
2.37919e-05
2.33209e-05
2.28716e-05
2.24434e-05
2.20362e-05
2.16496e-05
2.12833e-05
2.09371e-05
2.06108e-05
2.03041e-05
2.00167e-05
1.97483e-05
1.94985e-05
1.9267e-05
1.90533e-05
1.88569e-05
1.86773e-05
1.85139e-05
1.83662e-05
1.82337e-05
1.81157e-05
1.80119e-05
1.79221e-05
1.78462e-05
1.77848e-05
1.77392e-05
1.77124e-05
0.000939687
0.000835716
0.000745887
0.000668029
0.000600334
0.000541291
0.000489634
0.000444302
0.0004044
0.000369172
0.000337981
0.000310284
0.000285621
0.000263599
0.000243881
0.000226181
0.00021025
0.000195876
0.000182876
0.000171089
0.000160378
0.000150622
0.000141717
0.000133572
0.000126106
0.000119248
0.000112938
0.00010712
0.000101746
9.67729e-05
9.21635e-05
8.78837e-05
8.39035e-05
8.01962e-05
7.67376e-05
7.35064e-05
7.04832e-05
6.76507e-05
6.49932e-05
6.24967e-05
6.01484e-05
5.79367e-05
5.58512e-05
5.38824e-05
5.20216e-05
5.02611e-05
4.85935e-05
4.70124e-05
4.55118e-05
4.40862e-05
4.27307e-05
4.14405e-05
4.02115e-05
3.90398e-05
3.79218e-05
3.68544e-05
3.58344e-05
3.48592e-05
3.39262e-05
3.3033e-05
3.21776e-05
3.13579e-05
3.05721e-05
2.98187e-05
2.90961e-05
2.8403e-05
2.77381e-05
2.71002e-05
2.64885e-05
2.59019e-05
2.53398e-05
2.48013e-05
2.42858e-05
2.37928e-05
2.33219e-05
2.28725e-05
2.24443e-05
2.20371e-05
2.16505e-05
2.12842e-05
2.0938e-05
2.06116e-05
2.03049e-05
2.00174e-05
1.9749e-05
1.94992e-05
1.92676e-05
1.90539e-05
1.88574e-05
1.86778e-05
1.85144e-05
1.83667e-05
1.82341e-05
1.8116e-05
1.80122e-05
1.79223e-05
1.78464e-05
1.7785e-05
1.77394e-05
1.77126e-05
0.000939687
0.000835717
0.000745887
0.000668029
0.000600334
0.000541291
0.000489635
0.000444302
0.0004044
0.000369173
0.000337982
0.000310285
0.000285622
0.000263599
0.000243882
0.000226181
0.000210251
0.000195877
0.000182876
0.000171089
0.000160378
0.000150623
0.000141718
0.000133573
0.000126106
0.000119249
0.000112939
0.00010712
0.000101746
9.67736e-05
9.21641e-05
8.78843e-05
8.39042e-05
8.01969e-05
7.67383e-05
7.35071e-05
7.04839e-05
6.76514e-05
6.4994e-05
6.24975e-05
6.01492e-05
5.79375e-05
5.5852e-05
5.38832e-05
5.20225e-05
5.0262e-05
4.85944e-05
4.70134e-05
4.55128e-05
4.40872e-05
4.27316e-05
4.14415e-05
4.02125e-05
3.90408e-05
3.79229e-05
3.68555e-05
3.58356e-05
3.48603e-05
3.39273e-05
3.30342e-05
3.21788e-05
3.13591e-05
3.05734e-05
2.982e-05
2.90974e-05
2.84043e-05
2.77393e-05
2.71015e-05
2.64898e-05
2.59033e-05
2.53411e-05
2.48026e-05
2.42871e-05
2.37941e-05
2.33232e-05
2.28738e-05
2.24456e-05
2.20383e-05
2.16517e-05
2.12853e-05
2.09391e-05
2.06127e-05
2.03059e-05
2.00184e-05
1.97499e-05
1.95e-05
1.92684e-05
1.90546e-05
1.88581e-05
1.86784e-05
1.8515e-05
1.83672e-05
1.82345e-05
1.81164e-05
1.80126e-05
1.79227e-05
1.78467e-05
1.77853e-05
1.77397e-05
1.77128e-05
0.000939687
0.000835717
0.000745887
0.000668029
0.000600334
0.000541291
0.000489635
0.000444303
0.000404401
0.000369173
0.000337982
0.000310285
0.000285622
0.0002636
0.000243882
0.000226182
0.000210251
0.000195877
0.000182877
0.00017109
0.000160379
0.000150623
0.000141719
0.000133573
0.000126107
0.00011925
0.000112939
0.000107121
0.000101747
9.67744e-05
9.2165e-05
8.78852e-05
8.39051e-05
8.01978e-05
7.67392e-05
7.35081e-05
7.04849e-05
6.76524e-05
6.4995e-05
6.24985e-05
6.01502e-05
5.79386e-05
5.58531e-05
5.38843e-05
5.20236e-05
5.02631e-05
4.85956e-05
4.70146e-05
4.5514e-05
4.40885e-05
4.27329e-05
4.14428e-05
4.02138e-05
3.90422e-05
3.79243e-05
3.68569e-05
3.5837e-05
3.48618e-05
3.39288e-05
3.30357e-05
3.21803e-05
3.13607e-05
3.0575e-05
2.98216e-05
2.9099e-05
2.84059e-05
2.7741e-05
2.71032e-05
2.64915e-05
2.5905e-05
2.53428e-05
2.48043e-05
2.42888e-05
2.37958e-05
2.33248e-05
2.28754e-05
2.24472e-05
2.20399e-05
2.16532e-05
2.12868e-05
2.09405e-05
2.06141e-05
2.03072e-05
2.00196e-05
1.9751e-05
1.95011e-05
1.92694e-05
1.90555e-05
1.88589e-05
1.86792e-05
1.85157e-05
1.83678e-05
1.8235e-05
1.81169e-05
1.8013e-05
1.7923e-05
1.78471e-05
1.77856e-05
1.77399e-05
1.7713e-05
0.000939687
0.000835717
0.000745888
0.00066803
0.000600334
0.000541292
0.000489635
0.000444303
0.000404401
0.000369174
0.000337983
0.000310286
0.000285623
0.0002636
0.000243883
0.000226182
0.000210252
0.000195878
0.000182878
0.000171091
0.00016038
0.000150624
0.000141719
0.000133574
0.000126108
0.000119251
0.00011294
0.000107122
0.000101748
9.67754e-05
9.2166e-05
8.78863e-05
8.39062e-05
8.01989e-05
7.67404e-05
7.35092e-05
7.04861e-05
6.76536e-05
6.49962e-05
6.24997e-05
6.01515e-05
5.79399e-05
5.58544e-05
5.38857e-05
5.2025e-05
5.02645e-05
4.8597e-05
4.7016e-05
4.55155e-05
4.409e-05
4.27345e-05
4.14444e-05
4.02155e-05
3.90438e-05
3.7926e-05
3.68586e-05
3.58388e-05
3.48636e-05
3.39307e-05
3.30376e-05
3.21822e-05
3.13626e-05
3.05769e-05
2.98236e-05
2.9101e-05
2.84079e-05
2.77431e-05
2.71053e-05
2.64936e-05
2.5907e-05
2.53449e-05
2.48064e-05
2.42909e-05
2.37979e-05
2.33269e-05
2.28774e-05
2.24492e-05
2.20418e-05
2.16551e-05
2.12886e-05
2.09423e-05
2.06158e-05
2.03088e-05
2.00211e-05
1.97524e-05
1.95024e-05
1.92706e-05
1.90566e-05
1.88599e-05
1.86801e-05
1.85164e-05
1.83685e-05
1.82357e-05
1.81174e-05
1.80134e-05
1.79234e-05
1.78474e-05
1.77859e-05
1.77402e-05
1.77133e-05
0.000939687
0.000835717
0.000745888
0.00066803
0.000600335
0.000541292
0.000489636
0.000444304
0.000404402
0.000369174
0.000337983
0.000310287
0.000285624
0.000263601
0.000243884
0.000226183
0.000210253
0.000195879
0.000182879
0.000171092
0.000160381
0.000150625
0.000141721
0.000133575
0.000126109
0.000119252
0.000112942
0.000107123
0.000101749
9.67766e-05
9.21672e-05
8.78875e-05
8.39074e-05
8.02001e-05
7.67417e-05
7.35105e-05
7.04874e-05
6.7655e-05
6.49976e-05
6.25012e-05
6.0153e-05
5.79414e-05
5.5856e-05
5.38873e-05
5.20266e-05
5.02662e-05
4.85987e-05
4.70178e-05
4.55173e-05
4.40918e-05
4.27363e-05
4.14463e-05
4.02174e-05
3.90458e-05
3.7928e-05
3.68607e-05
3.58409e-05
3.48657e-05
3.39328e-05
3.30398e-05
3.21844e-05
3.13649e-05
3.05792e-05
2.98259e-05
2.91034e-05
2.84103e-05
2.77455e-05
2.71077e-05
2.6496e-05
2.59095e-05
2.53473e-05
2.48088e-05
2.42933e-05
2.38003e-05
2.33293e-05
2.28798e-05
2.24515e-05
2.20441e-05
2.16573e-05
2.12907e-05
2.09443e-05
2.06177e-05
2.03106e-05
2.00228e-05
1.9754e-05
1.95039e-05
1.92719e-05
1.90578e-05
1.8861e-05
1.8681e-05
1.85173e-05
1.83692e-05
1.82363e-05
1.8118e-05
1.80139e-05
1.79238e-05
1.78478e-05
1.77862e-05
1.77405e-05
1.77135e-05
0.000939687
0.000835717
0.000745888
0.00066803
0.000600335
0.000541292
0.000489636
0.000444304
0.000404402
0.000369175
0.000337984
0.000310287
0.000285624
0.000263602
0.000243885
0.000226184
0.000210254
0.00019588
0.00018288
0.000171093
0.000160382
0.000150626
0.000141722
0.000133576
0.00012611
0.000119253
0.000112943
0.000107125
0.000101751
9.67779e-05
9.21686e-05
8.78889e-05
8.39089e-05
8.02016e-05
7.67432e-05
7.35121e-05
7.0489e-05
6.76566e-05
6.49993e-05
6.25029e-05
6.01547e-05
5.79431e-05
5.58578e-05
5.38891e-05
5.20285e-05
5.02681e-05
4.86007e-05
4.70198e-05
4.55193e-05
4.40939e-05
4.27385e-05
4.14484e-05
4.02196e-05
3.90481e-05
3.79303e-05
3.6863e-05
3.58432e-05
3.48682e-05
3.39353e-05
3.30423e-05
3.2187e-05
3.13674e-05
3.05819e-05
2.98286e-05
2.91061e-05
2.84131e-05
2.77482e-05
2.71105e-05
2.64988e-05
2.59123e-05
2.53501e-05
2.48116e-05
2.42961e-05
2.38031e-05
2.3332e-05
2.28825e-05
2.24541e-05
2.20466e-05
2.16597e-05
2.12931e-05
2.09466e-05
2.06199e-05
2.03127e-05
2.00248e-05
1.97558e-05
1.95055e-05
1.92735e-05
1.90592e-05
1.88623e-05
1.86821e-05
1.85183e-05
1.83701e-05
1.8237e-05
1.81186e-05
1.80144e-05
1.79242e-05
1.78481e-05
1.77865e-05
1.77407e-05
1.77137e-05
0.000939687
0.000835717
0.000745888
0.00066803
0.000600335
0.000541293
0.000489637
0.000444305
0.000404403
0.000369176
0.000337985
0.000310288
0.000285625
0.000263603
0.000243886
0.000226185
0.000210255
0.000195881
0.000182881
0.000171094
0.000160383
0.000150627
0.000141723
0.000133578
0.000126112
0.000119254
0.000112944
0.000107126
0.000101752
9.67794e-05
9.21701e-05
8.78905e-05
8.39104e-05
8.02032e-05
7.67448e-05
7.35138e-05
7.04907e-05
6.76584e-05
6.50011e-05
6.25047e-05
6.01566e-05
5.79451e-05
5.58597e-05
5.38911e-05
5.20306e-05
5.02702e-05
4.86028e-05
4.7022e-05
4.55216e-05
4.40962e-05
4.27408e-05
4.14508e-05
4.0222e-05
3.90506e-05
3.79329e-05
3.68656e-05
3.58459e-05
3.48709e-05
3.39381e-05
3.30451e-05
3.21898e-05
3.13703e-05
3.05848e-05
2.98315e-05
2.91091e-05
2.84161e-05
2.77513e-05
2.71136e-05
2.65019e-05
2.59154e-05
2.53532e-05
2.48147e-05
2.42992e-05
2.38061e-05
2.3335e-05
2.28854e-05
2.2457e-05
2.20495e-05
2.16625e-05
2.12958e-05
2.09491e-05
2.06223e-05
2.03149e-05
2.00269e-05
1.97578e-05
1.95073e-05
1.92751e-05
1.90607e-05
1.88636e-05
1.86833e-05
1.85193e-05
1.83709e-05
1.82378e-05
1.81192e-05
1.80149e-05
1.79246e-05
1.78484e-05
1.77867e-05
1.77409e-05
1.77138e-05
0.000939687
0.000835717
0.000745888
0.000668031
0.000600336
0.000541293
0.000489637
0.000444306
0.000404404
0.000369177
0.000337986
0.000310289
0.000285626
0.000263604
0.000243887
0.000226186
0.000210256
0.000195882
0.000182882
0.000171095
0.000160384
0.000150629
0.000141724
0.000133579
0.000126113
0.000119256
0.000112946
0.000107128
0.000101754
9.6781e-05
9.21718e-05
8.78922e-05
8.39122e-05
8.0205e-05
7.67466e-05
7.35156e-05
7.04926e-05
6.76603e-05
6.50031e-05
6.25067e-05
6.01586e-05
5.79472e-05
5.58619e-05
5.38933e-05
5.20328e-05
5.02725e-05
4.86052e-05
4.70244e-05
4.5524e-05
4.40987e-05
4.27434e-05
4.14535e-05
4.02247e-05
3.90533e-05
3.79357e-05
3.68685e-05
3.58488e-05
3.48739e-05
3.39411e-05
3.30482e-05
3.2193e-05
3.13735e-05
3.0588e-05
2.98348e-05
2.91124e-05
2.84194e-05
2.77547e-05
2.7117e-05
2.65053e-05
2.59188e-05
2.53567e-05
2.48181e-05
2.43026e-05
2.38095e-05
2.33383e-05
2.28887e-05
2.24602e-05
2.20526e-05
2.16655e-05
2.12987e-05
2.09519e-05
2.06249e-05
2.03174e-05
2.00292e-05
1.97599e-05
1.95093e-05
1.92769e-05
1.90623e-05
1.8865e-05
1.86846e-05
1.85204e-05
1.83719e-05
1.82385e-05
1.81198e-05
1.80154e-05
1.7925e-05
1.78487e-05
1.77869e-05
1.7741e-05
1.77138e-05
0.000939687
0.000835717
0.000745888
0.000668031
0.000600336
0.000541293
0.000489638
0.000444306
0.000404404
0.000369177
0.000337986
0.00031029
0.000285627
0.000263605
0.000243888
0.000226187
0.000210257
0.000195884
0.000182883
0.000171096
0.000160386
0.00015063
0.000141726
0.000133581
0.000126115
0.000119258
0.000112947
0.000107129
0.000101755
9.67828e-05
9.21735e-05
8.7894e-05
8.3914e-05
8.02069e-05
7.67486e-05
7.35176e-05
7.04947e-05
6.76624e-05
6.50052e-05
6.25089e-05
6.01609e-05
5.79495e-05
5.58643e-05
5.38957e-05
5.20353e-05
5.0275e-05
4.86078e-05
4.7027e-05
4.55267e-05
4.41014e-05
4.27462e-05
4.14563e-05
4.02276e-05
3.90563e-05
3.79387e-05
3.68716e-05
3.5852e-05
3.48771e-05
3.39444e-05
3.30515e-05
3.21964e-05
3.1377e-05
3.05915e-05
2.98383e-05
2.9116e-05
2.84231e-05
2.77583e-05
2.71206e-05
2.6509e-05
2.59225e-05
2.53603e-05
2.48218e-05
2.43062e-05
2.38131e-05
2.33419e-05
2.28922e-05
2.24636e-05
2.20559e-05
2.16687e-05
2.13018e-05
2.09548e-05
2.06277e-05
2.03201e-05
2.00317e-05
1.97622e-05
1.95114e-05
1.92788e-05
1.9064e-05
1.88665e-05
1.86859e-05
1.85215e-05
1.83728e-05
1.82393e-05
1.81204e-05
1.80159e-05
1.79254e-05
1.78489e-05
1.7787e-05
1.77411e-05
1.77138e-05
0.000939687
0.000835717
0.000745888
0.000668031
0.000600336
0.000541294
0.000489638
0.000444307
0.000404405
0.000369178
0.000337987
0.000310291
0.000285628
0.000263606
0.000243889
0.000226189
0.000210258
0.000195885
0.000182884
0.000171098
0.000160387
0.000150632
0.000141727
0.000133582
0.000126116
0.000119259
0.000112949
0.000107131
0.000101757
9.67846e-05
9.21754e-05
8.78959e-05
8.3916e-05
8.02089e-05
7.67507e-05
7.35197e-05
7.04968e-05
6.76646e-05
6.50075e-05
6.25113e-05
6.01632e-05
5.79519e-05
5.58667e-05
5.38983e-05
5.20379e-05
5.02777e-05
4.86105e-05
4.70298e-05
4.55296e-05
4.41044e-05
4.27492e-05
4.14594e-05
4.02308e-05
3.90595e-05
3.79419e-05
3.68749e-05
3.58553e-05
3.48805e-05
3.39479e-05
3.30551e-05
3.22e-05
3.13806e-05
3.05952e-05
2.98421e-05
2.91198e-05
2.84269e-05
2.77622e-05
2.71245e-05
2.65129e-05
2.59264e-05
2.53643e-05
2.48257e-05
2.43101e-05
2.38169e-05
2.33457e-05
2.28959e-05
2.24673e-05
2.20594e-05
2.16721e-05
2.13051e-05
2.0958e-05
2.06307e-05
2.03229e-05
2.00343e-05
1.97646e-05
1.95136e-05
1.92808e-05
1.90658e-05
1.88681e-05
1.86872e-05
1.85226e-05
1.83738e-05
1.82401e-05
1.81211e-05
1.80163e-05
1.79257e-05
1.78491e-05
1.77871e-05
1.7741e-05
1.77138e-05
0.000939687
0.000835717
0.000745889
0.000668031
0.000600337
0.000541294
0.000489639
0.000444307
0.000404405
0.000369179
0.000337988
0.000310292
0.000285629
0.000263607
0.00024389
0.00022619
0.00021026
0.000195886
0.000182886
0.000171099
0.000160388
0.000150633
0.000141729
0.000133584
0.000126118
0.000119261
0.000112951
0.000107133
0.000101759
9.67865e-05
9.21774e-05
8.78979e-05
8.39181e-05
8.0211e-05
7.67528e-05
7.3522e-05
7.04991e-05
6.7667e-05
6.50099e-05
6.25137e-05
6.01658e-05
5.79545e-05
5.58694e-05
5.3901e-05
5.20406e-05
5.02805e-05
4.86134e-05
4.70327e-05
4.55326e-05
4.41075e-05
4.27523e-05
4.14626e-05
4.02341e-05
3.90628e-05
3.79454e-05
3.68784e-05
3.58589e-05
3.48841e-05
3.39516e-05
3.30588e-05
3.22038e-05
3.13845e-05
3.05992e-05
2.98461e-05
2.91239e-05
2.8431e-05
2.77663e-05
2.71287e-05
2.65171e-05
2.59306e-05
2.53684e-05
2.48299e-05
2.43143e-05
2.3821e-05
2.33497e-05
2.28999e-05
2.24711e-05
2.20632e-05
2.16758e-05
2.13085e-05
2.09613e-05
2.06338e-05
2.03258e-05
2.0037e-05
1.97672e-05
1.95159e-05
1.92829e-05
1.90676e-05
1.88697e-05
1.86886e-05
1.85238e-05
1.83747e-05
1.82408e-05
1.81216e-05
1.80167e-05
1.79259e-05
1.78492e-05
1.77871e-05
1.7741e-05
1.77137e-05
0.000939687
0.000835717
0.000745889
0.000668031
0.000600337
0.000541295
0.000489639
0.000444308
0.000404406
0.000369179
0.000337989
0.000310293
0.00028563
0.000263608
0.000243891
0.000226191
0.000210261
0.000195887
0.000182887
0.000171101
0.00016039
0.000150635
0.00014173
0.000133585
0.00012612
0.000119263
0.000112953
0.000107135
0.000101761
9.67885e-05
9.21794e-05
8.79e-05
8.39202e-05
8.02133e-05
7.67551e-05
7.35243e-05
7.05015e-05
6.76694e-05
6.50124e-05
6.25163e-05
6.01684e-05
5.79572e-05
5.58721e-05
5.39038e-05
5.20435e-05
5.02835e-05
4.86164e-05
4.70358e-05
4.55358e-05
4.41107e-05
4.27556e-05
4.1466e-05
4.02375e-05
3.90664e-05
3.7949e-05
3.68821e-05
3.58627e-05
3.4888e-05
3.39555e-05
3.30628e-05
3.22078e-05
3.13886e-05
3.06033e-05
2.98503e-05
2.91281e-05
2.84353e-05
2.77707e-05
2.7133e-05
2.65215e-05
2.5935e-05
2.53728e-05
2.48342e-05
2.43186e-05
2.38253e-05
2.33539e-05
2.2904e-05
2.24752e-05
2.20671e-05
2.16795e-05
2.13122e-05
2.09648e-05
2.06371e-05
2.03289e-05
2.00399e-05
1.97698e-05
1.95183e-05
1.9285e-05
1.90695e-05
1.88714e-05
1.86901e-05
1.8525e-05
1.83757e-05
1.82416e-05
1.81222e-05
1.80171e-05
1.79262e-05
1.78493e-05
1.77871e-05
1.77408e-05
1.77135e-05
0.000939687
0.000835717
0.000745889
0.000668031
0.000600337
0.000541295
0.000489639
0.000444308
0.000404407
0.00036918
0.00033799
0.000310293
0.000285631
0.000263609
0.000243892
0.000226192
0.000210262
0.000195889
0.000182889
0.000171102
0.000160391
0.000150636
0.000141732
0.000133587
0.000126121
0.000119264
0.000112954
0.000107137
0.000101763
9.67906e-05
9.21816e-05
8.79022e-05
8.39225e-05
8.02156e-05
7.67575e-05
7.35267e-05
7.0504e-05
6.76719e-05
6.5015e-05
6.25189e-05
6.01711e-05
5.796e-05
5.5875e-05
5.39067e-05
5.20465e-05
5.02865e-05
4.86196e-05
4.70391e-05
4.5539e-05
4.41141e-05
4.27591e-05
4.14695e-05
4.02411e-05
3.907e-05
3.79527e-05
3.68859e-05
3.58666e-05
3.48919e-05
3.39595e-05
3.30669e-05
3.2212e-05
3.13929e-05
3.06076e-05
2.98547e-05
2.91325e-05
2.84398e-05
2.77752e-05
2.71376e-05
2.6526e-05
2.59396e-05
2.53774e-05
2.48388e-05
2.43231e-05
2.38298e-05
2.33583e-05
2.29083e-05
2.24794e-05
2.20712e-05
2.16835e-05
2.1316e-05
2.09684e-05
2.06405e-05
2.03321e-05
2.00429e-05
1.97725e-05
1.95208e-05
1.92873e-05
1.90715e-05
1.88731e-05
1.86915e-05
1.85262e-05
1.83767e-05
1.82423e-05
1.81227e-05
1.80175e-05
1.79263e-05
1.78493e-05
1.77869e-05
1.77406e-05
1.77132e-05
0.000939687
0.000835717
0.000745889
0.000668032
0.000600337
0.000541295
0.00048964
0.000444309
0.000404407
0.000369181
0.00033799
0.000310294
0.000285632
0.00026361
0.000243893
0.000226193
0.000210263
0.00019589
0.00018289
0.000171104
0.000160393
0.000150638
0.000141734
0.000133589
0.000126123
0.000119266
0.000112956
0.000107139
0.000101765
9.67927e-05
9.21837e-05
8.79044e-05
8.39248e-05
8.02179e-05
7.67599e-05
7.35292e-05
7.05065e-05
6.76746e-05
6.50176e-05
6.25217e-05
6.01739e-05
5.79628e-05
5.58779e-05
5.39098e-05
5.20496e-05
5.02897e-05
4.86228e-05
4.70424e-05
4.55425e-05
4.41175e-05
4.27626e-05
4.14731e-05
4.02448e-05
3.90738e-05
3.79566e-05
3.68899e-05
3.58706e-05
3.48961e-05
3.39637e-05
3.30712e-05
3.22164e-05
3.13973e-05
3.06121e-05
2.98592e-05
2.91371e-05
2.84444e-05
2.77798e-05
2.71423e-05
2.65307e-05
2.59443e-05
2.53821e-05
2.48435e-05
2.43277e-05
2.38344e-05
2.33628e-05
2.29127e-05
2.24837e-05
2.20754e-05
2.16875e-05
2.13198e-05
2.09721e-05
2.0644e-05
2.03354e-05
2.00459e-05
1.97753e-05
1.95233e-05
1.92895e-05
1.90735e-05
1.88748e-05
1.8693e-05
1.85274e-05
1.83776e-05
1.8243e-05
1.81232e-05
1.80177e-05
1.79264e-05
1.78492e-05
1.77868e-05
1.77404e-05
1.77129e-05
0.000939687
0.000835718
0.000745889
0.000668032
0.000600338
0.000541295
0.00048964
0.000444309
0.000404408
0.000369181
0.000337991
0.000310295
0.000285633
0.000263611
0.000243894
0.000226194
0.000210265
0.000195891
0.000182891
0.000171105
0.000160395
0.00015064
0.000141735
0.000133591
0.000126125
0.000119268
0.000112958
0.000107141
0.000101767
9.67948e-05
9.21859e-05
8.79067e-05
8.39271e-05
8.02203e-05
7.67624e-05
7.35317e-05
7.05091e-05
6.76772e-05
6.50204e-05
6.25245e-05
6.01768e-05
5.79658e-05
5.5881e-05
5.39129e-05
5.20528e-05
5.0293e-05
4.86261e-05
4.70458e-05
4.55459e-05
4.41211e-05
4.27663e-05
4.14769e-05
4.02487e-05
3.90777e-05
3.79606e-05
3.68939e-05
3.58748e-05
3.49003e-05
3.3968e-05
3.30756e-05
3.22208e-05
3.14018e-05
3.06167e-05
2.98639e-05
2.91418e-05
2.84492e-05
2.77846e-05
2.71471e-05
2.65356e-05
2.59491e-05
2.53869e-05
2.48483e-05
2.43325e-05
2.38391e-05
2.33675e-05
2.29173e-05
2.24882e-05
2.20797e-05
2.16917e-05
2.13238e-05
2.09759e-05
2.06476e-05
2.03387e-05
2.0049e-05
1.97782e-05
1.95259e-05
1.92919e-05
1.90756e-05
1.88766e-05
1.86944e-05
1.85286e-05
1.83786e-05
1.82437e-05
1.81237e-05
1.8018e-05
1.79264e-05
1.78491e-05
1.77865e-05
1.774e-05
1.77125e-05
0.000939687
0.000835718
0.000745889
0.000668032
0.000600338
0.000541296
0.000489641
0.00044431
0.000404408
0.000369182
0.000337992
0.000310296
0.000285634
0.000263612
0.000243895
0.000226196
0.000210266
0.000195893
0.000182893
0.000171107
0.000160396
0.000150641
0.000141737
0.000133592
0.000126127
0.00011927
0.00011296
0.000107143
0.000101769
9.6797e-05
9.21882e-05
8.7909e-05
8.39295e-05
8.02228e-05
7.67649e-05
7.35343e-05
7.05118e-05
6.768e-05
6.50232e-05
6.25274e-05
6.01798e-05
5.79688e-05
5.58841e-05
5.3916e-05
5.20561e-05
5.02963e-05
4.86296e-05
4.70493e-05
4.55495e-05
4.41248e-05
4.277e-05
4.14807e-05
4.02526e-05
3.90817e-05
3.79647e-05
3.68981e-05
3.5879e-05
3.49046e-05
3.39724e-05
3.30801e-05
3.22254e-05
3.14065e-05
3.06214e-05
2.98687e-05
2.91466e-05
2.8454e-05
2.77895e-05
2.7152e-05
2.65405e-05
2.59541e-05
2.53919e-05
2.48532e-05
2.43374e-05
2.38439e-05
2.33722e-05
2.2922e-05
2.24927e-05
2.20841e-05
2.1696e-05
2.13279e-05
2.09798e-05
2.06513e-05
2.03422e-05
2.00522e-05
1.97811e-05
1.95286e-05
1.92942e-05
1.90776e-05
1.88783e-05
1.86959e-05
1.85298e-05
1.83795e-05
1.82444e-05
1.81241e-05
1.80182e-05
1.79264e-05
1.7849e-05
1.77862e-05
1.77396e-05
1.7712e-05
0.000939687
0.000835718
0.000745889
0.000668032
0.000600338
0.000541296
0.000489641
0.00044431
0.000404409
0.000369183
0.000337992
0.000310297
0.000285634
0.000263613
0.000243896
0.000226197
0.000210267
0.000195894
0.000182894
0.000171108
0.000160398
0.000150643
0.000141739
0.000133594
0.000126129
0.000119272
0.000112962
0.000107145
0.000101771
9.67992e-05
9.21904e-05
8.79113e-05
8.39319e-05
8.02252e-05
7.67674e-05
7.35369e-05
7.05145e-05
6.76827e-05
6.5026e-05
6.25303e-05
6.01827e-05
5.79719e-05
5.58872e-05
5.39193e-05
5.20594e-05
5.02997e-05
4.8633e-05
4.70528e-05
4.55532e-05
4.41285e-05
4.27738e-05
4.14846e-05
4.02566e-05
3.90858e-05
3.79688e-05
3.69024e-05
3.58833e-05
3.49091e-05
3.39769e-05
3.30846e-05
3.22301e-05
3.14112e-05
3.06262e-05
2.98735e-05
2.91516e-05
2.8459e-05
2.77945e-05
2.71571e-05
2.65456e-05
2.59591e-05
2.53969e-05
2.48582e-05
2.43424e-05
2.38488e-05
2.33771e-05
2.29267e-05
2.24973e-05
2.20886e-05
2.17003e-05
2.13321e-05
2.09837e-05
2.0655e-05
2.03456e-05
2.00554e-05
1.97841e-05
1.95312e-05
1.92966e-05
1.90797e-05
1.88801e-05
1.86974e-05
1.8531e-05
1.83804e-05
1.8245e-05
1.81245e-05
1.80183e-05
1.79264e-05
1.78487e-05
1.77858e-05
1.77391e-05
1.77115e-05
0.000939687
0.000835718
0.000745889
0.000668032
0.000600338
0.000541296
0.000489641
0.00044431
0.000404409
0.000369183
0.000337993
0.000310297
0.000285635
0.000263614
0.000243897
0.000226198
0.000210268
0.000195895
0.000182896
0.000171109
0.000160399
0.000150644
0.000141741
0.000133596
0.000126131
0.000119274
0.000112964
0.000107147
0.000101773
9.68014e-05
9.21927e-05
8.79137e-05
8.39343e-05
8.02277e-05
7.677e-05
7.35396e-05
7.05172e-05
6.76855e-05
6.50289e-05
6.25332e-05
6.01858e-05
5.7975e-05
5.58904e-05
5.39225e-05
5.20627e-05
5.03031e-05
4.86365e-05
4.70564e-05
4.55568e-05
4.41323e-05
4.27777e-05
4.14885e-05
4.02606e-05
3.90899e-05
3.79731e-05
3.69067e-05
3.58877e-05
3.49135e-05
3.39815e-05
3.30893e-05
3.22348e-05
3.1416e-05
3.06311e-05
2.98784e-05
2.91565e-05
2.8464e-05
2.77996e-05
2.71621e-05
2.65507e-05
2.59642e-05
2.5402e-05
2.48633e-05
2.43474e-05
2.38538e-05
2.3382e-05
2.29315e-05
2.2502e-05
2.20932e-05
2.17047e-05
2.13362e-05
2.09877e-05
2.06587e-05
2.03491e-05
2.00587e-05
1.9787e-05
1.95339e-05
1.92989e-05
1.90817e-05
1.88819e-05
1.86989e-05
1.85322e-05
1.83813e-05
1.82456e-05
1.81248e-05
1.80184e-05
1.79263e-05
1.78484e-05
1.77854e-05
1.77386e-05
1.77109e-05
0.000939687
0.000835718
0.000745889
0.000668032
0.000600338
0.000541297
0.000489642
0.000444311
0.00040441
0.000369184
0.000337994
0.000310298
0.000285636
0.000263615
0.000243898
0.000226199
0.000210269
0.000195897
0.000182897
0.000171111
0.000160401
0.000150646
0.000141742
0.000133598
0.000126132
0.000119276
0.000112966
0.000107149
0.000101776
9.68036e-05
9.2195e-05
8.7916e-05
8.39367e-05
8.02302e-05
7.67725e-05
7.35422e-05
7.05199e-05
6.76883e-05
6.50318e-05
6.25362e-05
6.01888e-05
5.79781e-05
5.58936e-05
5.39258e-05
5.20661e-05
5.03066e-05
4.86401e-05
4.70601e-05
4.55605e-05
4.41361e-05
4.27816e-05
4.14925e-05
4.02647e-05
3.90941e-05
3.79773e-05
3.6911e-05
3.58922e-05
3.4918e-05
3.39861e-05
3.3094e-05
3.22395e-05
3.14208e-05
3.0636e-05
2.98834e-05
2.91615e-05
2.84691e-05
2.78047e-05
2.71673e-05
2.65558e-05
2.59694e-05
2.54072e-05
2.48684e-05
2.43525e-05
2.38588e-05
2.33869e-05
2.29363e-05
2.25067e-05
2.20977e-05
2.17091e-05
2.13405e-05
2.09917e-05
2.06625e-05
2.03527e-05
2.00619e-05
1.979e-05
1.95366e-05
1.93013e-05
1.90838e-05
1.88836e-05
1.87003e-05
1.85333e-05
1.83821e-05
1.82462e-05
1.81251e-05
1.80185e-05
1.79261e-05
1.78481e-05
1.77849e-05
1.7738e-05
1.77102e-05
0.000939687
0.000835718
0.000745889
0.000668033
0.000600339
0.000541297
0.000489642
0.000444311
0.00040441
0.000369184
0.000337994
0.000310299
0.000285637
0.000263616
0.000243899
0.0002262
0.000210271
0.000195898
0.000182898
0.000171112
0.000160402
0.000150648
0.000141744
0.000133599
0.000126134
0.000119278
0.000112968
0.000107151
0.000101778
9.68058e-05
9.21972e-05
8.79184e-05
8.39391e-05
8.02327e-05
7.67751e-05
7.35448e-05
7.05226e-05
6.76911e-05
6.50346e-05
6.25391e-05
6.01918e-05
5.79812e-05
5.58968e-05
5.39291e-05
5.20694e-05
5.031e-05
4.86436e-05
4.70637e-05
4.55643e-05
4.41399e-05
4.27855e-05
4.14965e-05
4.02687e-05
3.90983e-05
3.79816e-05
3.69153e-05
3.58966e-05
3.49226e-05
3.39907e-05
3.30987e-05
3.22443e-05
3.14256e-05
3.06409e-05
2.98884e-05
2.91666e-05
2.84742e-05
2.78098e-05
2.71724e-05
2.6561e-05
2.59746e-05
2.54123e-05
2.48736e-05
2.43576e-05
2.38639e-05
2.33919e-05
2.29412e-05
2.25115e-05
2.21023e-05
2.17135e-05
2.13447e-05
2.09957e-05
2.06663e-05
2.03562e-05
2.00652e-05
1.9793e-05
1.95393e-05
1.93037e-05
1.90859e-05
1.88854e-05
1.87017e-05
1.85344e-05
1.83829e-05
1.82467e-05
1.81254e-05
1.80185e-05
1.79259e-05
1.78477e-05
1.77843e-05
1.77373e-05
1.77095e-05
0.000939687
0.000835718
0.00074589
0.000668033
0.000600339
0.000541297
0.000489642
0.000444312
0.000404411
0.000369185
0.000337995
0.0003103
0.000285638
0.000263617
0.0002439
0.000226201
0.000210272
0.000195899
0.0001829
0.000171114
0.000160404
0.000150649
0.000141745
0.000133601
0.000126136
0.00011928
0.00011297
0.000107153
0.00010178
9.6808e-05
9.21995e-05
8.79207e-05
8.39415e-05
8.02352e-05
7.67777e-05
7.35475e-05
7.05253e-05
6.76939e-05
6.50375e-05
6.25421e-05
6.01949e-05
5.79843e-05
5.59e-05
5.39324e-05
5.20728e-05
5.03135e-05
4.86471e-05
4.70673e-05
4.5568e-05
4.41437e-05
4.27894e-05
4.15005e-05
4.02728e-05
3.91024e-05
3.79858e-05
3.69197e-05
3.5901e-05
3.49271e-05
3.39953e-05
3.31034e-05
3.22491e-05
3.14305e-05
3.06458e-05
2.98934e-05
2.91716e-05
2.84792e-05
2.78149e-05
2.71776e-05
2.65662e-05
2.59797e-05
2.54175e-05
2.48787e-05
2.43627e-05
2.38689e-05
2.33968e-05
2.2946e-05
2.25162e-05
2.21069e-05
2.17179e-05
2.13489e-05
2.09997e-05
2.06701e-05
2.03597e-05
2.00684e-05
1.97959e-05
1.95419e-05
1.9306e-05
1.90879e-05
1.88871e-05
1.87031e-05
1.85355e-05
1.83837e-05
1.82472e-05
1.81256e-05
1.80185e-05
1.79257e-05
1.78472e-05
1.77837e-05
1.77366e-05
1.77087e-05
0.000939687
0.000835718
0.00074589
0.000668033
0.000600339
0.000541297
0.000489643
0.000444312
0.000404411
0.000369185
0.000337996
0.0003103
0.000285639
0.000263617
0.000243901
0.000226202
0.000210273
0.0001959
0.000182901
0.000171115
0.000160405
0.000150651
0.000141747
0.000133603
0.000126138
0.000119281
0.000112972
0.000107155
0.000101782
9.68101e-05
9.22017e-05
8.7923e-05
8.39439e-05
8.02376e-05
7.67802e-05
7.35501e-05
7.0528e-05
6.76967e-05
6.50403e-05
6.2545e-05
6.01979e-05
5.79874e-05
5.59032e-05
5.39356e-05
5.20762e-05
5.03169e-05
4.86507e-05
4.70709e-05
4.55717e-05
4.41475e-05
4.27933e-05
4.15045e-05
4.02769e-05
3.91066e-05
3.79901e-05
3.6924e-05
3.59055e-05
3.49316e-05
3.39999e-05
3.3108e-05
3.22538e-05
3.14353e-05
3.06507e-05
2.98983e-05
2.91767e-05
2.84843e-05
2.78201e-05
2.71827e-05
2.65713e-05
2.59849e-05
2.54227e-05
2.48838e-05
2.43678e-05
2.38739e-05
2.34018e-05
2.29509e-05
2.25209e-05
2.21115e-05
2.17223e-05
2.13531e-05
2.10037e-05
2.06738e-05
2.03632e-05
2.00717e-05
1.97989e-05
1.95446e-05
1.93084e-05
1.90899e-05
1.88888e-05
1.87045e-05
1.85366e-05
1.83845e-05
1.82477e-05
1.81258e-05
1.80184e-05
1.79254e-05
1.78467e-05
1.77831e-05
1.77358e-05
1.77079e-05
0.000939687
0.000835718
0.00074589
0.000668033
0.000600339
0.000541298
0.000489643
0.000444312
0.000404412
0.000369186
0.000337996
0.000310301
0.000285639
0.000263618
0.000243902
0.000226203
0.000210274
0.000195901
0.000182902
0.000171116
0.000160406
0.000150652
0.000141749
0.000133604
0.000126139
0.000119283
0.000112974
0.000107157
0.000101784
9.68122e-05
9.22039e-05
8.79253e-05
8.39463e-05
8.02401e-05
7.67827e-05
7.35527e-05
7.05307e-05
6.76994e-05
6.50432e-05
6.25479e-05
6.02009e-05
5.79905e-05
5.59063e-05
5.39389e-05
5.20795e-05
5.03203e-05
4.86542e-05
4.70745e-05
4.55754e-05
4.41513e-05
4.27971e-05
4.15084e-05
4.02809e-05
3.91107e-05
3.79943e-05
3.69284e-05
3.59099e-05
3.49361e-05
3.40045e-05
3.31127e-05
3.22586e-05
3.14401e-05
3.06556e-05
2.99033e-05
2.91817e-05