/*--------------------------------*- C++ -*----------------------------------*\
  =========                 |
  \\      /  F ield         | OpenFOAM: The Open Source CFD Toolbox
   \\    /   O peration     | Website:  https://openfoam.org
    \\  /    A nd           | Version:  11
     \\/     M anipulation  |
\*---------------------------------------------------------------------------*/
FoamFile
{
    format      ascii;
    class       surfaceScalarField;
    location    "718";
    object      phi;
}
// * * * * * * * * * * * * * * * * * * * * * * * * * * * * * * * * * * * * * //

dimensions      [0 3 -1 0 0 0 0];

internalField   nonuniform List<scalar> 
19800
(
2e-05
-8.55825e-11
1.99999e-05
-2.45669e-10
1.99999e-05
-4.01273e-10
1.99999e-05
-5.57037e-10
1.99998e-05
-7.17275e-10
1.99997e-05
-8.85193e-10
1.99997e-05
-1.06334e-09
1.99996e-05
-1.25392e-09
1.99995e-05
-1.4589e-09
1.99994e-05
-1.68016e-09
1.99993e-05
-1.91954e-09
1.99991e-05
-2.17886e-09
1.9999e-05
-2.45998e-09
1.99988e-05
-2.76477e-09
1.99987e-05
-3.09519e-09
1.99985e-05
-3.45326e-09
1.99983e-05
-3.84107e-09
1.9998e-05
-4.2608e-09
1.99978e-05
-4.71474e-09
1.99975e-05
-5.20524e-09
1.99972e-05
-5.7348e-09
1.99969e-05
-6.30601e-09
1.99966e-05
-6.92157e-09
1.99962e-05
-7.58431e-09
1.99958e-05
-8.29718e-09
1.99954e-05
-9.06327e-09
1.9995e-05
-9.88579e-09
1.99945e-05
-1.07681e-08
1.9994e-05
-1.17137e-08
1.99934e-05
-1.27262e-08
1.99928e-05
-1.38094e-08
1.99921e-05
-1.49672e-08
1.99915e-05
-1.62037e-08
1.99907e-05
-1.75232e-08
1.99899e-05
-1.893e-08
1.99891e-05
-2.04288e-08
1.99882e-05
-2.20241e-08
1.99872e-05
-2.37209e-08
1.99862e-05
-2.55242e-08
1.99851e-05
-2.74392e-08
1.9984e-05
-2.94713e-08
1.99828e-05
-3.16259e-08
1.99815e-05
-3.39086e-08
1.99801e-05
-3.63254e-08
1.99786e-05
-3.88821e-08
1.99771e-05
-4.15849e-08
1.99754e-05
-4.44399e-08
1.99737e-05
-4.74535e-08
1.99719e-05
-5.06323e-08
1.99699e-05
-5.39827e-08
1.99679e-05
-5.75116e-08
1.99657e-05
-6.12256e-08
1.99635e-05
-6.51316e-08
1.99611e-05
-6.92366e-08
1.99586e-05
-7.35475e-08
1.99559e-05
-7.80713e-08
1.99531e-05
-8.28149e-08
1.99502e-05
-8.77855e-08
1.99471e-05
-9.29898e-08
1.99439e-05
-9.84347e-08
1.99405e-05
-1.04127e-07
1.9937e-05
-1.10073e-07
1.99333e-05
-1.16279e-07
1.99294e-05
-1.22752e-07
1.99253e-05
-1.29497e-07
1.99211e-05
-1.3652e-07
1.99167e-05
-1.43826e-07
1.99121e-05
-1.51419e-07
1.99074e-05
-1.59303e-07
1.99024e-05
-1.67483e-07
1.98972e-05
-1.7596e-07
1.98919e-05
-1.84736e-07
1.98863e-05
-1.93813e-07
1.98806e-05
-2.03189e-07
1.98746e-05
-2.12863e-07
1.98685e-05
-2.22833e-07
1.98622e-05
-2.33092e-07
1.98557e-05
-2.43635e-07
1.9849e-05
-2.54451e-07
1.98422e-05
-2.65531e-07
1.98352e-05
-2.76858e-07
1.9828e-05
-2.88414e-07
1.98207e-05
-3.00178e-07
1.98133e-05
-3.12122e-07
1.98058e-05
-3.24214e-07
1.97983e-05
-3.36414e-07
1.97907e-05
-3.48676e-07
1.97831e-05
-3.60944e-07
1.97756e-05
-3.73151e-07
1.97681e-05
-3.85218e-07
1.97608e-05
-3.97051e-07
1.97537e-05
-4.08537e-07
1.97469e-05
-4.19543e-07
1.97404e-05
-4.29916e-07
1.97344e-05
-4.39471e-07
1.97289e-05
-4.47999e-07
1.97241e-05
-4.55261e-07
1.97202e-05
-4.6099e-07
1.97172e-05
-4.64938e-07
-4.67109e-07
2e-05
-7.09713e-11
2e-05
-2.15714e-10
1.99999e-05
-3.61213e-10
1.99999e-05
-5.08225e-10
1.99998e-05
-6.59956e-10
1.99997e-05
-8.19205e-10
1.99997e-05
-9.88309e-10
1.99996e-05
-1.16933e-09
1.99995e-05
-1.36416e-09
1.99994e-05
-1.57462e-09
1.99993e-05
-1.80246e-09
1.99991e-05
-2.04945e-09
1.9999e-05
-2.31738e-09
1.99988e-05
-2.60809e-09
1.99987e-05
-2.92346e-09
1.99985e-05
-3.26545e-09
1.99983e-05
-3.6361e-09
1.9998e-05
-4.03751e-09
1.99978e-05
-4.47191e-09
1.99975e-05
-4.94158e-09
1.99973e-05
-5.44895e-09
1.99969e-05
-5.99654e-09
1.99966e-05
-6.58696e-09
1.99963e-05
-7.22298e-09
1.99959e-05
-7.90746e-09
1.99954e-05
-8.6434e-09
1.9995e-05
-9.43393e-09
1.99945e-05
-1.02823e-08
1.9994e-05
-1.1192e-08
1.99934e-05
-1.21664e-08
1.99928e-05
-1.32093e-08
1.99922e-05
-1.43245e-08
1.99915e-05
-1.55161e-08
1.99908e-05
-1.6788e-08
1.999e-05
-1.81447e-08
1.99891e-05
-1.95906e-08
1.99882e-05
-2.11302e-08
1.99873e-05
-2.27683e-08
1.99863e-05
-2.45099e-08
1.99852e-05
-2.63599e-08
1.9984e-05
-2.83237e-08
1.99828e-05
-3.04067e-08
1.99815e-05
-3.26143e-08
1.99802e-05
-3.49522e-08
1.99787e-05
-3.74263e-08
1.99772e-05
-4.00426e-08
1.99755e-05
-4.28071e-08
1.99738e-05
-4.57262e-08
1.9972e-05
-4.88061e-08
1.997e-05
-5.20535e-08
1.9968e-05
-5.54748e-08
1.99659e-05
-5.90768e-08
1.99636e-05
-6.28663e-08
1.99612e-05
-6.68501e-08
1.99587e-05
-7.1035e-08
1.99561e-05
-7.54281e-08
1.99533e-05
-8.00363e-08
1.99504e-05
-8.48664e-08
1.99473e-05
-8.99256e-08
1.99441e-05
-9.52205e-08
1.99407e-05
-1.00758e-07
1.99372e-05
-1.06545e-07
1.99335e-05
-1.12587e-07
1.99296e-05
-1.18891e-07
1.99256e-05
-1.25463e-07
1.99214e-05
-1.32309e-07
1.9917e-05
-1.39434e-07
1.99124e-05
-1.46843e-07
1.99076e-05
-1.5454e-07
1.99027e-05
-1.62529e-07
1.98975e-05
-1.70814e-07
1.98922e-05
-1.79396e-07
1.98867e-05
-1.88278e-07
1.98809e-05
-1.9746e-07
1.9875e-05
-2.0694e-07
1.98689e-05
-2.16718e-07
1.98626e-05
-2.26789e-07
1.98561e-05
-2.37148e-07
1.98495e-05
-2.47787e-07
1.98426e-05
-2.58697e-07
1.98356e-05
-2.69866e-07
1.98285e-05
-2.81276e-07
1.98212e-05
-2.92908e-07
1.98138e-05
-3.0474e-07
1.98064e-05
-3.1674e-07
1.97988e-05
-3.28874e-07
1.97912e-05
-3.411e-07
1.97837e-05
-3.53365e-07
1.97761e-05
-3.6561e-07
1.97687e-05
-3.77759e-07
1.97613e-05
-3.89726e-07
1.97542e-05
-4.01406e-07
1.97473e-05
-4.12674e-07
1.97408e-05
-4.23383e-07
1.97347e-05
-4.33361e-07
1.97291e-05
-4.42406e-07
1.97241e-05
-4.50286e-07
1.97199e-05
-4.56728e-07
1.97164e-05
-4.61451e-07
-4.64263e-07
2e-05
-5.99921e-11
2e-05
-1.89157e-10
1.99999e-05
-3.23081e-10
1.99999e-05
-4.60492e-10
1.99998e-05
-6.03303e-10
1.99998e-05
-7.53704e-10
1.99997e-05
-9.13714e-10
1.99996e-05
-1.08521e-09
1.99995e-05
-1.26996e-09
1.99994e-05
-1.46968e-09
1.99993e-05
-1.68608e-09
1.99992e-05
-1.92085e-09
1.9999e-05
-2.17572e-09
1.99989e-05
-2.45247e-09
1.99987e-05
-2.75292e-09
1.99985e-05
-3.07898e-09
1.99983e-05
-3.4326e-09
1.99981e-05
-3.81584e-09
1.99978e-05
-4.23085e-09
1.99976e-05
-4.67986e-09
1.99973e-05
-5.16521e-09
1.9997e-05
-5.68934e-09
1.99966e-05
-6.25482e-09
1.99963e-05
-6.86431e-09
1.99959e-05
-7.52059e-09
1.99955e-05
-8.2266e-09
1.9995e-05
-8.98536e-09
1.99946e-05
-9.80006e-09
1.9994e-05
-1.0674e-08
1.99935e-05
-1.16106e-08
1.99929e-05
-1.26135e-08
1.99922e-05
-1.36865e-08
1.99916e-05
-1.48333e-08
1.99908e-05
-1.6058e-08
1.99901e-05
-1.73649e-08
1.99892e-05
-1.87582e-08
1.99883e-05
-2.02424e-08
1.99874e-05
-2.18222e-08
1.99864e-05
-2.35024e-08
1.99853e-05
-2.5288e-08
1.99842e-05
-2.71839e-08
1.9983e-05
-2.91956e-08
1.99817e-05
-3.13285e-08
1.99803e-05
-3.3588e-08
1.99789e-05
-3.598e-08
1.99773e-05
-3.85103e-08
1.99757e-05
-4.11849e-08
1.9974e-05
-4.40099e-08
1.99722e-05
-4.69916e-08
1.99703e-05
-5.01365e-08
1.99682e-05
-5.34509e-08
1.99661e-05
-5.69415e-08
1.99638e-05
-6.0615e-08
1.99615e-05
-6.44782e-08
1.9959e-05
-6.85379e-08
1.99564e-05
-7.28009e-08
1.99536e-05
-7.72743e-08
1.99507e-05
-8.19648e-08
1.99476e-05
-8.68795e-08
1.99444e-05
-9.20251e-08
1.99411e-05
-9.74085e-08
1.99376e-05
-1.03036e-07
1.99339e-05
-1.08915e-07
1.99301e-05
-1.15052e-07
1.99261e-05
-1.21452e-07
1.99219e-05
-1.28121e-07
1.99175e-05
-1.35066e-07
1.9913e-05
-1.42291e-07
1.99082e-05
-1.49802e-07
1.99033e-05
-1.57602e-07
1.98982e-05
-1.65695e-07
1.98929e-05
-1.74084e-07
1.98874e-05
-1.82771e-07
1.98817e-05
-1.91759e-07
1.98758e-05
-2.01046e-07
1.98697e-05
-2.10632e-07
1.98634e-05
-2.20514e-07
1.98569e-05
-2.30689e-07
1.98503e-05
-2.41151e-07
1.98435e-05
-2.51891e-07
1.98365e-05
-2.62899e-07
1.98294e-05
-2.74162e-07
1.98222e-05
-2.85661e-07
1.98148e-05
-2.97377e-07
1.98073e-05
-3.09282e-07
1.97998e-05
-3.21346e-07
1.97922e-05
-3.33529e-07
1.97847e-05
-3.45786e-07
1.97771e-05
-3.58058e-07
1.97696e-05
-3.70279e-07
1.97623e-05
-3.82367e-07
1.97551e-05
-3.94222e-07
1.97481e-05
-4.05726e-07
1.97415e-05
-4.1674e-07
1.97352e-05
-4.27094e-07
1.97294e-05
-4.36589e-07
1.97241e-05
-4.44986e-07
1.97194e-05
-4.51998e-07
1.97152e-05
-4.57296e-07
-4.60562e-07
2e-05
-5.12733e-11
2e-05
-1.65764e-10
1.99999e-05
-2.87632e-10
1.99999e-05
-4.14747e-10
1.99998e-05
-5.48122e-10
1.99998e-05
-6.8936e-10
1.99997e-05
-8.40112e-10
1.99996e-05
-1.00202e-09
1.99995e-05
-1.1767e-09
1.99994e-05
-1.36576e-09
1.99993e-05
-1.57081e-09
1.99992e-05
-1.79348e-09
1.9999e-05
-2.03543e-09
1.99989e-05
-2.29837e-09
1.99987e-05
-2.58407e-09
1.99985e-05
-2.89436e-09
1.99983e-05
-3.23114e-09
1.99981e-05
-3.59641e-09
1.99979e-05
-3.99224e-09
1.99976e-05
-4.42081e-09
1.99973e-05
-4.88437e-09
1.9997e-05
-5.3853e-09
1.99967e-05
-5.92608e-09
1.99963e-05
-6.5093e-09
1.9996e-05
-7.13768e-09
1.99955e-05
-7.81404e-09
1.99951e-05
-8.54135e-09
1.99946e-05
-9.32268e-09
1.99941e-05
-1.01613e-08
1.99936e-05
-1.10604e-08
1.9993e-05
-1.20237e-08
1.99923e-05
-1.30547e-08
1.99917e-05
-1.41573e-08
1.99909e-05
-1.53352e-08
1.99902e-05
-1.65927e-08
1.99893e-05
-1.79339e-08
1.99885e-05
-1.93632e-08
1.99875e-05
-2.08852e-08
1.99865e-05
-2.25046e-08
1.99855e-05
-2.42261e-08
1.99843e-05
-2.60549e-08
1.99831e-05
-2.79959e-08
1.99819e-05
-3.00546e-08
1.99805e-05
-3.22365e-08
1.99791e-05
-3.4547e-08
1.99776e-05
-3.6992e-08
1.99759e-05
-3.95773e-08
1.99742e-05
-4.23091e-08
1.99725e-05
-4.51933e-08
1.99706e-05
-4.82365e-08
1.99685e-05
-5.14448e-08
1.99664e-05
-5.48249e-08
1.99642e-05
-5.83833e-08
1.99618e-05
-6.21268e-08
1.99594e-05
-6.60622e-08
1.99568e-05
-7.01961e-08
1.9954e-05
-7.45356e-08
1.99511e-05
-7.90875e-08
1.99481e-05
-8.38587e-08
1.9945e-05
-8.88561e-08
1.99416e-05
-9.40866e-08
1.99382e-05
-9.95568e-08
1.99345e-05
-1.05273e-07
1.99307e-05
-1.11243e-07
1.99267e-05
-1.17472e-07
1.99226e-05
-1.23966e-07
1.99182e-05
-1.30732e-07
1.99137e-05
-1.37775e-07
1.9909e-05
-1.45099e-07
1.99041e-05
-1.52711e-07
1.9899e-05
-1.60613e-07
1.98938e-05
-1.68809e-07
1.98883e-05
-1.77303e-07
1.98826e-05
-1.86097e-07
1.98768e-05
-1.95191e-07
1.98707e-05
-2.04586e-07
1.98645e-05
-2.1428e-07
1.98581e-05
-2.24271e-07
1.98515e-05
-2.34554e-07
1.98447e-05
-2.45123e-07
1.98378e-05
-2.55969e-07
1.98307e-05
-2.67082e-07
1.98235e-05
-2.78445e-07
1.98162e-05
-2.90041e-07
1.98087e-05
-3.01847e-07
1.98012e-05
-3.13835e-07
1.97937e-05
-3.25968e-07
1.97861e-05
-3.38206e-07
1.97785e-05
-3.50495e-07
1.9771e-05
-3.62772e-07
1.97636e-05
-3.7496e-07
1.97563e-05
-3.86966e-07
1.97493e-05
-3.98675e-07
1.97425e-05
-4.09951e-07
1.9736e-05
-4.20625e-07
1.97299e-05
-4.30494e-07
1.97243e-05
-4.39307e-07
1.9719e-05
-4.46752e-07
1.97142e-05
-4.52458e-07
-4.56077e-07
2e-05
-4.40045e-11
2e-05
-1.4501e-10
1.99999e-05
-2.54947e-10
1.99999e-05
-3.71447e-10
1.99998e-05
-4.95008e-10
1.99998e-05
-6.26781e-10
1.99997e-05
-7.68077e-10
1.99996e-05
-9.20297e-10
1.99995e-05
-1.08488e-09
1.99994e-05
-1.26332e-09
1.99993e-05
-1.45711e-09
1.99992e-05
-1.66779e-09
1.99991e-05
-1.89697e-09
1.99989e-05
-2.14627e-09
1.99987e-05
-2.4174e-09
1.99986e-05
-2.71213e-09
1.99984e-05
-3.0323e-09
1.99981e-05
-3.37984e-09
1.99979e-05
-3.75674e-09
1.99976e-05
-4.16513e-09
1.99974e-05
-4.60718e-09
1.99971e-05
-5.08521e-09
1.99967e-05
-5.60161e-09
1.99964e-05
-6.1589e-09
1.9996e-05
-6.75972e-09
1.99956e-05
-7.4068e-09
1.99952e-05
-8.10303e-09
1.99947e-05
-8.85141e-09
1.99942e-05
-9.65505e-09
1.99937e-05
-1.05172e-08
1.99931e-05
-1.14413e-08
1.99924e-05
-1.24309e-08
1.99918e-05
-1.34897e-08
1.99911e-05
-1.46214e-08
1.99903e-05
-1.583e-08
1.99895e-05
-1.71197e-08
1.99886e-05
-1.84948e-08
1.99877e-05
-1.99596e-08
1.99867e-05
-2.15188e-08
1.99857e-05
-2.3177e-08
1.99845e-05
-2.49392e-08
1.99834e-05
-2.68104e-08
1.99821e-05
-2.87958e-08
1.99808e-05
-3.09007e-08
1.99793e-05
-3.31306e-08
1.99778e-05
-3.54912e-08
1.99763e-05
-3.79882e-08
1.99746e-05
-4.06276e-08
1.99728e-05
-4.34154e-08
1.99709e-05
-4.63577e-08
1.99689e-05
-4.9461e-08
1.99668e-05
-5.27317e-08
1.99646e-05
-5.61762e-08
1.99623e-05
-5.98011e-08
1.99599e-05
-6.36132e-08
1.99573e-05
-6.76193e-08
1.99546e-05
-7.18262e-08
1.99517e-05
-7.62407e-08
1.99487e-05
-8.08697e-08
1.99456e-05
-8.57202e-08
1.99423e-05
-9.07989e-08
1.99389e-05
-9.61128e-08
1.99353e-05
-1.01669e-07
1.99315e-05
-1.07473e-07
1.99276e-05
-1.13532e-07
1.99234e-05
-1.19852e-07
1.99191e-05
-1.2644e-07
1.99147e-05
-1.33302e-07
1.991e-05
-1.40442e-07
1.99052e-05
-1.47865e-07
1.99001e-05
-1.55578e-07
1.98949e-05
-1.63583e-07
1.98895e-05
-1.71884e-07
1.98839e-05
-1.80485e-07
1.98781e-05
-1.89386e-07
1.98721e-05
-1.9859e-07
1.98659e-05
-2.08096e-07
1.98595e-05
-2.17902e-07
1.9853e-05
-2.28006e-07
1.98463e-05
-2.38402e-07
1.98394e-05
-2.49085e-07
1.98323e-05
-2.60045e-07
1.98252e-05
-2.71268e-07
1.98179e-05
-2.82741e-07
1.98104e-05
-2.94441e-07
1.9803e-05
-3.06344e-07
1.97954e-05
-3.18419e-07
1.97878e-05
-3.30625e-07
1.97803e-05
-3.42916e-07
1.97727e-05
-3.55231e-07
1.97652e-05
-3.67497e-07
1.97579e-05
-3.79624e-07
1.97507e-05
-3.91501e-07
1.97438e-05
-4.02992e-07
1.97371e-05
-4.13928e-07
1.97307e-05
-4.24097e-07
1.97246e-05
-4.33236e-07
1.97189e-05
-4.41007e-07
1.97134e-05
-4.46989e-07
-4.50829e-07
2e-05
-3.7727e-11
2e-05
-1.26412e-10
1.99999e-05
-2.2485e-10
1.99999e-05
-3.30734e-10
1.99999e-05
-4.4431e-10
1.99998e-05
-5.66419e-10
1.99997e-05
-6.98103e-10
1.99996e-05
-8.40541e-10
1.99996e-05
-9.95006e-10
1.99995e-05
-1.16284e-09
1.99993e-05
-1.34544e-09
1.99992e-05
-1.54426e-09
1.99991e-05
-1.76081e-09
1.99989e-05
-1.99665e-09
1.99988e-05
-2.25343e-09
1.99986e-05
-2.53283e-09
1.99984e-05
-2.83664e-09
1.99982e-05
-3.16671e-09
1.99979e-05
-3.52499e-09
1.99977e-05
-3.9135e-09
1.99974e-05
-4.33438e-09
1.99971e-05
-4.78984e-09
1.99968e-05
-5.28224e-09
1.99965e-05
-5.81399e-09
1.99961e-05
-6.38765e-09
1.99957e-05
-7.00589e-09
1.99953e-05
-7.6715e-09
1.99948e-05
-8.3874e-09
1.99943e-05
-9.15661e-09
1.99938e-05
-9.9823e-09
1.99932e-05
-1.08678e-08
1.99926e-05
-1.18165e-08
1.99919e-05
-1.28321e-08
1.99912e-05
-1.39181e-08
1.99905e-05
-1.50786e-08
1.99897e-05
-1.63175e-08
1.99888e-05
-1.7639e-08
1.99879e-05
-1.90474e-08
1.99869e-05
-2.05472e-08
1.99859e-05
-2.2143e-08
1.99848e-05
-2.38395e-08
1.99836e-05
-2.56417e-08
1.99824e-05
-2.75546e-08
1.99811e-05
-2.95836e-08
1.99797e-05
-3.17339e-08
1.99782e-05
-3.4011e-08
1.99766e-05
-3.64208e-08
1.9975e-05
-3.89689e-08
1.99732e-05
-4.16614e-08
1.99713e-05
-4.45042e-08
1.99694e-05
-4.75037e-08
1.99673e-05
-5.06661e-08
1.99651e-05
-5.39979e-08
1.99629e-05
-5.75057e-08
1.99604e-05
-6.1196e-08
1.99579e-05
-6.50756e-08
1.99552e-05
-6.91512e-08
1.99524e-05
-7.34298e-08
1.99495e-05
-7.79181e-08
1.99464e-05
-8.26231e-08
1.99431e-05
-8.75518e-08
1.99397e-05
-9.27108e-08
1.99361e-05
-9.81071e-08
1.99324e-05
-1.03747e-07
1.99285e-05
-1.09639e-07
1.99245e-05
-1.15787e-07
1.99202e-05
-1.22198e-07
1.99158e-05
-1.2888e-07
1.99112e-05
-1.35836e-07
1.99064e-05
-1.43074e-07
1.99014e-05
-1.50598e-07
1.98963e-05
-1.58413e-07
1.98909e-05
-1.66522e-07
1.98853e-05
-1.7493e-07
1.98796e-05
-1.8364e-07
1.98737e-05
-1.92652e-07
1.98675e-05
-2.01969e-07
1.98612e-05
-2.1159e-07
1.98547e-05
-2.21514e-07
1.98481e-05
-2.31737e-07
1.98412e-05
-2.42253e-07
1.98342e-05
-2.53057e-07
1.98271e-05
-2.64136e-07
1.98198e-05
-2.75479e-07
1.98125e-05
-2.87067e-07
1.9805e-05
-2.98877e-07
1.97975e-05
-3.10881e-07
1.97899e-05
-3.23043e-07
1.97823e-05
-3.35318e-07
1.97747e-05
-3.4765e-07
1.97672e-05
-3.59968e-07
1.97597e-05
-3.72184e-07
1.97524e-05
-3.8419e-07
1.97453e-05
-3.95849e-07
1.97383e-05
-4.06988e-07
1.97316e-05
-4.17389e-07
1.97252e-05
-4.26775e-07
1.97189e-05
-4.34784e-07
1.97129e-05
-4.40962e-07
-4.44892e-07
2e-05
-3.21683e-11
2e-05
-1.09584e-10
1.99999e-05
-1.97094e-10
1.99999e-05
-2.92579e-10
1.99999e-05
-3.96187e-10
1.99998e-05
-5.08567e-10
1.99997e-05
-6.30563e-10
1.99997e-05
-7.6317e-10
1.99996e-05
-9.07506e-10
1.99995e-05
-1.06478e-09
1.99994e-05
-1.23628e-09
1.99992e-05
-1.42336e-09
1.99991e-05
-1.62744e-09
1.9999e-05
-1.85002e-09
1.99988e-05
-2.09266e-09
1.99986e-05
-2.35699e-09
1.99984e-05
-2.64471e-09
1.99982e-05
-2.95762e-09
1.9998e-05
-3.29758e-09
1.99978e-05
-3.66658e-09
1.99975e-05
-4.06665e-09
1.99972e-05
-4.49995e-09
1.99969e-05
-4.96875e-09
1.99965e-05
-5.47539e-09
1.99962e-05
-6.02237e-09
1.99958e-05
-6.61226e-09
1.99954e-05
-7.24776e-09
1.99949e-05
-7.93171e-09
1.99944e-05
-8.66706e-09
1.99939e-05
-9.45687e-09
1.99933e-05
-1.03044e-08
1.99927e-05
-1.12129e-08
1.99921e-05
-1.21859e-08
1.99914e-05
-1.32271e-08
1.99906e-05
-1.43402e-08
1.99899e-05
-1.55291e-08
1.9989e-05
-1.67978e-08
1.99881e-05
-1.81507e-08
1.99872e-05
-1.95919e-08
1.99861e-05
-2.11261e-08
1.99851e-05
-2.27579e-08
1.99839e-05
-2.44921e-08
1.99827e-05
-2.63337e-08
1.99814e-05
-2.82878e-08
1.998e-05
-3.03596e-08
1.99786e-05
-3.25545e-08
1.9977e-05
-3.48782e-08
1.99754e-05
-3.73364e-08
1.99737e-05
-3.99348e-08
1.99718e-05
-4.26794e-08
1.99699e-05
-4.55765e-08
1.99679e-05
-4.86321e-08
1.99657e-05
-5.18527e-08
1.99635e-05
-5.52447e-08
1.99611e-05
-5.88147e-08
1.99586e-05
-6.25694e-08
1.9956e-05
-6.65155e-08
1.99532e-05
-7.06597e-08
1.99503e-05
-7.50091e-08
1.99472e-05
-7.95703e-08
1.9944e-05
-8.43505e-08
1.99407e-05
-8.93565e-08
1.99372e-05
-9.45951e-08
1.99335e-05
-1.00073e-07
1.99296e-05
-1.05798e-07
1.99256e-05
-1.11775e-07
1.99214e-05
-1.18012e-07
1.99171e-05
-1.24515e-07
1.99125e-05
-1.31291e-07
1.99078e-05
-1.38344e-07
1.99029e-05
-1.4568e-07
1.98978e-05
-1.53305e-07
1.98925e-05
-1.61224e-07
1.9887e-05
-1.69441e-07
1.98813e-05
-1.77958e-07
1.98754e-05
-1.8678e-07
1.98694e-05
-1.95908e-07
1.98631e-05
-2.05343e-07
1.98567e-05
-2.15085e-07
1.98501e-05
-2.25131e-07
1.98433e-05
-2.35479e-07
1.98364e-05
-2.46123e-07
1.98293e-05
-2.57053e-07
1.98221e-05
-2.6826e-07
1.98147e-05
-2.79726e-07
1.98073e-05
-2.91433e-07
1.97998e-05
-3.03355e-07
1.97922e-05
-3.15457e-07
1.97846e-05
-3.27698e-07
1.97769e-05
-3.40023e-07
1.97693e-05
-3.52366e-07
1.97618e-05
-3.64639e-07
1.97543e-05
-3.76734e-07
1.9747e-05
-3.88513e-07
1.97398e-05
-3.998e-07
1.97328e-05
-4.10372e-07
1.9726e-05
-4.19937e-07
1.97193e-05
-4.28119e-07
1.97128e-05
-4.34437e-07
-4.38351e-07
2e-05
-2.71634e-11
2e-05
-9.42292e-11
2e-05
-1.71432e-10
1.99999e-05
-2.56871e-10
1.99999e-05
-3.50675e-10
1.99998e-05
-4.53389e-10
1.99998e-05
-5.65715e-10
1.99997e-05
-6.88509e-10
1.99996e-05
-8.22752e-10
1.99995e-05
-9.69534e-10
1.99994e-05
-1.13003e-09
1.99993e-05
-1.30551e-09
1.99991e-05
-1.49731e-09
1.9999e-05
-1.70684e-09
1.99988e-05
-1.93558e-09
1.99987e-05
-2.1851e-09
1.99985e-05
-2.45704e-09
1.99983e-05
-2.75311e-09
1.99981e-05
-3.07512e-09
1.99978e-05
-3.42497e-09
1.99976e-05
-3.80464e-09
1.99973e-05
-4.21621e-09
1.9997e-05
-4.66187e-09
1.99966e-05
-5.1439e-09
1.99963e-05
-5.6647e-09
1.99959e-05
-6.22677e-09
1.99955e-05
-6.83274e-09
1.9995e-05
-7.48534e-09
1.99945e-05
-8.18745e-09
1.9994e-05
-8.94204e-09
1.99935e-05
-9.75224e-09
1.99929e-05
-1.06213e-08
1.99923e-05
-1.15526e-08
1.99916e-05
-1.25497e-08
1.99909e-05
-1.36162e-08
1.99901e-05
-1.47559e-08
1.99893e-05
-1.59728e-08
1.99884e-05
-1.7271e-08
1.99874e-05
-1.86548e-08
1.99864e-05
-2.01284e-08
1.99854e-05
-2.16966e-08
1.99843e-05
-2.33639e-08
1.99831e-05
-2.51353e-08
1.99818e-05
-2.70156e-08
1.99804e-05
-2.90102e-08
1.9979e-05
-3.11243e-08
1.99775e-05
-3.33632e-08
1.99759e-05
-3.57328e-08
1.99742e-05
-3.82385e-08
1.99724e-05
-4.08865e-08
1.99705e-05
-4.36826e-08
1.99685e-05
-4.6633e-08
1.99664e-05
-4.9744e-08
1.99642e-05
-5.30219e-08
1.99618e-05
-5.64733e-08
1.99594e-05
-6.01048e-08
1.99568e-05
-6.39231e-08
1.9954e-05
-6.79348e-08
1.99512e-05
-7.21469e-08
1.99482e-05
-7.65663e-08
1.9945e-05
-8.11999e-08
1.99417e-05
-8.60547e-08
1.99383e-05
-9.11375e-08
1.99347e-05
-9.64555e-08
1.99309e-05
-1.02015e-07
1.99269e-05
-1.07824e-07
1.99228e-05
-1.13888e-07
1.99185e-05
-1.20215e-07
1.9914e-05
-1.2681e-07
1.99093e-05
-1.33679e-07
1.99045e-05
-1.4083e-07
1.98995e-05
-1.48267e-07
1.98942e-05
-1.55996e-07
1.98888e-05
-1.64021e-07
1.98832e-05
-1.72348e-07
1.98774e-05
-1.80979e-07
1.98714e-05
-1.89917e-07
1.98652e-05
-1.99165e-07
1.98589e-05
-2.08723e-07
1.98523e-05
-2.18591e-07
1.98456e-05
-2.28767e-07
1.98387e-05
-2.39246e-07
1.98317e-05
-2.50022e-07
1.98245e-05
-2.61085e-07
1.98172e-05
-2.72422e-07
1.98098e-05
-2.84015e-07
1.98023e-05
-2.9584e-07
1.97947e-05
-3.07866e-07
1.97871e-05
-3.20053e-07
1.97794e-05
-3.32349e-07
1.97717e-05
-3.44687e-07
1.97641e-05
-3.56983e-07
1.97564e-05
-3.69128e-07
1.97489e-05
-3.80983e-07
1.97415e-05
-3.92368e-07
1.97342e-05
-4.03055e-07
1.9727e-05
-4.12744e-07
1.97199e-05
-4.21045e-07
1.97129e-05
-4.27459e-07
-4.31297e-07
2e-05
-2.26074e-11
2e-05
-8.01302e-11
2e-05
-1.47651e-10
1.99999e-05
-2.23471e-10
1.99999e-05
-3.07745e-10
1.99998e-05
-4.00959e-10
1.99998e-05
-5.03728e-10
1.99997e-05
-6.16797e-10
1.99996e-05
-7.4104e-10
1.99995e-05
-8.7744e-10
1.99994e-05
-1.02708e-09
1.99993e-05
-1.19112e-09
1.99992e-05
-1.37083e-09
1.9999e-05
-1.56754e-09
1.99989e-05
-1.78265e-09
1.99987e-05
-2.01765e-09
1.99985e-05
-2.27412e-09
1.99983e-05
-2.5537e-09
1.99981e-05
-2.85814e-09
1.99979e-05
-3.18925e-09
1.99976e-05
-3.54896e-09
1.99974e-05
-3.93926e-09
1.99971e-05
-4.36228e-09
1.99967e-05
-4.82021e-09
1.99964e-05
-5.31539e-09
1.9996e-05
-5.85023e-09
1.99956e-05
-6.42728e-09
1.99952e-05
-7.04919e-09
1.99947e-05
-7.71873e-09
1.99942e-05
-8.43882e-09
1.99936e-05
-9.21247e-09
1.99931e-05
-1.00428e-08
1.99924e-05
-1.09332e-08
1.99918e-05
-1.1887e-08
1.99911e-05
-1.29079e-08
1.99903e-05
-1.39994e-08
1.99895e-05
-1.51654e-08
1.99887e-05
-1.64101e-08
1.99877e-05
-1.77373e-08
1.99868e-05
-1.91516e-08
1.99857e-05
-2.06573e-08
1.99846e-05
-2.22589e-08
1.99834e-05
-2.39613e-08
1.99822e-05
-2.57693e-08
1.99809e-05
-2.7688e-08
1.99795e-05
-2.97225e-08
1.9978e-05
-3.18782e-08
1.99764e-05
-3.41606e-08
1.99748e-05
-3.65753e-08
1.9973e-05
-3.91281e-08
1.99711e-05
-4.18249e-08
1.99692e-05
-4.46718e-08
1.99671e-05
-4.76749e-08
1.99649e-05
-5.08405e-08
1.99626e-05
-5.41751e-08
1.99602e-05
-5.76853e-08
1.99577e-05
-6.13776e-08
1.9955e-05
-6.52587e-08
1.99522e-05
-6.93356e-08
1.99492e-05
-7.36151e-08
1.99461e-05
-7.81041e-08
1.99429e-05
-8.28096e-08
1.99395e-05
-8.77386e-08
1.99359e-05
-9.28982e-08
1.99322e-05
-9.82954e-08
1.99283e-05
-1.03937e-07
1.99243e-05
-1.0983e-07
1.992e-05
-1.15982e-07
1.99156e-05
-1.22398e-07
1.9911e-05
-1.29086e-07
1.99062e-05
-1.36052e-07
1.99013e-05
-1.43303e-07
1.98961e-05
-1.50842e-07
1.98908e-05
-1.58678e-07
1.98852e-05
-1.66813e-07
1.98795e-05
-1.75253e-07
1.98736e-05
-1.84001e-07
1.98675e-05
-1.93061e-07
1.98612e-05
-2.02434e-07
1.98547e-05
-2.1212e-07
1.98481e-05
-2.2212e-07
1.98413e-05
-2.32429e-07
1.98343e-05
-2.43044e-07
1.98272e-05
-2.53956e-07
1.98199e-05
-2.65154e-07
1.98125e-05
-2.76621e-07
1.9805e-05
-2.88336e-07
1.97974e-05
-3.00269e-07
1.97897e-05
-3.12382e-07
1.9782e-05
-3.24624e-07
1.97743e-05
-3.36931e-07
1.97665e-05
-3.49218e-07
1.97587e-05
-3.61376e-07
1.9751e-05
-3.73264e-07
1.97434e-05
-3.84701e-07
1.97357e-05
-3.95452e-07
1.97282e-05
-4.05215e-07
1.97208e-05
-4.13591e-07
1.97134e-05
-4.20069e-07
-4.23842e-07
2e-05
-1.84306e-11
2e-05
-6.71285e-11
2e-05
-1.25573e-10
1.99999e-05
-1.92242e-10
1.99999e-05
-2.67328e-10
1.99998e-05
-3.51294e-10
1.99998e-05
-4.44696e-10
1.99997e-05
-5.48201e-10
1.99996e-05
-6.62594e-10
1.99995e-05
-7.88769e-10
1.99994e-05
-9.27718e-10
1.99993e-05
-1.08053e-09
1.99992e-05
-1.24837e-09
1.99991e-05
-1.4325e-09
1.99989e-05
-1.63426e-09
1.99988e-05
-1.85506e-09
1.99986e-05
-2.09641e-09
1.99984e-05
-2.35988e-09
1.99982e-05
-2.64715e-09
1.9998e-05
-2.95996e-09
1.99977e-05
-3.30016e-09
1.99974e-05
-3.66969e-09
1.99971e-05
-4.07059e-09
1.99968e-05
-4.50499e-09
1.99965e-05
-4.97514e-09
1.99961e-05
-5.48337e-09
1.99957e-05
-6.03215e-09
1.99953e-05
-6.62406e-09
1.99948e-05
-7.26178e-09
1.99944e-05
-7.94812e-09
1.99938e-05
-8.68602e-09
1.99933e-05
-9.47855e-09
1.99927e-05
-1.03289e-08
1.9992e-05
-1.12404e-08
1.99913e-05
-1.22165e-08
1.99906e-05
-1.32608e-08
1.99898e-05
-1.43771e-08
1.9989e-05
-1.55692e-08
1.99881e-05
-1.68411e-08
1.99871e-05
-1.81972e-08
1.99861e-05
-1.96416e-08
1.9985e-05
-2.11788e-08
1.99839e-05
-2.28136e-08
1.99826e-05
-2.45506e-08
1.99813e-05
-2.63948e-08
1.998e-05
-2.83512e-08
1.99785e-05
-3.04252e-08
1.9977e-05
-3.26221e-08
1.99754e-05
-3.49473e-08
1.99736e-05
-3.74067e-08
1.99718e-05
-4.00059e-08
1.99699e-05
-4.2751e-08
1.99679e-05
-4.56481e-08
1.99657e-05
-4.87033e-08
1.99635e-05
-5.1923e-08
1.99611e-05
-5.53138e-08
1.99586e-05
-5.88821e-08
1.9956e-05
-6.26347e-08
1.99532e-05
-6.65783e-08
1.99503e-05
-7.07199e-08
1.99473e-05
-7.50664e-08
1.99441e-05
-7.96247e-08
1.99408e-05
-8.4402e-08
1.99373e-05
-8.94053e-08
1.99336e-05
-9.46418e-08
1.99298e-05
-1.00118e-07
1.99258e-05
-1.05843e-07
1.99217e-05
-1.11821e-07
1.99173e-05
-1.18061e-07
1.99128e-05
-1.24569e-07
1.99081e-05
-1.31351e-07
1.99032e-05
-1.38416e-07
1.98981e-05
-1.45767e-07
1.98929e-05
-1.53413e-07
1.98874e-05
-1.61357e-07
1.98818e-05
-1.69606e-07
1.98759e-05
-1.78163e-07
1.98699e-05
-1.87033e-07
1.98637e-05
-1.96218e-07
1.98573e-05
-2.0572e-07
1.98507e-05
-2.1554e-07
1.9844e-05
-2.25675e-07
1.9837e-05
-2.36122e-07
1.983e-05
-2.46875e-07
1.98227e-05
-2.57924e-07
1.98154e-05
-2.69253e-07
1.98079e-05
-2.80843e-07
1.98003e-05
-2.92666e-07
1.97926e-05
-3.04685e-07
1.97848e-05
-3.1685e-07
1.9777e-05
-3.29098e-07
1.97691e-05
-3.41345e-07
1.97612e-05
-3.5348e-07
1.97533e-05
-3.65363e-07
1.97454e-05
-3.76809e-07
1.97375e-05
-3.87582e-07
1.97297e-05
-3.97375e-07
1.97219e-05
-4.05786e-07
1.97141e-05
-4.12305e-07
-4.16056e-07
2e-05
-1.45841e-11
2e-05
-5.51081e-11
2e-05
-1.05056e-10
1.99999e-05
-1.63056e-10
1.99999e-05
-2.29344e-10
1.99998e-05
-3.04375e-10
1.99998e-05
-3.88666e-10
1.99997e-05
-4.82828e-10
1.99997e-05
-5.87578e-10
1.99996e-05
-7.03732e-10
1.99995e-05
-8.32206e-10
1.99994e-05
-9.74009e-10
1.99992e-05
-1.13024e-09
1.99991e-05
-1.30208e-09
1.9999e-05
-1.49079e-09
1.99988e-05
-1.69773e-09
1.99986e-05
-1.92432e-09
1.99985e-05
-2.17207e-09
1.99983e-05
-2.44259e-09
1.9998e-05
-2.73756e-09
1.99978e-05
-3.05875e-09
1.99975e-05
-3.40804e-09
1.99972e-05
-3.78738e-09
1.99969e-05
-4.19883e-09
1.99966e-05
-4.64456e-09
1.99963e-05
-5.12685e-09
1.99959e-05
-5.64806e-09
1.99955e-05
-6.21069e-09
1.9995e-05
-6.81735e-09
1.99945e-05
-7.47075e-09
1.9994e-05
-8.17375e-09
1.99935e-05
-8.92932e-09
1.99929e-05
-9.74055e-09
1.99923e-05
-1.06107e-08
1.99916e-05
-1.15431e-08
1.99909e-05
-1.25412e-08
1.99901e-05
-1.36088e-08
1.99893e-05
-1.47496e-08
1.99884e-05
-1.59674e-08
1.99875e-05
-1.72665e-08
1.99865e-05
-1.86509e-08
1.99854e-05
-2.01251e-08
1.99843e-05
-2.16937e-08
1.99831e-05
-2.33611e-08
1.99819e-05
-2.51323e-08
1.99805e-05
-2.70123e-08
1.99791e-05
-2.90061e-08
1.99776e-05
-3.11191e-08
1.9976e-05
-3.33566e-08
1.99743e-05
-3.57243e-08
1.99725e-05
-3.82278e-08
1.99707e-05
-4.08729e-08
1.99687e-05
-4.36658e-08
1.99666e-05
-4.66126e-08
1.99644e-05
-4.97194e-08
1.99621e-05
-5.29928e-08
1.99596e-05
-5.64393e-08
1.99571e-05
-6.00654e-08
1.99543e-05
-6.38779e-08
1.99515e-05
-6.78837e-08
1.99485e-05
-7.20897e-08
1.99454e-05
-7.6503e-08
1.99421e-05
-8.11307e-08
1.99387e-05
-8.59798e-08
1.99351e-05
-9.10576e-08
1.99314e-05
-9.63712e-08
1.99275e-05
-1.01928e-07
1.99234e-05
-1.07735e-07
1.99191e-05
-1.138e-07
1.99147e-05
-1.20129e-07
1.99101e-05
-1.2673e-07
1.99053e-05
-1.33609e-07
1.99003e-05
-1.40774e-07
1.98951e-05
-1.48229e-07
1.98897e-05
-1.55983e-07
1.98841e-05
-1.6404e-07
1.98784e-05
-1.72405e-07
1.98724e-05
-1.81084e-07
1.98663e-05
-1.90079e-07
1.986e-05
-1.99393e-07
1.98535e-05
-2.09028e-07
1.98468e-05
-2.18984e-07
1.98399e-05
-2.29257e-07
1.98329e-05
-2.39842e-07
1.98257e-05
-2.50731e-07
1.98183e-05
-2.61911e-07
1.98109e-05
-2.73362e-07
1.98032e-05
-2.85058e-07
1.97955e-05
-2.96963e-07
1.97877e-05
-3.09029e-07
1.97798e-05
-3.21192e-07
1.97718e-05
-3.33368e-07
1.97638e-05
-3.45449e-07
1.97557e-05
-3.57291e-07
1.97476e-05
-3.6871e-07
1.97395e-05
-3.79466e-07
1.97314e-05
-3.89251e-07
1.97233e-05
-3.97665e-07
1.97151e-05
-4.042e-07
-4.0795e-07
2e-05
-1.10325e-11
2e-05
-4.39828e-11
2e-05
-8.59845e-11
1.99999e-05
-1.35803e-10
1.99999e-05
-1.93709e-10
1.99999e-05
-2.6016e-10
1.99998e-05
-3.35649e-10
1.99997e-05
-4.20744e-10
1.99997e-05
-5.16106e-10
1.99996e-05
-6.22489e-10
1.99995e-05
-7.40743e-10
1.99994e-05
-8.71806e-10
1.99993e-05
-1.01671e-09
1.99992e-05
-1.17656e-09
1.9999e-05
-1.35256e-09
1.99989e-05
-1.54599e-09
1.99987e-05
-1.75822e-09
1.99985e-05
-1.99067e-09
1.99983e-05
-2.2449e-09
1.99981e-05
-2.5225e-09
1.99979e-05
-2.8252e-09
1.99976e-05
-3.15478e-09
1.99973e-05
-3.51314e-09
1.99971e-05
-3.90226e-09
1.99967e-05
-4.32423e-09
1.99964e-05
-4.78126e-09
1.9996e-05
-5.27562e-09
1.99956e-05
-5.80974e-09
1.99952e-05
-6.38614e-09
1.99947e-05
-7.00745e-09
1.99942e-05
-7.67643e-09
1.99937e-05
-8.39596e-09
1.99931e-05
-9.16906e-09
1.99925e-05
-9.99884e-09
1.99918e-05
-1.08886e-08
1.99911e-05
-1.18417e-08
1.99904e-05
-1.28617e-08
1.99896e-05
-1.39523e-08
1.99888e-05
-1.51173e-08
1.99878e-05
-1.63607e-08
1.99869e-05
-1.76866e-08
1.99859e-05
-1.90991e-08
1.99848e-05
-2.06029e-08
1.99836e-05
-2.22023e-08
1.99824e-05
-2.39021e-08
1.99811e-05
-2.57072e-08
1.99797e-05
-2.76225e-08
1.99782e-05
-2.96533e-08
1.99767e-05
-3.18049e-08
1.9975e-05
-3.40826e-08
1.99733e-05
-3.64923e-08
1.99715e-05
-3.90395e-08
1.99695e-05
-4.17302e-08
1.99675e-05
-4.45704e-08
1.99653e-05
-4.75665e-08
1.99631e-05
-5.07246e-08
1.99607e-05
-5.40512e-08
1.99582e-05
-5.75529e-08
1.99555e-05
-6.12365e-08
1.99527e-05
-6.51087e-08
1.99498e-05
-6.91765e-08
1.99468e-05
-7.3447e-08
1.99436e-05
-7.79271e-08
1.99402e-05
-8.26241e-08
1.99367e-05
-8.75453e-08
1.9933e-05
-9.26979e-08
1.99292e-05
-9.80894e-08
1.99252e-05
-1.03727e-07
1.9921e-05
-1.09618e-07
1.99166e-05
-1.1577e-07
1.99121e-05
-1.2219e-07
1.99074e-05
-1.28886e-07
1.99025e-05
-1.35863e-07
1.98974e-05
-1.4313e-07
1.98921e-05
-1.50693e-07
1.98866e-05
-1.58557e-07
1.98809e-05
-1.6673e-07
1.98751e-05
-1.75215e-07
1.9869e-05
-1.84017e-07
1.98627e-05
-1.93141e-07
1.98563e-05
-2.02587e-07
1.98497e-05
-2.12357e-07
1.98429e-05
-2.22448e-07
1.98359e-05
-2.32858e-07
1.98287e-05
-2.43578e-07
1.98214e-05
-2.54595e-07
1.98139e-05
-2.65893e-07
1.98063e-05
-2.77445e-07
1.97986e-05
-2.89217e-07
1.97907e-05
-3.01162e-07
1.97827e-05
-3.13215e-07
1.97747e-05
-3.25295e-07
1.97665e-05
-3.37291e-07
1.97583e-05