/*--------------------------------*- C++ -*----------------------------------*\
  =========                 |
  \\      /  F ield         | OpenFOAM: The Open Source CFD Toolbox
   \\    /   O peration     | Website:  https://openfoam.org
    \\  /    A nd           | Version:  11
     \\/     M anipulation  |
\*---------------------------------------------------------------------------*/
FoamFile
{
    format      ascii;
    class       volVectorField;
    location    "1014";
    object      U;
}
// * * * * * * * * * * * * * * * * * * * * * * * * * * * * * * * * * * * * * //

dimensions      [0 1 -1 0 0 0 0];

internalField   nonuniform List<vector> 
10000
(
(0.005 -5.66996e-10 0)
(0.005 -1.53457e-09 0)
(0.005 -2.42857e-09 0)
(0.005 -3.28478e-09 0)
(0.005 -4.12566e-09 0)
(0.005 -4.96702e-09 0)
(0.005 -5.81998e-09 0)
(0.005 -6.69305e-09 0)
(0.005 -7.59309e-09 0)
(0.005 -8.52601e-09 0)
(0.005 -9.49715e-09 0)
(0.005 -1.05115e-08 0)
(0.00499999 -1.15741e-08 0)
(0.00499999 -1.26896e-08 0)
(0.00499999 -1.38629e-08 0)
(0.00499999 -1.50992e-08 0)
(0.00499999 -1.64035e-08 0)
(0.00499999 -1.77813e-08 0)
(0.00499999 -1.92384e-08 0)
(0.00499999 -2.07807e-08 0)
(0.00499999 -2.24145e-08 0)
(0.00499998 -2.41468e-08 0)
(0.00499998 -2.59845e-08 0)
(0.00499998 -2.79355e-08 0)
(0.00499998 -3.00079e-08 0)
(0.00499998 -3.22103e-08 0)
(0.00499997 -3.45522e-08 0)
(0.00499997 -3.70434e-08 0)
(0.00499997 -3.96945e-08 0)
(0.00499996 -4.2517e-08 0)
(0.00499996 -4.55228e-08 0)
(0.00499996 -4.87248e-08 0)
(0.00499995 -5.2137e-08 0)
(0.00499995 -5.57738e-08 0)
(0.00499995 -5.9651e-08 0)
(0.00499994 -6.37853e-08 0)
(0.00499994 -6.81943e-08 0)
(0.00499993 -7.2897e-08 0)
(0.00499993 -7.79134e-08 0)
(0.00499992 -8.32648e-08 0)
(0.00499991 -8.89739e-08 0)
(0.00499991 -9.50646e-08 0)
(0.0049999 -1.01563e-07 0)
(0.00499989 -1.08495e-07 0)
(0.00499988 -1.15889e-07 0)
(0.00499987 -1.23777e-07 0)
(0.00499987 -1.32189e-07 0)
(0.00499986 -1.4116e-07 0)
(0.00499985 -1.50725e-07 0)
(0.00499984 -1.60921e-07 0)
(0.00499982 -1.71788e-07 0)
(0.00499981 -1.83368e-07 0)
(0.0049998 -1.95703e-07 0)
(0.00499979 -2.0884e-07 0)
(0.00499977 -2.22827e-07 0)
(0.00499976 -2.37713e-07 0)
(0.00499974 -2.53552e-07 0)
(0.00499972 -2.70398e-07 0)
(0.00499971 -2.88307e-07 0)
(0.00499969 -3.07341e-07 0)
(0.00499967 -3.2756e-07 0)
(0.00499965 -3.49028e-07 0)
(0.00499963 -3.71813e-07 0)
(0.0049996 -3.95982e-07 0)
(0.00499958 -4.21606e-07 0)
(0.00499955 -4.48758e-07 0)
(0.00499953 -4.77512e-07 0)
(0.0049995 -5.07943e-07 0)
(0.00499947 -5.4013e-07 0)
(0.00499944 -5.74148e-07 0)
(0.00499941 -6.10076e-07 0)
(0.00499938 -6.47993e-07 0)
(0.00499935 -6.87973e-07 0)
(0.00499931 -7.30091e-07 0)
(0.00499928 -7.74418e-07 0)
(0.00499924 -8.21021e-07 0)
(0.0049992 -8.6996e-07 0)
(0.00499916 -9.21286e-07 0)
(0.00499912 -9.75039e-07 0)
(0.00499908 -1.03125e-06 0)
(0.00499903 -1.08991e-06 0)
(0.00499899 -1.15103e-06 0)
(0.00499894 -1.21455e-06 0)
(0.0049989 -1.2804e-06 0)
(0.00499885 -1.34845e-06 0)
(0.0049988 -1.41852e-06 0)
(0.00499875 -1.49039e-06 0)
(0.0049987 -1.56373e-06 0)
(0.00499865 -1.63811e-06 0)
(0.00499861 -1.71302e-06 0)
(0.00499856 -1.78778e-06 0)
(0.00499851 -1.86154e-06 0)
(0.00499847 -1.9333e-06 0)
(0.00499842 -2.00181e-06 0)
(0.00499838 -2.06557e-06 0)
(0.00499834 -2.12286e-06 0)
(0.00499831 -2.17166e-06 0)
(0.00499828 -2.20977e-06 0)
(0.00499826 -2.23525e-06 0)
(0.00499824 -2.24826e-06 0)
(0.005 -4.65306e-10 0)
(0.005 -1.34307e-09 0)
(0.005 -2.17844e-09 0)
(0.005 -2.9809e-09 0)
(0.005 -3.7688e-09 0)
(0.005 -4.55583e-09 0)
(0.005 -5.352e-09 0)
(0.005 -6.16511e-09 0)
(0.005 -7.0015e-09 0)
(0.005 -7.86667e-09 0)
(0.005 -8.76558e-09 0)
(0.005 -9.70288e-09 0)
(0.00499999 -1.06831e-08 0)
(0.00499999 -1.17107e-08 0)
(0.00499999 -1.27901e-08 0)
(0.00499999 -1.39261e-08 0)
(0.00499999 -1.51235e-08 0)
(0.00499999 -1.63871e-08 0)
(0.00499999 -1.77223e-08 0)
(0.00499999 -1.91347e-08 0)
(0.00499999 -2.06301e-08 0)
(0.00499998 -2.22149e-08 0)
(0.00499998 -2.38956e-08 0)
(0.00499998 -2.56795e-08 0)
(0.00499998 -2.75741e-08 0)
(0.00499998 -2.95876e-08 0)
(0.00499997 -3.17286e-08 0)
(0.00499997 -3.40065e-08 0)
(0.00499997 -3.64313e-08 0)
(0.00499996 -3.90135e-08 0)
(0.00499996 -4.17647e-08 0)
(0.00499996 -4.46969e-08 0)
(0.00499995 -4.78231e-08 0)
(0.00499995 -5.11574e-08 0)
(0.00499995 -5.47145e-08 0)
(0.00499994 -5.85102e-08 0)
(0.00499994 -6.25615e-08 0)
(0.00499993 -6.68863e-08 0)
(0.00499993 -7.15039e-08 0)
(0.00499992 -7.64345e-08 0)
(0.00499991 -8.17e-08 0)
(0.00499991 -8.73234e-08 0)
(0.0049999 -9.33292e-08 0)
(0.00499989 -9.97434e-08 0)
(0.00499988 -1.06594e-07 0)
(0.00499988 -1.13909e-07 0)
(0.00499987 -1.2172e-07 0)
(0.00499986 -1.3006e-07 0)
(0.00499985 -1.38964e-07 0)
(0.00499984 -1.48467e-07 0)
(0.00499982 -1.58608e-07 0)
(0.00499981 -1.69429e-07 0)
(0.0049998 -1.8097e-07 0)
(0.00499979 -1.93278e-07 0)
(0.00499977 -2.064e-07 0)
(0.00499976 -2.20385e-07 0)
(0.00499974 -2.35284e-07 0)
(0.00499972 -2.51153e-07 0)
(0.00499971 -2.68047e-07 0)
(0.00499969 -2.86027e-07 0)
(0.00499967 -3.05153e-07 0)
(0.00499965 -3.2549e-07 0)
(0.00499963 -3.47105e-07 0)
(0.0049996 -3.70067e-07 0)
(0.00499958 -3.94446e-07 0)
(0.00499956 -4.20318e-07 0)
(0.00499953 -4.47757e-07 0)
(0.0049995 -4.76842e-07 0)
(0.00499948 -5.07651e-07 0)
(0.00499945 -5.40265e-07 0)
(0.00499941 -5.74765e-07 0)
(0.00499938 -6.11234e-07 0)
(0.00499935 -6.49751e-07 0)
(0.00499931 -6.90399e-07 0)
(0.00499928 -7.33254e-07 0)
(0.00499924 -7.7839e-07 0)
(0.0049992 -8.25877e-07 0)
(0.00499916 -8.75776e-07 0)
(0.00499912 -9.28141e-07 0)
(0.00499908 -9.83011e-07 0)
(0.00499904 -1.04041e-06 0)
(0.00499899 -1.10034e-06 0)
(0.00499895 -1.16278e-06 0)
(0.0049989 -1.22767e-06 0)
(0.00499885 -1.29493e-06 0)
(0.00499881 -1.36439e-06 0)
(0.00499876 -1.43586e-06 0)
(0.00499871 -1.50905e-06 0)
(0.00499866 -1.58359e-06 0)
(0.00499861 -1.659e-06 0)
(0.00499856 -1.73464e-06 0)
(0.00499852 -1.80976e-06 0)
(0.00499847 -1.88338e-06 0)
(0.00499843 -1.95434e-06 0)
(0.00499839 -2.02124e-06 0)
(0.00499835 -2.08242e-06 0)
(0.00499831 -2.13599e-06 0)
(0.00499828 -2.1798e-06 0)
(0.00499826 -2.21183e-06 0)
(0.00499823 -2.23115e-06 0)
(0.005 -3.83909e-10 0)
(0.005 -1.1649e-09 0)
(0.005 -1.9324e-09 0)
(0.005 -2.67823e-09 0)
(0.005 -3.41248e-09 0)
(0.005 -4.14559e-09 0)
(0.005 -4.88591e-09 0)
(0.005 -5.64029e-09 0)
(0.005 -6.41447e-09 0)
(0.005 -7.2135e-09 0)
(0.005 -8.04193e-09 0)
(0.005 -8.90406e-09 0)
(0.00499999 -9.80404e-09 0)
(0.00499999 -1.0746e-08 0)
(0.00499999 -1.17341e-08 0)
(0.00499999 -1.27725e-08 0)
(0.00499999 -1.38657e-08 0)
(0.00499999 -1.50183e-08 0)
(0.00499999 -1.62352e-08 0)
(0.00499999 -1.75213e-08 0)
(0.00499999 -1.88823e-08 0)
(0.00499998 -2.03239e-08 0)
(0.00499998 -2.18522e-08 0)
(0.00499998 -2.3474e-08 0)
(0.00499998 -2.51961e-08 0)
(0.00499998 -2.70264e-08 0)
(0.00499997 -2.89727e-08 0)
(0.00499997 -3.1044e-08 0)
(0.00499997 -3.32494e-08 0)
(0.00499996 -3.55991e-08 0)
(0.00499996 -3.81036e-08 0)
(0.00499996 -4.07746e-08 0)
(0.00499995 -4.36242e-08 0)
(0.00499995 -4.66657e-08 0)
(0.00499995 -4.9913e-08 0)
(0.00499994 -5.33814e-08 0)
(0.00499994 -5.70867e-08 0)
(0.00499993 -6.10463e-08 0)
(0.00499993 -6.52783e-08 0)
(0.00499992 -6.98024e-08 0)
(0.00499991 -7.46394e-08 0)
(0.00499991 -7.98113e-08 0)
(0.0049999 -8.53417e-08 0)
(0.00499989 -9.12558e-08 0)
(0.00499989 -9.75801e-08 0)
(0.00499988 -1.04343e-07 0)
(0.00499987 -1.11574e-07 0)
(0.00499986 -1.19306e-07 0)
(0.00499985 -1.27571e-07 0)
(0.00499984 -1.36405e-07 0)
(0.00499983 -1.45847e-07 0)
(0.00499981 -1.55935e-07 0)
(0.0049998 -1.66711e-07 0)
(0.00499979 -1.7822e-07 0)
(0.00499977 -1.90507e-07 0)
(0.00499976 -2.03623e-07 0)
(0.00499974 -2.17617e-07 0)
(0.00499973 -2.32544e-07 0)
(0.00499971 -2.4846e-07 0)
(0.00499969 -2.65424e-07 0)
(0.00499967 -2.83498e-07 0)
(0.00499965 -3.02745e-07 0)
(0.00499963 -3.23234e-07 0)
(0.00499961 -3.45032e-07 0)
(0.00499958 -3.68214e-07 0)
(0.00499956 -3.92852e-07 0)
(0.00499953 -4.19026e-07 0)
(0.00499951 -4.46813e-07 0)
(0.00499948 -4.76296e-07 0)
(0.00499945 -5.07558e-07 0)
(0.00499942 -5.40684e-07 0)
(0.00499939 -5.75759e-07 0)
(0.00499936 -6.12869e-07 0)
(0.00499932 -6.521e-07 0)
(0.00499929 -6.93537e-07 0)
(0.00499925 -7.3726e-07 0)
(0.00499921 -7.83349e-07 0)
(0.00499917 -8.31874e-07 0)
(0.00499913 -8.829e-07 0)
(0.00499909 -9.36479e-07 0)
(0.00499904 -9.92651e-07 0)
(0.004999 -1.05143e-06 0)
(0.00499896 -1.11283e-06 0)
(0.00499891 -1.1768e-06 0)
(0.00499886 -1.24327e-06 0)
(0.00499881 -1.31213e-06 0)
(0.00499877 -1.3832e-06 0)
(0.00499872 -1.45623e-06 0)
(0.00499867 -1.53088e-06 0)
(0.00499862 -1.60672e-06 0)
(0.00499857 -1.68317e-06 0)
(0.00499853 -1.75951e-06 0)
(0.00499848 -1.83483e-06 0)
(0.00499844 -1.90802e-06 0)
(0.0049984 -1.97773e-06 0)
(0.00499836 -2.04235e-06 0)
(0.00499832 -2.09996e-06 0)
(0.00499829 -2.14831e-06 0)
(0.00499826 -2.18497e-06 0)
(0.00499823 -2.20871e-06 0)
(0.005 -3.27746e-10 0)
(0.005 -1.02219e-09 0)
(0.005 -1.72176e-09 0)
(0.005 -2.41049e-09 0)
(0.005 -3.09245e-09 0)
(0.005 -3.77453e-09 0)
(0.005 -4.46303e-09 0)
(0.005 -5.16356e-09 0)
(0.005 -5.88108e-09 0)
(0.005 -6.62006e-09 0)
(0.005 -7.38464e-09 0)
(0.005 -8.17873e-09 0)
(0.00499999 -9.00614e-09 0)
(0.00499999 -9.87063e-09 0)
(0.00499999 -1.0776e-08 0)
(0.00499999 -1.17262e-08 0)
(0.00499999 -1.27253e-08 0)
(0.00499999 -1.37774e-08 0)
(0.00499999 -1.48872e-08 0)
(0.00499999 -1.60592e-08 0)
(0.00499999 -1.72985e-08 0)
(0.00499998 -1.86105e-08 0)
(0.00499998 -2.0001e-08 0)
(0.00499998 -2.1476e-08 0)
(0.00499998 -2.30421e-08 0)
(0.00499998 -2.47065e-08 0)
(0.00499997 -2.64767e-08 0)
(0.00499997 -2.83609e-08 0)
(0.00499997 -3.03679e-08 0)
(0.00499997 -3.2507e-08 0)
(0.00499996 -3.47883e-08 0)
(0.00499996 -3.72228e-08 0)
(0.00499996 -3.9822e-08 0)
(0.00499995 -4.25984e-08 0)
(0.00499995 -4.55655e-08 0)
(0.00499994 -4.87374e-08 0)
(0.00499994 -5.21296e-08 0)
(0.00499993 -5.57585e-08 0)
(0.00499993 -5.96416e-08 0)
(0.00499992 -6.37976e-08 0)
(0.00499992 -6.82464e-08 0)
(0.00499991 -7.30096e-08 0)
(0.0049999 -7.81097e-08 0)
(0.00499989 -8.35709e-08 0)
(0.00499989 -8.94191e-08 0)
(0.00499988 -9.56816e-08 0)
(0.00499987 -1.02387e-07 0)
(0.00499986 -1.09568e-07 0)
(0.00499985 -1.17255e-07 0)
(0.00499984 -1.25484e-07 0)
(0.00499983 -1.34291e-07 0)
(0.00499982 -1.43715e-07 0)
(0.0049998 -1.53798e-07 0)
(0.00499979 -1.64583e-07 0)
(0.00499978 -1.76115e-07 0)
(0.00499976 -1.88443e-07 0)
(0.00499975 -2.01617e-07 0)
(0.00499973 -2.15691e-07 0)
(0.00499971 -2.3072e-07 0)
(0.0049997 -2.46763e-07 0)
(0.00499968 -2.63883e-07 0)
(0.00499966 -2.82142e-07 0)
(0.00499964 -3.01609e-07 0)
(0.00499961 -3.22353e-07 0)
(0.00499959 -3.44447e-07 0)
(0.00499957 -3.67967e-07 0)
(0.00499954 -3.92992e-07 0)
(0.00499951 -4.19602e-07 0)
(0.00499949 -4.47881e-07 0)
(0.00499946 -4.77915e-07 0)
(0.00499943 -5.09791e-07 0)
(0.0049994 -5.43599e-07 0)
(0.00499936 -5.79429e-07 0)
(0.00499933 -6.17371e-07 0)
(0.00499929 -6.57516e-07 0)
(0.00499926 -6.99952e-07 0)
(0.00499922 -7.44763e-07 0)
(0.00499918 -7.92032e-07 0)
(0.00499914 -8.41832e-07 0)
(0.0049991 -8.94228e-07 0)
(0.00499906 -9.49271e-07 0)
(0.00499901 -1.007e-06 0)
(0.00499897 -1.06742e-06 0)
(0.00499892 -1.13052e-06 0)
(0.00499888 -1.19625e-06 0)
(0.00499883 -1.26452e-06 0)
(0.00499878 -1.33518e-06 0)
(0.00499873 -1.40801e-06 0)
(0.00499868 -1.4827e-06 0)
(0.00499864 -1.55885e-06 0)
(0.00499859 -1.63592e-06 0)
(0.00499854 -1.71323e-06 0)
(0.00499849 -1.78991e-06 0)
(0.00499845 -1.86489e-06 0)
(0.00499841 -1.93682e-06 0)
(0.00499837 -2.00408e-06 0)
(0.00499833 -2.06467e-06 0)
(0.00499829 -2.11615e-06 0)
(0.00499826 -2.15563e-06 0)
(0.00499822 -2.18026e-06 0)
(0.005 -2.83031e-10 0)
(0.005 -8.98048e-10 0)
(0.005 -1.52901e-09 0)
(0.005 -2.15788e-09 0)
(0.005 -2.78504e-09 0)
(0.005 -3.4144e-09 0)
(0.005 -4.05019e-09 0)
(0.005 -4.69665e-09 0)
(0.005 -5.35777e-09 0)
(0.005 -6.03735e-09 0)
(0.005 -6.73898e-09 0)
(0.005 -7.46615e-09 0)
(0.005 -8.22228e-09 0)
(0.00499999 -9.01076e-09 0)
(0.00499999 -9.83506e-09 0)
(0.00499999 -1.06987e-08 0)
(0.00499999 -1.16055e-08 0)
(0.00499999 -1.25592e-08 0)
(0.00499999 -1.35639e-08 0)
(0.00499999 -1.4624e-08 0)
(0.00499999 -1.57441e-08 0)
(0.00499998 -1.69292e-08 0)
(0.00499998 -1.81844e-08 0)
(0.00499998 -1.95156e-08 0)
(0.00499998 -2.09288e-08 0)
(0.00499998 -2.24306e-08 0)
(0.00499997 -2.40281e-08 0)
(0.00499997 -2.5729e-08 0)
(0.00499997 -2.75413e-08 0)
(0.00499997 -2.9474e-08 0)
(0.00499996 -3.15365e-08 0)
(0.00499996 -3.37391e-08 0)
(0.00499996 -3.60928e-08 0)
(0.00499995 -3.86093e-08 0)
(0.00499995 -4.13015e-08 0)
(0.00499994 -4.41828e-08 0)
(0.00499994 -4.72679e-08 0)
(0.00499993 -5.05725e-08 0)
(0.00499993 -5.41132e-08 0)
(0.00499992 -5.79082e-08 0)
(0.00499992 -6.19765e-08 0)
(0.00499991 -6.63386e-08 0)
(0.0049999 -7.10166e-08 0)
(0.0049999 -7.60336e-08 0)
(0.00499989 -8.14147e-08 0)
(0.00499988 -8.71863e-08 0)
(0.00499987 -9.33767e-08 0)
(0.00499986 -1.00016e-07 0)
(0.00499985 -1.07136e-07 0)
(0.00499984 -1.1477e-07 0)
(0.00499983 -1.22955e-07 0)
(0.00499982 -1.31729e-07 0)
(0.00499981 -1.41131e-07 0)
(0.00499979 -1.51205e-07 0)
(0.00499978 -1.61995e-07 0)
(0.00499977 -1.73549e-07 0)
(0.00499975 -1.85918e-07 0)
(0.00499973 -1.99153e-07 0)
(0.00499972 -2.13311e-07 0)
(0.0049997 -2.2845e-07 0)
(0.00499968 -2.44632e-07 0)
(0.00499966 -2.6192e-07 0)
(0.00499964 -2.80383e-07 0)
(0.00499962 -3.0009e-07 0)
(0.0049996 -3.21115e-07 0)
(0.00499957 -3.43534e-07 0)
(0.00499955 -3.67428e-07 0)
(0.00499952 -3.92879e-07 0)
(0.00499949 -4.19973e-07 0)
(0.00499947 -4.48797e-07 0)
(0.00499944 -4.79442e-07 0)
(0.00499941 -5.12e-07 0)
(0.00499937 -5.46566e-07 0)
(0.00499934 -5.83235e-07 0)
(0.00499931 -6.22103e-07 0)
(0.00499927 -6.63264e-07 0)
(0.00499923 -7.06811e-07 0)
(0.00499919 -7.52833e-07 0)
(0.00499915 -8.01413e-07 0)
(0.00499911 -8.52628e-07 0)
(0.00499907 -9.0654e-07 0)
(0.00499903 -9.632e-07 0)
(0.00499898 -1.02264e-06 0)
(0.00499894 -1.08485e-06 0)
(0.00499889 -1.14982e-06 0)
(0.00499885 -1.21746e-06 0)
(0.0049988 -1.28766e-06 0)
(0.00499875 -1.36021e-06 0)
(0.0049987 -1.43485e-06 0)
(0.00499865 -1.5112e-06 0)
(0.00499861 -1.58875e-06 0)
(0.00499856 -1.66685e-06 0)
(0.00499851 -1.74466e-06 0)
(0.00499847 -1.82111e-06 0)
(0.00499842 -1.89486e-06 0)
(0.00499838 -1.96425e-06 0)
(0.00499834 -2.02718e-06 0)
(0.0049983 -2.08099e-06 0)
(0.00499827 -2.12241e-06 0)
(0.00499823 -2.14649e-06 0)
(0.005 -2.4461e-10 0)
(0.005 -7.86199e-10 0)
(0.005 -1.34998e-09 0)
(0.005 -1.91792e-09 0)
(0.005 -2.48843e-09 0)
(0.005 -3.06328e-09 0)
(0.005 -3.645e-09 0)
(0.005 -4.23648e-09 0)
(0.005 -4.84073e-09 0)
(0.005 -5.46079e-09 0)
(0.005 -6.09965e-09 0)
(0.005 -6.7603e-09 0)
(0.005 -7.44572e-09 0)
(0.00499999 -8.15894e-09 0)
(0.00499999 -8.90304e-09 0)
(0.00499999 -9.68121e-09 0)
(0.00499999 -1.04968e-08 0)
(0.00499999 -1.13532e-08 0)
(0.00499999 -1.22543e-08 0)
(0.00499999 -1.3204e-08 0)
(0.00499999 -1.42064e-08 0)
(0.00499998 -1.52661e-08 0)
(0.00499998 -1.63879e-08 0)
(0.00499998 -1.75772e-08 0)
(0.00499998 -1.88395e-08 0)
(0.00499998 -2.01809e-08 0)
(0.00499997 -2.1608e-08 0)
(0.00499997 -2.31279e-08 0)
(0.00499997 -2.47482e-08 0)
(0.00499997 -2.64772e-08 0)
(0.00499996 -2.83238e-08 0)
(0.00499996 -3.02977e-08 0)
(0.00499996 -3.24091e-08 0)
(0.00499995 -3.46692e-08 0)
(0.00499995 -3.70901e-08 0)
(0.00499994 -3.96847e-08 0)
(0.00499994 -4.24668e-08 0)
(0.00499994 -4.54514e-08 0)
(0.00499993 -4.86544e-08 0)
(0.00499992 -5.20931e-08 0)
(0.00499992 -5.57858e-08 0)
(0.00499991 -5.97523e-08 0)
(0.00499991 -6.40136e-08 0)
(0.0049999 -6.85923e-08 0)
(0.00499989 -7.35123e-08 0)
(0.00499988 -7.87995e-08 0)
(0.00499987 -8.44811e-08 0)
(0.00499987 -9.05863e-08 0)
(0.00499986 -9.71463e-08 0)
(0.00499985 -1.04194e-07 0)
(0.00499983 -1.11764e-07 0)
(0.00499982 -1.19895e-07 0)
(0.00499981 -1.28625e-07 0)
(0.0049998 -1.37997e-07 0)
(0.00499978 -1.48054e-07 0)
(0.00499977 -1.58845e-07 0)
(0.00499976 -1.70417e-07 0)
(0.00499974 -1.82824e-07 0)
(0.00499972 -1.96121e-07 0)
(0.00499971 -2.10367e-07 0)
(0.00499969 -2.25621e-07 0)
(0.00499967 -2.41949e-07 0)
(0.00499965 -2.59418e-07 0)
(0.00499963 -2.78099e-07 0)
(0.0049996 -2.98066e-07 0)
(0.00499958 -3.19397e-07 0)
(0.00499956 -3.42171e-07 0)
(0.00499953 -3.66474e-07 0)
(0.0049995 -3.92393e-07 0)
(0.00499948 -4.20017e-07 0)
(0.00499945 -4.4944e-07 0)
(0.00499942 -4.80757e-07 0)
(0.00499939 -5.14068e-07 0)
(0.00499935 -5.49471e-07 0)
(0.00499932 -5.87067e-07 0)
(0.00499928 -6.26957e-07 0)
(0.00499925 -6.6924e-07 0)
(0.00499921 -7.14014e-07 0)
(0.00499917 -7.61371e-07 0)
(0.00499913 -8.11397e-07 0)
(0.00499909 -8.64167e-07 0)
(0.00499905 -9.19745e-07 0)
(0.004999 -9.78173e-07 0)
(0.00499896 -1.03947e-06 0)
(0.00499891 -1.10363e-06 0)
(0.00499887 -1.17059e-06 0)
(0.00499882 -1.24026e-06 0)
(0.00499877 -1.31246e-06 0)
(0.00499872 -1.38695e-06 0)
(0.00499868 -1.46337e-06 0)
(0.00499863 -1.54124e-06 0)
(0.00499858 -1.61993e-06 0)
(0.00499853 -1.69862e-06 0)
(0.00499849 -1.77624e-06 0)
(0.00499844 -1.85144e-06 0)
(0.0049984 -1.92249e-06 0)
(0.00499836 -1.98718e-06 0)
(0.00499832 -2.04266e-06 0)
(0.00499828 -2.08524e-06 0)
(0.00499823 -2.10909e-06 0)
(0.005 -2.10876e-10 0)
(0.005 -6.8503e-10 0)
(0.005 -1.18451e-09 0)
(0.005 -1.69218e-09 0)
(0.005 -2.20557e-09 0)
(0.005 -2.72513e-09 0)
(0.005 -3.25206e-09 0)
(0.005 -3.78812e-09 0)
(0.005 -4.33538e-09 0)
(0.005 -4.89612e-09 0)
(0.005 -5.47271e-09 0)
(0.005 -6.06763e-09 0)
(0.005 -6.68338e-09 0)
(0.00499999 -7.32256e-09 0)
(0.00499999 -7.98789e-09 0)
(0.00499999 -8.68216e-09 0)
(0.00499999 -9.40834e-09 0)
(0.00499999 -1.01695e-08 0)
(0.00499999 -1.09691e-08 0)
(0.00499999 -1.18106e-08 0)
(0.00499999 -1.26978e-08 0)
(0.00499999 -1.36349e-08 0)
(0.00499998 -1.46262e-08 0)
(0.00499998 -1.56766e-08 0)
(0.00499998 -1.67913e-08 0)
(0.00499998 -1.79758e-08 0)
(0.00499998 -1.92362e-08 0)
(0.00499997 -2.05791e-08 0)
(0.00499997 -2.20116e-08 0)
(0.00499997 -2.35415e-08 0)
(0.00499996 -2.51769e-08 0)
(0.00499996 -2.6927e-08 0)
(0.00499996 -2.88015e-08 0)
(0.00499995 -3.08109e-08 0)
(0.00499995 -3.29665e-08 0)
(0.00499995 -3.52806e-08 0)
(0.00499994 -3.77663e-08 0)
(0.00499994 -4.04379e-08 0)
(0.00499993 -4.33106e-08 0)
(0.00499993 -4.64009e-08 0)
(0.00499992 -4.97262e-08 0)
(0.00499991 -5.33056e-08 0)
(0.00499991 -5.71594e-08 0)
(0.0049999 -6.13091e-08 0)
(0.00499989 -6.57781e-08 0)
(0.00499989 -7.05912e-08 0)
(0.00499988 -7.5775e-08 0)
(0.00499987 -8.13577e-08 0)
(0.00499986 -8.73696e-08 0)
(0.00499985 -9.3843e-08 0)
(0.00499984 -1.00812e-07 0)
(0.00499983 -1.08313e-07 0)
(0.00499982 -1.16385e-07 0)
(0.0049998 -1.25069e-07 0)
(0.00499979 -1.34409e-07 0)
(0.00499978 -1.44451e-07 0)
(0.00499976 -1.55244e-07 0)
(0.00499975 -1.66839e-07 0)
(0.00499973 -1.79293e-07 0)
(0.00499971 -1.92661e-07 0)
(0.0049997 -2.07007e-07 0)
(0.00499968 -2.22393e-07 0)
(0.00499966 -2.38888e-07 0)
(0.00499964 -2.56562e-07 0)
(0.00499961 -2.7549e-07 0)
(0.00499959 -2.95751e-07 0)
(0.00499957 -3.17425e-07 0)
(0.00499954 -3.40599e-07 0)
(0.00499952 -3.65362e-07 0)
(0.00499949 -3.91805e-07 0)
(0.00499946 -4.20025e-07 0)
(0.00499943 -4.50119e-07 0)
(0.0049994 -4.82191e-07 0)
(0.00499937 -5.16343e-07 0)
(0.00499933 -5.52681e-07 0)
(0.0049993 -5.91311e-07 0)
(0.00499926 -6.3234e-07 0)
(0.00499923 -6.75871e-07 0)
(0.00499919 -7.22007e-07 0)
(0.00499915 -7.70841e-07 0)
(0.00499911 -8.22462e-07 0)
(0.00499907 -8.76942e-07 0)
(0.00499902 -9.3434e-07 0)
(0.00499898 -9.9469e-07 0)
(0.00499893 -1.058e-06 0)
(0.00499889 -1.12423e-06 0)
(0.00499884 -1.19329e-06 0)
(0.0049988 -1.26505e-06 0)
(0.00499875 -1.33927e-06 0)
(0.0049987 -1.41562e-06 0)
(0.00499865 -1.49363e-06 0)
(0.00499861 -1.5727e-06 0)
(0.00499856 -1.652e-06 0)
(0.00499851 -1.73047e-06 0)
(0.00499847 -1.80671e-06 0)
(0.00499842 -1.87896e-06 0)
(0.00499838 -1.9449e-06 0)
(0.00499833 -2.00151e-06 0)
(0.00499829 -2.04478e-06 0)
(0.00499824 -2.06934e-06 0)
(0.005 -1.8071e-10 0)
(0.005 -5.92861e-10 0)
(0.005 -1.03142e-09 0)
(0.005 -1.48049e-09 0)
(0.005 -1.93734e-09 0)
(0.005 -2.40164e-09 0)
(0.005 -2.87366e-09 0)
(0.005 -3.35426e-09 0)
(0.005 -3.8447e-09 0)
(0.005 -4.34654e-09 0)
(0.005 -4.86156e-09 0)
(0.005 -5.39169e-09 0)
(0.005 -5.93897e-09 0)
(0.00499999 -6.50557e-09 0)
(0.00499999 -7.09378e-09 0)
(0.00499999 -7.70604e-09 0)
(0.00499999 -8.34492e-09 0)
(0.00499999 -9.01318e-09 0)
(0.00499999 -9.71375e-09 0)
(0.00499999 -1.04498e-08 0)
(0.00499999 -1.12248e-08 0)
(0.00499999 -1.20424e-08 0)
(0.00499998 -1.29066e-08 0)
(0.00499998 -1.38218e-08 0)
(0.00499998 -1.47927e-08 0)
(0.00499998 -1.58244e-08 0)
(0.00499998 -1.69226e-08 0)
(0.00499997 -1.80932e-08 0)
(0.00499997 -1.93429e-08 0)
(0.00499997 -2.06789e-08 0)
(0.00499997 -2.21088e-08 0)
(0.00499996 -2.36411e-08 0)
(0.00499996 -2.5285e-08 0)
(0.00499996 -2.70503e-08 0)
(0.00499995 -2.89477e-08 0)
(0.00499995 -3.09888e-08 0)
(0.00499994 -3.3186e-08 0)
(0.00499994 -3.55529e-08 0)
(0.00499993 -3.81041e-08 0)
(0.00499993 -4.08551e-08 0)
(0.00499992 -4.38228e-08 0)
(0.00499992 -4.70253e-08 0)
(0.00499991 -5.04822e-08 0)
(0.0049999 -5.42143e-08 0)
(0.0049999 -5.8244e-08 0)
(0.00499989 -6.25954e-08 0)
(0.00499988 -6.72943e-08 0)
(0.00499987 -7.2368e-08 0)
(0.00499986 -7.7846e-08 0)
(0.00499985 -8.37596e-08 0)
(0.00499984 -9.01425e-08 0)
(0.00499983 -9.70301e-08 0)
(0.00499982 -1.04461e-07 0)
(0.00499981 -1.12474e-07 0)
(0.0049998 -1.21114e-07 0)
(0.00499978 -1.30426e-07 0)
(0.00499977 -1.40458e-07 0)
(0.00499975 -1.51262e-07 0)
(0.00499974 -1.62892e-07 0)
(0.00499972 -1.75405e-07 0)
(0.0049997 -1.88863e-07 0)
(0.00499969 -2.03329e-07 0)
(0.00499967 -2.18871e-07 0)
(0.00499965 -2.35561e-07 0)
(0.00499962 -2.53473e-07 0)
(0.0049996 -2.72687e-07 0)
(0.00499958 -2.93284e-07 0)
(0.00499955 -3.15353e-07 0)
(0.00499953 -3.38982e-07 0)
(0.0049995 -3.64266e-07 0)
(0.00499947 -3.91304e-07 0)
(0.00499945 -4.20196e-07 0)
(0.00499942 -4.51048e-07 0)
(0.00499938 -4.83967e-07 0)
(0.00499935 -5.19063e-07 0)
(0.00499932 -5.56448e-07 0)
(0.00499928 -5.96233e-07 0)
(0.00499925 -6.38529e-07 0)
(0.00499921 -6.83446e-07 0)
(0.00499917 -7.31087e-07 0)
(0.00499913 -7.81549e-07 0)
(0.00499909 -8.34917e-07 0)
(0.00499905 -8.9126e-07 0)
(0.004999 -9.50627e-07 0)
(0.00499896 -1.01304e-06 0)
(0.00499891 -1.07847e-06 0)
(0.00499887 -1.14686e-06 0)
(0.00499882 -1.21807e-06 0)
(0.00499878 -1.2919e-06 0)
(0.00499873 -1.36802e-06 0)
(0.00499868 -1.446e-06 0)
(0.00499863 -1.52522e-06 0)
(0.00499859 -1.60486e-06 0)
(0.00499854 -1.68385e-06 0)
(0.00499849 -1.76078e-06 0)
(0.00499845 -1.83381e-06 0)
(0.0049984 -1.90057e-06 0)
(0.00499835 -1.95792e-06 0)
(0.00499831 -2.00181e-06 0)
(0.00499826 -2.02738e-06 0)
(0.005 -1.53309e-10 0)
(0.005 -5.08235e-10 0)
(0.005 -8.89371e-10 0)
(0.005 -1.28207e-09 0)
(0.005 -1.68366e-09 0)
(0.005 -2.0934e-09 0)
(0.005 -2.51094e-09 0)
(0.005 -2.93646e-09 0)
(0.005 -3.37054e-09 0)
(0.005 -3.81414e-09 0)
(0.005 -4.26845e-09 0)
(0.005 -4.73488e-09 0)
(0.005 -5.21502e-09 0)
(0.00499999 -5.7106e-09 0)
(0.00499999 -6.22352e-09 0)
(0.00499999 -6.7558e-09 0)
(0.00499999 -7.30965e-09 0)
(0.00499999 -7.88745e-09 0)
(0.00499999 -8.49175e-09 0)
(0.00499999 -9.12536e-09 0)
(0.00499999 -9.7913e-09 0)
(0.00499999 -1.04929e-08 0)
(0.00499998 -1.12337e-08 0)
(0.00499998 -1.20176e-08 0)
(0.00499998 -1.2849e-08 0)
(0.00499998 -1.37325e-08 0)
(0.00499998 -1.46733e-08 0)
(0.00499997 -1.56768e-08 0)
(0.00499997 -1.67491e-08 0)
(0.00499997 -1.7897e-08 0)
(0.00499997 -1.91275e-08 0)
(0.00499996 -2.04486e-08 0)
(0.00499996 -2.18688e-08 0)
(0.00499996 -2.33973e-08 0)
(0.00499995 -2.50443e-08 0)
(0.00499995 -2.68205e-08 0)
(0.00499994 -2.8738e-08 0)
(0.00499994 -3.08093e-08 0)
(0.00499994 -3.30485e-08 0)
(0.00499993 -3.54703e-08 0)
(0.00499992 -3.8091e-08 0)
(0.00499992 -4.09279e-08 0)
(0.00499991 -4.39996e-08 0)
(0.00499991 -4.73264e-08 0)
(0.0049999 -5.09298e-08 0)
(0.00499989 -5.48331e-08 0)
(0.00499988 -5.90611e-08 0)
(0.00499988 -6.36405e-08 0)
(0.00499987 -6.86e-08 0)
(0.00499986 -7.39702e-08 0)
(0.00499985 -7.97836e-08 0)
(0.00499984 -8.60752e-08 0)
(0.00499983 -9.28822e-08 0)
(0.00499981 -1.00244e-07 0)
(0.0049998 -1.08204e-07 0)
(0.00499979 -1.16806e-07 0)
(0.00499978 -1.26098e-07 0)
(0.00499976 -1.36131e-07 0)
(0.00499975 -1.46959e-07 0)
(0.00499973 -1.5864e-07 0)
(0.00499971 -1.71232e-07 0)
(0.00499969 -1.84802e-07 0)
(0.00499968 -1.99416e-07 0)
(0.00499966 -2.15145e-07 0)
(0.00499964 -2.32066e-07 0)
(0.00499961 -2.50258e-07 0)
(0.00499959 -2.69803e-07 0)
(0.00499957 -2.9079e-07 0)
(0.00499954 -3.13311e-07 0)
(0.00499952 -3.3746e-07 0)
(0.00499949 -3.63339e-07 0)
(0.00499946 -3.91051e-07 0)
(0.00499943 -4.20704e-07 0)
(0.0049994 -4.52409e-07 0)
(0.00499937 -4.8628e-07 0)
(0.00499934 -5.22433e-07 0)
(0.0049993 -5.60985e-07 0)
(0.00499927 -6.02054e-07 0)
(0.00499923 -6.45755e-07 0)
(0.00499919 -6.92199e-07 0)
(0.00499915 -7.41493e-07 0)
(0.00499911 -7.93731e-07 0)
(0.00499907 -8.48992e-07 0)
(0.00499903 -9.07338e-07 0)
(0.00499899 -9.68799e-07 0)
(0.00499894 -1.03337e-06 0)
(0.0049989 -1.101e-06 0)
(0.00499885 -1.17157e-06 0)
(0.00499881 -1.24487e-06 0)
(0.00499876 -1.32062e-06 0)
(0.00499871 -1.39837e-06 0)
(0.00499866 -1.47752e-06 0)
(0.00499862 -1.55724e-06 0)
(0.00499857 -1.63646e-06 0)
(0.00499852 -1.71374e-06 0)
(0.00499847 -1.78721e-06 0)
(0.00499843 -1.85443e-06 0)
(0.00499838 -1.91224e-06 0)
(0.00499833 -1.9566e-06 0)
(0.00499828 -1.98279e-06 0)
(0.005 -1.2817e-10 0)
(0.005 -4.30098e-10 0)
(0.005 -7.57256e-10 0)
(0.005 -1.09612e-09 0)
(0.005 -1.44424e-09 0)
(0.005 -1.80066e-09 0)
(0.005 -2.16465e-09 0)
(0.005 -2.5359e-09 0)
(0.005 -2.91446e-09 0)
(0.005 -3.30073e-09 0)
(0.005 -3.69541e-09 0)
(0.005 -4.09943e-09 0)
(0.005 -4.51393e-09 0)
(0.005 -4.94023e-09 0)
(0.00499999 -5.37981e-09 0)
(0.00499999 -5.83433e-09 0)
(0.00499999 -6.3056e-09 0)
(0.00499999 -6.79563e-09 0)
(0.00499999 -7.30661e-09 0)
(0.00499999 -7.84096e-09 0)
(0.00499999 -8.40133e-09 0)
(0.00499999 -8.99061e-09 0)
(0.00499998 -9.61201e-09 0)
(0.00499998 -1.0269e-08 0)
(0.00499998 -1.09655e-08 0)
(0.00499998 -1.17057e-08 0)
(0.00499998 -1.24942e-08 0)
(0.00499998 -1.33362e-08 0)
(0.00499997 -1.42371e-08 0)
(0.00499997 -1.52032e-08 0)
(0.00499997 -1.62411e-08 0)
(0.00499996 -1.7358e-08 0)
(0.00499996 -1.8562e-08 0)
(0.00499996 -1.98617e-08 0)
(0.00499995 -2.12666e-08 0)
(0.00499995 -2.2787e-08 0)
(0.00499995 -2.44339e-08 0)
(0.00499994 -2.62196e-08 0)
(0.00499994 -2.81572e-08 0)
(0.00499993 -3.02609e-08 0)
(0.00499993 -3.25461e-08 0)
(0.00499992 -3.50294e-08 0)
(0.00499992 -3.77288e-08 0)
(0.00499991 -4.06635e-08 0)
(0.0049999 -4.38546e-08 0)
(0.0049999 -4.73243e-08 0)
(0.00499989 -5.10968e-08 0)
(0.00499988 -5.5198e-08 0)
(0.00499987 -5.96557e-08 0)
(0.00499986 -6.44996e-08 0)
(0.00499985 -6.97617e-08 0)
(0.00499984 -7.5476e-08 0)
(0.00499983 -8.16791e-08 0)
(0.00499982 -8.84099e-08 0)
(0.00499981 -9.571e-08 0)
(0.0049998 -1.03624e-07 0)
(0.00499978 -1.12198e-07 0)
(0.00499977 -1.21484e-07 0)
(0.00499975 -1.31534e-07 0)
(0.00499974 -1.42406e-07 0)
(0.00499972 -1.54158e-07 0)
(0.00499971 -1.66857e-07 0)
(0.00499969 -1.80568e-07 0)
(0.00499967 -1.95364e-07 0)
(0.00499965 -2.11319e-07 0)
(0.00499963 -2.28515e-07 0)
(0.00499961 -2.47035e-07 0)
(0.00499958 -2.66967e-07 0)
(0.00499956 -2.88404e-07 0)
(0.00499953 -3.11444e-07 0)
(0.00499951 -3.36189e-07 0)
(0.00499948 -3.62744e-07 0)
(0.00499945 -3.9122e-07 0)
(0.00499942 -4.21731e-07 0)
(0.00499939 -4.54394e-07 0)
(0.00499936 -4.8933e-07 0)
(0.00499933 -5.26661e-07 0)
(0.00499929 -5.66508e-07 0)
(0.00499926 -6.08995e-07 0)
(0.00499922 -6.5424e-07 0)
(0.00499918 -7.02355e-07 0)
(0.00499914 -7.53443e-07 0)
(0.0049991 -8.07595e-07 0)
(0.00499906 -8.6488e-07 0)
(0.00499902 -9.2534e-07 0)
(0.00499897 -9.88982e-07 0)
(0.00499893 -1.05576e-06 0)
(0.00499888 -1.12558e-06 0)
(0.00499884 -1.19824e-06 0)
(0.00499879 -1.27346e-06 0)
(0.00499874 -1.3508e-06 0)
(0.0049987 -1.42967e-06 0)
(0.00499865 -1.50924e-06 0)
(0.0049986 -1.58842e-06 0)
(0.00499855 -1.66575e-06 0)
(0.0049985 -1.73935e-06 0)
(0.00499845 -1.80675e-06 0)
(0.00499841 -1.86477e-06 0)
(0.00499835 -1.90939e-06 0)
(0.0049983 -1.93583e-06 0)
(0.005 -1.04969e-10 0)
(0.005 -3.57695e-10 0)
(0.005 -6.34195e-10 0)
(0.005 -9.21922e-10 0)
(0.005 -1.21868e-09 0)
(0.005 -1.52345e-09 0)
(0.005 -1.83527e-09 0)
(0.005 -2.15345e-09 0)
(0.005 -2.47765e-09 0)
(0.005 -2.80782e-09 0)
(0.005 -3.14422e-09 0)
(0.005 -3.48734e-09 0)
(0.005 -3.83791e-09 0)
(0.005 -4.19685e-09 0)
(0.00499999 -4.56524e-09 0)
(0.00499999 -4.94438e-09 0)
(0.00499999 -5.33571e-09 0)
(0.00499999 -5.74087e-09 0)
(0.00499999 -6.16169e-09 0)
(0.00499999 -6.60021e-09 0)
(0.00499999 -7.0587e-09 0)
(0.00499999 -7.53969e-09 0)
(0.00499999 -8.04598e-09 0)
(0.00499998 -8.58066e-09 0)
(0.00499998 -9.14717e-09 0)
(0.00499998 -9.7493e-09 0)
(0.00499998 -1.03912e-08 0)
(0.00499998 -1.10776e-08 0)
(0.00499997 -1.18136e-08 0)
(0.00499997 -1.26046e-08 0)
(0.00499997 -1.3457e-08 0)
(0.00499997 -1.43774e-08 0)
(0.00499996 -1.53733e-08 0)
(0.00499996 -1.64527e-08 0)
(0.00499996 -1.76246e-08 0)
(0.00499995 -1.88985e-08 0)
(0.00499995 -2.02851e-08 0)
(0.00499994 -2.17957e-08 0)
(0.00499994 -2.34429e-08 0)
(0.00499994 -2.52401e-08 0)
(0.00499993 -2.72022e-08 0)
(0.00499992 -2.93449e-08 0)
(0.00499992 -3.16855e-08 0)
(0.00499991 -3.42425e-08 0)
(0.00499991 -3.70362e-08 0)
(0.0049999 -4.0088e-08 0)
(0.00499989 -4.34214e-08 0)
(0.00499988 -4.70614e-08 0)
(0.00499988 -5.1035e-08 0)
(0.00499987 -5.53713e-08 0)
(0.00499986 -6.01014e-08 0)
(0.00499985 -6.52586e-08 0)
(0.00499984 -7.08786e-08 0)
(0.00499983 -7.69996e-08 0)
(0.00499982 -8.36626e-08 0)
(0.0049998 -9.09112e-08 0)
(0.00499979 -9.8792e-08 0)
(0.00499978 -1.07355e-07 0)
(0.00499976 -1.16652e-07 0)
(0.00499975 -1.2674e-07 0)
(0.00499973 -1.37679e-07 0)
(0.00499972 -1.49533e-07 0)
(0.0049997 -1.62369e-07 0)
(0.00499968 -1.76258e-07 0)
(0.00499966 -1.91277e-07 0)
(0.00499964 -2.07505e-07 0)
(0.00499962 -2.25026e-07 0)
(0.0049996 -2.43931e-07 0)
(0.00499957 -2.64313e-07 0)
(0.00499955 -2.8627e-07 0)
(0.00499953 -3.09905e-07 0)
(0.0049995 -3.35328e-07 0)
(0.00499947 -3.6265e-07 0)
(0.00499944 -3.91987e-07 0)
(0.00499941 -4.23461e-07 0)
(0.00499938 -4.57196e-07 0)
(0.00499935 -4.93317e-07 0)
(0.00499932 -5.31951e-07 0)
(0.00499928 -5.73226e-07 0)
(0.00499925 -6.17267e-07 0)