/*--------------------------------*- C++ -*----------------------------------*\
  =========                 |
  \\      /  F ield         | OpenFOAM: The Open Source CFD Toolbox
   \\    /   O peration     | Website:  https://openfoam.org
    \\  /    A nd           | Version:  11
     \\/     M anipulation  |
\*---------------------------------------------------------------------------*/
FoamFile
{
    format      ascii;
    class       volScalarField;
    location    "548";
    object      p;
}
// * * * * * * * * * * * * * * * * * * * * * * * * * * * * * * * * * * * * * //

dimensions      [0 2 -2 0 0 0 0];

internalField   nonuniform List<scalar> 
10000
(
5.7599e-09
5.61589e-09
5.816e-09
6.25433e-09
6.76584e-09
7.3119e-09
7.88925e-09
8.49694e-09
9.1347e-09
9.80344e-09
1.05048e-08
1.12406e-08
1.20128e-08
1.28237e-08
1.36753e-08
1.45699e-08
1.55097e-08
1.6497e-08
1.7534e-08
1.86232e-08
1.97669e-08
2.09675e-08
2.22275e-08
2.35494e-08
2.49357e-08
2.63889e-08
2.79117e-08
2.95066e-08
3.11763e-08
3.29234e-08
3.47506e-08
3.66607e-08
3.86561e-08
4.07397e-08
4.29141e-08
4.51819e-08
4.75457e-08
5.00082e-08
5.25717e-08
5.52387e-08
5.80115e-08
6.08924e-08
6.38835e-08
6.69867e-08
7.02038e-08
7.35363e-08
7.69856e-08
8.05529e-08
8.42389e-08
8.8044e-08
9.19684e-08
9.60118e-08
1.00173e-07
1.04452e-07
1.08845e-07
1.13352e-07
1.17967e-07
1.22688e-07
1.27509e-07
1.32425e-07
1.37428e-07
1.42512e-07
1.47666e-07
1.52879e-07
1.58141e-07
1.63436e-07
1.68748e-07
1.74061e-07
1.79355e-07
1.84606e-07
1.89789e-07
1.94878e-07
1.99842e-07
2.04645e-07
2.09251e-07
2.13619e-07
2.17701e-07
2.21449e-07
2.24808e-07
2.27717e-07
2.30113e-07
2.31923e-07
2.33071e-07
2.33473e-07
2.33037e-07
2.31663e-07
2.29241e-07
2.25646e-07
2.2074e-07
2.14347e-07
2.06205e-07
1.95923e-07
1.83884e-07
1.71312e-07
1.57696e-07
1.40381e-07
1.16789e-07
8.55468e-08
4.43986e-08
1.14887e-09
1.07353e-08
1.01474e-08
9.75813e-09
9.89918e-09
1.02784e-08
1.07755e-08
1.13583e-08
1.20106e-08
1.27218e-08
1.34864e-08
1.4302e-08
1.5168e-08
1.60848e-08
1.70532e-08
1.80749e-08
1.91514e-08
2.02849e-08
2.14774e-08
2.27313e-08
2.40489e-08
2.54329e-08
2.68857e-08
2.84101e-08
3.00087e-08
3.16843e-08
3.34398e-08
3.5278e-08
3.72019e-08
3.92142e-08
4.13181e-08
4.35163e-08
4.5812e-08
4.8208e-08
5.07073e-08
5.33128e-08
5.60273e-08
5.88537e-08
6.17946e-08
6.48528e-08
6.80308e-08
7.1331e-08
7.47556e-08
7.83068e-08
8.19864e-08
8.57961e-08
8.97374e-08
9.38112e-08
9.80184e-08
1.02359e-07
1.06834e-07
1.11442e-07
1.16182e-07
1.21053e-07
1.26052e-07
1.31177e-07
1.36423e-07
1.41786e-07
1.4726e-07
1.52839e-07
1.58515e-07
1.64278e-07
1.70118e-07
1.76023e-07
1.81978e-07
1.87969e-07
1.93977e-07
1.99982e-07
2.05962e-07
2.1189e-07
2.1774e-07
2.2348e-07
2.29074e-07
2.34485e-07
2.39669e-07
2.44579e-07
2.49163e-07
2.53365e-07
2.57122e-07
2.60365e-07
2.63021e-07
2.65007e-07
2.66236e-07
2.66611e-07
2.66027e-07
2.64372e-07
2.61521e-07
2.57337e-07
2.51673e-07
2.44365e-07
2.35228e-07
2.24032e-07
2.10564e-07
1.95161e-07
1.77637e-07
1.55965e-07
1.29381e-07
9.90384e-08
6.13239e-08
6.37747e-09
-3.79578e-08
1.30645e-08
1.22037e-08
1.14189e-08
1.11881e-08
1.12518e-08
1.14788e-08
1.18259e-08
1.22675e-08
1.27858e-08
1.33696e-08
1.40122e-08
1.47097e-08
1.54597e-08
1.62613e-08
1.71141e-08
1.80186e-08
1.89756e-08
1.9986e-08
2.10514e-08
2.21731e-08
2.33529e-08
2.45926e-08
2.58941e-08
2.72595e-08
2.86907e-08
3.019e-08
3.17595e-08
3.34014e-08
3.5118e-08
3.69114e-08
3.87841e-08
4.07382e-08
4.27761e-08
4.48998e-08
4.71117e-08
4.94139e-08
5.18085e-08
5.42975e-08
5.68828e-08
5.95662e-08
6.23495e-08
6.52341e-08
6.82216e-08
7.1313e-08
7.45094e-08
7.78114e-08
8.12196e-08
8.4734e-08
8.83544e-08
9.20803e-08
9.59106e-08
9.98437e-08
1.03878e-07
1.0801e-07
1.12237e-07
1.16554e-07
1.20958e-07
1.25442e-07
1.29999e-07
1.34623e-07
1.39303e-07
1.44029e-07
1.4879e-07
1.53573e-07
1.58362e-07
1.63141e-07
1.67891e-07
1.7259e-07
1.77215e-07
1.8174e-07
1.86134e-07
1.90366e-07
1.944e-07
1.98195e-07
2.01708e-07
2.04891e-07
2.07692e-07
2.10051e-07
2.11907e-07
2.1319e-07
2.13827e-07
2.13736e-07
2.12829e-07
2.11013e-07
2.08185e-07
2.04236e-07
1.99046e-07
1.9249e-07
1.84433e-07
1.74732e-07
1.63236e-07
1.49812e-07
1.34527e-07
1.17266e-07
9.71091e-08
7.30688e-08
4.46289e-08
7.84983e-09
-4.59519e-08
-7.35584e-08
1.50598e-08
1.40903e-08
1.32256e-08
1.28494e-08
1.27555e-08
1.2838e-08
1.30572e-08
1.33865e-08
1.38055e-08
1.43007e-08
1.48631e-08
1.54867e-08
1.61678e-08
1.69039e-08
1.76936e-08
1.85365e-08
1.94325e-08
2.03819e-08
2.13856e-08
2.24446e-08
2.35601e-08
2.47335e-08
2.59662e-08
2.726e-08
2.86165e-08
3.00374e-08
3.15247e-08
3.30802e-08
3.47058e-08
3.64034e-08
3.81749e-08
4.00224e-08
4.19476e-08
4.39525e-08
4.60389e-08
4.82086e-08
5.04633e-08
5.28046e-08
5.52342e-08
5.77534e-08
6.03635e-08
6.30657e-08
6.58609e-08
6.875e-08
7.17333e-08
7.48113e-08
7.79839e-08
8.12508e-08
8.46113e-08
8.80644e-08
9.16084e-08
9.52415e-08
9.89611e-08
1.02764e-07
1.06646e-07
1.10604e-07
1.14631e-07
1.18721e-07
1.22868e-07
1.27062e-07
1.31295e-07
1.35555e-07
1.39831e-07
1.44108e-07
1.48371e-07
1.52603e-07
1.56784e-07
1.60892e-07
1.64903e-07
1.6879e-07
1.72523e-07
1.76069e-07
1.79392e-07
1.8245e-07
1.852e-07
1.87593e-07
1.89575e-07
1.91089e-07
1.92071e-07
1.92452e-07
1.92158e-07
1.91108e-07
1.89216e-07
1.8639e-07
1.8253e-07
1.77529e-07
1.71276e-07
1.6365e-07
1.54526e-07
1.43774e-07
1.31253e-07
1.1682e-07
1.00372e-07
8.17104e-08
6.03402e-08
3.57876e-08
7.6898e-09
-2.82669e-08
-8.17427e-08
-9.87616e-08
1.6738e-08
1.57705e-08
1.49181e-08
1.44855e-08
1.43082e-08
1.43053e-08
1.44447e-08
1.47017e-08
1.50565e-08
1.5495e-08
1.60073e-08
1.65864e-08
1.72275e-08
1.79273e-08
1.86838e-08
1.94956e-08
2.03623e-08
2.12836e-08
2.226e-08
2.32921e-08
2.43806e-08
2.55266e-08
2.67314e-08
2.79963e-08
2.93228e-08
3.07123e-08
3.21664e-08
3.36867e-08
3.5275e-08
3.69329e-08
3.86621e-08
4.04642e-08
4.23408e-08
4.42938e-08
4.63245e-08
4.84345e-08
5.06253e-08
5.28982e-08
5.52545e-08
5.76952e-08
6.02214e-08
6.28339e-08
6.55332e-08
6.83198e-08
7.11939e-08
7.41553e-08
7.72038e-08
8.03384e-08
8.35582e-08
8.68616e-08
9.02467e-08
9.37109e-08
9.72513e-08
1.00864e-07
1.04545e-07
1.08289e-07
1.1209e-07
1.15942e-07
1.19836e-07
1.23763e-07
1.27714e-07
1.31676e-07
1.35638e-07
1.39584e-07
1.43498e-07
1.47362e-07
1.51155e-07
1.54854e-07
1.58435e-07
1.6187e-07
1.65126e-07
1.68171e-07
1.70967e-07
1.73471e-07
1.75638e-07
1.77418e-07
1.78757e-07
1.79596e-07
1.79869e-07
1.79507e-07
1.78436e-07
1.76573e-07
1.73832e-07
1.70122e-07
1.65342e-07
1.59391e-07
1.52157e-07
1.43525e-07
1.33374e-07
1.21578e-07
1.08001e-07
9.2499e-08
7.49229e-08
5.50566e-08
3.25721e-08
7.33865e-09
-2.07612e-08
-5.64775e-08
-1.09977e-07
-1.19896e-07
1.81106e-08
1.71898e-08
1.63693e-08
1.59107e-08
1.568e-08
1.56154e-08
1.56917e-08
1.58877e-08
1.61853e-08
1.65708e-08
1.70341e-08
1.7568e-08
1.8167e-08
1.88274e-08
1.95465e-08
2.03225e-08
2.11544e-08
2.20416e-08
2.29841e-08
2.39821e-08
2.50361e-08
2.61468e-08
2.73153e-08
2.85424e-08
2.98295e-08
3.11778e-08
3.25886e-08
3.40632e-08
3.56031e-08
3.72097e-08
3.88844e-08
4.06286e-08
4.24438e-08
4.43313e-08
4.62924e-08
4.83283e-08
5.04402e-08
5.26292e-08
5.48961e-08
5.72419e-08
5.96671e-08
6.21722e-08
6.47576e-08
6.74232e-08
7.01689e-08
7.29943e-08
7.58984e-08
7.88804e-08
8.19385e-08
8.50709e-08
8.82752e-08
9.15484e-08
9.48871e-08
9.82872e-08
1.01744e-07
1.05251e-07
1.08803e-07
1.12393e-07
1.16011e-07
1.19648e-07
1.23294e-07
1.26937e-07
1.30563e-07
1.34156e-07
1.37701e-07
1.41177e-07
1.44564e-07
1.47839e-07
1.50976e-07
1.53945e-07
1.56716e-07
1.59253e-07
1.61518e-07
1.63469e-07
1.65059e-07
1.66238e-07
1.66951e-07
1.67138e-07
1.66734e-07
1.65671e-07
1.63872e-07
1.61257e-07
1.57742e-07
1.53235e-07
1.4764e-07
1.40858e-07
1.32782e-07
1.23302e-07
1.12305e-07
9.96712e-08
8.5276e-08
6.8987e-08
5.06615e-08
3.01108e-08
7.12071e-09
-1.8252e-08
-4.60028e-08
-8.11629e-08
-1.33478e-07
-1.38082e-07
1.92737e-08
1.84081e-08
1.76271e-08
1.71609e-08
1.6898e-08
1.67898e-08
1.68173e-08
1.69629e-08
1.72107e-08
1.75482e-08
1.79657e-08
1.84559e-08
1.90131e-08
1.96334e-08
2.03136e-08
2.10517e-08
2.18461e-08
2.26961e-08
2.36012e-08
2.45613e-08
2.55767e-08
2.66477e-08
2.77752e-08
2.89597e-08
3.02023e-08
3.1504e-08
3.28658e-08
3.42888e-08
3.57743e-08
3.73233e-08
3.89371e-08
4.06168e-08
4.23636e-08
4.41786e-08
4.60627e-08
4.8017e-08
5.00423e-08
5.21394e-08
5.4309e-08
5.65515e-08
5.88673e-08
6.12565e-08
6.37192e-08
6.6255e-08
6.88634e-08
7.15436e-08
7.42944e-08
7.71144e-08
8.00016e-08
8.29538e-08
8.59681e-08
8.90412e-08
9.21693e-08
9.53477e-08
9.85712e-08
1.01834e-07
1.05129e-07
1.08448e-07
1.11783e-07
1.15124e-07
1.18459e-07
1.21776e-07
1.25061e-07
1.28298e-07
1.3147e-07
1.34558e-07
1.3754e-07
1.40392e-07
1.43087e-07
1.45597e-07
1.4789e-07
1.4993e-07
1.51679e-07
1.53093e-07
1.54128e-07
1.54731e-07
1.54848e-07
1.54421e-07
1.53383e-07
1.51667e-07
1.49199e-07
1.45899e-07
1.41685e-07
1.36468e-07
1.30156e-07
1.22653e-07
1.13859e-07
1.03672e-07
9.19841e-08
7.86884e-08
6.36731e-08
4.68241e-08
2.80208e-08
7.11639e-09
-1.60178e-08
-4.12049e-08
-6.83635e-08
-1.02657e-07
-1.53023e-07
-1.53222e-07
2.02884e-08
1.94767e-08
1.87368e-08
1.8275e-08
1.79947e-08
1.78572e-08
1.78483e-08
1.79538e-08
1.81602e-08
1.8456e-08
1.88325e-08
1.92825e-08
1.98006e-08
2.03826e-08
2.10251e-08
2.17258e-08
2.24831e-08
2.32958e-08
2.41632e-08
2.50849e-08
2.6061e-08
2.70916e-08
2.8177e-08
2.9318e-08
3.0515e-08
3.1769e-08
3.30807e-08
3.44509e-08
3.58808e-08
3.73711e-08
3.89228e-08
4.05368e-08
4.22141e-08
4.39554e-08
4.57615e-08
4.76332e-08
4.9571e-08
5.15755e-08
5.36469e-08
5.57856e-08
5.79916e-08
6.02646e-08
6.26045e-08
6.50105e-08
6.74818e-08
7.00173e-08
7.26154e-08
7.52744e-08
7.7992e-08
8.07655e-08
8.35918e-08
8.64671e-08
8.93871e-08
9.2347e-08
9.53412e-08
9.83631e-08
1.01406e-07
1.0446e-07
1.07518e-07
1.10569e-07
1.13601e-07
1.16601e-07
1.19555e-07
1.22447e-07
1.25259e-07
1.27972e-07
1.30563e-07
1.33008e-07
1.35281e-07
1.37352e-07
1.39189e-07
1.40757e-07
1.42017e-07
1.42926e-07
1.43438e-07
1.43503e-07
1.43067e-07
1.4207e-07
1.40449e-07
1.38137e-07
1.35062e-07
1.31146e-07
1.26308e-07
1.20465e-07
1.13528e-07
1.05405e-07
9.6004e-08
8.52283e-08
7.29819e-08
5.91679e-08
4.369e-08
2.64539e-08
7.36427e-09
-1.36865e-08
-3.67637e-08
-6.16084e-08
-8.81003e-08
-1.21547e-07
-1.70127e-07
-1.66623e-07
2.11864e-08
2.04244e-08
1.97239e-08
1.92726e-08
1.89846e-08
1.8828e-08
1.87922e-08
1.8866e-08
1.90377e-08
1.92976e-08
1.96375e-08
2.00509e-08
2.05324e-08
2.10779e-08
2.16841e-08
2.23485e-08
2.30691e-08
2.38447e-08
2.46744e-08
2.55576e-08
2.64939e-08
2.74835e-08
2.85265e-08
2.96231e-08
3.07739e-08
3.19793e-08
3.32401e-08
3.45568e-08
3.59302e-08
3.73609e-08
3.88498e-08
4.03974e-08
4.20044e-08
4.36714e-08
4.5399e-08
4.71875e-08
4.90374e-08
5.09489e-08
5.29221e-08
5.49568e-08
5.7053e-08
5.92101e-08
6.14275e-08
6.37043e-08
6.60393e-08
6.84311e-08
7.08779e-08
7.33775e-08
7.59274e-08
7.85245e-08
8.11653e-08
8.38458e-08
8.65614e-08
8.93067e-08
9.20759e-08
9.48622e-08
9.76579e-08
1.00454e-07
1.03242e-07
1.06011e-07
1.08749e-07
1.11441e-07
1.14075e-07
1.16634e-07
1.19098e-07
1.2145e-07
1.23665e-07
1.25721e-07
1.2759e-07
1.29243e-07
1.30648e-07
1.31769e-07
1.32568e-07
1.33002e-07
1.33026e-07
1.3259e-07
1.31641e-07
1.3012e-07
1.27966e-07
1.25112e-07
1.21488e-07
1.17021e-07
1.11632e-07
1.05241e-07
9.77626e-08
8.91125e-08
7.92032e-08
6.79473e-08
5.5258e-08
4.10505e-08
2.52438e-08
7.76256e-09
-1.14639e-08
-3.25109e-08
-5.53974e-08
-7.9807e-08
-1.05608e-07
-1.38328e-07
-1.85676e-07
-1.78969e-07
2.19873e-08
2.127e-08
2.06062e-08
2.01682e-08
1.98784e-08
1.97095e-08
1.96539e-08
1.97024e-08
1.98452e-08
2.00738e-08
2.0381e-08
2.07608e-08
2.12081e-08
2.1719e-08
2.22901e-08
2.29189e-08
2.36035e-08
2.43422e-08
2.51342e-08
2.59786e-08
2.68749e-08
2.7823e-08
2.88229e-08
2.98745e-08
3.09783e-08
3.21345e-08
3.33435e-08
3.46058e-08
3.59219e-08
3.72923e-08
3.87174e-08
4.01978e-08
4.17338e-08
4.33259e-08
4.49742e-08
4.66791e-08
4.84406e-08
5.02587e-08
5.21333e-08
5.4064e-08
5.60503e-08
5.80916e-08
6.01869e-08
6.2335e-08
6.45345e-08
6.67836e-08
6.90803e-08
7.1422e-08
7.3806e-08
7.62288e-08
7.86866e-08
8.11752e-08
8.36896e-08
8.62243e-08
8.87728e-08
9.13282e-08
9.38826e-08
9.64271e-08
9.89519e-08
1.01446e-07
1.03897e-07
1.06292e-07
1.08616e-07
1.10852e-07
1.12982e-07
1.14986e-07
1.16842e-07
1.18526e-07
1.2001e-07
1.21265e-07
1.2226e-07
1.22958e-07
1.23323e-07
1.23312e-07
1.22881e-07
1.2198e-07
1.20556e-07
1.18554e-07
1.15913e-07
1.12569e-07
1.08454e-07
1.03496e-07
9.76216e-08
9.07533e-08
8.28121e-08
7.37179e-08
6.33902e-08
5.17496e-08
3.87189e-08
2.42251e-08
8.20143e-09
-9.40946e-09
-2.86565e-08
-4.95878e-08
-7.21865e-08
-9.60826e-08
-1.2111e-07
-1.53038e-07
-1.998e-07
-1.89521e-07
2.27051e-08
2.20276e-08
2.13973e-08
2.09739e-08
2.0686e-08
2.05096e-08
2.04392e-08
2.04673e-08
2.05858e-08
2.07871e-08
2.1065e-08
2.14139e-08
2.18293e-08
2.23072e-08
2.28445e-08
2.34387e-08
2.40878e-08
2.47901e-08
2.55444e-08
2.635e-08
2.72061e-08
2.81124e-08
2.90687e-08
3.0075e-08
3.11312e-08
3.22375e-08
3.33943e-08
3.46016e-08
3.58598e-08
3.71692e-08
3.853e-08
3.99426e-08
4.14071e-08
4.29238e-08
4.44925e-08
4.61134e-08
4.77863e-08
4.9511e-08
5.1287e-08
5.31138e-08
5.49906e-08
5.69166e-08
5.88904e-08
6.09107e-08
6.29757e-08
6.50835e-08
6.72316e-08
6.94173e-08
7.16375e-08
7.38885e-08
7.61664e-08
7.84664e-08
8.07833e-08
8.31114e-08
8.5444e-08
8.77738e-08
9.00928e-08
9.23917e-08
9.46606e-08
9.68883e-08
9.90624e-08
1.01169e-07
1.03194e-07
1.0512e-07
1.06928e-07
1.08599e-07
1.10111e-07
1.11439e-07
1.12556e-07
1.13434e-07
1.14041e-07
1.14342e-07
1.143e-07
1.13873e-07
1.13018e-07
1.11686e-07
1.09827e-07
1.07385e-07
1.04301e-07
1.00515e-07
9.59606e-08
9.05693e-08
8.42704e-08
7.69909e-08
6.86566e-08
5.91929e-08
4.85259e-08
3.65838e-08
2.32987e-08
8.60815e-09
-7.5414e-09
-2.51916e-08
-4.43726e-08
-6.511e-08
-8.73581e-08
-1.10691e-07
-1.34874e-07
-1.65924e-07
-2.12672e-07
-1.98391e-07
2.33495e-08
2.27077e-08
2.21081e-08
2.16997e-08
2.14158e-08
2.12353e-08
2.11538e-08
2.11654e-08
2.12632e-08
2.14405e-08
2.1692e-08
2.20125e-08
2.23979e-08
2.28445e-08
2.33493e-08
2.39099e-08
2.45241e-08
2.51904e-08
2.59074e-08
2.66743e-08
2.74902e-08
2.83546e-08
2.92672e-08
3.02277e-08
3.12361e-08
3.22922e-08
3.33962e-08
3.45482e-08
3.57481e-08
3.69962e-08
3.82924e-08
3.9637e-08
4.10298e-08
4.24708e-08
4.39599e-08
4.54968e-08
4.70812e-08
4.87126e-08
5.03904e-08
5.21138e-08
5.38818e-08
5.56932e-08
5.75466e-08
5.94403e-08
6.13723e-08
6.33404e-08
6.53419e-08
6.73739e-08
6.94329e-08
7.15151e-08
7.36163e-08
7.57314e-08
7.78551e-08
7.99813e-08
8.21032e-08
8.42132e-08
8.63031e-08
8.83635e-08
9.03841e-08
9.23538e-08
9.426e-08
9.60889e-08
9.78254e-08
9.94528e-08
1.00953e-07
1.02305e-07
1.03489e-07
1.04478e-07
1.05248e-07
1.0577e-07
1.06011e-07
1.05939e-07
1.05516e-07
1.04701e-07
1.03453e-07
1.01724e-07
9.9465e-08
9.66221e-08
9.31392e-08
8.89565e-08
8.40115e-08
7.82389e-08
7.15715e-08
6.39402e-08
5.52757e-08
4.55087e-08
3.45716e-08
2.23997e-08
8.93328e-09
-5.88024e-09
-2.20833e-08
-3.97045e-08
-5.87584e-08
-7.92541e-08
-1.01124e-07
-1.23897e-07
-1.47273e-07
-1.77557e-07
-2.24716e-07
-2.06859e-07
2.39282e-08
2.33187e-08
2.27473e-08
2.23536e-08
2.20752e-08
2.18927e-08
2.18029e-08
2.1801e-08
2.18809e-08
2.20371e-08
2.22646e-08
2.25588e-08
2.29161e-08
2.33329e-08
2.38065e-08
2.43343e-08
2.49145e-08
2.55453e-08
2.62255e-08
2.69539e-08
2.77297e-08
2.85522e-08
2.9421e-08
3.03358e-08
3.12961e-08
3.23019e-08
3.3353e-08
3.44494e-08
3.55909e-08
3.67775e-08
3.80091e-08
3.92855e-08
4.06066e-08
4.19721e-08
4.33816e-08
4.48348e-08
4.63311e-08
4.78698e-08
4.945e-08
5.10707e-08
5.27308e-08
5.44288e-08
5.61631e-08
5.79317e-08
5.97325e-08
6.15629e-08
6.34202e-08
6.5301e-08
6.72018e-08
6.91186e-08
7.10467e-08
7.2981e-08
7.4916e-08
7.68453e-08
7.8762e-08
8.06583e-08
8.25258e-08
8.43549e-08
8.61354e-08
8.78559e-08
8.95037e-08
9.1065e-08
9.25248e-08
9.38664e-08
9.50716e-08
9.61204e-08
9.69911e-08
9.76599e-08
9.81009e-08
9.82857e-08
9.81837e-08
9.77614e-08
9.69828e-08
9.58088e-08
9.41975e-08
9.21037e-08
8.94791e-08
8.62725e-08
8.24295e-08
7.78927e-08
7.26025e-08
6.64967e-08
5.95114e-08
5.1582e-08
4.26433e-08
3.26312e-08
2.14839e-08
9.14313e-09
-4.44342e-09
-1.93201e-08
-3.55202e-08
-5.30614e-08
-7.19471e-08
-9.21749e-08
-1.13664e-07
-1.35907e-07
-1.58558e-07
-1.88249e-07
-2.36152e-07
-2.15385e-07
2.44474e-08
2.38673e-08
2.33219e-08
2.29426e-08
2.26703e-08
2.24874e-08
2.23914e-08
2.23782e-08
2.24426e-08
2.25798e-08
2.27854e-08
2.30553e-08
2.33861e-08
2.37745e-08
2.4218e-08
2.47141e-08
2.52611e-08
2.5857e-08
2.65007e-08
2.7191e-08
2.7927e-08
2.87078e-08
2.9533e-08
3.04019e-08
3.13143e-08
3.22698e-08
3.3268e-08
3.43088e-08
3.53919e-08
3.65171e-08
3.76841e-08
3.88925e-08
4.01421e-08
4.14324e-08
4.27628e-08
4.41328e-08
4.55415e-08
4.69882e-08
4.84717e-08
4.99908e-08
5.15442e-08
5.31302e-08
5.47469e-08
5.63922e-08
5.80638e-08
5.97589e-08
6.14745e-08
6.32072e-08
6.4953e-08
6.67078e-08
6.84669e-08
7.02248e-08
7.19759e-08
7.37137e-08
7.5431e-08
7.71199e-08
7.87719e-08
8.03775e-08
8.19261e-08
8.34062e-08
8.48055e-08
8.61099e-08
8.73045e-08
8.83727e-08
8.92965e-08
9.00561e-08
9.06302e-08
9.09951e-08
9.11255e-08
9.09937e-08
9.05695e-08
8.98204e-08
8.87112e-08
8.72041e-08
8.52582e-08
8.28299e-08
7.98727e-08
7.63371e-08
7.2171e-08
6.73195e-08
6.17256e-08
5.53302e-08
4.80731e-08
3.98932e-08
3.07298e-08
2.05235e-08
9.21753e-09
-3.24046e-09
-1.68966e-08
-3.17883e-08
-4.79413e-08
-6.53654e-08
-8.40555e-08
-1.04002e-07
-1.25117e-07
-1.46866e-07
-1.68866e-07
-1.98071e-07
-2.46818e-07
-2.23529e-07
2.49121e-08
2.4359e-08
2.38378e-08
2.34724e-08
2.32066e-08
2.30243e-08
2.29236e-08
2.29009e-08
2.29517e-08
2.30718e-08
2.32572e-08
2.35044e-08
2.38101e-08
2.41715e-08
2.4586e-08
2.50514e-08
2.55659e-08
2.61277e-08
2.67355e-08
2.73881e-08
2.80846e-08
2.8824e-08
2.96058e-08
3.04292e-08
3.12937e-08
3.2199e-08
3.31445e-08
3.41299e-08
3.51548e-08
3.62188e-08
3.73215e-08
3.84623e-08
3.96408e-08
4.08564e-08
4.21083e-08
4.33957e-08
4.47178e-08
4.60733e-08
4.74612e-08
4.888e-08
5.03281e-08
5.18037e-08
5.33047e-08
5.48289e-08
5.63736e-08
5.79359e-08
5.95127e-08
6.11003e-08
6.26947e-08
6.42914e-08
6.58856e-08
6.74718e-08
6.90441e-08
7.05958e-08
7.21197e-08
7.36079e-08
7.50516e-08
7.64413e-08
7.77664e-08
7.90156e-08
8.01761e-08
8.12343e-08
8.21753e-08
8.29826e-08
8.36385e-08
8.41235e-08
8.44164e-08
8.44943e-08
8.43322e-08
8.39031e-08
8.31775e-08
8.21239e-08
8.0708e-08
7.8893e-08
7.66397e-08
7.39058e-08
7.06466e-08
6.68146e-08
6.23597e-08
5.72296e-08
5.137e-08
4.47248e-08
3.7237e-08
2.88492e-08
1.95046e-08
9.14803e-09
-2.27251e-09
-1.48045e-08
-2.84886e-08
-4.33568e-08
-5.94288e-08
-7.67083e-08
-9.51846e-08
-1.14844e-07
-1.35594e-07
-1.56879e-07
-1.78285e-07
-2.07062e-07
-2.56618e-07
-2.31062e-07
2.53268e-08
2.47987e-08
2.43001e-08
2.39479e-08
2.36889e-08
2.35079e-08
2.34035e-08
2.33726e-08
2.34113e-08
2.35159e-08
2.36827e-08
2.39086e-08
2.41906e-08
2.45261e-08
2.49127e-08
2.53483e-08
2.58311e-08
2.63595e-08
2.6932e-08
2.75475e-08
2.82049e-08
2.89033e-08
2.9642e-08
3.04202e-08
3.12372e-08
3.20926e-08
3.29857e-08
3.39161e-08
3.48831e-08
3.58864e-08
3.69252e-08
3.7999e-08
3.9107e-08
4.02485e-08
4.14227e-08
4.26285e-08
4.38648e-08
4.51305e-08
4.64241e-08
4.7744e-08
4.90885e-08
5.04555e-08
5.18429e-08
5.32481e-08
5.46685e-08
5.61009e-08
5.75419e-08
5.89878e-08
6.04344e-08
6.18772e-08
6.3311e-08
6.47303e-08
6.6129e-08
6.75004e-08
6.88373e-08
7.01315e-08
7.13742e-08
7.25559e-08
7.36662e-08
7.46934e-08
7.56252e-08
7.6448e-08
7.71469e-08
7.77058e-08
7.8107e-08
7.83317e-08
7.83589e-08
7.81662e-08
7.77292e-08
7.70215e-08
7.60147e-08
7.46778e-08
7.2978e-08
7.08795e-08
6.83444e-08
6.53321e-08
6.17995e-08
5.77012e-08
5.29893e-08
4.76138e-08
4.15229e-08
3.46636e-08
2.69818e-08
1.84237e-08
8.93585e-09
-1.53287e-09
-1.30305e-08
-2.56002e-08
-3.92783e-08
-5.40921e-08
-7.00568e-08
-8.71718e-08
-1.05422e-07
-1.24792e-07
-1.45187e-07
-1.66033e-07
-1.86889e-07
-2.15271e-07
-2.65548e-07
-2.37937e-07
2.56952e-08
2.51905e-08
2.47131e-08
2.43737e-08
2.41215e-08
2.39423e-08
2.3835e-08
2.3797e-08
2.38248e-08
2.3915e-08
2.40645e-08
2.42704e-08
2.45299e-08
2.48406e-08
2.52003e-08
2.56071e-08
2.6059e-08
2.65546e-08
2.70925e-08
2.76715e-08
2.82904e-08
2.89483e-08
2.96443e-08
3.03777e-08
3.11477e-08
3.19536e-08
3.27948e-08
3.36706e-08
3.45804e-08
3.55234e-08
3.6499e-08
3.75064e-08
3.85447e-08
3.96131e-08
4.07105e-08
4.18357e-08
4.29876e-08
4.41647e-08
4.53655e-08
4.65882e-08
4.78309e-08
4.90914e-08
5.03674e-08
5.16563e-08
5.2955e-08
5.42605e-08
5.5569e-08
5.68769e-08
5.81796e-08
5.94726e-08
6.07506e-08
6.2008e-08
6.32387e-08
6.44357e-08
6.55918e-08
6.66989e-08
6.77481e-08
6.87299e-08
6.96338e-08
7.04485e-08
7.11616e-08
7.17595e-08
7.22278e-08
7.25505e-08
7.27104e-08
7.26887e-08
7.24651e-08
7.20178e-08
7.1323e-08
7.0355e-08
6.90861e-08
6.74866e-08
6.55244e-08
6.31653e-08
6.03726e-08
5.71073e-08
5.33281e-08
4.89915e-08
4.40516e-08
3.84608e-08
3.217e-08
2.51285e-08
1.72855e-08
8.58998e-09
-1.008e-09
-1.15563e-08
-2.30993e-08
-3.56767e-08
-4.9321e-08
-6.40559e-08
-7.98932e-08
-9.68288e-08
-1.14845e-07
-1.33925e-07
-1.53974e-07
-1.74401e-07
-1.94741e-07
-2.22745e-07
-2.73635e-07
-2.44162e-07
2.60209e-08
2.55382e-08
2.50808e-08
2.47536e-08
2.4508e-08
2.43309e-08
2.42214e-08
2.41771e-08
2.4195e-08
2.4272e-08
2.44053e-08
2.45922e-08
2.48303e-08
2.51173e-08
2.54511e-08
2.58298e-08
2.62517e-08
2.67154e-08
2.72193e-08
2.77624e-08
2.83434e-08
2.89614e-08
2.96154e-08
3.03045e-08
3.1028e-08
3.1785e-08
3.25748e-08
3.33967e-08
3.42498e-08
3.51334e-08
3.60465e-08
3.69884e-08
3.79579e-08
3.89542e-08
3.99759e-08
4.10219e-08
4.20907e-08
4.31808e-08
4.42904e-08
4.54178e-08
4.65607e-08
4.7717e-08
4.88841e-08
5.00592e-08
5.12392e-08
5.24209e-08
5.36005e-08
5.47739e-08
5.59369e-08
5.70846e-08
5.82116e-08
5.93123e-08
6.03804e-08
6.14091e-08
6.23909e-08
6.33178e-08
6.4181e-08
6.4971e-08
6.56772e-08
6.62886e-08
6.67928e-08
6.71766e-08
6.74256e-08
6.75242e-08
6.74555e-08
6.72012e-08
6.67416e-08
6.60552e-08
6.51189e-08
6.3908e-08
6.23956e-08
6.05528e-08
5.83489e-08
5.57507e-08
5.2723e-08
4.92285e-08
4.52275e-08
4.06782e-08
3.5537e-08
2.97584e-08
2.32956e-08
1.61006e-08
8.1252e-09
-6.78787e-10
-1.03584e-08
-2.09583e-08
-3.25201e-08
-4.50802e-08
-5.86681e-08
-7.33048e-08
-8.89992e-08
-1.05745e-07
-1.23522e-07
-1.42314e-07
-1.62025e-07
-1.82049e-07
-2.019e-07
-2.29535e-07
-2.8092e-07
-2.49758e-07
2.63071e-08
2.5845e-08
2.54066e-08
2.50911e-08
2.48521e-08
2.46773e-08
2.4566e-08
2.45161e-08
2.45249e-08
2.45896e-08
2.47076e-08
2.48766e-08
2.50942e-08
2.53584e-08
2.56671e-08
2.60187e-08
2.64115e-08
2.68439e-08
2.73147e-08
2.78226e-08
2.83664e-08
2.89451e-08
2.95577e-08
3.02032e-08
3.08809e-08
3.15897e-08
3.23289e-08
3.30975e-08
3.38948e-08
3.47197e-08
3.55713e-08
3.64486e-08
3.73505e-08
3.82758e-08
3.92232e-08
4.01913e-08
4.11786e-08
4.21833e-08
4.32037e-08
4.42377e-08
4.52831e-08
4.63375e-08
4.73983e-08
4.84625e-08
4.95269e-08
5.05881e-08
5.16423e-08
5.26853e-08
5.37127e-08
5.47196e-08
5.57005e-08
5.66498e-08
5.75611e-08
5.84275e-08
5.92416e-08
5.99954e-08
6.06801e-08
6.12862e-08
6.18034e-08
6.22206e-08
6.25258e-08
6.27059e-08
6.27467e-08
6.26331e-08
6.23484e-08
6.18749e-08
6.11932e-08
6.02827e-08
5.91209e-08
5.76838e-08
5.59453e-08
5.38778e-08
5.14515e-08
4.86346e-08
4.53932e-08
4.16914e-08
3.74913e-08
3.27529e-08
2.74346e-08
2.1493e-08
1.48834e-08
7.56035e-09
-5.22035e-10
-9.40931e-09
-1.91459e-08
-2.97738e-08
-4.1332e-08
-5.38543e-08
-6.73678e-08
-8.1891e-08
-9.74309e-08
-1.13979e-07
-1.31515e-07
-1.50021e-07
-1.69401e-07
-1.89036e-07
-2.0842e-07
-2.3569e-07
-2.87457e-07
-2.54762e-07
2.65566e-08
2.61142e-08
2.56938e-08
2.53894e-08
2.51569e-08
2.49846e-08
2.48718e-08
2.48168e-08
2.48172e-08
2.48704e-08
2.4974e-08
2.51259e-08
2.53239e-08
2.55662e-08
2.58508e-08
2.61761e-08
2.65405e-08
2.69426e-08
2.73809e-08
2.78544e-08
2.83617e-08
2.89018e-08
2.94738e-08
3.00765e-08
3.0709e-08
3.13704e-08
3.20598e-08
3.27761e-08
3.35184e-08
3.42857e-08
3.50768e-08
3.58907e-08
3.67261e-08
3.75818e-08
3.84563e-08
3.93481e-08
4.02555e-08
4.11767e-08
4.21098e-08
4.30527e-08
4.40029e-08
4.4958e-08
4.59151e-08
4.68714e-08
4.78234e-08
4.87676e-08
4.97001e-08
5.06168e-08
5.15129e-08
5.23837e-08
5.32235e-08
5.40267e-08
5.47869e-08
5.54972e-08
5.61503e-08
5.6738e-08
5.72517e-08
5.7682e-08
5.80187e-08
5.82509e-08
5.83667e-08
5.83533e-08
5.81969e-08
5.78825e-08
5.73941e-08
5.67143e-08
5.58243e-08
5.47041e-08
5.33319e-08
5.16844e-08
4.97367e-08
4.74619e-08
4.48314e-08
4.18146e-08
3.83791e-08
3.44905e-08
3.01123e-08
2.52064e-08
1.9733e-08
1.36506e-08
6.91673e-09
-5.11932e-10
-8.67902e-09
-1.76278e-08
-2.74002e-08
-3.80362e-08
-4.95723e-08
-6.20401e-08
-7.54647e-08
-8.98628e-08
-1.0524e-07
-1.21586e-07
-1.38879e-07
-1.57102e-07
-1.76158e-07
-1.95417e-07
-2.14355e-07
-2.41265e-07
-2.93304e-07
-2.59217e-07
2.67723e-08
2.63485e-08
2.59453e-08
2.56516e-08
2.54254e-08
2.52555e-08
2.51415e-08
2.5082e-08
2.50745e-08
2.51168e-08
2.52068e-08
2.53424e-08
2.55217e-08
2.57429e-08
2.60042e-08
2.63041e-08
2.66409e-08
2.70134e-08
2.74202e-08
2.786e-08
2.83316e-08
2.8834e-08
2.93661e-08
2.99268e-08
3.05151e-08
3.113e-08
3.17704e-08
3.24354e-08
3.31237e-08
3.38344e-08
3.45663e-08
3.5318e-08
3.60884e-08
3.68759e-08
3.7679e-08
3.84962e-08
3.93255e-08
4.01653e-08
4.10132e-08
4.18672e-08
4.27247e-08
4.35831e-08
4.44396e-08
4.52909e-08
4.61339e-08
4.69647e-08
4.77794e-08
4.85738e-08
4.93431e-08
5.00825e-08
5.07864e-08
5.14489e-08
5.20638e-08
5.26242e-08
5.31227e-08
5.35514e-08
5.39016e-08
5.4164e-08
5.43287e-08
5.43848e-08
5.43207e-08
5.41239e-08
5.37809e-08
5.32771e-08
5.25968e-08
5.17231e-08
5.0638e-08
4.93218e-08
4.77536e-08
4.59109e-08
4.37697e-08
4.1304e-08
3.84865e-08
3.52876e-08
3.16763e-08
2.76195e-08
2.30825e-08
1.80286e-08
1.24199e-08
6.21678e-09
-6.21367e-10
-8.13585e-09
-1.63682e-08
-2.53597e-08
-3.51501e-08
-4.57774e-08
-5.7276e-08
-6.96759e-08
-8.30003e-08
-9.72646e-08
-1.12473e-07
-1.28614e-07
-1.45666e-07
-1.6361e-07
-1.82349e-07
-2.01245e-07
-2.19756e-07
-2.46309e-07
-2.98519e-07
-2.63169e-07
2.69566e-08
2.65506e-08
2.61638e-08
2.58804e-08
2.56603e-08
2.54929e-08
2.5378e-08
2.53141e-08
2.52993e-08
2.53314e-08
2.54084e-08
2.55285e-08
2.56898e-08
2.58907e-08
2.61296e-08
2.64048e-08
2.6715e-08
2.70587e-08
2.74347e-08
2.78417e-08
2.82785e-08
2.8744e-08
2.92371e-08
2.97567e-08
3.03017e-08
3.0871e-08
3.14636e-08
3.20782e-08
3.27138e-08
3.33692e-08
3.4043e-08
3.47339e-08
3.54406e-08
3.61615e-08
3.6895e-08
3.76393e-08
3.83926e-08
3.91529e-08
3.9918e-08
4.06855e-08
4.14528e-08
4.22174e-08
4.29761e-08
4.37259e-08
4.44631e-08
4.51842e-08
4.58851e-08
4.65614e-08
4.72085e-08
4.78212e-08
4.83943e-08
4.89216e-08
4.93971e-08
4.98138e-08
5.01643e-08
5.04409e-08
5.0635e-08
5.07374e-08
5.07384e-08
5.06272e-08
5.03926e-08
5.00222e-08
4.95029e-08
4.88205e-08
4.79598e-08
4.69043e-08
4.56365e-08
4.41376e-08
4.23872e-08
4.03637e-08
3.80438e-08
3.54027e-08
3.2414e-08
2.90494e-08
2.52792e-08
2.10715e-08
1.63932e-08
1.12091e-08
5.48299e-09
-8.23057e-10
-7.74782e-09
-1.53308e-08
-2.36116e-08
-3.26296e-08
-4.24229e-08
-5.30276e-08
-6.44764e-08
-7.67977e-08
-9.00134e-08
-1.04138e-07
-1.19173e-07
-1.35109e-07
-1.51921e-07
-1.69592e-07
-1.88023e-07
-2.06567e-07
-2.2467e-07
-2.50874e-07
-3.03164e-07
-2.66665e-07
2.71121e-08
2.6723e-08
2.63519e-08
2.60784e-08
2.58642e-08
2.56993e-08
2.55835e-08
2.55158e-08
2.5494e-08
2.55164e-08
2.5581e-08
2.56863e-08
2.58304e-08
2.60118e-08
2.6229e-08
2.64804e-08
2.67647e-08
2.70805e-08
2.74266e-08
2.78017e-08
2.82046e-08
2.86341e-08
2.90892e-08
2.95686e-08
3.00713e-08
3.05961e-08
3.11419e-08
3.17074e-08
3.22915e-08
3.28927e-08
3.35099e-08
3.41416e-08
3.47862e-08
3.54422e-08
3.61078e-08
3.67812e-08
3.74605e-08
3.81435e-08
3.8828e-08
3.95116e-08
4.01915e-08
4.08651e-08
4.15292e-08
4.21806e-08
4.28158e-08
4.34309e-08
4.40219e-08
4.45845e-08
4.51138e-08
4.56048e-08
4.60521e-08
4.64498e-08
4.67916e-08
4.70707e-08
4.72799e-08
4.74114e-08
4.74567e-08
4.74069e-08
4.72522e-08
4.69824e-08
4.65863e-08
4.60519e-08
4.53664e-08
4.45159e-08
4.34858e-08
4.226e-08
4.08217e-08
3.91525e-08
3.72329e-08
3.50421e-08
3.25575e-08
2.97555e-08
2.66105e-08
2.30954e-08
1.91817e-08
1.4839e-08
1.00353e-08
4.73711e-09
-1.09044e-09
-7.48354e-09
-1.44793e-08
-2.21156e-08
-3.04304e-08
-3.94614e-08
-4.92449e-08
-5.98155e-08
-7.12046e-08
-8.34391e-08
-9.654e-08
-1.1052e-07
-1.25382e-07
-1.41113e-07
-1.57689e-07
-1.75092e-07
-1.93225e-07
-2.1143e-07
-2.29144e-07
-2.55007e-07
-3.07295e-07
-2.69752e-07
2.7241e-08
2.68681e-08
2.6512e-08
2.6248e-08
2.60395e-08
2.5877e-08
2.57606e-08
2.56892e-08
2.56609e-08
2.5674e-08
2.57269e-08
2.5818e-08
2.59456e-08
2.61082e-08
2.63045e-08
2.65329e-08
2.67922e-08
2.7081e-08
2.7398e-08
2.77421e-08
2.8112e-08
2.85066e-08
2.89246e-08
2.93649e-08
2.98264e-08
3.03079e-08
3.0808e-08
3.13257e-08
3.18595e-08
3.24081e-08
3.29701e-08
3.3544e-08
3.41282e-08
3.4721e-08
3.53207e-08
3.59252e-08
3.65327e-08
3.71408e-08
3.77472e-08
3.83494e-08
3.89447e-08
3.95303e-08
4.01029e-08
4.06594e-08
4.1196e-08
4.1709e-08
4.21943e-08
4.26474e-08
4.30636e-08
4.34377e-08
4.37645e-08
4.4038e-08
4.42519e-08
4.43996e-08
4.44739e-08
4.44671e-08
4.43708e-08
4.41764e-08
4.38742e-08
4.34542e-08
4.29054e-08
4.22162e-08
4.13741e-08
4.03658e-08
3.91768e-08
3.77918e-08
3.61944e-08
3.43669e-08
3.22904e-08
2.9945e-08
2.73089e-08
2.43594e-08
2.10719e-08
1.74204e-08
1.33775e-08
8.91411e-09
3.99951e-09
-1.39838e-09
-7.31303e-09
-1.37791e-08
-2.08323e-08
-2.85089e-08
-3.68452e-08
-4.58775e-08
-5.56408e-08
-6.61683e-08
-7.74899e-08
-8.96317e-08
-1.02613e-07
-1.16447e-07
-1.31135e-07
-1.46664e-07
-1.63009e-07
-1.80153e-07
-1.97996e-07
-2.15876e-07
-2.33221e-07
-2.58753e-07
-3.10967e-07
-2.72473e-07
2.73455e-08
2.69882e-08
2.66464e-08
2.63916e-08
2.61885e-08
2.60285e-08
2.59115e-08
2.58366e-08
2.58022e-08
2.58065e-08
2.58482e-08
2.59256e-08
2.60374e-08
2.6182e-08
2.63582e-08
2.65644e-08
2.67995e-08
2.70621e-08
2.73511e-08
2.76651e-08
2.8003e-08
2.83635e-08
2.87456e-08
2.91479e-08
2.95694e-08
3.00086e-08
3.04644e-08
3.09355e-08
3.14205e-08
3.19179e-08
3.24263e-08
3.29442e-08
3.34697e-08
3.40013e-08
3.45369e-08
3.50747e-08
3.56125e-08
3.61481e-08
3.66789e-08
3.72025e-08
3.77161e-08
3.82167e-08
3.87012e-08
3.91661e-08