/*--------------------------------*- C++ -*----------------------------------*\
  =========                 |
  \\      /  F ield         | OpenFOAM: The Open Source CFD Toolbox
   \\    /   O peration     | Website:  https://openfoam.org
    \\  /    A nd           | Version:  11
     \\/     M anipulation  |
\*---------------------------------------------------------------------------*/
FoamFile
{
    format      ascii;
    class       volScalarField;
    location    "2";
    object      omega;
}
// * * * * * * * * * * * * * * * * * * * * * * * * * * * * * * * * * * * * * //

dimensions      [0 0 -1 0 0 0 0];

internalField   nonuniform List<scalar> 
10000
(
0.980419
0.935705
0.907013
0.889165
0.877794
0.870602
0.866071
0.863215
0.86141
0.860262
0.859526
0.859047
0.858731
0.858521
0.858378
0.85828
0.85821
0.858159
0.858121
0.858093
0.85807
0.858052
0.858037
0.858025
0.858015
0.858006
0.857999
0.857992
0.857986
0.857981
0.857977
0.857973
0.857969
0.857966
0.857963
0.85796
0.857958
0.857956
0.857954
0.857952
0.85795
0.857949
0.857948
0.857946
0.857945
0.857944
0.857943
0.857942
0.857941
0.85794
0.85794
0.857939
0.857938
0.857938
0.857937
0.857937
0.857936
0.857936
0.857936
0.857935
0.857935
0.857934
0.857934
0.857934
0.857934
0.857933
0.857933
0.857933
0.857933
0.857933
0.857932
0.857932
0.857932
0.857932
0.857932
0.857932
0.857932
0.857931
0.857931
0.857931
0.857931
0.857931
0.857931
0.857931
0.857931
0.857931
0.857931
0.85793
0.85793
0.85793
0.85793
0.85793
0.85793
0.85793
0.85793
0.85793
0.857929
0.857929
0.857929
0.857929
0.979082
0.935895
0.907203
0.889196
0.877816
0.870638
0.866117
0.863265
0.861459
0.860308
0.859569
0.859087
0.858769
0.858556
0.85841
0.858308
0.858235
0.858182
0.858142
0.858111
0.858087
0.858067
0.858051
0.858037
0.858026
0.858016
0.858008
0.858
0.857994
0.857988
0.857983
0.857979
0.857975
0.857971
0.857968
0.857965
0.857962
0.85796
0.857957
0.857955
0.857953
0.857952
0.85795
0.857949
0.857947
0.857946
0.857945
0.857944
0.857943
0.857942
0.857941
0.857941
0.85794
0.857939
0.857939
0.857938
0.857937
0.857937
0.857936
0.857936
0.857936
0.857935
0.857935
0.857935
0.857934
0.857934
0.857934
0.857933
0.857933
0.857933
0.857933
0.857933
0.857932
0.857932
0.857932
0.857932
0.857932
0.857932
0.857932
0.857932
0.857931
0.857931
0.857931
0.857931
0.857931
0.857931
0.857931
0.857931
0.857931
0.857931
0.85793
0.85793
0.85793
0.85793
0.85793
0.85793
0.85793
0.857929
0.857929
0.857929
0.977302
0.934715
0.906462
0.888726
0.877541
0.870489
0.866043
0.863235
0.861454
0.860317
0.859585
0.859107
0.858791
0.858578
0.858431
0.858329
0.858254
0.8582
0.858158
0.858126
0.8581
0.858079
0.858062
0.858048
0.858035
0.858025
0.858016
0.858008
0.858001
0.857994
0.857989
0.857984
0.857979
0.857975
0.857972
0.857969
0.857966
0.857963
0.85796
0.857958
0.857956
0.857954
0.857952
0.857951
0.857949
0.857948
0.857947
0.857946
0.857945
0.857944
0.857943
0.857942
0.857941
0.85794
0.85794
0.857939
0.857938
0.857938
0.857937
0.857937
0.857936
0.857936
0.857936
0.857935
0.857935
0.857935
0.857934
0.857934
0.857934
0.857934
0.857933
0.857933
0.857933
0.857933
0.857933
0.857932
0.857932
0.857932
0.857932
0.857932
0.857932
0.857932
0.857931
0.857931
0.857931
0.857931
0.857931
0.857931
0.857931
0.857931
0.857931
0.857931
0.85793
0.85793
0.85793
0.85793
0.85793
0.85793
0.857929
0.857929
0.97593
0.933271
0.905627
0.888203
0.877214
0.870285
0.865916
0.863157
0.861408
0.860291
0.859571
0.859102
0.858791
0.858582
0.858437
0.858336
0.858262
0.858207
0.858166
0.858133
0.858107
0.858086
0.858068
0.858053
0.858041
0.85803
0.85802
0.858012
0.858005
0.857998
0.857992
0.857987
0.857982
0.857978
0.857974
0.857971
0.857968
0.857965
0.857962
0.85796
0.857958
0.857956
0.857954
0.857952
0.857951
0.857949
0.857948
0.857947
0.857946
0.857944
0.857944
0.857943
0.857942
0.857941
0.85794
0.85794
0.857939
0.857938
0.857938
0.857937
0.857937
0.857936
0.857936
0.857936
0.857935
0.857935
0.857935
0.857934
0.857934
0.857934
0.857934
0.857933
0.857933
0.857933
0.857933
0.857933
0.857932
0.857932
0.857932
0.857932
0.857932
0.857932
0.857932
0.857932
0.857931
0.857931
0.857931
0.857931
0.857931
0.857931
0.857931
0.857931
0.857931
0.85793
0.85793
0.85793
0.85793
0.85793
0.85793
0.857929
0.974778
0.932327
0.904965
0.887747
0.876902
0.870071
0.865769
0.863055
0.861337
0.860241
0.859537
0.859079
0.858776
0.858572
0.858432
0.858333
0.858261
0.858208
0.858167
0.858135
0.858109
0.858088
0.858071
0.858056
0.858043
0.858032
0.858022
0.858014
0.858007
0.858
0.857994
0.857989
0.857984
0.85798
0.857976
0.857972
0.857969
0.857966
0.857963
0.857961
0.857959
0.857957
0.857955
0.857953
0.857951
0.85795
0.857949
0.857947
0.857946
0.857945
0.857944
0.857943
0.857942
0.857941
0.857941
0.85794
0.857939
0.857939
0.857938
0.857938
0.857937
0.857937
0.857936
0.857936
0.857936
0.857935
0.857935
0.857935
0.857934
0.857934
0.857934
0.857934
0.857933
0.857933
0.857933
0.857933
0.857933
0.857932
0.857932
0.857932
0.857932
0.857932
0.857932
0.857932
0.857932
0.857931
0.857931
0.857931
0.857931
0.857931
0.857931
0.857931
0.857931
0.857931
0.85793
0.85793
0.85793
0.85793
0.85793
0.857929
0.97386
0.931525
0.904417
0.887357
0.876621
0.869867
0.865619
0.862944
0.861253
0.860179
0.85949
0.859044
0.85875
0.858553
0.858418
0.858322
0.858254
0.858202
0.858163
0.858132
0.858108
0.858087
0.85807
0.858056
0.858043
0.858032
0.858023
0.858014
0.858007
0.858
0.857995
0.857989
0.857984
0.85798
0.857976
0.857973
0.857969
0.857967
0.857964
0.857961
0.857959
0.857957
0.857955
0.857953
0.857952
0.85795
0.857949
0.857948
0.857946
0.857945
0.857944
0.857943
0.857942
0.857942
0.857941
0.85794
0.857939
0.857939
0.857938
0.857938
0.857937
0.857937
0.857936
0.857936
0.857936
0.857935
0.857935
0.857935
0.857934
0.857934
0.857934
0.857934
0.857933
0.857933
0.857933
0.857933
0.857933
0.857932
0.857932
0.857932
0.857932
0.857932
0.857932
0.857932
0.857932
0.857931
0.857931
0.857931
0.857931
0.857931
0.857931
0.857931
0.857931
0.857931
0.85793
0.85793
0.85793
0.85793
0.85793
0.857929
0.973117
0.93091
0.903989
0.887048
0.876392
0.869695
0.865488
0.862843
0.861174
0.860117
0.859442
0.859006
0.858721
0.85853
0.8584
0.858309
0.858243
0.858195
0.858157
0.858128
0.858104
0.858084
0.858068
0.858054
0.858042
0.858031
0.858022
0.858014
0.858007
0.858
0.857994
0.857989
0.857985
0.85798
0.857976
0.857973
0.85797
0.857967
0.857964
0.857962
0.857959
0.857957
0.857955
0.857953
0.857952
0.85795
0.857949
0.857948
0.857946
0.857945
0.857944
0.857943
0.857943
0.857942
0.857941
0.85794
0.85794
0.857939
0.857938
0.857938
0.857937
0.857937
0.857936
0.857936
0.857936
0.857935
0.857935
0.857935
0.857934
0.857934
0.857934
0.857934
0.857933
0.857933
0.857933
0.857933
0.857933
0.857932
0.857932
0.857932
0.857932
0.857932
0.857932
0.857932
0.857932
0.857931
0.857931
0.857931
0.857931
0.857931
0.857931
0.857931
0.857931
0.857931
0.85793
0.85793
0.85793
0.85793
0.85793
0.857929
0.972504
0.930426
0.903654
0.886805
0.876211
0.869556
0.865378
0.862755
0.861104
0.86006
0.859396
0.858969
0.858691
0.858507
0.858381
0.858294
0.858232
0.858185
0.85815
0.858122
0.858099
0.858081
0.858065
0.858052
0.85804
0.85803
0.858021
0.858013
0.858006
0.858
0.857994
0.857989
0.857984
0.85798
0.857976
0.857973
0.85797
0.857967
0.857964
0.857961
0.857959
0.857957
0.857955
0.857953
0.857952
0.85795
0.857949
0.857948
0.857947
0.857945
0.857944
0.857943
0.857943
0.857942
0.857941
0.85794
0.85794
0.857939
0.857938
0.857938
0.857937
0.857937
0.857936
0.857936
0.857936
0.857935
0.857935
0.857935
0.857934
0.857934
0.857934
0.857934
0.857933
0.857933
0.857933
0.857933
0.857933
0.857932
0.857932
0.857932
0.857932
0.857932
0.857932
0.857932
0.857932
0.857931
0.857931
0.857931
0.857931
0.857931
0.857931
0.857931
0.857931
0.857931
0.85793
0.85793
0.85793
0.85793
0.85793
0.857929
0.971991
0.930037
0.903388
0.886614
0.876068
0.869444
0.865288
0.862681
0.861043
0.860009
0.859354
0.858935
0.858663
0.858483
0.858363
0.858279
0.858219
0.858175
0.858142
0.858115
0.858094
0.858077
0.858062
0.858049
0.858038
0.858028
0.85802
0.858012
0.858005
0.857999
0.857993
0.857988
0.857984
0.85798
0.857976
0.857972
0.857969
0.857966
0.857964
0.857961
0.857959
0.857957
0.857955
0.857953
0.857952
0.85795
0.857949
0.857948
0.857946
0.857945
0.857944
0.857943
0.857943
0.857942
0.857941
0.85794
0.85794
0.857939
0.857938
0.857938
0.857937
0.857937
0.857936
0.857936
0.857936
0.857935
0.857935
0.857935
0.857934
0.857934
0.857934
0.857934
0.857933
0.857933
0.857933
0.857933
0.857933
0.857932
0.857932
0.857932
0.857932
0.857932
0.857932
0.857932
0.857932
0.857931
0.857931
0.857931
0.857931
0.857931
0.857931
0.857931
0.857931
0.857931
0.85793
0.85793
0.85793
0.85793
0.85793
0.857929
0.971558
0.929719
0.903174
0.886462
0.875954
0.869354
0.865215
0.86262
0.86099
0.859965
0.859317
0.858903
0.858636
0.858461
0.858344
0.858264
0.858207
0.858165
0.858133
0.858109
0.858089
0.858072
0.858058
0.858046
0.858035
0.858026
0.858018
0.85801
0.858004
0.857998
0.857992
0.857988
0.857983
0.857979
0.857975
0.857972
0.857969
0.857966
0.857964
0.857961
0.857959
0.857957
0.857955
0.857953
0.857952
0.85795
0.857949
0.857948
0.857946
0.857945
0.857944
0.857943
0.857942
0.857942
0.857941
0.85794
0.85794
0.857939
0.857938
0.857938
0.857937
0.857937
0.857936
0.857936
0.857936
0.857935
0.857935
0.857935
0.857934
0.857934
0.857934
0.857934
0.857933
0.857933
0.857933
0.857933
0.857933
0.857932
0.857932
0.857932
0.857932
0.857932
0.857932
0.857932
0.857932
0.857931
0.857931
0.857931
0.857931
0.857931
0.857931
0.857931
0.857931
0.857931
0.85793
0.85793
0.85793
0.85793
0.85793
0.857929
0.97119
0.929455
0.902999
0.886339
0.875862
0.869282
0.865156
0.862569
0.860947
0.859927
0.859284
0.858875
0.858612
0.858441
0.858327
0.858249
0.858195
0.858155
0.858125
0.858102
0.858083
0.858067
0.858054
0.858042
0.858032
0.858024
0.858016
0.858009
0.858002
0.857997
0.857991
0.857987
0.857982
0.857978
0.857975
0.857972
0.857969
0.857966
0.857963
0.857961
0.857959
0.857957
0.857955
0.857953
0.857952
0.85795
0.857949
0.857947
0.857946
0.857945
0.857944
0.857943
0.857942
0.857942
0.857941
0.85794
0.857939
0.857939
0.857938
0.857938
0.857937
0.857937
0.857936
0.857936
0.857936
0.857935
0.857935
0.857935
0.857934
0.857934
0.857934
0.857934
0.857933
0.857933
0.857933
0.857933
0.857933
0.857932
0.857932
0.857932
0.857932
0.857932
0.857932
0.857932
0.857931
0.857931
0.857931
0.857931
0.857931
0.857931
0.857931
0.857931
0.857931
0.85793
0.85793
0.85793
0.85793
0.85793
0.85793
0.857929
0.970867
0.929231
0.902853
0.886238
0.875788
0.869224
0.865107
0.862527
0.86091
0.859894
0.859255
0.858849
0.85859
0.858422
0.858311
0.858235
0.858183
0.858145
0.858117
0.858095
0.858077
0.858062
0.85805
0.858039
0.85803
0.858021
0.858014
0.858007
0.858001
0.857995
0.85799
0.857986
0.857982
0.857978
0.857974
0.857971
0.857968
0.857965
0.857963
0.857961
0.857958
0.857956
0.857955
0.857953
0.857951
0.85795
0.857949
0.857947
0.857946
0.857945
0.857944
0.857943
0.857942
0.857942
0.857941
0.85794
0.857939
0.857939
0.857938
0.857938
0.857937
0.857937
0.857936
0.857936
0.857936
0.857935
0.857935
0.857935
0.857934
0.857934
0.857934
0.857933
0.857933
0.857933
0.857933
0.857933
0.857933
0.857932
0.857932
0.857932
0.857932
0.857932
0.857932
0.857932
0.857931
0.857931
0.857931
0.857931
0.857931
0.857931
0.857931
0.857931
0.857931
0.85793
0.85793
0.85793
0.85793
0.85793
0.857929
0.857929
0.970583
0.929037
0.902729
0.886154
0.875728
0.869177
0.865067
0.862492
0.860879
0.859866
0.85923
0.858827
0.85857
0.858405
0.858296
0.858223
0.858172
0.858136
0.858109
0.858088
0.858071
0.858057
0.858046
0.858036
0.858027
0.858019
0.858012
0.858005
0.857999
0.857994
0.857989
0.857985
0.857981
0.857977
0.857974
0.85797
0.857968
0.857965
0.857962
0.85796
0.857958
0.857956
0.857954
0.857953
0.857951
0.85795
0.857948
0.857947
0.857946
0.857945
0.857944
0.857943
0.857942
0.857941
0.857941
0.85794
0.857939
0.857939
0.857938
0.857938
0.857937
0.857937
0.857936
0.857936
0.857935
0.857935
0.857935
0.857934
0.857934
0.857934
0.857934
0.857933
0.857933
0.857933
0.857933
0.857933
0.857932
0.857932
0.857932
0.857932
0.857932
0.857932
0.857932
0.857931
0.857931
0.857931
0.857931
0.857931
0.857931
0.857931
0.857931
0.857931
0.85793
0.85793
0.85793
0.85793
0.85793
0.85793
0.857929
0.857929
0.970332
0.928869
0.902622
0.886083
0.875677
0.869138
0.865035
0.862463
0.860852
0.859842
0.859208
0.858807
0.858553
0.858389
0.858282
0.858211
0.858162
0.858127
0.858101
0.858081
0.858066
0.858053
0.858042
0.858032
0.858024
0.858016
0.858009
0.858003
0.857998
0.857993
0.857988
0.857984
0.85798
0.857976
0.857973
0.85797
0.857967
0.857964
0.857962
0.85796
0.857958
0.857956
0.857954
0.857953
0.857951
0.85795
0.857948
0.857947
0.857946
0.857945
0.857944
0.857943
0.857942
0.857941
0.857941
0.85794
0.857939
0.857939
0.857938
0.857938
0.857937
0.857937
0.857936
0.857936
0.857935
0.857935
0.857935
0.857934
0.857934
0.857934
0.857934
0.857933
0.857933
0.857933
0.857933
0.857933
0.857932
0.857932
0.857932
0.857932
0.857932
0.857932
0.857932
0.857931
0.857931
0.857931
0.857931
0.857931
0.857931
0.857931
0.857931
0.857931
0.85793
0.85793
0.85793
0.85793
0.85793
0.85793
0.857929
0.857929
0.970108
0.928721
0.902529
0.886022
0.875634
0.869105
0.865008
0.862439
0.86083
0.859822
0.859189
0.85879
0.858537
0.858375
0.858269
0.8582
0.858152
0.858118
0.858094
0.858075
0.85806
0.858048
0.858038
0.858029
0.858021
0.858014
0.858007
0.858001
0.857996
0.857991
0.857987
0.857983
0.857979
0.857975
0.857972
0.857969
0.857967
0.857964
0.857962
0.857959
0.857957
0.857956
0.857954
0.857952
0.857951
0.857949
0.857948
0.857947
0.857946
0.857945
0.857944
0.857943
0.857942
0.857941
0.85794
0.85794
0.857939
0.857939
0.857938
0.857937
0.857937
0.857937
0.857936
0.857936
0.857935
0.857935
0.857935
0.857934
0.857934
0.857934
0.857934
0.857933
0.857933
0.857933
0.857933
0.857933
0.857932
0.857932
0.857932
0.857932
0.857932
0.857932
0.857931
0.857931
0.857931
0.857931
0.857931
0.857931
0.857931
0.857931
0.857931
0.857931
0.85793
0.85793
0.85793
0.85793
0.85793
0.85793
0.857929
0.857929
0.969907
0.928591
0.902447
0.88597
0.875598
0.869078
0.864985
0.862419
0.860811
0.859804
0.859172
0.858774
0.858523
0.858362
0.858258
0.858189
0.858143
0.858111
0.858087
0.858069
0.858055
0.858043
0.858034
0.858025
0.858018
0.858011
0.858005
0.858
0.857994
0.85799
0.857986
0.857982
0.857978
0.857975
0.857972
0.857969
0.857966
0.857964
0.857961
0.857959
0.857957
0.857955
0.857954
0.857952
0.857951
0.857949
0.857948
0.857947
0.857946
0.857945
0.857944
0.857943
0.857942
0.857941
0.85794
0.85794
0.857939
0.857938
0.857938
0.857937
0.857937
0.857936
0.857936
0.857936
0.857935
0.857935
0.857935
0.857934
0.857934
0.857934
0.857933
0.857933
0.857933
0.857933
0.857933
0.857932
0.857932
0.857932
0.857932
0.857932
0.857932
0.857932
0.857931
0.857931
0.857931
0.857931
0.857931
0.857931
0.857931
0.857931
0.857931
0.85793
0.85793
0.85793
0.85793
0.85793
0.85793
0.85793
0.857929
0.857929
0.969727
0.928474
0.902375
0.885924
0.875567
0.869054
0.864966
0.862402
0.860795
0.859789
0.859158
0.858761
0.85851
0.858351
0.858248
0.85818
0.858135
0.858103
0.858081
0.858063
0.85805
0.858039
0.85803
0.858022
0.858015
0.858009
0.858003
0.857998
0.857993
0.857988
0.857984
0.857981
0.857977
0.857974
0.857971
0.857968
0.857965
0.857963
0.857961
0.857959
0.857957
0.857955
0.857953
0.857952
0.85795
0.857949
0.857948
0.857947
0.857945
0.857944
0.857943
0.857943
0.857942
0.857941
0.85794
0.85794
0.857939
0.857938
0.857938
0.857937
0.857937
0.857936
0.857936
0.857936
0.857935
0.857935
0.857934
0.857934
0.857934
0.857934
0.857933
0.857933
0.857933
0.857933
0.857933
0.857932
0.857932
0.857932
0.857932
0.857932
0.857932
0.857931
0.857931
0.857931
0.857931
0.857931
0.857931
0.857931
0.857931
0.857931
0.85793
0.85793
0.85793
0.85793
0.85793
0.85793
0.85793
0.85793
0.857929
0.857929
0.969564
0.92837
0.902311
0.885884
0.87554
0.869035
0.864949
0.862387
0.860782
0.859776
0.859145
0.858749
0.858499
0.85834
0.858238
0.858172
0.858127
0.858096
0.858074
0.858058
0.858045
0.858035
0.858026
0.858019
0.858012
0.858006
0.858001
0.857996
0.857991
0.857987
0.857983
0.857979
0.857976
0.857973
0.85797
0.857967
0.857965
0.857963
0.85796
0.857958
0.857956
0.857955
0.857953
0.857951
0.85795
0.857949
0.857948
0.857946
0.857945
0.857944
0.857943
0.857942
0.857942
0.857941
0.85794
0.857939
0.857939
0.857938
0.857938
0.857937
0.857937
0.857936
0.857936
0.857935
0.857935
0.857935
0.857934
0.857934
0.857934
0.857934
0.857933
0.857933
0.857933
0.857933
0.857932
0.857932
0.857932
0.857932
0.857932
0.857932
0.857932
0.857931
0.857931
0.857931
0.857931
0.857931
0.857931
0.857931
0.857931
0.857931
0.85793
0.85793
0.85793
0.85793
0.85793
0.85793
0.85793
0.857929
0.857929
0.857929
0.969416
0.928277
0.902254
0.885849
0.875517
0.869018
0.864936
0.862375
0.86077
0.859765
0.859134
0.858738
0.858489
0.858331
0.85823
0.858164
0.85812
0.85809
0.858069
0.858053
0.858041
0.858031
0.858023
0.858016
0.85801
0.858004
0.857999
0.857994
0.85799
0.857986
0.857982
0.857978
0.857975
0.857972
0.857969
0.857967
0.857964
0.857962
0.85796
0.857958
0.857956
0.857954
0.857953
0.857951
0.85795
0.857949
0.857947
0.857946
0.857945
0.857944
0.857943
0.857942
0.857941
0.857941
0.85794
0.857939
0.857939
0.857938
0.857938
0.857937
0.857937
0.857936
0.857936
0.857935
0.857935
0.857935
0.857934
0.857934
0.857934
0.857933
0.857933
0.857933
0.857933
0.857933
0.857932
0.857932
0.857932
0.857932
0.857932
0.857932
0.857931
0.857931
0.857931
0.857931
0.857931
0.857931
0.857931
0.857931
0.857931
0.85793
0.85793
0.85793
0.85793
0.85793
0.85793
0.85793
0.85793
0.857929
0.857929
0.857929
0.969282
0.928193
0.902205
0.885819
0.875498
0.869004
0.864924
0.862365
0.86076
0.859755
0.859125
0.858729
0.85848
0.858323
0.858222
0.858157
0.858114
0.858084
0.858064
0.858048
0.858037
0.858028
0.85802
0.858013
0.858007
0.858002
0.857997
0.857992
0.857988
0.857984
0.857981
0.857977
0.857974
0.857971
0.857969
0.857966
0.857964
0.857961
0.857959
0.857957
0.857956
0.857954
0.857952
0.857951
0.85795
0.857948
0.857947
0.857946
0.857945
0.857944
0.857943
0.857942
0.857941
0.857941
0.85794
0.857939
0.857939
0.857938
0.857937
0.857937
0.857937
0.857936
0.857936
0.857935
0.857935
0.857935
0.857934
0.857934
0.857934
0.857933
0.857933
0.857933
0.857933
0.857933
0.857932
0.857932
0.857932
0.857932
0.857932
0.857932
0.857931
0.857931
0.857931
0.857931
0.857931
0.857931
0.857931
0.857931
0.857931
0.85793
0.85793
0.85793
0.85793
0.85793
0.85793
0.85793
0.85793
0.857929
0.857929
0.857929
0.96916
0.928119
0.902162
0.885793
0.875481
0.868993
0.864915
0.862356
0.860752
0.859746
0.859116
0.858721
0.858472
0.858315
0.858215
0.85815
0.858108
0.858079
0.858059
0.858044
0.858033
0.858024
0.858017
0.85801
0.858005
0.858
0.857995
0.857991
0.857987
0.857983
0.85798
0.857976
0.857973
0.857971
0.857968
0.857965
0.857963
0.857961
0.857959
0.857957
0.857955
0.857954
0.857952
0.857951
0.857949
0.857948
0.857947
0.857946
0.857945
0.857944
0.857943
0.857942
0.857941
0.85794
0.85794
0.857939
0.857939
0.857938
0.857937
0.857937
0.857936
0.857936
0.857936
0.857935
0.857935
0.857934
0.857934
0.857934
0.857934
0.857933
0.857933
0.857933
0.857933
0.857932
0.857932
0.857932
0.857932
0.857932
0.857932
0.857931
0.857931
0.857931
0.857931
0.857931
0.857931
0.857931
0.857931
0.857931
0.85793
0.85793
0.85793
0.85793
0.85793
0.85793
0.85793
0.85793
0.85793
0.857929
0.857929
0.857929
0.969048
0.928052
0.902125
0.885772
0.875468
0.868983
0.864907
0.862349
0.860744
0.859739
0.859109
0.858714
0.858465
0.858308
0.858208
0.858144
0.858102
0.858074
0.858054
0.85804
0.858029
0.858021
0.858014
0.858008
0.858002
0.857998
0.857993
0.857989
0.857985
0.857982
0.857978
0.857975
0.857972
0.85797
0.857967
0.857965
0.857963
0.85796
0.857959
0.857957
0.857955
0.857953
0.857952
0.85795
0.857949
0.857948
0.857947
0.857946
0.857945
0.857944
0.857943
0.857942
0.857941
0.85794
0.85794
0.857939
0.857938
0.857938
0.857937
0.857937
0.857936
0.857936
0.857935
0.857935
0.857935
0.857934
0.857934
0.857934
0.857934
0.857933
0.857933
0.857933
0.857933
0.857932
0.857932
0.857932
0.857932
0.857932
0.857932
0.857931
0.857931
0.857931
0.857931
0.857931
0.857931
0.857931
0.857931
0.85793
0.85793
0.85793
0.85793
0.85793
0.85793
0.85793
0.85793
0.85793
0.857929
0.857929
0.857929
0.857929
0.968947
0.927995
0.902095
0.885756
0.875459
0.868977
0.864902
0.862343
0.860738
0.859733
0.859102
0.858707
0.858459
0.858302
0.858203
0.858139
0.858097
0.858069
0.85805
0.858036
0.858026
0.858018
0.858011
0.858005
0.858
0.857996
0.857991
0.857987
0.857984
0.857981
0.857977
0.857974
0.857972
0.857969
0.857967
0.857964
0.857962
0.85796
0.857958
0.857956
0.857955
0.857953
0.857952
0.85795
0.857949
0.857948
0.857946
0.857945
0.857944
0.857943
0.857943
0.857942
0.857941
0.85794
0.85794
0.857939
0.857938
0.857938
0.857937
0.857937
0.857936
0.857936
0.857935
0.857935
0.857935
0.857934
0.857934
0.857934
0.857933
0.857933
0.857933
0.857933
0.857932
0.857932
0.857932
0.857932
0.857932
0.857932
0.857931
0.857931
0.857931
0.857931
0.857931
0.857931
0.857931
0.857931
0.85793
0.85793
0.85793
0.85793
0.85793
0.85793
0.85793
0.85793
0.85793
0.85793
0.857929
0.857929
0.857929
0.857929
0.968856
0.927952
0.902077
0.885748
0.875454
0.868973
0.864897
0.862338
0.860733
0.859727
0.859097
0.858701
0.858453
0.858297
0.858197
0.858134
0.858092
0.858065
0.858046
0.858033
0.858023
0.858015
0.858008
0.858003
0.857998
0.857994
0.85799
0.857986
0.857983
0.857979
0.857976
0.857973
0.857971
0.857968
0.857966
0.857964
0.857961
0.85796
0.857958
0.857956
0.857954
0.857953
0.857951
0.85795
0.857949
0.857947
0.857946
0.857945
0.857944
0.857943
0.857942
0.857942
0.857941
0.85794
0.857939
0.857939
0.857938
0.857938
0.857937
0.857937
0.857936
0.857936
0.857935
0.857935
0.857935
0.857934
0.857934
0.857934
0.857933
0.857933
0.857933
0.857933
0.857932
0.857932
0.857932
0.857932
0.857932
0.857932
0.857931
0.857931
0.857931
0.857931
0.857931
0.857931
0.857931
0.857931
0.85793
0.85793
0.85793
0.85793
0.85793
0.85793
0.85793
0.85793
0.85793
0.857929
0.857929
0.857929
0.857929
0.857929
0.968768
0.927936
0.902079
0.88575
0.875454
0.868971
0.864894
0.862334
0.860729
0.859722
0.859091
0.858696
0.858448
0.858291
0.858192
0.858129
0.858088
0.858061
0.858042
0.858029
0.85802
0.858012
0.858006
0.858001
0.857996
0.857992
0.857988
0.857985
0.857981
0.857978
0.857975
0.857973
0.85797
0.857967
0.857965
0.857963
0.857961
0.857959
0.857957
0.857955
0.857954
0.857952
0.857951
0.85795
0.857948
0.857947
0.857946
0.857945
0.857944
0.857943
0.857942
0.857941
0.857941
0.85794
0.857939
0.857939
0.857938
0.857937
0.857937
0.857936
0.857936
0.857936
0.857935
0.857935
0.857934
0.857934
0.857934
0.857934
0.857933
0.857933
0.857933
0.857933
0.857932
0.857932
0.857932
0.857932
0.857932
0.857931
0.857931
0.857931
0.857931
0.857931
0.857931
0.857931
0.857931
0.85793
0.85793
0.85793
0.85793
0.85793
0.85793
0.85793
0.85793
0.85793
0.857929
0.857929
0.857929
0.857929
0.857929
0.857929
0.968649
0.927997
0.902114
0.885762
0.875456
0.868969
0.864891
0.862331
0.860725
0.859718
0.859087
0.858691
0.858443
0.858287
0.858188
0.858125
0.858084
0.858057
0.858039
0.858026
0.858017
0.858009
0.858004
0.857999
0.857994
0.85799
0.857987
0.857983
0.85798
0.857977
0.857974
0.857972
0.857969
0.857967
0.857965
0.857962
0.85796
0.857959
0.857957
0.857955
0.857954
0.857952
0.857951
0.857949
0.857948
0.857947
0.857946
0.857945
0.857944
0.857943
0.857942
0.857941
0.857941
0.85794
0.857939
0.857939
0.857938
0.857937
0.857937
0.857936
0.857936
0.857936
0.857935
0.857935
0.857934
0.857934
0.857934
0.857933
0.857933
0.857933
0.857933
0.857932
0.857932
0.857932
0.857932
0.857932
0.857932
0.857931
0.857931
0.857931
0.857931
0.857931
0.857931
0.857931
0.85793
0.85793
0.85793
0.85793
0.85793
0.85793
0.85793
0.85793
0.85793
0.85793
0.857929
0.857929
0.857929
0.857929
0.857929
0.857929
0.968273
0.928356
0.902183
0.885771
0.875454
0.868965
0.864887
0.862327
0.860721
0.859714
0.859083
0.858687
0.858439
0.858283
0.858184
0.858121
0.858081
0.858054
0.858036
0.858023
0.858014
0.858007
0.858001
0.857997
0.857992
0.857989
0.857985
0.857982
0.857979
0.857976
0.857973
0.857971
0.857968
0.857966
0.857964
0.857962
0.85796
0.857958
0.857956
0.857955
0.857953
0.857952
0.85795
0.857949
0.857948
0.857947
0.857946
0.857945
0.857944
0.857943
0.857942
0.857941
0.85794
0.85794
0.857939
0.857938
0.857938
0.857937
0.857937
0.857936
0.857936
0.857935
0.857935
0.857935
0.857934
0.857934
0.857934
0.857933
0.857933
0.857933
0.857933
0.857932
0.857932
0.857932
0.857932
0.857932
0.857931
0.857931
0.857931
0.857931
0.857931
0.857931
0.857931
0.857931
0.85793
0.85793
0.85793
0.85793
0.85793
0.85793
0.85793
0.85793
0.85793
0.857929
0.857929
0.857929
0.857929
0.857929
0.857929
0.857929
0.968508
0.927901
0.902057
0.885728
0.875436
0.868956
0.864881
0.862322
0.860716
0.85971
0.859079
0.858683
0.858435
0.858279
0.85818
0.858118
0.858077
0.858051
0.858033
0.858021
0.858012
0.858005
0.857999
0.857995
0.857991
0.857987
0.857984
0.857981
0.857978
0.857975
0.857972
0.85797
0.857968
0.857965
0.857963
0.857961
0.857959
0.857958
0.857956
0.857954
0.857953
0.857951
0.85795
0.857949
0.857948
0.857947
0.857945
0.857944
0.857944
0.857943
0.857942
0.857941
0.85794
0.85794
0.857939
0.857938
0.857938
0.857937
0.857937
0.857936
0.857936
0.857935
0.857935
0.857935
0.857934
0.857934
0.857934
0.857933
0.857933
0.857933
0.857933
0.857932
0.857932
0.857932
0.857932
0.857932
0.857931
0.857931
0.857931
0.857931
0.857931
0.857931
0.857931
0.85793
0.85793
0.85793
0.85793
0.85793
0.85793
0.85793
0.85793
0.85793
0.857929
0.857929
0.857929
0.857929
0.857929
0.857929
0.857929
0.857929
0.968482
0.927755
0.901971
0.885685
0.875414
0.868945
0.864875
0.862317
0.860712
0.859706
0.859075
0.85868
0.858431
0.858275
0.858177
0.858114
0.858074
0.858048
0.85803
0.858018
0.858009
0.858003
0.857997
0.857993
0.857989
0.857986
0.857982
0.857979
0.857977
0.857974
0.857972
0.857969
0.857967
0.857965
0.857963
0.857961
0.857959
0.857957
0.857956
0.857954
0.857953
0.857951
0.85795
0.857949
0.857947
0.857946
0.857945
0.857944
0.857943
0.857942
0.857942
0.857941
0.85794
0.857939
0.857939
0.857938
0.857938
0.857937
0.857937
0.857936
0.857936
0.857935
0.857935
0.857934
0.857934
0.857934
0.857933
0.857933
0.857933
0.857933
0.857932
0.857932
0.857932
0.857932
0.857932
0.857931
0.857931
0.857931
0.857931
0.857931
0.857931
0.857931
0.85793
0.85793
0.85793
0.85793
0.85793
0.85793
0.85793
0.85793
0.85793
0.85793
0.857929
0.857929
0.857929
0.857929
0.857929
0.857929
0.857929
0.857929
0.968425
0.927686
0.901919
0.885654
0.875396
0.868934
0.864868
0.862313
0.860709
0.859702
0.859072
0.858676
0.858428
0.858272
0.858174
0.858112
0.858072
0.858045
0.858028
0.858016
0.858007
0.858001
0.857996
0.857991
0.857988
0.857984
0.857981
0.857978
0.857976
0.857973
0.857971
0.857968
0.857966
0.857964
0.857962
0.85796
0.857959
0.857957
0.857955
0.857954
0.857952
0.857951
0.85795
0.857948
0.857947
0.857946
0.857945
0.857944
0.857943
0.857942
0.857941
0.857941
0.85794
0.857939
0.857939
0.857938
0.857938
0.857937
0.857936
0.857936
0.857936
0.857935
0.857935
0.857934
0.857934
0.857934
0.857933
0.857933
0.857933
0.857933
0.857932
0.857932
0.857932
0.857932
0.857932
0.857931
0.857931
0.857931
0.857931
0.857931
0.857931
0.857931
0.85793
0.85793
0.85793
0.85793
0.85793
0.85793
0.85793
0.85793
0.85793
0.857929
0.857929
0.857929
0.857929
0.857929
0.857929
0.857929
0.857929
0.857928
0.968368
0.92764
0.901886
0.885632
0.875383
0.868926
0.864862
0.862309
0.860705
0.859699
0.859069
0.858673
0.858425
0.858269
0.858171
0.858109
0.858069
0.858043
0.858026
0.858014
0.858005
0.857999
0.857994
0.85799
0.857986
0.857983
0.85798
0.857977
0.857975
0.857972
0.85797
0.857968
0.857966
0.857964
0.857962
0.85796
0.857958
0.857956
0.857955
0.857953
0.857952
0.857951
0.857949
0.857948
0.857947
0.857946
0.857945
0.857944
0.857943
0.857942
0.857941
0.857941
0.85794
0.857939
0.857939
0.857938
0.857937
0.857937
0.857936
0.857936
0.857935
0.857935
0.857935
0.857934
0.857934
0.857934
0.857933
0.857933
0.857933
0.857933
0.857932
0.857932
0.857932
0.857932
0.857931
0.857931
0.857931
0.857931
0.857931
0.857931
0.857931
0.85793
0.85793
0.85793
0.85793
0.85793
0.85793
0.85793
0.85793
0.85793
0.857929
0.857929
0.857929
0.857929
0.857929
0.857929
0.857929
0.857929
0.857929
0.857928
0.968317
0.927605
0.901863
0.885616
0.875372
0.868919
0.864858
0.862305
0.860702
0.859697
0.859066
0.858671
0.858423
0.858267
0.858169
0.858106
0.858067
0.858041
0.858024
0.858012
0.858004
0.857997
0.857993
0.857988
0.857985
0.857982
0.857979
0.857976
0.857974
0.857971
0.857969
0.857967
0.857965
0.857963
0.857961
0.857959
0.857958
0.857956
0.857955
0.857953
0.857952
0.85795
0.857949
0.857948
0.857947
0.857946
0.857945
0.857944
0.857943
0.857942
0.857941
0.85794
0.85794
0.857939
0.857938
0.857938
0.857937
0.857937
0.857936
0.857936
0.857935
0.857935
0.857935
0.857934
0.857934
0.857934
0.857933
0.857933
0.857933
0.857932
0.857932
0.857932
0.857932
0.857932
0.857931
0.857931
0.857931
0.857931
0.857931
0.857931
0.857931
0.85793
0.85793
0.85793
0.85793
0.85793
0.85793
0.85793
0.85793
0.85793
0.857929
0.857929
0.857929
0.857929
0.857929
0.857929
0.857929
0.857929
0.857929
0.857928
0.968271
0.927575
0.901843
0.885604
0.875364
0.868914
0.864854
0.862302
0.8607
0.859694
0.859063
0.858668
0.85842
0.858264
0.858166
0.858104
0.858064
0.858039
0.858022
0.85801
0.858002
0.857996
0.857991
0.857987
0.857984
0.857981
0.857978
0.857975
0.857973
0.857971
0.857969
0.857966
0.857964
0.857963
0.857961
0.857959
0.857957
0.857956
0.857954
0.857953
0.857951
0.85795
0.857949
0.857948
0.857947
0.857946
0.857945
0.857944
0.857943
0.857942
0.857941
0.85794
0.85794
0.857939
0.857938
0.857938
0.857937
0.857937
0.857936
0.857936
0.857935
0.857935
0.857934
0.857934
0.857934
0.857933
0.857933
0.857933
0.857933
0.857932
0.857932
0.857932
0.857932
0.857932
0.857931
0.857931
0.857931
0.857931
0.857931
0.857931
0.85793
0.85793
0.85793
0.85793
0.85793
0.85793
0.85793
0.85793
0.85793
0.857929
0.857929
0.857929
0.857929
0.857929
0.857929
0.857929
0.857929
0.857929
0.857928
0.857928
0.968229
0.927549
0.901827
0.885594
0.875358
0.86891
0.864851
0.8623
0.860697
0.859692