/*--------------------------------*- C++ -*----------------------------------*\
  =========                 |
  \\      /  F ield         | OpenFOAM: The Open Source CFD Toolbox
   \\    /   O peration     | Website:  https://openfoam.org
    \\  /    A nd           | Version:  11
     \\/     M anipulation  |
\*---------------------------------------------------------------------------*/
FoamFile
{
    format      ascii;
    class       volScalarField;
    location    "466";
    object      k;
}
// * * * * * * * * * * * * * * * * * * * * * * * * * * * * * * * * * * * * * //

dimensions      [0 2 -2 0 0 0 0];

internalField   nonuniform List<scalar> 
10000
(
0.000939686
0.000835715
0.000745884
0.000668024
0.000600327
0.000541282
0.000489623
0.000444288
0.000404384
0.000369153
0.000337959
0.00031026
0.000285593
0.000263568
0.000243847
0.000226143
0.000210209
0.000195832
0.000182827
0.000171037
0.000160322
0.000150562
0.000141654
0.000133504
0.000126034
0.000119173
0.000112858
0.000107035
0.000101657
9.66793e-05
9.20652e-05
8.77806e-05
8.37956e-05
8.00833e-05
7.66197e-05
7.33834e-05
7.0355e-05
6.75173e-05
6.48545e-05
6.23526e-05
5.99989e-05
5.77818e-05
5.56909e-05
5.37167e-05
5.18506e-05
5.00848e-05
4.8412e-05
4.68259e-05
4.53204e-05
4.38902e-05
4.25302e-05
4.1236e-05
4.00034e-05
3.88286e-05
3.77081e-05
3.66388e-05
3.56177e-05
3.46423e-05
3.37101e-05
3.28188e-05
3.19667e-05
3.11517e-05
3.03723e-05
2.96271e-05
2.89147e-05
2.8234e-05
2.7584e-05
2.69636e-05
2.63722e-05
2.58091e-05
2.52735e-05
2.47651e-05
2.42832e-05
2.38276e-05
2.33977e-05
2.29933e-05
2.26139e-05
2.22592e-05
2.19287e-05
2.16221e-05
2.13386e-05
2.10779e-05
2.08392e-05
2.06217e-05
2.04247e-05
2.02472e-05
2.00883e-05
1.9947e-05
1.98221e-05
1.97123e-05
1.96165e-05
1.95334e-05
1.94617e-05
1.94003e-05
1.93481e-05
1.93041e-05
1.92676e-05
1.92379e-05
1.92154e-05
1.92013e-05
0.000939686
0.000835715
0.000745884
0.000668024
0.000600327
0.000541282
0.000489623
0.000444289
0.000404384
0.000369154
0.00033796
0.00031026
0.000285594
0.000263568
0.000243847
0.000226143
0.000210209
0.000195832
0.000182828
0.000171037
0.000160322
0.000150563
0.000141654
0.000133505
0.000126034
0.000119173
0.000112858
0.000107036
0.000101657
9.66796e-05
9.20655e-05
8.77809e-05
8.37959e-05
8.00836e-05
7.662e-05
7.33837e-05
7.03554e-05
6.75176e-05
6.48549e-05
6.2353e-05
5.99993e-05
5.77822e-05
5.56913e-05
5.37171e-05
5.1851e-05
5.00852e-05
4.84124e-05
4.68263e-05
4.53208e-05
4.38906e-05
4.25307e-05
4.12365e-05
4.00039e-05
3.88291e-05
3.77086e-05
3.66393e-05
3.56183e-05
3.46429e-05
3.37107e-05
3.28195e-05
3.19673e-05
3.11524e-05
3.0373e-05
2.96278e-05
2.89155e-05
2.82348e-05
2.75847e-05
2.69644e-05
2.6373e-05
2.58099e-05
2.52743e-05
2.47659e-05
2.4284e-05
2.38284e-05
2.33985e-05
2.29941e-05
2.26147e-05
2.226e-05
2.19295e-05
2.16228e-05
2.13393e-05
2.10786e-05
2.08398e-05
2.06224e-05
2.04253e-05
2.02478e-05
2.00889e-05
1.99476e-05
1.98225e-05
1.97127e-05
1.96168e-05
1.95336e-05
1.94618e-05
1.94004e-05
1.93482e-05
1.93041e-05
1.92675e-05
1.92379e-05
1.92154e-05
1.92013e-05
0.000939686
0.000835715
0.000745884
0.000668024
0.000600327
0.000541282
0.000489624
0.000444289
0.000404384
0.000369154
0.00033796
0.00031026
0.000285594
0.000263568
0.000243848
0.000226144
0.00021021
0.000195832
0.000182828
0.000171038
0.000160323
0.000150563
0.000141655
0.000133505
0.000126035
0.000119173
0.000112859
0.000107036
0.000101658
9.66801e-05
9.2066e-05
8.77815e-05
8.37965e-05
8.00842e-05
7.66206e-05
7.33843e-05
7.0356e-05
6.75182e-05
6.48555e-05
6.23536e-05
5.99999e-05
5.77829e-05
5.5692e-05
5.37178e-05
5.18517e-05
5.00859e-05
4.84132e-05
4.68271e-05
4.53216e-05
4.38914e-05
4.25315e-05
4.12373e-05
4.00048e-05
3.883e-05
3.77095e-05
3.66403e-05
3.56192e-05
3.46438e-05
3.37116e-05
3.28205e-05
3.19683e-05
3.11534e-05
3.03741e-05
2.96289e-05
2.89165e-05
2.82359e-05
2.75858e-05
2.69655e-05
2.63741e-05
2.58109e-05
2.52754e-05
2.47669e-05
2.42851e-05
2.38294e-05
2.33995e-05
2.29951e-05
2.26156e-05
2.22609e-05
2.19303e-05
2.16236e-05
2.13401e-05
2.10793e-05
2.08405e-05
2.0623e-05
2.04259e-05
2.02484e-05
2.00894e-05
1.99479e-05
1.98228e-05
1.97129e-05
1.96169e-05
1.95336e-05
1.94618e-05
1.94003e-05
1.93481e-05
1.93041e-05
1.92675e-05
1.92378e-05
1.92153e-05
1.92012e-05
0.000939686
0.000835715
0.000745885
0.000668025
0.000600328
0.000541283
0.000489624
0.00044429
0.000404385
0.000369155
0.000337961
0.000310261
0.000285595
0.000263569
0.000243848
0.000226144
0.00021021
0.000195833
0.000182829
0.000171038
0.000160323
0.000150564
0.000141655
0.000133506
0.000126036
0.000119174
0.000112859
0.000107037
0.000101658
9.66809e-05
9.20668e-05
8.77823e-05
8.37973e-05
8.0085e-05
7.66215e-05
7.33852e-05
7.03569e-05
6.75192e-05
6.48564e-05
6.23546e-05
6.00009e-05
5.77839e-05
5.5693e-05
5.37188e-05
5.18528e-05
5.0087e-05
4.84143e-05
4.68282e-05
4.53228e-05
4.38926e-05
4.25327e-05
4.12386e-05
4.0006e-05
3.88312e-05
3.77108e-05
3.66416e-05
3.56206e-05
3.46452e-05
3.3713e-05
3.28219e-05
3.19697e-05
3.11548e-05
3.03755e-05
2.96304e-05
2.8918e-05
2.82373e-05
2.75873e-05
2.6967e-05
2.63756e-05
2.58124e-05
2.52768e-05
2.47684e-05
2.42865e-05
2.38308e-05
2.34008e-05
2.29963e-05
2.26168e-05
2.2262e-05
2.19314e-05
2.16245e-05
2.1341e-05
2.10801e-05
2.08412e-05
2.06236e-05
2.04265e-05
2.02489e-05
2.00898e-05
1.99483e-05
1.98231e-05
1.97131e-05
1.9617e-05
1.95336e-05
1.94618e-05
1.94002e-05
1.9348e-05
1.9304e-05
1.92673e-05
1.92377e-05
1.92152e-05
1.92011e-05
0.000939686
0.000835715
0.000745885
0.000668025
0.000600328
0.000541283
0.000489625
0.00044429
0.000404385
0.000369155
0.000337961
0.000310262
0.000285595
0.00026357
0.000243849
0.000226145
0.000210211
0.000195834
0.00018283
0.000171039
0.000160324
0.000150565
0.000141656
0.000133507
0.000126037
0.000119175
0.00011286
0.000107038
0.000101659
9.6682e-05
9.20679e-05
8.77834e-05
8.37984e-05
8.00862e-05
7.66226e-05
7.33864e-05
7.03581e-05
6.75204e-05
6.48576e-05
6.23558e-05
6.00022e-05
5.77851e-05
5.56943e-05
5.37202e-05
5.18542e-05
5.00884e-05
4.84157e-05
4.68297e-05
4.53243e-05
4.38941e-05
4.25343e-05
4.12401e-05
4.00076e-05
3.88329e-05
3.77125e-05
3.66433e-05
3.56223e-05
3.4647e-05
3.37148e-05
3.28237e-05
3.19716e-05
3.11567e-05
3.03774e-05
2.96323e-05
2.89199e-05
2.82393e-05
2.75892e-05
2.69689e-05
2.63775e-05
2.58143e-05
2.52787e-05
2.47702e-05
2.42882e-05
2.38325e-05
2.34025e-05
2.29979e-05
2.26183e-05
2.22634e-05
2.19327e-05
2.16257e-05
2.13421e-05
2.10811e-05
2.08421e-05
2.06244e-05
2.04271e-05
2.02494e-05
2.00902e-05
1.99486e-05
1.98233e-05
1.97132e-05
1.9617e-05
1.95336e-05
1.94617e-05
1.94001e-05
1.93478e-05
1.93038e-05
1.92672e-05
1.92375e-05
1.92151e-05
1.92009e-05
0.000939686
0.000835715
0.000745885
0.000668025
0.000600329
0.000541284
0.000489625
0.000444291
0.000404386
0.000369156
0.000337962
0.000310263
0.000285596
0.000263571
0.00024385
0.000226146
0.000210212
0.000195835
0.000182831
0.00017104
0.000160325
0.000150566
0.000141657
0.000133508
0.000126038
0.000119176
0.000112862
0.000107039
0.000101661
9.66832e-05
9.20692e-05
8.77847e-05
8.37997e-05
8.00875e-05
7.6624e-05
7.33878e-05
7.03595e-05
6.75218e-05
6.48591e-05
6.23574e-05
6.00037e-05
5.77867e-05
5.56959e-05
5.37218e-05
5.18558e-05
5.00901e-05
4.84175e-05
4.68315e-05
4.53261e-05
4.3896e-05
4.25362e-05
4.12421e-05
4.00096e-05
3.88349e-05
3.77146e-05
3.66454e-05
3.56245e-05
3.46492e-05
3.3717e-05
3.28259e-05
3.19739e-05
3.1159e-05
3.03797e-05
2.96346e-05
2.89223e-05
2.82416e-05
2.75916e-05
2.69712e-05
2.63798e-05
2.58166e-05
2.5281e-05
2.47724e-05
2.42904e-05
2.38345e-05
2.34045e-05
2.29998e-05
2.26201e-05
2.2265e-05
2.19342e-05
2.16272e-05
2.13433e-05
2.10822e-05
2.08431e-05
2.06252e-05
2.04278e-05
2.025e-05
2.00907e-05
1.99489e-05
1.98235e-05
1.97133e-05
1.9617e-05
1.95335e-05
1.94615e-05
1.93999e-05
1.93476e-05
1.93035e-05
1.92669e-05
1.92373e-05
1.92148e-05
1.92006e-05
0.000939686
0.000835716
0.000745885
0.000668026
0.000600329
0.000541284
0.000489626
0.000444292
0.000404387
0.000369157
0.000337963
0.000310264
0.000285597
0.000263572
0.000243851
0.000226147
0.000210213
0.000195836
0.000182832
0.000171042
0.000160327
0.000150567
0.000141659
0.000133509
0.000126039
0.000119178
0.000112863
0.000107041
0.000101662
9.66847e-05
9.20707e-05
8.77862e-05
8.38013e-05
8.00891e-05
7.66256e-05
7.33894e-05
7.03612e-05
6.75235e-05
6.48609e-05
6.23591e-05
6.00056e-05
5.77886e-05
5.56978e-05
5.37238e-05
5.18578e-05
5.00921e-05
4.84196e-05
4.68336e-05
4.53283e-05
4.38982e-05
4.25384e-05
4.12444e-05
4.0012e-05
3.88373e-05
3.7717e-05
3.66479e-05
3.5627e-05
3.46517e-05
3.37196e-05
3.28286e-05
3.19765e-05
3.11617e-05
3.03825e-05
2.96373e-05
2.8925e-05
2.82444e-05
2.75943e-05
2.6974e-05
2.63825e-05
2.58193e-05
2.52836e-05
2.47749e-05
2.42929e-05
2.38369e-05
2.34068e-05
2.3002e-05
2.26222e-05
2.2267e-05
2.1936e-05
2.16288e-05
2.13448e-05
2.10835e-05
2.08442e-05
2.06261e-05
2.04286e-05
2.02506e-05
2.00911e-05
1.99492e-05
1.98236e-05
1.97133e-05
1.96169e-05
1.95333e-05
1.94613e-05
1.93996e-05
1.93473e-05
1.93032e-05
1.92666e-05
1.92369e-05
1.92144e-05
1.92002e-05
0.000939686
0.000835716
0.000745885
0.000668026
0.00060033
0.000541285
0.000489627
0.000444293
0.000404388
0.000369158
0.000337964
0.000310265
0.000285599
0.000263573
0.000243852
0.000226149
0.000210215
0.000195838
0.000182833
0.000171043
0.000160328
0.000150569
0.00014166
0.000133511
0.000126041
0.000119179
0.000112865
0.000107042
0.000101664
9.66864e-05
9.20724e-05
8.7788e-05
8.38031e-05
8.00909e-05
7.66275e-05
7.33913e-05
7.03631e-05
6.75255e-05
6.48629e-05
6.23612e-05
6.00076e-05
5.77907e-05
5.57e-05
5.3726e-05
5.18601e-05
5.00945e-05
4.84219e-05
4.6836e-05
4.53308e-05
4.39008e-05
4.2541e-05
4.1247e-05
4.00147e-05
3.88401e-05
3.77198e-05
3.66507e-05
3.56299e-05
3.46547e-05
3.37226e-05
3.28316e-05
3.19796e-05
3.11648e-05
3.03856e-05
2.96405e-05
2.89282e-05
2.82475e-05
2.75975e-05
2.69771e-05
2.63856e-05
2.58223e-05
2.52866e-05
2.47779e-05
2.42957e-05
2.38397e-05
2.34094e-05
2.30044e-05
2.26245e-05
2.22691e-05
2.1938e-05
2.16306e-05
2.13464e-05
2.10849e-05
2.08454e-05
2.06272e-05
2.04294e-05
2.02512e-05
2.00916e-05
1.99495e-05
1.98238e-05
1.97133e-05
1.96168e-05
1.95331e-05
1.9461e-05
1.93993e-05
1.93469e-05
1.93028e-05
1.92661e-05
1.92364e-05
1.92139e-05
1.91997e-05
0.000939686
0.000835716
0.000745886
0.000668027
0.00060033
0.000541285
0.000489627
0.000444293
0.000404389
0.000369159
0.000337965
0.000310266
0.0002856
0.000263574
0.000243854
0.00022615
0.000210216
0.000195839
0.000182835
0.000171044
0.00016033
0.00015057
0.000141662
0.000133513
0.000126042
0.000119181
0.000112866
0.000107044
0.000101665
9.66882e-05
9.20743e-05
8.77899e-05
8.3805e-05
8.00929e-05
7.66295e-05
7.33934e-05
7.03652e-05
6.75277e-05
6.48651e-05
6.23635e-05
6.001e-05
5.77931e-05
5.57024e-05
5.37285e-05
5.18626e-05
5.00971e-05
4.84246e-05
4.68387e-05
4.53335e-05
4.39036e-05
4.25439e-05
4.125e-05
4.00177e-05
3.88431e-05
3.77229e-05
3.66539e-05
3.56331e-05
3.46579e-05
3.3726e-05
3.2835e-05
3.1983e-05
3.11682e-05
3.03891e-05
2.9644e-05
2.89317e-05
2.8251e-05
2.7601e-05
2.69806e-05
2.63891e-05
2.58257e-05
2.52899e-05
2.47811e-05
2.42989e-05
2.38427e-05
2.34123e-05
2.30072e-05
2.26271e-05
2.22715e-05
2.19402e-05
2.16326e-05
2.13482e-05
2.10864e-05
2.08467e-05
2.06283e-05
2.04303e-05
2.02519e-05
2.0092e-05
1.99498e-05
1.98239e-05
1.97132e-05
1.96166e-05
1.95328e-05
1.94606e-05
1.93988e-05
1.93464e-05
1.93022e-05
1.92655e-05
1.92358e-05
1.92133e-05
1.9199e-05
0.000939686
0.000835716
0.000745886
0.000668027
0.00060033
0.000541286
0.000489628
0.000444294
0.00040439
0.00036916
0.000337966
0.000310267
0.000285601
0.000263576
0.000243855
0.000226152
0.000210218
0.000195841
0.000182836
0.000171046
0.000160331
0.000150572
0.000141664
0.000133514
0.000126044
0.000119183
0.000112868
0.000107046
0.000101667
9.66903e-05
9.20763e-05
8.7792e-05
8.38072e-05
8.00951e-05
7.66318e-05
7.33957e-05
7.03676e-05
6.75301e-05
6.48676e-05
6.2366e-05
6.00125e-05
5.77957e-05
5.57051e-05
5.37312e-05
5.18654e-05
5.00999e-05
4.84275e-05
4.68417e-05
4.53366e-05
4.39067e-05
4.25471e-05
4.12532e-05
4.0021e-05
3.88465e-05
3.77264e-05
3.66574e-05
3.56367e-05
3.46616e-05
3.37296e-05
3.28387e-05
3.19868e-05
3.1172e-05
3.03929e-05
2.96478e-05
2.89355e-05
2.82549e-05
2.76048e-05
2.69844e-05
2.63928e-05
2.58294e-05
2.52936e-05
2.47847e-05
2.43023e-05
2.3846e-05
2.34154e-05
2.30102e-05
2.26299e-05
2.22741e-05
2.19426e-05
2.16347e-05
2.13501e-05
2.10881e-05
2.08481e-05
2.06294e-05
2.04312e-05
2.02526e-05
2.00925e-05
1.995e-05
1.98239e-05
1.97131e-05
1.96163e-05
1.95324e-05
1.94601e-05
1.93982e-05
1.93457e-05
1.93015e-05
1.92648e-05
1.92351e-05
1.92125e-05
1.91982e-05
0.000939686
0.000835716
0.000745886
0.000668027
0.000600331
0.000541287
0.000489629
0.000444295
0.000404391
0.000369161
0.000337967
0.000310268
0.000285602
0.000263577
0.000243856
0.000226153
0.000210219
0.000195842
0.000182838
0.000171048
0.000160333
0.000150574
0.000141665
0.000133516
0.000126046
0.000119185
0.00011287
0.000107048
0.00010167
9.66924e-05
9.20785e-05
8.77942e-05
8.38095e-05
8.00975e-05
7.66342e-05
7.33982e-05
7.03701e-05
6.75326e-05
6.48702e-05
6.23686e-05
6.00153e-05
5.77985e-05
5.5708e-05
5.37342e-05
5.18684e-05
5.0103e-05
4.84306e-05
4.68449e-05
4.53399e-05
4.391e-05
4.25505e-05
4.12567e-05
4.00245e-05
3.88502e-05
3.77301e-05
3.66612e-05
3.56405e-05
3.46655e-05
3.37336e-05
3.28427e-05
3.19909e-05
3.11762e-05
3.0397e-05
2.9652e-05
2.89397e-05
2.82591e-05
2.7609e-05
2.69885e-05
2.63969e-05
2.58335e-05
2.52975e-05
2.47885e-05
2.4306e-05
2.38496e-05
2.34188e-05
2.30134e-05
2.26329e-05
2.22769e-05
2.19451e-05
2.1637e-05
2.13521e-05
2.10899e-05
2.08496e-05
2.06307e-05
2.04322e-05
2.02533e-05
2.0093e-05
1.99503e-05
1.9824e-05
1.9713e-05
1.9616e-05
1.9532e-05
1.94595e-05
1.93976e-05
1.9345e-05
1.93008e-05
1.9264e-05
1.92343e-05
1.92117e-05
1.91973e-05
0.000939687
0.000835716
0.000745886
0.000668027
0.000600331
0.000541287
0.000489629
0.000444296
0.000404391
0.000369162
0.000337969
0.000310269
0.000285604
0.000263578
0.000243858
0.000226154
0.000210221
0.000195844
0.00018284
0.00017105
0.000160335
0.000150576
0.000141667
0.000133518
0.000126048
0.000119187
0.000112872
0.00010705
0.000101672
9.66947e-05
9.20809e-05
8.77966e-05
8.38119e-05
8.01e-05
7.66367e-05
7.34008e-05
7.03728e-05
6.75354e-05
6.4873e-05
6.23715e-05
6.00182e-05
5.78015e-05
5.57111e-05
5.37373e-05
5.18717e-05
5.01063e-05
4.8434e-05
4.68484e-05
4.53434e-05
4.39137e-05
4.25542e-05
4.12605e-05
4.00284e-05
3.88541e-05
3.77341e-05
3.66653e-05
3.56447e-05
3.46697e-05
3.37379e-05
3.28471e-05
3.19952e-05
3.11806e-05
3.04015e-05
2.96565e-05
2.89442e-05
2.82636e-05
2.76134e-05
2.6993e-05
2.64013e-05
2.58378e-05
2.53017e-05
2.47926e-05
2.431e-05
2.38534e-05
2.34225e-05
2.30168e-05
2.26361e-05
2.22799e-05
2.19478e-05
2.16395e-05
2.13543e-05
2.10917e-05
2.08512e-05
2.0632e-05
2.04332e-05
2.0254e-05
2.00935e-05
1.99505e-05
1.9824e-05
1.97128e-05
1.96156e-05
1.95314e-05
1.94589e-05
1.93968e-05
1.93442e-05
1.92998e-05
1.9263e-05
1.92333e-05
1.92106e-05
1.91963e-05
0.000939687
0.000835716
0.000745886
0.000668028
0.000600332
0.000541288
0.00048963
0.000444296
0.000404392
0.000369163
0.00033797
0.000310271
0.000285605
0.00026358
0.000243859
0.000226156
0.000210222
0.000195846
0.000182842
0.000171051
0.000160337
0.000150578
0.000141669
0.00013352
0.00012605
0.000119189
0.000112875
0.000107052
0.000101674
9.66971e-05
9.20833e-05
8.77992e-05
8.38145e-05
8.01026e-05
7.66394e-05
7.34035e-05
7.03756e-05
6.75383e-05
6.4876e-05
6.23746e-05
6.00213e-05
5.78047e-05
5.57143e-05
5.37406e-05
5.18751e-05
5.01098e-05
4.84376e-05
4.6852e-05
4.53471e-05
4.39175e-05
4.25581e-05
4.12645e-05
4.00325e-05
3.88582e-05
3.77383e-05
3.66696e-05
3.56491e-05
3.46741e-05
3.37424e-05
3.28516e-05
3.19999e-05
3.11853e-05
3.04062e-05
2.96612e-05
2.8949e-05
2.82683e-05
2.76182e-05
2.69977e-05
2.6406e-05
2.58423e-05
2.53062e-05
2.4797e-05
2.43142e-05
2.38575e-05
2.34263e-05
2.30205e-05
2.26395e-05
2.22831e-05
2.19507e-05
2.1642e-05
2.13566e-05
2.10937e-05
2.08529e-05
2.06333e-05
2.04342e-05
2.02547e-05
2.00939e-05
1.99507e-05
1.98239e-05
1.97125e-05
1.96152e-05
1.95308e-05
1.94581e-05
1.93959e-05
1.93432e-05
1.92988e-05
1.92619e-05
1.92321e-05
1.92095e-05
1.91951e-05
0.000939687
0.000835716
0.000745887
0.000668028
0.000600332
0.000541288
0.000489631
0.000444297
0.000404393
0.000369164
0.000337971
0.000310272
0.000285606
0.000263581
0.000243861
0.000226158
0.000210224
0.000195847
0.000182843
0.000171053
0.000160339
0.00015058
0.000141671
0.000133522
0.000126053
0.000119191
0.000112877
0.000107055
0.000101677
9.66996e-05
9.20859e-05
8.78018e-05
8.38172e-05
8.01054e-05
7.66423e-05
7.34064e-05
7.03786e-05
6.75413e-05
6.48791e-05
6.23777e-05
6.00246e-05
5.78081e-05
5.57177e-05
5.37441e-05
5.18787e-05
5.01134e-05
4.84413e-05
4.68559e-05
4.53511e-05
4.39215e-05
4.25622e-05
4.12687e-05
4.00367e-05
3.88626e-05
3.77428e-05
3.66741e-05
3.56537e-05
3.46788e-05
3.37472e-05
3.28565e-05
3.20048e-05
3.11902e-05
3.04112e-05
2.96662e-05
2.8954e-05
2.82733e-05
2.76232e-05
2.70026e-05
2.64108e-05
2.58471e-05
2.53109e-05
2.48016e-05
2.43186e-05
2.38617e-05
2.34304e-05
2.30243e-05
2.26431e-05
2.22863e-05
2.19537e-05
2.16447e-05
2.13589e-05
2.10958e-05
2.08546e-05
2.06347e-05
2.04353e-05
2.02555e-05
2.00944e-05
1.99509e-05
1.98238e-05
1.97122e-05
1.96147e-05
1.95301e-05
1.94573e-05
1.9395e-05
1.93421e-05
1.92976e-05
1.92607e-05
1.92308e-05
1.92082e-05
1.91937e-05
0.000939687
0.000835716
0.000745887
0.000668028
0.000600332
0.000541288
0.000489631
0.000444298
0.000404394
0.000369165
0.000337972
0.000310273
0.000285607
0.000263582
0.000243862
0.000226159
0.000210226
0.000195849
0.000182845
0.000171055
0.000160341
0.000150582
0.000141674
0.000133525
0.000126055
0.000119194
0.000112879
0.000107057
0.000101679
9.67022e-05
9.20885e-05
8.78045e-05
8.382e-05
8.01082e-05
7.66452e-05
7.34094e-05
7.03816e-05
6.75445e-05
6.48823e-05
6.2381e-05
6.0028e-05
5.78115e-05
5.57213e-05
5.37478e-05
5.18824e-05
5.01173e-05
4.84453e-05
4.68599e-05
4.53552e-05
4.39257e-05
4.25665e-05
4.12731e-05
4.00412e-05
3.88672e-05
3.77474e-05
3.66788e-05
3.56585e-05
3.46837e-05
3.37521e-05
3.28615e-05
3.20099e-05
3.11953e-05
3.04164e-05
2.96714e-05
2.89592e-05
2.82785e-05
2.76284e-05
2.70078e-05
2.64159e-05
2.58522e-05
2.53158e-05
2.48063e-05
2.43232e-05
2.38661e-05
2.34346e-05
2.30283e-05
2.26468e-05
2.22898e-05
2.19568e-05
2.16475e-05
2.13614e-05
2.10979e-05
2.08564e-05
2.06361e-05
2.04364e-05
2.02563e-05
2.00948e-05
1.9951e-05
1.98237e-05
1.97118e-05
1.96141e-05
1.95293e-05
1.94563e-05
1.93939e-05
1.93409e-05
1.92963e-05
1.92594e-05
1.92294e-05
1.92067e-05
1.91922e-05
0.000939687
0.000835716
0.000745887
0.000668028
0.000600333
0.000541289
0.000489632
0.000444298
0.000404395
0.000369166
0.000337973
0.000310274
0.000285609
0.000263584
0.000243864
0.000226161
0.000210227
0.000195851
0.000182847
0.000171057
0.000160343
0.000150584
0.000141676
0.000133527
0.000126057
0.000119196
0.000112882
0.00010706
0.000101682
9.67048e-05
9.20913e-05
8.78073e-05
8.38228e-05
8.01112e-05
7.66482e-05
7.34125e-05
7.03848e-05
6.75477e-05
6.48856e-05
6.23845e-05
6.00315e-05
5.78151e-05
5.5725e-05
5.37516e-05
5.18863e-05
5.01212e-05
4.84493e-05
4.6864e-05
4.53594e-05
4.393e-05
4.25709e-05
4.12776e-05
4.00458e-05
3.88719e-05
3.77523e-05
3.66838e-05
3.56635e-05
3.46888e-05
3.37573e-05
3.28667e-05
3.20151e-05
3.12007e-05
3.04217e-05
2.96768e-05
2.89646e-05
2.82839e-05
2.76338e-05
2.70131e-05
2.64212e-05
2.58573e-05
2.53209e-05
2.48113e-05
2.4328e-05
2.38707e-05
2.3439e-05
2.30324e-05
2.26506e-05
2.22933e-05
2.19601e-05
2.16504e-05
2.1364e-05
2.11001e-05
2.08582e-05
2.06376e-05
2.04375e-05
2.0257e-05
2.00952e-05
1.99511e-05
1.98235e-05
1.97114e-05
1.96134e-05
1.95284e-05
1.94553e-05
1.93927e-05
1.93396e-05
1.92949e-05
1.92579e-05
1.92279e-05
1.92051e-05
1.91906e-05
0.000939687
0.000835717
0.000745887
0.000668029
0.000600333
0.000541289
0.000489632
0.000444299
0.000404395
0.000369167
0.000337974
0.000310275
0.00028561
0.000263585
0.000243865
0.000226162
0.000210229
0.000195852
0.000182849
0.000171059
0.000160345
0.000150586
0.000141678
0.000133529
0.000126059
0.000119198
0.000112884
0.000107062
0.000101684
9.67075e-05
9.2094e-05
8.78101e-05
8.38258e-05
8.01142e-05
7.66513e-05
7.34157e-05
7.0388e-05
6.7551e-05
6.4889e-05
6.2388e-05
6.00351e-05
5.78188e-05
5.57288e-05
5.37554e-05
5.18902e-05
5.01253e-05
4.84535e-05
4.68683e-05
4.53638e-05
4.39345e-05
4.25755e-05
4.12823e-05
4.00506e-05
3.88768e-05
3.77572e-05
3.66888e-05
3.56687e-05
3.46941e-05
3.37626e-05
3.28721e-05
3.20206e-05
3.12062e-05
3.04273e-05
2.96824e-05
2.89702e-05
2.82895e-05
2.76393e-05
2.70186e-05
2.64267e-05
2.58627e-05
2.53261e-05
2.48163e-05
2.43329e-05
2.38754e-05
2.34434e-05
2.30366e-05
2.26546e-05
2.2297e-05
2.19634e-05
2.16534e-05
2.13666e-05
2.11023e-05
2.08601e-05
2.06391e-05
2.04386e-05
2.02578e-05
2.00957e-05
1.99512e-05
1.98233e-05
1.97109e-05
1.96127e-05
1.95275e-05
1.94541e-05
1.93914e-05
1.93381e-05
1.92934e-05
1.92562e-05
1.92262e-05
1.92034e-05
1.91889e-05
0.000939687
0.000835717
0.000745887
0.000668029
0.000600333
0.00054129
0.000489633
0.0004443
0.000404396
0.000369167
0.000337975
0.000310276
0.000285611
0.000263586
0.000243867
0.000226164
0.000210231
0.000195854
0.000182851
0.000171061
0.000160347
0.000150588
0.00014168
0.000133531
0.000126062
0.000119201
0.000112887
0.000107065
0.000101687
9.67102e-05
9.20968e-05
8.7813e-05
8.38287e-05
8.01172e-05
7.66544e-05
7.34189e-05
7.03914e-05
6.75544e-05
6.48925e-05
6.23915e-05
6.00387e-05
5.78226e-05
5.57326e-05
5.37594e-05
5.18943e-05
5.01295e-05
4.84578e-05
4.68727e-05
4.53683e-05
4.39391e-05
4.25802e-05
4.12871e-05
4.00555e-05
3.88818e-05
3.77623e-05
3.6694e-05
3.56739e-05
3.46994e-05
3.37681e-05
3.28777e-05
3.20262e-05
3.12118e-05
3.0433e-05
2.96881e-05
2.89759e-05
2.82952e-05
2.7645e-05
2.70243e-05
2.64322e-05
2.58682e-05
2.53315e-05
2.48216e-05
2.4338e-05
2.38803e-05
2.3448e-05
2.30409e-05
2.26586e-05
2.23007e-05
2.19668e-05
2.16564e-05
2.13692e-05
2.11046e-05
2.0862e-05
2.06406e-05
2.04397e-05
2.02585e-05
2.00961e-05
1.99513e-05
1.98231e-05
1.97104e-05
1.96119e-05
1.95265e-05
1.94529e-05
1.939e-05
1.93366e-05
1.92917e-05
1.92545e-05
1.92244e-05
1.92015e-05
1.9187e-05
0.000939687
0.000835717
0.000745887
0.000668029
0.000600334
0.00054129
0.000489633
0.0004443
0.000404397
0.000369168
0.000337976
0.000310277
0.000285612
0.000263588
0.000243868
0.000226165
0.000210232
0.000195856
0.000182852
0.000171063
0.000160349
0.00015059
0.000141682
0.000133534
0.000126064
0.000119203
0.000112889
0.000107067
0.00010169
9.6713e-05
9.20997e-05
8.78159e-05
8.38317e-05
8.01203e-05
7.66576e-05
7.34222e-05
7.03947e-05
6.75579e-05
6.48961e-05
6.23952e-05
6.00425e-05
5.78264e-05
5.57366e-05
5.37634e-05
5.18984e-05
5.01337e-05
4.84621e-05
4.68771e-05
4.53728e-05
4.39438e-05
4.2585e-05
4.1292e-05
4.00605e-05
3.88869e-05
3.77675e-05
3.66993e-05
3.56793e-05
3.47049e-05
3.37736e-05
3.28833e-05
3.20319e-05
3.12176e-05
3.04388e-05
2.96939e-05
2.89818e-05
2.83011e-05
2.76508e-05
2.703e-05
2.64379e-05
2.58738e-05
2.53369e-05
2.48269e-05
2.43431e-05
2.38852e-05
2.34527e-05
2.30453e-05
2.26627e-05
2.23045e-05
2.19702e-05
2.16595e-05
2.13719e-05
2.11069e-05
2.08639e-05
2.06421e-05
2.04409e-05
2.02593e-05
2.00965e-05
1.99513e-05
1.98228e-05
1.97098e-05
1.9611e-05
1.95254e-05
1.94516e-05
1.93885e-05
1.9335e-05
1.929e-05
1.92526e-05
1.92225e-05
1.91995e-05
1.9185e-05
0.000939687
0.000835717
0.000745887
0.000668029
0.000600334
0.00054129
0.000489634
0.000444301
0.000404398
0.000369169
0.000337976
0.000310278
0.000285613
0.000263589
0.000243869
0.000226167
0.000210234
0.000195857
0.000182854
0.000171065
0.00016035
0.000150592
0.000141684
0.000133536
0.000126066
0.000119206
0.000112892
0.00010707
0.000101692
9.67157e-05
9.21025e-05
8.78189e-05
8.38348e-05
8.01234e-05
7.66608e-05
7.34255e-05
7.03981e-05
6.75614e-05
6.48997e-05
6.23989e-05
6.00463e-05
5.78303e-05
5.57406e-05
5.37675e-05
5.19026e-05
5.0138e-05
4.84665e-05
4.68817e-05
4.53775e-05
4.39485e-05
4.25898e-05
4.12969e-05
4.00656e-05
3.88921e-05
3.77728e-05
3.67047e-05
3.56848e-05
3.47105e-05
3.37793e-05
3.2889e-05
3.20377e-05
3.12234e-05
3.04447e-05
2.96999e-05
2.89877e-05
2.8307e-05
2.76567e-05
2.70359e-05
2.64437e-05
2.58794e-05
2.53425e-05
2.48323e-05
2.43483e-05
2.38902e-05
2.34575e-05
2.30498e-05
2.26669e-05
2.23083e-05
2.19737e-05
2.16627e-05
2.13747e-05
2.11093e-05
2.08658e-05
2.06437e-05
2.0442e-05
2.026e-05
2.00968e-05
1.99513e-05
1.98225e-05
1.97092e-05
1.96101e-05
1.95242e-05
1.94502e-05
1.9387e-05
1.93333e-05
1.92881e-05
1.92507e-05
1.92204e-05
1.91975e-05
1.91829e-05
0.000939687
0.000835717
0.000745888
0.000668029
0.000600334
0.000541291
0.000489634
0.000444301
0.000404398
0.00036917
0.000337977
0.000310279
0.000285614
0.00026359
0.000243871
0.000226168
0.000210235
0.000195859
0.000182856
0.000171066
0.000160352
0.000150594
0.000141686
0.000133538
0.000126069
0.000119208
0.000112894
0.000107073
0.000101695
9.67185e-05
9.21054e-05
8.78218e-05
8.38378e-05
8.01265e-05
7.6664e-05
7.34288e-05
7.04015e-05
6.75649e-05
6.49033e-05
6.24026e-05
6.00501e-05
5.78342e-05
5.57446e-05
5.37717e-05
5.19069e-05
5.01424e-05
4.8471e-05
4.68862e-05
4.53821e-05
4.39533e-05
4.25948e-05
4.13019e-05
4.00707e-05
3.88973e-05
3.77782e-05
3.67101e-05
3.56904e-05
3.47161e-05
3.3785e-05
3.28948e-05
3.20435e-05
3.12294e-05
3.04506e-05
2.97058e-05
2.89937e-05
2.8313e-05
2.76627e-05
2.70418e-05
2.64495e-05
2.58852e-05
2.53481e-05
2.48377e-05
2.43536e-05
2.38952e-05
2.34622e-05
2.30543e-05
2.26711e-05
2.23122e-05
2.19772e-05
2.16658e-05
2.13774e-05
2.11116e-05
2.08678e-05
2.06452e-05
2.04431e-05
2.02608e-05
2.00972e-05
1.99513e-05
1.98221e-05
1.97085e-05
1.96092e-05
1.9523e-05
1.94488e-05
1.93853e-05
1.93315e-05
1.92862e-05
1.92486e-05
1.92183e-05
1.91953e-05
1.91806e-05
0.000939687
0.000835717
0.000745888
0.00066803
0.000600334
0.000541291
0.000489634
0.000444302
0.000404399
0.00036917
0.000337978
0.00031028
0.000285615
0.000263591
0.000243872
0.000226169
0.000210237
0.000195861
0.000182858
0.000171068
0.000160354
0.000150596
0.000141688
0.00013354
0.000126071
0.00011921
0.000112897
0.000107075
0.000101698
9.67213e-05
9.21082e-05
8.78247e-05
8.38408e-05
8.01297e-05
7.66673e-05
7.34321e-05
7.04049e-05
6.75684e-05
6.49069e-05
6.24063e-05
6.00539e-05
5.78381e-05
5.57486e-05
5.37758e-05
5.19111e-05
5.01467e-05
4.84755e-05
4.68908e-05
4.53868e-05
4.39581e-05
4.25997e-05
4.1307e-05
4.00759e-05
3.89026e-05
3.77835e-05
3.67156e-05
3.56959e-05
3.47218e-05
3.37908e-05
3.29006e-05
3.20494e-05
3.12353e-05
3.04566e-05
2.97119e-05
2.89997e-05
2.8319e-05
2.76687e-05
2.70477e-05
2.64554e-05
2.58909e-05
2.53537e-05
2.48432e-05
2.43588e-05
2.39003e-05
2.34671e-05
2.30589e-05
2.26753e-05
2.23161e-05
2.19808e-05
2.1669e-05
2.13802e-05
2.1114e-05
2.08697e-05
2.06467e-05
2.04443e-05
2.02615e-05
2.00975e-05
1.99513e-05
1.98218e-05
1.97078e-05
1.96082e-05
1.95218e-05
1.94473e-05
1.93836e-05
1.93296e-05
1.92842e-05
1.92465e-05
1.92161e-05
1.9193e-05
1.91783e-05
0.000939687
0.000835717
0.000745888
0.00066803
0.000600335
0.000541291
0.000489635
0.000444302
0.000404399
0.000369171
0.000337979
0.000310281
0.000285616
0.000263592
0.000243873
0.000226171
0.000210238
0.000195862
0.000182859
0.00017107
0.000160356
0.000150598
0.00014169
0.000133542
0.000126073
0.000119213
0.000112899
0.000107078
0.0001017
9.6724e-05
9.2111e-05
8.78277e-05
8.38439e-05
8.01328e-05
7.66705e-05
7.34354e-05
7.04084e-05
6.75719e-05
6.49105e-05
6.241e-05
6.00577e-05
5.78421e-05
5.57527e-05
5.378e-05
5.19154e-05
5.01511e-05
4.84799e-05
4.68954e-05
4.53916e-05
4.3963e-05
4.26046e-05
4.13121e-05
4.00811e-05
3.89078e-05
3.77889e-05
3.67211e-05
3.57015e-05
3.47275e-05
3.37965e-05
3.29065e-05
3.20553e-05
3.12413e-05
3.04626e-05
2.97179e-05
2.90058e-05
2.8325e-05
2.76747e-05
2.70537e-05
2.64613e-05
2.58967e-05
2.53594e-05
2.48487e-05
2.43641e-05
2.39053e-05
2.34719e-05
2.30634e-05
2.26796e-05
2.232e-05
2.19843e-05
2.16721e-05
2.1383e-05
2.11164e-05
2.08717e-05
2.06483e-05
2.04454e-05
2.02622e-05
2.00978e-05
1.99512e-05
1.98214e-05
1.97071e-05
1.96072e-05
1.95205e-05
1.94458e-05
1.93819e-05
1.93277e-05
1.92821e-05
1.92443e-05
1.92138e-05
1.91906e-05
1.91759e-05
0.000939687
0.000835717
0.000745888
0.00066803
0.000600335
0.000541292
0.000489635
0.000444303
0.0004044
0.000369172
0.00033798
0.000310282
0.000285617
0.000263593
0.000243874
0.000226172
0.000210239
0.000195864
0.000182861
0.000171072
0.000160358
0.0001506
0.000141693
0.000133544
0.000126075
0.000119215
0.000112902
0.00010708
0.000101703
9.67267e-05
9.21138e-05
8.78306e-05
8.38468e-05
8.01359e-05
7.66737e-05
7.34387e-05
7.04117e-05
6.75754e-05
6.49141e-05
6.24137e-05
6.00615e-05
5.7846e-05
5.57567e-05
5.37841e-05
5.19196e-05
5.01555e-05
4.84844e-05
4.69e-05
4.53963e-05
4.39678e-05
4.26096e-05
4.13171e-05
4.00862e-05
3.89131e-05
3.77943e-05
3.67266e-05
3.57071e-05
3.47331e-05
3.38023e-05
3.29123e-05
3.20613e-05
3.12472e-05
3.04686e-05
2.97239e-05
2.90118e-05
2.83311e-05
2.76807e-05
2.70596e-05
2.64671e-05
2.59025e-05
2.5365e-05
2.48541e-05
2.43694e-05
2.39104e-05
2.34767e-05
2.3068e-05
2.26838e-05
2.23239e-05
2.19879e-05
2.16753e-05
2.13858e-05
2.11187e-05
2.08736e-05
2.06498e-05
2.04465e-05
2.02629e-05
2.00981e-05
1.99512e-05
1.98209e-05
1.97063e-05
1.96061e-05
1.95191e-05
1.94442e-05
1.93801e-05
1.93257e-05
1.928e-05
1.92421e-05
1.92114e-05
1.91882e-05
1.91735e-05
0.000939687
0.000835717
0.000745888
0.00066803
0.000600335
0.000541292
0.000489636
0.000444303
0.0004044
0.000369172
0.00033798
0.000310283
0.000285618
0.000263594
0.000243875
0.000226173
0.000210241
0.000195865
0.000182862
0.000171073
0.00016036
0.000150602
0.000141694
0.000133546
0.000126078
0.000119217
0.000112904
0.000107083
0.000101705
9.67293e-05
9.21166e-05
8.78334e-05
8.38498e-05
8.01389e-05
7.66768e-05
7.3442e-05
7.04151e-05
6.75789e-05
6.49177e-05
6.24174e-05
6.00653e-05
5.78499e-05
5.57607e-05
5.37882e-05
5.19239e-05
5.01598e-05
4.84889e-05
4.69046e-05
4.54009e-05
4.39726e-05
4.26145e-05
4.13221e-05
4.00913e-05
3.89184e-05
3.77997e-05
3.67321e-05
3.57127e-05
3.47388e-05
3.3808e-05
3.29181e-05
3.20671e-05
3.12532e-05
3.04746e-05
2.97299e-05
2.90178e-05
2.83371e-05