/*--------------------------------*- C++ -*----------------------------------*\
  =========                 |
  \\      /  F ield         | OpenFOAM: The Open Source CFD Toolbox
   \\    /   O peration     | Website:  https://openfoam.org
    \\  /    A nd           | Version:  11
     \\/     M anipulation  |
\*---------------------------------------------------------------------------*/
FoamFile
{
    format      ascii;
    class       volScalarField;
    location    "466";
    object      omega;
}
// * * * * * * * * * * * * * * * * * * * * * * * * * * * * * * * * * * * * * //

dimensions      [0 0 -1 0 0 0 0];

internalField   nonuniform List<scalar> 
10000
(
0.961693
0.892185
0.829086
0.771729
0.719523
0.671944
0.628522
0.58884
0.552527
0.51925
0.488714
0.460654
0.434833
0.411039
0.389084
0.368797
0.350026
0.332634
0.316499
0.301508
0.287564
0.274576
0.262464
0.251153
0.240578
0.230679
0.221402
0.212697
0.20452
0.196829
0.189589
0.182765
0.176327
0.170246
0.164496
0.159055
0.1539
0.149012
0.144372
0.139964
0.135772
0.131783
0.127983
0.124359
0.120901
0.117599
0.114442
0.111423
0.108531
0.105761
0.103103
0.100553
0.0981028
0.0957473
0.0934808
0.0912981
0.0891941
0.0871644
0.0852046
0.0833104
0.081478
0.0797038
0.0779841
0.0763156
0.0746952
0.07312
0.071587
0.0700938
0.0686378
0.0672168
0.0658287
0.0644716
0.0631441
0.0618446
0.0605721
0.0593257
0.0581049
0.0569093
0.0557389
0.054594
0.0534752
0.0523833
0.0513193
0.0502845
0.0492805
0.0483091
0.047372
0.0464715
0.0456098
0.0447891
0.0440124
0.0432824
0.0426029
0.0419779
0.0414126
0.0409131
0.0404873
0.0401451
0.0398993
0.0397664
0.961693
0.892186
0.829086
0.771729
0.719523
0.671944
0.628522
0.58884
0.552527
0.51925
0.488714
0.460654
0.434833
0.41104
0.389084
0.368797
0.350026
0.332635
0.316499
0.301509
0.287564
0.274577
0.262464
0.251153
0.240578
0.230679
0.221402
0.212697
0.20452
0.19683
0.18959
0.182766
0.176327
0.170246
0.164497
0.159055
0.1539
0.149012
0.144372
0.139964
0.135773
0.131783
0.127983
0.12436
0.120902
0.1176
0.114443
0.111423
0.108532
0.105761
0.103104
0.100554
0.0981036
0.0957481
0.0934817
0.0912989
0.0891951
0.0871654
0.0852056
0.0833115
0.0814792
0.079705
0.0779854
0.076317
0.0746968
0.0731216
0.0715888
0.0700956
0.0686397
0.0672188
0.0658309
0.064474
0.0631465
0.0618472
0.0605748
0.0593286
0.0581078
0.0569123
0.055742
0.0545973
0.0534785
0.0523867
0.0513228
0.0502881
0.0492842
0.0483128
0.0473758
0.0464752
0.0456133
0.0447925
0.0440156
0.0432856
0.0426059
0.0419808
0.0414153
0.0409157
0.0404898
0.0401475
0.0399017
0.0397687
0.961693
0.892186
0.829086
0.771729
0.719524
0.671944
0.628522
0.58884
0.552527
0.519251
0.488714
0.460654
0.434833
0.41104
0.389085
0.368798
0.350027
0.332635
0.316499
0.301509
0.287565
0.274577
0.262464
0.251153
0.240579
0.23068
0.221402
0.212697
0.20452
0.19683
0.18959
0.182766
0.176328
0.170247
0.164497
0.159056
0.153901
0.149013
0.144373
0.139965
0.135774
0.131784
0.127984
0.124361
0.120903
0.117601
0.114444
0.111424
0.108533
0.105762
0.103105
0.100555
0.0981049
0.0957495
0.0934831
0.0913004
0.0891967
0.0871671
0.0852074
0.0833134
0.0814812
0.0797071
0.0779876
0.0763194
0.0746993
0.0731243
0.0715916
0.0700987
0.068643
0.0672223
0.0658345
0.0644778
0.0631506
0.0618515
0.0605794
0.0593334
0.0581128
0.0569176
0.0557475
0.0546029
0.0534843
0.0523926
0.0513288
0.0502943
0.0492905
0.0483191
0.0473821
0.0464815
0.0456195
0.0447986
0.0440215
0.0432913
0.0426114
0.0419861
0.0414205
0.0409207
0.0404946
0.0401522
0.0399062
0.0397732
0.961693
0.892186
0.829086
0.771729
0.719524
0.671944
0.628522
0.588841
0.552527
0.519251
0.488715
0.460654
0.434834
0.41104
0.389085
0.368798
0.350027
0.332635
0.3165
0.30151
0.287565
0.274578
0.262465
0.251154
0.240579
0.23068
0.221403
0.212698
0.204521
0.196831
0.189591
0.182767
0.176329
0.170248
0.164498
0.159057
0.153902
0.149014
0.144374
0.139966
0.135775
0.131785
0.127985
0.124362
0.120904
0.117602
0.114445
0.111426
0.108534
0.105764
0.103107
0.100557
0.0981068
0.0957515
0.0934852
0.0913026
0.0891989
0.0871695
0.0852099
0.0833161
0.0814841
0.0797101
0.0779908
0.0763228
0.0747029
0.0731281
0.0715957
0.070103
0.0686475
0.0672271
0.0658397
0.0644833
0.0631564
0.0618576
0.0605858
0.0593401
0.0581199
0.0569249
0.0557551
0.0546108
0.0534925
0.052401
0.0513374
0.050303
0.0492993
0.048328
0.047391
0.0464903
0.0456282
0.0448072
0.0440299
0.0432995
0.0426194
0.0419938
0.0414279
0.0409279
0.0405016
0.040159
0.0399129
0.0397798
0.961693
0.892186
0.829086
0.771729
0.719524
0.671944
0.628523
0.588841
0.552528
0.519251
0.488715
0.460655
0.434834
0.411041
0.389086
0.368799
0.350028
0.332636
0.3165
0.30151
0.287566
0.274578
0.262466
0.251155
0.24058
0.230681
0.221404
0.212699
0.204522
0.196832
0.189592
0.182768
0.17633
0.170249
0.164499
0.159058
0.153903
0.149015
0.144376
0.139968
0.135776
0.131787
0.127987
0.124363
0.120906
0.117604
0.114447
0.111428
0.108536
0.105766
0.103109
0.100559
0.0981092
0.095754
0.0934878
0.0913054
0.0892019
0.0871726
0.0852132
0.0833196
0.0814877
0.079714
0.0779949
0.0763271
0.0747075
0.073133
0.0716009
0.0701085
0.0686534
0.0672334
0.0658463
0.0644903
0.0631638
0.0618655
0.0605941
0.0593488
0.058129
0.0569344
0.0557649
0.054621
0.053503
0.0524117
0.0513484
0.0503141
0.0493106
0.0483393
0.0474023
0.0465016
0.0456394
0.0448182
0.0440407
0.04331
0.0426296
0.0420038
0.0414375
0.0409372
0.0405106
0.0401678
0.0399216
0.0397884
0.961693
0.892186
0.829086
0.771729
0.719524
0.671945
0.628523
0.588841
0.552528
0.519252
0.488716
0.460655
0.434835
0.411041
0.389086
0.368799
0.350029
0.332637
0.316501
0.301511
0.287567
0.274579
0.262466
0.251156
0.240581
0.230682
0.221405
0.2127
0.204523
0.196833
0.189593
0.182769
0.176331
0.17025
0.164501
0.15906
0.153905
0.149017
0.144377
0.139969
0.135778
0.131789
0.127989
0.124366
0.120908
0.117606
0.11445
0.11143
0.108539
0.105769
0.103112
0.100562
0.0981122
0.0957571
0.0934911
0.0913089
0.0892055
0.0871764
0.0852172
0.0833238
0.0814922
0.0797187
0.0779999
0.0763324
0.0747131
0.073139
0.0716072
0.0701152
0.0686605
0.0672409
0.0658543
0.0644988
0.0631728
0.0618749
0.060604
0.0593592
0.0581399
0.0569458
0.0557768
0.0546332
0.0535155
0.0524247
0.0513615
0.0503275
0.0493241
0.0483529
0.0474159
0.0465152
0.0456528
0.0448314
0.0440537
0.0433226
0.0426419
0.0420157
0.0414492
0.0409485
0.0405216
0.0401785
0.0399321
0.0397987
0.961693
0.892186
0.829086
0.771729
0.719524
0.671945
0.628523
0.588842
0.552529
0.519252
0.488716
0.460656
0.434835
0.411042
0.389087
0.3688
0.350029
0.332638
0.316502
0.301512
0.287568
0.27458
0.262467
0.251157
0.240582
0.230683
0.221406
0.212701
0.204525
0.196835
0.189595
0.182771
0.176333
0.170252
0.164502
0.159061
0.153907
0.149019
0.144379
0.139971
0.13578
0.131791
0.127991
0.124368
0.120911
0.117609
0.114452
0.111433
0.108542
0.105772
0.103115
0.100565
0.0981156
0.0957608
0.0934949
0.0913129
0.0892097
0.0871809
0.0852219
0.0833287
0.0814974
0.0797242
0.0780058
0.0763386
0.0747196
0.0731459
0.0716146
0.070123
0.0686688
0.0672497
0.0658636
0.0645086
0.0631832
0.0618858
0.0606155
0.0593713
0.0581525
0.0569589
0.0557904
0.0546473
0.0535301
0.0524396
0.0513768
0.050343
0.0493397
0.0483686
0.0474317
0.0465308
0.0456683
0.0448467
0.0440686
0.0433373
0.0426562
0.0420296
0.0414627
0.0409616
0.0405344
0.040191
0.0399442
0.0398107
0.961693
0.892186
0.829086
0.771729
0.719524
0.671945
0.628523
0.588842
0.552529
0.519253
0.488717
0.460657
0.434836
0.411043
0.389088
0.368801
0.35003
0.332638
0.316503
0.301513
0.287569
0.274581
0.262469
0.251158
0.240583
0.230685
0.221408
0.212703
0.204526
0.196836
0.189596
0.182773
0.176334
0.170254
0.164504
0.159063
0.153909
0.149021
0.144381
0.139974
0.135783
0.131793
0.127994
0.124371
0.120913
0.117611
0.114455
0.111436
0.108545
0.105775
0.103119
0.100569
0.0981196
0.0957649
0.0934992
0.0913174
0.0892145
0.0871859
0.0852272
0.0833343
0.0815033
0.0797305
0.0780123
0.0763456
0.074727
0.0731537
0.0716229
0.0701318
0.0686781
0.0672596
0.065874
0.0645197
0.0631948
0.0618981
0.0606284
0.0593848
0.0581667
0.0569737
0.0558057
0.0546632
0.0535464
0.0524563
0.0513938
0.0503603
0.0493572
0.0483863
0.0474493
0.0465483
0.0456857
0.0448638
0.0440855
0.0433538
0.0426723
0.0420453
0.0414779
0.0409764
0.0405487
0.040205
0.039958
0.0398242
0.961693
0.892186
0.829086
0.771729
0.719524
0.671945
0.628523
0.588842
0.552529
0.519253
0.488717
0.460657
0.434836
0.411043
0.389088
0.368802
0.350031
0.332639
0.316504
0.301514
0.28757
0.274582
0.26247
0.251159
0.240585
0.230686
0.221409
0.212704
0.204528
0.196838
0.189598
0.182774
0.176336
0.170255
0.164506
0.159065
0.153911
0.149023
0.144384
0.139976
0.135785
0.131796
0.127996
0.124373
0.120916
0.117615
0.114459
0.111439
0.108549
0.105779
0.103123
0.100573
0.0981239
0.0957695
0.093504
0.0913224
0.0892198
0.0871914
0.085233
0.0833405
0.0815098
0.0797374
0.0780196
0.0763533
0.0747352
0.0731624
0.071632
0.0701415
0.0686884
0.0672705
0.0658855
0.0645318
0.0632077
0.0619117
0.0606427
0.0593997
0.0581823
0.0569899
0.0558226
0.0546806
0.0535643
0.0524747
0.0514126
0.0503794
0.0493765
0.0484056
0.0474686
0.0465676
0.0457048
0.0448827
0.044104
0.0433719
0.04269
0.0420625
0.0414946
0.0409926
0.0405645
0.0402204
0.0399731
0.0398392
0.961693
0.892186
0.829086
0.771729
0.719524
0.671945
0.628524
0.588842
0.55253
0.519253
0.488718
0.460658
0.434837
0.411044
0.389089
0.368803
0.350032
0.33264
0.316505
0.301515
0.287571
0.274584
0.262471
0.251161
0.240586
0.230688
0.221411
0.212706
0.204529
0.19684
0.1896
0.182776
0.176338
0.170258
0.164509
0.159068
0.153913
0.149026
0.144386
0.139979
0.135788
0.131799
0.127999
0.124377
0.12092
0.117618
0.114462
0.111443
0.108553
0.105783
0.103127
0.100578
0.0981287
0.0957744
0.0935093
0.0913279
0.0892256
0.0871975
0.0852394
0.0833472
0.0815169
0.0797449
0.0780276
0.0763617
0.0747441
0.0731718
0.071642
0.0701521
0.0686996
0.0672823
0.0658981
0.0645451
0.0632216
0.0619264
0.0606581
0.0594159
0.0581991
0.0570075
0.0558408
0.0546994
0.0535837
0.0524945
0.0514328
0.0503999
0.0493972
0.0484265
0.0474895
0.0465884
0.0457254
0.044903
0.044124
0.0433915
0.0427091
0.0420811
0.0415127
0.0410103
0.0405817
0.0402372
0.0399895
0.0398554
0.961693
0.892186
0.829086
0.771729
0.719524
0.671945
0.628524
0.588843
0.55253
0.519254
0.488718
0.460658
0.434838
0.411045
0.38909
0.368803
0.350033
0.332641
0.316506
0.301516
0.287572
0.274585
0.262472
0.251162
0.240588
0.230689
0.221412
0.212708
0.204531
0.196841
0.189602
0.182778
0.17634
0.17026
0.164511
0.15907
0.153916
0.149028
0.144389
0.139982
0.135791
0.131802
0.128003
0.12438
0.120923
0.117622
0.114466
0.111447
0.108557
0.105787
0.103132
0.100582
0.0981338
0.0957798
0.0935149
0.0913338
0.0892317
0.087204
0.0852463
0.0833544
0.0815246
0.0797529
0.0780361
0.0763707
0.0747536
0.0731819
0.0716527
0.0701634
0.0687116
0.067295
0.0659114
0.0645592
0.0632365
0.061942
0.0606745
0.0594331
0.0582171
0.0570262
0.0558602
0.0547195
0.0536044
0.0525157
0.0514544
0.0504218
0.0494194
0.0484487
0.0475118
0.0466106
0.0457474
0.0449248
0.0441454
0.0434124
0.0427296
0.0421011
0.0415321
0.0410291
0.0406001
0.0402551
0.0400072
0.0398728
0.961693
0.892186
0.829086
0.771729
0.719524
0.671945
0.628524
0.588843
0.55253
0.519254
0.488718
0.460659
0.434838
0.411045
0.389091
0.368804
0.350034
0.332642
0.316507
0.301517
0.287574
0.274586
0.262474
0.251164
0.240589
0.230691
0.221414
0.21271
0.204533
0.196843
0.189604
0.18278
0.176343
0.170262
0.164513
0.159073
0.153918
0.149031
0.144392
0.139985
0.135794
0.131806
0.128006
0.124384
0.120927
0.117626
0.11447
0.111452
0.108561
0.105792
0.103136
0.100588
0.0981392
0.0957855
0.0935208
0.0913401
0.0892383
0.087211
0.0852536
0.0833621
0.0815327
0.0797615
0.0780451
0.0763803
0.0747637
0.0731926
0.071664
0.0701754
0.0687243
0.0673084
0.0659256
0.0645741
0.0632523
0.0619586
0.0606919
0.0594513
0.0582361
0.0570459
0.0558807
0.0547406
0.0536261
0.052538
0.0514772
0.0504449
0.0494427
0.0484722
0.0475353
0.046634
0.0457706
0.0449477
0.0441679
0.0434345
0.0427512
0.0421221
0.0415526
0.0410491
0.0406196
0.0402741
0.0400258
0.0398912
0.961693
0.892186
0.829086
0.771729
0.719524
0.671945
0.628524
0.588843
0.55253
0.519254
0.488719
0.460659
0.434839
0.411046
0.389091
0.368805
0.350035
0.332643
0.316508
0.301519
0.287575
0.274587
0.262475
0.251165
0.240591
0.230692
0.221416
0.212711
0.204535
0.196845
0.189606
0.182783
0.176345
0.170265
0.164516
0.159075
0.153921
0.149034
0.144395
0.139988
0.135797
0.131809
0.12801
0.124387
0.120931
0.11763
0.114475
0.111456
0.108566
0.105797
0.103142
0.100593
0.0981449
0.0957914
0.0935271
0.0913467
0.0892453
0.0872182
0.0852613
0.0833702
0.0815412
0.0797705
0.0780547
0.0763903
0.0747744
0.0732038
0.0716759
0.070188
0.0687375
0.0673224
0.0659404
0.0645898
0.0632687
0.0619759
0.0607101
0.0594703
0.0582559
0.0570666
0.0559021
0.0547627
0.0536489
0.0525613
0.0515009
0.050469
0.0494671
0.0484967
0.0475598
0.0466585
0.0457949
0.0449716
0.0441915
0.0434577
0.0427738
0.0421442
0.0415741
0.04107
0.0406399
0.040294
0.0400453
0.0399105
0.961693
0.892186
0.829086
0.771729
0.719524
0.671945
0.628524
0.588843
0.55253
0.519255
0.488719
0.460659
0.434839
0.411047
0.389092
0.368806
0.350035
0.332644
0.316509
0.30152
0.287576
0.274589
0.262477
0.251167
0.240592
0.230694
0.221417
0.212713
0.204537
0.196848
0.189608
0.182785
0.176347
0.170267
0.164519
0.159078
0.153924
0.149037
0.144398
0.139991
0.135801
0.131813
0.128014
0.124391
0.120935
0.117634
0.114479
0.111461
0.108571
0.105802
0.103147
0.100599
0.0981508
0.0957977
0.0935336
0.0913535
0.0892525
0.0872258
0.0852693
0.0833786
0.0815501
0.0797799
0.0780646
0.0764008
0.0747854
0.0732155
0.0716883
0.070201
0.0687514
0.067337
0.0659559
0.064606
0.0632858
0.0619939
0.0607289
0.05949
0.0582765
0.057088
0.0559243
0.0547856
0.0536724
0.0525854
0.0515255
0.050494
0.0494923
0.0485221
0.0475853
0.0466838
0.04582
0.0449965
0.044216
0.0434817
0.0427972
0.0421671
0.0415964
0.0410918
0.0406611
0.0403147
0.0400657
0.0399306
0.961693
0.892186
0.829086
0.771729
0.719524
0.671946
0.628524
0.588843
0.552531
0.519255
0.488719
0.46066
0.43484
0.411047
0.389093
0.368807
0.350036
0.332645
0.31651
0.301521
0.287577
0.27459
0.262478
0.251168
0.240594
0.230696
0.221419
0.212715
0.204539
0.19685
0.18961
0.182787
0.17635
0.17027
0.164521
0.159081
0.153927
0.14904
0.144402
0.139995
0.135804
0.131816
0.128017
0.124395
0.120939
0.117639
0.114484
0.111466
0.108576
0.105808
0.103153
0.100604
0.098157
0.0958041
0.0935404
0.0913606
0.0892599
0.0872337
0.0852775
0.0833874
0.0815593
0.0797896
0.0780748
0.0764116
0.0747969
0.0732276
0.071701
0.0702145
0.0687656
0.0673521
0.0659718
0.0646228
0.0633035
0.0620124
0.0607484
0.0595104
0.0582977
0.05711
0.0559471
0.0548092
0.0536967
0.0526102
0.0515508
0.0505197
0.0495183
0.0485483
0.0476114
0.0467099
0.0458459
0.0450221
0.0442412
0.0435064
0.0428215
0.0421907
0.0416195
0.0411142
0.040683
0.0403361
0.0400867
0.0399514
0.961693
0.892186
0.829086
0.771729
0.719524
0.671946
0.628524
0.588843
0.552531
0.519255
0.48872
0.46066
0.43484
0.411048
0.389093
0.368807
0.350037
0.332646
0.316511
0.301522
0.287578
0.274591
0.262479
0.25117
0.240596
0.230697
0.221421
0.212717
0.204541
0.196852
0.189613
0.18279
0.176352
0.170272
0.164524
0.159084
0.15393
0.149043
0.144405
0.139998
0.135808
0.13182
0.128021
0.1244
0.120944
0.117643
0.114489
0.111471
0.108581
0.105813
0.103158
0.100611
0.0981633
0.0958107
0.0935474
0.091368
0.0892676
0.0872418
0.0852861
0.0833963
0.0815687
0.0797996
0.0780853
0.0764227
0.0748086
0.07324
0.0717142
0.0702284
0.0687803
0.0673675
0.0659881
0.06464
0.0633216
0.0620314
0.0607683
0.0595312
0.0583194
0.0571326
0.0559705
0.0548333
0.0537215
0.0526356
0.0515768
0.050546
0.0495449
0.048575
0.0476382
0.0467366
0.0458725
0.0450483
0.044267
0.0435317
0.0428463
0.0422149
0.0416431
0.0411372
0.0407054
0.0403581
0.0401082
0.0399727
0.961692
0.892185
0.829086
0.771729
0.719524
0.671946
0.628524
0.588843
0.552531
0.519255
0.48872
0.460661
0.434841
0.411048
0.389094
0.368808
0.350038
0.332647
0.316512
0.301523
0.28758
0.274593
0.262481
0.251171
0.240597
0.230699
0.221423
0.212719
0.204543
0.196854
0.189615
0.182792
0.176355
0.170275
0.164527
0.159087
0.153933
0.149046
0.144408
0.140002
0.135812
0.131824
0.128026
0.124404
0.120948
0.117648
0.114493
0.111476
0.108587
0.105819
0.103164
0.100617
0.0981697
0.0958175
0.0935545
0.0913754
0.0892755
0.0872501
0.0852948
0.0834055
0.0815784
0.0798098
0.0780961
0.0764341
0.0748206
0.0732527
0.0717276
0.0702426
0.0687952
0.0673833
0.0660047
0.0646575
0.06334
0.0620508
0.0607885
0.0595524
0.0583415
0.0571555
0.0559943
0.0548579
0.0537467
0.0526615
0.0516031
0.0505728
0.0495719
0.0486022
0.0476655
0.0467638
0.0458995
0.045075
0.0442933
0.0435576
0.0428716
0.0422396
0.0416672
0.0411607
0.0407283
0.0403804
0.0401302
0.0399944
0.961692
0.892185
0.829086
0.771729
0.719524
0.671946
0.628524
0.588843
0.552531
0.519255
0.48872
0.460661
0.434841
0.411049
0.389094
0.368809
0.350039
0.332648
0.316513
0.301524
0.287581
0.274594
0.262482
0.251172
0.240599
0.230701
0.221425
0.212721
0.204545
0.196856
0.189617
0.182795
0.176357
0.170278
0.16453
0.15909
0.153936
0.14905
0.144412
0.140005
0.135816
0.131828
0.12803
0.124408
0.120953
0.117653
0.114498
0.111481
0.108592
0.105824
0.10317
0.100623
0.0981763
0.0958244
0.0935617
0.0913831
0.0892835
0.0872585
0.0853036
0.0834149
0.0815883
0.0798202
0.0781071
0.0764457
0.0748328
0.0732656
0.0717412
0.0702569
0.0688104
0.0673993
0.0660216
0.0646752
0.0633587
0.0620704
0.0608091
0.0595738
0.0583639
0.0571788
0.0560184
0.0548827
0.0537723
0.0526877
0.0516298
0.0505999
0.0495993
0.0486298
0.0476931
0.0467914
0.0459268
0.0451021
0.04432
0.0435838
0.0428972
0.0422647
0.0416916
0.0411845
0.0407515
0.0404031
0.0401525
0.0400165
0.961692
0.892185
0.829086
0.771729
0.719524
0.671946
0.628524
0.588843
0.552531
0.519256
0.48872
0.460661
0.434841
0.411049
0.389095
0.368809
0.350039
0.332649
0.316514
0.301525
0.287582
0.274595
0.262483
0.251174
0.2406
0.230703
0.221426
0.212723
0.204547
0.196858
0.18962
0.182797
0.17636
0.17028
0.164533
0.159093
0.15394
0.149053
0.144415
0.140009
0.135819
0.131832
0.128034
0.124413
0.120957
0.117657
0.114503
0.111486
0.108598
0.10583
0.103176
0.100629
0.098183
0.0958314
0.0935691
0.0913908
0.0892916
0.087267
0.0853126
0.0834243
0.0815982
0.0798306
0.0781181
0.0764573
0.0748452
0.0732786
0.0717549
0.0702714
0.0688257
0.0674155
0.0660386
0.0646932
0.0633775
0.0620901
0.0608298
0.0595954
0.0583864
0.0572022
0.0560426
0.0549078
0.053798
0.052714
0.0516567
0.0506272
0.049627
0.0486576
0.047721
0.0468191
0.0459544
0.0451294
0.0443469
0.0436102
0.0429231
0.04229
0.0417163
0.0412085
0.040775
0.0404261
0.040175
0.0400387
0.961692
0.892185
0.829086
0.771729
0.719524
0.671946
0.628524
0.588844
0.552531
0.519256
0.488721
0.460661
0.434842
0.411049
0.389095
0.36881
0.35004
0.332649
0.316515
0.301526
0.287583
0.274596
0.262485
0.251175
0.240602
0.230704
0.221428
0.212725
0.204549
0.19686
0.189622
0.182799
0.176363
0.170283
0.164535
0.159096
0.153943
0.149056
0.144419
0.140013
0.135823
0.131836
0.128038
0.124417
0.120962
0.117662
0.114508
0.111492
0.108603
0.105836
0.103182
0.100636
0.0981897
0.0958384
0.0935764
0.0913985
0.0892998
0.0872756
0.0853216
0.0834338
0.0816082
0.0798412
0.0781293
0.0764691
0.0748576
0.0732917
0.0717688
0.0702861
0.0688411
0.0674317
0.0660557
0.0647112
0.0633964
0.06211
0.0608506
0.0596172
0.0584091
0.0572257
0.056067
0.0549329
0.0538239
0.0527405
0.0516837
0.0506546
0.0496547
0.0486855
0.0477489
0.0468471
0.0459822
0.0451569
0.044374
0.0436368
0.0429492
0.0423155
0.0417411
0.0412328
0.0407986
0.0404492
0.0401977
0.0400612
0.961692
0.892185
0.829086
0.771729
0.719524
0.671946
0.628524
0.588844
0.552531
0.519256
0.488721
0.460662
0.434842
0.41105
0.389096
0.36881
0.350041
0.33265
0.316516
0.301527
0.287584
0.274597
0.262486
0.251177
0.240603
0.230706
0.22143
0.212727
0.204551
0.196863
0.189624
0.182802
0.176365
0.170286
0.164538
0.159099
0.153946
0.14906
0.144422
0.140016
0.135827
0.13184
0.128042
0.124421
0.120966
0.117667
0.114513
0.111497
0.108609
0.105842
0.103188
0.100642
0.0981964
0.0958455
0.0935839
0.0914063
0.089308
0.0872842
0.0853307
0.0834434
0.0816183
0.0798518
0.0781405
0.0764809
0.07487
0.0733049
0.0717826
0.0703007
0.0688566
0.067448
0.0660729
0.0647292
0.0634154
0.0621299
0.0608714
0.0596389
0.0584317
0.0572492
0.0560913
0.054958
0.0538497
0.052767
0.0517107
0.050682
0.0496824
0.0487134
0.0477769
0.046875
0.0460099
0.0451843
0.0444011
0.0436635
0.0429753
0.042341
0.041766
0.041257
0.0408223
0.0404723
0.0402204
0.0400836
0.961692
0.892185
0.829086
0.771729
0.719524
0.671946
0.628524
0.588844
0.552531
0.519256
0.488721
0.460662
0.434842
0.41105
0.389096
0.368811
0.350041
0.332651
0.316516
0.301528
0.287585
0.274599
0.262487
0.251178
0.240605
0.230707
0.221432
0.212728
0.204553
0.196865
0.189626
0.182804
0.176368
0.170288
0.164541
0.159102
0.153949
0.149063
0.144425
0.14002
0.135831
0.131844
0.128046
0.124426
0.120971
0.117672
0.114519
0.111502
0.108614
0.105848
0.103195
0.100649
0.0982031
0.0958526
0.0935913
0.0914141
0.0893162
0.0872928
0.0853398
0.0834529
0.0816284
0.0798624
0.0781516
0.0764927
0.0748825
0.073318
0.0717965
0.0703153
0.068872
0.0674642
0.0660899
0.0647472
0.0634343
0.0621497
0.0608921
0.0596606
0.0584543
0.0572727
0.0561156
0.0549831
0.0538754
0.0527933
0.0517376
0.0507093
0.04971
0.0487412
0.0478048
0.0469028
0.0460376
0.0452117
0.0444281
0.04369
0.0430013
0.0423664
0.0417909
0.0412813
0.0408459
0.0404954
0.0402431
0.0401061
0.961692
0.892185
0.829086
0.771729
0.719524
0.671946
0.628524
0.588844
0.552531
0.519256
0.488721
0.460662
0.434842
0.411051
0.389097
0.368811
0.350042
0.332651
0.316517
0.301529
0.287586
0.2746
0.262488
0.251179
0.240606
0.230709
0.221433
0.21273
0.204555
0.196867
0.189628
0.182806
0.17637
0.170291
0.164544
0.159105
0.153952
0.149066
0.144429
0.140023
0.135835
0.131848
0.128051
0.12443
0.120976
0.117677
0.114524
0.111507
0.10862
0.105853
0.103201
0.100655
0.0982098
0.0958596
0.0935987
0.0914219
0.0893243
0.0873014
0.0853488
0.0834624
0.0816384
0.079873
0.0781628
0.0765044
0.0748948
0.073331
0.0718103
0.0703298
0.0688873
0.0674804
0.0661069
0.0647651
0.063453
0.0621694
0.0609127
0.0596821
0.0584767
0.0572959
0.0561397
0.0550079
0.053901
0.0528195
0.0517643
0.0507365
0.0497374
0.0487688
0.0478325
0.0469305
0.0460651
0.045239
0.044455
0.0437164
0.0430272
0.0423918
0.0418156
0.0413054
0.0408695
0.0405184
0.0402657
0.0401284
0.961692
0.892185
0.829086
0.771729
0.719524
0.671945
0.628524
0.588844
0.552532
0.519256
0.488721
0.460662
0.434843
0.411051
0.389097
0.368812
0.350042
0.332652
0.316518
0.301529
0.287587
0.274601
0.26249
0.251181
0.240607
0.23071
0.221435
0.212732
0.204557
0.196869
0.189631
0.182809
0.176372
0.170294
0.164546
0.159107
0.153955
0.149069
0.144432
0.140027
0.135838
0.131852
0.128055
0.124434
0.12098
0.117681
0.114529
0.111513
0.108625
0.105859
0.103207
0.100661
0.0982165
0.0958666
0.093606
0.0914296
0.0893324
0.0873099
0.0853578
0.0834719
0.0816483
0.0798835
0.0781738
0.0765161
0.0749071
0.073344
0.0718239
0.0703442
0.0689025
0.0674963
0.0661238
0.0647828
0.0634716
0.0621888
0.0609331
0.0597033
0.0584988
0.0573189
0.0561635
0.0550325
0.0539263
0.0528454
0.0517907
0.0507633
0.0497646
0.0487962
0.0478599
0.0469579
0.0460924
0.045266
0.0444816
0.0437426
0.0430529
0.0424169
0.0418401
0.0413293
0.0408928
0.0405412
0.040288
0.0401505
0.961692
0.892185
0.829086
0.771729
0.719524
0.671945
0.628524
0.588844
0.552532
0.519256
0.488721
0.460662
0.434843
0.411051
0.389098
0.368812
0.350043
0.332653
0.316519
0.30153
0.287588
0.274602
0.262491
0.251182
0.240609
0.230712
0.221437
0.212734
0.204559
0.196871
0.189633
0.182811
0.176375
0.170296
0.164549
0.15911
0.153958
0.149072
0.144436
0.140031
0.135842
0.131856
0.128059
0.124439
0.120985
0.117686
0.114533
0.111518
0.108631
0.105865
0.103213
0.100667
0.098223
0.0958735
0.0936132
0.0914372
0.0893404
0.0873183
0.0853666
0.0834812
0.0816581
0.0798938
0.0781847
0.0765276
0.0749192
0.0733568
0.0718374
0.0703584
0.0689174
0.0675121
0.0661404
0.0648002
0.06349
0.062208
0.0609532
0.0597243
0.0585207
0.0573416
0.056187
0.0550568
0.0539512
0.0528709
0.0518167
0.0507898
0.0497914
0.0488232
0.047887
0.0469849
0.0461192
0.0452926
0.0445079
0.0437685
0.0430782
0.0424417
0.0418643
0.0413529
0.0409158
0.0405638
0.0403102
0.0401724
0.961692
0.892185
0.829086
0.771729
0.719524
0.671945
0.628524
0.588844
0.552532
0.519256
0.488722
0.460663
0.434843
0.411051
0.389098
0.368813
0.350043
0.332653
0.316519
0.301531
0.287589
0.274603
0.262492
0.251183
0.24061
0.230713
0.221438
0.212735
0.20456
0.196873
0.189635
0.182813
0.176377
0.170299
0.164552
0.159113
0.153961
0.149075
0.144439
0.140034
0.135846
0.13186
0.128063
0.124443
0.120989
0.117691
0.114538
0.111523
0.108636
0.10587
0.103219
0.100674
0.0982295
0.0958803
0.0936204
0.0914447
0.0893483
0.0873266
0.0853754
0.0834904
0.0816678
0.079904
0.0781954
0.0765389
0.0749312
0.0733694
0.0718507
0.0703724
0.0689322
0.0675276
0.0661567
0.0648174
0.063508
0.0622269
0.0609729
0.059745
0.0585421
0.0573639
0.0562101
0.0550806
0.0539757
0.052896
0.0518423
0.0508158
0.0498177
0.0488497
0.0479136
0.0470115
0.0461457
0.0453188
0.0445338
0.0437939
0.0431032
0.0424661
0.0418881
0.0413761
0.0409385
0.0405859
0.0403319
0.0401939
0.961692
0.892185
0.829086
0.771729
0.719524
0.671945
0.628524
0.588844
0.552532
0.519256
0.488722
0.460663
0.434843
0.411052
0.389098
0.368813
0.350044
0.332654
0.31652
0.301532
0.28759
0.274604
0.262493
0.251184
0.240611
0.230715
0.22144
0.212737
0.204562
0.196874
0.189637
0.182815
0.176379
0.170301
0.164554
0.159116
0.153964
0.149079
0.144442
0.140037
0.135849
0.131863
0.128067
0.124447
0.120993
0.117695
0.114543
0.111528
0.108641
0.105876
0.103224
0.10068
0.0982359
0.0958869
0.0936274
0.0914521
0.089356
0.0873348
0.0853839
0.0834994
0.0816773
0.079914
0.078206
0.07655
0.0749429
0.0733817
0.0718637
0.0703861
0.0689466
0.0675429
0.0661727
0.0648342
0.0635256
0.0622454
0.0609923
0.0597652
0.0585632
0.0573858
0.0562327
0.0551039
0.0539997
0.0529206
0.0518674
0.0508413
0.0498435
0.0488757
0.0479397
0.0470376
0.0461717
0.0453445
0.0445592
0.0438189
0.0431277
0.0424901
0.0419116
0.041399
0.0409608
0.0406077
0.0403533
0.040215
0.961692
0.892185
0.829086
0.771729
0.719524
0.671945
0.628524
0.588844
0.552532
0.519256
0.488722
0.460663
0.434844
0.411052
0.389099
0.368813
0.350044
0.332654
0.316521
0.301533
0.28759
0.274604
0.262494
0.251185
0.240613
0.230716
0.221441
0.212738
0.204564
0.196876
0.189639
0.182817
0.176382
0.170303
0.164557
0.159118
0.153966
0.149081
0.144445
0.140041
0.135853
0.131867
0.12807
0.124451
0.120998
0.1177
0.114548
0.111533
0.108647
0.105881
0.10323
0.100686
0.0982421
0.0958935
0.0936342
0.0914593
0.0893636
0.0873428
0.0853923
0.0835082
0.0816866
0.0799238
0.0782163
0.0765609
0.0749543
0.0733938
0.0718764
0.0703995
0.0689608
0.0675577
0.0661884
0.0648507
0.0635429
0.0622635
0.0610112
0.0597849
0.0585837
0.0574071
0.0562548
0.0551267
0.0540232
0.0529446
0.0518919
0.0508662
0.0498687
0.0489011
0.0479652
0.0470631
0.046197
0.0453697
0.044584
0.0438434
0.0431517
0.0425135
0.0419345
0.0414213
0.0409826
0.0406291
0.0403743
0.0402357
0.961692
0.892185
0.829086
0.771729
0.719524
0.671945
0.628524
0.588844
0.552532
0.519257
0.488722
0.460663
0.434844
0.411052
0.389099
0.368814
0.350045
0.332655
0.316521
0.301533
0.287591
0.274605
0.262495
0.251186
0.240614
0.230717
0.221442
0.21274
0.204565
0.196878
0.18964
0.182819
0.176384
0.170306
0.164559
0.159121
0.153969
0.149084
0.144448
0.140044
0.135856
0.13187
0.128074
0.124455
0.121002
0.117704
0.114552
0.111537
0.108652
0.105887
0.103235
0.100691
0.0982481
0.0958998
0.0936409
0.0914663
0.089371
0.0873505
0.0854005
0.0835168
0.0816957
0.0799333
0.0782264
0.0765715
0.0749655
0.0734056
0.0718888
0.0704126
0.0689745
0.0675722
0.0662036
0.0648667
0.0635597
0.0622811
0.0610296
0.0598041
0.0586038
0.0574279
0.0562763
0.0551489
0.054046
0.052968
0.0519158
0.0508905
0.0498933
0.0489259
0.0479901
0.0470879
0.0462218
0.0453942
0.0446082
0.0438672
0.0431751
0.0425364
0.0419568
0.0414431
0.0410039
0.0406499
0.0403947
0.0402559
0.961692
0.892185
0.829086
0.771729
0.719524
0.671945
0.628524
0.588844
0.552532
0.519257
0.488722
0.460663
0.434844
0.411052
0.389099
0.368814
0.350045
0.332655
0.316522
0.301534
0.287592
0.274606
0.262496
0.251187
0.240615
0.230718
0.221444
0.212741
0.204567
0.19688
0.189642
0.182821
0.176386
0.170308
0.164561
0.159123
0.153972
0.149087
0.144451
0.140047
0.135859
0.131874
0.128078
0.124459
0.121006
0.117708
0.114557
0.111542
0.108656
0.105892
0.103241
0.100697
0.098254
0.095906
0.0936474
0.0914731
0.0893782
0.0873581
0.0854084
0.0835252
0.0817045
0.0799426
0.0782361
0.0765818
0.0749764
0.073417
0.0719008
0.0704253
0.0689879
0.0675863
0.0662184
0.0648822
0.063576
0.0622982
0.0610475
0.0598228
0.0586232
0.0574481
0.0562972
0.0551705
0.0540681
0.0529907
0.051939
0.050914
0.0499171
0.0489499
0.0480142
0.047112
0.0462458
0.045418
0.0446318
0.0438904
0.0431978
0.0425586
0.0419785
0.0414643
0.0410246
0.0406701
0.0404145
0.0402755
0.961692
0.892185
0.829086
0.771729
0.719524
0.671945
0.628524
0.588844
0.552532
0.519257
0.488722
0.460663
0.434844
0.411053
0.389099
0.368815
0.350046
0.332656
0.316522
0.301534
0.287593
0.274607
0.262497
0.251188
0.240616
0.23072
0.221445
0.212743
0.204568
0.196881
0.189644
0.182823
0.176388
0.17031
0.164564
0.159126
0.153974
0.14909
0.144454
0.14005
0.135862
0.131877
0.128081
0.124462
0.121009
0.117712
0.114561
0.111547
0.108661
0.105897
0.103246
0.100702
0.0982597
0.095912
0.0936537
0.0914797
0.0893852
0.0873654
0.0854161
0.0835333
0.081713
0.0799516
0.0782456
0.0765917
0.0749869
0.0734281
0.0719125
0.0704376
0.0690008
0.0675999
0.0662327
0.0648972
0.0635918
0.0623147
0.0610648
0.0598408
0.0586419
0.0574676
0.0563174
0.0551913
0.0540896
0.0530127
0.0519614
0.0509368
0.0499402
0.0489732
0.0480376
0.0471354
0.046269
0.0454411
0.0446545
0.0439128
0.0432198
0.0425802
0.0419996
0.0414849
0.0410446
0.0406897
0.0404337
0.0402945
0.961692
0.892185
0.829086
0.771729
0.719524
0.671945
0.628524
0.588844
0.552532
0.519257
0.488722
0.460664
0.434844
0.411053
0.3891
0.368815
0.350046
0.332656
0.316523
0.301535
0.287593
0.274608
0.262497
0.251189
0.240617
0.230721
0.221446