/*--------------------------------*- C++ -*----------------------------------*\
  =========                 |
  \\      /  F ield         | OpenFOAM: The Open Source CFD Toolbox
   \\    /   O peration     | Website:  https://openfoam.org
    \\  /    A nd           | Version:  11
     \\/     M anipulation  |
\*---------------------------------------------------------------------------*/
FoamFile
{
    format      ascii;
    class       volScalarField;
    location    "216";
    object      k;
}
// * * * * * * * * * * * * * * * * * * * * * * * * * * * * * * * * * * * * * //

dimensions      [0 2 -2 0 0 0 0];

internalField   nonuniform List<scalar> 
10000
(
0.000939672
0.000835664
0.000745788
0.000667873
0.000600114
0.000540999
0.000489265
0.00044385
0.00040386
0.00036854
0.000337253
0.000309457
0.000284692
0.000262566
0.000242744
0.000224938
0.000208902
0.000194423
0.000181319
0.000169431
0.000158622
0.000148773
0.00013978
0.000131554
0.000124016
0.000117098
0.000110739
0.000104887
9.94975e-05
9.45291e-05
8.99471e-05
8.57209e-05
8.18238e-05
7.8232e-05
7.49248e-05
7.18839e-05
6.90928e-05
6.65368e-05
6.42024e-05
6.20771e-05
6.01492e-05
5.84073e-05
5.68405e-05
5.54381e-05
5.41893e-05
5.30836e-05
5.21105e-05
5.12596e-05
5.05207e-05
4.98837e-05
4.93396e-05
4.88796e-05
4.84951e-05
4.81781e-05
4.79212e-05
4.77171e-05
4.75593e-05
4.74417e-05
4.73588e-05
4.73059e-05
4.72788e-05
4.72737e-05
4.72864e-05
4.73151e-05
4.73565e-05
4.74082e-05
4.74681e-05
4.75344e-05
4.76054e-05
4.76796e-05
4.77558e-05
4.78329e-05
4.79101e-05
4.79864e-05
4.80613e-05
4.81341e-05
4.82044e-05
4.82718e-05
4.83359e-05
4.83966e-05
4.84536e-05
4.85069e-05
4.85563e-05
4.86019e-05
4.86436e-05
4.86814e-05
4.87155e-05
4.87459e-05
4.87728e-05
4.87962e-05
4.88164e-05
4.88334e-05
4.88475e-05
4.88589e-05
4.88677e-05
4.88743e-05
4.88789e-05
4.88817e-05
4.8883e-05
4.8883e-05
0.000939673
0.000835665
0.000745789
0.000667875
0.000600116
0.000541002
0.000489268
0.000443853
0.000403862
0.000368543
0.000337255
0.000309459
0.000284695
0.000262569
0.000242747
0.000224941
0.000208904
0.000194426
0.000181322
0.000169434
0.000158624
0.000148775
0.000139783
0.000131557
0.000124019
0.000117101
0.000110742
0.000104891
9.95012e-05
9.45329e-05
8.99511e-05
8.57251e-05
8.1828e-05
7.82364e-05
7.49293e-05
7.18885e-05
6.90975e-05
6.65416e-05
6.42073e-05
6.2082e-05
6.01541e-05
5.84121e-05
5.68453e-05
5.54427e-05
5.41938e-05
5.3088e-05
5.21147e-05
5.12637e-05
5.05248e-05
4.98881e-05
4.93442e-05
4.88842e-05
4.84997e-05
4.81825e-05
4.79251e-05
4.77205e-05
4.75622e-05
4.74441e-05
4.73609e-05
4.73078e-05
4.72805e-05
4.72752e-05
4.72878e-05
4.73164e-05
4.73577e-05
4.74094e-05
4.74693e-05
4.75355e-05
4.76064e-05
4.76805e-05
4.77567e-05
4.78338e-05
4.79109e-05
4.79872e-05
4.8062e-05
4.81348e-05
4.82051e-05
4.82724e-05
4.83365e-05
4.83972e-05
4.84542e-05
4.85074e-05
4.85568e-05
4.86023e-05
4.8644e-05
4.86818e-05
4.87159e-05
4.87463e-05
4.87731e-05
4.87965e-05
4.88166e-05
4.88336e-05
4.88477e-05
4.88591e-05
4.8868e-05
4.88745e-05
4.88791e-05
4.88819e-05
4.88832e-05
4.88832e-05
0.000939673
0.000835667
0.000745791
0.000667878
0.00060012
0.000541006
0.000489272
0.000443857
0.000403867
0.000368547
0.00033726
0.000309464
0.0002847
0.000262574
0.000242752
0.000224946
0.000208909
0.000194431
0.000181327
0.000169439
0.00015863
0.000148781
0.000139788
0.000131563
0.000124025
0.000117107
0.000110748
0.000104897
9.9507e-05
9.45388e-05
8.99571e-05
8.57312e-05
8.18342e-05
7.82426e-05
7.49356e-05
7.18948e-05
6.91038e-05
6.65478e-05
6.42133e-05
6.20879e-05
6.01597e-05
5.84176e-05
5.68504e-05
5.54476e-05
5.41983e-05
5.30921e-05
5.21186e-05
5.12672e-05
5.05281e-05
4.98912e-05
4.93471e-05
4.8887e-05
4.85022e-05
4.81847e-05
4.7927e-05
4.7722e-05
4.75632e-05
4.74448e-05
4.73613e-05
4.7308e-05
4.72806e-05
4.72752e-05
4.72877e-05
4.73162e-05
4.73575e-05
4.74091e-05
4.7469e-05
4.75352e-05
4.76061e-05
4.76802e-05
4.77564e-05
4.78335e-05
4.79106e-05
4.79869e-05
4.80618e-05
4.81346e-05
4.82048e-05
4.82722e-05
4.83363e-05
4.8397e-05
4.8454e-05
4.85073e-05
4.85567e-05
4.86022e-05
4.86439e-05
4.86818e-05
4.87159e-05
4.87463e-05
4.87731e-05
4.87966e-05
4.88167e-05
4.88338e-05
4.88479e-05
4.88593e-05
4.88682e-05
4.88748e-05
4.88794e-05
4.88823e-05
4.88836e-05
4.88837e-05
0.000939674
0.000835668
0.000745794
0.000667882
0.000600124
0.000541011
0.000489278
0.000443864
0.000403874
0.000368554
0.000337267
0.000309471
0.000284707
0.000262581
0.000242759
0.000224953
0.000208917
0.000194438
0.000181334
0.000169446
0.000158637
0.000148788
0.000139796
0.00013157
0.000124033
0.000117114
0.000110756
0.000104905
9.95152e-05
9.4547e-05
8.99654e-05
8.57396e-05
8.18427e-05
7.82511e-05
7.4944e-05
7.19031e-05
6.9112e-05
6.65558e-05
6.42211e-05
6.20953e-05
6.01668e-05
5.84242e-05
5.68566e-05
5.54532e-05
5.42034e-05
5.30967e-05
5.21226e-05
5.12707e-05
5.05311e-05
4.98937e-05
4.93493e-05
4.88888e-05
4.85037e-05
4.81858e-05
4.79276e-05
4.77222e-05
4.7563e-05
4.74443e-05
4.73605e-05
4.7307e-05
4.72795e-05
4.72739e-05
4.72863e-05
4.73148e-05
4.73561e-05
4.74077e-05
4.74675e-05
4.75337e-05
4.76047e-05
4.76788e-05
4.77551e-05
4.78322e-05
4.79094e-05
4.79858e-05
4.80607e-05
4.81335e-05
4.82038e-05
4.82712e-05
4.83354e-05
4.83962e-05
4.84533e-05
4.85066e-05
4.85561e-05
4.86017e-05
4.86434e-05
4.86814e-05
4.87155e-05
4.8746e-05
4.8773e-05
4.87965e-05
4.88167e-05
4.88338e-05
4.88481e-05
4.88595e-05
4.88685e-05
4.88752e-05
4.88799e-05
4.88828e-05
4.88842e-05
4.88843e-05
0.000939674
0.00083567
0.000745797
0.000667886
0.00060013
0.000541017
0.000489285
0.000443871
0.000403881
0.000368562
0.000337276
0.00030948
0.000284716
0.00026259
0.000242768
0.000224962
0.000208926
0.000194447
0.000181343
0.000169455
0.000158646
0.000148798
0.000139806
0.00013158
0.000124043
0.000117125
0.000110766
0.000104915
9.95258e-05
9.45578e-05
8.99763e-05
8.57505e-05
8.18536e-05
7.8262e-05
7.49549e-05
7.19139e-05
6.91225e-05
6.6566e-05
6.42309e-05
6.21048e-05
6.01757e-05
5.84325e-05
5.68642e-05
5.54601e-05
5.42096e-05
5.31021e-05
5.21272e-05
5.12746e-05
5.05343e-05
4.98963e-05
4.93513e-05
4.88902e-05
4.85045e-05
4.81861e-05
4.79275e-05
4.77216e-05
4.7562e-05
4.74429e-05
4.73589e-05
4.73051e-05
4.72774e-05
4.72717e-05
4.72841e-05
4.73125e-05
4.73537e-05
4.74053e-05
4.74652e-05
4.75314e-05
4.76024e-05
4.76766e-05
4.77529e-05
4.78302e-05
4.79074e-05
4.79839e-05
4.80589e-05
4.81318e-05
4.82022e-05
4.82697e-05
4.8334e-05
4.83949e-05
4.84521e-05
4.85055e-05
4.85551e-05
4.86008e-05
4.86427e-05
4.86807e-05
4.8715e-05
4.87456e-05
4.87726e-05
4.87962e-05
4.88166e-05
4.88339e-05
4.88482e-05
4.88598e-05
4.88689e-05
4.88757e-05
4.88805e-05
4.88835e-05
4.88849e-05
4.8885e-05
0.000939675
0.000835672
0.0007458
0.00066789
0.000600135
0.000541024
0.000489293
0.000443879
0.00040389
0.000368572
0.000337285
0.00030949
0.000284726
0.0002626
0.000242778
0.000224973
0.000208937
0.000194458
0.000181355
0.000169467
0.000158658
0.000148809
0.000139818
0.000131592
0.000124055
0.000117137
0.000110779
0.000104928
9.95388e-05
9.4571e-05
8.99895e-05
8.57639e-05
8.1867e-05
7.82754e-05
7.49681e-05
7.19269e-05
6.91353e-05
6.65784e-05
6.42428e-05
6.21161e-05
6.01863e-05
5.84424e-05
5.68733e-05
5.54683e-05
5.42168e-05
5.31083e-05
5.21325e-05
5.1279e-05
5.05377e-05
4.98989e-05
4.93531e-05
4.88913e-05
4.85049e-05
4.81859e-05
4.79266e-05
4.77202e-05
4.75602e-05
4.74406e-05
4.73563e-05
4.73023e-05
4.72744e-05
4.72686e-05
4.72808e-05
4.73092e-05
4.73504e-05
4.7402e-05
4.74619e-05
4.75282e-05
4.75993e-05
4.76736e-05
4.775e-05
4.78273e-05
4.79047e-05
4.79813e-05
4.80564e-05
4.81295e-05
4.82e-05
4.82677e-05
4.83321e-05
4.83931e-05
4.84504e-05
4.8504e-05
4.85537e-05
4.85996e-05
4.86416e-05
4.86797e-05
4.87142e-05
4.87449e-05
4.87721e-05
4.87959e-05
4.88164e-05
4.88338e-05
4.88483e-05
4.88601e-05
4.88694e-05
4.88763e-05
4.88812e-05
4.88843e-05
4.88858e-05
4.88858e-05
0.000939675
0.000835673
0.000745803
0.000667895
0.00060014
0.000541031
0.0004893
0.000443888
0.0004039
0.000368582
0.000337296
0.000309501
0.000284737
0.000262612
0.00024279
0.000224985
0.000208949
0.000194471
0.000181368
0.00016948
0.000158671
0.000148823
0.000139831
0.000131606
0.000124069
0.000117152
0.000110794
0.000104943
9.95541e-05
9.45864e-05
9.00051e-05
8.57795e-05
8.18827e-05
7.8291e-05
7.49836e-05
7.19422e-05
6.91502e-05
6.65928e-05
6.42567e-05
6.21292e-05
6.01986e-05
5.84538e-05
5.68836e-05
5.54776e-05
5.4225e-05
5.31154e-05
5.21383e-05
5.12837e-05
5.05413e-05
4.99015e-05
4.93548e-05
4.88921e-05
4.85049e-05
4.81851e-05
4.79251e-05
4.77181e-05
4.75576e-05
4.74376e-05
4.73529e-05
4.72987e-05
4.72705e-05
4.72645e-05
4.72767e-05
4.7305e-05
4.73462e-05
4.73978e-05
4.74578e-05
4.75241e-05
4.75953e-05
4.76697e-05
4.77462e-05
4.78237e-05
4.79012e-05
4.7978e-05
4.80532e-05
4.81265e-05
4.81972e-05
4.8265e-05
4.83296e-05
4.83907e-05
4.84482e-05
4.8502e-05
4.85519e-05
4.8598e-05
4.86401e-05
4.86785e-05
4.87131e-05
4.8744e-05
4.87714e-05
4.87954e-05
4.88161e-05
4.88338e-05
4.88485e-05
4.88604e-05
4.88698e-05
4.88769e-05
4.8882e-05
4.88852e-05
4.88867e-05
4.88867e-05
0.000939675
0.000835675
0.000745806
0.000667899
0.000600146
0.000541037
0.000489308
0.000443897
0.00040391
0.000368592
0.000337307
0.000309513
0.00028475
0.000262625
0.000242804
0.000224999
0.000208963
0.000194485
0.000181382
0.000169495
0.000158687
0.000148839
0.000139847
0.000131622
0.000124086
0.000117168
0.000110811
0.00010496
9.95716e-05
9.46041e-05
9.0023e-05
8.57975e-05
8.19006e-05
7.83089e-05
7.50013e-05
7.19595e-05
6.91671e-05
6.66092e-05
6.42723e-05
6.2144e-05
6.02125e-05
5.84666e-05
5.68953e-05
5.54879e-05
5.4234e-05
5.31231e-05
5.21448e-05
5.12888e-05
5.05452e-05
4.99042e-05
4.93563e-05
4.88926e-05
4.85044e-05
4.81838e-05
4.79231e-05
4.77154e-05
4.75542e-05
4.74338e-05
4.73487e-05
4.72941e-05
4.72657e-05
4.72596e-05
4.72716e-05
4.72999e-05
4.7341e-05
4.73927e-05
4.74527e-05
4.75192e-05
4.75904e-05
4.7665e-05
4.77417e-05
4.78193e-05
4.7897e-05
4.79739e-05
4.80493e-05
4.81228e-05
4.81937e-05
4.82617e-05
4.83265e-05
4.83879e-05
4.84456e-05
4.84996e-05
4.85497e-05
4.8596e-05
4.86384e-05
4.8677e-05
4.87118e-05
4.8743e-05
4.87706e-05
4.87948e-05
4.88158e-05
4.88336e-05
4.88485e-05
4.88607e-05
4.88703e-05
4.88776e-05
4.88828e-05
4.88861e-05
4.88877e-05
4.88877e-05
0.000939676
0.000835676
0.000745808
0.000667902
0.000600151
0.000541044
0.000489316
0.000443906
0.000403919
0.000368603
0.000337319
0.000309525
0.000284763
0.000262639
0.000242818
0.000225013
0.000208978
0.000194501
0.000181398
0.000169511
0.000158703
0.000148856
0.000139865
0.00013164
0.000124104
0.000117187
0.00011083
0.00010498
9.95911e-05
9.46238e-05
9.00429e-05
8.58175e-05
8.19206e-05
7.83288e-05
7.5021e-05
7.19789e-05
6.91859e-05
6.66274e-05
6.42897e-05
6.21605e-05
6.02279e-05
5.84807e-05
5.69081e-05
5.54994e-05
5.4244e-05
5.31316e-05
5.21518e-05
5.12943e-05
5.05493e-05
4.99069e-05
4.93578e-05
4.88929e-05
4.85037e-05
4.8182e-05
4.79205e-05
4.7712e-05
4.75502e-05
4.74292e-05
4.73437e-05
4.72888e-05
4.72601e-05
4.72537e-05
4.72657e-05
4.72938e-05
4.7335e-05
4.73867e-05
4.74468e-05
4.75133e-05
4.75847e-05
4.76594e-05
4.77363e-05
4.78141e-05
4.7892e-05
4.79691e-05
4.80448e-05
4.81184e-05
4.81896e-05
4.82578e-05
4.83229e-05
4.83845e-05
4.84425e-05
4.84967e-05
4.85471e-05
4.85936e-05
4.86363e-05
4.86751e-05
4.87102e-05
4.87416e-05
4.87695e-05
4.8794e-05
4.88152e-05
4.88333e-05
4.88485e-05
4.88609e-05
4.88707e-05
4.88782e-05
4.88836e-05
4.8887e-05
4.88887e-05
4.88887e-05
0.000939676
0.000835677
0.00074581
0.000667906
0.000600156
0.00054105
0.000489323
0.000443914
0.000403929
0.000368614
0.000337331
0.000309538
0.000284776
0.000262653
0.000242833
0.000225029
0.000208994
0.000194517
0.000181415
0.000169529
0.000158721
0.000148874
0.000139884
0.00013166
0.000124124
0.000117207
0.00011085
0.000105001
9.96124e-05
9.46455e-05
9.00647e-05
8.58394e-05
8.19426e-05
7.83506e-05
7.50426e-05
7.2e-05
6.92065e-05
6.66473e-05
6.43088e-05
6.21785e-05
6.02447e-05
5.84961e-05
5.69221e-05
5.55118e-05
5.42548e-05
5.31407e-05
5.21593e-05
5.13002e-05
5.05536e-05
4.99097e-05
4.93592e-05
4.8893e-05
4.85026e-05
4.81799e-05
4.79174e-05
4.77081e-05
4.75456e-05
4.7424e-05
4.7338e-05
4.72826e-05
4.72536e-05
4.72471e-05
4.72589e-05
4.7287e-05
4.73281e-05
4.73798e-05
4.744e-05
4.75066e-05
4.75782e-05
4.76531e-05
4.77301e-05
4.78081e-05
4.78862e-05
4.79636e-05
4.80395e-05
4.81134e-05
4.81848e-05
4.82534e-05
4.83187e-05
4.83806e-05
4.84388e-05
4.84933e-05
4.8544e-05
4.85908e-05
4.86338e-05
4.86729e-05
4.87083e-05
4.87401e-05
4.87683e-05
4.87931e-05
4.88146e-05
4.8833e-05
4.88484e-05
4.88611e-05
4.88711e-05
4.88789e-05
4.88844e-05
4.88879e-05
4.88897e-05
4.88897e-05
0.000939676
0.000835678
0.000745812
0.000667909
0.00060016
0.000541056
0.00048933
0.000443923
0.000403939
0.000368625
0.000337343
0.000309551
0.00028479
0.000262667
0.000242848
0.000225045
0.000209011
0.000194535
0.000181433
0.000169547
0.00015874
0.000148894
0.000139904
0.00013168
0.000124145
0.000117229
0.000110873
0.000105023
9.96355e-05
9.46688e-05
9.00883e-05
8.58631e-05
8.19663e-05
7.83742e-05
7.50659e-05
7.20229e-05
6.92288e-05
6.66688e-05
6.43293e-05
6.21978e-05
6.02627e-05
5.85127e-05
5.69371e-05
5.55251e-05
5.42664e-05
5.31505e-05
5.21673e-05
5.13064e-05
5.05581e-05
4.99127e-05
4.93606e-05
4.8893e-05
4.85012e-05
4.81774e-05
4.79138e-05
4.77036e-05
4.75404e-05
4.74181e-05
4.73315e-05
4.72758e-05
4.72465e-05
4.72397e-05
4.72513e-05
4.72793e-05
4.73204e-05
4.73722e-05
4.74324e-05
4.74992e-05
4.75708e-05
4.76459e-05
4.77232e-05
4.78014e-05
4.78798e-05
4.79574e-05
4.80336e-05
4.81078e-05
4.81795e-05
4.82483e-05
4.8314e-05
4.83762e-05
4.84347e-05
4.84896e-05
4.85406e-05
4.85877e-05
4.8631e-05
4.86705e-05
4.87062e-05
4.87383e-05
4.87668e-05
4.87919e-05
4.88137e-05
4.88324e-05
4.88482e-05
4.88611e-05
4.88715e-05
4.88794e-05
4.88851e-05
4.88888e-05
4.88906e-05
4.88907e-05
0.000939677
0.000835679
0.000745814
0.000667912
0.000600165
0.000541061
0.000489337
0.000443931
0.000403948
0.000368636
0.000337354
0.000309564
0.000284804
0.000262682
0.000242863
0.000225061
0.000209028
0.000194553
0.000181452
0.000169566
0.00015876
0.000148914
0.000139925
0.000131702
0.000124168
0.000117252
0.000110896
0.000105048
9.96601e-05
9.46938e-05
9.01135e-05
8.58884e-05
8.19916e-05
7.83994e-05
7.50908e-05
7.20473e-05
6.92526e-05
6.66917e-05
6.43511e-05
6.22184e-05
6.02819e-05
5.85304e-05
5.6953e-05
5.55393e-05
5.42787e-05
5.31609e-05
5.21757e-05
5.1313e-05
5.05629e-05
4.99156e-05
4.93619e-05
4.88928e-05
4.84997e-05
4.81745e-05
4.79099e-05
4.76987e-05
4.75346e-05
4.74116e-05
4.73245e-05
4.72682e-05
4.72386e-05
4.72315e-05
4.7243e-05
4.72709e-05
4.73119e-05
4.73637e-05
4.7424e-05
4.74909e-05
4.75628e-05
4.76381e-05
4.77155e-05
4.7794e-05
4.78726e-05
4.79506e-05
4.80271e-05
4.81016e-05
4.81736e-05
4.82427e-05
4.83087e-05
4.83713e-05
4.84302e-05
4.84853e-05
4.85367e-05
4.85842e-05
4.86279e-05
4.86677e-05
4.87038e-05
4.87362e-05
4.87651e-05
4.87906e-05
4.88127e-05
4.88318e-05
4.88478e-05
4.88611e-05
4.88717e-05
4.88799e-05
4.88858e-05
4.88896e-05
4.88915e-05
4.88916e-05
0.000939677
0.00083568
0.000745816
0.000667915
0.000600169
0.000541067
0.000489344
0.000443939
0.000403958
0.000368646
0.000337366
0.000309577
0.000284818
0.000262697
0.000242879
0.000225078
0.000209046
0.000194571
0.000181471
0.000169587
0.000158781
0.000148936
0.000139948
0.000131725
0.000124191
0.000117277
0.000110921
0.000105073
9.9686e-05
9.47201e-05
9.01401e-05
8.59152e-05
8.20184e-05
7.8426e-05
7.5117e-05
7.20731e-05
6.92776e-05
6.67158e-05
6.43742e-05
6.22402e-05
6.03022e-05
5.8549e-05
5.69699e-05
5.55542e-05
5.42916e-05
5.31718e-05
5.21846e-05
5.13199e-05
5.05678e-05
4.99187e-05
4.93633e-05
4.88925e-05
4.84979e-05
4.81714e-05
4.79056e-05
4.76934e-05
4.75283e-05
4.74046e-05
4.73168e-05
4.72601e-05
4.723e-05
4.72227e-05
4.72339e-05
4.72617e-05
4.73027e-05
4.73546e-05
4.74149e-05
4.7482e-05
4.7554e-05
4.76295e-05
4.77072e-05
4.7786e-05
4.78649e-05
4.79431e-05
4.80199e-05
4.80947e-05
4.81671e-05
4.82366e-05
4.8303e-05
4.83659e-05
4.84252e-05
4.84807e-05
4.85324e-05
4.85803e-05
4.86244e-05
4.86646e-05
4.87011e-05
4.87339e-05
4.87632e-05
4.8789e-05
4.88116e-05
4.88309e-05
4.88473e-05
4.88609e-05
4.88718e-05
4.88802e-05
4.88863e-05
4.88903e-05
4.88923e-05
4.88925e-05
0.000939677
0.000835681
0.000745818
0.000667918
0.000600172
0.000541072
0.00048935
0.000443946
0.000403967
0.000368656
0.000337377
0.000309589
0.000284831
0.000262712
0.000242895
0.000225095
0.000209064
0.00019459
0.000181491
0.000169607
0.000158803
0.000148959
0.000139971
0.000131749
0.000124216
0.000117302
0.000110947
0.0001051
9.97132e-05
9.47476e-05
9.01679e-05
8.59431e-05
8.20463e-05
7.84538e-05
7.51445e-05
7.21001e-05
6.93039e-05
6.67411e-05
6.43983e-05
6.2263e-05
6.03234e-05
5.85685e-05
5.69874e-05
5.55698e-05
5.43051e-05
5.31832e-05
5.21938e-05
5.1327e-05
5.05729e-05
4.99219e-05
4.93646e-05
4.88921e-05
4.84959e-05
4.8168e-05
4.79009e-05
4.76876e-05
4.75216e-05
4.73971e-05
4.73086e-05
4.72514e-05
4.72209e-05
4.72132e-05
4.72243e-05
4.72519e-05
4.72929e-05
4.73447e-05
4.74052e-05
4.74724e-05
4.75445e-05
4.76202e-05
4.76982e-05
4.77772e-05
4.78565e-05
4.7935e-05
4.80121e-05
4.80873e-05
4.81601e-05
4.823e-05
4.82967e-05
4.836e-05
4.84197e-05
4.84757e-05
4.85278e-05
4.85761e-05
4.86206e-05
4.86612e-05
4.86981e-05
4.87313e-05
4.8761e-05
4.87872e-05
4.88102e-05
4.88299e-05
4.88466e-05
4.88605e-05
4.88717e-05
4.88804e-05
4.88867e-05
4.88909e-05
4.8893e-05
4.88932e-05
0.000939677
0.000835682
0.000745819
0.00066792
0.000600176
0.000541076
0.000489356
0.000443954
0.000403975
0.000368666
0.000337389
0.000309602
0.000284845
0.000262727
0.000242911
0.000225112
0.000209082
0.000194609
0.000181511
0.000169628
0.000158825
0.000148981
0.000139995
0.000131774
0.000124242
0.000117328
0.000110974
0.000105127
9.97413e-05
9.47762e-05
9.01967e-05
8.59722e-05
8.20754e-05
7.84827e-05
7.51731e-05
7.21281e-05
6.93311e-05
6.67674e-05
6.44234e-05
6.22866e-05
6.03454e-05
5.85887e-05
5.70057e-05
5.55859e-05
5.43191e-05
5.3195e-05
5.22034e-05
5.13344e-05
5.05782e-05
4.99251e-05
4.93659e-05
4.88916e-05
4.84938e-05
4.81644e-05
4.7896e-05
4.76815e-05
4.75145e-05
4.73892e-05
4.73e-05
4.72421e-05
4.72112e-05
4.72032e-05
4.7214e-05
4.72415e-05
4.72824e-05
4.73343e-05
4.73948e-05
4.74621e-05
4.75345e-05
4.76104e-05
4.76886e-05
4.77679e-05
4.78475e-05
4.79263e-05
4.80039e-05
4.80794e-05
4.81526e-05
4.82229e-05
4.829e-05
4.83537e-05
4.84138e-05
4.84702e-05
4.85228e-05
4.85715e-05
4.86164e-05
4.86575e-05
4.86949e-05
4.87285e-05
4.87586e-05
4.87853e-05
4.88086e-05
4.88287e-05
4.88458e-05
4.886e-05
4.88715e-05
4.88804e-05
4.8887e-05
4.88913e-05
4.88935e-05
4.88938e-05
0.000939678
0.000835683
0.000745821
0.000667923
0.000600179
0.000541081
0.000489362
0.000443961
0.000403983
0.000368676
0.000337399
0.000309614
0.000284858
0.000262741
0.000242927
0.000225129
0.0002091
0.000194628
0.000181531
0.00016965
0.000158847
0.000149005
0.000140019
0.000131799
0.000124268
0.000117355
0.000111002
0.000105156
9.97702e-05
9.48055e-05
9.02265e-05
8.60021e-05
8.21053e-05
7.85125e-05
7.52025e-05
7.21569e-05
6.93592e-05
6.67944e-05
6.44492e-05
6.23109e-05
6.03681e-05
5.86095e-05
5.70245e-05
5.56026e-05
5.43335e-05
5.32071e-05
5.22133e-05
5.1342e-05
5.05836e-05
4.99284e-05
4.93672e-05
4.88911e-05
4.84916e-05
4.81607e-05
4.78908e-05
4.76751e-05
4.75071e-05
4.73808e-05
4.72909e-05
4.72325e-05
4.7201e-05
4.71927e-05
4.72032e-05
4.72306e-05
4.72714e-05
4.73232e-05
4.73839e-05
4.74513e-05
4.75238e-05
4.76e-05
4.76785e-05
4.77581e-05
4.7838e-05
4.79172e-05
4.79951e-05
4.8071e-05
4.81446e-05
4.82153e-05
4.82828e-05
4.8347e-05
4.84076e-05
4.84644e-05
4.85174e-05
4.85666e-05
4.8612e-05
4.86535e-05
4.86913e-05
4.87254e-05
4.8756e-05
4.8783e-05
4.88068e-05
4.88273e-05
4.88447e-05
4.88593e-05
4.88711e-05
4.88803e-05
4.8887e-05
4.88915e-05
4.88939e-05
4.88942e-05
0.000939678
0.000835683
0.000745822
0.000667925
0.000600183
0.000541085
0.000489367
0.000443967
0.000403991
0.000368685
0.00033741
0.000309626
0.000284872
0.000262756
0.000242943
0.000225146
0.000209118
0.000194648
0.000181552
0.000169671
0.00015887
0.000149029
0.000140044
0.000131825
0.000124294
0.000117383
0.00011103
0.000105185
9.97998e-05
9.48356e-05
9.02569e-05
8.60327e-05
8.2136e-05
7.8543e-05
7.52327e-05
7.21865e-05
6.93879e-05
6.68222e-05
6.44756e-05
6.23359e-05
6.03913e-05
5.86308e-05
5.70437e-05
5.56197e-05
5.43483e-05
5.32196e-05
5.22234e-05
5.13498e-05
5.05891e-05
4.99317e-05
4.93685e-05
4.88905e-05
4.84892e-05
4.81567e-05
4.78855e-05
4.76685e-05
4.74994e-05
4.73722e-05
4.72815e-05
4.72224e-05
4.71904e-05
4.71817e-05
4.7192e-05
4.72191e-05
4.72599e-05
4.73117e-05
4.73724e-05
4.744e-05
4.75127e-05
4.75891e-05
4.76678e-05
4.77478e-05
4.7828e-05
4.79076e-05
4.79858e-05
4.80622e-05
4.81362e-05
4.82073e-05
4.82753e-05
4.83399e-05
4.84009e-05
4.84582e-05
4.85118e-05
4.85614e-05
4.86073e-05
4.86493e-05
4.86875e-05
4.87221e-05
4.87531e-05
4.87806e-05
4.88047e-05
4.88257e-05
4.88435e-05
4.88584e-05
4.88705e-05
4.88799e-05
4.88869e-05
4.88916e-05
4.88941e-05
4.88944e-05
0.000939678
0.000835684
0.000745824
0.000667927
0.000600186
0.000541089
0.000489373
0.000443974
0.000403999
0.000368694
0.00033742
0.000309637
0.000284884
0.00026277
0.000242958
0.000225162
0.000209136
0.000194667
0.000181572
0.000169693
0.000158893
0.000149052
0.000140069
0.000131851
0.000124321
0.00011741
0.000111059
0.000105214
9.98298e-05
9.48662e-05
9.02878e-05
8.60638e-05
8.21672e-05
7.8574e-05
7.52634e-05
7.22166e-05
6.94172e-05
6.68504e-05
6.45025e-05
6.23613e-05
6.0415e-05
5.86525e-05
5.70634e-05
5.56371e-05
5.43634e-05
5.32323e-05
5.22337e-05
5.13577e-05
5.05947e-05
4.99351e-05
4.93698e-05
4.88898e-05
4.84867e-05
4.81526e-05
4.78799e-05
4.76617e-05
4.74914e-05
4.73632e-05
4.72717e-05
4.72119e-05
4.71795e-05
4.71703e-05
4.71804e-05
4.72073e-05
4.7248e-05
4.72998e-05
4.73605e-05
4.74282e-05
4.75011e-05
4.75777e-05
4.76567e-05
4.7737e-05
4.78175e-05
4.78975e-05
4.79762e-05
4.80529e-05
4.81273e-05
4.81989e-05
4.82674e-05
4.83325e-05
4.8394e-05
4.84518e-05
4.85058e-05
4.85559e-05
4.86022e-05
4.86447e-05
4.86835e-05
4.87185e-05
4.875e-05
4.87779e-05
4.88025e-05
4.88238e-05
4.8842e-05
4.88573e-05
4.88697e-05
4.88794e-05
4.88866e-05
4.88914e-05
4.8894e-05
4.88944e-05
0.000939678
0.000835685
0.000745825
0.000667929
0.000600188
0.000541093
0.000489378
0.00044398
0.000404006
0.000368702
0.00033743
0.000309649
0.000284897
0.000262784
0.000242973
0.000225179
0.000209154
0.000194686
0.000181592
0.000169715
0.000158916
0.000149076
0.000140094
0.000131877
0.000124348
0.000117439
0.000111088
0.000105244
9.98601e-05
9.4897e-05
9.03191e-05
8.60954e-05
8.21988e-05
7.86055e-05
7.52944e-05
7.22471e-05
6.94469e-05
6.6879e-05
6.45298e-05
6.2387e-05
6.04389e-05
5.86746e-05
5.70833e-05
5.56547e-05
5.43787e-05
5.32451e-05
5.22441e-05
5.13658e-05
5.06004e-05
4.99386e-05
4.93711e-05
4.88891e-05
4.84842e-05
4.81484e-05
4.78742e-05
4.76546e-05
4.74832e-05
4.7354e-05
4.72617e-05
4.72012e-05
4.71682e-05
4.71586e-05
4.71684e-05
4.71951e-05
4.72356e-05
4.72874e-05
4.73482e-05
4.7416e-05
4.74891e-05
4.7566e-05
4.76453e-05
4.77258e-05
4.78067e-05
4.78871e-05
4.79661e-05
4.80433e-05
4.81182e-05
4.81902e-05
4.82591e-05
4.83247e-05
4.83867e-05
4.8445e-05
4.84995e-05
4.85501e-05
4.85969e-05
4.86399e-05
4.86792e-05
4.87147e-05
4.87466e-05
4.8775e-05
4.88e-05
4.88218e-05
4.88404e-05
4.88559e-05
4.88687e-05
4.88786e-05
4.88861e-05
4.88911e-05
4.88938e-05
4.88942e-05
0.000939678
0.000835685
0.000745826
0.000667931
0.000600191
0.000541097
0.000489382
0.000443986
0.000404013
0.000368711
0.00033744
0.000309659
0.000284909
0.000262797
0.000242989
0.000225195
0.000209172
0.000194705
0.000181613
0.000169736
0.000158938
0.0001491
0.000140119
0.000131903
0.000124375
0.000117467
0.000111117
0.000105273
9.98907e-05
9.49281e-05
9.03506e-05
8.61271e-05
8.22306e-05
7.86371e-05
7.53257e-05
7.22778e-05
6.94768e-05
6.69078e-05
6.45573e-05
6.2413e-05
6.04631e-05
5.86968e-05
5.71034e-05
5.56725e-05
5.43941e-05
5.32581e-05
5.22547e-05
5.13739e-05
5.06062e-05
4.99421e-05
4.93724e-05
4.88884e-05
4.84816e-05
4.81441e-05
4.78684e-05
4.76475e-05
4.74749e-05
4.73447e-05
4.72515e-05
4.71903e-05
4.71567e-05
4.71467e-05
4.71561e-05
4.71826e-05
4.7223e-05
4.72748e-05
4.73356e-05
4.74035e-05
4.74768e-05
4.75539e-05
4.76334e-05
4.77143e-05
4.77956e-05
4.78763e-05
4.79558e-05
4.80334e-05
4.81087e-05
4.81812e-05
4.82506e-05
4.83166e-05
4.83791e-05
4.84379e-05
4.84929e-05
4.85441e-05
4.85914e-05
4.86349e-05
4.86746e-05
4.87106e-05
4.8743e-05
4.87719e-05
4.87974e-05
4.88195e-05
4.88385e-05
4.88544e-05
4.88675e-05
4.88777e-05
4.88854e-05
4.88905e-05
4.88934e-05
4.88939e-05
0.000939678
0.000835686
0.000745827
0.000667933
0.000600194
0.0005411
0.000489387
0.000443992
0.00040402
0.000368719
0.000337449
0.00030967
0.000284921
0.000262811
0.000243003
0.000225211
0.000209189
0.000194724
0.000181633
0.000169757
0.000158961
0.000149124
0.000140144
0.000131929
0.000124403
0.000117495
0.000111146
0.000105303
9.99212e-05
9.49592e-05
9.03821e-05
8.61589e-05
8.22625e-05
7.86689e-05
7.53571e-05
7.23086e-05
6.95068e-05
6.69367e-05
6.4585e-05
6.24391e-05
6.04874e-05
5.87191e-05
5.71235e-05
5.56904e-05
5.44096e-05
5.32712e-05
5.22653e-05
5.13821e-05
5.0612e-05
4.99456e-05
4.93737e-05
4.88877e-05
4.8479e-05
4.81398e-05
4.78625e-05
4.76402e-05
4.74664e-05
4.73352e-05
4.72411e-05
4.71792e-05
4.7145e-05
4.71345e-05
4.71436e-05
4.71698e-05
4.72101e-05
4.72619e-05
4.73227e-05
4.73908e-05
4.74642e-05
4.75415e-05
4.76213e-05
4.77025e-05
4.77841e-05
4.78652e-05
4.79451e-05
4.80232e-05
4.80989e-05
4.81719e-05
4.82418e-05
4.83083e-05
4.83713e-05
4.84306e-05
4.84861e-05
4.85378e-05
4.85856e-05
4.86297e-05
4.86699e-05
4.87064e-05
4.87393e-05
4.87686e-05
4.87945e-05
4.88171e-05
4.88364e-05
4.88527e-05
4.8866e-05
4.88766e-05
4.88844e-05
4.88898e-05
4.88927e-05
4.88933e-05
0.000939679
0.000835686
0.000745828
0.000667934
0.000600196
0.000541104
0.000489391
0.000443997
0.000404027
0.000368727
0.000337458
0.000309681
0.000284933
0.000262824
0.000243018
0.000225227
0.000209206
0.000194742
0.000181652
0.000169778
0.000158983
0.000149148
0.000140168
0.000131955
0.00012443
0.000117523
0.000111175
0.000105333
9.99517e-05
9.49903e-05
9.04136e-05
8.61907e-05
8.22943e-05
7.87006e-05
7.53885e-05
7.23394e-05
6.95368e-05
6.69656e-05
6.46126e-05
6.24651e-05
6.05117e-05
5.87414e-05
5.71437e-05
5.57083e-05
5.44252e-05
5.32843e-05
5.22759e-05
5.13903e-05
5.06178e-05
4.99491e-05
4.9375e-05
4.8887e-05
4.84764e-05
4.81354e-05
4.78566e-05
4.76329e-05
4.74578e-05
4.73255e-05
4.72306e-05
4.71679e-05
4.71331e-05
4.71222e-05
4.71309e-05
4.71569e-05
4.71971e-05
4.72487e-05
4.73097e-05
4.73778e-05
4.74514e-05
4.75289e-05
4.7609e-05
4.76905e-05
4.77725e-05
4.78539e-05
4.79342e-05
4.80127e-05
4.80889e-05
4.81624e-05
4.82328e-05
4.82998e-05
4.83633e-05
4.84231e-05
4.84791e-05
4.85313e-05
4.85797e-05
4.86242e-05
4.86649e-05
4.87019e-05
4.87353e-05
4.87651e-05
4.87914e-05
4.88144e-05
4.88342e-05
4.88508e-05
4.88645e-05
4.88752e-05
4.88833e-05
4.88889e-05
4.88919e-05
4.88925e-05
0.000939679
0.000835687
0.000745829
0.000667936
0.000600199
0.000541107
0.000489395
0.000444002
0.000404033
0.000368734
0.000337467
0.000309691
0.000284944
0.000262837
0.000243032
0.000225243
0.000209223
0.00019476
0.000181672
0.000169799
0.000159005
0.000149171
0.000140193
0.000131981
0.000124456
0.00011755
0.000111203
0.000105363
9.99819e-05
9.50211e-05
9.04449e-05
8.62222e-05
8.23259e-05
7.87321e-05
7.54197e-05
7.23701e-05
6.95666e-05
6.69944e-05
6.464e-05
6.24911e-05
6.05359e-05
5.87637e-05
5.71638e-05
5.57262e-05
5.44407e-05
5.32974e-05
5.22865e-05
5.13984e-05
5.06236e-05
4.99526e-05
4.93764e-05
4.88862e-05
4.84738e-05
4.8131e-05
4.78506e-05
4.76255e-05
4.74492e-05
4.73159e-05
4.722e-05
4.71566e-05
4.71212e-05
4.71097e-05
4.71181e-05
4.71438e-05
4.71839e-05
4.72355e-05
4.72964e-05
4.73646e-05
4.74384e-05
4.75161e-05
4.75965e-05
4.76783e-05
4.77606e-05
4.78425e-05
4.79232e-05
4.80021e-05
4.80787e-05
4.81527e-05
4.82235e-05
4.82911e-05
4.83551e-05
4.84154e-05
4.8472e-05
4.85247e-05
4.85735e-05
4.86186e-05
4.86598e-05
4.86973e-05
4.87311e-05
4.87614e-05
4.87882e-05
4.88116e-05
4.88317e-05
4.88487e-05
4.88627e-05
4.88737e-05
4.8882e-05
4.88877e-05
4.88909e-05
4.88915e-05
0.000939679
0.000835687
0.00074583
0.000667938
0.000600201
0.00054111
0.000489399
0.000444007
0.000404039
0.000368742
0.000337476
0.0003097
0.000284955
0.000262849
0.000243045
0.000225258
0.000209239
0.000194778
0.000181691
0.000169819
0.000159027
0.000149194
0.000140217
0.000132006
0.000124483
0.000117578
0.000111232
0.000105392
0.000100012
9.50516e-05
9.04758e-05
8.62534e-05
8.23572e-05
7.87633e-05
7.54506e-05
7.24004e-05
6.95961e-05
6.70229e-05
6.46673e-05
6.25168e-05
6.05599e-05
5.87858e-05
5.71838e-05
5.57439e-05
5.4456e-05
5.33104e-05
5.22971e-05
5.14066e-05
5.06293e-05
4.9956e-05
4.93777e-05
4.88855e-05
4.84711e-05
4.81267e-05
4.78447e-05
4.76181e-05
4.74406e-05
4.73062e-05
4.72094e-05
4.71452e-05
4.71092e-05
4.70973e-05
4.71053e-05
4.71307e-05
4.71706e-05
4.72222e-05
4.72831e-05
4.73514e-05
4.74253e-05
4.75032e-05
4.75839e-05
4.7666e-05
4.77486e-05
4.78309e-05
4.7912e-05
4.79913e-05
4.80684e-05
4.81428e-05
4.82142e-05
4.82822e-05
4.83467e-05
4.84076e-05
4.84646e-05
4.85179e-05
4.85673e-05
4.86128e-05
4.86545e-05
4.86925e-05
4.87268e-05
4.87576e-05
4.87848e-05
4.88086e-05
4.88291e-05
4.88464e-05
4.88607e-05
4.8872e-05
4.88806e-05
4.88864e-05
4.88897e-05
4.88904e-05
0.000939679
0.000835688
0.000745831
0.000667939
0.000600203
0.000541113
0.000489403
0.000444012
0.000404045
0.000368749
0.000337484
0.00030971
0.000284966
0.000262861
0.000243059
0.000225272
0.000209255
0.000194795
0.000181709
0.000169839
0.000159048
0.000149216
0.00014024
0.000132031
0.000124508
0.000117605
0.00011126
0.00010542
0.000100041
9.50816e-05
9.05063e-05
8.62842e-05
8.23881e-05
7.87941e-05
7.54811e-05
7.24303e-05
6.96253e-05
6.70511e-05
6.46942e-05
6.25422e-05
6.05836e-05
5.88076e-05
5.72036e-05
5.57615e-05
5.44713e-05
5.33232e-05
5.23075e-05
5.14146e-05
5.06351e-05
4.99595e-05
4.9379e-05
4.88847e-05
4.84685e-05
4.81223e-05
4.78387e-05
4.76108e-05
4.74321e-05
4.72966e-05
4.71988e-05
4.71339e-05
4.70972e-05
4.70848e-05
4.70925e-05
4.71176e-05
4.71573e-05
4.72088e-05