/*--------------------------------*- C++ -*----------------------------------*\
  =========                 |
  \\      /  F ield         | OpenFOAM: The Open Source CFD Toolbox
   \\    /   O peration     | Website:  https://openfoam.org
    \\  /    A nd           | Version:  11
     \\/     M anipulation  |
\*---------------------------------------------------------------------------*/
FoamFile
{
    format      ascii;
    class       volScalarField;
    location    "216";
    object      omega;
}
// * * * * * * * * * * * * * * * * * * * * * * * * * * * * * * * * * * * * * //

dimensions      [0 0 -1 0 0 0 0];

internalField   nonuniform List<scalar> 
10000
(
0.961698
0.892198
0.829102
0.771744
0.719532
0.671941
0.628502
0.588798
0.552456
0.519145
0.488568
0.46046
0.434584
0.410729
0.388704
0.368339
0.349481
0.331992
0.315749
0.300639
0.286563
0.273429
0.261155
0.249666
0.238893
0.228776
0.219258
0.210287
0.201818
0.193806
0.186213
0.179005
0.172148
0.165615
0.15938
0.153421
0.147718
0.142256
0.137021
0.132004
0.127195
0.122589
0.118183
0.113974
0.109961
0.106143
0.102518
0.099085
0.0958426
0.0927873
0.0899156
0.0872233
0.0847047
0.0823537
0.0801632
0.0781256
0.0762327
0.0744765
0.0728485
0.071341
0.0699461
0.0686562
0.0674641
0.0663629
0.0653461
0.0644074
0.0635412
0.062742
0.0620047
0.0613248
0.0606977
0.0601196
0.0595866
0.0590953
0.0586426
0.0582254
0.057841
0.0574871
0.0571611
0.0568611
0.0565851
0.0563312
0.0560979
0.0558836
0.055687
0.0555068
0.0553419
0.0551913
0.055054
0.0549294
0.0548167
0.0547153
0.0546249
0.0545449
0.0544754
0.0544161
0.0543674
0.0543294
0.0543028
0.0542884
0.961698
0.892199
0.829103
0.771744
0.719533
0.671942
0.628503
0.588799
0.552458
0.519147
0.48857
0.460462
0.434586
0.410731
0.388706
0.368341
0.349483
0.331994
0.315751
0.300642
0.286565
0.273432
0.261158
0.249668
0.238896
0.228779
0.219261
0.210291
0.201822
0.19381
0.186218
0.17901
0.172154
0.165622
0.159387
0.153429
0.147727
0.142266
0.137032
0.132015
0.127207
0.122602
0.118196
0.113988
0.109975
0.106157
0.102532
0.0990997
0.0958573
0.0928022
0.0899307
0.0872383
0.0847196
0.0823681
0.0801769
0.0781385
0.0762447
0.0744876
0.0728589
0.0713507
0.0699552
0.0686647
0.0674721
0.0663704
0.065353
0.0644139
0.0635473
0.0627476
0.06201
0.0613297
0.0607023
0.0601238
0.0595905
0.059099
0.0586459
0.0582285
0.0578439
0.0574897
0.0571636
0.0568634
0.0565871
0.0563331
0.0560996
0.0558852
0.0556884
0.0555081
0.0553431
0.0551924
0.0550551
0.0549304
0.0548176
0.0547162
0.0546256
0.0545456
0.054476
0.0544167
0.054368
0.05433
0.0543034
0.0542889
0.961698
0.892199
0.829104
0.771746
0.719535
0.671944
0.628506
0.588802
0.552461
0.51915
0.488573
0.460465
0.43459
0.410734
0.38871
0.368345
0.349486
0.331998
0.315755
0.300645
0.28657
0.273436
0.261162
0.249673
0.238901
0.228784
0.219267
0.210297
0.201828
0.193817
0.186226
0.179018
0.172163
0.165632
0.159399
0.153441
0.147741
0.142281
0.137048
0.132032
0.127225
0.122622
0.118217
0.11401
0.109998
0.10618
0.102556
0.0991235
0.0958811
0.092826
0.0899544
0.0872617
0.0847425
0.0823903
0.0801983
0.0781588
0.076264
0.0745058
0.072876
0.0713668
0.0699702
0.0686788
0.0674853
0.0663827
0.0653645
0.0644246
0.0635572
0.0627569
0.0620186
0.0613377
0.0607097
0.0601307
0.0595969
0.0591048
0.0586514
0.0582335
0.0578486
0.057494
0.0571675
0.056867
0.0565905
0.0563362
0.0561025
0.0558878
0.0556908
0.0555103
0.0553451
0.0551943
0.0550568
0.054932
0.0548191
0.0547175
0.0546269
0.0545468
0.0544772
0.0544179
0.054369
0.0543311
0.0543044
0.0542899
0.961698
0.8922
0.829105
0.771748
0.719537
0.671947
0.628509
0.588806
0.552464
0.519154
0.488577
0.46047
0.434594
0.410739
0.388714
0.36835
0.349492
0.332003
0.31576
0.300651
0.286575
0.273442
0.261168
0.249679
0.238908
0.228792
0.219275
0.210305
0.201837
0.193827
0.186237
0.17903
0.172176
0.165646
0.159414
0.153459
0.14776
0.142301
0.13707
0.132056
0.127251
0.122649
0.118246
0.11404
0.110029
0.106212
0.102588
0.0991561
0.0959139
0.0928586
0.0899867
0.0872934
0.0847734
0.0824203
0.0802272
0.0781864
0.0762903
0.0745306
0.0728995
0.0713889
0.069991
0.0686983
0.0675035
0.0663998
0.0653805
0.0644395
0.0635711
0.0627698
0.0620305
0.0613487
0.06072
0.0601402
0.0596057
0.059113
0.0586589
0.0582404
0.057855
0.0574999
0.057173
0.056872
0.0565951
0.0563404
0.0561064
0.0558914
0.0556941
0.0555134
0.0553479
0.0551969
0.0550592
0.0549342
0.0548212
0.0547195
0.0546287
0.0545486
0.0544789
0.0544195
0.0543706
0.0543326
0.054306
0.0542914
0.961698
0.8922
0.829105
0.771749
0.719539
0.67195
0.628512
0.588809
0.552469
0.519158
0.488582
0.460475
0.4346
0.410745
0.38872
0.368356
0.349498
0.33201
0.315767
0.300658
0.286582
0.273449
0.261176
0.249688
0.238917
0.228801
0.219285
0.210316
0.201849
0.19384
0.18625
0.179045
0.172193
0.165665
0.159435
0.153481
0.147784
0.142328
0.137099
0.132087
0.127284
0.122684
0.118283
0.114078
0.110068
0.106252
0.102629
0.0991973
0.095955
0.0928995
0.0900271
0.0873331
0.0848121
0.0824578
0.0802632
0.0782209
0.0763231
0.0745619
0.072929
0.0714168
0.0700172
0.0687229
0.0675266
0.0664213
0.0654006
0.0644582
0.0635885
0.062786
0.0620456
0.0613627
0.0607329
0.0601522
0.0596168
0.0591233
0.0586684
0.0582492
0.0578631
0.0575074
0.0571798
0.0568783
0.0566009
0.0563458
0.0561113
0.0558959
0.0556983
0.0555172
0.0553515
0.0552002
0.0550623
0.0549371
0.0548238
0.054722
0.0546311
0.0545509
0.054481
0.0544216
0.0543727
0.0543346
0.054308
0.0542934
0.961698
0.8922
0.829106
0.77175
0.719541
0.671953
0.628516
0.588813
0.552473
0.519164
0.488588
0.460481
0.434606
0.410752
0.388727
0.368363
0.349505
0.332017
0.315775
0.300666
0.286591
0.273458
0.261185
0.249698
0.238927
0.228812
0.219297
0.210329
0.201863
0.193855
0.186267
0.179064
0.172213
0.165687
0.159459
0.153507
0.147813
0.142359
0.137133
0.132124
0.127323
0.122725
0.118326
0.114123
0.110115
0.1063
0.102677
0.0992461
0.0960038
0.092948
0.0900749
0.0873799
0.0848577
0.0825019
0.0803057
0.0782617
0.076362
0.0745988
0.072964
0.0714498
0.0700483
0.0687521
0.067554
0.0664469
0.0654245
0.0644806
0.0636093
0.0628054
0.0620636
0.0613794
0.0607484
0.0601666
0.0596301
0.0591356
0.0586797
0.0582597
0.0578727
0.0575163
0.0571881
0.0568859
0.0566079
0.0563522
0.0561172
0.0559014
0.0557034
0.0555219
0.0553558
0.0552042
0.055066
0.0549405
0.0548271
0.0547251
0.054634
0.0545536
0.0544837
0.0544242
0.0543752
0.0543371
0.0543104
0.0542958
0.961698
0.8922
0.829107
0.771751
0.719543
0.671955
0.628519
0.588817
0.552478
0.519169
0.488593
0.460487
0.434613
0.410759
0.388735
0.368371
0.349514
0.332026
0.315784
0.300676
0.286601
0.273468
0.261196
0.249709
0.238939
0.228825
0.219311
0.210344
0.201879
0.193873
0.186287
0.179085
0.172237
0.165712
0.159487
0.153538
0.147846
0.142396
0.137172
0.132166
0.127368
0.122772
0.118376
0.114175
0.110168
0.106354
0.102733
0.0993017
0.0960594
0.0930031
0.0901292
0.0874332
0.0849096
0.0825521
0.0803541
0.078308
0.0764062
0.0746408
0.0730039
0.0714874
0.0700838
0.0687855
0.0675852
0.0664762
0.0654519
0.0645061
0.0636332
0.0628275
0.0620842
0.0613986
0.0607662
0.060183
0.0596453
0.0591496
0.0586928
0.0582717
0.0578838
0.0575265
0.0571975
0.0568946
0.0566159
0.0563596
0.056124
0.0559077
0.0557092
0.0555272
0.0553608
0.0552088
0.0550703
0.0549445
0.0548308
0.0547286
0.0546374
0.0545568
0.0544868
0.0544272
0.0543781
0.05434
0.0543132
0.0542986
0.961698
0.8922
0.829107
0.771752
0.719544
0.671957
0.628522
0.588821
0.552482
0.519173
0.488599
0.460493
0.434619
0.410766
0.388742
0.368379
0.349522
0.332035
0.315793
0.300686
0.286612
0.27348
0.261208
0.249722
0.238953
0.22884
0.219326
0.210361
0.201898
0.193893
0.186309
0.179109
0.172263
0.165741
0.159519
0.153573
0.147884
0.142436
0.137216
0.132213
0.127418
0.122825
0.118431
0.114232
0.110227
0.106415
0.102794
0.0993634
0.0961211
0.0930643
0.0901895
0.0874922
0.084967
0.0826078
0.0804076
0.0783594
0.0764553
0.0746875
0.0730481
0.0715292
0.0701232
0.0688225
0.06762
0.0665088
0.0654824
0.0645346
0.0636597
0.0628522
0.0621072
0.0614199
0.060786
0.0602014
0.0596623
0.0591654
0.0587073
0.0582852
0.0578962
0.057538
0.0572081
0.0569044
0.0566249
0.0563679
0.0561317
0.0559147
0.0557157
0.0555333
0.0553663
0.0552139
0.0550751
0.054949
0.0548351
0.0547326
0.0546412
0.0545605
0.0544903
0.0544306
0.0543814
0.0543432
0.0543164
0.0543017
0.961698
0.8922
0.829107
0.771753
0.719545
0.671959
0.628524
0.588824
0.552486
0.519178
0.488604
0.460499
0.434626
0.410773
0.38875
0.368387
0.349531
0.332045
0.315803
0.300697
0.286623
0.273492
0.261221
0.249736
0.238968
0.228856
0.219344
0.21038
0.201918
0.193915
0.186333
0.179136
0.172292
0.165773
0.159554
0.153611
0.147925
0.142481
0.137264
0.132264
0.127472
0.122883
0.118491
0.114295
0.110292
0.106481
0.102861
0.0994306
0.0961881
0.0931308
0.090255
0.0875563
0.0850294
0.0826681
0.0804658
0.0784151
0.0765085
0.0747382
0.0730961
0.0715747
0.0701661
0.0688629
0.0676579
0.0665443
0.0655156
0.0645656
0.0636886
0.0628792
0.0621323
0.0614432
0.0608076
0.0602214
0.0596809
0.0591826
0.0587232
0.0582999
0.0579098
0.0575505
0.0572196
0.056915
0.0566347
0.056377
0.05614
0.0559224
0.0557228
0.0555399
0.0553725
0.0552196
0.0550804
0.054954
0.0548397
0.054737
0.0546454
0.0545645
0.0544941
0.0544343
0.0543851
0.0543468
0.0543199
0.0543051
0.961698
0.8922
0.829107
0.771753
0.719546
0.67196
0.628526
0.588826
0.552489
0.519182
0.488609
0.460505
0.434632
0.41078
0.388758
0.368396
0.34954
0.332054
0.315814
0.300708
0.286635
0.273505
0.261235
0.249751
0.238984
0.228873
0.219363
0.210401
0.20194
0.19394
0.18636
0.179165
0.172324
0.165808
0.159591
0.153652
0.14797
0.142529
0.137316
0.132319
0.127531
0.122944
0.118556
0.114362
0.110361
0.106551
0.102932
0.0995024
0.0962599
0.0932019
0.090325
0.0876249
0.0850961
0.0827327
0.080528
0.0784748
0.0765655
0.0747924
0.0731476
0.0716234
0.070212
0.0689062
0.0676986
0.0665824
0.0655513
0.0645989
0.0637197
0.0629082
0.0621593
0.0614683
0.0608309
0.060243
0.0597009
0.0592011
0.0587404
0.0583157
0.0579244
0.057564
0.0572321
0.0569265
0.0566453
0.0563867
0.0561491
0.0559308
0.0557305
0.055547
0.0553791
0.0552258
0.0550862
0.0549594
0.0548448
0.0547418
0.0546499
0.0545689
0.0544983
0.0544384
0.054389
0.0543506
0.0543237
0.0543089
0.961698
0.8922
0.829107
0.771753
0.719546
0.671961
0.628528
0.588829
0.552492
0.519186
0.488614
0.46051
0.434639
0.410787
0.388766
0.368404
0.34955
0.332064
0.315825
0.30072
0.286648
0.273519
0.26125
0.249766
0.239001
0.228892
0.219383
0.210422
0.201964
0.193966
0.186388
0.179196
0.172358
0.165845
0.159632
0.153696
0.148017
0.14258
0.137371
0.132378
0.127593
0.12301
0.118624
0.114433
0.110434
0.106626
0.103008
0.0995784
0.0963357
0.093277
0.090399
0.0876973
0.0851666
0.082801
0.0805938
0.0785379
0.0766258
0.0748498
0.0732021
0.0716749
0.0702607
0.068952
0.0677416
0.0666228
0.0655891
0.0646343
0.0637527
0.0629389
0.0621879
0.0614949
0.0608556
0.060266
0.0597222
0.0592208
0.0587586
0.0583326
0.05794
0.0575784
0.0572453
0.0569388
0.0566566
0.0563972
0.0561587
0.0559397
0.0557387
0.0555546
0.0553862
0.0552324
0.0550923
0.0549651
0.0548502
0.0547469
0.0546548
0.0545735
0.0545028
0.0544427
0.0543932
0.0543548
0.0543278
0.0543129
0.961698
0.8922
0.829107
0.771753
0.719547
0.671962
0.628529
0.588831
0.552495
0.51919
0.488618
0.460515
0.434644
0.410794
0.388773
0.368413
0.349559
0.332074
0.315836
0.300731
0.286661
0.273533
0.261265
0.249783
0.239019
0.228911
0.219404
0.210445
0.201989
0.193993
0.186418
0.179229
0.172394
0.165884
0.159674
0.153742
0.148067
0.142634
0.137429
0.13244
0.127658
0.123079
0.118696
0.114507
0.11051
0.106704
0.103087
0.0996578
0.0964149
0.0933556
0.0904764
0.087773
0.0852403
0.0828723
0.0806626
0.0786039
0.0766889
0.0749099
0.0732591
0.0717289
0.0703117
0.069
0.0677867
0.0666651
0.0656287
0.0646714
0.0637873
0.0629712
0.0622179
0.0615229
0.0608816
0.0602901
0.0597445
0.0592415
0.0587777
0.0583503
0.0579564
0.0575935
0.0572593
0.0569517
0.0566685
0.0564082
0.0561688
0.0559491
0.0557474
0.0555627
0.0553936
0.0552393
0.0550988
0.0549712
0.054856
0.0547524
0.05466
0.0545784
0.0545075
0.0544473
0.0543977
0.0543591
0.0543321
0.0543172
0.961698
0.8922
0.829107
0.771753
0.719547
0.671962
0.62853
0.588832
0.552497
0.519193
0.488622
0.46052
0.43465
0.4108
0.388781
0.368421
0.349568
0.332084
0.315847
0.300743
0.286674
0.273547
0.26128
0.2498
0.239037
0.228931
0.219426
0.210469
0.202015
0.194022
0.186449
0.179263
0.172431
0.165925
0.159719
0.15379
0.14812
0.142691
0.137489
0.132504
0.127726
0.12315
0.11877
0.114584
0.110589
0.106785
0.103169
0.0997402
0.0964971
0.0934371
0.0905566
0.0878515
0.0853167
0.0829464
0.0807339
0.0786724
0.0767543
0.0749722
0.0733183
0.071785
0.0703646
0.0690499
0.0678337
0.0667092
0.06567
0.0647099
0.0638233
0.0630048
0.0622492
0.061552
0.0609086
0.0603152
0.0597678
0.0592631
0.0587977
0.0583688
0.0579735
0.0576093
0.0572739
0.0569651
0.056681
0.0564196
0.0561794
0.0559589
0.0557565
0.0555711
0.0554014
0.0552466
0.0551056
0.0549776
0.0548619
0.054758
0.0546653
0.0545836
0.0545125
0.054452
0.0544023
0.0543637
0.0543365
0.0543216
0.961698
0.892199
0.829106
0.771753
0.719547
0.671963
0.628531
0.588834
0.552499
0.519195
0.488625
0.460524
0.434655
0.410806
0.388787
0.368429
0.349577
0.332094
0.315858
0.300755
0.286687
0.273561
0.261296
0.249817
0.239056
0.228952
0.219448
0.210494
0.202043
0.194051
0.186482
0.179299
0.17247
0.165967
0.159765
0.15384
0.148174
0.142749
0.137551
0.13257
0.127796
0.123224
0.118847
0.114664
0.110671
0.106868
0.103253
0.099825
0.0965817
0.0935209
0.0906392
0.0879324
0.0853954
0.0830226
0.0808074
0.0787429
0.0768218
0.0750365
0.0733794
0.0718428
0.0704192
0.0691014
0.0678821
0.0667546
0.0657125
0.0647498
0.0638606
0.0630395
0.0622816
0.0615821
0.0609366
0.0603411
0.0597919
0.0592854
0.0588184
0.0583879
0.0579911
0.0576256
0.057289
0.0569791
0.0566938
0.0564315
0.0561904
0.055969
0.0557659
0.0555798
0.0554095
0.0552541
0.0551126
0.0549842
0.0548682
0.0547639
0.0546709
0.0545889
0.0545176
0.054457
0.0544071
0.0543683
0.0543411
0.0543262
0.961698
0.892199
0.829106
0.771752
0.719547
0.671963
0.628531
0.588835
0.552501
0.519198
0.488628
0.460528
0.43466
0.410812
0.388794
0.368436
0.349585
0.332104
0.315869
0.300767
0.2867
0.273576
0.261312
0.249835
0.239076
0.228973
0.219471
0.210519
0.20207
0.194082
0.186515
0.179335
0.17251
0.166011
0.159812
0.153891
0.148229
0.142808
0.137615
0.132638
0.127868
0.123299
0.118926
0.114745
0.110755
0.106953
0.103339
0.0999116
0.0966682
0.0936066
0.0907236
0.088015
0.0854759
0.0831005
0.0808826
0.0788151
0.0768908
0.0751023
0.0734419
0.071902
0.0704752
0.0691541
0.0679317
0.0668012
0.0657562
0.0647907
0.0638988
0.0630751
0.0623148
0.061613
0.0609653
0.0603678
0.0598167
0.0593083
0.0588396
0.0584075
0.0580093
0.0576424
0.0573045
0.0569934
0.0567071
0.0564438
0.0562017
0.0559795
0.0557756
0.0555888
0.0554179
0.0552619
0.0551199
0.054991
0.0548745
0.0547699
0.0546766
0.0545944
0.0545228
0.054462
0.054412
0.0543732
0.0543459
0.0543308
0.961697
0.892199
0.829106
0.771752
0.719547
0.671963
0.628532
0.588836
0.552502
0.5192
0.488631
0.460532
0.434664
0.410817
0.3888
0.368443
0.349594
0.332113
0.315879
0.300779
0.286713
0.27359
0.261328
0.249852
0.239095
0.228995
0.219495
0.210545
0.202099
0.194113
0.186549
0.179372
0.172551
0.166055
0.15986
0.153944
0.148286
0.142869
0.13768
0.132707
0.127941
0.123376
0.119006
0.114828
0.11084
0.10704
0.103427
0.0999998
0.0967562
0.0936938
0.0908095
0.0880991
0.0855578
0.0831799
0.0809591
0.0788885
0.0769611
0.0751693
0.0735056
0.0719624
0.0705322
0.0692079
0.0679823
0.0668488
0.0658008
0.0648324
0.0639377
0.0631115
0.0623487
0.0616445
0.0609947
0.0603951
0.0598419
0.0593318
0.0588613
0.0584276
0.0580279
0.0576596
0.0573204
0.0570081
0.0567206
0.0564563
0.0562133
0.0559902
0.0557855
0.055598
0.0554264
0.0552699
0.0551273
0.054998
0.0548811
0.0547761
0.0546825
0.0545999
0.0545282
0.0544672
0.054417
0.054378
0.0543507
0.0543356
0.961697
0.892199
0.829105
0.771752
0.719546
0.671963
0.628532
0.588836
0.552504
0.519202
0.488634
0.460535
0.434668
0.410822
0.388806
0.36845
0.349602
0.332123
0.315889
0.300791
0.286726
0.273605
0.261344
0.24987
0.239115
0.229016
0.219519
0.210571
0.202127
0.194144
0.186584
0.17941
0.172592
0.1661
0.159909
0.153997
0.148343
0.142931
0.137746
0.132777
0.128015
0.123453
0.119087
0.114912
0.110926
0.107128
0.103516
0.100089
0.0968452
0.093782
0.0908964
0.0881842
0.0856407
0.0832602
0.0810365
0.078963
0.0770323
0.0752372
0.0735701
0.0720236
0.0705901
0.0692625
0.0680337
0.066897
0.065846
0.0648747
0.0639773
0.0631485
0.0623831
0.0616766
0.0610245
0.0604228
0.0598677
0.0593556
0.0588834
0.0584481
0.0580468
0.0576771
0.0573366
0.057023
0.0567344
0.056469
0.0562251
0.0560011
0.0557956
0.0556073
0.0554351
0.055278
0.0551349
0.055005
0.0548877
0.0547824
0.0546884
0.0546056
0.0545336
0.0544724
0.0544221
0.054383
0.0543555
0.0543404
0.961697
0.892199
0.829105
0.771751
0.719546
0.671963
0.628532
0.588837
0.552505
0.519203
0.488636
0.460538
0.434672
0.410827
0.388812
0.368457
0.349609
0.332131
0.3159
0.300802
0.286739
0.273619
0.26136
0.249888
0.239134
0.229038
0.219543
0.210598
0.202156
0.194176
0.186619
0.179448
0.172634
0.166146
0.159959
0.15405
0.148401
0.142993
0.137812
0.132848
0.12809
0.123532
0.119168
0.114996
0.111012
0.107216
0.103605
0.100179
0.0969347
0.0938708
0.0909839
0.0882699
0.0857242
0.0833411
0.0811146
0.079038
0.0771041
0.0753057
0.0736353
0.0720853
0.0706485
0.0693176
0.0680855
0.0669457
0.0658917
0.0649175
0.0640173
0.0631858
0.0624179
0.061709
0.0610547
0.0604508
0.0598937
0.0593797
0.0589058
0.0584688
0.058066
0.0576948
0.0573529
0.0570381
0.0567484
0.0564819
0.056237
0.0560121
0.0558058
0.0556168
0.0554439
0.0552861
0.0551425
0.0550122
0.0548945
0.0547887
0.0546945
0.0546113
0.0545391
0.0544777
0.0544272
0.0543879
0.0543604
0.0543452
0.961697
0.892198
0.829105
0.771751
0.719546
0.671963
0.628532
0.588837
0.552505
0.519204
0.488638
0.46054
0.434676
0.410831
0.388817
0.368463
0.349617
0.33214
0.315909
0.300813
0.286752
0.273633
0.261376
0.249905
0.239154
0.229059
0.219567
0.210624
0.202185
0.194208
0.186654
0.179487
0.172675
0.166191
0.160008
0.154104
0.148459
0.143055
0.137879
0.132918
0.128164
0.12361
0.11925
0.11508
0.111099
0.107304
0.103695
0.100269
0.0970246
0.0939599
0.0910717
0.0883559
0.085808
0.0834224
0.081193
0.0791134
0.0771763
0.0753745
0.0737007
0.0721474
0.0707072
0.0693729
0.0681377
0.0669947
0.0659377
0.0649606
0.0640576
0.0632234
0.062453
0.0617417
0.061085
0.060479
0.0599199
0.059404
0.0589283
0.0584896
0.0580853
0.0577127
0.0573694
0.0570534
0.0567625
0.0564949
0.0562491
0.0560232
0.0558161
0.0556263
0.0554528
0.0552944
0.0551502
0.0550194
0.0549012
0.0547951
0.0547005
0.054617
0.0545446
0.0544829
0.0544323
0.0543929
0.0543653
0.05435
0.961697
0.892198
0.829104
0.771751
0.719546
0.671962
0.628532
0.588838
0.552506
0.519206
0.48864
0.460543
0.434679
0.410835
0.388822
0.368469
0.349624
0.332148
0.315919
0.300824
0.286764
0.273647
0.261392
0.249923
0.239173
0.229081
0.21959
0.21065
0.202214
0.19424
0.186688
0.179525
0.172717
0.166237
0.160058
0.154158
0.148517
0.143117
0.137945
0.132989
0.128239
0.123688
0.119331
0.115165
0.111186
0.107393
0.103784
0.100359
0.0971143
0.0940489
0.0911594
0.0884419
0.0858917
0.0835036
0.0812715
0.0791887
0.0772485
0.0754434
0.0737662
0.0722095
0.070766
0.0694284
0.0681899
0.0670438
0.0659838
0.0650037
0.0640979
0.0632611
0.0624882
0.0617744
0.0611155
0.0605074
0.0599462
0.0594284
0.0589509
0.0585106
0.0581046
0.0577306
0.057386
0.0570686
0.0567766
0.056508
0.0562611
0.0560344
0.0558264
0.0556359
0.0554617
0.0553027
0.0551579
0.0550266
0.054908
0.0548015
0.0547065
0.0546228
0.05455
0.0544882
0.0544374
0.0543978
0.0543701
0.0543548
0.961697
0.892198
0.829104
0.77175
0.719545
0.671962
0.628532
0.588838
0.552507
0.519207
0.488641
0.460545
0.434682
0.410839
0.388827
0.368475
0.349631
0.332156
0.315928
0.300835
0.286776
0.273661
0.261407
0.24994
0.239192
0.229102
0.219614
0.210676
0.202243
0.194271
0.186723
0.179563
0.172759
0.166282
0.160107
0.154211
0.148574
0.143179
0.138012
0.133059
0.128313
0.123766
0.119412
0.115249
0.111272
0.107481
0.103873
0.100448
0.0972036
0.0941375
0.0912467
0.0885274
0.0859752
0.0835845
0.0813496
0.0792639
0.0773204
0.0755121
0.0738316
0.0722715
0.0708246
0.0694838
0.0682421
0.0670929
0.0660298
0.0650468
0.0641383
0.0632988
0.0625233
0.0618072
0.061146
0.0605357
0.0599724
0.0594528
0.0589735
0.0585315
0.058124
0.0577485
0.0574025
0.0570839
0.0567908
0.0565211
0.0562732
0.0560456
0.0558368
0.0556455
0.0554706
0.0553109
0.0551656
0.0550338
0.0549147
0.0548078
0.0547125
0.0546285
0.0545555
0.0544934
0.0544424
0.0544027
0.0543749
0.0543596
0.961697
0.892198
0.829104
0.77175
0.719545
0.671962
0.628532
0.588838
0.552507
0.519208
0.488643
0.460547
0.434685
0.410843
0.388832
0.368481
0.349637
0.332164
0.315937
0.300845
0.286788
0.273674
0.261422
0.249957
0.239211
0.229123
0.219637
0.210702
0.202271
0.194303
0.186758
0.179601
0.1728
0.166327
0.160156
0.154264
0.148632
0.143241
0.138077
0.133129
0.128387
0.123843
0.119493
0.115332
0.111357
0.107568
0.103961
0.100537
0.0972922
0.0942253
0.0913333
0.0886124
0.086058
0.0836649
0.0814272
0.0793385
0.0773919
0.0755803
0.0738965
0.0723331
0.0708829
0.0695389
0.068294
0.0671417
0.0660756
0.0650897
0.0641784
0.0633363
0.0625583
0.0618397
0.0611763
0.0605639
0.0599986
0.0594771
0.058996
0.0585523
0.0581433
0.0577663
0.057419
0.0570992
0.0568048
0.0565341
0.0562852
0.0560567
0.0558471
0.055655
0.0554794
0.0553192
0.0551733
0.055041
0.0549214
0.0548141
0.0547185
0.0546341
0.0545608
0.0544986
0.0544474
0.0544076
0.0543797
0.0543643
0.961697
0.892197
0.829103
0.77175
0.719545
0.671962
0.628532
0.588838
0.552508
0.519209
0.488644
0.460549
0.434687
0.410846
0.388836
0.368486
0.349644
0.332171
0.315946
0.300855
0.286799
0.273687
0.261437
0.249973
0.239229
0.229144
0.21966
0.210727
0.202299
0.194334
0.186792
0.179638
0.172841
0.166372
0.160205
0.154317
0.148688
0.143301
0.138142
0.133198
0.128459
0.123919
0.119572
0.115414
0.111442
0.107654
0.104048
0.100624
0.0973797
0.0943122
0.091419
0.0886964
0.0861399
0.0837444
0.081504
0.0794124
0.0774627
0.0756479
0.0739609
0.0723942
0.0709408
0.0695935
0.0683454
0.0671901
0.066121
0.0651323
0.0642182
0.0633735
0.062593
0.0618721
0.0612064
0.0605918
0.0600246
0.0595012
0.0590183
0.058573
0.0581624
0.057784
0.0574354
0.0571143
0.0568188
0.056547
0.0562972
0.0560677
0.0558573
0.0556645
0.0554882
0.0553273
0.0551809
0.055048
0.0549281
0.0548203
0.0547243
0.0546397
0.0545661
0.0545036
0.0544523
0.0544124
0.0543843
0.0543689
0.961697
0.892197
0.829103
0.771749
0.719544
0.671961
0.628532
0.588838
0.552508
0.519209
0.488645
0.460551
0.43469
0.410849
0.38884
0.368491
0.34965
0.332179
0.315954
0.300865
0.286811
0.2737
0.261451
0.249989
0.239248
0.229164
0.219682
0.210752
0.202327
0.194364
0.186825
0.179675
0.172881
0.166416
0.160252
0.154368
0.148744
0.143361
0.138206
0.133265
0.128531
0.123994
0.11965
0.115495
0.111525
0.107738
0.104134
0.100711
0.0974659
0.0943978
0.0915035
0.0887792
0.0862207
0.0838228
0.0815798
0.0794853
0.0775326
0.0757147
0.0740244
0.0724545
0.0709979
0.0696474
0.0683963
0.0672379
0.0661659
0.0651744
0.0642576
0.0634103
0.0626273
0.0619041
0.0612362
0.0606195
0.0600503
0.0595251
0.0590405
0.0585935
0.0581814
0.0578015
0.0574516
0.0571293
0.0568326
0.0565598
0.056309
0.0560786
0.0558674
0.0556738
0.0554969
0.0553354
0.0551884
0.055055
0.0549346
0.0548265
0.0547301
0.0546452
0.0545714
0.0545086
0.0544571
0.054417
0.0543889
0.0543734
0.961697
0.892197
0.829103
0.771749
0.719544
0.671961
0.628532
0.588838
0.552509
0.51921
0.488647
0.460553
0.434692
0.410853
0.388844
0.368496
0.349655
0.332186
0.315962
0.300874
0.286821
0.273712
0.261465
0.250005
0.239265
0.229183
0.219704
0.210776
0.202354
0.194394
0.186858
0.17971
0.17292
0.166458
0.160299
0.154419
0.148798
0.143419
0.138268
0.133332
0.128601
0.124068
0.119727
0.115574
0.111606
0.107822
0.104218
0.100795
0.0975506
0.0944819
0.0915864
0.0888606
0.0863002
0.0839
0.0816544
0.0795571
0.0776014
0.0757804
0.074087
0.072514
0.0710542
0.0697006
0.0684464
0.067285
0.0662102
0.0652159
0.0642964
0.0634466
0.0626612
0.0619357
0.0612656
0.0606468
0.0600757
0.0595486
0.0590623
0.0586137
0.0582001
0.0578188
0.0574676
0.0571441
0.0568463
0.0565724
0.0563206
0.0560894
0.0558773
0.055683
0.0555054
0.0553433
0.0551957
0.0550619
0.054941
0.0548325
0.0547358
0.0546505
0.0545765
0.0545135
0.0544618
0.0544216
0.0543934
0.0543778
0.961697
0.892197
0.829102
0.771749
0.719543
0.671961
0.628532
0.588838
0.552509
0.519211
0.488648
0.460555
0.434695
0.410856
0.388848
0.3685
0.349661
0.332192
0.31597
0.300883
0.286832
0.273724
0.261479
0.25002
0.239282
0.229203
0.219726
0.2108
0.20238
0.194423
0.18689
0.179746
0.172959
0.1665
0.160344
0.154468
0.148851
0.143477
0.138329
0.133397
0.12867
0.12414
0.119802
0.115652
0.111686
0.107903
0.104301
0.100878
0.0976336
0.0945643
0.0916677
0.0889404
0.0863781
0.0839756
0.0817275
0.0796274
0.0776689
0.0758449
0.0741484
0.0725723
0.0711094
0.0697528
0.0684956
0.0673313
0.0662537
0.0652566
0.0643346
0.0634822
0.0626945
0.0619667
0.0612944
0.0606737
0.0601006
0.0595717
0.0590837
0.0586336
0.0582185
0.0578358
0.0574833
0.0571586
0.0568597
0.0565848
0.056332
0.0561
0.0558871
0.0556921
0.0555138
0.055351
0.0552029
0.0550686
0.0549473
0.0548384
0.0547414
0.0546558
0.0545815
0.0545183
0.0544664
0.054426
0.0543977
0.0543821
0.961697
0.892197
0.829102
0.771748
0.719543
0.67196
0.628531
0.588838
0.552509
0.519212
0.488649
0.460556
0.434697
0.410858
0.388851
0.368505
0.349666
0.332198
0.315978
0.300892
0.286842
0.273736
0.261492
0.250035
0.239299
0.229221
0.219746
0.210823
0.202406
0.194451
0.186921
0.17978
0.172996
0.166541
0.160389
0.154516
0.148903
0.143532
0.138389
0.13346
0.128736
0.12421
0.119875
0.115727
0.111764
0.107982
0.104381
0.100959
0.0977145
0.0946447
0.0917472
0.0890184
0.0864542
0.0840496
0.081799
0.0796963
0.0777349
0.075908
0.0742085
0.0726294
0.0711635
0.0698039
0.0685438
0.0673767
0.0662963
0.0652966
0.064372
0.0635172
0.0627271
0.0619971
0.0613227
0.0607
0.0601251
0.0595944
0.0591047
0.058653
0.0582365
0.0578525
0.0574987
0.0571728
0.0568728
0.0565969
0.0563432
0.0561103
0.0558966
0.0557009
0.055522
0.0553586
0.05521
0.0550752
0.0549535
0.0548442
0.0547468
0.0546609
0.0545863
0.0545229
0.0544708
0.0544304
0.0544019
0.0543862
0.961697
0.892196
0.829102
0.771748
0.719543
0.67196
0.628531
0.588838
0.552509
0.519212
0.48865
0.460558
0.434699
0.410861
0.388854
0.368509
0.349671
0.332205
0.315985
0.300901
0.286851
0.273747
0.261504
0.250049
0.239315
0.229239
0.219766
0.210846
0.20243
0.194478
0.186951
0.179813
0.173032
0.166581
0.160432
0.154563
0.148954
0.143587
0.138447
0.133522
0.128801
0.124278
0.119946
0.115801
0.111839
0.10806
0.10446
0.101038
0.0977933
0.094723
0.0918245
0.0890943
0.0865283
0.0841216
0.0818687
0.0797634
0.0777993
0.0759696
0.0742672
0.0726851
0.0712163
0.0698538
0.0685909
0.067421
0.0663379
0.0653356
0.0644085
0.0635513
0.062759
0.0620268
0.0613504
0.0607257
0.060149
0.0596166
0.0591253
0.0586721
0.0582541
0.0578688
0.0575137
0.0571867
0.0568857
0.0566087
0.0563542
0.0561204
0.055906
0.0557096
0.0555299
0.055366
0.0552169
0.0550816
0.0549594
0.0548497
0.054752
0.0546658
0.054591
0.0545274
0.0544751
0.0544345
0.054406
0.0543903
0.961696
0.892196
0.829102
0.771748
0.719542
0.67196
0.628531
0.588838
0.55251
0.519213
0.488651
0.460559
0.434701
0.410863
0.388858
0.368513
0.349676
0.33221
0.315992
0.300909
0.286861
0.273757
0.261516
0.250063
0.23933
0.229257
0.219786
0.210867
0.202454
0.194505
0.18698
0.179845
0.173068
0.166619
0.160474
0.154608
0.149003
0.143639
0.138503
0.133581
0.128864
0.124344
0.120015
0.115872
0.111913
0.108134
0.104536
0.101115
0.0978697
0.094799
0.0918995
0.089168
0.0866003
0.0841916
0.0819364
0.0798286
0.0778619
0.0760294
0.0743242
0.0727393
0.0712676
0.0699024
0.0686367
0.0674641
0.0663784
0.0653736
0.0644441
0.0635845
0.06279
0.0620557
0.0613773
0.0607508
0.0601722
0.0596381
0.0591453
0.0586906
0.0582712
0.0578846
0.0575284
0.0572002
0.0568981
0.0566202
0.0563648
0.0561302
0.055915
0.0557179
0.0555377
0.0553732
0.0552235
0.0550878
0.0549652
0.0548551
0.0547571
0.0546706
0.0545955
0.0545317
0.0544793
0.0544385
0.0544099
0.0543941
0.961696
0.892196
0.829101
0.771747
0.719542
0.67196
0.628531
0.588838
0.55251
0.519213
0.488652
0.46056
0.434702
0.410866
0.388861
0.368517
0.349681
0.332216
0.315998
0.300916
0.28687
0.273768
0.261528
0.250076
0.239345
0.229273
0.219805
0.210888
0.202477
0.19453
0.187008
0.179876
0.173102
0.166656
0.160514
0.154652
0.14905
0.14369
0.138557
0.133639
0.128925
0.124408
0.120081
0.115941
0.111983
0.108207
0.104609
0.101188
0.0979437
0.0948725
0.0919721
0.0892394
0.08667
0.0842594
0.0820019
0.0798918
0.0779225
0.0760874
0.0743795
0.0727918
0.0713174
0.0699494
0.0686811
0.0675059
0.0664176
0.0654104
0.0644786
0.0636168
0.0628201
0.0620838
0.0614035
0.0607751
0.0601948
0.0596591
0.0591647
0.0587086
0.0582879
0.0579
0.0575426
0.0572133
0.0569102
0.0566314
0.0563751
0.0561397
0.0559238
0.0557261
0.0555452
0.0553802
0.05523
0.0550938
0.0549708
0.0548604
0.054762
0.0546753
0.0545999
0.0545359
0.0544833
0.0544424
0.0544137
0.0543978
0.961696
0.892196
0.829101
0.771747
0.719542
0.671959
0.628531
0.588838
0.55251
0.519214
0.488652
0.460561
0.434704
0.410868
0.388864
0.36852
0.349685
0.332221
0.316005
0.300924
0.286878
0.273777
0.261539
0.250089
0.23936
0.229289
0.219822
0.210908
0.2025
0.194555
0.187035
0.179906
0.173134
0.166692
0.160553
0.154694
0.149095
0.143738
0.138609
0.133694
0.128983
0.124469
0.120145
0.116007
0.112052
0.108276
0.10468
0.10126
0.0980149
0.0949433
0.0920422
0.0893082
0.0867373
0.0843248
0.0820652
0.0799528
0.0779811
0.0761434
0.0744329
0.0728426
0.0713656
0.0699949
0.068724
0.0675463
0.0664556
0.065446
0.0645119
0.063648
0.0628492
0.0621109
0.0614287
0.0607986
0.0602166
0.0596793
0.0591835
0.0587259
0.0583039
0.0579149
0.0575563
0.057226
0.0569219
0.0566422
0.0563851
0.0561489
0.0559323
0.0557339
0.0555524
0.0553869
0.0552362
0.0550996
0.0549762
0.0548654
0.0547667
0.0546797
0.0546041
0.0545399
0.0544871
0.0544461
0.0544173
0.0544014
0.961696
0.892196
0.829101
0.771747
0.719542
0.671959
0.628531
0.588838
0.55251
0.519214
0.488653
0.460563
0.434706
0.41087
0.388866
0.368524
0.34969
0.332226
0.31601