/*--------------------------------*- C++ -*----------------------------------*\
  =========                 |
  \\      /  F ield         | OpenFOAM: The Open Source CFD Toolbox
   \\    /   O peration     | Website:  https://openfoam.org
    \\  /    A nd           | Version:  11
     \\/     M anipulation  |
\*---------------------------------------------------------------------------*/
FoamFile
{
    format      ascii;
    class       surfaceScalarField;
    location    "740";
    object      phi;
}
// * * * * * * * * * * * * * * * * * * * * * * * * * * * * * * * * * * * * * //

dimensions      [0 3 -1 0 0 0 0];

internalField   nonuniform List<scalar> 
19800
(
2e-05
-6.41301e-11
2e-05
-1.78386e-10
1.99999e-05
-2.8602e-10
1.99999e-05
-3.93673e-10
1.99999e-05
-5.04742e-10
1.99998e-05
-6.21277e-10
1.99997e-05
-7.4498e-10
1.99997e-05
-8.77356e-10
1.99996e-05
-1.0198e-09
1.99995e-05
-1.17365e-09
1.99994e-05
-1.34023e-09
1.99993e-05
-1.52088e-09
1.99992e-05
-1.71694e-09
1.99991e-05
-1.92981e-09
1.9999e-05
-2.16093e-09
1.99988e-05
-2.41178e-09
1.99987e-05
-2.68391e-09
1.99985e-05
-2.97896e-09
1.99983e-05
-3.2986e-09
1.99981e-05
-3.64461e-09
1.99979e-05
-4.01885e-09
1.99977e-05
-4.42326e-09
1.99974e-05
-4.85987e-09
1.99971e-05
-5.3308e-09
1.99968e-05
-5.8383e-09
1.99965e-05
-6.38469e-09
1.99962e-05
-6.9724e-09
1.99958e-05
-7.60399e-09
1.99954e-05
-8.28212e-09
1.9995e-05
-9.00956e-09
1.99945e-05
-9.78922e-09
1.9994e-05
-1.06241e-08
1.99935e-05
-1.15174e-08
1.9993e-05
-1.24723e-08
1.99924e-05
-1.34922e-08
1.99917e-05
-1.45807e-08
1.9991e-05
-1.57415e-08
1.99903e-05
-1.69782e-08
1.99895e-05
-1.8295e-08
1.99887e-05
-1.96957e-08
1.99878e-05
-2.11847e-08
1.99869e-05
-2.27662e-08
1.99859e-05
-2.44447e-08
1.99848e-05
-2.62248e-08
1.99837e-05
-2.81113e-08
1.99825e-05
-3.01091e-08
1.99813e-05
-3.2223e-08
1.99799e-05
-3.44582e-08
1.99785e-05
-3.68199e-08
1.99771e-05
-3.93135e-08
1.99755e-05
-4.19444e-08
1.99738e-05
-4.47181e-08
1.99721e-05
-4.76402e-08
1.99703e-05
-5.07165e-08
1.99683e-05
-5.39527e-08
1.99663e-05
-5.73546e-08
1.99641e-05
-6.0928e-08
1.99619e-05
-6.46788e-08
1.99595e-05
-6.86129e-08
1.9957e-05
-7.27362e-08
1.99544e-05
-7.70543e-08
1.99517e-05
-8.15731e-08
1.99488e-05
-8.62981e-08
1.99458e-05
-9.12349e-08
1.99427e-05
-9.63887e-08
1.99395e-05
-1.01765e-07
1.9936e-05
-1.07368e-07
1.99325e-05
-1.13202e-07
1.99288e-05
-1.19272e-07
1.99249e-05
-1.25581e-07
1.9921e-05
-1.32133e-07
1.99168e-05
-1.3893e-07
1.99125e-05
-1.45974e-07
1.9908e-05
-1.53265e-07
1.99034e-05
-1.60805e-07
1.98987e-05
-1.68591e-07
1.98938e-05
-1.76623e-07
1.98887e-05
-1.84894e-07
1.98835e-05
-1.93402e-07
1.98782e-05
-2.02137e-07
1.98727e-05
-2.11089e-07
1.98671e-05
-2.20247e-07
1.98615e-05
-2.29594e-07
1.98557e-05
-2.3911e-07
1.98499e-05
-2.48771e-07
1.9844e-05
-2.58547e-07
1.9838e-05
-2.68402e-07
1.98321e-05
-2.78293e-07
1.98262e-05
-2.88167e-07
1.98204e-05
-2.97959e-07
1.98146e-05
-3.07595e-07
1.98091e-05
-3.16982e-07
1.98037e-05
-3.26012e-07
1.97986e-05
-3.34555e-07
1.97939e-05
-3.42458e-07
1.97895e-05
-3.49546e-07
1.97858e-05
-3.55613e-07
1.97827e-05
-3.60433e-07
1.97803e-05
-3.63785e-07
-3.65643e-07
2e-05
-5.33357e-11
2e-05
-1.5557e-10
1.99999e-05
-2.55507e-10
1.99999e-05
-3.5663e-10
1.99999e-05
-4.61313e-10
1.99998e-05
-5.71314e-10
1.99997e-05
-6.88181e-10
1.99997e-05
-8.13327e-10
1.99996e-05
-9.48085e-10
1.99995e-05
-1.09374e-09
1.99994e-05
-1.25158e-09
1.99993e-05
-1.42288e-09
1.99992e-05
-1.60895e-09
1.99991e-05
-1.81115e-09
1.9999e-05
-2.03085e-09
1.99988e-05
-2.2695e-09
1.99987e-05
-2.52861e-09
1.99985e-05
-2.80974e-09
1.99983e-05
-3.11454e-09
1.99981e-05
-3.44473e-09
1.99979e-05
-3.80209e-09
1.99977e-05
-4.18853e-09
1.99974e-05
-4.60601e-09
1.99972e-05
-5.0566e-09
1.99969e-05
-5.54246e-09
1.99965e-05
-6.06586e-09
1.99962e-05
-6.62918e-09
1.99958e-05
-7.23489e-09
1.99954e-05
-7.88557e-09
1.9995e-05
-8.58394e-09
1.99946e-05
-9.33282e-09
1.99941e-05
-1.01351e-08
1.99935e-05
-1.0994e-08
1.9993e-05
-1.19125e-08
1.99924e-05
-1.2894e-08
1.99917e-05
-1.3942e-08
1.99911e-05
-1.506e-08
1.99903e-05
-1.62517e-08
1.99896e-05
-1.7521e-08
1.99887e-05
-1.88718e-08
1.99879e-05
-2.03083e-08
1.99869e-05
-2.18347e-08
1.99859e-05
-2.34553e-08
1.99849e-05
-2.51748e-08
1.99838e-05
-2.69976e-08
1.99826e-05
-2.89286e-08
1.99813e-05
-3.09727e-08
1.998e-05
-3.31349e-08
1.99786e-05
-3.54203e-08
1.99771e-05
-3.78342e-08
1.99756e-05
-4.03819e-08
1.99739e-05
-4.30689e-08
1.99722e-05
-4.59007e-08
1.99704e-05
-4.8883e-08
1.99684e-05
-5.20215e-08
1.99664e-05
-5.5322e-08
1.99643e-05
-5.87901e-08
1.9962e-05
-6.24319e-08
1.99597e-05
-6.62531e-08
1.99572e-05
-7.02596e-08
1.99546e-05
-7.44572e-08
1.99519e-05
-7.88518e-08
1.9949e-05
-8.34488e-08
1.9946e-05
-8.82541e-08
1.99429e-05
-9.32729e-08
1.99397e-05
-9.85106e-08
1.99363e-05
-1.03972e-07
1.99327e-05
-1.09662e-07
1.9929e-05
-1.15585e-07
1.99252e-05
-1.21746e-07
1.99212e-05
-1.28147e-07
1.99171e-05
-1.34791e-07
1.99128e-05
-1.41682e-07
1.99083e-05
-1.4882e-07
1.99037e-05
-1.56207e-07
1.9899e-05
-1.63842e-07
1.98941e-05
-1.71725e-07
1.9889e-05
-1.79851e-07
1.98839e-05
-1.88218e-07
1.98785e-05
-1.96818e-07
1.98731e-05
-2.05644e-07
1.98675e-05
-2.14684e-07
1.98619e-05
-2.23926e-07
1.98561e-05
-2.3335e-07
1.98503e-05
-2.42936e-07
1.98444e-05
-2.52657e-07
1.98385e-05
-2.6248e-07
1.98325e-05
-2.72366e-07
1.98266e-05
-2.82264e-07
1.98208e-05
-2.92118e-07
1.98151e-05
-3.01854e-07
1.98095e-05
-3.11389e-07
1.98041e-05
-3.2062e-07
1.97989e-05
-3.29423e-07
1.97941e-05
-3.37655e-07
1.97897e-05
-3.45145e-07
1.97858e-05
-3.51695e-07
1.97825e-05
-3.57072e-07
1.97797e-05
-3.61031e-07
-3.634e-07
2e-05
-4.52092e-11
2e-05
-1.35384e-10
1.99999e-05
-2.2654e-10
1.99999e-05
-3.2043e-10
1.99999e-05
-4.18391e-10
1.99998e-05
-5.21716e-10
1.99998e-05
-6.31712e-10
1.99997e-05
-7.49652e-10
1.99996e-05
-8.76779e-10
1.99995e-05
-1.01432e-09
1.99995e-05
-1.16349e-09
1.99994e-05
-1.32553e-09
1.99993e-05
-1.50171e-09
1.99991e-05
-1.69332e-09
1.9999e-05
-1.90171e-09
1.99989e-05
-2.12827e-09
1.99987e-05
-2.37446e-09
1.99985e-05
-2.6418e-09
1.99984e-05
-2.93188e-09
1.99982e-05
-3.24637e-09
1.99979e-05
-3.587e-09
1.99977e-05
-3.9556e-09
1.99975e-05
-4.3541e-09
1.99972e-05
-4.7845e-09
1.99969e-05
-5.24889e-09
1.99966e-05
-5.74948e-09
1.99962e-05
-6.28858e-09
1.99959e-05
-6.86859e-09
1.99955e-05
-7.49203e-09
1.99951e-05
-8.16153e-09
1.99946e-05
-8.87984e-09
1.99941e-05
-9.64981e-09
1.99936e-05
-1.04744e-08
1.9993e-05
-1.13568e-08
1.99924e-05
-1.23002e-08
1.99918e-05
-1.33079e-08
1.99911e-05
-1.43834e-08
1.99904e-05
-1.55304e-08
1.99896e-05
-1.67526e-08
1.99888e-05
-1.80538e-08
1.9988e-05
-1.94382e-08
1.9987e-05
-2.09098e-08
1.99861e-05
-2.24729e-08
1.9985e-05
-2.4132e-08
1.99839e-05
-2.58915e-08
1.99827e-05
-2.77562e-08
1.99815e-05
-2.97309e-08
1.99802e-05
-3.18205e-08
1.99788e-05
-3.403e-08
1.99773e-05
-3.63646e-08
1.99758e-05
-3.88297e-08
1.99741e-05
-4.14305e-08
1.99724e-05
-4.41725e-08
1.99706e-05
-4.70614e-08
1.99687e-05
-5.01027e-08
1.99666e-05
-5.33023e-08
1.99645e-05
-5.66658e-08
1.99623e-05
-6.0199e-08
1.99599e-05
-6.39079e-08
1.99575e-05
-6.77983e-08
1.99549e-05
-7.1876e-08
1.99522e-05
-7.61469e-08
1.99494e-05
-8.06166e-08
1.99464e-05
-8.52909e-08
1.99433e-05
-9.01754e-08
1.99401e-05
-9.52754e-08
1.99367e-05
-1.00596e-07
1.99332e-05
-1.06143e-07
1.99295e-05
-1.11919e-07
1.99257e-05
-1.17931e-07
1.99217e-05
-1.24182e-07
1.99176e-05
-1.30674e-07
1.99133e-05
-1.37412e-07
1.99089e-05
-1.44398e-07
1.99043e-05
-1.51632e-07
1.98996e-05
-1.59116e-07
1.98947e-05
-1.6685e-07
1.98897e-05
-1.74831e-07
1.98846e-05
-1.83056e-07
1.98793e-05
-1.91522e-07
1.98738e-05
-2.0022e-07
1.98683e-05
-2.09142e-07
1.98626e-05
-2.18276e-07
1.98569e-05
-2.27607e-07
1.98511e-05
-2.37116e-07
1.98452e-05
-2.46778e-07
1.98393e-05
-2.56564e-07
1.98334e-05
-2.66438e-07
1.98274e-05
-2.76355e-07
1.98216e-05
-2.86261e-07
1.98158e-05
-2.96088e-07
1.98102e-05
-3.05756e-07
1.98047e-05
-3.15168e-07
1.97995e-05
-3.24206e-07
1.97946e-05
-3.32729e-07
1.979e-05
-3.40569e-07
1.97858e-05
-3.47523e-07
1.97821e-05
-3.53345e-07
1.97788e-05
-3.57755e-07
-3.60484e-07
2e-05
-3.86157e-11
2e-05
-1.17666e-10
1.99999e-05
-1.9968e-10
1.99999e-05
-2.85779e-10
1.99999e-05
-3.7661e-10
1.99998e-05
-4.73012e-10
1.99998e-05
-5.76012e-10
1.99997e-05
-6.86704e-10
1.99996e-05
-8.06214e-10
1.99996e-05
-9.35683e-10
1.99995e-05
-1.07627e-09
1.99994e-05
-1.22915e-09
1.99993e-05
-1.39554e-09
1.99991e-05
-1.57669e-09
1.9999e-05
-1.7739e-09
1.99989e-05
-1.98851e-09
1.99987e-05
-2.22194e-09
1.99986e-05
-2.47564e-09
1.99984e-05
-2.75117e-09
1.99982e-05
-3.05013e-09
1.9998e-05
-3.3742e-09
1.99977e-05
-3.72517e-09
1.99975e-05
-4.10489e-09
1.99972e-05
-4.51531e-09
1.99969e-05
-4.95846e-09
1.99966e-05
-5.43648e-09
1.99963e-05
-5.9516e-09
1.99959e-05
-6.50617e-09
1.99955e-05
-7.10264e-09
1.99951e-05
-7.74356e-09
1.99947e-05
-8.43159e-09
1.99942e-05
-9.16953e-09
1.99937e-05
-9.96028e-09
1.99931e-05
-1.08069e-08
1.99925e-05
-1.17124e-08
1.99919e-05
-1.26802e-08
1.99912e-05
-1.37137e-08
1.99905e-05
-1.48163e-08
1.99898e-05
-1.59918e-08
1.9989e-05
-1.7244e-08
1.99881e-05
-1.85766e-08
1.99872e-05
-1.99939e-08
1.99862e-05
-2.15e-08
1.99852e-05
-2.30993e-08
1.99841e-05
-2.47961e-08
1.99829e-05
-2.65951e-08
1.99817e-05
-2.85009e-08
1.99804e-05
-3.05185e-08
1.9979e-05
-3.26528e-08
1.99775e-05
-3.49088e-08
1.9976e-05
-3.72918e-08
1.99744e-05
-3.98071e-08
1.99727e-05
-4.24601e-08
1.99709e-05
-4.52563e-08
1.9969e-05
-4.82012e-08
1.9967e-05
-5.13006e-08
1.99649e-05
-5.45602e-08
1.99626e-05
-5.79858e-08
1.99603e-05
-6.15832e-08
1.99579e-05
-6.53583e-08
1.99553e-05
-6.9317e-08
1.99526e-05
-7.34651e-08
1.99498e-05
-7.78083e-08
1.99469e-05
-8.23526e-08
1.99438e-05
-8.71035e-08
1.99406e-05
-9.20667e-08
1.99373e-05
-9.72474e-08
1.99338e-05
-1.02651e-07
1.99301e-05
-1.08282e-07
1.99264e-05
-1.14146e-07
1.99224e-05
-1.20247e-07
1.99183e-05
-1.26589e-07
1.99141e-05
-1.33175e-07
1.99097e-05
-1.40008e-07
1.99052e-05
-1.4709e-07
1.99005e-05
-1.54423e-07
1.98956e-05
-1.62008e-07
1.98906e-05
-1.69843e-07
1.98855e-05
-1.77927e-07
1.98802e-05
-1.86256e-07
1.98749e-05
-1.94826e-07
1.98693e-05
-2.03628e-07
1.98637e-05
-2.12653e-07
1.9858e-05
-2.21887e-07
1.98522e-05
-2.31315e-07
1.98463e-05
-2.40914e-07
1.98404e-05
-2.50657e-07
1.98345e-05
-2.60513e-07
1.98286e-05
-2.70438e-07
1.98227e-05
-2.80383e-07
1.98169e-05
-2.90285e-07
1.98112e-05
-3.00067e-07
1.98057e-05
-3.09636e-07
1.98003e-05
-3.18875e-07
1.97953e-05
-3.27646e-07
1.97905e-05
-3.35776e-07
1.9786e-05
-3.43054e-07
1.97819e-05
-3.49214e-07
1.97781e-05
-3.53942e-07
-3.56946e-07
2e-05
-3.30372e-11
2e-05
-1.01944e-10
2e-05
-1.74945e-10
1.99999e-05
-2.53015e-10
1.99999e-05
-3.36426e-10
1.99998e-05
-4.25673e-10
1.99998e-05
-5.21526e-10
1.99997e-05
-6.24896e-10
1.99996e-05
-7.36776e-10
1.99996e-05
-8.58208e-10
1.99995e-05
-9.90274e-10
1.99994e-05
-1.13409e-09
1.99993e-05
-1.29081e-09
1.99992e-05
-1.46164e-09
1.9999e-05
-1.64782e-09
1.99989e-05
-1.85065e-09
1.99988e-05
-2.07148e-09
1.99986e-05
-2.31174e-09
1.99984e-05
-2.57291e-09
1.99982e-05
-2.85656e-09
1.9998e-05
-3.16431e-09
1.99978e-05
-3.49788e-09
1.99975e-05
-3.85908e-09
1.99973e-05
-4.24978e-09
1.9997e-05
-4.67196e-09
1.99967e-05
-5.1277e-09
1.99963e-05
-5.61916e-09
1.9996e-05
-6.14862e-09
1.99956e-05
-6.71846e-09
1.99952e-05
-7.33115e-09
1.99947e-05
-7.98929e-09
1.99943e-05
-8.69559e-09
1.99938e-05
-9.45288e-09
1.99932e-05
-1.02641e-08
1.99926e-05
-1.11323e-08
1.9992e-05
-1.20607e-08
1.99914e-05
-1.30526e-08
1.99907e-05
-1.41114e-08
1.99899e-05
-1.52408e-08
1.99891e-05
-1.64443e-08
1.99883e-05
-1.77259e-08
1.99874e-05
-1.90895e-08
1.99864e-05
-2.05392e-08
1.99854e-05
-2.20793e-08
1.99843e-05
-2.3714e-08
1.99831e-05
-2.5448e-08
1.99819e-05
-2.72858e-08
1.99806e-05
-2.92321e-08
1.99793e-05
-3.12919e-08
1.99778e-05
-3.34702e-08
1.99763e-05
-3.5772e-08
1.99747e-05
-3.82027e-08
1.9973e-05
-4.07675e-08
1.99712e-05
-4.34719e-08
1.99694e-05
-4.63214e-08
1.99674e-05
-4.93216e-08
1.99653e-05
-5.24783e-08
1.99631e-05
-5.57973e-08
1.99608e-05
-5.92842e-08
1.99584e-05
-6.29451e-08
1.99559e-05
-6.67858e-08
1.99532e-05
-7.08121e-08
1.99504e-05
-7.503e-08
1.99475e-05
-7.94453e-08
1.99445e-05
-8.40638e-08
1.99413e-05
-8.88912e-08
1.9938e-05
-9.39331e-08
1.99345e-05
-9.91949e-08
1.99309e-05
-1.04682e-07
1.99272e-05
-1.10399e-07
1.99233e-05
-1.16351e-07
1.99193e-05
-1.22542e-07
1.99151e-05
-1.28977e-07
1.99107e-05
-1.35658e-07
1.99062e-05
-1.42589e-07
1.99015e-05
-1.49771e-07
1.98967e-05
-1.57207e-07
1.98918e-05
-1.64896e-07
1.98867e-05
-1.72838e-07
1.98815e-05
-1.8103e-07
1.98761e-05
-1.89469e-07
1.98707e-05
-1.98149e-07
1.98651e-05
-2.07062e-07
1.98594e-05
-2.16196e-07
1.98536e-05
-2.25538e-07
1.98477e-05
-2.35067e-07
1.98418e-05
-2.44761e-07
1.98359e-05
-2.54588e-07
1.983e-05
-2.64511e-07
1.98241e-05
-2.74481e-07
1.98182e-05
-2.8444e-07
1.98125e-05
-2.94313e-07
1.98069e-05
-3.04008e-07
1.98014e-05
-3.13413e-07
1.97961e-05
-3.22384e-07
1.97911e-05
-3.30747e-07
1.97863e-05
-3.38277e-07
1.97818e-05
-3.44691e-07
1.97775e-05
-3.49634e-07
-3.52802e-07
2e-05
-2.81987e-11
2e-05
-8.78331e-11
2e-05
-1.52175e-10
1.99999e-05
-2.22232e-10
1.99999e-05
-2.98097e-10
1.99998e-05
-3.80043e-10
1.99998e-05
-4.68632e-10
1.99997e-05
-5.64612e-10
1.99997e-05
-6.68843e-10
1.99996e-05
-7.82266e-10
1.99995e-05
-9.05878e-10
1.99994e-05
-1.04073e-09
1.99993e-05
-1.1879e-09
1.99992e-05
-1.34855e-09
1.99991e-05
-1.52387e-09
1.99989e-05
-1.71509e-09
1.99988e-05
-1.92354e-09
1.99986e-05
-2.15057e-09
1.99984e-05
-2.39762e-09
1.99983e-05
-2.66621e-09
1.99981e-05
-2.9579e-09
1.99978e-05
-3.27435e-09
1.99976e-05
-3.61732e-09
1.99973e-05
-3.98861e-09
1.9997e-05
-4.39016e-09
1.99967e-05
-4.82397e-09
1.99964e-05
-5.29213e-09
1.99961e-05
-5.79687e-09
1.99957e-05
-6.34047e-09
1.99953e-05
-6.92536e-09
1.99948e-05
-7.55405e-09
1.99944e-05
-8.22919e-09
1.99939e-05
-8.9535e-09
1.99933e-05
-9.72986e-09
1.99928e-05
-1.05613e-08
1.99922e-05
-1.14508e-08
1.99915e-05
-1.24017e-08
1.99908e-05
-1.34173e-08
1.99901e-05
-1.45011e-08
1.99893e-05
-1.56568e-08
1.99885e-05
-1.6888e-08
1.99876e-05
-1.81986e-08
1.99866e-05
-1.95927e-08
1.99856e-05
-2.10743e-08
1.99845e-05
-2.26478e-08
1.99834e-05
-2.43176e-08
1.99822e-05
-2.60882e-08
1.99809e-05
-2.79642e-08
1.99796e-05
-2.99505e-08
1.99782e-05
-3.20519e-08
1.99767e-05
-3.42736e-08
1.99751e-05
-3.66206e-08
1.99734e-05
-3.90983e-08
1.99717e-05
-4.1712e-08
1.99698e-05
-4.44672e-08
1.99679e-05
-4.73694e-08
1.99658e-05
-5.04244e-08
1.99637e-05
-5.36379e-08
1.99614e-05
-5.70156e-08
1.9959e-05
-6.05635e-08
1.99565e-05
-6.42874e-08
1.99539e-05
-6.81933e-08
1.99511e-05
-7.22871e-08
1.99483e-05
-7.65748e-08
1.99453e-05
-8.10621e-08
1.99421e-05
-8.5755e-08
1.99389e-05
-9.06592e-08
1.99355e-05
-9.57804e-08
1.99319e-05
-1.01124e-07
1.99282e-05
-1.06695e-07
1.99243e-05
-1.125e-07
1.99203e-05
-1.18541e-07
1.99162e-05
-1.24825e-07
1.99119e-05
-1.31355e-07
1.99074e-05
-1.38135e-07
1.99028e-05
-1.45167e-07
1.98981e-05
-1.52453e-07
1.98932e-05
-1.59996e-07
1.98881e-05
-1.67795e-07
1.98829e-05
-1.75849e-07
1.98776e-05
-1.84156e-07
1.98722e-05
-1.92711e-07
1.98666e-05
-2.01508e-07
1.9861e-05
-2.10538e-07
1.98552e-05
-2.19788e-07
1.98494e-05
-2.29241e-07
1.98435e-05
-2.38876e-07
1.98376e-05
-2.48664e-07
1.98317e-05
-2.58571e-07
1.98257e-05
-2.6855e-07
1.98198e-05
-2.78544e-07
1.9814e-05
-2.88483e-07
1.98083e-05
-2.98275e-07
1.98027e-05
-3.07806e-07
1.97972e-05
-3.16933e-07
1.97919e-05
-3.25473e-07
1.97869e-05
-3.33194e-07
1.9782e-05
-3.39793e-07
1.97772e-05
-3.44888e-07
-3.48109e-07
2e-05
-2.39131e-11
2e-05
-7.50478e-11
2e-05
-1.31176e-10
1.99999e-05
-1.93399e-10
1.99999e-05
-2.61742e-10
1.99999e-05
-3.36342e-10
1.99998e-05
-4.17617e-10
1.99997e-05
-5.06174e-10
1.99997e-05
-6.02759e-10
1.99996e-05
-7.08209e-10
1.99995e-05
-8.23438e-10
1.99994e-05
-9.49419e-10
1.99993e-05
-1.08718e-09
1.99992e-05
-1.23781e-09
1.99991e-05
-1.40244e-09
1.9999e-05
-1.58227e-09
1.99988e-05
-1.77855e-09
1.99987e-05
-1.99259e-09
1.99985e-05
-2.22579e-09
1.99983e-05
-2.47959e-09
1.99981e-05
-2.75551e-09
1.99979e-05
-3.05517e-09
1.99976e-05
-3.38024e-09
1.99974e-05
-3.73249e-09
1.99971e-05
-4.11377e-09
1.99968e-05
-4.52604e-09
1.99965e-05
-4.97132e-09
1.99961e-05
-5.45176e-09
1.99958e-05
-5.9696e-09
1.99954e-05
-6.52717e-09
1.9995e-05
-7.12692e-09
1.99945e-05
-7.77141e-09
1.9994e-05
-8.4633e-09
1.99935e-05
-9.2054e-09
1.99929e-05
-1.00006e-08
1.99923e-05
-1.08519e-08
1.99917e-05
-1.17625e-08
1.9991e-05
-1.27356e-08
1.99903e-05
-1.37746e-08
1.99895e-05
-1.48831e-08
1.99887e-05
-1.60647e-08
1.99878e-05
-1.73231e-08
1.99869e-05
-1.86624e-08
1.99859e-05
-2.00866e-08
1.99848e-05
-2.15998e-08
1.99837e-05
-2.32063e-08
1.99825e-05
-2.49107e-08
1.99813e-05
-2.67174e-08
1.998e-05
-2.86312e-08
1.99786e-05
-3.06569e-08
1.99771e-05
-3.27995e-08
1.99756e-05
-3.50641e-08
1.99739e-05
-3.74559e-08
1.99722e-05
-3.99801e-08
1.99704e-05
-4.26422e-08
1.99684e-05
-4.54477e-08
1.99664e-05
-4.84023e-08
1.99643e-05
-5.15117e-08
1.9962e-05
-5.47816e-08
1.99597e-05
-5.82178e-08
1.99572e-05
-6.18264e-08
1.99547e-05
-6.56133e-08
1.9952e-05
-6.95844e-08
1.99491e-05
-7.37457e-08
1.99462e-05
-7.81033e-08
1.99431e-05
-8.26631e-08
1.99399e-05
-8.7431e-08
1.99365e-05
-9.24129e-08
1.9933e-05
-9.76144e-08
1.99293e-05
-1.03041e-07
1.99255e-05
-1.08699e-07
1.99216e-05
-1.14592e-07
1.99175e-05
-1.20726e-07
1.99132e-05
-1.27105e-07
1.99088e-05
-1.33734e-07
1.99043e-05
-1.40616e-07
1.98996e-05
-1.47753e-07
1.98947e-05
-1.55149e-07
1.98897e-05
-1.62803e-07
1.98846e-05
-1.70718e-07
1.98793e-05
-1.7889e-07
1.98739e-05
-1.87318e-07
1.98684e-05
-1.95996e-07
1.98628e-05
-2.04916e-07
1.98571e-05
-2.14068e-07
1.98513e-05
-2.23437e-07
1.98454e-05
-2.33003e-07
1.98395e-05
-2.4274e-07
1.98335e-05
-2.52615e-07
1.98276e-05
-2.62585e-07
1.98216e-05
-2.72594e-07
1.98157e-05
-2.82572e-07
1.98099e-05
-2.92429e-07
1.98041e-05
-3.0205e-07
1.97985e-05
-3.11288e-07
1.97929e-05
-3.19958e-07
1.97876e-05
-3.27815e-07
1.97823e-05
-3.34546e-07
1.97772e-05
-3.39748e-07
-3.42934e-07
2e-05
-2.0056e-11
2e-05
-6.33752e-11
2e-05
-1.11767e-10
1.99999e-05
-1.66431e-10
1.99999e-05
-2.27387e-10
1.99999e-05
-2.94697e-10
1.99998e-05
-3.68679e-10
1.99998e-05
-4.49835e-10
1.99997e-05
-5.38808e-10
1.99996e-05
-6.36346e-10
1.99995e-05
-7.4328e-10
1.99995e-05
-8.60511e-10
1.99994e-05
-9.89005e-10
1.99992e-05
-1.12978e-09
1.99991e-05
-1.28393e-09
1.9999e-05
-1.45257e-09
1.99989e-05
-1.63693e-09
1.99987e-05
-1.83825e-09
1.99985e-05
-2.05787e-09
1.99984e-05
-2.29719e-09
1.99982e-05
-2.55768e-09
1.99979e-05
-2.84088e-09
1.99977e-05
-3.14842e-09
1.99975e-05
-3.48201e-09
1.99972e-05
-3.84345e-09
1.99969e-05
-4.23461e-09
1.99966e-05
-4.65747e-09
1.99962e-05
-5.11411e-09
1.99959e-05
-5.60668e-09
1.99955e-05
-6.13746e-09
1.99951e-05
-6.70883e-09
1.99946e-05
-7.32327e-09
1.99941e-05
-7.98336e-09
1.99936e-05
-8.69183e-09
1.99931e-05
-9.45148e-09
1.99925e-05
-1.02653e-08
1.99919e-05
-1.11362e-08
1.99912e-05
-1.20676e-08
1.99905e-05
-1.30626e-08
1.99897e-05
-1.41248e-08
1.99889e-05
-1.52577e-08
1.99881e-05
-1.64649e-08
1.99872e-05
-1.77503e-08
1.99862e-05
-1.9118e-08
1.99852e-05
-2.05718e-08
1.99841e-05
-2.21162e-08
1.99829e-05
-2.37554e-08
1.99817e-05
-2.5494e-08
1.99804e-05
-2.73365e-08
1.9979e-05
-2.92877e-08
1.99776e-05
-3.13525e-08
1.9976e-05
-3.35359e-08
1.99744e-05
-3.5843e-08
1.99727e-05
-3.82791e-08
1.99709e-05
-4.08496e-08
1.99691e-05
-4.35598e-08
1.99671e-05
-4.64155e-08
1.9965e-05
-4.94221e-08
1.99628e-05
-5.25857e-08
1.99605e-05
-5.59119e-08
1.99581e-05
-5.94066e-08
1.99555e-05
-6.3076e-08
1.99529e-05
-6.6926e-08
1.99501e-05
-7.09626e-08
1.99472e-05
-7.51919e-08
1.99441e-05
-7.96201e-08
1.99409e-05
-8.42532e-08
1.99376e-05
-8.90971e-08
1.99342e-05
-9.41579e-08
1.99306e-05
-9.94414e-08
1.99268e-05
-1.04953e-07
1.99229e-05
-1.10699e-07
1.99189e-05
-1.16684e-07
1.99147e-05
-1.22913e-07
1.99104e-05
-1.29391e-07
1.99059e-05
-1.36123e-07
1.99012e-05
-1.43111e-07
1.98964e-05
-1.50358e-07
1.98915e-05
-1.57868e-07
1.98864e-05
-1.65641e-07
1.98812e-05
-1.73676e-07
1.98759e-05
-1.81973e-07
1.98704e-05
-1.90526e-07
1.98648e-05
-1.99332e-07
1.98591e-05
-2.08379e-07
1.98533e-05
-2.17655e-07
1.98475e-05
-2.27141e-07
1.98415e-05
-2.36815e-07
1.98356e-05
-2.46643e-07
1.98296e-05
-2.56585e-07
1.98236e-05
-2.66587e-07
1.98176e-05
-2.76578e-07
1.98116e-05
-2.86468e-07
1.98057e-05
-2.96143e-07
1.97999e-05
-3.05453e-07
1.97941e-05
-3.14207e-07
1.97885e-05
-3.22156e-07
1.97829e-05
-3.28976e-07
1.97774e-05
-3.34249e-07
-3.37368e-07
2e-05
-1.65472e-11
2e-05
-5.26564e-11
2e-05
-9.37865e-11
1.99999e-05
-1.41226e-10
1.99999e-05
-1.95009e-10
1.99999e-05
-2.55166e-10
1.99998e-05
-3.21948e-10
1.99998e-05
-3.95779e-10
1.99997e-05
-4.77219e-10
1.99996e-05
-5.66937e-10
1.99996e-05
-6.6569e-10
1.99995e-05
-7.74308e-10
1.99994e-05
-8.93693e-10
1.99993e-05
-1.02481e-09
1.99992e-05
-1.16867e-09
1.9999e-05
-1.32638e-09
1.99989e-05
-1.49907e-09
1.99987e-05
-1.68795e-09
1.99986e-05
-1.8943e-09
1.99984e-05
-2.11947e-09
1.99982e-05
-2.36487e-09
1.9998e-05
-2.63199e-09
1.99978e-05
-2.92241e-09
1.99975e-05
-3.23777e-09
1.99973e-05
-3.5798e-09
1.9997e-05
-3.95033e-09
1.99967e-05
-4.35127e-09
1.99963e-05
-4.78462e-09
1.9996e-05
-5.25249e-09
1.99956e-05
-5.75706e-09
1.99952e-05
-6.30066e-09
1.99948e-05
-6.88568e-09
1.99943e-05
-7.51464e-09
1.99938e-05
-8.19018e-09
1.99933e-05
-8.91504e-09
1.99927e-05
-9.69207e-09
1.99921e-05
-1.05243e-08
1.99914e-05
-1.14147e-08
1.99907e-05
-1.23666e-08
1.999e-05
-1.33834e-08
1.99892e-05
-1.44684e-08
1.99884e-05
-1.56254e-08
1.99875e-05
-1.6858e-08
1.99865e-05
-1.81702e-08
1.99855e-05
-1.95659e-08
1.99844e-05
-2.10492e-08
1.99833e-05
-2.26245e-08
1.99821e-05
-2.42961e-08
1.99808e-05
-2.60685e-08
1.99795e-05
-2.79465e-08
1.99781e-05
-2.99349e-08
1.99766e-05
-3.20385e-08
1.9975e-05
-3.42624e-08
1.99733e-05
-3.66118e-08
1.99716e-05
-3.90921e-08
1.99697e-05
-4.17085e-08
1.99678e-05
-4.44668e-08
1.99657e-05
-4.73724e-08
1.99636e-05
-5.04311e-08
1.99613e-05
-5.36489e-08
1.99589e-05
-5.70315e-08
1.99565e-05
-6.0585e-08
1.99538e-05
-6.43154e-08
1.99511e-05
-6.82289e-08
1.99482e-05
-7.23316e-08
1.99453e-05
-7.66297e-08
1.99421e-05
-8.11295e-08
1.99389e-05
-8.5837e-08
1.99355e-05
-9.07584e-08
1.99319e-05
-9.58998e-08
1.99282e-05
-1.01267e-07
1.99244e-05
-1.06866e-07
1.99204e-05
-1.12703e-07
1.99163e-05
-1.18783e-07
1.9912e-05
-1.25111e-07
1.99076e-05
-1.31692e-07
1.9903e-05
-1.3853e-07
1.98983e-05
-1.45629e-07
1.98934e-05
-1.52992e-07
1.98884e-05
-1.6062e-07
1.98832e-05
-1.68516e-07
1.98779e-05
-1.76677e-07
1.98725e-05
-1.85103e-07
1.9867e-05
-1.93787e-07
1.98613e-05
-2.02721e-07
1.98555e-05
-2.11895e-07
1.98497e-05
-2.21292e-07
1.98438e-05
-2.30888e-07
1.98378e-05
-2.40654e-07
1.98317e-05
-2.50549e-07
1.98257e-05
-2.60521e-07
1.98196e-05
-2.70499e-07
1.98135e-05
-2.80394e-07
1.98075e-05
-2.90089e-07
1.98015e-05
-2.99434e-07
1.97955e-05
-3.08232e-07
1.97896e-05
-3.16232e-07
1.97837e-05
-3.23104e-07
1.97779e-05
-3.28423e-07
-3.31502e-07
2e-05
-1.33335e-11
2e-05
-4.27722e-11
2e-05
-7.71041e-11
1.99999e-05
-1.17681e-10
1.99999e-05
-1.64562e-10
1.99999e-05
-2.17765e-10
1.99998e-05
-2.77501e-10
1.99998e-05
-3.44137e-10
1.99997e-05
-4.18169e-10
1.99997e-05
-5.00196e-10
1.99996e-05
-5.90909e-10
1.99995e-05
-6.91076e-10
1.99994e-05
-8.01535e-10
1.99993e-05
-9.23191e-10
1.99992e-05
-1.05701e-09
1.99991e-05
-1.20402e-09
1.99989e-05
-1.36532e-09
1.99988e-05
-1.54207e-09
1.99986e-05
-1.73548e-09
1.99985e-05
-1.94685e-09
1.99983e-05
-2.17754e-09
1.99981e-05
-2.42899e-09
1.99979e-05
-2.7027e-09
1.99976e-05
-3.00028e-09
1.99974e-05
-3.32339e-09
1.99971e-05
-3.67379e-09
1.99968e-05
-4.05334e-09
1.99965e-05
-4.46397e-09
1.99961e-05
-4.90771e-09
1.99957e-05
-5.3867e-09
1.99953e-05
-5.90318e-09
1.99949e-05
-6.45947e-09
1.99945e-05
-7.05801e-09
1.9994e-05
-7.70138e-09
1.99935e-05
-8.39222e-09
1.99929e-05
-9.13331e-09
1.99923e-05
-9.92756e-09
1.99917e-05
-1.0778e-08
1.9991e-05
-1.16877e-08
1.99903e-05
-1.266e-08
1.99895e-05
-1.36983e-08
1.99887e-05
-1.48061e-08
1.99878e-05
-1.5987e-08
1.99869e-05
-1.72448e-08
1.99859e-05
-1.85834e-08
1.99848e-05
-2.00069e-08
1.99837e-05
-2.15195e-08
1.99826e-05
-2.31254e-08
1.99813e-05
-2.48292e-08
1.998e-05
-2.66354e-08
1.99786e-05
-2.85487e-08
1.99772e-05
-3.05739e-08
1.99756e-05
-3.27162e-08
1.9974e-05
-3.49805e-08
1.99723e-05
-3.73721e-08
1.99705e-05
-3.98964e-08
1.99686e-05
-4.25588e-08
1.99665e-05
-4.5365e-08
1.99644e-05
-4.83207e-08
1.99622e-05
-5.14316e-08
1.99599e-05
-5.47038e-08
1.99574e-05
-5.81431e-08
1.99549e-05
-6.17557e-08
1.99522e-05
-6.55478e-08
1.99494e-05
-6.95255e-08
1.99465e-05
-7.36952e-08
1.99434e-05
-7.80632e-08
1.99402e-05
-8.26357e-08
1.99369e-05
-8.74191e-08
1.99334e-05
-9.24198e-08
1.99298e-05
-9.76439e-08
1.9926e-05
-1.03098e-07
1.99221e-05
-1.08787e-07
1.9918e-05
-1.14718e-07
1.99138e-05
-1.20895e-07
1.99094e-05
-1.27326e-07
1.99049e-05
-1.34013e-07
1.99002e-05
-1.40962e-07
1.98954e-05
-1.48177e-07
1.98905e-05
-1.55659e-07
1.98854e-05
-1.63412e-07
1.98801e-05
-1.71435e-07
1.98747e-05
-1.79726e-07
1.98692e-05
-1.88282e-07
1.98636e-05
-1.97097e-07
1.98579e-05
-2.06159e-07
1.9852e-05
-2.15454e-07
1.98461e-05
-2.2496e-07
1.98401e-05
-2.34648e-07
1.9834e-05
-2.44478e-07
1.98279e-05
-2.54398e-07
1.98218e-05
-2.64339e-07
1.98156e-05
-2.74211e-07
1.98094e-05
-2.83896e-07
1.98032e-05
-2.93241e-07
1.9797e-05
-3.02049e-07
1.97908e-05
-3.10065e-07
1.97847e-05
-3.16956e-07
1.97786e-05
-3.22299e-07
-3.25368e-07
2e-05
-1.03772e-11
2e-05
-3.36306e-11
2e-05
-6.16127e-11
2e-05
-9.57052e-11
1.99999e-05
-1.35989e-10
1.99999e-05
-1.82484e-10
1.99998e-05
-2.35377e-10
1.99998e-05
-2.94996e-10
1.99997e-05
-3.61785e-10
1.99997e-05
-4.36288e-10
1.99996e-05
-5.19136e-10
1.99995e-05
-6.1104e-10
1.99994e-05
-7.1278e-10
1.99993e-05
-8.25204e-10
1.99992e-05
-9.49226e-10
1.99991e-05
-1.08582e-09
1.9999e-05
-1.23603e-09
1.99988e-05
-1.40096e-09
1.99987e-05
-1.58177e-09
1.99985e-05
-1.77971e-09
1.99983e-05
-1.99609e-09
1.99981e-05
-2.23228e-09
1.99979e-05
-2.48975e-09
1.99977e-05
-2.77002e-09
1.99974e-05
-3.07471e-09
1.99972e-05
-3.40552e-09
1.99969e-05
-3.76424e-09
1.99966e-05
-4.15274e-09
1.99962e-05
-4.57299e-09
1.99959e-05
-5.02705e-09
1.99955e-05
-5.51709e-09
1.99951e-05
-6.04536e-09
1.99946e-05
-6.61425e-09
1.99942e-05
-7.22623e-09
1.99937e-05
-7.88388e-09
1.99931e-05
-8.58991e-09
1.99925e-05
-9.34713e-09
1.99919e-05
-1.01585e-08
1.99913e-05
-1.1027e-08
1.99906e-05
-1.19559e-08
1.99898e-05
-1.29484e-08
1.9989e-05
-1.40081e-08
1.99882e-05
-1.51384e-08
1.99873e-05
-1.63431e-08
1.99863e-05
-1.76259e-08
1.99853e-05
-1.89909e-08
1.99842e-05
-2.04421e-08
1.99831e-05
-2.19837e-08
1.99819e-05
-2.36202e-08
1.99806e-05
-2.53559e-08
1.99792e-05
-2.71957e-08
1.99778e-05
-2.91442e-08
1.99763e-05
-3.12063e-08
1.99747e-05
-3.3387e-08
1.9973e-05
-3.56917e-08
1.99712e-05
-3.81254e-08
1.99694e-05
-4.06938e-08
1.99674e-05
-4.34023e-08
1.99653e-05
-4.62566e-08
1.99632e-05
-4.92625e-08
1.99609e-05
-5.24259e-08
1.99585e-05
-5.57529e-08
1.9956e-05
-5.92494e-08
1.99534e-05
-6.29218e-08
1.99506e-05
-6.67763e-08
1.99477e-05
-7.08192e-08
1.99447e-05
-7.5057e-08
1.99416e-05
-7.9496e-08
1.99383e-05
-8.41429e-08
1.99349e-05
-8.9004e-08
1.99314e-05
-9.40859e-08
1.99276e-05
-9.93949e-08
1.99238e-05
-1.04937e-07
1.99198e-05
-1.1072e-07
1.99157e-05
-1.16748e-07
1.99114e-05
-1.23027e-07
1.99069e-05
-1.29563e-07
1.99023e-05
-1.36361e-07
1.98976e-05
-1.43426e-07
1.98927e-05
-1.50759e-07
1.98876e-05
-1.58366e-07
1.98824e-05
-1.66245e-07
1.98771e-05
-1.74397e-07
1.98716e-05
-1.82819e-07
1.9866e-05
-1.91506e-07
1.98603e-05
-2.00447e-07
1.98545e-05
-2.09629e-07
1.98486e-05
-2.19031e-07
1.98425e-05
-2.28625e-07
1.98364e-05
-2.38372e-07
1.98303e-05
-2.4822e-07
1.9824e-05
-2.58101e-07
1.98177e-05
-2.67924e-07
1.98114e-05
-2.7757e-07
1.98051e-05
-2.86886e-07
1.97987e-05
-2.95674e-07
1.97923e-05
-3.03675e-07
1.97859e-05
-3.10559e-07
1.97795e-05
-3.15904e-07
-3.18969e-07
2e-05
-7.64207e-12
2e-05
-2.51616e-11
2e-05
-4.7232e-11
2e-05
-7.52213e-11
1.99999e-05
-1.09233e-10
1.99999e-05
-1.49296e-10
1.99999e-05
-1.95589e-10
1.99998e-05
-2.48409e-10
1.99998e-05
-3.0816e-10
1.99997e-05
-3.7534e-10
1.99996e-05
-4.50529e-10
1.99995e-05
-5.34386e-10
1.99995e-05
-6.27637e-10
1.99994e-05
-7.3108e-10
1.99993e-05
-8.45573e-10
1.99992e-05
-9.72042e-10
1.9999e-05
-1.11147e-09
1.99989e-05
-1.26492e-09
1.99987e-05
-1.43351e-09
1.99986e-05
-1.61841e-09
1.99984e-05
-1.82089e-09
1.99982e-05
-2.04227e-09
1.9998e-05
-2.28396e-09
1.99978e-05
-2.54742e-09
1.99975e-05
-2.83422e-09
1.99973e-05
-3.146e-09
1.9997e-05
-3.48448e-09
1.99967e-05
-3.85147e-09
1.99964e-05
-4.24887e-09
1.9996e-05
-4.67869e-09
1.99957e-05
-5.14301e-09
1.99953e-05
-5.64403e-09
1.99948e-05
-6.18405e-09
1.99944e-05
-6.76547e-09
1.99939e-05
-7.39079e-09
1.99933e-05
-8.06265e-09
1.99928e-05
-8.78378e-09
1.99922e-05
-9.55703e-09
1.99915e-05
-1.03854e-08
1.99909e-05
-1.12719e-08
1.99901e-05
-1.22198e-08
1.99894e-05
-1.32325e-08
1.99885e-05
-1.43135e-08
1.99877e-05
-1.54662e-08
1.99867e-05
-1.66945e-08
1.99857e-05
-1.80023e-08
1.99847e-05
-1.93934e-08
1.99836e-05
-2.08722e-08
1.99824e-05
-2.24428e-08
1.99811e-05
-2.41097e-08
1.99798e-05
-2.58774e-08
1.99784e-05
-2.77507e-08
1.9977e-05
-2.97343e-08
1.99754e-05
-3.18332e-08
1.99738e-05
-3.40525e-08
1.9972e-05
-3.63975e-08
1.99702e-05
-3.88735e-08
1.99683e-05
-4.14861e-08
1.99663e-05
-4.42408e-08
1.99642e-05
-4.71435e-08
1.99619e-05
-5.02e-08
1.99596e-05
-5.34164e-08
1.99572e-05
-5.67986e-08
1.99546e-05
-6.03531e-08
1.99519e-05
-6.4086e-08
1.99491e-05
-6.80038e-08
1.99461e-05
-7.2113e-08
1.99431e-05
-7.64201e-08
1.99399e-05
-8.09317e-08
1.99365e-05
-8.56546e-08
1.9933e-05
-9.05954e-08
1.99294e-05
-9.57606e-08
1.99256e-05
-1.01157e-07
1.99217e-05
-1.06791e-07
1.99176e-05
-1.12669e-07
1.99134e-05
-1.18797e-07
1.9909e-05
-1.25181e-07
1.99044e-05
-1.31827e-07
1.98998e-05
-1.38739e-07
1.98949e-05
-1.45922e-07
1.98899e-05
-1.53378e-07
1.98848e-05
-1.6111e-07
1.98795e-05
-1.69117e-07
1.98741e-05
-1.77399e-07
1.98685e-05
-1.85949e-07
1.98629e-05
-1.9476e-07
1.9857e-05
-2.03818e-07
1.98511e-05
-2.13103e-07
1.98451e-05
-2.22588e-07
1.98389e-05
-2.32235e-07
1.98327e-05
-2.41992e-07
1.98264e-05
-2.51791e-07
1.982e-05
-2.61541e-07
1.98136e-05
-2.71123e-07
1.98071e-05
-2.80384e-07
1.98005e-05