/*--------------------------------*- C++ -*----------------------------------*\
  =========                 |
  \\      /  F ield         | OpenFOAM: The Open Source CFD Toolbox
   \\    /   O peration     | Website:  https://openfoam.org
    \\  /    A nd           | Version:  11
     \\/     M anipulation  |
\*---------------------------------------------------------------------------*/
FoamFile
{
    format      ascii;
    class       surfaceScalarField;
    location    "1578";
    object      phi;
}
// * * * * * * * * * * * * * * * * * * * * * * * * * * * * * * * * * * * * * //

dimensions      [0 3 -1 0 0 0 0];

internalField   nonuniform List<scalar> 
19800
(
2e-05
-3.00641e-15
2e-05
-8.7756e-15
2e-05
-1.44791e-14
2e-05
-2.02352e-14
2e-05
-2.6144e-14
2e-05
-3.22778e-14
2e-05
-3.86932e-14
2e-05
-4.54378e-14
2e-05
-5.25539e-14
2e-05
-6.00803e-14
2e-05
-6.80542e-14
2e-05
-7.65118e-14
2e-05
-8.54887e-14
2e-05
-9.50208e-14
2e-05
-1.05144e-13
2e-05
-1.15896e-13
2e-05
-1.27313e-13
2e-05
-1.39434e-13
2e-05
-1.52298e-13
2e-05
-1.65945e-13
2e-05
-1.80416e-13
2e-05
-1.95755e-13
2e-05
-2.12004e-13
2e-05
-2.29208e-13
2e-05
-2.47414e-13
2e-05
-2.66669e-13
2e-05
-2.87021e-13
2e-05
-3.0852e-13
2e-05
-3.31218e-13
2e-05
-3.55166e-13
2e-05
-3.80419e-13
2e-05
-4.0703e-13
2e-05
-4.35057e-13
2e-05
-4.64555e-13
2e-05
-4.95583e-13
2e-05
-5.28201e-13
2e-05
-5.62467e-13
2e-05
-5.98444e-13
2e-05
-6.36192e-13
2e-05
-6.75774e-13
2e-05
-7.17253e-13
2e-05
-7.60692e-13
2e-05
-8.06154e-13
2e-05
-8.53703e-13
2e-05
-9.03403e-13
2e-05
-9.55317e-13
2e-05
-1.00951e-12
2e-05
-1.06604e-12
2e-05
-1.12497e-12
2e-05
-1.18636e-12
2e-05
-1.25027e-12
2e-05
-1.31676e-12
2e-05
-1.38588e-12
2e-05
-1.45769e-12
2e-05
-1.53222e-12
2e-05
-1.60954e-12
2e-05
-1.68969e-12
2e-05
-1.7727e-12
2e-05
-1.8586e-12
2e-05
-1.94743e-12
2e-05
-2.03921e-12
2e-05
-2.13396e-12
2e-05
-2.23169e-12
2e-05
-2.33239e-12
2e-05
-2.43606e-12
2e-05
-2.54269e-12
2e-05
-2.65225e-12
2e-05
-2.7647e-12
2e-05
-2.87999e-12
2e-05
-2.99805e-12
2e-05
-3.1188e-12
2e-05
-3.24214e-12
2e-05
-3.36796e-12
2e-05
-3.49612e-12
2e-05
-3.62646e-12
2e-05
-3.75879e-12
2e-05
-3.8929e-12
2e-05
-4.02855e-12
2e-05
-4.16547e-12
2e-05
-4.30333e-12
2e-05
-4.44179e-12
2e-05
-4.58044e-12
2e-05
-4.71884e-12
2e-05
-4.85647e-12
2e-05
-4.99278e-12
2e-05
-5.12712e-12
2e-05
-5.25878e-12
2e-05
-5.38695e-12
2e-05
-5.51075e-12
2e-05
-5.62917e-12
2e-05
-5.7411e-12
2e-05
-5.84534e-12
2e-05
-5.94056e-12
2e-05
-6.02537e-12
2e-05
-6.09841e-12
2e-05
-6.1579e-12
2e-05
-6.20197e-12
2e-05
-6.22951e-12
2e-05
-6.24344e-12
-6.25121e-12
2e-05
-2.64402e-15
2e-05
-8.0284e-15
2e-05
-1.34805e-14
2e-05
-1.90194e-14
2e-05
-2.47168e-14
2e-05
-3.06352e-14
2e-05
-3.68261e-14
2e-05
-4.33341e-14
2e-05
-5.01995e-14
2e-05
-5.74596e-14
2e-05
-6.51501e-14
2e-05
-7.33058e-14
2e-05
-8.19613e-14
2e-05
-9.11511e-14
2e-05
-1.0091e-13
2e-05
-1.11274e-13
2e-05
-1.22278e-13
2e-05
-1.33961e-13
2e-05
-1.46358e-13
2e-05
-1.5951e-13
2e-05
-1.73457e-13
2e-05
-1.88238e-13
2e-05
-2.03897e-13
2e-05
-2.20476e-13
2e-05
-2.38019e-13
2e-05
-2.56574e-13
2e-05
-2.76186e-13
2e-05
-2.96903e-13
2e-05
-3.18775e-13
2e-05
-3.41852e-13
2e-05
-3.66186e-13
2e-05
-3.9183e-13
2e-05
-4.18837e-13
2e-05
-4.47264e-13
2e-05
-4.77165e-13
2e-05
-5.08598e-13
2e-05
-5.4162e-13
2e-05
-5.76292e-13
2e-05
-6.12671e-13
2e-05
-6.50819e-13
2e-05
-6.90795e-13
2e-05
-7.32662e-13
2e-05
-7.7648e-13
2e-05
-8.22311e-13
2e-05
-8.70217e-13
2e-05
-9.20259e-13
2e-05
-9.72499e-13
2e-05
-1.027e-12
2e-05
-1.08381e-12
2e-05
-1.143e-12
2e-05
-1.20462e-12
2e-05
-1.26874e-12
2e-05
-1.33539e-12
2e-05
-1.40464e-12
2e-05
-1.47654e-12
2e-05
-1.55112e-12
2e-05
-1.62844e-12
2e-05
-1.70853e-12
2e-05
-1.79143e-12
2e-05
-1.87716e-12
2e-05
-1.96576e-12
2e-05
-2.05724e-12
2e-05
-2.15161e-12
2e-05
-2.24889e-12
2e-05
-2.34906e-12
2e-05
-2.45212e-12
2e-05
-2.55804e-12
2e-05
-2.6668e-12
2e-05
-2.77835e-12
2e-05
-2.89263e-12
2e-05
-3.00958e-12
2e-05
-3.12911e-12
2e-05
-3.25112e-12
2e-05
-3.37549e-12
2e-05
-3.50208e-12
2e-05
-3.63072e-12
2e-05
-3.76124e-12
2e-05
-3.89341e-12
2e-05
-4.02699e-12
2e-05
-4.16171e-12
2e-05
-4.29725e-12
2e-05
-4.43327e-12
2e-05
-4.56935e-12
2e-05
-4.70507e-12
2e-05
-4.8399e-12
2e-05
-4.9733e-12
2e-05
-5.10462e-12
2e-05
-5.23316e-12
2e-05
-5.35813e-12
2e-05
-5.47864e-12
2e-05
-5.59371e-12
2e-05
-5.70225e-12
2e-05
-5.8031e-12
2e-05
-5.89497e-12
2e-05
-5.97647e-12
2e-05
-6.04595e-12
2e-05
-6.10202e-12
2e-05
-6.14435e-12
2e-05
-6.17437e-12
-6.19655e-12
2e-05
-2.37219e-15
2e-05
-7.36559e-15
2e-05
-1.25292e-14
2e-05
-1.78289e-14
2e-05
-2.33039e-14
2e-05
-2.90019e-14
2e-05
-3.49665e-14
2e-05
-4.1238e-14
2e-05
-4.78537e-14
2e-05
-5.4849e-14
2e-05
-6.22579e-14
2e-05
-7.01139e-14
2e-05
-7.84503e-14
2e-05
-8.73003e-14
2e-05
-9.66975e-14
2e-05
-1.06676e-13
2e-05
-1.17271e-13
2e-05
-1.28517e-13
2e-05
-1.40452e-13
2e-05
-1.53112e-13
2e-05
-1.66537e-13
2e-05
-1.80765e-13
2e-05
-1.95836e-13
2e-05
-2.11794e-13
2e-05
-2.2868e-13
2e-05
-2.46538e-13
2e-05
-2.65414e-13
2e-05
-2.85354e-13
2e-05
-3.06406e-13
2e-05
-3.28617e-13
2e-05
-3.52039e-13
2e-05
-3.76721e-13
2e-05
-4.02716e-13
2e-05
-4.30077e-13
2e-05
-4.58857e-13
2e-05
-4.89113e-13
2e-05
-5.20899e-13
2e-05
-5.54273e-13
2e-05
-5.89292e-13
2e-05
-6.26013e-13
2e-05
-6.64496e-13
2e-05
-7.048e-13
2e-05
-7.46984e-13
2e-05
-7.91108e-13
2e-05
-8.37231e-13
2e-05
-8.85412e-13
2e-05
-9.35711e-13
2e-05
-9.88187e-13
2e-05
-1.0429e-12
2e-05
-1.0999e-12
2e-05
-1.15925e-12
2e-05
-1.221e-12
2e-05
-1.2852e-12
2e-05
-1.35192e-12
2e-05
-1.42118e-12
2e-05
-1.49305e-12
2e-05
-1.56755e-12
2e-05
-1.64474e-12
2e-05
-1.72465e-12
2e-05
-1.80731e-12
2e-05
-1.89274e-12
2e-05
-1.98097e-12
2e-05
-2.07202e-12
2e-05
-2.16588e-12
2e-05
-2.26257e-12
2e-05
-2.36207e-12
2e-05
-2.46438e-12
2e-05
-2.56947e-12
2e-05
-2.6773e-12
2e-05
-2.78782e-12
2e-05
-2.90099e-12
2e-05
-3.01673e-12
2e-05
-3.13494e-12
2e-05
-3.25554e-12
2e-05
-3.37839e-12
2e-05
-3.50336e-12
2e-05
-3.63029e-12
2e-05
-3.75899e-12
2e-05
-3.88924e-12
2e-05
-4.02081e-12
2e-05
-4.15343e-12
2e-05
-4.28679e-12
2e-05
-4.42054e-12
2e-05
-4.55429e-12
2e-05
-4.68761e-12
2e-05
-4.81999e-12
2e-05
-4.95089e-12
2e-05
-5.07968e-12
2e-05
-5.20567e-12
2e-05
-5.32807e-12
2e-05
-5.44602e-12
2e-05
-5.55853e-12
2e-05
-5.66453e-12
2e-05
-5.76283e-12
2e-05
-5.85209e-12
2e-05
-5.93084e-12
2e-05
-5.99775e-12
2e-05
-6.05192e-12
2e-05
-6.09295e-12
-6.1228e-12
2e-05
-2.15474e-15
2e-05
-6.7816e-15
2e-05
-1.16438e-14
2e-05
-1.66859e-14
2e-05
-2.19248e-14
2e-05
-2.73936e-14
2e-05
-3.31271e-14
2e-05
-3.91598e-14
2e-05
-4.55253e-14
2e-05
-5.22565e-14
2e-05
-5.93854e-14
2e-05
-6.69438e-14
2e-05
-7.49635e-14
2e-05
-8.34765e-14
2e-05
-9.2515e-14
2e-05
-1.02112e-13
2e-05
-1.123e-13
2e-05
-1.23115e-13
2e-05
-1.34591e-13
2e-05
-1.46764e-13
2e-05
-1.59671e-13
2e-05
-1.7335e-13
2e-05
-1.87841e-13
2e-05
-2.03182e-13
2e-05
-2.19416e-13
2e-05
-2.36585e-13
2e-05
-2.54731e-13
2e-05
-2.73901e-13
2e-05
-2.94139e-13
2e-05
-3.15492e-13
2e-05
-3.38009e-13
2e-05
-3.61737e-13
2e-05
-3.86728e-13
2e-05
-4.13033e-13
2e-05
-4.40703e-13
2e-05
-4.69791e-13
2e-05
-5.00352e-13
2e-05
-5.32439e-13
2e-05
-5.66109e-13
2e-05
-6.01417e-13
2e-05
-6.3842e-13
2e-05
-6.77174e-13
2e-05
-7.17738e-13
2e-05
-7.60169e-13
2e-05
-8.04523e-13
2e-05
-8.5086e-13
2e-05
-8.99236e-13
2e-05
-9.49708e-13
2e-05
-1.00233e-12
2e-05
-1.05716e-12
2e-05
-1.11426e-12
2e-05
-1.17367e-12
2e-05
-1.23544e-12
2e-05
-1.29964e-12
2e-05
-1.3663e-12
2e-05
-1.43546e-12
2e-05
-1.50719e-12
2e-05
-1.5815e-12
2e-05
-1.65845e-12
2e-05
-1.73805e-12
2e-05
-1.82035e-12
2e-05
-1.90536e-12
2e-05
-1.99309e-12
2e-05
-2.08358e-12
2e-05
-2.17681e-12
2e-05
-2.27279e-12
2e-05
-2.37151e-12
2e-05
-2.47295e-12
2e-05
-2.57709e-12
2e-05
-2.68389e-12
2e-05
-2.79331e-12
2e-05
-2.90527e-12
2e-05
-3.01972e-12
2e-05
-3.13657e-12
2e-05
-3.25571e-12
2e-05
-3.37702e-12
2e-05
-3.50037e-12
2e-05
-3.6256e-12
2e-05
-3.75253e-12
2e-05
-3.88096e-12
2e-05
-4.01064e-12
2e-05
-4.14132e-12
2e-05
-4.2727e-12
2e-05
-4.40444e-12
2e-05
-4.53617e-12
2e-05
-4.66745e-12
2e-05
-4.79781e-12
2e-05
-4.9267e-12
2e-05
-5.05351e-12
2e-05
-5.17754e-12
2e-05
-5.29802e-12
2e-05
-5.41406e-12
2e-05
-5.52466e-12
2e-05
-5.62868e-12
2e-05
-5.72482e-12
2e-05
-5.81162e-12
2e-05
-5.88752e-12
2e-05
-5.95082e-12
2e-05
-5.99945e-12
-6.03162e-12
2e-05
-1.97227e-15
2e-05
-6.26226e-15
2e-05
-1.08256e-14
2e-05
-1.56011e-14
2e-05
-2.05935e-14
2e-05
-2.58246e-14
2e-05
-3.1321e-14
2e-05
-3.71113e-14
2e-05
-4.3225e-14
2e-05
-4.96919e-14
2e-05
-5.65417e-14
2e-05
-6.38044e-14
2e-05
-7.151e-14
2e-05
-7.96889e-14
2e-05
-8.83722e-14
2e-05
-9.75911e-14
2e-05
-1.07378e-13
2e-05
-1.17766e-13
2e-05
-1.28788e-13
2e-05
-1.40479e-13
2e-05
-1.52874e-13
2e-05
-1.66011e-13
2e-05
-1.79926e-13
2e-05
-1.94658e-13
2e-05
-2.10247e-13
2e-05
-2.26733e-13
2e-05
-2.44159e-13
2e-05
-2.62566e-13
2e-05
-2.82e-13
2e-05
-3.02504e-13
2e-05
-3.24126e-13
2e-05
-3.46911e-13
2e-05
-3.7091e-13
2e-05
-3.96169e-13
2e-05
-4.2274e-13
2e-05
-4.50674e-13
2e-05
-4.80022e-13
2e-05
-5.10838e-13
2e-05
-5.43173e-13
2e-05
-5.77083e-13
2e-05
-6.12622e-13
2e-05
-6.49844e-13
2e-05
-6.88805e-13
2e-05
-7.29561e-13
2e-05
-7.72167e-13
2e-05
-8.16679e-13
2e-05
-8.63152e-13
2e-05
-9.11642e-13
2e-05
-9.62203e-13
2e-05
-1.01489e-12
2e-05
-1.06975e-12
2e-05
-1.12685e-12
2e-05
-1.18622e-12
2e-05
-1.24792e-12
2e-05
-1.312e-12
2e-05
-1.37851e-12
2e-05
-1.44747e-12
2e-05
-1.51894e-12
2e-05
-1.59296e-12
2e-05
-1.66954e-12
2e-05
-1.74873e-12
2e-05
-1.83055e-12
2e-05
-1.91503e-12
2e-05
-2.00216e-12
2e-05
-2.09198e-12
2e-05
-2.18447e-12
2e-05
-2.27964e-12
2e-05
-2.37748e-12
2e-05
-2.47796e-12
2e-05
-2.58107e-12
2e-05
-2.68677e-12
2e-05
-2.795e-12
2e-05
-2.90571e-12
2e-05
-3.01884e-12
2e-05
-3.13429e-12
2e-05
-3.25197e-12
2e-05
-3.37177e-12
2e-05
-3.49354e-12
2e-05
-3.61716e-12
2e-05
-3.74243e-12
2e-05
-3.86917e-12
2e-05
-3.99715e-12
2e-05
-4.12611e-12
2e-05
-4.25579e-12
2e-05
-4.38584e-12
2e-05
-4.51591e-12
2e-05
-4.64557e-12
2e-05
-4.77437e-12
2e-05
-4.90175e-12
2e-05
-5.0271e-12
2e-05
-5.14972e-12
2e-05
-5.26878e-12
2e-05
-5.38333e-12
2e-05
-5.49227e-12
2e-05
-5.59426e-12
2e-05
-5.68774e-12
2e-05
-5.77081e-12
2e-05
-5.841e-12
2e-05
-5.895e-12
-5.92653e-12
2e-05
-1.81407e-15
2e-05
-5.79501e-15
2e-05
-1.00693e-14
2e-05
-1.45773e-14
2e-05
-1.93177e-14
2e-05
-2.4305e-14
2e-05
-2.95592e-14
2e-05
-3.51036e-14
2e-05
-4.09635e-14
2e-05
-4.71656e-14
2e-05
-5.37369e-14
2e-05
-6.07054e-14
2e-05
-6.80993e-14
2e-05
-7.59473e-14
2e-05
-8.42791e-14
2e-05
-9.31244e-14
2e-05
-1.02514e-13
2e-05
-1.1248e-13
2e-05
-1.23054e-13
2e-05
-1.34269e-13
2e-05
-1.46159e-13
2e-05
-1.5876e-13
2e-05
-1.72108e-13
2e-05
-1.86238e-13
2e-05
-2.01191e-13
2e-05
-2.17004e-13
2e-05
-2.33717e-13
2e-05
-2.51373e-13
2e-05
-2.70012e-13
2e-05
-2.89679e-13
2e-05
-3.10417e-13
2e-05
-3.32273e-13
2e-05
-3.55291e-13
2e-05
-3.79519e-13
2e-05
-4.05006e-13
2e-05
-4.31801e-13
2e-05
-4.59953e-13
2e-05
-4.89512e-13
2e-05
-5.20531e-13
2e-05
-5.53061e-13
2e-05
-5.87155e-13
2e-05
-6.22865e-13
2e-05
-6.60244e-13
2e-05
-6.99348e-13
2e-05
-7.40228e-13
2e-05
-7.8294e-13
2e-05
-8.27536e-13
2e-05
-8.7407e-13
2e-05
-9.22594e-13
2e-05
-9.73162e-13
2e-05
-1.02583e-12
2e-05
-1.08063e-12
2e-05
-1.13764e-12
2e-05
-1.19688e-12
2e-05
-1.25842e-12
2e-05
-1.32229e-12
2e-05
-1.38854e-12
2e-05
-1.4572e-12
2e-05
-1.52832e-12
2e-05
-1.60193e-12
2e-05
-1.67805e-12
2e-05
-1.75673e-12
2e-05
-1.83797e-12
2e-05
-1.92181e-12
2e-05
-2.00825e-12
2e-05
-2.09729e-12
2e-05
-2.18896e-12
2e-05
-2.28323e-12
2e-05
-2.38011e-12
2e-05
-2.47957e-12
2e-05
-2.58159e-12
2e-05
-2.68612e-12
2e-05
-2.79314e-12
2e-05
-2.90258e-12
2e-05
-3.01438e-12
2e-05
-3.12845e-12
2e-05
-3.24472e-12
2e-05
-3.36306e-12
2e-05
-3.48336e-12
2e-05
-3.60548e-12
2e-05
-3.72925e-12
2e-05
-3.8545e-12
2e-05
-3.98101e-12
2e-05
-4.10854e-12
2e-05
-4.23682e-12
2e-05
-4.36554e-12
2e-05
-4.49435e-12
2e-05
-4.62283e-12
2e-05
-4.7505e-12
2e-05
-4.87682e-12
2e-05
-5.00112e-12
2e-05
-5.12265e-12
2e-05
-5.24046e-12
2e-05
-5.35345e-12
2e-05
-5.46022e-12
2e-05
-5.55904e-12
2e-05
-5.64765e-12
2e-05
-5.72294e-12
2e-05
-5.78057e-12
-5.81162e-12
2e-05
-1.67335e-15
2e-05
-5.37005e-15
2e-05
-9.36827e-15
2e-05
-1.3613e-14
2e-05
-1.81007e-14
2e-05
-2.28413e-14
2e-05
-2.785e-14
2e-05
-3.31459e-14
2e-05
-3.87504e-14
2e-05
-4.46871e-14
2e-05
-5.09806e-14
2e-05
-5.76565e-14
2e-05
-6.47411e-14
2e-05
-7.22616e-14
2e-05
-8.02457e-14
2e-05
-8.8722e-14
2e-05
-9.77198e-14
2e-05
-1.07269e-13
2e-05
-1.17401e-13
2e-05
-1.28147e-13
2e-05
-1.3954e-13
2e-05
-1.51613e-13
2e-05
-1.64401e-13
2e-05
-1.7794e-13
2e-05
-1.92265e-13
2e-05
-2.07415e-13
2e-05
-2.23427e-13
2e-05
-2.40342e-13
2e-05
-2.58199e-13
2e-05
-2.77041e-13
2e-05
-2.9691e-13
2e-05
-3.17848e-13
2e-05
-3.39902e-13
2e-05
-3.63115e-13
2e-05
-3.87534e-13
2e-05
-4.13206e-13
2e-05
-4.4018e-13
2e-05
-4.68503e-13
2e-05
-4.98225e-13
2e-05
-5.29396e-13
2e-05
-5.62067e-13
2e-05
-5.96288e-13
2e-05
-6.3211e-13
2e-05
-6.69586e-13
2e-05
-7.08768e-13
2e-05
-7.49706e-13
2e-05
-7.92453e-13
2e-05
-8.37061e-13
2e-05
-8.83581e-13
2e-05
-9.32063e-13
2e-05
-9.82559e-13
2e-05
-1.03512e-12
2e-05
-1.08979e-12
2e-05
-1.14661e-12
2e-05
-1.20564e-12
2e-05
-1.26692e-12
2e-05
-1.33049e-12
2e-05
-1.39639e-12
2e-05
-1.46466e-12
2e-05
-1.53533e-12
2e-05
-1.60844e-12
2e-05
-1.68402e-12
2e-05
-1.76208e-12
2e-05
-1.84266e-12
2e-05
-1.92577e-12
2e-05
-2.01143e-12
2e-05
-2.09964e-12
2e-05
-2.1904e-12
2e-05
-2.28372e-12
2e-05
-2.37958e-12
2e-05
-2.47796e-12
2e-05
-2.57885e-12
2e-05
-2.68221e-12
2e-05
-2.78801e-12
2e-05
-2.89619e-12
2e-05
-3.00669e-12
2e-05
-3.11944e-12
2e-05
-3.23437e-12
2e-05
-3.35137e-12
2e-05
-3.47033e-12
2e-05
-3.59112e-12
2e-05
-3.71359e-12
2e-05
-3.83758e-12
2e-05
-3.96289e-12
2e-05
-4.08929e-12
2e-05
-4.21652e-12
2e-05
-4.34428e-12
2e-05
-4.4722e-12
2e-05
-4.59986e-12
2e-05
-4.72675e-12
2e-05
-4.85228e-12
2e-05
-4.97568e-12
2e-05
-5.09605e-12
2e-05
-5.21222e-12
2e-05
-5.32272e-12
2e-05
-5.42565e-12
2e-05
-5.51842e-12
2e-05
-5.59741e-12
2e-05
-5.65743e-12
-5.68947e-12
2e-05
-1.54589e-15
2e-05
-4.97981e-15
2e-05
-8.71609e-15
2e-05
-1.27049e-14
2e-05
-1.69426e-14
2e-05
-2.14366e-14
2e-05
-2.61989e-14
2e-05
-3.12451e-14
2e-05
-3.65937e-14
2e-05
-4.22652e-14
2e-05
-4.82817e-14
2e-05
-5.46668e-14
2e-05
-6.14448e-14
2e-05
-6.86411e-14
2e-05
-7.62818e-14
2e-05
-8.4394e-14
2e-05
-9.30054e-14
2e-05
-1.02145e-13
2e-05
-1.11841e-13
2e-05
-1.22126e-13
2e-05
-1.33029e-13
2e-05
-1.44583e-13
2e-05
-1.56821e-13
2e-05
-1.69777e-13
2e-05
-1.83486e-13
2e-05
-1.97984e-13
2e-05
-2.13307e-13
2e-05
-2.29493e-13
2e-05
-2.46582e-13
2e-05
-2.64613e-13
2e-05
-2.83626e-13
2e-05
-3.03664e-13
2e-05
-3.24769e-13
2e-05
-3.46984e-13
2e-05
-3.70354e-13
2e-05
-3.94923e-13
2e-05
-4.20739e-13
2e-05
-4.47847e-13
2e-05
-4.76295e-13
2e-05
-5.0613e-13
2e-05
-5.37402e-13
2e-05
-5.7016e-13
2e-05
-6.04452e-13
2e-05
-6.40329e-13
2e-05
-6.7784e-13
2e-05
-7.17036e-13
2e-05
-7.57966e-13
2e-05
-8.00682e-13
2e-05
-8.45231e-13
2e-05
-8.91664e-13
2e-05
-9.4003e-13
2e-05
-9.90377e-13
2e-05
-1.04275e-12
2e-05
-1.0972e-12
2e-05
-1.15377e-12
2e-05
-1.2125e-12
2e-05
-1.27344e-12
2e-05
-1.33662e-12
2e-05
-1.40209e-12
2e-05
-1.46988e-12
2e-05
-1.54002e-12
2e-05
-1.61255e-12
2e-05
-1.68749e-12
2e-05
-1.76487e-12
2e-05
-1.84471e-12
2e-05
-1.92702e-12
2e-05
-2.01183e-12
2e-05
-2.09914e-12
2e-05
-2.18895e-12
2e-05
-2.28126e-12
2e-05
-2.37607e-12
2e-05
-2.47336e-12
2e-05
-2.57311e-12
2e-05
-2.67531e-12
2e-05
-2.7799e-12
2e-05
-2.88687e-12
2e-05
-2.99614e-12
2e-05
-3.10766e-12
2e-05
-3.22136e-12
2e-05
-3.33715e-12
2e-05
-3.45494e-12
2e-05
-3.57461e-12
2e-05
-3.69602e-12
2e-05
-3.81902e-12
2e-05
-3.94342e-12
2e-05
-4.069e-12
2e-05
-4.1955e-12
2e-05
-4.3226e-12
2e-05
-4.44993e-12
2e-05
-4.57701e-12
2e-05
-4.70326e-12
2e-05
-4.82796e-12
2e-05
-4.95017e-12
2e-05
-5.0687e-12
2e-05
-5.18198e-12
2e-05
-5.28792e-12
2e-05
-5.38369e-12
2e-05
-5.46531e-12
2e-05
-5.52716e-12
-5.56145e-12
2e-05
-1.42897e-15
2e-05
-4.61872e-15
2e-05
-8.1071e-15
2e-05
-1.18492e-14
2e-05
-1.58421e-14
2e-05
-2.00921e-14
2e-05
-2.46091e-14
2e-05
-2.94063e-14
2e-05
-3.44994e-14
2e-05
-3.99067e-14
2e-05
-4.56479e-14
2e-05
-5.17445e-14
2e-05
-5.82189e-14
2e-05
-6.50947e-14
2e-05
-7.23966e-14
2e-05
-8.01498e-14
2e-05
-8.83808e-14
2e-05
-9.71167e-14
2e-05
-1.06385e-13
2e-05
-1.16216e-13
2e-05
-1.26638e-13
2e-05
-1.37682e-13
2e-05
-1.4938e-13
2e-05
-1.61765e-13
2e-05
-1.74868e-13
2e-05
-1.88726e-13
2e-05
-2.03373e-13
2e-05
-2.18845e-13
2e-05
-2.35179e-13
2e-05
-2.52414e-13
2e-05
-2.70589e-13
2e-05
-2.89743e-13
2e-05
-3.09917e-13
2e-05
-3.31153e-13
2e-05
-3.53493e-13
2e-05
-3.76981e-13
2e-05
-4.01661e-13
2e-05
-4.27577e-13
2e-05
-4.54774e-13
2e-05
-4.833e-13
2e-05
-5.132e-13
2e-05
-5.44522e-13
2e-05
-5.77313e-13
2e-05
-6.11621e-13
2e-05
-6.47495e-13
2e-05
-6.84982e-13
2e-05
-7.2413e-13
2e-05
-7.64989e-13
2e-05
-8.07606e-13
2e-05
-8.52029e-13
2e-05
-8.98306e-13
2e-05
-9.46483e-13
2e-05
-9.96607e-13
2e-05
-1.04872e-12
2e-05
-1.10288e-12
2e-05
-1.15911e-12
2e-05
-1.21746e-12
2e-05
-1.27798e-12
2e-05
-1.3407e-12
2e-05
-1.40566e-12
2e-05
-1.47289e-12
2e-05
-1.54243e-12
2e-05
-1.6143e-12
2e-05
-1.68854e-12
2e-05
-1.76516e-12
2e-05
-1.8442e-12
2e-05
-1.92567e-12
2e-05
-2.00958e-12
2e-05
-2.09594e-12
2e-05
-2.18476e-12
2e-05
-2.27605e-12
2e-05
-2.36979e-12
2e-05
-2.46599e-12
2e-05
-2.56463e-12
2e-05
-2.66569e-12
2e-05
-2.76915e-12
2e-05
-2.87496e-12
2e-05
-2.9831e-12
2e-05
-3.09351e-12
2e-05
-3.20613e-12
2e-05
-3.3209e-12
2e-05
-3.43771e-12
2e-05
-3.55648e-12
2e-05
-3.67707e-12
2e-05
-3.79934e-12
2e-05
-3.9231e-12
2e-05
-4.04814e-12
2e-05
-4.17416e-12
2e-05
-4.30083e-12
2e-05
-4.4277e-12
2e-05
-4.55421e-12
2e-05
-4.67963e-12
2e-05
-4.80303e-12
2e-05
-4.92314e-12
2e-05
-5.03832e-12
2e-05
-5.14634e-12
2e-05
-5.24418e-12
2e-05
-5.32766e-12
2e-05
-5.39111e-12
-5.42775e-12
2e-05
-1.32078e-15
2e-05
-4.28264e-15
2e-05
-7.53656e-15
2e-05
-1.10419e-14
2e-05
-1.47969e-14
2e-05
-1.88075e-14
2e-05
-2.30823e-14
2e-05
-2.76325e-14
2e-05
-3.24722e-14
2e-05
-3.76172e-14
2e-05
-4.30856e-14
2e-05
-4.88965e-14
2e-05
-5.50709e-14
2e-05
-6.16306e-14
2e-05
-6.85984e-14
2e-05
-7.59984e-14
2e-05
-8.38552e-14
2e-05
-9.21947e-14
2e-05
-1.01043e-13
2e-05
-1.10429e-13
2e-05
-1.20379e-13
2e-05
-1.30923e-13
2e-05
-1.42092e-13
2e-05
-1.53915e-13
2e-05
-1.66426e-13
2e-05
-1.79656e-13
2e-05
-1.9364e-13
2e-05
-2.08413e-13
2e-05
-2.24008e-13
2e-05
-2.40464e-13
2e-05
-2.57817e-13
2e-05
-2.76105e-13
2e-05
-2.95368e-13
2e-05
-3.15645e-13
2e-05
-3.36978e-13
2e-05
-3.59406e-13
2e-05
-3.82973e-13
2e-05
-4.07722e-13
2e-05
-4.33696e-13
2e-05
-4.60939e-13
2e-05
-4.89496e-13
2e-05
-5.19413e-13
2e-05
-5.50734e-13
2e-05
-5.83506e-13
2e-05
-6.17776e-13
2e-05
-6.53589e-13
2e-05
-6.90993e-13
2e-05
-7.30035e-13
2e-05
-7.70759e-13
2e-05
-8.13215e-13
2e-05
-8.57446e-13
2e-05
-9.03499e-13
2e-05
-9.5142e-13
2e-05
-1.00125e-12
2e-05
-1.05304e-12
2e-05
-1.10683e-12
2e-05
-1.16265e-12
2e-05
-1.22056e-12
2e-05
-1.28059e-12
2e-05
-1.34277e-12
2e-05
-1.40715e-12
2e-05
-1.47376e-12
2e-05
-1.54263e-12
2e-05
-1.61378e-12
2e-05
-1.68726e-12
2e-05
-1.76308e-12
2e-05
-1.84127e-12
2e-05
-1.92184e-12
2e-05
-2.00482e-12
2e-05
-2.09021e-12
2e-05
-2.17804e-12
2e-05
-2.26829e-12
2e-05
-2.36099e-12
2e-05
-2.45612e-12
2e-05
-2.55369e-12
2e-05
-2.65367e-12
2e-05
-2.75606e-12
2e-05
-2.86084e-12
2e-05
-2.96796e-12
2e-05
-3.07741e-12
2e-05
-3.18912e-12
2e-05
-3.30304e-12
2e-05
-3.41909e-12
2e-05
-3.53718e-12
2e-05
-3.65719e-12
2e-05
-3.77897e-12
2e-05
-3.90233e-12
2e-05
-4.02701e-12
2e-05
-4.1527e-12
2e-05
-4.27897e-12
2e-05
-4.40528e-12
2e-05
-4.5309e-12
2e-05
-4.65485e-12
2e-05
-4.77586e-12
2e-05
-4.89218e-12
2e-05
-5.0015e-12
2e-05
-5.10068e-12
2e-05
-5.18544e-12
2e-05
-5.25017e-12
-5.28833e-12
2e-05
-1.22007e-15
2e-05
-3.96849e-15
2e-05
-7.00066e-15
2e-05
-1.02796e-14
2e-05
-1.38047e-14
2e-05
-1.75818e-14
2e-05
-2.16189e-14
2e-05
-2.59259e-14
2e-05
-3.05152e-14
2e-05
-3.54012e-14
2e-05
-4.05998e-14
2e-05
-4.61289e-14
2e-05
-5.20074e-14
2e-05
-5.82556e-14
2e-05
-6.48948e-14
2e-05
-7.19475e-14
2e-05
-7.9437e-14
2e-05
-8.73875e-14
2e-05
-9.58242e-14
2e-05
-1.04773e-13
2e-05
-1.14261e-13
2e-05
-1.24316e-13
2e-05
-1.34966e-13
2e-05
-1.46241e-13
2e-05
-1.58172e-13
2e-05
-1.70789e-13
2e-05
-1.84124e-13
2e-05
-1.98212e-13
2e-05
-2.13085e-13
2e-05
-2.28779e-13
2e-05
-2.45329e-13
2e-05
-2.62771e-13
2e-05
-2.81143e-13
2e-05
-3.00483e-13
2e-05
-3.20829e-13
2e-05
-3.42222e-13
2e-05
-3.64702e-13
2e-05
-3.8831e-13
2e-05
-4.13088e-13
2e-05
-4.39077e-13
2e-05
-4.66322e-13
2e-05
-4.94864e-13
2e-05
-5.24749e-13
2e-05
-5.5602e-13
2e-05
-5.88723e-13
2e-05
-6.22901e-13
2e-05
-6.58599e-13
2e-05
-6.95864e-13
2e-05
-7.3474e-13
2e-05
-7.75271e-13
2e-05
-8.17504e-13
2e-05
-8.61481e-13
2e-05
-9.07248e-13
2e-05
-9.54848e-13
2e-05
-1.00432e-12
2e-05
-1.05572e-12
2e-05
-1.10907e-12
2e-05
-1.16443e-12
2e-05
-1.22182e-12
2e-05
-1.2813e-12
2e-05
-1.34288e-12
2e-05
-1.40663e-12
2e-05
-1.47255e-12
2e-05
-1.54069e-12
2e-05
-1.61109e-12
2e-05
-1.68376e-12
2e-05
-1.75873e-12
2e-05
-1.83604e-12
2e-05
-1.91569e-12
2e-05
-1.99772e-12
2e-05
-2.08215e-12
2e-05
-2.16897e-12
2e-05
-2.25822e-12
2e-05
-2.3499e-12
2e-05
-2.44401e-12
2e-05
-2.54057e-12
2e-05
-2.63956e-12
2e-05
-2.74099e-12
2e-05
-2.84484e-12
2e-05
-2.9511e-12
2e-05
-3.05973e-12
2e-05
-3.17071e-12
2e-05
-3.28398e-12
2e-05
-3.39947e-12
2e-05
-3.5171e-12
2e-05
-3.63673e-12
2e-05
-3.7582e-12
2e-05
-3.88129e-12
2e-05
-4.00569e-12
2e-05
-4.131e-12
2e-05
-4.25668e-12
2e-05
-4.38199e-12
2e-05
-4.50594e-12
2e-05
-4.62723e-12
2e-05
-4.74405e-12
2e-05
-4.85402e-12
2e-05
-4.95392e-12
2e-05
-5.03945e-12
2e-05
-5.105e-12
-5.14389e-12
2e-05
-1.12593e-15
2e-05
-3.67392e-15
2e-05
-6.49629e-15
2e-05
-9.55909e-15
2e-05
-1.28628e-14
2e-05
-1.64135e-14
2e-05
-2.02185e-14
2e-05
-2.42872e-14
2e-05
-2.86305e-14
2e-05
-3.32615e-14
2e-05
-3.81947e-14
2e-05
-4.34463e-14
2e-05
-4.90338e-14
2e-05
-5.49758e-14
2e-05
-6.12924e-14
2e-05
-6.80044e-14
2e-05
-7.51337e-14
2e-05
-8.27031e-14
2e-05
-9.07364e-14
2e-05
-9.92582e-14
2e-05
-1.08294e-13
2e-05
-1.1787e-13
2e-05
-1.28014e-13
2e-05
-1.38753e-13
2e-05
-1.50117e-13
2e-05
-1.62135e-13
2e-05
-1.74837e-13
2e-05
-1.88257e-13
2e-05
-2.02425e-13
2e-05
-2.17374e-13
2e-05
-2.3314e-13
2e-05
-2.49756e-13
2e-05
-2.67258e-13
2e-05
-2.85683e-13
2e-05
-3.05068e-13
2e-05
-3.25451e-13
2e-05
-3.4687e-13
2e-05
-3.69364e-13
2e-05
-3.92974e-13
2e-05
-4.17741e-13
2e-05
-4.43704e-13
2e-05
-4.70906e-13
2e-05
-4.99389e-13
2e-05
-5.29196e-13
2e-05
-5.60369e-13
2e-05
-5.92951e-13
2e-05
-6.26986e-13
2e-05
-6.62517e-13
2e-05
-6.99589e-13
2e-05
-7.38243e-13
2e-05
-7.78525e-13
2e-05
-8.20476e-13
2e-05
-8.64141e-13
2e-05
-9.09562e-13
2e-05
-9.56782e-13
2e-05
-1.00584e-12
2e-05
-1.05678e-12
2e-05
-1.10965e-12
2e-05
-1.16447e-12
2e-05
-1.2213e-12
2e-05
-1.28016e-12
2e-05
-1.3411e-12
2e-05
-1.40415e-12
2e-05
-1.46935e-12
2e-05
-1.53673e-12
2e-05
-1.60631e-12
2e-05
-1.67815e-12
2e-05
-1.75225e-12
2e-05
-1.82865e-12
2e-05
-1.90739e-12
2e-05
-1.98847e-12
2e-05
-2.07193e-12
2e-05
-2.15779e-12
2e-05
-2.24606e-12
2e-05
-2.33678e-12
2e-05
-2.42994e-12
2e-05
-2.52557e-12
2e-05
-2.62367e-12
2e-05
-2.72425e-12
2e-05
-2.82731e-12
2e-05
-2.93285e-12
2e-05
-3.04084e-12
2e-05
-3.15126e-12
2e-05
-3.26406e-12
2e-05
-3.37918e-12
2e-05
-3.4965e-12
2e-05
-3.61589e-12
2e-05
-3.73713e-12
2e-05
-3.85996e-12
2e-05
-3.98396e-12
2e-05
-4.1086e-12
2e-05
-4.23315e-12
2e-05
-4.35661e-12
2e-05
-4.47762e-12
2e-05
-4.59437e-12
2e-05
-4.70442e-12
2e-05
-4.80452e-12
2e-05
-4.89034e-12
2e-05
-4.95628e-12
-4.99547e-12
2e-05
-1.0377e-15
2e-05
-3.39713e-15
2e-05
-6.02096e-15
2e-05
-8.87777e-15
2e-05
-1.19689e-14
2e-05
-1.53008e-14
2e-05
-1.88805e-14
2e-05
-2.27166e-14
2e-05
-2.68193e-14
2e-05
-3.12004e-14
2e-05
-3.58732e-14
2e-05
-4.08525e-14
2e-05
-4.61545e-14
2e-05
-5.17963e-14
2e-05
-5.77967e-14
2e-05
-6.41749e-14
2e-05
-7.09517e-14
2e-05
-7.81484e-14
2e-05
-8.57874e-14
2e-05
-9.38919e-14
2e-05
-1.02486e-13
2e-05
-1.11595e-13
2e-05
-1.21244e-13
2e-05
-1.3146e-13
2e-05
-1.42271e-13
2e-05
-1.53705e-13
2e-05
-1.65791e-13
2e-05
-1.78558e-13
2e-05
-1.92038e-13
2e-05
-2.06263e-13
2e-05
-2.21264e-13
2e-05
-2.37076e-13
2e-05
-2.53731e-13
2e-05
-2.71264e-13
2e-05
-2.89712e-13
2e-05
-3.0911e-13
2e-05
-3.29495e-13
2e-05
-3.50905e-13
2e-05
-3.73378e-13
2e-05
-3.96952e-13
2e-05
-4.21667e-13
2e-05
-4.47564e-13
2e-05
-4.74681e-13
2e-05
-5.03061e-13
2e-05
-5.32744e-13
2e-05
-5.63772e-13
2e-05
-5.96186e-13
2e-05
-6.30028e-13
2e-05
-6.65342e-13
2e-05
-7.02167e-13
2e-05
-7.40548e-13
2e-05
-7.80526e-13
2e-05
-8.22143e-13
2e-05
-8.65441e-13
2e-05
-9.10461e-13
2e-05
-9.57246e-13
2e-05
-1.00583e-12
2e-05
-1.05627e-12
2e-05
-1.10859e-12
2e-05
-1.16283e-12
2e-05
-1.21904e-12
2e-05
-1.27724e-12
2e-05
-1.33749e-12
2e-05
-1.39981e-12
2e-05
-1.46424e-12
2e-05
-1.53082e-12
2e-05
-1.59958e-12
2e-05
-1.67056e-12
2e-05
-1.74378e-12
2e-05
-1.81928e-12
2e-05
-1.89709e-12
2e-05
-1.97725e-12
2e-05
-2.05977e-12
2e-05
-2.1447e-12
2e-05
-2.23206e-12
2e-05
-2.32187e-12
2e-05
-2.41416e-12
2e-05
-2.50896e-12
2e-05
-2.60628e-12
2e-05
-2.70615e-12
2e-05
-2.80856e-12
2e-05
-2.91352e-12
2e-05
-3.02103e-12
2e-05
-3.13105e-12
2e-05
-3.24353e-12
2e-05
-3.3584e-12
2e-05
-3.47551e-12
2e-05
-3.59469e-12
2e-05
-3.71566e-12
2e-05
-3.83803e-12
2e-05
-3.96128e-12
2e-05
-4.08466e-12
2e-05
-4.20717e-12
2e-05
-4.32744e-12
2e-05
-4.44362e-12
2e-05
-4.55326e-12
2e-05
-4.65308e-12
2e-05
-4.73877e-12
2e-05
-4.8047e-12
-4.84391e-12
2e-05
-9.54861e-16
2e-05
-3.1367e-15
2e-05
-5.57261e-15
2e-05
-8.23334e-15
2e-05
-1.1121e-14
2e-05
-1.42421e-14
2e-05
-1.76037e-14
2e-05
-2.12139e-14
2e-05
-2.50821e-14
2e-05
-2.92192e-14
2e-05
-3.36374e-14
2e-05
-3.83504e-14
2e-05
-4.33729e-14
2e-05
-4.87212e-14
2e-05
-5.44122e-14
2e-05
-6.04643e-14
2e-05
-6.68966e-14
2e-05
-7.37294e-14
2e-05
-8.09835e-14
2e-05
-8.8681e-14
2e-05
-9.68445e-14
2e-05
-1.05498e-13
2e-05
-1.14665e-13
2e-05
-1.24372e-13
2e-05
-1.34644e-13
2e-05
-1.45509e-13
2e-05
-1.56994e-13
2e-05
-1.69127e-13
2e-05
-1.81938e-13
2e-05
-1.95457e-13
2e-05
-2.09715e-13
2e-05
-2.24742e-13
2e-05
-2.40573e-13
2e-05
-2.57239e-13
2e-05
-2.74775e-13
2e-05
-2.93215e-13
2e-05
-3.12595e-13
2e-05
-3.32949e-13
2e-05
-3.54316e-13
2e-05
-3.76731e-13
2e-05
-4.00232e-13
2e-05
-4.24858e-13
2e-05
-4.50648e-13
2e-05
-4.7764e-13
2e-05
-5.05873e-13
2e-05
-5.35389e-13
2e-05
-5.66226e-13
2e-05
-5.98426e-13
2e-05
-6.32029e-13
2e-05
-6.67076e-13
2e-05
-7.03608e-13
2e-05
-7.41665e-13
2e-05
-7.81289e-13
2e-05
-8.22521e-13
2e-05
-8.65401e-13
2e-05
-9.09971e-13
2e-05
-9.5627e-13
2e-05
-1.00434e-12
2e-05
-1.05422e-12
2e-05
-1.10595e-12
2e-05
-1.15956e-12
2e-05
-1.21511e-12
2e-05
-1.27262e-12
2e-05
-1.33214e-12
2e-05
-1.3937e-12
2e-05
-1.45734e-12
2e-05
-1.5231e-12
2e-05
-1.59102e-12
2e-05
-1.66113e-12
2e-05
-1.73347e-12
2e-05
-1.80808e-12
2e-05
-1.88499e-12
2e-05
-1.96424e-12
2e-05
-2.04588e-12
2e-05
-2.12993e-12
2e-05
-2.21643e-12
2e-05
-2.30542e-12
2e-05
-2.39694e-12
2e-05
-2.49101e-12
2e-05
-2.58768e-12
2e-05
-2.68695e-12
2e-05
-2.78885e-12
2e-05
-2.89338e-12
2e-05
-3.00053e-12
2e-05
-3.11027e-12
2e-05
-3.22253e-12
2e-05
-3.3372e-12
2e-05
-3.45409e-12
2e-05
-3.57296e-12
2e-05
-3.69342e-12
2e-05
-3.81494e-12
2e-05
-3.93678e-12
2e-05
-4.05794e-12
2e-05
-4.17703e-12
2e-05
-4.2922e-12
2e-05
-4.401e-12
2e-05
-4.50014e-12
2e-05
-4.58531e-12
2e-05
-4.65093e-12
-4.68995e-12
2e-05
-8.77023e-16
2e-05
-2.89148e-15
2e-05
-5.14955e-15
2e-05
-7.62381e-15
2e-05
-1.03169e-14
2e-05
-1.32356e-14
2e-05
-1.63868e-14
2e-05
-1.97783e-14
2e-05
-2.34188e-14
2e-05
-2.73185e-14
2e-05
-3.14886e-14
2e-05
-3.59418e-14
2e-05
-4.06918e-14
2e-05
-4.57534e-14
2e-05
-5.11427e-14
2e-05
-5.68766e-14
2e-05
-6.29731e-14
2e-05
-6.94511e-14
2e-05
-7.63302e-14
2e-05
-8.36312e-14
2e-05
-9.13755e-14
2e-05
-9.95854e-14
2e-05
-1.08284e-13
2e-05
-1.17495e-13
2e-05
-1.27244e-13
2e-05
-1.37555e-13
2e-05
-1.48456e-13
2e-05
-1.59972e-13
2e-05
-1.72133e-13
2e-05
-1.84966e-13
2e-05
-1.98501e-13
2e-05
-2.12768e-13
2e-05
-2.27797e-13
2e-05
-2.43621e-13
2e-05
-2.60271e-13
2e-05
-2.77781e-13
2e-05
-2.96183e-13
2e-05
-3.15513e-13
2e-05
-3.35805e-13
2e-05
-3.57094e-13
2e-05
-3.79416e-13
2e-05
-4.02808e-13
2e-05
-4.27308e-13
2e-05
-4.52951e-13
2e-05
-4.79777e-13
2e-05
-5.07824e-13
2e-05
-5.3713e-13
2e-05
-5.67734e-13
2e-05
-5.99676e-13
2e-05
-6.32994e-13
2e-05
-6.6773e-13
2e-05
-7.03921e-13
2e-05
-7.41609e-13
2e-05
-7.80833e-13
2e-05
-8.21634e-13
2e-05
-8.64051e-13
2e-05
-9.08125e-13
2e-05
-9.53894e-13
2e-05
-1.0014e-12
2e-05
-1.05068e-12
2e-05
-1.10178e-12
2e-05
-1.15474e-12
2e-05
-1.20959e-12
2e-05
-1.26637e-12
2e-05
-1.32514e-12
2e-05
-1.38591e-12
2e-05
-1.44875e-12
2e-05
-1.51368e-12
2e-05
-1.58075e-12
2e-05
-1.65e-12
2e-05
-1.72147e-12
2e-05
-1.79521e-12
2e-05
-1.87125e-12
2e-05
-1.94965e-12
2e-05
-2.03044e-12
2e-05
-2.11368e-12
2e-05
-2.19941e-12
2e-05
-2.28767e-12
2e-05
-2.37851e-12
2e-05
-2.47197e-12
2e-05
-2.56808e-12
2e-05
-2.66688e-12
2e-05
-2.76839e-12
2e-05
-2.8726e-12
2e-05
-2.97949e-12
2e-05
-3.08901e-12
2e-05
-3.20107e-12
2e-05
-3.31549e-12
2e-05
-3.43202e-12
2e-05
-3.5503e-12
2e-05
-3.66979e-12
2e-05
-3.78977e-12
2e-05
-3.90922e-12
2e-05
-4.02676e-12
2e-05
-4.14054e-12
2e-05
-4.24811e-12
2e-05
-4.34621e-12
2e-05
-4.43055e-12
2e-05
-4.49559e-12
-4.53425e-12
2e-05
-8.03862e-16
2e-05
-2.66053e-15
2e-05
-4.75035e-15
2e-05
-7.04748e-15
2e-05
-9.55503e-15
2e-05
-1.22798e-14
2e-05
-1.52286e-14
2e-05
-1.84089e-14
2e-05
-2.1829e-14
2e-05
-2.54984e-14
2e-05
-2.94276e-14
2e-05
-3.36281e-14
2e-05
-3.81128e-14
2e-05
-4.28955e-14
2e-05
-4.7991e-14
2e-05
-5.34152e-14
2e-05
-5.91848e-14
2e-05
-6.53176e-14
2e-05
-7.18319e-14
2e-05
-7.87474e-14
2e-05
-8.60841e-14
2e-05
-9.38631e-14
2e-05
-1.02106e-13
2e-05
-1.10836e-13
2e-05
-1.20076e-13
2e-05
-1.2985e-13
2e-05
-1.40184e-13
2e-05
-1.51102e-13
2e-05
-1.62631e-13
2e-05
-1.74798e-13
2e-05
-1.87632e-13
2e-05
-2.01161e-13
2e-05
-2.15413e-13
2e-05
-2.30419e-13
2e-05
-2.4621e-13
2e-05
-2.62817e-13
2e-05
-2.80272e-13
2e-05
-2.98608e-13
2e-05
-3.17857e-13
2e-05
-3.38054e-13
2e-05
-3.59232e-13
2e-05
-3.81428e-13
2e-05
-4.04676e-13
2e-05
-4.29012e-13
2e-05
-4.54473e-13
2e-05
-4.81094e-13
2e-05
-5.08915e-13
2e-05
-5.37971e-13
2e-05
-5.68301e-13
2e-05
-5.99943e-13
2e-05
-6.32936e-13
2e-05
-6.67317e-13
2e-05
-7.03126e-13
2e-05
-7.40402e-13
2e-05
-7.79184e-13
2e-05
-8.19512e-13
2e-05
-8.61424e-13