/*--------------------------------*- C++ -*----------------------------------*\
  =========                 |
  \\      /  F ield         | OpenFOAM: The Open Source CFD Toolbox
   \\    /   O peration     | Website:  https://openfoam.org
    \\  /    A nd           | Version:  11
     \\/     M anipulation  |
\*---------------------------------------------------------------------------*/
FoamFile
{
    format      ascii;
    class       volScalarField;
    location    "604";
    object      omega;
}
// * * * * * * * * * * * * * * * * * * * * * * * * * * * * * * * * * * * * * //

dimensions      [0 0 -1 0 0 0 0];

internalField   nonuniform List<scalar> 
10000
(
0.961692
0.892185
0.829085
0.771728
0.719523
0.671944
0.628523
0.588843
0.552531
0.519257
0.488723
0.460665
0.434847
0.411058
0.389106
0.368824
0.350057
0.33267
0.31654
0.301556
0.287618
0.274636
0.26253
0.251227
0.24066
0.230769
0.221501
0.212805
0.204638
0.196958
0.189729
0.182916
0.176489
0.170421
0.164684
0.159257
0.154116
0.149243
0.14462
0.140228
0.136054
0.132084
0.128303
0.1247
0.121264
0.117984
0.114852
0.111858
0.108994
0.106252
0.103626
0.101108
0.0986927
0.0963744
0.0941477
0.0920075
0.0899492
0.0879684
0.086061
0.0842232
0.0824514
0.0807422
0.0790923
0.0774989
0.075959
0.07447
0.0730294
0.0716347
0.0702837
0.0689742
0.0677043
0.0664718
0.0652751
0.0641123
0.0629817
0.0618818
0.060811
0.0597679
0.058751
0.0577592
0.0567912
0.0558459
0.0549223
0.0540195
0.0531368
0.0522737
0.0514298
0.0506051
0.0498001
0.0490156
0.0482531
0.0475152
0.0468054
0.0461289
0.0454929
0.0449076
0.0443868
0.0439494
0.043621
0.0434359
0.961692
0.892185
0.829085
0.771728
0.719523
0.671944
0.628523
0.588843
0.552531
0.519257
0.488723
0.460665
0.434847
0.411058
0.389106
0.368824
0.350057
0.33267
0.31654
0.301556
0.287618
0.274636
0.262531
0.251227
0.24066
0.23077
0.221501
0.212805
0.204638
0.196958
0.189729
0.182916
0.17649
0.170421
0.164685
0.159257
0.154117
0.149243
0.14462
0.140229
0.136055
0.132084
0.128303
0.1247
0.121264
0.117985
0.114852
0.111858
0.108994
0.106252
0.103626
0.101108
0.098693
0.0963747
0.094148
0.0920078
0.0899495
0.0879687
0.0860614
0.0842236
0.0824518
0.0807426
0.0790928
0.0774993
0.0759595
0.0744705
0.0730299
0.0716352
0.0702842
0.0689748
0.0677048
0.0664724
0.0652757
0.0641129
0.0629824
0.0618825
0.0608117
0.0597686
0.0587518
0.05776
0.0567921
0.0558468
0.0549232
0.0540205
0.0531378
0.0522747
0.0514308
0.0506062
0.0498012
0.0490167
0.0482543
0.0475164
0.0468066
0.0461301
0.0454941
0.0449088
0.044388
0.0439505
0.0436222
0.043437
0.961692
0.892185
0.829085
0.771728
0.719523
0.671944
0.628523
0.588843
0.552531
0.519257
0.488723
0.460665
0.434848
0.411058
0.389106
0.368824
0.350057
0.33267
0.31654
0.301556
0.287618
0.274636
0.262531
0.251227
0.24066
0.23077
0.221501
0.212806
0.204638
0.196958
0.189729
0.182916
0.17649
0.170421
0.164685
0.159257
0.154117
0.149244
0.14462
0.140229
0.136055
0.132084
0.128303
0.1247
0.121264
0.117985
0.114853
0.111859
0.108994
0.106253
0.103626
0.101109
0.0986935
0.0963753
0.0941486
0.0920084
0.0899502
0.0879694
0.0860621
0.0842243
0.0824525
0.0807433
0.0790935
0.0775002
0.0759603
0.0744714
0.0730308
0.0716361
0.0702852
0.0689758
0.0677059
0.0664735
0.0652769
0.0641141
0.0629836
0.0618838
0.060813
0.05977
0.0587533
0.0577615
0.0567936
0.0558484
0.0549249
0.0540222
0.0531396
0.0522766
0.0514328
0.0506082
0.0498032
0.0490188
0.0482564
0.0475186
0.0468088
0.0461323
0.0454964
0.0449111
0.0443902
0.0439528
0.0436244
0.0434392
0.961692
0.892185
0.829085
0.771728
0.719523
0.671944
0.628523
0.588843
0.552531
0.519257
0.488723
0.460665
0.434848
0.411058
0.389107
0.368824
0.350058
0.332671
0.31654
0.301556
0.287618
0.274637
0.262531
0.251228
0.240661
0.23077
0.221501
0.212806
0.204638
0.196959
0.189729
0.182917
0.17649
0.170422
0.164685
0.159258
0.154117
0.149244
0.14462
0.140229
0.136055
0.132085
0.128304
0.124701
0.121265
0.117986
0.114853
0.111859
0.108995
0.106253
0.103627
0.101109
0.0986943
0.0963761
0.0941495
0.0920094
0.0899511
0.0879704
0.0860631
0.0842254
0.0824536
0.0807445
0.0790947
0.0775014
0.0759616
0.0744727
0.0730321
0.0716375
0.0702867
0.0689773
0.0677075
0.0664751
0.0652785
0.0641159
0.0629854
0.0618857
0.060815
0.059772
0.0587554
0.0577637
0.0567959
0.0558508
0.0549274
0.0540248
0.0531423
0.0522793
0.0514356
0.0506111
0.0498062
0.0490219
0.0482596
0.0475218
0.0468121
0.0461356
0.0454997
0.0449144
0.0443935
0.0439561
0.0436277
0.0434425
0.961692
0.892185
0.829085
0.771728
0.719523
0.671944
0.628523
0.588843
0.552531
0.519257
0.488723
0.460666
0.434848
0.411058
0.389107
0.368824
0.350058
0.332671
0.316541
0.301556
0.287618
0.274637
0.262531
0.251228
0.240661
0.23077
0.221502
0.212806
0.204639
0.196959
0.18973
0.182917
0.176491
0.170422
0.164686
0.159258
0.154118
0.149245
0.144621
0.14023
0.136056
0.132085
0.128304
0.124702
0.121266
0.117986
0.114854
0.11186
0.108996
0.106254
0.103628
0.10111
0.0986954
0.0963772
0.0941506
0.0920105
0.0899523
0.0879717
0.0860644
0.0842267
0.0824551
0.080746
0.0790963
0.077503
0.0759632
0.0744744
0.0730339
0.0716394
0.0702886
0.0689793
0.0677095
0.0664773
0.0652807
0.0641181
0.0629878
0.0618881
0.0608176
0.0597747
0.0587581
0.0577666
0.0567989
0.0558539
0.0549306
0.0540281
0.0531457
0.0522829
0.0514393
0.0506149
0.0498101
0.0490259
0.0482637
0.0475259
0.0468163
0.0461399
0.045504
0.0449187
0.0443978
0.0439604
0.043632
0.0434467
0.961692
0.892185
0.829085
0.771728
0.719523
0.671944
0.628523
0.588843
0.552531
0.519257
0.488723
0.460666
0.434848
0.411058
0.389107
0.368824
0.350058
0.332671
0.316541
0.301556
0.287618
0.274637
0.262531
0.251228
0.240661
0.230771
0.221502
0.212807
0.204639
0.196959
0.18973
0.182918
0.176491
0.170423
0.164686
0.159259
0.154118
0.149245
0.144622
0.140231
0.136057
0.132086
0.128305
0.124703
0.121267
0.117987
0.114855
0.111861
0.108997
0.106256
0.103629
0.101112
0.0986967
0.0963786
0.094152
0.092012
0.0899539
0.0879732
0.086066
0.0842284
0.0824568
0.0807478
0.0790981
0.0775049
0.0759652
0.0744765
0.0730361
0.0716416
0.0702909
0.0689817
0.067712
0.0664799
0.0652834
0.0641209
0.0629907
0.0618911
0.0608207
0.0597779
0.0587615
0.0577701
0.0568025
0.0558576
0.0549345
0.0540321
0.0531499
0.0522872
0.0514437
0.0506195
0.0498149
0.0490307
0.0482686
0.047531
0.0468214
0.0461451
0.0455092
0.044924
0.0444031
0.0439656
0.0436372
0.0434519
0.961692
0.892185
0.829085
0.771728
0.719523
0.671944
0.628523
0.588843
0.552531
0.519257
0.488723
0.460666
0.434848
0.411058
0.389107
0.368824
0.350058
0.332671
0.316541
0.301557
0.287619
0.274637
0.262532
0.251229
0.240662
0.230771
0.221503
0.212807
0.20464
0.19696
0.189731
0.182918
0.176492
0.170423
0.164687
0.15926
0.154119
0.149246
0.144623
0.140232
0.136058
0.132087
0.128306
0.124704
0.121268
0.117989
0.114856
0.111862
0.108998
0.106257
0.103631
0.101113
0.0986982
0.0963802
0.0941536
0.0920137
0.0899556
0.0879751
0.0860679
0.0842304
0.0824588
0.0807499
0.0791003
0.0775072
0.0759676
0.0744789
0.0730386
0.0716442
0.0702936
0.0689845
0.0677149
0.0664829
0.0652865
0.0641242
0.0629941
0.0618946
0.0608243
0.0597817
0.0587654
0.0577742
0.0568067
0.055862
0.054939
0.0540368
0.0531548
0.0522922
0.0514489
0.0506249
0.0498204
0.0490364
0.0482744
0.0475369
0.0468274
0.0461512
0.0455153
0.0449301
0.0444092
0.0439717
0.0436432
0.0434579
0.961692
0.892185
0.829085
0.771728
0.719523
0.671944
0.628523
0.588843
0.552532
0.519257
0.488723
0.460666
0.434848
0.411058
0.389107
0.368825
0.350058
0.332672
0.316541
0.301557
0.287619
0.274638
0.262532
0.251229
0.240662
0.230771
0.221503
0.212808
0.20464
0.196961
0.189731
0.182919
0.176493
0.170424
0.164688
0.15926
0.15412
0.149247
0.144624
0.140233
0.136059
0.132088
0.128308
0.124705
0.121269
0.11799
0.114858
0.111864
0.109
0.106258
0.103632
0.101115
0.0986999
0.0963819
0.0941555
0.0920156
0.0899576
0.0879771
0.0860701
0.0842326
0.0824611
0.0807522
0.0791028
0.0775097
0.0759702
0.0744816
0.0730414
0.0716472
0.0702967
0.0689877
0.0677182
0.0664863
0.0652901
0.0641279
0.0629979
0.0618986
0.0608284
0.059786
0.0587698
0.0577788
0.0568115
0.055867
0.0549442
0.0540422
0.0531603
0.0522979
0.0514548
0.0506309
0.0498266
0.0490428
0.048281
0.0475436
0.0468342
0.046158
0.0455222
0.044937
0.0444161
0.0439786
0.0436501
0.0434648
0.961692
0.892185
0.829085
0.771728
0.719523
0.671944
0.628523
0.588843
0.552532
0.519257
0.488724
0.460666
0.434848
0.411059
0.389107
0.368825
0.350059
0.332672
0.316542
0.301557
0.287619
0.274638
0.262533
0.251229
0.240662
0.230772
0.221504
0.212808
0.204641
0.196961
0.189732
0.18292
0.176493
0.170425
0.164689
0.159261
0.154121
0.149248
0.144625
0.140234
0.13606
0.132089
0.128309
0.124706
0.12127
0.117991
0.114859
0.111865
0.109002
0.10626
0.103634
0.101117
0.0987018
0.0963839
0.0941575
0.0920177
0.0899598
0.0879794
0.0860724
0.0842351
0.0824637
0.0807549
0.0791055
0.0775126
0.0759732
0.0744847
0.0730446
0.0716505
0.0703001
0.0689912
0.0677219
0.0664901
0.065294
0.0641319
0.0630021
0.061903
0.060833
0.0597907
0.0587748
0.0577839
0.0568168
0.0558725
0.0549498
0.0540481
0.0531664
0.0523042
0.0514613
0.0506376
0.0498335
0.0490499
0.0482882
0.047551
0.0468417
0.0461656
0.0455299
0.0449447
0.0444238
0.0439862
0.0436577
0.0434723
0.961692
0.892185
0.829085
0.771728
0.719523
0.671944
0.628523
0.588843
0.552532
0.519257
0.488724
0.460666
0.434848
0.411059
0.389108
0.368825
0.350059
0.332672
0.316542
0.301558
0.28762
0.274639
0.262533
0.25123
0.240663
0.230773
0.221504
0.212809
0.204642
0.196962
0.189733
0.18292
0.176494
0.170426
0.16469
0.159262
0.154122
0.149249
0.144626
0.140235
0.136061
0.132091
0.12831
0.124708
0.121272
0.117993
0.114861
0.111867
0.109003
0.106262
0.103636
0.101119
0.0987039
0.0963861
0.0941598
0.09202
0.0899622
0.0879819
0.086075
0.0842377
0.0824665
0.0807578
0.0791085
0.0775157
0.0759764
0.074488
0.073048
0.071654
0.0703038
0.068995
0.0677258
0.0664942
0.0652983
0.0641364
0.0630067
0.0619077
0.0608379
0.0597958
0.0587801
0.0577894
0.0568225
0.0558784
0.054956
0.0540545
0.053173
0.0523111
0.0514684
0.0506449
0.049841
0.0490576
0.0482961
0.047559
0.0468498
0.0461738
0.0455382
0.044953
0.0444321
0.0439946
0.043666
0.0434806
0.961692
0.892185
0.829085
0.771728
0.719523
0.671944
0.628523
0.588843
0.552532
0.519257
0.488724
0.460666
0.434849
0.411059
0.389108
0.368825
0.350059
0.332672
0.316542
0.301558
0.28762
0.274639
0.262533
0.25123
0.240664
0.230773
0.221505
0.21281
0.204642
0.196963
0.189734
0.182921
0.176495
0.170427
0.164691
0.159263
0.154123
0.14925
0.144627
0.140236
0.136063
0.132092
0.128312
0.124709
0.121274
0.117995
0.114863
0.111869
0.109005
0.106264
0.103638
0.101121
0.0987061
0.0963884
0.0941622
0.0920225
0.0899648
0.0879846
0.0860778
0.0842406
0.0824694
0.0807609
0.0791117
0.077519
0.0759798
0.0744916
0.0730517
0.0716579
0.0703077
0.0689991
0.0677301
0.0664986
0.0653029
0.0641411
0.0630117
0.0619129
0.0608433
0.0598014
0.0587858
0.0577953
0.0568287
0.0558848
0.0549626
0.0540613
0.0531801
0.0523184
0.051476
0.0506527
0.049849
0.0490658
0.0483045
0.0475675
0.0468585
0.0461826
0.0455471
0.0449619
0.0444411
0.0440035
0.0436749
0.0434895
0.961692
0.892185
0.829085
0.771728
0.719523
0.671944
0.628523
0.588843
0.552532
0.519257
0.488724
0.460666
0.434849
0.411059
0.389108
0.368826
0.350059
0.332673
0.316543
0.301558
0.287621
0.274639
0.262534
0.251231
0.240664
0.230774
0.221506
0.21281
0.204643
0.196963
0.189734
0.182922
0.176496
0.170428
0.164692
0.159264
0.154124
0.149252
0.144628
0.140238
0.136064
0.132094
0.128313
0.124711
0.121275
0.117996
0.114864
0.111871
0.109007
0.106266
0.10364
0.101123
0.0987084
0.0963908
0.0941647
0.0920251
0.0899675
0.0879874
0.0860807
0.0842437
0.0824726
0.0807641
0.0791151
0.0775225
0.0759835
0.0744954
0.0730556
0.0716619
0.0703119
0.0690035
0.0677346
0.0665033
0.0653078
0.0641462
0.0630169
0.0619183
0.0608489
0.0598072
0.0587919
0.0578016
0.0568352
0.0558916
0.0549696
0.0540686
0.0531876
0.0523262
0.051484
0.050661
0.0498575
0.0490745
0.0483134
0.0475766
0.0468678
0.046192
0.0455565
0.0449714
0.0444506
0.044013
0.0436844
0.0434989
0.961692
0.892185
0.829085
0.771728
0.719523
0.671944
0.628523
0.588843
0.552532
0.519257
0.488724
0.460667
0.434849
0.411059
0.389108
0.368826
0.35006
0.332673
0.316543
0.301559
0.287621
0.27464
0.262534
0.251231
0.240665
0.230774
0.221506
0.212811
0.204644
0.196964
0.189735
0.182923
0.176497
0.170429
0.164693
0.159266
0.154126
0.149253
0.14463
0.140239
0.136065
0.132095
0.128315
0.124712
0.121277
0.117998
0.114866
0.111873
0.109009
0.106268
0.103642
0.101125
0.0987109
0.0963933
0.0941673
0.0920279
0.0899704
0.0879904
0.0860838
0.0842468
0.0824759
0.0807676
0.0791187
0.0775262
0.0759873
0.0744993
0.0730597
0.0716662
0.0703163
0.0690081
0.0677394
0.0665082
0.0653128
0.0641515
0.0630224
0.061924
0.0608548
0.0598133
0.0587982
0.0578082
0.0568421
0.0558987
0.054977
0.0540762
0.0531955
0.0523343
0.0514924
0.0506696
0.0498664
0.0490836
0.0483227
0.0475861
0.0468775
0.0462018
0.0455664
0.0449814
0.0444605
0.0440229
0.0436943
0.0435088
0.961692
0.892185
0.829085
0.771728
0.719523
0.671944
0.628523
0.588843
0.552532
0.519258
0.488724
0.460667
0.434849
0.411059
0.389108
0.368826
0.35006
0.332673
0.316543
0.301559
0.287621
0.27464
0.262535
0.251232
0.240665
0.230775
0.221507
0.212812
0.204645
0.196965
0.189736
0.182924
0.176498
0.17043
0.164694
0.159267
0.154127
0.149254
0.144631
0.14024
0.136067
0.132097
0.128316
0.124714
0.121279
0.118
0.114868
0.111875
0.109011
0.10627
0.103645
0.101128
0.0987134
0.096396
0.0941701
0.0920308
0.0899733
0.0879934
0.086087
0.0842502
0.0824793
0.0807711
0.0791224
0.07753
0.0759913
0.0745034
0.073064
0.0716706
0.0703209
0.0690128
0.0677443
0.0665133
0.0653182
0.064157
0.0630281
0.0619299
0.0608609
0.0598197
0.0588048
0.0578151
0.0568492
0.055906
0.0549846
0.0540841
0.0532036
0.0523427
0.0515011
0.0506786
0.0498757
0.0490931
0.0483324
0.0475961
0.0468875
0.046212
0.0455767
0.0449917
0.0444709
0.0440333
0.0437046
0.0435191
0.961692
0.892185
0.829085
0.771728
0.719523
0.671944
0.628523
0.588843
0.552532
0.519258
0.488724
0.460667
0.434849
0.41106
0.389109
0.368826
0.35006
0.332674
0.316544
0.30156
0.287622
0.274641
0.262535
0.251232
0.240666
0.230776
0.221508
0.212812
0.204645
0.196966
0.189737
0.182925
0.176499
0.170431
0.164695
0.159268
0.154128
0.149256
0.144632
0.140242
0.136069
0.132098
0.128318
0.124716
0.121281
0.118002
0.11487
0.111877
0.109014
0.106273
0.103647
0.10113
0.0987161
0.0963987
0.0941729
0.0920337
0.0899764
0.0879966
0.0860903
0.0842536
0.0824829
0.0807748
0.0791262
0.077534
0.0759954
0.0745077
0.0730684
0.0716752
0.0703257
0.0690177
0.0677494
0.0665186
0.0653236
0.0641626
0.0630339
0.061936
0.0608672
0.0598263
0.0588116
0.0578221
0.0568565
0.0559136
0.0549925
0.0540922
0.0532121
0.0523515
0.0515101
0.0506879
0.0498852
0.0491029
0.0483424
0.0476063
0.0468979
0.0462226
0.0455874
0.0450025
0.0444817
0.0440441
0.0437154
0.0435297
0.961692
0.892185
0.829085
0.771728
0.719523
0.671944
0.628523
0.588843
0.552532
0.519258
0.488724
0.460667
0.434849
0.41106
0.389109
0.368826
0.35006
0.332674
0.316544
0.30156
0.287622
0.274641
0.262536
0.251233
0.240666
0.230776
0.221508
0.212813
0.204646
0.196967
0.189738
0.182926
0.1765
0.170432
0.164696
0.159269
0.154129
0.149257
0.144634
0.140243
0.13607
0.1321
0.12832
0.124718
0.121283
0.118004
0.114873
0.111879
0.109016
0.106275
0.10365
0.101133
0.0987188
0.0964015
0.0941759
0.0920368
0.0899796
0.0879999
0.0860937
0.0842571
0.0824865
0.0807786
0.0791301
0.077538
0.0759996
0.0745121
0.073073
0.0716799
0.0703305
0.0690228
0.0677546
0.066524
0.0653292
0.0641684
0.06304
0.0619423
0.0608737
0.059833
0.0588186
0.0578294
0.056864
0.0559214
0.0550005
0.0541006
0.0532207
0.0523604
0.0515193
0.0506974
0.049895
0.0491129
0.0483527
0.0476168
0.0469086
0.0462334
0.0455983
0.0450135
0.0444927
0.0440551
0.0437264
0.0435407
0.961692
0.892185
0.829085
0.771728
0.719523
0.671944
0.628523
0.588843
0.552532
0.519258
0.488724
0.460667
0.434849
0.41106
0.389109
0.368827
0.350061
0.332674
0.316544
0.30156
0.287623
0.274642
0.262536
0.251234
0.240667
0.230777
0.221509
0.212814
0.204647
0.196968
0.189739
0.182927
0.176501
0.170433
0.164697
0.159271
0.154131
0.149258
0.144635
0.140245
0.136072
0.132102
0.128322
0.12472
0.121285
0.118006
0.114875
0.111882
0.109018
0.106278
0.103652
0.101136
0.0987215
0.0964044
0.0941788
0.0920398
0.0899828
0.0880032
0.0860971
0.0842607
0.0824903
0.0807824
0.0791341
0.0775422
0.0760039
0.0745165
0.0730776
0.0716846
0.0703355
0.0690279
0.0677599
0.0665295
0.0653349
0.0641744
0.0630461
0.0619486
0.0608803
0.0598398
0.0588257
0.0578367
0.0568716
0.0559293
0.0550088
0.0541091
0.0532295
0.0523695
0.0515287
0.0507071
0.0499049
0.0491231
0.0483632
0.0476275
0.0469195
0.0462444
0.0456095
0.0450247
0.044504
0.0440664
0.0437376
0.0435519
0.961692
0.892185
0.829085
0.771728
0.719523
0.671944
0.628523
0.588843
0.552532
0.519258
0.488724
0.460667
0.434849
0.41106
0.389109
0.368827
0.350061
0.332674
0.316545
0.301561
0.287623
0.274642
0.262537
0.251234
0.240668
0.230778
0.22151
0.212815
0.204648
0.196969
0.18974
0.182928
0.176502
0.170434
0.164699
0.159272
0.154132
0.14926
0.144637
0.140247
0.136074
0.132104
0.128324
0.124722
0.121287
0.118008
0.114877
0.111884
0.109021
0.10628
0.103655
0.101138
0.0987243
0.0964073
0.0941818
0.092043
0.089986
0.0880066
0.0861006
0.0842643
0.082494
0.0807863
0.0791381
0.0775464
0.0760082
0.074521
0.0730822
0.0716895
0.0703405
0.0690331
0.0677653
0.0665351
0.0653407
0.0641804
0.0630524
0.0619551
0.0608871
0.0598468
0.0588329
0.0578442
0.0568794
0.0559374
0.0550171
0.0541177
0.0532384
0.0523787
0.0515382
0.0507169
0.049915
0.0491335
0.0483738
0.0476383
0.0469306
0.0462557
0.0456208
0.0450361
0.0445155
0.0440778
0.043749
0.0435633
0.961692
0.892185
0.829085
0.771728
0.719523
0.671944
0.628523
0.588843
0.552532
0.519258
0.488724
0.460667
0.43485
0.41106
0.389109
0.368827
0.350061
0.332675
0.316545
0.301561
0.287623
0.274643
0.262537
0.251235
0.240668
0.230778
0.22151
0.212815
0.204649
0.19697
0.189741
0.182929
0.176503
0.170435
0.1647
0.159273
0.154133
0.149261
0.144638
0.140248
0.136075
0.132105
0.128325
0.124724
0.121289
0.11801
0.114879
0.111886
0.109023
0.106283
0.103657
0.101141
0.0987271
0.0964102
0.0941849
0.0920461
0.0899893
0.08801
0.0861042
0.084268
0.0824978
0.0807903
0.0791422
0.0775506
0.0760126
0.0745256
0.0730869
0.0716944
0.0703456
0.0690384
0.0677707
0.0665408
0.0653466
0.0641864
0.0630586
0.0619616
0.0608938
0.0598538
0.0588402
0.0578518
0.0568872
0.0559455
0.0550255
0.0541264
0.0532474
0.052388
0.0515478
0.0507268
0.0499252
0.049144
0.0483846
0.0476493
0.0469417
0.046267
0.0456323
0.0450477
0.0445271
0.0440894
0.0437606
0.0435748
0.961692
0.892185
0.829085
0.771728
0.719523
0.671944
0.628523
0.588843
0.552532
0.519258
0.488724
0.460667
0.43485
0.41106
0.389109
0.368827
0.350061
0.332675
0.316545
0.301561
0.287624
0.274643
0.262538
0.251235
0.240669
0.230779
0.221511
0.212816
0.20465
0.19697
0.189742
0.18293
0.176504
0.170437
0.164701
0.159274
0.154135
0.149263
0.14464
0.14025
0.136077
0.132107
0.128327
0.124726
0.121291
0.118012
0.114881
0.111888
0.109026
0.106285
0.10366
0.101144
0.0987299
0.0964132
0.0941879
0.0920493
0.0899926
0.0880134
0.0861077
0.0842717
0.0825016
0.0807942
0.0791463
0.0775548
0.076017
0.0745301
0.0730917
0.0716993
0.0703506
0.0690436
0.0677762
0.0665464
0.0653525
0.0641925
0.063065
0.0619682
0.0609006
0.0598608
0.0588475
0.0578593
0.0568951
0.0559536
0.0550339
0.0541351
0.0532565
0.0523974
0.0515575
0.0507367
0.0499355
0.0491545
0.0483953
0.0476603
0.046953
0.0462784
0.0456438
0.0450593
0.0445387
0.0441011
0.0437722
0.0435864
0.961692
0.892185
0.829085
0.771728
0.719523
0.671944
0.628523
0.588843
0.552532
0.519258
0.488724
0.460667
0.43485
0.41106
0.38911
0.368827
0.350061
0.332675
0.316545
0.301562
0.287624
0.274643
0.262538
0.251236
0.240669
0.230779
0.221512
0.212817
0.20465
0.196971
0.189743
0.182931
0.176505
0.170438
0.164702
0.159276
0.154136
0.149264
0.144641
0.140251
0.136079
0.132109
0.128329
0.124727
0.121293
0.118015
0.114884
0.111891
0.109028
0.106288
0.103663
0.101146
0.0987328
0.0964161
0.094191
0.0920525
0.0899959
0.0880168
0.0861113
0.0842753
0.0825054
0.0807982
0.0791504
0.0775591
0.0760214
0.0745347
0.0730964
0.0717042
0.0703557
0.0690489
0.0677817
0.0665521
0.0653583
0.0641986
0.0630713
0.0619747
0.0609074
0.0598679
0.0588548
0.0578669
0.0569029
0.0559617
0.0550424
0.0541439
0.0532655
0.0524067
0.0515671
0.0507467
0.0499457
0.0491651
0.0484061
0.0476714
0.0469642
0.0462898
0.0456554
0.045071
0.0445504
0.0441128
0.0437839
0.043598
0.961692
0.892185
0.829085
0.771728
0.719523
0.671944
0.628523
0.588843
0.552532
0.519258
0.488724
0.460667
0.43485
0.41106
0.38911
0.368828
0.350062
0.332675
0.316546
0.301562
0.287625
0.274644
0.262539
0.251236
0.24067
0.23078
0.221512
0.212818
0.204651
0.196972
0.189744
0.182932
0.176506
0.170439
0.164703
0.159277
0.154138
0.149266
0.144643
0.140253
0.13608
0.132111
0.128331
0.124729
0.121295
0.118017
0.114886
0.111893
0.10903
0.10629
0.103665
0.101149
0.0987356
0.096419
0.094194
0.0920556
0.0899991
0.0880202
0.0861148
0.084279
0.0825092
0.0808021
0.0791545
0.0775633
0.0760258
0.0745392
0.0731011
0.0717091
0.0703608
0.0690541
0.0677871
0.0665577
0.0653642
0.0642047
0.0630776
0.0619812
0.0609141
0.0598749
0.0588621
0.0578744
0.0569107
0.0559698
0.0550508
0.0541526
0.0532745
0.052416
0.0515767
0.0507566
0.0499559
0.0491756
0.0484169
0.0476824
0.0469754
0.0463012
0.0456669
0.0450826
0.0445621
0.0441245
0.0437956
0.0436097
0.961692
0.892185
0.829085
0.771728
0.719523
0.671944
0.628523
0.588843
0.552532
0.519258
0.488724
0.460667
0.43485
0.411061
0.38911
0.368828
0.350062
0.332676
0.316546
0.301562
0.287625
0.274644
0.262539
0.251237
0.240671
0.230781
0.221513
0.212818
0.204652
0.196973
0.189745
0.182933
0.176507
0.17044
0.164705
0.159278
0.154139
0.149267
0.144644
0.140254
0.136082
0.132112
0.128333
0.124731
0.121297
0.118019
0.114888
0.111895
0.109033
0.106293
0.103668
0.101152
0.0987384
0.0964219
0.094197
0.0920587
0.0900024
0.0880236
0.0861183
0.0842826
0.082513
0.080806
0.0791586
0.0775675
0.0760302
0.0745438
0.0731058
0.0717139
0.0703658
0.0690594
0.0677925
0.0665633
0.06537
0.0642107
0.0630838
0.0619877
0.0609209
0.0598818
0.0588693
0.0578819
0.0569185
0.0559779
0.0550591
0.0541612
0.0532835
0.0524253
0.0515863
0.0507665
0.0499661
0.049186
0.0484276
0.0476933
0.0469866
0.0463126
0.0456784
0.0450942
0.0445737
0.0441361
0.0438072
0.0436212
0.961692
0.892185
0.829085
0.771728
0.719523
0.671944
0.628523
0.588843
0.552532
0.519258
0.488724
0.460667
0.43485
0.411061
0.38911
0.368828
0.350062
0.332676
0.316546
0.301563
0.287625
0.274645
0.26254
0.251237
0.240671
0.230781
0.221514
0.212819
0.204653
0.196974
0.189745
0.182934
0.176508
0.170441
0.164706
0.159279
0.15414
0.149268
0.144646
0.140256
0.136083
0.132114
0.128335
0.124733
0.121299
0.118021
0.11489
0.111897
0.109035
0.106295
0.10367
0.101154
0.0987411
0.0964248
0.0942
0.0920618
0.0900056
0.0880269
0.0861217
0.0842862
0.0825167
0.0808099
0.0791626
0.0775717
0.0760345
0.0745482
0.0731104
0.0717187
0.0703708
0.0690645
0.0677978
0.0665689
0.0653757
0.0642166
0.06309
0.0619941
0.0609275
0.0598887
0.0588764
0.0578893
0.0569262
0.0559858
0.0550673
0.0541697
0.0532923
0.0524344
0.0515957
0.0507762
0.0499761
0.0491963
0.0484382
0.0477041
0.0469976
0.0463238
0.0456898
0.0451056
0.0445852
0.0441477
0.0438187
0.0436327
0.961692
0.892185
0.829085
0.771728
0.719523
0.671944
0.628523
0.588843
0.552532
0.519258
0.488724
0.460667
0.43485
0.411061
0.38911
0.368828
0.350062
0.332676
0.316546
0.301563
0.287626
0.274645
0.26254
0.251238
0.240672
0.230782
0.221514
0.21282
0.204653
0.196975
0.189746
0.182935
0.176509
0.170442
0.164707
0.159281
0.154141
0.14927
0.144647
0.140258
0.136085
0.132116
0.128336
0.124735
0.121301
0.118023
0.114892
0.1119
0.109037
0.106297
0.103673
0.101157
0.0987438
0.0964276
0.0942029
0.0920649
0.0900087
0.0880302
0.0861252
0.0842898
0.0825204
0.0808137
0.0791665
0.0775758
0.0760387
0.0745526
0.073115
0.0717234
0.0703757
0.0690696
0.0678031
0.0665743
0.0653814
0.0642225
0.063096
0.0620004
0.060934
0.0598955
0.0588835
0.0578966
0.0569337
0.0559937
0.0550755
0.0541782
0.053301
0.0524434
0.0516051
0.0507858
0.049986
0.0492065
0.0484486
0.0477148
0.0470085
0.0463349
0.045701
0.045117
0.0445966
0.044159
0.0438301
0.043644
0.961692
0.892185
0.829085
0.771728
0.719523
0.671944
0.628523
0.588843
0.552532
0.519258
0.488725
0.460667
0.43485
0.411061
0.38911
0.368828
0.350062
0.332676
0.316547
0.301563
0.287626
0.274645
0.262541
0.251238
0.240672
0.230782
0.221515
0.21282
0.204654
0.196975
0.189747
0.182936
0.17651
0.170443
0.164708
0.159282
0.154143
0.149271
0.144649
0.140259
0.136087
0.132117
0.128338
0.124737
0.121302
0.118025
0.114894
0.111902
0.10904
0.1063
0.103675
0.10116
0.0987465
0.0964303
0.0942058
0.0920678
0.0900119
0.0880334
0.0861285
0.0842932
0.082524
0.0808174
0.0791704
0.0775798
0.0760429
0.0745569
0.0731195
0.0717281
0.0703805
0.0690746
0.0678083
0.0665797
0.0653869
0.0642282
0.063102
0.0620066
0.0609404
0.0599022
0.0588904
0.0579038
0.0569412
0.0560014
0.0550834
0.0541864
0.0533096
0.0524523
0.0516142
0.0507953
0.0499958
0.0492165
0.0484589
0.0477253
0.0470193
0.0463458
0.0457121
0.0451281
0.0446078
0.0441703
0.0438412
0.0436552
0.961692
0.892185
0.829085
0.771728
0.719523
0.671944
0.628523
0.588843
0.552532
0.519258
0.488725
0.460668
0.43485
0.411061
0.38911
0.368828
0.350063
0.332676
0.316547
0.301563
0.287626
0.274646
0.262541
0.251239
0.240673
0.230783
0.221516
0.212821
0.204655
0.196976
0.189748
0.182937
0.176511
0.170444
0.164709
0.159283
0.154144
0.149272
0.14465
0.14026
0.136088
0.132119
0.12834
0.124739
0.121304
0.118027
0.114896
0.111904
0.109042
0.106302
0.103678
0.101162
0.0987491
0.096433
0.0942086
0.0920708
0.0900149
0.0880366
0.0861318
0.0842966
0.0825275
0.0808211
0.0791742
0.0775837
0.0760469
0.0745611
0.0731238
0.0717326
0.0703852
0.0690794
0.0678133
0.0665849
0.0653923
0.0642339
0.0631078
0.0620126
0.0609467
0.0599087
0.0588971
0.0579108
0.0569484
0.0560089
0.0550913
0.0541945
0.053318
0.052461
0.0516232
0.0508045
0.0500053
0.0492263
0.048469
0.0477357
0.0470298
0.0463565
0.0457229
0.0451391
0.0446188
0.0441813
0.0438522
0.0436661
0.961692
0.892185
0.829084
0.771728
0.719523
0.671944
0.628523
0.588843
0.552532
0.519258
0.488725
0.460668
0.43485
0.411061
0.38911
0.368828
0.350063
0.332677
0.316547
0.301564
0.287627
0.274646
0.262541
0.251239
0.240673
0.230784
0.221516
0.212822
0.204656
0.196977
0.189749
0.182938
0.176512
0.170445
0.16471
0.159284
0.154145
0.149274
0.144651
0.140262
0.13609
0.13212
0.128341
0.12474
0.121306
0.118029
0.114898
0.111906
0.109044
0.106304
0.10368
0.101164
0.0987516
0.0964357
0.0942113
0.0920736
0.0900178
0.0880397
0.086135
0.0842999
0.082531
0.0808247
0.0791779
0.0775876
0.0760509
0.0745653
0.0731281
0.071737
0.0703898
0.0690842
0.0678182
0.06659
0.0653976
0.0642394
0.0631135
0.0620185
0.0609528
0.059915
0.0589037
0.0579176
0.0569555
0.0560163
0.0550989
0.0542024
0.0533261
0.0524694
0.0516319
0.0508136
0.0500146
0.0492359
0.0484788
0.0477457
0.0470401
0.0463669
0.0457335
0.0451498
0.0446296
0.044192
0.043863
0.0436769
0.961692
0.892185
0.829084
0.771728
0.719523
0.671944
0.628523
0.588843
0.552532
0.519258
0.488725
0.460668
0.43485
0.411061
0.38911
0.368829
0.350063
0.332677
0.316547
0.301564
0.287627
0.274646
0.262542
0.251239
0.240673
0.230784
0.221517
0.212822
0.204656
0.196978
0.18975
0.182938
0.176513
0.170446
0.164711
0.159285
0.154146
0.149275
0.144653
0.140263
0.136091
0.132122
0.128343
0.124742
0.121308
0.11803
0.1149
0.111908
0.109046
0.106306
0.103682
0.101167
0.0987541
0.0964382
0.094214
0.0920764
0.0900207
0.0880426
0.0861381
0.0843031
0.0825343
0.0808281
0.0791815
0.0775913
0.0760548
0.0745693
0.0731322
0.0717413
0.0703942
0.0690888
0.067823
0.066595
0.0654028
0.0642447
0.0631191
0.0620243
0.0609588
0.0599212
0.0589101
0.0579243
0.0569624
0.0560234
0.0551063
0.0542101
0.0533341
0.0524777
0.0516405
0.0508224
0.0500237
0.0492452
0.0484884
0.0477555
0.0470501
0.0463771
0.0457438
0.0451602
0.0446401
0.0442025
0.0438735
0.0436873
0.961692
0.892185
0.829084
0.771728
0.719523
0.671944
0.628523
0.588843
0.552532
0.519258
0.488725
0.460668
0.43485
0.411061
0.389111
0.368829
0.350063
0.332677
0.316548
0.301564
0.287627
0.274647
0.262542
0.25124
0.240674
0.230784
0.221517
0.212823
0.204657
0.196978
0.18975
0.182939
0.176514
0.170447
0.164712
0.159286
0.154147
0.149276
0.144654
0.140264
0.136092
0.132123
0.128344
0.124743
0.12131
0.118032
0.114902
0.11191
0.109048
0.106309
0.103684
0.101169
0.0987564
0.0964407
0.0942166
0.0920791
0.0900235
0.0880455
0.0861411
0.0843063
0.0825375
0.0808315
0.0791849
0.0775949
0.0760585
0.0745731
0.0731363
0.0717455
0.0703985
0.0690933
0.0678277
0.0665998
0.0654078
0.0642499
0.0631244
0.0620298
0.0609646
0.0599272
0.0589163
0.0579307
0.0569691
0.0560304
0.0551135
0.0542176
0.0533418
0.0524857
0.0516487
0.0508309
0.0500325
0.0492543
0.0484977
0.0477651
0.0470598
0.046387
0.0457539
0.0451703
0.0446503
0.0442127
0.0438837
0.0436975
0.961692
0.892184
0.829084
0.771728
0.719523
0.671944
0.628523
0.588843
0.552532
0.519258
0.488725
0.460668
0.43485
0.411061
0.389111
0.368829
0.350063
0.332677
0.316548
0.301564
0.287627
0.274647
0.262542
0.25124
0.240674
0.230785
0.221518
0.212823
0.204657
0.196979
0.189751
0.18294
0.176515
0.170448
0.164713
0.159287
0.154148
0.149277
0.144655
0.140266
0.136094
0.132125
0.128346
0.124745
0.121311
0.118034
0.114904
0.111912
0.10905
0.106311
0.103687
0.101171
0.0987587
0.0964431
0.0942191
0.0920817
0.0900262
0.0880483
0.086144
0.0843093
0.0825407
0.0808347
0.0791883
0.0775984
0.0760621
0.0745769
0.0731401
0.0717495
0.0704027
0.0690976
0.0678321
0.0666044
0.0654126
0.0642549
0.0631296
0.0620352
0.0609701
0.059933
0.0589223
0.0579369
0.0569755
0.0560371
0.0551204
0.0542248
0.0533493
0.0524934
0.0516567
0.0508392
0.050041
0.0492631
0.0485067
0.0477743
0.0470692
0.0463966
0.0457636
0.0451801
0.0446601
0.0442226
0.0438935
0.0437073
0.961692
0.892184
0.829084
0.771728
0.719523
0.671944
0.628523
0.588843
0.552532
0.519258
0.488725
0.460668
0.43485
0.411061
0.389111
0.368829
0.350063
0.332677
0.316548
0.301565
0.287628
0.274647
0.262543
0.251241
0.240675
0.230785
0.221518
0.212824