/*--------------------------------*- C++ -*----------------------------------*\
  =========                 |
  \\      /  F ield         | OpenFOAM: The Open Source CFD Toolbox
   \\    /   O peration     | Website:  https://openfoam.org
    \\  /    A nd           | Version:  11
     \\/     M anipulation  |
\*---------------------------------------------------------------------------*/
FoamFile
{
    format      ascii;
    class       volScalarField;
    location    "616";
    object      k;
}
// * * * * * * * * * * * * * * * * * * * * * * * * * * * * * * * * * * * * * //

dimensions      [0 2 -2 0 0 0 0];

internalField   nonuniform List<scalar> 
10000
(
0.000939687
0.000835718
0.00074589
0.000668034
0.000600341
0.0005413
0.000489647
0.000444317
0.000404418
0.000369194
0.000338006
0.000310313
0.000285653
0.000263634
0.00024392
0.000226224
0.000210297
0.000195928
0.000182931
0.000171149
0.000160442
0.000150691
0.000141791
0.00013365
0.000126189
0.000119337
0.000113031
0.000107218
0.00010185
9.68821e-05
9.22782e-05
8.80041e-05
8.40298e-05
8.03284e-05
7.68759e-05
7.36509e-05
7.0634e-05
6.7808e-05
6.51571e-05
6.26673e-05
6.03258e-05
5.8121e-05
5.60426e-05
5.40809e-05
5.22274e-05
5.04741e-05
4.88139e-05
4.72402e-05
4.57469e-05
4.43287e-05
4.29804e-05
4.16974e-05
4.04755e-05
3.93108e-05
3.81995e-05
3.71385e-05
3.61246e-05
3.51549e-05
3.4227e-05
3.33383e-05
3.24866e-05
3.16699e-05
3.08861e-05
3.01335e-05
2.94106e-05
2.87156e-05
2.80473e-05
2.74042e-05
2.67853e-05
2.61893e-05
2.56152e-05
2.50622e-05
2.45292e-05
2.40155e-05
2.35204e-05
2.30431e-05
2.25831e-05
2.21399e-05
2.17129e-05
2.13017e-05
2.0906e-05
2.05253e-05
2.01594e-05
1.98082e-05
1.94713e-05
1.91487e-05
1.88402e-05
1.8546e-05
1.8266e-05
1.80004e-05
1.77495e-05
1.75136e-05
1.72934e-05
1.70898e-05
1.69039e-05
1.67376e-05
1.65933e-05
1.64745e-05
1.63859e-05
1.63347e-05
0.000939687
0.000835718
0.00074589
0.000668034
0.000600341
0.0005413
0.000489647
0.000444317
0.000404418
0.000369194
0.000338006
0.000310313
0.000285653
0.000263634
0.00024392
0.000226224
0.000210297
0.000195928
0.000182931
0.000171149
0.000160442
0.000150691
0.000141791
0.00013365
0.000126189
0.000119337
0.000113031
0.000107218
0.00010185
9.68823e-05
9.22784e-05
8.80043e-05
8.40299e-05
8.03285e-05
7.68761e-05
7.36511e-05
7.06342e-05
6.78082e-05
6.51573e-05
6.26675e-05
6.0326e-05
5.81212e-05
5.60428e-05
5.40811e-05
5.22276e-05
5.04743e-05
4.88141e-05
4.72404e-05
4.57472e-05
4.43289e-05
4.29806e-05
4.16977e-05
4.04758e-05
3.9311e-05
3.81997e-05
3.71387e-05
3.61248e-05
3.51552e-05
3.42273e-05
3.33386e-05
3.24869e-05
3.16701e-05
3.08864e-05
3.01338e-05
2.94109e-05
2.87159e-05
2.80476e-05
2.74046e-05
2.67856e-05
2.61896e-05
2.56156e-05
2.50625e-05
2.45295e-05
2.40158e-05
2.35207e-05
2.30435e-05
2.25835e-05
2.21403e-05
2.17133e-05
2.13021e-05
2.09063e-05
2.05257e-05
2.01598e-05
1.98085e-05
1.94716e-05
1.9149e-05
1.88406e-05
1.85464e-05
1.82663e-05
1.80007e-05
1.77498e-05
1.75139e-05
1.72937e-05
1.709e-05
1.69042e-05
1.67379e-05
1.65936e-05
1.64747e-05
1.63862e-05
1.63349e-05
0.000939687
0.000835718
0.00074589
0.000668034
0.000600341
0.0005413
0.000489647
0.000444317
0.000404418
0.000369194
0.000338006
0.000310313
0.000285653
0.000263634
0.000243921
0.000226224
0.000210298
0.000195928
0.000182932
0.000171149
0.000160442
0.000150691
0.000141791
0.000133651
0.000126189
0.000119337
0.000113032
0.000107219
0.00010185
9.68825e-05
9.22786e-05
8.80046e-05
8.40302e-05
8.03288e-05
7.68764e-05
7.36514e-05
7.06345e-05
6.78085e-05
6.51576e-05
6.26678e-05
6.03263e-05
5.81216e-05
5.60431e-05
5.40815e-05
5.2228e-05
5.04747e-05
4.88145e-05
4.72408e-05
4.57476e-05
4.43293e-05
4.29811e-05
4.16981e-05
4.04762e-05
3.93114e-05
3.82002e-05
3.71392e-05
3.61253e-05
3.51557e-05
3.42278e-05
3.33391e-05
3.24874e-05
3.16707e-05
3.08869e-05
3.01344e-05
2.94114e-05
2.87165e-05
2.80482e-05
2.74052e-05
2.67862e-05
2.61903e-05
2.56162e-05
2.50631e-05
2.45302e-05
2.40165e-05
2.35214e-05
2.30441e-05
2.25842e-05
2.2141e-05
2.1714e-05
2.13028e-05
2.0907e-05
2.05264e-05
2.01605e-05
1.98092e-05
1.94723e-05
1.91497e-05
1.88412e-05
1.8547e-05
1.8267e-05
1.80013e-05
1.77504e-05
1.75145e-05
1.72942e-05
1.70906e-05
1.69047e-05
1.67383e-05
1.6594e-05
1.64752e-05
1.63866e-05
1.63353e-05
0.000939687
0.000835718
0.000745891
0.000668034
0.000600341
0.0005413
0.000489647
0.000444318
0.000404418
0.000369194
0.000338006
0.000310313
0.000285653
0.000263635
0.000243921
0.000226224
0.000210298
0.000195928
0.000182932
0.000171149
0.000160443
0.000150692
0.000141792
0.000133651
0.00012619
0.000119337
0.000113032
0.000107219
0.00010185
9.68829e-05
9.2279e-05
8.80049e-05
8.40306e-05
8.03292e-05
7.68768e-05
7.36518e-05
7.0635e-05
6.78089e-05
6.51581e-05
6.26683e-05
6.03268e-05
5.81221e-05
5.60437e-05
5.4082e-05
5.22285e-05
5.04753e-05
4.88151e-05
4.72414e-05
4.57482e-05
4.433e-05
4.29817e-05
4.16988e-05
4.04769e-05
3.93121e-05
3.82009e-05
3.71399e-05
3.6126e-05
3.51564e-05
3.42285e-05
3.33399e-05
3.24882e-05
3.16715e-05
3.08877e-05
3.01352e-05
2.94123e-05
2.87174e-05
2.80491e-05
2.74061e-05
2.67871e-05
2.61912e-05
2.56171e-05
2.50641e-05
2.45311e-05
2.40175e-05
2.35223e-05
2.30451e-05
2.25852e-05
2.21419e-05
2.1715e-05
2.13038e-05
2.0908e-05
2.05273e-05
2.01615e-05
1.98102e-05
1.94733e-05
1.91506e-05
1.88422e-05
1.85479e-05
1.82679e-05
1.80022e-05
1.77512e-05
1.75153e-05
1.7295e-05
1.70913e-05
1.69054e-05
1.6739e-05
1.65947e-05
1.64758e-05
1.63872e-05
1.63359e-05
0.000939687
0.000835718
0.000745891
0.000668034
0.000600341
0.000541301
0.000489647
0.000444318
0.000404419
0.000369194
0.000338006
0.000310313
0.000285654
0.000263635
0.000243921
0.000226225
0.000210298
0.000195929
0.000182932
0.00017115
0.000160443
0.000150692
0.000141792
0.000133651
0.00012619
0.000119338
0.000113032
0.00010722
0.000101851
9.68834e-05
9.22795e-05
8.80055e-05
8.40312e-05
8.03298e-05
7.68774e-05
7.36524e-05
7.06356e-05
6.78095e-05
6.51587e-05
6.26689e-05
6.03275e-05
5.81228e-05
5.60443e-05
5.40827e-05
5.22292e-05
5.0476e-05
4.88158e-05
4.72421e-05
4.5749e-05
4.43308e-05
4.29825e-05
4.16996e-05
4.04777e-05
3.9313e-05
3.82018e-05
3.71408e-05
3.6127e-05
3.51574e-05
3.42295e-05
3.33409e-05
3.24892e-05
3.16725e-05
3.08888e-05
3.01363e-05
2.94134e-05
2.87185e-05
2.80502e-05
2.74072e-05
2.67883e-05
2.61924e-05
2.56184e-05
2.50653e-05
2.45324e-05
2.40187e-05
2.35236e-05
2.30464e-05
2.25865e-05
2.21432e-05
2.17163e-05
2.13051e-05
2.09093e-05
2.05286e-05
2.01628e-05
1.98115e-05
1.94745e-05
1.91519e-05
1.88434e-05
1.85491e-05
1.8269e-05
1.80033e-05
1.77523e-05
1.75163e-05
1.7296e-05
1.70923e-05
1.69063e-05
1.67399e-05
1.65955e-05
1.64766e-05
1.6388e-05
1.63367e-05
0.000939687
0.000835718
0.000745891
0.000668034
0.000600341
0.000541301
0.000489647
0.000444318
0.000404419
0.000369195
0.000338007
0.000310313
0.000285654
0.000263635
0.000243921
0.000226225
0.000210298
0.000195929
0.000182933
0.00017115
0.000160443
0.000150692
0.000141792
0.000133652
0.000126191
0.000119338
0.000113033
0.00010722
0.000101851
9.6884e-05
9.22801e-05
8.80061e-05
8.40318e-05
8.03305e-05
7.6878e-05
7.36531e-05
7.06363e-05
6.78103e-05
6.51595e-05
6.26697e-05
6.03283e-05
5.81236e-05
5.60452e-05
5.40836e-05
5.22301e-05
5.04769e-05
4.88168e-05
4.72431e-05
4.57499e-05
4.43318e-05
4.29836e-05
4.17007e-05
4.04788e-05
3.93141e-05
3.82029e-05
3.7142e-05
3.61281e-05
3.51586e-05
3.42307e-05
3.33421e-05
3.24905e-05
3.16738e-05
3.08901e-05
3.01377e-05
2.94148e-05
2.87199e-05
2.80516e-05
2.74087e-05
2.67898e-05
2.61939e-05
2.56199e-05
2.50668e-05
2.45339e-05
2.40203e-05
2.35252e-05
2.3048e-05
2.25881e-05
2.21448e-05
2.17179e-05
2.13067e-05
2.09109e-05
2.05302e-05
2.01643e-05
1.9813e-05
1.94761e-05
1.91534e-05
1.88449e-05
1.85506e-05
1.82704e-05
1.80047e-05
1.77536e-05
1.75176e-05
1.72973e-05
1.70935e-05
1.69074e-05
1.6741e-05
1.65965e-05
1.64776e-05
1.63889e-05
1.63376e-05
0.000939687
0.000835718
0.000745891
0.000668034
0.000600342
0.000541301
0.000489647
0.000444318
0.000404419
0.000369195
0.000338007
0.000310314
0.000285654
0.000263636
0.000243922
0.000226225
0.000210299
0.000195929
0.000182933
0.000171151
0.000160444
0.000150693
0.000141793
0.000133652
0.000126191
0.000119339
0.000113034
0.000107221
0.000101852
9.68847e-05
9.22809e-05
8.80068e-05
8.40326e-05
8.03312e-05
7.68789e-05
7.36539e-05
7.06371e-05
6.78112e-05
6.51604e-05
6.26706e-05
6.03292e-05
5.81246e-05
5.60462e-05
5.40846e-05
5.22312e-05
5.0478e-05
4.88178e-05
4.72442e-05
4.57511e-05
4.4333e-05
4.29848e-05
4.17019e-05
4.04801e-05
3.93154e-05
3.82042e-05
3.71433e-05
3.61295e-05
3.516e-05
3.42322e-05
3.33436e-05
3.2492e-05
3.16753e-05
3.08917e-05
3.01392e-05
2.94164e-05
2.87215e-05
2.80533e-05
2.74103e-05
2.67915e-05
2.61956e-05
2.56216e-05
2.50686e-05
2.45357e-05
2.40221e-05
2.3527e-05
2.30498e-05
2.25899e-05
2.21467e-05
2.17197e-05
2.13086e-05
2.09128e-05
2.05321e-05
2.01662e-05
1.98149e-05
1.94779e-05
1.91552e-05
1.88466e-05
1.85523e-05
1.82721e-05
1.80063e-05
1.77552e-05
1.75191e-05
1.72987e-05
1.70948e-05
1.69087e-05
1.67422e-05
1.65977e-05
1.64787e-05
1.639e-05
1.63386e-05
0.000939687
0.000835718
0.000745891
0.000668035
0.000600342
0.000541301
0.000489648
0.000444318
0.000404419
0.000369195
0.000338007
0.000310314
0.000285655
0.000263636
0.000243922
0.000226226
0.000210299
0.00019593
0.000182934
0.000171151
0.000160444
0.000150694
0.000141794
0.000133653
0.000126192
0.00011934
0.000113034
0.000107221
0.000101853
9.68855e-05
9.22817e-05
8.80077e-05
8.40334e-05
8.03321e-05
7.68798e-05
7.36549e-05
7.06381e-05
6.78122e-05
6.51614e-05
6.26717e-05
6.03303e-05
5.81257e-05
5.60473e-05
5.40858e-05
5.22324e-05
5.04792e-05
4.88191e-05
4.72455e-05
4.57524e-05
4.43343e-05
4.29861e-05
4.17033e-05
4.04815e-05
3.93169e-05
3.82057e-05
3.71448e-05
3.61311e-05
3.51616e-05
3.42338e-05
3.33452e-05
3.24937e-05
3.16771e-05
3.08934e-05
3.0141e-05
2.94182e-05
2.87234e-05
2.80552e-05
2.74123e-05
2.67934e-05
2.61976e-05
2.56236e-05
2.50707e-05
2.45378e-05
2.40242e-05
2.35291e-05
2.30519e-05
2.2592e-05
2.21488e-05
2.17219e-05
2.13107e-05
2.09149e-05
2.05342e-05
2.01683e-05
1.98169e-05
1.94799e-05
1.91572e-05
1.88486e-05
1.85542e-05
1.8274e-05
1.80082e-05
1.7757e-05
1.75208e-05
1.73003e-05
1.70964e-05
1.69102e-05
1.67436e-05
1.6599e-05
1.648e-05
1.63912e-05
1.63398e-05
0.000939687
0.000835718
0.000745891
0.000668035
0.000600342
0.000541301
0.000489648
0.000444319
0.000404419
0.000369195
0.000338008
0.000310314
0.000285655
0.000263636
0.000243923
0.000226226
0.0002103
0.00019593
0.000182934
0.000171152
0.000160445
0.000150694
0.000141794
0.000133654
0.000126193
0.00011934
0.000113035
0.000107222
0.000101854
9.68864e-05
9.22826e-05
8.80086e-05
8.40344e-05
8.03331e-05
7.68808e-05
7.36559e-05
7.06392e-05
6.78133e-05
6.51625e-05
6.26729e-05
6.03315e-05
5.81269e-05
5.60486e-05
5.40871e-05
5.22337e-05
5.04805e-05
4.88205e-05
4.72469e-05
4.57539e-05
4.43358e-05
4.29877e-05
4.17048e-05
4.04831e-05
3.93185e-05
3.82074e-05
3.71465e-05
3.61328e-05
3.51634e-05
3.42356e-05
3.33471e-05
3.24956e-05
3.1679e-05
3.08954e-05
3.0143e-05
2.94202e-05
2.87255e-05
2.80573e-05
2.74144e-05
2.67956e-05
2.61998e-05
2.56259e-05
2.50729e-05
2.45401e-05
2.40265e-05
2.35315e-05
2.30543e-05
2.25944e-05
2.21512e-05
2.17243e-05
2.13131e-05
2.09173e-05
2.05366e-05
2.01706e-05
1.98193e-05
1.94822e-05
1.91594e-05
1.88508e-05
1.85563e-05
1.82761e-05
1.80102e-05
1.77589e-05
1.75227e-05
1.73021e-05
1.70981e-05
1.69118e-05
1.67452e-05
1.66005e-05
1.64813e-05
1.63925e-05
1.63411e-05
0.000939687
0.000835718
0.000745891
0.000668035
0.000600342
0.000541301
0.000489648
0.000444319
0.00040442
0.000369196
0.000338008
0.000310315
0.000285655
0.000263637
0.000243923
0.000226227
0.0002103
0.000195931
0.000182935
0.000171152
0.000160446
0.000150695
0.000141795
0.000133655
0.000126193
0.000119341
0.000113036
0.000107223
0.000101855
9.68873e-05
9.22836e-05
8.80097e-05
8.40355e-05
8.03342e-05
7.68819e-05
7.36571e-05
7.06404e-05
6.78145e-05
6.51638e-05
6.26741e-05
6.03328e-05
5.81282e-05
5.605e-05
5.40885e-05
5.22351e-05
5.0482e-05
4.8822e-05
4.72485e-05
4.57555e-05
4.43374e-05
4.29893e-05
4.17066e-05
4.04848e-05
3.93203e-05
3.82092e-05
3.71484e-05
3.61347e-05
3.51653e-05
3.42376e-05
3.33491e-05
3.24977e-05
3.16811e-05
3.08976e-05
3.01452e-05
2.94225e-05
2.87277e-05
2.80596e-05
2.74168e-05
2.6798e-05
2.62022e-05
2.56283e-05
2.50754e-05
2.45426e-05
2.4029e-05
2.3534e-05
2.30569e-05
2.2597e-05
2.21538e-05
2.17269e-05
2.13157e-05
2.09199e-05
2.05392e-05
2.01732e-05
1.98218e-05
1.94847e-05
1.91619e-05
1.88532e-05
1.85587e-05
1.82784e-05
1.80124e-05
1.7761e-05
1.75247e-05
1.73041e-05
1.70999e-05
1.69136e-05
1.67468e-05
1.66021e-05
1.64829e-05
1.6394e-05
1.63425e-05
0.000939687
0.000835718
0.000745891
0.000668035
0.000600342
0.000541302
0.000489648
0.000444319
0.00040442
0.000369196
0.000338008
0.000310315
0.000285656
0.000263637
0.000243924
0.000226227
0.000210301
0.000195932
0.000182935
0.000171153
0.000160447
0.000150696
0.000141796
0.000133655
0.000126194
0.000119342
0.000113037
0.000107224
0.000101856
9.68884e-05
9.22847e-05
8.80108e-05
8.40366e-05
8.03354e-05
7.68831e-05
7.36583e-05
7.06416e-05
6.78158e-05
6.51651e-05
6.26755e-05
6.03342e-05
5.81297e-05
5.60515e-05
5.409e-05
5.22367e-05
5.04836e-05
4.88237e-05
4.72502e-05
4.57572e-05
4.43392e-05
4.29911e-05
4.17084e-05
4.04867e-05
3.93222e-05
3.82112e-05
3.71504e-05
3.61368e-05
3.51674e-05
3.42398e-05
3.33513e-05
3.24999e-05
3.16834e-05
3.08999e-05
3.01476e-05
2.94249e-05
2.87302e-05
2.80621e-05
2.74193e-05
2.68006e-05
2.62048e-05
2.5631e-05
2.50781e-05
2.45453e-05
2.40318e-05
2.35368e-05
2.30597e-05
2.25998e-05
2.21566e-05
2.17297e-05
2.13185e-05
2.09227e-05
2.05419e-05
2.0176e-05
1.98245e-05
1.94874e-05
1.91645e-05
1.88558e-05
1.85612e-05
1.82808e-05
1.80147e-05
1.77633e-05
1.75269e-05
1.73061e-05
1.71019e-05
1.69155e-05
1.67486e-05
1.66038e-05
1.64845e-05
1.63955e-05
1.6344e-05
0.000939687
0.000835719
0.000745891
0.000668035
0.000600342
0.000541302
0.000489648
0.000444319
0.00040442
0.000369196
0.000338009
0.000310316
0.000285656
0.000263638
0.000243924
0.000226228
0.000210302
0.000195932
0.000182936
0.000171154
0.000160447
0.000150696
0.000141797
0.000133656
0.000126195
0.000119343
0.000113038
0.000107225
0.000101857
9.68895e-05
9.22858e-05
8.80119e-05
8.40378e-05
8.03366e-05
7.68844e-05
7.36596e-05
7.0643e-05
6.78172e-05
6.51666e-05
6.2677e-05
6.03357e-05
5.81312e-05
5.6053e-05
5.40916e-05
5.22384e-05
5.04854e-05
4.88254e-05
4.7252e-05
4.5759e-05
4.43411e-05
4.29931e-05
4.17104e-05
4.04888e-05
3.93243e-05
3.82133e-05
3.71526e-05
3.6139e-05
3.51697e-05
3.42421e-05
3.33537e-05
3.25023e-05
3.16858e-05
3.09024e-05
3.01502e-05
2.94275e-05
2.87328e-05
2.80648e-05
2.7422e-05
2.68034e-05
2.62076e-05
2.56338e-05
2.5081e-05
2.45482e-05
2.40347e-05
2.35397e-05
2.30626e-05
2.26028e-05
2.21596e-05
2.17327e-05
2.13215e-05
2.09257e-05
2.05449e-05
2.01789e-05
1.98274e-05
1.94903e-05
1.91674e-05
1.88586e-05
1.85639e-05
1.82834e-05
1.80173e-05
1.77657e-05
1.75292e-05
1.73083e-05
1.7104e-05
1.69175e-05
1.67505e-05
1.66055e-05
1.64861e-05
1.63971e-05
1.63456e-05
0.000939687
0.000835719
0.000745891
0.000668035
0.000600342
0.000541302
0.000489649
0.00044432
0.000404421
0.000369197
0.000338009
0.000310316
0.000285657
0.000263638
0.000243925
0.000226229
0.000210302
0.000195933
0.000182937
0.000171155
0.000160448
0.000150697
0.000141798
0.000133657
0.000126196
0.000119344
0.000113039
0.000107226
0.000101858
9.68906e-05
9.2287e-05
8.80132e-05
8.40391e-05
8.03379e-05
7.68857e-05
7.3661e-05
7.06444e-05
6.78187e-05
6.51681e-05
6.26785e-05
6.03373e-05
5.81329e-05
5.60547e-05
5.40934e-05
5.22401e-05
5.04872e-05
4.88273e-05
4.72539e-05
4.5761e-05
4.43431e-05
4.29951e-05
4.17125e-05
4.04909e-05
3.93265e-05
3.82156e-05
3.71549e-05
3.61413e-05
3.51721e-05
3.42445e-05
3.33562e-05
3.25048e-05
3.16884e-05
3.0905e-05
3.01528e-05
2.94302e-05
2.87356e-05
2.80676e-05
2.74249e-05
2.68063e-05
2.62106e-05
2.56368e-05
2.5084e-05
2.45513e-05
2.40378e-05
2.35429e-05
2.30658e-05
2.26059e-05
2.21628e-05
2.17358e-05
2.13246e-05
2.09288e-05
2.0548e-05
2.0182e-05
1.98305e-05
1.94933e-05
1.91703e-05
1.88615e-05
1.85667e-05
1.82861e-05
1.80199e-05
1.77683e-05
1.75316e-05
1.73107e-05
1.71062e-05
1.69195e-05
1.67524e-05
1.66074e-05
1.64879e-05
1.63988e-05
1.63473e-05
0.000939687
0.000835719
0.000745891
0.000668035
0.000600342
0.000541302
0.000489649
0.00044432
0.000404421
0.000369197
0.00033801
0.000310317
0.000285657
0.000263639
0.000243925
0.000226229
0.000210303
0.000195934
0.000182938
0.000171155
0.000160449
0.000150698
0.000141798
0.000133658
0.000126197
0.000119345
0.00011304
0.000107227
0.000101859
9.68918e-05
9.22882e-05
8.80144e-05
8.40404e-05
8.03393e-05
7.68871e-05
7.36625e-05
7.06459e-05
6.78202e-05
6.51696e-05
6.26801e-05
6.0339e-05
5.81346e-05
5.60565e-05
5.40952e-05
5.2242e-05
5.04891e-05
4.88292e-05
4.72559e-05
4.5763e-05
4.43451e-05
4.29972e-05
4.17147e-05
4.04931e-05
3.93288e-05
3.82179e-05
3.71573e-05
3.61438e-05
3.51746e-05
3.4247e-05
3.33588e-05
3.25075e-05
3.16911e-05
3.09078e-05
3.01557e-05
2.94331e-05
2.87385e-05
2.80706e-05
2.74279e-05
2.68093e-05
2.62137e-05
2.564e-05
2.50872e-05
2.45545e-05
2.4041e-05
2.35461e-05
2.30691e-05
2.26092e-05
2.21661e-05
2.17391e-05
2.13279e-05
2.09321e-05
2.05513e-05
2.01852e-05
1.98337e-05
1.94964e-05
1.91734e-05
1.88645e-05
1.85697e-05
1.8289e-05
1.80227e-05
1.77709e-05
1.75342e-05
1.73131e-05
1.71085e-05
1.69217e-05
1.67545e-05
1.66093e-05
1.64898e-05
1.64006e-05
1.6349e-05
0.000939687
0.000835719
0.000745891
0.000668035
0.000600342
0.000541302
0.000489649
0.00044432
0.000404421
0.000369197
0.00033801
0.000310317
0.000285658
0.000263639
0.000243926
0.00022623
0.000210304
0.000195934
0.000182938
0.000171156
0.00016045
0.000150699
0.000141799
0.000133659
0.000126198
0.000119346
0.000113041
0.000107229
0.00010186
9.6893e-05
9.22895e-05
8.80158e-05
8.40418e-05
8.03407e-05
7.68886e-05
7.3664e-05
7.06475e-05
6.78218e-05
6.51713e-05
6.26818e-05
6.03407e-05
5.81363e-05
5.60583e-05
5.4097e-05
5.22439e-05
5.0491e-05
4.88312e-05
4.72579e-05
4.57651e-05
4.43473e-05
4.29995e-05
4.17169e-05
4.04955e-05
3.93311e-05
3.82203e-05
3.71598e-05
3.61463e-05
3.51772e-05
3.42497e-05
3.33615e-05
3.25103e-05
3.1694e-05
3.09107e-05
3.01586e-05
2.94361e-05
2.87415e-05
2.80736e-05
2.7431e-05
2.68125e-05
2.62169e-05
2.56432e-05
2.50905e-05
2.45578e-05
2.40444e-05
2.35495e-05
2.30725e-05
2.26127e-05
2.21695e-05
2.17426e-05
2.13314e-05
2.09355e-05
2.05547e-05
2.01886e-05
1.9837e-05
1.94997e-05
1.91766e-05
1.88676e-05
1.85727e-05
1.8292e-05
1.80255e-05
1.77737e-05
1.75368e-05
1.73156e-05
1.71109e-05
1.69239e-05
1.67566e-05
1.66113e-05
1.64916e-05
1.64024e-05
1.63508e-05
0.000939687
0.000835719
0.000745891
0.000668035
0.000600343
0.000541302
0.000489649
0.00044432
0.000404421
0.000369198
0.00033801
0.000310317
0.000285658
0.00026364
0.000243927
0.00022623
0.000210304
0.000195935
0.000182939
0.000171157
0.000160451
0.0001507
0.0001418
0.00013366
0.000126199
0.000119347
0.000113042
0.00010723
0.000101861
9.68943e-05
9.22908e-05
8.80171e-05
8.40432e-05
8.03422e-05
7.68901e-05
7.36655e-05
7.06491e-05
6.78234e-05
6.5173e-05
6.26836e-05
6.03425e-05
5.81382e-05
5.60602e-05
5.4099e-05
5.22459e-05
5.0493e-05
4.88333e-05
4.726e-05
4.57673e-05
4.43496e-05
4.30018e-05
4.17193e-05
4.04979e-05
3.93336e-05
3.82229e-05
3.71623e-05
3.61489e-05
3.51798e-05
3.42524e-05
3.33643e-05
3.25131e-05
3.16969e-05
3.09136e-05
3.01616e-05
2.94391e-05
2.87447e-05
2.80768e-05
2.74343e-05
2.68158e-05
2.62202e-05
2.56466e-05
2.50939e-05
2.45613e-05
2.40479e-05
2.3553e-05
2.3076e-05
2.26162e-05
2.21731e-05
2.17461e-05
2.13349e-05
2.09391e-05
2.05582e-05
2.01921e-05
1.98404e-05
1.95031e-05
1.91799e-05
1.88708e-05
1.85758e-05
1.8295e-05
1.80284e-05
1.77765e-05
1.75395e-05
1.73181e-05
1.71133e-05
1.69262e-05
1.67587e-05
1.66134e-05
1.64936e-05
1.64043e-05
1.63526e-05
0.000939687
0.000835719
0.000745891
0.000668035
0.000600343
0.000541302
0.000489649
0.000444321
0.000404422
0.000369198
0.000338011
0.000310318
0.000285659
0.00026364
0.000243927
0.000226231
0.000210305
0.000195936
0.00018294
0.000171158
0.000160451
0.000150701
0.000141801
0.000133661
0.0001262
0.000119348
0.000113043
0.000107231
0.000101863
9.68956e-05
9.22922e-05
8.80185e-05
8.40446e-05
8.03437e-05
7.68916e-05
7.36671e-05
7.06507e-05
6.78251e-05
6.51747e-05
6.26853e-05
6.03443e-05
5.81401e-05
5.60621e-05
5.41009e-05
5.22479e-05
5.04951e-05
4.88354e-05
4.72622e-05
4.57695e-05
4.43518e-05
4.30041e-05
4.17217e-05
4.05003e-05
3.93361e-05
3.82254e-05
3.7165e-05
3.61516e-05
3.51826e-05
3.42552e-05
3.33671e-05
3.2516e-05
3.16999e-05
3.09167e-05
3.01647e-05
2.94423e-05
2.87479e-05
2.80801e-05
2.74376e-05
2.68191e-05
2.62236e-05
2.565e-05
2.50974e-05
2.45648e-05
2.40514e-05
2.35566e-05
2.30796e-05
2.26198e-05
2.21767e-05
2.17498e-05
2.13386e-05
2.09427e-05
2.05618e-05
2.01956e-05
1.98439e-05
1.95065e-05
1.91833e-05
1.88741e-05
1.85791e-05
1.82981e-05
1.80314e-05
1.77793e-05
1.75422e-05
1.73207e-05
1.71158e-05
1.69286e-05
1.67609e-05
1.66154e-05
1.64955e-05
1.64061e-05
1.63544e-05
0.000939687
0.000835719
0.000745891
0.000668035
0.000600343
0.000541303
0.000489649
0.000444321
0.000404422
0.000369198
0.000338011
0.000310318
0.000285659
0.000263641
0.000243928
0.000226232
0.000210306
0.000195937
0.000182941
0.000171159
0.000160452
0.000150702
0.000141802
0.000133662
0.000126201
0.00011935
0.000113045
0.000107232
0.000101864
9.68969e-05
9.22935e-05
8.80199e-05
8.40461e-05
8.03452e-05
7.68932e-05
7.36687e-05
7.06523e-05
6.78268e-05
6.51764e-05
6.26871e-05
6.03462e-05
5.8142e-05
5.60641e-05
5.41029e-05
5.225e-05
5.04973e-05
4.88376e-05
4.72645e-05
4.57718e-05
4.43542e-05
4.30065e-05
4.17241e-05
4.05028e-05
3.93387e-05
3.82281e-05
3.71677e-05
3.61544e-05
3.51854e-05
3.42581e-05
3.33701e-05
3.2519e-05
3.17029e-05
3.09198e-05
3.01679e-05
2.94455e-05
2.87512e-05
2.80834e-05
2.7441e-05
2.68226e-05
2.62271e-05
2.56536e-05
2.5101e-05
2.45684e-05
2.40551e-05
2.35603e-05
2.30833e-05
2.26235e-05
2.21804e-05
2.17535e-05
2.13423e-05
2.09464e-05
2.05655e-05
2.01993e-05
1.98475e-05
1.95101e-05
1.91868e-05
1.88775e-05
1.85823e-05
1.83013e-05
1.80345e-05
1.77823e-05
1.7545e-05
1.73234e-05
1.71183e-05
1.69309e-05
1.67632e-05
1.66175e-05
1.64975e-05
1.6408e-05
1.63563e-05
0.000939687
0.000835719
0.000745891
0.000668036
0.000600343
0.000541303
0.00048965
0.000444321
0.000404422
0.000369199
0.000338011
0.000310319
0.00028566
0.000263641
0.000243928
0.000226232
0.000210306
0.000195937
0.000182941
0.000171159
0.000160453
0.000150703
0.000141803
0.000133663
0.000126202
0.000119351
0.000113046
0.000107233
0.000101865
9.68983e-05
9.22949e-05
8.80214e-05
8.40476e-05
8.03467e-05
7.68948e-05
7.36703e-05
7.0654e-05
6.78285e-05
6.51782e-05
6.2689e-05
6.03481e-05
5.81439e-05
5.60661e-05
5.4105e-05
5.22521e-05
5.04994e-05
4.88398e-05
4.72667e-05
4.57742e-05
4.43566e-05
4.30089e-05
4.17266e-05
4.05054e-05
3.93413e-05
3.82307e-05
3.71704e-05
3.61572e-05
3.51883e-05
3.4261e-05
3.33731e-05
3.25221e-05
3.1706e-05
3.0923e-05
3.01711e-05
2.94488e-05
2.87545e-05
2.80868e-05
2.74444e-05
2.68261e-05
2.62307e-05
2.56572e-05
2.51046e-05
2.45721e-05
2.40588e-05
2.3564e-05
2.30871e-05
2.26273e-05
2.21842e-05
2.17573e-05
2.1346e-05
2.09501e-05
2.05692e-05
2.02029e-05
1.98511e-05
1.95136e-05
1.91902e-05
1.88809e-05
1.85856e-05
1.83045e-05
1.80376e-05
1.77852e-05
1.75479e-05
1.73261e-05
1.71208e-05
1.69333e-05
1.67654e-05
1.66196e-05
1.64995e-05
1.64099e-05
1.63581e-05
0.000939687
0.000835719
0.000745891
0.000668036
0.000600343
0.000541303
0.00048965
0.000444321
0.000404423
0.000369199
0.000338012
0.000310319
0.00028566
0.000263642
0.000243929
0.000226233
0.000210307
0.000195938
0.000182942
0.00017116
0.000160454
0.000150704
0.000141804
0.000133664
0.000126204
0.000119352
0.000113047
0.000107235
0.000101866
9.68996e-05
9.22963e-05
8.80228e-05
8.4049e-05
8.03482e-05
7.68964e-05
7.3672e-05
7.06557e-05
6.78303e-05
6.518e-05
6.26908e-05
6.035e-05
5.81459e-05
5.60681e-05
5.41071e-05
5.22542e-05
5.05016e-05
4.88421e-05
4.7269e-05
4.57765e-05
4.4359e-05
4.30114e-05
4.17292e-05
4.0508e-05
3.9344e-05
3.82335e-05
3.71732e-05
3.616e-05
3.51912e-05
3.4264e-05
3.33761e-05
3.25252e-05
3.17092e-05
3.09262e-05
3.01744e-05
2.94521e-05
2.87579e-05
2.80903e-05
2.74479e-05
2.68296e-05
2.62343e-05
2.56608e-05
2.51083e-05
2.45758e-05
2.40625e-05
2.35678e-05
2.30908e-05
2.26311e-05
2.2188e-05
2.17611e-05
2.13498e-05
2.09539e-05
2.05729e-05
2.02066e-05
1.98548e-05
1.95172e-05
1.91938e-05
1.88844e-05
1.8589e-05
1.83077e-05
1.80407e-05
1.77882e-05
1.75507e-05
1.73288e-05
1.71233e-05
1.69357e-05
1.67677e-05
1.66217e-05
1.65015e-05
1.64119e-05
1.636e-05
0.000939687
0.000835719
0.000745891
0.000668036
0.000600343
0.000541303
0.00048965
0.000444321
0.000404423
0.000369199
0.000338012
0.000310319
0.000285661
0.000263642
0.000243929
0.000226234
0.000210308
0.000195939
0.000182943
0.000171161
0.000160455
0.000150705
0.000141805
0.000133665
0.000126205
0.000119353
0.000113048
0.000107236
0.000101868
9.69009e-05
9.22977e-05
8.80242e-05
8.40505e-05
8.03498e-05
7.6898e-05
7.36736e-05
7.06574e-05
6.7832e-05
6.51818e-05
6.26927e-05
6.03519e-05
5.81478e-05
5.60701e-05
5.41091e-05
5.22563e-05
5.05038e-05
4.88443e-05
4.72713e-05
4.57789e-05
4.43614e-05
4.30139e-05
4.17317e-05
4.05106e-05
3.93466e-05
3.82362e-05
3.7176e-05
3.61629e-05
3.51941e-05
3.4267e-05
3.33791e-05
3.25283e-05
3.17123e-05
3.09294e-05
3.01776e-05
2.94555e-05
2.87613e-05
2.80937e-05
2.74514e-05
2.68332e-05
2.62379e-05
2.56645e-05
2.5112e-05
2.45795e-05
2.40663e-05
2.35716e-05
2.30947e-05
2.26349e-05
2.21918e-05
2.17649e-05
2.13536e-05
2.09577e-05
2.05767e-05
2.02104e-05
1.98585e-05
1.95209e-05
1.91973e-05
1.88878e-05
1.85924e-05
1.8311e-05
1.80438e-05
1.77912e-05
1.75536e-05
1.73315e-05
1.71259e-05
1.69381e-05
1.67699e-05
1.66239e-05
1.65035e-05
1.64138e-05
1.63618e-05
0.000939687
0.000835719
0.000745891
0.000668036
0.000600343
0.000541303
0.00048965
0.000444322
0.000404423
0.0003692
0.000338012
0.00031032
0.000285661
0.000263643
0.00024393
0.000226234
0.000210308
0.000195939
0.000182944
0.000171162
0.000160456
0.000150706
0.000141806
0.000133666
0.000126206
0.000119354
0.000113049
0.000107237
0.000101869
9.69023e-05
9.22991e-05
8.80257e-05
8.4052e-05
8.03513e-05
7.68995e-05
7.36752e-05
7.06591e-05
6.78338e-05
6.51836e-05
6.26945e-05
6.03538e-05
5.81498e-05
5.60721e-05
5.41112e-05
5.22585e-05
5.0506e-05
4.88466e-05
4.72736e-05
4.57812e-05
4.43638e-05
4.30164e-05
4.17343e-05
4.05132e-05
3.93493e-05
3.82389e-05
3.71788e-05
3.61657e-05
3.5197e-05
3.427e-05
3.33822e-05
3.25314e-05
3.17155e-05
3.09326e-05
3.01809e-05
2.94588e-05
2.87647e-05
2.80972e-05
2.74549e-05
2.68368e-05
2.62415e-05
2.56681e-05
2.51157e-05
2.45833e-05
2.40701e-05
2.35754e-05
2.30985e-05
2.26388e-05
2.21957e-05
2.17687e-05
2.13575e-05
2.09615e-05
2.05805e-05
2.02141e-05
1.98622e-05
1.95245e-05
1.92009e-05
1.88913e-05
1.85957e-05
1.83142e-05
1.8047e-05
1.77942e-05
1.75564e-05
1.73342e-05
1.71284e-05
1.69405e-05
1.67722e-05
1.6626e-05
1.65055e-05
1.64157e-05
1.63637e-05
0.000939687
0.000835719
0.000745892
0.000668036
0.000600343
0.000541303
0.00048965
0.000444322
0.000404423
0.0003692
0.000338013
0.00031032
0.000285661
0.000263643
0.00024393
0.000226235
0.000210309
0.00019594
0.000182944
0.000171163
0.000160457
0.000150706
0.000141807
0.000133667
0.000126207
0.000119355
0.000113051
0.000107238
0.00010187
9.69036e-05
9.23004e-05
8.80271e-05
8.40535e-05
8.03528e-05
7.69011e-05
7.36769e-05
7.06608e-05
6.78355e-05
6.51854e-05
6.26964e-05
6.03557e-05
5.81518e-05
5.60741e-05
5.41133e-05
5.22606e-05
5.05082e-05
4.88488e-05
4.72759e-05
4.57836e-05
4.43663e-05
4.30189e-05
4.17368e-05
4.05158e-05
3.9352e-05
3.82416e-05
3.71815e-05
3.61686e-05
3.51999e-05
3.42729e-05
3.33852e-05
3.25345e-05
3.17186e-05
3.09358e-05
3.01842e-05
2.94622e-05
2.87681e-05
2.81006e-05
2.74585e-05
2.68403e-05
2.62451e-05
2.56718e-05
2.51194e-05
2.4587e-05
2.40738e-05
2.35792e-05
2.31023e-05
2.26426e-05
2.21995e-05
2.17726e-05
2.13613e-05
2.09653e-05
2.05843e-05
2.02179e-05
1.98659e-05
1.95281e-05
1.92044e-05
1.88947e-05
1.85991e-05
1.83175e-05
1.80501e-05
1.77972e-05
1.75592e-05
1.73369e-05
1.7131e-05
1.69429e-05
1.67744e-05
1.66281e-05
1.65075e-05
1.64175e-05
1.63655e-05
0.000939687
0.000835719
0.000745892
0.000668036
0.000600343
0.000541303
0.00048965
0.000444322
0.000404424
0.0003692
0.000338013
0.000310321
0.000285662
0.000263644
0.000243931
0.000226235
0.00021031
0.000195941
0.000182945
0.000171163
0.000160458
0.000150707
0.000141808
0.000133668
0.000126208
0.000119356
0.000113052
0.000107239
0.000101871
9.69049e-05
9.23018e-05
8.80285e-05
8.4055e-05
8.03543e-05
7.69027e-05
7.36785e-05
7.06625e-05
6.78372e-05
6.51872e-05
6.26982e-05
6.03576e-05
5.81537e-05
5.60761e-05
5.41153e-05
5.22627e-05
5.05103e-05
4.8851e-05
4.72782e-05
4.5786e-05
4.43687e-05
4.30213e-05
4.17393e-05
4.05184e-05
3.93546e-05
3.82444e-05
3.71843e-05
3.61714e-05
3.52028e-05
3.42759e-05
3.33882e-05
3.25376e-05
3.17218e-05
3.0939e-05
3.01875e-05
2.94655e-05
2.87715e-05
2.81041e-05
2.7462e-05
2.68439e-05
2.62487e-05
2.56754e-05
2.51231e-05
2.45907e-05
2.40776e-05
2.3583e-05
2.31061e-05
2.26464e-05
2.22034e-05
2.17764e-05
2.13651e-05
2.09691e-05
2.0588e-05
2.02216e-05
1.98695e-05
1.95317e-05
1.92079e-05
1.88982e-05
1.86024e-05
1.83207e-05
1.80532e-05
1.78001e-05
1.75621e-05
1.73395e-05
1.71335e-05
1.69452e-05
1.67766e-05
1.66301e-05
1.65094e-05
1.64194e-05
1.63673e-05
0.000939687
0.000835719
0.000745892
0.000668036
0.000600343
0.000541304
0.000489651
0.000444322
0.000404424
0.0003692
0.000338013
0.000310321
0.000285662
0.000263644
0.000243931
0.000226236
0.00021031
0.000195941
0.000182946
0.000171164
0.000160458
0.000150708
0.000141809
0.000133669
0.000126209
0.000119357
0.000113053
0.000107241
0.000101873
9.69062e-05
9.23031e-05
8.80299e-05
8.40564e-05
8.03558e-05
7.69042e-05
7.36801e-05
7.06641e-05
6.7839e-05
6.5189e-05
6.27e-05
6.03595e-05
5.81556e-05
5.60781e-05
5.41174e-05
5.22648e-05
5.05125e-05
4.88532e-05
4.72805e-05
4.57883e-05
4.43711e-05
4.30238e-05
4.17418e-05
4.0521e-05
3.93572e-05
3.8247e-05
3.71871e-05
3.61742e-05
3.52057e-05
3.42788e-05
3.33912e-05
3.25406e-05
3.17249e-05
3.09422e-05
3.01907e-05
2.94688e-05
2.87748e-05