/*--------------------------------*- C++ -*----------------------------------*\
  =========                 |
  \\      /  F ield         | OpenFOAM: The Open Source CFD Toolbox
   \\    /   O peration     | Website:  https://openfoam.org
    \\  /    A nd           | Version:  11
     \\/     M anipulation  |
\*---------------------------------------------------------------------------*/
FoamFile
{
    format      ascii;
    class       surfaceScalarField;
    location    "1534";
    object      phi;
}
// * * * * * * * * * * * * * * * * * * * * * * * * * * * * * * * * * * * * * //

dimensions      [0 3 -1 0 0 0 0];

internalField   nonuniform List<scalar> 
19800
(
2e-05
-5.3377e-15
2e-05
-1.56152e-14
2e-05
-2.57971e-14
2e-05
-3.60842e-14
2e-05
-4.66466e-14
2e-05
-5.76068e-14
2e-05
-6.90607e-14
2e-05
-8.10887e-14
2e-05
-9.37617e-14
2e-05
-1.07145e-13
2e-05
-1.21301e-13
2e-05
-1.36288e-13
2e-05
-1.52168e-13
2e-05
-1.68998e-13
2e-05
-1.86838e-13
2e-05
-2.05749e-13
2e-05
-2.25791e-13
2e-05
-2.47026e-13
2e-05
-2.69518e-13
2e-05
-2.93332e-13
2e-05
-3.18534e-13
2e-05
-3.45192e-13
2e-05
-3.73376e-13
2e-05
-4.03156e-13
2e-05
-4.34605e-13
2e-05
-4.67797e-13
2e-05
-5.0281e-13
2e-05
-5.3972e-13
2e-05
-5.78606e-13
2e-05
-6.1955e-13
2e-05
-6.62633e-13
2e-05
-7.0794e-13
2e-05
-7.55554e-13
2e-05
-8.05563e-13
2e-05
-8.58054e-13
2e-05
-9.13114e-13
2e-05
-9.70834e-13
2e-05
-1.0313e-12
2e-05
-1.09461e-12
2e-05
-1.16084e-12
2e-05
-1.2301e-12
2e-05
-1.30246e-12
2e-05
-1.37803e-12
2e-05
-1.45688e-12
2e-05
-1.53911e-12
2e-05
-1.62481e-12
2e-05
-1.71406e-12
2e-05
-1.80693e-12
2e-05
-1.90352e-12
2e-05
-2.0039e-12
2e-05
-2.10815e-12
2e-05
-2.21633e-12
2e-05
-2.32852e-12
2e-05
-2.44476e-12
2e-05
-2.56513e-12
2e-05
-2.68966e-12
2e-05
-2.8184e-12
2e-05
-2.95138e-12
2e-05
-3.08864e-12
2e-05
-3.23018e-12
2e-05
-3.37601e-12
2e-05
-3.52612e-12
2e-05
-3.68051e-12
2e-05
-3.83913e-12
2e-05
-4.00194e-12
2e-05
-4.16887e-12
2e-05
-4.33985e-12
2e-05
-4.51478e-12
2e-05
-4.69352e-12
2e-05
-4.87594e-12
2e-05
-5.06186e-12
2e-05
-5.25109e-12
2e-05
-5.4434e-12
2e-05
-5.63852e-12
2e-05
-5.83616e-12
2e-05
-6.03598e-12
2e-05
-6.2376e-12
2e-05
-6.44058e-12
2e-05
-6.64446e-12
2e-05
-6.84869e-12
2e-05
-7.05267e-12
2e-05
-7.25575e-12
2e-05
-7.45717e-12
2e-05
-7.65611e-12
2e-05
-7.85166e-12
2e-05
-8.04282e-12
2e-05
-8.22845e-12
2e-05
-8.40734e-12
2e-05
-8.57812e-12
2e-05
-8.73934e-12
2e-05
-8.88937e-12
2e-05
-9.02653e-12
2e-05
-9.14907e-12
2e-05
-9.25529e-12
2e-05
-9.34271e-12
2e-05
-9.40866e-12
2e-05
-9.45147e-12
2e-05
-9.47383e-12
2e-05
-9.4805e-12
-9.48264e-12
2e-05
-4.72011e-15
2e-05
-1.43414e-14
2e-05
-2.40948e-14
2e-05
-3.40115e-14
2e-05
-4.42135e-14
2e-05
-5.48065e-14
2e-05
-6.58778e-14
2e-05
-7.75027e-14
2e-05
-8.97488e-14
2e-05
-1.02679e-13
2e-05
-1.16352e-13
2e-05
-1.30826e-13
2e-05
-1.46159e-13
2e-05
-1.62408e-13
2e-05
-1.79629e-13
2e-05
-1.97881e-13
2e-05
-2.17223e-13
2e-05
-2.37714e-13
2e-05
-2.59416e-13
2e-05
-2.82392e-13
2e-05
-3.06704e-13
2e-05
-3.32419e-13
2e-05
-3.59604e-13
2e-05
-3.88327e-13
2e-05
-4.18657e-13
2e-05
-4.50668e-13
2e-05
-4.84431e-13
2e-05
-5.20022e-13
2e-05
-5.57516e-13
2e-05
-5.96992e-13
2e-05
-6.38529e-13
2e-05
-6.82208e-13
2e-05
-7.28109e-13
2e-05
-7.76316e-13
2e-05
-8.26912e-13
2e-05
-8.79984e-13
2e-05
-9.35616e-13
2e-05
-9.93894e-13
2e-05
-1.05491e-12
2e-05
-1.11874e-12
2e-05
-1.18548e-12
2e-05
-1.25521e-12
2e-05
-1.32803e-12
2e-05
-1.40401e-12
2e-05
-1.48324e-12
2e-05
-1.56581e-12
2e-05
-1.6518e-12
2e-05
-1.74128e-12
2e-05
-1.83435e-12
2e-05
-1.93106e-12
2e-05
-2.03149e-12
2e-05
-2.13572e-12
2e-05
-2.2438e-12
2e-05
-2.3558e-12
2e-05
-2.47177e-12
2e-05
-2.59176e-12
2e-05
-2.7158e-12
2e-05
-2.84395e-12
2e-05
-2.97622e-12
2e-05
-3.11262e-12
2e-05
-3.25318e-12
2e-05
-3.39789e-12
2e-05
-3.54673e-12
2e-05
-3.69968e-12
2e-05
-3.8567e-12
2e-05
-4.01773e-12
2e-05
-4.18271e-12
2e-05
-4.35154e-12
2e-05
-4.52413e-12
2e-05
-4.70033e-12
2e-05
-4.87999e-12
2e-05
-5.06295e-12
2e-05
-5.249e-12
2e-05
-5.4379e-12
2e-05
-5.62939e-12
2e-05
-5.82318e-12
2e-05
-6.01891e-12
2e-05
-6.21621e-12
2e-05
-6.41466e-12
2e-05
-6.61378e-12
2e-05
-6.81303e-12
2e-05
-7.01184e-12
2e-05
-7.20955e-12
2e-05
-7.40542e-12
2e-05
-7.59866e-12
2e-05
-7.78837e-12
2e-05
-7.97358e-12
2e-05
-8.15321e-12
2e-05
-8.32607e-12
2e-05
-8.49087e-12
2e-05
-8.6462e-12
2e-05
-8.79058e-12
2e-05
-8.92237e-12
2e-05
-9.03979e-12
2e-05
-9.14057e-12
2e-05
-9.22291e-12
2e-05
-9.28684e-12
2e-05
-9.3336e-12
2e-05
-9.36629e-12
-9.39286e-12
2e-05
-4.25682e-15
2e-05
-1.32114e-14
2e-05
-2.24728e-14
2e-05
-3.19816e-14
2e-05
-4.18043e-14
2e-05
-5.20215e-14
2e-05
-6.2707e-14
2e-05
-7.39288e-14
2e-05
-8.57494e-14
2e-05
-9.82282e-14
2e-05
-1.11422e-13
2e-05
-1.25387e-13
2e-05
-1.40177e-13
2e-05
-1.55847e-13
2e-05
-1.72454e-13
2e-05
-1.90052e-13
2e-05
-2.08698e-13
2e-05
-2.2845e-13
2e-05
-2.49367e-13
2e-05
-2.7151e-13
2e-05
-2.94938e-13
2e-05
-3.19717e-13
2e-05
-3.45909e-13
2e-05
-3.73581e-13
2e-05
-4.028e-13
2e-05
-4.33635e-13
2e-05
-4.66156e-13
2e-05
-5.00436e-13
2e-05
-5.36547e-13
2e-05
-5.74565e-13
2e-05
-6.14565e-13
2e-05
-6.56624e-13
2e-05
-7.00822e-13
2e-05
-7.47238e-13
2e-05
-7.95952e-13
2e-05
-8.47047e-13
2e-05
-9.00603e-13
2e-05
-9.56705e-13
2e-05
-1.01544e-12
2e-05
-1.07688e-12
2e-05
-1.14112e-12
2e-05
-1.20824e-12
2e-05
-1.27832e-12
2e-05
-1.35145e-12
2e-05
-1.4277e-12
2e-05
-1.50716e-12
2e-05
-1.58991e-12
2e-05
-1.67602e-12
2e-05
-1.76558e-12
2e-05
-1.85864e-12
2e-05
-1.95529e-12
2e-05
-2.05559e-12
2e-05
-2.15959e-12
2e-05
-2.26737e-12
2e-05
-2.37897e-12
2e-05
-2.49444e-12
2e-05
-2.61382e-12
2e-05
-2.73715e-12
2e-05
-2.86446e-12
2e-05
-2.99577e-12
2e-05
-3.13109e-12
2e-05
-3.27041e-12
2e-05
-3.41374e-12
2e-05
-3.56106e-12
2e-05
-3.71232e-12
2e-05
-3.86748e-12
2e-05
-4.0265e-12
2e-05
-4.18928e-12
2e-05
-4.35573e-12
2e-05
-4.52574e-12
2e-05
-4.69919e-12
2e-05
-4.87591e-12
2e-05
-5.05573e-12
2e-05
-5.23844e-12
2e-05
-5.42381e-12
2e-05
-5.61157e-12
2e-05
-5.80144e-12
2e-05
-5.99307e-12
2e-05
-6.18609e-12
2e-05
-6.3801e-12
2e-05
-6.57461e-12
2e-05
-6.76913e-12
2e-05
-6.96308e-12
2e-05
-7.15583e-12
2e-05
-7.34667e-12
2e-05
-7.53484e-12
2e-05
-7.71948e-12
2e-05
-7.89966e-12
2e-05
-8.07433e-12
2e-05
-8.24237e-12
2e-05
-8.40255e-12
2e-05
-8.55351e-12
2e-05
-8.69377e-12
2e-05
-8.82168e-12
2e-05
-8.93542e-12
2e-05
-9.03361e-12
2e-05
-9.11581e-12
2e-05
-9.18186e-12
2e-05
-9.23205e-12
-9.27014e-12
2e-05
-3.886e-15
2e-05
-1.22155e-14
2e-05
-2.09629e-14
2e-05
-3.00322e-14
2e-05
-3.94521e-14
2e-05
-4.92783e-14
2e-05
-5.95695e-14
2e-05
-7.0384e-14
2e-05
-8.17782e-14
2e-05
-9.3807e-14
2e-05
-1.06524e-13
2e-05
-1.19982e-13
2e-05
-1.34233e-13
2e-05
-1.49331e-13
2e-05
-1.65327e-13
2e-05
-1.82277e-13
2e-05
-2.00233e-13
2e-05
-2.19253e-13
2e-05
-2.39392e-13
2e-05
-2.60708e-13
2e-05
-2.8326e-13
2e-05
-3.0711e-13
2e-05
-3.32318e-13
2e-05
-3.58948e-13
2e-05
-3.87065e-13
2e-05
-4.16735e-13
2e-05
-4.48025e-13
2e-05
-4.81004e-13
2e-05
-5.15744e-13
2e-05
-5.52315e-13
2e-05
-5.90791e-13
2e-05
-6.31246e-13
2e-05
-6.73755e-13
2e-05
-7.18395e-13
2e-05
-7.65243e-13
2e-05
-8.14377e-13
2e-05
-8.65876e-13
2e-05
-9.19821e-13
2e-05
-9.7629e-13
2e-05
-1.03536e-12
2e-05
-1.09712e-12
2e-05
-1.16165e-12
2e-05
-1.22902e-12
2e-05
-1.29932e-12
2e-05
-1.37262e-12
2e-05
-1.449e-12
2e-05
-1.52854e-12
2e-05
-1.61131e-12
2e-05
-1.69738e-12
2e-05
-1.78683e-12
2e-05
-1.87972e-12
2e-05
-1.97612e-12
2e-05
-2.07609e-12
2e-05
-2.17968e-12
2e-05
-2.28695e-12
2e-05
-2.39794e-12
2e-05
-2.5127e-12
2e-05
-2.63126e-12
2e-05
-2.75366e-12
2e-05
-2.87991e-12
2e-05
-3.01003e-12
2e-05
-3.14402e-12
2e-05
-3.28189e-12
2e-05
-3.42361e-12
2e-05
-3.56916e-12
2e-05
-3.71851e-12
2e-05
-3.87161e-12
2e-05
-4.02838e-12
2e-05
-4.18876e-12
2e-05
-4.35264e-12
2e-05
-4.51991e-12
2e-05
-4.69044e-12
2e-05
-4.86407e-12
2e-05
-5.04063e-12
2e-05
-5.21991e-12
2e-05
-5.4017e-12
2e-05
-5.58572e-12
2e-05
-5.7717e-12
2e-05
-5.95932e-12
2e-05
-6.14821e-12
2e-05
-6.33797e-12
2e-05
-6.52817e-12
2e-05
-6.71832e-12
2e-05
-6.90786e-12
2e-05
-7.0962e-12
2e-05
-7.28268e-12
2e-05
-7.46656e-12
2e-05
-7.64702e-12
2e-05
-7.82318e-12
2e-05
-7.99404e-12
2e-05
-8.1585e-12
2e-05
-8.31537e-12
2e-05
-8.46328e-12
2e-05
-8.60074e-12
2e-05
-8.72616e-12
2e-05
-8.8381e-12
2e-05
-8.93537e-12
2e-05
-9.0163e-12
2e-05
-9.0786e-12
-9.11885e-12
2e-05
-3.57477e-15
2e-05
-1.13296e-14
2e-05
-1.95669e-14
2e-05
-2.81813e-14
2e-05
-3.71803e-14
2e-05
-4.66007e-14
2e-05
-5.64873e-14
2e-05
-6.68883e-14
2e-05
-7.7853e-14
2e-05
-8.94312e-14
2e-05
-1.01672e-13
2e-05
-1.14626e-13
2e-05
-1.28343e-13
2e-05
-1.42872e-13
2e-05
-1.58265e-13
2e-05
-1.74572e-13
2e-05
-1.91846e-13
2e-05
-2.1014e-13
2e-05
-2.29509e-13
2e-05
-2.50008e-13
2e-05
-2.71693e-13
2e-05
-2.94624e-13
2e-05
-3.18858e-13
2e-05
-3.44457e-13
2e-05
-3.71484e-13
2e-05
-4.00001e-13
2e-05
-4.30073e-13
2e-05
-4.61767e-13
2e-05
-4.95149e-13
2e-05
-5.3029e-13
2e-05
-5.67258e-13
2e-05
-6.06125e-13
2e-05
-6.46963e-13
2e-05
-6.89846e-13
2e-05
-7.34847e-13
2e-05
-7.82042e-13
2e-05
-8.31507e-13
2e-05
-8.83316e-13
2e-05
-9.37549e-13
2e-05
-9.9428e-13
2e-05
-1.05359e-12
2e-05
-1.11555e-12
2e-05
-1.18024e-12
2e-05
-1.24774e-12
2e-05
-1.31811e-12
2e-05
-1.39145e-12
2e-05
-1.46781e-12
2e-05
-1.54728e-12
2e-05
-1.62991e-12
2e-05
-1.71579e-12
2e-05
-1.80496e-12
2e-05
-1.89751e-12
2e-05
-1.99348e-12
2e-05
-2.09293e-12
2e-05
-2.19591e-12
2e-05
-2.30248e-12
2e-05
-2.41267e-12
2e-05
-2.52651e-12
2e-05
-2.64405e-12
2e-05
-2.7653e-12
2e-05
-2.89028e-12
2e-05
-3.019e-12
2e-05
-3.15146e-12
2e-05
-3.28766e-12
2e-05
-3.42757e-12
2e-05
-3.57116e-12
2e-05
-3.7184e-12
2e-05
-3.86924e-12
2e-05
-4.0236e-12
2e-05
-4.1814e-12
2e-05
-4.34256e-12
2e-05
-4.50696e-12
2e-05
-4.67446e-12
2e-05
-4.84493e-12
2e-05
-5.01818e-12
2e-05
-5.19402e-12
2e-05
-5.37225e-12
2e-05
-5.55261e-12
2e-05
-5.73483e-12
2e-05
-5.9186e-12
2e-05
-6.1036e-12
2e-05
-6.28945e-12
2e-05
-6.47573e-12
2e-05
-6.66198e-12
2e-05
-6.84769e-12
2e-05
-7.0323e-12
2e-05
-7.21518e-12
2e-05
-7.39563e-12
2e-05
-7.57288e-12
2e-05
-7.74605e-12
2e-05
-7.91418e-12
2e-05
-8.07616e-12
2e-05
-8.23075e-12
2e-05
-8.37654e-12
2e-05
-8.51195e-12
2e-05
-8.63528e-12
2e-05
-8.74455e-12
2e-05
-8.83677e-12
2e-05
-8.90753e-12
-8.94649e-12
2e-05
-3.30481e-15
2e-05
-1.05322e-14
2e-05
-1.82759e-14
2e-05
-2.64335e-14
2e-05
-3.50022e-14
2e-05
-4.40062e-14
2e-05
-5.34791e-14
2e-05
-6.34601e-14
2e-05
-7.39916e-14
2e-05
-8.51178e-14
2e-05
-9.68842e-14
2e-05
-1.09337e-13
2e-05
-1.22522e-13
2e-05
-1.36488e-13
2e-05
-1.51282e-13
2e-05
-1.66954e-13
2e-05
-1.83553e-13
2e-05
-2.01131e-13
2e-05
-2.19738e-13
2e-05
-2.3943e-13
2e-05
-2.60259e-13
2e-05
-2.82282e-13
2e-05
-3.05555e-13
2e-05
-3.30136e-13
2e-05
-3.56086e-13
2e-05
-3.83465e-13
2e-05
-4.12335e-13
2e-05
-4.42759e-13
2e-05
-4.74802e-13
2e-05
-5.0853e-13
2e-05
-5.44009e-13
2e-05
-5.81309e-13
2e-05
-6.20498e-13
2e-05
-6.61647e-13
2e-05
-7.04826e-13
2e-05
-7.50106e-13
2e-05
-7.97562e-13
2e-05
-8.47265e-13
2e-05
-8.99289e-13
2e-05
-9.53708e-13
2e-05
-1.0106e-12
2e-05
-1.07002e-12
2e-05
-1.13207e-12
2e-05
-1.1968e-12
2e-05
-1.2643e-12
2e-05
-1.33463e-12
2e-05
-1.40786e-12
2e-05
-1.48406e-12
2e-05
-1.5633e-12
2e-05
-1.64565e-12
2e-05
-1.73116e-12
2e-05
-1.8199e-12
2e-05
-1.91193e-12
2e-05
-2.0073e-12
2e-05
-2.10606e-12
2e-05
-2.20825e-12
2e-05
-2.31393e-12
2e-05
-2.42312e-12
2e-05
-2.53587e-12
2e-05
-2.65218e-12
2e-05
-2.77209e-12
2e-05
-2.89561e-12
2e-05
-3.02274e-12
2e-05
-3.15348e-12
2e-05
-3.28782e-12
2e-05
-3.42574e-12
2e-05
-3.5672e-12
2e-05
-3.71217e-12
2e-05
-3.8606e-12
2e-05
-4.01241e-12
2e-05
-4.16753e-12
2e-05
-4.32586e-12
2e-05
-4.48731e-12
2e-05
-4.65174e-12
2e-05
-4.81902e-12
2e-05
-4.98898e-12
2e-05
-5.16145e-12
2e-05
-5.33621e-12
2e-05
-5.51306e-12
2e-05
-5.69173e-12
2e-05
-5.87194e-12
2e-05
-6.05339e-12
2e-05
-6.23574e-12
2e-05
-6.41859e-12
2e-05
-6.60152e-12
2e-05
-6.78405e-12
2e-05
-6.96566e-12
2e-05
-7.14575e-12
2e-05
-7.32364e-12
2e-05
-7.49857e-12
2e-05
-7.66966e-12
2e-05
-7.83589e-12
2e-05
-7.99607e-12
2e-05
-8.1488e-12
2e-05
-8.2924e-12
2e-05
-8.42483e-12
2e-05
-8.54341e-12
2e-05
-8.64403e-12
2e-05
-8.72057e-12
-8.76013e-12
2e-05
-3.06451e-15
2e-05
-9.80636e-15
2e-05
-1.70785e-14
2e-05
-2.47861e-14
2e-05
-3.29228e-14
2e-05
-4.15051e-14
2e-05
-5.05585e-14
2e-05
-6.01147e-14
2e-05
-7.021e-14
2e-05
-8.08832e-14
2e-05
-9.21753e-14
2e-05
-1.04129e-13
2e-05
-1.16787e-13
2e-05
-1.30194e-13
2e-05
-1.44397e-13
2e-05
-1.5944e-13
2e-05
-1.75373e-13
2e-05
-1.92243e-13
2e-05
-2.101e-13
2e-05
-2.28995e-13
2e-05
-2.4898e-13
2e-05
-2.70108e-13
2e-05
-2.92433e-13
2e-05
-3.16012e-13
2e-05
-3.409e-13
2e-05
-3.67157e-13
2e-05
-3.94842e-13
2e-05
-4.24015e-13
2e-05
-4.54738e-13
2e-05
-4.87074e-13
2e-05
-5.21088e-13
2e-05
-5.56844e-13
2e-05
-5.94408e-13
2e-05
-6.33848e-13
2e-05
-6.75232e-13
2e-05
-7.18627e-13
2e-05
-7.64104e-13
2e-05
-8.11733e-13
2e-05
-8.61582e-13
2e-05
-9.13724e-13
2e-05
-9.68227e-13
2e-05
-1.02516e-12
2e-05
-1.0846e-12
2e-05
-1.14662e-12
2e-05
-1.21127e-12
2e-05
-1.27864e-12
2e-05
-1.34879e-12
2e-05
-1.42178e-12
2e-05
-1.49768e-12
2e-05
-1.57655e-12
2e-05
-1.65846e-12
2e-05
-1.74346e-12
2e-05
-1.8316e-12
2e-05
-1.92295e-12
2e-05
-2.01755e-12
2e-05
-2.11545e-12
2e-05
-2.21668e-12
2e-05
-2.3213e-12
2e-05
-2.42932e-12
2e-05
-2.54078e-12
2e-05
-2.6557e-12
2e-05
-2.7741e-12
2e-05
-2.89598e-12
2e-05
-3.02135e-12
2e-05
-3.1502e-12
2e-05
-3.28253e-12
2e-05
-3.4183e-12
2e-05
-3.5575e-12
2e-05
-3.70007e-12
2e-05
-3.84597e-12
2e-05
-3.99513e-12
2e-05
-4.14749e-12
2e-05
-4.30296e-12
2e-05
-4.46143e-12
2e-05
-4.6228e-12
2e-05
-4.78693e-12
2e-05
-4.95369e-12
2e-05
-5.1229e-12
2e-05
-5.2944e-12
2e-05
-5.46796e-12
2e-05
-5.64337e-12
2e-05
-5.82038e-12
2e-05
-5.9987e-12
2e-05
-6.17803e-12
2e-05
-6.35801e-12
2e-05
-6.53824e-12
2e-05
-6.71829e-12
2e-05
-6.89763e-12
2e-05
-7.07568e-12
2e-05
-7.25176e-12
2e-05
-7.42506e-12
2e-05
-7.59461e-12
2e-05
-7.75924e-12
2e-05
-7.91749e-12
2e-05
-8.06754e-12
2e-05
-8.20702e-12
2e-05
-8.33263e-12
2e-05
-8.43946e-12
2e-05
-8.52014e-12
-8.56321e-12
2e-05
-2.84666e-15
2e-05
-9.1393e-15
2e-05
-1.59636e-14
2e-05
-2.32335e-14
2e-05
-3.09425e-14
2e-05
-3.91029e-14
2e-05
-4.77347e-14
2e-05
-5.6864e-14
2e-05
-6.65214e-14
2e-05
-7.67413e-14
2e-05
-8.75603e-14
2e-05
-9.90171e-14
2e-05
-1.11152e-13
2e-05
-1.24006e-13
2e-05
-1.37623e-13
2e-05
-1.52047e-13
2e-05
-1.67322e-13
2e-05
-1.83494e-13
2e-05
-2.00611e-13
2e-05
-2.18722e-13
2e-05
-2.37876e-13
2e-05
-2.58123e-13
2e-05
-2.79516e-13
2e-05
-3.02107e-13
2e-05
-3.25952e-13
2e-05
-3.51106e-13
2e-05
-3.77625e-13
2e-05
-4.05568e-13
2e-05
-4.34993e-13
2e-05
-4.65961e-13
2e-05
-4.98532e-13
2e-05
-5.3277e-13
2e-05
-5.68737e-13
2e-05
-6.06498e-13
2e-05
-6.46116e-13
2e-05
-6.87658e-13
2e-05
-7.31191e-13
2e-05
-7.76779e-13
2e-05
-8.24491e-13
2e-05
-8.74394e-13
2e-05
-9.26555e-13
2e-05
-9.81042e-13
2e-05
-1.03792e-12
2e-05
-1.09726e-12
2e-05
-1.15913e-12
2e-05
-1.22359e-12
2e-05
-1.2907e-12
2e-05
-1.36054e-12
2e-05
-1.43315e-12
2e-05
-1.50861e-12
2e-05
-1.58698e-12
2e-05
-1.6683e-12
2e-05
-1.75263e-12
2e-05
-1.84003e-12
2e-05
-1.93054e-12
2e-05
-2.02422e-12
2e-05
-2.12109e-12
2e-05
-2.2212e-12
2e-05
-2.32459e-12
2e-05
-2.43128e-12
2e-05
-2.5413e-12
2e-05
-2.65466e-12
2e-05
-2.77139e-12
2e-05
-2.89148e-12
2e-05
-3.01495e-12
2e-05
-3.14178e-12
2e-05
-3.27196e-12
2e-05
-3.40547e-12
2e-05
-3.54229e-12
2e-05
-3.68237e-12
2e-05
-3.82568e-12
2e-05
-3.97215e-12
2e-05
-4.12172e-12
2e-05
-4.27431e-12
2e-05
-4.42985e-12
2e-05
-4.58822e-12
2e-05
-4.74932e-12
2e-05
-4.91302e-12
2e-05
-5.07918e-12
2e-05
-5.24764e-12
2e-05
-5.41822e-12
2e-05
-5.59073e-12
2e-05
-5.76495e-12
2e-05
-5.94062e-12
2e-05
-6.11746e-12
2e-05
-6.29515e-12
2e-05
-6.47332e-12
2e-05
-6.65151e-12
2e-05
-6.82923e-12
2e-05
-7.00583e-12
2e-05
-7.18057e-12
2e-05
-7.35251e-12
2e-05
-7.52045e-12
2e-05
-7.68287e-12
2e-05
-7.83778e-12
2e-05
-7.98248e-12
2e-05
-8.11326e-12
2e-05
-8.22467e-12
2e-05
-8.309e-12
-8.3568e-12
2e-05
-2.64661e-15
2e-05
-8.5214e-15
2e-05
-1.49213e-14
2e-05
-2.17688e-14
2e-05
-2.90587e-14
2e-05
-3.68012e-14
2e-05
-4.5013e-14
2e-05
-5.37158e-14
2e-05
-6.29361e-14
2e-05
-7.27039e-14
2e-05
-8.3052e-14
2e-05
-9.40156e-14
2e-05
-1.05632e-13
2e-05
-1.17939e-13
2e-05
-1.30978e-13
2e-05
-1.4479e-13
2e-05
-1.59416e-13
2e-05
-1.74902e-13
2e-05
-1.91291e-13
2e-05
-2.0863e-13
2e-05
-2.26966e-13
2e-05
-2.46348e-13
2e-05
-2.66824e-13
2e-05
-2.88447e-13
2e-05
-3.11266e-13
2e-05
-3.35336e-13
2e-05
-3.60711e-13
2e-05
-3.87446e-13
2e-05
-4.15597e-13
2e-05
-4.45221e-13
2e-05
-4.76378e-13
2e-05
-5.09126e-13
2e-05
-5.43525e-13
2e-05
-5.79638e-13
2e-05
-6.17524e-13
2e-05
-6.57248e-13
2e-05
-6.98872e-13
2e-05
-7.42459e-13
2e-05
-7.88074e-13
2e-05
-8.35781e-13
2e-05
-8.85645e-13
2e-05
-9.37729e-13
2e-05
-9.92097e-13
2e-05
-1.04881e-12
2e-05
-1.10794e-12
2e-05
-1.16955e-12
2e-05
-1.23369e-12
2e-05
-1.30043e-12
2e-05
-1.36983e-12
2e-05
-1.44194e-12
2e-05
-1.51683e-12
2e-05
-1.59455e-12
2e-05
-1.67514e-12
2e-05
-1.75867e-12
2e-05
-1.84518e-12
2e-05
-1.93471e-12
2e-05
-2.02731e-12
2e-05
-2.12301e-12
2e-05
-2.22185e-12
2e-05
-2.32387e-12
2e-05
-2.42908e-12
2e-05
-2.53751e-12
2e-05
-2.64918e-12
2e-05
-2.7641e-12
2e-05
-2.88227e-12
2e-05
-3.00371e-12
2e-05
-3.1284e-12
2e-05
-3.25634e-12
2e-05
-3.3875e-12
2e-05
-3.52187e-12
2e-05
-3.65942e-12
2e-05
-3.80009e-12
2e-05
-3.94386e-12
2e-05
-4.09067e-12
2e-05
-4.24045e-12
2e-05
-4.39312e-12
2e-05
-4.54862e-12
2e-05
-4.70685e-12
2e-05
-4.8677e-12
2e-05
-5.03106e-12
2e-05
-5.19679e-12
2e-05
-5.36475e-12
2e-05
-5.53477e-12
2e-05
-5.70664e-12
2e-05
-5.88016e-12
2e-05
-6.05506e-12
2e-05
-6.23101e-12
2e-05
-6.40765e-12
2e-05
-6.58451e-12
2e-05
-6.76102e-12
2e-05
-6.93645e-12
2e-05
-7.10986e-12
2e-05
-7.28004e-12
2e-05
-7.44538e-12
2e-05
-7.60373e-12
2e-05
-7.75217e-12
2e-05
-7.88665e-12
2e-05
-8.00148e-12
2e-05
-8.08895e-12
-8.14035e-12
2e-05
-2.46127e-15
2e-05
-7.94557e-15
2e-05
-1.39437e-14
2e-05
-2.03854e-14
2e-05
-2.72674e-14
2e-05
-3.45995e-14
2e-05
-4.2396e-14
2e-05
-5.06757e-14
2e-05
-5.94615e-14
2e-05
-6.87801e-14
2e-05
-7.86609e-14
2e-05
-8.91359e-14
2e-05
-1.00239e-13
2e-05
-1.12006e-13
2e-05
-1.24475e-13
2e-05
-1.37683e-13
2e-05
-1.51671e-13
2e-05
-1.66481e-13
2e-05
-1.82155e-13
2e-05
-1.98736e-13
2e-05
-2.1627e-13
2e-05
-2.34802e-13
2e-05
-2.5438e-13
2e-05
-2.75051e-13
2e-05
-2.96865e-13
2e-05
-3.19873e-13
2e-05
-3.44126e-13
2e-05
-3.69677e-13
2e-05
-3.96579e-13
2e-05
-4.24887e-13
2e-05
-4.54657e-13
2e-05
-4.85945e-13
2e-05
-5.18809e-13
2e-05
-5.53306e-13
2e-05
-5.89497e-13
2e-05
-6.27439e-13
2e-05
-6.67194e-13
2e-05
-7.08822e-13
2e-05
-7.52384e-13
2e-05
-7.9794e-13
2e-05
-8.45554e-13
2e-05
-8.95285e-13
2e-05
-9.47195e-13
2e-05
-1.00135e-12
2e-05
-1.0578e-12
2e-05
-1.11661e-12
2e-05
-1.17784e-12
2e-05
-1.24155e-12
2e-05
-1.3078e-12
2e-05
-1.37664e-12
2e-05
-1.44813e-12
2e-05
-1.52231e-12
2e-05
-1.59925e-12
2e-05
-1.67899e-12
2e-05
-1.76158e-12
2e-05
-1.84706e-12
2e-05
-1.93547e-12
2e-05
-2.02685e-12
2e-05
-2.12125e-12
2e-05
-2.21868e-12
2e-05
-2.31919e-12
2e-05
-2.42279e-12
2e-05
-2.52951e-12
2e-05
-2.63936e-12
2e-05
-2.75236e-12
2e-05
-2.86852e-12
2e-05
-2.98783e-12
2e-05
-3.1103e-12
2e-05
-3.23593e-12
2e-05
-3.36469e-12
2e-05
-3.49658e-12
2e-05
-3.63157e-12
2e-05
-3.76964e-12
2e-05
-3.91074e-12
2e-05
-4.05484e-12
2e-05
-4.2019e-12
2e-05
-4.35186e-12
2e-05
-4.50466e-12
2e-05
-4.66022e-12
2e-05
-4.81848e-12
2e-05
-4.97934e-12
2e-05
-5.14269e-12
2e-05
-5.30841e-12
2e-05
-5.47635e-12
2e-05
-5.64635e-12
2e-05
-5.8182e-12
2e-05
-5.99162e-12
2e-05
-6.16629e-12
2e-05
-6.3418e-12
2e-05
-6.5176e-12
2e-05
-6.69299e-12
2e-05
-6.86702e-12
2e-05
-7.03845e-12
2e-05
-7.20559e-12
2e-05
-7.36618e-12
2e-05
-7.51711e-12
2e-05
-7.65413e-12
2e-05
-7.7714e-12
2e-05
-7.86122e-12
-7.91458e-12
2e-05
-2.28846e-15
2e-05
-7.40651e-15
2e-05
-1.30241e-14
2e-05
-1.90772e-14
2e-05
-2.55645e-14
2e-05
-3.24958e-14
2e-05
-3.98842e-14
2e-05
-4.77465e-14
2e-05
-5.61029e-14
2e-05
-6.49771e-14
2e-05
-7.43957e-14
2e-05
-8.43876e-14
2e-05
-9.49841e-14
2e-05
-1.06218e-13
2e-05
-1.18125e-13
2e-05
-1.3074e-13
2e-05
-1.44101e-13
2e-05
-1.58247e-13
2e-05
-1.73219e-13
2e-05
-1.89057e-13
2e-05
-2.05804e-13
2e-05
-2.23503e-13
2e-05
-2.422e-13
2e-05
-2.6194e-13
2e-05
-2.8277e-13
2e-05
-3.04738e-13
2e-05
-3.27892e-13
2e-05
-3.52285e-13
2e-05
-3.77965e-13
2e-05
-4.04985e-13
2e-05
-4.33399e-13
2e-05
-4.63259e-13
2e-05
-4.94621e-13
2e-05
-5.27539e-13
2e-05
-5.62071e-13
2e-05
-5.98272e-13
2e-05
-6.36199e-13
2e-05
-6.75911e-13
2e-05
-7.17465e-13
2e-05
-7.6092e-13
2e-05
-8.06334e-13
2e-05
-8.53766e-13
2e-05
-9.03273e-13
2e-05
-9.54915e-13
2e-05
-1.00875e-12
2e-05
-1.06483e-12
2e-05
-1.12322e-12
2e-05
-1.18397e-12
2e-05
-1.24714e-12
2e-05
-1.31278e-12
2e-05
-1.38095e-12
2e-05
-1.45169e-12
2e-05
-1.52505e-12
2e-05
-1.60109e-12
2e-05
-1.67984e-12
2e-05
-1.76136e-12
2e-05
-1.84569e-12
2e-05
-1.93286e-12
2e-05
-2.02291e-12
2e-05
-2.11587e-12
2e-05
-2.21178e-12
2e-05
-2.31066e-12
2e-05
-2.41254e-12
2e-05
-2.51744e-12
2e-05
-2.62538e-12
2e-05
-2.73637e-12
2e-05
-2.85043e-12
2e-05
-2.96755e-12
2e-05
-3.08775e-12
2e-05
-3.21103e-12
2e-05
-3.33737e-12
2e-05
-3.46678e-12
2e-05
-3.59924e-12
2e-05
-3.73474e-12
2e-05
-3.87326e-12
2e-05
-4.01477e-12
2e-05
-4.15925e-12
2e-05
-4.30667e-12
2e-05
-4.45698e-12
2e-05
-4.61014e-12
2e-05
-4.76609e-12
2e-05
-4.92477e-12
2e-05
-5.0861e-12
2e-05
-5.24998e-12
2e-05
-5.41627e-12
2e-05
-5.58481e-12
2e-05
-5.75538e-12
2e-05
-5.9277e-12
2e-05
-6.10137e-12
2e-05
-6.27589e-12
2e-05
-6.45055e-12
2e-05
-6.62441e-12
2e-05
-6.79619e-12
2e-05
-6.96416e-12
2e-05
-7.12592e-12
2e-05
-7.27827e-12
2e-05
-7.41683e-12
2e-05
-7.53566e-12
2e-05
-7.62699e-12
-7.6814e-12
2e-05
-2.12665e-15
2e-05
-6.9002e-15
2e-05
-1.21572e-14
2e-05
-1.78387e-14
2e-05
-2.39454e-14
2e-05
-3.04874e-14
2e-05
-3.74771e-14
2e-05
-4.49296e-14
2e-05
-5.28634e-14
2e-05
-6.12997e-14
2e-05
-7.02626e-14
2e-05
-7.97786e-14
2e-05
-8.98761e-14
2e-05
-1.00586e-13
2e-05
-1.1194e-13
2e-05
-1.23972e-13
2e-05
-1.36718e-13
2e-05
-1.50213e-13
2e-05
-1.64496e-13
2e-05
-1.79606e-13
2e-05
-1.95582e-13
2e-05
-2.12467e-13
2e-05
-2.30302e-13
2e-05
-2.49131e-13
2e-05
-2.68998e-13
2e-05
-2.8995e-13
2e-05
-3.12032e-13
2e-05
-3.35292e-13
2e-05
-3.59778e-13
2e-05
-3.85541e-13
2e-05
-4.12629e-13
2e-05
-4.41095e-13
2e-05
-4.7099e-13
2e-05
-5.02367e-13
2e-05
-5.35279e-13
2e-05
-5.6978e-13
2e-05
-6.05924e-13
2e-05
-6.43766e-13
2e-05
-6.83361e-13
2e-05
-7.24765e-13
2e-05
-7.68032e-13
2e-05
-8.1322e-13
2e-05
-8.60383e-13
2e-05
-9.09577e-13
2e-05
-9.60858e-13
2e-05
-1.01428e-12
2e-05
-1.06989e-12
2e-05
-1.12776e-12
2e-05
-1.18793e-12
2e-05
-1.25045e-12
2e-05
-1.31537e-12
2e-05
-1.38275e-12
2e-05
-1.45263e-12
2e-05
-1.52506e-12
2e-05
-1.60008e-12
2e-05
-1.67774e-12
2e-05
-1.75807e-12
2e-05
-1.84113e-12
2e-05
-1.92694e-12
2e-05
-2.01554e-12
2e-05
-2.10697e-12
2e-05
-2.20125e-12
2e-05
-2.29841e-12
2e-05
-2.39847e-12
2e-05
-2.50147e-12
2e-05
-2.60742e-12
2e-05
-2.71633e-12
2e-05
-2.82823e-12
2e-05
-2.94313e-12
2e-05
-3.06103e-12
2e-05
-3.18195e-12
2e-05
-3.30589e-12
2e-05
-3.43286e-12
2e-05
-3.56285e-12
2e-05
-3.69587e-12
2e-05
-3.83192e-12
2e-05
-3.97099e-12
2e-05
-4.11307e-12
2e-05
-4.25815e-12
2e-05
-4.40622e-12
2e-05
-4.55725e-12
2e-05
-4.71122e-12
2e-05
-4.86807e-12
2e-05
-5.02774e-12
2e-05
-5.19014e-12
2e-05
-5.35513e-12
2e-05
-5.52255e-12
2e-05
-5.69213e-12
2e-05
-5.86351e-12
2e-05
-6.0362e-12
2e-05
-6.20951e-12
2e-05
-6.38248e-12
2e-05
-6.55381e-12
2e-05
-6.72171e-12
2e-05
-6.88374e-12
2e-05
-7.0366e-12
2e-05
-7.17582e-12
2e-05
-7.29541e-12
2e-05
-7.38752e-12
-7.44245e-12
2e-05
-1.97468e-15
2e-05
-6.42353e-15
2e-05
-1.13386e-14
2e-05
-1.66654e-14
2e-05
-2.24061e-14
2e-05
-2.85713e-14
2e-05
-3.5173e-14
2e-05
-4.22253e-14
2e-05
-4.9745e-14
2e-05
-5.77515e-14
2e-05
-6.62667e-14
2e-05
-7.53149e-14
2e-05
-8.49222e-14
2e-05
-9.51168e-14
2e-05
-1.05929e-13
2e-05
-1.17389e-13
2e-05
-1.29531e-13
2e-05
-1.42389e-13
2e-05
-1.55999e-13
2e-05
-1.70396e-13
2e-05
-1.85619e-13
2e-05
-2.01708e-13
2e-05
-2.18701e-13
2e-05
-2.3664e-13
2e-05
-2.55568e-13
2e-05
-2.75527e-13
2e-05
-2.96562e-13
2e-05
-3.18717e-13
2e-05
-3.42039e-13
2e-05
-3.66575e-13
2e-05
-3.92372e-13
2e-05
-4.19478e-13
2e-05
-4.47943e-13
2e-05
-4.77817e-13
2e-05
-5.09151e-13
2e-05
-5.41994e-13
2e-05
-5.764e-13
2e-05
-6.1242e-13
2e-05
-6.50106e-13
2e-05
-6.89511e-13
2e-05
-7.30688e-13
2e-05
-7.7369e-13
2e-05
-8.1857e-13
2e-05
-8.6538e-13
2e-05
-9.14173e-13
2e-05
-9.65001e-13
2e-05
-1.01792e-12
2e-05
-1.07297e-12
2e-05
-1.13021e-12
2e-05
-1.18969e-12
2e-05
-1.25146e-12
2e-05
-1.31557e-12
2e-05
-1.38205e-12
2e-05
-1.45097e-12
2e-05
-1.52235e-12
2e-05
-1.59625e-12
2e-05
-1.67271e-12
2e-05
-1.75176e-12
2e-05
-1.83345e-12
2e-05
-1.9178e-12
2e-05
-2.00486e-12
2e-05
-2.09465e-12
2e-05
-2.18721e-12
2e-05
-2.28257e-12
2e-05
-2.38075e-12
2e-05
-2.48178e-12
2e-05
-2.58568e-12
2e-05
-2.69248e-12
2e-05
-2.8022e-12
2e-05
-2.91485e-12
2e-05
-3.03046e-12
2e-05
-3.14905e-12
2e-05
-3.27063e-12
2e-05
-3.39522e-12
2e-05
-3.52284e-12
2e-05
-3.6535e-12
2e-05
-3.78723e-12
2e-05
-3.92403e-12
2e-05
-4.06392e-12
2e-05
-4.20691e-12
2e-05
-4.353e-12
2e-05
-4.5022e-12
2e-05
-4.65448e-12
2e-05
-4.80982e-12
2e-05
-4.96815e-12
2e-05
-5.12938e-12
2e-05
-5.29335e-12
2e-05
-5.45984e-12
2e-05
-5.62851e-12
2e-05
-5.79888e-12
2e-05
-5.97025e-12
2e-05
-6.14169e-12
2e-05
-6.31185e-12
2e-05
-6.47892e-12
2e-05
-6.64041e-12
2e-05
-6.79297e-12
2e-05
-6.93209e-12
2e-05
-7.05174e-12
2e-05
-7.14405e-12
-7.19909e-12
2e-05
-1.83169e-15
2e-05
-5.97404e-15
2e-05
-1.05648e-14
2e-05
-1.55533e-14
2e-05
-2.09429e-14
2e-05
-2.67446e-14
2e-05
-3.297e-14
2e-05
-3.96328e-14
2e-05
-4.67483e-14
2e-05
-5.43344e-14
2e-05
-6.24113e-14
2e-05
-7.10011e-14
2e-05
-8.0128e-14
2e-05
-8.9818e-14
2e-05
-1.00099e-13
2e-05
-1.11e-13
2e-05
-1.22552e-13
2e-05
-1.34786e-13
2e-05
-1.47737e-13
2e-05
-1.61439e-13
2e-05
-1.75927e-13
2e-05
-1.91238e-13
2e-05
-2.0741e-13
2e-05
-2.24482e-13
2e-05
-2.42493e-13
2e-05
-2.61485e-13
2e-05
-2.815e-13
2e-05
-3.02579e-13
2e-05
-3.24767e-13
2e-05
-3.48107e-13
2e-05
-3.72646e-13
2e-05
-3.98429e-13
2e-05
-4.25502e-13
2e-05
-4.53913e-13
2e-05
-4.8371e-13
2e-05
-5.14941e-13
2e-05
-5.47655e-13
2e-05
-5.81902e-13
2e-05
-6.17731e-13
2e-05
-6.55192e-13
2e-05
-6.94336e-13
2e-05
-7.35211e-13
2e-05
-7.7787e-13
2e-05
-8.22362e-13
2e-05
-8.68736e-13
2e-05
-9.17043e-13
2e-05
-9.67333e-13
2e-05
-1.01965e-12
2e-05
-1.07405e-12
2e-05
-1.13058e-12
2e-05
-1.18928e-12
2e-05
-1.2502e-12
2e-05
-1.31339e-12
2e-05
-1.37889e-12
2e-05
-1.44674e-12
2e-05
-1.51699e-12
2e-05
-1.58967e-12
2e-05
-1.66483e-12
2e-05
-1.7425e-12
2e-05
-1.82272e-12
2e-05
-1.90553e-12
2e-05
-1.99096e-12
2e-05
-2.07905e-12
2e-05
-2.16982e-12
2e-05
-2.26332e-12
2e-05
-2.35956e-12
2e-05
-2.45858e-12
2e-05
-2.56041e-12
2e-05
-2.66507e-12
2e-05
-2.7726e-12
2e-05
-2.88303e-12
2e-05
-2.99638e-12
2e-05
-3.11269e-12
2e-05
-3.23198e-12
2e-05
-3.35429e-12
2e-05
-3.47966e-12
2e-05
-3.60811e-12
2e-05
-3.73969e-12
2e-05
-3.87442e-12
2e-05
-4.01234e-12
2e-05
-4.15348e-12
2e-05
-4.29787e-12
2e-05
-4.44551e-12
2e-05
-4.5964e-12
2e-05
-4.75051e-12
2e-05
-4.90776e-12
2e-05
-5.06803e-12
2e-05
-5.2311e-12
2e-05
-5.39667e-12
2e-05
-5.56425e-12
2e-05
-5.73318e-12
2e-05
-5.90249e-12
2e-05
-6.07085e-12
2e-05
-6.23641e-12
2e-05
-6.39666e-12
2e-05
-6.54822e-12
2e-05
-6.68657e-12
2e-05
-6.80569e-12
2e-05
-6.89769e-12
-6.95254e-12
2e-05
-1.69698e-15
2e-05
-5.54976e-15
2e-05
-9.83296e-15
2e-05
-1.4499e-14
2e-05
-1.95523e-14
2e-05
-2.50041e-14
2e-05
-3.0866e-14
2e-05
-3.71508e-14
2e-05
-4.38731e-14
2e-05
-5.10495e-14
2e-05
-5.86985e-14
2e-05
-6.68405e-14
2e-05
-7.54978e-14
2e-05
-8.46946e-14
2e-05
-9.44566e-14
2e-05
-1.04811e-13
2e-05
-1.15786e-13
2e-05
-1.27412e-13
2e-05
-1.39721e-13
2e-05
-1.52744e-13
2e-05
-1.66515e-13
2e-05
-1.81068e-13
2e-05
-1.9644e-13
2e-05
-2.12667e-13
2e-05
-2.29787e-13
2e-05
-2.47838e-13
2e-05
-2.66859e-13
2e-05
-2.86891e-13
2e-05
-3.07976e-13
2e-05
-3.30154e-13
2e-05
-3.5347e-13
2e-05
-3.77965e-13
2e-05
-4.03685e-13
2e-05
-4.30675e-13
2e-05
-4.58978e-13
2e-05
-4.88643e-13
2e-05
-5.19713e-13
2e-05
-5.52238e-13
2e-05
-5.86262e-13
2e-05
-6.21835e-13
2e-05
-6.59003e-13
2e-05
-6.97814e-13
2e-05
-7.38316e-13
2e-05
-7.80556e-13
2e-05
-8.24582e-13
2e-05
-8.70442e-13
2e-05
-9.18182e-13
2e-05
-9.67849e-13
2e-05
-1.01949e-12
2e-05
-1.07315e-12
2e-05
-1.12887e-12
2e-05
-1.18671e-12
2e-05
-1.24669e-12
2e-05
-1.30887e-12
2e-05
-1.37329e-12
2e-05
-1.43999e-12
2e-05
-1.50901e-12
2e-05
-1.58039e-12
2e-05
-1.65417e-12
2e-05
-1.73038e-12
2e-05
-1.80906e-12
2e-05
-1.89026e-12
2e-05
-1.974e-12
2e-05
-2.06031e-12
2e-05
-2.14925e-12
2e-05
-2.24083e-12
2e-05
-2.3351e-12
2e-05
-2.43209e-12
2e-05
-2.53183e-12
2e-05
-2.63437e-12
2e-05
-2.73974e-12
2e-05
-2.84798e-12
2e-05
-2.95913e-12
2e-05
-3.07323e-12
2e-05
-3.19034e-12
2e-05
-3.31049e-12
2e-05
-3.43375e-12
2e-05
-3.56016e-12
2e-05
-3.68977e-12
2e-05
-3.82265e-12
2e-05
-3.95883e-12
2e-05
-4.09838e-12
2e-05
-4.24131e-12
2e-05
-4.38765e-12
2e-05
-4.53738e-12
2e-05
-4.69046e-12
2e-05
-4.84678e-12
2e-05
-5.00615e-12
2e-05
-5.16826e-12
2e-05
-5.33267e-12
2e-05
-5.49868e-12
2e-05
-5.66535e-12
2e-05
-5.83133e-12
2e-05
-5.99478e-12
2e-05
-6.15318e-12
2e-05
-6.30314e-12
2e-05
-6.44014e-12
2e-05
-6.55821e-12
2e-05
-6.64949e-12
-6.70389e-12
2e-05
-1.57e-15
2e-05
-5.14908e-15
2e-05
-9.14054e-15
2e-05
-1.34995e-14
2e-05
-1.82312e-14
2e-05
-2.3347e-14
2e-05
-2.88584e-14
2e-05
-3.47777e-14
2e-05
-4.11188e-14
2e-05
-4.78969e-14
2e-05
-5.51294e-14
2e-05
-6.2835e-14
2e-05
-7.10346e-14
2e-05
-7.97504e-14
2e-05
-8.90063e-14
2e-05
-9.88274e-14
2e-05
-1.09241e-13
2e-05
-1.20274e-13
2e-05
-1.31956e-13
2e-05
-1.44318e-13
2e-05
-1.57391e-13
2e-05
-1.71208e-13
2e-05
-1.85802e-13
2e-05
-2.01207e-13
2e-05
-2.17459e-13
2e-05
-2.34595e-13
2e-05
-2.52652e-13
2e-05
-2.71667e-13
2e-05
-2.91679e-13
2e-05
-3.12729e-13
2e-05
-3.34857e-13
2e-05
-3.58103e-13
2e-05
-3.8251e-13
2e-05
-4.08119e-13
2e-05
-4.34973e-13
2e-05
-4.63117e-13
2e-05
-4.92593e-13
2e-05
-5.23447e-13
2e-05
-5.55721e-13
2e-05
-5.89462e-13
2e-05
-6.24714e-13
2e-05
-6.61523e-13
2e-05
-6.99933e-13
2e-05
-7.3999e-13
2e-05
-7.81739e-13
2e-05
-8.25226e-13
2e-05
-8.70494e-13
2e-05
-9.17589e-13
2e-05
-9.66555e-13
2e-05
-1.01743e-12
2e-05
-1.07027e-12
2e-05
-1.12511e-12
2e-05
-1.18199e-12
2e-05
-1.24096e-12
2e-05
-1.30206e-12
2e-05
-1.36532e-12
2e-05
-1.43078e-12
2e-05
-1.4985e-12