/*--------------------------------*- C++ -*----------------------------------*\
  =========                 |
  \\      /  F ield         | OpenFOAM: The Open Source CFD Toolbox
   \\    /   O peration     | Website:  https://openfoam.org
    \\  /    A nd           | Version:  11
     \\/     M anipulation  |
\*---------------------------------------------------------------------------*/
FoamFile
{
    format      ascii;
    class       volScalarField;
    location    "14";
    object      k;
}
// * * * * * * * * * * * * * * * * * * * * * * * * * * * * * * * * * * * * * //

dimensions      [0 2 -2 0 0 0 0];

internalField   nonuniform List<scalar> 
10000
(
0.000945504
0.000853788
0.000778382
0.000717031
0.000667439
0.000627523
0.000595501
0.000569891
0.000549473
0.000533249
0.000520404
0.000510275
0.000502316
0.000496081
0.000491232
0.00048748
0.00048458
0.000482339
0.000480608
0.000479271
0.000478237
0.000477433
0.000476805
0.000476312
0.00047592
0.000475607
0.000475353
0.000475145
0.000474973
0.000474828
0.000474706
0.000474602
0.000474512
0.000474433
0.000474364
0.000474304
0.00047425
0.000474202
0.000474159
0.00047412
0.000474086
0.000474054
0.000474026
0.000474
0.000473977
0.000473955
0.000473936
0.000473918
0.000473902
0.000473887
0.000473873
0.000473861
0.000473849
0.000473839
0.000473829
0.00047382
0.000473811
0.000473803
0.000473796
0.00047379
0.000473784
0.000473778
0.000473773
0.000473768
0.000473763
0.000473759
0.000473755
0.000473751
0.000473748
0.000473745
0.000473742
0.000473739
0.000473736
0.000473734
0.000473732
0.00047373
0.000473728
0.000473726
0.000473724
0.000473722
0.000473721
0.000473719
0.000473718
0.000473716
0.000473715
0.000473713
0.000473712
0.00047371
0.000473709
0.000473707
0.000473706
0.000473704
0.000473703
0.000473701
0.0004737
0.000473698
0.000473697
0.000473696
0.000473695
0.000473695
0.000944771
0.000853332
0.000778113
0.000716851
0.000667312
0.000627429
0.000595434
0.000569847
0.000549448
0.000533239
0.000520406
0.000510285
0.000502334
0.000496112
0.000491268
0.000487512
0.000484607
0.000482363
0.000480631
0.000479293
0.000478258
0.000477453
0.000476825
0.00047633
0.000475938
0.000475623
0.000475368
0.00047516
0.000474987
0.000474842
0.000474719
0.000474614
0.000474523
0.000474444
0.000474374
0.000474313
0.000474259
0.00047421
0.000474167
0.000474128
0.000474093
0.000474061
0.000474032
0.000474006
0.000473982
0.000473961
0.000473941
0.000473923
0.000473906
0.000473891
0.000473877
0.000473864
0.000473852
0.000473842
0.000473832
0.000473822
0.000473814
0.000473806
0.000473799
0.000473792
0.000473786
0.00047378
0.000473774
0.000473769
0.000473765
0.00047376
0.000473756
0.000473753
0.000473749
0.000473746
0.000473743
0.00047374
0.000473737
0.000473735
0.000473733
0.000473731
0.000473729
0.000473727
0.000473725
0.000473723
0.000473721
0.00047372
0.000473718
0.000473717
0.000473715
0.000473714
0.000473712
0.000473711
0.000473709
0.000473708
0.000473706
0.000473705
0.000473703
0.000473701
0.0004737
0.000473699
0.000473697
0.000473696
0.000473695
0.000473695
0.000944413
0.000852886
0.00077776
0.00071659
0.000667106
0.000627262
0.000595299
0.00056974
0.000549365
0.000533177
0.000520361
0.000510254
0.000502315
0.000496106
0.00049127
0.000487518
0.000484614
0.000482372
0.000480641
0.000479305
0.00047827
0.000477466
0.000476839
0.000476345
0.000475953
0.000475639
0.000475384
0.000475176
0.000475003
0.000474857
0.000474734
0.000474629
0.000474538
0.000474458
0.000474388
0.000474326
0.000474271
0.000474222
0.000474178
0.000474139
0.000474103
0.000474071
0.000474041
0.000474015
0.000473991
0.000473968
0.000473948
0.00047393
0.000473913
0.000473897
0.000473883
0.00047387
0.000473858
0.000473846
0.000473836
0.000473827
0.000473818
0.00047381
0.000473802
0.000473795
0.000473789
0.000473783
0.000473777
0.000473772
0.000473767
0.000473763
0.000473759
0.000473755
0.000473751
0.000473748
0.000473745
0.000473742
0.000473739
0.000473737
0.000473734
0.000473732
0.00047373
0.000473728
0.000473726
0.000473724
0.000473723
0.000473721
0.000473719
0.000473718
0.000473716
0.000473715
0.000473713
0.000473712
0.00047371
0.000473709
0.000473707
0.000473705
0.000473704
0.000473702
0.0004737
0.000473699
0.000473698
0.000473697
0.000473696
0.000473695
0.000944237
0.000852524
0.00077741
0.000716292
0.000666854
0.00062705
0.00059512
0.000569592
0.000549245
0.000533081
0.000520286
0.000510196
0.000502272
0.000496076
0.00049125
0.000487505
0.000484607
0.000482369
0.000480641
0.000479308
0.000478276
0.000477474
0.000476849
0.000476357
0.000475966
0.000475653
0.0004754
0.000475192
0.000475019
0.000474874
0.000474751
0.000474646
0.000474554
0.000474474
0.000474404
0.000474342
0.000474286
0.000474237
0.000474192
0.000474152
0.000474116
0.000474083
0.000474053
0.000474026
0.000474001
0.000473978
0.000473957
0.000473938
0.000473921
0.000473905
0.00047389
0.000473877
0.000473864
0.000473853
0.000473842
0.000473832
0.000473823
0.000473815
0.000473807
0.0004738
0.000473793
0.000473787
0.000473781
0.000473776
0.000473771
0.000473766
0.000473762
0.000473758
0.000473754
0.00047375
0.000473747
0.000473744
0.000473741
0.000473739
0.000473736
0.000473734
0.000473732
0.00047373
0.000473728
0.000473726
0.000473724
0.000473722
0.000473721
0.000473719
0.000473718
0.000473716
0.000473714
0.000473713
0.000473711
0.00047371
0.000473708
0.000473706
0.000473705
0.000473703
0.000473701
0.0004737
0.000473698
0.000473697
0.000473696
0.000473696
0.00094413
0.000852251
0.000777095
0.00071599
0.000666582
0.000626811
0.000594916
0.00056942
0.000549103
0.000532965
0.000520192
0.000510122
0.000502215
0.000496032
0.000491217
0.00048748
0.000484588
0.000482356
0.000480633
0.000479304
0.000478276
0.000477477
0.000476855
0.000476365
0.000475977
0.000475666
0.000475413
0.000475207
0.000475035
0.000474891
0.000474768
0.000474663
0.000474571
0.000474491
0.000474421
0.000474358
0.000474302
0.000474252
0.000474207
0.000474166
0.000474129
0.000474096
0.000474065
0.000474037
0.000474012
0.000473989
0.000473968
0.000473948
0.00047393
0.000473914
0.000473898
0.000473884
0.000473871
0.00047386
0.000473848
0.000473838
0.000473829
0.00047382
0.000473812
0.000473804
0.000473798
0.000473791
0.000473785
0.000473779
0.000473774
0.000473769
0.000473765
0.000473761
0.000473757
0.000473753
0.00047375
0.000473747
0.000473744
0.000473741
0.000473738
0.000473736
0.000473734
0.000473732
0.00047373
0.000473728
0.000473726
0.000473724
0.000473722
0.000473721
0.000473719
0.000473717
0.000473716
0.000473714
0.000473712
0.000473711
0.000473709
0.000473707
0.000473705
0.000473704
0.000473702
0.000473701
0.000473699
0.000473698
0.000473697
0.000473697
0.000944054
0.000852039
0.000776821
0.000715704
0.000666309
0.000626564
0.000594699
0.000569234
0.000548946
0.000532835
0.000520085
0.000510035
0.000502144
0.000495975
0.000491171
0.000487443
0.00048456
0.000482333
0.000480617
0.000479292
0.000478268
0.000477474
0.000476855
0.000476368
0.000475982
0.000475674
0.000475424
0.000475218
0.000475048
0.000474905
0.000474783
0.000474678
0.000474587
0.000474507
0.000474436
0.000474373
0.000474317
0.000474267
0.000474221
0.00047418
0.000474143
0.000474109
0.000474078
0.000474049
0.000474023
0.000474
0.000473978
0.000473958
0.000473939
0.000473922
0.000473907
0.000473892
0.000473879
0.000473867
0.000473855
0.000473845
0.000473835
0.000473826
0.000473817
0.00047381
0.000473802
0.000473796
0.000473789
0.000473784
0.000473778
0.000473773
0.000473768
0.000473764
0.00047376
0.000473756
0.000473753
0.000473749
0.000473746
0.000473743
0.000473741
0.000473738
0.000473736
0.000473734
0.000473731
0.000473729
0.000473728
0.000473726
0.000473724
0.000473722
0.00047372
0.000473719
0.000473717
0.000473715
0.000473714
0.000473712
0.00047371
0.000473708
0.000473707
0.000473705
0.000473703
0.000473701
0.0004737
0.000473699
0.000473698
0.000473697
0.000943997
0.00085187
0.000776586
0.000715442
0.000666048
0.000626319
0.000594479
0.000569042
0.000548781
0.000532695
0.000519969
0.000509938
0.000502064
0.000495908
0.000491115
0.000487397
0.000484521
0.000482302
0.000480591
0.000479272
0.000478253
0.000477463
0.000476848
0.000476365
0.000475982
0.000475677
0.000475429
0.000475226
0.000475057
0.000474915
0.000474795
0.00047469
0.0004746
0.00047452
0.00047445
0.000474387
0.000474331
0.00047428
0.000474235
0.000474193
0.000474155
0.000474121
0.000474089
0.000474061
0.000474034
0.00047401
0.000473988
0.000473967
0.000473948
0.000473931
0.000473915
0.0004739
0.000473886
0.000473874
0.000473862
0.000473851
0.000473841
0.000473831
0.000473823
0.000473815
0.000473807
0.0004738
0.000473794
0.000473788
0.000473782
0.000473777
0.000473772
0.000473767
0.000473763
0.000473759
0.000473755
0.000473752
0.000473749
0.000473746
0.000473743
0.00047374
0.000473738
0.000473736
0.000473733
0.000473731
0.000473729
0.000473727
0.000473726
0.000473724
0.000473722
0.00047372
0.000473718
0.000473717
0.000473715
0.000473713
0.000473711
0.000473709
0.000473708
0.000473706
0.000473704
0.000473702
0.000473701
0.000473699
0.000473698
0.000473698
0.000943951
0.000851731
0.000776383
0.000715207
0.000665805
0.000626086
0.000594264
0.00056885
0.000548614
0.000532552
0.000519846
0.000509834
0.000501975
0.000495832
0.00049105
0.000487341
0.000484473
0.000482261
0.000480556
0.000479243
0.000478229
0.000477444
0.000476834
0.000476355
0.000475976
0.000475673
0.000475429
0.000475228
0.000475062
0.000474922
0.000474802
0.000474699
0.00047461
0.000474531
0.000474461
0.000474398
0.000474342
0.000474292
0.000474246
0.000474204
0.000474166
0.000474132
0.0004741
0.000474071
0.000474044
0.000474019
0.000473997
0.000473976
0.000473957
0.000473939
0.000473922
0.000473907
0.000473893
0.00047388
0.000473868
0.000473857
0.000473846
0.000473837
0.000473828
0.000473819
0.000473811
0.000473804
0.000473798
0.000473791
0.000473785
0.00047378
0.000473775
0.00047377
0.000473766
0.000473762
0.000473758
0.000473754
0.000473751
0.000473748
0.000473745
0.000473742
0.00047374
0.000473737
0.000473735
0.000473733
0.000473731
0.000473729
0.000473727
0.000473725
0.000473723
0.000473721
0.00047372
0.000473718
0.000473716
0.000473714
0.000473712
0.00047371
0.000473708
0.000473707
0.000473705
0.000473703
0.000473701
0.0004737
0.000473699
0.000473699
0.000943914
0.000851613
0.000776207
0.000714997
0.000665583
0.000625867
0.000594059
0.000568664
0.00054845
0.000532408
0.000519721
0.000509726
0.000501881
0.000495751
0.000490979
0.000487279
0.000484418
0.000482213
0.000480514
0.000479207
0.000478198
0.000477419
0.000476812
0.000476338
0.000475963
0.000475664
0.000475423
0.000475225
0.000475061
0.000474923
0.000474805
0.000474704
0.000474616
0.000474538
0.000474469
0.000474407
0.000474351
0.000474301
0.000474255
0.000474213
0.000474175
0.000474141
0.000474109
0.000474079
0.000474052
0.000474027
0.000474004
0.000473983
0.000473964
0.000473946
0.000473929
0.000473913
0.000473899
0.000473886
0.000473873
0.000473862
0.000473851
0.000473841
0.000473832
0.000473823
0.000473815
0.000473808
0.000473801
0.000473795
0.000473789
0.000473783
0.000473778
0.000473773
0.000473769
0.000473764
0.00047376
0.000473757
0.000473753
0.00047375
0.000473747
0.000473744
0.000473742
0.000473739
0.000473737
0.000473734
0.000473732
0.00047373
0.000473728
0.000473726
0.000473724
0.000473723
0.000473721
0.000473719
0.000473717
0.000473715
0.000473713
0.000473711
0.000473709
0.000473707
0.000473705
0.000473704
0.000473702
0.000473701
0.0004737
0.000473699
0.000943881
0.000851512
0.000776053
0.00071481
0.000665381
0.000625665
0.000593867
0.000568487
0.00054829
0.000532267
0.000519597
0.000509616
0.000501785
0.000495665
0.000490903
0.00048721
0.000484357
0.000482158
0.000480466
0.000479164
0.000478161
0.000477386
0.000476785
0.000476315
0.000475944
0.000475649
0.000475411
0.000475216
0.000475055
0.00047492
0.000474804
0.000474705
0.000474618
0.000474541
0.000474473
0.000474412
0.000474357
0.000474307
0.000474262
0.00047422
0.000474182
0.000474147
0.000474116
0.000474086
0.000474059
0.000474034
0.000474011
0.000473989
0.00047397
0.000473951
0.000473934
0.000473919
0.000473904
0.000473891
0.000473878
0.000473866
0.000473855
0.000473845
0.000473836
0.000473827
0.000473819
0.000473811
0.000473804
0.000473798
0.000473791
0.000473786
0.00047378
0.000473775
0.000473771
0.000473766
0.000473762
0.000473759
0.000473755
0.000473752
0.000473749
0.000473746
0.000473743
0.00047374
0.000473738
0.000473736
0.000473733
0.000473731
0.000473729
0.000473727
0.000473725
0.000473724
0.000473722
0.00047372
0.000473718
0.000473716
0.000473714
0.000473712
0.00047371
0.000473708
0.000473706
0.000473704
0.000473703
0.000473701
0.0004737
0.0004737
0.000943854
0.000851425
0.000775917
0.000714643
0.000665199
0.00062548
0.000593688
0.000568321
0.000548138
0.00053213
0.000519475
0.000509507
0.000501687
0.000495577
0.000490823
0.000487138
0.000484292
0.000482099
0.000480412
0.000479115
0.000478117
0.000477348
0.000476751
0.000476286
0.00047592
0.000475628
0.000475394
0.000475203
0.000475045
0.000474912
0.000474799
0.000474701
0.000474616
0.000474541
0.000474474
0.000474414
0.000474359
0.00047431
0.000474265
0.000474224
0.000474187
0.000474152
0.00047412
0.000474091
0.000474064
0.000474039
0.000474016
0.000473994
0.000473974
0.000473956
0.000473939
0.000473923
0.000473908
0.000473895
0.000473882
0.00047387
0.000473859
0.000473849
0.000473839
0.00047383
0.000473822
0.000473814
0.000473807
0.0004738
0.000473794
0.000473788
0.000473782
0.000473777
0.000473773
0.000473768
0.000473764
0.00047376
0.000473756
0.000473753
0.00047375
0.000473747
0.000473744
0.000473741
0.000473739
0.000473737
0.000473734
0.000473732
0.00047373
0.000473728
0.000473726
0.000473724
0.000473722
0.00047372
0.000473718
0.000473716
0.000473714
0.000473712
0.00047371
0.000473709
0.000473707
0.000473705
0.000473703
0.000473702
0.000473701
0.0004737
0.00094383
0.000851348
0.000775798
0.000714495
0.000665035
0.000625311
0.000593524
0.000568166
0.000547995
0.000532
0.000519357
0.000509401
0.000501591
0.000495489
0.000490743
0.000487064
0.000484223
0.000482036
0.000480354
0.000479063
0.00047807
0.000477305
0.000476713
0.000476252
0.00047589
0.000475603
0.000475373
0.000475185
0.00047503
0.0004749
0.000474789
0.000474694
0.000474611
0.000474537
0.000474472
0.000474413
0.000474359
0.000474311
0.000474267
0.000474226
0.000474189
0.000474155
0.000474124
0.000474094
0.000474067
0.000474042
0.000474019
0.000473998
0.000473978
0.000473959
0.000473942
0.000473926
0.000473911
0.000473898
0.000473885
0.000473873
0.000473862
0.000473851
0.000473841
0.000473832
0.000473824
0.000473816
0.000473809
0.000473802
0.000473796
0.00047379
0.000473784
0.000473779
0.000473774
0.000473769
0.000473765
0.000473761
0.000473758
0.000473754
0.000473751
0.000473748
0.000473745
0.000473742
0.00047374
0.000473737
0.000473735
0.000473733
0.000473731
0.000473729
0.000473727
0.000473725
0.000473723
0.000473721
0.000473719
0.000473717
0.000473715
0.000473713
0.000473711
0.000473709
0.000473707
0.000473705
0.000473704
0.000473702
0.000473701
0.0004737
0.000943809
0.00085128
0.000775692
0.000714362
0.000664886
0.000625158
0.000593373
0.000568022
0.000547861
0.000531877
0.000519244
0.000509298
0.000501496
0.000495402
0.000490662
0.000486989
0.000484154
0.000481971
0.000480294
0.000479007
0.000478019
0.000477259
0.000476671
0.000476215
0.000475857
0.000475574
0.000475348
0.000475163
0.000475011
0.000474884
0.000474776
0.000474683
0.000474602
0.00047453
0.000474467
0.000474409
0.000474357
0.00047431
0.000474266
0.000474226
0.00047419
0.000474156
0.000474125
0.000474096
0.000474069
0.000474044
0.000474021
0.000474
0.00047398
0.000473962
0.000473945
0.000473929
0.000473914
0.0004739
0.000473887
0.000473875
0.000473864
0.000473853
0.000473843
0.000473834
0.000473826
0.000473818
0.00047381
0.000473803
0.000473797
0.000473791
0.000473785
0.00047378
0.000473775
0.00047377
0.000473766
0.000473762
0.000473758
0.000473755
0.000473752
0.000473748
0.000473746
0.000473743
0.00047374
0.000473738
0.000473735
0.000473733
0.000473731
0.000473729
0.000473727
0.000473725
0.000473723
0.000473721
0.000473719
0.000473717
0.000473715
0.000473713
0.000473711
0.000473709
0.000473707
0.000473705
0.000473704
0.000473702
0.000473701
0.000473701
0.00094379
0.00085122
0.000775597
0.000714242
0.000664753
0.000625018
0.000593234
0.000567889
0.000547736
0.000531761
0.000519138
0.000509199
0.000501405
0.000495317
0.000490583
0.000486915
0.000484084
0.000481905
0.000480233
0.00047895
0.000477966
0.00047721
0.000476627
0.000476175
0.000475822
0.000475542
0.000475319
0.000475139
0.00047499
0.000474866
0.000474761
0.00047467
0.000474591
0.000474521
0.000474459
0.000474403
0.000474352
0.000474306
0.000474263
0.000474225
0.000474189
0.000474155
0.000474125
0.000474096
0.00047407
0.000474045
0.000474022
0.000474001
0.000473981
0.000473963
0.000473946
0.00047393
0.000473915
0.000473901
0.000473888
0.000473876
0.000473865
0.000473854
0.000473844
0.000473835
0.000473827
0.000473819
0.000473811
0.000473804
0.000473798
0.000473792
0.000473786
0.000473781
0.000473776
0.000473771
0.000473767
0.000473763
0.000473759
0.000473755
0.000473752
0.000473749
0.000473746
0.000473743
0.00047374
0.000473738
0.000473736
0.000473733
0.000473731
0.000473729
0.000473727
0.000473725
0.000473723
0.000473721
0.000473719
0.000473717
0.000473715
0.000473713
0.000473711
0.000473709
0.000473707
0.000473705
0.000473704
0.000473702
0.000473701
0.000473701
0.000943774
0.000851167
0.000775512
0.000714135
0.000664632
0.000624892
0.000593108
0.000567766
0.000547621
0.000531653
0.000519037
0.000509106
0.000501318
0.000495235
0.000490505
0.000486842
0.000484014
0.00048184
0.000480171
0.000478892
0.000477912
0.00047716
0.000476581
0.000476133
0.000475784
0.000475509
0.000475289
0.000475112
0.000474967
0.000474845
0.000474743
0.000474655
0.000474578
0.00047451
0.00047445
0.000474395
0.000474346
0.0004743
0.000474259
0.000474221
0.000474186
0.000474153
0.000474123
0.000474095
0.000474069
0.000474045
0.000474022
0.000474001
0.000473981
0.000473963
0.000473946
0.00047393
0.000473915
0.000473902
0.000473889
0.000473877
0.000473865
0.000473855
0.000473845
0.000473836
0.000473827
0.000473819
0.000473812
0.000473805
0.000473798
0.000473792
0.000473786
0.000473781
0.000473776
0.000473771
0.000473767
0.000473763
0.000473759
0.000473755
0.000473752
0.000473749
0.000473746
0.000473743
0.00047374
0.000473738
0.000473736
0.000473733
0.000473731
0.000473729
0.000473727
0.000473725
0.000473723
0.000473721
0.000473719
0.000473717
0.000473715
0.000473713
0.000473711
0.000473709
0.000473707
0.000473705
0.000473704
0.000473702
0.000473701
0.000473701
0.000943758
0.000851119
0.000775437
0.000714039
0.000664523
0.000624776
0.000592992
0.000567654
0.000547514
0.000531552
0.000518943
0.000509017
0.000501235
0.000495157
0.000490431
0.000486771
0.000483947
0.000481776
0.00048011
0.000478835
0.000477858
0.00047711
0.000476535
0.000476091
0.000475745
0.000475473
0.000475257
0.000475084
0.000474941
0.000474823
0.000474723
0.000474638
0.000474563
0.000474497
0.000474438
0.000474385
0.000474337
0.000474293
0.000474253
0.000474216
0.000474182
0.00047415
0.00047412
0.000474093
0.000474067
0.000474043
0.000474021
0.000474
0.000473981
0.000473963
0.000473946
0.00047393
0.000473915
0.000473902
0.000473889
0.000473877
0.000473865
0.000473855
0.000473845
0.000473836
0.000473827
0.000473819
0.000473812
0.000473805
0.000473798
0.000473792
0.000473786
0.000473781
0.000473776
0.000473771
0.000473767
0.000473763
0.000473759
0.000473755
0.000473752
0.000473749
0.000473746
0.000473743
0.00047374
0.000473738
0.000473735
0.000473733
0.000473731
0.000473729
0.000473727
0.000473725
0.000473723
0.000473721
0.000473719
0.000473717
0.000473715
0.000473713
0.000473711
0.000473709
0.000473707
0.000473705
0.000473704
0.000473702
0.000473701
0.000473701
0.000943745
0.000851076
0.000775368
0.000713952
0.000664423
0.000624671
0.000592886
0.00056755
0.000547415
0.000531459
0.000518855
0.000508935
0.000501157
0.000495083
0.00049036
0.000486703
0.000483882
0.000481713
0.000480051
0.000478778
0.000477805
0.00047706
0.000476489
0.000476048
0.000475705
0.000475437
0.000475225
0.000475054
0.000474915
0.0004748
0.000474702
0.000474619
0.000474547
0.000474483
0.000474426
0.000474375
0.000474328
0.000474285
0.000474246
0.00047421
0.000474176
0.000474145
0.000474116
0.000474089
0.000474064
0.000474041
0.000474019
0.000473998
0.000473979
0.000473961
0.000473945
0.000473929
0.000473915
0.000473901
0.000473888
0.000473876
0.000473865
0.000473855
0.000473845
0.000473836
0.000473827
0.000473819
0.000473812
0.000473805
0.000473798
0.000473792
0.000473786
0.000473781
0.000473776
0.000473771
0.000473767
0.000473762
0.000473759
0.000473755
0.000473751
0.000473748
0.000473745
0.000473742
0.00047374
0.000473737
0.000473735
0.000473733
0.00047373
0.000473728
0.000473726
0.000473724
0.000473722
0.00047372
0.000473718
0.000473716
0.000473714
0.000473712
0.00047371
0.000473709
0.000473707
0.000473705
0.000473703
0.000473702
0.000473701
0.0004737
0.000943733
0.000851037
0.000775307
0.000713873
0.000664333
0.000624576
0.000592789
0.000567455
0.000547323
0.000531372
0.000518773
0.000508857
0.000501083
0.000495013
0.000490293
0.000486639
0.00048382
0.000481654
0.000479994
0.000478724
0.000477753
0.000477011
0.000476443
0.000476005
0.000475666
0.000475401
0.000475192
0.000475024
0.000474888
0.000474775
0.000474681
0.0004746
0.00047453
0.000474468
0.000474413
0.000474363
0.000474318
0.000474276
0.000474238
0.000474203
0.00047417
0.00047414
0.000474112
0.000474085
0.000474061
0.000474038
0.000474016
0.000473996
0.000473977
0.00047396
0.000473943
0.000473928
0.000473913
0.0004739
0.000473887
0.000473875
0.000473864
0.000473854
0.000473844
0.000473835
0.000473826
0.000473818
0.000473811
0.000473804
0.000473797
0.000473791
0.000473786
0.00047378
0.000473775
0.00047377
0.000473766
0.000473762
0.000473758
0.000473754
0.000473751
0.000473748
0.000473745
0.000473742
0.000473739
0.000473737
0.000473734
0.000473732
0.00047373
0.000473728
0.000473726
0.000473724
0.000473722
0.00047372
0.000473718
0.000473716
0.000473714
0.000473712
0.00047371
0.000473708
0.000473706
0.000473705
0.000473703
0.000473702
0.000473701
0.0004737
0.000943722
0.000851002
0.000775251
0.000713801
0.000664251
0.000624488
0.0005927
0.000567368
0.000547239
0.000531292
0.000518697
0.000508785
0.000501015
0.000494947
0.00049023
0.000486578
0.000483761
0.000481597
0.000479939
0.000478671
0.000477703
0.000476964
0.000476398
0.000475963
0.000475627
0.000475366
0.000475159
0.000474994
0.000474861
0.000474751
0.000474659
0.00047458
0.000474512
0.000474452
0.000474398
0.00047435
0.000474307
0.000474266
0.000474229
0.000474195
0.000474164
0.000474134
0.000474106
0.000474081
0.000474057
0.000474034
0.000474013
0.000473993
0.000473975
0.000473957
0.000473941
0.000473926
0.000473912
0.000473898
0.000473886
0.000473874
0.000473863
0.000473853
0.000473843
0.000473834
0.000473826
0.000473818
0.00047381
0.000473803
0.000473797
0.000473791
0.000473785
0.000473779
0.000473774
0.00047377
0.000473765
0.000473761
0.000473757
0.000473754
0.00047375
0.000473747
0.000473744
0.000473741
0.000473738
0.000473736
0.000473734
0.000473731
0.000473729
0.000473727
0.000473725
0.000473723
0.000473721
0.000473719
0.000473717
0.000473715
0.000473713
0.000473711
0.000473709
0.000473708
0.000473706
0.000473704
0.000473703
0.000473701
0.0004737
0.0004737
0.000943712
0.000850971
0.0007752
0.000713736
0.000664176
0.000624408
0.000592618
0.000567287
0.000547161
0.000531217
0.000518627
0.000508718
0.000500951
0.000494886
0.000490171
0.00048652
0.000483705
0.000481543
0.000479887
0.000478621
0.000477655
0.000476918
0.000476355
0.000475923
0.00047559
0.000475331
0.000475127
0.000474965
0.000474834
0.000474727
0.000474637
0.00047456
0.000474494
0.000474436
0.000474384
0.000474337
0.000474295
0.000474256
0.00047422
0.000474187
0.000474156
0.000474128
0.000474101
0.000474076
0.000474052
0.00047403
0.000474009
0.00047399
0.000473972
0.000473955
0.000473939
0.000473924
0.00047391
0.000473896
0.000473884
0.000473872
0.000473862
0.000473851
0.000473842
0.000473833
0.000473824
0.000473816
0.000473809
0.000473802
0.000473796
0.00047379
0.000473784
0.000473778
0.000473773
0.000473769
0.000473764
0.00047376
0.000473756
0.000473753
0.000473749
0.000473746
0.000473743
0.00047374
0.000473738
0.000473735
0.000473733
0.00047373
0.000473728
0.000473726
0.000473724
0.000473722
0.00047372
0.000473718
0.000473716
0.000473714
0.000473713
0.000473711
0.000473709
0.000473707
0.000473705
0.000473704
0.000473702
0.000473701
0.0004737
0.000473699
0.000943702
0.000850942
0.000775154
0.000713676
0.000664108
0.000624334
0.000592543
0.000567213
0.00054709
0.000531149
0.000518561
0.000508656
0.000500891
0.000494829
0.000490115
0.000486466
0.000483653
0.000481492
0.000479837
0.000478573
0.00047761
0.000476875
0.000476314
0.000475884
0.000475553
0.000475297
0.000475096
0.000474936
0.000474808
0.000474702
0.000474615
0.00047454
0.000474476
0.00047442
0.00047437
0.000474324
0.000474283
0.000474246
0.000474211
0.000474179
0.000474149
0.000474121
0.000474095
0.00047407
0.000474047
0.000474026
0.000474005
0.000473986
0.000473969
0.000473952
0.000473936
0.000473921
0.000473907
0.000473894
0.000473882
0.000473871
0.00047386
0.00047385
0.00047384
0.000473831
0.000473823
0.000473815
0.000473808
0.000473801
0.000473794
0.000473788
0.000473783
0.000473777
0.000473772
0.000473768
0.000473763
0.000473759
0.000473755
0.000473752
0.000473748
0.000473745
0.000473742
0.000473739
0.000473737
0.000473734
0.000473732
0.000473729
0.000473727
0.000473725
0.000473723
0.000473721
0.000473719
0.000473717
0.000473716
0.000473714
0.000473712
0.00047371
0.000473708
0.000473706
0.000473705
0.000473703
0.000473702
0.0004737
0.0004737
0.000473699
0.000943694
0.000850916
0.000775112
0.000713622
0.000664045
0.000624267
0.000592474
0.000567145
0.000547023
0.000531085
0.000518501
0.000508598
0.000500836
0.000494775
0.000490064
0.000486416
0.000483604
0.000481444
0.000479791
0.000478528
0.000477566
0.000476833
0.000476274
0.000475847
0.000475518
0.000475264
0.000475065
0.000474908
0.000474782
0.000474679
0.000474593
0.000474521
0.000474458
0.000474404
0.000474355
0.000474311
0.000474272
0.000474235
0.000474201
0.00047417
0.000474141
0.000474114
0.000474088
0.000474064
0.000474042
0.000474021
0.000474001
0.000473983
0.000473965
0.000473949
0.000473933
0.000473919
0.000473905
0.000473892
0.00047388
0.000473869
0.000473858
0.000473848
0.000473839
0.00047383
0.000473822
0.000473814
0.000473806
0.0004738
0.000473793
0.000473787
0.000473781
0.000473776
0.000473771
0.000473767
0.000473762
0.000473758
0.000473754
0.000473751
0.000473747
0.000473744
0.000473741
0.000473738
0.000473736
0.000473733
0.000473731
0.000473728
0.000473726
0.000473724
0.000473722
0.00047372
0.000473718
0.000473716
0.000473715
0.000473713
0.000473711
0.000473709
0.000473707
0.000473706
0.000473704
0.000473702
0.000473701
0.0004737
0.000473699
0.000473698
0.000943686
0.000850892
0.000775074
0.000713572
0.000663987
0.000624205
0.00059241
0.000567082
0.000546962
0.000531027
0.000518445
0.000508545
0.000500785
0.000494726
0.000490016
0.000486369
0.000483558
0.000481399
0.000479747
0.000478486
0.000477525
0.000476794
0.000476237
0.000475811
0.000475485
0.000475233
0.000475036
0.000474881
0.000474757
0.000474656
0.000474572
0.000474502
0.000474441
0.000474388
0.000474341
0.000474298
0.00047426
0.000474225
0.000474192
0.000474162
0.000474133
0.000474107
0.000474082
0.000474059
0.000474037
0.000474016
0.000473997
0.000473979
0.000473961
0.000473945
0.00047393
0.000473916
0.000473902
0.00047389
0.000473878
0.000473867
0.000473856
0.000473846
0.000473837
0.000473828
0.00047382
0.000473812
0.000473805
0.000473798
0.000473792
0.000473786
0.00047378
0.000473775
0.00047377
0.000473765
0.000473761
0.000473757
0.000473753
0.000473749
0.000473746
0.000473743
0.00047374
0.000473737
0.000473734
0.000473732
0.00047373
0.000473727
0.000473725
0.000473723
0.000473721
0.000473719
0.000473717
0.000473716
0.000473714
0.000473712
0.00047371
0.000473708
0.000473707
0.000473705
0.000473703
0.000473702
0.000473701
0.000473699
0.000473698
0.000473698
0.000943679
0.00085087
0.000775038
0.000713526
0.000663934
0.000624147
0.000592352
0.000567023
0.000546905
0.000530972
0.000518393
0.000508496
0.000500737
0.00049468
0.000489971
0.000486326
0.000483516
0.000481358
0.000479707
0.000478447
0.000477487
0.000476757
0.000476202
0.000475778
0.000475453
0.000475203
0.000475008
0.000474855
0.000474733
0.000474634
0.000474552
0.000474483
0.000474424
0.000474372
0.000474327
0.000474286
0.000474248
0.000474214
0.000474182
0.000474153
0.000474125
0.0004741
0.000474076
0.000474053
0.000474032
0.000474011
0.000473992
0.000473975
0.000473958
0.000473942
0.000473927
0.000473913
0.0004739
0.000473887
0.000473875
0.000473864
0.000473854
0.000473844
0.000473835
0.000473826
0.000473818
0.000473811
0.000473803
0.000473797
0.00047379
0.000473784
0.000473779
0.000473774
0.000473769
0.000473764
0.00047376
0.000473756
0.000473752
0.000473748
0.000473745
0.000473742
0.000473739
0.000473736
0.000473733
0.000473731
0.000473728
0.000473726
0.000473724
0.000473722
0.00047372
0.000473718
0.000473716
0.000473715
0.000473713
0.000473711
0.000473709
0.000473708
0.000473706
0.000473704
0.000473703
0.000473701
0.0004737
0.000473699
0.000473698
0.000473697
0.000943673
0.00085085
0.000775006
0.000713484
0.000663885
0.000624095
0.000592297
0.000566969
0.000546853
0.000530922
0.000518345
0.00050845
0.000500693
0.000494638
0.00048993
0.000486286
0.000483476
0.000481319
0.000479669
0.00047841
0.000477451
0.000476723
0.000476168
0.000475746
0.000475423
0.000475175
0.000474982
0.00047483
0.00047471
0.000474613
0.000474532
0.000474465
0.000474407
0.000474357
0.000474313
0.000474273
0.000474237
0.000474204
0.000474173
0.000474144
0.000474118
0.000474093
0.000474069
0.000474047
0.000474026
0.000474007
0.000473988
0.000473971
0.000473954
0.000473939
0.000473924
0.00047391
0.000473897
0.000473885
0.000473873
0.000473862
0.000473852
0.000473842
0.000473833
0.000473825
0.000473817
0.000473809
0.000473802
0.000473795
0.000473789
0.000473783
0.000473777
0.000473772