/*--------------------------------*- C++ -*----------------------------------*\
  =========                 |
  \\      /  F ield         | OpenFOAM: The Open Source CFD Toolbox
   \\    /   O peration     | Website:  https://openfoam.org
    \\  /    A nd           | Version:  11
     \\/     M anipulation  |
\*---------------------------------------------------------------------------*/
FoamFile
{
    format      ascii;
    class       volVectorField;
    location    "850";
    object      U;
}
// * * * * * * * * * * * * * * * * * * * * * * * * * * * * * * * * * * * * * //

dimensions      [0 1 -1 0 0 0 0];

internalField   nonuniform List<vector> 
10000
(
(0.005 -3.80243e-09 0)
(0.005 -1.00829e-08 0)
(0.005 -1.58176e-08 0)
(0.00499999 -2.13156e-08 0)
(0.00499999 -2.67744e-08 0)
(0.00499999 -3.23385e-08 0)
(0.00499999 -3.81158e-08 0)
(0.00499998 -4.41945e-08 0)
(0.00499998 -5.06509e-08 0)
(0.00499997 -5.75554e-08 0)
(0.00499997 -6.49752e-08 0)
(0.00499996 -7.29771e-08 0)
(0.00499996 -8.16279e-08 0)
(0.00499995 -9.09966e-08 0)
(0.00499994 -1.01154e-07 0)
(0.00499993 -1.12175e-07 0)
(0.00499992 -1.24136e-07 0)
(0.00499991 -1.37119e-07 0)
(0.0049999 -1.51212e-07 0)
(0.00499989 -1.66503e-07 0)
(0.00499988 -1.83091e-07 0)
(0.00499987 -2.01076e-07 0)
(0.00499985 -2.20566e-07 0)
(0.00499983 -2.41676e-07 0)
(0.00499982 -2.64526e-07 0)
(0.0049998 -2.89243e-07 0)
(0.00499978 -3.15964e-07 0)
(0.00499976 -3.44829e-07 0)
(0.00499973 -3.75991e-07 0)
(0.00499971 -4.09609e-07 0)
(0.00499968 -4.45849e-07 0)
(0.00499965 -4.8489e-07 0)
(0.00499962 -5.26917e-07 0)
(0.00499958 -5.72127e-07 0)
(0.00499955 -6.20725e-07 0)
(0.00499951 -6.72929e-07 0)
(0.00499947 -7.28966e-07 0)
(0.00499943 -7.89074e-07 0)
(0.00499938 -8.53504e-07 0)
(0.00499933 -9.22518e-07 0)
(0.00499928 -9.96388e-07 0)
(0.00499922 -1.0754e-06 0)
(0.00499916 -1.15986e-06 0)
(0.00499909 -1.25006e-06 0)
(0.00499903 -1.34635e-06 0)
(0.00499895 -1.44905e-06 0)
(0.00499888 -1.55851e-06 0)
(0.0049988 -1.67511e-06 0)
(0.00499871 -1.79921e-06 0)
(0.00499862 -1.93122e-06 0)
(0.00499852 -2.07153e-06 0)
(0.00499842 -2.22056e-06 0)
(0.00499831 -2.37874e-06 0)
(0.0049982 -2.54653e-06 0)
(0.00499807 -2.72438e-06 0)
(0.00499795 -2.91275e-06 0)
(0.00499781 -3.11214e-06 0)
(0.00499767 -3.32303e-06 0)
(0.00499752 -3.54593e-06 0)
(0.00499737 -3.78136e-06 0)
(0.0049972 -4.02983e-06 0)
(0.00499703 -4.29188e-06 0)
(0.00499685 -4.56805e-06 0)
(0.00499666 -4.85887e-06 0)
(0.00499646 -5.16489e-06 0)
(0.00499625 -5.48665e-06 0)
(0.00499603 -5.82469e-06 0)
(0.00499581 -6.17955e-06 0)
(0.00499557 -6.55175e-06 0)
(0.00499532 -6.94181e-06 0)
(0.00499506 -7.3502e-06 0)
(0.00499479 -7.7774e-06 0)
(0.00499451 -8.22383e-06 0)
(0.00499422 -8.6899e-06 0)
(0.00499392 -9.17594e-06 0)
(0.00499361 -9.68222e-06 0)
(0.00499329 -1.02089e-05 0)
(0.00499295 -1.07562e-05 0)
(0.00499261 -1.1324e-05 0)
(0.00499226 -1.19122e-05 0)
(0.00499189 -1.25204e-05 0)
(0.00499152 -1.31482e-05 0)
(0.00499114 -1.37947e-05 0)
(0.00499076 -1.44589e-05 0)
(0.00499036 -1.51392e-05 0)
(0.00498997 -1.58339e-05 0)
(0.00498956 -1.65404e-05 0)
(0.00498916 -1.72557e-05 0)
(0.00498875 -1.79758e-05 0)
(0.00498835 -1.8696e-05 0)
(0.00498796 -1.94102e-05 0)
(0.00498757 -2.01112e-05 0)
(0.00498719 -2.079e-05 0)
(0.00498683 -2.14359e-05 0)
(0.00498649 -2.2036e-05 0)
(0.00498617 -2.25751e-05 0)
(0.00498589 -2.30355e-05 0)
(0.00498565 -2.33969e-05 0)
(0.00498546 -2.36404e-05 0)
(0.0049853 -2.37644e-05 0)
(0.005 -2.97401e-09 0)
(0.005 -8.52249e-09 0)
(0.005 -1.378e-08 0)
(0.005 -1.88405e-08 0)
(0.00499999 -2.38675e-08 0)
(0.00499999 -2.89882e-08 0)
(0.00499999 -3.43013e-08 0)
(0.00499998 -3.9889e-08 0)
(0.00499998 -4.58233e-08 0)
(0.00499997 -5.21709e-08 0)
(0.00499997 -5.89959e-08 0)
(0.00499996 -6.63615e-08 0)
(0.00499996 -7.43317e-08 0)
(0.00499995 -8.29719e-08 0)
(0.00499994 -9.235e-08 0)
(0.00499993 -1.02537e-07 0)
(0.00499992 -1.13606e-07 0)
(0.00499992 -1.25636e-07 0)
(0.0049999 -1.3871e-07 0)
(0.00499989 -1.52914e-07 0)
(0.00499988 -1.6834e-07 0)
(0.00499987 -1.85086e-07 0)
(0.00499985 -2.03255e-07 0)
(0.00499983 -2.22957e-07 0)
(0.00499982 -2.44308e-07 0)
(0.0049998 -2.6743e-07 0)
(0.00499978 -2.92453e-07 0)
(0.00499976 -3.19515e-07 0)
(0.00499973 -3.48761e-07 0)
(0.00499971 -3.80344e-07 0)
(0.00499968 -4.14425e-07 0)
(0.00499965 -4.51177e-07 0)
(0.00499962 -4.90779e-07 0)
(0.00499959 -5.3342e-07 0)
(0.00499955 -5.79301e-07 0)
(0.00499951 -6.28631e-07 0)
(0.00499947 -6.8163e-07 0)
(0.00499943 -7.3853e-07 0)
(0.00499938 -7.99573e-07 0)
(0.00499933 -8.65015e-07 0)
(0.00499928 -9.3512e-07 0)
(0.00499922 -1.01017e-06 0)
(0.00499916 -1.09045e-06 0)
(0.0049991 -1.17627e-06 0)
(0.00499903 -1.26794e-06 0)
(0.00499896 -1.36579e-06 0)
(0.00499888 -1.47017e-06 0)
(0.0049988 -1.58143e-06 0)
(0.00499871 -1.69994e-06 0)
(0.00499862 -1.82609e-06 0)
(0.00499853 -1.96028e-06 0)
(0.00499842 -2.10291e-06 0)
(0.00499832 -2.25441e-06 0)
(0.0049982 -2.41523e-06 0)
(0.00499808 -2.5858e-06 0)
(0.00499796 -2.76661e-06 0)
(0.00499782 -2.95812e-06 0)
(0.00499768 -3.16083e-06 0)
(0.00499753 -3.37523e-06 0)
(0.00499738 -3.60185e-06 0)
(0.00499721 -3.84121e-06 0)
(0.00499704 -4.09383e-06 0)
(0.00499686 -4.36025e-06 0)
(0.00499667 -4.64104e-06 0)
(0.00499647 -4.93672e-06 0)
(0.00499627 -5.24786e-06 0)
(0.00499605 -5.57502e-06 0)
(0.00499582 -5.91873e-06 0)
(0.00499559 -6.27955e-06 0)
(0.00499534 -6.65801e-06 0)
(0.00499508 -7.05463e-06 0)
(0.00499481 -7.46991e-06 0)
(0.00499453 -7.90433e-06 0)
(0.00499424 -8.35831e-06 0)
(0.00499394 -8.83226e-06 0)
(0.00499363 -9.32651e-06 0)
(0.00499331 -9.84135e-06 0)
(0.00499298 -1.03769e-05 0)
(0.00499264 -1.09334e-05 0)
(0.00499229 -1.15107e-05 0)
(0.00499192 -1.21085e-05 0)
(0.00499155 -1.27266e-05 0)
(0.00499118 -1.33643e-05 0)
(0.00499079 -1.40207e-05 0)
(0.0049904 -1.46946e-05 0)
(0.00499 -1.53842e-05 0)
(0.0049896 -1.60875e-05 0)
(0.00498919 -1.68016e-05 0)
(0.00498879 -1.75229e-05 0)
(0.00498839 -1.82471e-05 0)
(0.00498799 -1.89686e-05 0)
(0.0049876 -1.96805e-05 0)
(0.00498722 -2.03745e-05 0)
(0.00498686 -2.10405e-05 0)
(0.00498652 -2.16663e-05 0)
(0.0049862 -2.22375e-05 0)
(0.00498591 -2.27373e-05 0)
(0.00498566 -2.31463e-05 0)
(0.00498543 -2.34439e-05 0)
(0.00498524 -2.36166e-05 0)
(0.005 -2.31073e-09 0)
(0.005 -7.0725e-09 0)
(0.005 -1.17782e-08 0)
(0.005 -1.6378e-08 0)
(0.00499999 -2.09683e-08 0)
(0.00499999 -2.56494e-08 0)
(0.00499999 -3.05063e-08 0)
(0.00499998 -3.56135e-08 0)
(0.00499998 -4.10379e-08 0)
(0.00499997 -4.68422e-08 0)
(0.00499997 -5.30871e-08 0)
(0.00499996 -5.98326e-08 0)
(0.00499996 -6.71396e-08 0)
(0.00499995 -7.50705e-08 0)
(0.00499994 -8.36899e-08 0)
(0.00499993 -9.30652e-08 0)
(0.00499993 -1.03267e-07 0)
(0.00499992 -1.1437e-07 0)
(0.00499991 -1.26454e-07 0)
(0.00499989 -1.396e-07 0)
(0.00499988 -1.53898e-07 0)
(0.00499987 -1.69441e-07 0)
(0.00499985 -1.86328e-07 0)
(0.00499984 -2.04664e-07 0)
(0.00499982 -2.2456e-07 0)
(0.0049998 -2.46134e-07 0)
(0.00499978 -2.69512e-07 0)
(0.00499976 -2.94824e-07 0)
(0.00499974 -3.22212e-07 0)
(0.00499971 -3.51823e-07 0)
(0.00499968 -3.83813e-07 0)
(0.00499965 -4.18348e-07 0)
(0.00499962 -4.55601e-07 0)
(0.00499959 -4.95755e-07 0)
(0.00499956 -5.39005e-07 0)
(0.00499952 -5.85552e-07 0)
(0.00499948 -6.35611e-07 0)
(0.00499943 -6.89407e-07 0)
(0.00499939 -7.47174e-07 0)
(0.00499934 -8.0916e-07 0)
(0.00499928 -8.75624e-07 0)
(0.00499923 -9.46837e-07 0)
(0.00499917 -1.02308e-06 0)
(0.00499911 -1.10465e-06 0)
(0.00499904 -1.19186e-06 0)
(0.00499897 -1.28503e-06 0)
(0.00499889 -1.3845e-06 0)
(0.00499881 -1.49061e-06 0)
(0.00499873 -1.60372e-06 0)
(0.00499864 -1.72422e-06 0)
(0.00499854 -1.85249e-06 0)
(0.00499844 -1.98894e-06 0)
(0.00499833 -2.13399e-06 0)
(0.00499822 -2.28807e-06 0)
(0.0049981 -2.45163e-06 0)
(0.00499797 -2.62513e-06 0)
(0.00499784 -2.80904e-06 0)
(0.0049977 -3.00385e-06 0)
(0.00499755 -3.21006e-06 0)
(0.0049974 -3.42819e-06 0)
(0.00499724 -3.65875e-06 0)
(0.00499707 -3.90227e-06 0)
(0.00499689 -4.15931e-06 0)
(0.0049967 -4.43041e-06 0)
(0.0049965 -4.71613e-06 0)
(0.0049963 -5.01704e-06 0)
(0.00499608 -5.33369e-06 0)
(0.00499586 -5.66666e-06 0)
(0.00499562 -6.01651e-06 0)
(0.00499537 -6.3838e-06 0)
(0.00499512 -6.76908e-06 0)
(0.00499485 -7.17287e-06 0)
(0.00499458 -7.59569e-06 0)
(0.00499429 -8.03803e-06 0)
(0.00499399 -8.50033e-06 0)
(0.00499368 -8.98299e-06 0)
(0.00499336 -9.48636e-06 0)
(0.00499303 -1.00107e-05 0)
(0.00499269 -1.05562e-05 0)
(0.00499234 -1.11229e-05 0)
(0.00499198 -1.17107e-05 0)
(0.00499161 -1.23195e-05 0)
(0.00499124 -1.29486e-05 0)
(0.00499085 -1.35975e-05 0)
(0.00499046 -1.42649e-05 0)
(0.00499006 -1.49496e-05 0)
(0.00498966 -1.56496e-05 0)
(0.00498926 -1.63623e-05 0)
(0.00498886 -1.70846e-05 0)
(0.00498846 -1.78123e-05 0)
(0.00498806 -1.85402e-05 0)
(0.00498767 -1.92621e-05 0)
(0.00498729 -1.99699e-05 0)
(0.00498692 -2.0654e-05 0)
(0.00498657 -2.13027e-05 0)
(0.00498624 -2.1902e-05 0)
(0.00498594 -2.24352e-05 0)
(0.00498566 -2.28823e-05 0)
(0.00498541 -2.32216e-05 0)
(0.00498516 -2.34335e-05 0)
(0.005 -1.85371e-09 0)
(0.005 -5.91229e-09 0)
(0.005 -1.00662e-08 0)
(0.005 -1.42023e-08 0)
(0.00499999 -1.83676e-08 0)
(0.00499999 -2.26333e-08 0)
(0.00499999 -2.70678e-08 0)
(0.00499998 -3.17351e-08 0)
(0.00499998 -3.66956e-08 0)
(0.00499998 -4.20073e-08 0)
(0.00499997 -4.77271e-08 0)
(0.00499996 -5.39119e-08 0)
(0.00499996 -6.06194e-08 0)
(0.00499995 -6.7909e-08 0)
(0.00499994 -7.58424e-08 0)
(0.00499994 -8.4484e-08 0)
(0.00499993 -9.39015e-08 0)
(0.00499992 -1.04166e-07 0)
(0.00499991 -1.15354e-07 0)
(0.0049999 -1.27543e-07 0)
(0.00499988 -1.4082e-07 0)
(0.00499987 -1.55274e-07 0)
(0.00499985 -1.71e-07 0)
(0.00499984 -1.88099e-07 0)
(0.00499982 -2.06677e-07 0)
(0.0049998 -2.2685e-07 0)
(0.00499978 -2.48736e-07 0)
(0.00499976 -2.72465e-07 0)
(0.00499974 -2.98169e-07 0)
(0.00499971 -3.25994e-07 0)
(0.00499969 -3.56089e-07 0)
(0.00499966 -3.88614e-07 0)
(0.00499963 -4.23738e-07 0)
(0.0049996 -4.61638e-07 0)
(0.00499956 -5.02502e-07 0)
(0.00499952 -5.46527e-07 0)
(0.00499948 -5.9392e-07 0)
(0.00499944 -6.44901e-07 0)
(0.00499939 -6.99697e-07 0)
(0.00499935 -7.58549e-07 0)
(0.00499929 -8.21711e-07 0)
(0.00499924 -8.89445e-07 0)
(0.00499918 -9.62029e-07 0)
(0.00499912 -1.03975e-06 0)
(0.00499905 -1.12291e-06 0)
(0.00499898 -1.21183e-06 0)
(0.00499891 -1.30684e-06 0)
(0.00499883 -1.40827e-06 0)
(0.00499874 -1.51648e-06 0)
(0.00499865 -1.63184e-06 0)
(0.00499856 -1.75475e-06 0)
(0.00499846 -1.88559e-06 0)
(0.00499835 -2.02478e-06 0)
(0.00499824 -2.17275e-06 0)
(0.00499812 -2.32993e-06 0)
(0.004998 -2.4968e-06 0)
(0.00499787 -2.6738e-06 0)
(0.00499773 -2.86144e-06 0)
(0.00499758 -3.0602e-06 0)
(0.00499743 -3.2706e-06 0)
(0.00499727 -3.49317e-06 0)
(0.0049971 -3.72842e-06 0)
(0.00499692 -3.97692e-06 0)
(0.00499674 -4.23922e-06 0)
(0.00499654 -4.51588e-06 0)
(0.00499634 -4.80747e-06 0)
(0.00499612 -5.11457e-06 0)
(0.0049959 -5.43776e-06 0)
(0.00499567 -5.77762e-06 0)
(0.00499543 -6.13474e-06 0)
(0.00499517 -6.50967e-06 0)
(0.00499491 -6.90299e-06 0)
(0.00499463 -7.31524e-06 0)
(0.00499435 -7.74695e-06 0)
(0.00499405 -8.1986e-06 0)
(0.00499375 -8.67066e-06 0)
(0.00499343 -9.16353e-06 0)
(0.0049931 -9.67755e-06 0)
(0.00499277 -1.0213e-05 0)
(0.00499242 -1.077e-05 0)
(0.00499206 -1.13486e-05 0)
(0.0049917 -1.19486e-05 0)
(0.00499132 -1.25698e-05 0)
(0.00499094 -1.32115e-05 0)
(0.00499055 -1.38729e-05 0)
(0.00499016 -1.45528e-05 0)
(0.00498976 -1.52493e-05 0)
(0.00498935 -1.59603e-05 0)
(0.00498895 -1.66828e-05 0)
(0.00498855 -1.74129e-05 0)
(0.00498815 -1.81459e-05 0)
(0.00498776 -1.88755e-05 0)
(0.00498737 -1.95943e-05 0)
(0.004987 -2.02928e-05 0)
(0.00498664 -2.09594e-05 0)
(0.0049863 -2.15802e-05 0)
(0.00498598 -2.21377e-05 0)
(0.00498568 -2.26107e-05 0)
(0.00498539 -2.2974e-05 0)
(0.0049851 -2.32072e-05 0)
(0.005 -1.49058e-09 0)
(0.005 -4.90444e-09 0)
(0.005 -8.50205e-09 0)
(0.005 -1.21527e-08 0)
(0.00499999 -1.58735e-08 0)
(0.00499999 -1.9711e-08 0)
(0.00499999 -2.37167e-08 0)
(0.00499998 -2.79431e-08 0)
(0.00499998 -3.24427e-08 0)
(0.00499998 -3.72678e-08 0)
(0.00499997 -4.24707e-08 0)
(0.00499997 -4.81045e-08 0)
(0.00499996 -5.42237e-08 0)
(0.00499995 -6.08845e-08 0)
(0.00499995 -6.81454e-08 0)
(0.00499994 -7.60679e-08 0)
(0.00499993 -8.47164e-08 0)
(0.00499992 -9.41592e-08 0)
(0.00499991 -1.04468e-07 0)
(0.0049999 -1.1572e-07 0)
(0.00499989 -1.27996e-07 0)
(0.00499987 -1.41381e-07 0)
(0.00499986 -1.55968e-07 0)
(0.00499984 -1.71853e-07 0)
(0.00499983 -1.89139e-07 0)
(0.00499981 -2.07936e-07 0)
(0.00499979 -2.28359e-07 0)
(0.00499977 -2.50532e-07 0)
(0.00499974 -2.74585e-07 0)
(0.00499972 -3.00655e-07 0)
(0.00499969 -3.28888e-07 0)
(0.00499967 -3.5944e-07 0)
(0.00499963 -3.92472e-07 0)
(0.0049996 -4.28158e-07 0)
(0.00499957 -4.66678e-07 0)
(0.00499953 -5.08224e-07 0)
(0.00499949 -5.52998e-07 0)
(0.00499945 -6.01211e-07 0)
(0.0049994 -6.53086e-07 0)
(0.00499936 -7.08858e-07 0)
(0.00499931 -7.68772e-07 0)
(0.00499925 -8.33086e-07 0)
(0.00499919 -9.02068e-07 0)
(0.00499913 -9.76003e-07 0)
(0.00499907 -1.05518e-06 0)
(0.004999 -1.13992e-06 0)
(0.00499892 -1.23054e-06 0)
(0.00499884 -1.32736e-06 0)
(0.00499876 -1.43075e-06 0)
(0.00499867 -1.54107e-06 0)
(0.00499858 -1.65868e-06 0)
(0.00499848 -1.784e-06 0)
(0.00499838 -1.91742e-06 0)
(0.00499827 -2.05937e-06 0)
(0.00499815 -2.21028e-06 0)
(0.00499803 -2.3706e-06 0)
(0.0049979 -2.5408e-06 0)
(0.00499776 -2.72137e-06 0)
(0.00499762 -2.91279e-06 0)
(0.00499747 -3.11558e-06 0)
(0.00499731 -3.33026e-06 0)
(0.00499714 -3.55736e-06 0)
(0.00499697 -3.79744e-06 0)
(0.00499678 -4.05105e-06 0)
(0.00499659 -4.31876e-06 0)
(0.00499639 -4.60115e-06 0)
(0.00499618 -4.89882e-06 0)
(0.00499596 -5.21235e-06 0)
(0.00499573 -5.54234e-06 0)
(0.00499549 -5.88939e-06 0)
(0.00499524 -6.25409e-06 0)
(0.00499498 -6.63705e-06 0)
(0.00499471 -7.03882e-06 0)
(0.00499443 -7.45999e-06 0)
(0.00499413 -7.90108e-06 0)
(0.00499383 -8.36261e-06 0)
(0.00499352 -8.84503e-06 0)
(0.00499319 -9.34876e-06 0)
(0.00499286 -9.87414e-06 0)
(0.00499252 -1.04214e-05 0)
(0.00499216 -1.09907e-05 0)
(0.0049918 -1.15819e-05 0)
(0.00499143 -1.2195e-05 0)
(0.00499105 -1.28294e-05 0)
(0.00499066 -1.34845e-05 0)
(0.00499027 -1.41592e-05 0)
(0.00498987 -1.48519e-05 0)
(0.00498947 -1.55606e-05 0)
(0.00498907 -1.62825e-05 0)
(0.00498867 -1.70141e-05 0)
(0.00498827 -1.77508e-05 0)
(0.00498787 -1.84868e-05 0)
(0.00498748 -1.92145e-05 0)
(0.0049871 -1.99248e-05 0)
(0.00498673 -2.06061e-05 0)
(0.00498638 -2.1244e-05 0)
(0.00498604 -2.18204e-05 0)
(0.00498572 -2.23126e-05 0)
(0.0049854 -2.26922e-05 0)
(0.00498505 -2.29334e-05 0)
(0.005 -1.17941e-09 0)
(0.005 -3.9985e-09 0)
(0.005 -7.05247e-09 0)
(0.005 -1.02101e-08 0)
(0.00499999 -1.34721e-08 0)
(0.00499999 -1.68679e-08 0)
(0.00499999 -2.04347e-08 0)
(0.00499999 -2.42138e-08 0)
(0.00499998 -2.82496e-08 0)
(0.00499998 -3.25878e-08 0)
(0.00499997 -3.7276e-08 0)
(0.00499997 -4.23628e-08 0)
(0.00499996 -4.78991e-08 0)
(0.00499995 -5.39377e-08 0)
(0.00499995 -6.05338e-08 0)
(0.00499994 -6.77457e-08 0)
(0.00499993 -7.56346e-08 0)
(0.00499992 -8.42656e-08 0)
(0.00499991 -9.37073e-08 0)
(0.0049999 -1.04033e-07 0)
(0.00499989 -1.1532e-07 0)
(0.00499987 -1.2765e-07 0)
(0.00499986 -1.41112e-07 0)
(0.00499985 -1.55798e-07 0)
(0.00499983 -1.71807e-07 0)
(0.00499981 -1.89244e-07 0)
(0.00499979 -2.08222e-07 0)
(0.00499977 -2.28857e-07 0)
(0.00499975 -2.51276e-07 0)
(0.00499973 -2.75612e-07 0)
(0.0049997 -3.02005e-07 0)
(0.00499967 -3.30605e-07 0)
(0.00499964 -3.61569e-07 0)
(0.00499961 -3.95064e-07 0)
(0.00499958 -4.31266e-07 0)
(0.00499954 -4.7036e-07 0)
(0.0049995 -5.12541e-07 0)
(0.00499946 -5.58016e-07 0)
(0.00499942 -6.07001e-07 0)
(0.00499937 -6.59724e-07 0)
(0.00499932 -7.16423e-07 0)
(0.00499927 -7.7735e-07 0)
(0.00499921 -8.42768e-07 0)
(0.00499915 -9.12951e-07 0)
(0.00499908 -9.8819e-07 0)
(0.00499902 -1.06878e-06 0)
(0.00499894 -1.15505e-06 0)
(0.00499887 -1.24732e-06 0)
(0.00499878 -1.34593e-06 0)
(0.0049987 -1.45123e-06 0)
(0.00499861 -1.56362e-06 0)
(0.00499851 -1.68345e-06 0)
(0.00499841 -1.81115e-06 0)
(0.0049983 -1.94713e-06 0)
(0.00499818 -2.09181e-06 0)
(0.00499806 -2.24565e-06 0)
(0.00499794 -2.4091e-06 0)
(0.0049978 -2.58265e-06 0)
(0.00499766 -2.76679e-06 0)
(0.00499751 -2.96202e-06 0)
(0.00499736 -3.16887e-06 0)
(0.00499719 -3.38788e-06 0)
(0.00499702 -3.61958e-06 0)
(0.00499684 -3.86456e-06 0)
(0.00499665 -4.12338e-06 0)
(0.00499645 -4.39663e-06 0)
(0.00499625 -4.68491e-06 0)
(0.00499603 -4.98882e-06 0)
(0.0049958 -5.30899e-06 0)
(0.00499557 -5.64601e-06 0)
(0.00499532 -6.00052e-06 0)
(0.00499506 -6.37313e-06 0)
(0.00499479 -6.76445e-06 0)
(0.00499452 -7.17508e-06 0)
(0.00499423 -7.60561e-06 0)
(0.00499393 -8.05658e-06 0)
(0.00499362 -8.52853e-06 0)
(0.0049933 -9.02191e-06 0)
(0.00499297 -9.53715e-06 0)
(0.00499263 -1.00746e-05 0)
(0.00499228 -1.06344e-05 0)
(0.00499192 -1.12167e-05 0)
(0.00499156 -1.18214e-05 0)
(0.00499118 -1.24482e-05 0)
(0.0049908 -1.30966e-05 0)
(0.00499041 -1.37656e-05 0)
(0.00499001 -1.44539e-05 0)
(0.00498961 -1.51595e-05 0)
(0.00498921 -1.58801e-05 0)
(0.00498881 -1.66121e-05 0)
(0.0049884 -1.73513e-05 0)
(0.00498801 -1.80918e-05 0)
(0.00498761 -1.88265e-05 0)
(0.00498722 -1.95461e-05 0)
(0.00498684 -2.02389e-05 0)
(0.00498648 -2.08901e-05 0)
(0.00498612 -2.14809e-05 0)
(0.00498578 -2.19871e-05 0)
(0.00498543 -2.23783e-05 0)
(0.00498504 -2.26173e-05 0)
(0.005 -9.07084e-10 0)
(0.005 -3.18174e-09 0)
(0.005 -5.7166e-09 0)
(0.005 -8.38766e-09 0)
(0.00499999 -1.11884e-08 0)
(0.00499999 -1.41372e-08 0)
(0.00499999 -1.72602e-08 0)
(0.00499999 -2.05895e-08 0)
(0.00499998 -2.41614e-08 0)
(0.00499998 -2.80156e-08 0)
(0.00499997 -3.2194e-08 0)
(0.00499997 -3.67411e-08 0)
(0.00499996 -4.17036e-08 0)
(0.00499996 -4.71306e-08 0)
(0.00499995 -5.30742e-08 0)
(0.00499994 -5.95891e-08 0)
(0.00499993 -6.67335e-08 0)
(0.00499992 -7.4569e-08 0)
(0.00499991 -8.31609e-08 0)
(0.0049999 -9.25789e-08 0)
(0.00499989 -1.02897e-07 0)
(0.00499988 -1.14194e-07 0)
(0.00499986 -1.26553e-07 0)
(0.00499985 -1.40064e-07 0)
(0.00499983 -1.54822e-07 0)
(0.00499982 -1.70927e-07 0)
(0.0049998 -1.88487e-07 0)
(0.00499978 -2.07616e-07 0)
(0.00499976 -2.28433e-07 0)
(0.00499973 -2.51068e-07 0)
(0.00499971 -2.75657e-07 0)
(0.00499968 -3.02343e-07 0)
(0.00499965 -3.31278e-07 0)
(0.00499962 -3.62624e-07 0)
(0.00499959 -3.96551e-07 0)
(0.00499955 -4.33238e-07 0)
(0.00499951 -4.72875e-07 0)
(0.00499947 -5.15662e-07 0)
(0.00499943 -5.61809e-07 0)
(0.00499938 -6.11538e-07 0)
(0.00499933 -6.6508e-07 0)
(0.00499928 -7.2268e-07 0)
(0.00499923 -7.84596e-07 0)
(0.00499917 -8.51094e-07 0)
(0.0049991 -9.22458e-07 0)
(0.00499904 -9.98982e-07 0)
(0.00499897 -1.08097e-06 0)
(0.00499889 -1.16876e-06 0)
(0.00499881 -1.26266e-06 0)
(0.00499873 -1.36305e-06 0)
(0.00499864 -1.47028e-06 0)
(0.00499854 -1.58473e-06 0)
(0.00499844 -1.7068e-06 0)
(0.00499834 -1.83689e-06 0)
(0.00499822 -1.97545e-06 0)
(0.00499811 -2.1229e-06 0)
(0.00499798 -2.27971e-06 0)
(0.00499785 -2.44635e-06 0)
(0.00499771 -2.6233e-06 0)
(0.00499757 -2.81109e-06 0)
(0.00499741 -3.01022e-06 0)
(0.00499725 -3.22124e-06 0)
(0.00499708 -3.44469e-06 0)
(0.00499691 -3.68115e-06 0)
(0.00499672 -3.93119e-06 0)
(0.00499652 -4.19541e-06 0)
(0.00499632 -4.47441e-06 0)
(0.00499611 -4.76882e-06 0)
(0.00499589 -5.07926e-06 0)
(0.00499565 -5.40636e-06 0)
(0.00499541 -5.75077e-06 0)
(0.00499516 -6.11312e-06 0)
(0.0049949 -6.49407e-06 0)
(0.00499462 -6.89423e-06 0)
(0.00499434 -7.31424e-06 0)
(0.00499404 -7.75469e-06 0)
(0.00499374 -8.21617e-06 0)
(0.00499342 -8.69919e-06 0)
(0.0049931 -9.20425e-06 0)
(0.00499276 -9.73174e-06 0)
(0.00499242 -1.0282e-05 0)
(0.00499206 -1.08551e-05 0)
(0.0049917 -1.14513e-05 0)
(0.00499133 -1.20702e-05 0)
(0.00499095 -1.27114e-05 0)
(0.00499056 -1.33742e-05 0)
(0.00499017 -1.40574e-05 0)
(0.00498977 -1.47593e-05 0)
(0.00498937 -1.54775e-05 0)
(0.00498897 -1.62087e-05 0)
(0.00498856 -1.69489e-05 0)
(0.00498816 -1.76922e-05 0)
(0.00498776 -1.84317e-05 0)
(0.00498736 -1.91579e-05 0)
(0.00498697 -1.9859e-05 0)
(0.00498659 -2.05198e-05 0)
(0.00498622 -2.11207e-05 0)
(0.00498585 -2.16366e-05 0)
(0.00498547 -2.20352e-05 0)
(0.00498505 -2.22682e-05 0)
(0.005 -6.64125e-10 0)
(0.005 -2.4411e-09 0)
(0.005 -4.48539e-09 0)
(0.005 -6.68456e-09 0)
(0.005 -9.02992e-09 0)
(0.00499999 -1.15331e-08 0)
(0.00499999 -1.42126e-08 0)
(0.00499999 -1.70929e-08 0)
(0.00499998 -2.02036e-08 0)
(0.00499998 -2.35781e-08 0)
(0.00499997 -2.72535e-08 0)
(0.00499997 -3.12694e-08 0)
(0.00499996 -3.56687e-08 0)
(0.00499996 -4.04968e-08 0)
(0.00499995 -4.5802e-08 0)
(0.00499994 -5.16359e-08 0)
(0.00499994 -5.80531e-08 0)
(0.00499993 -6.51121e-08 0)
(0.00499992 -7.28748e-08 0)
(0.00499991 -8.14074e-08 0)
(0.00499989 -9.07804e-08 0)
(0.00499988 -1.01069e-07 0)
(0.00499987 -1.12353e-07 0)
(0.00499985 -1.24718e-07 0)
(0.00499984 -1.38255e-07 0)
(0.00499982 -1.5306e-07 0)
(0.0049998 -1.69236e-07 0)
(0.00499978 -1.86894e-07 0)
(0.00499976 -2.06148e-07 0)
(0.00499974 -2.27122e-07 0)
(0.00499971 -2.49948e-07 0)
(0.00499969 -2.74764e-07 0)
(0.00499966 -3.01718e-07 0)
(0.00499963 -3.30964e-07 0)
(0.0049996 -3.62668e-07 0)
(0.00499956 -3.97003e-07 0)
(0.00499953 -4.34153e-07 0)
(0.00499949 -4.74311e-07 0)
(0.00499944 -5.17683e-07 0)
(0.0049994 -5.64482e-07 0)
(0.00499935 -6.14936e-07 0)
(0.0049993 -6.69282e-07 0)
(0.00499925 -7.27769e-07 0)
(0.00499919 -7.9066e-07 0)
(0.00499913 -8.5823e-07 0)
(0.00499906 -9.30767e-07 0)
(0.00499899 -1.00857e-06 0)
(0.00499892 -1.09196e-06 0)
(0.00499884 -1.18126e-06 0)
(0.00499876 -1.27682e-06 0)
(0.00499867 -1.379e-06 0)
(0.00499858 -1.48817e-06 0)
(0.00499848 -1.60472e-06 0)
(0.00499838 -1.72905e-06 0)
(0.00499827 -1.86159e-06 0)
(0.00499815 -2.00277e-06 0)
(0.00499803 -2.15305e-06 0)
(0.0049979 -2.3129e-06 0)
(0.00499777 -2.48281e-06 0)
(0.00499762 -2.66328e-06 0)
(0.00499747 -2.85482e-06 0)
(0.00499732 -3.05798e-06 0)
(0.00499715 -3.27332e-06 0)
(0.00499698 -3.50139e-06 0)
(0.0049968 -3.74278e-06 0)
(0.0049966 -3.99811e-06 0)
(0.0049964 -4.26797e-06 0)
(0.0049962 -4.553e-06 0)
(0.00499598 -4.85384e-06 0)
(0.00499575 -5.17114e-06 0)
(0.00499551 -5.50556e-06 0)
(0.00499526 -5.85776e-06 0)
(0.00499501 -6.22842e-06 0)
(0.00499474 -6.6182e-06 0)
(0.00499446 -7.02775e-06 0)
(0.00499417 -7.45773e-06 0)
(0.00499387 -7.90875e-06 0)
(0.00499356 -8.3814e-06 0)
(0.00499324 -8.87622e-06 0)
(0.00499291 -9.3937e-06 0)
(0.00499257 -9.93421e-06 0)
(0.00499222 -1.0498e-05 0)
(0.00499186 -1.10853e-05 0)
(0.00499149 -1.16959e-05 0)
(0.00499112 -1.23296e-05 0)
(0.00499073 -1.29857e-05 0)
(0.00499034 -1.36631e-05 0)
(0.00498995 -1.43603e-05 0)
(0.00498954 -1.50751e-05 0)
(0.00498914 -1.58043e-05 0)
(0.00498873 -1.65438e-05 0)
(0.00498833 -1.72881e-05 0)
(0.00498792 -1.80301e-05 0)
(0.00498752 -1.87603e-05 0)
(0.00498712 -1.94667e-05 0)
(0.00498672 -2.01337e-05 0)
(0.00498633 -2.07411e-05 0)
(0.00498595 -2.12627e-05 0)
(0.00498554 -2.16653e-05 0)
(0.00498509 -2.18953e-05 0)
(0.005 -4.43844e-10 0)
(0.005 -1.76437e-09 0)
(0.005 -3.34784e-09 0)
(0.005 -5.09461e-09 0)
(0.005 -6.99644e-09 0)
(0.00499999 -9.0612e-09 0)
(0.00499999 -1.1302e-08 0)
(0.00499999 -1.37377e-08 0)
(0.00499998 -1.6392e-08 0)
(0.00499998 -1.92933e-08 0)
(0.00499998 -2.24736e-08 0)
(0.00499997 -2.59683e-08 0)
(0.00499997 -2.98161e-08 0)
(0.00499996 -3.40586e-08 0)
(0.00499995 -3.87408e-08 0)
(0.00499995 -4.39107e-08 0)
(0.00499994 -4.96196e-08 0)
(0.00499993 -5.59226e-08 0)
(0.00499992 -6.28782e-08 0)
(0.00499991 -7.05494e-08 0)
(0.0049999 -7.9003e-08 0)
(0.00499989 -8.83106e-08 0)
(0.00499987 -9.85486e-08 0)
(0.00499986 -1.09799e-07 0)
(0.00499984 -1.22147e-07 0)
(0.00499983 -1.35687e-07 0)
(0.00499981 -1.50518e-07 0)
(0.00499979 -1.66743e-07 0)
(0.00499977 -1.84475e-07 0)
(0.00499975 -2.03833e-07 0)
(0.00499972 -2.24942e-07 0)
(0.0049997 -2.47937e-07 0)
(0.00499967 -2.72959e-07 0)
(0.00499964 -3.00159e-07 0)
(0.00499961 -3.29696e-07 0)
(0.00499958 -3.61738e-07 0)
(0.00499954 -3.96463e-07 0)
(0.0049995 -4.34058e-07 0)
(0.00499946 -4.74723e-07 0)
(0.00499942 -5.18665e-07 0)
(0.00499937 -5.66104e-07 0)
(0.00499932 -6.17272e-07 0)
(0.00499927 -6.72413e-07 0)
(0.00499921 -7.31781e-07 0)
(0.00499915 -7.95646e-07 0)
(0.00499909 -8.64288e-07 0)
(0.00499902 -9.38002e-07 0)
(0.00499895 -1.0171e-06 0)
(0.00499887 -1.1019e-06 0)
(0.00499879 -1.19274e-06 0)
(0.00499871 -1.28997e-06 0)
(0.00499862 -1.39397e-06 0)
(0.00499852 -1.50511e-06 0)
(0.00499842 -1.6238e-06 0)
(0.00499831 -1.75045e-06 0)
(0.0049982 -1.88549e-06 0)
(0.00499808 -2.02938e-06 0)
(0.00499796 -2.18258e-06 0)
(0.00499783 -2.34557e-06 0)
(0.00499769 -2.51885e-06 0)
(0.00499754 -2.70295e-06 0)
(0.00499739 -2.8984e-06 0)
(0.00499723 -3.10576e-06 0)
(0.00499706 -3.32559e-06 0)
(0.00499688 -3.55848e-06 0)
(0.00499669 -3.80505e-06 0)
(0.0049965 -4.06591e-06 0)
(0.00499629 -4.3417e-06 0)
(0.00499608 -4.63307e-06 0)
(0.00499586 -4.94069e-06 0)
(0.00499562 -5.26524e-06 0)
(0.00499538 -5.6074e-06 0)
(0.00499513 -5.96786e-06 0)
(0.00499486 -6.34733e-06 0)
(0.00499459 -6.74649e-06 0)
(0.00499431 -7.16602e-06 0)
(0.00499401 -7.6066e-06 0)
(0.00499371 -8.06885e-06 0)
(0.00499339 -8.55338e-06 0)
(0.00499307 -9.06074e-06 0)
(0.00499273 -9.59137e-06 0)
(0.00499239 -1.01456e-05 0)
(0.00499203 -1.07237e-05 0)
(0.00499167 -1.13257e-05 0)
(0.0049913 -1.19513e-05 0)
(0.00499092 -1.26001e-05 0)
(0.00499053 -1.3271e-05 0)
(0.00499013 -1.39626e-05 0)
(0.00498973 -1.46728e-05 0)
(0.00498933 -1.53986e-05 0)
(0.00498892 -1.6136e-05 0)
(0.00498851 -1.68794e-05 0)
(0.0049881 -1.76218e-05 0)
(0.00498769 -1.83536e-05 0)
(0.00498728 -1.90625e-05 0)
(0.00498687 -1.97327e-05 0)
(0.00498646 -2.03434e-05 0)
(0.00498606 -2.08678e-05 0)
(0.00498563 -2.12717e-05 0)
(0.00498516 -2.15008e-05 0)
(0.005 -2.465e-10 0)
(0.005 -1.142e-09 0)
(0.005 -2.29453e-09 0)
(0.005 -3.61149e-09 0)
(0.005 -5.0859e-09 0)
(0.00499999 -6.72384e-09 0)
(0.00499999 -8.53501e-09 0)
(0.00499999 -1.05339e-08 0)
(0.00499999 -1.27399e-08 0)
(0.00499998 -1.51766e-08 0)
(0.00499998 -1.78717e-08 0)
(0.00499997 -2.08565e-08 0)
(0.00499997 -2.41659e-08 0)
(0.00499996 -2.78378e-08 0)
(0.00499995 -3.19135e-08 0)
(0.00499995 -3.64378e-08 0)
(0.00499994 -4.14586e-08 0)
(0.00499993 -4.70276e-08 0)
(0.00499992 -5.32001e-08 0)
(0.00499991 -6.00355e-08 0)
(0.0049999 -6.75973e-08 0)
(0.00499989 -7.59535e-08 0)
(0.00499988 -8.5177e-08 0)
(0.00499986 -9.53453e-08 0)
(0.00499985 -1.06542e-07 0)
(0.00499983 -1.18854e-07 0)
(0.00499982 -1.32378e-07 0)
(0.0049998 -1.47214e-07 0)
(0.00499978 -1.63469e-07 0)
(0.00499976 -1.81257e-07 0)
(0.00499973 -2.00699e-07 0)
(0.00499971 -2.21925e-07 0)
(0.00499968 -2.45072e-07 0)
(0.00499965 -2.70283e-07 0)
(0.00499962 -2.97714e-07 0)
(0.00499959 -3.27527e-07 0)
(0.00499956 -3.59893e-07 0)
(0.00499952 -3.94995e-07 0)
(0.00499948 -4.33026e-07 0)
(0.00499944 -4.74187e-07 0)
(0.00499939 -5.18692e-07 0)
(0.00499934 -5.66767e-07 0)
(0.00499929 -6.18649e-07 0)
(0.00499924 -6.74585e-07 0)
(0.00499918 -7.34839e-07 0)
(0.00499912 -7.99685e-07 0)
(0.00499905 -8.6941e-07 0)
(0.00499898 -9.44318e-07 0)
(0.00499891 -1.02472e-06 0)
(0.00499883 -1.11096e-06 0)
(0.00499875 -1.20337e-06 0)
(0.00499866 -1.30232e-06 0)
(0.00499857 -1.40819e-06 0)
(0.00499847 -1.52136e-06 0)
(0.00499837 -1.64225e-06 0)
(0.00499826 -1.77129e-06 0)
(0.00499814 -1.90892e-06 0)
(0.00499802 -2.0556e-06 0)
(0.00499789 -2.21182e-06 0)
(0.00499776 -2.37807e-06 0)
(0.00499761 -2.55488e-06 0)
(0.00499746 -2.74276e-06 0)
(0.00499731 -2.94229e-06 0)
(0.00499714 -3.15403e-06 0)
(0.00499697 -3.37857e-06 0)
(0.00499679 -3.61653e-06 0)
(0.00499659 -3.86853e-06 0)
(0.0049964 -4.13522e-06 0)
(0.00499619 -4.41727e-06 0)
(0.00499597 -4.71534e-06 0)
(0.00499574 -5.03014e-06 0)
(0.0049955 -5.36236e-06 0)
(0.00499526 -5.71273e-06 0)
(0.004995 -6.08196e-06 0)
(0.00499473 -6.47078e-06 0)
(0.00499445 -6.8799e-06 0)
(0.00499417 -7.31003e-06 0)
(0.00499387 -7.76186e-06 0)
(0.00499356 -8.23603e-06 0)
(0.00499324 -8.73313e-06 0)
(0.00499291 -9.2537e-06 0)
(0.00499257 -9.79815e-06 0)
(0.00499222 -1.03668e-05 0)
(0.00499186 -1.09597e-05 0)
(0.00499149 -1.15767e-05 0)
(0.00499111 -1.22175e-05 0)
(0.00499073 -1.28811e-05 0)
(0.00499034 -1.35662e-05 0)
(0.00498994 -1.42707e-05 0)
(0.00498953 -1.49919e-05 0)
(0.00498912 -1.57255e-05 0)
(0.00498871 -1.64663e-05 0)
(0.00498829 -1.7207e-05 0)
(0.00498787 -1.79381e-05 0)
(0.00498745 -1.86471e-05 0)
(0.00498703 -1.93179e-05 0)
(0.00498661 -1.99293e-05 0)
(0.00498619 -2.0454e-05 0)
(0.00498574 -2.08569e-05 0)
(0.00498525 -2.10852e-05 0)
(0.005 -6.86086e-11 0)
(0.005 -5.68922e-10 0)
(0.005 -1.31894e-09 0)
(0.005 -2.22981e-09 0)
(0.005 -3.29561e-09 0)
(0.00499999 -4.52179e-09 0)
(0.00499999 -5.91586e-09 0)
(0.00499999 -7.48921e-09 0)
(0.00499999 -9.25756e-09 0)
(0.00499998 -1.12408e-08 0)
(0.00499998 -1.34627e-08 0)
(0.00499997 -1.5951e-08 0)
(0.00499997 -1.87366e-08 0)
(0.00499996 -2.18542e-08 0)
(0.00499996 -2.53417e-08 0)
(0.00499995 -2.92402e-08 0)
(0.00499994 -3.35946e-08 0)
(0.00499993 -3.84532e-08 0)
(0.00499993 -4.3868e-08 0)
(0.00499992 -4.98951e-08 0)
(0.00499991 -5.65945e-08 0)
(0.0049999 -6.40309e-08 0)
(0.00499988 -7.22733e-08 0)
(0.00499987 -8.13958e-08 0)
(0.00499986 -9.14776e-08 0)
(0.00499984 -1.02603e-07 0)
(0.00499982 -1.14864e-07 0)
(0.00499981 -1.28355e-07 0)
(0.00499979 -1.4318e-07 0)
(0.00499977 -1.59449e-07 0)
(0.00499974 -1.77277e-07 0)
(0.00499972 -1.96791e-07 0)
(0.00499969 -2.1812e-07 0)
(0.00499967 -2.41405e-07 0)
(0.00499964 -2.66794e-07 0)
(0.00499961 -2.94446e-07 0)
(0.00499957 -3.24525e-07 0)
(0.00499954 -3.57209e-07 0)
(0.0049995 -3.92684e-07 0)
(0.00499946 -4.31146e-07 0)
(0.00499941 -4.72803e-07 0)
(0.00499937 -5.17874e-07 0)
(0.00499932 -5.66589e-07 0)
(0.00499927 -6.19191e-07 0)
(0.00499921 -6.75934e-07 0)
(0.00499915 -7.37088e-07 0)
(0.00499909 -8.02934e-07 0)
(0.00499902 -8.73767e-07 0)
(0.00499895 -9.49897e-07 0)
(0.00499887 -1.03165e-06 0)
(0.00499879 -1.11936e-06 0)
(0.00499871 -1.21339e-06 0)
(0.00499862 -1.31411e-06 0)
(0.00499852 -1.4219e-06 0)
(0.00499842 -1.53718e-06 0)
(0.00499831 -1.66036e-06 0)
(0.0049982 -1.79188e-06 0)
(0.00499808 -1.9322e-06 0)
(0.00499796 -2.0818e-06 0)
(0.00499783 -2.24117e-06 0)
(0.00499769 -2.41083e-06 0)
(0.00499754 -2.59132e-06 0)
(0.00499739 -2.78317e-06 0)