/*--------------------------------*- C++ -*----------------------------------*\
  =========                 |
  \\      /  F ield         | OpenFOAM: The Open Source CFD Toolbox
   \\    /   O peration     | Website:  https://openfoam.org
    \\  /    A nd           | Version:  11
     \\/     M anipulation  |
\*---------------------------------------------------------------------------*/
FoamFile
{
    format      ascii;
    class       volScalarField;
    location    "978";
    object      p;
}
// * * * * * * * * * * * * * * * * * * * * * * * * * * * * * * * * * * * * * //

dimensions      [0 2 -2 0 0 0 0];

internalField   nonuniform List<scalar> 
10000
(
2.40645e-11
2.34896e-11
2.45779e-11
2.66718e-11
2.90486e-11
3.15543e-11
3.41915e-11
3.69658e-11
3.98819e-11
4.29483e-11
4.61756e-11
4.95752e-11
5.3159e-11
5.69398e-11
6.09306e-11
6.5145e-11
6.95969e-11
7.4301e-11
7.92722e-11
8.45259e-11
9.00783e-11
9.59458e-11
1.02146e-10
1.08695e-10
1.15613e-10
1.22918e-10
1.3063e-10
1.38769e-10
1.47355e-10
1.5641e-10
1.65956e-10
1.76016e-10
1.86612e-10
1.9777e-10
2.09512e-10
2.21864e-10
2.34852e-10
2.48502e-10
2.62838e-10
2.77889e-10
2.93682e-10
3.10242e-10
3.27598e-10
3.45777e-10
3.64805e-10
3.84709e-10
4.05516e-10
4.27251e-10
4.4994e-10
4.73605e-10
4.98271e-10
5.23957e-10
5.50684e-10
5.78468e-10
6.07323e-10
6.37262e-10
6.68293e-10
7.00419e-10
7.33641e-10
7.67952e-10
8.03343e-10
8.39793e-10
8.77279e-10
9.15767e-10
9.55212e-10
9.9556e-10
1.03675e-09
1.07869e-09
1.12129e-09
1.16445e-09
1.20802e-09
1.25186e-09
1.29579e-09
1.3396e-09
1.38306e-09
1.42591e-09
1.46783e-09
1.50848e-09
1.54746e-09
1.58433e-09
1.61856e-09
1.64959e-09
1.67676e-09
1.69933e-09
1.71646e-09
1.7272e-09
1.73049e-09
1.72511e-09
1.70967e-09
1.68261e-09
1.64214e-09
1.58616e-09
1.51225e-09
1.41748e-09
1.29823e-09
1.15017e-09
9.66972e-10
7.3223e-10
4.20563e-10
3.51286e-11
4.24787e-11
3.95931e-11
3.81232e-11
3.89673e-11
4.08015e-11
4.3126e-11
4.58233e-11
4.88329e-11
5.21156e-11
5.56522e-11
5.94362e-11
6.34682e-11
6.77534e-11
7.22999e-11
7.71185e-11
8.22213e-11
8.76219e-11
9.33351e-11
9.93768e-11
1.05764e-10
1.12513e-10
1.19643e-10
1.27174e-10
1.35124e-10
1.43515e-10
1.52367e-10
1.61704e-10
1.71548e-10
1.81922e-10
1.9285e-10
2.04359e-10
2.16472e-10
2.29217e-10
2.42621e-10
2.5671e-10
2.71513e-10
2.87058e-10
3.03374e-10
3.20491e-10
3.38436e-10
3.57241e-10
3.76935e-10
3.97546e-10
4.19105e-10
4.4164e-10
4.6518e-10
4.89751e-10
5.15381e-10
5.42095e-10
5.69917e-10
5.98867e-10
6.28967e-10
6.60233e-10
6.9268e-10
7.26317e-10
7.61153e-10
7.97188e-10
8.34421e-10
8.72841e-10
9.12434e-10
9.53175e-10
9.95034e-10
1.03797e-09
1.08193e-09
1.12684e-09
1.17264e-09
1.21922e-09
1.26649e-09
1.3143e-09
1.3625e-09
1.41093e-09
1.45938e-09
1.50762e-09
1.55538e-09
1.60236e-09
1.64823e-09
1.69257e-09
1.73497e-09
1.7749e-09
1.81181e-09
1.84505e-09
1.8739e-09
1.89754e-09
1.91505e-09
1.92539e-09
1.92737e-09
1.91968e-09
1.9008e-09
1.86902e-09
1.82239e-09
1.75865e-09
1.67522e-09
1.56902e-09
1.43634e-09
1.27271e-09
1.07344e-09
8.32242e-10
5.23246e-10
9.19804e-11
-2.94869e-10
4.84271e-11
4.39347e-11
4.05433e-11
3.96925e-11
4.01127e-11
4.12451e-11
4.29111e-11
4.50049e-11
4.74518e-11
5.02055e-11
5.3239e-11
5.65374e-11
6.00935e-11
6.39059e-11
6.79766e-11
7.2311e-11
7.69164e-11
8.18019e-11
8.69778e-11
9.2456e-11
9.82491e-11
1.04371e-10
1.10835e-10
1.17658e-10
1.24854e-10
1.32441e-10
1.40437e-10
1.48857e-10
1.57722e-10
1.6705e-10
1.76861e-10
1.87175e-10
1.98011e-10
2.09392e-10
2.21339e-10
2.33872e-10
2.47014e-10
2.60787e-10
2.75213e-10
2.90314e-10
3.06113e-10
3.2263e-10
3.39889e-10
3.5791e-10
3.76714e-10
3.9632e-10
4.16748e-10
4.38015e-10
4.60137e-10
4.8313e-10
5.07006e-10
5.31776e-10
5.57447e-10
5.84024e-10
6.11509e-10
6.399e-10
6.69189e-10
6.99365e-10
7.3041e-10
7.62301e-10
7.95005e-10
8.28486e-10
8.62693e-10
8.9757e-10
9.33047e-10
9.69042e-10
1.00546e-09
1.04219e-09
1.0791e-09
1.11604e-09
1.15285e-09
1.18933e-09
1.22526e-09
1.26038e-09
1.29442e-09
1.32706e-09
1.35792e-09
1.3866e-09
1.41265e-09
1.43553e-09
1.45467e-09
1.46942e-09
1.47902e-09
1.48266e-09
1.47941e-09
1.46821e-09
1.44788e-09
1.41708e-09
1.37431e-09
1.31784e-09
1.2457e-09
1.15562e-09
1.04495e-09
9.10484e-10
7.48527e-10
5.5598e-10
3.28324e-10
3.43174e-11
-3.84753e-10
-6.27165e-10
5.23979e-11
4.76406e-11
4.38181e-11
4.22575e-11
4.19573e-11
4.24489e-11
4.35598e-11
4.5174e-11
4.72039e-11
4.959e-11
5.22941e-11
5.52914e-11
5.85669e-11
6.21125e-11
6.59252e-11
7.00055e-11
7.43569e-11
7.89852e-11
8.38975e-11
8.91029e-11
9.46114e-11
1.00434e-10
1.06583e-10
1.13071e-10
1.19912e-10
1.2712e-10
1.3471e-10
1.42697e-10
1.51098e-10
1.59929e-10
1.69207e-10
1.7895e-10
1.89174e-10
1.99899e-10
2.11143e-10
2.22924e-10
2.35261e-10
2.48173e-10
2.61678e-10
2.75795e-10
2.90542e-10
3.05938e-10
3.21999e-10
3.38743e-10
3.56186e-10
3.74343e-10
3.93228e-10
4.12854e-10
4.33233e-10
4.54372e-10
4.7628e-10
4.98961e-10
5.22417e-10
5.46646e-10
5.71644e-10
5.97401e-10
6.23904e-10
6.51134e-10
6.79066e-10
7.07669e-10
7.36904e-10
7.66724e-10
7.97073e-10
8.27886e-10
8.59084e-10
8.90578e-10
9.22264e-10
9.54022e-10
9.85715e-10
1.01719e-09
1.04826e-09
1.07873e-09
1.10838e-09
1.13694e-09
1.16412e-09
1.1896e-09
1.21302e-09
1.23396e-09
1.25195e-09
1.26649e-09
1.27699e-09
1.28281e-09
1.28322e-09
1.27742e-09
1.26448e-09
1.2434e-09
1.21304e-09
1.17211e-09
1.11918e-09
1.05261e-09
9.70563e-10
8.70945e-10
7.51336e-10
6.0887e-10
4.40423e-10
2.43986e-10
1.61413e-11
-2.77492e-10
-6.89964e-10
-8.74036e-10
5.50207e-11
5.05436e-11
4.67681e-11
4.49264e-11
4.42469e-11
4.43626e-11
4.51293e-11
4.64386e-11
4.82029e-11
5.03593e-11
5.2864e-11
5.5687e-11
5.88084e-11
6.22157e-11
6.59019e-11
6.98645e-11
7.41039e-11
7.86233e-11
8.34278e-11
8.85242e-11
9.39206e-11
9.96263e-11
1.05652e-10
1.12008e-10
1.18707e-10
1.25762e-10
1.33186e-10
1.40992e-10
1.49195e-10
1.57811e-10
1.66854e-10
1.76339e-10
1.86283e-10
1.96702e-10
2.07612e-10
2.1903e-10
2.30971e-10
2.43453e-10
2.56491e-10
2.70101e-10
2.84299e-10
2.991e-10
3.14519e-10
3.30569e-10
3.47263e-10
3.64612e-10
3.82627e-10
4.01316e-10
4.20688e-10
4.40745e-10
4.61492e-10
4.82928e-10
5.05049e-10
5.27849e-10
5.51318e-10
5.7544e-10
6.00196e-10
6.25561e-10
6.51503e-10
6.77984e-10
7.04958e-10
7.32371e-10
7.6016e-10
7.88249e-10
8.16555e-10
8.44977e-10
8.73403e-10
9.01705e-10
9.29735e-10
9.57329e-10
9.84299e-10
1.01043e-09
1.0355e-09
1.05922e-09
1.0813e-09
1.10142e-09
1.11918e-09
1.13417e-09
1.14593e-09
1.15393e-09
1.15759e-09
1.15626e-09
1.14922e-09
1.13567e-09
1.1147e-09
1.08533e-09
1.04643e-09
9.96779e-10
9.34982e-10
8.59499e-10
7.68608e-10
6.60382e-10
5.32647e-10
3.82875e-10
2.08482e-10
8.52653e-12
-2.19094e-10
-5.12008e-10
-9.28537e-10
-1.06276e-09
5.63665e-11
5.22764e-11
4.86757e-11
4.6721e-11
4.58118e-11
4.56637e-11
4.61635e-11
4.72171e-11
4.87435e-11
5.06815e-11
5.29863e-11
5.56256e-11
5.85766e-11
6.18238e-11
6.53574e-11
6.91723e-11
7.32664e-11
7.76406e-11
8.2298e-11
8.72433e-11
9.24828e-11
9.80242e-11
1.03876e-10
1.10048e-10
1.1655e-10
1.23393e-10
1.30589e-10
1.3815e-10
1.46089e-10
1.54419e-10
1.63153e-10
1.72305e-10
1.81888e-10
1.91918e-10
2.02407e-10
2.1337e-10
2.24821e-10
2.36775e-10
2.49243e-10
2.62241e-10
2.7578e-10
2.89873e-10
3.04531e-10
3.19765e-10
3.35583e-10
3.51995e-10
3.69006e-10
3.86621e-10
4.04844e-10
4.23674e-10
4.43111e-10
4.63148e-10
4.83779e-10
5.04992e-10
5.26771e-10
5.49095e-10
5.7194e-10
5.95274e-10
6.19059e-10
6.43253e-10
6.67801e-10
6.92645e-10
7.17712e-10
7.42924e-10
7.68186e-10
7.93393e-10
8.18425e-10
8.43147e-10
8.67405e-10
8.91026e-10
9.13817e-10
9.3556e-10
9.56011e-10
9.74897e-10
9.91916e-10
1.00673e-09
1.01895e-09
1.02817e-09
1.03392e-09
1.03568e-09
1.03287e-09
1.02485e-09
1.01092e-09
9.90298e-10
9.62108e-10
9.25393e-10
8.79094e-10
8.22038e-10
7.52934e-10
6.70359e-10
5.72749e-10
4.584e-10
3.25432e-10
1.71708e-10
-4.78952e-12
-2.03832e-10
-4.25943e-10
-7.13503e-10
-1.14514e-09
-1.21141e-09
5.68292e-11
5.3119e-11
4.97413e-11
4.77745e-11
4.67388e-11
4.64132e-11
4.67129e-11
4.7559e-11
4.88801e-11
5.06196e-11
5.27344e-11
5.51919e-11
5.79682e-11
6.10462e-11
6.44143e-11
6.80652e-11
7.19951e-11
7.62028e-11
8.06896e-11
8.54585e-11
9.05141e-11
9.58622e-11
1.0151e-10
1.07465e-10
1.13736e-10
1.20333e-10
1.27264e-10
1.34542e-10
1.42177e-10
1.50179e-10
1.58561e-10
1.67334e-10
1.76511e-10
1.86102e-10
1.96121e-10
2.06579e-10
2.17488e-10
2.28858e-10
2.40703e-10
2.5303e-10
2.65852e-10
2.79177e-10
2.93013e-10
3.07368e-10
3.22248e-10
3.37657e-10
3.53598e-10
3.70073e-10
3.8708e-10
4.04617e-10
4.22677e-10
4.4125e-10
4.60326e-10
4.79886e-10
4.99911e-10
5.20376e-10
5.4125e-10
5.62496e-10
5.84073e-10
6.05931e-10
6.28011e-10
6.50247e-10
6.72564e-10
6.94875e-10
7.17081e-10
7.39071e-10
7.6072e-10
7.81887e-10
8.02413e-10
8.2212e-10
8.40811e-10
8.58264e-10
8.74232e-10
8.8844e-10
9.00583e-10
9.10322e-10
9.17282e-10
9.21046e-10
9.21154e-10
9.17096e-10
9.0831e-10
8.94175e-10
8.74008e-10
8.47056e-10
8.12491e-10
7.69405e-10
7.16804e-10
6.53599e-10
5.78606e-10
4.90542e-10
3.88027e-10
2.69593e-10
1.33675e-10
-2.14729e-11
-1.97317e-10
-3.92503e-10
-6.05911e-10
-8.84477e-10
-1.33029e-09
-1.33113e-09
5.66761e-11
5.33067e-11
5.01637e-11
4.8244e-11
4.71532e-11
4.67173e-11
4.68742e-11
4.75598e-11
4.8712e-11
5.02801e-11
5.2224e-11
5.45126e-11
5.7122e-11
6.00346e-11
6.32376e-11
6.67224e-11
7.04838e-11
7.45191e-11
7.8828e-11
8.3412e-11
8.82742e-11
9.34188e-11
9.88513e-11
1.04578e-10
1.10606e-10
1.16943e-10
1.23598e-10
1.30579e-10
1.37895e-10
1.45556e-10
1.53573e-10
1.61953e-10
1.70709e-10
1.79849e-10
1.89383e-10
1.99322e-10
2.09675e-10
2.2045e-10
2.31657e-10
2.43304e-10
2.55397e-10
2.67944e-10
2.80949e-10
2.94418e-10
3.08353e-10
3.22755e-10
3.37624e-10
3.52958e-10
3.68752e-10
3.84999e-10
4.01689e-10
4.1881e-10
4.36344e-10
4.5427e-10
4.72565e-10
4.91199e-10
5.10136e-10
5.29335e-10
5.48751e-10
5.68326e-10
5.88001e-10
6.07702e-10
6.27351e-10
6.46854e-10
6.6611e-10
6.85002e-10
7.03402e-10
7.21163e-10
7.38125e-10
7.54105e-10
7.68905e-10
7.82299e-10
7.94041e-10
8.03857e-10
8.11442e-10
8.16462e-10
8.18545e-10
8.17283e-10
8.12225e-10
8.02878e-10
7.88696e-10
7.69083e-10
7.43384e-10
7.10885e-10
6.70803e-10
6.22291e-10
5.64424e-10
4.96208e-10
4.16573e-10
3.24379e-10
2.18427e-10
9.74848e-11
-3.97175e-11
-1.94557e-10
-3.6801e-10
-5.57714e-10
-7.60812e-10
-1.02661e-09
-1.47662e-09
-1.43149e-09
5.60426e-11
5.29724e-11
5.00565e-11
4.82153e-11
4.71142e-11
4.66143e-11
4.66714e-11
4.72335e-11
4.82472e-11
4.96679e-11
5.14591e-11
5.35917e-11
5.6043e-11
5.87952e-11
6.18353e-11
6.51539e-11
6.87446e-11
7.26038e-11
7.67297e-11
8.11225e-11
8.5784e-11
9.0717e-11
9.59256e-11
1.01415e-10
1.0719e-10
1.13257e-10
1.19624e-10
1.26298e-10
1.33285e-10
1.40594e-10
1.48234e-10
1.56211e-10
1.64534e-10
1.73212e-10
1.82252e-10
1.91662e-10
2.01449e-10
2.1162e-10
2.22182e-10
2.3314e-10
2.44498e-10
2.56261e-10
2.68432e-10
2.81011e-10
2.94e-10
3.07396e-10
3.21195e-10
3.35393e-10
3.49982e-10
3.6495e-10
3.80284e-10
3.95969e-10
4.11982e-10
4.28301e-10
4.44896e-10
4.61734e-10
4.78775e-10
4.95975e-10
5.13283e-10
5.3064e-10
5.47979e-10
5.65226e-10
5.82296e-10
5.99093e-10
6.15512e-10
6.31433e-10
6.46724e-10
6.61237e-10
6.74808e-10
6.87255e-10
6.98376e-10
7.07949e-10
7.15727e-10
7.21439e-10
7.24784e-10
7.25433e-10
7.23024e-10
7.17158e-10
7.07401e-10
6.93274e-10
6.74255e-10
6.49776e-10
6.19215e-10
5.81899e-10
5.37099e-10
4.84028e-10
4.21838e-10
3.49629e-10
2.66442e-10
1.71279e-10
6.31105e-11
-5.90865e-11
-1.96327e-10
-3.49691e-10
-5.19786e-10
-7.03583e-10
-8.9718e-10
-1.15191e-09
-1.59995e-09
-1.52758e-09
5.50067e-11
5.22068e-11
4.95049e-11
4.77556e-11
4.66714e-11
4.61389e-11
4.61271e-11
4.65936e-11
4.7493e-11
4.87858e-11
5.04397e-11
5.24279e-11
5.4729e-11
5.73259e-11
6.02055e-11
6.3358e-11
6.67764e-11
7.04561e-11
7.43944e-11
7.85904e-11
8.30445e-11
8.77585e-11
9.27351e-11
9.79778e-11
1.03491e-10
1.09279e-10
1.15349e-10
1.21704e-10
1.28352e-10
1.35299e-10
1.42551e-10
1.50114e-10
1.57996e-10
1.66201e-10
1.74737e-10
1.83608e-10
1.92821e-10
2.02379e-10
2.12288e-10
2.2255e-10
2.33167e-10
2.44142e-10
2.55474e-10
2.67162e-10
2.79204e-10
2.91595e-10
3.04329e-10
3.17396e-10
3.30787e-10
3.44487e-10
3.5848e-10
3.72746e-10
3.87261e-10
4.01997e-10
4.16923e-10
4.32e-10
4.47188e-10
4.62436e-10
4.77692e-10
4.92891e-10
5.07966e-10
5.22837e-10
5.37417e-10
5.51608e-10
5.65301e-10
5.78376e-10
5.90697e-10
6.02115e-10
6.12466e-10
6.21568e-10
6.29221e-10
6.35202e-10
6.39269e-10
6.41155e-10
6.40566e-10
6.37181e-10
6.30649e-10
6.20585e-10
6.06569e-10
5.88146e-10
5.64817e-10
5.36045e-10
5.01246e-10
4.59791e-10
4.11003e-10
3.5416e-10
2.88491e-10
2.13185e-10
1.27395e-10
3.02479e-11
-7.91323e-11
-2.01592e-10
-3.37942e-10
-4.89048e-10
-6.55282e-10
-8.33227e-10
-1.01859e-09
-1.26559e-09
-1.71573e-09
-1.62123e-09
5.36307e-11
5.1079e-11
4.85764e-11
4.6924e-11
4.58731e-11
4.53292e-11
4.52707e-11
4.56629e-11
4.64669e-11
4.76482e-11
4.91779e-11
5.10319e-11
5.31902e-11
5.56368e-11
5.83586e-11
6.13459e-11
6.45912e-11
6.80891e-11
7.18363e-11
7.58309e-11
8.00723e-11
8.45611e-11
8.92989e-11
9.4288e-11
9.95314e-11
1.05033e-10
1.10796e-10
1.16825e-10
1.23125e-10
1.29701e-10
1.36557e-10
1.43698e-10
1.51129e-10
1.58854e-10
1.66877e-10
1.75203e-10
1.83835e-10
1.92775e-10
2.02025e-10
2.11586e-10
2.2146e-10
2.31644e-10
2.42137e-10
2.52935e-10
2.64033e-10
2.75423e-10
2.87097e-10
2.99044e-10
3.11249e-10
3.23696e-10
3.36365e-10
3.49234e-10
3.62276e-10
3.75459e-10
3.8875e-10
4.02107e-10
4.15486e-10
4.28834e-10
4.42096e-10
4.55204e-10
4.68088e-10
4.80667e-10
4.9285e-10
5.04539e-10
5.15622e-10
5.25976e-10
5.35468e-10
5.43948e-10
5.51251e-10
5.57197e-10
5.61588e-10
5.64206e-10
5.64813e-10
5.63147e-10
5.58924e-10
5.51833e-10
5.41535e-10
5.2766e-10
5.0981e-10
4.87548e-10
4.60407e-10
4.2788e-10
3.89422e-10
3.4445e-10
2.92341e-10
2.32435e-10
1.64037e-10
8.64216e-11
-1.15945e-12
-9.94629e-11
-2.09234e-10
-3.31172e-10
-4.65932e-10
-6.1422e-10
-7.76257e-10
-9.48357e-10
-1.12602e-09
-1.36595e-09
-1.81639e-09
-1.699e-09
5.19915e-11
4.96497e-11
4.73258e-11
4.57689e-11
4.47607e-11
4.42199e-11
4.41312e-11
4.44656e-11
4.51893e-11
4.62724e-11
4.76893e-11
4.94182e-11
5.14407e-11
5.37417e-11
5.63089e-11
5.91323e-11
6.22043e-11
6.55191e-11
6.90728e-11
7.28625e-11
7.6887e-11
8.11457e-11
8.56393e-11
9.03688e-11
9.53362e-11
1.00544e-10
1.05994e-10
1.1169e-10
1.17636e-10
1.23833e-10
1.30287e-10
1.36999e-10
1.43973e-10
1.51212e-10
1.58718e-10
1.66493e-10
1.74539e-10
1.82857e-10
1.91446e-10
2.00307e-10
2.09436e-10
2.1883e-10
2.28486e-10
2.38398e-10
2.48558e-10
2.58955e-10
2.6958e-10
2.80418e-10
2.91453e-10
3.02665e-10
3.14033e-10
3.2553e-10
3.37128e-10
3.48792e-10
3.60487e-10
3.72168e-10
3.83787e-10
3.95292e-10
4.06621e-10
4.17709e-10
4.28481e-10
4.38854e-10
4.48737e-10
4.58029e-10
4.66619e-10
4.74384e-10
4.8119e-10
4.86888e-10
4.91315e-10
4.94294e-10
4.9563e-10
4.9511e-10
4.92503e-10
4.87554e-10
4.79989e-10
4.69508e-10
4.55787e-10
4.38475e-10
4.17191e-10
3.91526e-10
3.61039e-10
3.25257e-10
2.83675e-10
2.35755e-10
1.80928e-10
1.18593e-10
4.81275e-11
-3.11159e-11
-1.19794e-10
-2.18563e-10
-3.28056e-10
-4.48854e-10
-5.81488e-10
-7.26553e-10
-8.84158e-10
-1.05042e-09
-1.22068e-09
-1.45362e-09
-1.9026e-09
-1.76375e-09
5.0126e-11
4.79549e-11
4.5787e-11
4.43237e-11
4.33666e-11
4.28406e-11
4.27347e-11
4.30243e-11
4.36803e-11
4.46765e-11
4.59903e-11
4.76021e-11
4.94951e-11
5.16553e-11
5.40708e-11
5.67319e-11
5.96311e-11
6.27622e-11
6.61206e-11
6.97031e-11
7.35074e-11
7.75323e-11
8.17774e-11
8.62428e-11
9.09292e-11
9.58379e-11
1.0097e-10
1.06328e-10
1.11913e-10
1.17728e-10
1.23773e-10
1.30052e-10
1.36565e-10
1.43314e-10
1.50299e-10
1.57521e-10
1.6498e-10
1.72674e-10
1.80603e-10
1.88762e-10
1.97149e-10
2.05758e-10
2.14582e-10
2.23614e-10
2.32844e-10
2.4226e-10
2.51849e-10
2.61594e-10
2.71477e-10
2.81476e-10
2.91566e-10
3.01721e-10
3.11907e-10
3.2209e-10
3.3223e-10
3.42281e-10
3.52195e-10
3.61914e-10
3.71378e-10
3.80518e-10
3.89258e-10
3.97514e-10
4.05195e-10
4.122e-10
4.18416e-10
4.23723e-10
4.27985e-10
4.31058e-10
4.3278e-10
4.32979e-10
4.31463e-10
4.28026e-10
4.22444e-10
4.14472e-10
4.03846e-10
3.9028e-10
3.73465e-10
3.53068e-10
3.2873e-10
3.00068e-10
2.66669e-10
2.28095e-10
1.83878e-10
1.33527e-10
7.6523e-11
1.23237e-11
-5.96305e-11
-1.39912e-10
-2.29098e-10
-3.27757e-10
-4.36429e-10
-5.55597e-10
-6.85698e-10
-8.2724e-10
-9.80258e-10
-1.14072e-09
-1.30381e-09
-1.52984e-09
-1.97629e-09
-1.81808e-09
4.8024e-11
4.59934e-11
4.39769e-11
4.26147e-11
4.17179e-11
4.12177e-11
4.11057e-11
4.13614e-11
4.196e-11
4.28788e-11
4.40978e-11
4.55995e-11
4.73687e-11
4.93924e-11
5.16593e-11
5.41602e-11
5.68873e-11
5.98345e-11
6.29968e-11
6.63703e-11
6.99523e-11
7.37407e-11
7.77341e-11
8.19318e-11
8.63336e-11
9.09396e-11
9.57501e-11
1.00766e-10
1.05987e-10
1.11415e-10
1.17049e-10
1.22891e-10
1.2894e-10
1.35197e-10
1.4166e-10
1.48328e-10
1.55199e-10
1.62271e-10
1.69541e-10
1.77002e-10
1.84651e-10
1.9248e-10
2.0048e-10
2.08642e-10
2.16953e-10
2.25401e-10
2.33969e-10
2.4264e-10
2.51392e-10
2.60202e-10
2.69043e-10
2.77886e-10
2.86697e-10
2.95438e-10
3.04068e-10
3.1254e-10
3.20802e-10
3.28798e-10
3.36463e-10
3.4373e-10
3.50521e-10
3.56752e-10
3.62331e-10
3.67157e-10
3.71119e-10
3.74097e-10
3.75959e-10
3.76561e-10
3.75747e-10
3.73348e-10
3.69179e-10
3.63041e-10
3.54716e-10
3.43971e-10
3.30554e-10
3.14193e-10
2.94595e-10
2.71446e-10
2.44411e-10
2.13129e-10
1.7722e-10
1.36277e-10
8.98729e-11
3.75567e-11
-2.11415e-11
-8.67091e-11
-1.59646e-10
-2.4046e-10
-3.29656e-10
-4.27728e-10
-5.35137e-10
-6.52289e-10
-7.79542e-10
-9.17345e-10
-1.06567e-09
-1.22037e-09
-1.37653e-09
-1.59575e-09
-2.03886e-09
-1.86336e-09
4.57311e-11
4.38009e-11
4.19311e-11
4.06755e-11
3.98455e-11
3.93791e-11
3.92693e-11
3.94996e-11
4.0049e-11
4.08981e-11
4.20293e-11
4.3427e-11
4.50775e-11
4.69686e-11
4.909e-11
5.14326e-11
5.39889e-11
5.67526e-11
5.97185e-11
6.28822e-11
6.62404e-11
6.97903e-11
7.35299e-11
7.74577e-11
8.15723e-11
8.58729e-11
9.03588e-11
9.50295e-11
9.98845e-11
1.04923e-10
1.10145e-10
1.15548e-10
1.21133e-10
1.26897e-10
1.32837e-10
1.38952e-10
1.45238e-10
1.51691e-10
1.58305e-10
1.65074e-10
1.71992e-10
1.79048e-10
1.86234e-10
1.93537e-10
2.00944e-10
2.08439e-10
2.16005e-10
2.23621e-10
2.31266e-10
2.38914e-10
2.46536e-10
2.54101e-10
2.61574e-10
2.68915e-10
2.76082e-10
2.83026e-10
2.89694e-10
2.96029e-10
3.01967e-10
3.07437e-10
3.12362e-10
3.16659e-10
3.20236e-10
3.22993e-10
3.2482e-10
3.25599e-10
3.252e-10
3.23485e-10
3.203e-10
3.15482e-10
3.08852e-10
3.00219e-10
2.89375e-10
2.76098e-10
2.60147e-10
2.41266e-10
2.19178e-10
1.93591e-10
1.64189e-10
1.30639e-10
9.25885e-11
4.96644e-11
1.47523e-12
-5.23883e-11
-1.12351e-10
-1.7885e-10
-2.52332e-10
-3.33244e-10
-4.22031e-10
-5.19121e-10
-6.2491e-10
-7.39739e-10
-8.63908e-10
-9.97816e-10
-1.1414e-09
-1.2904e-09
-1.43982e-09
-1.65232e-09
-2.09142e-09
-1.90057e-09
4.33215e-11
4.1422e-11
3.96915e-11
3.85434e-11
3.77827e-11
3.73535e-11
3.72508e-11
3.74615e-11
3.7968e-11
3.87535e-11
3.98026e-11
4.11015e-11
4.26377e-11
4.44e-11
4.63787e-11
4.85653e-11
5.09522e-11
5.35333e-11
5.6303e-11
5.92566e-11
6.23904e-11
6.5701e-11
6.91856e-11
7.28419e-11
7.66678e-11
8.06616e-11
8.48215e-11
8.9146e-11
9.36335e-11
9.82824e-11
1.03091e-10
1.08056e-10
1.13176e-10
1.18449e-10
1.23869e-10
1.29434e-10
1.35138e-10
1.40975e-10
1.4694e-10
1.53024e-10
1.59218e-10
1.65513e-10
1.71895e-10
1.78353e-10
1.84871e-10
1.91431e-10
1.98015e-10
2.046e-10
2.11163e-10
2.17678e-10
2.24113e-10
2.30436e-10
2.36611e-10
2.42596e-10
2.48348e-10
2.53818e-10
2.58951e-10
2.6369e-10
2.6797e-10
2.7172e-10
2.74865e-10
2.7732e-10
2.78994e-10
2.7979e-10
2.796e-10
2.78308e-10
2.75788e-10
2.71903e-10
2.66508e-10
2.59444e-10
2.5054e-10
2.39611e-10
2.26462e-10
2.10881e-10
1.9264e-10
1.71498e-10
1.47196e-10
1.19461e-10
8.79997e-11
5.25047e-11
1.26509e-11
-3.1903e-11
-8.15136e-11
-1.36552e-10
-1.97399e-10
-2.64448e-10
-3.38096e-10
-4.18737e-10
-5.06763e-10
-6.02546e-10
-7.06427e-10
-8.18694e-10
-9.396e-10
-1.06951e-09
-1.20831e-09
-1.35169e-09
-1.49457e-09
-1.70045e-09
-2.13495e-09
-1.93051e-09
4.07184e-11
3.89027e-11
3.72978e-11
3.62515e-11
3.55583e-11
3.51669e-11
3.5074e-11
3.52691e-11
3.57372e-11
3.64639e-11
3.74357e-11
3.86402e-11
4.00659e-11
4.17028e-11
4.35417e-11
4.55745e-11
4.77938e-11
5.01934e-11
5.27677e-11
5.55117e-11
5.84212e-11
6.14923e-11
6.47215e-11
6.8106e-11
7.16427e-11
7.53292e-11
7.91628e-11
8.3141e-11
8.72613e-11
9.15207e-11
9.59165e-11
1.00445e-10
1.05103e-10
1.09886e-10
1.1479e-10
1.19808e-10
1.24936e-10
1.30165e-10
1.35488e-10
1.40895e-10
1.46376e-10
1.5192e-10
1.57514e-10
1.63142e-10
1.68787e-10
1.74432e-10
1.80056e-10
1.85635e-10
1.91144e-10
1.96556e-10
2.01838e-10
2.06957e-10
2.11874e-10
2.16549e-10
2.20937e-10
2.24987e-10
2.28645e-10
2.31853e-10
2.34547e-10
2.36655e-10
2.38103e-10
2.38807e-10
2.38679e-10
2.37622e-10
2.3553e-10
2.32292e-10
2.27784e-10
2.21876e-10
2.14427e-10
2.05283e-10
1.94283e-10
1.81251e-10
1.66e-10
1.48331e-10
1.2803e-10
1.04871e-10
7.86124e-11
4.89996e-11
1.57629e-11
-2.13814e-11
-6.27311e-11
-1.08597e-10
-1.59304e-10
-2.15185e-10
-2.76584e-10
-3.43851e-10
-4.17338e-10
-4.97396e-10
-5.84367e-10
-6.78576e-10
-7.80319e-10
-8.89839e-10
-1.00735e-09
-1.13318e-09
-1.26721e-09
-1.40506e-09
-1.5416e-09
-1.74096e-09
-2.17034e-09
-1.95392e-09
3.78796e-11
3.62694e-11
3.47897e-11
3.38275e-11
3.31958e-11
3.28412e-11
3.27597e-11
3.29422e-11
3.33757e-11
3.40476e-11
3.4946e-11
3.60598e-11
3.73788e-11
3.88935e-11
4.05953e-11
4.24767e-11
4.45304e-11
4.67501e-11
4.91303e-11
5.16657e-11
5.43515e-11
5.71837e-11
6.01581e-11
6.32711e-11
6.65192e-11
6.9899e-11
7.3407e-11
7.70399e-11
8.07941e-11
8.4666e-11
8.86514e-11
9.2746e-11
9.69451e-11
1.01243e-10
1.05635e-10
1.10113e-10
1.1467e-10
1.19298e-10
1.23988e-10
1.28729e-10
1.3351e-10
1.38317e-10
1.43136e-10
1.47951e-10
1.52744e-10
1.57495e-10
1.62182e-10
1.66782e-10
1.71266e-10
1.75607e-10
1.79771e-10
1.83724e-10
1.87428e-10
1.90839e-10
1.93913e-10
1.96599e-10
1.98843e-10
2.00586e-10
2.01764e-10
2.02309e-10
2.02144e-10
2.01188e-10
1.99356e-10
1.9655e-10
1.92671e-10
1.87608e-10
1.81245e-10
1.73453e-10
1.64099e-10
1.53037e-10
1.40111e-10
1.25157e-10
1.07998e-10
8.84457e-11
6.63008e-11
4.13518e-11
1.33751e-11
-1.78651e-11
-5.26169e-11
-9.11405e-11
-1.33707e-10
-1.806e-10
-2.32112e-10
-2.88543e-10
-3.50201e-10
-4.17399e-10
-4.90448e-10
-5.69658e-10
-6.5533e-10
-7.47749e-10
-8.47171e-10
-9.53802e-10
-1.06783e-09
-1.18955e-09
-1.31883e-09
-1.45125e-09
-1.58164e-09
-1.77458e-09
-2.19838e-09
-1.97142e-09
3.49275e-11
3.35011e-11
3.21584e-11
3.12829e-11
3.0712e-11
3.03949e-11
3.03267e-11
3.04993e-11
3.09014e-11
3.1522e-11
3.23505e-11
3.33772e-11
3.45927e-11
3.59882e-11
3.75559e-11
3.92883e-11
4.11786e-11
4.32205e-11
4.54082e-11
4.77364e-11
5.02001e-11
5.27946e-11
5.55154e-11
5.83583e-11
6.13191e-11
6.43937e-11
6.7578e-11
7.08676e-11
7.42582e-11
7.77452e-11
8.13236e-11
8.49881e-11
8.87328e-11
9.25514e-11
9.6437e-11
1.00382e-10
1.04377e-10
1.08414e-10
1.12481e-10
1.16568e-10
1.20661e-10
1.24746e-10
1.28807e-10
1.32828e-10
1.36789e-10
1.40669e-10
1.44445e-10
1.48092e-10
1.51582e-10
1.54885e-10
1.57969e-10
1.60796e-10
1.63329e-10
1.65524e-10
1.67336e-10
1.68714e-10
1.69605e-10
1.69949e-10
1.69684e-10
1.68741e-10
1.67046e-10
1.64521e-10
1.61079e-10
1.5663e-10
1.51073e-10
1.44305e-10
1.36212e-10
1.26673e-10
1.15558e-10
1.0273e-10
8.80425e-11
7.13386e-11
5.24529e-11
3.12093e-11
7.42216e-12
-1.9105e-11
-4.85788e-11
-8.12165e-11
-1.17245e-10
-1.56903e-10
-2.00436e-10
-2.481e-10
-3.00159e-10
-3.56882e-10
-4.18546e-10
-4.85426e-10
-5.578e-10
-6.35941e-10
-7.20113e-10
-8.10567e-10
-9.07525e-10
-1.01116e-09
-1.12164e-09
-1.23925e-09
-1.36382e-09
-1.49091e-09
-1.61534e-09
-1.80196e-09
-2.21978e-09
-1.98359e-09
3.18816e-11
3.06225e-11
2.94202e-11
2.86339e-11
2.81247e-11
2.78459e-11
2.77928e-11
2.79581e-11
2.83317e-11
2.89041e-11
2.96661e-11
3.06089e-11
3.1724e-11
3.30034e-11
3.44397e-11
3.60258e-11
3.77551e-11
3.96214e-11
4.16189e-11
4.3742e-11
4.59855e-11
4.83443e-11
5.08135e-11
5.33883e-11
5.6064e-11
5.88359e-11
6.1699e-11
6.46484e-11
6.76788e-11
7.07849e-11
7.39607e-11
7.72001e-11
8.04962e-11
8.38418e-11
8.72289e-11
9.06487e-11
9.40916e-11
9.75473e-11
1.01004e-10
1.04449e-10
1.07869e-10
1.11249e-10
1.14571e-10
1.17817e-10
1.20967e-10
1.24e-10
1.26892e-10
1.29615e-10
1.32143e-10
1.34443e-10
1.36483e-10
1.38226e-10
1.39633e-10
1.4066e-10
1.41262e-10
1.41389e-10
1.40987e-10
1.39998e-10
1.3836e-10
1.36006e-10
1.32864e-10
1.28856e-10
1.23899e-10
1.17906e-10
1.1078e-10
1.02421e-10
9.27204e-11
8.15628e-11
6.88256e-11
5.43783e-11
3.80825e-11
1.97917e-11
-6.49376e-13
-2.34044e-11
-4.86459e-11
-7.65553e-11
-1.07323e-10
-1.41147e-10
-1.78237e-10
-2.18806e-10
-2.6308e-10
-3.11287e-10
-3.63666e-10
-4.20456e-10
-4.81903e-10
-5.48254e-10
-6.19753e-10
-6.96641e-10
-7.79151e-10
-8.67502e-10
-9.61889e-10
-1.06246e-09
-1.16936e-09
-1.28285e-09
-1.40277e-09
-1.52465e-09
-1.6433e-09
-1.82371e-09
-2.23521e-09
-1.99096e-09
2.87618e-11
2.76607e-11
2.65965e-11
2.59003e-11
2.54528e-11
2.52129e-11
2.51762e-11
2.53361e-11
2.56838e-11
2.62109e-11
2.69093e-11
2.77711e-11
2.87888e-11
2.99551e-11
3.12629e-11
3.27054e-11
3.42765e-11
3.59698e-11
3.77796e-11
3.97001e-11
4.17258e-11
4.38515e-11
4.60718e-11
4.83813e-11
5.0775e-11
5.32473e-11
5.57929e-11
5.8406e-11
6.10807e-11
6.38107e-11
6.65894e-11
6.94098e-11
7.22642e-11
7.51444e-11
7.80415e-11
8.09459e-11
8.3847e-11
8.67334e-11
8.95927e-11
9.24111e-11
9.51739e-11
9.78649e-11
1.00466e-10
1.02959e-10
1.05323e-10
1.07534e-10
1.09568e-10
1.11398e-10
1.12995e-10
1.14329e-10
1.15364e-10
1.16063e-10
1.16389e-10
1.16296e-10
1.15741e-10
1.14673e-10
1.13039e-10
1.10782e-10
1.07841e-10
1.04151e-10
9.96411e-11
9.42365e-11
8.78571e-11
8.04173e-11
7.18262e-11
6.19868e-11
5.0796e-11
3.81443e-11
2.39157e-11
7.98726e-12
-9.77082e-12
-2.94957e-11
-5.13317e-11
-7.54309e-11
-1.01952e-10
-1.31063e-10
-1.62938e-10
-1.97757e-10
-2.35711e-10
-2.76993e-10
-3.21805e-10
-3.70354e-10
-4.22852e-10
-4.79513e-10
-5.40555e-10
-6.06196e-10
-6.76652e-10
-7.52136e-10
-8.32852e-10
-9.18994e-10
-1.01073e-09
-1.10819e-09
-1.2115e-09
-1.32091e-09
-1.43624e-09
-1.55303e-09
-1.66608e-09
-1.84039e-09
-2.24526e-09
-1.99403e-09
2.55881e-11
2.46379e-11
2.37089e-11
2.31014e-11
2.27152e-11
2.25143e-11
2.24949e-11
2.26509e-11
2.29746e-11
2.34588e-11
2.40962e-11
2.488e-11
2.58032e-11
2.68592e-11
2.80414e-11
2.93434e-11
3.07591e-11
3.22823e-11
3.39073e-11
3.56281e-11
3.74392e-11
3.93349e-11
4.13095e-11
4.33573e-11
4.54726e-11
4.76495e-11
4.98819e-11
5.21635e-11
5.44877e-11
5.68475e-11
5.92356e-11
6.16442e-11
6.40647e-11
6.64882e-11
6.8905e-11
7.13045e-11
7.36755e-11
7.60055e-11
7.82813e-11
8.04883e-11
8.2611e-11
8.46322e-11
8.65336e-11
8.82952e-11
8.98954e-11
9.13107e-11
9.25158e-11
9.34835e-11
9.41842e-11
9.4586e-11
9.46548e-11
9.43535e-11
9.36426e-11
9.24796e-11
9.08189e-11
8.86119e-11
8.58061e-11
8.23457e-11
7.8171e-11
7.32181e-11
6.7419e-11
6.07013e-11
5.29876e-11
4.41962e-11
3.42397e-11
2.30259e-11
1.0457e-11
-3.57061e-12
-1.91661e-11
-3.64449e-11
-5.55282e-11
-7.65437e-11
-9.96253e-11
-1.24913e-10
-1.52554e-10
-1.82701e-10
-2.15512e-10
-2.51152e-10
-2.89792e-10
-3.31608e-10
-3.7678e-10
-4.25493e-10
-4.77935e-10
-5.34297e-10
-5.94771e-10
-6.59551e-10
-7.28826e-10
-8.02783e-10
-8.81603e-10
-9.65456e-10
-1.05449e-09
-1.14882e-09
-1.24854e-09
-1.3539e-09
-1.46473e-09
-1.57655e-09
-1.68418e-09
-1.8525e-09
-2.25048e-09
-1.99325e-09
2.23784e-11
2.1573e-11
2.07754e-11
2.02557e-11
1.99301e-11
1.9768e-11
1.97662e-11
1.99194e-11
2.02208e-11
2.06641e-11
2.1243e-11
2.19513e-11
2.27828e-11
2.37315e-11
2.47911e-11
2.59555e-11
2.72189e-11
2.85753e-11
3.00187e-11
3.15433e-11
3.31432e-11
3.48125e-11
3.65453e-11
3.83355e-11
4.01769e-11
4.20631e-11
4.39875e-11
4.59432e-11
4.79231e-11
4.99195e-11
5.19243e-11
5.3929e-11
5.59245e-11
5.7901e-11
5.98481e-11
6.17544e-11
6.36078e-11
6.53953e-11
6.71027e-11
6.87148e-11
7.02153e-11
7.15862e-11
7.28087e-11
7.38619e-11
7.47238e-11
7.53703e-11
7.57757e-11
7.59122e-11
7.575e-11
7.5257e-11
7.43989e-11
7.31387e-11
7.1437e-11
6.92516e-11
6.65377e-11
6.32471e-11
5.93288e-11
5.47281e-11
4.93869e-11
4.32433e-11
3.62315e-11
2.82817e-11
1.93199e-11
9.26759e-12
-1.95812e-12
-1.44449e-11
-2.82852e-11
-4.35764e-11
-6.04212e-11
-7.89271e-11
-9.92072e-11
-1.2138e-10
-1.45568e-10
-1.71901e-10
-2.00513e-10
-2.31544e-10
-2.65136e-10
-3.0144e-10
-3.40608e-10
-3.82798e-10
-4.28172e-10
-4.76892e-10
-5.29127e-10
-5.85045e-10
-6.44815e-10
-7.08606e-10
-7.76587e-10
-8.48921e-10
-9.25768e-10
-1.00728e-09
-1.09357e-09
-1.18476e-09
-1.28092e-09
-1.3823e-09
-1.4887e-09
-1.59568e-09
-1.69807e-09
-1.86052e-09
-2.25141e-09
-1.98904e-09
1.91495e-11
1.8484e-11
1.78143e-11
1.73804e-11
1.71145e-11
1.69907e-11
1.70068e-11
1.7158e-11
1.74384e-11
1.78426e-11
1.83651e-11
1.90005e-11
1.9743e-11
2.05872e-11
2.15272e-11
2.25574e-11
2.36718e-11
2.48647e-11
2.61302e-11
2.74623e-11
2.8855e-11
3.03021e-11
3.17976e-11
3.33348e-11
3.49074e-11
3.65084e-11
3.81307e-11
3.97669e-11
4.14093e-11
4.30497e-11
4.46794e-11
4.62893e-11
4.78694e-11
4.94095e-11
5.08983e-11
5.23238e-11
5.36733e-11
5.4933e-11
5.60881e-11
5.71226e-11
5.80196e-11
5.87607e-11
5.93261e-11
5.96948e-11
5.98439e-11
5.97492e-11
5.93845e-11
5.87218e-11
5.77311e-11
5.63802e-11
5.46347e-11
5.24579e-11
4.98105e-11
4.66509e-11
4.29349e-11
3.86157e-11
3.36432e-11
2.79643e-11
2.15225e-11
1.42581e-11
6.10771e-12
-2.99572e-12
-1.3123e-11
-2.43487e-11
-3.67517e-11
-5.04148e-11
-6.5425e-11
-8.18738e-11
-9.9857e-11
-1.19475e-10
-1.40831e-10
-1.64036e-10
-1.89203e-10
-2.1645e-10
-2.45898e-10
-2.77673e-10
-3.11907e-10
-3.48733e-10
-3.88287e-10
-4.30711e-10
-4.76146e-10
-5.24739e-10
-5.76637e-10
-6.31986e-10
-6.90937e-10
-7.53638e-10
-8.20234e-10
-8.90871e-10
-9.65687e-10
-1.04481e-09
-1.12836e-09
-1.21642e-09
-1.30906e-09
-1.40652e-09
-1.5086e-09
-1.61087e-09
-1.70818e-09
-1.8649e-09
-2.24852e-09
-1.98182e-09
1.5918e-11
1.5387e-11
1.48414e-11
1.44917e-11
1.42845e-11
1.41986e-11
1.42325e-11
1.43823e-11
1.4643e-11
1.50097e-11
1.54779e-11
1.60426e-11
1.66988e-11
1.74414e-11
1.8265e-11
1.91641e-11
2.01331e-11
2.11663e-11
2.22577e-11
2.34014e-11
2.45912e-11
2.58209e-11
2.70839e-11
2.83736e-11
2.96829e-11
3.10048e-11
3.23315e-11
3.36554e-11
3.4968e-11
3.62607e-11
3.75242e-11
3.87489e-11
3.99242e-11
4.10391e-11
4.20819e-11
4.304e-11
4.39e-11