/*--------------------------------*- C++ -*----------------------------------*\
  =========                 |
  \\      /  F ield         | OpenFOAM: The Open Source CFD Toolbox
   \\    /   O peration     | Website:  https://openfoam.org
    \\  /    A nd           | Version:  11
     \\/     M anipulation  |
\*---------------------------------------------------------------------------*/
FoamFile
{
    format      ascii;
    class       volScalarField;
    location    "252";
    object      k;
}
// * * * * * * * * * * * * * * * * * * * * * * * * * * * * * * * * * * * * * //

dimensions      [0 2 -2 0 0 0 0];

internalField   nonuniform List<scalar> 
10000
(
0.000939677
0.000835681
0.00074582
0.000667924
0.000600186
0.000541095
0.000489386
0.000443998
0.000404036
0.000368746
0.000337489
0.000309725
0.000284992
0.000262898
0.000243107
0.000225332
0.000209325
0.000194875
0.000181797
0.000169932
0.000159144
0.000149311
0.00014033
0.00013211
0.000124571
0.000117644
0.000111267
0.000105386
9.9955e-05
9.49316e-05
9.02794e-05
8.5966e-05
8.1963e-05
7.82453e-05
7.47907e-05
7.15798e-05
6.85954e-05
6.58225e-05
6.32476e-05
6.0859e-05
5.86463e-05
5.66002e-05
5.47121e-05
5.29744e-05
5.138e-05
4.9922e-05
4.85941e-05
4.73899e-05
4.6303e-05
4.53271e-05
4.44559e-05
4.36829e-05
4.30015e-05
4.24052e-05
4.18875e-05
4.14423e-05
4.10636e-05
4.07455e-05
4.04823e-05
4.02684e-05
4.00985e-05
3.99676e-05
3.98709e-05
3.98043e-05
3.97639e-05
3.97463e-05
3.97483e-05
3.97668e-05
3.97999e-05
3.98449e-05
3.98997e-05
3.99625e-05
4.00316e-05
4.01056e-05
4.0183e-05
4.02628e-05
4.0344e-05
4.04255e-05
4.05068e-05
4.0587e-05
4.06656e-05
4.0742e-05
4.08158e-05
4.08867e-05
4.09543e-05
4.10184e-05
4.10786e-05
4.11349e-05
4.1187e-05
4.12349e-05
4.12784e-05
4.13174e-05
4.13519e-05
4.13818e-05
4.14071e-05
4.14278e-05
4.1444e-05
4.14557e-05
4.1463e-05
4.14661e-05
0.000939677
0.000835682
0.000745821
0.000667925
0.000600187
0.000541096
0.000489388
0.000444
0.000404038
0.000368748
0.000337491
0.000309727
0.000284994
0.000262899
0.000243108
0.000225333
0.000209327
0.000194876
0.000181798
0.000169934
0.000159145
0.000149313
0.000140332
0.000132112
0.000124573
0.000117646
0.000111269
0.000105388
9.99571e-05
9.49339e-05
9.02817e-05
8.59684e-05
8.19655e-05
7.82479e-05
7.47934e-05
7.15826e-05
6.85984e-05
6.58255e-05
6.32508e-05
6.08623e-05
5.86497e-05
5.66036e-05
5.47156e-05
5.2978e-05
5.13836e-05
4.99257e-05
4.85977e-05
4.73935e-05
4.63065e-05
4.53306e-05
4.44593e-05
4.36861e-05
4.30047e-05
4.24085e-05
4.18909e-05
4.14459e-05
4.10673e-05
4.07491e-05
4.04857e-05
4.02714e-05
4.0101e-05
3.99696e-05
3.98726e-05
3.98057e-05
3.97652e-05
3.97475e-05
3.97493e-05
3.97677e-05
3.98007e-05
3.98457e-05
3.99004e-05
3.99632e-05
4.00323e-05
4.01061e-05
4.01836e-05
4.02633e-05
4.03444e-05
4.0426e-05
4.05072e-05
4.05874e-05
4.06659e-05
4.07423e-05
4.08161e-05
4.0887e-05
4.09546e-05
4.10186e-05
4.10788e-05
4.11351e-05
4.11872e-05
4.12351e-05
4.12785e-05
4.13175e-05
4.1352e-05
4.13819e-05
4.14072e-05
4.14279e-05
4.14441e-05
4.14559e-05
4.14632e-05
4.14662e-05
0.000939678
0.000835683
0.000745823
0.000667927
0.00060019
0.000541099
0.000489391
0.000444003
0.000404041
0.000368751
0.000337494
0.00030973
0.000284997
0.000262903
0.000243112
0.000225337
0.00020933
0.00019488
0.000181802
0.000169937
0.000159149
0.000149316
0.000140335
0.000132115
0.000124576
0.000117649
0.000111272
0.000105392
9.99606e-05
9.49374e-05
9.02854e-05
8.59722e-05
8.19693e-05
7.82518e-05
7.47974e-05
7.15867e-05
6.86025e-05
6.58297e-05
6.3255e-05
6.08666e-05
5.8654e-05
5.66079e-05
5.47199e-05
5.29822e-05
5.13877e-05
4.99296e-05
4.86015e-05
4.73971e-05
4.63099e-05
4.53338e-05
4.44622e-05
4.36889e-05
4.30072e-05
4.24108e-05
4.18932e-05
4.1448e-05
4.10693e-05
4.07509e-05
4.04872e-05
4.02726e-05
4.01019e-05
3.99702e-05
3.98729e-05
3.98058e-05
3.97651e-05
3.97472e-05
3.9749e-05
3.97673e-05
3.98002e-05
3.98451e-05
3.98999e-05
3.99626e-05
4.00317e-05
4.01056e-05
4.0183e-05
4.02628e-05
4.03439e-05
4.04254e-05
4.05067e-05
4.05869e-05
4.06655e-05
4.07419e-05
4.08157e-05
4.08866e-05
4.09543e-05
4.10183e-05
4.10786e-05
4.11349e-05
4.11871e-05
4.12349e-05
4.12785e-05
4.13175e-05
4.1352e-05
4.1382e-05
4.14073e-05
4.14281e-05
4.14443e-05
4.14561e-05
4.14635e-05
4.14665e-05
0.000939678
0.000835684
0.000745825
0.00066793
0.000600193
0.000541103
0.000489395
0.000444007
0.000404045
0.000368755
0.000337499
0.000309735
0.000285001
0.000262907
0.000243116
0.000225341
0.000209335
0.000194884
0.000181806
0.000169942
0.000159153
0.000149321
0.00014034
0.00013212
0.000124581
0.000117654
0.000111277
0.000105397
9.99656e-05
9.49425e-05
9.02905e-05
8.59774e-05
8.19747e-05
7.82572e-05
7.48029e-05
7.15923e-05
6.86082e-05
6.58354e-05
6.32607e-05
6.08723e-05
5.86597e-05
5.66135e-05
5.47253e-05
5.29874e-05
5.13927e-05
4.99345e-05
4.86061e-05
4.74013e-05
4.63138e-05
4.53373e-05
4.44654e-05
4.36916e-05
4.30096e-05
4.24128e-05
4.18949e-05
4.14495e-05
4.10704e-05
4.07517e-05
4.04877e-05
4.02727e-05
4.01016e-05
3.99696e-05
3.9872e-05
3.98047e-05
3.97638e-05
3.97459e-05
3.97475e-05
3.97658e-05
3.97987e-05
3.98435e-05
3.98983e-05
3.9961e-05
4.00301e-05
4.0104e-05
4.01815e-05
4.02613e-05
4.03425e-05
4.04241e-05
4.05054e-05
4.05857e-05
4.06643e-05
4.07408e-05
4.08148e-05
4.08858e-05
4.09535e-05
4.10176e-05
4.1078e-05
4.11343e-05
4.11866e-05
4.12346e-05
4.12782e-05
4.13173e-05
4.13519e-05
4.1382e-05
4.14074e-05
4.14283e-05
4.14446e-05
4.14565e-05
4.14639e-05
4.1467e-05
0.000939678
0.000835685
0.000745827
0.000667933
0.000600196
0.000541107
0.000489399
0.000444012
0.000404051
0.000368761
0.000337505
0.00030974
0.000285007
0.000262913
0.000243122
0.000225347
0.000209341
0.00019489
0.000181812
0.000169948
0.000159159
0.000149327
0.000140346
0.000132126
0.000124587
0.00011766
0.000111283
0.000105403
9.99722e-05
9.49492e-05
9.02973e-05
8.59843e-05
8.19817e-05
7.82643e-05
7.48101e-05
7.15995e-05
6.86155e-05
6.58428e-05
6.32681e-05
6.08796e-05
5.86669e-05
5.66206e-05
5.47322e-05
5.29941e-05
5.13991e-05
4.99405e-05
4.86117e-05
4.74065e-05
4.63185e-05
4.53415e-05
4.4469e-05
4.36947e-05
4.30122e-05
4.24149e-05
4.18965e-05
4.14506e-05
4.10711e-05
4.0752e-05
4.04875e-05
4.02721e-05
4.01007e-05
3.99683e-05
3.98704e-05
3.98028e-05
3.97618e-05
3.97437e-05
3.97452e-05
3.97633e-05
3.97962e-05
3.98411e-05
3.98958e-05
3.99586e-05
4.00277e-05
4.01017e-05
4.01792e-05
4.02591e-05
4.03404e-05
4.04221e-05
4.05035e-05
4.05839e-05
4.06626e-05
4.07393e-05
4.08133e-05
4.08844e-05
4.09522e-05
4.10165e-05
4.1077e-05
4.11335e-05
4.11859e-05
4.1234e-05
4.12778e-05
4.13171e-05
4.13518e-05
4.1382e-05
4.14076e-05
4.14286e-05
4.1445e-05
4.14569e-05
4.14644e-05
4.14675e-05
0.000939678
0.000835686
0.000745828
0.000667936
0.0006002
0.000541111
0.000489404
0.000444017
0.000404056
0.000368767
0.000337511
0.000309747
0.000285014
0.00026292
0.000243129
0.000225354
0.000209348
0.000194897
0.000181819
0.000169955
0.000159166
0.000149334
0.000140353
0.000132133
0.000124595
0.000117668
0.000111291
0.000105411
9.99802e-05
9.49573e-05
9.03056e-05
8.59928e-05
8.19903e-05
7.8273e-05
7.48189e-05
7.16085e-05
6.86245e-05
6.58518e-05
6.32771e-05
6.08886e-05
5.86757e-05
5.66292e-05
5.47406e-05
5.30022e-05
5.14068e-05
4.99477e-05
4.86185e-05
4.74127e-05
4.6324e-05
4.53463e-05
4.44732e-05
4.36982e-05
4.3015e-05
4.2417e-05
4.1898e-05
4.14515e-05
4.10714e-05
4.07517e-05
4.04867e-05
4.02709e-05
4.0099e-05
3.99662e-05
3.9868e-05
3.98002e-05
3.97589e-05
3.97406e-05
3.9742e-05
3.97601e-05
3.97929e-05
3.98377e-05
3.98925e-05
3.99553e-05
4.00245e-05
4.00985e-05
4.01762e-05
4.02562e-05
4.03376e-05
4.04194e-05
4.0501e-05
4.05815e-05
4.06604e-05
4.07372e-05
4.08114e-05
4.08827e-05
4.09506e-05
4.10151e-05
4.10757e-05
4.11324e-05
4.1185e-05
4.12333e-05
4.12772e-05
4.13167e-05
4.13516e-05
4.13819e-05
4.14077e-05
4.14288e-05
4.14454e-05
4.14574e-05
4.1465e-05
4.1468e-05
0.000939679
0.000835687
0.00074583
0.000667939
0.000600204
0.000541116
0.000489409
0.000444023
0.000404063
0.000368774
0.000337518
0.000309754
0.000285022
0.000262928
0.000243137
0.000225362
0.000209356
0.000194905
0.000181827
0.000169963
0.000159175
0.000149342
0.000140362
0.000132142
0.000124604
0.000117677
0.0001113
0.00010542
9.99897e-05
9.4967e-05
9.03154e-05
8.60027e-05
8.20004e-05
7.82833e-05
7.48293e-05
7.1619e-05
6.8635e-05
6.58624e-05
6.32877e-05
6.0899e-05
5.8686e-05
5.66393e-05
5.47504e-05
5.30116e-05
5.14158e-05
4.99561e-05
4.86262e-05
4.74197e-05
4.63304e-05
4.53519e-05
4.44779e-05
4.37021e-05
4.3018e-05
4.24192e-05
4.18994e-05
4.14522e-05
4.10714e-05
4.07511e-05
4.04854e-05
4.0269e-05
4.00966e-05
3.99634e-05
3.98648e-05
3.97967e-05
3.97552e-05
3.97367e-05
3.9738e-05
3.9756e-05
3.97887e-05
3.98336e-05
3.98884e-05
3.99512e-05
4.00205e-05
4.00946e-05
4.01724e-05
4.02525e-05
4.03341e-05
4.04161e-05
4.04978e-05
4.05785e-05
4.06576e-05
4.07346e-05
4.0809e-05
4.08804e-05
4.09486e-05
4.10133e-05
4.10742e-05
4.11311e-05
4.11838e-05
4.12324e-05
4.12765e-05
4.13162e-05
4.13513e-05
4.13818e-05
4.14078e-05
4.14291e-05
4.14458e-05
4.1458e-05
4.14656e-05
4.14686e-05
0.000939679
0.000835688
0.000745832
0.000667941
0.000600207
0.00054112
0.000489415
0.000444029
0.000404069
0.000368781
0.000337526
0.000309762
0.00028503
0.000262936
0.000243145
0.000225371
0.000209364
0.000194914
0.000181837
0.000169972
0.000159184
0.000149352
0.000140372
0.000132152
0.000124614
0.000117687
0.000111311
0.000105431
0.000100001
9.4978e-05
9.03267e-05
8.60142e-05
8.20121e-05
7.82951e-05
7.48413e-05
7.1631e-05
6.86472e-05
6.58745e-05
6.32998e-05
6.0911e-05
5.86979e-05
5.66508e-05
5.47616e-05
5.30223e-05
5.14259e-05
4.99656e-05
4.8635e-05
4.74277e-05
4.63374e-05
4.5358e-05
4.44831e-05
4.37063e-05
4.30213e-05
4.24216e-05
4.19008e-05
4.14527e-05
4.10711e-05
4.075e-05
4.04837e-05
4.02667e-05
4.00937e-05
3.996e-05
3.9861e-05
3.97925e-05
3.97507e-05
3.9732e-05
3.97332e-05
3.9751e-05
3.97838e-05
3.98286e-05
3.98834e-05
3.99463e-05
4.00157e-05
4.00899e-05
4.01678e-05
4.02481e-05
4.03299e-05
4.04121e-05
4.0494e-05
4.05749e-05
4.06542e-05
4.07314e-05
4.08061e-05
4.08778e-05
4.09462e-05
4.10111e-05
4.10722e-05
4.11294e-05
4.11824e-05
4.12312e-05
4.12756e-05
4.13155e-05
4.13509e-05
4.13817e-05
4.14078e-05
4.14294e-05
4.14462e-05
4.14585e-05
4.14662e-05
4.14692e-05
0.000939679
0.000835689
0.000745834
0.000667944
0.000600211
0.000541124
0.00048942
0.000444035
0.000404076
0.000368788
0.000337533
0.00030977
0.000285038
0.000262945
0.000243154
0.00022538
0.000209374
0.000194924
0.000181847
0.000169983
0.000159194
0.000149362
0.000140382
0.000132163
0.000124625
0.000117698
0.000111322
0.000105443
0.000100013
9.49904e-05
9.03393e-05
8.60271e-05
8.20251e-05
7.83084e-05
7.48547e-05
7.16446e-05
6.86608e-05
6.58882e-05
6.33133e-05
6.09245e-05
5.87111e-05
5.66637e-05
5.4774e-05
5.30342e-05
5.14372e-05
4.99762e-05
4.86447e-05
4.74365e-05
4.63453e-05
4.53648e-05
4.44888e-05
4.37109e-05
4.30248e-05
4.2424e-05
4.19022e-05
4.14532e-05
4.10706e-05
4.07487e-05
4.04816e-05
4.02638e-05
4.00902e-05
3.9956e-05
3.98565e-05
3.97876e-05
3.97455e-05
3.97266e-05
3.97276e-05
3.97453e-05
3.9778e-05
3.98228e-05
3.98777e-05
3.99407e-05
4.00101e-05
4.00845e-05
4.01626e-05
4.02431e-05
4.0325e-05
4.04074e-05
4.04896e-05
4.05707e-05
4.06503e-05
4.07278e-05
4.08027e-05
4.08747e-05
4.09434e-05
4.10086e-05
4.107e-05
4.11275e-05
4.11808e-05
4.12299e-05
4.12745e-05
4.13147e-05
4.13504e-05
4.13814e-05
4.14078e-05
4.14296e-05
4.14466e-05
4.1459e-05
4.14667e-05
4.14698e-05
0.00093968
0.00083569
0.000745835
0.000667946
0.000600214
0.000541128
0.000489425
0.000444041
0.000404082
0.000368795
0.000337541
0.000309778
0.000285047
0.000262954
0.000243164
0.00022539
0.000209384
0.000194934
0.000181857
0.000169993
0.000159206
0.000149374
0.000140394
0.000132175
0.000124637
0.000117711
0.000111335
0.000105456
0.000100026
9.50041e-05
9.03533e-05
8.60413e-05
8.20396e-05
7.83231e-05
7.48696e-05
7.16596e-05
6.86758e-05
6.59032e-05
6.33283e-05
6.09393e-05
5.87256e-05
5.66779e-05
5.47877e-05
5.30473e-05
5.14496e-05
4.99877e-05
4.86554e-05
4.74461e-05
4.63538e-05
4.53722e-05
4.4495e-05
4.37159e-05
4.30286e-05
4.24266e-05
4.19037e-05
4.14535e-05
4.107e-05
4.07471e-05
4.04791e-05
4.02605e-05
4.00862e-05
3.99514e-05
3.98514e-05
3.97821e-05
3.97396e-05
3.97204e-05
3.97213e-05
3.97389e-05
3.97715e-05
3.98163e-05
3.98712e-05
3.99342e-05
4.00038e-05
4.00784e-05
4.01566e-05
4.02373e-05
4.03195e-05
4.04021e-05
4.04845e-05
4.0566e-05
4.06458e-05
4.07236e-05
4.07988e-05
4.08712e-05
4.09402e-05
4.10057e-05
4.10675e-05
4.11252e-05
4.11789e-05
4.12283e-05
4.12733e-05
4.13138e-05
4.13498e-05
4.13811e-05
4.14077e-05
4.14297e-05
4.14469e-05
4.14594e-05
4.14673e-05
4.14703e-05
0.00093968
0.000835691
0.000745837
0.000667948
0.000600217
0.000541132
0.00048943
0.000444046
0.000404089
0.000368802
0.000337549
0.000309786
0.000285055
0.000262963
0.000243174
0.0002254
0.000209395
0.000194945
0.000181868
0.000170005
0.000159217
0.000149386
0.000140406
0.000132188
0.00012465
0.000117724
0.000111349
0.00010547
0.000100041
9.50189e-05
9.03684e-05
8.60567e-05
8.20553e-05
7.8339e-05
7.48857e-05
7.16758e-05
6.86922e-05
6.59196e-05
6.33446e-05
6.09553e-05
5.87414e-05
5.66933e-05
5.48026e-05
5.30615e-05
5.1463e-05
5.00003e-05
4.86669e-05
4.74565e-05
4.6363e-05
4.53801e-05
4.45017e-05
4.37213e-05
4.30326e-05
4.24294e-05
4.19052e-05
4.14538e-05
4.10691e-05
4.07452e-05
4.04762e-05
4.02568e-05
4.00818e-05
3.99463e-05
3.98457e-05
3.97759e-05
3.97331e-05
3.97136e-05
3.97143e-05
3.97317e-05
3.97642e-05
3.9809e-05
3.9864e-05
3.99271e-05
3.99968e-05
4.00716e-05
4.015e-05
4.02309e-05
4.03133e-05
4.03963e-05
4.0479e-05
4.05607e-05
4.06409e-05
4.0719e-05
4.07946e-05
4.08672e-05
4.09366e-05
4.10025e-05
4.10646e-05
4.11227e-05
4.11767e-05
4.12265e-05
4.12718e-05
4.13127e-05
4.1349e-05
4.13806e-05
4.14075e-05
4.14297e-05
4.14471e-05
4.14598e-05
4.14677e-05
4.14708e-05
0.00093968
0.000835691
0.000745838
0.00066795
0.00060022
0.000541136
0.000489434
0.000444052
0.000404095
0.000368809
0.000337556
0.000309795
0.000285064
0.000262972
0.000243183
0.00022541
0.000209405
0.000194956
0.00018188
0.000170017
0.00015923
0.000149399
0.00014042
0.000132201
0.000124664
0.000117739
0.000111363
0.000105485
0.000100056
9.50347e-05
9.03846e-05
8.60732e-05
8.20721e-05
7.83561e-05
7.4903e-05
7.16933e-05
6.87097e-05
6.59371e-05
6.3362e-05
6.09726e-05
5.87583e-05
5.67098e-05
5.48185e-05
5.30767e-05
5.14774e-05
5.00137e-05
4.86792e-05
4.74677e-05
4.63729e-05
4.53887e-05
4.45088e-05
4.3727e-05
4.30369e-05
4.24323e-05
4.19067e-05
4.14541e-05
4.10682e-05
4.07431e-05
4.04731e-05
4.02528e-05
4.00769e-05
3.99407e-05
3.98395e-05
3.97693e-05
3.9726e-05
3.97062e-05
3.97066e-05
3.97239e-05
3.97564e-05
3.98011e-05
3.98561e-05
3.99194e-05
3.99892e-05
4.00641e-05
4.01427e-05
4.02239e-05
4.03066e-05
4.03898e-05
4.04728e-05
4.05549e-05
4.06354e-05
4.07139e-05
4.07898e-05
4.08629e-05
4.09326e-05
4.09989e-05
4.10614e-05
4.11199e-05
4.11743e-05
4.12245e-05
4.12702e-05
4.13114e-05
4.1348e-05
4.138e-05
4.14072e-05
4.14296e-05
4.14473e-05
4.14601e-05
4.14681e-05
4.14712e-05
0.00093968
0.000835692
0.000745839
0.000667952
0.000600222
0.00054114
0.000489438
0.000444057
0.000404101
0.000368816
0.000337564
0.000309803
0.000285073
0.000262982
0.000243193
0.000225421
0.000209416
0.000194968
0.000181892
0.000170029
0.000159243
0.000149412
0.000140433
0.000132216
0.000124679
0.000117754
0.000111379
0.000105501
0.000100072
9.50515e-05
9.04018e-05
8.60908e-05
8.209e-05
7.83743e-05
7.49214e-05
7.17119e-05
6.87284e-05
6.59558e-05
6.33806e-05
6.09909e-05
5.87763e-05
5.67273e-05
5.48354e-05
5.30929e-05
5.14926e-05
5.00279e-05
4.86923e-05
4.74795e-05
4.63833e-05
4.53977e-05
4.45163e-05
4.3733e-05
4.30414e-05
4.24353e-05
4.19083e-05
4.14543e-05
4.10671e-05
4.07409e-05
4.04698e-05
4.02485e-05
4.00717e-05
3.99347e-05
3.98329e-05
3.97621e-05
3.97184e-05
3.96983e-05
3.96984e-05
3.97155e-05
3.97479e-05
3.97926e-05
3.98476e-05
3.9911e-05
3.9981e-05
4.0056e-05
4.01349e-05
4.02163e-05
4.02993e-05
4.03828e-05
4.04662e-05
4.05486e-05
4.06295e-05
4.07084e-05
4.07847e-05
4.08581e-05
4.09283e-05
4.0995e-05
4.10579e-05
4.11169e-05
4.11717e-05
4.12222e-05
4.12683e-05
4.13099e-05
4.13469e-05
4.13792e-05
4.14067e-05
4.14294e-05
4.14473e-05
4.14603e-05
4.14684e-05
4.14715e-05
0.00093968
0.000835693
0.00074584
0.000667954
0.000600225
0.000541143
0.000489442
0.000444062
0.000404106
0.000368822
0.000337571
0.000309811
0.000285082
0.000262991
0.000243203
0.000225431
0.000209428
0.00019498
0.000181904
0.000170042
0.000159256
0.000149426
0.000140448
0.00013223
0.000124694
0.00011777
0.000111395
0.000105518
0.00010009
9.50692e-05
9.04199e-05
8.61092e-05
8.21088e-05
7.83934e-05
7.49408e-05
7.17314e-05
6.8748e-05
6.59754e-05
6.34001e-05
6.10102e-05
5.87952e-05
5.67457e-05
5.48532e-05
5.31099e-05
5.15087e-05
5.00428e-05
4.8706e-05
4.74919e-05
4.63943e-05
4.54071e-05
4.45242e-05
4.37393e-05
4.30462e-05
4.24385e-05
4.191e-05
4.14545e-05
4.1066e-05
4.07385e-05
4.04662e-05
4.02439e-05
4.00662e-05
3.99284e-05
3.98259e-05
3.97545e-05
3.97103e-05
3.96898e-05
3.96897e-05
3.97066e-05
3.97388e-05
3.97835e-05
3.98386e-05
3.9902e-05
3.99721e-05
4.00474e-05
4.01265e-05
4.02082e-05
4.02915e-05
4.03754e-05
4.04591e-05
4.05419e-05
4.06232e-05
4.07024e-05
4.07792e-05
4.0853e-05
4.09236e-05
4.09907e-05
4.10541e-05
4.11135e-05
4.11687e-05
4.12197e-05
4.12662e-05
4.13082e-05
4.13456e-05
4.13782e-05
4.1406e-05
4.1429e-05
4.14471e-05
4.14603e-05
4.14685e-05
4.14717e-05
0.00093968
0.000835693
0.000745842
0.000667956
0.000600227
0.000541146
0.000489446
0.000444066
0.000404112
0.000368829
0.000337578
0.000309819
0.00028509
0.000263
0.000243213
0.000225442
0.000209439
0.000194992
0.000181917
0.000170055
0.00015927
0.00014944
0.000140462
0.000132246
0.00012471
0.000117786
0.000111412
0.000105535
0.000100107
9.50876e-05
9.04387e-05
8.61285e-05
8.21284e-05
7.84133e-05
7.4961e-05
7.17518e-05
6.87685e-05
6.59959e-05
6.34205e-05
6.10304e-05
5.8815e-05
5.6765e-05
5.48717e-05
5.31276e-05
5.15254e-05
5.00584e-05
4.87203e-05
4.75048e-05
4.64057e-05
4.5417e-05
4.45325e-05
4.37459e-05
4.30511e-05
4.24418e-05
4.19118e-05
4.14548e-05
4.10648e-05
4.0736e-05
4.04625e-05
4.0239e-05
4.00604e-05
3.99217e-05
3.98185e-05
3.97465e-05
3.97018e-05
3.96809e-05
3.96805e-05
3.96972e-05
3.97293e-05
3.9774e-05
3.9829e-05
3.98926e-05
3.99628e-05
4.00383e-05
4.01176e-05
4.01996e-05
4.02832e-05
4.03674e-05
4.04515e-05
4.05347e-05
4.06164e-05
4.0696e-05
4.07732e-05
4.08475e-05
4.09186e-05
4.09862e-05
4.105e-05
4.11099e-05
4.11656e-05
4.1217e-05
4.12639e-05
4.13063e-05
4.13441e-05
4.1377e-05
4.14052e-05
4.14285e-05
4.14468e-05
4.14602e-05
4.14685e-05
4.14717e-05
0.000939681
0.000835694
0.000745842
0.000667957
0.000600229
0.000541149
0.00048945
0.000444071
0.000404117
0.000368835
0.000337585
0.000309826
0.000285099
0.00026301
0.000243223
0.000225452
0.00020945
0.000195003
0.000181929
0.000170068
0.000159283
0.000149455
0.000140477
0.000132261
0.000124726
0.000117803
0.00011143
0.000105553
0.000100126
9.51066e-05
9.04582e-05
8.61484e-05
8.21488e-05
7.8434e-05
7.4982e-05
7.1773e-05
6.87898e-05
6.60172e-05
6.34416e-05
6.10513e-05
5.88355e-05
5.67849e-05
5.4891e-05
5.3146e-05
5.15427e-05
5.00746e-05
4.87352e-05
4.75182e-05
4.64176e-05
4.54273e-05
4.4541e-05
4.37528e-05
4.30563e-05
4.24453e-05
4.19136e-05
4.1455e-05
4.10636e-05
4.07333e-05
4.04586e-05
4.0234e-05
4.00544e-05
3.99148e-05
3.98108e-05
3.97381e-05
3.96929e-05
3.96716e-05
3.96709e-05
3.96873e-05
3.97193e-05
3.97639e-05
3.9819e-05
3.98826e-05
3.9953e-05
4.00287e-05
4.01083e-05
4.01906e-05
4.02745e-05
4.0359e-05
4.04435e-05
4.05271e-05
4.06092e-05
4.06893e-05
4.0767e-05
4.08417e-05
4.09133e-05
4.09813e-05
4.10456e-05
4.1106e-05
4.11621e-05
4.1214e-05
4.12614e-05
4.13042e-05
4.13423e-05
4.13757e-05
4.14042e-05
4.14277e-05
4.14463e-05
4.14598e-05
4.14683e-05
4.14716e-05
0.000939681
0.000835694
0.000745843
0.000667959
0.000600232
0.000541152
0.000489453
0.000444075
0.000404122
0.00036884
0.000337591
0.000309834
0.000285107
0.000263019
0.000243233
0.000225463
0.000209461
0.000195015
0.000181942
0.000170082
0.000159297
0.000149469
0.000140493
0.000132277
0.000124743
0.00011782
0.000111447
0.000105571
0.000100145
9.51261e-05
9.04782e-05
8.61689e-05
8.21697e-05
7.84553e-05
7.50036e-05
7.17948e-05
6.88117e-05
6.60391e-05
6.34634e-05
6.10728e-05
5.88566e-05
5.68054e-05
5.49108e-05
5.31649e-05
5.15606e-05
5.00913e-05
4.87505e-05
4.7532e-05
4.64299e-05
4.54378e-05
4.45499e-05
4.37599e-05
4.30616e-05
4.24489e-05
4.19155e-05
4.14553e-05
4.10623e-05
4.07307e-05
4.04547e-05
4.02288e-05
4.00481e-05
3.99076e-05
3.98028e-05
3.97294e-05
3.96837e-05
3.96619e-05
3.96609e-05
3.96771e-05
3.97089e-05
3.97535e-05
3.98086e-05
3.98723e-05
3.99428e-05
4.00187e-05
4.00985e-05
4.01811e-05
4.02653e-05
4.03503e-05
4.04351e-05
4.05191e-05
4.06017e-05
4.06823e-05
4.07604e-05
4.08356e-05
4.09077e-05
4.09762e-05
4.1041e-05
4.11018e-05
4.11584e-05
4.12108e-05
4.12586e-05
4.13019e-05
4.13404e-05
4.13741e-05
4.1403e-05
4.14268e-05
4.14456e-05
4.14594e-05
4.14679e-05
4.14713e-05
0.000939681
0.000835695
0.000745844
0.00066796
0.000600233
0.000541154
0.000489457
0.000444079
0.000404127
0.000368846
0.000337598
0.000309841
0.000285115
0.000263027
0.000243243
0.000225473
0.000209472
0.000195027
0.000181954
0.000170095
0.000159311
0.000149484
0.000140508
0.000132293
0.00012476
0.000117837
0.000111465
0.00010559
0.000100164
9.5146e-05
9.04987e-05
8.61899e-05
8.21911e-05
7.84771e-05
7.50256e-05
7.18171e-05
6.88341e-05
6.60615e-05
6.34857e-05
6.10948e-05
5.88782e-05
5.68265e-05
5.4931e-05
5.31842e-05
5.15789e-05
5.01083e-05
4.87662e-05
4.75462e-05
4.64424e-05
4.54487e-05
4.4559e-05
4.37672e-05
4.30671e-05
4.24526e-05
4.19175e-05
4.14556e-05
4.10611e-05
4.0728e-05
4.04506e-05
4.02236e-05
4.00417e-05
3.99003e-05
3.97946e-05
3.97206e-05
3.96742e-05
3.9652e-05
3.96506e-05
3.96665e-05
3.96982e-05
3.97427e-05
3.97978e-05
3.98616e-05
3.99323e-05
4.00084e-05
4.00884e-05
4.01713e-05
4.02558e-05
4.03412e-05
4.04264e-05
4.05108e-05
4.05939e-05
4.06749e-05
4.07535e-05
4.08292e-05
4.09018e-05
4.09708e-05
4.10361e-05
4.10974e-05
4.11545e-05
4.12073e-05
4.12556e-05
4.12993e-05
4.13383e-05
4.13724e-05
4.14015e-05
4.14257e-05
4.14447e-05
4.14587e-05
4.14674e-05
4.14708e-05
0.000939681
0.000835695
0.000745845
0.000667961
0.000600235
0.000541157
0.00048946
0.000444083
0.000404132
0.000368852
0.000337604
0.000309848
0.000285123
0.000263036
0.000243252
0.000225484
0.000209483
0.000195039
0.000181967
0.000170108
0.000159326
0.000149499
0.000140524
0.000132309
0.000124776
0.000117855
0.000111484
0.000105609
0.000100184
9.51662e-05
9.05195e-05
8.62112e-05
8.22129e-05
7.84993e-05
7.50481e-05
7.18398e-05
6.8857e-05
6.60843e-05
6.35084e-05
6.11172e-05
5.89002e-05
5.68479e-05
5.49517e-05
5.3204e-05
5.15975e-05
5.01257e-05
4.87821e-05
4.75607e-05
4.64552e-05
4.54598e-05
4.45683e-05
4.37746e-05
4.30727e-05
4.24564e-05
4.19195e-05
4.1456e-05
4.10598e-05
4.07252e-05
4.04464e-05
4.02182e-05
4.00352e-05
3.98928e-05
3.97862e-05
3.97115e-05
3.96645e-05
3.96418e-05
3.96401e-05
3.96557e-05
3.96872e-05
3.97316e-05
3.97867e-05
3.98506e-05
3.99214e-05
3.99977e-05
4.0078e-05
4.01612e-05
4.02461e-05
4.03317e-05
4.04174e-05
4.05023e-05
4.05857e-05
4.06672e-05
4.07463e-05
4.08226e-05
4.08956e-05
4.09652e-05
4.1031e-05
4.10928e-05
4.11504e-05
4.12037e-05
4.12525e-05
4.12966e-05
4.1336e-05
4.13704e-05
4.13999e-05
4.14244e-05
4.14437e-05
4.14578e-05
4.14667e-05
4.14701e-05
0.000939681
0.000835695
0.000745846
0.000667962
0.000600237
0.000541159
0.000489463
0.000444087
0.000404136
0.000368857
0.00033761
0.000309855
0.000285131
0.000263045
0.000243261
0.000225494
0.000209494
0.000195051
0.000181979
0.000170122
0.00015934
0.000149514
0.000140539
0.000132326
0.000124794
0.000117873
0.000111502
0.000105628
0.000100204
9.51867e-05
9.05405e-05
8.62328e-05
8.22349e-05
7.85217e-05
7.50709e-05
7.18628e-05
6.88801e-05
6.61074e-05
6.35314e-05
6.11399e-05
5.89225e-05
5.68696e-05
5.49726e-05
5.3224e-05
5.16164e-05
5.01433e-05
4.87984e-05
4.75753e-05
4.64682e-05
4.5471e-05
4.45777e-05
4.37822e-05
4.30784e-05
4.24603e-05
4.19216e-05
4.14564e-05
4.10586e-05
4.07224e-05
4.04423e-05
4.02127e-05
4.00286e-05
3.98851e-05
3.97778e-05
3.97022e-05
3.96546e-05
3.96314e-05
3.96293e-05
3.96447e-05
3.9676e-05
3.97203e-05
3.97754e-05
3.98393e-05
3.99103e-05
3.99867e-05
4.00673e-05
4.01508e-05
4.0236e-05
4.03221e-05
4.04081e-05
4.04934e-05
4.05774e-05
4.06594e-05
4.07389e-05
4.08157e-05
4.08892e-05
4.09593e-05
4.10256e-05
4.10879e-05
4.11461e-05
4.11998e-05
4.12491e-05
4.12936e-05
4.13334e-05
4.13683e-05
4.13981e-05
4.14229e-05
4.14424e-05
4.14567e-05
4.14657e-05
4.14692e-05
0.000939681
0.000835696
0.000745846
0.000667964
0.000600239
0.000541161
0.000489466
0.00044409
0.00040414
0.000368862
0.000337616
0.000309862
0.000285138
0.000263053
0.00024327
0.000225504
0.000209505
0.000195062
0.000181992
0.000170135
0.000159354
0.000149528
0.000140555
0.000132342
0.000124811
0.000117891
0.000111521
0.000105648
0.000100224
9.52072e-05
9.05616e-05
8.62545e-05
8.22571e-05
7.85443e-05
7.50938e-05
7.1886e-05
6.89034e-05
6.61307e-05
6.35546e-05
6.11628e-05
5.8945e-05
5.68914e-05
5.49937e-05
5.32441e-05
5.16355e-05
5.01611e-05
4.88147e-05
4.75901e-05
4.64814e-05
4.54824e-05
4.45872e-05
4.37899e-05
4.30843e-05
4.24643e-05
4.19238e-05
4.14568e-05
4.10574e-05
4.07197e-05
4.04381e-05
4.02072e-05
4.0022e-05
3.98775e-05
3.97692e-05
3.96929e-05
3.96447e-05
3.96209e-05
3.96185e-05
3.96335e-05
3.96646e-05
3.97088e-05
3.97639e-05
3.98278e-05
3.98989e-05
3.99756e-05
4.00564e-05
4.01402e-05
4.02257e-05
4.03122e-05
4.03986e-05
4.04844e-05
4.05688e-05
4.06512e-05
4.07313e-05
4.08086e-05
4.08826e-05
4.09532e-05
4.102e-05
4.10829e-05
4.11415e-05
4.11958e-05
4.12455e-05
4.12905e-05
4.13307e-05
4.13659e-05
4.13961e-05
4.14211e-05
4.1441e-05
4.14555e-05
4.14646e-05
4.14681e-05
0.000939681
0.000835696
0.000745847
0.000667965
0.00060024
0.000541163
0.000489468
0.000444094
0.000404145
0.000368867
0.000337622
0.000309868
0.000285145
0.000263061
0.000243279
0.000225513
0.000209516
0.000195074
0.000182004
0.000170148
0.000159367
0.000149543
0.00014057
0.000132358
0.000124828
0.000117908
0.000111539
0.000105667
0.000100244
9.52278e-05
9.05828e-05
8.62762e-05
8.22793e-05
7.8567e-05
7.51168e-05
7.19092e-05
6.89267e-05
6.61541e-05
6.35778e-05
6.11858e-05
5.89675e-05
5.69134e-05
5.50149e-05
5.32644e-05
5.16546e-05
5.0179e-05
4.88312e-05
4.7605e-05
4.64946e-05
4.54938e-05
4.45969e-05
4.37977e-05
4.30901e-05
4.24683e-05
4.1926e-05
4.14573e-05
4.10562e-05
4.07169e-05
4.04339e-05
4.02017e-05
4.00153e-05
3.98697e-05
3.97605e-05
3.96835e-05
3.96346e-05
3.96103e-05
3.96075e-05
3.96222e-05
3.96531e-05
3.96972e-05
3.97522e-05
3.98162e-05
3.98874e-05
3.99643e-05
4.00453e-05
4.01294e-05
4.02153e-05
4.03021e-05
4.0389e-05
4.04751e-05
4.056e-05
4.0643e-05
4.07235e-05
4.08013e-05
4.08759e-05
4.0947e-05
4.10143e-05
4.10777e-05
4.11368e-05
4.11915e-05
4.12417e-05
4.12872e-05
4.13278e-05
4.13634e-05
4.13939e-05
4.14193e-05
4.14393e-05
4.1454e-05
4.14633e-05
4.14669e-05
0.000939681
0.000835696
0.000745848
0.000667966
0.000600242
0.000541165
0.000489471
0.000444097
0.000404148
0.000368871
0.000337627
0.000309874
0.000285152
0.000263069
0.000243288
0.000225523
0.000209526
0.000195085
0.000182016
0.000170161
0.000159381
0.000149557
0.000140585
0.000132374
0.000124844
0.000117926
0.000111558
0.000105686
0.000100263
9.52483e-05
9.06039e-05
8.62979e-05
8.23015e-05
7.85896e-05
7.51398e-05
7.19324e-05
6.89501e-05
6.61775e-05
6.36011e-05
6.12088e-05
5.89901e-05
5.69353e-05
5.50361e-05
5.32846e-05
5.16738e-05
5.01969e-05
4.88476e-05
4.762e-05
4.65078e-05
4.55053e-05
4.46065e-05
4.38055e-05
4.30961e-05
4.24724e-05
4.19283e-05
4.14578e-05
4.1055e-05
4.07142e-05
4.04298e-05
4.01963e-05
4.00086e-05
3.9862e-05
3.97519e-05
3.9674e-05
3.96245e-05
3.95997e-05
3.95964e-05
3.96108e-05
3.96415e-05
3.96854e-05
3.97404e-05
3.98045e-05
3.98758e-05
3.99528e-05
4.00341e-05
4.01185e-05
4.02047e-05
4.02919e-05
4.03792e-05
4.04658e-05
4.05511e-05
4.06345e-05
4.07156e-05
4.07939e-05
4.0869e-05
4.09406e-05
4.10084e-05
4.10723e-05
4.11319e-05
4.11871e-05
4.12378e-05
4.12837e-05
4.13247e-05
4.13607e-05
4.13916e-05
4.14172e-05
4.14375e-05
4.14524e-05
4.14617e-05
4.14654e-05
0.000939681
0.000835697
0.000745848
0.000667967
0.000600243
0.000541167
0.000489474
0.0004441
0.000404152
0.000368876
0.000337632
0.00030988
0.000285159
0.000263076
0.000243296
0.000225532
0.000209536
0.000195096
0.000182028
0.000170173
0.000159394
0.000149572
0.000140601
0.00013239
0.000124861
0.000117943
0.000111576
0.000105705
0.000100283
9.52686e-05
9.06249e-05
8.63194e-05
8.23236e-05
7.86121e-05
7.51626e-05
7.19555e-05
6.89733e-05
6.62008e-05
6.36242e-05
6.12317e-05
5.90125e-05
5.69572e-05
5.50572e-05
5.33048e-05
5.16929e-05
5.02147e-05
4.88641e-05
4.76348e-05
4.65211e-05
4.55168e-05
4.46162e-05
4.38133e-05
4.3102e-05
4.24765e-05
4.19306e-05
4.14583e-05
4.10539e-05
4.07116e-05
4.04257e-05
4.01908e-05
4.0002e-05
3.98543e-05
3.97433e-05
3.96646e-05
3.96144e-05
3.9589e-05
3.95854e-05
3.95994e-05
3.96299e-05
3.96737e-05
3.97286e-05
3.97927e-05
3.98642e-05
3.99413e-05
4.00229e-05
4.01075e-05
4.0194e-05
4.02816e-05
4.03693e-05
4.04563e-05
4.05421e-05
4.0626e-05
4.07075e-05
4.07863e-05
4.08619e-05
4.0934e-05
4.10024e-05
4.10668e-05
4.11269e-05
4.11826e-05
4.12337e-05
4.12801e-05
4.13215e-05
4.13578e-05
4.1389e-05
4.14149e-05
4.14355e-05
4.14505e-05
4.146e-05
4.14637e-05
0.000939681
0.000835697
0.000745849
0.000667968
0.000600245
0.000541169
0.000489476
0.000444103
0.000404156
0.00036888
0.000337637
0.000309886
0.000285166
0.000263084
0.000243305
0.000225541
0.000209546
0.000195106
0.000182039
0.000170185
0.000159408
0.000149586
0.000140615
0.000132406
0.000124877
0.000117961
0.000111594
0.000105724
0.000100302
9.52887e-05
9.06457e-05
8.63408e-05
8.23454e-05
7.86344e-05
7.51853e-05
7.19784e-05
6.89964e-05
6.62238e-05
6.36471e-05
6.12544e-05
5.90348e-05
5.69789e-05
5.50782e-05
5.33249e-05
5.17118e-05
5.02324e-05
4.88804e-05
4.76496e-05
4.65342e-05
4.55282e-05
4.46258e-05
4.38211e-05
4.3108e-05
4.24806e-05
4.19329e-05
4.14589e-05
4.10529e-05
4.07089e-05
4.04216e-05
4.01855e-05
3.99954e-05
3.98467e-05
3.97347e-05
3.96553e-05
3.96044e-05
3.95784e-05
3.95744e-05