/*--------------------------------*- C++ -*----------------------------------*\
  =========                 |
  \\      /  F ield         | OpenFOAM: The Open Source CFD Toolbox
   \\    /   O peration     | Website:  https://openfoam.org
    \\  /    A nd           | Version:  11
     \\/     M anipulation  |
\*---------------------------------------------------------------------------*/
FoamFile
{
    format      ascii;
    class       volVectorField;
    location    "1796";
    object      U;
}
// * * * * * * * * * * * * * * * * * * * * * * * * * * * * * * * * * * * * * //

dimensions      [0 1 -1 0 0 0 0];

internalField   nonuniform List<vector> 
10000
(
(0.005 -4.89522e-14 0)
(0.005 -1.33573e-13 0)
(0.005 -2.13074e-13 0)
(0.005 -2.92199e-13 0)
(0.005 -3.73e-13 0)
(0.005 -4.56615e-13 0)
(0.005 -5.43935e-13 0)
(0.005 -6.35709e-13 0)
(0.005 -7.32608e-13 0)
(0.005 -8.35258e-13 0)
(0.005 -9.4426e-13 0)
(0.005 -1.06021e-12 0)
(0.005 -1.1837e-12 0)
(0.005 -1.31532e-12 0)
(0.005 -1.4557e-12 0)
(0.005 -1.60545e-12 0)
(0.005 -1.76522e-12 0)
(0.005 -1.93568e-12 0)
(0.005 -2.11752e-12 0)
(0.005 -2.31146e-12 0)
(0.005 -2.51825e-12 0)
(0.005 -2.73866e-12 0)
(0.005 -2.97352e-12 0)
(0.005 -3.22366e-12 0)
(0.005 -3.48996e-12 0)
(0.005 -3.77335e-12 0)
(0.005 -4.07478e-12 0)
(0.005 -4.39526e-12 0)
(0.005 -4.73581e-12 0)
(0.005 -5.09753e-12 0)
(0.005 -5.48154e-12 0)
(0.005 -5.88901e-12 0)
(0.005 -6.32116e-12 0)
(0.005 -6.77925e-12 0)
(0.005 -7.2646e-12 0)
(0.005 -7.77857e-12 0)
(0.005 -8.32258e-12 0)
(0.005 -8.89807e-12 0)
(0.005 -9.50658e-12 0)
(0.005 -1.01496e-11 0)
(0.005 -1.08289e-11 0)
(0.005 -1.1546e-11 0)
(0.005 -1.23027e-11 0)
(0.005 -1.31007e-11 0)
(0.005 -1.39419e-11 0)
(0.005 -1.48281e-11 0)
(0.005 -1.57612e-11 0)
(0.005 -1.67433e-11 0)
(0.005 -1.77762e-11 0)
(0.005 -1.88622e-11 0)
(0.005 -2.00031e-11 0)
(0.005 -2.12013e-11 0)
(0.005 -2.24588e-11 0)
(0.005 -2.37778e-11 0)
(0.005 -2.51606e-11 0)
(0.005 -2.66094e-11 0)
(0.005 -2.81264e-11 0)
(0.005 -2.97139e-11 0)
(0.005 -3.13742e-11 0)
(0.005 -3.31095e-11 0)
(0.005 -3.49221e-11 0)
(0.005 -3.6814e-11 0)
(0.005 -3.87876e-11 0)
(0.005 -4.08449e-11 0)
(0.005 -4.29879e-11 0)
(0.005 -4.52185e-11 0)
(0.005 -4.75386e-11 0)
(0.005 -4.99498e-11 0)
(0.005 -5.24537e-11 0)
(0.005 -5.50516e-11 0)
(0.005 -5.77446e-11 0)
(0.005 -6.05336e-11 0)
(0.005 -6.3419e-11 0)
(0.005 -6.6401e-11 0)
(0.005 -6.94793e-11 0)
(0.005 -7.26533e-11 0)
(0.005 -7.59214e-11 0)
(0.005 -7.92818e-11 0)
(0.005 -8.27316e-11 0)
(0.005 -8.62671e-11 0)
(0.005 -8.98835e-11 0)
(0.005 -9.35746e-11 0)
(0.005 -9.7333e-11 0)
(0.005 -1.01149e-10 0)
(0.005 -1.05012e-10 0)
(0.005 -1.08908e-10 0)
(0.005 -1.1282e-10 0)
(0.005 -1.16728e-10 0)
(0.005 -1.20607e-10 0)
(0.005 -1.2443e-10 0)
(0.005 -1.28162e-10 0)
(0.005 -1.31762e-10 0)
(0.005 -1.35183e-10 0)
(0.005 -1.38368e-10 0)
(0.005 -1.41253e-10 0)
(0.005 -1.43765e-10 0)
(0.005 -1.45822e-10 0)
(0.005 -1.47338e-10 0)
(0.005 -1.48255e-10 0)
(0.005 -1.48664e-10 0)
(0.005 -4.15737e-14 0)
(0.005 -1.19108e-13 0)
(0.005 -1.94083e-13 0)
(0.005 -2.69266e-13 0)
(0.005 -3.46152e-13 0)
(0.005 -4.25731e-13 0)
(0.005 -5.08816e-13 0)
(0.005 -5.96113e-13 0)
(0.005 -6.88257e-13 0)
(0.005 -7.85844e-13 0)
(0.005 -8.8945e-13 0)
(0.005 -9.99643e-13 0)
(0.005 -1.11699e-12 0)
(0.005 -1.24206e-12 0)
(0.005 -1.37545e-12 0)
(0.005 -1.51774e-12 0)
(0.005 -1.66956e-12 0)
(0.005 -1.83155e-12 0)
(0.005 -2.00436e-12 0)
(0.005 -2.18869e-12 0)
(0.005 -2.38526e-12 0)
(0.005 -2.5948e-12 0)
(0.005 -2.81811e-12 0)
(0.005 -3.05598e-12 0)
(0.005 -3.30926e-12 0)
(0.005 -3.57884e-12 0)
(0.005 -3.86563e-12 0)
(0.005 -4.1706e-12 0)
(0.005 -4.49473e-12 0)
(0.005 -4.83908e-12 0)
(0.005 -5.20472e-12 0)
(0.005 -5.59279e-12 0)
(0.005 -6.00444e-12 0)
(0.005 -6.44091e-12 0)
(0.005 -6.90346e-12 0)
(0.005 -7.39339e-12 0)
(0.005 -7.91208e-12 0)
(0.005 -8.46093e-12 0)
(0.005 -9.0414e-12 0)
(0.005 -9.65502e-12 0)
(0.005 -1.03033e-11 0)
(0.005 -1.0988e-11 0)
(0.005 -1.17106e-11 0)
(0.005 -1.24729e-11 0)
(0.005 -1.32766e-11 0)
(0.005 -1.41236e-11 0)
(0.005 -1.50158e-11 0)
(0.005 -1.5955e-11 0)
(0.005 -1.69433e-11 0)
(0.005 -1.79825e-11 0)
(0.005 -1.90749e-11 0)
(0.005 -2.02223e-11 0)
(0.005 -2.14271e-11 0)
(0.005 -2.26913e-11 0)
(0.005 -2.40171e-11 0)
(0.005 -2.54067e-11 0)
(0.005 -2.68624e-11 0)
(0.005 -2.83865e-11 0)
(0.005 -2.99811e-11 0)
(0.005 -3.16485e-11 0)
(0.005 -3.3391e-11 0)
(0.005 -3.52108e-11 0)
(0.005 -3.71101e-11 0)
(0.005 -3.90911e-11 0)
(0.005 -4.11558e-11 0)
(0.005 -4.33063e-11 0)
(0.005 -4.55446e-11 0)
(0.005 -4.78724e-11 0)
(0.005 -5.02914e-11 0)
(0.005 -5.28033e-11 0)
(0.005 -5.54092e-11 0)
(0.005 -5.81104e-11 0)
(0.005 -6.09077e-11 0)
(0.005 -6.38016e-11 0)
(0.005 -6.67923e-11 0)
(0.005 -6.98795e-11 0)
(0.005 -7.30624e-11 0)
(0.005 -7.63398e-11 0)
(0.005 -7.97094e-11 0)
(0.005 -8.31684e-11 0)
(0.005 -8.6713e-11 0)
(0.005 -9.03382e-11 0)
(0.005 -9.40376e-11 0)
(0.005 -9.78033e-11 0)
(0.005 -1.01625e-10 0)
(0.005 -1.05492e-10 0)
(0.005 -1.09388e-10 0)
(0.005 -1.13297e-10 0)
(0.005 -1.17195e-10 0)
(0.005 -1.21057e-10 0)
(0.005 -1.24853e-10 0)
(0.005 -1.28545e-10 0)
(0.005 -1.32089e-10 0)
(0.005 -1.35433e-10 0)
(0.005 -1.38519e-10 0)
(0.005 -1.41278e-10 0)
(0.005 -1.43637e-10 0)
(0.005 -1.45515e-10 0)
(0.005 -1.46842e-10 0)
(0.005 -1.47613e-10 0)
(0.005 -3.55735e-14 0)
(0.005 -1.05808e-13 0)
(0.005 -1.75801e-13 0)
(0.005 -2.46807e-13 0)
(0.005 -3.19722e-13 0)
(0.005 -3.95292e-13 0)
(0.005 -4.74215e-13 0)
(0.005 -5.57129e-13 0)
(0.005 -6.44626e-13 0)
(0.005 -7.37271e-13 0)
(0.005 -8.35613e-13 0)
(0.005 -9.40192e-13 0)
(0.005 -1.05155e-12 0)
(0.005 -1.17024e-12 0)
(0.005 -1.29681e-12 0)
(0.005 -1.43184e-12 0)
(0.005 -1.57591e-12 0)
(0.005 -1.72965e-12 0)
(0.005 -1.89368e-12 0)
(0.005 -2.06867e-12 0)
(0.005 -2.25529e-12 0)
(0.005 -2.45427e-12 0)
(0.005 -2.66635e-12 0)
(0.005 -2.8923e-12 0)
(0.005 -3.13293e-12 0)
(0.005 -3.3891e-12 0)
(0.005 -3.66168e-12 0)
(0.005 -3.9516e-12 0)
(0.005 -4.2598e-12 0)
(0.005 -4.5873e-12 0)
(0.005 -4.93513e-12 0)
(0.005 -5.30438e-12 0)
(0.005 -5.69617e-12 0)
(0.005 -6.11169e-12 0)
(0.005 -6.55214e-12 0)
(0.005 -7.01879e-12 0)
(0.005 -7.51296e-12 0)
(0.005 -8.03601e-12 0)
(0.005 -8.58935e-12 0)
(0.005 -9.17445e-12 0)
(0.005 -9.79281e-12 0)
(0.005 -1.0446e-11 0)
(0.005 -1.11356e-11 0)
(0.005 -1.18634e-11 0)
(0.005 -1.2631e-11 0)
(0.005 -1.34401e-11 0)
(0.005 -1.42927e-11 0)
(0.005 -1.51906e-11 0)
(0.005 -1.61356e-11 0)
(0.005 -1.71298e-11 0)
(0.005 -1.81751e-11 0)
(0.005 -1.92736e-11 0)
(0.005 -2.04275e-11 0)
(0.005 -2.16387e-11 0)
(0.005 -2.29095e-11 0)
(0.005 -2.4242e-11 0)
(0.005 -2.56386e-11 0)
(0.005 -2.71013e-11 0)
(0.005 -2.86326e-11 0)
(0.005 -3.02345e-11 0)
(0.005 -3.19095e-11 0)
(0.005 -3.36597e-11 0)
(0.005 -3.54874e-11 0)
(0.005 -3.73948e-11 0)
(0.005 -3.93841e-11 0)
(0.005 -4.14574e-11 0)
(0.005 -4.36168e-11 0)
(0.005 -4.58642e-11 0)
(0.005 -4.82015e-11 0)
(0.005 -5.06304e-11 0)
(0.005 -5.31525e-11 0)
(0.005 -5.57691e-11 0)
(0.005 -5.84815e-11 0)
(0.005 -6.12905e-11 0)
(0.005 -6.41968e-11 0)
(0.005 -6.72004e-11 0)
(0.005 -7.03012e-11 0)
(0.005 -7.34984e-11 0)
(0.005 -7.67907e-11 0)
(0.005 -8.0176e-11 0)
(0.005 -8.36513e-11 0)
(0.005 -8.72126e-11 0)
(0.005 -9.08549e-11 0)
(0.005 -9.45713e-11 0)
(0.005 -9.83536e-11 0)
(0.005 -1.02191e-10 0)
(0.005 -1.06072e-10 0)
(0.005 -1.09979e-10 0)
(0.005 -1.13893e-10 0)
(0.005 -1.17792e-10 0)
(0.005 -1.21646e-10 0)
(0.005 -1.25421e-10 0)
(0.005 -1.29078e-10 0)
(0.005 -1.32567e-10 0)
(0.005 -1.35833e-10 0)
(0.005 -1.38811e-10 0)
(0.005 -1.41425e-10 0)
(0.005 -1.43592e-10 0)
(0.005 -1.45228e-10 0)
(0.005 -1.46294e-10 0)
(0.005 -3.15113e-14 0)
(0.005 -9.52356e-14 0)
(0.005 -1.60157e-13 0)
(0.005 -2.26926e-13 0)
(0.005 -2.95955e-13 0)
(0.005 -3.67728e-13 0)
(0.005 -4.42786e-13 0)
(0.005 -5.21677e-13 0)
(0.005 -6.04937e-13 0)
(0.005 -6.93091e-13 0)
(0.005 -7.86655e-13 0)
(0.005 -8.86145e-13 0)
(0.005 -9.92075e-13 0)
(0.005 -1.10497e-12 0)
(0.005 -1.22537e-12 0)
(0.005 -1.35381e-12 0)
(0.005 -1.49087e-12 0)
(0.005 -1.63713e-12 0)
(0.005 -1.79319e-12 0)
(0.005 -1.9597e-12 0)
(0.005 -2.13731e-12 0)
(0.005 -2.3267e-12 0)
(0.005 -2.52859e-12 0)
(0.005 -2.74373e-12 0)
(0.005 -2.97289e-12 0)
(0.005 -3.21689e-12 0)
(0.005 -3.47657e-12 0)
(0.005 -3.75283e-12 0)
(0.005 -4.04658e-12 0)
(0.005 -4.35879e-12 0)
(0.005 -4.69045e-12 0)
(0.005 -5.04262e-12 0)
(0.005 -5.41639e-12 0)
(0.005 -5.81287e-12 0)
(0.005 -6.23326e-12 0)
(0.005 -6.67878e-12 0)
(0.005 -7.15069e-12 0)
(0.005 -7.65032e-12 0)
(0.005 -8.17902e-12 0)
(0.005 -8.73823e-12 0)
(0.005 -9.3294e-12 0)
(0.005 -9.95406e-12 0)
(0.005 -1.06138e-11 0)
(0.005 -1.13101e-11 0)
(0.005 -1.20449e-11 0)
(0.005 -1.28196e-11 0)
(0.005 -1.36362e-11 0)
(0.005 -1.44965e-11 0)
(0.005 -1.54023e-11 0)
(0.005 -1.63555e-11 0)
(0.005 -1.73582e-11 0)
(0.005 -1.84122e-11 0)
(0.005 -1.95198e-11 0)
(0.005 -2.06829e-11 0)
(0.005 -2.19037e-11 0)
(0.005 -2.31844e-11 0)
(0.005 -2.45271e-11 0)
(0.005 -2.59342e-11 0)
(0.005 -2.74078e-11 0)
(0.005 -2.89503e-11 0)
(0.005 -3.05638e-11 0)
(0.005 -3.22508e-11 0)
(0.005 -3.40134e-11 0)
(0.005 -3.58539e-11 0)
(0.005 -3.77746e-11 0)
(0.005 -3.97777e-11 0)
(0.005 -4.18653e-11 0)
(0.005 -4.40395e-11 0)
(0.005 -4.63024e-11 0)
(0.005 -4.86558e-11 0)
(0.005 -5.11015e-11 0)
(0.005 -5.36411e-11 0)
(0.005 -5.62761e-11 0)
(0.005 -5.90077e-11 0)
(0.005 -6.18368e-11 0)
(0.005 -6.47641e-11 0)
(0.005 -6.77898e-11 0)
(0.005 -7.09138e-11 0)
(0.005 -7.41351e-11 0)
(0.005 -7.74526e-11 0)
(0.005 -8.0864e-11 0)
(0.005 -8.43663e-11 0)
(0.005 -8.79553e-11 0)
(0.005 -9.16255e-11 0)
(0.005 -9.53697e-11 0)
(0.005 -9.91791e-11 0)
(0.005 -1.03042e-10 0)
(0.005 -1.06945e-10 0)
(0.005 -1.1087e-10 0)
(0.005 -1.14796e-10 0)
(0.005 -1.18697e-10 0)
(0.005 -1.2254e-10 0)
(0.005 -1.26288e-10 0)
(0.005 -1.29894e-10 0)
(0.005 -1.33303e-10 0)
(0.005 -1.36448e-10 0)
(0.005 -1.3925e-10 0)
(0.005 -1.41612e-10 0)
(0.005 -1.43423e-10 0)
(0.005 -1.4463e-10 0)
(0.005 -2.8178e-14 0)
(0.005 -8.59718e-14 0)
(0.005 -1.45791e-13 0)
(0.005 -2.08105e-13 0)
(0.005 -2.73051e-13 0)
(0.005 -3.40888e-13 0)
(0.005 -4.12007e-13 0)
(0.005 -4.8685e-13 0)
(0.005 -5.65885e-13 0)
(0.005 -6.49584e-13 0)
(0.005 -7.38428e-13 0)
(0.005 -8.32899e-13 0)
(0.005 -9.33485e-13 0)
(0.005 -1.04068e-12 0)
(0.005 -1.15501e-12 0)
(0.005 -1.27697e-12 0)
(0.005 -1.40713e-12 0)
(0.005 -1.54604e-12 0)
(0.005 -1.69427e-12 0)
(0.005 -1.85245e-12 0)
(0.005 -2.02119e-12 0)
(0.005 -2.20115e-12 0)
(0.005 -2.39303e-12 0)
(0.005 -2.59753e-12 0)
(0.005 -2.81541e-12 0)
(0.005 -3.04744e-12 0)
(0.005 -3.29443e-12 0)
(0.005 -3.55725e-12 0)
(0.005 -3.83678e-12 0)
(0.005 -4.13394e-12 0)
(0.005 -4.4497e-12 0)
(0.005 -4.78506e-12 0)
(0.005 -5.14108e-12 0)
(0.005 -5.51884e-12 0)
(0.005 -5.91949e-12 0)
(0.005 -6.3442e-12 0)
(0.005 -6.7942e-12 0)
(0.005 -7.27077e-12 0)
(0.005 -7.77522e-12 0)
(0.005 -8.30894e-12 0)
(0.005 -8.87334e-12 0)
(0.005 -9.46989e-12 0)
(0.005 -1.01001e-11 0)
(0.005 -1.07656e-11 0)
(0.005 -1.1468e-11 0)
(0.005 -1.22089e-11 0)
(0.005 -1.29901e-11 0)
(0.005 -1.38133e-11 0)
(0.005 -1.46804e-11 0)
(0.005 -1.55933e-11 0)
(0.005 -1.65539e-11 0)
(0.005 -1.75641e-11 0)
(0.005 -1.86261e-11 0)
(0.005 -1.97418e-11 0)
(0.005 -2.09133e-11 0)
(0.005 -2.21429e-11 0)
(0.005 -2.34326e-11 0)
(0.005 -2.47848e-11 0)
(0.005 -2.62016e-11 0)
(0.005 -2.76854e-11 0)
(0.005 -2.92384e-11 0)
(0.005 -3.08629e-11 0)
(0.005 -3.25613e-11 0)
(0.005 -3.43359e-11 0)
(0.005 -3.61889e-11 0)
(0.005 -3.81226e-11 0)
(0.005 -4.01394e-11 0)
(0.005 -4.22414e-11 0)
(0.005 -4.44307e-11 0)
(0.005 -4.67095e-11 0)
(0.005 -4.90797e-11 0)
(0.005 -5.15431e-11 0)
(0.005 -5.41016e-11 0)
(0.005 -5.67565e-11 0)
(0.005 -5.95092e-11 0)
(0.005 -6.23608e-11 0)
(0.005 -6.53119e-11 0)
(0.005 -6.83628e-11 0)
(0.005 -7.15135e-11 0)
(0.005 -7.47632e-11 0)
(0.005 -7.81105e-11 0)
(0.005 -8.15533e-11 0)
(0.005 -8.50882e-11 0)
(0.005 -8.87108e-11 0)
(0.005 -9.24153e-11 0)
(0.005 -9.61939e-11 0)
(0.005 -1.00037e-10 0)
(0.005 -1.03931e-10 0)
(0.005 -1.07862e-10 0)
(0.005 -1.11809e-10 0)
(0.005 -1.15748e-10 0)
(0.005 -1.19648e-10 0)
(0.005 -1.23474e-10 0)
(0.005 -1.27178e-10 0)
(0.005 -1.30706e-10 0)
(0.005 -1.33987e-10 0)
(0.005 -1.36938e-10 0)
(0.005 -1.39448e-10 0)
(0.005 -1.41382e-10 0)
(0.005 -1.42602e-10 0)
(0.005 -2.52824e-14 0)
(0.005 -7.76418e-14 0)
(0.005 -1.32477e-13 0)
(0.005 -1.90253e-13 0)
(0.005 -2.50969e-13 0)
(0.005 -3.14731e-13 0)
(0.005 -3.81798e-13 0)
(0.005 -4.52516e-13 0)
(0.005 -5.27278e-13 0)
(0.005 -6.06502e-13 0)
(0.005 -6.90625e-13 0)
(0.005 -7.80092e-13 0)
(0.005 -8.7536e-13 0)
(0.005 -9.769e-13 0)
(0.005 -1.08519e-12 0)
(0.005 -1.20074e-12 0)
(0.005 -1.32405e-12 0)
(0.005 -1.45567e-12 0)
(0.005 -1.59615e-12 0)
(0.005 -1.74606e-12 0)
(0.005 -1.90601e-12 0)
(0.005 -2.07664e-12 0)
(0.005 -2.25859e-12 0)
(0.005 -2.45255e-12 0)
(0.005 -2.65924e-12 0)
(0.005 -2.87941e-12 0)
(0.005 -3.11383e-12 0)
(0.005 -3.36333e-12 0)
(0.005 -3.62876e-12 0)
(0.005 -3.91101e-12 0)
(0.005 -4.211e-12 0)
(0.005 -4.5297e-12 0)
(0.005 -4.86813e-12 0)
(0.005 -5.22734e-12 0)
(0.005 -5.60841e-12 0)
(0.005 -6.01249e-12 0)
(0.005 -6.44077e-12 0)
(0.005 -6.89447e-12 0)
(0.005 -7.37488e-12 0)
(0.005 -7.88332e-12 0)
(0.005 -8.42118e-12 0)
(0.005 -8.98986e-12 0)
(0.005 -9.59086e-12 0)
(0.005 -1.02257e-11 0)
(0.005 -1.0896e-11 0)
(0.005 -1.16033e-11 0)
(0.005 -1.23493e-11 0)
(0.005 -1.31359e-11 0)
(0.005 -1.39646e-11 0)
(0.005 -1.48375e-11 0)
(0.005 -1.57564e-11 0)
(0.005 -1.67232e-11 0)
(0.005 -1.77398e-11 0)
(0.005 -1.88085e-11 0)
(0.005 -1.99312e-11 0)
(0.005 -2.111e-11 0)
(0.005 -2.23471e-11 0)
(0.005 -2.36448e-11 0)
(0.005 -2.50053e-11 0)
(0.005 -2.64308e-11 0)
(0.005 -2.79237e-11 0)
(0.005 -2.94862e-11 0)
(0.005 -3.11208e-11 0)
(0.005 -3.28298e-11 0)
(0.005 -3.46155e-11 0)
(0.005 -3.64804e-11 0)
(0.005 -3.84267e-11 0)
(0.005 -4.04569e-11 0)
(0.005 -4.25731e-11 0)
(0.005 -4.47776e-11 0)
(0.005 -4.70726e-11 0)
(0.005 -4.94602e-11 0)
(0.005 -5.19423e-11 0)
(0.005 -5.45207e-11 0)
(0.005 -5.71971e-11 0)
(0.005 -5.99729e-11 0)
(0.005 -6.28493e-11 0)
(0.005 -6.58271e-11 0)
(0.005 -6.89067e-11 0)
(0.005 -7.2088e-11 0)
(0.005 -7.53704e-11 0)
(0.005 -7.87525e-11 0)
(0.005 -8.22318e-11 0)
(0.005 -8.5805e-11 0)
(0.005 -8.94673e-11 0)
(0.005 -9.32122e-11 0)
(0.005 -9.7031e-11 0)
(0.005 -1.00913e-10 0)
(0.005 -1.04843e-10 0)
(0.005 -1.08803e-10 0)
(0.005 -1.12771e-10 0)
(0.005 -1.16717e-10 0)
(0.005 -1.20606e-10 0)
(0.005 -1.2439e-10 0)
(0.005 -1.28014e-10 0)
(0.005 -1.31405e-10 0)
(0.005 -1.34471e-10 0)
(0.005 -1.37091e-10 0)
(0.005 -1.39112e-10 0)
(0.005 -1.40289e-10 0)
(0.005 -2.27268e-14 0)
(0.005 -7.00928e-14 0)
(0.005 -1.20165e-13 0)
(0.005 -1.73455e-13 0)
(0.005 -2.29902e-13 0)
(0.005 -2.89519e-13 0)
(0.005 -3.5247e-13 0)
(0.005 -4.19018e-13 0)
(0.005 -4.89486e-13 0)
(0.005 -5.64237e-13 0)
(0.005 -6.4366e-13 0)
(0.005 -7.28163e-13 0)
(0.005 -8.18168e-13 0)
(0.005 -9.14117e-13 0)
(0.005 -1.01646e-12 0)
(0.005 -1.12568e-12 0)
(0.005 -1.24225e-12 0)
(0.005 -1.3667e-12 0)
(0.005 -1.49953e-12 0)
(0.005 -1.64132e-12 0)
(0.005 -1.79263e-12 0)
(0.005 -1.95407e-12 0)
(0.005 -2.12625e-12 0)
(0.005 -2.30985e-12 0)
(0.005 -2.50554e-12 0)
(0.005 -2.71404e-12 0)
(0.005 -2.9361e-12 0)
(0.005 -3.1725e-12 0)
(0.005 -3.42406e-12 0)
(0.005 -3.69164e-12 0)
(0.005 -3.97612e-12 0)
(0.005 -4.27843e-12 0)
(0.005 -4.59956e-12 0)
(0.005 -4.9405e-12 0)
(0.005 -5.30232e-12 0)
(0.005 -5.68611e-12 0)
(0.005 -6.09301e-12 0)
(0.005 -6.52422e-12 0)
(0.005 -6.98097e-12 0)
(0.005 -7.46454e-12 0)
(0.005 -7.97627e-12 0)
(0.005 -8.51753e-12 0)
(0.005 -9.08976e-12 0)
(0.005 -9.69445e-12 0)
(0.005 -1.03331e-11 0)
(0.005 -1.10074e-11 0)
(0.005 -1.17188e-11 0)
(0.005 -1.24692e-11 0)
(0.005 -1.32602e-11 0)
(0.005 -1.40937e-11 0)
(0.005 -1.49715e-11 0)
(0.005 -1.58955e-11 0)
(0.005 -1.68676e-11 0)
(0.005 -1.78899e-11 0)
(0.005 -1.89644e-11 0)
(0.005 -2.00933e-11 0)
(0.005 -2.12786e-11 0)
(0.005 -2.25226e-11 0)
(0.005 -2.38275e-11 0)
(0.005 -2.51956e-11 0)
(0.005 -2.66292e-11 0)
(0.005 -2.81306e-11 0)
(0.005 -2.97023e-11 0)
(0.005 -3.13466e-11 0)
(0.005 -3.3066e-11 0)
(0.005 -3.48629e-11 0)
(0.005 -3.67397e-11 0)
(0.005 -3.86989e-11 0)
(0.005 -4.07428e-11 0)
(0.005 -4.28739e-11 0)
(0.005 -4.50946e-11 0)
(0.005 -4.7407e-11 0)
(0.005 -4.98135e-11 0)
(0.005 -5.23161e-11 0)
(0.005 -5.49167e-11 0)
(0.005 -5.76172e-11 0)
(0.005 -6.04192e-11 0)
(0.005 -6.33239e-11 0)
(0.005 -6.63323e-11 0)
(0.005 -6.94449e-11 0)
(0.005 -7.26617e-11 0)
(0.005 -7.59821e-11 0)
(0.005 -7.94045e-11 0)
(0.005 -8.29263e-11 0)
(0.005 -8.65438e-11 0)
(0.005 -9.02516e-11 0)
(0.005 -9.40421e-11 0)
(0.005 -9.79054e-11 0)
(0.005 -1.01828e-10 0)
(0.005 -1.05794e-10 0)
(0.005 -1.09781e-10 0)
(0.005 -1.1376e-10 0)
(0.005 -1.17695e-10 0)
(0.005 -1.21542e-10 0)
(0.005 -1.25239e-10 0)
(0.005 -1.28712e-10 0)
(0.005 -1.31863e-10 0)
(0.005 -1.34559e-10 0)
(0.005 -1.36633e-10 0)
(0.005 -1.37788e-10 0)
(0.005 -2.04351e-14 0)
(0.005 -6.32015e-14 0)
(0.005 -1.08763e-13 0)
(0.005 -1.57689e-13 0)
(0.005 -2.09905e-13 0)
(0.005 -2.65371e-13 0)
(0.005 -3.24187e-13 0)
(0.005 -3.86548e-13 0)
(0.005 -4.52719e-13 0)
(0.005 -5.23012e-13 0)
(0.005 -5.97767e-13 0)
(0.005 -6.77355e-13 0)
(0.005 -7.62164e-13 0)
(0.005 -8.52604e-13 0)
(0.005 -9.49099e-13 0)
(0.005 -1.05209e-12 0)
(0.005 -1.16205e-12 0)
(0.005 -1.27945e-12 0)
(0.005 -1.4048e-12 0)
(0.005 -1.53861e-12 0)
(0.005 -1.68145e-12 0)
(0.005 -1.83387e-12 0)
(0.005 -1.99649e-12 0)
(0.005 -2.16993e-12 0)
(0.005 -2.35483e-12 0)
(0.005 -2.5519e-12 0)
(0.005 -2.76184e-12 0)
(0.005 -2.9854e-12 0)
(0.005 -3.22337e-12 0)
(0.005 -3.47657e-12 0)
(0.005 -3.74585e-12 0)
(0.005 -4.0321e-12 0)
(0.005 -4.33626e-12 0)
(0.005 -4.65931e-12 0)
(0.005 -5.00225e-12 0)
(0.005 -5.36614e-12 0)
(0.005 -5.75209e-12 0)
(0.005 -6.16124e-12 0)
(0.005 -6.59479e-12 0)
(0.005 -7.05397e-12 0)
(0.005 -7.54008e-12 0)
(0.005 -8.05445e-12 0)
(0.005 -8.59847e-12 0)
(0.005 -9.17358e-12 0)
(0.005 -9.78127e-12 0)
(0.005 -1.04231e-11 0)
(0.005 -1.11006e-11 0)
(0.005 -1.18155e-11 0)
(0.005 -1.25695e-11 0)
(0.005 -1.33643e-11 0)
(0.005 -1.42018e-11 0)
(0.005 -1.50837e-11 0)
(0.005 -1.60121e-11 0)
(0.005 -1.69889e-11 0)
(0.005 -1.80162e-11 0)
(0.005 -1.9096e-11 0)
(0.005 -2.02304e-11 0)
(0.005 -2.14216e-11 0)
(0.005 -2.2672e-11 0)
(0.005 -2.39836e-11 0)
(0.005 -2.5359e-11 0)
(0.005 -2.68004e-11 0)
(0.005 -2.83102e-11 0)
(0.005 -2.98909e-11 0)
(0.005 -3.1545e-11 0)
(0.005 -3.3275e-11 0)
(0.005 -3.50833e-11 0)
(0.005 -3.69726e-11 0)
(0.005 -3.89453e-11 0)
(0.005 -4.10041e-11 0)
(0.005 -4.31513e-11 0)
(0.005 -4.53896e-11 0)
(0.005 -4.77212e-11 0)
(0.005 -5.01487e-11 0)
(0.005 -5.26743e-11 0)
(0.005 -5.53e-11 0)
(0.005 -5.80279e-11 0)
(0.005 -6.08597e-11 0)
(0.005 -6.37968e-11 0)
(0.005 -6.68404e-11 0)
(0.005 -6.99909e-11 0)
(0.005 -7.32485e-11 0)
(0.005 -7.66123e-11 0)
(0.005 -8.00806e-11 0)
(0.005 -8.36505e-11 0)
(0.005 -8.73175e-11 0)
(0.005 -9.1075e-11 0)
(0.005 -9.49143e-11 0)
(0.005 -9.8823e-11 0)
(0.005 -1.02785e-10 0)
(0.005 -1.0678e-10 0)
(0.005 -1.10778e-10 0)
(0.005 -1.14746e-10 0)
(0.005 -1.18635e-10 0)
(0.005 -1.22384e-10 0)
(0.005 -1.25916e-10 0)
(0.005 -1.29124e-10 0)
(0.005 -1.31872e-10 0)
(0.005 -1.33975e-10 0)
(0.005 -1.35137e-10 0)
(0.005 -1.83494e-14 0)
(0.005 -5.68629e-14 0)
(0.005 -9.81693e-14 0)
(0.005 -1.42891e-13 0)
(0.005 -1.90965e-13 0)
(0.005 -2.42324e-13 0)
(0.005 -2.97023e-13 0)
(0.005 -3.55212e-13 0)
(0.005 -4.17105e-13 0)
(0.005 -4.82966e-13 0)
(0.005 -5.53096e-13 0)
(0.005 -6.27826e-13 0)
(0.005 -7.07512e-13 0)
(0.005 -7.9253e-13 0)
(0.005 -8.83276e-13 0)
(0.005 -9.80165e-13 0)
(0.005 -1.08363e-12 0)
(0.005 -1.19413e-12 0)
(0.005 -1.31214e-12 0)
(0.005 -1.43815e-12 0)
(0.005 -1.5727e-12 0)
(0.005 -1.71631e-12 0)
(0.005 -1.86957e-12 0)
(0.005 -2.03306e-12 0)
(0.005 -2.20743e-12 0)
(0.005 -2.39331e-12 0)
(0.005 -2.59139e-12 0)
(0.005 -2.8024e-12 0)
(0.005 -3.02708e-12 0)
(0.005 -3.26622e-12 0)
(0.005 -3.52063e-12 0)
(0.005 -3.79117e-12 0)
(0.005 -4.07874e-12 0)
(0.005 -4.38428e-12 0)
(0.005 -4.70875e-12 0)
(0.005 -5.05318e-12 0)
(0.005 -5.41863e-12 0)
(0.005 -5.80621e-12 0)
(0.005 -6.21706e-12 0)
(0.005 -6.65238e-12 0)
(0.005 -7.11341e-12 0)
(0.005 -7.60146e-12 0)
(0.005 -8.11787e-12 0)
(0.005 -8.66403e-12 0)
(0.005 -9.24139e-12 0)
(0.005 -9.85145e-12 0)
(0.005 -1.04958e-11 0)
(0.005 -1.11759e-11 0)
(0.005 -1.18936e-11 0)
(0.005 -1.26506e-11 0)
(0.005 -1.34486e-11 0)
(0.005 -1.42894e-11 0)
(0.005 -1.51749e-11 0)
(0.005 -1.61072e-11 0)
(0.005 -1.70881e-11 0)
(0.005 -1.81198e-11 0)
(0.005 -1.92043e-11 0)
(0.005 -2.03438e-11 0)
(0.005 -2.15406e-11 0)
(0.005 -2.2797e-11 0)
(0.005 -2.41152e-11 0)
(0.005 -2.54976e-11 0)
(0.005 -2.69467e-11 0)
(0.005 -2.8465e-11 0)
(0.005 -3.00549e-11 0)
(0.005 -3.17191e-11 0)
(0.005 -3.34602e-11 0)
(0.005 -3.52807e-11 0)
(0.005 -3.71833e-11 0)
(0.005 -3.91707e-11 0)
(0.005 -4.12456e-11 0)
(0.005 -4.34106e-11 0)
(0.005 -4.56683e-11 0)
(0.005 -4.80215e-11 0)
(0.005 -5.04726e-11 0)
(0.005 -5.30241e-11 0)
(0.005 -5.56783e-11 0)
(0.005 -5.84373e-11 0)
(0.005 -6.1303e-11 0)
(0.005 -6.42771e-11 0)
(0.005 -6.73605e-11 0)
(0.005 -7.05541e-11 0)
(0.005 -7.38576e-11 0)
(0.005 -7.727e-11 0)
(0.005 -8.07892e-11 0)
(0.005 -8.44115e-11 0)
(0.005 -8.81312e-11 0)
(0.005 -9.19402e-11 0)
(0.005 -9.58272e-11 0)
(0.005 -9.97768e-11 0)
(0.005 -1.03768e-10 0)
(0.005 -1.07774e-10 0)
(0.005 -1.11758e-10 0)
(0.005 -1.15672e-10 0)
(0.005 -1.19454e-10 0)
(0.005 -1.23022e-10 0)
(0.005 -1.26268e-10 0)
(0.005 -1.29046e-10 0)
(0.005 -1.31163e-10 0)
(0.005 -1.32353e-10 0)
(0.005 -1.64323e-14 0)
(0.005 -5.09982e-14 0)
(0.005 -8.82983e-14 0)
(0.005 -1.28998e-13 0)
(0.005 -1.73052e-13 0)
(0.005 -2.20384e-13 0)
(0.005 -2.71024e-13 0)
(0.005 -3.25084e-13 0)
(0.005 -3.82741e-13 0)
(0.005 -4.44217e-13 0)
(0.005 -5.09779e-13 0)
(0.005 -5.79721e-13 0)
(0.005 -6.54366e-13 0)
(0.005 -7.34058e-13 0)
(0.005 -8.19164e-13 0)
(0.005 -9.10071e-13 0)
(0.005 -1.00719e-12 0)
(0.005 -1.11094e-12 0)
(0.005 -1.22178e-12 0)
(0.005 -1.34017e-12 0)
(0.005 -1.46661e-12 0)
(0.005 -1.60162e-12 0)
(0.005 -1.74574e-12 0)
(0.005 -1.89954e-12 0)
(0.005 -2.06361e-12 0)
(0.005 -2.23858e-12 0)
(0.005 -2.4251e-12 0)
(0.005 -2.62386e-12 0)
(0.005 -2.83557e-12 0)
(0.005 -3.06098e-12 0)
(0.005 -3.30088e-12 0)
(0.005 -3.5561e-12 0)
(0.005 -3.82748e-12 0)
(0.005 -4.11593e-12 0)
(0.005 -4.42238e-12 0)
(0.005 -4.74782e-12 0)
(0.005 -5.09326e-12 0)
(0.005 -5.45977e-12 0)
(0.005 -5.84846e-12 0)
(0.005 -6.26048e-12 0)
(0.005 -6.69704e-12 0)
(0.005 -7.15939e-12 0)
(0.005 -7.64884e-12 0)
(0.005 -8.16672e-12 0)
(0.005 -8.71446e-12 0)
(0.005 -9.2935e-12 0)
(0.005 -9.90537e-12 0)
(0.005 -1.05516e-11 0)
(0.005 -1.12339e-11 0)
(0.005 -1.19538e-11 0)
(0.005 -1.27132e-11 0)
(0.005 -1.35138e-11 0)
(0.005 -1.43574e-11 0)
(0.005 -1.52461e-11 0)
(0.005 -1.61817e-11 0)
(0.005 -1.71663e-11 0)
(0.005 -1.8202e-11 0)
(0.005 -1.9291e-11 0)
(0.005 -2.04354e-11 0)
(0.005 -2.16375e-11 0)
(0.005 -2.28997e-11 0)
(0.005 -2.42244e-11 0)
(0.005 -2.5614e-11 0)
(0.005 -2.7071e-11 0)
(0.005 -2.85981e-11 0)
(0.005 -3.01977e-11 0)
(0.005 -3.18726e-11 0)
(0.005 -3.36255e-11 0)
(0.005 -3.54592e-11 0)
(0.005 -3.73764e-11 0)
(0.005 -3.938e-11 0)
(0.005 -4.14728e-11 0)
(0.005 -4.36576e-11 0)
(0.005 -4.59372e-11 0)
(0.005 -4.83146e-11 0)
(0.005 -5.07923e-11 0)
(0.005 -5.33731e-11 0)
(0.005 -5.60595e-11 0)
(0.005 -5.88536e-11 0)
(0.005 -6.17577e-11 0)
(0.005 -6.47732e-11 0)
(0.005 -6.79014e-11 0)
(0.005 -7.11427e-11 0)
(0.005 -7.44968e-11 0)
(0.005 -7.79621e-11 0)
(0.005 -8.15356e-11 0)
(0.005 -8.52124e-11 0)
(0.005 -8.8985e-11 0)
(0.005 -9.28428e-11 0)
(0.005 -9.67708e-11 0)
(0.005 -1.00749e-10 0)
(0.005 -1.04749e-10 0)
(0.005 -1.08735e-10 0)
(0.005 -1.12659e-10 0)
(0.005 -1.16455e-10 0)
(0.005 -1.20042e-10 0)
(0.005 -1.23306e-10 0)
(0.005 -1.261e-10 0)
(0.005 -1.28231e-10 0)
(0.005 -1.29466e-10 0)
(0.005 -1.46586e-14 0)
(0.005 -4.55507e-14 0)
(0.005 -7.90814e-14 0)
(0.005 -1.15952e-13 0)
(0.005 -1.56132e-13 0)
(0.005 -1.99547e-13 0)
(0.005 -2.46214e-13 0)
(0.005 -2.96218e-13 0)
(0.005 -3.49704e-13 0)
(0.005 -4.06865e-13 0)
(0.005 -4.67932e-13 0)
(0.005 -5.33169e-13 0)
(0.005 -6.02866e-13 0)
(0.005 -6.77338e-13 0)
(0.005 -7.56924e-13 0)
(0.005 -8.41983e-13 0)
(0.005 -9.32895e-13 0)
(0.005 -1.03006e-12 0)
(0.005 -1.1339e-12 0)
(0.005 -1.24487e-12 0)
(0.005 -1.36342e-12 0)
(0.005 -1.49005e-12 0)
(0.005 -1.62527e-12 0)
(0.005 -1.76962e-12 0)
(0.005 -1.92368e-12 0)
(0.005 -2.08802e-12 0)
(0.005 -2.26328e-12 0)
(0.005 -2.45011e-12 0)
(0.005 -2.6492e-12 0)
(0.005 -2.86125e-12 0)
(0.005 -3.08703e-12 0)
(0.005 -3.32732e-12 0)
(0.005 -3.58294e-12 0)
(0.005 -3.85476e-12 0)
(0.005 -4.14366e-12 0)
(0.005 -4.4506e-12 0)
(0.005 -4.77656e-12 0)
(0.005 -5.12255e-12 0)
(0.005 -5.48966e-12 0)
(0.005 -5.87899e-12 0)
(0.005 -6.2917e-12 0)
(0.005 -6.72902e-12 0)
(0.005 -7.19219e-12 0)
(0.005 -7.68252e-12 0)
(0.005 -8.20139e-12 0)
(0.005 -8.7502e-12 0)
(0.005 -9.33042e-12 0)
(0.005 -9.94359e-12 0)
(0.005 -1.05913e-11 0)
(0.005 -1.12751e-11 0)
(0.005 -1.19969e-11 0)
(0.005 -1.27582e-11 0)
(0.005 -1.3561e-11 0)
(0.005 -1.44071e-11 0)
(0.005 -1.52985e-11 0)
(0.005 -1.62371e-11 0)
(0.005 -1.72252e-11 0)
(0.005 -1.82647e-11 0)
(0.005 -1.93579e-11 0)
(0.005 -2.0507e-11 0)
(0.005 -2.17145e-11 0)
(0.005 -2.29827e-11 0)
(0.005 -2.4314e-11 0)
(0.005 -2.57111e-11 0)
(0.005 -2.71765e-11 0)
(0.005 -2.87129e-11 0)
(0.005 -3.03229e-11 0)
(0.005 -3.20095e-11 0)
(0.005 -3.37755e-11 0)
(0.005 -3.56237e-11 0)
(0.005 -3.7557e-11 0)
(0.005 -3.95786e-11 0)
(0.005 -4.16914e-11 0)
(0.005 -4.38985e-11 0)
(0.005 -4.62027e-11 0)
(0.005 -4.86073e-11 0)
(0.005 -5.1115e-11 0)
(0.005 -5.37288e-11 0)
(0.005 -5.64512e-11 0)
(0.005 -5.92846e-11 0)
(0.005 -6.22313e-11 0)
(0.005 -6.52927e-11 0)
(0.005 -6.84699e-11 0)
(0.005 -7.17631e-11 0)
(0.005 -7.51712e-11 0)
(0.005 -7.86919e-11 0)
(0.005 -8.23207e-11 0)
(0.005 -8.60508e-11 0)
(0.005 -8.9872e-11 0)
(0.005 -9.37697e-11 0)
(0.005 -9.77238e-11 0)
(0.005 -1.01707e-10 0)
(0.005 -1.05682e-10 0)
(0.005 -1.096e-10 0)
(0.005 -1.13397e-10 0)
(0.005 -1.16985e-10 0)
(0.005 -1.20254e-10 0)
(0.005 -1.23054e-10 0)
(0.005 -1.25196e-10 0)
(0.005 -1.26456e-10 0)
(0.005 -1.3011e-14 0)
(0.005 -4.04768e-14 0)
(0.005 -7.04647e-14 0)
(0.005 -1.03699e-13 0)
(0.005 -1.40167e-13 0)
(0.005 -1.79798e-13 0)
(0.005 -2.22601e-13 0)
(0.005 -2.68645e-13 0)
(0.005 -3.1805e-13 0)
(0.005 -3.70983e-13 0)
(0.005 -4.27647e-13 0)
(0.005 -4.88275e-13 0)
(0.005 -5.53132e-13 0)
(0.005 -6.22504e-13 0)
(0.005 -6.967e-13 0)
(0.005 -7.76056e-13 0)
(0.005 -8.60922e-13 0)
(0.005 -9.51676e-13 0)
(0.005 -1.04871e-12 0)
(0.005 -1.15245e-12 0)
(0.005 -1.26333e-12 0)
(0.005 -1.38181e-12 0)
(0.005 -1.50838e-12 0)
(0.005 -1.64356e-12 0)
(0.005 -1.78788e-12 0)
(0.005 -1.9419e-12 0)
(0.005 -2.10623e-12 0)
(0.005 -2.28148e-12 0)
(0.005 -2.4683e-12 0)
(0.005 -2.66738e-12 0)
(0.005 -2.87944e-12 0)
(0.005 -3.10523e-12 0)
(0.005 -3.34554e-12 0)
(0.005 -3.6012e-12 0)
(0.005 -3.87306e-12 0)
(0.005 -4.16203e-12 0)
(0.005 -4.46905e-12 0)
(0.005 -4.79511e-12 0)
(0.005 -5.14124e-12 0)
(0.005 -5.50851e-12 0)
(0.005 -5.89805e-12 0)
(0.005 -6.31102e-12 0)
(0.005 -6.74864e-12 0)
(0.005 -7.21219e-12 0)
(0.005 -7.70297e-12 0)
(0.005 -8.22238e-12 0)
(0.005 -8.77182e-12 0)
(0.005 -9.3528e-12 0)
(0.005 -9.96686e-12 0)
(0.005 -1.06156e-11 0)
(0.005 -1.13006e-11 0)
(0.005 -1.20238e-11 0)
(0.005 -1.27867e-11 0)
(0.005 -1.35914e-11 0)
(0.005 -1.44397e-11 0)
(0.005 -1.53336e-11 0)
(0.005 -1.62751e-11 0)
(0.005 -1.72664e-11 0)
(0.005 -1.83097e-11 0)
(0.005 -1.94071e-11 0)
(0.005 -2.05612e-11 0)
(0.005 -2.17741e-11 0)
(0.005 -2.30486e-11 0)
(0.005 -2.4387e-11 0)
(0.005 -2.57921e-11 0)
(0.005 -2.72665e-11 0)
(0.005 -2.88131e-11 0)
(0.005 -3.04346e-11 0)
(0.005 -3.21341e-11 0)
(0.005 -3.39145e-11 0)
(0.005 -3.57788e-11 0)
(0.005 -3.77303e-11 0)
(0.005 -3.9772e-11 0)
(0.005 -4.19073e-11 0)
(0.005 -4.41392e-11 0)
(0.005 -4.64711e-11 0)
(0.005 -4.89061e-11 0)
(0.005 -5.14473e-11 0)
(0.005 -5.40977e-11 0)
(0.005 -5.68601e-11 0)
(0.005 -5.97369e-11 0)
(0.005 -6.27302e-11 0)
(0.005 -6.58413e-11 0)
(0.005 -6.9071e-11 0)
(0.005 -7.24186e-11 0)
(0.005 -7.58823e-11 0)
(0.005 -7.94582e-11 0)
(0.005 -8.31398e-11 0)
(0.005 -8.69173e-11 0)
(0.005 -9.07764e-11 0)
(0.005 -9.46973e-11 0)
(0.005 -9.86525e-11 0)
(0.005 -1.02605e-10 0)
(0.005 -1.06505e-10 0)
(0.005 -1.10287e-10 0)
(0.005 -1.13865e-10 0)
(0.005 -1.17126e-10 0)
(0.005 -1.19922e-10 0)
(0.005 -1.22065e-10 0)
(0.005 -1.23333e-10 0)
(0.005 -1.14779e-14 0)
(0.005 -3.57433e-14 0)
(0.005 -6.24033e-14 0)
(0.005 -9.21943e-14 0)
(0.005 -1.2512e-13 0)
(0.005 -1.61116e-13 0)
(0.005 -2.00184e-13 0)
(0.005 -2.42383e-13 0)
(0.005 -2.87816e-13 0)
(0.005 -3.36627e-13 0)
(0.005 -3.88995e-13 0)
(0.005 -4.45129e-13 0)
(0.005 -5.05266e-13 0)
(0.005 -5.69667e-13 0)
(0.005 -6.38617e-13 0)
(0.005 -7.12423e-13 0)
(0.005 -7.91413e-13 0)
(0.005 -8.75935e-13 0)
(0.005 -9.66362e-13 0)
(0.005 -1.06309e-12 0)
(0.005 -1.16652e-12 0)
(0.005 -1.2771e-12 0)
(0.005 -1.39529e-12 0)
(0.005 -1.52157e-12 0)
(0.005 -1.65645e-12 0)
(0.005 -1.80048e-12 0)
(0.005 -1.9542e-12 0)
(0.005 -2.11822e-12 0)
(0.005 -2.29316e-12 0)
(0.005 -2.47967e-12 0)
(0.005 -2.67844e-12 0)
(0.005 -2.89018e-12 0)
(0.005 -3.11566e-12 0)
(0.005 -3.35565e-12 0)
(0.005 -3.61098e-12 0)
(0.005 -3.88253e-12 0)
(0.005 -4.17119e-12 0)
(0.005 -4.47792e-12 0)
(0.005 -4.80371e-12 0)
(0.005 -5.14959e-12 0)
(0.005 -5.51665e-12 0)
(0.005 -5.90601e-12 0)
(0.005 -6.31884e-12 0)
(0.005 -6.75639e-12 0)
(0.005 -7.21992e-12 0)
(0.005 -7.71078e-12 0)
(0.005 -8.23034e-12 0)
(0.005 -8.78006e-12 0)
(0.005 -9.36144e-12 0)
(0.005 -9.97604e-12 0)
(0.005 -1.06255e-11 0)
(0.005 -1.13115e-11 0)
(0.005 -1.20357e-11 0)
(0.005 -1.28001e-11 0)
(0.005 -1.36065e-11 0)
(0.005 -1.44568e-11 0)
(0.005 -1.5353e-11 0)
(0.005 -1.62974e-11 0)
(0.005 -1.7292e-11 0)
(0.005 -1.83391e-11 0)
(0.005 -1.9441e-11 0)
(0.005 -2.06002e-11 0)
(0.005 -2.1819e-11 0)
(0.005 -2.31002e-11 0)
(0.005 -2.44464e-11 0)
(0.005 -2.58602e-11 0)
(0.005 -2.73446e-11 0)
(0.005 -2.89024e-11 0)
(0.005 -3.05367e-11 0)
(0.005 -3.22505e-11 0)
(0.005 -3.40471e-11 0)
(0.005 -3.59295e-11 0)
(0.005 -3.79012e-11 0)
(0.005 -3.99655e-11 0)
(0.005 -4.21258e-11 0)
(0.005 -4.43855e-11 0)
(0.005 -4.67481e-11 0)
(0.005 -4.92169e-11 0)
(0.005 -5.17951e-11 0)
(0.005 -5.44858e-11 0)
(0.005 -5.72918e-11 0)