/*--------------------------------*- C++ -*----------------------------------*\
  =========                 |
  \\      /  F ield         | OpenFOAM: The Open Source CFD Toolbox
   \\    /   O peration     | Website:  https://openfoam.org
    \\  /    A nd           | Version:  11
     \\/     M anipulation  |
\*---------------------------------------------------------------------------*/
FoamFile
{
    format      ascii;
    class       volScalarField;
    location    "350";
    object      p;
}
// * * * * * * * * * * * * * * * * * * * * * * * * * * * * * * * * * * * * * //

dimensions      [0 2 -2 0 0 0 0];

internalField   nonuniform List<scalar> 
10000
(
5.46188e-08
5.34596e-08
5.52227e-08
5.89619e-08
6.32963e-08
6.78999e-08
7.27451e-08
7.78229e-08
8.3128e-08
8.86646e-08
9.44421e-08
1.00472e-07
1.06767e-07
1.13339e-07
1.20202e-07
1.27369e-07
1.34854e-07
1.42668e-07
1.50827e-07
1.59342e-07
1.68227e-07
1.77493e-07
1.87154e-07
1.97221e-07
2.07705e-07
2.18619e-07
2.29971e-07
2.41773e-07
2.54033e-07
2.66759e-07
2.79958e-07
2.93637e-07
3.07799e-07
3.22449e-07
3.37587e-07
3.53212e-07
3.69322e-07
3.85912e-07
4.02972e-07
4.20493e-07
4.38458e-07
4.56849e-07
4.75644e-07
4.94814e-07
5.14326e-07
5.34143e-07
5.5422e-07
5.74505e-07
5.94942e-07
6.15464e-07
6.36e-07
6.5647e-07
6.76786e-07
6.96851e-07
7.16564e-07
7.35815e-07
7.54485e-07
7.72452e-07
7.89583e-07
8.05735e-07
8.20752e-07
8.34451e-07
8.46558e-07
8.56512e-07
8.63351e-07
8.69219e-07
8.78273e-07
8.87256e-07
8.93628e-07
8.98782e-07
9.00814e-07
8.98169e-07
8.94583e-07
8.89475e-07
8.80196e-07
8.72169e-07
8.67398e-07
8.6028e-07
8.49878e-07
8.37052e-07
8.22165e-07
8.0531e-07
7.86526e-07
7.6582e-07
7.43168e-07
7.18522e-07
6.91811e-07
6.62942e-07
6.31795e-07
5.98219e-07
5.62023e-07
5.22961e-07
4.80711e-07
4.34831e-07
3.84722e-07
3.29726e-07
2.68846e-07
1.97301e-07
1.02435e-07
2.65236e-09
1.08504e-07
1.03589e-07
1.00388e-07
1.01619e-07
1.04832e-07
1.09014e-07
1.139e-07
1.1935e-07
1.25273e-07
1.31621e-07
1.38367e-07
1.45502e-07
1.53023e-07
1.60932e-07
1.69236e-07
1.77943e-07
1.87064e-07
1.96609e-07
2.0659e-07
2.1702e-07
2.2791e-07
2.39275e-07
2.51125e-07
2.63473e-07
2.76332e-07
2.89713e-07
3.03626e-07
3.18082e-07
3.3309e-07
3.48659e-07
3.64795e-07
3.81504e-07
3.98791e-07
4.16658e-07
4.35104e-07
4.54128e-07
4.73726e-07
4.93889e-07
5.14607e-07
5.35864e-07
5.57643e-07
5.7992e-07
6.02666e-07
6.25847e-07
6.49424e-07
6.73349e-07
6.97568e-07
7.22019e-07
7.4663e-07
7.71323e-07
7.96009e-07
8.20588e-07
8.44952e-07
8.68982e-07
8.92551e-07
9.15521e-07
9.37747e-07
9.59074e-07
9.79342e-07
9.98383e-07
1.01602e-06
1.03209e-06
1.04638e-06
1.05862e-06
1.06872e-06
1.07895e-06
1.08945e-06
1.09378e-06
1.09162e-06
1.08771e-06
1.0856e-06
1.08631e-06
1.08842e-06
1.08763e-06
1.07854e-06
1.065e-06
1.05278e-06
1.03945e-06
1.02355e-06
1.00518e-06
9.84436e-07
9.61316e-07
9.35805e-07
9.07877e-07
8.7748e-07
8.44532e-07
8.08926e-07
7.70524e-07
7.2915e-07
6.84585e-07
6.36552e-07
5.84695e-07
5.28547e-07
4.67456e-07
4.00566e-07
3.27081e-07
2.45626e-07
1.46882e-07
9.9451e-09
-9.06085e-08
1.39939e-07
1.32597e-07
1.25959e-07
1.24009e-07
1.24541e-07
1.26448e-07
1.29364e-07
1.33075e-07
1.37428e-07
1.42327e-07
1.47711e-07
1.53543e-07
1.59801e-07
1.6647e-07
1.73543e-07
1.8102e-07
1.88902e-07
1.97191e-07
2.05894e-07
2.15016e-07
2.24567e-07
2.34553e-07
2.44983e-07
2.55866e-07
2.67211e-07
2.79026e-07
2.91319e-07
3.04098e-07
3.17371e-07
3.31143e-07
3.4542e-07
3.60206e-07
3.75504e-07
3.91317e-07
4.07643e-07
4.2448e-07
4.41825e-07
4.59669e-07
4.78003e-07
4.96813e-07
5.16083e-07
5.3579e-07
5.55909e-07
5.76407e-07
5.97248e-07
6.18387e-07
6.39772e-07
6.61345e-07
6.83036e-07
7.04769e-07
7.26457e-07
7.48003e-07
7.693e-07
7.90229e-07
8.10665e-07
8.30471e-07
8.49505e-07
8.67617e-07
8.84656e-07
9.00471e-07
9.14918e-07
9.27877e-07
9.39262e-07
9.49031e-07
9.57354e-07
9.65401e-07
9.7387e-07
9.80697e-07
9.84091e-07
9.84666e-07
9.81826e-07
9.75132e-07
9.65544e-07
9.52809e-07
9.36118e-07
9.18642e-07
9.01864e-07
8.84393e-07
8.65371e-07
8.44578e-07
8.21919e-07
7.97314e-07
7.70705e-07
7.42043e-07
7.11263e-07
6.78278e-07
6.42976e-07
6.05221e-07
5.64837e-07
5.21609e-07
4.75264e-07
4.25462e-07
3.71755e-07
3.13529e-07
2.50038e-07
1.80856e-07
1.05036e-07
1.1383e-08
-1.23279e-07
-1.80264e-07
1.68509e-07
1.60211e-07
1.52836e-07
1.49615e-07
1.48796e-07
1.49482e-07
1.51335e-07
1.54129e-07
1.57693e-07
1.61908e-07
1.66695e-07
1.72001e-07
1.7779e-07
1.84038e-07
1.90729e-07
1.97854e-07
2.05409e-07
2.13391e-07
2.21803e-07
2.30647e-07
2.39927e-07
2.4965e-07
2.59821e-07
2.70446e-07
2.81534e-07
2.9309e-07
3.05121e-07
3.17633e-07
3.30634e-07
3.44127e-07
3.58117e-07
3.72609e-07
3.87603e-07
4.03101e-07
4.19102e-07
4.35603e-07
4.52599e-07
4.70083e-07
4.88043e-07
5.06467e-07
5.25335e-07
5.44626e-07
5.64312e-07
5.8436e-07
6.04732e-07
6.25382e-07
6.46254e-07
6.67287e-07
6.8841e-07
7.0954e-07
7.30586e-07
7.51445e-07
7.72004e-07
7.92137e-07
8.11711e-07
8.30583e-07
8.48602e-07
8.65615e-07
8.81465e-07
8.96002e-07
9.09089e-07
9.20611e-07
9.30495e-07
9.38716e-07
9.45341e-07
9.50768e-07
9.55252e-07
9.5809e-07
9.58338e-07
9.55781e-07
9.49937e-07
9.40564e-07
9.28166e-07
9.12998e-07
8.95206e-07
8.76105e-07
8.56263e-07
8.35284e-07
8.12831e-07
7.88741e-07
7.62918e-07
7.35279e-07
7.05759e-07
6.743e-07
6.40833e-07
6.05266e-07
5.67488e-07
5.27356e-07
4.84698e-07
4.39297e-07
3.90889e-07
3.39145e-07
2.83649e-07
2.23839e-07
1.59104e-07
8.93967e-08
1.42554e-08
-7.8879e-08
-2.1547e-07
-2.44613e-07
1.94426e-07
1.86138e-07
1.78826e-07
1.75096e-07
1.73557e-07
1.73522e-07
1.74716e-07
1.76931e-07
1.79998e-07
1.83794e-07
1.88233e-07
1.93254e-07
1.98811e-07
2.04873e-07
2.11419e-07
2.18435e-07
2.2591e-07
2.33841e-07
2.42225e-07
2.51061e-07
2.60353e-07
2.70103e-07
2.80315e-07
2.90995e-07
3.02148e-07
3.13779e-07
3.25894e-07
3.38498e-07
3.51596e-07
3.65192e-07
3.7929e-07
3.93892e-07
4.09e-07
4.24614e-07
4.40731e-07
4.57349e-07
4.74462e-07
4.9206e-07
5.10131e-07
5.28662e-07
5.47632e-07
5.67018e-07
5.8679e-07
6.06913e-07
6.27347e-07
6.48042e-07
6.6894e-07
6.89976e-07
7.11073e-07
7.32145e-07
7.53094e-07
7.73812e-07
7.94178e-07
8.1406e-07
8.33318e-07
8.518e-07
8.69349e-07
8.85804e-07
9.01003e-07
9.14792e-07
9.27028e-07
9.37589e-07
9.46384e-07
9.53356e-07
9.58498e-07
9.61905e-07
9.63587e-07
9.63166e-07
9.60206e-07
9.54535e-07
9.45985e-07
9.34509e-07
9.20298e-07
9.035e-07
8.84296e-07
8.6326e-07
8.40754e-07
8.16755e-07
7.91156e-07
7.63883e-07
7.34875e-07
7.04067e-07
6.714e-07
6.36818e-07
6.00254e-07
5.61618e-07
5.20797e-07
4.77654e-07
4.32018e-07
3.83682e-07
3.32395e-07
2.77853e-07
2.19681e-07
1.57383e-07
9.0481e-08
1.92574e-08
-5.64021e-08
-1.50486e-07
-2.90723e-07
-2.98621e-07
2.17776e-07
2.09867e-07
2.0279e-07
1.98814e-07
1.96815e-07
1.96264e-07
1.96945e-07
1.98679e-07
2.01311e-07
2.04723e-07
2.08828e-07
2.13561e-07
2.18872e-07
2.24727e-07
2.31098e-07
2.37968e-07
2.45325e-07
2.53158e-07
2.61464e-07
2.7024e-07
2.79486e-07
2.89203e-07
2.99394e-07
3.10061e-07
3.21209e-07
3.32842e-07
3.44964e-07
3.57579e-07
3.70691e-07
3.84303e-07
3.98417e-07
4.13036e-07
4.2816e-07
4.43788e-07
4.59917e-07
4.76542e-07
4.93656e-07
5.11251e-07
5.29312e-07
5.47824e-07
5.66766e-07
5.86112e-07
6.05832e-07
6.25889e-07
6.46238e-07
6.66829e-07
6.87601e-07
7.08486e-07
7.29402e-07
7.5026e-07
7.70959e-07
7.91383e-07
8.11409e-07
8.30898e-07
8.49705e-07
8.67672e-07
8.84637e-07
9.00434e-07
9.14896e-07
9.27862e-07
9.39184e-07
9.48728e-07
9.56386e-07
9.62073e-07
9.65739e-07
9.67367e-07
9.66888e-07
9.64074e-07
9.58686e-07
9.50605e-07
9.39764e-07
9.26165e-07
9.09913e-07
8.91131e-07
8.69987e-07
8.46808e-07
8.21852e-07
7.9519e-07
7.66817e-07
7.36716e-07
7.04863e-07
6.71212e-07
6.35716e-07
5.9833e-07
5.58991e-07
5.17616e-07
4.741e-07
4.28314e-07
3.801e-07
3.29266e-07
2.75586e-07
2.18792e-07
1.5856e-07
9.44667e-08
2.61581e-08
-4.58346e-08
-1.21492e-07
-2.16267e-07
-3.58807e-07
-3.49213e-07
2.39379e-07
2.319e-07
2.25115e-07
2.21054e-07
2.18775e-07
2.17861e-07
2.18152e-07
2.19498e-07
2.21762e-07
2.24835e-07
2.28635e-07
2.33095e-07
2.38166e-07
2.4381e-07
2.49998e-07
2.56708e-07
2.63926e-07
2.7164e-07
2.79843e-07
2.8853e-07
2.977e-07
3.07351e-07
3.17484e-07
3.28101e-07
3.39205e-07
3.50798e-07
3.62883e-07
3.75464e-07
3.88542e-07
4.02121e-07
4.16201e-07
4.30783e-07
4.45867e-07
4.6145e-07
4.7753e-07
4.94099e-07
5.11151e-07
5.28675e-07
5.46656e-07
5.65076e-07
5.83915e-07
6.03144e-07
6.22731e-07
6.42638e-07
6.62819e-07
6.8322e-07
7.03778e-07
7.24421e-07
7.45067e-07
7.65621e-07
7.85979e-07
8.06023e-07
8.25624e-07
8.44641e-07
8.62921e-07
8.80306e-07
8.96627e-07
9.11714e-07
9.25396e-07
9.37506e-07
9.47887e-07
9.56397e-07
9.62911e-07
9.67324e-07
9.69556e-07
9.69545e-07
9.67204e-07
9.62385e-07
9.54942e-07
9.44791e-07
9.31895e-07
9.16276e-07
8.98022e-07
8.77252e-07
8.54123e-07
8.28857e-07
8.01642e-07
7.72576e-07
7.41704e-07
7.09049e-07
6.74616e-07
6.38382e-07
6.00313e-07
5.60377e-07
5.1852e-07
4.74672e-07
4.28739e-07
3.80605e-07
3.30129e-07
2.77143e-07
2.21449e-07
1.62823e-07
1.00993e-07
3.56109e-08
-3.35679e-08
-1.0583e-07
-1.81138e-07
-2.75999e-07
-4.17766e-07
-3.95145e-07
2.59733e-07
2.52658e-07
2.46172e-07
2.42122e-07
2.39688e-07
2.38535e-07
2.38542e-07
2.39587e-07
2.41554e-07
2.44344e-07
2.4788e-07
2.521e-07
2.56955e-07
2.62404e-07
2.6842e-07
2.74978e-07
2.8206e-07
2.89655e-07
2.97753e-07
3.06348e-07
3.15435e-07
3.25013e-07
3.3508e-07
3.45638e-07
3.56687e-07
3.68228e-07
3.80265e-07
3.92797e-07
4.05827e-07
4.19357e-07
4.33386e-07
4.47914e-07
4.62939e-07
4.78459e-07
4.94469e-07
5.10962e-07
5.27928e-07
5.45357e-07
5.63232e-07
5.81534e-07
6.00241e-07
6.19324e-07
6.38748e-07
6.58473e-07
6.78452e-07
6.98628e-07
7.18937e-07
7.39304e-07
7.59644e-07
7.7986e-07
7.99844e-07
8.19476e-07
8.38623e-07
8.5714e-07
8.74875e-07
8.91661e-07
9.07329e-07
9.21703e-07
9.34609e-07
9.45874e-07
9.55334e-07
9.62838e-07
9.68248e-07
9.71446e-07
9.72332e-07
9.70821e-07
9.66826e-07
9.60241e-07
9.50973e-07
9.38968e-07
9.24213e-07
9.06741e-07
8.86632e-07
8.63998e-07
8.38979e-07
8.11742e-07
7.82441e-07
7.51181e-07
7.18034e-07
6.83049e-07
6.46256e-07
6.07652e-07
5.67218e-07
5.24934e-07
4.80762e-07
4.34644e-07
3.865e-07
3.36233e-07
2.83721e-07
2.28822e-07
1.71373e-07
1.11188e-07
4.80535e-08
-1.83126e-08
-8.80542e-08
-1.6031e-07
-2.35034e-07
-3.29347e-07
-4.68347e-07
-4.35286e-07
2.79086e-07
2.72368e-07
2.66161e-07
2.62172e-07
2.59663e-07
2.58354e-07
2.58157e-07
2.58972e-07
2.60701e-07
2.63257e-07
2.66569e-07
2.70579e-07
2.7524e-07
2.80513e-07
2.86368e-07
2.92781e-07
2.99734e-07
3.07212e-07
3.15205e-07
3.23704e-07
3.32705e-07
3.42205e-07
3.522e-07
3.6269e-07
3.73675e-07
3.85155e-07
3.97131e-07
4.09604e-07
4.22574e-07
4.36041e-07
4.50004e-07
4.64463e-07
4.79414e-07
4.94853e-07
5.10775e-07
5.27172e-07
5.44033e-07
5.61345e-07
5.79092e-07
5.97253e-07
6.15804e-07
6.34714e-07
6.53949e-07
6.73465e-07
6.93213e-07
7.13136e-07
7.33167e-07
7.53228e-07
7.73233e-07
7.93083e-07
8.12667e-07
8.31862e-07
8.50534e-07
8.68535e-07
8.85708e-07
9.01887e-07
9.16898e-07
9.30563e-07
9.42702e-07
9.5314e-07
9.61706e-07
9.68241e-07
9.72599e-07
9.74652e-07
9.74287e-07
9.71412e-07
9.65938e-07
9.57784e-07
9.46889e-07
9.33219e-07
9.16779e-07
8.97608e-07
8.75784e-07
8.51411e-07
8.24614e-07
7.95533e-07
7.64303e-07
7.31033e-07
6.95807e-07
6.58695e-07
6.19744e-07
5.78968e-07
5.36363e-07
4.91925e-07
4.45631e-07
3.97435e-07
3.47276e-07
2.95074e-07
2.40731e-07
1.84133e-07
1.25147e-07
6.36308e-08
-5.8096e-10
-6.77089e-08
-1.37815e-07
-2.09923e-07
-2.84021e-07
-3.77867e-07
-5.14515e-07
-4.72484e-07
2.97584e-07
2.91174e-07
2.85217e-07
2.81309e-07
2.78773e-07
2.77367e-07
2.77023e-07
2.77663e-07
2.79202e-07
2.81563e-07
2.84685e-07
2.88511e-07
2.92999e-07
2.98111e-07
3.03817e-07
3.10094e-07
3.16921e-07
3.24283e-07
3.3217e-07
3.40572e-07
3.49483e-07
3.58898e-07
3.68814e-07
3.79228e-07
3.9014e-07
4.01549e-07
4.13454e-07
4.25855e-07
4.38751e-07
4.52141e-07
4.66024e-07
4.80397e-07
4.95257e-07
5.10598e-07
5.26414e-07
5.42695e-07
5.5943e-07
5.76605e-07
5.94201e-07
6.12198e-07
6.30569e-07
6.49283e-07
6.68302e-07
6.87583e-07
7.07074e-07
7.26717e-07
7.46442e-07
7.66171e-07
7.85816e-07
8.05274e-07
8.24434e-07
8.43172e-07
8.61349e-07
8.78819e-07
8.9542e-07
9.10986e-07
9.25339e-07
9.38299e-07
9.49684e-07
9.59314e-07
9.67014e-07
9.7262e-07
9.75979e-07
9.76956e-07
9.75434e-07
9.71312e-07
9.64507e-07
9.54949e-07
9.42594e-07
9.27424e-07
9.09452e-07
8.88724e-07
8.65316e-07
8.39326e-07
8.10869e-07
7.80073e-07
7.47063e-07
7.11948e-07
6.74822e-07
6.35766e-07
5.94842e-07
5.52079e-07
5.07489e-07
4.61081e-07
4.12846e-07
3.62756e-07
3.10766e-07
2.56817e-07
2.00833e-07
1.42725e-07
8.23958e-08
1.97401e-08
-4.53631e-08
-1.13083e-07
-1.83416e-07
-2.55286e-07
-3.28729e-07
-4.2237e-07
-5.58306e-07
-5.07736e-07
3.15325e-07
3.09179e-07
3.03442e-07
2.99623e-07
2.97089e-07
2.95623e-07
2.95176e-07
2.95682e-07
2.97069e-07
2.9927e-07
3.02228e-07
3.05895e-07
3.10229e-07
3.15194e-07
3.20762e-07
3.26909e-07
3.33615e-07
3.40865e-07
3.48646e-07
3.56949e-07
3.65766e-07
3.75091e-07
3.84921e-07
3.95253e-07
4.06083e-07
4.17411e-07
4.29234e-07
4.41551e-07
4.54362e-07
4.67663e-07
4.81452e-07
4.95725e-07
5.10479e-07
5.25706e-07
5.41398e-07
5.57546e-07
5.74137e-07
5.91155e-07
6.08581e-07
6.26393e-07
6.44563e-07
6.63058e-07
6.81839e-07
7.00862e-07
7.20074e-07
7.39413e-07
7.58811e-07
7.78186e-07
7.97448e-07
8.16496e-07
8.35214e-07
8.53477e-07
8.71148e-07
8.88075e-07
9.04098e-07
9.19048e-07
9.32746e-07
9.45011e-07
9.55657e-07
9.64502e-07
9.71368e-07
9.76086e-07
9.785e-07
9.7847e-07
9.75875e-07
9.70611e-07
9.62598e-07
9.51773e-07
9.38101e-07
9.21572e-07
9.02206e-07
8.80052e-07
8.55185e-07
8.27699e-07
7.97705e-07
7.65323e-07
7.30673e-07
6.93865e-07
6.54999e-07
6.14166e-07
5.7144e-07
5.26862e-07
4.80458e-07
4.3225e-07
3.82246e-07
3.30432e-07
2.76781e-07
2.21254e-07
1.63798e-07
1.04349e-07
4.28389e-08
-2.07999e-08
-8.66486e-08
-1.54832e-07
-2.25285e-07
-2.96807e-07
-3.69361e-07
-4.62556e-07
-5.99813e-07
-5.38778e-07
3.32377e-07
3.26457e-07
3.20912e-07
3.17183e-07
3.14667e-07
3.13169e-07
3.12649e-07
3.13053e-07
3.14318e-07
3.16386e-07
3.19206e-07
3.22734e-07
3.2693e-07
3.31762e-07
3.37201e-07
3.43226e-07
3.49815e-07
3.56955e-07
3.64631e-07
3.72833e-07
3.81554e-07
3.90786e-07
4.00526e-07
4.10768e-07
4.21509e-07
4.32747e-07
4.4448e-07
4.56704e-07
4.69418e-07
4.82618e-07
4.96301e-07
5.10462e-07
5.25095e-07
5.40193e-07
5.55748e-07
5.71747e-07
5.88178e-07
6.05022e-07
6.22261e-07
6.3987e-07
6.5782e-07
6.76078e-07
6.94603e-07
7.13349e-07
7.32262e-07
7.51279e-07
7.70331e-07
7.89334e-07
8.08198e-07
8.26819e-07
8.45082e-07
8.62861e-07
8.80015e-07
8.96395e-07
9.11838e-07
9.26174e-07
9.39224e-07
9.50805e-07
9.60731e-07
9.68816e-07
9.74881e-07
9.78753e-07
9.80275e-07
9.79304e-07
9.75713e-07
9.69401e-07
9.60287e-07
9.48311e-07
9.33444e-07
9.1568e-07
8.95044e-07
8.71586e-07
8.45378e-07
8.16516e-07
7.85104e-07
7.51261e-07
7.15103e-07
6.76744e-07
6.36286e-07
5.93829e-07
5.49456e-07
5.0322e-07
4.5516e-07
4.05311e-07
3.53694e-07
3.00313e-07
2.45156e-07
1.88204e-07
1.29423e-07
6.87759e-08
6.22174e-09
-5.82761e-08
-1.24762e-07
-1.93325e-07
-2.63842e-07
-3.34963e-07
-4.06469e-07
-4.99036e-07
-6.39335e-07
-5.66516e-07
3.48788e-07
3.43061e-07
3.37685e-07
3.34043e-07
3.31557e-07
3.30043e-07
3.29472e-07
3.29798e-07
3.30965e-07
3.32923e-07
3.35625e-07
3.3903e-07
3.43103e-07
3.47814e-07
3.53135e-07
3.59044e-07
3.65522e-07
3.72553e-07
3.80125e-07
3.88227e-07
3.96849e-07
4.05985e-07
4.15629e-07
4.25776e-07
4.36422e-07
4.47564e-07
4.59197e-07
4.7132e-07
4.83928e-07
4.97017e-07
5.10582e-07
5.24619e-07
5.3912e-07
5.54078e-07
5.69481e-07
5.85318e-07
6.01574e-07
6.1823e-07
6.35267e-07
6.52657e-07
6.70372e-07
6.88377e-07
7.06629e-07
7.25083e-07
7.43681e-07
7.62362e-07
7.81053e-07
7.99671e-07
8.18124e-07
8.36308e-07
8.54106e-07
8.71392e-07
8.88026e-07
9.03856e-07
9.18721e-07
9.3245e-07
9.44862e-07
9.55775e-07
9.65e-07
9.72352e-07
9.77649e-07
9.80719e-07
9.814e-07
9.79547e-07
9.75034e-07
9.67757e-07
9.57633e-07
9.44609e-07
9.28654e-07
9.09766e-07
8.87971e-07
8.6332e-07
8.35885e-07
8.05758e-07
7.73045e-07
7.37859e-07
7.00319e-07
6.60538e-07
6.18624e-07
5.74683e-07
5.28807e-07
4.81059e-07
4.31488e-07
3.80143e-07
3.27058e-07
2.72251e-07
2.15728e-07
1.57485e-07
9.7511e-08
3.57881e-08
-2.76998e-08
-9.29618e-08
-1.60013e-07
-2.28914e-07
-2.99504e-07
-3.70295e-07
-4.40905e-07
-5.33247e-07
-6.77852e-07
-5.94562e-07
3.64592e-07
3.59034e-07
3.53807e-07
3.50246e-07
3.47795e-07
3.46278e-07
3.45672e-07
3.45938e-07
3.47027e-07
3.48892e-07
3.51492e-07
3.5479e-07
3.58753e-07
3.63353e-07
3.68563e-07
3.74363e-07
3.80734e-07
3.87661e-07
3.9513e-07
4.0313e-07
4.11653e-07
4.2069e-07
4.30235e-07
4.40282e-07
4.50828e-07
4.61866e-07
4.73394e-07
4.85406e-07
4.97899e-07
5.10868e-07
5.24307e-07
5.3821e-07
5.52569e-07
5.67374e-07
5.82614e-07
5.98277e-07
6.14345e-07
6.30802e-07
6.47622e-07
6.64782e-07
6.82249e-07
6.99987e-07
7.17954e-07
7.36102e-07
7.54374e-07
7.72706e-07
7.91025e-07
8.09247e-07
8.2728e-07
8.45019e-07
8.62348e-07
8.79138e-07
8.9525e-07
9.10533e-07
9.24824e-07
9.37953e-07
9.4974e-07
9.60001e-07
9.68548e-07
9.75195e-07
9.79759e-07
9.82067e-07
9.81956e-07
9.79279e-07
9.73909e-07
9.6574e-07
9.54692e-07
9.40707e-07
9.23759e-07
9.03846e-07
8.80994e-07
8.55253e-07
8.26694e-07
7.9541e-07
7.61503e-07
7.25088e-07
6.86281e-07
6.452e-07
6.01956e-07
5.5666e-07
5.09412e-07
4.60285e-07
4.09337e-07
3.56629e-07
3.02208e-07
2.46104e-07
1.8834e-07
1.28928e-07
6.78736e-08
5.1788e-09
-5.91519e-08
-1.25106e-07
-1.92675e-07
-2.61903e-07
-3.32606e-07
-4.03185e-07
-4.73139e-07
-5.65737e-07
-7.1562e-07
-6.23526e-07
3.79817e-07
3.74408e-07
3.69313e-07
3.65829e-07
3.63413e-07
3.61901e-07
3.61273e-07
3.61492e-07
3.62516e-07
3.64303e-07
3.66815e-07
3.70019e-07
3.73883e-07
3.78381e-07
3.83488e-07
3.89185e-07
3.95454e-07
4.02278e-07
4.09646e-07
4.17545e-07
4.25967e-07
4.34903e-07
4.44346e-07
4.5429e-07
4.64729e-07
4.75659e-07
4.87075e-07
4.98971e-07
5.11342e-07
5.24183e-07
5.37487e-07
5.51246e-07
5.65453e-07
5.80096e-07
5.95164e-07
6.10642e-07
6.26513e-07
6.42758e-07
6.59353e-07
6.7627e-07
6.93478e-07
7.10939e-07
7.2861e-07
7.46442e-07
7.64378e-07
7.82352e-07
8.00291e-07
8.18111e-07
8.35719e-07
8.53009e-07
8.69865e-07
8.86159e-07
9.01751e-07
9.16491e-07
9.30216e-07
9.42756e-07
9.53932e-07
9.6356e-07
9.71452e-07
9.77422e-07
9.81287e-07
9.82873e-07
9.82015e-07
9.78567e-07
9.72401e-07
9.63408e-07
9.51508e-07
9.36645e-07
9.18789e-07
8.9794e-07
8.74122e-07
8.47385e-07
8.178e-07
7.85457e-07
7.50459e-07
7.12918e-07
6.72954e-07
6.30685e-07
5.86227e-07
5.39694e-07
4.91196e-07
4.40811e-07
3.88609e-07
3.34659e-07
2.7902e-07
2.21738e-07
1.62846e-07
1.02372e-07
4.03362e-08
-2.32413e-08
-8.83392e-08
-1.54927e-07
-2.22981e-07
-2.92534e-07
-3.63392e-07
-4.33861e-07
-5.03341e-07
-5.96441e-07
-7.51805e-07
-6.5177e-07
3.94485e-07
3.89207e-07
3.84231e-07
3.80818e-07
3.7844e-07
3.76937e-07
3.76294e-07
3.76478e-07
3.77449e-07
3.79169e-07
3.81605e-07
3.84724e-07
3.88498e-07
3.92902e-07
3.97914e-07
4.03513e-07
4.09683e-07
4.16408e-07
4.23675e-07
4.31474e-07
4.39794e-07
4.48627e-07
4.57966e-07
4.67803e-07
4.78133e-07
4.8895e-07
5.00248e-07
5.12021e-07
5.24264e-07
5.3697e-07
5.50132e-07
5.63741e-07
5.77788e-07
5.92261e-07
6.07147e-07
6.22432e-07
6.38097e-07
6.54122e-07
6.70481e-07
6.87147e-07
7.04087e-07
7.21263e-07
7.38631e-07
7.56139e-07
7.73732e-07
7.91342e-07
8.08896e-07
8.2631e-07
8.43489e-07
8.60328e-07
8.76711e-07
8.92511e-07
9.07589e-07
9.21792e-07
9.34961e-07
9.46925e-07
9.57507e-07
9.66521e-07
9.73782e-07
9.79103e-07
9.82302e-07
9.83203e-07
9.81644e-07
9.77474e-07
9.70566e-07
9.60812e-07
9.48128e-07
9.32457e-07
9.1377e-07
8.92065e-07
8.67365e-07
8.39719e-07
8.09197e-07
7.75887e-07
7.39891e-07
7.01324e-07
6.60304e-07
6.16951e-07
5.71384e-07
5.23725e-07
4.74086e-07
4.22555e-07
3.6921e-07
3.14129e-07
2.57382e-07
1.99026e-07
1.39107e-07
7.76661e-08
1.47377e-08
-4.96448e-08
-1.15445e-07
-1.82619e-07
-2.5113e-07
-3.21007e-07
-3.9205e-07
-4.6248e-07
-5.31606e-07
-6.253e-07
-7.85961e-07
-6.78589e-07
4.08614e-07
4.03454e-07
3.98585e-07
3.95237e-07
3.92896e-07
3.91406e-07
3.90753e-07
3.90909e-07
3.91837e-07
3.935e-07
3.95868e-07
3.98911e-07
4.02604e-07
4.06921e-07
4.11843e-07
4.17349e-07
4.23423e-07
4.30052e-07
4.37221e-07
4.4492e-07
4.53138e-07
4.61867e-07
4.71099e-07
4.80827e-07
4.91044e-07
5.01744e-07
5.1292e-07
5.24566e-07
5.36676e-07
5.49241e-07
5.62255e-07
5.75706e-07
5.89586e-07
6.03883e-07
6.18581e-07
6.33665e-07
6.49117e-07
6.64914e-07
6.81032e-07
6.9744e-07
7.14106e-07
7.30989e-07
7.48047e-07
7.65227e-07
7.82472e-07
7.99714e-07
8.1688e-07
8.33885e-07
8.50635e-07
8.67025e-07
8.82939e-07
8.9825e-07
9.12818e-07
9.26495e-07
9.39119e-07
9.50522e-07
9.60525e-07
9.68947e-07
9.75601e-07
9.80301e-07
9.82866e-07
9.8312e-07
9.80899e-07
9.76054e-07
9.68456e-07
9.57995e-07
9.44588e-07
9.28176e-07
9.08728e-07
8.8624e-07
8.60734e-07
8.32259e-07
8.00881e-07
7.66689e-07
7.29784e-07
6.9028e-07
6.48296e-07
6.03955e-07
5.57379e-07
5.08692e-07
4.58014e-07
4.0544e-07
3.51053e-07
2.94942e-07
2.37186e-07
1.77852e-07
1.16997e-07
5.46742e-08
-9.06951e-09
-7.41887e-08
-1.40635e-07
-2.08352e-07
-2.77295e-07
-3.4749e-07
-4.18733e-07
-4.89168e-07
-5.58016e-07
-6.52313e-07
-8.17928e-07
-7.03773e-07
4.22219e-07
4.17165e-07
4.12393e-07
4.09106e-07
4.068e-07
4.05326e-07
4.04668e-07
4.04802e-07
4.05692e-07
4.07306e-07
4.09614e-07
4.12589e-07
4.16207e-07
4.20443e-07
4.2528e-07
4.30697e-07
4.3668e-07
4.43214e-07
4.50286e-07
4.57886e-07
4.66002e-07
4.74627e-07
4.83751e-07
4.93368e-07
5.03469e-07
5.14049e-07
5.25099e-07
5.36614e-07
5.48586e-07
5.61006e-07
5.73866e-07
5.87155e-07
6.00863e-07
6.14977e-07
6.29482e-07
6.4436e-07
6.59593e-07
6.75157e-07
6.91027e-07
7.07172e-07
7.23559e-07
7.40146e-07
7.5689e-07
7.73739e-07
7.90633e-07
8.07506e-07
8.24283e-07
8.4088e-07
8.57203e-07
8.73147e-07
8.88596e-07
9.03424e-07
9.17492e-07
9.30652e-07
9.42745e-07
9.53601e-07
9.63045e-07
9.70895e-07
9.76967e-07
9.81074e-07
9.83035e-07
9.82677e-07
9.79834e-07
9.74357e-07
9.66116e-07
9.55e-07
9.40925e-07
9.23831e-07
9.03684e-07
8.8048e-07
8.54239e-07
8.25006e-07
7.92849e-07
7.57853e-07
7.20119e-07
6.79762e-07
6.36901e-07
5.9166e-07
5.44164e-07
4.94542e-07
4.42918e-07
3.89393e-07
3.34057e-07
2.77008e-07
2.18331e-07
1.58105e-07
9.63965e-08
3.32685e-08
-3.1221e-08
-9.70157e-08
-1.64057e-07
-2.32278e-07
-3.01627e-07
-3.72128e-07
-4.43573e-07
-5.14035e-07
-5.82648e-07
-6.77511e-07
-8.47657e-07
-7.27244e-07
4.35313e-07
4.30355e-07
4.25671e-07
4.22441e-07
4.20171e-07
4.18712e-07
4.18052e-07
4.18169e-07
4.19027e-07
4.20598e-07
4.22852e-07
4.25765e-07
4.29312e-07
4.33474e-07
4.3823e-07
4.43562e-07
4.49457e-07
4.55899e-07
4.62876e-07
4.70377e-07
4.78392e-07
4.86911e-07
4.95927e-07
5.0543e-07
5.15414e-07
5.25871e-07
5.36794e-07
5.48174e-07
5.60004e-07
5.72275e-07
5.84978e-07
5.98101e-07
6.11633e-07
6.25559e-07
6.39866e-07
6.54534e-07
6.69543e-07
6.84871e-07
7.00489e-07
7.16368e-07
7.32472e-07
7.48761e-07
7.6519e-07
7.81705e-07
7.98248e-07
8.14752e-07
8.31142e-07
8.47334e-07
8.63233e-07
8.78736e-07
8.93727e-07
9.0808e-07
9.21659e-07
9.34314e-07
9.45889e-07
9.56215e-07
9.65119e-07
9.72419e-07
9.77931e-07
9.81473e-07
9.82861e-07
9.81923e-07
9.78495e-07
9.72426e-07
9.63586e-07
9.51863e-07
9.37171e-07
9.19449e-07
8.98662e-07
8.74802e-07
8.47889e-07
8.17966e-07
7.85098e-07
7.4937e-07
7.10882e-07
6.69748e-07
6.26088e-07
5.80028e-07
5.31696e-07
4.81222e-07
4.28737e-07
3.74346e-07
3.18146e-07
2.6024e-07
2.00725e-07
1.39684e-07
7.7196e-08
1.33316e-08
-5.18411e-08
-1.18256e-07
-1.85846e-07
-2.54534e-07
-3.24262e-07
-3.95052e-07
-4.66693e-07
-5.37186e-07
-6.05585e-07
-7.00952e-07
-8.75168e-07
-7.48991e-07
4.47907e-07
4.43037e-07
4.38435e-07
4.35258e-07
4.3302e-07
4.31578e-07
4.30919e-07
4.31021e-07
4.31852e-07
4.33384e-07
4.3559e-07
4.38445e-07
4.41928e-07
4.46019e-07
4.50698e-07
4.55949e-07
4.61758e-07
4.68111e-07
4.74994e-07
4.82398e-07
4.90312e-07
4.98726e-07
5.07632e-07
5.17022e-07
5.26887e-07
5.3722e-07
5.48012e-07
5.59255e-07
5.70941e-07
5.8306e-07
5.95602e-07
6.08556e-07
6.21908e-07
6.35645e-07
6.4975e-07
6.64205e-07
6.78988e-07
6.94076e-07
7.09441e-07
7.25052e-07
7.40872e-07
7.56861e-07
7.72973e-07
7.89156e-07
8.05349e-07
8.21486e-07
8.37492e-07
8.53283e-07
8.68764e-07
8.83832e-07
8.98374e-07
9.12262e-07
9.25362e-07
9.37526e-07
9.48598e-07
9.58412e-07
9.66794e-07
9.73566e-07
9.78544e-07
9.81545e-07
9.8239e-07
9.80905e-07
9.76925e-07
9.70302e-07
9.60903e-07
9.48617e-07
9.33355e-07
9.15055e-07
8.9368e-07
8.6922e-07
8.41694e-07
8.1114e-07
7.77625e-07
7.41231e-07
7.02057e-07
6.60216e-07
6.1583e-07
5.69026e-07
5.19932e-07
4.68684e-07
4.15414e-07
3.60234e-07
3.03247e-07
2.44561e-07
1.8428e-07
1.22496e-07
5.9294e-08
-5.24483e-09
-7.10444e-08
-1.3803e-07
-2.06125e-07
-2.75247e-07
-3.45327e-07
-4.16387e-07
-4.88209e-07
-5.58728e-07
-6.26922e-07
-7.22718e-07
-9.00535e-07
-7.69053e-07
4.60012e-07
4.55223e-07
4.50696e-07
4.47569e-07
4.45362e-07
4.43936e-07
4.43279e-07
4.43369e-07
4.44177e-07
4.45674e-07
4.47835e-07
4.50637e-07
4.5406e-07
4.58083e-07
4.6269e-07
4.67863e-07
4.73589e-07
4.79854e-07
4.86646e-07
4.93954e-07
5.01768e-07
5.10077e-07
5.18874e-07
5.28149e-07
5.37894e-07
5.48101e-07
5.58762e-07
5.69866e-07
5.81406e-07
5.93371e-07
6.05751e-07
6.18533e-07
6.31704e-07
6.45249e-07
6.5915e-07
6.7339e-07
6.87946e-07
7.02793e-07
7.17903e-07
7.33245e-07
7.48782e-07
7.64472e-07
7.80269e-07
7.9612e-07
8.11967e-07
8.2774e-07
8.43367e-07
8.58762e-07
8.73832e-07
8.88474e-07
9.02575e-07
9.1601e-07
9.28644e-07
9.40331e-07
9.50916e-07
9.60235e-07
9.68116e-07
9.7438e-07
9.78847e-07
9.81334e-07
9.81663e-07
9.79661e-07
9.75163e-07
9.68021e-07
9.58102e-07
9.45292e-07
9.29503e-07
9.1067e-07
8.88756e-07
8.63747e-07
8.3566e-07
8.04533e-07
7.70428e-07
7.33428e-07
6.9363e-07
6.51147e-07
6.06101e-07
5.5862e-07
5.08834e-07
4.56881e-07
4.02897e-07
3.46999e-07
2.89294e-07
2.29896e-07
1.68915e-07
1.06451e-07
4.25964e-08
-2.2561e-08
-8.89364e-08
-1.56447e-07
-2.25009e-07
-2.94531e-07
-3.64937e-07
-4.36246e-07
-5.08232e-07
-5.78769e-07
-6.46763e-07
-7.42916e-07
-9.23873e-07
-7.87514e-07
4.71636e-07
4.66922e-07
4.62466e-07
4.59385e-07
4.57208e-07
4.55798e-07
4.55144e-07
4.55224e-07
4.5601e-07
4.57476e-07
4.59596e-07
4.62349e-07
4.65715e-07
4.69675e-07
4.74212e-07
4.7931e-07
4.84956e-07
4.91135e-07
4.97837e-07
5.05051e-07
5.12765e-07
5.2097e-07
5.29658e-07
5.38818e-07
5.48443e-07
5.58524e-07
5.69052e-07
5.80017e-07
5.9141e-07
6.0322e-07
6.15436e-07
6.28045e-07
6.41033e-07
6.54385e-07
6.68083e-07
6.82107e-07
6.96435e-07
7.11041e-07
7.25897e-07
7.4097e-07
7.56224e-07
7.71617e-07
7.87102e-07
8.02626e-07
8.18129e-07
8.33545e-07
8.48798e-07
8.63804e-07
8.78471e-07
8.92697e-07
9.06368e-07
9.19361e-07
9.31542e-07
9.42767e-07
9.52882e-07
9.61724e-07
9.69123e-07
9.74901e-07
9.7888e-07
9.80879e-07
9.80719e-07
9.78228e-07
9.73244e-07
9.65616e-07
9.55211e-07
9.41916e-07
9.25639e-07
9.06316e-07
8.83905e-07
8.58394e-07
8.29795e-07
7.98145e-07
7.63504e-07
7.25953e-07
6.85588e-07
6.42522e-07
5.96877e-07
5.4878e-07
4.98365e-07
4.45771e-07
3.91137e-07
3.34585e-07
2.76225e-07
2.16177e-07
1.54556e-07
9.14697e-08
2.7016e-08
-3.87095e-08
-1.05615e-07
-1.7361e-07
-2.42603e-07
-3.12495e-07
-3.83204e-07
-4.54742e-07
-5.26875e-07
-5.97419e-07
-6.65217e-07
-7.61664e-07
-9.45325e-07
-8.04478e-07
4.82788e-07
4.78145e-07
4.73754e-07
4.70716e-07
4.68568e-07
4.67174e-07
4.66523e-07
4.66595e-07
4.67362e-07
4.68798e-07
4.7088e-07
4.73587e-07
4.76899e-07
4.80799e-07
4.85269e-07
4.90295e-07
4.95862e-07
5.01959e-07
5.08573e-07
5.15693e-07
5.23309e-07
5.31411e-07
5.3999e-07
5.49037e-07
5.58542e-07
5.68497e-07
5.78892e-07
5.89717e-07
6.00963e-07
6.12617e-07
6.24669e-07
6.37105e-07
6.4991e-07
6.63069e-07
6.76563e-07
6.90371e-07
7.04472e-07
7.18838e-07
7.33442e-07
7.48249e-07
7.63223e-07
7.78322e-07
7.93498e-07
8.08699e-07
8.23865e-07
8.38928e-07
8.53814e-07
8.6844e-07
8.82714e-07
8.96533e-07
9.09786e-07
9.2235e-07
9.34093e-07
9.44872e-07
9.54533e-07
9.62916e-07
9.69852e-07
9.75166e-07
9.7868e-07
9.80214e-07
9.79592e-07
9.7664e-07
9.71198e-07
9.63115e-07
9.52258e-07
9.38511e-07
9.21784e-07
9.02009e-07
8.79144e-07
8.53172e-07
8.24106e-07
7.91979e-07
7.5685e-07
7.18798e-07
6.77919e-07
6.34323e-07
5.88133e-07
5.39478e-07
4.88491e-07
4.35313e-07
3.80088e-07
3.22939e-07
2.63981e-07
2.03339e-07
1.41134e-07
7.7476e-08
1.24721e-08
-5.37763e-08
-1.21171e-07
-1.89614e-07
-2.59006e-07
-3.29241e-07
-4.0023e-07
-4.71979e-07
-5.44245e-07
-6.1479e-07
-6.824e-07
-7.79089e-07
-9.65048e-07
-8.20067e-07
4.93476e-07
4.88898e-07
4.84569e-07
4.81572e-07
4.79452e-07
4.78072e-07
4.77425e-07
4.7749e-07
4.78239e-07
4.79648e-07
4.81695e-07
4.84358e-07
4.8762e-07
4.91461e-07
4.95867e-07
5.00823e-07
5.06315e-07
5.12331e-07
5.18859e-07
5.25888e-07
5.33407e-07
5.41407e-07
5.49879e-07
5.58812e-07
5.68198e-07
5.78027e-07
5.88289e-07
5.98975e-07
6.10074e-07
6.21573e-07
6.33462e-07
6.45725e-07
6.58348e-07
6.71314e-07
6.84605e-07
6.982e-07
7.12075e-07
7.26203e-07
7.40556e-07
7.55101e-07
7.69798e-07
7.84607e-07
7.9948e-07
8.14364e-07
8.29198e-07
8.43916e-07
8.58445e-07
8.727e-07
8.8659e-07
9.00014e-07
9.12861e-07
9.2501e-07
9.36329e-07
9.46677e-07
9.55902e-07
9.63845e-07
9.70339e-07
9.75209e-07
9.7828e-07
9.79373e-07
9.78312e-07
9.74927e-07
9.69055e-07
9.60546e-07
9.49267e-07
9.35101e-07
9.17958e-07
8.97766e-07
8.74483e-07
8.4809e-07
8.18597e-07
7.86036e-07
7.50464e-07
7.11957e-07
6.7061e-07
6.26534e-07
5.7985e-07
5.30687e-07
4.7918e-07
4.25471e-07
3.69707e-07
3.12014e-07
2.5251e-07
1.91324e-07
1.28582e-07
6.44003e-08
-1.10998e-09
-6.78409e-08
-1.35687e-07
-2.04546e-07
-2.7431e-07
-3.44865e-07
-4.16115e-07
-4.88061e-07
-5.60448e-07
-6.3099e-07
-6.98427e-07
-7.95321e-07
-9.83204e-07
-8.34409e-07
5.03707e-07
4.99191e-07
4.9492e-07
4.91962e-07
4.89867e-07
4.88502e-07
4.87859e-07
4.87917e-07
4.8865e-07
4.90035e-07
4.92048e-07
4.9467e-07
4.97883e-07
5.01669e-07
5.06014e-07
5.10902e-07
5.16321e-07
5.22258e-07
5.28701e-07
5.3564e-07
5.43065e-07
5.50964e-07
5.59329e-07
5.68151e-07
5.77418e-07
5.87123e-07
5.97254e-07
6.07801e-07
6.18754e-07
6.30099e-07
6.41825e-07
6.53917e-07
6.66359e-07
6.79135e-07
6.92225e-07
7.05608e-07
7.1926e-07
7.33154e-07
7.4726e-07
7.61545e-07
7.75971e-07
7.90495e-07
8.0507e-07
8.19643e-07
8.34154e-07
8.48536e-07
8.62715e-07
8.7661e-07
8.90127e-07
9.03169e-07