/*--------------------------------*- C++ -*----------------------------------*\
  =========                 |
  \\      /  F ield         | OpenFOAM: The Open Source CFD Toolbox
   \\    /   O peration     | Website:  https://openfoam.org
    \\  /    A nd           | Version:  11
     \\/     M anipulation  |
\*---------------------------------------------------------------------------*/
FoamFile
{
    format      ascii;
    class       surfaceScalarField;
    location    "1444";
    object      phi;
}
// * * * * * * * * * * * * * * * * * * * * * * * * * * * * * * * * * * * * * //

dimensions      [0 3 -1 0 0 0 0];

internalField   nonuniform List<scalar> 
19800
(
2e-05
-1.70568e-14
2e-05
-4.96328e-14
2e-05
-8.17471e-14
2e-05
-1.14246e-13
2e-05
-1.47635e-13
2e-05
-1.82239e-13
2e-05
-2.18313e-13
2e-05
-2.56075e-13
2e-05
-2.95715e-13
2e-05
-3.37409e-13
2e-05
-3.81323e-13
2e-05
-4.27616e-13
2e-05
-4.76444e-13
2e-05
-5.27963e-13
2e-05
-5.82325e-13
2e-05
-6.39686e-13
2e-05
-7.00199e-13
2e-05
-7.64021e-13
2e-05
-8.31311e-13
2e-05
-9.02227e-13
2e-05
-9.76933e-13
2e-05
-1.05559e-12
2e-05
-1.13837e-12
2e-05
-1.22543e-12
2e-05
-1.31696e-12
2e-05
-1.41311e-12
2e-05
-1.51407e-12
2e-05
-1.62002e-12
2e-05
-1.73112e-12
2e-05
-1.84757e-12
2e-05
-1.96953e-12
2e-05
-2.09719e-12
2e-05
-2.23074e-12
2e-05
-2.37035e-12
2e-05
-2.51621e-12
2e-05
-2.6685e-12
2e-05
-2.82739e-12
2e-05
-2.99306e-12
2e-05
-3.1657e-12
2e-05
-3.34547e-12
2e-05
-3.53254e-12
2e-05
-3.72707e-12
2e-05
-3.92924e-12
2e-05
-4.13918e-12
2e-05
-4.35706e-12
2e-05
-4.58301e-12
2e-05
-4.81716e-12
2e-05
-5.05964e-12
2e-05
-5.31057e-12
2e-05
-5.57004e-12
2e-05
-5.83815e-12
2e-05
-6.11497e-12
2e-05
-6.40057e-12
2e-05
-6.695e-12
2e-05
-6.99827e-12
2e-05
-7.31042e-12
2e-05
-7.63142e-12
2e-05
-7.96124e-12
2e-05
-8.29983e-12
2e-05
-8.64711e-12
2e-05
-9.00296e-12
2e-05
-9.36726e-12
2e-05
-9.73982e-12
2e-05
-1.01204e-11
2e-05
-1.05089e-11
2e-05
-1.09049e-11
2e-05
-1.1308e-11
2e-05
-1.1718e-11
2e-05
-1.21345e-11
2e-05
-1.25568e-11
2e-05
-1.29845e-11
2e-05
-1.34169e-11
2e-05
-1.38534e-11
2e-05
-1.42933e-11
2e-05
-1.47356e-11
2e-05
-1.51794e-11
2e-05
-1.56237e-11
2e-05
-1.60674e-11
2e-05
-1.65091e-11
2e-05
-1.69475e-11
2e-05
-1.7381e-11
2e-05
-1.78079e-11
2e-05
-1.82263e-11
2e-05
-1.86341e-11
2e-05
-1.90291e-11
2e-05
-1.94089e-11
2e-05
-1.97707e-11
2e-05
-2.01117e-11
2e-05
-2.04289e-11
2e-05
-2.07192e-11
2e-05
-2.0979e-11
2e-05
-2.12033e-11
2e-05
-2.13862e-11
2e-05
-2.15227e-11
2e-05
-2.16118e-11
2e-05
-2.16562e-11
2e-05
-2.16594e-11
2e-05
-2.16206e-11
2e-05
-2.15521e-11
-2.15105e-11
2e-05
-1.52627e-14
2e-05
-4.58653e-14
2e-05
-7.67117e-14
2e-05
-1.08126e-13
2e-05
-1.40457e-13
2e-05
-1.73981e-13
2e-05
-2.08929e-13
2e-05
-2.45505e-13
2e-05
-2.83889e-13
2e-05
-3.24249e-13
2e-05
-3.66745e-13
2e-05
-4.11531e-13
2e-05
-4.58757e-13
2e-05
-5.08571e-13
2e-05
-5.61122e-13
2e-05
-6.16556e-13
2e-05
-6.75025e-13
2e-05
-7.36676e-13
2e-05
-8.01662e-13
2e-05
-8.70136e-13
2e-05
-9.42253e-13
2e-05
-1.01817e-12
2e-05
-1.09805e-12
2e-05
-1.18204e-12
2e-05
-1.27032e-12
2e-05
-1.36305e-12
2e-05
-1.4604e-12
2e-05
-1.56253e-12
2e-05
-1.66961e-12
2e-05
-1.78182e-12
2e-05
-1.89932e-12
2e-05
-2.02229e-12
2e-05
-2.1509e-12
2e-05
-2.28533e-12
2e-05
-2.42574e-12
2e-05
-2.57231e-12
2e-05
-2.72521e-12
2e-05
-2.88461e-12
2e-05
-3.05066e-12
2e-05
-3.22354e-12
2e-05
-3.40341e-12
2e-05
-3.59041e-12
2e-05
-3.78471e-12
2e-05
-3.98645e-12
2e-05
-4.19576e-12
2e-05
-4.41278e-12
2e-05
-4.63764e-12
2e-05
-4.87045e-12
2e-05
-5.11131e-12
2e-05
-5.36033e-12
2e-05
-5.61758e-12
2e-05
-5.88315e-12
2e-05
-6.15708e-12
2e-05
-6.43943e-12
2e-05
-6.73021e-12
2e-05
-7.02944e-12
2e-05
-7.33711e-12
2e-05
-7.65319e-12
2e-05
-7.97763e-12
2e-05
-8.31035e-12
2e-05
-8.65125e-12
2e-05
-9.00021e-12
2e-05
-9.35706e-12
2e-05
-9.72163e-12
2e-05
-1.00937e-11
2e-05
-1.0473e-11
2e-05
-1.08592e-11
2e-05
-1.12519e-11
2e-05
-1.16509e-11
2e-05
-1.20557e-11
2e-05
-1.24657e-11
2e-05
-1.28805e-11
2e-05
-1.32994e-11
2e-05
-1.37217e-11
2e-05
-1.41467e-11
2e-05
-1.45736e-11
2e-05
-1.50014e-11
2e-05
-1.54292e-11
2e-05
-1.58557e-11
2e-05
-1.62799e-11
2e-05
-1.67002e-11
2e-05
-1.71153e-11
2e-05
-1.75235e-11
2e-05
-1.79231e-11
2e-05
-1.8312e-11
2e-05
-1.86881e-11
2e-05
-1.90492e-11
2e-05
-1.93928e-11
2e-05
-1.97161e-11
2e-05
-2.00163e-11
2e-05
-2.02894e-11
2e-05
-2.05312e-11
2e-05
-2.07384e-11
2e-05
-2.09088e-11
2e-05
-2.10407e-11
2e-05
-2.11365e-11
2e-05
-2.11988e-11
2e-05
-2.12294e-11
2e-05
-2.12366e-11
-2.12581e-11
2e-05
-1.39139e-14
2e-05
-4.25261e-14
2e-05
-7.19193e-14
2e-05
-1.02133e-13
2e-05
-1.33347e-13
2e-05
-1.65764e-13
2e-05
-1.99576e-13
2e-05
-2.34964e-13
2e-05
-2.72096e-13
2e-05
-3.11129e-13
2e-05
-3.52217e-13
2e-05
-3.95505e-13
2e-05
-4.41139e-13
2e-05
-4.89259e-13
2e-05
-5.40009e-13
2e-05
-5.93531e-13
2e-05
-6.49966e-13
2e-05
-7.0946e-13
2e-05
-7.72156e-13
2e-05
-8.38202e-13
2e-05
-9.07746e-13
2e-05
-9.80939e-13
2e-05
-1.05793e-12
2e-05
-1.13888e-12
2e-05
-1.22394e-12
2e-05
-1.31326e-12
2e-05
-1.40701e-12
2e-05
-1.50535e-12
2e-05
-1.60843e-12
2e-05
-1.71643e-12
2e-05
-1.8295e-12
2e-05
-1.94781e-12
2e-05
-2.07151e-12
2e-05
-2.20079e-12
2e-05
-2.33579e-12
2e-05
-2.47668e-12
2e-05
-2.62362e-12
2e-05
-2.77677e-12
2e-05
-2.93628e-12
2e-05
-3.10232e-12
2e-05
-3.27503e-12
2e-05
-3.45455e-12
2e-05
-3.64103e-12
2e-05
-3.83461e-12
2e-05
-4.03541e-12
2e-05
-4.24356e-12
2e-05
-4.45918e-12
2e-05
-4.68238e-12
2e-05
-4.91325e-12
2e-05
-5.15188e-12
2e-05
-5.39835e-12
2e-05
-5.65273e-12
2e-05
-5.91507e-12
2e-05
-6.18541e-12
2e-05
-6.46378e-12
2e-05
-6.75018e-12
2e-05
-7.04461e-12
2e-05
-7.34704e-12
2e-05
-7.65742e-12
2e-05
-7.97568e-12
2e-05
-8.30172e-12
2e-05
-8.63545e-12
2e-05
-8.9767e-12
2e-05
-9.3253e-12
2e-05
-9.68107e-12
2e-05
-1.00438e-11
2e-05
-1.04131e-11
2e-05
-1.07888e-11
2e-05
-1.11705e-11
2e-05
-1.15578e-11
2e-05
-1.19503e-11
2e-05
-1.23475e-11
2e-05
-1.27488e-11
2e-05
-1.31537e-11
2e-05
-1.35616e-11
2e-05
-1.39716e-11
2e-05
-1.43829e-11
2e-05
-1.47948e-11
2e-05
-1.52062e-11
2e-05
-1.56161e-11
2e-05
-1.60234e-11
2e-05
-1.64266e-11
2e-05
-1.68245e-11
2e-05
-1.72156e-11
2e-05
-1.7598e-11
2e-05
-1.79702e-11
2e-05
-1.833e-11
2e-05
-1.86754e-11
2e-05
-1.90039e-11
2e-05
-1.93129e-11
2e-05
-1.95991e-11
2e-05
-1.98594e-11
2e-05
-2.00915e-11
2e-05
-2.02938e-11
2e-05
-2.04653e-11
2e-05
-2.06068e-11
2e-05
-2.07195e-11
2e-05
-2.08038e-11
2e-05
-2.08621e-11
-2.09077e-11
2e-05
-1.28186e-14
2e-05
-3.95892e-14
2e-05
-6.74624e-14
2e-05
-9.63772e-14
2e-05
-1.26402e-13
2e-05
-1.57666e-13
2e-05
-1.90315e-13
2e-05
-2.24502e-13
2e-05
-2.60378e-13
2e-05
-2.98087e-13
2e-05
-3.37771e-13
2e-05
-3.79571e-13
2e-05
-4.23622e-13
2e-05
-4.70062e-13
2e-05
-5.19026e-13
2e-05
-5.70649e-13
2e-05
-6.25068e-13
2e-05
-6.82422e-13
2e-05
-7.42847e-13
2e-05
-8.06485e-13
2e-05
-8.73478e-13
2e-05
-9.43969e-13
2e-05
-1.0181e-12
2e-05
-1.09602e-12
2e-05
-1.17789e-12
2e-05
-1.26383e-12
2e-05
-1.35402e-12
2e-05
-1.4486e-12
2e-05
-1.54772e-12
2e-05
-1.65154e-12
2e-05
-1.76021e-12
2e-05
-1.87389e-12
2e-05
-1.99274e-12
2e-05
-2.1169e-12
2e-05
-2.24653e-12
2e-05
-2.38179e-12
2e-05
-2.52283e-12
2e-05
-2.66979e-12
2e-05
-2.82282e-12
2e-05
-2.98207e-12
2e-05
-3.14768e-12
2e-05
-3.31979e-12
2e-05
-3.49853e-12
2e-05
-3.68402e-12
2e-05
-3.87639e-12
2e-05
-4.07575e-12
2e-05
-4.28222e-12
2e-05
-4.49589e-12
2e-05
-4.71685e-12
2e-05
-4.94519e-12
2e-05
-5.18098e-12
2e-05
-5.42428e-12
2e-05
-5.67514e-12
2e-05
-5.93359e-12
2e-05
-6.19966e-12
2e-05
-6.47336e-12
2e-05
-6.75468e-12
2e-05
-7.04358e-12
2e-05
-7.34003e-12
2e-05
-7.64397e-12
2e-05
-7.95531e-12
2e-05
-8.27394e-12
2e-05
-8.59974e-12
2e-05
-8.93255e-12
2e-05
-9.27218e-12
2e-05
-9.61844e-12
2e-05
-9.97108e-12
2e-05
-1.03298e-11
2e-05
-1.06944e-11
2e-05
-1.10644e-11
2e-05
-1.14395e-11
2e-05
-1.18193e-11
2e-05
-1.22033e-11
2e-05
-1.25909e-11
2e-05
-1.29817e-11
2e-05
-1.33749e-11
2e-05
-1.377e-11
2e-05
-1.41661e-11
2e-05
-1.45624e-11
2e-05
-1.49581e-11
2e-05
-1.53522e-11
2e-05
-1.57435e-11
2e-05
-1.6131e-11
2e-05
-1.65133e-11
2e-05
-1.68891e-11
2e-05
-1.72568e-11
2e-05
-1.76148e-11
2e-05
-1.79612e-11
2e-05
-1.82941e-11
2e-05
-1.86111e-11
2e-05
-1.89097e-11
2e-05
-1.91875e-11
2e-05
-1.94427e-11
2e-05
-1.96738e-11
2e-05
-1.98799e-11
2e-05
-2.00605e-11
2e-05
-2.02148e-11
2e-05
-2.03405e-11
2e-05
-2.04341e-11
-2.04841e-11
2e-05
-1.18937e-14
2e-05
-3.69728e-14
2e-05
-6.33401e-14
2e-05
-9.09103e-14
2e-05
-1.19692e-13
2e-05
-1.49756e-13
2e-05
-1.8121e-13
2e-05
-2.14177e-13
2e-05
-2.48785e-13
2e-05
-2.85166e-13
2e-05
-3.23451e-13
2e-05
-3.63768e-13
2e-05
-4.06248e-13
2e-05
-4.5102e-13
2e-05
-4.98212e-13
2e-05
-5.47955e-13
2e-05
-6.00377e-13
2e-05
-6.55611e-13
2e-05
-7.13788e-13
2e-05
-7.75043e-13
2e-05
-8.3951e-13
2e-05
-9.07326e-13
2e-05
-9.78629e-13
2e-05
-1.05356e-12
2e-05
-1.13226e-12
2e-05
-1.21486e-12
2e-05
-1.30152e-12
2e-05
-1.39238e-12
2e-05
-1.48758e-12
2e-05
-1.58727e-12
2e-05
-1.69159e-12
2e-05
-1.8007e-12
2e-05
-1.91473e-12
2e-05
-2.03384e-12
2e-05
-2.15817e-12
2e-05
-2.28785e-12
2e-05
-2.42305e-12
2e-05
-2.56389e-12
2e-05
-2.71051e-12
2e-05
-2.86306e-12
2e-05
-3.02165e-12
2e-05
-3.18643e-12
2e-05
-3.35751e-12
2e-05
-3.53501e-12
2e-05
-3.71904e-12
2e-05
-3.90972e-12
2e-05
-4.10714e-12
2e-05
-4.31139e-12
2e-05
-4.52257e-12
2e-05
-4.74074e-12
2e-05
-4.96598e-12
2e-05
-5.19833e-12
2e-05
-5.43784e-12
2e-05
-5.68455e-12
2e-05
-5.93848e-12
2e-05
-6.19963e-12
2e-05
-6.46799e-12
2e-05
-6.74354e-12
2e-05
-7.02624e-12
2e-05
-7.31603e-12
2e-05
-7.61284e-12
2e-05
-7.91658e-12
2e-05
-8.22711e-12
2e-05
-8.54432e-12
2e-05
-8.86804e-12
2e-05
-9.19807e-12
2e-05
-9.53422e-12
2e-05
-9.87625e-12
2e-05
-1.02239e-11
2e-05
-1.05768e-11
2e-05
-1.09348e-11
2e-05
-1.12973e-11
2e-05
-1.16641e-11
2e-05
-1.20347e-11
2e-05
-1.24086e-11
2e-05
-1.27852e-11
2e-05
-1.31641e-11
2e-05
-1.35445e-11
2e-05
-1.39259e-11
2e-05
-1.43074e-11
2e-05
-1.46883e-11
2e-05
-1.50677e-11
2e-05
-1.54446e-11
2e-05
-1.5818e-11
2e-05
-1.61867e-11
2e-05
-1.65496e-11
2e-05
-1.69051e-11
2e-05
-1.72518e-11
2e-05
-1.75881e-11
2e-05
-1.7912e-11
2e-05
-1.82217e-11
2e-05
-1.85151e-11
2e-05
-1.87906e-11
2e-05
-1.90467e-11
2e-05
-1.92821e-11
2e-05
-1.9495e-11
2e-05
-1.96827e-11
2e-05
-1.984e-11
2e-05
-1.99578e-11
-2.00139e-11
2e-05
-1.10896e-14
2e-05
-3.46128e-14
2e-05
-5.95236e-14
2e-05
-8.57433e-14
2e-05
-1.13251e-13
2e-05
-1.42084e-13
2e-05
-1.72314e-13
2e-05
-2.0404e-13
2e-05
-2.37369e-13
2e-05
-2.72417e-13
2e-05
-3.09301e-13
2e-05
-3.48142e-13
2e-05
-3.8906e-13
2e-05
-4.32177e-13
2e-05
-4.77614e-13
2e-05
-5.25494e-13
2e-05
-5.7594e-13
2e-05
-6.29077e-13
2e-05
-6.85032e-13
2e-05
-7.43931e-13
2e-05
-8.05902e-13
2e-05
-8.71075e-13
2e-05
-9.39583e-13
2e-05
-1.01156e-12
2e-05
-1.08713e-12
2e-05
-1.16644e-12
2e-05
-1.24961e-12
2e-05
-1.3368e-12
2e-05
-1.42813e-12
2e-05
-1.52374e-12
2e-05
-1.62377e-12
2e-05
-1.72836e-12
2e-05
-1.83764e-12
2e-05
-1.95176e-12
2e-05
-2.07085e-12
2e-05
-2.19505e-12
2e-05
-2.32448e-12
2e-05
-2.45928e-12
2e-05
-2.59958e-12
2e-05
-2.74551e-12
2e-05
-2.89718e-12
2e-05
-3.05473e-12
2e-05
-3.21825e-12
2e-05
-3.38787e-12
2e-05
-3.56369e-12
2e-05
-3.7458e-12
2e-05
-3.9343e-12
2e-05
-4.12928e-12
2e-05
-4.33081e-12
2e-05
-4.53896e-12
2e-05
-4.75379e-12
2e-05
-4.97536e-12
2e-05
-5.20369e-12
2e-05
-5.43883e-12
2e-05
-5.68079e-12
2e-05
-5.92958e-12
2e-05
-6.18518e-12
2e-05
-6.44758e-12
2e-05
-6.71673e-12
2e-05
-6.9926e-12
2e-05
-7.2751e-12
2e-05
-7.56416e-12
2e-05
-7.85968e-12
2e-05
-8.16152e-12
2e-05
-8.46955e-12
2e-05
-8.78362e-12
2e-05
-9.10353e-12
2e-05
-9.42908e-12
2e-05
-9.76005e-12
2e-05
-1.00962e-11
2e-05
-1.04372e-11
2e-05
-1.07828e-11
2e-05
-1.11326e-11
2e-05
-1.14863e-11
2e-05
-1.18435e-11
2e-05
-1.22038e-11
2e-05
-1.25667e-11
2e-05
-1.29316e-11
2e-05
-1.32981e-11
2e-05
-1.36655e-11
2e-05
-1.40333e-11
2e-05
-1.44006e-11
2e-05
-1.47668e-11
2e-05
-1.5131e-11
2e-05
-1.54923e-11
2e-05
-1.58498e-11
2e-05
-1.62022e-11
2e-05
-1.65484e-11
2e-05
-1.6887e-11
2e-05
-1.72166e-11
2e-05
-1.75355e-11
2e-05
-1.7842e-11
2e-05
-1.81347e-11
2e-05
-1.84117e-11
2e-05
-1.86711e-11
2e-05
-1.891e-11
2e-05
-1.91239e-11
2e-05
-1.93052e-11
2e-05
-1.9441e-11
-1.95113e-11
2e-05
-1.03725e-14
2e-05
-3.24603e-14
2e-05
-5.59784e-14
2e-05
-8.08671e-14
2e-05
-1.07096e-13
2e-05
-1.34679e-13
2e-05
-1.63667e-13
2e-05
-1.94136e-13
2e-05
-2.26174e-13
2e-05
-2.59884e-13
2e-05
-2.95368e-13
2e-05
-3.32738e-13
2e-05
-3.72103e-13
2e-05
-4.13578e-13
2e-05
-4.57276e-13
2e-05
-5.03313e-13
2e-05
-5.51806e-13
2e-05
-6.02872e-13
2e-05
-6.56632e-13
2e-05
-7.13206e-13
2e-05
-7.72715e-13
2e-05
-8.35282e-13
2e-05
-9.01032e-13
2e-05
-9.7009e-13
2e-05
-1.04258e-12
2e-05
-1.11864e-12
2e-05
-1.19838e-12
2e-05
-1.28195e-12
2e-05
-1.36946e-12
2e-05
-1.46106e-12
2e-05
-1.55686e-12
2e-05
-1.657e-12
2e-05
-1.76161e-12
2e-05
-1.87082e-12
2e-05
-1.98475e-12
2e-05
-2.10353e-12
2e-05
-2.22729e-12
2e-05
-2.35615e-12
2e-05
-2.49023e-12
2e-05
-2.62964e-12
2e-05
-2.77451e-12
2e-05
-2.92493e-12
2e-05
-3.08103e-12
2e-05
-3.2429e-12
2e-05
-3.41063e-12
2e-05
-3.58432e-12
2e-05
-3.76405e-12
2e-05
-3.9499e-12
2e-05
-4.14194e-12
2e-05
-4.34024e-12
2e-05
-4.54485e-12
2e-05
-4.75581e-12
2e-05
-4.97316e-12
2e-05
-5.19692e-12
2e-05
-5.42712e-12
2e-05
-5.66376e-12
2e-05
-5.90683e-12
2e-05
-6.1563e-12
2e-05
-6.41216e-12
2e-05
-6.67434e-12
2e-05
-6.94279e-12
2e-05
-7.21744e-12
2e-05
-7.49819e-12
2e-05
-7.78495e-12
2e-05
-8.07758e-12
2e-05
-8.37595e-12
2e-05
-8.67991e-12
2e-05
-8.98928e-12
2e-05
-9.30387e-12
2e-05
-9.62347e-12
2e-05
-9.94785e-12
2e-05
-1.02768e-11
2e-05
-1.06099e-11
2e-05
-1.09471e-11
2e-05
-1.12878e-11
2e-05
-1.16319e-11
2e-05
-1.1979e-11
2e-05
-1.23286e-11
2e-05
-1.26803e-11
2e-05
-1.30337e-11
2e-05
-1.33883e-11
2e-05
-1.37436e-11
2e-05
-1.40989e-11
2e-05
-1.44536e-11
2e-05
-1.48071e-11
2e-05
-1.51586e-11
2e-05
-1.55072e-11
2e-05
-1.5852e-11
2e-05
-1.61918e-11
2e-05
-1.65254e-11
2e-05
-1.68516e-11
2e-05
-1.71687e-11
2e-05
-1.74752e-11
2e-05
-1.77691e-11
2e-05
-1.80476e-11
2e-05
-1.83069e-11
2e-05
-1.85411e-11
2e-05
-1.87407e-11
2e-05
-1.88917e-11
-1.89778e-11
2e-05
-9.72116e-15
2e-05
-3.04778e-14
2e-05
-5.26714e-14
2e-05
-7.62639e-14
2e-05
-1.01225e-13
2e-05
-1.27556e-13
2e-05
-1.55294e-13
2e-05
-1.84497e-13
2e-05
-2.15239e-13
2e-05
-2.47607e-13
2e-05
-2.81693e-13
2e-05
-3.17597e-13
2e-05
-3.5542e-13
2e-05
-3.95266e-13
2e-05
-4.37243e-13
2e-05
-4.81458e-13
2e-05
-5.28021e-13
2e-05
-5.77045e-13
2e-05
-6.2864e-13
2e-05
-6.82922e-13
2e-05
-7.40005e-13
2e-05
-8.00006e-13
2e-05
-8.63041e-13
2e-05
-9.2923e-13
2e-05
-9.98692e-13
2e-05
-1.07155e-12
2e-05
-1.14792e-12
2e-05
-1.22792e-12
2e-05
-1.31168e-12
2e-05
-1.39933e-12
2e-05
-1.49097e-12
2e-05
-1.58674e-12
2e-05
-1.68675e-12
2e-05
-1.79113e-12
2e-05
-1.9e-12
2e-05
-2.01346e-12
2e-05
-2.13165e-12
2e-05
-2.25467e-12
2e-05
-2.38263e-12
2e-05
-2.51565e-12
2e-05
-2.65383e-12
2e-05
-2.79727e-12
2e-05
-2.94607e-12
2e-05
-3.10033e-12
2e-05
-3.26013e-12
2e-05
-3.42555e-12
2e-05
-3.59667e-12
2e-05
-3.77357e-12
2e-05
-3.95631e-12
2e-05
-4.14494e-12
2e-05
-4.33952e-12
2e-05
-4.54008e-12
2e-05
-4.74666e-12
2e-05
-4.95928e-12
2e-05
-5.17795e-12
2e-05
-5.40268e-12
2e-05
-5.63346e-12
2e-05
-5.87027e-12
2e-05
-6.11308e-12
2e-05
-6.36186e-12
2e-05
-6.61654e-12
2e-05
-6.87707e-12
2e-05
-7.14336e-12
2e-05
-7.41533e-12
2e-05
-7.69287e-12
2e-05
-7.97587e-12
2e-05
-8.2642e-12
2e-05
-8.55771e-12
2e-05
-8.85624e-12
2e-05
-9.15964e-12
2e-05
-9.4677e-12
2e-05
-9.78024e-12
2e-05
-1.0097e-11
2e-05
-1.04179e-11
2e-05
-1.07425e-11
2e-05
-1.10707e-11
2e-05
-1.14022e-11
2e-05
-1.17366e-11
2e-05
-1.20737e-11
2e-05
-1.24132e-11
2e-05
-1.27546e-11
2e-05
-1.30977e-11
2e-05
-1.3442e-11
2e-05
-1.3787e-11
2e-05
-1.41323e-11
2e-05
-1.44772e-11
2e-05
-1.48212e-11
2e-05
-1.51635e-11
2e-05
-1.55033e-11
2e-05
-1.58394e-11
2e-05
-1.61707e-11
2e-05
-1.64959e-11
2e-05
-1.6813e-11
2e-05
-1.71199e-11
2e-05
-1.74132e-11
2e-05
-1.76882e-11
2e-05
-1.7938e-11
2e-05
-1.81521e-11
2e-05
-1.83157e-11
-1.84129e-11
2e-05
-9.12158e-15
2e-05
-2.86372e-14
2e-05
-4.95737e-14
2e-05
-7.1913e-14
2e-05
-9.5629e-14
2e-05
-1.20719e-13
2e-05
-1.4721e-13
2e-05
-1.75146e-13
2e-05
-2.04592e-13
2e-05
-2.35619e-13
2e-05
-2.68312e-13
2e-05
-3.02758e-13
2e-05
-3.39049e-13
2e-05
-3.77282e-13
2e-05
-4.17557e-13
2e-05
-4.59972e-13
2e-05
-5.04633e-13
2e-05
-5.51642e-13
2e-05
-6.01106e-13
2e-05
-6.53131e-13
2e-05
-7.07828e-13
2e-05
-7.65304e-13
2e-05
-8.2567e-13
2e-05
-8.89039e-13
2e-05
-9.55523e-13
2e-05
-1.02523e-12
2e-05
-1.09829e-12
2e-05
-1.1748e-12
2e-05
-1.25488e-12
2e-05
-1.33864e-12
2e-05
-1.42621e-12
2e-05
-1.51768e-12
2e-05
-1.61319e-12
2e-05
-1.71283e-12
2e-05
-1.81673e-12
2e-05
-1.92498e-12
2e-05
-2.0377e-12
2e-05
-2.155e-12
2e-05
-2.27697e-12
2e-05
-2.40372e-12
2e-05
-2.53535e-12
2e-05
-2.67195e-12
2e-05
-2.8136e-12
2e-05
-2.9604e-12
2e-05
-3.11243e-12
2e-05
-3.26976e-12
2e-05
-3.43245e-12
2e-05
-3.60059e-12
2e-05
-3.77422e-12
2e-05
-3.95339e-12
2e-05
-4.13815e-12
2e-05
-4.32854e-12
2e-05
-4.52458e-12
2e-05
-4.72629e-12
2e-05
-4.93369e-12
2e-05
-5.14677e-12
2e-05
-5.36553e-12
2e-05
-5.58996e-12
2e-05
-5.82003e-12
2e-05
-6.0557e-12
2e-05
-6.29692e-12
2e-05
-6.54364e-12
2e-05
-6.79581e-12
2e-05
-7.05332e-12
2e-05
-7.31612e-12
2e-05
-7.58409e-12
2e-05
-7.85713e-12
2e-05
-8.13513e-12
2e-05
-8.41797e-12
2e-05
-8.7055e-12
2e-05
-8.9976e-12
2e-05
-9.29412e-12
2e-05
-9.59489e-12
2e-05
-9.89975e-12
2e-05
-1.02085e-11
2e-05
-1.05211e-11
2e-05
-1.08372e-11
2e-05
-1.11566e-11
2e-05
-1.14793e-11
2e-05
-1.18049e-11
2e-05
-1.21332e-11
2e-05
-1.24641e-11
2e-05
-1.27971e-11
2e-05
-1.31322e-11
2e-05
-1.34688e-11
2e-05
-1.38067e-11
2e-05
-1.41453e-11
2e-05
-1.44841e-11
2e-05
-1.48224e-11
2e-05
-1.51594e-11
2e-05
-1.54939e-11
2e-05
-1.58245e-11
2e-05
-1.61494e-11
2e-05
-1.64658e-11
2e-05
-1.67701e-11
2e-05
-1.70569e-11
2e-05
-1.73185e-11
2e-05
-1.75435e-11
2e-05
-1.77168e-11
-1.7821e-11
2e-05
-8.56448e-15
2e-05
-2.69174e-14
2e-05
-4.66611e-14
2e-05
-6.77944e-14
2e-05
-9.02971e-14
2e-05
-1.14166e-13
2e-05
-1.3942e-13
2e-05
-1.66098e-13
2e-05
-1.94253e-13
2e-05
-2.23947e-13
2e-05
-2.55254e-13
2e-05
-2.88253e-13
2e-05
-3.23027e-13
2e-05
-3.59664e-13
2e-05
-3.98257e-13
2e-05
-4.38897e-13
2e-05
-4.81681e-13
2e-05
-5.26707e-13
2e-05
-5.74074e-13
2e-05
-6.23882e-13
2e-05
-6.76233e-13
2e-05
-7.3123e-13
2e-05
-7.88977e-13
2e-05
-8.49579e-13
2e-05
-9.13141e-13
2e-05
-9.7977e-13
2e-05
-1.04957e-12
2e-05
-1.12266e-12
2e-05
-1.19913e-12
2e-05
-1.27909e-12
2e-05
-1.36266e-12
2e-05
-1.44994e-12
2e-05
-1.54102e-12
2e-05
-1.63603e-12
2e-05
-1.73506e-12
2e-05
-1.83821e-12
2e-05
-1.94559e-12
2e-05
-2.05728e-12
2e-05
-2.17339e-12
2e-05
-2.29401e-12
2e-05
-2.41923e-12
2e-05
-2.54914e-12
2e-05
-2.68381e-12
2e-05
-2.82332e-12
2e-05
-2.96775e-12
2e-05
-3.11717e-12
2e-05
-3.27164e-12
2e-05
-3.43121e-12
2e-05
-3.59594e-12
2e-05
-3.76588e-12
2e-05
-3.94106e-12
2e-05
-4.12151e-12
2e-05
-4.30726e-12
2e-05
-4.49833e-12
2e-05
-4.69472e-12
2e-05
-4.89644e-12
2e-05
-5.10348e-12
2e-05
-5.31583e-12
2e-05
-5.53346e-12
2e-05
-5.75634e-12
2e-05
-5.98444e-12
2e-05
-6.2177e-12
2e-05
-6.45608e-12
2e-05
-6.6995e-12
2e-05
-6.94791e-12
2e-05
-7.20122e-12
2e-05
-7.45936e-12
2e-05
-7.72223e-12
2e-05
-7.98974e-12
2e-05
-8.2618e-12
2e-05
-8.53831e-12
2e-05
-8.81915e-12
2e-05
-9.10424e-12
2e-05
-9.39347e-12
2e-05
-9.68672e-12
2e-05
-9.9839e-12
2e-05
-1.02849e-11
2e-05
-1.05896e-11
2e-05
-1.0898e-11
2e-05
-1.12098e-11
2e-05
-1.15251e-11
2e-05
-1.18436e-11
2e-05
-1.21654e-11
2e-05
-1.24901e-11
2e-05
-1.28177e-11
2e-05
-1.31478e-11
2e-05
-1.34803e-11
2e-05
-1.38146e-11
2e-05
-1.41502e-11
2e-05
-1.44864e-11
2e-05
-1.48221e-11
2e-05
-1.51559e-11
2e-05
-1.54857e-11
2e-05
-1.58087e-11
2e-05
-1.61208e-11
2e-05
-1.6416e-11
2e-05
-1.6686e-11
2e-05
-1.6919e-11
2e-05
-1.70994e-11
-1.7208e-11
2e-05
-8.04338e-15
2e-05
-2.53029e-14
2e-05
-4.39141e-14
2e-05
-6.38896e-14
2e-05
-8.52155e-14
2e-05
-1.07889e-13
2e-05
-1.31927e-13
2e-05
-1.57361e-13
2e-05
-1.84237e-13
2e-05
-2.1261e-13
2e-05
-2.42544e-13
2e-05
-2.74109e-13
2e-05
-3.07383e-13
2e-05
-3.42444e-13
2e-05
-3.79377e-13
2e-05
-4.18268e-13
2e-05
-4.59206e-13
2e-05
-5.02282e-13
2e-05
-5.47588e-13
2e-05
-5.95218e-13
2e-05
-6.45268e-13
2e-05
-6.97834e-13
2e-05
-7.53012e-13
2e-05
-8.10903e-13
2e-05
-8.71603e-13
2e-05
-9.35214e-13
2e-05
-1.00183e-12
2e-05
-1.07156e-12
2e-05
-1.1445e-12
2e-05
-1.22075e-12
2e-05
-1.30041e-12
2e-05
-1.38358e-12
2e-05
-1.47035e-12
2e-05
-1.56083e-12
2e-05
-1.6551e-12
2e-05
-1.75327e-12
2e-05
-1.85542e-12
2e-05
-1.96165e-12
2e-05
-2.07204e-12
2e-05
-2.18667e-12
2e-05
-2.30564e-12
2e-05
-2.42901e-12
2e-05
-2.55686e-12
2e-05
-2.68927e-12
2e-05
-2.82629e-12
2e-05
-2.96799e-12
2e-05
-3.11443e-12
2e-05
-3.26566e-12
2e-05
-3.42172e-12
2e-05
-3.58266e-12
2e-05
-3.7485e-12
2e-05
-3.91927e-12
2e-05
-4.095e-12
2e-05
-4.27571e-12
2e-05
-4.46138e-12
2e-05
-4.65204e-12
2e-05
-4.84767e-12
2e-05
-5.04826e-12
2e-05
-5.25378e-12
2e-05
-5.46422e-12
2e-05
-5.67955e-12
2e-05
-5.89971e-12
2e-05
-6.12467e-12
2e-05
-6.35438e-12
2e-05
-6.58879e-12
2e-05
-6.82783e-12
2e-05
-7.07146e-12
2e-05
-7.3196e-12
2e-05
-7.57219e-12
2e-05
-7.82916e-12
2e-05
-8.09047e-12
2e-05
-8.35604e-12
2e-05
-8.62582e-12
2e-05
-8.89977e-12
2e-05
-9.17782e-12
2e-05
-9.45996e-12
2e-05
-9.74614e-12
2e-05
-1.00363e-11
2e-05
-1.03306e-11
2e-05
-1.06288e-11
2e-05
-1.0931e-11
2e-05
-1.12372e-11
2e-05
-1.15475e-11
2e-05
-1.18616e-11
2e-05
-1.21797e-11
2e-05
-1.25016e-11
2e-05
-1.28271e-11
2e-05
-1.31559e-11
2e-05
-1.34877e-11
2e-05
-1.38216e-11
2e-05
-1.41567e-11
2e-05
-1.44915e-11
2e-05
-1.48238e-11
2e-05
-1.51507e-11
2e-05
-1.54675e-11
2e-05
-1.57682e-11
2e-05
-1.60439e-11
2e-05
-1.62824e-11
2e-05
-1.64675e-11
-1.65789e-11
2e-05
-7.55362e-15
2e-05
-2.37815e-14
2e-05
-4.13167e-14
2e-05
-6.01826e-14
2e-05
-8.03709e-14
2e-05
-1.01881e-13
2e-05
-1.24727e-13
2e-05
-1.48938e-13
2e-05
-1.74553e-13
2e-05
-2.01621e-13
2e-05
-2.30199e-13
2e-05
-2.6035e-13
2e-05
-2.92142e-13
2e-05
-3.2565e-13
2e-05
-3.60949e-13
2e-05
-3.98119e-13
2e-05
-4.37242e-13
2e-05
-4.78403e-13
2e-05
-5.21687e-13
2e-05
-5.67181e-13
2e-05
-6.14976e-13
2e-05
-6.6516e-13
2e-05
-7.17825e-13
2e-05
-7.73062e-13
2e-05
-8.30964e-13
2e-05
-8.91623e-13
2e-05
-9.55133e-13
2e-05
-1.02159e-12
2e-05
-1.09108e-12
2e-05
-1.1637e-12
2e-05
-1.23954e-12
2e-05
-1.3187e-12
2e-05
-1.40126e-12
2e-05
-1.48731e-12
2e-05
-1.57695e-12
2e-05
-1.67025e-12
2e-05
-1.76731e-12
2e-05
-1.86821e-12
2e-05
-1.97302e-12
2e-05
-2.08182e-12
2e-05
-2.1947e-12
2e-05
-2.31171e-12
2e-05
-2.43292e-12
2e-05
-2.55841e-12
2e-05
-2.68822e-12
2e-05
-2.82242e-12
2e-05
-2.96105e-12
2e-05
-3.10415e-12
2e-05
-3.25178e-12
2e-05
-3.40396e-12
2e-05
-3.56072e-12
2e-05
-3.72209e-12
2e-05
-3.88808e-12
2e-05
-4.0587e-12
2e-05
-4.23397e-12
2e-05
-4.41388e-12
2e-05
-4.59842e-12
2e-05
-4.78758e-12
2e-05
-4.98136e-12
2e-05
-5.17971e-12
2e-05
-5.38263e-12
2e-05
-5.59007e-12
2e-05
-5.80201e-12
2e-05
-6.0184e-12
2e-05
-6.23921e-12
2e-05
-6.4644e-12
2e-05
-6.69393e-12
2e-05
-6.92775e-12
2e-05
-7.16584e-12
2e-05
-7.40815e-12
2e-05
-7.65467e-12
2e-05
-7.90537e-12
2e-05
-8.16024e-12
2e-05
-8.41927e-12
2e-05
-8.68249e-12
2e-05
-8.9499e-12
2e-05
-9.22155e-12
2e-05
-9.4975e-12
2e-05
-9.77779e-12
2e-05
-1.00625e-11
2e-05
-1.03518e-11
2e-05
-1.06456e-11
2e-05
-1.09442e-11
2e-05
-1.12476e-11
2e-05
-1.15558e-11
2e-05
-1.18689e-11
2e-05
-1.21867e-11
2e-05
-1.25091e-11
2e-05
-1.28358e-11
2e-05
-1.3166e-11
2e-05
-1.34988e-11
2e-05
-1.38327e-11
2e-05
-1.41654e-11
2e-05
-1.44937e-11
2e-05
-1.48129e-11
2e-05
-1.51165e-11
2e-05
-1.53954e-11
2e-05
-1.56371e-11
2e-05
-1.58251e-11
-1.59383e-11
2e-05
-7.09171e-15
2e-05
-2.23439e-14
2e-05
-3.88558e-14
2e-05
-5.66594e-14
2e-05
-7.5751e-14
2e-05
-9.61317e-14
2e-05
-1.17816e-13
2e-05
-1.40829e-13
2e-05
-1.65205e-13
2e-05
-1.9099e-13
2e-05
-2.18232e-13
2e-05
-2.4699e-13
2e-05
-2.77325e-13
2e-05
-3.09305e-13
2e-05
-3.42997e-13
2e-05
-3.78477e-13
2e-05
-4.15819e-13
2e-05
-4.55102e-13
2e-05
-4.96404e-13
2e-05
-5.39808e-13
2e-05
-5.85395e-13
2e-05
-6.3325e-13
2e-05
-6.83457e-13
2e-05
-7.36102e-13
2e-05
-7.9127e-13
2e-05
-8.49048e-13
2e-05
-9.09523e-13
2e-05
-9.7278e-13
2e-05
-1.03891e-12
2e-05
-1.10799e-12
2e-05
-1.18011e-12
2e-05
-1.25536e-12
2e-05
-1.33382e-12
2e-05
-1.41556e-12
2e-05
-1.50069e-12
2e-05
-1.58926e-12
2e-05
-1.68136e-12
2e-05
-1.77707e-12
2e-05
-1.87645e-12
2e-05
-1.97959e-12
2e-05
-2.08653e-12
2e-05
-2.19736e-12
2e-05
-2.31212e-12
2e-05
-2.43088e-12
2e-05
-2.55369e-12
2e-05
-2.68059e-12
2e-05
-2.81163e-12
2e-05
-2.94686e-12
2e-05
-3.0863e-12
2e-05
-3.22998e-12
2e-05
-3.37793e-12
2e-05
-3.53017e-12
2e-05
-3.68671e-12
2e-05
-3.84756e-12
2e-05
-4.01273e-12
2e-05
-4.18222e-12
2e-05
-4.35601e-12
2e-05
-4.53411e-12
2e-05
-4.71649e-12
2e-05
-4.90313e-12
2e-05
-5.09402e-12
2e-05
-5.28914e-12
2e-05
-5.48846e-12
2e-05
-5.69194e-12
2e-05
-5.89958e-12
2e-05
-6.11134e-12
2e-05
-6.3272e-12
2e-05
-6.54714e-12
2e-05
-6.77116e-12
2e-05
-6.99924e-12
2e-05
-7.2314e-12
2e-05
-7.46764e-12
2e-05
-7.70801e-12
2e-05
-7.95253e-12
2e-05
-8.20127e-12
2e-05
-8.45431e-12
2e-05
-8.71173e-12
2e-05
-8.97367e-12
2e-05
-9.24026e-12
2e-05
-9.51164e-12
2e-05
-9.78799e-12
2e-05
-1.00695e-11
2e-05
-1.03563e-11
2e-05
-1.06487e-11
2e-05
-1.09467e-11
2e-05
-1.12504e-11
2e-05
-1.15599e-11
2e-05
-1.18751e-11
2e-05
-1.21956e-11
2e-05
-1.25208e-11
2e-05
-1.28498e-11
2e-05
-1.31811e-11
2e-05
-1.35122e-11
2e-05
-1.38398e-11
2e-05
-1.41592e-11
2e-05
-1.44635e-11
2e-05
-1.47435e-11
2e-05
-1.49867e-11
2e-05
-1.51761e-11
-1.52899e-11
2e-05
-6.65501e-15
2e-05
-2.09828e-14
2e-05
-3.65211e-14
2e-05
-5.33082e-14
2e-05
-7.13443e-14
2e-05
-9.06324e-14
2e-05
-1.11187e-13
2e-05
-1.3303e-13
2e-05
-1.56196e-13
2e-05
-1.80721e-13
2e-05
-2.06654e-13
2e-05
-2.34044e-13
2e-05
-2.62948e-13
2e-05
-2.93427e-13
2e-05
-3.25544e-13
2e-05
-3.59366e-13
2e-05
-3.94963e-13
2e-05
-4.32406e-13
2e-05
-4.7177e-13
2e-05
-5.13129e-13
2e-05
-5.56559e-13
2e-05
-6.02139e-13
2e-05
-6.49947e-13
2e-05
-7.00062e-13
2e-05
-7.52564e-13
2e-05
-8.07533e-13
2e-05
-8.65049e-13
2e-05
-9.25192e-13
2e-05
-9.88043e-13
2e-05
-1.05368e-12
2e-05
-1.12218e-12
2e-05
-1.19363e-12
2e-05
-1.26809e-12
2e-05
-1.34565e-12
2e-05
-1.42639e-12
2e-05
-1.51036e-12
2e-05
-1.59765e-12
2e-05
-1.68831e-12
2e-05
-1.78243e-12
2e-05
-1.88005e-12
2e-05
-1.98125e-12
2e-05
-2.08607e-12
2e-05
-2.19458e-12
2e-05
-2.30681e-12
2e-05
-2.42282e-12
2e-05
-2.54266e-12
2e-05
-2.66635e-12
2e-05
-2.79393e-12
2e-05
-2.92544e-12
2e-05
-3.06089e-12
2e-05
-3.2003e-12
2e-05
-3.3437e-12
2e-05
-3.4911e-12
2e-05
-3.64249e-12
2e-05
-3.79789e-12
2e-05
-3.95729e-12
2e-05
-4.12069e-12
2e-05
-4.28807e-12
2e-05
-4.45943e-12
2e-05
-4.63475e-12
2e-05
-4.81402e-12
2e-05
-4.99722e-12
2e-05
-5.18432e-12
2e-05
-5.37533e-12
2e-05
-5.57022e-12
2e-05
-5.76899e-12
2e-05
-5.97163e-12
2e-05
-6.17814e-12
2e-05
-6.38853e-12
2e-05
-6.60283e-12
2e-05
-6.82107e-12
2e-05
-7.0433e-12
2e-05
-7.26958e-12
2e-05
-7.49999e-12
2e-05
-7.73464e-12
2e-05
-7.97365e-12
2e-05
-8.21718e-12
2e-05
-8.4654e-12
2e-05
-8.7185e-12
2e-05
-8.97671e-12
2e-05
-9.24026e-12
2e-05
-9.50941e-12
2e-05
-9.78443e-12
2e-05
-1.00656e-11
2e-05
-1.0353e-11
2e-05
-1.0647e-11
2e-05
-1.09476e-11
2e-05
-1.12547e-11
2e-05
-1.15681e-11
2e-05
-1.18872e-11
2e-05
-1.22111e-11
2e-05
-1.25381e-11
2e-05
-1.28659e-11
2e-05
-1.31911e-11
2e-05
-1.35087e-11
2e-05
-1.38119e-11
2e-05
-1.40913e-11
2e-05
-1.43341e-11
2e-05
-1.45236e-11
-1.46374e-11
2e-05
-6.24142e-15
2e-05
-1.96923e-14
2e-05
-3.43037e-14
2e-05
-5.01187e-14
2e-05
-6.71406e-14
2e-05
-8.53739e-14
2e-05
-1.04833e-13
2e-05
-1.25539e-13
2e-05
-1.47523e-13
2e-05
-1.70819e-13
2e-05
-1.95469e-13
2e-05
-2.2152e-13
2e-05
-2.49023e-13
2e-05
-2.78032e-13
2e-05
-3.08605e-13
2e-05
-3.40805e-13
2e-05
-3.74695e-13
2e-05
-4.10341e-13
2e-05
-4.4781e-13
2e-05
-4.87172e-13
2e-05
-5.28497e-13
2e-05
-5.71858e-13
2e-05
-6.17327e-13
2e-05
-6.64978e-13
2e-05
-7.14883e-13
2e-05
-7.67117e-13
2e-05
-8.21754e-13
2e-05
-8.78868e-13
2e-05
-9.38532e-13
2e-05
-1.00082e-12
2e-05
-1.0658e-12
2e-05
-1.13356e-12
2e-05
-1.20414e-12
2e-05
-1.27764e-12
2e-05
-1.35411e-12
2e-05
-1.43362e-12
2e-05
-1.51624e-12
2e-05
-1.60202e-12
2e-05
-1.69102e-12
2e-05
-1.78331e-12
2e-05
-1.87893e-12
2e-05
-1.97794e-12
2e-05
-2.08038e-12
2e-05
-2.1863e-12
2e-05
-2.29574e-12
2e-05
-2.40873e-12
2e-05
-2.5253e-12
2e-05
-2.6455e-12
2e-05
-2.76933e-12
2e-05
-2.89682e-12
2e-05
-3.02799e-12
2e-05
-3.16285e-12
2e-05
-3.30141e-12
2e-05
-3.44366e-12
2e-05
-3.58962e-12
2e-05
-3.73929e-12
2e-05
-3.89264e-12
2e-05
-4.04969e-12
2e-05
-4.21041e-12
2e-05
-4.3748e-12
2e-05
-4.54285e-12
2e-05
-4.71454e-12
2e-05
-4.88987e-12
2e-05
-5.06883e-12
2e-05
-5.25142e-12
2e-05
-5.43765e-12
2e-05
-5.62752e-12
2e-05
-5.82105e-12
2e-05
-6.01829e-12
2e-05
-6.21926e-12
2e-05
-6.42403e-12
2e-05
-6.63269e-12
2e-05
-6.84531e-12
2e-05
-7.06204e-12
2e-05
-7.28299e-12
2e-05
-7.50836e-12
2e-05
-7.73832e-12
2e-05
-7.97311e-12
2e-05
-8.21298e-12
2e-05
-8.4582e-12
2e-05
-8.70908e-12
2e-05
-8.96593e-12
2e-05
-9.22907e-12
2e-05
-9.49884e-12
2e-05
-9.77551e-12
2e-05
-1.00593e-11
2e-05
-1.03504e-11
2e-05
-1.06488e-11
2e-05
-1.09543e-11
2e-05
-1.12662e-11
2e-05
-1.15837e-11
2e-05
-1.19052e-11
2e-05
-1.22283e-11
2e-05
-1.25494e-11
2e-05
-1.28636e-11
2e-05
-1.3164e-11
2e-05
-1.34412e-11
2e-05
-1.36824e-11
2e-05
-1.38709e-11
-1.3984e-11
2e-05
-5.84924e-15
2e-05
-1.84675e-14
2e-05
-3.21964e-14
2e-05
-4.70821e-14
2e-05
-6.31306e-14
2e-05
-8.03475e-14
2e-05
-9.87471e-14
2e-05
-1.1835e-13
2e-05
-1.39184e-13
2e-05
-1.61282e-13
2e-05
-1.84681e-13
2e-05
-2.09424e-13
2e-05
-2.35556e-13
2e-05
-2.63129e-13
2e-05
-2.92195e-13
2e-05
-3.2281e-13
2e-05
-3.55033e-13
2e-05
-3.88924e-13
2e-05
-4.24545e-13
2e-05
-4.6196e-13
2e-05
-5.01234e-13
2e-05
-5.42434e-13
2e-05
-5.85626e-13
2e-05
-6.30878e-13
2e-05
-6.78257e-13
2e-05
-7.27832e-13
2e-05
-7.79672e-13
2e-05
-8.33843e-13
2e-05
-8.90414e-13
2e-05
-9.49451e-13
2e-05
-1.01102e-12
2e-05
-1.07519e-12
2e-05
-1.14202e-12
2e-05
-1.21157e-12
2e-05
-1.28392e-12
2e-05
-1.3591e-12
2e-05
-1.43719e-12
2e-05
-1.51824e-12
2e-05
-1.6023e-12
2e-05
-1.68943e-12
2e-05
-1.77966e-12
2e-05
-1.87304e-12
2e-05
-1.96962e-12
2e-05
-2.06943e-12
2e-05
-2.17252e-12
2e-05
-2.2789e-12
2e-05
-2.3886e-12
2e-05
-2.50166e-12
2e-05
-2.61809e-12
2e-05
-2.7379e-12
2e-05
-2.86111e-12
2e-05
-2.98773e-12
2e-05
-3.11776e-12
2e-05
-3.25121e-12
2e-05
-3.38808e-12
2e-05
-3.52835e-12