/*--------------------------------*- C++ -*----------------------------------*\
  =========                 |
  \\      /  F ield         | OpenFOAM: The Open Source CFD Toolbox
   \\    /   O peration     | Website:  https://openfoam.org
    \\  /    A nd           | Version:  11
     \\/     M anipulation  |
\*---------------------------------------------------------------------------*/
FoamFile
{
    format      ascii;
    class       volScalarField;
    location    "38";
    object      omega;
}
// * * * * * * * * * * * * * * * * * * * * * * * * * * * * * * * * * * * * * //

dimensions      [0 0 -1 0 0 0 0];

internalField   nonuniform List<scalar> 
10000
(
0.961122
0.890192
0.825348
0.76591
0.711305
0.661062
0.614811
0.572273
0.533247
0.497586
0.465171
0.435894
0.409633
0.386242
0.365554
0.347377
0.331504
0.317722
0.305818
0.295584
0.286825
0.279359
0.273021
0.267662
0.263149
0.259364
0.2562
0.253564
0.251375
0.249563
0.24807
0.246842
0.245836
0.245013
0.244342
0.243796
0.243353
0.242993
0.242701
0.242464
0.242271
0.242115
0.241987
0.241883
0.241797
0.241726
0.241667
0.241617
0.241576
0.24154
0.241509
0.241483
0.24146
0.24144
0.241422
0.241405
0.241391
0.241378
0.241366
0.241355
0.241345
0.241336
0.241328
0.24132
0.241313
0.241306
0.2413
0.241294
0.241289
0.241284
0.241279
0.241274
0.24127
0.241266
0.241263
0.241259
0.241256
0.241253
0.24125
0.241247
0.241244
0.241241
0.241239
0.241236
0.241233
0.241231
0.241228
0.241226
0.241223
0.241221
0.241219
0.241216
0.241214
0.241212
0.24121
0.241208
0.241206
0.241205
0.241203
0.241203
0.961122
0.890197
0.825359
0.765927
0.711327
0.66109
0.614844
0.572312
0.533291
0.497634
0.465223
0.435948
0.409688
0.386297
0.365608
0.347429
0.331554
0.317769
0.305862
0.295625
0.286863
0.279394
0.273054
0.267693
0.263178
0.259389
0.256222
0.253582
0.251391
0.249578
0.248083
0.246854
0.245846
0.245022
0.244351
0.243804
0.243359
0.242999
0.242706
0.242469
0.242276
0.242119
0.241991
0.241886
0.2418
0.241729
0.24167
0.24162
0.241578
0.241542
0.241512
0.241485
0.241462
0.241442
0.241423
0.241407
0.241393
0.241379
0.241367
0.241357
0.241346
0.241337
0.241329
0.241321
0.241314
0.241307
0.241301
0.241295
0.241289
0.241284
0.24128
0.241275
0.241271
0.241267
0.241263
0.24126
0.241256
0.241253
0.24125
0.241247
0.241244
0.241242
0.241239
0.241236
0.241234
0.241231
0.241229
0.241226
0.241224
0.241221
0.241219
0.241216
0.241214
0.241212
0.24121
0.241208
0.241206
0.241205
0.241204
0.241203
0.961122
0.890204
0.825375
0.765954
0.711365
0.661138
0.614902
0.572379
0.533367
0.497717
0.465312
0.436041
0.409782
0.386391
0.3657
0.347517
0.331637
0.317847
0.305934
0.295691
0.286923
0.279449
0.273104
0.267739
0.263219
0.259425
0.256253
0.25361
0.251415
0.249599
0.248101
0.246869
0.24586
0.245034
0.244361
0.243813
0.243368
0.243006
0.242713
0.242475
0.242281
0.242124
0.241996
0.24189
0.241804
0.241733
0.241673
0.241623
0.241581
0.241545
0.241515
0.241488
0.241465
0.241444
0.241426
0.241409
0.241395
0.241381
0.241369
0.241358
0.241348
0.241339
0.24133
0.241322
0.241315
0.241308
0.241302
0.241296
0.241291
0.241286
0.241281
0.241276
0.241272
0.241268
0.241264
0.241261
0.241257
0.241254
0.241251
0.241248
0.241245
0.241242
0.24124
0.241237
0.241234
0.241232
0.241229
0.241227
0.241224
0.241222
0.241219
0.241217
0.241214
0.241212
0.24121
0.241208
0.241206
0.241205
0.241204
0.241203
0.961122
0.890211
0.825394
0.765986
0.711411
0.661199
0.614978
0.572469
0.533469
0.49783
0.465433
0.436166
0.40991
0.386518
0.365824
0.347637
0.331751
0.317954
0.306032
0.295781
0.287005
0.279524
0.273171
0.267799
0.263272
0.259472
0.256294
0.253645
0.251446
0.249625
0.248124
0.246889
0.245877
0.245049
0.244374
0.243824
0.243377
0.243014
0.24272
0.242481
0.242287
0.242129
0.242001
0.241895
0.241808
0.241737
0.241677
0.241627
0.241585
0.241549
0.241518
0.241491
0.241467
0.241447
0.241428
0.241412
0.241397
0.241384
0.241372
0.241361
0.24135
0.241341
0.241332
0.241324
0.241317
0.24131
0.241304
0.241298
0.241292
0.241287
0.241282
0.241278
0.241273
0.241269
0.241265
0.241262
0.241258
0.241255
0.241252
0.241249
0.241246
0.241243
0.24124
0.241238
0.241235
0.241232
0.24123
0.241227
0.241225
0.241222
0.24122
0.241217
0.241215
0.241213
0.24121
0.241208
0.241207
0.241205
0.241204
0.241203
0.961123
0.890218
0.825411
0.766019
0.711461
0.661268
0.615065
0.572575
0.533591
0.497965
0.465579
0.43632
0.410066
0.386675
0.365978
0.347785
0.331891
0.318085
0.306154
0.295892
0.287106
0.279615
0.273253
0.267872
0.263336
0.259529
0.256344
0.253688
0.251483
0.249658
0.248151
0.246913
0.245897
0.245066
0.244389
0.243837
0.243388
0.243024
0.242729
0.242489
0.242294
0.242135
0.242006
0.2419
0.241813
0.241741
0.241681
0.241631
0.241589
0.241552
0.241521
0.241494
0.241471
0.24145
0.241432
0.241415
0.2414
0.241387
0.241374
0.241363
0.241353
0.241343
0.241335
0.241327
0.241319
0.241312
0.241306
0.2413
0.241294
0.241289
0.241284
0.241279
0.241275
0.241271
0.241267
0.241263
0.24126
0.241256
0.241253
0.24125
0.241247
0.241244
0.241241
0.241239
0.241236
0.241233
0.241231
0.241228
0.241225
0.241223
0.24122
0.241218
0.241215
0.241213
0.241211
0.241209
0.241207
0.241206
0.241205
0.241204
0.961123
0.890223
0.825428
0.766051
0.711512
0.66134
0.615159
0.572689
0.533725
0.498116
0.465743
0.436493
0.410244
0.386854
0.366153
0.347954
0.332052
0.318236
0.306294
0.296021
0.287223
0.279721
0.273348
0.267956
0.263411
0.259594
0.2564
0.253738
0.251526
0.249694
0.248183
0.24694
0.24592
0.245086
0.244405
0.243851
0.243401
0.243035
0.242738
0.242497
0.242301
0.242142
0.242012
0.241906
0.241818
0.241746
0.241686
0.241635
0.241593
0.241556
0.241525
0.241498
0.241474
0.241453
0.241435
0.241418
0.241403
0.24139
0.241377
0.241366
0.241356
0.241346
0.241337
0.241329
0.241321
0.241314
0.241308
0.241302
0.241296
0.241291
0.241286
0.241281
0.241276
0.241272
0.241268
0.241265
0.241261
0.241258
0.241254
0.241251
0.241248
0.241245
0.241242
0.24124
0.241237
0.241234
0.241232
0.241229
0.241226
0.241224
0.241221
0.241219
0.241216
0.241214
0.241212
0.241209
0.241208
0.241206
0.241205
0.241204
0.961123
0.890228
0.825443
0.766081
0.711562
0.661411
0.615254
0.572809
0.533867
0.498277
0.465919
0.43668
0.410438
0.387049
0.366346
0.348141
0.33223
0.318403
0.306449
0.296164
0.287353
0.279838
0.273453
0.268049
0.263493
0.259666
0.256463
0.253792
0.251573
0.249735
0.248217
0.246969
0.245945
0.245107
0.244423
0.243867
0.243414
0.243046
0.242748
0.242505
0.242309
0.242149
0.242018
0.241911
0.241823
0.24175
0.24169
0.241639
0.241596
0.24156
0.241529
0.241501
0.241478
0.241457
0.241438
0.241421
0.241406
0.241393
0.24138
0.241369
0.241358
0.241349
0.24134
0.241331
0.241324
0.241317
0.24131
0.241304
0.241298
0.241292
0.241287
0.241283
0.241278
0.241274
0.24127
0.241266
0.241262
0.241259
0.241256
0.241252
0.241249
0.241246
0.241244
0.241241
0.241238
0.241235
0.241232
0.24123
0.241227
0.241224
0.241222
0.241219
0.241217
0.241214
0.241212
0.24121
0.241208
0.241207
0.241205
0.241205
0.961123
0.890233
0.825457
0.766109
0.711609
0.661481
0.615349
0.572928
0.534011
0.498442
0.466102
0.436875
0.410641
0.387254
0.36655
0.348339
0.33242
0.318582
0.306616
0.296317
0.287493
0.279964
0.273566
0.26815
0.263582
0.259744
0.256531
0.253851
0.251623
0.249778
0.248254
0.247
0.245972
0.24513
0.244442
0.243883
0.243427
0.243058
0.242758
0.242514
0.242316
0.242155
0.242024
0.241916
0.241828
0.241755
0.241694
0.241643
0.2416
0.241564
0.241532
0.241505
0.241481
0.24146
0.241441
0.241424
0.241409
0.241395
0.241383
0.241371
0.241361
0.241351
0.241342
0.241334
0.241326
0.241319
0.241312
0.241306
0.2413
0.241294
0.241289
0.241284
0.24128
0.241275
0.241271
0.241267
0.241264
0.24126
0.241257
0.241254
0.241251
0.241247
0.241245
0.241242
0.241239
0.241236
0.241233
0.241231
0.241228
0.241225
0.241223
0.24122
0.241217
0.241215
0.241213
0.241211
0.241209
0.241207
0.241206
0.241205
0.961124
0.890237
0.825469
0.766135
0.711653
0.661548
0.615441
0.573046
0.534154
0.498608
0.466287
0.437074
0.410849
0.387466
0.366761
0.348545
0.332618
0.318769
0.30679
0.296478
0.28764
0.280097
0.273685
0.268256
0.263675
0.259826
0.256602
0.253913
0.251676
0.249823
0.248293
0.247033
0.245999
0.245153
0.244462
0.243899
0.243441
0.243069
0.242768
0.242523
0.242323
0.242162
0.242029
0.241921
0.241833
0.241759
0.241698
0.241647
0.241604
0.241567
0.241535
0.241508
0.241484
0.241463
0.241444
0.241427
0.241412
0.241398
0.241385
0.241374
0.241363
0.241353
0.241344
0.241336
0.241328
0.241321
0.241314
0.241308
0.241302
0.241296
0.241291
0.241286
0.241281
0.241277
0.241273
0.241269
0.241265
0.241261
0.241258
0.241255
0.241252
0.241249
0.241246
0.241243
0.24124
0.241237
0.241234
0.241231
0.241229
0.241226
0.241223
0.241221
0.241218
0.241216
0.241213
0.241211
0.241209
0.241208
0.241207
0.241206
0.961124
0.89024
0.82548
0.766159
0.711695
0.661611
0.615529
0.57316
0.534293
0.498772
0.46647
0.437274
0.411058
0.38768
0.366975
0.348755
0.33282
0.318961
0.30697
0.296644
0.287792
0.280234
0.273808
0.268365
0.263772
0.259911
0.256676
0.253977
0.251731
0.24987
0.248333
0.247067
0.246028
0.245177
0.244482
0.243916
0.243455
0.243081
0.242777
0.242531
0.24233
0.242168
0.242035
0.241926
0.241837
0.241763
0.241702
0.24165
0.241607
0.24157
0.241538
0.241511
0.241487
0.241466
0.241447
0.24143
0.241414
0.241401
0.241388
0.241376
0.241366
0.241356
0.241346
0.241338
0.24133
0.241323
0.241316
0.241309
0.241303
0.241298
0.241292
0.241287
0.241283
0.241278
0.241274
0.24127
0.241266
0.241263
0.241259
0.241256
0.241253
0.241249
0.241246
0.241243
0.241241
0.241238
0.241235
0.241232
0.241229
0.241227
0.241224
0.241221
0.241219
0.241216
0.241214
0.241212
0.24121
0.241208
0.241207
0.241206
0.961124
0.890244
0.825491
0.766181
0.711734
0.661671
0.615613
0.57327
0.534429
0.498931
0.46665
0.43747
0.411266
0.387894
0.367189
0.348966
0.333024
0.319155
0.307151
0.296812
0.287946
0.280374
0.273934
0.268478
0.263871
0.259998
0.256752
0.254042
0.251787
0.249918
0.248373
0.247101
0.246056
0.245201
0.244502
0.243932
0.243469
0.243092
0.242787
0.242539
0.242337
0.242173
0.24204
0.24193
0.24184
0.241766
0.241705
0.241653
0.24161
0.241573
0.241541
0.241513
0.241489
0.241468
0.241449
0.241432
0.241417
0.241403
0.24139
0.241378
0.241367
0.241358
0.241348
0.24134
0.241332
0.241324
0.241317
0.241311
0.241305
0.241299
0.241294
0.241289
0.241284
0.241279
0.241275
0.241271
0.241267
0.241264
0.24126
0.241257
0.241253
0.24125
0.241247
0.241244
0.241241
0.241238
0.241236
0.241233
0.24123
0.241227
0.241224
0.241222
0.241219
0.241217
0.241214
0.241212
0.24121
0.241209
0.241207
0.241207
0.961124
0.890247
0.8255
0.766202
0.71177
0.661727
0.615692
0.573374
0.534559
0.499085
0.466825
0.437662
0.411469
0.388104
0.367402
0.349176
0.333227
0.319349
0.307334
0.296982
0.288101
0.280516
0.274061
0.268591
0.263972
0.260086
0.256829
0.254108
0.251844
0.249966
0.248414
0.247135
0.246085
0.245224
0.244522
0.243948
0.243482
0.243103
0.242796
0.242546
0.242343
0.242178
0.242044
0.241934
0.241844
0.241769
0.241707
0.241655
0.241612
0.241575
0.241543
0.241515
0.241491
0.24147
0.241451
0.241434
0.241418
0.241404
0.241392
0.24138
0.241369
0.241359
0.24135
0.241341
0.241333
0.241326
0.241319
0.241312
0.241306
0.2413
0.241295
0.24129
0.241285
0.24128
0.241276
0.241272
0.241268
0.241264
0.241261
0.241257
0.241254
0.241251
0.241248
0.241245
0.241242
0.241239
0.241236
0.241233
0.24123
0.241228
0.241225
0.241222
0.24122
0.241217
0.241215
0.241213
0.241211
0.241209
0.241208
0.241207
0.961125
0.89025
0.825509
0.766221
0.711804
0.66178
0.615767
0.573473
0.534682
0.499232
0.466994
0.437847
0.411667
0.38831
0.36761
0.349382
0.333428
0.31954
0.307515
0.29715
0.288256
0.280657
0.274188
0.268704
0.264072
0.260174
0.256905
0.254174
0.251901
0.250015
0.248455
0.24717
0.246113
0.245248
0.244541
0.243964
0.243495
0.243114
0.242804
0.242553
0.242349
0.242183
0.242048
0.241937
0.241846
0.241771
0.241709
0.241657
0.241614
0.241576
0.241544
0.241517
0.241492
0.241471
0.241452
0.241435
0.24142
0.241406
0.241393
0.241381
0.24137
0.24136
0.241351
0.241343
0.241334
0.241327
0.24132
0.241313
0.241307
0.241301
0.241296
0.241291
0.241286
0.241281
0.241277
0.241273
0.241269
0.241265
0.241262
0.241258
0.241255
0.241252
0.241248
0.241245
0.241242
0.241239
0.241237
0.241234
0.241231
0.241228
0.241225
0.241223
0.24122
0.241218
0.241215
0.241213
0.241211
0.241209
0.241208
0.241207
0.961125
0.890252
0.825518
0.766239
0.711836
0.661829
0.615837
0.573567
0.5348
0.499373
0.467155
0.438026
0.411859
0.388509
0.367812
0.349583
0.333624
0.319729
0.307693
0.297316
0.288409
0.280796
0.274314
0.268817
0.264172
0.260261
0.256981
0.25424
0.251957
0.250063
0.248495
0.247203
0.246141
0.245271
0.24456
0.24398
0.243507
0.243124
0.242812
0.242559
0.242354
0.242187
0.242051
0.241939
0.241848
0.241773
0.241711
0.241659
0.241615
0.241577
0.241545
0.241518
0.241493
0.241472
0.241453
0.241436
0.241421
0.241407
0.241394
0.241382
0.241371
0.241361
0.241352
0.241343
0.241335
0.241328
0.241321
0.241314
0.241308
0.241302
0.241297
0.241291
0.241286
0.241282
0.241277
0.241273
0.241269
0.241266
0.241262
0.241259
0.241255
0.241252
0.241249
0.241246
0.241243
0.24124
0.241237
0.241234
0.241231
0.241228
0.241226
0.241223
0.24122
0.241218
0.241216
0.241213
0.241211
0.24121
0.241209
0.241208
0.961125
0.890255
0.825526
0.766256
0.711866
0.661875
0.615903
0.573655
0.534911
0.499507
0.467309
0.438197
0.412042
0.388701
0.368008
0.349778
0.333815
0.319912
0.307867
0.297479
0.288559
0.280933
0.274438
0.268928
0.26427
0.260348
0.257057
0.254305
0.252013
0.25011
0.248535
0.247237
0.246169
0.245294
0.244578
0.243994
0.243519
0.243133
0.242819
0.242565
0.242358
0.24219
0.242053
0.241941
0.24185
0.241774
0.241712
0.241659
0.241615
0.241578
0.241546
0.241518
0.241494
0.241473
0.241454
0.241437
0.241421
0.241407
0.241395
0.241383
0.241372
0.241362
0.241353
0.241344
0.241336
0.241328
0.241321
0.241315
0.241308
0.241303
0.241297
0.241292
0.241287
0.241282
0.241278
0.241274
0.24127
0.241266
0.241262
0.241259
0.241255
0.241252
0.241249
0.241246
0.241243
0.24124
0.241237
0.241234
0.241231
0.241229
0.241226
0.241223
0.241221
0.241218
0.241216
0.241214
0.241212
0.24121
0.241209
0.241208
0.961125
0.890258
0.825533
0.766272
0.711893
0.661919
0.615965
0.573738
0.535016
0.499633
0.467455
0.43836
0.412218
0.388885
0.368196
0.349967
0.333999
0.32009
0.308035
0.297637
0.288706
0.281067
0.274559
0.269036
0.264366
0.260432
0.25713
0.254369
0.252067
0.250156
0.248574
0.247269
0.246196
0.245316
0.244596
0.244009
0.24353
0.243142
0.242826
0.24257
0.242362
0.242193
0.242055
0.241943
0.241851
0.241775
0.241712
0.24166
0.241615
0.241578
0.241546
0.241518
0.241494
0.241473
0.241454
0.241437
0.241422
0.241408
0.241395
0.241383
0.241372
0.241362
0.241353
0.241344
0.241336
0.241329
0.241322
0.241315
0.241309
0.241303
0.241297
0.241292
0.241287
0.241282
0.241278
0.241274
0.24127
0.241266
0.241262
0.241259
0.241256
0.241252
0.241249
0.241246
0.241243
0.24124
0.241237
0.241234
0.241231
0.241229
0.241226
0.241223
0.241221
0.241218
0.241216
0.241214
0.241212
0.24121
0.241209
0.241208
0.961126
0.89026
0.825541
0.766287
0.711919
0.661959
0.616023
0.573816
0.535115
0.499752
0.467594
0.438514
0.412385
0.389061
0.368376
0.350147
0.334177
0.320262
0.308199
0.29779
0.288848
0.281197
0.274677
0.269142
0.26446
0.260515
0.257202
0.254431
0.252121
0.250201
0.248612
0.2473
0.246222
0.245337
0.244613
0.244022
0.243541
0.24315
0.242832
0.242574
0.242365
0.242195
0.242057
0.241944
0.241851
0.241775
0.241712
0.241659
0.241615
0.241578
0.241546
0.241518
0.241494
0.241473
0.241454
0.241437
0.241421
0.241408
0.241395
0.241383
0.241372
0.241362
0.241353
0.241344
0.241336
0.241329
0.241322
0.241315
0.241309
0.241303
0.241297
0.241292
0.241287
0.241282
0.241278
0.241274
0.24127
0.241266
0.241262
0.241259
0.241255
0.241252
0.241249
0.241246
0.241243
0.24124
0.241237
0.241234
0.241231
0.241229
0.241226
0.241223
0.241221
0.241218
0.241216
0.241214
0.241212
0.24121
0.241209
0.241208
0.961126
0.890262
0.825547
0.766301
0.711944
0.661997
0.616078
0.573889
0.535208
0.499865
0.467724
0.43866
0.412544
0.389228
0.368548
0.35032
0.334347
0.320427
0.308356
0.297938
0.288985
0.281323
0.274791
0.269244
0.264551
0.260595
0.257272
0.254491
0.252172
0.250245
0.248649
0.247331
0.246247
0.245357
0.244629
0.244035
0.243551
0.243157
0.242838
0.242578
0.242368
0.242197
0.242057
0.241944
0.241851
0.241774
0.241711
0.241659
0.241614
0.241577
0.241545
0.241517
0.241493
0.241472
0.241453
0.241436
0.241421
0.241407
0.241394
0.241383
0.241372
0.241362
0.241353
0.241344
0.241336
0.241329
0.241321
0.241315
0.241309
0.241303
0.241297
0.241292
0.241287
0.241282
0.241278
0.241274
0.24127
0.241266
0.241262
0.241259
0.241255
0.241252
0.241249
0.241246
0.241243
0.24124
0.241237
0.241234
0.241231
0.241229
0.241226
0.241223
0.241221
0.241218
0.241216
0.241214
0.241212
0.24121
0.241209
0.241208
0.961126
0.890265
0.825554
0.766314
0.711966
0.662033
0.616129
0.573957
0.535295
0.49997
0.467847
0.438798
0.412694
0.389387
0.368711
0.350484
0.334509
0.320584
0.308506
0.298079
0.289117
0.281444
0.274901
0.269343
0.264639
0.260673
0.25734
0.25455
0.252222
0.250287
0.248684
0.24736
0.246271
0.245376
0.244644
0.244047
0.24356
0.243164
0.242843
0.242582
0.24237
0.242198
0.242058
0.241944
0.24185
0.241774
0.24171
0.241657
0.241613
0.241576
0.241544
0.241516
0.241492
0.241471
0.241452
0.241435
0.24142
0.241406
0.241394
0.241382
0.241371
0.241362
0.241352
0.241344
0.241336
0.241328
0.241321
0.241314
0.241308
0.241302
0.241297
0.241291
0.241287
0.241282
0.241277
0.241273
0.241269
0.241265
0.241262
0.241258
0.241255
0.241252
0.241249
0.241245
0.241242
0.24124
0.241237
0.241234
0.241231
0.241228
0.241226
0.241223
0.241221
0.241218
0.241216
0.241214
0.241212
0.24121
0.241209
0.241208
0.961126
0.890267
0.82556
0.766326
0.711988
0.662066
0.616176
0.574021
0.535376
0.500069
0.467963
0.438928
0.412835
0.389536
0.368866
0.35064
0.334664
0.320734
0.30865
0.298215
0.289243
0.28156
0.275007
0.269438
0.264724
0.260747
0.257405
0.254606
0.25227
0.250328
0.248718
0.247388
0.246294
0.245395
0.244659
0.244058
0.243568
0.24317
0.242847
0.242584
0.242371
0.242198
0.242058
0.241943
0.241849
0.241772
0.241709
0.241656
0.241612
0.241574
0.241542
0.241514
0.241491
0.241469
0.241451
0.241434
0.241419
0.241405
0.241393
0.241381
0.241371
0.241361
0.241352
0.241343
0.241335
0.241327
0.24132
0.241314
0.241308
0.241302
0.241296
0.241291
0.241286
0.241281
0.241277
0.241273
0.241269
0.241265
0.241261
0.241258
0.241254
0.241251
0.241248
0.241245
0.241242
0.241239
0.241236
0.241233
0.241231
0.241228
0.241225
0.241223
0.24122
0.241218
0.241216
0.241214
0.241212
0.24121
0.241209
0.241208
0.961127
0.890269
0.825565
0.766337
0.712008
0.662097
0.616221
0.574081
0.535452
0.500162
0.468071
0.43905
0.412969
0.389678
0.369012
0.350788
0.33481
0.320877
0.308787
0.298344
0.289363
0.281671
0.275108
0.269529
0.264805
0.260819
0.257468
0.25466
0.252317
0.250367
0.248751
0.247415
0.246315
0.245412
0.244673
0.244069
0.243576
0.243176
0.242851
0.242587
0.242373
0.242199
0.242057
0.241942
0.241848
0.241771
0.241707
0.241654
0.24161
0.241572
0.24154
0.241513
0.241489
0.241468
0.241449
0.241433
0.241418
0.241404
0.241392
0.24138
0.24137
0.24136
0.241351
0.241342
0.241334
0.241327
0.24132
0.241313
0.241307
0.241301
0.241295
0.24129
0.241285
0.241281
0.241276
0.241272
0.241268
0.241264
0.241261
0.241257
0.241254
0.241251
0.241247
0.241244
0.241241
0.241239
0.241236
0.241233
0.24123
0.241228
0.241225
0.241222
0.24122
0.241218
0.241215
0.241213
0.241211
0.24121
0.241209
0.241208
0.961127
0.890271
0.825571
0.766348
0.712026
0.662126
0.616262
0.574137
0.535524
0.500249
0.468172
0.439165
0.413094
0.389811
0.36915
0.350928
0.334949
0.321012
0.308917
0.298467
0.289478
0.281777
0.275204
0.269616
0.264883
0.260888
0.257528
0.254712
0.252361
0.250405
0.248782
0.247441
0.246336
0.245429
0.244686
0.244079
0.243584
0.243181
0.242854
0.242589
0.242374
0.242199
0.242057
0.241941
0.241847
0.241769
0.241705
0.241652
0.241608
0.24157
0.241538
0.241511
0.241487
0.241466
0.241447
0.241431
0.241416
0.241403
0.24139
0.241379
0.241368
0.241358
0.241349
0.241341
0.241333
0.241326
0.241319
0.241312
0.241306
0.2413
0.241295
0.241289
0.241284
0.24128
0.241275
0.241271
0.241267
0.241263
0.24126
0.241256
0.241253
0.24125
0.241247
0.241244
0.241241
0.241238
0.241235
0.241232
0.24123
0.241227
0.241225
0.241222
0.24122
0.241217
0.241215
0.241213
0.241211
0.24121
0.241209
0.241208
0.961127
0.890273
0.825576
0.766358
0.712044
0.662153
0.616301
0.574189
0.53559
0.50033
0.468267
0.439272
0.413211
0.389935
0.369279
0.351059
0.33508
0.32114
0.309039
0.298583
0.289587
0.281877
0.275296
0.269699
0.264957
0.260953
0.257585
0.254762
0.252403
0.25044
0.248812
0.247466
0.246356
0.245445
0.244698
0.244088
0.243591
0.243186
0.242857
0.242591
0.242374
0.242198
0.242056
0.24194
0.241845
0.241767
0.241703
0.24165
0.241605
0.241568
0.241536
0.241508
0.241485
0.241464
0.241446
0.241429
0.241414
0.241401
0.241389
0.241377
0.241367
0.241357
0.241348
0.24134
0.241332
0.241324
0.241317
0.241311
0.241305
0.241299
0.241293
0.241288
0.241283
0.241279
0.241274
0.24127
0.241266
0.241263
0.241259
0.241256
0.241252
0.241249
0.241246
0.241243
0.24124
0.241237
0.241235
0.241232
0.241229
0.241227
0.241224
0.241222
0.241219
0.241217
0.241215
0.241213
0.241211
0.241209
0.241208
0.241207
0.961128
0.890274
0.82558
0.766368
0.71206
0.662178
0.616337
0.574237
0.535652
0.500405
0.468356
0.439372
0.413321
0.390053
0.369401
0.351183
0.335203
0.32126
0.309155
0.298694
0.28969
0.281973
0.275383
0.269778
0.265027
0.261015
0.257639
0.254809
0.252444
0.250474
0.24884
0.247489
0.246375
0.24546
0.24471
0.244097
0.243597
0.24319
0.24286
0.242592
0.242374
0.242198
0.242055
0.241938
0.241843
0.241765
0.2417
0.241647
0.241603
0.241565
0.241533
0.241506
0.241482
0.241462
0.241443
0.241427
0.241412
0.241399
0.241387
0.241376
0.241365
0.241356
0.241347
0.241338
0.24133
0.241323
0.241316
0.24131
0.241304
0.241298
0.241292
0.241287
0.241282
0.241278
0.241273
0.241269
0.241265
0.241262
0.241258
0.241255
0.241251
0.241248
0.241245
0.241242
0.241239
0.241237
0.241234
0.241231
0.241229
0.241226
0.241223
0.241221
0.241219
0.241216
0.241214
0.241212
0.241211
0.241209
0.241208
0.241207
0.961128
0.890276
0.825585
0.766377
0.712075
0.662201
0.61637
0.574282
0.535709
0.500476
0.468438
0.439466
0.413423
0.390162
0.369515
0.351299
0.335318
0.321374
0.309265
0.298797
0.289787
0.282063
0.275466
0.269853
0.265094
0.261074
0.257691
0.254853
0.252482
0.250507
0.248867
0.247511
0.246393
0.245474
0.244721
0.244105
0.243603
0.243194
0.242862
0.242593
0.242374
0.242197
0.242053
0.241936
0.24184
0.241762
0.241698
0.241644
0.2416
0.241563
0.241531
0.241504
0.24148
0.241459
0.241441
0.241425
0.24141
0.241397
0.241385
0.241374
0.241363
0.241354
0.241345
0.241337
0.241329
0.241322
0.241315
0.241308
0.241302
0.241297
0.241291
0.241286
0.241281
0.241277
0.241272
0.241268
0.241264
0.241261
0.241257
0.241254
0.24125
0.241247
0.241244
0.241241
0.241238
0.241236
0.241233
0.24123
0.241228
0.241225
0.241223
0.24122
0.241218
0.241216
0.241214
0.241212
0.24121
0.241209
0.241208
0.241207
0.961128
0.890278
0.825589
0.766385
0.712089
0.662223
0.616401
0.574324
0.535763
0.500541
0.468515
0.439553
0.413519
0.390264
0.369621
0.351407
0.335427
0.32148
0.309368
0.298895
0.289879
0.282148
0.275544
0.269923
0.265157
0.26113
0.25774
0.254896
0.252518
0.250537
0.248893
0.247532
0.24641
0.245487
0.244731
0.244113
0.243608
0.243198
0.242864
0.242594
0.242374
0.242196
0.242051
0.241934
0.241838
0.24176
0.241695
0.241642
0.241597
0.24156
0.241528
0.241501
0.241477
0.241457
0.241439
0.241423
0.241408
0.241395
0.241383
0.241372
0.241362
0.241352
0.241343
0.241335
0.241327
0.24132
0.241313
0.241307
0.241301
0.241295
0.24129
0.241285
0.24128
0.241275
0.241271
0.241267
0.241263
0.241259
0.241256
0.241253
0.241249
0.241246
0.241243
0.24124
0.241238
0.241235
0.241232
0.24123
0.241227
0.241225
0.241222
0.24122
0.241217
0.241215
0.241213
0.241211
0.24121
0.241208
0.241207
0.241206
0.961128
0.890279
0.825593
0.766392
0.712102
0.662243
0.61643
0.574363
0.535812
0.500602
0.468586
0.439634
0.413608
0.39036
0.369721
0.351509
0.335528
0.32158
0.309464
0.298987
0.289966
0.282228
0.275617
0.26999
0.265217
0.261183
0.257786
0.254936
0.252552
0.250566
0.248917
0.247552
0.246426
0.2455
0.244741
0.24412
0.243613
0.243201
0.242866
0.242594
0.242374
0.242195
0.24205
0.241932
0.241836
0.241757
0.241692
0.241639
0.241594
0.241557
0.241525
0.241498
0.241475
0.241454
0.241436
0.24142
0.241406
0.241393
0.241381
0.24137
0.24136
0.24135
0.241342
0.241333
0.241326
0.241319
0.241312
0.241305
0.241299
0.241294
0.241288
0.241283
0.241279
0.241274
0.24127
0.241266
0.241262
0.241258
0.241255
0.241251
0.241248
0.241245
0.241242
0.241239
0.241237
0.241234
0.241231
0.241229
0.241226
0.241224
0.241221
0.241219
0.241217
0.241215
0.241213
0.241211
0.241209
0.241208
0.241207
0.241206
0.961129
0.890281
0.825596
0.766399
0.712114
0.662262
0.616457
0.574399
0.535858
0.500658
0.468653
0.439709
0.413691
0.390448
0.369813
0.351603
0.335623
0.321673
0.309554
0.299073
0.290046
0.282303
0.275686
0.270052
0.265273
0.261233
0.25783
0.254974
0.252585
0.250594
0.24894
0.247571
0.246441
0.245512
0.24475
0.244126
0.243618
0.243204
0.242867
0.242595
0.242373
0.242194
0.242048
0.24193
0.241833
0.241754
0.241689
0.241636
0.241591
0.241554
0.241522
0.241495
0.241472
0.241452
0.241434
0.241418
0.241404
0.241391
0.241379
0.241368
0.241358
0.241348
0.24134
0.241332
0.241324
0.241317
0.24131
0.241304
0.241298
0.241292
0.241287
0.241282
0.241277
0.241273
0.241269
0.241264
0.241261
0.241257
0.241254
0.24125
0.241247
0.241244
0.241241
0.241238
0.241236
0.241233
0.24123
0.241228
0.241225
0.241223
0.241221
0.241218
0.241216
0.241214
0.241212
0.24121
0.241209
0.241207
0.241206
0.241205
0.961129
0.890282
0.8256
0.766406
0.712125
0.662279
0.616482
0.574432
0.535901
0.50071
0.468714
0.439779
0.413768
0.390531
0.3699
0.351691
0.335711
0.32176
0.309638
0.299154
0.290122
0.282374
0.275751
0.270111
0.265326
0.26128
0.257871
0.255009
0.252615
0.250619
0.248961
0.247588
0.246455
0.245523
0.244758
0.244132
0.243622
0.243206
0.242869
0.242595
0.242372
0.242192
0.242046
0.241927
0.241831
0.241751
0.241687
0.241633
0.241588
0.241551
0.24152
0.241493
0.241469
0.241449
0.241431
0.241415
0.241401
0.241388
0.241377
0.241366
0.241356
0.241347
0.241338
0.24133
0.241322
0.241315
0.241309
0.241302
0.241296
0.241291
0.241286
0.241281
0.241276
0.241271
0.241267
0.241263
0.241259
0.241256
0.241252
0.241249
0.241246
0.241243
0.24124
0.241237
0.241235
0.241232
0.241229
0.241227
0.241225
0.241222
0.24122
0.241218
0.241216
0.241213
0.241212
0.24121
0.241208
0.241207
0.241206
0.241205
0.961129
0.890283
0.825603
0.766412
0.712136
0.662295
0.616504
0.574463
0.53594
0.500758
0.468771
0.439844
0.413839
0.390607
0.36998
0.351773
0.335794
0.321841
0.309717
0.299229
0.290193
0.28244
0.275812
0.270166
0.265375
0.261324
0.25791
0.255043
0.252644
0.250643
0.248981
0.247605
0.246468
0.245533
0.244766
0.244138
0.243626
0.243209
0.24287
0.242595
0.242372
0.242191
0.242044
0.241925
0.241828
0.241749
0.241684
0.24163
0.241586
0.241548
0.241517
0.24149
0.241467
0.241447
0.241429
0.241413
0.241399
0.241386
0.241374
0.241364
0.241354
0.241345
0.241336
0.241328
0.241321
0.241314
0.241307
0.241301
0.241295
0.241289
0.241284
0.241279
0.241274
0.24127
0.241266
0.241262
0.241258
0.241255
0.241251
0.241248
0.241245
0.241242
0.241239
0.241236
0.241234
0.241231
0.241229
0.241226
0.241224
0.241221
0.241219
0.241217
0.241215
0.241213
0.241211
0.241209
0.241208
0.241206
0.241205
0.241205
0.961129
0.890284
0.825606
0.766418
0.712145
0.66231
0.616526
0.574491
0.535977
0.500803
0.468823
0.439903
0.413905
0.390678
0.370054
0.351849
0.33587
0.321916
0.30979
0.299299
0.290259
0.282501
0.275868
0.270218
0.265421
0.261365
0.257946
0.255074
0.252671
0.250666
0.249
0.24762
0.24648
0.245543
0.244773
0.244143
0.243629
0.243211
0.242871
0.242595
0.242371
0.242189
0.242042
0.241923
0.241825
0.241746
0.241681
0.241627
0.241583
0.241545
0.241514
0.241487
0.241464
0.241444
0.241426
0.241411
0.241397
0.241384
0.241372
0.241362
0.241352
0.241343
0.241334
0.241326
0.241319
0.241312
0.241305
0.241299
0.241293
0.241288
0.241283
0.241278
0.241273
0.241269
0.241265
0.241261
0.241257
0.241253
0.24125
0.241247
0.241244
0.241241
0.241238
0.241235
0.241233
0.24123
0.241228
0.241225
0.241223
0.241221
0.241218
0.241216
0.241214
0.241212
0.24121
0.241209
0.241207
0.241206
0.241205
0.241204
0.961129
0.890285
0.825608
0.766423
0.712154
0.662323
0.616545
0.574518
0.53601
0.500844
0.468872
0.439959
0.413966
0.390744
0.370123
0.35192
0.335941
0.321986
0.309858
0.299364
0.29032
0.282558
0.275921
0.270266
0.265465
0.261403
0.257979
0.255103
0.252696
0.250687
0.249018
0.247634
0.246492
0.245552
0.24478
0.244148
0.243633
0.243213
0.242872
0.242595
0.24237
0.242188
0.24204
0.24192
0.241823
0.241743
0.241678
0.241625
0.24158
0.241543
0.241511
0.241485
0.241462
0.241442
0.241424
0.241408
0.241394
0.241382
0.24137
0.24136
0.24135
0.241341
0.241333
0.241325
0.241317
0.24131
0.241304
0.241298
0.241292
0.241286
0.241281
0.241276
0.241272
0.241267
0.241263
0.241259
0.241256
0.241252
0.241249
0.241246
0.241242
0.24124
0.241237
0.241234
0.241232
0.241229
0.241227
0.241224
0.241222
0.24122
0.241218
0.241215
0.241213
0.241212
0.24121
0.241208
0.241207
0.241205
0.241204
0.241204
0.96113
0.890286
0.825611
0.766428
0.712162
0.662336
0.616563
0.574542
0.536041
0.500882
0.468916
0.440009
0.414022
0.390804
0.370186
0.351985
0.336006
0.322051
0.309921
0.299424
0.290377
0.282612
0.27597
0.27031
0.265505
0.261439
0.258011
0.255131
0.252719
0.250707
0.249034
0.247648
0.246503
0.24556
0.244786
0.244153
0.243636
0.243215
0.242872
0.242594
0.242369
0.242186
0.242038
0.241918
0.241821
0.241741
0.241676
0.241622
0.241577
0.24154
0.241509
0.241482
0.241459
0.241439
0.241422
0.241406
0.241392
0.24138
0.241368
0.241358
0.241348
0.241339
0.241331
0.241323
0.241316
0.241309
0.241302
0.241296
0.24129
0.241285
0.24128
0.241275
0.24127
0.241266
0.241262
0.241258
0.241254
0.241251
0.241248
0.241244
0.241241
0.241238
0.241236
0.241233
0.241231
0.241228
0.241226
0.241223
0.241221
0.241219
0.241217
0.241215
0.241213
0.241211
0.241209
0.241207
0.241206