/*--------------------------------*- C++ -*----------------------------------*\
  =========                 |
  \\      /  F ield         | OpenFOAM: The Open Source CFD Toolbox
   \\    /   O peration     | Website:  https://openfoam.org
    \\  /    A nd           | Version:  11
     \\/     M anipulation  |
\*---------------------------------------------------------------------------*/
FoamFile
{
    format      ascii;
    class       volVectorField;
    location    "1606";
    object      U;
}
// * * * * * * * * * * * * * * * * * * * * * * * * * * * * * * * * * * * * * //

dimensions      [0 1 -1 0 0 0 0];

internalField   nonuniform List<vector> 
10000
(
(0.005 -5.71604e-13 0)
(0.005 -1.60881e-12 0)
(0.005 -2.61936e-12 0)
(0.005 -3.63616e-12 0)
(0.005 -4.67842e-12 0)
(0.005 -5.75999e-12 0)
(0.005 -6.89149e-12 0)
(0.005 -8.08175e-12 0)
(0.005 -9.33852e-12 0)
(0.005 -1.0669e-11 0)
(0.005 -1.20799e-11 0)
(0.005 -1.35779e-11 0)
(0.005 -1.51697e-11 0)
(0.005 -1.68618e-11 0)
(0.005 -1.86608e-11 0)
(0.005 -2.05737e-11 0)
(0.005 -2.26073e-11 0)
(0.005 -2.47688e-11 0)
(0.005 -2.70654e-11 0)
(0.005 -2.95048e-11 0)
(0.005 -3.20945e-11 0)
(0.005 -3.48427e-11 0)
(0.005 -3.77574e-11 0)
(0.005 -4.08472e-11 0)
(0.005 -4.41208e-11 0)
(0.005 -4.75871e-11 0)
(0.005 -5.12554e-11 0)
(0.005 -5.51351e-11 0)
(0.005 -5.92361e-11 0)
(0.005 -6.35683e-11 0)
(0.005 -6.81421e-11 0)
(0.005 -7.2968e-11 0)
(0.005 -7.80567e-11 0)
(0.005 -8.34195e-11 0)
(0.005 -8.90674e-11 0)
(0.005 -9.50121e-11 0)
(0.005 -1.01265e-10 0)
(0.005 -1.07839e-10 0)
(0.005 -1.14745e-10 0)
(0.005 -1.21997e-10 0)
(0.005 -1.29605e-10 0)
(0.005 -1.37584e-10 0)
(0.005 -1.45946e-10 0)
(0.005 -1.54703e-10 0)
(0.005 -1.63868e-10 0)
(0.005 -1.73455e-10 0)
(0.005 -1.83477e-10 0)
(0.005 -1.93945e-10 0)
(0.005 -2.04873e-10 0)
(0.005 -2.16274e-10 0)
(0.005 -2.28159e-10 0)
(0.005 -2.40542e-10 0)
(0.005 -2.53433e-10 0)
(0.005 -2.66845e-10 0)
(0.005 -2.80788e-10 0)
(0.005 -2.95273e-10 0)
(0.005 -3.1031e-10 0)
(0.005 -3.25908e-10 0)
(0.005 -3.42076e-10 0)
(0.005 -3.5882e-10 0)
(0.005 -3.76148e-10 0)
(0.005 -3.94065e-10 0)
(0.005 -4.12574e-10 0)
(0.005 -4.31679e-10 0)
(0.005 -4.51381e-10 0)
(0.005 -4.71678e-10 0)
(0.005 -4.92568e-10 0)
(0.005 -5.14046e-10 0)
(0.005 -5.36105e-10 0)
(0.005 -5.58734e-10 0)
(0.005 -5.81921e-10 0)
(0.005 -6.05649e-10 0)
(0.005 -6.29899e-10 0)
(0.005 -6.54645e-10 0)
(0.005 -6.7986e-10 0)
(0.005 -7.05511e-10 0)
(0.005 -7.31558e-10 0)
(0.005 -7.57957e-10 0)
(0.005 -7.84655e-10 0)
(0.005 -8.11594e-10 0)
(0.005 -8.38706e-10 0)
(0.005 -8.65914e-10 0)
(0.005 -8.9313e-10 0)
(0.005 -9.20255e-10 0)
(0.005 -9.47175e-10 0)
(0.005 -9.73765e-10 0)
(0.005 -9.99878e-10 0)
(0.005 -1.02535e-09 0)
(0.005 -1.05e-09 0)
(0.005 -1.07362e-09 0)
(0.005 -1.09598e-09 0)
(0.005 -1.1168e-09 0)
(0.005 -1.13581e-09 0)
(0.005 -1.15268e-09 0)
(0.005 -1.16708e-09 0)
(0.005 -1.17868e-09 0)
(0.005 -1.18723e-09 0)
(0.005 -1.19249e-09 0)
(0.005 -1.19375e-09 0)
(0.005 -1.19306e-09 0)
(0.005 -4.92489e-13 0)
(0.005 -1.45907e-12 0)
(0.005 -2.42399e-12 0)
(0.005 -3.39919e-12 0)
(0.005 -4.40029e-12 0)
(0.005 -5.43957e-12 0)
(0.005 -6.52681e-12 0)
(0.005 -7.67033e-12 0)
(0.005 -8.87753e-12 0)
(0.005 -1.01552e-11 0)
(0.005 -1.151e-11 0)
(0.005 -1.29482e-11 0)
(0.005 -1.44762e-11 0)
(0.005 -1.61003e-11 0)
(0.005 -1.7827e-11 0)
(0.005 -1.96628e-11 0)
(0.005 -2.16143e-11 0)
(0.005 -2.36884e-11 0)
(0.005 -2.58922e-11 0)
(0.005 -2.82329e-11 0)
(0.005 -3.07178e-11 0)
(0.005 -3.33548e-11 0)
(0.005 -3.61515e-11 0)
(0.005 -3.91163e-11 0)
(0.005 -4.22574e-11 0)
(0.005 -4.55836e-11 0)
(0.005 -4.91036e-11 0)
(0.005 -5.28266e-11 0)
(0.005 -5.6762e-11 0)
(0.005 -6.09194e-11 0)
(0.005 -6.53088e-11 0)
(0.005 -6.99402e-11 0)
(0.005 -7.48242e-11 0)
(0.005 -7.99713e-11 0)
(0.005 -8.53923e-11 0)
(0.005 -9.10985e-11 0)
(0.005 -9.71011e-11 0)
(0.005 -1.03412e-10 0)
(0.005 -1.10042e-10 0)
(0.005 -1.17004e-10 0)
(0.005 -1.24309e-10 0)
(0.005 -1.3197e-10 0)
(0.005 -1.39999e-10 0)
(0.005 -1.48409e-10 0)
(0.005 -1.57211e-10 0)
(0.005 -1.66419e-10 0)
(0.005 -1.76045e-10 0)
(0.005 -1.86101e-10 0)
(0.005 -1.966e-10 0)
(0.005 -2.07554e-10 0)
(0.005 -2.18975e-10 0)
(0.005 -2.30875e-10 0)
(0.005 -2.43265e-10 0)
(0.005 -2.56157e-10 0)
(0.005 -2.69562e-10 0)
(0.005 -2.8349e-10 0)
(0.005 -2.97952e-10 0)
(0.005 -3.12955e-10 0)
(0.005 -3.28509e-10 0)
(0.005 -3.44622e-10 0)
(0.005 -3.613e-10 0)
(0.005 -3.78549e-10 0)
(0.005 -3.96373e-10 0)
(0.005 -4.14777e-10 0)
(0.005 -4.33761e-10 0)
(0.005 -4.53327e-10 0)
(0.005 -4.73472e-10 0)
(0.005 -4.94193e-10 0)
(0.005 -5.15485e-10 0)
(0.005 -5.37339e-10 0)
(0.005 -5.59745e-10 0)
(0.005 -5.82688e-10 0)
(0.005 -6.06154e-10 0)
(0.005 -6.3012e-10 0)
(0.005 -6.54562e-10 0)
(0.005 -6.79452e-10 0)
(0.005 -7.04756e-10 0)
(0.005 -7.30435e-10 0)
(0.005 -7.56444e-10 0)
(0.005 -7.82731e-10 0)
(0.005 -8.09238e-10 0)
(0.005 -8.35896e-10 0)
(0.005 -8.6263e-10 0)
(0.005 -8.89351e-10 0)
(0.005 -9.15962e-10 0)
(0.005 -9.42349e-10 0)
(0.005 -9.68386e-10 0)
(0.005 -9.93929e-10 0)
(0.005 -1.01882e-09 0)
(0.005 -1.04286e-09 0)
(0.005 -1.06586e-09 0)
(0.005 -1.08758e-09 0)
(0.005 -1.10777e-09 0)
(0.005 -1.12614e-09 0)
(0.005 -1.14241e-09 0)
(0.005 -1.15626e-09 0)
(0.005 -1.16729e-09 0)
(0.005 -1.17514e-09 0)
(0.005 -1.18026e-09 0)
(0.005 -1.18358e-09 0)
(0.005 -4.29233e-13 0)
(0.005 -1.3205e-12 0)
(0.005 -2.23287e-12 0)
(0.005 -3.1641e-12 0)
(0.005 -4.12348e-12 0)
(0.005 -5.12072e-12 0)
(0.005 -6.16439e-12 0)
(0.005 -7.26208e-12 0)
(0.005 -8.42075e-12 0)
(0.005 -9.64692e-12 0)
(0.005 -1.09468e-11 0)
(0.005 -1.23266e-11 0)
(0.005 -1.37924e-11 0)
(0.005 -1.53502e-11 0)
(0.005 -1.70062e-11 0)
(0.005 -1.87668e-11 0)
(0.005 -2.06384e-11 0)
(0.005 -2.26274e-11 0)
(0.005 -2.47408e-11 0)
(0.005 -2.69854e-11 0)
(0.005 -2.93684e-11 0)
(0.005 -3.18971e-11 0)
(0.005 -3.45792e-11 0)
(0.005 -3.74224e-11 0)
(0.005 -4.04349e-11 0)
(0.005 -4.36248e-11 0)
(0.005 -4.70008e-11 0)
(0.005 -5.05717e-11 0)
(0.005 -5.43463e-11 0)
(0.005 -5.83342e-11 0)
(0.005 -6.25446e-11 0)
(0.005 -6.69876e-11 0)
(0.005 -7.16729e-11 0)
(0.005 -7.6611e-11 0)
(0.005 -8.18122e-11 0)
(0.005 -8.72872e-11 0)
(0.005 -9.3047e-11 0)
(0.005 -9.91027e-11 0)
(0.005 -1.05465e-10 0)
(0.005 -1.12147e-10 0)
(0.005 -1.19159e-10 0)
(0.005 -1.26512e-10 0)
(0.005 -1.3422e-10 0)
(0.005 -1.42293e-10 0)
(0.005 -1.50745e-10 0)
(0.005 -1.59586e-10 0)
(0.005 -1.68829e-10 0)
(0.005 -1.78487e-10 0)
(0.005 -1.88571e-10 0)
(0.005 -1.99093e-10 0)
(0.005 -2.10065e-10 0)
(0.005 -2.21499e-10 0)
(0.005 -2.33405e-10 0)
(0.005 -2.45796e-10 0)
(0.005 -2.58681e-10 0)
(0.005 -2.72071e-10 0)
(0.005 -2.85977e-10 0)
(0.005 -3.00406e-10 0)
(0.005 -3.15369e-10 0)
(0.005 -3.30872e-10 0)
(0.005 -3.46923e-10 0)
(0.005 -3.63528e-10 0)
(0.005 -3.80692e-10 0)
(0.005 -3.98419e-10 0)
(0.005 -4.16713e-10 0)
(0.005 -4.35573e-10 0)
(0.005 -4.55e-10 0)
(0.005 -4.74992e-10 0)
(0.005 -4.95545e-10 0)
(0.005 -5.16652e-10 0)
(0.005 -5.38305e-10 0)
(0.005 -5.60494e-10 0)
(0.005 -5.83204e-10 0)
(0.005 -6.06419e-10 0)
(0.005 -6.30117e-10 0)
(0.005 -6.54275e-10 0)
(0.005 -6.78863e-10 0)
(0.005 -7.03849e-10 0)
(0.005 -7.29193e-10 0)
(0.005 -7.54852e-10 0)
(0.005 -7.80775e-10 0)
(0.005 -8.06903e-10 0)
(0.005 -8.3317e-10 0)
(0.005 -8.595e-10 0)
(0.005 -8.85807e-10 0)
(0.005 -9.11994e-10 0)
(0.005 -9.3795e-10 0)
(0.005 -9.63548e-10 0)
(0.005 -9.88646e-10 0)
(0.005 -1.01308e-09 0)
(0.005 -1.03668e-09 0)
(0.005 -1.05922e-09 0)
(0.005 -1.08049e-09 0)
(0.005 -1.10022e-09 0)
(0.005 -1.11815e-09 0)
(0.005 -1.13396e-09 0)
(0.005 -1.14732e-09 0)
(0.005 -1.15799e-09 0)
(0.005 -1.16596e-09 0)
(0.005 -1.17169e-09 0)
(0.005 -3.86008e-13 0)
(0.005 -1.20951e-12 0)
(0.005 -2.06904e-12 0)
(0.005 -2.95586e-12 0)
(0.005 -3.87448e-12 0)
(0.005 -4.83186e-12 0)
(0.005 -5.835e-12 0)
(0.005 -6.89057e-12 0)
(0.005 -8.00491e-12 0)
(0.005 -9.18413e-12 0)
(0.005 -1.04342e-11 0)
(0.005 -1.17609e-11 0)
(0.005 -1.31701e-11 0)
(0.005 -1.46678e-11 0)
(0.005 -1.62597e-11 0)
(0.005 -1.79521e-11 0)
(0.005 -1.9751e-11 0)
(0.005 -2.16628e-11 0)
(0.005 -2.36941e-11 0)
(0.005 -2.58514e-11 0)
(0.005 -2.81418e-11 0)
(0.005 -3.05723e-11 0)
(0.005 -3.31501e-11 0)
(0.005 -3.5883e-11 0)
(0.005 -3.87785e-11 0)
(0.005 -4.18447e-11 0)
(0.005 -4.50898e-11 0)
(0.005 -4.85224e-11 0)
(0.005 -5.2151e-11 0)
(0.005 -5.59847e-11 0)
(0.005 -6.00326e-11 0)
(0.005 -6.43041e-11 0)
(0.005 -6.8809e-11 0)
(0.005 -7.3557e-11 0)
(0.005 -7.85584e-11 0)
(0.005 -8.38233e-11 0)
(0.005 -8.93624e-11 0)
(0.005 -9.51863e-11 0)
(0.005 -1.01306e-10 0)
(0.005 -1.07733e-10 0)
(0.005 -1.14477e-10 0)
(0.005 -1.21552e-10 0)
(0.005 -1.28967e-10 0)
(0.005 -1.36734e-10 0)
(0.005 -1.44866e-10 0)
(0.005 -1.53374e-10 0)
(0.005 -1.6227e-10 0)
(0.005 -1.71566e-10 0)
(0.005 -1.81272e-10 0)
(0.005 -1.91402e-10 0)
(0.005 -2.01965e-10 0)
(0.005 -2.12975e-10 0)
(0.005 -2.24442e-10 0)
(0.005 -2.36376e-10 0)
(0.005 -2.48789e-10 0)
(0.005 -2.6169e-10 0)
(0.005 -2.7509e-10 0)
(0.005 -2.88998e-10 0)
(0.005 -3.03422e-10 0)
(0.005 -3.18371e-10 0)
(0.005 -3.33851e-10 0)
(0.005 -3.4987e-10 0)
(0.005 -3.66434e-10 0)
(0.005 -3.83546e-10 0)
(0.005 -4.0121e-10 0)
(0.005 -4.19429e-10 0)
(0.005 -4.38202e-10 0)
(0.005 -4.5753e-10 0)
(0.005 -4.7741e-10 0)
(0.005 -4.97837e-10 0)
(0.005 -5.18806e-10 0)
(0.005 -5.40307e-10 0)
(0.005 -5.62329e-10 0)
(0.005 -5.84858e-10 0)
(0.005 -6.07877e-10 0)
(0.005 -6.31366e-10 0)
(0.005 -6.553e-10 0)
(0.005 -6.79651e-10 0)
(0.005 -7.04387e-10 0)
(0.005 -7.2947e-10 0)
(0.005 -7.54855e-10 0)
(0.005 -7.80492e-10 0)
(0.005 -8.06325e-10 0)
(0.005 -8.32287e-10 0)
(0.005 -8.58305e-10 0)
(0.005 -8.84292e-10 0)
(0.005 -9.10152e-10 0)
(0.005 -9.35774e-10 0)
(0.005 -9.61032e-10 0)
(0.005 -9.85782e-10 0)
(0.005 -1.00986e-09 0)
(0.005 -1.03308e-09 0)
(0.005 -1.05523e-09 0)
(0.005 -1.07607e-09 0)
(0.005 -1.09533e-09 0)
(0.005 -1.11269e-09 0)
(0.005 -1.12781e-09 0)
(0.005 -1.14034e-09 0)
(0.005 -1.14991e-09 0)
(0.005 -1.15669e-09 0)
(0.005 -3.51489e-13 0)
(0.005 -1.11283e-12 0)
(0.005 -1.91895e-12 0)
(0.005 -2.7591e-12 0)
(0.005 -3.63487e-12 0)
(0.005 -4.55095e-12 0)
(0.005 -5.51274e-12 0)
(0.005 -6.52584e-12 0)
(0.005 -7.59588e-12 0)
(0.005 -8.72846e-12 0)
(0.005 -9.92913e-12 0)
(0.005 -1.12034e-11 0)
(0.005 -1.25569e-11 0)
(0.005 -1.39952e-11 0)
(0.005 -1.5524e-11 0)
(0.005 -1.71491e-11 0)
(0.005 -1.88765e-11 0)
(0.005 -2.07122e-11 0)
(0.005 -2.26626e-11 0)
(0.005 -2.4734e-11 0)
(0.005 -2.69331e-11 0)
(0.005 -2.92668e-11 0)
(0.005 -3.1742e-11 0)
(0.005 -3.4366e-11 0)
(0.005 -3.71463e-11 0)
(0.005 -4.00905e-11 0)
(0.005 -4.32067e-11 0)
(0.005 -4.6503e-11 0)
(0.005 -4.99876e-11 0)
(0.005 -5.36694e-11 0)
(0.005 -5.7557e-11 0)
(0.005 -6.16596e-11 0)
(0.005 -6.59865e-11 0)
(0.005 -7.05472e-11 0)
(0.005 -7.53515e-11 0)
(0.005 -8.04093e-11 0)
(0.005 -8.57308e-11 0)
(0.005 -9.13262e-11 0)
(0.005 -9.72063e-11 0)
(0.005 -1.03382e-10 0)
(0.005 -1.09863e-10 0)
(0.005 -1.16661e-10 0)
(0.005 -1.23788e-10 0)
(0.005 -1.31255e-10 0)
(0.005 -1.39072e-10 0)
(0.005 -1.47251e-10 0)
(0.005 -1.55804e-10 0)
(0.005 -1.64742e-10 0)
(0.005 -1.74076e-10 0)
(0.005 -1.83818e-10 0)
(0.005 -1.93979e-10 0)
(0.005 -2.04571e-10 0)
(0.005 -2.15603e-10 0)
(0.005 -2.27087e-10 0)
(0.005 -2.39034e-10 0)
(0.005 -2.51453e-10 0)
(0.005 -2.64354e-10 0)
(0.005 -2.77747e-10 0)
(0.005 -2.9164e-10 0)
(0.005 -3.06041e-10 0)
(0.005 -3.20959e-10 0)
(0.005 -3.364e-10 0)
(0.005 -3.52371e-10 0)
(0.005 -3.68875e-10 0)
(0.005 -3.85919e-10 0)
(0.005 -4.03503e-10 0)
(0.005 -4.21632e-10 0)
(0.005 -4.40304e-10 0)
(0.005 -4.59519e-10 0)
(0.005 -4.79274e-10 0)
(0.005 -4.99565e-10 0)
(0.005 -5.20386e-10 0)
(0.005 -5.41727e-10 0)
(0.005 -5.63577e-10 0)
(0.005 -5.85924e-10 0)
(0.005 -6.0875e-10 0)
(0.005 -6.32035e-10 0)
(0.005 -6.55756e-10 0)
(0.005 -6.79886e-10 0)
(0.005 -7.04392e-10 0)
(0.005 -7.29239e-10 0)
(0.005 -7.54382e-10 0)
(0.005 -7.79775e-10 0)
(0.005 -8.0536e-10 0)
(0.005 -8.31074e-10 0)
(0.005 -8.56843e-10 0)
(0.005 -8.82582e-10 0)
(0.005 -9.08194e-10 0)
(0.005 -9.33568e-10 0)
(0.005 -9.58575e-10 0)
(0.005 -9.83067e-10 0)
(0.005 -1.00687e-09 0)
(0.005 -1.02978e-09 0)
(0.005 -1.05158e-09 0)
(0.005 -1.07197e-09 0)
(0.005 -1.09064e-09 0)
(0.005 -1.10718e-09 0)
(0.005 -1.12112e-09 0)
(0.005 -1.13186e-09 0)
(0.005 -1.13864e-09 0)
(0.005 -3.21565e-13 0)
(0.005 -1.02571e-12 0)
(0.005 -1.77946e-12 0)
(0.005 -2.57195e-12 0)
(0.005 -3.40327e-12 0)
(0.005 -4.27649e-12 0)
(0.005 -5.19567e-12 0)
(0.005 -6.1654e-12 0)
(0.005 -7.19056e-12 0)
(0.005 -8.27617e-12 0)
(0.005 -9.42733e-12 0)
(0.005 -1.06492e-11 0)
(0.005 -1.19471e-11 0)
(0.005 -1.33263e-11 0)
(0.005 -1.47922e-11 0)
(0.005 -1.63504e-11 0)
(0.005 -1.80067e-11 0)
(0.005 -1.97668e-11 0)
(0.005 -2.16368e-11 0)
(0.005 -2.36229e-11 0)
(0.005 -2.57313e-11 0)
(0.005 -2.79688e-11 0)
(0.005 -3.0342e-11 0)
(0.005 -3.2858e-11 0)
(0.005 -3.55238e-11 0)
(0.005 -3.8347e-11 0)
(0.005 -4.13351e-11 0)
(0.005 -4.44959e-11 0)
(0.005 -4.78376e-11 0)
(0.005 -5.13684e-11 0)
(0.005 -5.50968e-11 0)
(0.005 -5.90317e-11 0)
(0.005 -6.31818e-11 0)
(0.005 -6.75564e-11 0)
(0.005 -7.2165e-11 0)
(0.005 -7.7017e-11 0)
(0.005 -8.21222e-11 0)
(0.005 -8.74908e-11 0)
(0.005 -9.31327e-11 0)
(0.005 -9.90583e-11 0)
(0.005 -1.05278e-10 0)
(0.005 -1.11803e-10 0)
(0.005 -1.18643e-10 0)
(0.005 -1.2581e-10 0)
(0.005 -1.33314e-10 0)
(0.005 -1.41167e-10 0)
(0.005 -1.49379e-10 0)
(0.005 -1.57962e-10 0)
(0.005 -1.66927e-10 0)
(0.005 -1.76284e-10 0)
(0.005 -1.86045e-10 0)
(0.005 -1.96221e-10 0)
(0.005 -2.06822e-10 0)
(0.005 -2.17859e-10 0)
(0.005 -2.29343e-10 0)
(0.005 -2.41282e-10 0)
(0.005 -2.53688e-10 0)
(0.005 -2.66569e-10 0)
(0.005 -2.79934e-10 0)
(0.005 -2.93792e-10 0)
(0.005 -3.08151e-10 0)
(0.005 -3.23017e-10 0)
(0.005 -3.38398e-10 0)
(0.005 -3.54299e-10 0)
(0.005 -3.70725e-10 0)
(0.005 -3.8768e-10 0)
(0.005 -4.05166e-10 0)
(0.005 -4.23186e-10 0)
(0.005 -4.4174e-10 0)
(0.005 -4.60826e-10 0)
(0.005 -4.80443e-10 0)
(0.005 -5.00586e-10 0)
(0.005 -5.21248e-10 0)
(0.005 -5.42422e-10 0)
(0.005 -5.64098e-10 0)
(0.005 -5.86261e-10 0)
(0.005 -6.08897e-10 0)
(0.005 -6.31986e-10 0)
(0.005 -6.55508e-10 0)
(0.005 -6.79434e-10 0)
(0.005 -7.03736e-10 0)
(0.005 -7.28378e-10 0)
(0.005 -7.53319e-10 0)
(0.005 -7.78513e-10 0)
(0.005 -8.03904e-10 0)
(0.005 -8.2943e-10 0)
(0.005 -8.55018e-10 0)
(0.005 -8.80583e-10 0)
(0.005 -9.06025e-10 0)
(0.005 -9.31229e-10 0)
(0.005 -9.56057e-10 0)
(0.005 -9.80348e-10 0)
(0.005 -1.00391e-09 0)
(0.005 -1.0265e-09 0)
(0.005 -1.04784e-09 0)
(0.005 -1.06758e-09 0)
(0.005 -1.08525e-09 0)
(0.005 -1.10025e-09 0)
(0.005 -1.11181e-09 0)
(0.005 -1.11832e-09 0)
(0.005 -2.9516e-13 0)
(0.005 -9.46787e-13 0)
(0.005 -1.65029e-12 0)
(0.005 -2.39549e-12 0)
(0.005 -3.18184e-12 0)
(0.005 -4.01139e-12 0)
(0.005 -4.88719e-12 0)
(0.005 -5.81297e-12 0)
(0.005 -6.79289e-12 0)
(0.005 -7.83139e-12 0)
(0.005 -8.93312e-12 0)
(0.005 -1.01029e-11 0)
(0.005 -1.13455e-11 0)
(0.005 -1.26661e-11 0)
(0.005 -1.40699e-11 0)
(0.005 -1.5562e-11 0)
(0.005 -1.7148e-11 0)
(0.005 -1.88335e-11 0)
(0.005 -2.06242e-11 0)
(0.005 -2.2526e-11 0)
(0.005 -2.4545e-11 0)
(0.005 -2.66876e-11 0)
(0.005 -2.89602e-11 0)
(0.005 -3.13696e-11 0)
(0.005 -3.39225e-11 0)
(0.005 -3.66262e-11 0)
(0.005 -3.9488e-11 0)
(0.005 -4.25153e-11 0)
(0.005 -4.57159e-11 0)
(0.005 -4.90979e-11 0)
(0.005 -5.26693e-11 0)
(0.005 -5.64386e-11 0)
(0.005 -6.04144e-11 0)
(0.005 -6.46056e-11 0)
(0.005 -6.9021e-11 0)
(0.005 -7.36701e-11 0)
(0.005 -7.85621e-11 0)
(0.005 -8.37068e-11 0)
(0.005 -8.91138e-11 0)
(0.005 -9.47933e-11 0)
(0.005 -1.00755e-10 0)
(0.005 -1.0701e-10 0)
(0.005 -1.13568e-10 0)
(0.005 -1.20439e-10 0)
(0.005 -1.27635e-10 0)
(0.005 -1.35165e-10 0)
(0.005 -1.43042e-10 0)
(0.005 -1.51274e-10 0)
(0.005 -1.59874e-10 0)
(0.005 -1.68852e-10 0)
(0.005 -1.78219e-10 0)
(0.005 -1.87985e-10 0)
(0.005 -1.9816e-10 0)
(0.005 -2.08756e-10 0)
(0.005 -2.19783e-10 0)
(0.005 -2.31249e-10 0)
(0.005 -2.43166e-10 0)
(0.005 -2.55542e-10 0)
(0.005 -2.68387e-10 0)
(0.005 -2.81708e-10 0)
(0.005 -2.95515e-10 0)
(0.005 -3.09814e-10 0)
(0.005 -3.24614e-10 0)
(0.005 -3.39918e-10 0)
(0.005 -3.55735e-10 0)
(0.005 -3.72068e-10 0)
(0.005 -3.8892e-10 0)
(0.005 -4.06296e-10 0)
(0.005 -4.24196e-10 0)
(0.005 -4.42622e-10 0)
(0.005 -4.61572e-10 0)
(0.005 -4.81044e-10 0)
(0.005 -5.01035e-10 0)
(0.005 -5.21538e-10 0)
(0.005 -5.42548e-10 0)
(0.005 -5.64053e-10 0)
(0.005 -5.86043e-10 0)
(0.005 -6.08503e-10 0)
(0.005 -6.31416e-10 0)
(0.005 -6.54761e-10 0)
(0.005 -6.78514e-10 0)
(0.005 -7.02647e-10 0)
(0.005 -7.27127e-10 0)
(0.005 -7.51913e-10 0)
(0.005 -7.76962e-10 0)
(0.005 -8.02219e-10 0)
(0.005 -8.27622e-10 0)
(0.005 -8.53095e-10 0)
(0.005 -8.78551e-10 0)
(0.005 -9.03882e-10 0)
(0.005 -9.28962e-10 0)
(0.005 -9.53634e-10 0)
(0.005 -9.77707e-10 0)
(0.005 -1.00094e-09 0)
(0.005 -1.02303e-09 0)
(0.005 -1.0436e-09 0)
(0.005 -1.06213e-09 0)
(0.005 -1.0779e-09 0)
(0.005 -1.08998e-09 0)
(0.005 -1.09644e-09 0)
(0.005 -2.71466e-13 0)
(0.005 -8.74686e-13 0)
(0.005 -1.53045e-12 0)
(0.005 -2.22951e-12 0)
(0.005 -2.97113e-12 0)
(0.005 -3.75681e-12 0)
(0.005 -4.58889e-12 0)
(0.005 -5.4704e-12 0)
(0.005 -6.40491e-12 0)
(0.005 -7.3963e-12 0)
(0.005 -8.44877e-12 0)
(0.005 -9.56669e-12 0)
(0.005 -1.07546e-11 0)
(0.005 -1.20173e-11 0)
(0.005 -1.33596e-11 0)
(0.005 -1.47866e-11 0)
(0.005 -1.63034e-11 0)
(0.005 -1.79153e-11 0)
(0.005 -1.96279e-11 0)
(0.005 -2.14467e-11 0)
(0.005 -2.33778e-11 0)
(0.005 -2.54271e-11 0)
(0.005 -2.76007e-11 0)
(0.005 -2.99052e-11 0)
(0.005 -3.23472e-11 0)
(0.005 -3.49334e-11 0)
(0.005 -3.76709e-11 0)
(0.005 -4.0567e-11 0)
(0.005 -4.3629e-11 0)
(0.005 -4.68645e-11 0)
(0.005 -5.02816e-11 0)
(0.005 -5.38882e-11 0)
(0.005 -5.76926e-11 0)
(0.005 -6.17032e-11 0)
(0.005 -6.59289e-11 0)
(0.005 -7.03784e-11 0)
(0.005 -7.50608e-11 0)
(0.005 -7.99853e-11 0)
(0.005 -8.51615e-11 0)
(0.005 -9.05988e-11 0)
(0.005 -9.63071e-11 0)
(0.005 -1.02296e-10 0)
(0.005 -1.08576e-10 0)
(0.005 -1.15157e-10 0)
(0.005 -1.2205e-10 0)
(0.005 -1.29263e-10 0)
(0.005 -1.36809e-10 0)
(0.005 -1.44698e-10 0)
(0.005 -1.52939e-10 0)
(0.005 -1.61544e-10 0)
(0.005 -1.70522e-10 0)
(0.005 -1.79885e-10 0)
(0.005 -1.89642e-10 0)
(0.005 -1.99804e-10 0)
(0.005 -2.10381e-10 0)
(0.005 -2.21383e-10 0)
(0.005 -2.32819e-10 0)
(0.005 -2.44698e-10 0)
(0.005 -2.57031e-10 0)
(0.005 -2.69825e-10 0)
(0.005 -2.83088e-10 0)
(0.005 -2.9683e-10 0)
(0.005 -3.11056e-10 0)
(0.005 -3.25775e-10 0)
(0.005 -3.40991e-10 0)
(0.005 -3.56711e-10 0)
(0.005 -3.7294e-10 0)
(0.005 -3.8968e-10 0)
(0.005 -4.06937e-10 0)
(0.005 -4.2471e-10 0)
(0.005 -4.43002e-10 0)
(0.005 -4.61812e-10 0)
(0.005 -4.81139e-10 0)
(0.005 -5.0098e-10 0)
(0.005 -5.2133e-10 0)
(0.005 -5.42183e-10 0)
(0.005 -5.63532e-10 0)
(0.005 -5.85365e-10 0)
(0.005 -6.0767e-10 0)
(0.005 -6.30433e-10 0)
(0.005 -6.53633e-10 0)
(0.005 -6.77249e-10 0)
(0.005 -7.01255e-10 0)
(0.005 -7.25619e-10 0)
(0.005 -7.50303e-10 0)
(0.005 -7.75262e-10 0)
(0.005 -8.00442e-10 0)
(0.005 -8.25777e-10 0)
(0.005 -8.51187e-10 0)
(0.005 -8.76573e-10 0)
(0.005 -9.01814e-10 0)
(0.005 -9.26757e-10 0)
(0.005 -9.51211e-10 0)
(0.005 -9.74928e-10 0)
(0.005 -9.9759e-10 0)
(0.005 -1.01878e-09 0)
(0.005 -1.03793e-09 0)
(0.005 -1.05425e-09 0)
(0.005 -1.06664e-09 0)
(0.005 -1.0733e-09 0)
(0.005 -2.49869e-13 0)
(0.005 -8.08241e-13 0)
(0.005 -1.41882e-12 0)
(0.005 -2.07327e-12 0)
(0.005 -2.77095e-12 0)
(0.005 -3.51305e-12 0)
(0.005 -4.30146e-12 0)
(0.005 -5.1387e-12 0)
(0.005 -6.02781e-12 0)
(0.005 -6.97221e-12 0)
(0.005 -7.97567e-12 0)
(0.005 -9.04217e-12 0)
(0.005 -1.01759e-11 0)
(0.005 -1.13814e-11 0)
(0.005 -1.26631e-11 0)
(0.005 -1.40258e-11 0)
(0.005 -1.54744e-11 0)
(0.005 -1.7014e-11 0)
(0.005 -1.86497e-11 0)
(0.005 -2.03871e-11 0)
(0.005 -2.22317e-11 0)
(0.005 -2.41893e-11 0)
(0.005 -2.62658e-11 0)
(0.005 -2.84674e-11 0)
(0.005 -3.08003e-11 0)
(0.005 -3.32712e-11 0)
(0.005 -3.58868e-11 0)
(0.005 -3.86539e-11 0)
(0.005 -4.15798e-11 0)
(0.005 -4.46717e-11 0)
(0.005 -4.79372e-11 0)
(0.005 -5.13841e-11 0)
(0.005 -5.50202e-11 0)
(0.005 -5.88538e-11 0)
(0.005 -6.28931e-11 0)
(0.005 -6.71467e-11 0)
(0.005 -7.16234e-11 0)
(0.005 -7.63319e-11 0)
(0.005 -8.12814e-11 0)
(0.005 -8.64811e-11 0)
(0.005 -9.19405e-11 0)
(0.005 -9.76689e-11 0)
(0.005 -1.03676e-10 0)
(0.005 -1.09972e-10 0)
(0.005 -1.16567e-10 0)
(0.005 -1.2347e-10 0)
(0.005 -1.30691e-10 0)
(0.005 -1.38242e-10 0)
(0.005 -1.46131e-10 0)
(0.005 -1.54369e-10 0)
(0.005 -1.62967e-10 0)
(0.005 -1.71934e-10 0)
(0.005 -1.8128e-10 0)
(0.005 -1.91017e-10 0)
(0.005 -2.01152e-10 0)
(0.005 -2.11697e-10 0)
(0.005 -2.22661e-10 0)
(0.005 -2.34053e-10 0)
(0.005 -2.45882e-10 0)
(0.005 -2.58158e-10 0)
(0.005 -2.70888e-10 0)
(0.005 -2.84081e-10 0)
(0.005 -2.97745e-10 0)
(0.005 -3.11887e-10 0)
(0.005 -3.26513e-10 0)
(0.005 -3.41631e-10 0)
(0.005 -3.57245e-10 0)
(0.005 -3.73361e-10 0)
(0.005 -3.89983e-10 0)
(0.005 -4.07115e-10 0)
(0.005 -4.24759e-10 0)
(0.005 -4.42916e-10 0)
(0.005 -4.61588e-10 0)
(0.005 -4.80773e-10 0)
(0.005 -5.00471e-10 0)
(0.005 -5.20678e-10 0)
(0.005 -5.41389e-10 0)
(0.005 -5.62598e-10 0)
(0.005 -5.84296e-10 0)
(0.005 -6.06473e-10 0)
(0.005 -6.29116e-10 0)
(0.005 -6.52208e-10 0)
(0.005 -6.75727e-10 0)
(0.005 -6.99651e-10 0)
(0.005 -7.23946e-10 0)
(0.005 -7.48577e-10 0)
(0.005 -7.73495e-10 0)
(0.005 -7.98642e-10 0)
(0.005 -8.23945e-10 0)
(0.005 -8.49311e-10 0)
(0.005 -8.74623e-10 0)
(0.005 -8.99731e-10 0)
(0.005 -9.24438e-10 0)
(0.005 -9.4849e-10 0)
(0.005 -9.7155e-10 0)
(0.005 -9.93173e-10 0)
(0.005 -1.01275e-09 0)
(0.005 -1.02945e-09 0)
(0.005 -1.04207e-09 0)
(0.005 -1.04918e-09 0)
(0.005 -2.29973e-13 0)
(0.005 -7.46595e-13 0)
(0.005 -1.31447e-12 0)
(0.005 -1.92606e-12 0)
(0.005 -2.58093e-12 0)
(0.005 -3.28015e-12 0)
(0.005 -4.0253e-12 0)
(0.005 -4.81855e-12 0)
(0.005 -5.66251e-12 0)
(0.005 -6.56022e-12 0)
(0.005 -7.51505e-12 0)
(0.005 -8.53063e-12 0)
(0.005 -9.61085e-12 0)
(0.005 -1.07598e-11 0)
(0.005 -1.19818e-11 0)
(0.005 -1.32812e-11 0)
(0.005 -1.46628e-11 0)
(0.005 -1.61312e-11 0)
(0.005 -1.76916e-11 0)
(0.005 -1.9349e-11 0)
(0.005 -2.11088e-11 0)
(0.005 -2.29764e-11 0)
(0.005 -2.49577e-11 0)
(0.005 -2.70583e-11 0)
(0.005 -2.92844e-11 0)
(0.005 -3.16423e-11 0)
(0.005 -3.41383e-11 0)
(0.005 -3.67792e-11 0)
(0.005 -3.95717e-11 0)
(0.005 -4.25228e-11 0)
(0.005 -4.56399e-11 0)
(0.005 -4.89302e-11 0)
(0.005 -5.24015e-11 0)
(0.005 -5.60615e-11 0)
(0.005 -5.99183e-11 0)
(0.005 -6.398e-11 0)
(0.005 -6.8255e-11 0)
(0.005 -7.27519e-11 0)
(0.005 -7.74794e-11 0)
(0.005 -8.24463e-11 0)
(0.005 -8.76617e-11 0)
(0.005 -9.31348e-11 0)
(0.005 -9.88749e-11 0)
(0.005 -1.04891e-10 0)
(0.005 -1.11194e-10 0)
(0.005 -1.17792e-10 0)
(0.005 -1.24696e-10 0)
(0.005 -1.31915e-10 0)
(0.005 -1.3946e-10 0)
(0.005 -1.47339e-10 0)
(0.005 -1.55563e-10 0)
(0.005 -1.64143e-10 0)
(0.005 -1.73087e-10 0)
(0.005 -1.82405e-10 0)
(0.005 -1.92108e-10 0)
(0.005 -2.02206e-10 0)
(0.005 -2.12706e-10 0)
(0.005 -2.2362e-10 0)
(0.005 -2.34956e-10 0)
(0.005 -2.46723e-10 0)
(0.005 -2.5893e-10 0)
(0.005 -2.71586e-10 0)
(0.005 -2.84698e-10 0)
(0.005 -2.98274e-10 0)
(0.005 -3.12321e-10 0)
(0.005 -3.26847e-10 0)
(0.005 -3.41859e-10 0)
(0.005 -3.57361e-10 0)
(0.005 -3.73359e-10 0)
(0.005 -3.89859e-10 0)
(0.005 -4.06864e-10 0)
(0.005 -4.24378e-10 0)
(0.005 -4.42404e-10 0)
(0.005 -4.60942e-10 0)
(0.005 -4.79995e-10 0)
(0.005 -4.99561e-10 0)
(0.005 -5.19639e-10 0)
(0.005 -5.40226e-10 0)
(0.005 -5.61318e-10 0)
(0.005 -5.82908e-10 0)
(0.005 -6.04988e-10 0)
(0.005 -6.27546e-10 0)
(0.005 -6.50566e-10 0)
(0.005 -6.7403e-10 0)
(0.005 -6.97913e-10 0)
(0.005 -7.22183e-10 0)
(0.005 -7.46799e-10 0)
(0.005 -7.71708e-10 0)
(0.005 -7.96844e-10 0)
(0.005 -8.22118e-10 0)
(0.005 -8.47414e-10 0)
(0.005 -8.72582e-10 0)
(0.005 -8.97423e-10 0)
(0.005 -9.21673e-10 0)
(0.005 -9.44983e-10 0)
(0.005 -9.66883e-10 0)
(0.005 -9.86742e-10 0)
(0.005 -1.0037e-09 0)
(0.005 -1.0166e-09 0)
(0.005 -1.02415e-09 0)
(0.005 -2.11513e-13 0)
(0.005 -6.89125e-13 0)
(0.005 -1.21664e-12 0)
(0.005 -1.78723e-12 0)
(0.005 -2.40066e-12 0)
(0.005 -3.05797e-12 0)
(0.005 -3.76059e-12 0)
(0.005 -4.5104e-12 0)
(0.005 -5.30972e-12 0)
(0.005 -6.16123e-12 0)
(0.005 -7.06797e-12 0)
(0.005 -8.03325e-12 0)
(0.005 -9.06064e-12 0)
(0.005 -1.01539e-11 0)
(0.005 -1.13171e-11 0)
(0.005 -1.25544e-11 0)
(0.005 -1.38701e-11 0)
(0.005 -1.52688e-11 0)
(0.005 -1.67552e-11 0)
(0.005 -1.83343e-11 0)
(0.005 -2.00109e-11 0)
(0.005 -2.17906e-11 0)
(0.005 -2.36785e-11 0)
(0.005 -2.56804e-11 0)
(0.005 -2.78019e-11 0)
(0.005 -3.00492e-11 0)
(0.005 -3.24283e-11 0)
(0.005 -3.49456e-11 0)
(0.005 -3.76076e-11 0)
(0.005 -4.04211e-11 0)
(0.005 -4.33929e-11 0)
(0.005 -4.65302e-11 0)
(0.005 -4.98403e-11 0)
(0.005 -5.33306e-11 0)
(0.005 -5.70088e-11 0)
(0.005 -6.08828e-11 0)
(0.005 -6.49607e-11 0)
(0.005 -6.92505e-11 0)
(0.005 -7.37608e-11 0)
(0.005 -7.85e-11 0)
(0.005 -8.34769e-11 0)
(0.005 -8.87002e-11 0)
(0.005 -9.4179e-11 0)
(0.005 -9.99224e-11 0)
(0.005 -1.0594e-10 0)
(0.005 -1.1224e-10 0)
(0.005 -1.18833e-10 0)
(0.005 -1.25728e-10 0)
(0.005 -1.32935e-10 0)
(0.005 -1.40463e-10 0)
(0.005 -1.48322e-10 0)
(0.005 -1.56522e-10 0)
(0.005 -1.65072e-10 0)
(0.005 -1.73982e-10 0)
(0.005 -1.83262e-10 0)
(0.005 -1.92921e-10 0)
(0.005 -2.02969e-10 0)
(0.005 -2.13415e-10 0)
(0.005 -2.24268e-10 0)
(0.005 -2.35538e-10 0)
(0.005 -2.47232e-10 0)
(0.005 -2.59361e-10 0)
(0.005 -2.71932e-10 0)
(0.005 -2.84953e-10 0)
(0.005 -2.98433e-10 0)
(0.005 -3.1238e-10 0)
(0.005 -3.26799e-10 0)
(0.005 -3.41699e-10 0)
(0.005 -3.57085e-10 0)
(0.005 -3.72964e-10 0)
(0.005 -3.89341e-10 0)
(0.005 -4.06222e-10 0)
(0.005 -4.2361e-10 0)
(0.005 -4.4151e-10 0)
(0.005 -4.59925e-10 0)
(0.005 -4.78856e-10 0)
(0.005 -4.98306e-10 0)
(0.005 -5.18274e-10 0)
(0.005 -5.3876e-10 0)
(0.005 -5.59761e-10 0)
(0.005 -5.81272e-10 0)
(0.005 -6.03286e-10 0)
(0.005 -6.25794e-10 0)
(0.005 -6.48779e-10 0)
(0.005 -6.72224e-10 0)
(0.005 -6.96102e-10 0)
(0.005 -7.20376e-10 0)
(0.005 -7.45e-10 0)
(0.005 -7.69909e-10 0)
(0.005 -7.95019e-10 0)
(0.005 -8.20216e-10 0)
(0.005 -8.45348e-10 0)
(0.005 -8.70214e-10 0)
(0.005 -8.94543e-10 0)
(0.005 -9.17972e-10 0)
(0.005 -9.40019e-10 0)
(0.005 -9.60034e-10 0)
(0.005 -9.77148e-10 0)
(0.005 -9.90231e-10 0)
(0.005 -9.97958e-10 0)
(0.005 -1.94305e-13 0)
(0.005 -6.35359e-13 0)
(0.005 -1.12474e-12 0)
(0.005 -1.65619e-12 0)
(0.005 -2.22969e-12 0)
(0.005 -2.8463e-12 0)
(0.005 -3.50735e-12 0)
(0.005 -4.21452e-12 0)
(0.005 -4.9699e-12 0)
(0.005 -5.7759e-12 0)
(0.005 -6.63526e-12 0)
(0.005 -7.551e-12 0)
(0.005 -8.52639e-12 0)
(0.005 -9.56495e-12 0)
(0.005 -1.06704e-11 0)
(0.005 -1.18467e-11 0)
(0.005 -1.30978e-11 0)
(0.005 -1.44282e-11 0)
(0.005 -1.58422e-11 0)
(0.005 -1.73446e-11 0)
(0.005 -1.894e-11 0)
(0.005 -2.06335e-11 0)
(0.005 -2.24303e-11 0)
(0.005 -2.43356e-11 0)
(0.005 -2.63551e-11 0)
(0.005 -2.84943e-11 0)
(0.005 -3.07592e-11 0)
(0.005 -3.31558e-11 0)
(0.005 -3.56904e-11 0)
(0.005 -3.83694e-11 0)
(0.005 -4.11995e-11 0)
(0.005 -4.41873e-11 0)
(0.005 -4.734e-11 0)
(0.005 -5.06646e-11 0)
(0.005 -5.41685e-11 0)
(0.005 -5.78593e-11 0)
(0.005 -6.17446e-11 0)
(0.005 -6.58324e-11 0)
(0.005 -7.01306e-11 0)
(0.005 -7.46475e-11 0)
(0.005 -7.93915e-11 0)
(0.005 -8.43709e-11 0)
(0.005 -8.95946e-11 0)
(0.005 -9.50713e-11 0)
(0.005 -1.0081e-10 0)
(0.005 -1.06819e-10 0)
(0.005 -1.13109e-10 0)
(0.005 -1.19687e-10 0)
(0.005 -1.26565e-10 0)
(0.005 -1.3375e-10 0)
(0.005 -1.41252e-10 0)
(0.005 -1.49082e-10 0)
(0.005 -1.57247e-10 0)
(0.005 -1.65758e-10 0)
(0.005 -1.74625e-10 0)
(0.005 -1.83856e-10 0)
(0.005 -1.93461e-10 0)
(0.005 -2.03449e-10 0)
(0.005 -2.1383e-10 0)
(0.005 -2.24613e-10 0)
(0.005 -2.35807e-10 0)
(0.005 -2.4742e-10 0)
(0.005 -2.59462e-10 0)
(0.005 -2.71941e-10 0)
(0.005 -2.84866e-10 0)
(0.005 -2.98244e-10 0)
(0.005 -3.12083e-10 0)
(0.005 -3.26392e-10 0)
(0.005 -3.41178e-10 0)
(0.005 -3.56447e-10 0)
(0.005 -3.72208e-10 0)
(0.005 -3.88465e-10 0)
(0.005 -4.05226e-10 0)
(0.005 -4.22496e-10 0)
(0.005 -4.4028e-10 0)
(0.005 -4.58584e-10 0)
(0.005 -4.7741e-10 0)
(0.005 -4.96762e-10 0)
(0.005 -5.16642e-10 0)
(0.005 -5.37051e-10 0)
(0.005 -5.57988e-10 0)
(0.005 -5.7945e-10 0)
(0.005 -6.0143e-10 0)
(0.005 -6.23919e-10 0)
(0.005 -6.46902e-10 0)
(0.005 -6.70355e-10 0)
(0.005 -6.94249e-10 0)
(0.005 -7.1854e-10 0)
(0.005 -7.43166e-10 0)
(0.005 -7.68045e-10 0)
(0.005 -7.93065e-10 0)
(0.005 -8.18074e-10 0)
(0.005 -8.42866e-10 0)
(0.005 -8.67166e-10 0)
(0.005 -8.90603e-10 0)
(0.005 -9.12686e-10 0)
(0.005 -9.32756e-10 0)
(0.005 -9.49942e-10 0)
(0.005 -9.63119e-10 0)
(0.005 -9.70934e-10 0)
(0.005 -1.78213e-13 0)
(0.005 -5.8494e-13 0)
(0.005 -1.03827e-12 0)
(0.005 -1.53244e-12 0)
(0.005 -2.0676e-12 0)
(0.005 -2.64485e-12 0)
(0.005 -3.26547e-12 0)
(0.005 -3.93101e-12 0)
(0.005 -4.64336e-12 0)
(0.005 -5.40471e-12 0)
(0.005 -6.21755e-12 0)
(0.005 -7.08464e-12 0)
(0.005 -8.00901e-12 0)
(0.005 -8.9939e-12 0)
(0.005 -1.00428e-11 0)
(0.005 -1.11593e-11 0)
(0.005 -1.23473e-11 0)
(0.005 -1.36108e-11 0)
(0.005 -1.49541e-11 0)
(0.005 -1.63815e-11 0)
(0.005 -1.78976e-11 0)
(0.005 -1.9507e-11 0)
(0.005 -2.12148e-11 0)
(0.005 -2.3026e-11 0)
(0.005 -2.49458e-11 0)
(0.005 -2.69797e-11 0)
(0.005 -2.91332e-11 0)
(0.005 -3.14122e-11 0)
(0.005 -3.38226e-11 0)
(0.005 -3.63705e-11 0)
(0.005 -3.90623e-11 0)
(0.005 -4.19045e-11 0)
(0.005 -4.49037e-11 0)
(0.005 -4.80668e-11 0)
(0.005 -5.14008e-11 0)
(0.005 -5.4913e-11 0)
(0.005 -5.86107e-11 0)
(0.005 -6.25015e-11 0)
(0.005 -6.6593e-11 0)
(0.005 -7.08932e-11 0)
(0.005 -7.54102e-11 0)
(0.005 -8.01519e-11 0)
(0.005 -8.51269e-11 0)
(0.005 -9.03435e-11 0)
(0.005 -9.58104e-11 0)
(0.005 -1.01536e-10 0)
(0.005 -1.0753e-10 0)
(0.005 -1.138e-10 0)
(0.005 -1.20356e-10 0)
(0.005 -1.27207e-10 0)
(0.005 -1.34361e-10 0)
(0.005 -1.41829e-10 0)
(0.005 -1.4962e-10 0)
(0.005 -1.57742e-10 0)
(0.005 -1.66205e-10 0)
(0.005 -1.75018e-10 0)
(0.005 -1.84191e-10 0)
(0.005 -1.93733e-10 0)
(0.005 -2.03654e-10 0)
(0.005 -2.13962e-10 0)
(0.005 -2.24666e-10 0)
(0.005 -2.35776e-10 0)
(0.005 -2.47301e-10 0)
(0.005 -2.5925e-10 0)
(0.005 -2.71631e-10 0)
(0.005 -2.84453e-10 0)
(0.005 -2.97725e-10 0)
(0.005 -3.11455e-10 0)
(0.005 -3.25652e-10 0)
(0.005 -3.40324e-10 0)
(0.005 -3.55479e-10 0)
(0.005 -3.71124e-10 0)
(0.005 -3.87267e-10 0)
(0.005 -4.03917e-10 0)
(0.005 -4.21078e-10 0)
(0.005 -4.3876e-10 0)
(0.005 -4.56967e-10 0)
(0.005 -4.75706e-10 0)
(0.005 -4.94981e-10 0)
(0.005 -5.14796e-10 0)
(0.005 -5.35153e-10 0)
(0.005 -5.56053e-10 0)