/*--------------------------------*- C++ -*----------------------------------*\
  =========                 |
  \\      /  F ield         | OpenFOAM: The Open Source CFD Toolbox
   \\    /   O peration     | Website:  https://openfoam.org
    \\  /    A nd           | Version:  11
     \\/     M anipulation  |
\*---------------------------------------------------------------------------*/
FoamFile
{
    format      ascii;
    class       volScalarField;
    location    "146";
    object      k;
}
// * * * * * * * * * * * * * * * * * * * * * * * * * * * * * * * * * * * * * //

dimensions      [0 2 -2 0 0 0 0];

internalField   nonuniform List<scalar> 
10000
(
0.000939657
0.000835605
0.000745672
0.000667692
0.000599859
0.000540664
0.000488845
0.000443341
0.000403262
0.000367855
0.000336485
0.000308614
0.000283783
0.000261605
0.000241748
0.000223929
0.000207905
0.00019347
0.000180446
0.00016868
0.000158041
0.000148417
0.000139709
0.000131834
0.000124718
0.000118297
0.000112514
0.000107318
0.000102663
9.85062e-05
9.48088e-05
9.15331e-05
8.86439e-05
8.61071e-05
8.38904e-05
8.1963e-05
8.02955e-05
7.88603e-05
7.76316e-05
7.65852e-05
7.56995e-05
7.49551e-05
7.4334e-05
7.38204e-05
7.33998e-05
7.30591e-05
7.27868e-05
7.25726e-05
7.24076e-05
7.22836e-05
7.21942e-05
7.21336e-05
7.20968e-05
7.20793e-05
7.20774e-05
7.20874e-05
7.21072e-05
7.21342e-05
7.21661e-05
7.22013e-05
7.22384e-05
7.2276e-05
7.23131e-05
7.2349e-05
7.23829e-05
7.24144e-05
7.24429e-05
7.24683e-05
7.24903e-05
7.25087e-05
7.25236e-05
7.25349e-05
7.25426e-05
7.2547e-05
7.2548e-05
7.25459e-05
7.25409e-05
7.25331e-05
7.25228e-05
7.25102e-05
7.24956e-05
7.24792e-05
7.24612e-05
7.24419e-05
7.24216e-05
7.24004e-05
7.23787e-05
7.23567e-05
7.23347e-05
7.23128e-05
7.22914e-05
7.22707e-05
7.2251e-05
7.22326e-05
7.22158e-05
7.22009e-05
7.21881e-05
7.2178e-05
7.21706e-05
7.21665e-05
0.000939657
0.000835607
0.000745676
0.000667697
0.000599864
0.000540669
0.00048885
0.000443347
0.000403268
0.000367862
0.000336492
0.00030862
0.00028379
0.000261612
0.000241755
0.000223936
0.000207913
0.000193478
0.000180454
0.000168688
0.00015805
0.000148426
0.000139718
0.000131843
0.000124728
0.000118307
0.000112524
0.000107327
0.000102672
9.85157e-05
9.48182e-05
9.15423e-05
8.86528e-05
8.61157e-05
8.38986e-05
8.19708e-05
8.0303e-05
7.88674e-05
7.76385e-05
7.65922e-05
7.57068e-05
7.49625e-05
7.43415e-05
7.38277e-05
7.34066e-05
7.30653e-05
7.27923e-05
7.25774e-05
7.24117e-05
7.22873e-05
7.21977e-05
7.21369e-05
7.20999e-05
7.20822e-05
7.20802e-05
7.20901e-05
7.21099e-05
7.21367e-05
7.21686e-05
7.22037e-05
7.22407e-05
7.22782e-05
7.23153e-05
7.23511e-05
7.2385e-05
7.24164e-05
7.24449e-05
7.24702e-05
7.24921e-05
7.25104e-05
7.25252e-05
7.25364e-05
7.25441e-05
7.25484e-05
7.25493e-05
7.25472e-05
7.25421e-05
7.25342e-05
7.25239e-05
7.25113e-05
7.24966e-05
7.24801e-05
7.24621e-05
7.24427e-05
7.24223e-05
7.24011e-05
7.23794e-05
7.23573e-05
7.23352e-05
7.23133e-05
7.22918e-05
7.22711e-05
7.22514e-05
7.2233e-05
7.22161e-05
7.22012e-05
7.21884e-05
7.21783e-05
7.21709e-05
7.21668e-05
0.000939658
0.00083561
0.000745681
0.000667704
0.000599872
0.000540679
0.000488861
0.000443358
0.00040328
0.000367873
0.000336504
0.000308633
0.000283803
0.000261625
0.000241768
0.000223949
0.000207926
0.000193492
0.000180468
0.000168702
0.000158064
0.00014844
0.000139733
0.000131858
0.000124742
0.000118321
0.000112538
0.000107341
0.000102686
9.85287e-05
9.48305e-05
9.1554e-05
8.86637e-05
8.61258e-05
8.3908e-05
8.19794e-05
8.03107e-05
7.88745e-05
7.7645e-05
7.65982e-05
7.57125e-05
7.49679e-05
7.43466e-05
7.38324e-05
7.34108e-05
7.3069e-05
7.27954e-05
7.258e-05
7.24139e-05
7.22892e-05
7.21993e-05
7.21383e-05
7.21011e-05
7.20834e-05
7.20813e-05
7.20912e-05
7.21109e-05
7.21377e-05
7.21695e-05
7.22046e-05
7.22416e-05
7.22791e-05
7.23162e-05
7.2352e-05
7.23858e-05
7.24172e-05
7.24457e-05
7.24709e-05
7.24928e-05
7.25112e-05
7.2526e-05
7.25372e-05
7.25448e-05
7.25491e-05
7.255e-05
7.25478e-05
7.25427e-05
7.25348e-05
7.25245e-05
7.25118e-05
7.24971e-05
7.24806e-05
7.24626e-05
7.24432e-05
7.24228e-05
7.24016e-05
7.23798e-05
7.23578e-05
7.23356e-05
7.23137e-05
7.22923e-05
7.22716e-05
7.22519e-05
7.22334e-05
7.22166e-05
7.22017e-05
7.21889e-05
7.21788e-05
7.21715e-05
7.21674e-05
0.000939659
0.000835613
0.000745687
0.000667712
0.000599883
0.000540691
0.000488874
0.000443373
0.000403295
0.00036789
0.000336521
0.00030865
0.000283821
0.000261643
0.000241787
0.000223968
0.000207945
0.000193511
0.000180488
0.000168722
0.000158084
0.00014846
0.000139753
0.000131878
0.000124762
0.000118341
0.000112557
0.00010736
0.000102704
9.85458e-05
9.48466e-05
9.1569e-05
8.86775e-05
8.61384e-05
8.39193e-05
8.19895e-05
8.03197e-05
7.88824e-05
7.76518e-05
7.66042e-05
7.57178e-05
7.49726e-05
7.43507e-05
7.38359e-05
7.34138e-05
7.30714e-05
7.27972e-05
7.25813e-05
7.24147e-05
7.22898e-05
7.21996e-05
7.21385e-05
7.21012e-05
7.20834e-05
7.20812e-05
7.2091e-05
7.21107e-05
7.21375e-05
7.21694e-05
7.22045e-05
7.22415e-05
7.2279e-05
7.23161e-05
7.23519e-05
7.23858e-05
7.24172e-05
7.24457e-05
7.2471e-05
7.24929e-05
7.25113e-05
7.2526e-05
7.25373e-05
7.25449e-05
7.25492e-05
7.25501e-05
7.2548e-05
7.25429e-05
7.2535e-05
7.25247e-05
7.2512e-05
7.24973e-05
7.24809e-05
7.24628e-05
7.24435e-05
7.24231e-05
7.24019e-05
7.23802e-05
7.23581e-05
7.2336e-05
7.23142e-05
7.22927e-05
7.22721e-05
7.22524e-05
7.2234e-05
7.22172e-05
7.22023e-05
7.21896e-05
7.21795e-05
7.21722e-05
7.21681e-05
0.00093966
0.000835617
0.000745694
0.000667722
0.000599895
0.000540706
0.000488891
0.000443391
0.000403315
0.00036791
0.000336542
0.000308672
0.000283843
0.000261667
0.000241811
0.000223993
0.00020797
0.000193536
0.000180513
0.000168748
0.00015811
0.000148486
0.000139779
0.000131904
0.000124788
0.000118366
0.000112582
0.000107384
0.000102727
9.85674e-05
9.48669e-05
9.15878e-05
8.86947e-05
8.61539e-05
8.39332e-05
8.20017e-05
8.03303e-05
7.88915e-05
7.76596e-05
7.66109e-05
7.57233e-05
7.49772e-05
7.43545e-05
7.38389e-05
7.3416e-05
7.30729e-05
7.27982e-05
7.25818e-05
7.24148e-05
7.22895e-05
7.21991e-05
7.21378e-05
7.21004e-05
7.20825e-05
7.20802e-05
7.20901e-05
7.21098e-05
7.21366e-05
7.21684e-05
7.22036e-05
7.22406e-05
7.22782e-05
7.23154e-05
7.23512e-05
7.23852e-05
7.24166e-05
7.24451e-05
7.24705e-05
7.24924e-05
7.25108e-05
7.25257e-05
7.25369e-05
7.25447e-05
7.2549e-05
7.25499e-05
7.25478e-05
7.25427e-05
7.25349e-05
7.25246e-05
7.2512e-05
7.24974e-05
7.24809e-05
7.24629e-05
7.24436e-05
7.24233e-05
7.24022e-05
7.23805e-05
7.23585e-05
7.23364e-05
7.23146e-05
7.22932e-05
7.22726e-05
7.2253e-05
7.22347e-05
7.2218e-05
7.22032e-05
7.21905e-05
7.21805e-05
7.21732e-05
7.21691e-05
0.000939661
0.000835621
0.0007457
0.000667732
0.000599908
0.000540721
0.000488909
0.000443411
0.000403336
0.000367933
0.000336567
0.000308698
0.00028387
0.000261694
0.000241839
0.000224022
0.000208
0.000193567
0.000180544
0.000168779
0.000158142
0.000148518
0.000139811
0.000131936
0.000124819
0.000118397
0.000112611
0.000107413
0.000102754
9.85933e-05
9.48911e-05
9.16101e-05
8.8715e-05
8.61722e-05
8.39494e-05
8.20159e-05
8.03426e-05
7.89019e-05
7.76683e-05
7.6618e-05
7.57291e-05
7.49818e-05
7.43579e-05
7.38414e-05
7.34177e-05
7.30738e-05
7.27985e-05
7.25815e-05
7.24141e-05
7.22884e-05
7.21977e-05
7.21362e-05
7.20987e-05
7.20807e-05
7.20784e-05
7.20882e-05
7.21079e-05
7.21348e-05
7.21667e-05
7.22019e-05
7.2239e-05
7.22767e-05
7.23139e-05
7.23499e-05
7.23839e-05
7.24154e-05
7.2444e-05
7.24694e-05
7.24914e-05
7.25099e-05
7.25248e-05
7.25361e-05
7.25439e-05
7.25483e-05
7.25493e-05
7.25473e-05
7.25422e-05
7.25345e-05
7.25242e-05
7.25117e-05
7.24971e-05
7.24807e-05
7.24628e-05
7.24436e-05
7.24233e-05
7.24023e-05
7.23806e-05
7.23587e-05
7.23368e-05
7.2315e-05
7.22938e-05
7.22732e-05
7.22537e-05
7.22355e-05
7.22189e-05
7.22041e-05
7.21916e-05
7.21815e-05
7.21743e-05
7.21702e-05
0.000939662
0.000835624
0.000745707
0.000667741
0.000599921
0.000540737
0.000488928
0.000443432
0.00040336
0.000367959
0.000336594
0.000308727
0.0002839
0.000261725
0.000241871
0.000224055
0.000208034
0.000193601
0.000180579
0.000168815
0.000158178
0.000148555
0.000139848
0.000131972
0.000124855
0.000118432
0.000112646
0.000107446
0.000102786
9.86231e-05
9.49188e-05
9.16356e-05
8.87382e-05
8.6193e-05
8.39678e-05
8.20319e-05
8.03562e-05
7.89134e-05
7.76778e-05
7.66256e-05
7.57351e-05
7.49863e-05
7.43611e-05
7.38434e-05
7.34187e-05
7.3074e-05
7.27979e-05
7.25803e-05
7.24124e-05
7.22864e-05
7.21954e-05
7.21337e-05
7.2096e-05
7.20779e-05
7.20757e-05
7.20855e-05
7.21052e-05
7.21321e-05
7.21641e-05
7.21994e-05
7.22366e-05
7.22744e-05
7.23117e-05
7.23478e-05
7.23819e-05
7.24135e-05
7.24422e-05
7.24677e-05
7.24898e-05
7.25084e-05
7.25234e-05
7.25348e-05
7.25427e-05
7.25472e-05
7.25483e-05
7.25463e-05
7.25414e-05
7.25337e-05
7.25235e-05
7.25111e-05
7.24966e-05
7.24803e-05
7.24625e-05
7.24433e-05
7.24232e-05
7.24022e-05
7.23807e-05
7.23589e-05
7.23371e-05
7.23154e-05
7.22943e-05
7.22738e-05
7.22544e-05
7.22363e-05
7.22198e-05
7.22052e-05
7.21927e-05
7.21828e-05
7.21756e-05
7.21715e-05
0.000939663
0.000835627
0.000745713
0.000667751
0.000599934
0.000540753
0.000488947
0.000443454
0.000403384
0.000367986
0.000336623
0.000308757
0.000283932
0.000261759
0.000241907
0.000224091
0.000208072
0.00019364
0.000180619
0.000168856
0.000158219
0.000148596
0.000139889
0.000132013
0.000124896
0.000118472
0.000112684
0.000107483
0.000102821
9.86564e-05
9.49498e-05
9.16641e-05
8.8764e-05
8.62161e-05
8.39881e-05
8.20495e-05
8.03712e-05
7.89259e-05
7.76879e-05
7.66337e-05
7.57412e-05
7.49907e-05
7.4364e-05
7.3845e-05
7.34192e-05
7.30735e-05
7.27966e-05
7.25784e-05
7.24099e-05
7.22834e-05
7.21922e-05
7.21302e-05
7.20924e-05
7.20742e-05
7.20719e-05
7.20817e-05
7.21015e-05
7.21285e-05
7.21606e-05
7.2196e-05
7.22333e-05
7.22712e-05
7.23087e-05
7.23449e-05
7.23791e-05
7.24109e-05
7.24397e-05
7.24654e-05
7.24876e-05
7.25063e-05
7.25214e-05
7.25329e-05
7.25409e-05
7.25455e-05
7.25467e-05
7.25449e-05
7.254e-05
7.25325e-05
7.25224e-05
7.25101e-05
7.24957e-05
7.24795e-05
7.24618e-05
7.24428e-05
7.24228e-05
7.2402e-05
7.23806e-05
7.23589e-05
7.23372e-05
7.23157e-05
7.22947e-05
7.22744e-05
7.22552e-05
7.22372e-05
7.22208e-05
7.22063e-05
7.21939e-05
7.2184e-05
7.21769e-05
7.21728e-05
0.000939664
0.00083563
0.000745719
0.00066776
0.000599946
0.000540769
0.000488966
0.000443476
0.000403409
0.000368013
0.000336653
0.00030879
0.000283967
0.000261796
0.000241945
0.000224131
0.000208113
0.000193682
0.000180662
0.0001689
0.000158263
0.000148641
0.000139934
0.000132058
0.00012494
0.000118515
0.000112727
0.000107524
0.00010286
9.86928e-05
9.49837e-05
9.16952e-05
8.87922e-05
8.62412e-05
8.40101e-05
8.20684e-05
8.03872e-05
7.89392e-05
7.76986e-05
7.6642e-05
7.57474e-05
7.4995e-05
7.43667e-05
7.38462e-05
7.34191e-05
7.30723e-05
7.27945e-05
7.25756e-05
7.24065e-05
7.22796e-05
7.2188e-05
7.21258e-05
7.20878e-05
7.20696e-05
7.20672e-05
7.2077e-05
7.20969e-05
7.21239e-05
7.21561e-05
7.21917e-05
7.22291e-05
7.22672e-05
7.23048e-05
7.23412e-05
7.23756e-05
7.24075e-05
7.24365e-05
7.24623e-05
7.24847e-05
7.25035e-05
7.25188e-05
7.25305e-05
7.25386e-05
7.25433e-05
7.25447e-05
7.2543e-05
7.25383e-05
7.25309e-05
7.25209e-05
7.25087e-05
7.24945e-05
7.24785e-05
7.24609e-05
7.24421e-05
7.24222e-05
7.24015e-05
7.23803e-05
7.23588e-05
7.23372e-05
7.23159e-05
7.22951e-05
7.2275e-05
7.22559e-05
7.2238e-05
7.22218e-05
7.22074e-05
7.21951e-05
7.21853e-05
7.21783e-05
7.21742e-05
0.000939664
0.000835633
0.000745724
0.000667768
0.000599958
0.000540784
0.000488984
0.000443498
0.000403434
0.000368041
0.000336684
0.000308823
0.000284003
0.000261834
0.000241985
0.000224173
0.000208156
0.000193727
0.000180708
0.000168947
0.000158311
0.000148689
0.000139982
0.000132107
0.000124988
0.000118562
0.000112772
0.000107567
0.000102901
9.87321e-05
9.50201e-05
9.17286e-05
8.88224e-05
8.6268e-05
8.40336e-05
8.20887e-05
8.04043e-05
7.89532e-05
7.77098e-05
7.66506e-05
7.57537e-05
7.49992e-05
7.4369e-05
7.38469e-05
7.34184e-05
7.30705e-05
7.27917e-05
7.25719e-05
7.24023e-05
7.22748e-05
7.21829e-05
7.21204e-05
7.20822e-05
7.20639e-05
7.20615e-05
7.20714e-05
7.20913e-05
7.21185e-05
7.21508e-05
7.21865e-05
7.22241e-05
7.22623e-05
7.23001e-05
7.23367e-05
7.23712e-05
7.24033e-05
7.24325e-05
7.24585e-05
7.24811e-05
7.25001e-05
7.25156e-05
7.25274e-05
7.25357e-05
7.25406e-05
7.25421e-05
7.25406e-05
7.2536e-05
7.25288e-05
7.2519e-05
7.2507e-05
7.24929e-05
7.24771e-05
7.24597e-05
7.2441e-05
7.24213e-05
7.24008e-05
7.23798e-05
7.23585e-05
7.23371e-05
7.2316e-05
7.22953e-05
7.22754e-05
7.22565e-05
7.22388e-05
7.22227e-05
7.22085e-05
7.21963e-05
7.21866e-05
7.21796e-05
7.21755e-05
0.000939665
0.000835636
0.000745729
0.000667776
0.000599969
0.000540799
0.000489002
0.00044352
0.000403459
0.00036807
0.000336715
0.000308857
0.000284039
0.000261873
0.000242026
0.000224216
0.000208201
0.000193774
0.000180757
0.000168997
0.000158362
0.00014874
0.000140034
0.000132158
0.000125039
0.000118612
0.000112821
0.000107614
0.000102946
9.87737e-05
9.50588e-05
9.1764e-05
8.88543e-05
8.62965e-05
8.40585e-05
8.211e-05
8.04222e-05
7.89678e-05
7.77215e-05
7.66594e-05
7.576e-05
7.50032e-05
7.4371e-05
7.38472e-05
7.34172e-05
7.3068e-05
7.27882e-05
7.25676e-05
7.23972e-05
7.22692e-05
7.21768e-05
7.21141e-05
7.20757e-05
7.20573e-05
7.20549e-05
7.20648e-05
7.20848e-05
7.2112e-05
7.21445e-05
7.21804e-05
7.22182e-05
7.22566e-05
7.22946e-05
7.23313e-05
7.23661e-05
7.23984e-05
7.24278e-05
7.2454e-05
7.24768e-05
7.24961e-05
7.25117e-05
7.25237e-05
7.25322e-05
7.25373e-05
7.2539e-05
7.25376e-05
7.25333e-05
7.25262e-05
7.25167e-05
7.25048e-05
7.2491e-05
7.24753e-05
7.24581e-05
7.24396e-05
7.24201e-05
7.23998e-05
7.2379e-05
7.23579e-05
7.23368e-05
7.23159e-05
7.22954e-05
7.22757e-05
7.2257e-05
7.22395e-05
7.22236e-05
7.22095e-05
7.21975e-05
7.21879e-05
7.21809e-05
7.21769e-05
0.000939666
0.000835638
0.000745734
0.000667784
0.00059998
0.000540813
0.00048902
0.000443541
0.000403484
0.000368098
0.000336746
0.000308892
0.000284077
0.000261913
0.000242069
0.000224261
0.000208248
0.000193823
0.000180807
0.000169048
0.000158415
0.000148794
0.000140088
0.000132212
0.000125092
0.000118664
0.000112872
0.000107663
0.000102992
9.88174e-05
9.50993e-05
9.18011e-05
8.88878e-05
8.63262e-05
8.40844e-05
8.21322e-05
8.04408e-05
7.8983e-05
7.77334e-05
7.66684e-05
7.57662e-05
7.5007e-05
7.43727e-05
7.38471e-05
7.34155e-05
7.30649e-05
7.2784e-05
7.25624e-05
7.23913e-05
7.22627e-05
7.21699e-05
7.21069e-05
7.20683e-05
7.20498e-05
7.20473e-05
7.20572e-05
7.20773e-05
7.21047e-05
7.21373e-05
7.21734e-05
7.22114e-05
7.225e-05
7.22882e-05
7.23252e-05
7.23602e-05
7.23928e-05
7.24224e-05
7.24488e-05
7.24719e-05
7.24913e-05
7.25072e-05
7.25194e-05
7.25282e-05
7.25334e-05
7.25354e-05
7.25342e-05
7.25301e-05
7.25232e-05
7.25139e-05
7.25023e-05
7.24886e-05
7.24732e-05
7.24562e-05
7.2438e-05
7.24187e-05
7.23986e-05
7.2378e-05
7.23572e-05
7.23363e-05
7.23156e-05
7.22954e-05
7.22759e-05
7.22574e-05
7.22402e-05
7.22244e-05
7.22104e-05
7.21986e-05
7.2189e-05
7.21821e-05
7.21781e-05
0.000939666
0.00083564
0.000745739
0.000667791
0.00059999
0.000540827
0.000489037
0.000443562
0.000403508
0.000368125
0.000336777
0.000308926
0.000284114
0.000261953
0.000242112
0.000224307
0.000208297
0.000193873
0.000180859
0.000169102
0.00015847
0.00014885
0.000140144
0.000132268
0.000125147
0.000118719
0.000112924
0.000107714
0.00010304
9.88628e-05
9.51414e-05
9.18396e-05
8.89225e-05
8.6357e-05
8.41113e-05
8.21552e-05
8.04599e-05
7.89985e-05
7.77455e-05
7.66774e-05
7.57724e-05
7.50107e-05
7.43741e-05
7.38465e-05
7.34132e-05
7.30613e-05
7.27791e-05
7.25565e-05
7.23846e-05
7.22555e-05
7.21622e-05
7.20988e-05
7.206e-05
7.20414e-05
7.20389e-05
7.20488e-05
7.2069e-05
7.20965e-05
7.21293e-05
7.21655e-05
7.22037e-05
7.22426e-05
7.22811e-05
7.23183e-05
7.23536e-05
7.23864e-05
7.24163e-05
7.24429e-05
7.24662e-05
7.24859e-05
7.2502e-05
7.25145e-05
7.25235e-05
7.2529e-05
7.25312e-05
7.25303e-05
7.25264e-05
7.25198e-05
7.25106e-05
7.24993e-05
7.24859e-05
7.24707e-05
7.24539e-05
7.2436e-05
7.24169e-05
7.23971e-05
7.23768e-05
7.23562e-05
7.23356e-05
7.23152e-05
7.22952e-05
7.22759e-05
7.22577e-05
7.22406e-05
7.22251e-05
7.22113e-05
7.21995e-05
7.21901e-05
7.21833e-05
7.21792e-05
0.000939667
0.000835643
0.000745743
0.000667798
0.0006
0.00054084
0.000489054
0.000443582
0.000403532
0.000368153
0.000336808
0.00030896
0.000284152
0.000261994
0.000242156
0.000224353
0.000208345
0.000193924
0.000180912
0.000169157
0.000158526
0.000148906
0.000140201
0.000132325
0.000125204
0.000118774
0.000112979
0.000107766
0.00010309
9.89095e-05
9.51847e-05
9.18793e-05
8.89583e-05
8.63887e-05
8.41389e-05
8.21787e-05
8.04795e-05
7.90144e-05
7.77579e-05
7.66865e-05
7.57785e-05
7.50141e-05
7.43752e-05
7.38455e-05
7.34105e-05
7.3057e-05
7.27736e-05
7.255e-05
7.23772e-05
7.22474e-05
7.21536e-05
7.20899e-05
7.20509e-05
7.20321e-05
7.20296e-05
7.20395e-05
7.20597e-05
7.20874e-05
7.21204e-05
7.21568e-05
7.21953e-05
7.22344e-05
7.22731e-05
7.23106e-05
7.23462e-05
7.23792e-05
7.24094e-05
7.24364e-05
7.24599e-05
7.24799e-05
7.24962e-05
7.2509e-05
7.25183e-05
7.2524e-05
7.25265e-05
7.25258e-05
7.25222e-05
7.25158e-05
7.2507e-05
7.24959e-05
7.24827e-05
7.24678e-05
7.24513e-05
7.24336e-05
7.24149e-05
7.23954e-05
7.23753e-05
7.2355e-05
7.23346e-05
7.23145e-05
7.22948e-05
7.22758e-05
7.22577e-05
7.22409e-05
7.22256e-05
7.22119e-05
7.22003e-05
7.2191e-05
7.21842e-05
7.21802e-05
0.000939667
0.000835645
0.000745747
0.000667804
0.000600009
0.000540852
0.00048907
0.000443601
0.000403555
0.000368179
0.000336839
0.000308994
0.000284189
0.000262035
0.000242199
0.0002244
0.000208395
0.000193976
0.000180966
0.000169212
0.000158582
0.000148964
0.000140259
0.000132383
0.000125262
0.000118831
0.000113034
0.000107819
0.000103141
9.89572e-05
9.5229e-05
9.19197e-05
8.89947e-05
8.6421e-05
8.4167e-05
8.22026e-05
8.04994e-05
7.90304e-05
7.77703e-05
7.66955e-05
7.57845e-05
7.50173e-05
7.4376e-05
7.38442e-05
7.34072e-05
7.30522e-05
7.27674e-05
7.25428e-05
7.23691e-05
7.22386e-05
7.21443e-05
7.20802e-05
7.20409e-05
7.2022e-05
7.20194e-05
7.20294e-05
7.20497e-05
7.20775e-05
7.21107e-05
7.21474e-05
7.2186e-05
7.22254e-05
7.22644e-05
7.23022e-05
7.2338e-05
7.23714e-05
7.24019e-05
7.24291e-05
7.24529e-05
7.24732e-05
7.24899e-05
7.25029e-05
7.25124e-05
7.25185e-05
7.25213e-05
7.25209e-05
7.25175e-05
7.25114e-05
7.25029e-05
7.2492e-05
7.24792e-05
7.24645e-05
7.24484e-05
7.2431e-05
7.24125e-05
7.23933e-05
7.23735e-05
7.23535e-05
7.23334e-05
7.23136e-05
7.22941e-05
7.22754e-05
7.22576e-05
7.2241e-05
7.22259e-05
7.22124e-05
7.2201e-05
7.21918e-05
7.21851e-05
7.21811e-05
0.000939668
0.000835647
0.000745751
0.000667811
0.000600018
0.000540864
0.000489085
0.00044362
0.000403577
0.000368205
0.000336868
0.000309027
0.000284226
0.000262075
0.000242242
0.000224446
0.000208444
0.000194028
0.00018102
0.000169268
0.00015864
0.000149023
0.000140318
0.000132442
0.000125321
0.000118889
0.00011309
0.000107873
0.000103192
9.90056e-05
9.52739e-05
9.19608e-05
8.90318e-05
8.64538e-05
8.41955e-05
8.22269e-05
8.05195e-05
7.90465e-05
7.77827e-05
7.67045e-05
7.57903e-05
7.50203e-05
7.43765e-05
7.38424e-05
7.34036e-05
7.30469e-05
7.27608e-05
7.25349e-05
7.23604e-05
7.22292e-05
7.21343e-05
7.20698e-05
7.20303e-05
7.20112e-05
7.20085e-05
7.20185e-05
7.20389e-05
7.20669e-05
7.21002e-05
7.21371e-05
7.2176e-05
7.22157e-05
7.2255e-05
7.2293e-05
7.23292e-05
7.23629e-05
7.23936e-05
7.24212e-05
7.24453e-05
7.24659e-05
7.24829e-05
7.24963e-05
7.25061e-05
7.25125e-05
7.25155e-05
7.25154e-05
7.25124e-05
7.25066e-05
7.24983e-05
7.24878e-05
7.24753e-05
7.24609e-05
7.24451e-05
7.2428e-05
7.24098e-05
7.23909e-05
7.23715e-05
7.23518e-05
7.2332e-05
7.23124e-05
7.22933e-05
7.22748e-05
7.22573e-05
7.2241e-05
7.2226e-05
7.22128e-05
7.22015e-05
7.21924e-05
7.21857e-05
7.21818e-05
0.000939668
0.000835649
0.000745754
0.000667816
0.000600027
0.000540876
0.0004891
0.000443638
0.000403599
0.000368231
0.000336897
0.00030906
0.000284262
0.000262114
0.000242285
0.000224492
0.000208493
0.000194079
0.000181074
0.000169324
0.000158697
0.000149081
0.000140378
0.000132502
0.00012538
0.000118947
0.000113147
0.000107928
0.000103244
9.90544e-05
9.53192e-05
9.20022e-05
8.90691e-05
8.64868e-05
8.42242e-05
8.22513e-05
8.05397e-05
7.90627e-05
7.77951e-05
7.67134e-05
7.5796e-05
7.50231e-05
7.43766e-05
7.38403e-05
7.33995e-05
7.30411e-05
7.27536e-05
7.25266e-05
7.23511e-05
7.22191e-05
7.21237e-05
7.20587e-05
7.20189e-05
7.19996e-05
7.19969e-05
7.20069e-05
7.20274e-05
7.20555e-05
7.2089e-05
7.21262e-05
7.21653e-05
7.22053e-05
7.22448e-05
7.22832e-05
7.23197e-05
7.23537e-05
7.23848e-05
7.24127e-05
7.24372e-05
7.24581e-05
7.24754e-05
7.24891e-05
7.24992e-05
7.25059e-05
7.25093e-05
7.25095e-05
7.25068e-05
7.25014e-05
7.24934e-05
7.24832e-05
7.2471e-05
7.2457e-05
7.24414e-05
7.24247e-05
7.24068e-05
7.23883e-05
7.23691e-05
7.23497e-05
7.23303e-05
7.2311e-05
7.22922e-05
7.2274e-05
7.22568e-05
7.22407e-05
7.2226e-05
7.22129e-05
7.22017e-05
7.21928e-05
7.21862e-05
7.21823e-05
0.000939669
0.00083565
0.000745758
0.000667822
0.000600035
0.000540887
0.000489114
0.000443656
0.00040362
0.000368255
0.000336925
0.000309092
0.000284297
0.000262153
0.000242328
0.000224538
0.000208541
0.00019413
0.000181127
0.000169379
0.000158754
0.00014914
0.000140437
0.000132561
0.000125439
0.000119005
0.000113203
0.000107982
0.000103296
9.91033e-05
9.53646e-05
9.20438e-05
8.91065e-05
8.652e-05
8.4253e-05
8.22757e-05
8.05599e-05
7.90788e-05
7.78073e-05
7.67221e-05
7.58014e-05
7.50255e-05
7.43764e-05
7.38378e-05
7.3395e-05
7.30349e-05
7.27459e-05
7.25177e-05
7.23412e-05
7.22085e-05
7.21124e-05
7.2047e-05
7.20069e-05
7.19875e-05
7.19847e-05
7.19947e-05
7.20153e-05
7.20435e-05
7.20772e-05
7.21146e-05
7.2154e-05
7.21942e-05
7.22341e-05
7.22728e-05
7.23096e-05
7.2344e-05
7.23754e-05
7.24036e-05
7.24285e-05
7.24497e-05
7.24674e-05
7.24814e-05
7.24919e-05
7.24989e-05
7.25026e-05
7.25032e-05
7.25008e-05
7.24957e-05
7.24881e-05
7.24782e-05
7.24663e-05
7.24527e-05
7.24375e-05
7.2421e-05
7.24036e-05
7.23853e-05
7.23665e-05
7.23475e-05
7.23284e-05
7.23094e-05
7.22909e-05
7.2273e-05
7.2256e-05
7.22402e-05
7.22257e-05
7.22128e-05
7.22018e-05
7.2193e-05
7.21865e-05
7.21826e-05
0.000939669
0.000835652
0.000745761
0.000667827
0.000600043
0.000540897
0.000489127
0.000443672
0.00040364
0.000368279
0.000336953
0.000309123
0.000284332
0.000262191
0.000242369
0.000224583
0.000208589
0.000194181
0.00018118
0.000169434
0.000158811
0.000149198
0.000140496
0.00013262
0.000125498
0.000119063
0.00011326
0.000108037
0.000103348
9.91522e-05
9.541e-05
9.20853e-05
8.91439e-05
8.65531e-05
8.42817e-05
8.23001e-05
8.058e-05
7.90948e-05
7.78195e-05
7.67306e-05
7.58066e-05
7.50278e-05
7.4376e-05
7.3835e-05
7.33902e-05
7.30283e-05
7.27378e-05
7.25084e-05
7.23309e-05
7.21973e-05
7.21007e-05
7.20348e-05
7.19944e-05
7.19748e-05
7.19719e-05
7.19819e-05
7.20025e-05
7.20309e-05
7.20648e-05
7.21024e-05
7.21421e-05
7.21826e-05
7.22228e-05
7.22618e-05
7.2299e-05
7.23337e-05
7.23655e-05
7.23941e-05
7.24192e-05
7.24409e-05
7.24589e-05
7.24732e-05
7.24841e-05
7.24915e-05
7.24955e-05
7.24964e-05
7.24944e-05
7.24897e-05
7.24824e-05
7.24729e-05
7.24613e-05
7.2448e-05
7.24332e-05
7.24171e-05
7.24e-05
7.23821e-05
7.23637e-05
7.23449e-05
7.23262e-05
7.23075e-05
7.22893e-05
7.22718e-05
7.2255e-05
7.22394e-05
7.22252e-05
7.22125e-05
7.22017e-05
7.2193e-05
7.21866e-05
7.21827e-05
0.00093967
0.000835654
0.000745764
0.000667833
0.00060005
0.000540907
0.00048914
0.000443689
0.00040366
0.000368302
0.00033698
0.000309153
0.000284366
0.000262229
0.00024241
0.000224626
0.000208636
0.000194231
0.000181232
0.000169489
0.000158867
0.000149255
0.000140554
0.000132679
0.000125556
0.000119121
0.000113316
0.000108091
0.0001034
9.92007e-05
9.54551e-05
9.21266e-05
8.91811e-05
8.6586e-05
8.43102e-05
8.23243e-05
8.05999e-05
7.91107e-05
7.78314e-05
7.67389e-05
7.58116e-05
7.50298e-05
7.43753e-05
7.38319e-05
7.3385e-05
7.30214e-05
7.27294e-05
7.24987e-05
7.23202e-05
7.21858e-05
7.20885e-05
7.20221e-05
7.19814e-05
7.19615e-05
7.19586e-05
7.19686e-05
7.19893e-05
7.20178e-05
7.20519e-05
7.20897e-05
7.21297e-05
7.21704e-05
7.2211e-05
7.22503e-05
7.22878e-05
7.23229e-05
7.2355e-05
7.2384e-05
7.24095e-05
7.24315e-05
7.24499e-05
7.24647e-05
7.24759e-05
7.24836e-05
7.24881e-05
7.24893e-05
7.24877e-05
7.24833e-05
7.24764e-05
7.24672e-05
7.2456e-05
7.24431e-05
7.24286e-05
7.24129e-05
7.23961e-05
7.23786e-05
7.23605e-05
7.23422e-05
7.23237e-05
7.23054e-05
7.22875e-05
7.22703e-05
7.22538e-05
7.22385e-05
7.22245e-05
7.2212e-05
7.22013e-05
7.21927e-05
7.21864e-05
7.21826e-05
0.00093967
0.000835655
0.000745767
0.000667837
0.000600057
0.000540917
0.000489153
0.000443704
0.000403679
0.000368325
0.000337005
0.000309183
0.000284399
0.000262265
0.00024245
0.000224669
0.000208682
0.000194279
0.000181284
0.000169542
0.000158923
0.000149312
0.000140611
0.000132737
0.000125614
0.000119177
0.000113371
0.000108144
0.000103451
9.92487e-05
9.54997e-05
9.21674e-05
8.92178e-05
8.66185e-05
8.43385e-05
8.23482e-05
8.06196e-05
7.91262e-05
7.78431e-05
7.6747e-05
7.58164e-05
7.50315e-05
7.43743e-05
7.38286e-05
7.33795e-05
7.30141e-05
7.27206e-05
7.24886e-05
7.2309e-05
7.21738e-05
7.20759e-05
7.20091e-05
7.19679e-05
7.19479e-05
7.19448e-05
7.19548e-05
7.19756e-05
7.20042e-05
7.20385e-05
7.20765e-05
7.21168e-05
7.21578e-05
7.21987e-05
7.22384e-05
7.22763e-05
7.23117e-05
7.23442e-05
7.23735e-05
7.23994e-05
7.24218e-05
7.24405e-05
7.24557e-05
7.24673e-05
7.24754e-05
7.24802e-05
7.24818e-05
7.24806e-05
7.24765e-05
7.247e-05
7.24612e-05
7.24504e-05
7.24378e-05
7.24238e-05
7.24084e-05
7.2392e-05
7.23748e-05
7.23571e-05
7.23391e-05
7.2321e-05
7.23031e-05
7.22855e-05
7.22686e-05
7.22524e-05
7.22373e-05
7.22235e-05
7.22113e-05
7.22008e-05
7.21923e-05
7.21861e-05
7.21822e-05
0.000939671
0.000835657
0.00074577
0.000667842
0.000600064
0.000540926
0.000489165
0.000443719
0.000403697
0.000368346
0.00033703
0.000309211
0.000284431
0.000262301
0.000242488
0.000224711
0.000208727
0.000194327
0.000181334
0.000169594
0.000158977
0.000149367
0.000140668
0.000132793
0.00012567
0.000119233
0.000113426
0.000108197
0.000103501
9.92961e-05
9.55437e-05
9.22077e-05
8.92541e-05
8.66506e-05
8.43663e-05
8.23717e-05
8.06389e-05
7.91415e-05
7.78545e-05
7.67548e-05
7.58209e-05
7.5033e-05
7.43731e-05
7.3825e-05
7.33738e-05
7.30066e-05
7.27115e-05
7.24783e-05
7.22976e-05
7.21616e-05
7.2063e-05
7.19956e-05
7.19542e-05
7.19339e-05
7.19307e-05
7.19406e-05
7.19615e-05
7.19902e-05
7.20247e-05
7.2063e-05
7.21035e-05
7.21449e-05
7.2186e-05
7.22261e-05
7.22643e-05
7.23001e-05
7.2333e-05
7.23627e-05
7.2389e-05
7.24117e-05
7.24308e-05
7.24464e-05
7.24583e-05
7.24668e-05
7.2472e-05
7.24741e-05
7.24732e-05
7.24695e-05
7.24634e-05
7.2455e-05
7.24445e-05
7.24323e-05
7.24186e-05
7.24037e-05
7.23877e-05
7.23709e-05
7.23535e-05
7.23359e-05
7.23181e-05
7.23005e-05
7.22833e-05
7.22666e-05
7.22508e-05
7.22359e-05
7.22224e-05
7.22103e-05
7.22e-05
7.21916e-05
7.21855e-05
7.21817e-05
0.000939671
0.000835658
0.000745773
0.000667847
0.000600071
0.000540935
0.000489177
0.000443734
0.000403715
0.000368367
0.000337055
0.000309239
0.000284462
0.000262335
0.000242526
0.000224752
0.00020877
0.000194373
0.000181383
0.000169646
0.00015903
0.000149421
0.000140723
0.000132849
0.000125726
0.000119288
0.000113479
0.000108249
0.00010355
9.93426e-05
9.55869e-05
9.22473e-05
8.92898e-05
8.66822e-05
8.43936e-05
8.23948e-05
8.06579e-05
7.91565e-05
7.78657e-05
7.67624e-05
7.58252e-05
7.50343e-05
7.43717e-05
7.38212e-05
7.33679e-05
7.29989e-05
7.27023e-05
7.24677e-05
7.2286e-05
7.21491e-05
7.20498e-05
7.19819e-05
7.19401e-05
7.19196e-05
7.19162e-05
7.19262e-05
7.19471e-05
7.19759e-05
7.20106e-05
7.20491e-05
7.20899e-05
7.21315e-05
7.2173e-05
7.22134e-05
7.2252e-05
7.22881e-05
7.23214e-05
7.23515e-05
7.23782e-05
7.24013e-05
7.24208e-05
7.24367e-05
7.24491e-05
7.2458e-05
7.24636e-05
7.2466e-05
7.24655e-05
7.24622e-05
7.24565e-05
7.24485e-05
7.24384e-05
7.24266e-05
7.24133e-05
7.23987e-05
7.23831e-05
7.23667e-05
7.23497e-05
7.23324e-05
7.2315e-05
7.22977e-05
7.22808e-05
7.22645e-05
7.22489e-05
7.22344e-05
7.2221e-05
7.22092e-05
7.2199e-05
7.21908e-05
7.21847e-05
7.2181e-05
0.000939671
0.000835659
0.000745776
0.000667851
0.000600077
0.000540944
0.000489188
0.000443748
0.000403732
0.000368387
0.000337078
0.000309265
0.000284492
0.000262368
0.000242562
0.000224792
0.000208813
0.000194419
0.00018143
0.000169695
0.000159081
0.000149474
0.000140777
0.000132903
0.00012578
0.000119342
0.000113532
0.000108299
0.000103599
9.93881e-05
9.56292e-05
9.2286e-05
8.93247e-05
8.6713e-05
8.44204e-05
8.24174e-05
8.06764e-05
7.9171e-05
7.78765e-05
7.67697e-05
7.58292e-05
7.50353e-05
7.43701e-05
7.38172e-05
7.33618e-05
7.2991e-05
7.26928e-05
7.2457e-05
7.22742e-05
7.21364e-05
7.20364e-05
7.19681e-05
7.19258e-05
7.19051e-05
7.19016e-05
7.19115e-05
7.19324e-05
7.19614e-05
7.19962e-05
7.20349e-05
7.2076e-05
7.2118e-05
7.21598e-05
7.22005e-05
7.22394e-05
7.22759e-05
7.23096e-05
7.23401e-05
7.23671e-05
7.23907e-05
7.24106e-05
7.24269e-05
7.24396e-05
7.24489e-05
7.24549e-05
7.24577e-05
7.24576e-05
7.24547e-05
7.24494e-05
7.24417e-05
7.24321e-05
7.24207e-05
7.24077e-05
7.23935e-05
7.23783e-05
7.23622e-05
7.23457e-05
7.23287e-05
7.23117e-05
7.22948e-05
7.22782e-05
7.22621e-05
7.22469e-05
7.22326e-05
7.22195e-05
7.22078e-05
7.21978e-05
7.21897e-05
7.21838e-05
7.218e-05
0.000939672
0.000835661
0.000745778
0.000667855
0.000600083
0.000540952
0.000489198
0.000443761
0.000403748
0.000368406
0.0003371
0.000309291
0.00028452
0.0002624
0.000242598
0.00022483
0.000208854
0.000194462
0.000181477
0.000169743
0.000159131
0.000149526
0.000140829
0.000132956
0.000125832
0.000119394
0.000113583
0.000108349
0.000103646
9.94325e-05
9.56705e-05
9.23239e-05
8.93588e-05
8.67432e-05
8.44465e-05
8.24395e-05
8.06945e-05
7.91852e-05
7.7887e-05
7.67767e-05
7.5833e-05
7.50362e-05
7.43683e-05
7.3813e-05
7.33556e-05
7.2983e-05
7.26833e-05
7.24461e-05
7.22623e-05
7.21236e-05
7.20229e-05
7.1954e-05
7.19115e-05
7.18904e-05
7.18868e-05
7.18966e-05
7.19176e-05
7.19467e-05
7.19817e-05
7.20206e-05
7.20619e-05
7.21042e-05
7.21463e-05
7.21874e-05
7.22267e-05
7.22635e-05
7.22976e-05
7.23284e-05