/*--------------------------------*- C++ -*----------------------------------*\
  =========                 |
  \\      /  F ield         | OpenFOAM: The Open Source CFD Toolbox
   \\    /   O peration     | Website:  https://openfoam.org
    \\  /    A nd           | Version:  11
     \\/     M anipulation  |
\*---------------------------------------------------------------------------*/
FoamFile
{
    format      ascii;
    class       volScalarField;
    location    "26";
    object      nut;
}
// * * * * * * * * * * * * * * * * * * * * * * * * * * * * * * * * * * * * * //

dimensions      [0 2 -1 0 0 0 0];

internalField   nonuniform List<scalar> 
10000
(
0.00097978
0.000946656
0.000919431
0.000898162
0.00088281
0.000873189
0.000868933
0.000869499
0.000874183
0.000882174
0.000892613
0.000904652
0.000917511
0.000930518
0.000943133
0.000954955
0.00096572
0.000975279
0.000983576
0.000990645
0.000996563
0.00100144
0.00100538
0.00100852
0.00101099
0.00101289
0.00101434
0.00101541
0.00101619
0.00101675
0.00101712
0.00101735
0.00101748
0.00101754
0.00101754
0.0010175
0.00101743
0.00101735
0.00101725
0.00101715
0.00101705
0.00101695
0.00101685
0.00101675
0.00101666
0.00101657
0.00101649
0.00101642
0.00101634
0.00101628
0.00101622
0.00101616
0.00101611
0.00101606
0.00101601
0.00101597
0.00101593
0.00101589
0.00101586
0.00101583
0.0010158
0.00101577
0.00101575
0.00101573
0.0010157
0.00101568
0.00101567
0.00101565
0.00101563
0.00101562
0.0010156
0.00101559
0.00101558
0.00101557
0.00101556
0.00101555
0.00101554
0.00101553
0.00101552
0.00101551
0.00101551
0.0010155
0.00101549
0.00101548
0.00101548
0.00101547
0.00101547
0.00101546
0.00101545
0.00101545
0.00101544
0.00101544
0.00101544
0.00101543
0.00101543
0.00101542
0.00101542
0.00101542
0.00101542
0.00101542
0.000979774
0.000946648
0.000919422
0.00089815
0.000882793
0.000873166
0.000868904
0.000869463
0.000874141
0.000882127
0.000892562
0.000904599
0.000917457
0.000930466
0.000943083
0.000954911
0.000965681
0.000975247
0.000983555
0.000990633
0.000996555
0.00100143
0.00100537
0.00100852
0.00101099
0.00101289
0.00101434
0.00101542
0.0010162
0.00101676
0.00101713
0.00101736
0.0010175
0.00101755
0.00101755
0.00101751
0.00101745
0.00101736
0.00101727
0.00101716
0.00101706
0.00101696
0.00101686
0.00101676
0.00101667
0.00101658
0.0010165
0.00101642
0.00101635
0.00101628
0.00101622
0.00101617
0.00101611
0.00101606
0.00101602
0.00101597
0.00101593
0.0010159
0.00101586
0.00101583
0.0010158
0.00101578
0.00101575
0.00101573
0.00101571
0.00101569
0.00101567
0.00101565
0.00101564
0.00101562
0.00101561
0.00101559
0.00101558
0.00101557
0.00101556
0.00101555
0.00101554
0.00101553
0.00101552
0.00101551
0.00101551
0.0010155
0.00101549
0.00101549
0.00101548
0.00101547
0.00101547
0.00101546
0.00101546
0.00101545
0.00101544
0.00101544
0.00101544
0.00101543
0.00101543
0.00101543
0.00101542
0.00101542
0.00101542
0.00101542
0.000979765
0.000946635
0.000919405
0.000898125
0.000882758
0.000873117
0.00086884
0.000869383
0.000874045
0.000882018
0.000892442
0.000904471
0.000917326
0.000930334
0.000942955
0.000954789
0.000965568
0.000975143
0.000983465
0.000990555
0.000996488
0.00100137
0.00100533
0.00100848
0.00101096
0.00101287
0.00101433
0.00101541
0.0010162
0.00101675
0.00101713
0.00101737
0.0010175
0.00101756
0.00101756
0.00101753
0.00101746
0.00101737
0.00101728
0.00101718
0.00101707
0.00101697
0.00101687
0.00101677
0.00101668
0.00101659
0.00101651
0.00101643
0.00101636
0.0010163
0.00101623
0.00101618
0.00101612
0.00101607
0.00101602
0.00101598
0.00101594
0.00101591
0.00101587
0.00101584
0.00101581
0.00101578
0.00101576
0.00101573
0.00101571
0.00101569
0.00101567
0.00101566
0.00101564
0.00101562
0.00101561
0.0010156
0.00101558
0.00101557
0.00101556
0.00101555
0.00101554
0.00101553
0.00101552
0.00101552
0.00101551
0.0010155
0.00101549
0.00101549
0.00101548
0.00101547
0.00101547
0.00101546
0.00101546
0.00101545
0.00101545
0.00101544
0.00101544
0.00101543
0.00101543
0.00101543
0.00101542
0.00101542
0.00101542
0.00101542
0.000979757
0.000946619
0.000919382
0.000898092
0.000882709
0.000873049
0.00086875
0.00086927
0.000873909
0.000881861
0.000892268
0.000904284
0.000917132
0.000930138
0.000942762
0.000954603
0.000965393
0.000974983
0.000983321
0.000990427
0.000996377
0.00100128
0.00100525
0.00100841
0.0010109
0.00101283
0.00101429
0.00101538
0.00101618
0.00101674
0.00101712
0.00101737
0.00101751
0.00101757
0.00101757
0.00101753
0.00101747
0.00101739
0.00101729
0.00101719
0.00101709
0.00101699
0.00101689
0.00101679
0.0010167
0.00101661
0.00101653
0.00101645
0.00101638
0.00101631
0.00101625
0.00101619
0.00101613
0.00101608
0.00101604
0.00101599
0.00101595
0.00101592
0.00101588
0.00101585
0.00101582
0.00101579
0.00101577
0.00101574
0.00101572
0.0010157
0.00101568
0.00101566
0.00101565
0.00101563
0.00101562
0.0010156
0.00101559
0.00101558
0.00101557
0.00101556
0.00101555
0.00101554
0.00101553
0.00101552
0.00101551
0.0010155
0.0010155
0.00101549
0.00101548
0.00101548
0.00101547
0.00101546
0.00101546
0.00101545
0.00101545
0.00101544
0.00101544
0.00101543
0.00101543
0.00101543
0.00101542
0.00101542
0.00101542
0.00101542
0.000979749
0.000946601
0.000919354
0.000898052
0.000882651
0.000872969
0.000868643
0.000869134
0.000873745
0.00088167
0.000892054
0.000904053
0.00091689
0.000929892
0.000942518
0.000954368
0.000965171
0.000974777
0.000983133
0.00099026
0.000996229
0.00100115
0.00100514
0.00100832
0.00101083
0.00101277
0.00101424
0.00101535
0.00101615
0.00101672
0.00101711
0.00101736
0.0010175
0.00101757
0.00101758
0.00101754
0.00101748
0.0010174
0.00101731
0.00101721
0.00101711
0.001017
0.0010169
0.00101681
0.00101671
0.00101663
0.00101654
0.00101646
0.00101639
0.00101632
0.00101626
0.0010162
0.00101615
0.0010161
0.00101605
0.001016
0.00101596
0.00101593
0.00101589
0.00101586
0.00101583
0.0010158
0.00101577
0.00101575
0.00101573
0.00101571
0.00101569
0.00101567
0.00101565
0.00101564
0.00101562
0.00101561
0.00101559
0.00101558
0.00101557
0.00101556
0.00101555
0.00101554
0.00101553
0.00101552
0.00101552
0.00101551
0.0010155
0.00101549
0.00101549
0.00101548
0.00101547
0.00101547
0.00101546
0.00101546
0.00101545
0.00101545
0.00101544
0.00101544
0.00101543
0.00101543
0.00101543
0.00101542
0.00101542
0.00101542
0.000979742
0.000946582
0.000919323
0.000898006
0.000882586
0.000872878
0.000868523
0.000868981
0.000873559
0.000881452
0.000891809
0.000903787
0.00091661
0.000929605
0.000942233
0.000954091
0.000964907
0.000974531
0.000982908
0.000990057
0.00099605
0.00100099
0.001005
0.00100821
0.00101073
0.00101269
0.00101418
0.0010153
0.00101611
0.00101669
0.00101709
0.00101735
0.0010175
0.00101757
0.00101758
0.00101755
0.00101749
0.00101741
0.00101732
0.00101722
0.00101712
0.00101702
0.00101692
0.00101682
0.00101673
0.00101664
0.00101656
0.00101648
0.00101641
0.00101634
0.00101628
0.00101622
0.00101616
0.00101611
0.00101606
0.00101602
0.00101598
0.00101594
0.0010159
0.00101587
0.00101584
0.00101581
0.00101578
0.00101576
0.00101574
0.00101571
0.0010157
0.00101568
0.00101566
0.00101564
0.00101563
0.00101561
0.0010156
0.00101559
0.00101558
0.00101557
0.00101556
0.00101555
0.00101554
0.00101553
0.00101552
0.00101551
0.0010155
0.0010155
0.00101549
0.00101548
0.00101548
0.00101547
0.00101546
0.00101546
0.00101545
0.00101545
0.00101544
0.00101544
0.00101543
0.00101543
0.00101543
0.00101543
0.00101542
0.00101542
0.000979735
0.000946562
0.00091929
0.000897956
0.000882515
0.000872781
0.000868393
0.000868816
0.000873357
0.000881215
0.000891541
0.000903495
0.0009163
0.000929287
0.000941915
0.000953779
0.00096461
0.000974252
0.000982651
0.000989825
0.000995843
0.00100081
0.00100484
0.00100807
0.00101062
0.00101259
0.0010141
0.00101523
0.00101606
0.00101666
0.00101706
0.00101733
0.00101748
0.00101756
0.00101758
0.00101755
0.0010175
0.00101742
0.00101733
0.00101723
0.00101713
0.00101703
0.00101693
0.00101684
0.00101675
0.00101666
0.00101658
0.0010165
0.00101642
0.00101636
0.00101629
0.00101623
0.00101618
0.00101612
0.00101608
0.00101603
0.00101599
0.00101595
0.00101591
0.00101588
0.00101585
0.00101582
0.00101579
0.00101577
0.00101575
0.00101572
0.0010157
0.00101568
0.00101567
0.00101565
0.00101563
0.00101562
0.00101561
0.00101559
0.00101558
0.00101557
0.00101556
0.00101555
0.00101554
0.00101553
0.00101552
0.00101552
0.00101551
0.0010155
0.00101549
0.00101549
0.00101548
0.00101547
0.00101547
0.00101546
0.00101546
0.00101545
0.00101545
0.00101544
0.00101544
0.00101543
0.00101543
0.00101543
0.00101543
0.00101543
0.000979728
0.000946542
0.000919255
0.000897904
0.000882441
0.000872678
0.000868257
0.000868642
0.000873144
0.000880965
0.000891257
0.000903183
0.000915968
0.000928945
0.00094157
0.000953441
0.000964285
0.000973947
0.000982369
0.000989568
0.000995613
0.00100061
0.00100467
0.00100792
0.00101049
0.00101248
0.00101401
0.00101516
0.001016
0.00101661
0.00101703
0.0010173
0.00101746
0.00101755
0.00101757
0.00101755
0.0010175
0.00101742
0.00101734
0.00101724
0.00101715
0.00101705
0.00101695
0.00101685
0.00101676
0.00101667
0.00101659
0.00101651
0.00101644
0.00101637
0.00101631
0.00101625
0.00101619
0.00101614
0.00101609
0.00101604
0.001016
0.00101596
0.00101593
0.00101589
0.00101586
0.00101583
0.0010158
0.00101578
0.00101575
0.00101573
0.00101571
0.00101569
0.00101567
0.00101566
0.00101564
0.00101563
0.00101561
0.0010156
0.00101559
0.00101558
0.00101557
0.00101556
0.00101555
0.00101554
0.00101553
0.00101552
0.00101551
0.0010155
0.0010155
0.00101549
0.00101548
0.00101548
0.00101547
0.00101546
0.00101546
0.00101545
0.00101545
0.00101544
0.00101544
0.00101543
0.00101543
0.00101543
0.00101543
0.00101543
0.000979721
0.000946521
0.00091922
0.00089785
0.000882364
0.000872572
0.000868117
0.000868464
0.000872925
0.000880706
0.000890962
0.000902857
0.000915621
0.000928585
0.000941207
0.000953083
0.00096394
0.000973621
0.000982067
0.000989292
0.000995364
0.00100038
0.00100447
0.00100775
0.00101034
0.00101236
0.00101391
0.00101507
0.00101593
0.00101655
0.00101698
0.00101727
0.00101744
0.00101753
0.00101756
0.00101754
0.00101749
0.00101742
0.00101734
0.00101725
0.00101715
0.00101706
0.00101696
0.00101687
0.00101677
0.00101669
0.00101661
0.00101653
0.00101645
0.00101638
0.00101632
0.00101626
0.0010162
0.00101615
0.0010161
0.00101606
0.00101601
0.00101597
0.00101594
0.0010159
0.00101587
0.00101584
0.00101581
0.00101579
0.00101576
0.00101574
0.00101572
0.0010157
0.00101568
0.00101566
0.00101565
0.00101563
0.00101562
0.00101561
0.00101559
0.00101558
0.00101557
0.00101556
0.00101555
0.00101554
0.00101553
0.00101552
0.00101551
0.00101551
0.0010155
0.00101549
0.00101549
0.00101548
0.00101547
0.00101547
0.00101546
0.00101545
0.00101545
0.00101544
0.00101544
0.00101544
0.00101543
0.00101543
0.00101543
0.00101543
0.000979715
0.000946501
0.000919184
0.000897796
0.000882286
0.000872465
0.000867975
0.000868283
0.000872703
0.000880442
0.00089066
0.000902524
0.000915264
0.000928213
0.000940831
0.000952711
0.00096358
0.000973279
0.000981748
0.000989
0.0009951
0.00100015
0.00100426
0.00100757
0.00101019
0.00101223
0.00101379
0.00101498
0.00101585
0.00101649
0.00101693
0.00101722
0.00101741
0.0010175
0.00101754
0.00101753
0.00101749
0.00101742
0.00101734
0.00101725
0.00101716
0.00101706
0.00101697
0.00101687
0.00101678
0.0010167
0.00101662
0.00101654
0.00101647
0.0010164
0.00101633
0.00101627
0.00101622
0.00101616
0.00101611
0.00101607
0.00101602
0.00101598
0.00101595
0.00101591
0.00101588
0.00101585
0.00101582
0.00101579
0.00101577
0.00101575
0.00101573
0.00101571
0.00101569
0.00101567
0.00101565
0.00101564
0.00101562
0.00101561
0.0010156
0.00101559
0.00101557
0.00101556
0.00101555
0.00101554
0.00101554
0.00101553
0.00101552
0.00101551
0.0010155
0.0010155
0.00101549
0.00101548
0.00101547
0.00101547
0.00101546
0.00101546
0.00101545
0.00101545
0.00101544
0.00101544
0.00101544
0.00101543
0.00101543
0.00101543
0.000979709
0.000946482
0.000919149
0.000897742
0.000882209
0.000872359
0.000867834
0.000868102
0.00087248
0.000880178
0.000890357
0.000902188
0.000914904
0.000927837
0.000940448
0.000952331
0.00096321
0.000972927
0.000981419
0.000988696
0.000994824
0.000999902
0.00100404
0.00100738
0.00101002
0.00101208
0.00101367
0.00101487
0.00101577
0.00101641
0.00101687
0.00101718
0.00101737
0.00101747
0.00101752
0.00101751
0.00101747
0.00101741
0.00101734
0.00101725
0.00101716
0.00101707
0.00101697
0.00101688
0.00101679
0.00101671
0.00101663
0.00101655
0.00101648
0.00101641
0.00101634
0.00101628
0.00101623
0.00101617
0.00101612
0.00101608
0.00101603
0.00101599
0.00101596
0.00101592
0.00101589
0.00101586
0.00101583
0.0010158
0.00101578
0.00101575
0.00101573
0.00101571
0.00101569
0.00101568
0.00101566
0.00101564
0.00101563
0.00101561
0.0010156
0.00101559
0.00101558
0.00101557
0.00101556
0.00101555
0.00101554
0.00101553
0.00101552
0.00101551
0.0010155
0.0010155
0.00101549
0.00101548
0.00101548
0.00101547
0.00101546
0.00101546
0.00101545
0.00101545
0.00101544
0.00101544
0.00101544
0.00101543
0.00101543
0.00101543
0.000979703
0.000946463
0.000919115
0.000897689
0.000882132
0.000872254
0.000867695
0.000867924
0.00087226
0.000879917
0.000890057
0.000901855
0.000914544
0.000927459
0.000940062
0.000951947
0.000962836
0.000972569
0.000981082
0.000988385
0.00099454
0.000999646
0.00100382
0.00100718
0.00100984
0.00101193
0.00101354
0.00101476
0.00101567
0.00101633
0.0010168
0.00101712
0.00101732
0.00101744
0.00101749
0.00101749
0.00101746
0.0010174
0.00101733
0.00101725
0.00101716
0.00101707
0.00101697
0.00101688
0.0010168
0.00101671
0.00101663
0.00101656
0.00101648
0.00101642
0.00101635
0.00101629
0.00101623
0.00101618
0.00101613
0.00101609
0.00101604
0.001016
0.00101596
0.00101593
0.0010159
0.00101586
0.00101584
0.00101581
0.00101578
0.00101576
0.00101574
0.00101572
0.0010157
0.00101568
0.00101566
0.00101565
0.00101563
0.00101562
0.00101561
0.00101559
0.00101558
0.00101557
0.00101556
0.00101555
0.00101554
0.00101553
0.00101552
0.00101551
0.00101551
0.0010155
0.00101549
0.00101549
0.00101548
0.00101547
0.00101547
0.00101546
0.00101545
0.00101545
0.00101545
0.00101544
0.00101544
0.00101544
0.00101543
0.00101543
0.000979698
0.000946445
0.000919082
0.000897638
0.000882058
0.000872151
0.000867559
0.00086775
0.000872045
0.00087966
0.000889762
0.000901525
0.000914187
0.000927085
0.000939679
0.000951563
0.00096246
0.000972209
0.000980742
0.000988069
0.000994252
0.000999385
0.00100358
0.00100697
0.00100966
0.00101177
0.0010134
0.00101464
0.00101557
0.00101625
0.00101673
0.00101706
0.00101727
0.0010174
0.00101745
0.00101746
0.00101743
0.00101738
0.00101731
0.00101724
0.00101715
0.00101706
0.00101697
0.00101688
0.0010168
0.00101672
0.00101664
0.00101656
0.00101649
0.00101642
0.00101636
0.0010163
0.00101624
0.00101619
0.00101614
0.00101609
0.00101605
0.00101601
0.00101597
0.00101593
0.0010159
0.00101587
0.00101584
0.00101581
0.00101579
0.00101576
0.00101574
0.00101572
0.0010157
0.00101568
0.00101567
0.00101565
0.00101564
0.00101562
0.00101561
0.0010156
0.00101558
0.00101557
0.00101556
0.00101555
0.00101554
0.00101553
0.00101552
0.00101552
0.00101551
0.0010155
0.00101549
0.00101549
0.00101548
0.00101547
0.00101547
0.00101546
0.00101546
0.00101545
0.00101545
0.00101544
0.00101544
0.00101544
0.00101543
0.00101543
0.000979693
0.000946428
0.00091905
0.000897588
0.000881986
0.000872052
0.000867427
0.000867581
0.000871837
0.000879411
0.000889474
0.000901203
0.000913838
0.000926717
0.0009393
0.000951183
0.000962087
0.00097185
0.000980403
0.000987753
0.000993961
0.000999121
0.00100335
0.00100676
0.00100947
0.00101161
0.00101326
0.00101452
0.00101547
0.00101616
0.00101665
0.00101699
0.00101722
0.00101735
0.00101741
0.00101743
0.00101741
0.00101736
0.0010173
0.00101722
0.00101714
0.00101705
0.00101697
0.00101688
0.0010168
0.00101671
0.00101664
0.00101656
0.00101649
0.00101642
0.00101636
0.0010163
0.00101624
0.00101619
0.00101614
0.0010161
0.00101605
0.00101601
0.00101597
0.00101594
0.00101591
0.00101587
0.00101585
0.00101582
0.00101579
0.00101577
0.00101575
0.00101572
0.00101571
0.00101569
0.00101567
0.00101565
0.00101564
0.00101562
0.00101561
0.0010156
0.00101559
0.00101557
0.00101556
0.00101555
0.00101554
0.00101553
0.00101553
0.00101552
0.00101551
0.0010155
0.00101549
0.00101549
0.00101548
0.00101547
0.00101547
0.00101546
0.00101546
0.00101545
0.00101545
0.00101544
0.00101544
0.00101544
0.00101544
0.00101543
0.000979688
0.000946412
0.00091902
0.000897541
0.000881917
0.000871957
0.0008673
0.000867419
0.000871635
0.00087917
0.000889195
0.000900891
0.000913499
0.000926358
0.00093893
0.000950811
0.000961721
0.000971495
0.000980066
0.000987438
0.000993671
0.000998856
0.00100311
0.00100654
0.00100929
0.00101144
0.00101312
0.00101439
0.00101536
0.00101606
0.00101657
0.00101692
0.00101716
0.0010173
0.00101737
0.00101739
0.00101738
0.00101734
0.00101728
0.00101721
0.00101713
0.00101704
0.00101696
0.00101687
0.00101679
0.00101671
0.00101663
0.00101656
0.00101649
0.00101642
0.00101636
0.0010163
0.00101625
0.00101619
0.00101615
0.0010161
0.00101606
0.00101602
0.00101598
0.00101594
0.00101591
0.00101588
0.00101585
0.00101582
0.00101579
0.00101577
0.00101575
0.00101573
0.00101571
0.00101569
0.00101567
0.00101566
0.00101564
0.00101563
0.00101561
0.0010156
0.00101559
0.00101558
0.00101556
0.00101555
0.00101554
0.00101554
0.00101553
0.00101552
0.00101551
0.0010155
0.0010155
0.00101549
0.00101548
0.00101547
0.00101547
0.00101546
0.00101546
0.00101545
0.00101545
0.00101544
0.00101544
0.00101544
0.00101544
0.00101543
0.000979684
0.000946396
0.000918991
0.000897496
0.000881852
0.000871866
0.000867179
0.000867263
0.000871443
0.00087894
0.000888928
0.00090059
0.000913171
0.00092601
0.000938571
0.000950448
0.000961362
0.000971148
0.000979736
0.000987128
0.000993384
0.000998594
0.00100287
0.00100633
0.0010091
0.00101127
0.00101297
0.00101427
0.00101524
0.00101596
0.00101649
0.00101685
0.00101709
0.00101724
0.00101732
0.00101735
0.00101734
0.00101731
0.00101725
0.00101718
0.00101711
0.00101703
0.00101695
0.00101687
0.00101678
0.00101671
0.00101663
0.00101656
0.00101649
0.00101642
0.00101636
0.0010163
0.00101625
0.0010162
0.00101615
0.0010161
0.00101606
0.00101602
0.00101598
0.00101594
0.00101591
0.00101588
0.00101585
0.00101582
0.0010158
0.00101577
0.00101575
0.00101573
0.00101571
0.00101569
0.00101567
0.00101566
0.00101564
0.00101563
0.00101561
0.0010156
0.00101559
0.00101558
0.00101557
0.00101555
0.00101555
0.00101554
0.00101553
0.00101552
0.00101551
0.0010155
0.0010155
0.00101549
0.00101548
0.00101547
0.00101547
0.00101546
0.00101546
0.00101545
0.00101545
0.00101544
0.00101544
0.00101544
0.00101544
0.00101543
0.000979679
0.000946382
0.000918964
0.000897453
0.000881789
0.00087178
0.000867064
0.000867115
0.000871259
0.000878719
0.000888672
0.000900302
0.000912856
0.000925675
0.000938224
0.000950097
0.000961015
0.00097081
0.000979413
0.000986824
0.000993102
0.000998335
0.00100263
0.00100612
0.00100891
0.00101111
0.00101282
0.00101413
0.00101513
0.00101586
0.0010164
0.00101677
0.00101703
0.00101719
0.00101727
0.00101731
0.00101731
0.00101728
0.00101723
0.00101716
0.00101709
0.00101701
0.00101693
0.00101685
0.00101677
0.0010167
0.00101662
0.00101655
0.00101649
0.00101642
0.00101636
0.0010163
0.00101625
0.0010162
0.00101615
0.0010161
0.00101606
0.00101602
0.00101598
0.00101594
0.00101591
0.00101588
0.00101585
0.00101582
0.0010158
0.00101577
0.00101575
0.00101573
0.00101571
0.00101569
0.00101567
0.00101566
0.00101564
0.00101563
0.00101561
0.0010156
0.00101559
0.00101558
0.00101557
0.00101555
0.00101554
0.00101554
0.00101553
0.00101552
0.00101551
0.0010155
0.00101549
0.00101549
0.00101548
0.00101547
0.00101547
0.00101546
0.00101546
0.00101545
0.00101545
0.00101544
0.00101544
0.00101544
0.00101544
0.00101543
0.000979676
0.000946369
0.000918939
0.000897413
0.000881731
0.000871698
0.000866955
0.000866975
0.000871085
0.00087851
0.000888428
0.000900027
0.000912555
0.000925355
0.000937891
0.00094976
0.000960679
0.000970483
0.000979099
0.000986529
0.000992826
0.000998082
0.0010024
0.00100591
0.00100872
0.00101094
0.00101267
0.001014
0.00101501
0.00101576
0.00101631
0.0010167
0.00101696
0.00101713
0.00101722
0.00101727
0.00101727
0.00101724
0.0010172
0.00101714
0.00101707
0.00101699
0.00101692
0.00101684
0.00101676
0.00101669
0.00101662
0.00101655
0.00101648
0.00101642
0.00101636
0.0010163
0.00101624
0.00101619
0.00101614
0.0010161
0.00101606
0.00101602
0.00101598
0.00101594
0.00101591
0.00101588
0.00101585
0.00101582
0.0010158
0.00101577
0.00101575
0.00101573
0.00101571
0.00101569
0.00101567
0.00101566
0.00101564
0.00101563
0.00101561
0.0010156
0.00101559
0.00101558
0.00101556
0.00101555
0.00101554
0.00101553
0.00101553
0.00101552
0.00101551
0.0010155
0.00101549
0.00101549
0.00101548
0.00101547
0.00101547
0.00101546
0.00101546
0.00101545
0.00101545
0.00101544
0.00101544
0.00101544
0.00101544
0.00101543
0.000979672
0.000946356
0.000918915
0.000897375
0.000881675
0.000871621
0.000866853
0.000866843
0.00087092
0.000878312
0.000888197
0.000899767
0.000912269
0.000925049
0.000937573
0.000949436
0.000960357
0.000970169
0.000978797
0.000986243
0.000992559
0.000997835
0.00100218
0.00100571
0.00100854
0.00101077
0.00101252
0.00101387
0.0010149
0.00101566
0.00101622
0.00101662
0.00101689
0.00101707
0.00101717
0.00101722
0.00101723
0.00101721
0.00101716
0.00101711
0.00101704
0.00101697
0.0010169
0.00101682
0.00101675
0.00101668
0.00101661
0.00101654
0.00101647
0.00101641
0.00101635
0.00101629
0.00101624
0.00101619
0.00101614
0.0010161
0.00101605
0.00101601
0.00101598
0.00101594
0.00101591
0.00101588
0.00101585
0.00101582
0.0010158
0.00101577
0.00101575
0.00101573
0.00101571
0.00101569
0.00101567
0.00101565
0.00101564
0.00101562
0.00101561
0.0010156
0.00101559
0.00101557
0.00101556
0.00101555
0.00101554
0.00101553
0.00101552
0.00101552
0.00101551
0.0010155
0.00101549
0.00101549
0.00101548
0.00101547
0.00101547
0.00101546
0.00101546
0.00101545
0.00101545
0.00101544
0.00101544
0.00101544
0.00101543
0.00101543
0.000979669
0.000946344
0.000918893
0.00089734
0.000881624
0.000871549
0.000866756
0.000866719
0.000870765
0.000878125
0.000887979
0.00089952
0.000911998
0.000924759
0.000937271
0.000949128
0.00096005
0.000969867
0.000978507
0.000985968
0.000992301
0.000997596
0.00100196
0.00100551
0.00100836
0.00101061
0.00101238
0.00101374
0.00101478
0.00101556
0.00101613
0.00101654
0.00101682
0.001017
0.00101711
0.00101717
0.00101718
0.00101717
0.00101713
0.00101708
0.00101702
0.00101695
0.00101688
0.00101681
0.00101673
0.00101666
0.00101659
0.00101653
0.00101646
0.0010164
0.00101634
0.00101629
0.00101623
0.00101618
0.00101614
0.00101609
0.00101605
0.00101601
0.00101597
0.00101594
0.00101591
0.00101588
0.00101585
0.00101582
0.00101579
0.00101577
0.00101575
0.00101573
0.00101571
0.00101569
0.00101567
0.00101565
0.00101564
0.00101562
0.00101561
0.0010156
0.00101558
0.00101557
0.00101556
0.00101555
0.00101554
0.00101553
0.00101552
0.00101551
0.00101551
0.0010155
0.00101549
0.00101548
0.00101548
0.00101547
0.00101547
0.00101546
0.00101545
0.00101545
0.00101545
0.00101544
0.00101544
0.00101544
0.00101543
0.00101543
0.000979666
0.000946333
0.000918872
0.000897306
0.000881575
0.000871481
0.000866666
0.000866602
0.00087062
0.00087795
0.000887774
0.000899288
0.000911742
0.000924485
0.000936985
0.000948835
0.000959757
0.00096958
0.00097823
0.000985704
0.000992054
0.000997366
0.00100175
0.00100531
0.00100818
0.00101046
0.00101224
0.00101362
0.00101467
0.00101546
0.00101604
0.00101646
0.00101675
0.00101694
0.00101706
0.00101712
0.00101714
0.00101713
0.0010171
0.00101705
0.00101699
0.00101693
0.00101686
0.00101679
0.00101672
0.00101665
0.00101658
0.00101651
0.00101645
0.00101639
0.00101633
0.00101628
0.00101623
0.00101618
0.00101613
0.00101609
0.00101605
0.00101601
0.00101597
0.00101594
0.0010159
0.00101587
0.00101584
0.00101582
0.00101579
0.00101577
0.00101574
0.00101572
0.0010157
0.00101568
0.00101567
0.00101565
0.00101564
0.00101562
0.00101561
0.00101559
0.00101558
0.00101557
0.00101556
0.00101555
0.00101554
0.00101553
0.00101552
0.00101551
0.0010155
0.0010155
0.00101549
0.00101548
0.00101548
0.00101547
0.00101546
0.00101546
0.00101545
0.00101545
0.00101544
0.00101544
0.00101544
0.00101543
0.00101543
0.00101543
0.000979663
0.000946323
0.000918853
0.000897275
0.000881529
0.000871418
0.000866581
0.000866493
0.000870484
0.000877785
0.000887582
0.00089907
0.000911501
0.000924227
0.000936714
0.000948559
0.000959479
0.000969307
0.000977966
0.000985452
0.000991817
0.000997146
0.00100154
0.00100513
0.00100801
0.0010103
0.0010121
0.00101349
0.00101456
0.00101536
0.00101595
0.00101638
0.00101668
0.00101688
0.001017
0.00101707
0.0010171
0.00101709
0.00101706
0.00101702
0.00101696
0.0010169
0.00101683
0.00101677
0.0010167
0.00101663
0.00101657
0.0010165
0.00101644
0.00101638
0.00101632
0.00101627
0.00101622
0.00101617
0.00101613
0.00101608
0.00101604
0.001016
0.00101597
0.00101593
0.0010159
0.00101587
0.00101584
0.00101581
0.00101579
0.00101576
0.00101574
0.00101572
0.0010157
0.00101568
0.00101566
0.00101565
0.00101563
0.00101562
0.0010156
0.00101559
0.00101558
0.00101557
0.00101556
0.00101555
0.00101554
0.00101553
0.00101552
0.00101551
0.0010155
0.00101549
0.00101549
0.00101548
0.00101547
0.00101547
0.00101546
0.00101546
0.00101545
0.00101545
0.00101544
0.00101544
0.00101544
0.00101543
0.00101543
0.00101543
0.00097966
0.000946314
0.000918835
0.000897247
0.000881487
0.000871359
0.000866502
0.000866391
0.000870357
0.000877632
0.000887402
0.000898865
0.000911276
0.000923984
0.00093646
0.000948298
0.000959217
0.000969049
0.000977715
0.000985213
0.000991591
0.000996935
0.00100135
0.00100495
0.00100785
0.00101016
0.00101197
0.00101338
0.00101445
0.00101527
0.00101587
0.0010163
0.00101661
0.00101682
0.00101695
0.00101702
0.00101705
0.00101705
0.00101703
0.00101699
0.00101693
0.00101688
0.00101681
0.00101675
0.00101668
0.00101661
0.00101655
0.00101649
0.00101643
0.00101637
0.00101631
0.00101626
0.00101621
0.00101616
0.00101612
0.00101608
0.00101604
0.001016
0.00101596
0.00101593
0.00101589
0.00101586
0.00101584
0.00101581
0.00101578
0.00101576
0.00101574
0.00101572
0.0010157
0.00101568
0.00101566
0.00101564
0.00101563
0.00101561
0.0010156
0.00101559
0.00101558
0.00101556
0.00101555
0.00101554
0.00101553
0.00101552
0.00101552
0.00101551
0.0010155
0.00101549
0.00101548
0.00101548
0.00101547
0.00101547
0.00101546
0.00101545
0.00101545
0.00101544
0.00101544
0.00101544
0.00101543
0.00101543
0.00101543
0.00101543
0.000979657
0.000946305
0.000918818
0.00089722
0.000881447
0.000871304
0.000866429
0.000866296
0.000870238
0.000877488
0.000887234
0.000898674
0.000911064
0.000923757
0.000936221
0.000948052
0.00095897
0.000968805
0.000977478
0.000984986
0.000991377
0.000996735
0.00100116
0.00100478
0.00100769
0.00101001
0.00101184
0.00101326
0.00101435
0.00101517
0.00101578
0.00101623
0.00101654
0.00101676
0.00101689
0.00101697
0.00101701
0.00101701
0.00101699
0.00101695
0.00101691
0.00101685
0.00101679
0.00101673
0.00101666
0.0010166
0.00101653
0.00101647
0.00101641
0.00101636
0.0010163
0.00101625
0.0010162
0.00101616
0.00101611
0.00101607
0.00101603
0.00101599
0.00101596
0.00101592
0.00101589
0.00101586
0.00101583
0.00101581
0.00101578
0.00101576
0.00101573
0.00101571
0.00101569
0.00101567
0.00101566
0.00101564
0.00101563
0.00101561
0.0010156
0.00101558
0.00101557
0.00101556
0.00101555
0.00101554
0.00101553
0.00101552
0.00101551
0.0010155
0.0010155
0.00101549
0.00101548
0.00101547
0.00101547
0.00101546
0.00101546
0.00101545
0.00101545
0.00101544
0.00101544
0.00101544
0.00101543
0.00101543
0.00101543
0.00101543
0.000979655
0.000946296
0.000918802
0.000897194
0.000881411
0.000871253
0.00086636
0.000866207
0.000870127
0.000877355
0.000887078
0.000898496
0.000910867
0.000923544
0.000935997
0.000947822
0.000958738
0.000968575
0.000977255
0.000984771
0.000991174
0.000996545
0.00100099
0.00100462
0.00100755
0.00100988
0.00101172
0.00101315
0.00101425
0.00101508
0.0010157
0.00101615
0.00101648
0.0010167
0.00101684
0.00101692
0.00101696
0.00101697
0.00101696
0.00101692
0.00101688
0.00101682
0.00101676
0.0010167
0.00101664
0.00101658
0.00101652
0.00101646
0.0010164
0.00101635
0.00101629
0.00101624
0.00101619
0.00101615
0.0010161
0.00101606
0.00101602
0.00101598
0.00101595
0.00101592
0.00101588
0.00101585
0.00101583
0.0010158
0.00101578
0.00101575
0.00101573
0.00101571
0.00101569
0.00101567
0.00101565
0.00101564
0.00101562
0.00101561
0.00101559
0.00101558
0.00101557
0.00101556
0.00101555
0.00101554
0.00101553
0.00101552
0.00101551
0.0010155
0.00101549
0.00101549
0.00101548
0.00101547
0.00101547
0.00101546
0.00101545
0.00101545
0.00101544
0.00101544
0.00101544
0.00101543
0.00101543
0.00101543
0.00101543
0.00101543
0.000979653
0.000946289
0.000918787
0.000897171
0.000881376
0.000871205
0.000866296
0.000866125
0.000870025
0.00087723
0.000886932
0.00089833
0.000910683
0.000923345
0.000935788
0.000947606
0.000958521
0.00096836
0.000977045
0.00098457
0.000990982
0.000996365
0.00100082
0.00100446
0.0010074
0.00100975
0.0010116
0.00101304
0.00101415
0.00101499
0.00101562
0.00101608
0.00101641
0.00101664
0.00101679
0.00101688
0.00101692
0.00101693
0.00101692
0.00101689
0.00101685
0.0010168
0.00101674
0.00101668
0.00101662
0.00101656
0.0010165
0.00101644
0.00101639
0.00101633
0.00101628
0.00101623
0.00101618
0.00101614
0.00101609
0.00101605
0.00101601
0.00101598
0.00101594
0.00101591
0.00101588
0.00101585
0.00101582
0.0010158
0.00101577
0.00101575
0.00101573
0.0010157
0.00101569
0.00101567
0.00101565
0.00101563
0.00101562
0.0010156
0.00101559
0.00101558
0.00101556
0.00101555
0.00101554
0.00101553
0.00101552
0.00101551
0.00101551
0.0010155
0.00101549
0.00101548
0.00101548
0.00101547
0.00101546
0.00101546
0.00101545
0.00101545
0.00101544
0.00101544
0.00101543
0.00101543
0.00101543
0.00101543
0.00101543
0.00101542
0.000979651
0.000946282
0.000918774
0.000897149
0.000881344
0.00087116
0.000866237
0.000866049
0.000869929
0.000877115
0.000886796
0.000898176
0.000910512
0.00092316
0.000935593
0.000947405
0.000958317
0.000968158
0.000976847
0.00098438
0.000990802
0.000996195
0.00100066
0.00100432
0.00100727
0.00100963
0.00101149
0.00101294
0.00101406
0.00101491
0.00101555
0.00101602
0.00101635
0.00101658
0.00101674
0.00101683