/*--------------------------------*- C++ -*----------------------------------*\
  =========                 |
  \\      /  F ield         | OpenFOAM: The Open Source CFD Toolbox
   \\    /   O peration     | Website:  https://openfoam.org
    \\  /    A nd           | Version:  11
     \\/     M anipulation  |
\*---------------------------------------------------------------------------*/
FoamFile
{
    format      ascii;
    class       volScalarField;
    location    "1452";
    object      p;
}
// * * * * * * * * * * * * * * * * * * * * * * * * * * * * * * * * * * * * * //

dimensions      [0 2 -2 0 0 0 0];

internalField   nonuniform List<scalar> 
10000
(
8.48902e-14
8.26527e-14
8.54752e-14
9.17694e-14
9.91208e-14
1.06972e-13
1.15273e-13
1.24005e-13
1.33164e-13
1.42761e-13
1.52819e-13
1.63366e-13
1.7443e-13
1.86043e-13
1.98236e-13
2.11042e-13
2.24493e-13
2.38623e-13
2.53465e-13
2.69055e-13
2.85428e-13
3.02619e-13
3.20665e-13
3.39604e-13
3.59473e-13
3.80311e-13
4.02156e-13
4.25049e-13
4.49029e-13
4.74138e-13
5.00415e-13
5.27904e-13
5.56644e-13
5.86679e-13
6.18051e-13
6.508e-13
6.8497e-13
7.20601e-13
7.57735e-13
7.96413e-13
8.36673e-13
8.78555e-13
9.22096e-13
9.67331e-13
1.01429e-12
1.06302e-12
1.11353e-12
1.16586e-12
1.22003e-12
1.27605e-12
1.33394e-12
1.39372e-12
1.45539e-12
1.51893e-12
1.58435e-12
1.65164e-12
1.72075e-12
1.79166e-12
1.86432e-12
1.93868e-12
2.01466e-12
2.09218e-12
2.17114e-12
2.25141e-12
2.33286e-12
2.41532e-12
2.4986e-12
2.5825e-12
2.66677e-12
2.75113e-12
2.83526e-12
2.91882e-12
3.00139e-12
3.08253e-12
3.16172e-12
3.23839e-12
3.31191e-12
3.38154e-12
3.44648e-12
3.50583e-12
3.55855e-12
3.60351e-12
3.63941e-12
3.6648e-12
3.67801e-12
3.67714e-12
3.66e-12
3.6239e-12
3.5651e-12
3.47788e-12
3.36151e-12
3.23303e-12
3.08529e-12
2.90265e-12
2.67082e-12
2.36367e-12
1.95301e-12
1.43457e-12
7.80776e-13
5.62269e-14
1.60159e-13
1.51202e-13
1.45493e-13
1.47489e-13
1.52921e-13
1.6006e-13
1.68441e-13
1.77821e-13
1.88044e-13
1.99031e-13
2.10746e-13
2.23179e-13
2.36335e-13
2.5023e-13
2.64884e-13
2.80322e-13
2.96575e-13
3.13675e-13
3.31654e-13
3.5055e-13
3.70399e-13
3.91241e-13
4.13114e-13
4.3606e-13
4.6012e-13
4.85337e-13
5.11755e-13
5.39418e-13
5.6837e-13
5.98658e-13
6.30326e-13
6.6342e-13
6.97988e-13
7.34074e-13
7.71727e-13
8.1099e-13
8.51911e-13
8.94534e-13
9.38903e-13
9.85062e-13
1.03305e-12
1.08291e-12
1.13468e-12
1.1884e-12
1.2441e-12
1.3018e-12
1.36155e-12
1.42335e-12
1.48723e-12
1.5532e-12
1.62128e-12
1.69145e-12
1.76372e-12
1.83807e-12
1.91448e-12
1.99291e-12
2.07332e-12
2.15566e-12
2.23985e-12
2.32581e-12
2.41344e-12
2.50261e-12
2.59319e-12
2.68501e-12
2.77788e-12
2.87159e-12
2.96588e-12
3.06048e-12
3.15507e-12
3.24928e-12
3.34271e-12
3.43491e-12
3.52535e-12
3.61347e-12
3.6986e-12
3.78004e-12
3.85696e-12
3.92846e-12
3.99352e-12
4.05101e-12
4.09965e-12
4.13802e-12
4.16451e-12
4.17733e-12
4.17445e-12
4.15358e-12
4.11214e-12
4.04721e-12
3.95529e-12
3.83262e-12
3.68037e-12
3.50282e-12
3.27331e-12
2.97649e-12
2.61555e-12
2.19971e-12
1.71023e-12
1.06471e-12
1.63044e-13
-5.91346e-13
1.9698e-13
1.84178e-13
1.72825e-13
1.69471e-13
1.7036e-13
1.73614e-13
1.78607e-13
1.84966e-13
1.92429e-13
2.00833e-13
2.10082e-13
2.20117e-13
2.30905e-13
2.42431e-13
2.54692e-13
2.67693e-13
2.81447e-13
2.95968e-13
3.11277e-13
3.27398e-13
3.44354e-13
3.62174e-13
3.80885e-13
4.00519e-13
4.21106e-13
4.42678e-13
4.65269e-13
4.88912e-13
5.13641e-13
5.39492e-13
5.66498e-13
5.94695e-13
6.24119e-13
6.54804e-13
6.86785e-13
7.20096e-13
7.54772e-13
7.90845e-13
8.28348e-13
8.67311e-13
9.07763e-13
9.49733e-13
9.93247e-13
1.03833e-12
1.08499e-12
1.13327e-12
1.18316e-12
1.23468e-12
1.28783e-12
1.34263e-12
1.39905e-12
1.4571e-12
1.51675e-12
1.57798e-12
1.64076e-12
1.70504e-12
1.77077e-12
1.83788e-12
1.9063e-12
1.97594e-12
2.04669e-12
2.11842e-12
2.191e-12
2.26425e-12
2.338e-12
2.41204e-12
2.48611e-12
2.55996e-12
2.63328e-12
2.70573e-12
2.77692e-12
2.84642e-12
2.91376e-12
2.9784e-12
3.03974e-12
3.09712e-12
3.14978e-12
3.1969e-12
3.23756e-12
3.27072e-12
3.29524e-12
3.30983e-12
3.31307e-12
3.30337e-12
3.27895e-12
3.23785e-12
3.17791e-12
3.0968e-12
2.992e-12
2.86114e-12
2.70372e-12
2.52026e-12
2.30055e-12
2.02853e-12
1.69558e-12
1.29191e-12
8.0389e-13
1.71678e-13
-6.88265e-13
-1.22479e-12
2.28792e-13
2.14724e-13
2.0223e-13
1.96784e-13
1.95415e-13
1.96599e-13
1.99763e-13
2.04516e-13
2.10564e-13
2.1771e-13
2.25823e-13
2.34816e-13
2.44634e-13
2.55242e-13
2.66622e-13
2.78763e-13
2.91668e-13
3.05342e-13
3.19796e-13
3.35045e-13
3.51109e-13
3.68007e-13
3.85762e-13
4.04398e-13
4.23942e-13
4.4442e-13
4.65859e-13
4.88289e-13
5.11738e-13
5.36236e-13
5.61812e-13
5.88496e-13
6.16318e-13
6.45307e-13
6.75493e-13
7.06903e-13
7.39565e-13
7.73507e-13
8.08754e-13
8.4533e-13
8.83258e-13
9.22558e-13
9.63249e-13
1.00535e-12
1.04886e-12
1.09381e-12
1.1402e-12
1.18802e-12
1.23727e-12
1.28796e-12
1.34006e-12
1.39355e-12
1.44841e-12
1.5046e-12
1.56208e-12
1.6208e-12
1.6807e-12
1.74169e-12
1.80368e-12
1.86659e-12
1.93029e-12
1.99465e-12
2.0595e-12
2.12469e-12
2.19e-12
2.25523e-12
2.32011e-12
2.38437e-12
2.4477e-12
2.50973e-12
2.57009e-12
2.62833e-12
2.68396e-12
2.73645e-12
2.78519e-12
2.8295e-12
2.86864e-12
2.90179e-12
2.92803e-12
2.94633e-12
2.95557e-12
2.95448e-12
2.94167e-12
2.91561e-12
2.87458e-12
2.81671e-12
2.73996e-12
2.64211e-12
2.52079e-12
2.37349e-12
2.19803e-12
1.99194e-12
1.74879e-12
1.45831e-12
1.11179e-12
7.02188e-13
2.21571e-13
-3.93303e-13
-1.23922e-12
-1.65282e-12
2.56156e-13
2.42198e-13
2.29897e-13
2.23651e-13
2.21094e-13
2.21064e-13
2.23091e-13
2.26818e-13
2.31958e-13
2.38304e-13
2.45713e-13
2.54085e-13
2.63348e-13
2.73457e-13
2.84381e-13
2.96101e-13
3.0861e-13
3.21906e-13
3.35995e-13
3.50884e-13
3.66589e-13
3.83123e-13
4.00506e-13
4.18758e-13
4.37899e-13
4.57955e-13
4.78947e-13
5.00901e-13
5.23843e-13
5.47797e-13
5.7279e-13
5.98847e-13
6.25995e-13
6.54258e-13
6.83661e-13
7.14229e-13
7.45984e-13
7.7895e-13
8.13146e-13
8.48591e-13
8.85304e-13
9.23299e-13
9.62589e-13
1.00318e-12
1.04509e-12
1.08831e-12
1.13285e-12
1.17869e-12
1.22584e-12
1.27427e-12
1.32396e-12
1.37489e-12
1.42702e-12
1.4803e-12
1.53469e-12
1.59011e-12
1.64651e-12
1.70378e-12
1.76184e-12
1.82057e-12
1.87984e-12
1.9395e-12
1.99939e-12
2.05932e-12
2.11908e-12
2.17844e-12
2.23713e-12
2.29485e-12
2.35128e-12
2.40604e-12
2.45874e-12
2.50893e-12
2.55608e-12
2.59966e-12
2.63904e-12
2.67353e-12
2.70239e-12
2.72476e-12
2.73972e-12
2.74625e-12
2.7432e-12
2.72933e-12
2.70325e-12
2.66343e-12
2.6082e-12
2.53572e-12
2.44398e-12
2.33079e-12
2.19376e-12
2.03028e-12
1.83754e-12
1.61218e-12
1.34889e-12
1.04061e-12
6.80833e-13
2.66687e-13
-2.05556e-13
-8.08856e-13
-1.67879e-12
-1.9571e-12
2.79179e-13
2.65879e-13
2.54042e-13
2.47431e-13
2.4412e-13
2.43214e-13
2.44346e-13
2.47209e-13
2.5154e-13
2.5714e-13
2.63863e-13
2.71604e-13
2.80283e-13
2.89847e-13
3.00255e-13
3.11484e-13
3.23517e-13
3.36347e-13
3.49974e-13
3.64401e-13
3.79636e-13
3.95691e-13
4.12579e-13
4.30316e-13
4.48921e-13
4.68412e-13
4.88808e-13
5.10132e-13
5.32404e-13
5.55646e-13
5.7988e-13
6.05128e-13
6.31412e-13
6.58752e-13
6.8717e-13
7.16684e-13
7.47314e-13
7.79077e-13
8.11988e-13
8.46062e-13
8.81312e-13
9.17746e-13
9.55371e-13
9.94193e-13
1.03421e-12
1.07542e-12
1.11782e-12
1.1614e-12
1.20613e-12
1.25199e-12
1.29897e-12
1.34701e-12
1.39608e-12
1.44613e-12
1.49709e-12
1.5489e-12
1.60146e-12
1.65469e-12
1.70848e-12
1.7627e-12
1.81722e-12
1.87188e-12
1.92651e-12
1.9809e-12
2.03483e-12
2.08806e-12
2.14032e-12
2.19129e-12
2.24064e-12
2.288e-12
2.33294e-12
2.375e-12
2.41368e-12
2.4484e-12
2.47855e-12
2.50343e-12
2.52228e-12
2.53427e-12
2.53847e-12
2.53387e-12
2.51933e-12
2.49363e-12
2.45541e-12
2.40319e-12
2.33534e-12
2.25007e-12
2.14545e-12
2.01935e-12
1.86946e-12
1.69322e-12
1.48781e-12
1.24993e-12
9.75244e-13
6.585e-13
2.95002e-13
-1.15024e-13
-5.71326e-13
-1.15448e-12
-2.04343e-12
-2.18727e-12
2.9914e-13
2.86629e-13
2.75363e-13
2.68654e-13
2.64889e-13
2.63366e-13
2.63808e-13
2.65961e-13
2.69591e-13
2.74517e-13
2.80599e-13
2.8773e-13
2.95829e-13
3.04836e-13
3.14708e-13
3.25414e-13
3.36932e-13
3.49252e-13
3.62366e-13
3.76274e-13
3.9098e-13
4.0649e-13
4.22815e-13
4.39966e-13
4.57958e-13
4.76805e-13
4.96523e-13
5.17131e-13
5.38645e-13
5.61083e-13
5.84463e-13
6.08804e-13
6.34123e-13
6.60437e-13
6.87761e-13
7.16113e-13
7.45505e-13
7.7595e-13
8.0746e-13
8.40044e-13
8.73709e-13
9.08458e-13
9.44295e-13
9.81216e-13
1.01922e-12
1.05829e-12
1.09842e-12
1.1396e-12
1.18178e-12
1.22496e-12
1.26909e-12
1.31412e-12
1.36002e-12
1.40671e-12
1.45414e-12
1.50221e-12
1.55085e-12
1.59994e-12
1.64938e-12
1.69902e-12
1.74873e-12
1.79834e-12
1.84766e-12
1.89649e-12
1.9446e-12
1.99174e-12
2.03761e-12
2.08192e-12
2.12431e-12
2.16441e-12
2.20178e-12
2.23596e-12
2.26645e-12
2.29266e-12
2.31399e-12
2.32974e-12
2.33916e-12
2.34142e-12
2.3356e-12
2.32072e-12
2.29568e-12
2.25927e-12
2.21018e-12
2.14699e-12
2.06813e-12
1.9719e-12
1.85645e-12
1.71976e-12
1.55966e-12
1.37375e-12
1.15941e-12
9.13702e-13
6.3318e-13
3.13874e-13
-4.74919e-14
-4.48376e-13
-8.8504e-13
-1.44197e-12
-2.32818e-12
-2.38135e-12
3.16912e-13
3.05181e-13
2.94514e-13
2.87877e-13
2.83874e-13
2.81942e-13
2.81875e-13
2.83464e-13
2.86512e-13
2.90856e-13
2.96365e-13
3.02938e-13
3.10493e-13
3.18969e-13
3.2832e-13
3.38512e-13
3.49519e-13
3.61325e-13
3.73921e-13
3.87302e-13
4.01467e-13
4.16421e-13
4.32168e-13
4.48717e-13
4.66079e-13
4.84264e-13
5.03287e-13
5.2316e-13
5.43897e-13
5.65513e-13
5.88022e-13
6.11439e-13
6.35776e-13
6.61047e-13
6.87264e-13
7.14438e-13
7.4258e-13
7.71698e-13
8.01798e-13
8.32884e-13
8.6496e-13
8.98024e-13
9.32073e-13
9.671e-13
1.00309e-12
1.04004e-12
1.07793e-12
1.11672e-12
1.1564e-12
1.19692e-12
1.23824e-12
1.28032e-12
1.32309e-12
1.3665e-12
1.41047e-12
1.4549e-12
1.4997e-12
1.54477e-12
1.58998e-12
1.63519e-12
1.68025e-12
1.72498e-12
1.7692e-12
1.81269e-12
1.85522e-12
1.89653e-12
1.93632e-12
1.97429e-12
2.01008e-12
2.04331e-12
2.07355e-12
2.10033e-12
2.12315e-12
2.14144e-12
2.15458e-12
2.16189e-12
2.16264e-12
2.15601e-12
2.14111e-12
2.11696e-12
2.08252e-12
2.03661e-12
1.97799e-12
1.90529e-12
1.81702e-12
1.71157e-12
1.5872e-12
1.44204e-12
1.27407e-12
1.0811e-12
8.60798e-13
6.10654e-13
3.27929e-13
9.59889e-15
-3.46561e-13
-7.36464e-13
-1.15438e-12
-1.68867e-12
-2.56701e-12
-2.56426e-12
3.32956e-13
3.2195e-13
3.11862e-13
3.05388e-13
3.01286e-13
2.99092e-13
2.98651e-13
2.99799e-13
3.02365e-13
3.06207e-13
3.11208e-13
3.17271e-13
3.24319e-13
3.32292e-13
3.41141e-13
3.5083e-13
3.61332e-13
3.72627e-13
3.84704e-13
3.97553e-13
4.11171e-13
4.25559e-13
4.40718e-13
4.56654e-13
4.73375e-13
4.90887e-13
5.09201e-13
5.28327e-13
5.48275e-13
5.69056e-13
5.90681e-13
6.13161e-13
6.36506e-13
6.60725e-13
6.85826e-13
7.11817e-13
7.38704e-13
7.6649e-13
7.95179e-13
8.24769e-13
8.5526e-13
8.86645e-13
9.18917e-13
9.52064e-13
9.8607e-13
1.02092e-12
1.05658e-12
1.09303e-12
1.13023e-12
1.16814e-12
1.20671e-12
1.2459e-12
1.28562e-12
1.32582e-12
1.36641e-12
1.4073e-12
1.44839e-12
1.48956e-12
1.53068e-12
1.57161e-12
1.61219e-12
1.65224e-12
1.69156e-12
1.72994e-12
1.76714e-12
1.8029e-12
1.83691e-12
1.86888e-12
1.89843e-12
1.9252e-12
1.94875e-12
1.96862e-12
1.9843e-12
1.99524e-12
2.00082e-12
2.0004e-12
1.99323e-12
1.97853e-12
1.95543e-12
1.92301e-12
1.88023e-12
1.826e-12
1.75911e-12
1.67828e-12
1.58209e-12
1.46905e-12
1.33754e-12
1.18583e-12
1.01209e-12
8.14369e-13
5.90616e-13
3.38729e-13
5.65269e-14
-2.5834e-13
-6.07374e-13
-9.85518e-13
-1.38614e-12
-1.90225e-12
-2.77663e-12
-2.72617e-12
3.47556e-13
3.37206e-13
3.27659e-13
3.2139e-13
3.17276e-13
3.14921e-13
3.14209e-13
3.15007e-13
3.17173e-13
3.20582e-13
3.2513e-13
3.30727e-13
3.37302e-13
3.44795e-13
3.53159e-13
3.62357e-13
3.72361e-13
3.83148e-13
3.94704e-13
4.07017e-13
4.20082e-13
4.33896e-13
4.48458e-13
4.63771e-13
4.79838e-13
4.96664e-13
5.14257e-13
5.32622e-13
5.51768e-13
5.71703e-13
5.92432e-13
6.13964e-13
6.36306e-13
6.59462e-13
6.83439e-13
7.08239e-13
7.33864e-13
7.60316e-13
7.87591e-13
8.15686e-13
8.44595e-13
8.74308e-13
9.04812e-13
9.36091e-13
9.68126e-13
1.00089e-12
1.03436e-12
1.0685e-12
1.10326e-12
1.13861e-12
1.17448e-12
1.21082e-12
1.24757e-12
1.28464e-12
1.32194e-12
1.35939e-12
1.39687e-12
1.43426e-12
1.47142e-12
1.50822e-12
1.54448e-12
1.58003e-12
1.61466e-12
1.64816e-12
1.68028e-12
1.71075e-12
1.73929e-12
1.76558e-12
1.78926e-12
1.80995e-12
1.82724e-12
1.84066e-12
1.84972e-12
1.85387e-12
1.85251e-12
1.845e-12
1.83064e-12
1.80866e-12
1.77824e-12
1.73846e-12
1.68837e-12
1.62691e-12
1.55294e-12
1.46526e-12
1.36255e-12
1.24342e-12
1.10638e-12
9.49869e-13
7.72227e-13
5.71736e-13
3.46632e-13
9.51607e-14
-1.84421e-13
-4.93978e-13
-8.34514e-13
-1.20031e-12
-1.58422e-12
-2.08301e-12
-2.94993e-12
-2.85364e-12
3.60912e-13
3.5115e-13
3.42101e-13
3.36057e-13
3.31985e-13
3.29538e-13
3.28629e-13
3.2915e-13
3.30981e-13
3.34014e-13
3.38157e-13
3.43328e-13
3.4946e-13
3.56498e-13
3.64395e-13
3.73115e-13
3.82628e-13
3.92911e-13
4.03946e-13
4.15723e-13
4.28231e-13
4.41465e-13
4.55423e-13
4.70104e-13
4.85509e-13
5.01641e-13
5.18503e-13
5.36099e-13
5.54433e-13
5.73511e-13
5.93336e-13
6.13912e-13
6.35243e-13
6.57332e-13
6.80179e-13
7.03785e-13
7.28147e-13
7.53264e-13
7.79129e-13
8.05734e-13
8.33068e-13
8.6112e-13
8.89871e-13
9.19301e-13
9.49387e-13
9.80099e-13
1.0114e-12
1.04326e-12
1.07563e-12
1.10846e-12
1.1417e-12
1.17527e-12
1.2091e-12
1.24312e-12
1.27723e-12
1.31134e-12
1.34532e-12
1.37906e-12
1.41241e-12
1.44524e-12
1.47736e-12
1.50859e-12
1.53874e-12
1.56758e-12
1.59487e-12
1.62034e-12
1.6437e-12
1.66463e-12
1.6828e-12
1.69781e-12
1.70926e-12
1.71669e-12
1.71963e-12
1.71753e-12
1.70983e-12
1.69589e-12
1.67504e-12
1.64654e-12
1.6096e-12
1.56337e-12
1.50691e-12
1.43925e-12
1.35932e-12
1.26599e-12
1.15803e-12
1.03418e-12
8.93075e-13
7.33299e-13
5.53383e-13
3.51817e-13
1.27094e-13
-1.22244e-13
-3.97599e-13
-7.00481e-13
-1.03154e-12
-1.3846e-12
-1.75215e-12
-2.23376e-12
-3.09008e-12
-2.95275e-12
3.73163e-13
3.63933e-13
3.55343e-13
3.4953e-13
3.45533e-13
3.43041e-13
3.41989e-13
3.4229e-13
3.43839e-13
3.46544e-13
3.50323e-13
3.55102e-13
3.60821e-13
3.67427e-13
3.74875e-13
3.83129e-13
3.9216e-13
4.01945e-13
4.12464e-13
4.23704e-13
4.35654e-13
4.48306e-13
4.61656e-13
4.75701e-13
4.90438e-13
5.05869e-13
5.21994e-13
5.38815e-13
5.56332e-13
5.74547e-13
5.93463e-13
6.1308e-13
6.33398e-13
6.54416e-13
6.76133e-13
6.98546e-13
7.21649e-13
7.45436e-13
7.69898e-13
7.95023e-13
8.20797e-13
8.47203e-13
8.74221e-13
9.01826e-13
9.2999e-13
9.58681e-13
9.87862e-13
1.01749e-12
1.04752e-12
1.07789e-12
1.10854e-12
1.13941e-12
1.17041e-12
1.20147e-12
1.23249e-12
1.26336e-12
1.29397e-12
1.32419e-12
1.35388e-12
1.38288e-12
1.41104e-12
1.43816e-12
1.46403e-12
1.48845e-12
1.51115e-12
1.53189e-12
1.55038e-12
1.56629e-12
1.57929e-12
1.58901e-12
1.59504e-12
1.59695e-12
1.59426e-12
1.58645e-12
1.57297e-12
1.55323e-12
1.52656e-12
1.49226e-12
1.4496e-12
1.39774e-12
1.33584e-12
1.26295e-12
1.17808e-12
1.08019e-12
9.68162e-13
8.40823e-13
6.96948e-13
5.35266e-13
3.54476e-13
1.53265e-13
-6.96557e-14
-3.15495e-13
-5.8539e-13
-8.80583e-13
-1.20147e-12
-1.54157e-12
-1.89309e-12
-2.35765e-12
-3.20119e-12
-3.02813e-12
3.8442e-13
3.75672e-13
3.67507e-13
3.61924e-13
3.58021e-13
3.55518e-13
3.54364e-13
3.54486e-13
3.55796e-13
3.58212e-13
3.61662e-13
3.66082e-13
3.71413e-13
3.77608e-13
3.84624e-13
3.92426e-13
4.00986e-13
4.10279e-13
4.20286e-13
4.30993e-13
4.42385e-13
4.54455e-13
4.67196e-13
4.80602e-13
4.9467e-13
5.09397e-13
5.24782e-13
5.40824e-13
5.57521e-13
5.74873e-13
5.92877e-13
6.11534e-13
6.30839e-13
6.5079e-13
6.7138e-13
6.92605e-13
7.14456e-13
7.36923e-13
7.59993e-13
7.83652e-13
8.07883e-13
8.32665e-13
8.57973e-13
8.83782e-13
9.10058e-13
9.36765e-13
9.63864e-13
9.91308e-13
1.01904e-12
1.04702e-12
1.07516e-12
1.1034e-12
1.13166e-12
1.15985e-12
1.18788e-12
1.21563e-12
1.24299e-12
1.26982e-12
1.296e-12
1.32136e-12
1.34572e-12
1.36892e-12
1.39074e-12
1.41096e-12
1.42934e-12
1.44563e-12
1.45953e-12
1.47075e-12
1.47894e-12
1.48374e-12
1.48477e-12
1.48159e-12
1.47375e-12
1.46075e-12
1.44206e-12
1.4171e-12
1.38526e-12
1.34586e-12
1.29821e-12
1.24152e-12
1.175e-12
1.09777e-12
1.00893e-12
9.0749e-13
7.92443e-13
6.62723e-13
5.17227e-13
3.54821e-13
1.7436e-13
-2.52979e-14
-2.45251e-13
-4.86505e-13
-7.49985e-13
-1.03673e-12
-1.34697e-12
-1.67397e-12
-2.00979e-12
-2.45743e-12
-3.28638e-12
-3.08256e-12
3.94768e-13
3.86462e-13
3.78693e-13
3.73335e-13
3.69538e-13
3.67046e-13
3.65819e-13
3.65796e-13
3.669e-13
3.6906e-13
3.72212e-13
3.76297e-13
3.81265e-13
3.87068e-13
3.93669e-13
4.01033e-13
4.09132e-13
4.17942e-13
4.27444e-13
4.37621e-13
4.4846e-13
4.59949e-13
4.72081e-13
4.84849e-13
4.98247e-13
5.1227e-13
5.26914e-13
5.42177e-13
5.58054e-13
5.74543e-13
5.91639e-13
6.09338e-13
6.27634e-13
6.46522e-13
6.65993e-13
6.86038e-13
7.06647e-13
7.27806e-13
7.49501e-13
7.71713e-13
7.94422e-13
8.17604e-13
8.41232e-13
8.65276e-13
8.897e-13
9.14466e-13
9.39529e-13
9.64841e-13
9.90346e-13
1.01598e-12
1.04169e-12
1.06738e-12
1.09299e-12
1.11841e-12
1.14355e-12
1.16829e-12
1.19253e-12
1.21613e-12
1.23894e-12
1.26082e-12
1.28158e-12
1.30105e-12
1.31902e-12
1.33529e-12
1.3496e-12
1.3617e-12
1.37132e-12
1.37816e-12
1.38188e-12
1.38214e-12
1.37856e-12
1.37073e-12
1.3582e-12
1.34051e-12
1.31714e-12
1.28754e-12
1.25113e-12
1.20729e-12
1.15533e-12
1.09456e-12
1.0242e-12
9.43466e-13
8.51506e-13
7.47431e-13
6.30316e-13
4.99199e-13
3.5309e-13
1.90985e-13
1.18753e-14
-1.85227e-13
-4.0126e-13
-6.3706e-13
-8.93386e-13
-1.17113e-12
-1.47036e-12
-1.78423e-12
-2.10468e-12
-2.53551e-12
-3.34824e-12
-3.11816e-12
4.04278e-13
3.96382e-13
3.88983e-13
3.83843e-13
3.80159e-13
3.77694e-13
3.76416e-13
3.76273e-13
3.77198e-13
3.79129e-13
3.82008e-13
3.85783e-13
3.90407e-13
3.95838e-13
4.02039e-13
4.08978e-13
4.16628e-13
4.24964e-13
4.33967e-13
4.43621e-13
4.5391e-13
4.64823e-13
4.76349e-13
4.88481e-13
5.01211e-13
5.14531e-13
5.28438e-13
5.42924e-13
5.57984e-13
5.73613e-13
5.89805e-13
6.06551e-13
6.23846e-13
6.41679e-13
6.6004e-13
6.78918e-13
6.98299e-13
7.18168e-13
7.38505e-13
7.59292e-13
7.80503e-13
8.02114e-13
8.24093e-13
8.46408e-13
8.69022e-13
8.91891e-13
9.14969e-13
9.38205e-13
9.61541e-13
9.84915e-13
1.00825e-12
1.03149e-12
1.05452e-12
1.07727e-12
1.09964e-12
1.1215e-12
1.14275e-12
1.16324e-12
1.18285e-12
1.20141e-12
1.21875e-12
1.23469e-12
1.24904e-12
1.26157e-12
1.27206e-12
1.28025e-12
1.28588e-12
1.28864e-12
1.28824e-12
1.28432e-12
1.27651e-12
1.26444e-12
1.24767e-12
1.22576e-12
1.19821e-12
1.16452e-12
1.12412e-12
1.07644e-12
1.02083e-12
9.56648e-13
8.83181e-13
7.99694e-13
7.05409e-13
5.99519e-13
4.81184e-13
3.49537e-13
2.03697e-13
4.27739e-14
-1.34115e-13
-3.27828e-13
-5.39163e-13
-7.68819e-13
-1.01742e-12
-1.28573e-12
-1.57374e-12
-1.87449e-12
-2.17989e-12
-2.59403e-12
-3.38907e-12
-3.13678e-12
4.13012e-13
4.05498e-13
3.98448e-13
3.93519e-13
3.89951e-13
3.87524e-13
3.86211e-13
3.85967e-13
3.86735e-13
3.88459e-13
3.91087e-13
3.94572e-13
3.98872e-13
4.03947e-13
4.09763e-13
4.1629e-13
4.23502e-13
4.31374e-13
4.39887e-13
4.49024e-13
4.5877e-13
4.69111e-13
4.80036e-13
4.91537e-13
5.03602e-13
5.16225e-13
5.29398e-13
5.43112e-13
5.57361e-13
5.72137e-13
5.87431e-13
6.03234e-13
6.19535e-13
6.36325e-13
6.5359e-13
6.71315e-13
6.89485e-13
7.08082e-13
7.27084e-13
7.4647e-13
7.66212e-13
7.86283e-13
8.06649e-13
8.27275e-13
8.48121e-13
8.69141e-13
8.90288e-13
9.11508e-13
9.3274e-13
9.53919e-13
9.74974e-13
9.95827e-13
1.01639e-12
1.03657e-12
1.05627e-12
1.07537e-12
1.09376e-12
1.1113e-12
1.12785e-12
1.14326e-12
1.15736e-12
1.16997e-12
1.1809e-12
1.18993e-12
1.19684e-12
1.20138e-12
1.2033e-12
1.2023e-12
1.19809e-12
1.19033e-12
1.17868e-12
1.16277e-12
1.14218e-12
1.1165e-12
1.08526e-12
1.04798e-12
1.00413e-12
9.53177e-13
8.94525e-13
8.27563e-13
7.51645e-13
6.66093e-13
5.70199e-13
4.63229e-13
3.44425e-13
2.13012e-13
6.82056e-14
-9.07801e-14
-2.64717e-13
-4.54347e-13
-6.60353e-13
-8.83318e-13
-1.12376e-12
-1.38234e-12
-1.65898e-12
-1.94668e-12
-2.23735e-12
-2.63489e-12
-3.41091e-12
-3.14004e-12
4.21025e-13
4.1387e-13
4.07148e-13
4.02424e-13
3.98973e-13
3.9659e-13
3.95254e-13
3.94926e-13
3.95554e-13
3.97089e-13
3.99484e-13
4.02698e-13
4.0669e-13
4.11425e-13
4.16871e-13
4.22999e-13
4.29784e-13
4.37202e-13
4.45234e-13
4.53863e-13
4.63072e-13
4.72849e-13
4.8318e-13
4.94054e-13
5.05462e-13
5.17394e-13
5.29839e-13
5.42789e-13
5.56234e-13
5.70165e-13
5.84571e-13
5.99441e-13
6.14762e-13
6.30522e-13
6.46705e-13
6.63296e-13
6.80275e-13
6.97622e-13
7.15314e-13
7.33326e-13
7.51631e-13
7.70196e-13
7.88986e-13
8.07965e-13
8.27089e-13
8.46313e-13
8.65584e-13
8.84849e-13
9.04044e-13
9.23104e-13
9.41954e-13
9.60516e-13
9.78703e-13
9.96421e-13
1.01357e-12
1.03003e-12
1.04569e-12
1.06042e-12
1.07407e-12
1.0865e-12
1.09753e-12
1.107e-12
1.11472e-12
1.12047e-12
1.12404e-12
1.12519e-12
1.12367e-12
1.1192e-12
1.11149e-12
1.10024e-12
1.0851e-12
1.06572e-12
1.04173e-12
1.0127e-12
9.78221e-13
9.37828e-13
8.91038e-13
8.3734e-13
7.76194e-13
7.07034e-13
6.29267e-13
5.42273e-13
4.4541e-13
3.38015e-13
2.19406e-13
8.88936e-14
-5.42197e-14
-2.10625e-13
-3.80995e-13
-5.65973e-13
-7.6614e-13
-9.81983e-13
-1.21393e-12
-1.46257e-12
-1.72776e-12
-2.00251e-12
-2.27878e-12
-2.65983e-12
-3.4156e-12
-3.12942e-12
4.28363e-13
4.21547e-13
4.15138e-13
4.10611e-13
4.07277e-13
4.04943e-13
4.03593e-13
4.03193e-13
4.03696e-13
4.05058e-13
4.07236e-13
4.10194e-13
4.13894e-13
4.18303e-13
4.23393e-13
4.29134e-13
4.35503e-13
4.42478e-13
4.50039e-13
4.58169e-13
4.66851e-13
4.7607e-13
4.85815e-13
4.96072e-13
5.0683e-13
5.18077e-13
5.29804e-13
5.41998e-13
5.5465e-13
5.67746e-13
5.81276e-13
5.95226e-13
6.09582e-13
6.24328e-13
6.39448e-13
6.54923e-13
6.70733e-13
6.86856e-13
7.03265e-13
7.19935e-13
7.36834e-13
7.5393e-13
7.71186e-13
7.88562e-13
8.06014e-13
8.23494e-13
8.40949e-13
8.58321e-13
8.75549e-13
8.92565e-13
9.09293e-13
9.25654e-13
9.4156e-13
9.56918e-13
9.71624e-13
9.85569e-13
9.98633e-13
1.01069e-12
1.02159e-12
1.0312e-12
1.03935e-12
1.04587e-12
1.05058e-12
1.05327e-12
1.05373e-12
1.05174e-12
1.04705e-12
1.03939e-12
1.02849e-12
1.01406e-12
9.95772e-13
9.73292e-13
9.4626e-13
9.14298e-13
8.77001e-13
8.33943e-13
7.84676e-13
7.28726e-13
6.65595e-13
5.94766e-13
5.15695e-13
4.2782e-13
3.30561e-13
2.2332e-13
1.0549e-13
-2.35444e-14
-1.64398e-13
-3.17678e-13
-4.8397e-13
-6.63829e-13
-8.5775e-13
-1.06614e-12
-1.28935e-12
-1.52791e-12
-1.78162e-12
-2.04355e-12
-2.30572e-12
-2.6704e-12
-3.40484e-12
-3.10627e-12
4.35072e-13
4.28577e-13
4.22467e-13
4.18129e-13
4.1491e-13
4.12629e-13
4.11273e-13
4.1081e-13
4.112e-13
4.12401e-13
4.14377e-13
4.17093e-13
4.20514e-13
4.24612e-13
4.29358e-13
4.34725e-13
4.4069e-13
4.47233e-13
4.54333e-13
4.61973e-13
4.70137e-13
4.7881e-13
4.87977e-13
4.97625e-13
5.07743e-13
5.18317e-13
5.29335e-13
5.40785e-13
5.52654e-13
5.6493e-13
5.77597e-13
5.90642e-13
6.04049e-13
6.178e-13
6.31877e-13
6.4626e-13
6.60925e-13
6.75849e-13
6.91006e-13
7.06365e-13
7.21895e-13
7.37562e-13
7.53325e-13
7.69145e-13
7.84976e-13
8.00767e-13
8.16465e-13
8.32013e-13
8.47344e-13
8.62392e-13
8.77082e-13
8.91332e-13
9.05055e-13
9.18157e-13
9.30538e-13
9.42086e-13
9.52685e-13
9.62208e-13
9.70519e-13
9.77472e-13
9.82911e-13
9.86667e-13
9.88561e-13
9.88402e-13
9.85982e-13
9.81085e-13
9.73474e-13
9.62902e-13
9.49103e-13
9.31795e-13
9.10679e-13
8.85436e-13
8.5573e-13
8.21206e-13
7.81488e-13
7.3618e-13
6.84867e-13
6.27114e-13
5.62464e-13
4.90444e-13
4.10562e-13
3.22308e-13
2.25161e-13
1.18586e-13
2.04145e-15
-1.25017e-13
-2.63129e-13
-4.12826e-13
-5.74618e-13
-7.48981e-13
-9.36336e-13
-1.13702e-12
-1.35133e-12
-1.57972e-12
-1.82199e-12
-2.07124e-12
-2.31963e-12
-2.66804e-12
-3.38018e-12
-3.07187e-12
4.4119e-13
4.35002e-13
4.29177e-13
4.25023e-13
4.21918e-13
4.19692e-13
4.18334e-13
4.17816e-13
4.18102e-13
4.19155e-13
4.2094e-13
4.23426e-13
4.26583e-13
4.30382e-13
4.34795e-13
4.39801e-13
4.45374e-13
4.51496e-13
4.58146e-13
4.65308e-13
4.72964e-13
4.811e-13
4.897e-13
4.98751e-13
5.08239e-13
5.18151e-13
5.28472e-13
5.39191e-13
5.50291e-13
5.6176e-13
5.73582e-13
5.85739e-13
5.98216e-13
6.10992e-13
6.24048e-13
6.37362e-13
6.5091e-13
6.64665e-13
6.786e-13
6.92684e-13
7.06882e-13
7.2116e-13
7.35476e-13
7.49789e-13
7.6405e-13
7.7821e-13
7.92214e-13
8.06002e-13
8.1951e-13
8.32669e-13
8.45403e-13
8.57633e-13
8.6927e-13
8.80223e-13
8.90389e-13
8.99662e-13
9.07926e-13
9.15057e-13
9.2092e-13
9.25376e-13
9.28271e-13
9.29443e-13
9.28719e-13
9.25913e-13
9.2083e-13
9.13258e-13
9.02976e-13
8.89746e-13
8.73318e-13
8.53424e-13
8.29784e-13
8.02099e-13
7.70055e-13
7.33321e-13
6.91548e-13
6.44373e-13
5.91411e-13
5.32265e-13
4.66518e-13
3.93741e-13
3.13488e-13
2.25302e-13
1.28716e-13
2.32523e-14
-9.15671e-14
-2.16222e-13
-3.51187e-13
-4.96922e-13
-6.53869e-13
-8.22436e-13
-1.00298e-12
-1.19578e-12
-1.40107e-12
-1.61927e-12
-1.85014e-12
-2.0869e-12
-2.3218e-12
-2.65409e-12
-3.34307e-12
-3.0274e-12
4.46757e-13
4.40861e-13
4.3531e-13
4.31333e-13
4.28339e-13
4.26169e-13
4.24813e-13
4.24248e-13
4.24439e-13
4.25353e-13
4.26958e-13
4.29227e-13
4.3213e-13
4.35641e-13
4.39736e-13
4.44391e-13
4.49584e-13
4.55297e-13
4.61509e-13
4.68203e-13
4.75364e-13
4.82974e-13
4.91019e-13
4.99484e-13
5.08355e-13
5.17617e-13
5.27256e-13
5.37256e-13
5.47604e-13
5.58283e-13
5.69276e-13
5.80565e-13
5.92131e-13
6.03955e-13
6.16015e-13
6.28286e-13
6.40745e-13
6.53362e-13
6.66109e-13
6.78953e-13
6.9186e-13
7.04791e-13
7.17706e-13
7.30561e-13
7.43308e-13
7.55895e-13
7.68267e-13
7.80364e-13
7.92122e-13
8.03469e-13
8.14333e-13
8.24633e-13
8.34282e-13
8.43189e-13
8.51254e-13
8.58371e-13
8.64426e-13
8.693e-13
8.72862e-13
8.74975e-13
8.75491e-13
8.74254e-13
8.71096e-13
8.65842e-13
8.58303e-13
8.48279e-13
8.35558e-13
8.19917e-13
8.01118e-13
7.78912e-13
7.53034e-13
7.23206e-13
6.89137e-13
6.50519e-13
6.07032e-13
5.58339e-13
5.04092e-13
4.43926e-13
3.77464e-13
3.04318e-13
2.24088e-13
1.36364e-13
4.07307e-14
-6.32335e-14
-1.75951e-13
-2.97842e-13
-4.29319e-13
-5.70782e-13
-7.22608e-13
-8.85147e-13
-1.0587e-12
-1.24349e-12
-1.4397e-12
-1.64773e-12
-1.8673e-12
-2.09174e-12
-2.31347e-12
-2.62979e-12
-3.29488e-12
-2.97398e-12
4.51806e-13
4.4619e-13
4.40903e-13
4.37097e-13
4.34212e-13
4.32098e-13
4.30748e-13
4.3014e-13
4.30243e-13
4.31027e-13
4.32462e-13
4.34524e-13
4.37185e-13
4.4042e-13
4.44207e-13
4.48524e-13
4.53349e-13
4.58664e-13
4.6445e-13
4.70689e-13
4.77365e-13
4.84463e-13
4.91965e-13
4.99858e-13
5.08125e-13
5.16752e-13
5.25723e-13
5.35022e-13
5.44633e-13
5.5454e-13
5.64723e-13
5.75164e-13
5.85843e-13
5.96739e-13
6.07827e-13
6.19085e-13
6.30484e-13
6.41996e-13
6.5359e-13
6.65232e-13
6.76888e-13
6.88518e-13
7.00079e-13
7.11528e-13
7.22815e-13
7.33889e-13
7.44693e-13
7.55167e-13
7.65247e-13
7.74863e-13
7.83941e-13
7.92402e-13
8.00159e-13
8.07123e-13
8.13196e-13
8.18274e-13
8.22247e-13
8.24997e-13
8.26399e-13
8.26319e-13
8.24615e-13
8.21138e-13
8.15727e-13
8.08213e-13
7.98418e-13
7.86152e-13
7.71214e-13
7.53394e-13
7.3247e-13
7.08207e-13
6.80359e-13
6.48668e-13
6.12864e-13
5.72664e-13
5.27773e-13
4.77885e-13
4.22682e-13
3.61832e-13
2.94998e-13
2.2183e-13
1.4197e-13
5.50548e-14
-3.9284e-14
-1.41416e-13
-2.51712e-13
-3.70537e-13
-4.98248e-13
-6.35187e-13
-7.81678e-13
-9.38016e-13
-1.10445e-12
-1.28116e-12
-1.46829e-12
-1.66619e-12
-1.87457e-12
-2.08691e-12
-2.29578e-12
-2.59629e-12
-3.2369e-12
-2.91267e-12
4.56371e-13
4.51025e-13
4.4599e-13
4.4235e-13
4.39571e-13
4.37514e-13
4.36172e-13
4.35526e-13
4.35547e-13
4.36208e-13
4.37483e-13
4.39347e-13
4.41776e-13
4.44747e-13
4.48238e-13
4.52228e-13
4.56697e-13
4.61627e-13
4.66998e-13
4.72795e-13
4.79001e-13
4.85598e-13
4.92572e-13
4.99905e-13
5.07584e-13
5.15591e-13
5.2391e-13
5.32525e-13
5.41418e-13
5.50572e-13
5.59966e-13
5.69582e-13
5.79397e-13
5.89389e-13
5.99535e-13
6.09807e-13
6.20178e-13
6.30619e-13
6.41096e-13
6.51577e-13
6.62024e-13
6.72397e-13
6.82653e-13
6.92748e-13
7.02632e-13
7.12253e-13
7.21553e-13
7.30474e-13
7.3895e-13
7.46913e-13
7.54289e-13
7.61e-13
7.66961e-13
7.72084e-13
7.76273e-13
7.79428e-13
7.8144e-13
7.82197e-13
7.81575e-13
7.79448e-13
7.75679e-13
7.70124e-13
7.62631e-13
7.53039e-13
7.41178e-13
7.26869e-13
7.09924e-13
6.90146e-13
6.67325e-13
6.41245e-13
6.11677e-13
5.78382e-13
5.41111e-13
4.99606e-13
4.53597e-13
4.02805e-13
3.46943e-13
2.85714e-13
2.18813e-13
1.45929e-13
6.6744e-14
-1.90618e-14
-1.11812e-13
-2.1183e-13
-3.19436e-13
-4.34946e-13
-5.58665e-13
-6.90886e-13
-8.31881e-13
-9.81895e-13
-1.14113e-12
-1.30973e-12
-1.48781e-12
-1.67567e-12
-1.87302e-12
-2.07347e-12
-2.26979e-12
-2.55469e-12
-3.17034e-12
-2.8445e-12
4.60485e-13
4.55397e-13
4.50605e-13
4.47125e-13
4.4445e-13
4.42449e-13
4.41117e-13
4.40436e-13
4.40382e-13
4.40927e-13
4.4205e-13
4.43726e-13
4.45933e-13
4.4865e-13
4.51856e-13
4.55531e-13
4.59656e-13
4.64213e-13
4.69183e-13
4.74551e-13
4.80298e-13
4.8641e-13
4.92869e-13
4.99659e-13
5.06765e-13
5.14168e-13
5.21853e-13
5.29802e-13
5.37997e-13
5.46418e-13
5.55046e-13
5.63859e-13
5.72835e-13
5.81952e-13
5.91182e-13
6.005e-13
6.09876e-13
6.19281e-13
6.2868e-13
6.38039e-13
6.4732e-13
6.56483e-13
6.65484e-13
6.74278e-13
6.82816e-13
6.91043e-13
6.98905e-13
7.06341e-13
7.13287e-13
7.19675e-13
7.25433e-13
7.30482e-13
7.34742e-13
7.38124e-13
7.40535e-13
7.41879e-13
7.4205e-13
7.40938e-13
7.38427e-13
7.34393e-13
7.28707e-13
7.2123e-13
7.11819e-13
7.0032e-13
6.86574e-13
6.70412e-13
6.51658e-13
6.30127e-13
6.05625e-13
5.77951e-13
5.46894e-13
5.12233e-13
4.73743e-13
4.31185e-13
3.84317e-13
3.32886e-13
2.76634e-13
2.15294e-13
1.48597e-13
7.62655e-14
-1.97827e-15
-8.64155e-14
-1.77328e-13
-2.74994e-13
-3.7969e-13
-4.91684e-13
-6.11237e-13
-7.38592e-13
-8.73977e-13
-1.01759e-12
-1.16961e-12
-1.33011e-12
-1.4992e-12
-1.67714e-12
-1.86362e-12
-2.05242e-12
-2.23651e-12
-2.50602e-12
-3.09637e-12
-2.77043e-12
4.64175e-13
4.59337e-13
4.5478e-13
4.51454e-13
4.48879e-13
4.46934e-13
4.45613e-13
4.44901e-13
4.44776e-13
4.45213e-13
4.4619e-13
4.47687e-13
4.49683e-13
4.52156e-13
4.55088e-13
4.5846e-13
4.62253e-13
4.66449e-13
4.71031e-13
4.75983e-13
4.81287e-13
4.86928e-13
4.92888e-13
4.9915e-13
5.05699e-13
5.12517e-13
5.19586e-13
5.26889e-13
5.34405e-13
5.42116e-13
5.5e-13
5.58036e-13
5.662e-13
5.74468e-13
5.82813e-13
5.91208e-13
5.99624e-13
6.08029e-13
6.16388e-13
6.24667e-13
6.32827e-13
6.40827e-13
6.48623e-13
6.5617e-13
6.63417e-13
6.70313e-13
6.76801e-13
6.82821e-13