/*--------------------------------*- C++ -*----------------------------------*\
  =========                 |
  \\      /  F ield         | OpenFOAM: The Open Source CFD Toolbox
   \\    /   O peration     | Website:  https://openfoam.org
    \\  /    A nd           | Version:  11
     \\/     M anipulation  |
\*---------------------------------------------------------------------------*/
FoamFile
{
    format      ascii;
    class       volVectorField;
    location    "622";
    object      U;
}
// * * * * * * * * * * * * * * * * * * * * * * * * * * * * * * * * * * * * * //

dimensions      [0 1 -1 0 0 0 0];

internalField   nonuniform List<vector> 
10000
(
(0.00499999 -1.02392e-07 0)
(0.00499997 -2.89124e-07 0)
(0.00499994 -4.72791e-07 0)
(0.00499991 -6.59883e-07 0)
(0.00499986 -8.54253e-07 0)
(0.00499981 -1.05873e-06 0)
(0.00499975 -1.27556e-06 0)
(0.00499969 -1.50669e-06 0)
(0.00499962 -1.75388e-06 0)
(0.00499953 -2.01881e-06 0)
(0.00499944 -2.30309e-06 0)
(0.00499934 -2.60834e-06 0)
(0.00499923 -2.93618e-06 0)
(0.00499911 -3.28827e-06 0)
(0.00499897 -3.66627e-06 0)
(0.00499883 -4.07192e-06 0)
(0.00499867 -4.50698e-06 0)
(0.00499849 -4.97329e-06 0)
(0.0049983 -5.47272e-06 0)
(0.0049981 -6.00722e-06 0)
(0.00499787 -6.5788e-06 0)
(0.00499763 -7.18953e-06 0)
(0.00499737 -7.84157e-06 0)
(0.00499709 -8.53712e-06 0)
(0.00499678 -9.27847e-06 0)
(0.00499646 -1.0068e-05 0)
(0.00499611 -1.09081e-05 0)
(0.00499573 -1.18014e-05 0)
(0.00499533 -1.27503e-05 0)
(0.00499489 -1.37576e-05 0)
(0.00499443 -1.4826e-05 0)
(0.00499393 -1.59583e-05 0)
(0.0049934 -1.71574e-05 0)
(0.00499284 -1.84263e-05 0)
(0.00499224 -1.9768e-05 0)
(0.00499159 -2.11855e-05 0)
(0.00499091 -2.26822e-05 0)
(0.00499018 -2.42611e-05 0)
(0.00498941 -2.59256e-05 0)
(0.00498859 -2.76791e-05 0)
(0.00498772 -2.95249e-05 0)
(0.0049868 -3.14665e-05 0)
(0.00498582 -3.35074e-05 0)
(0.00498478 -3.5651e-05 0)
(0.00498368 -3.79011e-05 0)
(0.00498252 -4.0261e-05 0)
(0.0049813 -4.27345e-05 0)
(0.00498001 -4.5325e-05 0)
(0.00497864 -4.80362e-05 0)
(0.0049772 -5.08715e-05 0)
(0.00497569 -5.38344e-05 0)
(0.00497409 -5.69284e-05 0)
(0.00497241 -6.01568e-05 0)
(0.00497065 -6.35229e-05 0)
(0.00496879 -6.70298e-05 0)
(0.00496685 -7.06804e-05 0)
(0.0049648 -7.44777e-05 0)
(0.00496266 -7.84243e-05 0)
(0.00496042 -8.25225e-05 0)
(0.00495807 -8.67746e-05 0)
(0.00495561 -9.11822e-05 0)
(0.00495305 -9.57471e-05 0)
(0.00495037 -0.00010047 0)
(0.00494757 -0.000105352 0)
(0.00494465 -0.000110394 0)
(0.00494161 -0.000115594 0)
(0.00493845 -0.000120952 0)
(0.00493517 -0.000126467 0)
(0.00493175 -0.000132136 0)
(0.00492821 -0.000137956 0)
(0.00492454 -0.000143923 0)
(0.00492074 -0.000150032 0)
(0.00491681 -0.000156277 0)
(0.00491275 -0.00016265 0)
(0.00490856 -0.000169144 0)
(0.00490425 -0.000175749 0)
(0.00489981 -0.000182452 0)
(0.00489526 -0.000189241 0)
(0.0048906 -0.000196102 0)
(0.00488583 -0.000203017 0)
(0.00488096 -0.000209967 0)
(0.00487601 -0.000216933 0)
(0.00487097 -0.00022389 0)
(0.00486588 -0.000230812 0)
(0.00486073 -0.00023767 0)
(0.00485556 -0.000244434 0)
(0.00485037 -0.000251068 0)
(0.0048452 -0.000257532 0)
(0.00484007 -0.000263786 0)
(0.004835 -0.000269783 0)
(0.00483004 -0.00027547 0)
(0.00482522 -0.000280793 0)
(0.00482059 -0.000285688 0)
(0.00481619 -0.000290089 0)
(0.00481207 -0.000293922 0)
(0.00480831 -0.000297109 0)
(0.00480496 -0.000299573 0)
(0.00480217 -0.000301241 0)
(0.00479979 -0.000302086 0)
(0.004798 -0.000302262 0)
(0.005 -8.77605e-08 0)
(0.00499998 -2.61364e-07 0)
(0.00499995 -4.36563e-07 0)
(0.00499991 -6.1595e-07 0)
(0.00499987 -8.02686e-07 0)
(0.00499982 -9.99306e-07 0)
(0.00499976 -1.20791e-06 0)
(0.0049997 -1.43034e-06 0)
(0.00499962 -1.66829e-06 0)
(0.00499954 -1.92338e-06 0)
(0.00499945 -2.19717e-06 0)
(0.00499935 -2.49123e-06 0)
(0.00499924 -2.80713e-06 0)
(0.00499911 -3.14648e-06 0)
(0.00499898 -3.51089e-06 0)
(0.00499883 -3.90206e-06 0)
(0.00499867 -4.32169e-06 0)
(0.0049985 -4.77156e-06 0)
(0.00499831 -5.25349e-06 0)
(0.0049981 -5.76939e-06 0)
(0.00499788 -6.3212e-06 0)
(0.00499764 -6.91094e-06 0)
(0.00499738 -7.54068e-06 0)
(0.0049971 -8.2126e-06 0)
(0.0049968 -8.92891e-06 0)
(0.00499647 -9.6919e-06 0)
(0.00499612 -1.05039e-05 0)
(0.00499575 -1.13675e-05 0)
(0.00499534 -1.22851e-05 0)
(0.00499491 -1.32592e-05 0)
(0.00499445 -1.42927e-05 0)
(0.00499395 -1.53881e-05 0)
(0.00499343 -1.65484e-05 0)
(0.00499286 -1.77763e-05 0)
(0.00499226 -1.90749e-05 0)
(0.00499162 -2.04472e-05 0)
(0.00499094 -2.18963e-05 0)
(0.00499022 -2.34252e-05 0)
(0.00498944 -2.50373e-05 0)
(0.00498863 -2.67358e-05 0)
(0.00498776 -2.85239e-05 0)
(0.00498684 -3.04052e-05 0)
(0.00498586 -3.2383e-05 0)
(0.00498483 -3.44606e-05 0)
(0.00498373 -3.66417e-05 0)
(0.00498258 -3.89297e-05 0)
(0.00498135 -4.1328e-05 0)
(0.00498006 -4.38402e-05 0)
(0.0049787 -4.64699e-05 0)
(0.00497727 -4.92203e-05 0)
(0.00497576 -5.2095e-05 0)
(0.00497416 -5.50974e-05 0)
(0.00497249 -5.82307e-05 0)
(0.00497073 -6.14982e-05 0)
(0.00496888 -6.4903e-05 0)
(0.00496694 -6.84481e-05 0)
(0.0049649 -7.21362e-05 0)
(0.00496276 -7.597e-05 0)
(0.00496052 -7.99521e-05 0)
(0.00495818 -8.40844e-05 0)
(0.00495573 -8.83691e-05 0)
(0.00495317 -9.28077e-05 0)
(0.0049505 -9.74013e-05 0)
(0.00494771 -0.000102151 0)
(0.0049448 -0.000107057 0)
(0.00494177 -0.000112119 0)
(0.00493861 -0.000117337 0)
(0.00493533 -0.00012271 0)
(0.00493193 -0.000128235 0)
(0.00492839 -0.000133909 0)
(0.00492473 -0.00013973 0)
(0.00492094 -0.000145693 0)
(0.00491701 -0.000151793 0)
(0.00491296 -0.000158022 0)
(0.00490879 -0.000164373 0)
(0.00490448 -0.000170838 0)
(0.00490006 -0.000177406 0)
(0.00489552 -0.000184066 0)
(0.00489086 -0.000190803 0)
(0.0048861 -0.000197603 0)
(0.00488124 -0.000204448 0)
(0.00487629 -0.000211319 0)
(0.00487127 -0.000218196 0)
(0.00486618 -0.000225055 0)
(0.00486104 -0.000231868 0)
(0.00485587 -0.000238608 0)
(0.00485069 -0.000245242 0)
(0.00484552 -0.000251736 0)
(0.00484039 -0.00025805 0)
(0.00483532 -0.000264142 0)
(0.00483035 -0.000269965 0)
(0.00482552 -0.000275469 0)
(0.00482087 -0.000280596 0)
(0.00481643 -0.000285285 0)
(0.00481227 -0.000289471 0)
(0.00480844 -0.000293083 0)
(0.004805 -0.000296048 0)
(0.00480202 -0.00029828 0)
(0.00479937 -0.000299724 0)
(0.00479713 -0.00030053 0)
(0.005 -7.60589e-08 0)
(0.00499998 -2.35683e-07 0)
(0.00499996 -4.01154e-07 0)
(0.00499992 -5.724e-07 0)
(0.00499988 -7.51399e-07 0)
(0.00499983 -9.40216e-07 0)
(0.00499977 -1.14072e-06 0)
(0.0049997 -1.35462e-06 0)
(0.00499963 -1.58353e-06 0)
(0.00499955 -1.829e-06 0)
(0.00499946 -2.09254e-06 0)
(0.00499936 -2.37567e-06 0)
(0.00499925 -2.67991e-06 0)
(0.00499913 -3.00682e-06 0)
(0.00499899 -3.35799e-06 0)
(0.00499885 -3.73502e-06 0)
(0.00499869 -4.13961e-06 0)
(0.00499852 -4.57346e-06 0)
(0.00499833 -5.03836e-06 0)
(0.00499812 -5.53614e-06 0)
(0.0049979 -6.0687e-06 0)
(0.00499766 -6.638e-06 0)
(0.0049974 -7.24607e-06 0)
(0.00499712 -7.895e-06 0)
(0.00499682 -8.58695e-06 0)
(0.0049965 -9.32416e-06 0)
(0.00499615 -1.01089e-05 0)
(0.00499578 -1.09436e-05 0)
(0.00499538 -1.18307e-05 0)
(0.00499495 -1.27727e-05 0)
(0.00499449 -1.37722e-05 0)
(0.004994 -1.48319e-05 0)
(0.00499347 -1.59544e-05 0)
(0.00499291 -1.71427e-05 0)
(0.00499231 -1.83996e-05 0)
(0.00499168 -1.97279e-05 0)
(0.004991 -2.11309e-05 0)
(0.00499028 -2.26114e-05 0)
(0.00498951 -2.41727e-05 0)
(0.0049887 -2.58179e-05 0)
(0.00498783 -2.75503e-05 0)
(0.00498691 -2.93731e-05 0)
(0.00498594 -3.12898e-05 0)
(0.00498492 -3.33035e-05 0)
(0.00498383 -3.54179e-05 0)
(0.00498268 -3.76362e-05 0)
(0.00498146 -3.99619e-05 0)
(0.00498018 -4.23985e-05 0)
(0.00497882 -4.49493e-05 0)
(0.00497739 -4.76177e-05 0)
(0.00497589 -5.04072e-05 0)
(0.00497431 -5.33211e-05 0)
(0.00497264 -5.63626e-05 0)
(0.00497089 -5.95349e-05 0)
(0.00496905 -6.28411e-05 0)
(0.00496711 -6.62841e-05 0)
(0.00496509 -6.98669e-05 0)
(0.00496296 -7.3592e-05 0)
(0.00496073 -7.7462e-05 0)
(0.0049584 -8.1479e-05 0)
(0.00495596 -8.56451e-05 0)
(0.00495341 -8.99619e-05 0)
(0.00495075 -9.44308e-05 0)
(0.00494797 -9.90528e-05 0)
(0.00494508 -0.000103829 0)
(0.00494206 -0.000108758 0)
(0.00493892 -0.000113841 0)
(0.00493565 -0.000119077 0)
(0.00493226 -0.000124463 0)
(0.00492874 -0.000129998 0)
(0.0049251 -0.000135678 0)
(0.00492132 -0.000141501 0)
(0.00491741 -0.00014746 0)
(0.00491338 -0.00015355 0)
(0.00490922 -0.000159765 0)
(0.00490493 -0.000166096 0)
(0.00490052 -0.000172534 0)
(0.004896 -0.000179068 0)
(0.00489136 -0.000185686 0)
(0.00488662 -0.000192375 0)
(0.00488177 -0.000199119 0)
(0.00487684 -0.0002059 0)
(0.00487183 -0.000212699 0)
(0.00486675 -0.000219495 0)
(0.00486162 -0.000226264 0)
(0.00485646 -0.00023298 0)
(0.00485128 -0.000239613 0)
(0.00484611 -0.000246131 0)
(0.00484097 -0.0002525 0)
(0.00483589 -0.00025868 0)
(0.0048309 -0.000264628 0)
(0.00482604 -0.000270298 0)
(0.00482134 -0.000275637 0)
(0.00481685 -0.000280588 0)
(0.0048126 -0.000285089 0)
(0.00480865 -0.000289074 0)
(0.00480504 -0.000292466 0)
(0.0048018 -0.000295179 0)
(0.00479878 -0.000297149 0)
(0.00479594 -0.000298348 0)
(0.005 -6.80639e-08 0)
(0.00499999 -2.15136e-07 0)
(0.00499996 -3.70822e-07 0)
(0.00499993 -5.33843e-07 0)
(0.00499989 -7.05287e-07 0)
(0.00499984 -8.86708e-07 0)
(0.00499978 -1.07968e-06 0)
(0.00499972 -1.28574e-06 0)
(0.00499964 -1.50639e-06 0)
(0.00499956 -1.74309e-06 0)
(0.00499947 -1.99731e-06 0)
(0.00499937 -2.27051e-06 0)
(0.00499926 -2.56417e-06 0)
(0.00499914 -2.87979e-06 0)
(0.00499901 -3.21891e-06 0)
(0.00499887 -3.58312e-06 0)
(0.00499871 -3.97403e-06 0)
(0.00499854 -4.39332e-06 0)
(0.00499835 -4.84273e-06 0)
(0.00499815 -5.32405e-06 0)
(0.00499793 -5.83911e-06 0)
(0.00499769 -6.38982e-06 0)
(0.00499743 -6.97817e-06 0)
(0.00499715 -7.60619e-06 0)
(0.00499686 -8.27599e-06 0)
(0.00499653 -8.98974e-06 0)
(0.00499619 -9.74968e-06 0)
(0.00499582 -1.05581e-05 0)
(0.00499542 -1.14175e-05 0)
(0.00499499 -1.23302e-05 0)
(0.00499454 -1.32988e-05 0)
(0.00499405 -1.43259e-05 0)
(0.00499353 -1.54141e-05 0)
(0.00499297 -1.65663e-05 0)
(0.00499238 -1.77851e-05 0)
(0.00499175 -1.90735e-05 0)
(0.00499107 -2.04344e-05 0)
(0.00499036 -2.18708e-05 0)
(0.0049896 -2.33858e-05 0)
(0.00498879 -2.49825e-05 0)
(0.00498793 -2.66641e-05 0)
(0.00498702 -2.84337e-05 0)
(0.00498606 -3.02947e-05 0)
(0.00498504 -3.22503e-05 0)
(0.00498396 -3.43038e-05 0)
(0.00498281 -3.64586e-05 0)
(0.00498161 -3.87182e-05 0)
(0.00498033 -4.10857e-05 0)
(0.00497899 -4.35647e-05 0)
(0.00497757 -4.61584e-05 0)
(0.00497607 -4.88702e-05 0)
(0.0049745 -5.17034e-05 0)
(0.00497284 -5.46611e-05 0)
(0.0049711 -5.77466e-05 0)
(0.00496928 -6.09629e-05 0)
(0.00496736 -6.4313e-05 0)
(0.00496534 -6.77997e-05 0)
(0.00496323 -7.14257e-05 0)
(0.00496102 -7.51934e-05 0)
(0.0049587 -7.91051e-05 0)
(0.00495628 -8.3163e-05 0)
(0.00495374 -8.73687e-05 0)
(0.0049511 -9.17238e-05 0)
(0.00494834 -9.62293e-05 0)
(0.00494546 -0.000100886 0)
(0.00494246 -0.000105694 0)
(0.00493934 -0.000110654 0)
(0.0049361 -0.000115764 0)
(0.00493273 -0.000121024 0)
(0.00492923 -0.000126431 0)
(0.0049256 -0.000131984 0)
(0.00492185 -0.000137677 0)
(0.00491797 -0.000143508 0)
(0.00491395 -0.000149471 0)
(0.00490982 -0.000155561 0)
(0.00490555 -0.000161769 0)
(0.00490117 -0.000168087 0)
(0.00489667 -0.000174506 0)
(0.00489205 -0.000181015 0)
(0.00488733 -0.000187601 0)
(0.00488251 -0.00019425 0)
(0.00487759 -0.000200947 0)
(0.0048726 -0.000207673 0)
(0.00486754 -0.00021441 0)
(0.00486242 -0.000221135 0)
(0.00485727 -0.000227824 0)
(0.0048521 -0.000234452 0)
(0.00484693 -0.000240987 0)
(0.00484178 -0.000247398 0)
(0.00483669 -0.000253649 0)
(0.00483167 -0.0002597 0)
(0.00482677 -0.000265507 0)
(0.00482201 -0.00027102 0)
(0.00481744 -0.000276184 0)
(0.00481308 -0.000280938 0)
(0.00480897 -0.000285212 0)
(0.00480516 -0.000288923 0)
(0.00480164 -0.000291975 0)
(0.00479819 -0.000294268 0)
(0.0047948 -0.000295705 0)
(0.005 -6.16728e-08 0)
(0.00499999 -1.97245e-07 0)
(0.00499997 -3.43049e-07 0)
(0.00499993 -4.9743e-07 0)
(0.00499989 -6.60935e-07 0)
(0.00499985 -8.34693e-07 0)
(0.00499979 -1.01998e-06 0)
(0.00499973 -1.21814e-06 0)
(0.00499966 -1.43053e-06 0)
(0.00499958 -1.65853e-06 0)
(0.00499949 -1.90352e-06 0)
(0.00499939 -2.1669e-06 0)
(0.00499928 -2.45011e-06 0)
(0.00499916 -2.75458e-06 0)
(0.00499903 -3.08183e-06 0)
(0.00499889 -3.43338e-06 0)
(0.00499873 -3.81081e-06 0)
(0.00499856 -4.21575e-06 0)
(0.00499837 -4.64988e-06 0)
(0.00499817 -5.11495e-06 0)
(0.00499796 -5.61274e-06 0)
(0.00499772 -6.14512e-06 0)
(0.00499747 -6.71401e-06 0)
(0.00499719 -7.32139e-06 0)
(0.0049969 -7.96931e-06 0)
(0.00499658 -8.6599e-06 0)
(0.00499624 -9.39533e-06 0)
(0.00499587 -1.01779e-05 0)
(0.00499547 -1.10098e-05 0)
(0.00499505 -1.18936e-05 0)
(0.0049946 -1.28317e-05 0)
(0.00499412 -1.38266e-05 0)
(0.0049936 -1.48809e-05 0)
(0.00499305 -1.59974e-05 0)
(0.00499246 -1.71786e-05 0)
(0.00499184 -1.84275e-05 0)
(0.00499117 -1.97469e-05 0)
(0.00499046 -2.11397e-05 0)
(0.00498971 -2.2609e-05 0)
(0.0049889 -2.41577e-05 0)
(0.00498805 -2.5789e-05 0)
(0.00498715 -2.7506e-05 0)
(0.0049862 -2.93119e-05 0)
(0.00498518 -3.12099e-05 0)
(0.00498411 -3.32033e-05 0)
(0.00498298 -3.52954e-05 0)
(0.00498178 -3.74894e-05 0)
(0.00498052 -3.97888e-05 0)
(0.00497919 -4.21967e-05 0)
(0.00497778 -4.47164e-05 0)
(0.0049763 -4.73514e-05 0)
(0.00497474 -5.01047e-05 0)
(0.0049731 -5.29796e-05 0)
(0.00497137 -5.59792e-05 0)
(0.00496956 -5.91066e-05 0)
(0.00496765 -6.23646e-05 0)
(0.00496566 -6.57562e-05 0)
(0.00496356 -6.9284e-05 0)
(0.00496137 -7.29505e-05 0)
(0.00495907 -7.6758e-05 0)
(0.00495667 -8.07087e-05 0)
(0.00495415 -8.48044e-05 0)
(0.00495153 -8.90467e-05 0)
(0.00494879 -9.34368e-05 0)
(0.00494594 -9.79757e-05 0)
(0.00494296 -0.000102664 0)
(0.00493987 -0.000107501 0)
(0.00493665 -0.000112488 0)
(0.0049333 -0.000117622 0)
(0.00492983 -0.000122902 0)
(0.00492623 -0.000128327 0)
(0.00492251 -0.000133893 0)
(0.00491865 -0.000139597 0)
(0.00491467 -0.000145434 0)
(0.00491056 -0.000151398 0)
(0.00490632 -0.000157483 0)
(0.00490197 -0.000163682 0)
(0.0048975 -0.000169986 0)
(0.00489291 -0.000176385 0)
(0.00488821 -0.000182868 0)
(0.00488342 -0.000189422 0)
(0.00487853 -0.000196033 0)
(0.00487356 -0.000202685 0)
(0.00486852 -0.000209359 0)
(0.00486342 -0.000216037 0)
(0.00485828 -0.000222695 0)
(0.00485311 -0.000229311 0)
(0.00484794 -0.000235856 0)
(0.00484279 -0.000242301 0)
(0.00483767 -0.000248612 0)
(0.00483263 -0.000254751 0)
(0.00482768 -0.000260676 0)
(0.00482285 -0.00026634 0)
(0.00481818 -0.000271687 0)
(0.00481369 -0.000276655 0)
(0.00480941 -0.000281169 0)
(0.00480537 -0.000285137 0)
(0.00480156 -0.000288445 0)
(0.00479774 -0.000290959 0)
(0.00479382 -0.00029259 0)
(0.005 -5.61339e-08 0)
(0.00499999 -1.81136e-07 0)
(0.00499997 -3.17259e-07 0)
(0.00499994 -4.62822e-07 0)
(0.0049999 -6.18095e-07 0)
(0.00499986 -7.83904e-07 0)
(0.0049998 -9.6128e-07 0)
(0.00499974 -1.15137e-06 0)
(0.00499967 -1.3554e-06 0)
(0.00499959 -1.57462e-06 0)
(0.0049995 -1.81035e-06 0)
(0.00499941 -2.06392e-06 0)
(0.0049993 -2.33668e-06 0)
(0.00499918 -2.63005e-06 0)
(0.00499905 -2.94547e-06 0)
(0.00499891 -3.28441e-06 0)
(0.00499876 -3.64842e-06 0)
(0.00499859 -4.03907e-06 0)
(0.0049984 -4.458e-06 0)
(0.00499821 -4.9069e-06 0)
(0.00499799 -5.38751e-06 0)
(0.00499776 -5.90164e-06 0)
(0.00499751 -6.45116e-06 0)
(0.00499724 -7.038e-06 0)
(0.00499694 -7.66415e-06 0)
(0.00499663 -8.33168e-06 0)
(0.00499629 -9.04271e-06 0)
(0.00499593 -9.79944e-06 0)
(0.00499554 -1.06041e-05 0)
(0.00499512 -1.14591e-05 0)
(0.00499467 -1.23668e-05 0)
(0.0049942 -1.33297e-05 0)
(0.00499369 -1.43502e-05 0)
(0.00499314 -1.54311e-05 0)
(0.00499256 -1.65749e-05 0)
(0.00499194 -1.77844e-05 0)
(0.00499128 -1.90624e-05 0)
(0.00499058 -2.04118e-05 0)
(0.00498983 -2.18355e-05 0)
(0.00498904 -2.33364e-05 0)
(0.0049882 -2.49176e-05 0)
(0.00498731 -2.65822e-05 0)
(0.00498636 -2.83332e-05 0)
(0.00498536 -3.01739e-05 0)
(0.0049843 -3.21073e-05 0)
(0.00498318 -3.41368e-05 0)
(0.00498199 -3.62656e-05 0)
(0.00498074 -3.84969e-05 0)
(0.00497942 -4.08339e-05 0)
(0.00497803 -4.328e-05 0)
(0.00497657 -4.58383e-05 0)
(0.00497502 -4.8512e-05 0)
(0.0049734 -5.13043e-05 0)
(0.00497169 -5.42182e-05 0)
(0.00496989 -5.72569e-05 0)
(0.00496801 -6.04232e-05 0)
(0.00496603 -6.37199e-05 0)
(0.00496395 -6.71497e-05 0)
(0.00496178 -7.07153e-05 0)
(0.00495951 -7.44189e-05 0)
(0.00495713 -7.82626e-05 0)
(0.00495464 -8.22485e-05 0)
(0.00495204 -8.63783e-05 0)
(0.00494933 -9.06532e-05 0)
(0.0049465 -9.50744e-05 0)
(0.00494355 -9.96425e-05 0)
(0.00494048 -0.000104358 0)
(0.00493729 -0.00010922 0)
(0.00493398 -0.000114229 0)
(0.00493054 -0.000119383 0)
(0.00492697 -0.00012468 0)
(0.00492328 -0.000130119 0)
(0.00491945 -0.000135695 0)
(0.0049155 -0.000141405 0)
(0.00491143 -0.000147244 0)
(0.00490723 -0.000153206 0)
(0.00490291 -0.000159285 0)
(0.00489847 -0.000165473 0)
(0.00489391 -0.000171761 0)
(0.00488925 -0.000178139 0)
(0.00488448 -0.000184596 0)
(0.00487962 -0.000191118 0)
(0.00487468 -0.000197692 0)
(0.00486966 -0.0002043 0)
(0.00486458 -0.000210926 0)
(0.00485945 -0.000217549 0)
(0.00485429 -0.000224146 0)
(0.00484912 -0.000230693 0)
(0.00484396 -0.000237161 0)
(0.00483882 -0.000243519 0)
(0.00483373 -0.00024973 0)
(0.00482873 -0.000255756 0)
(0.00482382 -0.000261547 0)
(0.00481904 -0.000267048 0)
(0.00481441 -0.000272194 0)
(0.00480996 -0.000276905 0)
(0.0048057 -0.000281078 0)
(0.0048016 -0.000284583 0)
(0.00479744 -0.000287255 0)
(0.00479303 -0.00028901 0)
(0.005 -5.12542e-08 0)
(0.00499999 -1.66558e-07 0)
(0.00499997 -2.93399e-07 0)
(0.00499994 -4.30219e-07 0)
(0.00499991 -5.77169e-07 0)
(0.00499986 -7.34882e-07 0)
(0.00499981 -9.04202e-07 0)
(0.00499975 -1.08611e-06 0)
(0.00499968 -1.28171e-06 0)
(0.00499961 -1.49213e-06 0)
(0.00499952 -1.71861e-06 0)
(0.00499943 -1.9624e-06 0)
(0.00499932 -2.22479e-06 0)
(0.0049992 -2.50714e-06 0)
(0.00499908 -2.81083e-06 0)
(0.00499894 -3.1373e-06 0)
(0.00499878 -3.48803e-06 0)
(0.00499862 -3.86455e-06 0)
(0.00499844 -4.26844e-06 0)
(0.00499824 -4.70135e-06 0)
(0.00499803 -5.16497e-06 0)
(0.0049978 -5.66105e-06 0)
(0.00499755 -6.19141e-06 0)
(0.00499729 -6.75794e-06 0)
(0.004997 -7.36256e-06 0)
(0.00499669 -8.00728e-06 0)
(0.00499635 -8.69417e-06 0)
(0.00499599 -9.42538e-06 0)
(0.00499561 -1.02031e-05 0)
(0.0049952 -1.10296e-05 0)
(0.00499476 -1.19072e-05 0)
(0.00499429 -1.28383e-05 0)
(0.00499378 -1.38254e-05 0)
(0.00499324 -1.48711e-05 0)
(0.00499267 -1.59778e-05 0)
(0.00499206 -1.71484e-05 0)
(0.00499141 -1.83855e-05 0)
(0.00499071 -1.96919e-05 0)
(0.00498998 -2.10704e-05 0)
(0.00498919 -2.2524e-05 0)
(0.00498836 -2.40556e-05 0)
(0.00498748 -2.56682e-05 0)
(0.00498655 -2.73649e-05 0)
(0.00498556 -2.91488e-05 0)
(0.00498451 -3.10229e-05 0)
(0.0049834 -3.29904e-05 0)
(0.00498223 -3.50545e-05 0)
(0.004981 -3.72184e-05 0)
(0.00497969 -3.94852e-05 0)
(0.00497832 -4.18582e-05 0)
(0.00497687 -4.43406e-05 0)
(0.00497534 -4.69354e-05 0)
(0.00497374 -4.96458e-05 0)
(0.00497205 -5.24749e-05 0)
(0.00497027 -5.54256e-05 0)
(0.00496841 -5.85009e-05 0)
(0.00496645 -6.17036e-05 0)
(0.0049644 -6.50363e-05 0)
(0.00496225 -6.85018e-05 0)
(0.00496 -7.21022e-05 0)
(0.00495765 -7.584e-05 0)
(0.00495518 -7.9717e-05 0)
(0.00495261 -8.3735e-05 0)
(0.00494993 -8.78956e-05 0)
(0.00494713 -9.22e-05 0)
(0.00494421 -9.6649e-05 0)
(0.00494118 -0.000101243 0)
(0.00493802 -0.000105982 0)
(0.00493474 -0.000110866 0)
(0.00493133 -0.000115894 0)
(0.0049278 -0.000121065 0)
(0.00492414 -0.000126376 0)
(0.00492036 -0.000131825 0)
(0.00491645 -0.000137409 0)
(0.00491241 -0.000143122 0)
(0.00490825 -0.000148961 0)
(0.00490396 -0.00015492 0)
(0.00489956 -0.000160991 0)
(0.00489504 -0.000167168 0)
(0.00489041 -0.00017344 0)
(0.00488568 -0.000179797 0)
(0.00488085 -0.000186229 0)
(0.00487593 -0.000192721 0)
(0.00487094 -0.00019926 0)
(0.00486588 -0.000205829 0)
(0.00486076 -0.000212409 0)
(0.00485561 -0.00021898 0)
(0.00485044 -0.000225518 0)
(0.00484526 -0.000231998 0)
(0.0048401 -0.000238389 0)
(0.00483497 -0.000244657 0)
(0.0048299 -0.000250761 0)
(0.00482491 -0.000256654 0)
(0.00482002 -0.00026228 0)
(0.00481524 -0.000267569 0)
(0.00481061 -0.000272436 0)
(0.00480613 -0.000276769 0)
(0.00480177 -0.000280425 0)
(0.0047973 -0.000283216 0)
(0.00479245 -0.000285034 0)
(0.005 -4.68827e-08 0)
(0.00499999 -1.53257e-07 0)
(0.00499997 -2.71288e-07 0)
(0.00499995 -3.99582e-07 0)
(0.00499992 -5.38257e-07 0)
(0.00499987 -6.8784e-07 0)
(0.00499982 -8.49041e-07 0)
(0.00499976 -1.02272e-06 0)
(0.0049997 -1.20984e-06 0)
(0.00499962 -1.41146e-06 0)
(0.00499954 -1.62871e-06 0)
(0.00499945 -1.86277e-06 0)
(0.00499934 -2.11488e-06 0)
(0.00499923 -2.38631e-06 0)
(0.0049991 -2.67841e-06 0)
(0.00499897 -2.99255e-06 0)
(0.00499882 -3.33016e-06 0)
(0.00499865 -3.69272e-06 0)
(0.00499848 -4.08177e-06 0)
(0.00499828 -4.4989e-06 0)
(0.00499807 -4.94576e-06 0)
(0.00499785 -5.42404e-06 0)
(0.0049976 -5.9355e-06 0)
(0.00499734 -6.48198e-06 0)
(0.00499706 -7.06536e-06 0)
(0.00499675 -7.68758e-06 0)
(0.00499642 -8.35065e-06 0)
(0.00499607 -9.05666e-06 0)
(0.00499569 -9.80774e-06 0)
(0.00499528 -1.06061e-05 0)
(0.00499485 -1.1454e-05 0)
(0.00499439 -1.23538e-05 0)
(0.00499389 -1.33079e-05 0)
(0.00499336 -1.43188e-05 0)
(0.00499279 -1.5389e-05 0)
(0.00499219 -1.65211e-05 0)
(0.00499155 -1.77177e-05 0)
(0.00499086 -1.89816e-05 0)
(0.00499014 -2.03156e-05 0)
(0.00498936 -2.17224e-05 0)
(0.00498855 -2.3205e-05 0)
(0.00498768 -2.47664e-05 0)
(0.00498675 -2.64093e-05 0)
(0.00498578 -2.8137e-05 0)
(0.00498475 -2.99524e-05 0)
(0.00498365 -3.18587e-05 0)
(0.0049825 -3.38589e-05 0)
(0.00498128 -3.59562e-05 0)
(0.00497999 -3.81536e-05 0)
(0.00497863 -4.04544e-05 0)
(0.0049772 -4.28617e-05 0)
(0.0049757 -4.53785e-05 0)
(0.00497411 -4.80079e-05 0)
(0.00497244 -5.0753e-05 0)
(0.00497069 -5.36168e-05 0)
(0.00496885 -5.6602e-05 0)
(0.00496692 -5.97117e-05 0)
(0.00496489 -6.29484e-05 0)
(0.00496277 -6.63147e-05 0)
(0.00496054 -6.98131e-05 0)
(0.00495822 -7.34459e-05 0)
(0.00495579 -7.7215e-05 0)
(0.00495325 -8.11225e-05 0)
(0.00495059 -8.51699e-05 0)
(0.00494783 -8.93585e-05 0)
(0.00494495 -9.36894e-05 0)
(0.00494195 -9.81632e-05 0)
(0.00493882 -0.00010278 0)
(0.00493558 -0.000107541 0)
(0.00493221 -0.000112444 0)
(0.00492872 -0.000117488 0)
(0.0049251 -0.000122673 0)
(0.00492135 -0.000127995 0)
(0.00491748 -0.000133453 0)
(0.00491348 -0.000139041 0)
(0.00490936 -0.000144757 0)
(0.00490512 -0.000150595 0)
(0.00490075 -0.000156549 0)
(0.00489627 -0.000162613 0)
(0.00489168 -0.000168777 0)
(0.00488698 -0.000175033 0)
(0.00488219 -0.000181371 0)
(0.0048773 -0.000187779 0)
(0.00487233 -0.000194243 0)
(0.00486729 -0.000200749 0)
(0.00486219 -0.00020728 0)
(0.00485704 -0.000213817 0)
(0.00485187 -0.000220337 0)
(0.00484667 -0.000226816 0)
(0.00484148 -0.000233225 0)
(0.00483631 -0.000239531 0)
(0.00483117 -0.000245693 0)
(0.00482609 -0.000251663 0)
(0.00482109 -0.000257384 0)
(0.00481617 -0.000262784 0)
(0.00481136 -0.00026777 0)
(0.00480667 -0.000272225 0)
(0.00480206 -0.000275993 0)
(0.00479732 -0.000278878 0)
(0.00479208 -0.000280722 0)
(0.005 -4.29052e-08 0)
(0.00499999 -1.41018e-07 0)
(0.00499998 -2.50718e-07 0)
(0.00499995 -3.70776e-07 0)
(0.00499992 -5.01325e-07 0)
(0.00499988 -6.42835e-07 0)
(0.00499983 -7.95927e-07 0)
(0.00499978 -9.61363e-07 0)
(0.00499971 -1.14002e-06 0)
(0.00499964 -1.33285e-06 0)
(0.00499956 -1.54091e-06 0)
(0.00499947 -1.76531e-06 0)
(0.00499936 -2.00721e-06 0)
(0.00499925 -2.26783e-06 0)
(0.00499913 -2.54846e-06 0)
(0.004999 -2.85042e-06 0)
(0.00499885 -3.17508e-06 0)
(0.00499869 -3.52388e-06 0)
(0.00499851 -3.8983e-06 0)
(0.00499833 -4.29988e-06 0)
(0.00499812 -4.7302e-06 0)
(0.0049979 -5.19094e-06 0)
(0.00499766 -5.68378e-06 0)
(0.0049974 -6.2105e-06 0)
(0.00499712 -6.77294e-06 0)
(0.00499682 -7.37298e-06 0)
(0.0049965 -8.01257e-06 0)
(0.00499615 -8.69374e-06 0)
(0.00499578 -9.41857e-06 0)
(0.00499538 -1.01892e-05 0)
(0.00499495 -1.10078e-05 0)
(0.00499449 -1.18768e-05 0)
(0.004994 -1.27983e-05 0)
(0.00499348 -1.37749e-05 0)
(0.00499293 -1.4809e-05 0)
(0.00499233 -1.59031e-05 0)
(0.0049917 -1.70598e-05 0)
(0.00499103 -1.82818e-05 0)
(0.00499031 -1.95718e-05 0)
(0.00498955 -2.09325e-05 0)
(0.00498874 -2.23668e-05 0)
(0.00498789 -2.38774e-05 0)
(0.00498698 -2.54674e-05 0)
(0.00498602 -2.71396e-05 0)
(0.004985 -2.88971e-05 0)
(0.00498392 -3.07429e-05 0)
(0.00498278 -3.26799e-05 0)
(0.00498158 -3.47114e-05 0)
(0.00498031 -3.68403e-05 0)
(0.00497898 -3.90698e-05 0)
(0.00497757 -4.14028e-05 0)
(0.00497608 -4.38425e-05 0)
(0.00497452 -4.6392e-05 0)
(0.00497287 -4.90541e-05 0)
(0.00497114 -5.18318e-05 0)
(0.00496933 -5.47281e-05 0)
(0.00496742 -5.77458e-05 0)
(0.00496542 -6.08875e-05 0)
(0.00496333 -6.41558e-05 0)
(0.00496113 -6.75532e-05 0)
(0.00495884 -7.10821e-05 0)
(0.00495644 -7.47446e-05 0)
(0.00495393 -7.85426e-05 0)
(0.00495131 -8.24778e-05 0)
(0.00494858 -8.65518e-05 0)
(0.00494574 -9.07656e-05 0)
(0.00494277 -9.51203e-05 0)
(0.00493969 -9.96163e-05 0)
(0.00493648 -0.000104254 0)
(0.00493316 -0.000109033 0)
(0.0049297 -0.000113952 0)
(0.00492613 -0.000119011 0)
(0.00492242 -0.000124207 0)
(0.00491859 -0.000129538 0)
(0.00491464 -0.000135002 0)
(0.00491056 -0.000140595 0)
(0.00490635 -0.000146312 0)
(0.00490203 -0.000152148 0)
(0.00489759 -0.000158097 0)
(0.00489304 -0.000164152 0)
(0.00488838 -0.000170304 0)
(0.00488362 -0.000176545 0)
(0.00487876 -0.000182865 0)
(0.00487382 -0.00018925 0)
(0.0048688 -0.000195687 0)
(0.00486371 -0.000202161 0)
(0.00485857 -0.000208654 0)
(0.00485339 -0.000215145 0)
(0.00484817 -0.000221611 0)
(0.00484295 -0.000228023 0)
(0.00483773 -0.000234349 0)
(0.00483253 -0.000240547 0)
(0.00482736 -0.000246572 0)
(0.00482225 -0.000252361 0)
(0.00481719 -0.000257841 0)
(0.00481221 -0.000262915 0)
(0.00480732 -0.00026746 0)
(0.00480248 -0.000271314 0)
(0.00479749 -0.000274266 0)
(0.0047919 -0.000276084 0)
(0.005 -3.92481e-08 0)
(0.00499999 -1.29682e-07 0)
(0.00499998 -2.31516e-07 0)
(0.00499996 -3.43669e-07 0)
(0.00499993 -4.66306e-07 0)
(0.00499989 -5.9987e-07 0)
(0.00499984 -7.4493e-07 0)
(0.00499979 -9.02175e-07 0)
(0.00499973 -1.0724e-06 0)
(0.00499965 -1.25649e-06 0)
(0.00499958 -1.45543e-06 0)
(0.00499949 -1.67024e-06 0)
(0.00499939 -1.90203e-06 0)
(0.00499928 -2.15197e-06 0)
(0.00499916 -2.42127e-06 0)
(0.00499903 -2.7112e-06 0)
(0.00499888 -3.0231e-06 0)
(0.00499873 -3.35833e-06 0)
(0.00499856 -3.71833e-06 0)
(0.00499837 -4.10459e-06 0)
(0.00499817 -4.51864e-06 0)
(0.00499795 -4.96209e-06 0)
(0.00499772 -5.4366e-06 0)
(0.00499746 -5.94388e-06 0)
(0.00499719 -6.4857e-06 0)
(0.00499689 -7.06389e-06 0)
(0.00499658 -7.68037e-06 0)
(0.00499624 -8.33708e-06 0)
(0.00499587 -9.03605e-06 0)
(0.00499548 -9.77936e-06 0)
(0.00499506 -1.05692e-05 0)
(0.00499461 -1.14077e-05 0)
(0.00499413 -1.22972e-05 0)
(0.00499361 -1.324e-05 0)
(0.00499307 -1.42385e-05 0)
(0.00499248 -1.52952e-05 0)
(0.00499186 -1.64126e-05 0)
(0.0049912 -1.75933e-05 0)
(0.0049905 -1.88398e-05 0)
(0.00498975 -2.0155e-05 0)
(0.00498896 -2.15416e-05 0)
(0.00498811 -2.30023e-05 0)
(0.00498722 -2.454e-05 0)
(0.00498627 -2.61575e-05 0)
(0.00498527 -2.78579e-05 0)
(0.00498421 -2.96439e-05 0)
(0.00498309 -3.15187e-05 0)
(0.00498191 -3.34852e-05 0)
(0.00498066 -3.55465e-05 0)
(0.00497934 -3.77055e-05 0)
(0.00497795 -3.99653e-05 0)
(0.00497649 -4.23289e-05 0)
(0.00497495 -4.47993e-05 0)
(0.00497333 -4.73795e-05 0)
(0.00497162 -5.00723e-05 0)
(0.00496984 -5.28807e-05 0)
(0.00496796 -5.58075e-05 0)
(0.00496599 -5.88553e-05 0)
(0.00496392 -6.20267e-05 0)
(0.00496176 -6.53243e-05 0)
(0.0049595 -6.87505e-05 0)
(0.00495713 -7.23074e-05 0)
(0.00495466 -7.5997e-05 0)
(0.00495208 -7.98213e-05 0)
(0.00494938 -8.37817e-05 0)
(0.00494658 -8.78796e-05 0)
(0.00494365 -9.21161e-05 0)
(0.00494061 -9.64919e-05 0)
(0.00493744 -0.000101008 0)
(0.00493416 -0.000105663 0)
(0.00493075 -0.000110458 0)
(0.00492721 -0.000115391 0)
(0.00492355 -0.000120462 0)
(0.00491977 -0.000125668 0)
(0.00491586 -0.000131007 0)
(0.00491182 -0.000136476 0)
(0.00490766 -0.000142071 0)
(0.00490338 -0.000147788 0)
(0.00489899 -0.000153621 0)
(0.00489447 -0.000159565 0)
(0.00488985 -0.000165611 0)
(0.00488512 -0.000171752 0)
(0.0048803 -0.000177979 0)
(0.00487538 -0.000184279 0)
(0.00487038 -0.000190642 0)
(0.00486531 -0.000197051 0)
(0.00486017 -0.000203492 0)
(0.00485498 -0.000209943 0)
(0.00484975 -0.000216382 0)
(0.0048445 -0.000222782 0)
(0.00483923 -0.00022911 0)
(0.00483396 -0.000235326 0)
(0.00482871 -0.000241381 0)
(0.00482349 -0.000247213 0)
(0.0048183 -0.000252747 0)
(0.00481316 -0.000257882 0)
(0.00480808 -0.000262491 0)
(0.00480303 -0.000266406 0)
(0.0047978 -0.000269408 0)
(0.00479193 -0.000271171 0)
(0.005 -3.58623e-08 0)
(0.00499999 -1.19133e-07 0)
(0.00499998 -2.13544e-07 0)
(0.00499996 -3.18138e-07 0)
(0.00499993 -4.33118e-07 0)
(0.00499989 -5.58921e-07 0)
(0.00499985 -6.96081e-07 0)
(0.0049998 -8.45235e-07 0)
(0.00499974 -1.00712e-06 0)
(0.00499967 -1.18255e-06 0)
(0.00499959 -1.37244e-06 0)
(0.00499951 -1.57777e-06 0)
(0.00499941 -1.79957e-06 0)
(0.0049993 -2.03895e-06 0)
(0.00499919 -2.29708e-06 0)
(0.00499906 -2.57516e-06 0)
(0.00499892 -2.87448e-06 0)
(0.00499877 -3.19635e-06 0)
(0.0049986 -3.54216e-06 0)
(0.00499842 -3.91334e-06 0)
(0.00499822 -4.31139e-06 0)
(0.00499801 -4.73785e-06 0)
(0.00499778 -5.19432e-06 0)
(0.00499753 -5.68246e-06 0)
(0.00499726 -6.20401e-06 0)
(0.00499697 -6.76073e-06 0)
(0.00499666 -7.35446e-06 0)
(0.00499633 -7.98711e-06 0)
(0.00499597 -8.66065e-06 0)
(0.00499558 -9.37708e-06 0)
(0.00499517 -1.01385e-05 0)
(0.00499473 -1.09471e-05 0)
(0.00499426 -1.1805e-05 0)
(0.00499376 -1.27145e-05 0)
(0.00499322 -1.36781e-05 0)
(0.00499264 -1.46979e-05 0)
(0.00499203 -1.57766e-05 0)
(0.00499138 -1.69166e-05 0)
(0.00499069 -1.81204e-05 0)
(0.00498996 -1.93908e-05 0)
(0.00498918 -2.07304e-05 0)
(0.00498835 -2.21418e-05 0)
(0.00498747 -2.3628e-05 0)
(0.00498654 -2.51917e-05 0)
(0.00498556 -2.68357e-05 0)
(0.00498452 -2.85629e-05 0)
(0.00498342 -3.03763e-05 0)
(0.00498225 -3.22788e-05 0)
(0.00498102 -3.42733e-05 0)
(0.00497973 -3.63629e-05 0)
(0.00497836 -3.85504e-05 0)
(0.00497692 -4.08389e-05 0)
(0.0049754 -4.32314e-05 0)
(0.00497381 -4.57306e-05 0)
(0.00497213 -4.83397e-05 0)
(0.00497037 -5.10612e-05 0)
(0.00496852 -5.38982e-05 0)
(0.00496658 -5.68533e-05 0)