/*--------------------------------*- C++ -*----------------------------------*\
  =========                 |
  \\      /  F ield         | OpenFOAM: The Open Source CFD Toolbox
   \\    /   O peration     | Website:  https://openfoam.org
    \\  /    A nd           | Version:  11
     \\/     M anipulation  |
\*---------------------------------------------------------------------------*/
FoamFile
{
    format      ascii;
    class       volVectorField;
    location    "1544";
    object      U;
}
// * * * * * * * * * * * * * * * * * * * * * * * * * * * * * * * * * * * * * //

dimensions      [0 1 -1 0 0 0 0];

internalField   nonuniform List<vector> 
10000
(
(0.005 -1.29651e-12 0)
(0.005 -3.64384e-12 0)
(0.005 -5.92334e-12 0)
(0.005 -8.22433e-12 0)
(0.005 -1.059e-11 0)
(0.005 -1.30474e-11 0)
(0.005 -1.56179e-11 0)
(0.005 -1.83192e-11 0)
(0.005 -2.11672e-11 0)
(0.005 -2.41766e-11 0)
(0.005 -2.73614e-11 0)
(0.005 -3.07352e-11 0)
(0.005 -3.43116e-11 0)
(0.005 -3.81041e-11 0)
(0.005 -4.21263e-11 0)
(0.005 -4.63921e-11 0)
(0.005 -5.09154e-11 0)
(0.005 -5.57105e-11 0)
(0.005 -6.07922e-11 0)
(0.005 -6.61752e-11 0)
(0.005 -7.18749e-11 0)
(0.005 -7.7907e-11 0)
(0.005 -8.42876e-11 0)
(0.005 -9.1033e-11 0)
(0.005 -9.81602e-11 0)
(0.005 -1.05686e-10 0)
(0.005 -1.13629e-10 0)
(0.005 -1.22007e-10 0)
(0.005 -1.30838e-10 0)
(0.005 -1.40141e-10 0)
(0.005 -1.49935e-10 0)
(0.005 -1.60239e-10 0)
(0.005 -1.71075e-10 0)
(0.005 -1.82461e-10 0)
(0.005 -1.94418e-10 0)
(0.005 -2.06968e-10 0)
(0.005 -2.2013e-10 0)
(0.005 -2.33926e-10 0)
(0.005 -2.48378e-10 0)
(0.005 -2.63507e-10 0)
(0.005 -2.79333e-10 0)
(0.005 -2.9588e-10 0)
(0.005 -3.13167e-10 0)
(0.005 -3.31216e-10 0)
(0.005 -3.50049e-10 0)
(0.005 -3.69686e-10 0)
(0.005 -3.90148e-10 0)
(0.005 -4.11454e-10 0)
(0.005 -4.33624e-10 0)
(0.005 -4.56678e-10 0)
(0.005 -4.80632e-10 0)
(0.005 -5.05505e-10 0)
(0.005 -5.31312e-10 0)
(0.005 -5.58069e-10 0)
(0.005 -5.8579e-10 0)
(0.005 -6.14486e-10 0)
(0.005 -6.4417e-10 0)
(0.005 -6.74849e-10 0)
(0.005 -7.06532e-10 0)
(0.005 -7.39222e-10 0)
(0.005 -7.72923e-10 0)
(0.005 -8.07634e-10 0)
(0.005 -8.43351e-10 0)
(0.005 -8.8007e-10 0)
(0.005 -9.17779e-10 0)
(0.005 -9.56464e-10 0)
(0.005 -9.96108e-10 0)
(0.005 -1.03669e-09 0)
(0.005 -1.07818e-09 0)
(0.005 -1.12054e-09 0)
(0.005 -1.16374e-09 0)
(0.005 -1.20772e-09 0)
(0.005 -1.25245e-09 0)
(0.005 -1.29784e-09 0)
(0.005 -1.34384e-09 0)
(0.005 -1.39036e-09 0)
(0.005 -1.43732e-09 0)
(0.005 -1.4846e-09 0)
(0.005 -1.53211e-09 0)
(0.005 -1.57969e-09 0)
(0.005 -1.62723e-09 0)
(0.005 -1.67454e-09 0)
(0.005 -1.72146e-09 0)
(0.005 -1.76777e-09 0)
(0.005 -1.81327e-09 0)
(0.005 -1.8577e-09 0)
(0.005 -1.90079e-09 0)
(0.005 -1.94223e-09 0)
(0.005 -1.98168e-09 0)
(0.005 -2.01879e-09 0)
(0.005 -2.05315e-09 0)
(0.005 -2.08431e-09 0)
(0.005 -2.11182e-09 0)
(0.005 -2.13522e-09 0)
(0.005 -2.15417e-09 0)
(0.005 -2.16839e-09 0)
(0.005 -2.17675e-09 0)
(0.005 -2.17855e-09 0)
(0.005 -2.17497e-09 0)
(0.005 -2.17017e-09 0)
(0.005 -1.13086e-12 0)
(0.005 -3.3236e-12 0)
(0.005 -5.50424e-12 0)
(0.005 -7.71744e-12 0)
(0.005 -9.99598e-12 0)
(0.005 -1.23638e-11 0)
(0.005 -1.48403e-11 0)
(0.005 -1.74424e-11 0)
(0.005 -2.01852e-11 0)
(0.005 -2.30826e-11 0)
(0.005 -2.61483e-11 0)
(0.005 -2.93953e-11 0)
(0.005 -3.28367e-11 0)
(0.005 -3.64854e-11 0)
(0.005 -4.03546e-11 0)
(0.005 -4.44574e-11 0)
(0.005 -4.88075e-11 0)
(0.005 -5.34184e-11 0)
(0.005 -5.83043e-11 0)
(0.005 -6.34794e-11 0)
(0.005 -6.89586e-11 0)
(0.005 -7.47568e-11 0)
(0.005 -8.08895e-11 0)
(0.005 -8.73725e-11 0)
(0.005 -9.42218e-11 0)
(0.005 -1.01454e-10 0)
(0.005 -1.09087e-10 0)
(0.005 -1.17136e-10 0)
(0.005 -1.25621e-10 0)
(0.005 -1.34558e-10 0)
(0.005 -1.43967e-10 0)
(0.005 -1.53867e-10 0)
(0.005 -1.64275e-10 0)
(0.005 -1.75212e-10 0)
(0.005 -1.86698e-10 0)
(0.005 -1.98751e-10 0)
(0.005 -2.11393e-10 0)
(0.005 -2.24643e-10 0)
(0.005 -2.38522e-10 0)
(0.005 -2.5305e-10 0)
(0.005 -2.68248e-10 0)
(0.005 -2.84137e-10 0)
(0.005 -3.00737e-10 0)
(0.005 -3.18069e-10 0)
(0.005 -3.36152e-10 0)
(0.005 -3.55008e-10 0)
(0.005 -3.74654e-10 0)
(0.005 -3.95112e-10 0)
(0.005 -4.16398e-10 0)
(0.005 -4.38533e-10 0)
(0.005 -4.61533e-10 0)
(0.005 -4.85415e-10 0)
(0.005 -5.10195e-10 0)
(0.005 -5.35887e-10 0)
(0.005 -5.62506e-10 0)
(0.005 -5.90063e-10 0)
(0.005 -6.18569e-10 0)
(0.005 -6.48034e-10 0)
(0.005 -6.78465e-10 0)
(0.005 -7.09867e-10 0)
(0.005 -7.42244e-10 0)
(0.005 -7.75595e-10 0)
(0.005 -8.0992e-10 0)
(0.005 -8.45213e-10 0)
(0.005 -8.81466e-10 0)
(0.005 -9.18668e-10 0)
(0.005 -9.56803e-10 0)
(0.005 -9.95851e-10 0)
(0.005 -1.03579e-09 0)
(0.005 -1.07659e-09 0)
(0.005 -1.11821e-09 0)
(0.005 -1.16061e-09 0)
(0.005 -1.20376e-09 0)
(0.005 -1.24759e-09 0)
(0.005 -1.29204e-09 0)
(0.005 -1.33703e-09 0)
(0.005 -1.3825e-09 0)
(0.005 -1.42836e-09 0)
(0.005 -1.47449e-09 0)
(0.005 -1.52078e-09 0)
(0.005 -1.56712e-09 0)
(0.005 -1.61335e-09 0)
(0.005 -1.65933e-09 0)
(0.005 -1.70487e-09 0)
(0.005 -1.74978e-09 0)
(0.005 -1.79385e-09 0)
(0.005 -1.83682e-09 0)
(0.005 -1.87845e-09 0)
(0.005 -1.91844e-09 0)
(0.005 -1.95646e-09 0)
(0.005 -1.99218e-09 0)
(0.005 -2.02521e-09 0)
(0.005 -2.05515e-09 0)
(0.005 -2.08159e-09 0)
(0.005 -2.10398e-09 0)
(0.005 -2.12162e-09 0)
(0.005 -2.13437e-09 0)
(0.005 -2.14294e-09 0)
(0.005 -2.14822e-09 0)
(0.005 -2.15193e-09 0)
(0.005 -9.97636e-13 0)
(0.005 -3.02856e-12 0)
(0.005 -5.09816e-12 0)
(0.005 -7.21837e-12 0)
(0.005 -9.4085e-12 0)
(0.005 -1.16871e-11 0)
(0.005 -1.40712e-11 0)
(0.005 -1.6576e-11 0)
(0.005 -1.92158e-11 0)
(0.005 -2.20039e-11 0)
(0.005 -2.49532e-11 0)
(0.005 -2.80765e-11 0)
(0.005 -3.1386e-11 0)
(0.005 -3.48944e-11 0)
(0.005 -3.86143e-11 0)
(0.005 -4.25583e-11 0)
(0.005 -4.67394e-11 0)
(0.005 -5.11708e-11 0)
(0.005 -5.58661e-11 0)
(0.005 -6.08389e-11 0)
(0.005 -6.61034e-11 0)
(0.005 -7.1674e-11 0)
(0.005 -7.75656e-11 0)
(0.005 -8.37934e-11 0)
(0.005 -9.03727e-11 0)
(0.005 -9.73196e-11 0)
(0.005 -1.0465e-10 0)
(0.005 -1.12381e-10 0)
(0.005 -1.2053e-10 0)
(0.005 -1.29113e-10 0)
(0.005 -1.38148e-10 0)
(0.005 -1.47654e-10 0)
(0.005 -1.57649e-10 0)
(0.005 -1.6815e-10 0)
(0.005 -1.79178e-10 0)
(0.005 -1.90751e-10 0)
(0.005 -2.02888e-10 0)
(0.005 -2.15609e-10 0)
(0.005 -2.28933e-10 0)
(0.005 -2.4288e-10 0)
(0.005 -2.57471e-10 0)
(0.005 -2.72723e-10 0)
(0.005 -2.88659e-10 0)
(0.005 -3.05296e-10 0)
(0.005 -3.22654e-10 0)
(0.005 -3.40753e-10 0)
(0.005 -3.59612e-10 0)
(0.005 -3.79248e-10 0)
(0.005 -3.99681e-10 0)
(0.005 -4.20928e-10 0)
(0.005 -4.43006e-10 0)
(0.005 -4.65931e-10 0)
(0.005 -4.89718e-10 0)
(0.005 -5.14383e-10 0)
(0.005 -5.39937e-10 0)
(0.005 -5.66394e-10 0)
(0.005 -5.93765e-10 0)
(0.005 -6.22058e-10 0)
(0.005 -6.51281e-10 0)
(0.005 -6.81441e-10 0)
(0.005 -7.1254e-10 0)
(0.005 -7.44581e-10 0)
(0.005 -7.77563e-10 0)
(0.005 -8.11482e-10 0)
(0.005 -8.46333e-10 0)
(0.005 -8.82105e-10 0)
(0.005 -9.18785e-10 0)
(0.005 -9.56357e-10 0)
(0.005 -9.94801e-10 0)
(0.005 -1.03409e-09 0)
(0.005 -1.0742e-09 0)
(0.005 -1.11508e-09 0)
(0.005 -1.15671e-09 0)
(0.005 -1.19903e-09 0)
(0.005 -1.24198e-09 0)
(0.005 -1.28552e-09 0)
(0.005 -1.32956e-09 0)
(0.005 -1.37403e-09 0)
(0.005 -1.41884e-09 0)
(0.005 -1.46389e-09 0)
(0.005 -1.50907e-09 0)
(0.005 -1.55427e-09 0)
(0.005 -1.59933e-09 0)
(0.005 -1.64412e-09 0)
(0.005 -1.68846e-09 0)
(0.005 -1.73216e-09 0)
(0.005 -1.77502e-09 0)
(0.005 -1.8168e-09 0)
(0.005 -1.85727e-09 0)
(0.005 -1.89613e-09 0)
(0.005 -1.93308e-09 0)
(0.005 -1.96781e-09 0)
(0.005 -1.99994e-09 0)
(0.005 -2.02908e-09 0)
(0.005 -2.05478e-09 0)
(0.005 -2.07666e-09 0)
(0.005 -2.0946e-09 0)
(0.005 -2.10861e-09 0)
(0.005 -2.11899e-09 0)
(0.005 -2.12746e-09 0)
(0.005 -9.06696e-13 0)
(0.005 -2.79325e-12 0)
(0.005 -4.75027e-12 0)
(0.005 -6.77611e-12 0)
(0.005 -8.87967e-12 0)
(0.005 -1.10736e-11 0)
(0.005 -1.33716e-11 0)
(0.005 -1.57869e-11 0)
(0.005 -1.83326e-11 0)
(0.005 -2.1021e-11 0)
(0.005 -2.38646e-11 0)
(0.005 -2.68753e-11 0)
(0.005 -3.00651e-11 0)
(0.005 -3.34461e-11 0)
(0.005 -3.70303e-11 0)
(0.005 -4.083e-11 0)
(0.005 -4.48577e-11 0)
(0.005 -4.91261e-11 0)
(0.005 -5.36481e-11 0)
(0.005 -5.8437e-11 0)
(0.005 -6.35065e-11 0)
(0.005 -6.88703e-11 0)
(0.005 -7.45428e-11 0)
(0.005 -8.05386e-11 0)
(0.005 -8.68725e-11 0)
(0.005 -9.35598e-11 0)
(0.005 -1.00616e-10 0)
(0.005 -1.08058e-10 0)
(0.005 -1.15901e-10 0)
(0.005 -1.24162e-10 0)
(0.005 -1.32857e-10 0)
(0.005 -1.42006e-10 0)
(0.005 -1.51624e-10 0)
(0.005 -1.6173e-10 0)
(0.005 -1.72341e-10 0)
(0.005 -1.83477e-10 0)
(0.005 -1.95155e-10 0)
(0.005 -2.07395e-10 0)
(0.005 -2.20215e-10 0)
(0.005 -2.33634e-10 0)
(0.005 -2.47671e-10 0)
(0.005 -2.62346e-10 0)
(0.005 -2.77676e-10 0)
(0.005 -2.93681e-10 0)
(0.005 -3.10381e-10 0)
(0.005 -3.27792e-10 0)
(0.005 -3.45934e-10 0)
(0.005 -3.64825e-10 0)
(0.005 -3.84481e-10 0)
(0.005 -4.04921e-10 0)
(0.005 -4.2616e-10 0)
(0.005 -4.48215e-10 0)
(0.005 -4.711e-10 0)
(0.005 -4.94829e-10 0)
(0.005 -5.19416e-10 0)
(0.005 -5.44873e-10 0)
(0.005 -5.71211e-10 0)
(0.005 -5.98438e-10 0)
(0.005 -6.26563e-10 0)
(0.005 -6.55592e-10 0)
(0.005 -6.85531e-10 0)
(0.005 -7.1638e-10 0)
(0.005 -7.4814e-10 0)
(0.005 -7.8081e-10 0)
(0.005 -8.14384e-10 0)
(0.005 -8.48855e-10 0)
(0.005 -8.84212e-10 0)
(0.005 -9.20442e-10 0)
(0.005 -9.57526e-10 0)
(0.005 -9.95443e-10 0)
(0.005 -1.03417e-09 0)
(0.005 -1.07367e-09 0)
(0.005 -1.11391e-09 0)
(0.005 -1.15485e-09 0)
(0.005 -1.19645e-09 0)
(0.005 -1.23865e-09 0)
(0.005 -1.28138e-09 0)
(0.005 -1.32459e-09 0)
(0.005 -1.36819e-09 0)
(0.005 -1.4121e-09 0)
(0.005 -1.45623e-09 0)
(0.005 -1.50046e-09 0)
(0.005 -1.54468e-09 0)
(0.005 -1.58876e-09 0)
(0.005 -1.63255e-09 0)
(0.005 -1.67589e-09 0)
(0.005 -1.71859e-09 0)
(0.005 -1.76047e-09 0)
(0.005 -1.8013e-09 0)
(0.005 -1.84083e-09 0)
(0.005 -1.87881e-09 0)
(0.005 -1.91492e-09 0)
(0.005 -1.94886e-09 0)
(0.005 -1.98024e-09 0)
(0.005 -2.00867e-09 0)
(0.005 -2.03381e-09 0)
(0.005 -2.05541e-09 0)
(0.005 -2.07318e-09 0)
(0.005 -2.08679e-09 0)
(0.005 -2.09667e-09 0)
(0.005 -8.32818e-13 0)
(0.005 -2.58754e-12 0)
(0.005 -4.43094e-12 0)
(0.005 -6.35745e-12 0)
(0.005 -8.36985e-12 0)
(0.005 -1.0476e-11 0)
(0.005 -1.2686e-11 0)
(0.005 -1.5011e-11 0)
(0.005 -1.74625e-11 0)
(0.005 -2.00519e-11 0)
(0.005 -2.27906e-11 0)
(0.005 -2.569e-11 0)
(0.005 -2.87616e-11 0)
(0.005 -3.20169e-11 0)
(0.005 -3.54673e-11 0)
(0.005 -3.91248e-11 0)
(0.005 -4.30012e-11 0)
(0.005 -4.71088e-11 0)
(0.005 -5.14601e-11 0)
(0.005 -5.60678e-11 0)
(0.005 -6.0945e-11 0)
(0.005 -6.6105e-11 0)
(0.005 -7.15615e-11 0)
(0.005 -7.73285e-11 0)
(0.005 -8.34204e-11 0)
(0.005 -8.98519e-11 0)
(0.005 -9.6638e-11 0)
(0.005 -1.03794e-10 0)
(0.005 -1.11336e-10 0)
(0.005 -1.19279e-10 0)
(0.005 -1.2764e-10 0)
(0.005 -1.36435e-10 0)
(0.005 -1.45682e-10 0)
(0.005 -1.55398e-10 0)
(0.005 -1.65599e-10 0)
(0.005 -1.76304e-10 0)
(0.005 -1.8753e-10 0)
(0.005 -1.99295e-10 0)
(0.005 -2.11617e-10 0)
(0.005 -2.24515e-10 0)
(0.005 -2.38007e-10 0)
(0.005 -2.52111e-10 0)
(0.005 -2.66845e-10 0)
(0.005 -2.82227e-10 0)
(0.005 -2.98276e-10 0)
(0.005 -3.1501e-10 0)
(0.005 -3.32445e-10 0)
(0.005 -3.506e-10 0)
(0.005 -3.6949e-10 0)
(0.005 -3.89134e-10 0)
(0.005 -4.09546e-10 0)
(0.005 -4.30742e-10 0)
(0.005 -4.52737e-10 0)
(0.005 -4.75544e-10 0)
(0.005 -4.99177e-10 0)
(0.005 -5.23647e-10 0)
(0.005 -5.48965e-10 0)
(0.005 -5.75141e-10 0)
(0.005 -6.02183e-10 0)
(0.005 -6.30098e-10 0)
(0.005 -6.5889e-10 0)
(0.005 -6.88563e-10 0)
(0.005 -7.19118e-10 0)
(0.005 -7.50555e-10 0)
(0.005 -7.8287e-10 0)
(0.005 -8.16057e-10 0)
(0.005 -8.50108e-10 0)
(0.005 -8.85012e-10 0)
(0.005 -9.20754e-10 0)
(0.005 -9.57316e-10 0)
(0.005 -9.94677e-10 0)
(0.005 -1.03281e-09 0)
(0.005 -1.07168e-09 0)
(0.005 -1.11127e-09 0)
(0.005 -1.15152e-09 0)
(0.005 -1.19239e-09 0)
(0.005 -1.23383e-09 0)
(0.005 -1.27578e-09 0)
(0.005 -1.31818e-09 0)
(0.005 -1.36095e-09 0)
(0.005 -1.40402e-09 0)
(0.005 -1.44729e-09 0)
(0.005 -1.49065e-09 0)
(0.005 -1.534e-09 0)
(0.005 -1.57722e-09 0)
(0.005 -1.62016e-09 0)
(0.005 -1.66267e-09 0)
(0.005 -1.70457e-09 0)
(0.005 -1.74568e-09 0)
(0.005 -1.78578e-09 0)
(0.005 -1.82463e-09 0)
(0.005 -1.86197e-09 0)
(0.005 -1.89749e-09 0)
(0.005 -1.93085e-09 0)
(0.005 -1.96167e-09 0)
(0.005 -1.98957e-09 0)
(0.005 -2.01412e-09 0)
(0.005 -2.03475e-09 0)
(0.005 -2.05066e-09 0)
(0.005 -2.06004e-09 0)
(0.005 -7.6868e-13 0)
(0.005 -2.40211e-12 0)
(0.005 -4.13422e-12 0)
(0.005 -5.95928e-12 0)
(0.005 -7.87703e-12 0)
(0.005 -9.89185e-12 0)
(0.005 -1.20111e-11 0)
(0.005 -1.42438e-11 0)
(0.005 -1.65998e-11 0)
(0.005 -1.90893e-11 0)
(0.005 -2.17228e-11 0)
(0.005 -2.4511e-11 0)
(0.005 -2.74645e-11 0)
(0.005 -3.05944e-11 0)
(0.005 -3.39116e-11 0)
(0.005 -3.74275e-11 0)
(0.005 -4.11535e-11 0)
(0.005 -4.51012e-11 0)
(0.005 -4.92828e-11 0)
(0.005 -5.37103e-11 0)
(0.005 -5.83963e-11 0)
(0.005 -6.33537e-11 0)
(0.005 -6.85955e-11 0)
(0.005 -7.41353e-11 0)
(0.005 -7.99867e-11 0)
(0.005 -8.61639e-11 0)
(0.005 -9.26812e-11 0)
(0.005 -9.95534e-11 0)
(0.005 -1.06796e-10 0)
(0.005 -1.14423e-10 0)
(0.005 -1.22451e-10 0)
(0.005 -1.30896e-10 0)
(0.005 -1.39774e-10 0)
(0.005 -1.49102e-10 0)
(0.005 -1.58895e-10 0)
(0.005 -1.69172e-10 0)
(0.005 -1.79948e-10 0)
(0.005 -1.91242e-10 0)
(0.005 -2.0307e-10 0)
(0.005 -2.15451e-10 0)
(0.005 -2.284e-10 0)
(0.005 -2.41937e-10 0)
(0.005 -2.56079e-10 0)
(0.005 -2.70842e-10 0)
(0.005 -2.86245e-10 0)
(0.005 -3.02305e-10 0)
(0.005 -3.19038e-10 0)
(0.005 -3.36462e-10 0)
(0.005 -3.54592e-10 0)
(0.005 -3.73444e-10 0)
(0.005 -3.93035e-10 0)
(0.005 -4.13378e-10 0)
(0.005 -4.34489e-10 0)
(0.005 -4.5638e-10 0)
(0.005 -4.79065e-10 0)
(0.005 -5.02555e-10 0)
(0.005 -5.26861e-10 0)
(0.005 -5.51992e-10 0)
(0.005 -5.77958e-10 0)
(0.005 -6.04765e-10 0)
(0.005 -6.32419e-10 0)
(0.005 -6.60924e-10 0)
(0.005 -6.90282e-10 0)
(0.005 -7.20494e-10 0)
(0.005 -7.51557e-10 0)
(0.005 -7.83469e-10 0)
(0.005 -8.16223e-10 0)
(0.005 -8.49809e-10 0)
(0.005 -8.84217e-10 0)
(0.005 -9.19431e-10 0)
(0.005 -9.55435e-10 0)
(0.005 -9.92206e-10 0)
(0.005 -1.02972e-09 0)
(0.005 -1.06795e-09 0)
(0.005 -1.10685e-09 0)
(0.005 -1.1464e-09 0)
(0.005 -1.18655e-09 0)
(0.005 -1.22725e-09 0)
(0.005 -1.26845e-09 0)
(0.005 -1.31008e-09 0)
(0.005 -1.35207e-09 0)
(0.005 -1.39436e-09 0)
(0.005 -1.43685e-09 0)
(0.005 -1.47945e-09 0)
(0.005 -1.52206e-09 0)
(0.005 -1.56455e-09 0)
(0.005 -1.6068e-09 0)
(0.005 -1.64866e-09 0)
(0.005 -1.68995e-09 0)
(0.005 -1.7305e-09 0)
(0.005 -1.77009e-09 0)
(0.005 -1.80847e-09 0)
(0.005 -1.84535e-09 0)
(0.005 -1.8804e-09 0)
(0.005 -1.91324e-09 0)
(0.005 -1.9434e-09 0)
(0.005 -1.9703e-09 0)
(0.005 -1.99309e-09 0)
(0.005 -2.01054e-09 0)
(0.005 -2.0196e-09 0)
(0.005 -7.12024e-13 0)
(0.005 -2.23381e-12 0)
(0.005 -3.85917e-12 0)
(0.005 -5.58358e-12 0)
(0.005 -7.4055e-12 0)
(0.005 -9.32721e-12 0)
(0.005 -1.1354e-11 0)
(0.005 -1.3493e-11 0)
(0.005 -1.57526e-11 0)
(0.005 -1.81418e-11 0)
(0.005 -2.06702e-11 0)
(0.005 -2.33474e-11 0)
(0.005 -2.61837e-11 0)
(0.005 -2.91892e-11 0)
(0.005 -3.23745e-11 0)
(0.005 -3.57503e-11 0)
(0.005 -3.93274e-11 0)
(0.005 -4.31172e-11 0)
(0.005 -4.71311e-11 0)
(0.005 -5.13806e-11 0)
(0.005 -5.58779e-11 0)
(0.005 -6.06352e-11 0)
(0.005 -6.56651e-11 0)
(0.005 -7.09805e-11 0)
(0.005 -7.65946e-11 0)
(0.005 -8.25208e-11 0)
(0.005 -8.87729e-11 0)
(0.005 -9.53651e-11 0)
(0.005 -1.02312e-10 0)
(0.005 -1.09628e-10 0)
(0.005 -1.17327e-10 0)
(0.005 -1.25427e-10 0)
(0.005 -1.33941e-10 0)
(0.005 -1.42885e-10 0)
(0.005 -1.52277e-10 0)
(0.005 -1.62131e-10 0)
(0.005 -1.72463e-10 0)
(0.005 -1.83292e-10 0)
(0.005 -1.94633e-10 0)
(0.005 -2.06502e-10 0)
(0.005 -2.18917e-10 0)
(0.005 -2.31895e-10 0)
(0.005 -2.45452e-10 0)
(0.005 -2.59605e-10 0)
(0.005 -2.74371e-10 0)
(0.005 -2.89766e-10 0)
(0.005 -3.05807e-10 0)
(0.005 -3.22509e-10 0)
(0.005 -3.39889e-10 0)
(0.005 -3.57961e-10 0)
(0.005 -3.76741e-10 0)
(0.005 -3.96244e-10 0)
(0.005 -4.16482e-10 0)
(0.005 -4.3747e-10 0)
(0.005 -4.5922e-10 0)
(0.005 -4.81743e-10 0)
(0.005 -5.05051e-10 0)
(0.005 -5.29153e-10 0)
(0.005 -5.54057e-10 0)
(0.005 -5.79772e-10 0)
(0.005 -6.06304e-10 0)
(0.005 -6.33656e-10 0)
(0.005 -6.61834e-10 0)
(0.005 -6.90837e-10 0)
(0.005 -7.20666e-10 0)
(0.005 -7.5132e-10 0)
(0.005 -7.82793e-10 0)
(0.005 -8.15079e-10 0)
(0.005 -8.4817e-10 0)
(0.005 -8.82054e-10 0)
(0.005 -9.16717e-10 0)
(0.005 -9.52142e-10 0)
(0.005 -9.8831e-10 0)
(0.005 -1.0252e-09 0)
(0.005 -1.06278e-09 0)
(0.005 -1.10101e-09 0)
(0.005 -1.13988e-09 0)
(0.005 -1.17933e-09 0)
(0.005 -1.21932e-09 0)
(0.005 -1.25981e-09 0)
(0.005 -1.30073e-09 0)
(0.005 -1.34202e-09 0)
(0.005 -1.38362e-09 0)
(0.005 -1.42545e-09 0)
(0.005 -1.46741e-09 0)
(0.005 -1.5094e-09 0)
(0.005 -1.55133e-09 0)
(0.005 -1.59306e-09 0)
(0.005 -1.63444e-09 0)
(0.005 -1.67531e-09 0)
(0.005 -1.71546e-09 0)
(0.005 -1.75468e-09 0)
(0.005 -1.79267e-09 0)
(0.005 -1.8291e-09 0)
(0.005 -1.86355e-09 0)
(0.005 -1.89549e-09 0)
(0.005 -1.92418e-09 0)
(0.005 -1.94856e-09 0)
(0.005 -1.96704e-09 0)
(0.005 -1.97653e-09 0)
(0.005 -6.61105e-13 0)
(0.005 -2.0798e-12 0)
(0.005 -3.60367e-12 0)
(0.005 -5.22978e-12 0)
(0.005 -6.95632e-12 0)
(0.005 -8.78442e-12 0)
(0.005 -1.07179e-11 0)
(0.005 -1.27625e-11 0)
(0.005 -1.49252e-11 0)
(0.005 -1.72139e-11 0)
(0.005 -1.96373e-11 0)
(0.005 -2.22042e-11 0)
(0.005 -2.49241e-11 0)
(0.005 -2.78065e-11 0)
(0.005 -3.08613e-11 0)
(0.005 -3.40987e-11 0)
(0.005 -3.75291e-11 0)
(0.005 -4.11631e-11 0)
(0.005 -4.50117e-11 0)
(0.005 -4.90859e-11 0)
(0.005 -5.33973e-11 0)
(0.005 -5.79577e-11 0)
(0.005 -6.27789e-11 0)
(0.005 -6.78735e-11 0)
(0.005 -7.32539e-11 0)
(0.005 -7.89331e-11 0)
(0.005 -8.49243e-11 0)
(0.005 -9.12409e-11 0)
(0.005 -9.78968e-11 0)
(0.005 -1.04906e-10 0)
(0.005 -1.12283e-10 0)
(0.005 -1.20042e-10 0)
(0.005 -1.28198e-10 0)
(0.005 -1.36766e-10 0)
(0.005 -1.45761e-10 0)
(0.005 -1.552e-10 0)
(0.005 -1.65096e-10 0)
(0.005 -1.75467e-10 0)
(0.005 -1.86328e-10 0)
(0.005 -1.97696e-10 0)
(0.005 -2.09585e-10 0)
(0.005 -2.22013e-10 0)
(0.005 -2.34995e-10 0)
(0.005 -2.48548e-10 0)
(0.005 -2.62687e-10 0)
(0.005 -2.77429e-10 0)
(0.005 -2.92788e-10 0)
(0.005 -3.08781e-10 0)
(0.005 -3.25423e-10 0)
(0.005 -3.42729e-10 0)
(0.005 -3.60712e-10 0)
(0.005 -3.79388e-10 0)
(0.005 -3.98769e-10 0)
(0.005 -4.18869e-10 0)
(0.005 -4.39699e-10 0)
(0.005 -4.61272e-10 0)
(0.005 -4.83598e-10 0)
(0.005 -5.06688e-10 0)
(0.005 -5.30549e-10 0)
(0.005 -5.5519e-10 0)
(0.005 -5.80618e-10 0)
(0.005 -6.06838e-10 0)
(0.005 -6.33854e-10 0)
(0.005 -6.61669e-10 0)
(0.005 -6.90284e-10 0)
(0.005 -7.197e-10 0)
(0.005 -7.49913e-10 0)
(0.005 -7.80919e-10 0)
(0.005 -8.12713e-10 0)
(0.005 -8.45287e-10 0)
(0.005 -8.7863e-10 0)
(0.005 -9.12729e-10 0)
(0.005 -9.4757e-10 0)
(0.005 -9.83133e-10 0)
(0.005 -1.0194e-09 0)
(0.005 -1.05634e-09 0)
(0.005 -1.09393e-09 0)
(0.005 -1.13215e-09 0)
(0.005 -1.17094e-09 0)
(0.005 -1.21028e-09 0)
(0.005 -1.25012e-09 0)
(0.005 -1.29041e-09 0)
(0.005 -1.3311e-09 0)
(0.005 -1.37211e-09 0)
(0.005 -1.41339e-09 0)
(0.005 -1.45484e-09 0)
(0.005 -1.49637e-09 0)
(0.005 -1.53788e-09 0)
(0.005 -1.57923e-09 0)
(0.005 -1.62028e-09 0)
(0.005 -1.66083e-09 0)
(0.005 -1.70067e-09 0)
(0.005 -1.73952e-09 0)
(0.005 -1.77701e-09 0)
(0.005 -1.8127e-09 0)
(0.005 -1.84597e-09 0)
(0.005 -1.876e-09 0)
(0.005 -1.90153e-09 0)
(0.005 -1.92073e-09 0)
(0.005 -1.93127e-09 0)
(0.005 -6.14615e-13 0)
(0.005 -1.93763e-12 0)
(0.005 -3.36532e-12 0)
(0.005 -4.89632e-12 0)
(0.005 -6.52904e-12 0)
(0.005 -8.26403e-12 0)
(0.005 -1.01042e-11 0)
(0.005 -1.20541e-11 0)
(0.005 -1.41199e-11 0)
(0.005 -1.63083e-11 0)
(0.005 -1.86271e-11 0)
(0.005 -2.10844e-11 0)
(0.005 -2.36888e-11 0)
(0.005 -2.64494e-11 0)
(0.005 -2.93753e-11 0)
(0.005 -3.24761e-11 0)
(0.005 -3.57618e-11 0)
(0.005 -3.92424e-11 0)
(0.005 -4.29282e-11 0)
(0.005 -4.68299e-11 0)
(0.005 -5.09585e-11 0)
(0.005 -5.53251e-11 0)
(0.005 -5.99413e-11 0)
(0.005 -6.48188e-11 0)
(0.005 -6.99696e-11 0)
(0.005 -7.54061e-11 0)
(0.005 -8.11408e-11 0)
(0.005 -8.71868e-11 0)
(0.005 -9.35571e-11 0)
(0.005 -1.00265e-10 0)
(0.005 -1.07325e-10 0)
(0.005 -1.14749e-10 0)
(0.005 -1.22554e-10 0)
(0.005 -1.30752e-10 0)
(0.005 -1.39359e-10 0)
(0.005 -1.48389e-10 0)
(0.005 -1.57857e-10 0)
(0.005 -1.67779e-10 0)
(0.005 -1.78169e-10 0)
(0.005 -1.89043e-10 0)
(0.005 -2.00416e-10 0)
(0.005 -2.12304e-10 0)
(0.005 -2.24722e-10 0)
(0.005 -2.37685e-10 0)
(0.005 -2.51209e-10 0)
(0.005 -2.6531e-10 0)
(0.005 -2.80001e-10 0)
(0.005 -2.95298e-10 0)
(0.005 -3.11216e-10 0)
(0.005 -3.27768e-10 0)
(0.005 -3.4497e-10 0)
(0.005 -3.62834e-10 0)
(0.005 -3.81374e-10 0)
(0.005 -4.00602e-10 0)
(0.005 -4.2053e-10 0)
(0.005 -4.41171e-10 0)
(0.005 -4.62534e-10 0)
(0.005 -4.84629e-10 0)
(0.005 -5.07466e-10 0)
(0.005 -5.31054e-10 0)
(0.005 -5.55398e-10 0)
(0.005 -5.80506e-10 0)
(0.005 -6.06382e-10 0)
(0.005 -6.3303e-10 0)
(0.005 -6.60454e-10 0)
(0.005 -6.88653e-10 0)
(0.005 -7.17628e-10 0)
(0.005 -7.47378e-10 0)
(0.005 -7.77898e-10 0)
(0.005 -8.09183e-10 0)
(0.005 -8.41227e-10 0)
(0.005 -8.7402e-10 0)
(0.005 -9.07552e-10 0)
(0.005 -9.4181e-10 0)
(0.005 -9.76778e-10 0)
(0.005 -1.01244e-09 0)
(0.005 -1.04877e-09 0)
(0.005 -1.08575e-09 0)
(0.005 -1.12336e-09 0)
(0.005 -1.16155e-09 0)
(0.005 -1.20031e-09 0)
(0.005 -1.23958e-09 0)
(0.005 -1.27933e-09 0)
(0.005 -1.31951e-09 0)
(0.005 -1.36006e-09 0)
(0.005 -1.4009e-09 0)
(0.005 -1.44197e-09 0)
(0.005 -1.48317e-09 0)
(0.005 -1.52438e-09 0)
(0.005 -1.56546e-09 0)
(0.005 -1.60623e-09 0)
(0.005 -1.64649e-09 0)
(0.005 -1.68593e-09 0)
(0.005 -1.72419e-09 0)
(0.005 -1.76078e-09 0)
(0.005 -1.79503e-09 0)
(0.005 -1.82602e-09 0)
(0.005 -1.85243e-09 0)
(0.005 -1.87248e-09 0)
(0.005 -1.88416e-09 0)
(0.005 -5.717e-13 0)
(0.005 -1.80549e-12 0)
(0.005 -3.14212e-12 0)
(0.005 -4.58163e-12 0)
(0.005 -6.12282e-12 0)
(0.005 -7.76605e-12 0)
(0.005 -9.51363e-12 0)
(0.005 -1.13694e-11 0)
(0.005 -1.33386e-11 0)
(0.005 -1.54272e-11 0)
(0.005 -1.7642e-11 0)
(0.005 -1.99906e-11 0)
(0.005 -2.24807e-11 0)
(0.005 -2.51208e-11 0)
(0.005 -2.79195e-11 0)
(0.005 -3.08857e-11 0)
(0.005 -3.40288e-11 0)
(0.005 -3.73584e-11 0)
(0.005 -4.08842e-11 0)
(0.005 -4.46164e-11 0)
(0.005 -4.85654e-11 0)
(0.005 -5.27418e-11 0)
(0.005 -5.71566e-11 0)
(0.005 -6.18211e-11 0)
(0.005 -6.67466e-11 0)
(0.005 -7.19449e-11 0)
(0.005 -7.74282e-11 0)
(0.005 -8.32086e-11 0)
(0.005 -8.92987e-11 0)
(0.005 -9.57114e-11 0)
(0.005 -1.0246e-10 0)
(0.005 -1.09557e-10 0)
(0.005 -1.17017e-10 0)
(0.005 -1.24852e-10 0)
(0.005 -1.33078e-10 0)
(0.005 -1.41708e-10 0)
(0.005 -1.50756e-10 0)
(0.005 -1.60238e-10 0)
(0.005 -1.70166e-10 0)
(0.005 -1.80557e-10 0)
(0.005 -1.91424e-10 0)
(0.005 -2.02783e-10 0)
(0.005 -2.14648e-10 0)
(0.005 -2.27033e-10 0)
(0.005 -2.39955e-10 0)
(0.005 -2.53426e-10 0)
(0.005 -2.67463e-10 0)
(0.005 -2.82078e-10 0)
(0.005 -2.97286e-10 0)
(0.005 -3.13101e-10 0)
(0.005 -3.29536e-10 0)
(0.005 -3.46605e-10 0)
(0.005 -3.64321e-10 0)
(0.005 -3.82695e-10 0)
(0.005 -4.0174e-10 0)
(0.005 -4.21467e-10 0)
(0.005 -4.41886e-10 0)
(0.005 -4.63008e-10 0)
(0.005 -4.84842e-10 0)
(0.005 -5.07397e-10 0)
(0.005 -5.3068e-10 0)
(0.005 -5.54698e-10 0)
(0.005 -5.79457e-10 0)
(0.005 -6.04962e-10 0)
(0.005 -6.31216e-10 0)
(0.005 -6.58224e-10 0)
(0.005 -6.85985e-10 0)
(0.005 -7.145e-10 0)
(0.005 -7.43769e-10 0)
(0.005 -7.73789e-10 0)
(0.005 -8.04556e-10 0)
(0.005 -8.36066e-10 0)
(0.005 -8.68311e-10 0)
(0.005 -9.01282e-10 0)
(0.005 -9.34971e-10 0)
(0.005 -9.69364e-10 0)
(0.005 -1.00445e-09 0)
(0.005 -1.04021e-09 0)
(0.005 -1.07662e-09 0)
(0.005 -1.11368e-09 0)
(0.005 -1.15134e-09 0)
(0.005 -1.18958e-09 0)
(0.005 -1.22838e-09 0)
(0.005 -1.26768e-09 0)
(0.005 -1.30746e-09 0)
(0.005 -1.34764e-09 0)
(0.005 -1.38817e-09 0)
(0.005 -1.42896e-09 0)
(0.005 -1.46991e-09 0)
(0.005 -1.51089e-09 0)
(0.005 -1.55172e-09 0)
(0.005 -1.59219e-09 0)
(0.005 -1.632e-09 0)
(0.005 -1.67077e-09 0)
(0.005 -1.70797e-09 0)
(0.005 -1.74288e-09 0)
(0.005 -1.77454e-09 0)
(0.005 -1.80158e-09 0)
(0.005 -1.82224e-09 0)
(0.005 -1.83445e-09 0)
(0.005 -5.31791e-13 0)
(0.005 -1.68204e-12 0)
(0.005 -2.93248e-12 0)
(0.005 -4.28429e-12 0)
(0.005 -5.73674e-12 0)
(0.005 -7.29017e-12 0)
(0.005 -8.94656e-12 0)
(0.005 -1.07093e-11 0)
(0.005 -1.25827e-11 0)
(0.005 -1.45723e-11 0)
(0.005 -1.66842e-11 0)
(0.005 -1.89251e-11 0)
(0.005 -2.13024e-11 0)
(0.005 -2.38236e-11 0)
(0.005 -2.64968e-11 0)
(0.005 -2.93306e-11 0)
(0.005 -3.23335e-11 0)
(0.005 -3.55146e-11 0)
(0.005 -3.88833e-11 0)
(0.005 -4.24491e-11 0)
(0.005 -4.62219e-11 0)
(0.005 -5.02118e-11 0)
(0.005 -5.44293e-11 0)
(0.005 -5.88849e-11 0)
(0.005 -6.35897e-11 0)
(0.005 -6.85548e-11 0)
(0.005 -7.37917e-11 0)
(0.005 -7.93121e-11 0)
(0.005 -8.5128e-11 0)
(0.005 -9.12515e-11 0)
(0.005 -9.76952e-11 0)
(0.005 -1.04472e-10 0)
(0.005 -1.11594e-10 0)
(0.005 -1.19075e-10 0)
(0.005 -1.26928e-10 0)
(0.005 -1.35166e-10 0)
(0.005 -1.43803e-10 0)
(0.005 -1.52854e-10 0)
(0.005 -1.62331e-10 0)
(0.005 -1.72248e-10 0)
(0.005 -1.82621e-10 0)
(0.005 -1.93462e-10 0)
(0.005 -2.04786e-10 0)
(0.005 -2.16607e-10 0)
(0.005 -2.28938e-10 0)
(0.005 -2.41795e-10 0)
(0.005 -2.55191e-10 0)
(0.005 -2.69139e-10 0)
(0.005 -2.83653e-10 0)
(0.005 -2.98747e-10 0)
(0.005 -3.14433e-10 0)
(0.005 -3.30725e-10 0)
(0.005 -3.47634e-10 0)
(0.005 -3.65173e-10 0)
(0.005 -3.83354e-10 0)
(0.005 -4.02187e-10 0)
(0.005 -4.21684e-10 0)
(0.005 -4.41854e-10 0)
(0.005 -4.62707e-10 0)
(0.005 -4.84251e-10 0)
(0.005 -5.06496e-10 0)
(0.005 -5.29448e-10 0)
(0.005 -5.53114e-10 0)
(0.005 -5.775e-10 0)
(0.005 -6.02611e-10 0)
(0.005 -6.28451e-10 0)
(0.005 -6.55023e-10 0)
(0.005 -6.8233e-10 0)
(0.005 -7.10373e-10 0)
(0.005 -7.39152e-10 0)
(0.005 -7.68667e-10 0)
(0.005 -7.98915e-10 0)
(0.005 -8.29894e-10 0)
(0.005 -8.616e-10 0)
(0.005 -8.94027e-10 0)
(0.005 -9.2717e-10 0)
(0.005 -9.61019e-10 0)
(0.005 -9.95566e-10 0)
(0.005 -1.0308e-09 0)
(0.005 -1.06671e-09 0)
(0.005 -1.10327e-09 0)
(0.005 -1.14047e-09 0)
(0.005 -1.17829e-09 0)
(0.005 -1.21669e-09 0)
(0.005 -1.25565e-09 0)
(0.005 -1.29511e-09 0)
(0.005 -1.33503e-09 0)
(0.005 -1.37532e-09 0)
(0.005 -1.4159e-09 0)
(0.005 -1.45664e-09 0)
(0.005 -1.49737e-09 0)
(0.005 -1.53787e-09 0)
(0.005 -1.57784e-09 0)
(0.005 -1.61687e-09 0)
(0.005 -1.65442e-09 0)
(0.005 -1.68975e-09 0)
(0.005 -1.72184e-09 0)
(0.005 -1.74932e-09 0)
(0.005 -1.77039e-09 0)
(0.005 -1.78292e-09 0)
(0.005 -4.94485e-13 0)
(0.005 -1.56627e-12 0)
(0.005 -2.7351e-12 0)
(0.005 -4.00304e-12 0)
(0.005 -5.36981e-12 0)
(0.005 -6.83584e-12 0)
(0.005 -8.40294e-12 0)
(0.005 -1.00741e-11 0)
(0.005 -1.18532e-11 0)
(0.005 -1.37451e-11 0)
(0.005 -1.57554e-11 0)
(0.005 -1.78901e-11 0)
(0.005 -2.0156e-11 0)
(0.005 -2.25601e-11 0)
(0.005 -2.51099e-11 0)
(0.005 -2.78134e-11 0)
(0.005 -3.06786e-11 0)
(0.005 -3.37142e-11 0)
(0.005 -3.69288e-11 0)
(0.005 -4.03315e-11 0)
(0.005 -4.39317e-11 0)
(0.005 -4.7739e-11 0)
(0.005 -5.17633e-11 0)
(0.005 -5.60146e-11 0)
(0.005 -6.05034e-11 0)
(0.005 -6.52404e-11 0)
(0.005 -7.02364e-11 0)
(0.005 -7.55026e-11 0)
(0.005 -8.10503e-11 0)
(0.005 -8.68912e-11 0)
(0.005 -9.30372e-11 0)
(0.005 -9.95002e-11 0)
(0.005 -1.06293e-10 0)
(0.005 -1.13427e-10 0)
(0.005 -1.20915e-10 0)
(0.005 -1.28771e-10 0)
(0.005 -1.37007e-10 0)
(0.005 -1.45637e-10 0)
(0.005 -1.54673e-10 0)
(0.005 -1.64128e-10 0)
(0.005 -1.74017e-10 0)
(0.005 -1.84353e-10 0)
(0.005 -1.95149e-10 0)
(0.005 -2.06418e-10 0)
(0.005 -2.18174e-10 0)
(0.005 -2.3043e-10 0)
(0.005 -2.43201e-10 0)
(0.005 -2.56498e-10 0)
(0.005 -2.70335e-10 0)
(0.005 -2.84724e-10 0)
(0.005 -2.99679e-10 0)
(0.005 -3.15212e-10 0)
(0.005 -3.31334e-10 0)
(0.005 -3.48058e-10 0)
(0.005 -3.65395e-10 0)
(0.005 -3.83356e-10 0)
(0.005 -4.01952e-10 0)
(0.005 -4.21192e-10 0)
(0.005 -4.41087e-10 0)
(0.005 -4.61646e-10 0)
(0.005 -4.82876e-10 0)
(0.005 -5.04787e-10 0)
(0.005 -5.27385e-10 0)
(0.005 -5.50678e-10 0)
(0.005 -5.74671e-10 0)
(0.005 -5.9937e-10 0)
(0.005 -6.2478e-10 0)
(0.005 -6.50904e-10 0)
(0.005 -6.77747e-10 0)
(0.005 -7.05311e-10 0)
(0.005 -7.33598e-10 0)
(0.005 -7.62609e-10 0)
(0.005 -7.92345e-10 0)
(0.005 -8.22806e-10 0)
(0.005 -8.53991e-10 0)
(0.005 -8.85899e-10 0)
(0.005 -9.18527e-10 0)
(0.005 -9.51871e-10 0)
(0.005 -9.85926e-10 0)
(0.005 -1.02069e-09 0)
(0.005 -1.05615e-09 0)
(0.005 -1.09229e-09 0)
(0.005 -1.12911e-09 0)
(0.005 -1.16658e-09 0)
(0.005 -1.20467e-09 0)
(0.005 -1.24336e-09 0)
(0.005 -1.28259e-09 0)
(0.005 -1.3223e-09 0)
(0.005 -1.3624e-09 0)
(0.005 -1.40278e-09 0)
(0.005 -1.44326e-09 0)
(0.005 -1.48362e-09 0)
(0.005 -1.52355e-09 0)
(0.005 -1.56265e-09 0)
(0.005 -1.60034e-09 0)
(0.005 -1.63585e-09 0)
(0.005 -1.66816e-09 0)
(0.005 -1.69589e-09 0)
(0.005 -1.7172e-09 0)
(0.005 -1.7299e-09 0)
(0.005 -4.59486e-13 0)
(0.005 -1.4574e-12 0)
(0.005 -2.54891e-12 0)
(0.005 -3.73678e-12 0)
(0.005 -5.0211e-12 0)
(0.005 -6.40244e-12 0)
(0.005 -7.88251e-12 0)
(0.005 -9.46401e-12 0)
(0.005 -1.11505e-11 0)
(0.005 -1.29464e-11 0)
(0.005 -1.48567e-11 0)
(0.005 -1.68869e-11 0)
(0.005 -1.90433e-11 0)
(0.005 -2.13324e-11 0)
(0.005 -2.3761e-11 0)
(0.005 -2.63366e-11 0)
(0.005 -2.90669e-11 0)
(0.005 -3.19597e-11 0)
(0.005 -3.50234e-11 0)
(0.005 -3.82666e-11 0)
(0.005 -4.1698e-11 0)
(0.005 -4.53267e-11 0)
(0.005 -4.91621e-11 0)
(0.005 -5.32138e-11 0)
(0.005 -5.74917e-11 0)
(0.005 -6.20058e-11 0)
(0.005 -6.67666e-11 0)
(0.005 -7.17846e-11 0)
(0.005 -7.70707e-11 0)
(0.005 -8.26358e-11 0)
(0.005 -8.84912e-11 0)
(0.005 -9.46484e-11 0)
(0.005 -1.01119e-10 0)
(0.005 -1.07915e-10 0)
(0.005 -1.15048e-10 0)
(0.005 -1.22531e-10 0)
(0.005 -1.30376e-10 0)
(0.005 -1.38595e-10 0)
(0.005 -1.472e-10 0)
(0.005 -1.56206e-10 0)
(0.005 -1.65623e-10 0)
(0.005 -1.75466e-10 0)
(0.005 -1.85747e-10 0)
(0.005 -1.96478e-10 0)
(0.005 -2.07673e-10 0)
(0.005 -2.19344e-10 0)
(0.005 -2.31505e-10 0)
(0.005 -2.44167e-10 0)
(0.005 -2.57344e-10 0)
(0.005 -2.71047e-10 0)
(0.005 -2.85289e-10 0)
(0.005 -3.00082e-10 0)
(0.005 -3.15438e-10 0)
(0.005 -3.31367e-10 0)
(0.005 -3.47882e-10 0)
(0.005 -3.64993e-10 0)
(0.005 -3.8271e-10 0)
(0.005 -4.01045e-10 0)
(0.005 -4.20006e-10 0)
(0.005 -4.39603e-10 0)
(0.005 -4.59845e-10 0)
(0.005 -4.8074e-10 0)
(0.005 -5.02297e-10 0)
(0.005 -5.24523e-10 0)
(0.005 -5.47426e-10 0)
(0.005 -5.71011e-10 0)
(0.005 -5.95285e-10 0)
(0.005 -6.20254e-10 0)
(0.005 -6.45924e-10 0)
(0.005 -6.72299e-10 0)
(0.005 -6.99383e-10 0)
(0.005 -7.27182e-10 0)
(0.005 -7.55699e-10 0)
(0.005 -7.84937e-10 0)
(0.005 -8.149e-10 0)
(0.005 -8.4559e-10 0)
(0.005 -8.7701e-10 0)
(0.005 -9.09162e-10 0)
(0.005 -9.42046e-10 0)
(0.005 -9.75663e-10 0)
(0.005 -1.01001e-09 0)