/*--------------------------------*- C++ -*----------------------------------*\
  =========                 |
  \\      /  F ield         | OpenFOAM: The Open Source CFD Toolbox
   \\    /   O peration     | Website:  https://openfoam.org
    \\  /    A nd           | Version:  11
     \\/     M anipulation  |
\*---------------------------------------------------------------------------*/
FoamFile
{
    format      ascii;
    class       volScalarField;
    location    "92";
    object      p;
}
// * * * * * * * * * * * * * * * * * * * * * * * * * * * * * * * * * * * * * //

dimensions      [0 2 -2 0 0 0 0];

internalField   nonuniform List<scalar> 
10000
(
1.06524e-06
1.04114e-06
1.07714e-06
1.15284e-06
1.23951e-06
1.33025e-06
1.42419e-06
1.52077e-06
1.61944e-06
1.71978e-06
1.8214e-06
1.9239e-06
2.02679e-06
2.12954e-06
2.23153e-06
2.33211e-06
2.43057e-06
2.52621e-06
2.61833e-06
2.70629e-06
2.78955e-06
2.86764e-06
2.94024e-06
3.0071e-06
3.06808e-06
3.12302e-06
3.17177e-06
3.21364e-06
3.24633e-06
3.26638e-06
3.29225e-06
3.33146e-06
3.36392e-06
3.38941e-06
3.41264e-06
3.42009e-06
3.41545e-06
3.41951e-06
3.42192e-06
3.40824e-06
3.39961e-06
3.40244e-06
3.39792e-06
3.38455e-06
3.36515e-06
3.34097e-06
3.31252e-06
3.28015e-06
3.24416e-06
3.20477e-06
3.16219e-06
3.1166e-06
3.0682e-06
3.01718e-06
2.96373e-06
2.90804e-06
2.85028e-06
2.79066e-06
2.72936e-06
2.66656e-06
2.60244e-06
2.53717e-06
2.47093e-06
2.40389e-06
2.33618e-06
2.26798e-06
2.19941e-06
2.1306e-06
2.06169e-06
1.99278e-06
1.92399e-06
1.85539e-06
1.78708e-06
1.71914e-06
1.65163e-06
1.58461e-06
1.51812e-06
1.4522e-06
1.38688e-06
1.32217e-06
1.25808e-06
1.19462e-06
1.13176e-06
1.06949e-06
1.00776e-06
9.46537e-07
8.85743e-07
8.25298e-07
7.65101e-07
7.0502e-07
6.44891e-07
5.84505e-07
5.23588e-07
4.61767e-07
3.98542e-07
3.33354e-07
2.65199e-07
1.89883e-07
9.93348e-08
5.99759e-09
2.05759e-06
1.95308e-06
1.88714e-06
1.91111e-06
1.97396e-06
2.05484e-06
2.14796e-06
2.25002e-06
2.35861e-06
2.4721e-06
2.58925e-06
2.70902e-06
2.83044e-06
2.95251e-06
3.0742e-06
3.19445e-06
3.31217e-06
3.42625e-06
3.53566e-06
3.63947e-06
3.73689e-06
3.82732e-06
3.91038e-06
3.98586e-06
4.05374e-06
4.11413e-06
4.16723e-06
4.21314e-06
4.25133e-06
4.28298e-06
4.32296e-06
4.35917e-06
4.36734e-06
4.36002e-06
4.35721e-06
4.36762e-06
4.39032e-06
4.42016e-06
4.44132e-06
4.43422e-06
4.41491e-06
4.40353e-06
4.39049e-06
4.37151e-06
4.34696e-06
4.31725e-06
4.28263e-06
4.24333e-06
4.19958e-06
4.15159e-06
4.09954e-06
4.04365e-06
3.98411e-06
3.92113e-06
3.85492e-06
3.7857e-06
3.71369e-06
3.63911e-06
3.56217e-06
3.48312e-06
3.40215e-06
3.3195e-06
3.23536e-06
3.14996e-06
3.06347e-06
2.9761e-06
2.88802e-06
2.7994e-06
2.7104e-06
2.62117e-06
2.53184e-06
2.44254e-06
2.35338e-06
2.26446e-06
2.17586e-06
2.08767e-06
1.99994e-06
1.91272e-06
1.82606e-06
1.73996e-06
1.65444e-06
1.56951e-06
1.48512e-06
1.40126e-06
1.31786e-06
1.23486e-06
1.15215e-06
1.06961e-06
9.87093e-07
9.04392e-07
8.21257e-07
7.37365e-07
6.52285e-07
5.65417e-07
4.75981e-07
3.83213e-07
2.85506e-07
1.74034e-07
3.36893e-08
-6.97061e-08
2.58692e-06
2.43251e-06
2.29666e-06
2.2565e-06
2.26592e-06
2.30213e-06
2.35739e-06
2.42693e-06
2.50714e-06
2.59547e-06
2.69004e-06
2.78928e-06
2.89181e-06
2.99627e-06
3.10134e-06
3.20564e-06
3.3078e-06
3.40647e-06
3.50037e-06
3.58836e-06
3.66949e-06
3.74308e-06
3.80873e-06
3.86633e-06
3.91602e-06
3.95822e-06
3.99355e-06
4.02286e-06
4.0471e-06
4.06836e-06
4.09397e-06
4.12393e-06
4.14722e-06
4.16247e-06
4.17228e-06
4.17247e-06
4.16375e-06
4.15179e-06
4.13377e-06
4.10592e-06
4.07911e-06
4.05788e-06
4.03723e-06
4.01431e-06
3.98829e-06
3.95886e-06
3.9259e-06
3.88938e-06
3.84933e-06
3.80581e-06
3.75893e-06
3.70878e-06
3.65548e-06
3.59917e-06
3.54e-06
3.47811e-06
3.41368e-06
3.34686e-06
3.27784e-06
3.2068e-06
3.13391e-06
3.05935e-06
2.9833e-06
2.90593e-06
2.82741e-06
2.74791e-06
2.66758e-06
2.58656e-06
2.50501e-06
2.42304e-06
2.34079e-06
2.25836e-06
2.17585e-06
2.09335e-06
2.01094e-06
1.92868e-06
1.84663e-06
1.76484e-06
1.68333e-06
1.60213e-06
1.52123e-06
1.44062e-06
1.36029e-06
1.28019e-06
1.20027e-06
1.12044e-06
1.0406e-06
9.60626e-07
8.80349e-07
7.99563e-07
7.18005e-07
6.35342e-07
5.51134e-07
4.64776e-07
3.75539e-07
2.82965e-07
1.85797e-07
7.31086e-08
-7.41663e-08
-1.43455e-07
3.0554e-06
2.88573e-06
2.73535e-06
2.66972e-06
2.65241e-06
2.66474e-06
2.69957e-06
2.75187e-06
2.81765e-06
2.89392e-06
2.97838e-06
3.06911e-06
3.16439e-06
3.26256e-06
3.36202e-06
3.46114e-06
3.5583e-06
3.65191e-06
3.74047e-06
3.82267e-06
3.89742e-06
3.96393e-06
4.02175e-06
4.07079e-06
4.11127e-06
4.14374e-06
4.16901e-06
4.18818e-06
4.20246e-06
4.21346e-06
4.22424e-06
4.23568e-06
4.24438e-06
4.24866e-06
4.24792e-06
4.23976e-06
4.22454e-06
4.20533e-06
4.1822e-06
4.15493e-06
4.12765e-06
4.10188e-06
4.076e-06
4.04866e-06
4.01913e-06
3.98698e-06
3.95198e-06
3.91398e-06
3.87292e-06
3.82878e-06
3.78159e-06
3.73138e-06
3.67822e-06
3.6222e-06
3.56342e-06
3.502e-06
3.43808e-06
3.37179e-06
3.30329e-06
3.23272e-06
3.16026e-06
3.08605e-06
3.01026e-06
2.93306e-06
2.85459e-06
2.77502e-06
2.69449e-06
2.61314e-06
2.5311e-06
2.44851e-06
2.36548e-06
2.28212e-06
2.19851e-06
2.11476e-06
2.03094e-06
1.9471e-06
1.86331e-06
1.7796e-06
1.696e-06
1.61252e-06
1.52918e-06
1.44595e-06
1.36281e-06
1.27971e-06
1.19658e-06
1.11335e-06
1.0299e-06
9.46095e-07
8.61758e-07
7.76675e-07
6.90578e-07
6.03131e-07
5.13902e-07
4.22311e-07
3.27725e-07
2.30019e-07
1.28382e-07
1.05292e-08
-1.45256e-07
-1.966e-07
3.47237e-06
3.30484e-06
3.15656e-06
3.0811e-06
3.04968e-06
3.04795e-06
3.07e-06
3.11116e-06
3.16749e-06
3.2359e-06
3.31389e-06
3.39931e-06
3.49022e-06
3.58476e-06
3.6811e-06
3.77743e-06
3.87193e-06
3.96283e-06
4.0485e-06
4.12746e-06
4.19852e-06
4.26082e-06
4.31384e-06
4.35747e-06
4.39197e-06
4.41793e-06
4.43625e-06
4.44803e-06
4.45452e-06
4.45704e-06
4.45722e-06
4.45572e-06
4.45148e-06
4.44392e-06
4.43272e-06
4.41721e-06
4.39763e-06
4.37505e-06
4.34967e-06
4.32164e-06
4.29253e-06
4.26318e-06
4.23317e-06
4.20184e-06
4.16868e-06
4.13331e-06
4.09545e-06
4.05492e-06
4.0116e-06
3.96543e-06
3.91637e-06
3.86442e-06
3.80961e-06
3.752e-06
3.69165e-06
3.62865e-06
3.56313e-06
3.49519e-06
3.42496e-06
3.3526e-06
3.27824e-06
3.20203e-06
3.12413e-06
3.0447e-06
2.96387e-06
2.88181e-06
2.79866e-06
2.71455e-06
2.62962e-06
2.54399e-06
2.45779e-06
2.3711e-06
2.28404e-06
2.19669e-06
2.10912e-06
2.0214e-06
1.93359e-06
1.84571e-06
1.7578e-06
1.66988e-06
1.58194e-06
1.49396e-06
1.40592e-06
1.31777e-06
1.22943e-06
1.14083e-06
1.05184e-06
9.62318e-07
8.72094e-07
7.80947e-07
6.88612e-07
5.94764e-07
4.98998e-07
4.00775e-07
2.99565e-07
1.95534e-07
8.81888e-08
-3.62613e-08
-2.02678e-07
-2.42978e-07
3.83804e-06
3.67899e-06
3.53634e-06
3.45652e-06
3.4163e-06
3.40459e-06
3.4167e-06
3.44856e-06
3.49651e-06
3.55752e-06
3.62906e-06
3.70889e-06
3.79492e-06
3.88516e-06
3.97765e-06
4.07042e-06
4.16152e-06
4.24907e-06
4.3313e-06
4.40665e-06
4.47383e-06
4.5319e-06
4.5803e-06
4.61888e-06
4.6479e-06
4.66795e-06
4.67995e-06
4.68499e-06
4.68429e-06
4.67909e-06
4.67061e-06
4.6595e-06
4.64567e-06
4.62907e-06
4.60968e-06
4.58735e-06
4.56229e-06
4.53497e-06
4.50562e-06
4.47443e-06
4.44212e-06
4.40915e-06
4.37538e-06
4.34043e-06
4.30391e-06
4.26549e-06
4.22489e-06
4.18191e-06
4.1364e-06
4.08824e-06
4.03736e-06
3.98373e-06
3.92734e-06
3.8682e-06
3.80638e-06
3.74192e-06
3.67492e-06
3.60548e-06
3.53371e-06
3.45973e-06
3.38368e-06
3.3057e-06
3.22592e-06
3.1445e-06
3.06159e-06
2.97731e-06
2.89182e-06
2.80525e-06
2.71772e-06
2.62937e-06
2.5403e-06
2.45063e-06
2.36044e-06
2.26982e-06
2.17886e-06
2.0876e-06
1.99611e-06
1.90443e-06
1.81258e-06
1.72057e-06
1.6284e-06
1.53606e-06
1.44352e-06
1.35072e-06
1.2576e-06
1.16406e-06
1.06999e-06
9.75246e-07
8.7966e-07
7.83018e-07
6.85071e-07
5.85518e-07
4.83991e-07
3.80008e-07
2.73142e-07
1.63824e-07
5.1805e-08
-7.81629e-08
-2.53837e-07
-2.84033e-07
4.16808e-06
4.01863e-06
3.88283e-06
3.80196e-06
3.75659e-06
3.73802e-06
3.74262e-06
3.76694e-06
3.8077e-06
3.86206e-06
3.92754e-06
4.00188e-06
4.08294e-06
4.16867e-06
4.25699e-06
4.34586e-06
4.43323e-06
4.51714e-06
4.59573e-06
4.66736e-06
4.73066e-06
4.78463e-06
4.82867e-06
4.86258e-06
4.88658e-06
4.90127e-06
4.90752e-06
4.90642e-06
4.89916e-06
4.88693e-06
4.87087e-06
4.85175e-06
4.82994e-06
4.80569e-06
4.77915e-06
4.75042e-06
4.71969e-06
4.68731e-06
4.65349e-06
4.61843e-06
4.58248e-06
4.54585e-06
4.50844e-06
4.46999e-06
4.4302e-06
4.38877e-06
4.34544e-06
4.29999e-06
4.25223e-06
4.20202e-06
4.14926e-06
4.09389e-06
4.03586e-06
3.97518e-06
3.91185e-06
3.84592e-06
3.77745e-06
3.70653e-06
3.63324e-06
3.55771e-06
3.48004e-06
3.40037e-06
3.31882e-06
3.23554e-06
3.15066e-06
3.06432e-06
2.97666e-06
2.8878e-06
2.79786e-06
2.70698e-06
2.61526e-06
2.52281e-06
2.42972e-06
2.33608e-06
2.24196e-06
2.14743e-06
2.05253e-06
1.95731e-06
1.86179e-06
1.76599e-06
1.6699e-06
1.57351e-06
1.47678e-06
1.37968e-06
1.28212e-06
1.18402e-06
1.08527e-06
9.85733e-07
8.85245e-07
7.83609e-07
6.80594e-07
5.75934e-07
4.69302e-07
3.60276e-07
2.48526e-07
1.34712e-07
1.87784e-08
-1.15882e-07
-2.99689e-07
-3.20791e-07
4.47263e-06
4.33235e-06
4.20365e-06
4.12371e-06
4.07575e-06
4.05274e-06
4.0519e-06
4.07035e-06
4.1052e-06
4.15385e-06
4.21391e-06
4.28319e-06
4.35954e-06
4.44087e-06
4.52507e-06
4.61003e-06
4.69367e-06
4.77394e-06
4.84895e-06
4.91698e-06
4.97661e-06
5.02678e-06
5.06684e-06
5.09654e-06
5.11608e-06
5.126e-06
5.12714e-06
5.12058e-06
5.10747e-06
5.08901e-06
5.0663e-06
5.04024e-06
5.01146e-06
4.98042e-06
4.94745e-06
4.91279e-06
4.87668e-06
4.83939e-06
4.80113e-06
4.76205e-06
4.72232e-06
4.682e-06
4.641e-06
4.59912e-06
4.5561e-06
4.51166e-06
4.46556e-06
4.41754e-06
4.36742e-06
4.31504e-06
4.26027e-06
4.20301e-06
4.1432e-06
4.08081e-06
4.01584e-06
3.9483e-06
3.87824e-06
3.80571e-06
3.73081e-06
3.65362e-06
3.57425e-06
3.49281e-06
3.40943e-06
3.32424e-06
3.23736e-06
3.14893e-06
3.05907e-06
2.96792e-06
2.87559e-06
2.7822e-06
2.68786e-06
2.59267e-06
2.49673e-06
2.40012e-06
2.30292e-06
2.20518e-06
2.10696e-06
2.0083e-06
1.90923e-06
1.80975e-06
1.70987e-06
1.60958e-06
1.50883e-06
1.4076e-06
1.3058e-06
1.20335e-06
1.10016e-06
9.9609e-07
8.90991e-07
7.84685e-07
6.76963e-07
5.67592e-07
4.5629e-07
3.42687e-07
2.2654e-07
1.08703e-07
-1.07304e-08
-1.49649e-07
-3.40965e-07
-3.54092e-07
4.75681e-06
4.62488e-06
4.50292e-06
4.42493e-06
4.376e-06
4.35022e-06
4.34549e-06
4.35941e-06
4.38944e-06
4.43321e-06
4.48849e-06
4.55315e-06
4.62509e-06
4.70221e-06
4.78242e-06
4.86356e-06
4.94353e-06
5.02024e-06
5.09176e-06
5.15634e-06
5.21252e-06
5.25917e-06
5.2956e-06
5.32151e-06
5.33705e-06
5.34273e-06
5.33934e-06
5.32794e-06
5.30966e-06
5.28569e-06
5.25717e-06
5.22507e-06
5.19018e-06
5.15311e-06
5.11433e-06
5.07419e-06
5.033e-06
4.991e-06
4.94837e-06
4.90524e-06
4.86167e-06
4.81768e-06
4.77314e-06
4.72788e-06
4.68165e-06
4.6342e-06
4.58528e-06
4.53465e-06
4.4821e-06
4.42744e-06
4.37054e-06
4.31127e-06
4.24955e-06
4.18534e-06
4.11859e-06
4.04932e-06
3.97755e-06
3.90332e-06
3.82669e-06
3.74776e-06
3.6666e-06
3.58333e-06
3.49806e-06
3.4109e-06
3.32199e-06
3.23144e-06
3.13937e-06
3.04591e-06
2.95119e-06
2.8553e-06
2.75836e-06
2.66047e-06
2.56172e-06
2.4622e-06
2.36197e-06
2.2611e-06
2.15965e-06
2.05764e-06
1.95511e-06
1.85208e-06
1.74854e-06
1.64448e-06
1.53987e-06
1.43467e-06
1.32881e-06
1.22223e-06
1.11481e-06
1.00645e-06
8.97013e-07
7.86329e-07
6.7422e-07
5.60483e-07
4.44877e-07
3.27081e-07
2.0692e-07
8.54135e-08
-3.72318e-08
-1.80115e-07
-3.78486e-07
-3.84575e-07
5.02373e-06
4.89922e-06
4.78345e-06
4.70789e-06
4.65894e-06
4.63154e-06
4.62406e-06
4.63447e-06
4.66055e-06
4.70016e-06
4.75121e-06
4.81168e-06
4.87952e-06
4.95267e-06
5.02904e-06
5.10649e-06
5.18289e-06
5.25616e-06
5.32432e-06
5.38562e-06
5.43853e-06
5.48191e-06
5.51501e-06
5.53749e-06
5.54944e-06
5.55133e-06
5.54392e-06
5.52822e-06
5.50537e-06
5.47655e-06
5.44292e-06
5.40552e-06
5.36522e-06
5.32277e-06
5.27873e-06
5.23355e-06
5.18757e-06
5.14105e-06
5.09417e-06
5.04703e-06
4.99965e-06
4.95201e-06
4.90398e-06
4.85537e-06
4.80597e-06
4.75552e-06
4.70377e-06
4.65048e-06
4.59543e-06
4.53843e-06
4.47931e-06
4.41794e-06
4.35422e-06
4.28808e-06
4.21947e-06
4.14837e-06
4.07479e-06
3.99877e-06
3.92035e-06
3.8396e-06
3.7566e-06
3.67144e-06
3.58424e-06
3.49509e-06
3.40411e-06
3.31143e-06
3.21715e-06
3.1214e-06
3.0243e-06
2.92594e-06
2.82644e-06
2.72589e-06
2.62439e-06
2.52202e-06
2.41885e-06
2.31493e-06
2.21034e-06
2.10509e-06
1.99923e-06
1.89276e-06
1.78569e-06
1.67802e-06
1.56971e-06
1.46072e-06
1.351e-06
1.24048e-06
1.12907e-06
1.01667e-06
9.03144e-07
7.88363e-07
6.72165e-07
5.54378e-07
4.34796e-07
3.13137e-07
1.89284e-07
6.43959e-08
-6.12336e-08
-2.07847e-07
-4.12891e-07
-4.12699e-07
5.27551e-06
5.15758e-06
5.04745e-06
4.97448e-06
4.92611e-06
4.89786e-06
4.88844e-06
4.89614e-06
4.91898e-06
4.95503e-06
5.00236e-06
5.05904e-06
5.12309e-06
5.19251e-06
5.26524e-06
5.33915e-06
5.41212e-06
5.48208e-06
5.54704e-06
5.60521e-06
5.65506e-06
5.69541e-06
5.72545e-06
5.74482e-06
5.75354e-06
5.75204e-06
5.74105e-06
5.72154e-06
5.69464e-06
5.66153e-06
5.62338e-06
5.58129e-06
5.5362e-06
5.48892e-06
5.4401e-06
5.39026e-06
5.33979e-06
5.28898e-06
5.23799e-06
5.18693e-06
5.13582e-06
5.08458e-06
5.03311e-06
4.98121e-06
4.92866e-06
4.87522e-06
4.82064e-06
4.76467e-06
4.70708e-06
4.64768e-06
4.58629e-06
4.52275e-06
4.45695e-06
4.3888e-06
4.31824e-06
4.24524e-06
4.16979e-06
4.0919e-06
4.01162e-06
3.929e-06
3.84411e-06
3.75703e-06
3.66785e-06
3.57669e-06
3.48364e-06
3.38882e-06
3.29234e-06
3.19431e-06
3.09485e-06
2.99406e-06
2.89204e-06
2.78889e-06
2.6847e-06
2.57955e-06
2.4735e-06
2.36664e-06
2.25899e-06
2.15062e-06
2.04154e-06
1.93177e-06
1.82132e-06
1.71017e-06
1.59832e-06
1.48572e-06
1.37233e-06
1.25808e-06
1.14289e-06
1.02667e-06
9.09317e-07
7.907e-07
6.70687e-07
5.49132e-07
4.25862e-07
3.00624e-07
1.73349e-07
4.53153e-08
-8.31155e-08
-2.33266e-07
-4.44647e-07
-4.38802e-07
5.51369e-06
5.40163e-06
5.29661e-06
5.22626e-06
5.17882e-06
5.15025e-06
5.13949e-06
5.14507e-06
5.16525e-06
5.19826e-06
5.2423e-06
5.29555e-06
5.35612e-06
5.42207e-06
5.49135e-06
5.5619e-06
5.63162e-06
5.69842e-06
5.76033e-06
5.81555e-06
5.86253e-06
5.90006e-06
5.9273e-06
5.94383e-06
5.94965e-06
5.94512e-06
5.93094e-06
5.90805e-06
5.87756e-06
5.84065e-06
5.79851e-06
5.75224e-06
5.70286e-06
5.65123e-06
5.59806e-06
5.54393e-06
5.48927e-06
5.43438e-06
5.37946e-06
5.32462e-06
5.26986e-06
5.21512e-06
5.16027e-06
5.10512e-06
5.04947e-06
4.99306e-06
4.93565e-06
4.87699e-06
4.81685e-06
4.75501e-06
4.69129e-06
4.62553e-06
4.55759e-06
4.48737e-06
4.4148e-06
4.33983e-06
4.26245e-06
4.18265e-06
4.10045e-06
4.01592e-06
3.92909e-06
3.84005e-06
3.74889e-06
3.65569e-06
3.56056e-06
3.46361e-06
3.36493e-06
3.26465e-06
3.16286e-06
3.05966e-06
2.95517e-06
2.84947e-06
2.74266e-06
2.6348e-06
2.52597e-06
2.41624e-06
2.30565e-06
2.19425e-06
2.08207e-06
1.96912e-06
1.85543e-06
1.74097e-06
1.62574e-06
1.5097e-06
1.39281e-06
1.27502e-06
1.15626e-06
1.03645e-06
9.15492e-07
7.9328e-07
6.697e-07
5.44629e-07
4.17921e-07
2.8935e-07
1.58883e-07
2.79016e-08
-1.03179e-07
-2.56701e-07
-4.74117e-07
-4.63145e-07
5.73942e-06
5.63263e-06
5.53229e-06
5.46451e-06
5.41819e-06
5.38964e-06
5.37797e-06
5.38191e-06
5.39989e-06
5.43027e-06
5.47141e-06
5.52157e-06
5.57895e-06
5.64166e-06
5.70772e-06
5.7751e-06
5.84172e-06
5.90553e-06
5.96455e-06
6.017e-06
6.0613e-06
6.09622e-06
6.12088e-06
6.13484e-06
6.13803e-06
6.13079e-06
6.11377e-06
6.08789e-06
6.05421e-06
6.01393e-06
5.96822e-06
5.91823e-06
5.865e-06
5.80944e-06
5.7523e-06
5.69421e-06
5.63563e-06
5.5769e-06
5.51824e-06
5.45976e-06
5.40147e-06
5.34332e-06
5.28517e-06
5.22685e-06
5.16813e-06
5.10879e-06
5.04857e-06
4.98722e-06
4.92451e-06
4.86022e-06
4.79414e-06
4.72611e-06
4.65599e-06
4.58365e-06
4.50903e-06
4.43205e-06
4.35268e-06
4.27092e-06
4.18678e-06
4.10029e-06
4.01151e-06
3.92049e-06
3.82732e-06
3.73208e-06
3.63487e-06
3.53579e-06
3.43494e-06
3.33241e-06
3.22833e-06
3.12278e-06
3.01586e-06
2.90767e-06
2.79829e-06
2.6878e-06
2.57627e-06
2.46376e-06
2.35033e-06
2.23602e-06
2.12085e-06
2.00486e-06
1.88805e-06
1.77042e-06
1.65197e-06
1.53266e-06
1.41245e-06
1.29131e-06
1.16918e-06
1.04598e-06
9.21627e-07
7.96039e-07
6.69117e-07
5.40758e-07
4.10836e-07
2.79146e-07
1.45686e-07
1.19267e-08
-1.21671e-07
-2.78416e-07
-5.0159e-07
-4.85938e-07
5.95363e-06
5.85161e-06
5.75556e-06
5.69025e-06
5.64517e-06
5.61688e-06
5.60462e-06
5.60727e-06
5.6234e-06
5.65152e-06
5.69007e-06
5.73744e-06
5.79189e-06
5.8516e-06
5.91465e-06
5.97904e-06
6.04275e-06
6.10373e-06
6.16004e-06
6.20987e-06
6.25167e-06
6.28417e-06
6.30647e-06
6.31809e-06
6.31892e-06
6.30925e-06
6.2897e-06
6.26115e-06
6.22464e-06
6.18136e-06
6.13248e-06
6.07916e-06
6.02246e-06
5.96333e-06
5.90257e-06
5.84082e-06
5.77859e-06
5.71626e-06
5.65404e-06
5.59208e-06
5.53039e-06
5.46893e-06
5.40757e-06
5.34614e-06
5.28443e-06
5.22219e-06
5.15919e-06
5.09517e-06
5.02989e-06
4.96312e-06
4.89467e-06
4.82436e-06
4.75202e-06
4.67754e-06
4.60082e-06
4.52179e-06
4.44041e-06
4.35666e-06
4.27054e-06
4.18208e-06
4.09132e-06
3.99831e-06
3.90313e-06
3.80585e-06
3.70656e-06
3.60537e-06
3.50235e-06
3.39763e-06
3.29128e-06
3.18342e-06
3.07413e-06
2.9635e-06
2.85163e-06
2.73858e-06
2.62443e-06
2.50924e-06
2.39306e-06
2.27594e-06
2.15791e-06
2.039e-06
1.91921e-06
1.79856e-06
1.67703e-06
1.5546e-06
1.43126e-06
1.30694e-06
1.18162e-06
1.05522e-06
9.27676e-07
7.98917e-07
6.68858e-07
5.37415e-07
4.0448e-07
2.69863e-07
1.33585e-07
-2.8014e-09
-1.38798e-07
-2.98628e-07
-5.27302e-07
-5.07353e-07
6.15708e-06
6.05941e-06
5.96732e-06
5.90438e-06
5.86058e-06
5.83269e-06
5.82007e-06
5.82171e-06
5.83628e-06
5.86243e-06
5.89869e-06
5.94353e-06
5.99529e-06
6.05222e-06
6.11246e-06
6.17405e-06
6.23501e-06
6.29333e-06
6.34708e-06
6.39447e-06
6.43394e-06
6.4642e-06
6.48433e-06
6.49382e-06
6.49251e-06
6.48067e-06
6.45886e-06
6.42793e-06
6.38891e-06
6.34296e-06
6.29124e-06
6.23494e-06
6.17511e-06
6.11274e-06
6.04866e-06
5.98353e-06
5.91791e-06
5.85218e-06
5.7866e-06
5.72132e-06
5.65637e-06
5.59172e-06
5.52725e-06
5.46279e-06
5.39814e-06
5.33306e-06
5.26731e-06
5.20064e-06
5.13281e-06
5.06358e-06
4.99275e-06
4.92013e-06
4.84557e-06
4.76892e-06
4.69009e-06
4.60899e-06
4.52557e-06
4.43981e-06
4.35169e-06
4.26124e-06
4.16849e-06
4.07349e-06
3.97629e-06
3.87698e-06
3.77564e-06
3.67234e-06
3.5672e-06
3.4603e-06
3.35173e-06
3.2416e-06
3.12999e-06
3.01699e-06
2.90269e-06
2.78717e-06
2.67048e-06
2.5527e-06
2.43388e-06
2.31406e-06
2.19328e-06
2.07157e-06
1.94894e-06
1.82539e-06
1.70094e-06
1.57556e-06
1.44922e-06
1.3219e-06
1.19356e-06
1.06415e-06
9.33601e-07
8.01858e-07
6.68851e-07
5.3451e-07
3.98742e-07
2.6137e-07
1.22432e-07
-1.64442e-08
-1.54732e-07
-3.17516e-07
-5.51445e-07
-5.27529e-07
6.3504e-06
6.25674e-06
6.16832e-06
6.10763e-06
6.06512e-06
6.03775e-06
6.02493e-06
6.02576e-06
6.03902e-06
6.06344e-06
6.09765e-06
6.14019e-06
6.18948e-06
6.24384e-06
6.30145e-06
6.36042e-06
6.4188e-06
6.47462e-06
6.52597e-06
6.57108e-06
6.60836e-06
6.63655e-06
6.6547e-06
6.66224e-06
6.65901e-06
6.64521e-06
6.62139e-06
6.58835e-06
6.54709e-06
6.49875e-06
6.4445e-06
6.38551e-06
6.32286e-06
6.25754e-06
6.19041e-06
6.12217e-06
6.05339e-06
5.98448e-06
5.91572e-06
5.84728e-06
5.77921e-06
5.71149e-06
5.64401e-06
5.57661e-06
5.50909e-06
5.44123e-06
5.37278e-06
5.30349e-06
5.23313e-06
5.16145e-06
5.08825e-06
5.01333e-06
4.93653e-06
4.85771e-06
4.77675e-06
4.69357e-06
4.60811e-06
4.52032e-06
4.4302e-06
4.33776e-06
4.24302e-06
4.14602e-06
4.04682e-06
3.94549e-06
3.8421e-06
3.73674e-06
3.62949e-06
3.52045e-06
3.40971e-06
3.29736e-06
3.18349e-06
3.06819e-06
2.95153e-06
2.8336e-06
2.71446e-06
2.59418e-06
2.47282e-06
2.35041e-06
2.22699e-06
2.1026e-06
1.97725e-06
1.85096e-06
1.72372e-06
1.59552e-06
1.46636e-06
1.3362e-06
1.20501e-06
1.07274e-06
9.39365e-07
8.04812e-07
6.69031e-07
5.31963e-07
3.93528e-07
2.53557e-07
1.12104e-07
-2.91376e-08
-1.69613e-07
-3.35228e-07
-5.74181e-07
-5.46585e-07
6.53418e-06
6.44422e-06
6.35921e-06
6.30067e-06
6.25943e-06
6.23263e-06
6.21974e-06
6.21993e-06
6.23207e-06
6.25496e-06
6.28733e-06
6.32777e-06
6.3748e-06
6.42677e-06
6.48193e-06
6.53845e-06
6.59441e-06
6.64788e-06
6.69698e-06
6.73994e-06
6.77521e-06
6.80147e-06
6.81779e-06
6.82356e-06
6.81859e-06
6.80305e-06
6.77742e-06
6.7425e-06
6.69924e-06
6.64878e-06
6.59226e-06
6.53084e-06
6.46564e-06
6.39764e-06
6.32772e-06
6.2566e-06
6.18488e-06
6.11298e-06
6.04122e-06
5.96978e-06
5.89874e-06
5.82806e-06
5.75768e-06
5.68743e-06
5.61713e-06
5.54655e-06
5.47545e-06
5.40359e-06
5.33072e-06
5.25662e-06
5.18106e-06
5.10386e-06
5.02483e-06
4.94383e-06
4.86075e-06
4.77549e-06
4.68797e-06
4.59817e-06
4.50605e-06
4.41162e-06
4.31489e-06
4.21591e-06
4.11472e-06
4.01138e-06
3.90597e-06
3.79857e-06
3.68926e-06
3.57812e-06
3.46525e-06
3.35073e-06
3.23466e-06
3.11711e-06
2.99818e-06
2.87792e-06
2.75642e-06
2.63373e-06
2.50992e-06
2.38502e-06
2.25908e-06
2.13213e-06
2.00418e-06
1.87527e-06
1.74538e-06
1.61452e-06
1.48267e-06
1.34982e-06
1.21594e-06
1.08099e-06
9.44937e-07
8.07737e-07
6.69342e-07
5.29705e-07
3.88755e-07
2.46329e-07
1.02494e-07
-4.09958e-08
-1.83561e-07
-3.51887e-07
-5.95643e-07
-5.64618e-07
6.7089e-06
6.62239e-06
6.54056e-06
6.48405e-06
6.44407e-06
6.41787e-06
6.405e-06
6.40467e-06
6.41584e-06
6.43738e-06
6.46808e-06
6.50662e-06
6.55155e-06
6.60131e-06
6.6542e-06
6.70842e-06
6.76211e-06
6.81338e-06
6.86037e-06
6.90132e-06
6.9347e-06
6.95919e-06
6.97382e-06
6.97799e-06
6.97144e-06
6.95432e-06
6.92709e-06
6.89048e-06
6.84545e-06
6.79308e-06
6.73452e-06
6.67093e-06
6.60341e-06
6.53296e-06
6.46048e-06
6.3867e-06
6.31224e-06
6.23756e-06
6.16297e-06
6.08869e-06
6.0148e-06
5.94131e-06
5.86813e-06
5.79512e-06
5.72212e-06
5.64889e-06
5.5752e-06
5.50082e-06
5.42549e-06
5.349e-06
5.27111e-06
5.19163e-06
5.11039e-06
5.02724e-06
4.94204e-06
4.8547e-06
4.76514e-06
4.67332e-06
4.57921e-06
4.4828e-06
4.3841e-06
4.28315e-06
4.17999e-06
4.07468e-06
3.96728e-06
3.85787e-06
3.74653e-06
3.63334e-06
3.51838e-06
3.40176e-06
3.28354e-06
3.16382e-06
3.04268e-06
2.92018e-06
2.79639e-06
2.67139e-06
2.54522e-06
2.41794e-06
2.28958e-06
2.16019e-06
2.02977e-06
1.89836e-06
1.76595e-06
1.63256e-06
1.49817e-06
1.36277e-06
1.22635e-06
1.08886e-06
9.5029e-07
8.10594e-07
6.69735e-07
5.27676e-07
3.84351e-07
2.39604e-07
9.3512e-08
-5.21152e-08
-1.96676e-07
-3.67597e-07
-6.15944e-07
-5.81713e-07
6.87502e-06
6.79172e-06
6.71288e-06
6.65828e-06
6.61952e-06
6.59395e-06
6.58116e-06
6.58042e-06
6.59075e-06
6.61108e-06
6.64027e-06
6.67706e-06
6.72006e-06
6.76776e-06
6.81853e-06
6.8706e-06
6.92217e-06
6.97137e-06
7.01637e-06
7.05546e-06
7.08707e-06
7.10992e-06
7.123e-06
7.12569e-06
7.11772e-06
7.09919e-06
7.07051e-06
7.03241e-06
6.98579e-06
6.93172e-06
6.87134e-06
6.80579e-06
6.73616e-06
6.66348e-06
6.58864e-06
6.51241e-06
6.4354e-06
6.35811e-06
6.28086e-06
6.20389e-06
6.1273e-06
6.0511e-06
5.97523e-06
5.89958e-06
5.82395e-06
5.74814e-06
5.67193e-06
5.59508e-06
5.51735e-06
5.4385e-06
5.35831e-06
5.2766e-06
5.19317e-06
5.10787e-06
5.02057e-06
4.93117e-06
4.83959e-06
4.74577e-06
4.64968e-06
4.55131e-06
4.45066e-06
4.34777e-06
4.24266e-06
4.1354e-06
4.02605e-06
3.91466e-06
3.80134e-06
3.68614e-06
3.56916e-06
3.45048e-06
3.33019e-06
3.20836e-06
3.08508e-06
2.96041e-06
2.83443e-06
2.7072e-06
2.57878e-06
2.44921e-06
2.31855e-06
2.18681e-06
2.05404e-06
1.92026e-06
1.78546e-06
1.64967e-06
1.51287e-06
1.37506e-06
1.23623e-06
1.09635e-06
9.55403e-07
8.13353e-07
6.70171e-07
5.25825e-07
3.80257e-07
2.33315e-07
8.50826e-08
-6.25771e-08
-2.09044e-07
-3.82446e-07
-6.3518e-07
-5.97941e-07
7.03294e-06
6.95265e-06
6.8766e-06
6.82383e-06
6.78623e-06
6.7613e-06
6.74863e-06
6.74756e-06
6.75716e-06
6.77641e-06
6.80423e-06
6.83941e-06
6.88063e-06
6.92642e-06
6.97519e-06
7.02526e-06
7.07483e-06
7.12209e-06
7.16524e-06
7.20257e-06
7.23255e-06
7.25387e-06
7.26553e-06
7.26687e-06
7.25761e-06
7.2378e-06
7.20783e-06
7.16839e-06
7.12036e-06
7.06477e-06
7.00274e-06
6.93542e-06
6.86389e-06
6.78917e-06
6.71217e-06
6.63366e-06
6.55429e-06
6.47455e-06
6.3948e-06
6.31528e-06
6.23612e-06
6.15735e-06
6.07891e-06
6.00069e-06
5.92253e-06
5.84423e-06
5.76557e-06
5.68631e-06
5.60622e-06
5.52506e-06
5.44262e-06
5.3587e-06
5.27311e-06
5.18569e-06
5.09632e-06
5.00489e-06
4.9113e-06
4.81551e-06
4.71746e-06
4.61715e-06
4.51458e-06
4.40977e-06
4.30276e-06
4.19358e-06
4.0823e-06
3.96899e-06
3.85372e-06
3.73657e-06
3.61762e-06
3.49695e-06
3.37464e-06
3.25077e-06
3.12543e-06
2.99867e-06
2.87058e-06
2.74121e-06
2.61063e-06
2.47888e-06
2.34601e-06
2.21205e-06
2.07704e-06
1.94099e-06
1.80393e-06
1.66586e-06
1.52678e-06
1.3867e-06
1.24559e-06
1.10345e-06
9.6026e-07
8.15989e-07
6.70614e-07
5.24109e-07
3.76423e-07
2.27403e-07
7.71418e-08
-7.24499e-08
-2.20733e-07
-3.96507e-07
-6.53432e-07
-6.13363e-07
7.18304e-06
7.10556e-06
7.03214e-06
6.98109e-06
6.94463e-06
6.92032e-06
6.90782e-06
6.90648e-06
6.91542e-06
6.9337e-06
6.96027e-06
6.99397e-06
7.03353e-06
7.07754e-06
7.12447e-06
7.17265e-06
7.22035e-06
7.26579e-06
7.3072e-06
7.34289e-06
7.37134e-06
7.39124e-06
7.40158e-06
7.40169e-06
7.39125e-06
7.3703e-06
7.33918e-06
7.29854e-06
7.24924e-06
7.19229e-06
7.12879e-06
7.05987e-06
6.9866e-06
6.91002e-06
6.83103e-06
6.75043e-06
6.66886e-06
6.58683e-06
6.50473e-06
6.42281e-06
6.34121e-06
6.25997e-06
6.17907e-06
6.0984e-06
6.0178e-06
5.93709e-06
5.85605e-06
5.77444e-06
5.69205e-06
5.60864e-06
5.52399e-06
5.4379e-06
5.35019e-06
5.26069e-06
5.16928e-06
5.07584e-06
4.98028e-06
4.88253e-06
4.78256e-06
4.68035e-06
4.57589e-06
4.46919e-06
4.3603e-06
4.24925e-06
4.13609e-06
4.0209e-06
3.90374e-06
3.78468e-06
3.66381e-06
3.54121e-06
3.41695e-06
3.29111e-06
3.16378e-06
3.03502e-06
2.90489e-06
2.77348e-06
2.64083e-06
2.50699e-06
2.37201e-06
2.23593e-06
2.09879e-06
1.9606e-06
1.82138e-06
1.68116e-06
1.53992e-06
1.39768e-06
1.25443e-06
1.11016e-06
9.64847e-07
8.1848e-07
6.71036e-07
5.22495e-07
3.72806e-07
2.21821e-07
6.96359e-08
-8.17912e-08
-2.31805e-07
-4.09844e-07
-6.7077e-07
-6.2803e-07
7.32566e-06
7.25081e-06
7.17986e-06
7.13045e-06
7.09506e-06
7.07138e-06
7.05906e-06
7.05751e-06
7.06588e-06
7.08327e-06
7.10869e-06
7.14103e-06
7.17905e-06
7.22141e-06
7.2666e-06
7.31301e-06
7.35896e-06
7.40269e-06
7.44247e-06
7.47662e-06
7.50364e-06
7.52222e-06
7.53135e-06
7.53034e-06
7.51883e-06
7.49683e-06
7.46468e-06
7.42297e-06
7.37254e-06
7.31437e-06
7.24955e-06
7.17918e-06
7.10434e-06
7.02606e-06
6.94525e-06
6.8627e-06
6.77908e-06
6.69492e-06
6.61061e-06
6.52641e-06
6.4425e-06
6.35893e-06
6.27567e-06
6.19264e-06
6.1097e-06
6.02666e-06
5.94331e-06
5.85944e-06
5.7748e-06
5.68919e-06
5.60238e-06
5.51418e-06
5.42439e-06
5.33285e-06
5.23944e-06
5.14402e-06
5.04652e-06
4.94686e-06
4.845e-06
4.74092e-06
4.6346e-06
4.52606e-06
4.41532e-06
4.30244e-06
4.18745e-06
4.07042e-06
3.95142e-06
3.83052e-06
3.70779e-06
3.58331e-06
3.45717e-06
3.32943e-06
3.20018e-06
3.06949e-06
2.93742e-06
2.80405e-06
2.66941e-06
2.53358e-06
2.3966e-06
2.2585e-06
2.11933e-06
1.9791e-06
1.83785e-06
1.69558e-06
1.5523e-06
1.40803e-06
1.26275e-06
1.11646e-06
9.69156e-07
8.20812e-07
6.71417e-07
5.20952e-07
3.69372e-07
2.16527e-07
6.25204e-08
-9.06492e-08
-2.4231e-07
-4.22507e-07
-6.87252e-07
-6.41987e-07
7.4611e-06
7.38874e-06
7.32011e-06
7.27225e-06
7.23789e-06
7.21481e-06
7.20269e-06
7.20096e-06
7.20882e-06
7.22541e-06
7.24977e-06
7.28085e-06
7.31745e-06
7.35826e-06
7.40182e-06
7.44659e-06
7.49089e-06
7.53301e-06
7.57126e-06
7.60397e-06
7.62965e-06
7.64701e-06
7.65502e-06
7.65296e-06
7.64048e-06
7.61755e-06
7.58446e-06
7.5418e-06
7.49036e-06
7.4311e-06
7.36509e-06
7.29341e-06
7.21714e-06
7.13731e-06
7.05481e-06
6.97047e-06
6.88495e-06
6.79879e-06
6.7124e-06
6.62607e-06
6.53997e-06
6.45417e-06
6.36867e-06
6.28339e-06
6.19819e-06
6.1129e-06
6.02733e-06
5.94125e-06
5.85445e-06
5.7667e-06
5.67779e-06
5.58751e-06
5.49569e-06
5.40216e-06
5.30679e-06
5.20944e-06
5.11004e-06
5.00851e-06
4.90479e-06
4.79888e-06
4.69074e-06
4.5804e-06
4.46787e-06
4.35319e-06
4.23642e-06
4.11761e-06
3.99682e-06
3.87412e-06
3.7496e-06
3.62331e-06
3.49535e-06
3.36579e-06
3.2347e-06
3.10215e-06
2.96822e-06
2.83296e-06
2.69644e-06
2.55871e-06
2.41982e-06
2.2798e-06
2.1387e-06
1.99654e-06
1.85336e-06
1.70915e-06
1.56395e-06
1.41775e-06
1.27056e-06
1.12237e-06
9.73182e-07
8.22974e-07
6.71738e-07
5.19459e-07
3.66093e-07
2.1149e-07
5.5758e-08
-9.9064e-08
-2.5229e-07
-4.34544e-07
-7.0293e-07
-6.55273e-07
7.58966e-06
7.51963e-06
7.45318e-06
7.40679e-06
7.37342e-06
7.35092e-06
7.33901e-06
7.33714e-06
7.34455e-06
7.3604e-06
7.38379e-06
7.4137e-06
7.44897e-06
7.48833e-06
7.53038e-06
7.57359e-06
7.61635e-06
7.65697e-06
7.69377e-06
7.72513e-06
7.74957e-06
7.76578e-06
7.77275e-06
7.76974e-06
7.75637e-06
7.73259e-06
7.69867e-06
7.65515e-06
7.6028e-06
7.54257e-06
7.47548e-06
7.40262e-06
7.32506e-06
7.2438e-06
7.15976e-06
7.07376e-06
6.98647e-06
6.89844e-06
6.81011e-06
6.72176e-06
6.63359e-06
6.54568e-06
6.45804e-06
6.37059e-06
6.28323e-06
6.19579e-06
6.10807e-06
6.01987e-06
5.93097e-06
5.84114e-06
5.75019e-06
5.6579e-06
5.5641e-06
5.46863e-06
5.37134e-06
5.27211e-06
5.17085e-06
5.06749e-06
4.96197e-06
4.85426e-06
4.74435e-06
4.63225e-06
4.51798e-06
4.40156e-06
4.28305e-06
4.16251e-06
4.03999e-06
3.91556e-06
3.78929e-06
3.66127e-06
3.53156e-06
3.40023e-06
3.26738e-06
3.13306e-06
2.99734e-06
2.86029e-06
2.72196e-06
2.58242e-06
2.44171e-06
2.29987e-06
2.15694e-06
2.01295e-06
1.86794e-06
1.72191e-06
1.57488e-06
1.42687e-06
1.27787e-06
1.12789e-06
9.76924e-07
8.24959e-07
6.71987e-07
5.17997e-07
3.62945e-07
2.06682e-07
4.93183e-08
-1.07069e-07
-2.6178e-07
-4.45991e-07
-7.17845e-07
-6.6792e-07
7.7116e-06
7.64376e-06
7.57937e-06
7.53436e-06
7.50193e-06
7.48001e-06
7.46831e-06
7.46633e-06
7.47332e-06
7.4885e-06
7.511e-06
7.53981e-06
7.57384e-06
7.61186e-06
7.65249e-06
7.69424e-06
7.73555e-06
7.77475e-06
7.8102e-06
7.84029e-06
7.86356e-06
7.87871e-06
7.88471e-06
7.88082e-06
7.86664e-06
7.84209e-06
7.80742e-06
7.76313e-06
7.70997e-06
7.64886e-06
7.58081e-06
7.50689e-06
7.42814e-06
7.34558e-06
7.26012e-06
7.17258e-06
7.08365e-06
6.99389e-06
6.90373e-06
6.81348e-06
6.72335e-06
6.63344e-06
6.54376e-06
6.45426e-06
6.36483e-06
6.27532e-06
6.18554e-06
6.09528e-06
6.00435e-06
5.91252e-06
5.81959e-06
5.72535e-06
5.62963e-06
5.53226e-06
5.43311e-06
5.33205e-06
5.22898e-06
5.12383e-06
5.01655e-06