/*--------------------------------*- C++ -*----------------------------------*\
  =========                 |
  \\      /  F ield         | OpenFOAM: The Open Source CFD Toolbox
   \\    /   O peration     | Website:  https://openfoam.org
    \\  /    A nd           | Version:  11
     \\/     M anipulation  |
\*---------------------------------------------------------------------------*/
FoamFile
{
    format      ascii;
    class       volScalarField;
    location    "710";
    object      omega;
}
// * * * * * * * * * * * * * * * * * * * * * * * * * * * * * * * * * * * * * //

dimensions      [0 0 -1 0 0 0 0];

internalField   nonuniform List<scalar> 
10000
(
0.961692
0.892185
0.829085
0.771728
0.719523
0.671944
0.628523
0.588843
0.552532
0.519258
0.488725
0.460668
0.43485
0.411061
0.389111
0.368829
0.350063
0.332677
0.316548
0.301565
0.287628
0.274648
0.262544
0.251242
0.240676
0.230787
0.22152
0.212827
0.204661
0.196983
0.189756
0.182946
0.176521
0.170455
0.164722
0.159297
0.154159
0.149289
0.144668
0.14028
0.13611
0.132142
0.128365
0.124766
0.121334
0.118059
0.114931
0.111942
0.109083
0.106346
0.103725
0.101213
0.0988034
0.0964912
0.094271
0.0921375
0.0900863
0.088113
0.0862135
0.084384
0.0826208
0.0809208
0.0792807
0.0776975
0.0761684
0.0746909
0.0732624
0.0718807
0.0705434
0.0692485
0.067994
0.066778
0.0655988
0.0644547
0.063344
0.0622652
0.0612169
0.0601977
0.0592063
0.0582414
0.0573019
0.0563866
0.0554946
0.0546248
0.0537765
0.0529489
0.0521415
0.0513539
0.0505861
0.0498385
0.0491118
0.0484078
0.0477292
0.0470802
0.0464672
0.0458992
0.0453898
0.0449577
0.0446299
0.0444436
0.961692
0.892185
0.829085
0.771728
0.719523
0.671944
0.628523
0.588843
0.552532
0.519258
0.488725
0.460668
0.43485
0.411061
0.389111
0.368829
0.350063
0.332677
0.316548
0.301565
0.287628
0.274648
0.262544
0.251242
0.240676
0.230787
0.22152
0.212827
0.204661
0.196983
0.189756
0.182946
0.176522
0.170455
0.164722
0.159297
0.154159
0.149289
0.144668
0.14028
0.13611
0.132142
0.128365
0.124766
0.121334
0.118059
0.114931
0.111942
0.109083
0.106346
0.103725
0.101213
0.0988035
0.0964914
0.0942711
0.0921377
0.0900865
0.0881132
0.0862137
0.0843841
0.082621
0.080921
0.0792809
0.0776977
0.0761687
0.0746912
0.0732627
0.0718809
0.0705436
0.0692487
0.0679943
0.0667783
0.0655991
0.064455
0.0633443
0.0622656
0.0612173
0.0601981
0.0592067
0.0582418
0.0573023
0.0563871
0.055495
0.0546253
0.053777
0.0529494
0.052142
0.0513545
0.0505867
0.049839
0.0491124
0.0484084
0.0477298
0.0470808
0.0464677
0.0458998
0.0453904
0.0449583
0.0446305
0.0444442
0.961692
0.892185
0.829085
0.771728
0.719523
0.671944
0.628523
0.588843
0.552532
0.519258
0.488725
0.460668
0.43485
0.411061
0.389111
0.368829
0.350063
0.332677
0.316548
0.301565
0.287628
0.274648
0.262544
0.251242
0.240676
0.230787
0.221521
0.212827
0.204661
0.196983
0.189756
0.182946
0.176522
0.170455
0.164722
0.159297
0.154159
0.149289
0.144668
0.140281
0.13611
0.132143
0.128366
0.124767
0.121335
0.11806
0.114932
0.111942
0.109083
0.106346
0.103725
0.101213
0.0988038
0.0964917
0.0942714
0.092138
0.0900869
0.0881135
0.086214
0.0843845
0.0826214
0.0809214
0.0792813
0.0776981
0.0761691
0.0746916
0.0732632
0.0718814
0.0705442
0.0692493
0.0679948
0.0667789
0.0655997
0.0644556
0.063345
0.0622663
0.061218
0.0601988
0.0592075
0.0582426
0.0573031
0.0563879
0.0554959
0.0546262
0.0537779
0.0529504
0.052143
0.0513555
0.0505877
0.0498401
0.0491135
0.0484095
0.0477309
0.047082
0.0464689
0.045901
0.0453915
0.0449595
0.0446316
0.0444453
0.961692
0.892185
0.829085
0.771728
0.719523
0.671944
0.628523
0.588843
0.552532
0.519258
0.488725
0.460668
0.43485
0.411061
0.389111
0.368829
0.350063
0.332678
0.316548
0.301565
0.287628
0.274648
0.262544
0.251242
0.240676
0.230787
0.221521
0.212827
0.204661
0.196984
0.189756
0.182946
0.176522
0.170456
0.164722
0.159297
0.154159
0.149289
0.144669
0.140281
0.13611
0.132143
0.128366
0.124767
0.121335
0.11806
0.114932
0.111943
0.109083
0.106347
0.103726
0.101213
0.0988042
0.0964921
0.0942719
0.0921385
0.0900874
0.0881141
0.0862146
0.0843851
0.082622
0.080922
0.0792819
0.0776988
0.0761698
0.0746923
0.0732639
0.0718822
0.070545
0.0692501
0.0679957
0.0667798
0.0656007
0.0644566
0.063346
0.0622673
0.061219
0.0601999
0.0592086
0.0582438
0.0573043
0.0563891
0.0554972
0.0546275
0.0537793
0.0529518
0.0521444
0.0513569
0.0505892
0.0498416
0.0491151
0.0484111
0.0477326
0.0470836
0.0464706
0.0459027
0.0453932
0.0449612
0.0446333
0.044447
0.961692
0.892185
0.829085
0.771728
0.719523
0.671944
0.628523
0.588843
0.552532
0.519258
0.488725
0.460668
0.43485
0.411061
0.389111
0.368829
0.350063
0.332678
0.316548
0.301565
0.287628
0.274648
0.262544
0.251242
0.240677
0.230788
0.221521
0.212827
0.204662
0.196984
0.189756
0.182946
0.176522
0.170456
0.164722
0.159297
0.15416
0.14929
0.144669
0.140281
0.136111
0.132143
0.128366
0.124767
0.121335
0.11806
0.114932
0.111943
0.109084
0.106347
0.103726
0.101214
0.0988048
0.0964927
0.0942725
0.0921392
0.090088
0.0881148
0.0862153
0.0843858
0.0826228
0.0809228
0.0792828
0.0776997
0.0761707
0.0746933
0.0732649
0.0718832
0.070546
0.0692512
0.0679968
0.0667809
0.0656018
0.0644578
0.0633472
0.0622686
0.0612204
0.0602013
0.05921
0.0582453
0.0573059
0.0563908
0.0554989
0.0546292
0.0537811
0.0529536
0.0521463
0.0513589
0.0505912
0.0498437
0.0491171
0.0484133
0.0477347
0.0470858
0.0464728
0.0459049
0.0453955
0.0449634
0.0446356
0.0444492
0.961692
0.892185
0.829085
0.771728
0.719523
0.671944
0.628523
0.588843
0.552532
0.519258
0.488725
0.460668
0.43485
0.411061
0.389111
0.368829
0.350064
0.332678
0.316548
0.301565
0.287628
0.274648
0.262544
0.251242
0.240677
0.230788
0.221521
0.212827
0.204662
0.196984
0.189757
0.182946
0.176522
0.170456
0.164722
0.159297
0.15416
0.14929
0.144669
0.140281
0.136111
0.132144
0.128367
0.124768
0.121336
0.118061
0.114933
0.111943
0.109084
0.106348
0.103727
0.101215
0.0988055
0.0964934
0.0942732
0.0921399
0.0900888
0.0881156
0.0862162
0.0843867
0.0826237
0.0809238
0.0792838
0.0777007
0.0761718
0.0746944
0.0732661
0.0718844
0.0705473
0.0692525
0.0679982
0.0667824
0.0656033
0.0644593
0.0633488
0.0622702
0.0612221
0.0602031
0.0592118
0.0582471
0.0573078
0.0563927
0.0555009
0.0546313
0.0537832
0.0529558
0.0521486
0.0513613
0.0505937
0.0498462
0.0491197
0.0484159
0.0477374
0.0470885
0.0464755
0.0459076
0.0453982
0.0449662
0.0446383
0.044452
0.961692
0.892185
0.829085
0.771728
0.719523
0.671944
0.628523
0.588843
0.552532
0.519258
0.488725
0.460668
0.434851
0.411061
0.389111
0.368829
0.350064
0.332678
0.316548
0.301565
0.287629
0.274648
0.262544
0.251242
0.240677
0.230788
0.221521
0.212827
0.204662
0.196984
0.189757
0.182947
0.176523
0.170456
0.164723
0.159298
0.15416
0.14929
0.14467
0.140282
0.136111
0.132144
0.128367
0.124768
0.121336
0.118061
0.114934
0.111944
0.109085
0.106348
0.103727
0.101215
0.0988063
0.0964943
0.0942741
0.0921408
0.0900898
0.0881166
0.0862172
0.0843878
0.0826248
0.080925
0.079285
0.0777019
0.0761731
0.0746957
0.0732674
0.0718858
0.0705487
0.069254
0.0679997
0.066784
0.065605
0.0644611
0.0633506
0.0622721
0.061224
0.0602051
0.0592139
0.0582493
0.05731
0.0563951
0.0555033
0.0546338
0.0537858
0.0529585
0.0521513
0.051364
0.0505965
0.0498491
0.0491227
0.0484189
0.0477405
0.0470917
0.0464787
0.0459108
0.0454014
0.0449694
0.0446415
0.0444552
0.961692
0.892185
0.829085
0.771728
0.719523
0.671944
0.628523
0.588843
0.552532
0.519258
0.488725
0.460668
0.434851
0.411061
0.389111
0.368829
0.350064
0.332678
0.316549
0.301565
0.287629
0.274649
0.262544
0.251242
0.240677
0.230788
0.221521
0.212828
0.204662
0.196984
0.189757
0.182947
0.176523
0.170457
0.164723
0.159298
0.154161
0.149291
0.14467
0.140282
0.136112
0.132145
0.128368
0.124769
0.121337
0.118062
0.114934
0.111945
0.109086
0.106349
0.103728
0.101216
0.0988072
0.0964952
0.0942751
0.0921418
0.0900908
0.0881177
0.0862183
0.084389
0.0826261
0.0809263
0.0792863
0.0777034
0.0761745
0.0746972
0.073269
0.0718875
0.0705504
0.0692558
0.0680016
0.0667859
0.0656069
0.0644631
0.0633527
0.0622742
0.0612263
0.0602074
0.0592163
0.0582518
0.0573126
0.0563977
0.055506
0.0546366
0.0537887
0.0529614
0.0521544
0.0513672
0.0505998
0.0498524
0.0491261
0.0484224
0.047744
0.0470952
0.0464823
0.0459145
0.0454051
0.0449731
0.0446452
0.0444588
0.961692
0.892185
0.829085
0.771728
0.719523
0.671944
0.628523
0.588843
0.552532
0.519258
0.488725
0.460668
0.434851
0.411061
0.389111
0.368829
0.350064
0.332678
0.316549
0.301565
0.287629
0.274649
0.262544
0.251243
0.240677
0.230788
0.221522
0.212828
0.204662
0.196985
0.189757
0.182947
0.176523
0.170457
0.164723
0.159299
0.154161
0.149291
0.144671
0.140283
0.136112
0.132145
0.128368
0.124769
0.121338
0.118063
0.114935
0.111946
0.109087
0.10635
0.103729
0.101217
0.0988082
0.0964963
0.0942762
0.092143
0.090092
0.0881189
0.0862196
0.0843903
0.0826275
0.0809277
0.0792878
0.0777049
0.0761762
0.0746989
0.0732707
0.0718893
0.0705523
0.0692577
0.0680036
0.066788
0.0656091
0.0644653
0.063355
0.0622766
0.0612287
0.0602099
0.059219
0.0582545
0.0573154
0.0564006
0.055509
0.0546397
0.0537919
0.0529648
0.0521578
0.0513707
0.0506034
0.0498561
0.0491299
0.0484262
0.047748
0.0470992
0.0464863
0.0459186
0.0454092
0.0449771
0.0446493
0.0444629
0.961692
0.892185
0.829084
0.771728
0.719523
0.671944
0.628523
0.588843
0.552532
0.519258
0.488725
0.460668
0.434851
0.411062
0.389111
0.368829
0.350064
0.332678
0.316549
0.301566
0.287629
0.274649
0.262545
0.251243
0.240677
0.230788
0.221522
0.212828
0.204663
0.196985
0.189758
0.182948
0.176524
0.170457
0.164724
0.159299
0.154162
0.149292
0.144671
0.140283
0.136113
0.132146
0.128369
0.12477
0.121338
0.118063
0.114936
0.111947
0.109087
0.106351
0.10373
0.101218
0.0988093
0.0964974
0.0942774
0.0921442
0.0900933
0.0881203
0.086221
0.0843918
0.082629
0.0809293
0.0792895
0.0777066
0.0761779
0.0747008
0.0732726
0.0718912
0.0705543
0.0692598
0.0680058
0.0667902
0.0656115
0.0644678
0.0633575
0.0622792
0.0612314
0.0602127
0.0592218
0.0582575
0.0573185
0.0564038
0.0555123
0.0546431
0.0537954
0.0529684
0.0521615
0.0513745
0.0506073
0.0498601
0.049134
0.0484304
0.0477522
0.0471036
0.0464907
0.045923
0.0454136
0.0449816
0.0446537
0.0444673
0.961692
0.892185
0.829084
0.771728
0.719523
0.671944
0.628523
0.588843
0.552532
0.519258
0.488725
0.460668
0.434851
0.411062
0.389111
0.368829
0.350064
0.332678
0.316549
0.301566
0.287629
0.274649
0.262545
0.251243
0.240678
0.230789
0.221522
0.212828
0.204663
0.196985
0.189758
0.182948
0.176524
0.170458
0.164724
0.1593
0.154162
0.149292
0.144672
0.140284
0.136114
0.132147
0.12837
0.124771
0.121339
0.118064
0.114937
0.111947
0.109088
0.106352
0.103731
0.101219
0.0988104
0.0964986
0.0942787
0.0921456
0.0900947
0.0881217
0.0862225
0.0843934
0.0826306
0.080931
0.0792912
0.0777084
0.0761798
0.0747027
0.0732747
0.0718934
0.0705565
0.0692621
0.0680081
0.0667927
0.065614
0.0644704
0.0633602
0.062282
0.0612343
0.0602157
0.0592249
0.0582607
0.0573218
0.0564072
0.0555158
0.0546468
0.0537991
0.0529722
0.0521655
0.0513786
0.0506115
0.0498645
0.0491384
0.048435
0.0477568
0.0471082
0.0464955
0.0459278
0.0454184
0.0449864
0.0446586
0.0444721
0.961692
0.892185
0.829084
0.771728
0.719523
0.671944
0.628523
0.588843
0.552532
0.519258
0.488725
0.460668
0.434851
0.411062
0.389111
0.368829
0.350064
0.332678
0.316549
0.301566
0.287629
0.274649
0.262545
0.251243
0.240678
0.230789
0.221522
0.212829
0.204663
0.196986
0.189758
0.182948
0.176524
0.170458
0.164725
0.1593
0.154163
0.149293
0.144672
0.140285
0.136114
0.132147
0.12837
0.124772
0.12134
0.118065
0.114938
0.111948
0.109089
0.106353
0.103732
0.101221
0.0988117
0.0964999
0.09428
0.092147
0.0900962
0.0881232
0.0862241
0.084395
0.0826324
0.0809328
0.0792931
0.0777104
0.0761818
0.0747048
0.0732768
0.0718956
0.0705589
0.0692645
0.0680106
0.0667952
0.0656167
0.0644731
0.0633631
0.062285
0.0612374
0.0602189
0.0592282
0.0582641
0.0573253
0.0564108
0.0555196
0.0546506
0.0538031
0.0529764
0.0521698
0.051383
0.050616
0.0498691
0.0491431
0.0484398
0.0477617
0.0471132
0.0465005
0.0459329
0.0454236
0.0449916
0.0446637
0.0444773
0.961692
0.892184
0.829084
0.771728
0.719523
0.671944
0.628523
0.588843
0.552532
0.519258
0.488725
0.460668
0.434851
0.411062
0.389111
0.368829
0.350064
0.332678
0.316549
0.301566
0.287629
0.274649
0.262545
0.251243
0.240678
0.230789
0.221522
0.212829
0.204664
0.196986
0.189759
0.182949
0.176525
0.170459
0.164725
0.159301
0.154163
0.149293
0.144673
0.140285
0.136115
0.132148
0.128371
0.124773
0.121341
0.118066
0.114939
0.111949
0.109091
0.106354
0.103734
0.101222
0.098813
0.0965013
0.0942814
0.0921485
0.0900977
0.0881248
0.0862258
0.0843968
0.0826342
0.0809346
0.079295
0.0777124
0.0761839
0.074707
0.0732791
0.071898
0.0705613
0.0692671
0.0680132
0.066798
0.0656195
0.0644761
0.0633661
0.0622881
0.0612406
0.0602223
0.0592317
0.0582677
0.057329
0.0564147
0.0555235
0.0546547
0.0538073
0.0529807
0.0521742
0.0513876
0.0506207
0.0498739
0.0491481
0.0484448
0.0477669
0.0471185
0.0465059
0.0459383
0.045429
0.044997
0.0446691
0.0444827
0.961692
0.892184
0.829084
0.771728
0.719523
0.671944
0.628523
0.588843
0.552532
0.519258
0.488725
0.460668
0.434851
0.411062
0.389111
0.368829
0.350064
0.332678
0.316549
0.301566
0.287629
0.274649
0.262545
0.251243
0.240678
0.230789
0.221523
0.212829
0.204664
0.196986
0.189759
0.182949
0.176525
0.170459
0.164726
0.159301
0.154164
0.149294
0.144674
0.140286
0.136116
0.132149
0.128372
0.124773
0.121342
0.118067
0.11494
0.111951
0.109092
0.106355
0.103735
0.101223
0.0988143
0.0965027
0.0942829
0.09215
0.0900993
0.0881265
0.0862276
0.0843986
0.0826361
0.0809366
0.0792971
0.0777145
0.0761861
0.0747093
0.0732815
0.0719004
0.0705639
0.0692697
0.068016
0.0668008
0.0656224
0.0644791
0.0633693
0.0622914
0.061244
0.0602257
0.0592353
0.0582714
0.0573329
0.0564186
0.0555276
0.054659
0.0538117
0.0529852
0.0521789
0.0513924
0.0506256
0.0498789
0.0491532
0.0484501
0.0477723
0.047124
0.0465114
0.0459439
0.0454346
0.0450027
0.0446748
0.0444883
0.961692
0.892184
0.829084
0.771727
0.719523
0.671944
0.628523
0.588843
0.552532
0.519258
0.488725
0.460668
0.434851
0.411062
0.389111
0.368829
0.350064
0.332678
0.316549
0.301566
0.287629
0.27465
0.262545
0.251244
0.240678
0.23079
0.221523
0.212829
0.204664
0.196987
0.18976
0.18295
0.176526
0.17046
0.164726
0.159302
0.154164
0.149295
0.144674
0.140287
0.136117
0.13215
0.128373
0.124774
0.121343
0.118068
0.114941
0.111952
0.109093
0.106357
0.103736
0.101224
0.0988157
0.0965042
0.0942844
0.0921516
0.090101
0.0881283
0.0862294
0.0844005
0.082638
0.0809386
0.0792992
0.0777167
0.0761884
0.0747117
0.0732839
0.071903
0.0705665
0.0692724
0.0680188
0.0668037
0.0656255
0.0644823
0.0633725
0.0622948
0.0612475
0.0602294
0.059239
0.0582752
0.0573369
0.0564228
0.0555319
0.0546633
0.0538162
0.0529899
0.0521837
0.0513973
0.0506307
0.0498842
0.0491586
0.0484556
0.0477779
0.0471296
0.0465172
0.0459497
0.0454405
0.0450086
0.0446807
0.0444942
0.961692
0.892184
0.829084
0.771727
0.719523
0.671944
0.628523
0.588843
0.552532
0.519258
0.488725
0.460668
0.434851
0.411062
0.389111
0.36883
0.350064
0.332678
0.316549
0.301566
0.28763
0.27465
0.262546
0.251244
0.240679
0.23079
0.221523
0.21283
0.204665
0.196987
0.18976
0.18295
0.176526
0.17046
0.164727
0.159302
0.154165
0.149295
0.144675
0.140287
0.136117
0.13215
0.128374
0.124775
0.121344
0.118069
0.114942
0.111953
0.109094
0.106358
0.103737
0.101226
0.0988172
0.0965057
0.094286
0.0921532
0.0901027
0.08813
0.0862312
0.0844024
0.08264
0.0809407
0.0793014
0.077719
0.0761908
0.0747141
0.0732865
0.0719056
0.0705692
0.0692752
0.0680217
0.0668068
0.0656286
0.0644855
0.0633759
0.0622982
0.0612511
0.0602331
0.0592428
0.0582792
0.057341
0.056427
0.0555363
0.0546679
0.0538209
0.0529947
0.0521886
0.0514024
0.0506359
0.0498895
0.0491641
0.0484612
0.0477836
0.0471355
0.0465231
0.0459557
0.0454466
0.0450147
0.0446868
0.0445003
0.961692
0.892184
0.829084
0.771727
0.719523
0.671944
0.628523
0.588843
0.552532
0.519258
0.488725
0.460668
0.434851
0.411062
0.389111
0.36883
0.350064
0.332678
0.316549
0.301566
0.28763
0.27465
0.262546
0.251244
0.240679
0.23079
0.221524
0.21283
0.204665
0.196987
0.18976
0.18295
0.176527
0.170461
0.164727
0.159303
0.154166
0.149296
0.144676
0.140288
0.136118
0.132151
0.128375
0.124776
0.121345
0.11807
0.114943
0.111954
0.109095
0.106359
0.103739
0.101227
0.0988186
0.0965072
0.0942876
0.0921549
0.0901044
0.0881319
0.0862331
0.0844044
0.0826421
0.0809429
0.0793036
0.0777213
0.0761931
0.0747166
0.073289
0.0719082
0.070572
0.0692781
0.0680247
0.0668098
0.0656318
0.0644888
0.0633793
0.0623018
0.0612547
0.0602368
0.0592468
0.0582833
0.0573451
0.0564313
0.0555407
0.0546725
0.0538256
0.0529996
0.0521937
0.0514076
0.0506413
0.049895
0.0491697
0.048467
0.0477895
0.0471415
0.0465292
0.0459618
0.0454528
0.0450209
0.044693
0.0445065
0.961692
0.892184
0.829084
0.771727
0.719523
0.671944
0.628523
0.588843
0.552532
0.519258
0.488725
0.460668
0.434851
0.411062
0.389111
0.36883
0.350064
0.332679
0.316549
0.301566
0.28763
0.27465
0.262546
0.251244
0.240679
0.23079
0.221524
0.21283
0.204665
0.196988
0.189761
0.182951
0.176527
0.170461
0.164728
0.159303
0.154166
0.149297
0.144676
0.140289
0.136119
0.132152
0.128376
0.124777
0.121346
0.118071
0.114944
0.111955
0.109096
0.106361
0.10374
0.101229
0.0988201
0.0965088
0.0942892
0.0921566
0.0901062
0.0881337
0.086235
0.0844064
0.0826442
0.080945
0.0793058
0.0777236
0.0761956
0.0747191
0.0732917
0.071911
0.0705748
0.069281
0.0680277
0.066813
0.065635
0.0644921
0.0633828
0.0623053
0.0612584
0.0602407
0.0592507
0.0582874
0.0573494
0.0564357
0.0555453
0.0546771
0.0538305
0.0530046
0.0521988
0.0514129
0.0506467
0.0499006
0.0491755
0.0484728
0.0477955
0.0471476
0.0465354
0.0459681
0.0454591
0.0450272
0.0446994
0.0445128
0.961692
0.892184
0.829084
0.771727
0.719523
0.671944
0.628523
0.588843
0.552532
0.519258
0.488725
0.460668
0.434851
0.411062
0.389111
0.36883
0.350064
0.332679
0.31655
0.301567
0.28763
0.27465
0.262546
0.251244
0.240679
0.230791
0.221524
0.212831
0.204666
0.196988
0.189761
0.182951
0.176527
0.170462
0.164728
0.159304
0.154167
0.149297
0.144677
0.14029
0.13612
0.132153
0.128376
0.124778
0.121347
0.118072
0.114945
0.111956
0.109098
0.106362
0.103741
0.10123
0.0988216
0.0965103
0.0942909
0.0921583
0.090108
0.0881356
0.086237
0.0844084
0.0826463
0.0809472
0.0793081
0.077726
0.076198
0.0747216
0.0732943
0.0719137
0.0705776
0.069284
0.0680308
0.0668161
0.0656383
0.0644955
0.0633863
0.062309
0.0612622
0.0602446
0.0592547
0.0582915
0.0573537
0.0564401
0.0555498
0.0546819
0.0538354
0.0530096
0.052204
0.0514182
0.0506522
0.0499063
0.0491812
0.0484788
0.0478015
0.0471537
0.0465416
0.0459745
0.0454655
0.0450337
0.0447058
0.0445193
0.961692
0.892184
0.829084
0.771727
0.719523
0.671944
0.628523
0.588843
0.552532
0.519258
0.488725
0.460668
0.434851
0.411062
0.389111
0.36883
0.350064
0.332679
0.31655
0.301567
0.28763
0.27465
0.262546
0.251245
0.240679
0.230791
0.221524
0.212831
0.204666
0.196988
0.189762
0.182952
0.176528
0.170462
0.164729
0.159305
0.154167
0.149298
0.144678
0.140291
0.136121
0.132154
0.128377
0.124779
0.121348
0.118073
0.114946
0.111958
0.109099
0.106363
0.103743
0.101232
0.0988231
0.0965119
0.0942925
0.09216
0.0901098
0.0881374
0.0862389
0.0844104
0.0826484
0.0809494
0.0793104
0.0777284
0.0762005
0.0747242
0.0732969
0.0719164
0.0705805
0.0692869
0.0680338
0.0668193
0.0656415
0.0644989
0.0633898
0.0623126
0.061266
0.0602485
0.0592588
0.0582957
0.057358
0.0564446
0.0555544
0.0546866
0.0538403
0.0530147
0.0522092
0.0514236
0.0506577
0.049912
0.0491871
0.0484848
0.0478077
0.04716
0.046548
0.0459809
0.0454719
0.0450402
0.0447123
0.0445257
0.961692
0.892184
0.829084
0.771727
0.719523
0.671944
0.628523
0.588843
0.552532
0.519258
0.488725
0.460668
0.434851
0.411062
0.389111
0.36883
0.350064
0.332679
0.31655
0.301567
0.28763
0.27465
0.262546
0.251245
0.24068
0.230791
0.221525
0.212831
0.204666
0.196989
0.189762
0.182952
0.176528
0.170463
0.16473
0.159305
0.154168
0.149299
0.144679
0.140291
0.136121
0.132155
0.128378
0.12478
0.121349
0.118075
0.114947
0.111959
0.1091
0.106364
0.103744
0.101233
0.0988247
0.0965135
0.0942942
0.0921618
0.0901116
0.0881393
0.0862409
0.0844125
0.0826505
0.0809516
0.0793127
0.0777307
0.076203
0.0747267
0.0732996
0.0719192
0.0705833
0.0692899
0.0680369
0.0668225
0.0656448
0.0645023
0.0633933
0.0623163
0.0612697
0.0602524
0.0592628
0.0582999
0.0573623
0.056449
0.0555591
0.0546914
0.0538452
0.0530197
0.0522145
0.051429
0.0506633
0.0499177
0.0491929
0.0484907
0.0478138
0.0471662
0.0465543
0.0459873
0.0454784
0.0450467
0.0447188
0.0445323
0.961692
0.892184
0.829084
0.771727
0.719522
0.671944
0.628523
0.588843
0.552532
0.519258
0.488725
0.460668
0.434851
0.411062
0.389111
0.36883
0.350064
0.332679
0.31655
0.301567
0.28763
0.274651
0.262546
0.251245
0.24068
0.230791
0.221525
0.212832
0.204667
0.196989
0.189762
0.182953
0.176529
0.170463
0.16473
0.159306
0.154169
0.149299
0.144679
0.140292
0.136122
0.132156
0.128379
0.124781
0.12135
0.118076
0.114949
0.11196
0.109101
0.106366
0.103746
0.101234
0.0988262
0.0965151
0.0942958
0.0921635
0.0901134
0.0881412
0.0862428
0.0844145
0.0826526
0.0809538
0.079315
0.0777331
0.0762054
0.0747293
0.0733023
0.0719219
0.0705862
0.0692928
0.0680399
0.0668256
0.0656481
0.0645057
0.0633968
0.0623199
0.0612735
0.0602563
0.0592668
0.058304
0.0573666
0.0564535
0.0555637
0.0546961
0.0538501
0.0530248
0.0522197
0.0514344
0.0506688
0.0499233
0.0491988
0.0484967
0.0478199
0.0471724
0.0465606
0.0459937
0.0454849
0.0450532
0.0447254
0.0445388
0.961692
0.892184
0.829084
0.771727
0.719522
0.671944
0.628523
0.588843
0.552532
0.519258
0.488725
0.460668
0.434851
0.411062
0.389111
0.36883
0.350065
0.332679
0.31655
0.301567
0.28763
0.274651
0.262547
0.251245
0.24068
0.230791
0.221525
0.212832
0.204667
0.196989
0.189763
0.182953
0.176529
0.170464
0.164731
0.159306
0.154169
0.1493
0.14468
0.140293
0.136123
0.132156
0.12838
0.124782
0.121351
0.118077
0.11495
0.111961
0.109103
0.106367
0.103747
0.101236
0.0988276
0.0965166
0.0942975
0.0921652
0.0901152
0.088143
0.0862448
0.0844165
0.0826547
0.080956
0.0793172
0.0777354
0.0762079
0.0747318
0.0733049
0.0719247
0.070589
0.0692958
0.068043
0.0668288
0.0656514
0.0645091
0.0634003
0.0623235
0.0612772
0.0602601
0.0592708
0.0583082
0.0573709
0.0564579
0.0555682
0.0547009
0.053855
0.0530298
0.0522249
0.0514397
0.0506743
0.049929
0.0492046
0.0485027
0.047826
0.0471787
0.046567
0.0460001
0.0454914
0.0450597
0.0447319
0.0445453
0.961692
0.892184
0.829084
0.771727
0.719522
0.671944
0.628523
0.588843
0.552532
0.519258
0.488725
0.460668
0.434851
0.411062
0.389111
0.36883
0.350065
0.332679
0.31655
0.301567
0.287631
0.274651
0.262547
0.251245
0.24068
0.230792
0.221525
0.212832
0.204667
0.19699
0.189763
0.182953
0.17653
0.170464
0.164731
0.159307
0.15417
0.149301
0.144681
0.140294
0.136124
0.132157
0.128381
0.124783
0.121352
0.118078
0.114951
0.111962
0.109104
0.106368
0.103748
0.101237
0.0988291
0.0965182
0.0942991
0.0921669
0.0901169
0.0881449
0.0862467
0.0844185
0.0826568
0.0809581
0.0793195
0.0777378
0.0762103
0.0747343
0.0733075
0.0719274
0.0705918
0.0692987
0.068046
0.0668319
0.0656546
0.0645124
0.0634038
0.0623271
0.0612809
0.060264
0.0592748
0.0583123
0.0573751
0.0564623
0.0555727
0.0547055
0.0538598
0.0530348
0.05223
0.051445
0.0506798
0.0499346
0.0492103
0.0485086
0.047832
0.0471848
0.0465732
0.0460065
0.0454978
0.0450662
0.0447384
0.0445517
0.961692
0.892184
0.829084
0.771727
0.719522
0.671944
0.628523
0.588843
0.552532
0.519258
0.488725
0.460668
0.434851
0.411062
0.389111
0.36883
0.350065
0.332679
0.31655
0.301567
0.287631
0.274651
0.262547
0.251245
0.24068
0.230792
0.221526
0.212832
0.204667
0.19699
0.189763
0.182954
0.17653
0.170465
0.164732
0.159307
0.154171
0.149301
0.144681
0.140294
0.136125
0.132158
0.128382
0.124784
0.121353
0.118079
0.114952
0.111963
0.109105
0.10637
0.10375
0.101239
0.0988306
0.0965197
0.0943007
0.0921685
0.0901187
0.0881467
0.0862486
0.0844205
0.0826588
0.0809603
0.0793217
0.0777401
0.0762127
0.0747368
0.07331
0.07193
0.0705946
0.0693015
0.0680489
0.066835
0.0656578
0.0645157
0.0634072
0.0623306
0.0612846
0.0602677
0.0592787
0.0583163
0.0573793
0.0564666
0.0555772
0.0547101
0.0538646
0.0530397
0.0522351
0.0514503
0.0506852
0.0499402
0.049216
0.0485144
0.047838
0.0471909
0.0465794
0.0460127
0.0455041
0.0450725
0.0447447
0.0445581
0.961692
0.892184
0.829084
0.771727
0.719522
0.671944
0.628523
0.588843
0.552532
0.519258
0.488725
0.460668
0.434851
0.411062
0.389111
0.36883
0.350065
0.332679
0.31655
0.301567
0.287631
0.274651
0.262547
0.251246
0.240681
0.230792
0.221526
0.212833
0.204668
0.19699
0.189764
0.182954
0.176531
0.170465
0.164732
0.159308
0.154171
0.149302
0.144682
0.140295
0.136125
0.132159
0.128383
0.124785
0.121354
0.11808
0.114953
0.111964
0.109106
0.106371
0.103751
0.10124
0.098832
0.0965212
0.0943022
0.0921702
0.0901204
0.0881485
0.0862504
0.0844224
0.0826608
0.0809624
0.0793238
0.0777423
0.076215
0.0747392
0.0733126
0.0719326
0.0705973
0.0693043
0.0680519
0.066838
0.0656609
0.064519
0.0634105
0.0623341
0.0612882
0.0602714
0.0592825
0.0583203
0.0573834
0.0564709
0.0555816
0.0547147
0.0538692
0.0530446
0.0522401
0.0514554
0.0506905
0.0499456
0.0492216
0.0485202
0.0478439
0.0471969
0.0465855
0.0460189
0.0455104
0.0450788
0.0447511
0.0445644
0.961692
0.892184
0.829084
0.771727
0.719522
0.671944
0.628523
0.588843
0.552532
0.519258
0.488725
0.460668
0.434851
0.411062
0.389111
0.36883
0.350065
0.332679
0.31655
0.301567
0.287631
0.274651
0.262547
0.251246
0.240681
0.230792
0.221526
0.212833
0.204668
0.196991
0.189764
0.182955
0.176531
0.170466
0.164733
0.159308
0.154172
0.149302
0.144683
0.140296
0.136126
0.13216
0.128384
0.124786
0.121355
0.118081
0.114954
0.111966
0.109107
0.106372
0.103752
0.101241
0.0988334
0.0965226
0.0943038
0.0921718
0.090122
0.0881502
0.0862522
0.0844243
0.0826628
0.0809644
0.079326
0.0777445
0.0762173
0.0747416
0.073315
0.0719352
0.0705999
0.0693071
0.0680547
0.0668409
0.065664
0.0645221
0.0634138
0.0623375
0.0612917
0.0602751
0.0592863
0.0583241
0.0573874
0.056475
0.0555859
0.0547191
0.0538738
0.0530493
0.052245
0.0514604
0.0506957
0.049951
0.0492271
0.0485258
0.0478496
0.0472028
0.0465915
0.046025
0.0455165
0.045085
0.0447573
0.0445706
0.961692
0.892184
0.829084
0.771727
0.719522
0.671944
0.628523
0.588843
0.552532
0.519258
0.488725
0.460668
0.434851
0.411062
0.389111
0.36883
0.350065
0.332679
0.31655
0.301567
0.287631
0.274651
0.262547
0.251246
0.240681
0.230793
0.221526
0.212833
0.204668
0.196991
0.189765
0.182955
0.176531
0.170466
0.164733
0.159309
0.154172
0.149303
0.144683
0.140296
0.136127
0.13216
0.128384
0.124786
0.121356
0.118082
0.114955
0.111967
0.109109
0.106373
0.103753
0.101243
0.0988348
0.0965241
0.0943052
0.0921733
0.0901237
0.0881519
0.086254
0.0844261
0.0826647
0.0809664
0.079328
0.0777467
0.0762195
0.0747439
0.0733174
0.0719377
0.0706025
0.0693098
0.0680575
0.0668438
0.0656669
0.0645252
0.063417
0.0623408
0.0612951
0.0602786
0.05929
0.0583279
0.0573913
0.0564791
0.0555901
0.0547235
0.0538783
0.0530539
0.0522497
0.0514654
0.0507008
0.0499562
0.0492325
0.0485313
0.0478553
0.0472086
0.0465974
0.046031
0.0455225
0.0450911
0.0447633
0.0445766
0.961692
0.892184
0.829084
0.771727
0.719522
0.671944
0.628523
0.588843
0.552532
0.519258
0.488725
0.460668
0.434851
0.411062
0.389111
0.36883
0.350065
0.332679
0.31655
0.301567
0.287631
0.274651
0.262547
0.251246
0.240681
0.230793
0.221527
0.212833
0.204669
0.196991
0.189765
0.182955
0.176532
0.170466
0.164734
0.159309
0.154173
0.149304
0.144684
0.140297
0.136127
0.132161
0.128385
0.124787
0.121357
0.118083
0.114956
0.111968
0.10911
0.106374
0.103755
0.101244
0.0988361
0.0965255
0.0943067
0.0921748
0.0901252
0.0881535
0.0862557
0.0844279
0.0826666
0.0809683
0.0793301
0.0777488
0.0762217
0.0747462
0.0733198
0.0719401
0.070605
0.0693124
0.0680602
0.0668466
0.0656698
0.0645282
0.0634201
0.062344
0.0612984
0.0602821
0.0592935
0.0583316
0.0573952
0.056483
0.0555942
0.0547277
0.0538827
0.0530584
0.0522544
0.0514702
0.0507057
0.0499613
0.0492377
0.0485367
0.0478608
0.0472142
0.0466031
0.0460368
0.0455284
0.045097
0.0447692
0.0445826
0.961692
0.892184
0.829084
0.771727
0.719522
0.671944
0.628523
0.588843
0.552532
0.519258
0.488725
0.460668
0.434851
0.411062
0.389111
0.36883
0.350065
0.332679
0.31655
0.301567
0.287631
0.274651
0.262548
0.251246
0.240681
0.230793
0.221527
0.212834
0.204669
0.196992
0.189765
0.182956
0.176532
0.170467
0.164734
0.15931
0.154173
0.149304
0.144684
0.140298
0.136128
0.132162
0.128386
0.124788
0.121357
0.118084
0.114957
0.111969
0.109111
0.106375
0.103756
0.101245
0.0988374
0.0965268
0.0943081
0.0921763
0.0901268
0.0881551
0.0862574
0.0844296
0.0826684
0.0809702
0.079332
0.0777508
0.0762238
0.0747484
0.0733221
0.0719425
0.0706075
0.0693149
0.0680628
0.0668493
0.0656727
0.0645311
0.0634231
0.0623471
0.0613017
0.0602854
0.059297
0.0583352
0.0573989
0.0564868
0.0555981
0.0547318
0.0538869
0.0530628
0.0522589
0.0514748
0.0507105
0.0499662
0.0492428
0.0485419
0.0478661
0.0472196
0.0466087
0.0460424
0.0455341
0.0451027
0.044775
0.0445883
0.961692
0.892184
0.829084
0.771727
0.719522
0.671944
0.628523
0.588843
0.552532
0.519258
0.488725
0.460668
0.434851
0.411062
0.389111
0.36883
0.350065
0.332679
0.31655
0.301567
0.287631
0.274652
0.262548
0.251246
0.240681
0.230793
0.221527
0.212834
0.204669
0.196992
0.189765
0.182956
0.176533
0.170467
0.164734
0.15931
0.154174
0.149305
0.144685
0.140298
0.136129
0.132163
0.128387
0.124789
0.121358
0.118084
0.114958
0.11197
0.109112
0.106377
0.103757
0.101246
0.0988386
0.0965281
0.0943095
0.0921777
0.0901282
0.0881567
0.086259
0.0844313
0.0826701
0.080972
0.0793339
0.0777528
0.0762258
0.0747505
0.0733242
0.0719448
0.0706098
0.0693173
0.0680653
0.0668519
0.0656754
0.0645339
0.063426
0.0623501
0.0613048
0.0602886
0.0593003
0.0583387
0.0574024
0.0564905
0.055602
0.0547357
0.053891
0.053067
0.0522633
0.0514793
0.0507151
0.049971
0.0492477
0.0485469
0.0478713
0.0472249
0.046614
0.0460479
0.0455396
0.0451083
0.0447806
0.0445939
0.961692
0.892184
0.829084
0.771727
0.719522
0.671944
0.628523
0.588843
0.552532
0.519258
0.488725
0.460668
0.434851
0.411062
0.389111
0.36883
0.350065
0.332679
0.31655
0.301568
0.287631
0.274652
0.262548
0.251246
0.240682
0.230793
0.221527
0.212834