/*--------------------------------*- C++ -*----------------------------------*\
  =========                 |
  \\      /  F ield         | OpenFOAM: The Open Source CFD Toolbox
   \\    /   O peration     | Website:  https://openfoam.org
    \\  /    A nd           | Version:  11
     \\/     M anipulation  |
\*---------------------------------------------------------------------------*/
FoamFile
{
    format      ascii;
    class       surfaceScalarField;
    location    "1560";
    object      phi;
}
// * * * * * * * * * * * * * * * * * * * * * * * * * * * * * * * * * * * * * //

dimensions      [0 3 -1 0 0 0 0];

internalField   nonuniform List<scalar> 
19800
(
2e-05
-3.85881e-15
2e-05
-1.11781e-14
2e-05
-1.83686e-14
2e-05
-2.56426e-14
2e-05
-3.31278e-14
2e-05
-4.0907e-14
2e-05
-4.90467e-14
2e-05
-5.76037e-14
2e-05
-6.66287e-14
2e-05
-7.61692e-14
2e-05
-8.62706e-14
2e-05
-9.69772e-14
2e-05
-1.08333e-13
2e-05
-1.20382e-13
2e-05
-1.33169e-13
2e-05
-1.46738e-13
2e-05
-1.61136e-13
2e-05
-1.76409e-13
2e-05
-1.92605e-13
2e-05
-2.09773e-13
2e-05
-2.27964e-13
2e-05
-2.47229e-13
2e-05
-2.67621e-13
2e-05
-2.89194e-13
2e-05
-3.12004e-13
2e-05
-3.36109e-13
2e-05
-3.61566e-13
2e-05
-3.88436e-13
2e-05
-4.16779e-13
2e-05
-4.4666e-13
2e-05
-4.78141e-13
2e-05
-5.11288e-13
2e-05
-5.46168e-13
2e-05
-5.82849e-13
2e-05
-6.21399e-13
2e-05
-6.61888e-13
2e-05
-7.04387e-13
2e-05
-7.48968e-13
2e-05
-7.95704e-13
2e-05
-8.44666e-13
2e-05
-8.95928e-13
2e-05
-9.49564e-13
2e-05
-1.00565e-12
2e-05
-1.06425e-12
2e-05
-1.12545e-12
2e-05
-1.18931e-12
2e-05
-1.25592e-12
2e-05
-1.32533e-12
2e-05
-1.39762e-12
2e-05
-1.47285e-12
2e-05
-1.55109e-12
2e-05
-1.63241e-12
2e-05
-1.71686e-12
2e-05
-1.80451e-12
2e-05
-1.89539e-12
2e-05
-1.98957e-12
2e-05
-2.08708e-12
2e-05
-2.18797e-12
2e-05
-2.29226e-12
2e-05
-2.39999e-12
2e-05
-2.51116e-12
2e-05
-2.6258e-12
2e-05
-2.7439e-12
2e-05
-2.86546e-12
2e-05
-2.99045e-12
2e-05
-3.11884e-12
2e-05
-3.25058e-12
2e-05
-3.38563e-12
2e-05
-3.5239e-12
2e-05
-3.66529e-12
2e-05
-3.8097e-12
2e-05
-3.957e-12
2e-05
-4.10702e-12
2e-05
-4.2596e-12
2e-05
-4.41451e-12
2e-05
-4.57152e-12
2e-05
-4.73037e-12
2e-05
-4.89073e-12
2e-05
-5.05227e-12
2e-05
-5.21459e-12
2e-05
-5.37726e-12
2e-05
-5.53976e-12
2e-05
-5.70157e-12
2e-05
-5.86204e-12
2e-05
-6.0205e-12
2e-05
-6.17617e-12
2e-05
-6.32819e-12
2e-05
-6.4756e-12
2e-05
-6.61735e-12
2e-05
-6.75226e-12
2e-05
-6.87904e-12
2e-05
-6.99629e-12
2e-05
-7.10251e-12
2e-05
-7.19615e-12
2e-05
-7.27562e-12
2e-05
-7.33868e-12
2e-05
-7.38344e-12
2e-05
-7.40966e-12
2e-05
-7.42153e-12
-7.42762e-12
2e-05
-3.41451e-15
2e-05
-1.02455e-14
2e-05
-1.71222e-14
2e-05
-2.41278e-14
2e-05
-3.13511e-14
2e-05
-3.88629e-14
2e-05
-4.67236e-14
2e-05
-5.49863e-14
2e-05
-6.36995e-14
2e-05
-7.29086e-14
2e-05
-8.26575e-14
2e-05
-9.29888e-14
2e-05
-1.03945e-13
2e-05
-1.15569e-13
2e-05
-1.27902e-13
2e-05
-1.4099e-13
2e-05
-1.54875e-13
2e-05
-1.69604e-13
2e-05
-1.85221e-13
2e-05
-2.01775e-13
2e-05
-2.19314e-13
2e-05
-2.37888e-13
2e-05
-2.57547e-13
2e-05
-2.78345e-13
2e-05
-3.00334e-13
2e-05
-3.23571e-13
2e-05
-3.4811e-13
2e-05
-3.74011e-13
2e-05
-4.01332e-13
2e-05
-4.30134e-13
2e-05
-4.60478e-13
2e-05
-4.92428e-13
2e-05
-5.26047e-13
2e-05
-5.61401e-13
2e-05
-5.98557e-13
2e-05
-6.37581e-13
2e-05
-6.78543e-13
2e-05
-7.21511e-13
2e-05
-7.66554e-13
2e-05
-8.13744e-13
2e-05
-8.63151e-13
2e-05
-9.14845e-13
2e-05
-9.68899e-13
2e-05
-1.02538e-12
2e-05
-1.08437e-12
2e-05
-1.14592e-12
2e-05
-1.21012e-12
2e-05
-1.27702e-12
2e-05
-1.3467e-12
2e-05
-1.41922e-12
2e-05
-1.49465e-12
2e-05
-1.57304e-12
2e-05
-1.65445e-12
2e-05
-1.73895e-12
2e-05
-1.82658e-12
2e-05
-1.91739e-12
2e-05
-2.01142e-12
2e-05
-2.10872e-12
2e-05
-2.20932e-12
2e-05
-2.31324e-12
2e-05
-2.4205e-12
2e-05
-2.53112e-12
2e-05
-2.64511e-12
2e-05
-2.76245e-12
2e-05
-2.88314e-12
2e-05
-3.00714e-12
2e-05
-3.13442e-12
2e-05
-3.26494e-12
2e-05
-3.39862e-12
2e-05
-3.53539e-12
2e-05
-3.67514e-12
2e-05
-3.81776e-12
2e-05
-3.96312e-12
2e-05
-4.11106e-12
2e-05
-4.26138e-12
2e-05
-4.41389e-12
2e-05
-4.56833e-12
2e-05
-4.72444e-12
2e-05
-4.88192e-12
2e-05
-5.04041e-12
2e-05
-5.19952e-12
2e-05
-5.35881e-12
2e-05
-5.51781e-12
2e-05
-5.67595e-12
2e-05
-5.83264e-12
2e-05
-5.98718e-12
2e-05
-6.13883e-12
2e-05
-6.28673e-12
2e-05
-6.42995e-12
2e-05
-6.56746e-12
2e-05
-6.69811e-12
2e-05
-6.82066e-12
2e-05
-6.93377e-12
2e-05
-7.03599e-12
2e-05
-7.12565e-12
2e-05
-7.20094e-12
2e-05
-7.26071e-12
2e-05
-7.30532e-12
2e-05
-7.33672e-12
-7.36075e-12
2e-05
-3.08048e-15
2e-05
-9.41924e-15
2e-05
-1.59365e-14
2e-05
-2.26451e-14
2e-05
-2.95922e-14
2e-05
-3.68301e-14
2e-05
-4.44095e-14
2e-05
-5.23779e-14
2e-05
-6.07805e-14
2e-05
-6.96603e-14
2e-05
-7.90589e-14
2e-05
-8.90176e-14
2e-05
-9.9577e-14
2e-05
-1.10778e-13
2e-05
-1.22662e-13
2e-05
-1.35271e-13
2e-05
-1.48647e-13
2e-05
-1.62835e-13
2e-05
-1.77877e-13
2e-05
-1.93821e-13
2e-05
-2.10712e-13
2e-05
-2.28599e-13
2e-05
-2.47531e-13
2e-05
-2.67558e-13
2e-05
-2.88731e-13
2e-05
-3.11105e-13
2e-05
-3.34733e-13
2e-05
-3.59671e-13
2e-05
-3.85975e-13
2e-05
-4.13705e-13
2e-05
-4.42919e-13
2e-05
-4.73678e-13
2e-05
-5.06045e-13
2e-05
-5.40081e-13
2e-05
-5.75851e-13
2e-05
-6.13419e-13
2e-05
-6.52852e-13
2e-05
-6.94216e-13
2e-05
-7.37578e-13
2e-05
-7.83006e-13
2e-05
-8.30569e-13
2e-05
-8.80334e-13
2e-05
-9.3237e-13
2e-05
-9.86745e-13
2e-05
-1.04353e-12
2e-05
-1.10279e-12
2e-05
-1.16459e-12
2e-05
-1.229e-12
2e-05
-1.29609e-12
2e-05
-1.36591e-12
2e-05
-1.43853e-12
2e-05
-1.51402e-12
2e-05
-1.59241e-12
2e-05
-1.67378e-12
2e-05
-1.75818e-12
2e-05
-1.84564e-12
2e-05
-1.93622e-12
2e-05
-2.02995e-12
2e-05
-2.12687e-12
2e-05
-2.227e-12
2e-05
-2.33038e-12
2e-05
-2.437e-12
2e-05
-2.5469e-12
2e-05
-2.66005e-12
2e-05
-2.77646e-12
2e-05
-2.8961e-12
2e-05
-3.01895e-12
2e-05
-3.14496e-12
2e-05
-3.27408e-12
2e-05
-3.40624e-12
2e-05
-3.54136e-12
2e-05
-3.67933e-12
2e-05
-3.82005e-12
2e-05
-3.96336e-12
2e-05
-4.10911e-12
2e-05
-4.25712e-12
2e-05
-4.40718e-12
2e-05
-4.55905e-12
2e-05
-4.71246e-12
2e-05
-4.86711e-12
2e-05
-5.02266e-12
2e-05
-5.17873e-12
2e-05
-5.33489e-12
2e-05
-5.49066e-12
2e-05
-5.64551e-12
2e-05
-5.79885e-12
2e-05
-5.95001e-12
2e-05
-6.09826e-12
2e-05
-6.24277e-12
2e-05
-6.38263e-12
2e-05
-6.51684e-12
2e-05
-6.64427e-12
2e-05
-6.7637e-12
2e-05
-6.87378e-12
2e-05
-6.97298e-12
2e-05
-7.05978e-12
2e-05
-7.13303e-12
2e-05
-7.19213e-12
2e-05
-7.23687e-12
-7.26998e-12
2e-05
-2.80955e-15
2e-05
-8.69281e-15
2e-05
-1.48344e-14
2e-05
-2.12222e-14
2e-05
-2.78755e-14
2e-05
-3.48283e-14
2e-05
-4.21201e-14
2e-05
-4.97914e-14
2e-05
-5.78828e-14
2e-05
-6.64339e-14
2e-05
-7.54843e-14
2e-05
-8.50728e-14
2e-05
-9.52385e-14
2e-05
-1.06021e-13
2e-05
-1.17459e-13
2e-05
-1.29593e-13
2e-05
-1.42465e-13
2e-05
-1.56116e-13
2e-05
-1.70589e-13
2e-05
-1.85927e-13
2e-05
-2.02177e-13
2e-05
-2.19383e-13
2e-05
-2.37593e-13
2e-05
-2.56856e-13
2e-05
-2.77221e-13
2e-05
-2.98739e-13
2e-05
-3.21463e-13
2e-05
-3.45446e-13
2e-05
-3.70743e-13
2e-05
-3.9741e-13
2e-05
-4.25504e-13
2e-05
-4.55083e-13
2e-05
-4.86207e-13
2e-05
-5.18936e-13
2e-05
-5.53331e-13
2e-05
-5.89456e-13
2e-05
-6.27374e-13
2e-05
-6.67148e-13
2e-05
-7.08843e-13
2e-05
-7.52525e-13
2e-05
-7.98258e-13
2e-05
-8.4611e-13
2e-05
-8.96146e-13
2e-05
-9.48432e-13
2e-05
-1.00303e-12
2e-05
-1.06002e-12
2e-05
-1.11945e-12
2e-05
-1.18139e-12
2e-05
-1.2459e-12
2e-05
-1.31305e-12
2e-05
-1.38289e-12
2e-05
-1.45549e-12
2e-05
-1.5309e-12
2e-05
-1.60917e-12
2e-05
-1.69035e-12
2e-05
-1.7745e-12
2e-05
-1.86165e-12
2e-05
-1.95184e-12
2e-05
-2.04511e-12
2e-05
-2.1415e-12
2e-05
-2.24101e-12
2e-05
-2.34368e-12
2e-05
-2.44952e-12
2e-05
-2.55852e-12
2e-05
-2.67068e-12
2e-05
-2.786e-12
2e-05
-2.90445e-12
2e-05
-3.02599e-12
2e-05
-3.15058e-12
2e-05
-3.27817e-12
2e-05
-3.40869e-12
2e-05
-3.54205e-12
2e-05
-3.67815e-12
2e-05
-3.81687e-12
2e-05
-3.95808e-12
2e-05
-4.10162e-12
2e-05
-4.24731e-12
2e-05
-4.39495e-12
2e-05
-4.54431e-12
2e-05
-4.69512e-12
2e-05
-4.84709e-12
2e-05
-4.99991e-12
2e-05
-5.15319e-12
2e-05
-5.30653e-12
2e-05
-5.45947e-12
2e-05
-5.61149e-12
2e-05
-5.76203e-12
2e-05
-5.91043e-12
2e-05
-6.05599e-12
2e-05
-6.19789e-12
2e-05
-6.33524e-12
2e-05
-6.46702e-12
2e-05
-6.59212e-12
2e-05
-6.70925e-12
2e-05
-6.81698e-12
2e-05
-6.91379e-12
2e-05
-6.99818e-12
2e-05
-7.06844e-12
2e-05
-7.12241e-12
-7.1578e-12
2e-05
-2.58094e-15
2e-05
-8.04632e-15
2e-05
-1.38161e-14
2e-05
-1.9872e-14
2e-05
-2.62184e-14
2e-05
-3.28753e-14
2e-05
-3.98719e-14
2e-05
-4.72415e-14
2e-05
-5.50195e-14
2e-05
-6.32418e-14
2e-05
-7.19448e-14
2e-05
-8.11654e-14
2e-05
-9.09404e-14
2e-05
-1.01307e-13
2e-05
-1.12304e-13
2e-05
-1.23969e-13
2e-05
-1.36341e-13
2e-05
-1.49461e-13
2e-05
-1.6337e-13
2e-05
-1.7811e-13
2e-05
-1.93725e-13
2e-05
-2.10257e-13
2e-05
-2.27754e-13
2e-05
-2.46261e-13
2e-05
-2.65826e-13
2e-05
-2.86498e-13
2e-05
-3.08328e-13
2e-05
-3.31367e-13
2e-05
-3.55667e-13
2e-05
-3.81282e-13
2e-05
-4.08268e-13
2e-05
-4.36679e-13
2e-05
-4.66574e-13
2e-05
-4.9801e-13
2e-05
-5.31047e-13
2e-05
-5.65744e-13
2e-05
-6.02163e-13
2e-05
-6.40364e-13
2e-05
-6.8041e-13
2e-05
-7.22364e-13
2e-05
-7.66289e-13
2e-05
-8.12248e-13
2e-05
-8.60306e-13
2e-05
-9.10525e-13
2e-05
-9.62969e-13
2e-05
-1.0177e-12
2e-05
-1.07478e-12
2e-05
-1.13428e-12
2e-05
-1.19625e-12
2e-05
-1.26075e-12
2e-05
-1.32785e-12
2e-05
-1.39759e-12
2e-05
-1.47004e-12
2e-05
-1.54525e-12
2e-05
-1.62326e-12
2e-05
-1.70412e-12
2e-05
-1.78788e-12
2e-05
-1.87457e-12
2e-05
-1.96424e-12
2e-05
-2.05691e-12
2e-05
-2.15262e-12
2e-05
-2.25137e-12
2e-05
-2.35319e-12
2e-05
-2.45808e-12
2e-05
-2.56605e-12
2e-05
-2.67709e-12
2e-05
-2.79118e-12
2e-05
-2.9083e-12
2e-05
-3.02841e-12
2e-05
-3.15148e-12
2e-05
-3.27744e-12
2e-05
-3.40622e-12
2e-05
-3.53775e-12
2e-05
-3.67192e-12
2e-05
-3.80862e-12
2e-05
-3.94772e-12
2e-05
-4.08907e-12
2e-05
-4.2325e-12
2e-05
-4.37781e-12
2e-05
-4.52478e-12
2e-05
-4.67317e-12
2e-05
-4.8227e-12
2e-05
-4.97306e-12
2e-05
-5.12389e-12
2e-05
-5.27482e-12
2e-05
-5.4254e-12
2e-05
-5.57513e-12
2e-05
-5.72346e-12
2e-05
-5.86976e-12
2e-05
-6.01332e-12
2e-05
-6.15334e-12
2e-05
-6.28888e-12
2e-05
-6.41887e-12
2e-05
-6.54209e-12
2e-05
-6.6571e-12
2e-05
-6.76222e-12
2e-05
-6.85549e-12
2e-05
-6.9342e-12
2e-05
-6.99463e-12
-7.02911e-12
2e-05
-2.38242e-15
2e-05
-7.46396e-15
2e-05
-1.28746e-14
2e-05
-1.85977e-14
2e-05
-2.46303e-14
2e-05
-3.09836e-14
2e-05
-3.76786e-14
2e-05
-4.47419e-14
2e-05
-5.22038e-14
2e-05
-6.00964e-14
2e-05
-6.84529e-14
2e-05
-7.73073e-14
2e-05
-8.66945e-14
2e-05
-9.66497e-14
2e-05
-1.07209e-13
2e-05
-1.18409e-13
2e-05
-1.30288e-13
2e-05
-1.42884e-13
2e-05
-1.56236e-13
2e-05
-1.70385e-13
2e-05
-1.85372e-13
2e-05
-2.0124e-13
2e-05
-2.18032e-13
2e-05
-2.35793e-13
2e-05
-2.54569e-13
2e-05
-2.74406e-13
2e-05
-2.95353e-13
2e-05
-3.1746e-13
2e-05
-3.40776e-13
2e-05
-3.65354e-13
2e-05
-3.91245e-13
2e-05
-4.18505e-13
2e-05
-4.47186e-13
2e-05
-4.77347e-13
2e-05
-5.09042e-13
2e-05
-5.4233e-13
2e-05
-5.77269e-13
2e-05
-6.13918e-13
2e-05
-6.52336e-13
2e-05
-6.92585e-13
2e-05
-7.34725e-13
2e-05
-7.78817e-13
2e-05
-8.24922e-13
2e-05
-8.73101e-13
2e-05
-9.23416e-13
2e-05
-9.75927e-13
2e-05
-1.03069e-12
2e-05
-1.08778e-12
2e-05
-1.14724e-12
2e-05
-1.20913e-12
2e-05
-1.27352e-12
2e-05
-1.34045e-12
2e-05
-1.40997e-12
2e-05
-1.48215e-12
2e-05
-1.55703e-12
2e-05
-1.63466e-12
2e-05
-1.71507e-12
2e-05
-1.79831e-12
2e-05
-1.88442e-12
2e-05
-1.97343e-12
2e-05
-2.06537e-12
2e-05
-2.16026e-12
2e-05
-2.25811e-12
2e-05
-2.35895e-12
2e-05
-2.46278e-12
2e-05
-2.56959e-12
2e-05
-2.67938e-12
2e-05
-2.79213e-12
2e-05
-2.90782e-12
2e-05
-3.02642e-12
2e-05
-3.14788e-12
2e-05
-3.27214e-12
2e-05
-3.39914e-12
2e-05
-3.52881e-12
2e-05
-3.66104e-12
2e-05
-3.79574e-12
2e-05
-3.93277e-12
2e-05
-4.072e-12
2e-05
-4.21328e-12
2e-05
-4.35641e-12
2e-05
-4.5012e-12
2e-05
-4.64741e-12
2e-05
-4.79478e-12
2e-05
-4.94303e-12
2e-05
-5.09183e-12
2e-05
-5.2408e-12
2e-05
-5.38952e-12
2e-05
-5.53752e-12
2e-05
-5.68423e-12
2e-05
-5.82902e-12
2e-05
-5.97117e-12
2e-05
-6.10978e-12
2e-05
-6.24385e-12
2e-05
-6.37212e-12
2e-05
-6.49308e-12
2e-05
-6.60485e-12
2e-05
-6.70498e-12
2e-05
-6.78996e-12
2e-05
-6.85479e-12
-6.88903e-12
2e-05
-2.20573e-15
2e-05
-6.93373e-15
2e-05
-1.20015e-14
2e-05
-1.73971e-14
2e-05
-2.3115e-14
2e-05
-2.9161e-14
2e-05
-3.55502e-14
2e-05
-4.23039e-14
2e-05
-4.94477e-14
2e-05
-5.70098e-14
2e-05
-6.50203e-14
2e-05
-7.35105e-14
2e-05
-8.25127e-14
2e-05
-9.20602e-14
2e-05
-1.02187e-13
2e-05
-1.12929e-13
2e-05
-1.2432e-13
2e-05
-1.36399e-13
2e-05
-1.49202e-13
2e-05
-1.62768e-13
2e-05
-1.77137e-13
2e-05
-1.92349e-13
2e-05
-2.08447e-13
2e-05
-2.25473e-13
2e-05
-2.4347e-13
2e-05
-2.62485e-13
2e-05
-2.82563e-13
2e-05
-3.03751e-13
2e-05
-3.26098e-13
2e-05
-3.49654e-13
2e-05
-3.74468e-13
2e-05
-4.00592e-13
2e-05
-4.28079e-13
2e-05
-4.56982e-13
2e-05
-4.87356e-13
2e-05
-5.19256e-13
2e-05
-5.52738e-13
2e-05
-5.87858e-13
2e-05
-6.24674e-13
2e-05
-6.63244e-13
2e-05
-7.03626e-13
2e-05
-7.45879e-13
2e-05
-7.90061e-13
2e-05
-8.36231e-13
2e-05
-8.84449e-13
2e-05
-9.34772e-13
2e-05
-9.8726e-13
2e-05
-1.04197e-12
2e-05
-1.09896e-12
2e-05
-1.15828e-12
2e-05
-1.22e-12
2e-05
-1.28415e-12
2e-05
-1.35081e-12
2e-05
-1.42001e-12
2e-05
-1.4918e-12
2e-05
-1.56624e-12
2e-05
-1.64336e-12
2e-05
-1.7232e-12
2e-05
-1.80581e-12
2e-05
-1.89121e-12
2e-05
-1.97944e-12
2e-05
-2.07052e-12
2e-05
-2.16448e-12
2e-05
-2.26132e-12
2e-05
-2.36106e-12
2e-05
-2.46371e-12
2e-05
-2.56926e-12
2e-05
-2.67771e-12
2e-05
-2.78904e-12
2e-05
-2.90323e-12
2e-05
-3.02024e-12
2e-05
-3.14004e-12
2e-05
-3.26257e-12
2e-05
-3.38778e-12
2e-05
-3.51559e-12
2e-05
-3.64592e-12
2e-05
-3.77868e-12
2e-05
-3.91374e-12
2e-05
-4.05099e-12
2e-05
-4.19028e-12
2e-05
-4.33144e-12
2e-05
-4.4743e-12
2e-05
-4.61863e-12
2e-05
-4.7642e-12
2e-05
-4.91073e-12
2e-05
-5.05792e-12
2e-05
-5.2054e-12
2e-05
-5.35277e-12
2e-05
-5.49952e-12
2e-05
-5.64509e-12
2e-05
-5.78879e-12
2e-05
-5.92978e-12
2e-05
-6.06705e-12
2e-05
-6.19931e-12
2e-05
-6.32495e-12
2e-05
-6.44184e-12
2e-05
-6.54714e-12
2e-05
-6.63671e-12
2e-05
-6.7045e-12
-6.74057e-12
2e-05
-2.04558e-15
2e-05
-6.44644e-15
2e-05
-1.11889e-14
2e-05
-1.62662e-14
2e-05
-2.16727e-14
2e-05
-2.74115e-14
2e-05
-3.34935e-14
2e-05
-3.99361e-14
2e-05
-4.67609e-14
2e-05
-5.39925e-14
2e-05
-6.1658e-14
2e-05
-6.9786e-14
2e-05
-7.84065e-14
2e-05
-8.75505e-14
2e-05
-9.72501e-14
2e-05
-1.07538e-13
2e-05
-1.18449e-13
2e-05
-1.30018e-13
2e-05
-1.4228e-13
2e-05
-1.55272e-13
2e-05
-1.69033e-13
2e-05
-1.83601e-13
2e-05
-1.99015e-13
2e-05
-2.15318e-13
2e-05
-2.32551e-13
2e-05
-2.50756e-13
2e-05
-2.69979e-13
2e-05
-2.90264e-13
2e-05
-3.11659e-13
2e-05
-3.34209e-13
2e-05
-3.57964e-13
2e-05
-3.82972e-13
2e-05
-4.09285e-13
2e-05
-4.36953e-13
2e-05
-4.66028e-13
2e-05
-4.96564e-13
2e-05
-5.28613e-13
2e-05
-5.62231e-13
2e-05
-5.97471e-13
2e-05
-6.34391e-13
2e-05
-6.73045e-13
2e-05
-7.1349e-13
2e-05
-7.55782e-13
2e-05
-7.99979e-13
2e-05
-8.46135e-13
2e-05
-8.94309e-13
2e-05
-9.44556e-13
2e-05
-9.96932e-13
2e-05
-1.05149e-12
2e-05
-1.10829e-12
2e-05
-1.16738e-12
2e-05
-1.22881e-12
2e-05
-1.29264e-12
2e-05
-1.35892e-12
2e-05
-1.42768e-12
2e-05
-1.49898e-12
2e-05
-1.57287e-12
2e-05
-1.64937e-12
2e-05
-1.72854e-12
2e-05
-1.81039e-12
2e-05
-1.89498e-12
2e-05
-1.98232e-12
2e-05
-2.07244e-12
2e-05
-2.16535e-12
2e-05
-2.26108e-12
2e-05
-2.35964e-12
2e-05
-2.46102e-12
2e-05
-2.56523e-12
2e-05
-2.67227e-12
2e-05
-2.78211e-12
2e-05
-2.89475e-12
2e-05
-3.01014e-12
2e-05
-3.12827e-12
2e-05
-3.24908e-12
2e-05
-3.37252e-12
2e-05
-3.49853e-12
2e-05
-3.62704e-12
2e-05
-3.75796e-12
2e-05
-3.89119e-12
2e-05
-4.02663e-12
2e-05
-4.16415e-12
2e-05
-4.3036e-12
2e-05
-4.44481e-12
2e-05
-4.58759e-12
2e-05
-4.73172e-12
2e-05
-4.87694e-12
2e-05
-5.02295e-12
2e-05
-5.16937e-12
2e-05
-5.31578e-12
2e-05
-5.46164e-12
2e-05
-5.60631e-12
2e-05
-5.74897e-12
2e-05
-5.88859e-12
2e-05
-6.02383e-12
2e-05
-6.15295e-12
2e-05
-6.27363e-12
2e-05
-6.38268e-12
2e-05
-6.47555e-12
2e-05
-6.54583e-12
-6.58516e-12
2e-05
-1.89856e-15
2e-05
-5.99521e-15
2e-05
-1.04296e-14
2e-05
-1.51999e-14
2e-05
-2.03016e-14
2e-05
-2.57362e-14
2e-05
-3.15125e-14
2e-05
-3.76445e-14
2e-05
-4.41509e-14
2e-05
-5.10531e-14
2e-05
-5.83755e-14
2e-05
-6.6144e-14
2e-05
-7.43863e-14
2e-05
-8.31313e-14
2e-05
-9.2409e-14
2e-05
-1.02251e-13
2e-05
-1.12688e-13
2e-05
-1.23755e-13
2e-05
-1.35485e-13
2e-05
-1.47913e-13
2e-05
-1.61076e-13
2e-05
-1.7501e-13
2e-05
-1.89754e-13
2e-05
-2.05346e-13
2e-05
-2.21828e-13
2e-05
-2.39239e-13
2e-05
-2.57623e-13
2e-05
-2.77022e-13
2e-05
-2.97481e-13
2e-05
-3.19045e-13
2e-05
-3.4176e-13
2e-05
-3.65674e-13
2e-05
-3.90834e-13
2e-05
-4.1729e-13
2e-05
-4.45091e-13
2e-05
-4.74288e-13
2e-05
-5.04932e-13
2e-05
-5.37075e-13
2e-05
-5.70771e-13
2e-05
-6.06071e-13
2e-05
-6.43031e-13
2e-05
-6.81703e-13
2e-05
-7.22141e-13
2e-05
-7.64401e-13
2e-05
-8.08536e-13
2e-05
-8.54602e-13
2e-05
-9.02651e-13
2e-05
-9.52738e-13
2e-05
-1.00492e-12
2e-05
-1.05924e-12
2e-05
-1.11575e-12
2e-05
-1.17452e-12
2e-05
-1.23557e-12
2e-05
-1.29898e-12
2e-05
-1.36477e-12
2e-05
-1.433e-12
2e-05
-1.50371e-12
2e-05
-1.57694e-12
2e-05
-1.65272e-12
2e-05
-1.73111e-12
2e-05
-1.81212e-12
2e-05
-1.89578e-12
2e-05
-1.98214e-12
2e-05
-2.0712e-12
2e-05
-2.16299e-12
2e-05
-2.25752e-12
2e-05
-2.35481e-12
2e-05
-2.45487e-12
2e-05
-2.55768e-12
2e-05
-2.66326e-12
2e-05
-2.77158e-12
2e-05
-2.88265e-12
2e-05
-2.99643e-12
2e-05
-3.11289e-12
2e-05
-3.23202e-12
2e-05
-3.35375e-12
2e-05
-3.47805e-12
2e-05
-3.60485e-12
2e-05
-3.73409e-12
2e-05
-3.86568e-12
2e-05
-3.99953e-12
2e-05
-4.13552e-12
2e-05
-4.27354e-12
2e-05
-4.41342e-12
2e-05
-4.555e-12
2e-05
-4.69805e-12
2e-05
-4.84232e-12
2e-05
-4.98749e-12
2e-05
-5.13317e-12
2e-05
-5.27885e-12
2e-05
-5.42392e-12
2e-05
-5.56755e-12
2e-05
-5.70871e-12
2e-05
-5.84599e-12
2e-05
-5.97754e-12
2e-05
-6.10086e-12
2e-05
-6.21255e-12
2e-05
-6.30783e-12
2e-05
-6.38029e-12
-6.42249e-12
2e-05
-1.7624e-15
2e-05
-5.57494e-15
2e-05
-9.71788e-15
2e-05
-1.41935e-14
2e-05
-1.89988e-14
2e-05
-2.41349e-14
2e-05
-2.9609e-14
2e-05
-3.54331e-14
2e-05
-4.16232e-14
2e-05
-4.81985e-14
2e-05
-5.51806e-14
2e-05
-6.25931e-14
2e-05
-7.04614e-14
2e-05
-7.88124e-14
2e-05
-8.76741e-14
2e-05
-9.70758e-14
2e-05
-1.07048e-13
2e-05
-1.17621e-13
2e-05
-1.28828e-13
2e-05
-1.40703e-13
2e-05
-1.53279e-13
2e-05
-1.66591e-13
2e-05
-1.80677e-13
2e-05
-1.95574e-13
2e-05
-2.11318e-13
2e-05
-2.27951e-13
2e-05
-2.45513e-13
2e-05
-2.64044e-13
2e-05
-2.83586e-13
2e-05
-3.04184e-13
2e-05
-3.25881e-13
2e-05
-3.48722e-13
2e-05
-3.72753e-13
2e-05
-3.98022e-13
2e-05
-4.24575e-13
2e-05
-4.52461e-13
2e-05
-4.81729e-13
2e-05
-5.12429e-13
2e-05
-5.44611e-13
2e-05
-5.78326e-13
2e-05
-6.13626e-13
2e-05
-6.50562e-13
2e-05
-6.89186e-13
2e-05
-7.2955e-13
2e-05
-7.71706e-13
2e-05
-8.15707e-13
2e-05
-8.61604e-13
2e-05
-9.0945e-13
2e-05
-9.59296e-13
2e-05
-1.01119e-12
2e-05
-1.06519e-12
2e-05
-1.12134e-12
2e-05
-1.17968e-12
2e-05
-1.24028e-12
2e-05
-1.30316e-12
2e-05
-1.36838e-12
2e-05
-1.43598e-12
2e-05
-1.506e-12
2e-05
-1.57848e-12
2e-05
-1.65346e-12
2e-05
-1.73097e-12
2e-05
-1.81104e-12
2e-05
-1.89371e-12
2e-05
-1.97899e-12
2e-05
-2.06692e-12
2e-05
-2.15752e-12
2e-05
-2.25079e-12
2e-05
-2.34676e-12
2e-05
-2.44543e-12
2e-05
-2.54682e-12
2e-05
-2.65091e-12
2e-05
-2.75771e-12
2e-05
-2.86722e-12
2e-05
-2.97941e-12
2e-05
-3.09427e-12
2e-05
-3.21178e-12
2e-05
-3.33191e-12
2e-05
-3.45462e-12
2e-05
-3.57987e-12
2e-05
-3.7076e-12
2e-05
-3.83775e-12
2e-05
-3.97024e-12
2e-05
-4.10498e-12
2e-05
-4.24186e-12
2e-05
-4.38073e-12
2e-05
-4.52142e-12
2e-05
-4.6637e-12
2e-05
-4.8073e-12
2e-05
-4.95186e-12
2e-05
-5.0969e-12
2e-05
-5.24181e-12
2e-05
-5.38577e-12
2e-05
-5.52772e-12
2e-05
-5.6662e-12
2e-05
-5.79926e-12
2e-05
-5.92429e-12
2e-05
-6.03773e-12
2e-05
-6.13471e-12
2e-05
-6.20884e-12
-6.2527e-12
2e-05
-1.63552e-15
2e-05
-5.18178e-15
2e-05
-9.04894e-15
2e-05
-1.32426e-14
2e-05
-1.77612e-14
2e-05
-2.26061e-14
2e-05
-2.77836e-14
2e-05
-3.33042e-14
2e-05
-3.91819e-14
2e-05
-4.54339e-14
2e-05
-5.20795e-14
2e-05
-5.91404e-14
2e-05
-6.66398e-14
2e-05
-7.46026e-14
2e-05
-8.30548e-14
2e-05
-9.20238e-14
2e-05
-1.01538e-13
2e-05
-1.11627e-13
2e-05
-1.22322e-13
2e-05
-1.33653e-13
2e-05
-1.45654e-13
2e-05
-1.58358e-13
2e-05
-1.718e-13
2e-05
-1.86014e-13
2e-05
-2.01039e-13
2e-05
-2.1691e-13
2e-05
-2.33666e-13
2e-05
-2.51348e-13
2e-05
-2.69994e-13
2e-05
-2.89647e-13
2e-05
-3.10348e-13
2e-05
-3.3214e-13
2e-05
-3.55068e-13
2e-05
-3.79175e-13
2e-05
-4.04508e-13
2e-05
-4.31112e-13
2e-05
-4.59035e-13
2e-05
-4.88324e-13
2e-05
-5.19027e-13
2e-05
-5.51193e-13
2e-05
-5.8487e-13
2e-05
-6.20109e-13
2e-05
-6.56959e-13
2e-05
-6.9547e-13
2e-05
-7.35692e-13
2e-05
-7.77675e-13
2e-05
-8.2147e-13
2e-05
-8.67126e-13
2e-05
-9.14693e-13
2e-05
-9.64219e-13
2e-05
-1.01575e-12
2e-05
-1.06935e-12
2e-05
-1.12504e-12
2e-05
-1.18289e-12
2e-05
-1.24293e-12
2e-05
-1.30521e-12
2e-05
-1.36977e-12
2e-05
-1.43666e-12
2e-05
-1.5059e-12
2e-05
-1.57755e-12
2e-05
-1.65164e-12
2e-05
-1.72819e-12
2e-05
-1.80725e-12
2e-05
-1.88885e-12
2e-05
-1.973e-12
2e-05
-2.05973e-12
2e-05
-2.14908e-12
2e-05
-2.24105e-12
2e-05
-2.33566e-12
2e-05
-2.43293e-12
2e-05
-2.53287e-12
2e-05
-2.63549e-12
2e-05
-2.74079e-12
2e-05
-2.84877e-12
2e-05
-2.95943e-12
2e-05
-3.07276e-12
2e-05
-3.18876e-12
2e-05
-3.30741e-12
2e-05
-3.42868e-12
2e-05
-3.55255e-12
2e-05
-3.67898e-12
2e-05
-3.80792e-12
2e-05
-3.93931e-12
2e-05
-4.07306e-12
2e-05
-4.20908e-12
2e-05
-4.3472e-12
2e-05
-4.48726e-12
2e-05
-4.62898e-12
2e-05
-4.77205e-12
2e-05
-4.916e-12
2e-05
-5.06023e-12
2e-05
-5.20393e-12
2e-05
-5.34599e-12
2e-05
-5.48491e-12
2e-05
-5.6187e-12
2e-05
-5.74465e-12
2e-05
-5.85909e-12
2e-05
-5.95711e-12
2e-05
-6.03232e-12
-6.07701e-12
2e-05
-1.51677e-15
2e-05
-4.81281e-15
2e-05
-8.41891e-15
2e-05
-1.23433e-14
2e-05
-1.65858e-14
2e-05
-2.1148e-14
2e-05
-2.60358e-14
2e-05
-3.12587e-14
2e-05
-3.68294e-14
2e-05
-4.2763e-14
2e-05
-4.90773e-14
2e-05
-5.57919e-14
2e-05
-6.29282e-14
2e-05
-7.05091e-14
2e-05
-7.85589e-14
2e-05
-8.71032e-14
2e-05
-9.61687e-14
2e-05
-1.05783e-13
2e-05
-1.15975e-13
2e-05
-1.26775e-13
2e-05
-1.38213e-13
2e-05
-1.50322e-13
2e-05
-1.63134e-13
2e-05
-1.76682e-13
2e-05
-1.91002e-13
2e-05
-2.06129e-13
2e-05
-2.22099e-13
2e-05
-2.38951e-13
2e-05
-2.56722e-13
2e-05
-2.75452e-13
2e-05
-2.95181e-13
2e-05
-3.15949e-13
2e-05
-3.37799e-13
2e-05
-3.60773e-13
2e-05
-3.84915e-13
2e-05
-4.10268e-13
2e-05
-4.36878e-13
2e-05
-4.6479e-13
2e-05
-4.94049e-13
2e-05
-5.24702e-13
2e-05
-5.56797e-13
2e-05
-5.90379e-13
2e-05
-6.25498e-13
2e-05
-6.62201e-13
2e-05
-7.00536e-13
2e-05
-7.40551e-13
2e-05
-7.82294e-13
2e-05
-8.25813e-13
2e-05
-8.71156e-13
2e-05
-9.18371e-13
2e-05
-9.67504e-13
2e-05
-1.0186e-12
2e-05
-1.07171e-12
2e-05
-1.12688e-12
2e-05
-1.18414e-12
2e-05
-1.24355e-12
2e-05
-1.30515e-12
2e-05
-1.36898e-12
2e-05
-1.43507e-12
2e-05
-1.50347e-12
2e-05
-1.57421e-12
2e-05
-1.64734e-12
2e-05
-1.72287e-12
2e-05
-1.80086e-12
2e-05
-1.88132e-12
2e-05
-1.96428e-12
2e-05
-2.04978e-12
2e-05
-2.13784e-12
2e-05
-2.22848e-12
2e-05
-2.32172e-12
2e-05
-2.41759e-12
2e-05
-2.5161e-12
2e-05
-2.61727e-12
2e-05
-2.7211e-12
2e-05
-2.82762e-12
2e-05
-2.93683e-12
2e-05
-3.04874e-12
2e-05
-3.16335e-12
2e-05
-3.28067e-12
2e-05
-3.40067e-12
2e-05
-3.52335e-12
2e-05
-3.6487e-12
2e-05
-3.77666e-12
2e-05
-3.90718e-12
2e-05
-4.04019e-12
2e-05
-4.17557e-12
2e-05
-4.31315e-12
2e-05
-4.45271e-12
2e-05
-4.59393e-12
2e-05
-4.73638e-12
2e-05
-4.87946e-12
2e-05
-5.02234e-12
2e-05
-5.1639e-12
2e-05
-5.30262e-12
2e-05
-5.43644e-12
2e-05
-5.56261e-12
2e-05
-5.6774e-12
2e-05
-5.77588e-12
2e-05
-5.8516e-12
-5.89667e-12
2e-05
-1.4053e-15
2e-05
-4.46577e-15
2e-05
-7.82467e-15
2e-05
-1.14923e-14
2e-05
-1.54695e-14
2e-05
-1.97584e-14
2e-05
-2.43646e-14
2e-05
-2.9297e-14
2e-05
-3.4567e-14
2e-05
-4.01884e-14
2e-05
-4.61775e-14
2e-05
-5.25521e-14
2e-05
-5.93319e-14
2e-05
-6.65382e-14
2e-05
-7.41934e-14
2e-05
-8.23215e-14
2e-05
-9.09474e-14
2e-05
-1.00097e-13
2e-05
-1.09798e-13
2e-05
-1.20078e-13
2e-05
-1.30967e-13
2e-05
-1.42494e-13
2e-05
-1.5469e-13
2e-05
-1.67588e-13
2e-05
-1.81221e-13
2e-05
-1.95622e-13
2e-05
-2.10826e-13
2e-05
-2.26868e-13
2e-05
-2.43785e-13
2e-05
-2.61615e-13
2e-05
-2.80396e-13
2e-05
-3.00166e-13
2e-05
-3.20966e-13
2e-05
-3.42835e-13
2e-05
-3.65816e-13
2e-05
-3.89951e-13
2e-05
-4.15281e-13
2e-05
-4.4185e-13
2e-05
-4.69703e-13
2e-05
-4.98883e-13
2e-05
-5.29435e-13
2e-05
-5.61405e-13
2e-05
-5.94837e-13
2e-05
-6.29778e-13
2e-05
-6.66275e-13
2e-05
-7.04372e-13
2e-05
-7.44116e-13
2e-05
-7.85554e-13
2e-05
-8.28731e-13
2e-05
-8.73694e-13
2e-05
-9.20487e-13
2e-05
-9.69156e-13
2e-05
-1.01975e-12
2e-05
-1.0723e-12
2e-05
-1.12686e-12
2e-05
-1.18348e-12
2e-05
-1.24219e-12
2e-05
-1.30303e-12
2e-05
-1.36605e-12
2e-05
-1.43128e-12
2e-05
-1.49877e-12
2e-05
-1.56854e-12
2e-05
-1.64064e-12
2e-05
-1.71511e-12
2e-05
-1.79197e-12
2e-05
-1.87125e-12
2e-05
-1.953e-12
2e-05
-2.03723e-12
2e-05
-2.12398e-12
2e-05
-2.21329e-12
2e-05
-2.30517e-12
2e-05
-2.39965e-12
2e-05
-2.49676e-12
2e-05
-2.59652e-12
2e-05
-2.69896e-12
2e-05
-2.8041e-12
2e-05
-2.91197e-12
2e-05
-3.02258e-12
2e-05
-3.13594e-12
2e-05
-3.25208e-12
2e-05
-3.371e-12
2e-05
-3.4927e-12
2e-05
-3.61715e-12
2e-05
-3.74434e-12
2e-05
-3.87421e-12
2e-05
-4.00665e-12
2e-05
-4.14154e-12
2e-05
-4.27867e-12
2e-05
-4.41772e-12
2e-05
-4.55829e-12
2e-05
-4.69977e-12
2e-05
-4.84133e-12
2e-05
-4.98185e-12
2e-05
-5.11978e-12
2e-05
-5.25304e-12
2e-05
-5.37882e-12
2e-05
-5.49339e-12
2e-05
-5.5918e-12
2e-05
-5.66759e-12
-5.71271e-12
2e-05
-1.30047e-15
2e-05
-4.13886e-15
2e-05
-7.26365e-15
2e-05
-1.06866e-14
2e-05
-1.44096e-14
2e-05
-1.84351e-14
2e-05
-2.27687e-14
2e-05
-2.74186e-14
2e-05
-3.23953e-14
2e-05
-3.77118e-14
2e-05
-4.33826e-14
2e-05
-4.94243e-14
2e-05
-5.58552e-14
2e-05
-6.26947e-14
2e-05
-6.99638e-14
2e-05
-7.76848e-14
2e-05
-8.5881e-14
2e-05
-9.45769e-14
2e-05
-1.03798e-13
2e-05
-1.13571e-13
2e-05
-1.23923e-13
2e-05
-1.34883e-13
2e-05
-1.4648e-13
2e-05
-1.58744e-13
2e-05
-1.71707e-13
2e-05
-1.854e-13
2e-05
-1.99857e-13
2e-05
-2.15111e-13
2e-05
-2.31198e-13
2e-05
-2.48151e-13
2e-05
-2.66009e-13
2e-05
-2.84808e-13
2e-05
-3.04585e-13
2e-05
-3.2538e-13
2e-05
-3.47231e-13
2e-05
-3.70179e-13
2e-05
-3.94265e-13
2e-05
-4.19528e-13
2e-05
-4.46012e-13
2e-05
-4.73759e-13
2e-05
-5.0281e-13
2e-05
-5.33211e-13
2e-05
-5.65003e-13
2e-05
-5.98231e-13
2e-05
-6.32939e-13
2e-05
-6.69171e-13
2e-05
-7.06971e-13
2e-05
-7.46385e-13
2e-05
-7.87455e-13
2e-05
-8.30227e-13
2e-05
-8.74744e-13
2e-05
-9.2105e-13
2e-05
-9.6919e-13
2e-05
-1.01921e-12
2e-05
-1.07114e-12
2e-05
-1.12503e-12
2e-05
-1.18093e-12
2e-05
-1.23887e-12
2e-05
-1.2989e-12
2e-05
-1.36105e-12
2e-05
-1.42536e-12
2e-05
-1.49188e-12
2e-05
-1.56063e-12
2e-05
-1.63167e-12
2e-05
-1.70501e-12
2e-05
-1.78071e-12
2e-05
-1.85879e-12
2e-05
-1.93929e-12
2e-05
-2.02225e-12
2e-05
-2.1077e-12
2e-05
-2.19568e-12
2e-05
-2.28621e-12
2e-05
-2.37934e-12
2e-05
-2.47511e-12
2e-05
-2.57353e-12
2e-05
-2.67466e-12
2e-05
-2.77853e-12
2e-05
-2.88517e-12
2e-05
-2.99461e-12
2e-05
-3.10689e-12
2e-05
-3.22202e-12
2e-05
-3.34003e-12
2e-05
-3.46092e-12
2e-05
-3.58467e-12
2e-05
-3.71126e-12
2e-05
-3.84061e-12
2e-05
-3.9726e-12
2e-05
-4.10703e-12
2e-05
-4.24362e-12
2e-05
-4.38195e-12
2e-05
-4.52144e-12
2e-05
-4.66125e-12
2e-05
-4.80024e-12
2e-05
-4.93686e-12
2e-05
-5.06901e-12
2e-05
-5.19389e-12
2e-05
-5.30774e-12
2e-05
-5.40562e-12
2e-05
-5.48109e-12
-5.52602e-12
2e-05
-1.20177e-15
2e-05
-3.83065e-15
2e-05
-6.73374e-15
2e-05
-9.92394e-15
2e-05
-1.34038e-14
2e-05
-1.71761e-14
2e-05
-2.12464e-14
2e-05
-2.56225e-14
2e-05
-3.03144e-14
2e-05
-3.53337e-14
2e-05
-4.06943e-14
2e-05
-4.64112e-14
2e-05
-5.25012e-14
2e-05
-5.89825e-14
2e-05
-6.58747e-14
2e-05
-7.31983e-14
2e-05
-8.09752e-14
2e-05
-8.92284e-14
2e-05
-9.79817e-14
2e-05
-1.0726e-13
2e-05
-1.1709e-13
2e-05
-1.27497e-13
2e-05
-1.3851e-13
2e-05
-1.50157e-13
2e-05
-1.62468e-13
2e-05
-1.75473e-13
2e-05
-1.89204e-13
2e-05
-2.03692e-13
2e-05
-2.1897e-13
2e-05
-2.35072e-13
2e-05
-2.52033e-13
2e-05
-2.69887e-13
2e-05
-2.88671e-13
2e-05
-3.08421e-13
2e-05
-3.29175e-13
2e-05
-3.50971e-13
2e-05
-3.73846e-13
2e-05
-3.97841e-13
2e-05
-4.22996e-13
2e-05
-4.4935e-13
2e-05
-4.76944e-13
2e-05
-5.0582e-13
2e-05
-5.36019e-13
2e-05
-5.67583e-13
2e-05
-6.00554e-13
2e-05
-6.34974e-13
2e-05
-6.70887e-13
2e-05
-7.08334e-13
2e-05
-7.47358e-13
2e-05
-7.88002e-13
2e-05
-8.30309e-13
2e-05
-8.7432e-13
2e-05
-9.20079e-13
2e-05
-9.67628e-13
2e-05
-1.01701e-12
2e-05
-1.06826e-12
2e-05
-1.12143e-12
2e-05
-1.17655e-12
2e-05
-1.23367e-12
2e-05
-1.29282e-12
2e-05
-1.35405e-12
2e-05
-1.41739e-12
2e-05
-1.48289e-12
2e-05
-1.55059e-12
2e-05
-1.62052e-12
2e-05
-1.69272e-12
2e-05
-1.76723e-12
2e-05
-1.84409e-12
2e-05
-1.92335e-12
2e-05
-2.00503e-12
2e-05
-2.08919e-12
2e-05
-2.17587e-12
2e-05
-2.2651e-12
2e-05
-2.35693e-12
2e-05
-2.45142e-12
2e-05
-2.54859e-12
2e-05
-2.64851e-12
2e-05
-2.75121e-12
2e-05
-2.85675e-12
2e-05
-2.96517e-12
2e-05
-3.0765e-12
2e-05
-3.19079e-12
2e-05
-3.30805e-12
2e-05
-3.42829e-12
2e-05
-3.55148e-12
2e-05
-3.67758e-12
2e-05
-3.80647e-12
2e-05
-3.93798e-12
2e-05
-4.07183e-12
2e-05
-4.20761e-12
2e-05
-4.34475e-12
2e-05
-4.4824e-12
2e-05
-4.61944e-12
2e-05
-4.7543e-12
2e-05
-4.88489e-12
2e-05
-5.00839e-12
2e-05
-5.12108e-12
2e-05
-5.21804e-12
2e-05
-5.29288e-12
-5.33741e-12
2e-05
-1.10879e-15
2e-05
-3.53997e-15
2e-05
-6.23315e-15
2e-05
-9.20204e-15
2e-05
-1.24497e-14
2e-05
-1.59792e-14
2e-05
-1.9796e-14
2e-05
-2.39077e-14
2e-05
-2.83235e-14
2e-05
-3.30546e-14
2e-05
-3.81134e-14
2e-05
-4.35141e-14
2e-05
-4.92722e-14
2e-05
-5.54046e-14
2e-05
-6.19295e-14
2e-05
-6.88659e-14
2e-05
-7.62345e-14
2e-05
-8.40565e-14
2e-05
-9.23545e-14
2e-05
-1.01152e-13
2e-05
-1.10473e-13
2e-05
-1.20343e-13
2e-05
-1.30789e-13
2e-05
-1.41836e-13
2e-05
-1.53514e-13
2e-05
-1.65851e-13
2e-05
-1.78876e-13
2e-05
-1.92619e-13
2e-05
-2.07113e-13
2e-05
-2.22388e-13
2e-05
-2.38478e-13
2e-05
-2.55416e-13
2e-05
-2.73236e-13
2e-05
-2.91972e-13
2e-05
-3.11661e-13
2e-05
-3.32338e-13
2e-05
-3.5404e-13
2e-05
-3.76805e-13
2e-05
-4.0067e-13
2e-05
-4.25673e-13
2e-05
-4.51854e-13
2e-05
-4.79251e-13
2e-05
-5.07904e-13
2e-05
-5.37854e-13
2e-05
-5.69141e-13
2e-05
-6.01804e-13
2e-05
-6.35885e-13
2e-05
-6.71425e-13
2e-05
-7.08465e-13
2e-05
-7.47045e-13
2e-05
-7.87208e-13
2e-05
-8.28994e-13
2e-05
-8.72443e-13
2e-05
-9.17599e-13
2e-05
-9.645e-13
2e-05
-1.01319e-12
2e-05