/*--------------------------------*- C++ -*----------------------------------*\
  =========                 |
  \\      /  F ield         | OpenFOAM: The Open Source CFD Toolbox
   \\    /   O peration     | Website:  https://openfoam.org
    \\  /    A nd           | Version:  11
     \\/     M anipulation  |
\*---------------------------------------------------------------------------*/
FoamFile
{
    format      ascii;
    class       volVectorField;
    location    "366";
    object      U;
}
// * * * * * * * * * * * * * * * * * * * * * * * * * * * * * * * * * * * * * //

dimensions      [0 1 -1 0 0 0 0];

internalField   nonuniform List<vector> 
10000
(
(0.00499991 -2.9502e-06 0)
(0.00499953 -8.582e-06 0)
(0.00499902 -1.42024e-05 0)
(0.00499839 -1.99334e-05 0)
(0.00499764 -2.58395e-05 0)
(0.00499677 -3.19638e-05 0)
(0.00499577 -3.83398e-05 0)
(0.00499465 -4.49953e-05 0)
(0.00499339 -5.19548e-05 0)
(0.00499198 -5.92406e-05 0)
(0.00499041 -6.68738e-05 0)
(0.00498869 -7.48747e-05 0)
(0.00498679 -8.32629e-05 0)
(0.0049847 -9.20579e-05 0)
(0.00498243 -0.000101279 0)
(0.00497995 -0.000110944 0)
(0.00497725 -0.000121073 0)
(0.00497432 -0.000131684 0)
(0.00497115 -0.000142795 0)
(0.00496773 -0.000154426 0)
(0.00496404 -0.000166595 0)
(0.00496006 -0.000179319 0)
(0.00495579 -0.000192616 0)
(0.0049512 -0.000206505 0)
(0.00494628 -0.000221003 0)
(0.00494102 -0.000236125 0)
(0.00493539 -0.000251888 0)
(0.00492939 -0.000268308 0)
(0.00492298 -0.000285399 0)
(0.00491615 -0.000303175 0)
(0.00490889 -0.000321648 0)
(0.00490117 -0.000340828 0)
(0.00489297 -0.000360725 0)
(0.00488428 -0.000381346 0)
(0.00487506 -0.000402697 0)
(0.00486531 -0.00042478 0)
(0.00485499 -0.000447596 0)
(0.0048441 -0.000471141 0)
(0.0048326 -0.000495408 0)
(0.00482047 -0.000520387 0)
(0.00480769 -0.000546064 0)
(0.00479425 -0.000572416 0)
(0.00478012 -0.00059942 0)
(0.00476528 -0.000627044 0)
(0.00474971 -0.000655248 0)
(0.0047334 -0.000683989 0)
(0.00471633 -0.000713211 0)
(0.00469849 -0.000742853 0)
(0.00467986 -0.000772844 0)
(0.00466043 -0.000803102 0)
(0.00464021 -0.000833537 0)
(0.00461919 -0.000864048 0)
(0.00459737 -0.000894522 0)
(0.00457476 -0.000924837 0)
(0.00455137 -0.000954861 0)
(0.00452721 -0.000984452 0)
(0.00450232 -0.00101346 0)
(0.00447673 -0.00104173 0)
(0.00445047 -0.00106909 0)
(0.00442358 -0.00109539 0)
(0.00439612 -0.00112046 0)
(0.00436815 -0.00114413 0)
(0.00433974 -0.00116626 0)
(0.00431096 -0.0011867 0)
(0.00428188 -0.00120532 0)
(0.00425261 -0.001222 0)
(0.00422324 -0.00123666 0)
(0.00419392 -0.00124925 0)
(0.00416476 -0.00125981 0)
(0.00413528 -0.00126832 0)
(0.00410556 -0.00127451 0)
(0.00407576 -0.00127845 0)
(0.00404592 -0.00128018 0)
(0.00401649 -0.00127971 0)
(0.0039879 -0.00127721 0)
(0.00396013 -0.00127278 0)
(0.00393327 -0.00126652 0)
(0.00390739 -0.00125863 0)
(0.0038821 -0.0012493 0)
(0.00385739 -0.00123862 0)
(0.00383337 -0.00122669 0)
(0.00381008 -0.00121362 0)
(0.00378755 -0.00119954 0)
(0.00376583 -0.0011846 0)
(0.00374494 -0.00116892 0)
(0.00372491 -0.00115263 0)
(0.00370576 -0.00113589 0)
(0.00368752 -0.00111882 0)
(0.00367021 -0.00110155 0)
(0.00365387 -0.00108424 0)
(0.00363851 -0.00106703 0)
(0.00362418 -0.00105006 0)
(0.00361092 -0.0010335 0)
(0.00359877 -0.00101754 0)
(0.00358778 -0.00100237 0)
(0.00357802 -0.000988232 0)
(0.0035696 -0.000975403 0)
(0.00356261 -0.000964233 0)
(0.00355703 -0.000955299 0)
(0.00355307 -0.00094997 0)
(0.00499997 -2.70019e-06 0)
(0.00499961 -8.1022e-06 0)
(0.00499912 -1.35749e-05 0)
(0.00499849 -1.91731e-05 0)
(0.00499773 -2.49476e-05 0)
(0.00499686 -3.09367e-05 0)
(0.00499586 -3.71715e-05 0)
(0.00499474 -4.36784e-05 0)
(0.00499347 -5.04807e-05 0)
(0.00499206 -5.76002e-05 0)
(0.0049905 -6.50573e-05 0)
(0.00498877 -7.28715e-05 0)
(0.00498687 -8.10619e-05 0)
(0.00498478 -8.96473e-05 0)
(0.00498251 -9.86461e-05 0)
(0.00498003 -0.000108077 0)
(0.00497733 -0.000117957 0)
(0.0049744 -0.000128306 0)
(0.00497124 -0.00013914 0)
(0.00496781 -0.000150479 0)
(0.00496412 -0.000162339 0)
(0.00496015 -0.000174738 0)
(0.00495588 -0.000187694 0)
(0.00495129 -0.000201223 0)
(0.00494638 -0.000215342 0)
(0.00494112 -0.000230067 0)
(0.0049355 -0.000245414 0)
(0.00492949 -0.000261396 0)
(0.00492309 -0.000278029 0)
(0.00491627 -0.000295325 0)
(0.00490901 -0.000313296 0)
(0.0049013 -0.000331951 0)
(0.00489311 -0.000351301 0)
(0.00488442 -0.000371351 0)
(0.00487522 -0.000392107 0)
(0.00486547 -0.000413572 0)
(0.00485517 -0.000435744 0)
(0.00484428 -0.00045862 0)
(0.00483279 -0.000482195 0)
(0.00482068 -0.000506457 0)
(0.00480792 -0.000531392 0)
(0.00479449 -0.00055698 0)
(0.00478037 -0.000583196 0)
(0.00476555 -0.00061001 0)
(0.00475 -0.000637384 0)
(0.00473371 -0.000665275 0)
(0.00471666 -0.000693631 0)
(0.00469884 -0.000722392 0)
(0.00468024 -0.000751491 0)
(0.00466084 -0.000780849 0)
(0.00464065 -0.000810379 0)
(0.00461966 -0.000839985 0)
(0.00459787 -0.000869559 0)
(0.00457529 -0.000898986 0)
(0.00455193 -0.000928139 0)
(0.00452781 -0.000956882 0)
(0.00450296 -0.000985074 0)
(0.0044774 -0.00101256 0)
(0.00445118 -0.0010392 0)
(0.00442433 -0.00106483 0)
(0.00439691 -0.00108928 0)
(0.00436898 -0.00111242 0)
(0.00434059 -0.00113409 0)
(0.00431183 -0.00115416 0)
(0.00428276 -0.0011725 0)
(0.00425347 -0.00118901 0)
(0.00422401 -0.00120359 0)
(0.00419446 -0.00121615 0)
(0.00416483 -0.00122655 0)
(0.00413507 -0.00123467 0)
(0.00410545 -0.00124063 0)
(0.00407611 -0.00124449 0)
(0.00404713 -0.00124646 0)
(0.00401853 -0.0012467 0)
(0.00399036 -0.00124517 0)
(0.00396268 -0.00124182 0)
(0.00393556 -0.0012367 0)
(0.00390924 -0.00122978 0)
(0.00388368 -0.00122127 0)
(0.00385885 -0.00121138 0)
(0.00383475 -0.00120027 0)
(0.0038114 -0.00118805 0)
(0.00378884 -0.00117487 0)
(0.00376708 -0.00116085 0)
(0.00374615 -0.00114612 0)
(0.00372608 -0.00113082 0)
(0.00370689 -0.00111508 0)
(0.00368861 -0.00109904 0)
(0.00367125 -0.00108284 0)
(0.00365485 -0.00106662 0)
(0.00363943 -0.00105053 0)
(0.00362503 -0.00103472 0)
(0.00361167 -0.00101937 0)
(0.00359941 -0.00100467 0)
(0.00358828 -0.000990826 0)
(0.00357835 -0.000978089 0)
(0.0035697 -0.000966758 0)
(0.00356235 -0.000957202 0)
(0.00355603 -0.000949974 0)
(0.00355079 -0.000946083 0)
(0.00499999 -2.49946e-06 0)
(0.00499969 -7.65817e-06 0)
(0.00499924 -1.29629e-05 0)
(0.00499862 -1.84202e-05 0)
(0.00499787 -2.40608e-05 0)
(0.004997 -2.9915e-05 0)
(0.00499601 -3.60103e-05 0)
(0.00499488 -4.23709e-05 0)
(0.00499361 -4.9019e-05 0)
(0.0049922 -5.59755e-05 0)
(0.00499064 -6.326e-05 0)
(0.00498891 -7.08915e-05 0)
(0.00498701 -7.88884e-05 0)
(0.00498492 -8.72689e-05 0)
(0.00498265 -9.6051e-05 0)
(0.00498017 -0.000105252 0)
(0.00497747 -0.000114891 0)
(0.00497455 -0.000124984 0)
(0.00497138 -0.000135548 0)
(0.00496796 -0.000146602 0)
(0.00496428 -0.000158162 0)
(0.00496031 -0.000170246 0)
(0.00495604 -0.000182869 0)
(0.00495146 -0.000196048 0)
(0.00494655 -0.0002098 0)
(0.0049413 -0.00022414 0)
(0.00493569 -0.000239082 0)
(0.00492969 -0.000254641 0)
(0.0049233 -0.00027083 0)
(0.00491649 -0.000287662 0)
(0.00490924 -0.000305147 0)
(0.00490154 -0.000323296 0)
(0.00489337 -0.000342117 0)
(0.0048847 -0.000361616 0)
(0.00487551 -0.000381798 0)
(0.00486578 -0.000402666 0)
(0.0048555 -0.000424218 0)
(0.00484463 -0.000446451 0)
(0.00483317 -0.00046936 0)
(0.00482108 -0.000492933 0)
(0.00480834 -0.000517155 0)
(0.00479494 -0.000542009 0)
(0.00478086 -0.00056747 0)
(0.00476607 -0.000593507 0)
(0.00475056 -0.000620087 0)
(0.00473431 -0.000647165 0)
(0.00471731 -0.000674692 0)
(0.00469953 -0.000702611 0)
(0.00468098 -0.000730857 0)
(0.00466163 -0.000759355 0)
(0.0046415 -0.000788021 0)
(0.00462057 -0.000816764 0)
(0.00459884 -0.00084548 0)
(0.00457633 -0.00087406 0)
(0.00455304 -0.000902381 0)
(0.004529 -0.000930316 0)
(0.00450423 -0.000957729 0)
(0.00447875 -0.000984478 0)
(0.00445261 -0.00101041 0)
(0.00442585 -0.00103539 0)
(0.00439851 -0.00105926 0)
(0.00437066 -0.00108187 0)
(0.00434235 -0.00110309 0)
(0.00431365 -0.00112278 0)
(0.00428463 -0.00114082 0)
(0.00425536 -0.00115711 0)
(0.00422591 -0.00117153 0)
(0.00419632 -0.001184 0)
(0.0041667 -0.00119443 0)
(0.00413711 -0.0012028 0)
(0.00410769 -0.00120916 0)
(0.00407852 -0.00121352 0)
(0.00404969 -0.00121596 0)
(0.00402123 -0.00121655 0)
(0.0039932 -0.00121534 0)
(0.00396565 -0.00121238 0)
(0.00393865 -0.00120777 0)
(0.00391228 -0.00120155 0)
(0.0038866 -0.00119382 0)
(0.00386166 -0.00118473 0)
(0.00383747 -0.00117443 0)
(0.00381404 -0.00116305 0)
(0.00379139 -0.00115073 0)
(0.00376955 -0.0011376 0)
(0.00374854 -0.00112378 0)
(0.00372838 -0.00110942 0)
(0.00370909 -0.00109465 0)
(0.0036907 -0.0010796 0)
(0.00367323 -0.00106442 0)
(0.0036567 -0.00104924 0)
(0.00364113 -0.00103423 0)
(0.00362655 -0.00101954 0)
(0.00361299 -0.00100535 0)
(0.00360049 -0.00099184 0)
(0.00358906 -0.00097924 0)
(0.00357875 -0.0009678 0)
(0.00356961 -0.000957814 0)
(0.00356158 -0.000949628 0)
(0.00355414 -0.000943698 0)
(0.00354737 -0.000940698 0)
(0.00499999 -2.36201e-06 0)
(0.00499975 -7.30257e-06 0)
(0.00499933 -1.24367e-05 0)
(0.00499874 -1.77504e-05 0)
(0.00499802 -2.32591e-05 0)
(0.00499716 -2.89844e-05 0)
(0.00499617 -3.49489e-05 0)
(0.00499504 -4.11739e-05 0)
(0.00499378 -4.76801e-05 0)
(0.00499237 -5.44869e-05 0)
(0.0049908 -6.16133e-05 0)
(0.00498908 -6.90775e-05 0)
(0.00498717 -7.68975e-05 0)
(0.00498509 -8.50907e-05 0)
(0.00498282 -9.36747e-05 0)
(0.00498034 -0.000102667 0)
(0.00497764 -0.000112083 0)
(0.00497472 -0.000121942 0)
(0.00497156 -0.00013226 0)
(0.00496814 -0.000143054 0)
(0.00496446 -0.00015434 0)
(0.0049605 -0.000166134 0)
(0.00495624 -0.000178453 0)
(0.00495166 -0.000191313 0)
(0.00494676 -0.000204729 0)
(0.00494152 -0.000218716 0)
(0.00493591 -0.000233289 0)
(0.00492993 -0.00024846 0)
(0.00492355 -0.000264243 0)
(0.00491675 -0.00028065 0)
(0.00490952 -0.000297692 0)
(0.00490184 -0.000315377 0)
(0.00489368 -0.000333714 0)
(0.00488503 -0.000352709 0)
(0.00487586 -0.000372366 0)
(0.00486616 -0.000392688 0)
(0.0048559 -0.000413672 0)
(0.00484507 -0.000435317 0)
(0.00483363 -0.000457616 0)
(0.00482158 -0.000480558 0)
(0.00480888 -0.000504129 0)
(0.00479553 -0.000528311 0)
(0.00478149 -0.00055308 0)
(0.00476675 -0.000578408 0)
(0.00475129 -0.000604259 0)
(0.00473509 -0.000630593 0)
(0.00471815 -0.000657363 0)
(0.00470044 -0.000684512 0)
(0.00468196 -0.000711977 0)
(0.00466269 -0.000739688 0)
(0.00464263 -0.000767564 0)
(0.00462179 -0.000795517 0)
(0.00460015 -0.000823449 0)
(0.00457774 -0.000851253 0)
(0.00455456 -0.000878813 0)
(0.00453063 -0.000906009 0)
(0.00450597 -0.000932708 0)
(0.00448061 -0.000958776 0)
(0.00445459 -0.000984071 0)
(0.00442795 -0.00100845 0)
(0.00440074 -0.00103178 0)
(0.00437301 -0.0010539 0)
(0.00434483 -0.0010747 0)
(0.00431624 -0.00109403 0)
(0.00428733 -0.00111178 0)
(0.00425816 -0.00112784 0)
(0.0042288 -0.0011421 0)
(0.00419931 -0.00115448 0)
(0.0041698 -0.00116491 0)
(0.00414037 -0.00117338 0)
(0.0041111 -0.00117991 0)
(0.00408207 -0.00118454 0)
(0.00405336 -0.00118732 0)
(0.00402502 -0.00118831 0)
(0.00399709 -0.00118757 0)
(0.00396963 -0.00118515 0)
(0.00394268 -0.00118112 0)
(0.00391632 -0.00117555 0)
(0.00389062 -0.00116852 0)
(0.00386561 -0.00116015 0)
(0.00384134 -0.0011506 0)
(0.00381782 -0.00114 0)
(0.00379507 -0.00112847 0)
(0.00377313 -0.00111615 0)
(0.00375201 -0.00110317 0)
(0.00373173 -0.00108967 0)
(0.00371231 -0.00107577 0)
(0.00369376 -0.00106162 0)
(0.00367612 -0.00104735 0)
(0.0036594 -0.00103312 0)
(0.00364361 -0.00101907 0)
(0.00362879 -0.00100537 0)
(0.00361494 -0.000992188 0)
(0.00360209 -0.000979718 0)
(0.00359024 -0.000968175 0)
(0.00357942 -0.0009578 0)
(0.00356963 -0.000948868 0)
(0.00356076 -0.00094168 0)
(0.00355213 -0.000936599 0)
(0.00354394 -0.000934101 0)
(0.00499999 -2.25054e-06 0)
(0.00499978 -6.99052e-06 0)
(0.0049994 -1.19514e-05 0)
(0.00499885 -1.71132e-05 0)
(0.00499815 -2.2482e-05 0)
(0.00499731 -2.80725e-05 0)
(0.00499633 -3.39022e-05 0)
(0.00499522 -3.99892e-05 0)
(0.00499396 -4.63521e-05 0)
(0.00499255 -5.30088e-05 0)
(0.00499099 -5.99772e-05 0)
(0.00498926 -6.72747e-05 0)
(0.00498736 -7.49184e-05 0)
(0.00498528 -8.29254e-05 0)
(0.00498301 -9.13123e-05 0)
(0.00498053 -0.000100096 0)
(0.00497784 -0.000109293 0)
(0.00497492 -0.00011892 0)
(0.00497176 -0.000128992 0)
(0.00496835 -0.000139528 0)
(0.00496467 -0.000150541 0)
(0.00496072 -0.000162049 0)
(0.00495646 -0.000174066 0)
(0.0049519 -0.000186609 0)
(0.00494701 -0.000199691 0)
(0.00494177 -0.000213328 0)
(0.00493618 -0.000227534 0)
(0.00493021 -0.00024232 0)
(0.00492384 -0.000257701 0)
(0.00491706 -0.000273686 0)
(0.00490985 -0.000290287 0)
(0.00490219 -0.000307512 0)
(0.00489405 -0.000325369 0)
(0.00488542 -0.000343864 0)
(0.00487629 -0.000363 0)
(0.00486661 -0.00038278 0)
(0.00485639 -0.000403202 0)
(0.00484559 -0.000424263 0)
(0.00483419 -0.000445957 0)
(0.00482218 -0.000468274 0)
(0.00480953 -0.000491199 0)
(0.00479622 -0.000514715 0)
(0.00478224 -0.000538799 0)
(0.00476756 -0.000563423 0)
(0.00475217 -0.000588553 0)
(0.00473604 -0.000614151 0)
(0.00471918 -0.00064017 0)
(0.00470155 -0.000666556 0)
(0.00468315 -0.00069325 0)
(0.00466398 -0.000720182 0)
(0.00464403 -0.000747277 0)
(0.00462329 -0.000774448 0)
(0.00460178 -0.000801604 0)
(0.00457949 -0.000828641 0)
(0.00455644 -0.000855449 0)
(0.00453265 -0.000881913 0)
(0.00450813 -0.000907906 0)
(0.00448293 -0.000933299 0)
(0.00445706 -0.000957959 0)
(0.00443058 -0.000981749 0)
(0.00440354 -0.00100453 0)
(0.00437597 -0.00102617 0)
(0.00434794 -0.00104654 0)
(0.00431952 -0.00106551 0)
(0.00429076 -0.00108296 0)
(0.00426174 -0.00109879 0)
(0.00423252 -0.0011129 0)
(0.0042032 -0.00112522 0)
(0.00417385 -0.00113567 0)
(0.00414458 -0.00114425 0)
(0.00411546 -0.00115098 0)
(0.00408657 -0.00115587 0)
(0.00405798 -0.00115898 0)
(0.00402973 -0.00116035 0)
(0.00400189 -0.00116004 0)
(0.0039745 -0.00115811 0)
(0.0039476 -0.00115463 0)
(0.00392127 -0.00114966 0)
(0.00389556 -0.00114328 0)
(0.00387051 -0.00113562 0)
(0.00384617 -0.0011268 0)
(0.00382257 -0.00111695 0)
(0.00379972 -0.0011062 0)
(0.00377766 -0.00109468 0)
(0.00375641 -0.00108252 0)
(0.00373598 -0.00106985 0)
(0.00371639 -0.00105681 0)
(0.00369766 -0.00104354 0)
(0.00367981 -0.00103016 0)
(0.00366284 -0.00101684 0)
(0.00364679 -0.00100372 0)
(0.00363165 -0.000990958 0)
(0.00361744 -0.000978731 0)
(0.00360417 -0.000967224 0)
(0.00359182 -0.00095664 0)
(0.0035804 -0.000947206 0)
(0.00356988 -0.000939165 0)
(0.00356013 -0.00093278 0)
(0.00355034 -0.000928361 0)
(0.00354081 -0.000926327 0)
(0.00499999 -2.15297e-06 0)
(0.00499981 -6.70712e-06 0)
(0.00499946 -1.1497e-05 0)
(0.00499894 -1.65023e-05 0)
(0.00499826 -2.17247e-05 0)
(0.00499745 -2.7174e-05 0)
(0.00499649 -3.28633e-05 0)
(0.00499539 -3.8808e-05 0)
(0.00499414 -4.50241e-05 0)
(0.00499274 -5.15279e-05 0)
(0.00499118 -5.83361e-05 0)
(0.00498946 -6.54651e-05 0)
(0.00498757 -7.29311e-05 0)
(0.00498549 -8.07505e-05 0)
(0.00498322 -8.89395e-05 0)
(0.00498075 -9.7514e-05 0)
(0.00497806 -0.00010649 0)
(0.00497515 -0.000115884 0)
(0.00497199 -0.000125711 0)
(0.00496859 -0.000135987 0)
(0.00496491 -0.000146727 0)
(0.00496096 -0.000157947 0)
(0.00495672 -0.000169663 0)
(0.00495216 -0.000181887 0)
(0.00494728 -0.000194636 0)
(0.00494206 -0.000207923 0)
(0.00493648 -0.00022176 0)
(0.00493052 -0.000236162 0)
(0.00492418 -0.000251139 0)
(0.00491742 -0.000266703 0)
(0.00491022 -0.000282863 0)
(0.00490259 -0.000299627 0)
(0.00489448 -0.000317004 0)
(0.00488588 -0.000334999 0)
(0.00487677 -0.000353614 0)
(0.00486714 -0.000372852 0)
(0.00485695 -0.000392712 0)
(0.00484619 -0.00041319 0)
(0.00483484 -0.00043428 0)
(0.00482288 -0.000455972 0)
(0.00481029 -0.000478252 0)
(0.00479704 -0.000501103 0)
(0.00478312 -0.000524503 0)
(0.00476852 -0.000548425 0)
(0.0047532 -0.000572837 0)
(0.00473716 -0.000597701 0)
(0.00472038 -0.000622971 0)
(0.00470286 -0.000648598 0)
(0.00468457 -0.000674523 0)
(0.00466551 -0.00070068 0)
(0.00464568 -0.000726997 0)
(0.00462507 -0.000753391 0)
(0.00460369 -0.000779774 0)
(0.00458155 -0.000806049 0)
(0.00455866 -0.000832109 0)
(0.00453503 -0.000857844 0)
(0.00451069 -0.000883134 0)
(0.00448566 -0.000907856 0)
(0.00445998 -0.000931882 0)
(0.00443369 -0.00095508 0)
(0.00440683 -0.000977321 0)
(0.00437946 -0.000998473 0)
(0.00435162 -0.00101841 0)
(0.00432339 -0.00103701 0)
(0.00429482 -0.00105417 0)
(0.00426599 -0.00106977 0)
(0.00423697 -0.00108373 0)
(0.00420784 -0.00109598 0)
(0.00417868 -0.00110646 0)
(0.00414958 -0.00111515 0)
(0.00412062 -0.00112206 0)
(0.00409187 -0.0011272 0)
(0.00406339 -0.00113063 0)
(0.00403525 -0.00113237 0)
(0.00400749 -0.00113248 0)
(0.00398017 -0.00113101 0)
(0.00395332 -0.00112805 0)
(0.00392702 -0.00112365 0)
(0.0039013 -0.0011179 0)
(0.00387622 -0.00111091 0)
(0.00385183 -0.0011028 0)
(0.00382814 -0.00109369 0)
(0.00380519 -0.0010837 0)
(0.00378301 -0.00107296 0)
(0.00376161 -0.00106161 0)
(0.00374101 -0.00104976 0)
(0.00372123 -0.00103756 0)
(0.00370228 -0.00102514 0)
(0.00368418 -0.00101264 0)
(0.00366694 -0.0010002 0)
(0.00365057 -0.00098797 0)
(0.00363507 -0.000976109 0)
(0.00362045 -0.000964784 0)
(0.00360669 -0.000954172 0)
(0.00359379 -0.000944466 0)
(0.00358172 -0.000935869 0)
(0.00357045 -0.000928599 0)
(0.0035598 -0.000922877 0)
(0.00354894 -0.000918965 0)
(0.00353809 -0.000917376 0)
(0.00499999 -2.066e-06 0)
(0.00499983 -6.4475e-06 0)
(0.0049995 -1.10716e-05 0)
(0.00499901 -1.59201e-05 0)
(0.00499836 -2.09929e-05 0)
(0.00499757 -2.62966e-05 0)
(0.00499663 -3.18414e-05 0)
(0.00499555 -3.764e-05 0)
(0.00499432 -4.37062e-05 0)
(0.00499293 -5.00548e-05 0)
(0.00499138 -5.6701e-05 0)
(0.00498967 -6.366e-05 0)
(0.00498778 -7.09475e-05 0)
(0.00498571 -7.85788e-05 0)
(0.00498345 -8.65693e-05 0)
(0.00498098 -9.49346e-05 0)
(0.0049783 -0.00010369 0)
(0.00497539 -0.000112851 0)
(0.00497224 -0.000122432 0)
(0.00496884 -0.00013245 0)
(0.00496518 -0.000142918 0)
(0.00496124 -0.000153852 0)
(0.004957 -0.000165265 0)
(0.00495246 -0.000177173 0)
(0.00494759 -0.000189589 0)
(0.00494238 -0.000202527 0)
(0.00493682 -0.000215999 0)
(0.00493088 -0.000230017 0)
(0.00492455 -0.000244592 0)
(0.00491781 -0.000259736 0)
(0.00491065 -0.000275457 0)
(0.00490304 -0.000291764 0)
(0.00489496 -0.000308663 0)
(0.00488639 -0.00032616 0)
(0.00487732 -0.000344258 0)
(0.00486773 -0.000362957 0)
(0.00485759 -0.000382258 0)
(0.00484688 -0.000402157 0)
(0.00483558 -0.000422647 0)
(0.00482368 -0.000443719 0)
(0.00481115 -0.000465359 0)
(0.00479797 -0.000487551 0)
(0.00478413 -0.000510272 0)
(0.00476961 -0.000533499 0)
(0.00475438 -0.000557198 0)
(0.00473844 -0.000581334 0)
(0.00472176 -0.000605863 0)
(0.00470435 -0.000630738 0)
(0.00468618 -0.000655902 0)
(0.00466725 -0.000681293 0)
(0.00464756 -0.00070684 0)
(0.0046271 -0.000732466 0)
(0.00460588 -0.000758085 0)
(0.00458391 -0.000783605 0)
(0.00456119 -0.000808925 0)
(0.00453774 -0.00083394 0)
(0.00451359 -0.000858534 0)
(0.00448876 -0.000882591 0)
(0.00446329 -0.000905987 0)
(0.00443721 -0.000928599 0)
(0.00441057 -0.000950299 0)
(0.00438342 -0.000970964 0)
(0.0043558 -0.000990473 0)
(0.00432779 -0.00100871 0)
(0.00429944 -0.00102556 0)
(0.00427083 -0.00104094 0)
(0.00424202 -0.00105475 0)
(0.0042131 -0.00106692 0)
(0.00418414 -0.00107741 0)
(0.00415523 -0.0010862 0)
(0.00412644 -0.00109327 0)
(0.00409784 -0.00109865 0)
(0.0040695 -0.00110237 0)
(0.00404146 -0.00110445 0)
(0.00401379 -0.00110496 0)
(0.00398653 -0.00110395 0)
(0.00395974 -0.00110148 0)
(0.00393346 -0.00109763 0)
(0.00390774 -0.00109249 0)
(0.00388264 -0.00108614 0)
(0.00385819 -0.00107872 0)
(0.00383442 -0.00107032 0)
(0.00381136 -0.00106107 0)
(0.00378905 -0.00105109 0)
(0.00376749 -0.00104052 0)
(0.0037467 -0.00102947 0)
(0.00372671 -0.00101809 0)
(0.00370752 -0.00100649 0)
(0.00368915 -0.000994826 0)
(0.0036716 -0.00098323 0)
(0.00365487 -0.00097185 0)
(0.00363898 -0.000960839 0)
(0.0036239 -0.000950357 0)
(0.00360963 -0.000940572 0)
(0.00359614 -0.000931661 0)
(0.00358339 -0.00092381 0)
(0.00357136 -0.000917207 0)
(0.00355985 -0.000912043 0)
(0.00354802 -0.000908525 0)
(0.00353589 -0.000907235 0)
(0.00499999 -1.98688e-06 0)
(0.00499984 -6.20703e-06 0)
(0.00499954 -1.06716e-05 0)
(0.00499907 -1.53652e-05 0)
(0.00499845 -2.02873e-05 0)
(0.00499768 -2.54429e-05 0)
(0.00499677 -3.08401e-05 0)
(0.0049957 -3.64895e-05 0)
(0.00499448 -4.24031e-05 0)
(0.00499311 -4.85942e-05 0)
(0.00499158 -5.50766e-05 0)
(0.00498988 -6.18644e-05 0)
(0.004988 -6.89723e-05 0)
(0.00498594 -7.64149e-05 0)
(0.00498368 -8.42068e-05 0)
(0.00498122 -9.23628e-05 0)
(0.00497855 -0.000100898 0)
(0.00497565 -0.000109826 0)
(0.00497251 -0.000119163 0)
(0.00496912 -0.000128923 0)
(0.00496546 -0.000139119 0)
(0.00496153 -0.000149768 0)
(0.00495731 -0.000160881 0)
(0.00495278 -0.000172474 0)
(0.00494792 -0.000184559 0)
(0.00494273 -0.000197149 0)
(0.00493719 -0.000210257 0)
(0.00493127 -0.000223893 0)
(0.00492497 -0.00023807 0)
(0.00491825 -0.000252797 0)
(0.00491112 -0.000268082 0)
(0.00490354 -0.000283934 0)
(0.00489549 -0.000300359 0)
(0.00488697 -0.000317362 0)
(0.00487794 -0.000334945 0)
(0.00486839 -0.000353111 0)
(0.0048583 -0.000371858 0)
(0.00484764 -0.000391182 0)
(0.00483641 -0.000411077 0)
(0.00482457 -0.000431534 0)
(0.00481211 -0.00045254 0)
(0.00479901 -0.000474079 0)
(0.00478526 -0.000496129 0)
(0.00477082 -0.000518667 0)
(0.00475569 -0.000541661 0)
(0.00473986 -0.000565078 0)
(0.0047233 -0.000588875 0)
(0.00470601 -0.000613006 0)
(0.00468797 -0.000637419 0)
(0.00466919 -0.000662052 0)
(0.00464965 -0.000686839 0)
(0.00462935 -0.000711707 0)
(0.00460831 -0.000736572 0)
(0.00458652 -0.000761348 0)
(0.00456399 -0.000785938 0)
(0.00454075 -0.00081024 0)
(0.00451681 -0.000834147 0)
(0.0044922 -0.000857546 0)
(0.00446696 -0.00088032 0)
(0.00444111 -0.000902349 0)
(0.0044147 -0.000923514 0)
(0.00438779 -0.000943695 0)
(0.00436041 -0.000962775 0)
(0.00433264 -0.000980643 0)
(0.00430454 -0.000997196 0)
(0.00427616 -0.00101234 0)
(0.00424759 -0.00102599 0)
(0.00421889 -0.00103809 0)
(0.00419015 -0.00104858 0)
(0.00416144 -0.00105744 0)
(0.00413283 -0.00106466 0)
(0.00410438 -0.00107025 0)
(0.00407617 -0.00107423 0)
(0.00404825 -0.00107665 0)
(0.00402067 -0.00107754 0)
(0.00399349 -0.00107695 0)
(0.00396674 -0.00107497 0)
(0.00394049 -0.00107164 0)
(0.00391478 -0.00106707 0)
(0.00388966 -0.00106135 0)
(0.00386515 -0.00105457 0)
(0.0038413 -0.00104685 0)
(0.00381813 -0.00103832 0)
(0.00379568 -0.00102908 0)
(0.00377395 -0.00101926 0)
(0.00375297 -0.00100898 0)
(0.00373275 -0.000998376 0)
(0.0037133 -0.000987575 0)
(0.00369463 -0.000976711 0)
(0.00367675 -0.00096592 0)
(0.00365965 -0.000955345 0)
(0.00364333 -0.000945132 0)
(0.00362778 -0.000935433 0)
(0.00361297 -0.000926408 0)
(0.00359887 -0.000918218 0)
(0.00358544 -0.000911033 0)
(0.00357266 -0.000905017 0)
(0.00356031 -0.000900333 0)
(0.0035476 -0.000897155 0)
(0.00353427 -0.000896033 0)
(0.00499999 -1.91352e-06 0)
(0.00499985 -5.98173e-06 0)
(0.00499956 -1.0293e-05 0)
(0.00499912 -1.48346e-05 0)
(0.00499852 -1.96065e-05 0)
(0.00499778 -2.46128e-05 0)
(0.00499689 -2.98604e-05 0)
(0.00499584 -3.53583e-05 0)
(0.00499464 -4.11171e-05 0)
(0.00499329 -4.71485e-05 0)
(0.00499177 -5.34653e-05 0)
(0.00499008 -6.00806e-05 0)
(0.00498821 -6.70078e-05 0)
(0.00498616 -7.42608e-05 0)
(0.00498392 -8.18536e-05 0)
(0.00498147 -8.98002e-05 0)
(0.0049788 -9.81146e-05 0)
(0.00497591 -0.000106811 0)
(0.00497279 -0.000115904 0)
(0.00496941 -0.000125406 0)
(0.00496577 -0.000135332 0)
(0.00496185 -0.000145696 0)
(0.00495764 -0.000156511 0)
(0.00495312 -0.00016779 0)
(0.00494829 -0.000179546 0)
(0.00494312 -0.00019179 0)
(0.00493759 -0.000204536 0)
(0.0049317 -0.000217794 0)
(0.00492542 -0.000231574 0)
(0.00491873 -0.000245886 0)
(0.00491163 -0.000260739 0)
(0.00490408 -0.000276139 0)
(0.00489608 -0.000292093 0)
(0.00488759 -0.000308606 0)
(0.00487861 -0.00032568 0)
(0.00486911 -0.000343316 0)
(0.00485908 -0.000361513 0)
(0.00484848 -0.000380268 0)
(0.00483731 -0.000399574 0)
(0.00482555 -0.000419422 0)
(0.00481317 -0.000439801 0)
(0.00480015 -0.000460693 0)
(0.00478649 -0.000482079 0)
(0.00477215 -0.000503936 0)
(0.00475714 -0.000526234 0)
(0.00474142 -0.000548939 0)
(0.00472498 -0.000572013 0)
(0.00470783 -0.000595411 0)
(0.00468994 -0.000619082 0)
(0.00467131 -0.000642968 0)
(0.00465194 -0.000667006 0)
(0.00463182 -0.000691124 0)
(0.00461096 -0.000715246 0)
(0.00458936 -0.000739288 0)
(0.00456705 -0.000763157 0)
(0.00454402 -0.000786757 0)
(0.00452031 -0.000809986 0)
(0.00449593 -0.000832734 0)
(0.00447093 -0.000854892 0)
(0.00444533 -0.000876345 0)
(0.00441917 -0.000896978 0)
(0.00439251 -0.000916676 0)
(0.0043654 -0.000935329 0)
(0.00433789 -0.00095283 0)
(0.00431004 -0.00096908 0)
(0.00428191 -0.000983987 0)
(0.00425359 -0.000997475 0)
(0.00422513 -0.00100948 0)
(0.00419661 -0.00101996 0)
(0.0041681 -0.00102887 0)
(0.00413968 -0.00103622 0)
(0.0041114 -0.001042 0)
(0.00408333 -0.00104623 0)
(0.00405553 -0.00104895 0)
(0.00402805 -0.0010502 0)
(0.00400094 -0.00105002 0)
(0.00397426 -0.00104849 0)
(0.00394804 -0.00104567 0)
(0.00392233 -0.00104165 0)
(0.00389718 -0.00103651 0)
(0.00387262 -0.00103036 0)
(0.00384868 -0.0010233 0)
(0.00382541 -0.00101544 0)
(0.00380281 -0.00100691 0)
(0.00378091 -0.000997809 0)
(0.00375972 -0.000988271 0)
(0.00373926 -0.000978418 0)
(0.00371954 -0.000968375 0)
(0.00370057 -0.000958274 0)
(0.00368233 -0.000948246 0)
(0.00366484 -0.00093843 0)
(0.00364808 -0.000928964 0)
(0.00363204 -0.000919993 0)
(0.00361668 -0.000911666 0)
(0.00360197 -0.000904134 0)
(0.00358788 -0.000897546 0)
(0.00357437 -0.000892052 0)
(0.00356122 -0.000887792 0)
(0.00354768 -0.000884919 0)
(0.00353325 -0.000883871 0)
(0.00499999 -1.84458e-06 0)
(0.00499986 -5.76866e-06 0)
(0.00499959 -9.93239e-06 0)
(0.00499916 -1.43255e-05 0)
(0.00499859 -1.89486e-05 0)
(0.00499786 -2.38056e-05 0)
(0.00499699 -2.89025e-05 0)
(0.00499597 -3.42473e-05 0)
(0.00499479 -3.98495e-05 0)
(0.00499345 -4.57196e-05 0)
(0.00499195 -5.18693e-05 0)
(0.00499028 -5.83105e-05 0)
(0.00498843 -6.50561e-05 0)
(0.00498639 -7.21188e-05 0)
(0.00498416 -7.9512e-05 0)
(0.00498172 -8.72488e-05 0)
(0.00497907 -9.53428e-05 0)
(0.00497619 -0.000103807 0)
(0.00497307 -0.000112656 0)
(0.00496971 -0.000121902 0)
(0.00496608 -0.000131559 0)
(0.00496218 -0.00014164 0)
(0.00495799 -0.000152157 0)
(0.00495349 -0.000163124 0)
(0.00494867 -0.000174552 0)
(0.00494352 -0.000186453 0)
(0.00493802 -0.000198839 0)
(0.00493215 -0.00021172 0)
(0.0049259 -0.000225107 0)
(0.00491925 -0.000239007 0)
(0.00491218 -0.00025343 0)
(0.00490467 -0.000268382 0)
(0.00489671 -0.00028387 0)
(0.00488827 -0.000299896 0)
(0.00487934 -0.000316465 0)
(0.00486989 -0.000333576 0)
(0.00485992 -0.000351229 0)
(0.00484939 -0.00036942 0)
(0.00483829 -0.000388143 0)
(0.00482661 -0.000407389 0)
(0.00481431 -0.000427146 0)
(0.00480139 -0.0004474 0)
(0.00478782 -0.00046813 0)
(0.0047736 -0.000489313 0)
(0.00475869 -0.000510923 0)
(0.0047431 -0.000532927 0)
(0.0047268 -0.000555287 0)
(0.00470979 -0.000577961 0)
(0.00469206 -0.0006009 0)
(0.00467359 -0.000624049 0)
(0.0046544 -0.000647348 0)
(0.00463447 -0.000670729 0)
(0.0046138 -0.000694119 0)
(0.00459242 -0.000717436 0)
(0.00457032 -0.000740594 0)
(0.00454752 -0.000763502 0)
(0.00452405 -0.00078606 0)
(0.00449992 -0.000808167 0)
(0.00447517 -0.000829715 0)
(0.00444983 -0.000850597 0)
(0.00442394 -0.000870702 0)
(0.00439755 -0.000889921 0)
(0.0043707 -0.000908148 0)
(0.00434346 -0.000925281 0)
(0.00431588 -0.000941223 0)
(0.00428801 -0.00095589 0)
(0.00425994 -0.000969206 0)
(0.00423173 -0.000981109 0)
(0.00420344 -0.000991553 0)
(0.00417515 -0.00100051 0)
(0.00414692 -0.00100796 0)
(0.00411881 -0.00101391 0)
(0.0040909 -0.00101837 0)
(0.00406322 -0.00102137 0)
(0.00403585 -0.00102295 0)
(0.00400882 -0.00102316 0)
(0.00398219 -0.00102206 0)
(0.003956 -0.00101972 0)
(0.0039303 -0.00101621 0)
(0.00390512 -0.00101163 0)
(0.00388051 -0.00100608 0)
(0.00385649 -0.000999644 0)
(0.0038331 -0.00099244 0)
(0.00381036 -0.000984577 0)
(0.00378828 -0.00097617 0)
(0.00376688 -0.000967338 0)
(0.00374618 -0.0009582 0)
(0.00372618 -0.00094888 0)
(0.00370689 -0.000939502 0)
(0.0036883 -0.000930196 0)
(0.00367041 -0.000921092 0)
(0.0036532 -0.000912325 0)
(0.00363666 -0.00090403 0)
(0.00362075 -0.000896346 0)
(0.00360544 -0.000889413 0)
(0.00359069 -0.000883369 0)
(0.00357648 -0.000878346 0)
(0.00356258 -0.000874468 0)
(0.00354824 -0.000871866 0)
(0.00353282 -0.000870758 0)
(0.00499999 -1.77913e-06 0)
(0.00499987 -5.5656e-06 0)
(0.0049996 -9.58706e-06 0)
(0.00499919 -1.38352e-05 0)
(0.00499864 -1.83115e-05 0)
(0.00499794 -2.30199e-05 0)
(0.00499709 -2.79659e-05 0)
(0.00499609 -3.31568e-05 0)
(0.00499493 -3.86012e-05 0)
(0.00499361 -4.43088e-05 0)
(0.00499213 -5.02901e-05 0)
(0.00499047 -5.65563e-05 0)
(0.00498863 -6.31192e-05 0)
(0.00498661 -6.9991e-05 0)
(0.00498439 -7.7184e-05 0)
(0.00498197 -8.47109e-05 0)
(0.00497933 -9.25845e-05 0)
(0.00497647 -0.000100818 0)
(0.00497337 -0.000109423 0)
(0.00497002 -0.000118413 0)
(0.00496641 -0.000127802 0)
(0.00496252 -0.0001376 0)
(0.00495835 -0.000147821 0)
(0.00495387 -0.000158477 0)
(0.00494908 -0.00016958 0)
(0.00494395 -0.00018114 0)
(0.00493848 -0.000193168 0)
(0.00493264 -0.000205675 0)
(0.00492642 -0.000218671 0)
(0.0049198 -0.000232163 0)
(0.00491277 -0.000246159 0)
(0.0049053 -0.000260667 0)
(0.00489738 -0.000275692 0)
(0.004889 -0.000291237 0)
(0.00488012 -0.000307304 0)
(0.00487073 -0.000323896 0)
(0.00486082 -0.00034101 0)
(0.00485037 -0.000358643 0)
(0.00483935 -0.000376789 0)
(0.00482774 -0.00039544 0)
(0.00481554 -0.000414584 0)
(0.00480271 -0.000434205 0)
(0.00478925 -0.000454287 0)
(0.00477514 -0.000474807 0)
(0.00476036 -0.000495738 0)
(0.0047449 -0.000517049 0)
(0.00472875 -0.000538705 0)
(0.00471189 -0.000560665 0)
(0.00469432 -0.000582883 0)
(0.00467603 -0.000605306 0)
(0.00465702 -0.000627877 0)
(0.00463728 -0.000650531 0)
(0.00461683 -0.000673199 0)
(0.00459566 -0.000695803 0)
(0.00457379 -0.000718261 0)
(0.00455123 -0.000740485 0)
(0.004528 -0.000762382 0)
(0.00450413 -0.000783854 0)
(0.00447964 -0.0008048 0)
(0.00445457 -0.000825116 0)
(0.00442895 -0.000844698 0)
(0.00440284 -0.00086344 0)
(0.00437627 -0.000881241 0)
(0.0043493 -0.000898004 0)
(0.004322 -0.000913636 0)
(0.0042944 -0.000928056 0)