/*--------------------------------*- C++ -*----------------------------------*\
  =========                 |
  \\      /  F ield         | OpenFOAM: The Open Source CFD Toolbox
   \\    /   O peration     | Website:  https://openfoam.org
    \\  /    A nd           | Version:  11
     \\/     M anipulation  |
\*---------------------------------------------------------------------------*/
FoamFile
{
    format      ascii;
    class       volScalarField;
    location    "296";
    object      k;
}
// * * * * * * * * * * * * * * * * * * * * * * * * * * * * * * * * * * * * * //

dimensions      [0 2 -2 0 0 0 0];

internalField   nonuniform List<scalar> 
10000
(
0.000939681
0.000835695
0.000745846
0.000667965
0.000600243
0.000541171
0.000489482
0.000444116
0.000404177
0.000368911
0.00033768
0.000309942
0.000285235
0.000263168
0.000243405
0.000225658
0.00020968
0.000195257
0.000182207
0.00017037
0.000159608
0.000149801
0.000140844
0.000132646
0.000125127
0.000118218
0.000111855
0.000105985
0.00010056
9.55372e-05
9.08794e-05
8.65533e-05
8.25293e-05
7.87811e-05
7.52856e-05
7.20219e-05
6.89716e-05
6.61183e-05
6.34475e-05
6.09461e-05
5.86027e-05
5.64071e-05
5.43502e-05
5.24241e-05
5.06216e-05
4.89366e-05
4.73635e-05
4.58973e-05
4.45334e-05
4.3268e-05
4.20971e-05
4.10173e-05
4.0025e-05
3.9117e-05
3.82899e-05
3.75402e-05
3.68644e-05
3.62589e-05
3.57199e-05
3.52436e-05
3.4826e-05
3.44634e-05
3.4152e-05
3.3888e-05
3.36675e-05
3.34866e-05
3.33415e-05
3.32287e-05
3.31447e-05
3.30863e-05
3.30505e-05
3.30347e-05
3.30362e-05
3.30525e-05
3.30821e-05
3.31227e-05
3.31725e-05
3.32298e-05
3.32931e-05
3.33612e-05
3.34327e-05
3.35066e-05
3.35818e-05
3.36574e-05
3.37326e-05
3.38067e-05
3.38789e-05
3.39486e-05
3.40153e-05
3.40784e-05
3.41373e-05
3.41918e-05
3.42412e-05
3.42852e-05
3.43235e-05
3.43556e-05
3.43814e-05
3.44006e-05
3.4413e-05
3.44186e-05
0.000939681
0.000835695
0.000745847
0.000667965
0.000600244
0.000541172
0.000489483
0.000444117
0.000404178
0.000368913
0.000337681
0.000309943
0.000285236
0.00026317
0.000243406
0.000225659
0.000209681
0.000195258
0.000182208
0.000170371
0.000159609
0.000149802
0.000140845
0.000132647
0.000125129
0.000118219
0.000111856
0.000105986
0.000100561
9.55384e-05
9.08807e-05
8.65546e-05
8.25306e-05
7.87825e-05
7.5287e-05
7.20234e-05
6.89732e-05
6.612e-05
6.34492e-05
6.09479e-05
5.86046e-05
5.6409e-05
5.43522e-05
5.24262e-05
5.06239e-05
4.89389e-05
4.73659e-05
4.58997e-05
4.45359e-05
4.32705e-05
4.20997e-05
4.10198e-05
4.00276e-05
3.91195e-05
3.82924e-05
3.75426e-05
3.68668e-05
3.62613e-05
3.57223e-05
3.5246e-05
3.48286e-05
3.44661e-05
3.41548e-05
3.38906e-05
3.36699e-05
3.34887e-05
3.33433e-05
3.32301e-05
3.31458e-05
3.30872e-05
3.30513e-05
3.30355e-05
3.30368e-05
3.3053e-05
3.30826e-05
3.31231e-05
3.31728e-05
3.32301e-05
3.32934e-05
3.33614e-05
3.34329e-05
3.35068e-05
3.35819e-05
3.36575e-05
3.37327e-05
3.38068e-05
3.3879e-05
3.39487e-05
3.40153e-05
3.40784e-05
3.41374e-05
3.41918e-05
3.42412e-05
3.42852e-05
3.43235e-05
3.43557e-05
3.43814e-05
3.44006e-05
3.44131e-05
3.44186e-05
0.000939681
0.000835696
0.000745848
0.000667967
0.000600245
0.000541173
0.000489485
0.000444119
0.00040418
0.000368915
0.000337683
0.000309945
0.000285238
0.000263172
0.000243408
0.000225661
0.000209683
0.00019526
0.00018221
0.000170373
0.000159611
0.000149803
0.000140847
0.000132649
0.00012513
0.000118221
0.000111858
0.000105988
0.000100563
9.55405e-05
9.08828e-05
8.65567e-05
8.25328e-05
7.87847e-05
7.52893e-05
7.20257e-05
6.89756e-05
6.61224e-05
6.34517e-05
6.09505e-05
5.86072e-05
5.64117e-05
5.4355e-05
5.2429e-05
5.06267e-05
4.89418e-05
4.73687e-05
4.59026e-05
4.45388e-05
4.32733e-05
4.21024e-05
4.10225e-05
4.00302e-05
3.9122e-05
3.82947e-05
3.75448e-05
3.68689e-05
3.62632e-05
3.5724e-05
3.52476e-05
3.48301e-05
3.44676e-05
3.41561e-05
3.38918e-05
3.36708e-05
3.34894e-05
3.33437e-05
3.32303e-05
3.31458e-05
3.3087e-05
3.3051e-05
3.3035e-05
3.30363e-05
3.30525e-05
3.3082e-05
3.31225e-05
3.31721e-05
3.32294e-05
3.32927e-05
3.33607e-05
3.34322e-05
3.35061e-05
3.35813e-05
3.36569e-05
3.37322e-05
3.38062e-05
3.38785e-05
3.39482e-05
3.40149e-05
3.4078e-05
3.41371e-05
3.41915e-05
3.4241e-05
3.42851e-05
3.43234e-05
3.43556e-05
3.43814e-05
3.44007e-05
3.44132e-05
3.44188e-05
0.000939681
0.000835697
0.000745849
0.000667968
0.000600247
0.000541176
0.000489488
0.000444122
0.000404183
0.000368917
0.000337686
0.000309948
0.000285241
0.000263174
0.000243411
0.000225664
0.000209686
0.000195263
0.000182213
0.000170376
0.000159613
0.000149806
0.00014085
0.000132652
0.000125133
0.000118224
0.000111861
0.000105991
0.000100566
9.55434e-05
9.08858e-05
8.65598e-05
8.25359e-05
7.87879e-05
7.52925e-05
7.2029e-05
6.89789e-05
6.61258e-05
6.34552e-05
6.0954e-05
5.86108e-05
5.64154e-05
5.43587e-05
5.24327e-05
5.06304e-05
4.89455e-05
4.73725e-05
4.59062e-05
4.45424e-05
4.32768e-05
4.21058e-05
4.10257e-05
4.00332e-05
3.91249e-05
3.82973e-05
3.75472e-05
3.68709e-05
3.6265e-05
3.57256e-05
3.5249e-05
3.48312e-05
3.44685e-05
3.41568e-05
3.38922e-05
3.3671e-05
3.34892e-05
3.33433e-05
3.32296e-05
3.31449e-05
3.3086e-05
3.30498e-05
3.30337e-05
3.30349e-05
3.3051e-05
3.30804e-05
3.31209e-05
3.31706e-05
3.32279e-05
3.32912e-05
3.33593e-05
3.34308e-05
3.35047e-05
3.358e-05
3.36557e-05
3.3731e-05
3.38052e-05
3.38775e-05
3.39473e-05
3.40141e-05
3.40773e-05
3.41365e-05
3.4191e-05
3.42406e-05
3.42848e-05
3.43232e-05
3.43555e-05
3.43814e-05
3.44008e-05
3.44133e-05
3.44189e-05
0.000939681
0.000835697
0.00074585
0.00066797
0.00060025
0.000541178
0.000489491
0.000444125
0.000404186
0.000368921
0.00033769
0.000309951
0.000285245
0.000263178
0.000243415
0.000225668
0.000209689
0.000195267
0.000182216
0.000170379
0.000159617
0.00014981
0.000140853
0.000132656
0.000125137
0.000118227
0.000111865
0.000105995
0.00010057
9.55473e-05
9.08897e-05
8.65637e-05
8.25399e-05
7.8792e-05
7.52967e-05
7.20333e-05
6.89833e-05
6.61303e-05
6.34597e-05
6.09586e-05
5.86155e-05
5.64201e-05
5.43635e-05
5.24375e-05
5.06353e-05
4.89503e-05
4.73772e-05
4.59109e-05
4.45469e-05
4.32812e-05
4.211e-05
4.10297e-05
4.00369e-05
3.91283e-05
3.83005e-05
3.755e-05
3.68734e-05
3.6267e-05
3.57273e-05
3.52503e-05
3.48322e-05
3.44691e-05
3.41571e-05
3.38922e-05
3.36706e-05
3.34885e-05
3.33422e-05
3.32283e-05
3.31434e-05
3.30842e-05
3.30479e-05
3.30317e-05
3.30328e-05
3.30488e-05
3.30782e-05
3.31187e-05
3.31684e-05
3.32257e-05
3.32891e-05
3.33572e-05
3.34288e-05
3.35028e-05
3.35782e-05
3.3654e-05
3.37294e-05
3.38037e-05
3.38761e-05
3.39461e-05
3.4013e-05
3.40764e-05
3.41356e-05
3.41903e-05
3.424e-05
3.42843e-05
3.43229e-05
3.43553e-05
3.43814e-05
3.44008e-05
3.44134e-05
3.4419e-05
0.000939682
0.000835698
0.000745851
0.000667972
0.000600252
0.000541181
0.000489494
0.000444128
0.00040419
0.000368925
0.000337694
0.000309955
0.000285249
0.000263182
0.000243419
0.000225672
0.000209694
0.000195271
0.000182221
0.000170384
0.000159621
0.000149814
0.000140858
0.00013266
0.000125141
0.000118232
0.000111869
0.000105999
0.000100574
9.5552e-05
9.08945e-05
8.65686e-05
8.25449e-05
7.87971e-05
7.53019e-05
7.20386e-05
6.89887e-05
6.61358e-05
6.34653e-05
6.09643e-05
5.86213e-05
5.6426e-05
5.43694e-05
5.24434e-05
5.06411e-05
4.89562e-05
4.7383e-05
4.59166e-05
4.45525e-05
4.32866e-05
4.21151e-05
4.10345e-05
4.00414e-05
3.91324e-05
3.83041e-05
3.75532e-05
3.68761e-05
3.62693e-05
3.57291e-05
3.52516e-05
3.4833e-05
3.44695e-05
3.4157e-05
3.38917e-05
3.36697e-05
3.34872e-05
3.33406e-05
3.32264e-05
3.31412e-05
3.30818e-05
3.30453e-05
3.30289e-05
3.30299e-05
3.30459e-05
3.30752e-05
3.31157e-05
3.31654e-05
3.32228e-05
3.32862e-05
3.33544e-05
3.34262e-05
3.35003e-05
3.35758e-05
3.36517e-05
3.37273e-05
3.38017e-05
3.38743e-05
3.39445e-05
3.40116e-05
3.40751e-05
3.41345e-05
3.41894e-05
3.42393e-05
3.42838e-05
3.43225e-05
3.43551e-05
3.43813e-05
3.44008e-05
3.44135e-05
3.44191e-05
0.000939682
0.000835699
0.000745853
0.000667974
0.000600254
0.000541184
0.000489497
0.000444132
0.000404194
0.000368929
0.000337698
0.00030996
0.000285254
0.000263187
0.000243424
0.000225677
0.000209698
0.000195276
0.000182226
0.000170389
0.000159626
0.000149819
0.000140863
0.000132665
0.000125147
0.000118237
0.000111874
0.000106005
0.00010058
9.55576e-05
9.09002e-05
8.65745e-05
8.25509e-05
7.88032e-05
7.53081e-05
7.20449e-05
6.89951e-05
6.61423e-05
6.3472e-05
6.09711e-05
5.86281e-05
5.64329e-05
5.43763e-05
5.24504e-05
5.06481e-05
4.89631e-05
4.73898e-05
4.59232e-05
4.45589e-05
4.32928e-05
4.2121e-05
4.10401e-05
4.00465e-05
3.91371e-05
3.83083e-05
3.75568e-05
3.68792e-05
3.62718e-05
3.5731e-05
3.52529e-05
3.48338e-05
3.44697e-05
3.41567e-05
3.38909e-05
3.36684e-05
3.34855e-05
3.33385e-05
3.32239e-05
3.31383e-05
3.30787e-05
3.3042e-05
3.30255e-05
3.30264e-05
3.30422e-05
3.30716e-05
3.3112e-05
3.31618e-05
3.32192e-05
3.32828e-05
3.33511e-05
3.34229e-05
3.34972e-05
3.35728e-05
3.3649e-05
3.37247e-05
3.37994e-05
3.38722e-05
3.39425e-05
3.40098e-05
3.40736e-05
3.41332e-05
3.41883e-05
3.42384e-05
3.42831e-05
3.4322e-05
3.43548e-05
3.43811e-05
3.44008e-05
3.44135e-05
3.44191e-05
0.000939682
0.000835699
0.000745854
0.000667976
0.000600257
0.000541187
0.0004895
0.000444136
0.000404198
0.000368933
0.000337703
0.000309965
0.000285259
0.000263192
0.000243429
0.000225682
0.000209704
0.000195281
0.000182231
0.000170394
0.000159632
0.000149825
0.000140868
0.000132671
0.000125152
0.000118243
0.000111881
0.000106011
0.000100586
9.5564e-05
9.09067e-05
8.65811e-05
8.25577e-05
7.88101e-05
7.53152e-05
7.20521e-05
6.90025e-05
6.61499e-05
6.34796e-05
6.09788e-05
5.8636e-05
5.64408e-05
5.43843e-05
5.24584e-05
5.06561e-05
4.8971e-05
4.73976e-05
4.59308e-05
4.45663e-05
4.32998e-05
4.21277e-05
4.10464e-05
4.00524e-05
3.91424e-05
3.8313e-05
3.75609e-05
3.68826e-05
3.62746e-05
3.57331e-05
3.52543e-05
3.48345e-05
3.44698e-05
3.41562e-05
3.38898e-05
3.36667e-05
3.34833e-05
3.33358e-05
3.32208e-05
3.31349e-05
3.3075e-05
3.30381e-05
3.30214e-05
3.30222e-05
3.3038e-05
3.30673e-05
3.31077e-05
3.31575e-05
3.3215e-05
3.32786e-05
3.33471e-05
3.34191e-05
3.34935e-05
3.35694e-05
3.36457e-05
3.37217e-05
3.37966e-05
3.38696e-05
3.39402e-05
3.40078e-05
3.40718e-05
3.41317e-05
3.4187e-05
3.42374e-05
3.42823e-05
3.43214e-05
3.43544e-05
3.43809e-05
3.44006e-05
3.44134e-05
3.4419e-05
0.000939682
0.0008357
0.000745855
0.000667977
0.000600259
0.000541189
0.000489504
0.000444139
0.000404202
0.000368938
0.000337708
0.00030997
0.000285264
0.000263198
0.000243435
0.000225688
0.00020971
0.000195287
0.000182237
0.0001704
0.000159638
0.000149831
0.000140875
0.000132677
0.000125159
0.00011825
0.000111887
0.000106018
0.000100593
9.55712e-05
9.09141e-05
8.65886e-05
8.25653e-05
7.88179e-05
7.53232e-05
7.20603e-05
6.90108e-05
6.61583e-05
6.34883e-05
6.09876e-05
5.86448e-05
5.64497e-05
5.43933e-05
5.24674e-05
5.0665e-05
4.89799e-05
4.74063e-05
4.59394e-05
4.45745e-05
4.33078e-05
4.21352e-05
4.10534e-05
4.00589e-05
3.91482e-05
3.83182e-05
3.75654e-05
3.68864e-05
3.62776e-05
3.57353e-05
3.52558e-05
3.48352e-05
3.44698e-05
3.41554e-05
3.38884e-05
3.36647e-05
3.34807e-05
3.33327e-05
3.32173e-05
3.3131e-05
3.30708e-05
3.30336e-05
3.30167e-05
3.30174e-05
3.3033e-05
3.30623e-05
3.31028e-05
3.31526e-05
3.32102e-05
3.32739e-05
3.33425e-05
3.34147e-05
3.34893e-05
3.35654e-05
3.3642e-05
3.37182e-05
3.37933e-05
3.38667e-05
3.39375e-05
3.40054e-05
3.40697e-05
3.41299e-05
3.41855e-05
3.42361e-05
3.42813e-05
3.43207e-05
3.43538e-05
3.43805e-05
3.44004e-05
3.44132e-05
3.44188e-05
0.000939682
0.0008357
0.000745856
0.000667979
0.000600261
0.000541192
0.000489507
0.000444143
0.000404206
0.000368942
0.000337712
0.000309975
0.000285269
0.000263203
0.000243441
0.000225694
0.000209716
0.000195294
0.000182244
0.000170407
0.000159645
0.000149838
0.000140882
0.000132684
0.000125166
0.000118257
0.000111895
0.000106025
0.000100601
9.55791e-05
9.09221e-05
8.65969e-05
8.25738e-05
7.88266e-05
7.5332e-05
7.20693e-05
6.902e-05
6.61677e-05
6.34978e-05
6.09973e-05
5.86546e-05
5.64596e-05
5.44032e-05
5.24774e-05
5.06749e-05
4.89897e-05
4.74159e-05
4.59488e-05
4.45837e-05
4.33165e-05
4.21435e-05
4.10611e-05
4.0066e-05
3.91547e-05
3.8324e-05
3.75704e-05
3.68905e-05
3.62808e-05
3.57377e-05
3.52573e-05
3.48359e-05
3.44696e-05
3.41545e-05
3.38867e-05
3.36624e-05
3.34778e-05
3.33293e-05
3.32133e-05
3.31266e-05
3.3066e-05
3.30285e-05
3.30114e-05
3.3012e-05
3.30275e-05
3.30567e-05
3.30972e-05
3.31471e-05
3.32048e-05
3.32687e-05
3.33374e-05
3.34098e-05
3.34846e-05
3.3561e-05
3.36378e-05
3.37143e-05
3.37897e-05
3.38634e-05
3.39346e-05
3.40027e-05
3.40673e-05
3.41278e-05
3.41838e-05
3.42347e-05
3.42802e-05
3.43198e-05
3.43532e-05
3.438e-05
3.44e-05
3.4413e-05
3.44185e-05
0.000939682
0.000835701
0.000745857
0.00066798
0.000600263
0.000541195
0.00048951
0.000444146
0.00040421
0.000368947
0.000337717
0.00030998
0.000285275
0.000263209
0.000243446
0.0002257
0.000209722
0.0001953
0.00018225
0.000170413
0.000159652
0.000149845
0.000140889
0.000132692
0.000125174
0.000118265
0.000111903
0.000106034
0.000100609
9.55877e-05
9.09309e-05
8.66059e-05
8.2583e-05
7.8836e-05
7.53417e-05
7.20792e-05
6.90301e-05
6.6178e-05
6.35082e-05
6.10079e-05
5.86654e-05
5.64704e-05
5.44141e-05
5.24882e-05
5.06858e-05
4.90004e-05
4.74265e-05
4.5959e-05
4.45936e-05
4.3326e-05
4.21525e-05
4.10696e-05
4.00737e-05
3.91617e-05
3.83302e-05
3.75757e-05
3.6895e-05
3.62844e-05
3.57403e-05
3.5259e-05
3.48367e-05
3.44695e-05
3.41535e-05
3.38849e-05
3.36598e-05
3.34745e-05
3.33254e-05
3.32089e-05
3.31218e-05
3.30608e-05
3.3023e-05
3.30056e-05
3.3006e-05
3.30214e-05
3.30506e-05
3.30911e-05
3.3141e-05
3.31988e-05
3.32628e-05
3.33318e-05
3.34044e-05
3.34795e-05
3.3556e-05
3.36332e-05
3.371e-05
3.37857e-05
3.38597e-05
3.39312e-05
3.39997e-05
3.40647e-05
3.41255e-05
3.41818e-05
3.42331e-05
3.42788e-05
3.43187e-05
3.43523e-05
3.43794e-05
3.43996e-05
3.44126e-05
3.44182e-05
0.000939683
0.000835701
0.000745857
0.000667981
0.000600265
0.000541197
0.000489513
0.00044415
0.000404214
0.000368951
0.000337722
0.000309985
0.00028528
0.000263215
0.000243452
0.000225706
0.000209729
0.000195307
0.000182257
0.000170421
0.000159659
0.000149853
0.000140897
0.0001327
0.000125182
0.000118273
0.000111911
0.000106042
0.000100618
9.55969e-05
9.09404e-05
8.66155e-05
8.25929e-05
7.88462e-05
7.53521e-05
7.20898e-05
6.9041e-05
6.61891e-05
6.35195e-05
6.10193e-05
5.86769e-05
5.64821e-05
5.44258e-05
5.24999e-05
5.06974e-05
4.90119e-05
4.74378e-05
4.59701e-05
4.46043e-05
4.33362e-05
4.21622e-05
4.10786e-05
4.00821e-05
3.91692e-05
3.83368e-05
3.75815e-05
3.68997e-05
3.62881e-05
3.57431e-05
3.52607e-05
3.48374e-05
3.44693e-05
3.41524e-05
3.38829e-05
3.3657e-05
3.3471e-05
3.33212e-05
3.32042e-05
3.31165e-05
3.30551e-05
3.3017e-05
3.29993e-05
3.29995e-05
3.30148e-05
3.30439e-05
3.30844e-05
3.31344e-05
3.31923e-05
3.32565e-05
3.33256e-05
3.33984e-05
3.34738e-05
3.35507e-05
3.36281e-05
3.37053e-05
3.37813e-05
3.38557e-05
3.39276e-05
3.39965e-05
3.40618e-05
3.4123e-05
3.41796e-05
3.42312e-05
3.42773e-05
3.43175e-05
3.43514e-05
3.43786e-05
3.43989e-05
3.44121e-05
3.44177e-05
0.000939683
0.000835702
0.000745858
0.000667983
0.000600266
0.000541199
0.000489515
0.000444153
0.000404218
0.000368955
0.000337726
0.00030999
0.000285286
0.00026322
0.000243458
0.000225712
0.000209735
0.000195314
0.000182264
0.000170428
0.000159667
0.00014986
0.000140905
0.000132708
0.00012519
0.000118282
0.00011192
0.000106052
0.000100628
9.56066e-05
9.09504e-05
8.66258e-05
8.26034e-05
7.8857e-05
7.53631e-05
7.21012e-05
6.90525e-05
6.62009e-05
6.35315e-05
6.10315e-05
5.86893e-05
5.64946e-05
5.44383e-05
5.25124e-05
5.07098e-05
4.90242e-05
4.74499e-05
4.59819e-05
4.46156e-05
4.33471e-05
4.21725e-05
4.10882e-05
4.00909e-05
3.91772e-05
3.83439e-05
3.75876e-05
3.69048e-05
3.62922e-05
3.5746e-05
3.52626e-05
3.48383e-05
3.44691e-05
3.41512e-05
3.38808e-05
3.36541e-05
3.34673e-05
3.33168e-05
3.31991e-05
3.31109e-05
3.3049e-05
3.30105e-05
3.29926e-05
3.29926e-05
3.30078e-05
3.30368e-05
3.30773e-05
3.31274e-05
3.31853e-05
3.32497e-05
3.3319e-05
3.33921e-05
3.34677e-05
3.35449e-05
3.36227e-05
3.37002e-05
3.37766e-05
3.38513e-05
3.39236e-05
3.39929e-05
3.40586e-05
3.41202e-05
3.41772e-05
3.42292e-05
3.42756e-05
3.43161e-05
3.43502e-05
3.43777e-05
3.43982e-05
3.44114e-05
3.4417e-05
0.000939683
0.000835702
0.000745859
0.000667984
0.000600268
0.000541201
0.000489518
0.000444156
0.000404221
0.000368959
0.000337731
0.000309995
0.000285291
0.000263226
0.000243464
0.000225719
0.000209742
0.000195321
0.000182272
0.000170435
0.000159674
0.000149868
0.000140913
0.000132717
0.000125199
0.000118291
0.00011193
0.000106061
0.000100638
9.56169e-05
9.09609e-05
8.66366e-05
8.26146e-05
7.88684e-05
7.53749e-05
7.21131e-05
6.90648e-05
6.62134e-05
6.35442e-05
6.10444e-05
5.87023e-05
5.65077e-05
5.44515e-05
5.25257e-05
5.0723e-05
4.90372e-05
4.74626e-05
4.59943e-05
4.46277e-05
4.33586e-05
4.21834e-05
4.10984e-05
4.01003e-05
3.91857e-05
3.83514e-05
3.7594e-05
3.69102e-05
3.62964e-05
3.57491e-05
3.52646e-05
3.48391e-05
3.44689e-05
3.415e-05
3.38786e-05
3.36509e-05
3.34633e-05
3.33121e-05
3.31937e-05
3.31049e-05
3.30426e-05
3.30037e-05
3.29855e-05
3.29853e-05
3.30003e-05
3.30293e-05
3.30697e-05
3.31199e-05
3.31779e-05
3.32425e-05
3.3312e-05
3.33853e-05
3.34612e-05
3.35387e-05
3.36168e-05
3.36947e-05
3.37715e-05
3.38466e-05
3.39193e-05
3.3989e-05
3.40552e-05
3.41172e-05
3.41746e-05
3.42269e-05
3.42736e-05
3.43144e-05
3.43489e-05
3.43766e-05
3.43972e-05
3.44106e-05
3.44163e-05
0.000939683
0.000835702
0.00074586
0.000667985
0.000600269
0.000541203
0.00048952
0.000444159
0.000404225
0.000368963
0.000337735
0.00031
0.000285296
0.000263232
0.00024347
0.000225725
0.000209748
0.000195328
0.000182279
0.000170443
0.000159682
0.000149877
0.000140922
0.000132725
0.000125208
0.0001183
0.000111939
0.000106071
0.000100648
9.56276e-05
9.09719e-05
8.6648e-05
8.26262e-05
7.88804e-05
7.53871e-05
7.21257e-05
6.90776e-05
6.62265e-05
6.35576e-05
6.1058e-05
5.8716e-05
5.65216e-05
5.44654e-05
5.25395e-05
5.07368e-05
4.90508e-05
4.7476e-05
4.60073e-05
4.46403e-05
4.33707e-05
4.21948e-05
4.11091e-05
4.01101e-05
3.91946e-05
3.83593e-05
3.76008e-05
3.69158e-05
3.63009e-05
3.57524e-05
3.52667e-05
3.48401e-05
3.44687e-05
3.41487e-05
3.38763e-05
3.36477e-05
3.34592e-05
3.33071e-05
3.31881e-05
3.30987e-05
3.30359e-05
3.29966e-05
3.2978e-05
3.29776e-05
3.29924e-05
3.30213e-05
3.30618e-05
3.3112e-05
3.31702e-05
3.32348e-05
3.33046e-05
3.33782e-05
3.34544e-05
3.35322e-05
3.36107e-05
3.36889e-05
3.37662e-05
3.38417e-05
3.39148e-05
3.39849e-05
3.40515e-05
3.41139e-05
3.41717e-05
3.42244e-05
3.42715e-05
3.43126e-05
3.43473e-05
3.43753e-05
3.43961e-05
3.44096e-05
3.44153e-05
0.000939683
0.000835703
0.00074586
0.000667986
0.000600271
0.000541205
0.000489523
0.000444162
0.000404228
0.000368967
0.000337739
0.000310004
0.000285301
0.000263237
0.000243476
0.000225731
0.000209755
0.000195335
0.000182286
0.000170451
0.00015969
0.000149885
0.00014093
0.000132734
0.000125218
0.00011831
0.000111949
0.000106082
0.000100659
9.56386e-05
9.09833e-05
8.66597e-05
8.26383e-05
7.88928e-05
7.53999e-05
7.21388e-05
6.9091e-05
6.62401e-05
6.35715e-05
6.10721e-05
5.87303e-05
5.6536e-05
5.44799e-05
5.2554e-05
5.07512e-05
4.9065e-05
4.749e-05
4.60209e-05
4.46534e-05
4.33832e-05
4.22067e-05
4.11202e-05
4.01203e-05
3.92038e-05
3.83675e-05
3.76079e-05
3.69217e-05
3.63056e-05
3.57559e-05
3.52689e-05
3.48411e-05
3.44685e-05
3.41474e-05
3.38739e-05
3.36443e-05
3.34549e-05
3.33021e-05
3.31823e-05
3.30923e-05
3.30289e-05
3.29892e-05
3.29703e-05
3.29696e-05
3.29842e-05
3.3013e-05
3.30535e-05
3.31037e-05
3.3162e-05
3.32269e-05
3.32968e-05
3.33707e-05
3.34472e-05
3.35253e-05
3.36042e-05
3.36828e-05
3.37605e-05
3.38364e-05
3.391e-05
3.39805e-05
3.40475e-05
3.41104e-05
3.41686e-05
3.42217e-05
3.42691e-05
3.43106e-05
3.43456e-05
3.43738e-05
3.43948e-05
3.44084e-05
3.44142e-05
0.000939683
0.000835703
0.000745861
0.000667987
0.000600272
0.000541206
0.000489525
0.000444164
0.000404231
0.00036897
0.000337743
0.000310009
0.000285306
0.000263242
0.000243482
0.000225738
0.000209762
0.000195342
0.000182294
0.000170459
0.000159699
0.000149894
0.000140939
0.000132744
0.000125227
0.00011832
0.00011196
0.000106092
0.00010067
9.565e-05
9.09951e-05
8.66718e-05
8.26508e-05
7.89056e-05
7.54131e-05
7.21523e-05
6.91048e-05
6.62542e-05
6.35859e-05
6.10867e-05
5.87451e-05
5.65509e-05
5.44948e-05
5.25689e-05
5.0766e-05
4.90797e-05
4.75044e-05
4.6035e-05
4.4667e-05
4.33962e-05
4.2219e-05
4.11316e-05
4.01309e-05
3.92134e-05
3.8376e-05
3.76152e-05
3.69279e-05
3.63105e-05
3.57595e-05
3.52713e-05
3.48422e-05
3.44684e-05
3.41461e-05
3.38715e-05
3.36409e-05
3.34505e-05
3.32968e-05
3.31763e-05
3.30857e-05
3.30217e-05
3.29815e-05
3.29623e-05
3.29613e-05
3.29758e-05
3.30045e-05
3.30449e-05
3.30951e-05
3.31536e-05
3.32186e-05
3.32888e-05
3.33629e-05
3.34397e-05
3.35182e-05
3.35974e-05
3.36764e-05
3.37545e-05
3.38309e-05
3.39049e-05
3.39759e-05
3.40433e-05
3.41066e-05
3.41652e-05
3.42187e-05
3.42666e-05
3.43084e-05
3.43437e-05
3.43721e-05
3.43933e-05
3.4407e-05
3.44129e-05
0.000939683
0.000835703
0.000745861
0.000667987
0.000600273
0.000541208
0.000489527
0.000444167
0.000404234
0.000368974
0.000337747
0.000310013
0.000285311
0.000263248
0.000243488
0.000225744
0.000209768
0.000195349
0.000182301
0.000170466
0.000159707
0.000149902
0.000140948
0.000132753
0.000125237
0.00011833
0.00011197
0.000106103
0.000100681
9.56617e-05
9.10071e-05
8.66843e-05
8.26636e-05
7.89188e-05
7.54266e-05
7.21662e-05
6.91191e-05
6.62688e-05
6.36007e-05
6.11017e-05
5.87603e-05
5.65662e-05
5.45102e-05
5.25843e-05
5.07813e-05
4.90948e-05
4.75192e-05
4.60494e-05
4.46809e-05
4.34096e-05
4.22316e-05
4.11435e-05
4.01418e-05
3.92233e-05
3.83847e-05
3.76228e-05
3.69342e-05
3.63155e-05
3.57632e-05
3.52737e-05
3.48433e-05
3.44683e-05
3.41448e-05
3.38691e-05
3.36374e-05
3.34461e-05
3.32915e-05
3.31702e-05
3.30789e-05
3.30144e-05
3.29737e-05
3.2954e-05
3.29528e-05
3.29671e-05
3.29956e-05
3.3036e-05
3.30863e-05
3.31448e-05
3.321e-05
3.32804e-05
3.33548e-05
3.34319e-05
3.35108e-05
3.35904e-05
3.36698e-05
3.37483e-05
3.38251e-05
3.38996e-05
3.3971e-05
3.40389e-05
3.41026e-05
3.41617e-05
3.42156e-05
3.42638e-05
3.43059e-05
3.43415e-05
3.43702e-05
3.43917e-05
3.44055e-05
3.44114e-05
0.000939683
0.000835704
0.000745862
0.000667988
0.000600274
0.00054121
0.000489529
0.000444169
0.000404237
0.000368977
0.000337751
0.000310017
0.000285316
0.000263253
0.000243493
0.00022575
0.000209775
0.000195355
0.000182308
0.000170474
0.000159715
0.000149911
0.000140957
0.000132762
0.000125247
0.00011834
0.000111981
0.000106114
0.000100693
9.56735e-05
9.10194e-05
8.66969e-05
8.26767e-05
7.89323e-05
7.54404e-05
7.21804e-05
6.91336e-05
6.62836e-05
6.36158e-05
6.1117e-05
5.87758e-05
5.65819e-05
5.4526e-05
5.26001e-05
5.0797e-05
4.91103e-05
4.75344e-05
4.60642e-05
4.46952e-05
4.34232e-05
4.22445e-05
4.11556e-05
4.01529e-05
3.92334e-05
3.83937e-05
3.76306e-05
3.69407e-05
3.63207e-05
3.57671e-05
3.52763e-05
3.48446e-05
3.44683e-05
3.41436e-05
3.38667e-05
3.36339e-05
3.34416e-05
3.32861e-05
3.3164e-05
3.3072e-05
3.30069e-05
3.29657e-05
3.29456e-05
3.29442e-05
3.29581e-05
3.29866e-05
3.30269e-05
3.30773e-05
3.31359e-05
3.32012e-05
3.32718e-05
3.33465e-05
3.34239e-05
3.35031e-05
3.35831e-05
3.36629e-05
3.37419e-05
3.38191e-05
3.3894e-05
3.39659e-05
3.40343e-05
3.40985e-05
3.41579e-05
3.42122e-05
3.42608e-05
3.43033e-05
3.43392e-05
3.43681e-05
3.43898e-05
3.44038e-05
3.44097e-05
0.000939683
0.000835704
0.000745862
0.000667989
0.000600275
0.000541211
0.00048953
0.000444171
0.000404239
0.00036898
0.000337754
0.000310021
0.00028532
0.000263258
0.000243499
0.000225756
0.000209781
0.000195362
0.000182316
0.000170482
0.000159723
0.000149919
0.000140966
0.000132772
0.000125257
0.00011835
0.000111991
0.000106125
0.000100704
9.56855e-05
9.10318e-05
8.67098e-05
8.26899e-05
7.89459e-05
7.54545e-05
7.21948e-05
6.91484e-05
6.62987e-05
6.36312e-05
6.11327e-05
5.87917e-05
5.65978e-05
5.4542e-05
5.26161e-05
5.08129e-05
4.9126e-05
4.75498e-05
4.60792e-05
4.47097e-05
4.34371e-05
4.22577e-05
4.11679e-05
4.01643e-05
3.92437e-05
3.84028e-05
3.76385e-05
3.69473e-05
3.6326e-05
3.57711e-05
3.52789e-05
3.48459e-05
3.44683e-05
3.41423e-05
3.38643e-05
3.36304e-05
3.34371e-05
3.32807e-05
3.31577e-05
3.3065e-05
3.29993e-05
3.29576e-05
3.29371e-05
3.29353e-05
3.29491e-05
3.29774e-05
3.30177e-05
3.3068e-05
3.31267e-05
3.31922e-05
3.32631e-05
3.3338e-05
3.34157e-05
3.34953e-05
3.35756e-05
3.36559e-05
3.37352e-05
3.38129e-05
3.38883e-05
3.39607e-05
3.40295e-05
3.40941e-05
3.4154e-05
3.42087e-05
3.42577e-05
3.43005e-05
3.43367e-05
3.43659e-05
3.43877e-05
3.44018e-05
3.44078e-05
0.000939683
0.000835704
0.000745863
0.00066799
0.000600276
0.000541212
0.000489532
0.000444173
0.000404242
0.000368983
0.000337758
0.000310025
0.000285324
0.000263263
0.000243504
0.000225761
0.000209787
0.000195369
0.000182323
0.000170489
0.000159731
0.000149928
0.000140975
0.000132781
0.000125266
0.000118361
0.000112002
0.000106137
0.000100716
9.56976e-05
9.10443e-05
8.67227e-05
8.27033e-05
7.89597e-05
7.54687e-05
7.22094e-05
6.91633e-05
6.6314e-05
6.36467e-05
6.11485e-05
5.88077e-05
5.6614e-05
5.45582e-05
5.26323e-05
5.0829e-05
4.91419e-05
4.75654e-05
4.60945e-05
4.47244e-05
4.34512e-05
4.2271e-05
4.11804e-05
4.01758e-05
3.92541e-05
3.84121e-05
3.76465e-05
3.69541e-05
3.63315e-05
3.57752e-05
3.52816e-05
3.48473e-05
3.44683e-05
3.41411e-05
3.38619e-05
3.36269e-05
3.34325e-05
3.32752e-05
3.31514e-05
3.30579e-05
3.29916e-05
3.29494e-05
3.29285e-05
3.29264e-05
3.29399e-05
3.29681e-05
3.30083e-05
3.30586e-05
3.31174e-05
3.31831e-05
3.32541e-05
3.33293e-05
3.34074e-05
3.34873e-05
3.3568e-05
3.36487e-05
3.37284e-05
3.38066e-05
3.38824e-05
3.39552e-05
3.40245e-05
3.40895e-05
3.41499e-05
3.4205e-05
3.42544e-05
3.42975e-05
3.4334e-05
3.43634e-05
3.43855e-05
3.43997e-05
3.44058e-05
0.000939683
0.000835704
0.000745863
0.00066799
0.000600277
0.000541214
0.000489534
0.000444175
0.000404244
0.000368986
0.000337761
0.000310029
0.000285329
0.000263267
0.000243509
0.000225767
0.000209793
0.000195376
0.00018233
0.000170497
0.000159739
0.000149936
0.000140984
0.00013279
0.000125276
0.000118371
0.000112013
0.000106148
0.000100727
9.57097e-05
9.10569e-05
8.67358e-05
8.27168e-05
7.89736e-05
7.5483e-05
7.22241e-05
6.91784e-05
6.63294e-05
6.36624e-05
6.11644e-05
5.88238e-05
5.66302e-05
5.45745e-05
5.26486e-05
5.08452e-05
4.9158e-05
4.75812e-05
4.61098e-05
4.47393e-05
4.34654e-05
4.22845e-05
4.11929e-05
4.01874e-05
3.92647e-05
3.84215e-05
3.76547e-05
3.6961e-05
3.6337e-05
3.57793e-05
3.52844e-05
3.48487e-05
3.44685e-05
3.414e-05
3.38595e-05
3.36234e-05
3.3428e-05
3.32697e-05
3.31451e-05
3.30509e-05
3.29839e-05
3.29411e-05
3.29198e-05
3.29174e-05
3.29307e-05
3.29587e-05
3.29988e-05
3.30492e-05
3.3108e-05
3.31738e-05
3.32451e-05
3.33205e-05
3.33989e-05
3.34791e-05
3.35602e-05
3.36413e-05
3.37215e-05
3.38001e-05
3.38763e-05
3.39496e-05
3.40193e-05
3.40848e-05
3.41456e-05
3.42011e-05
3.42509e-05
3.42943e-05
3.43311e-05
3.43608e-05
3.43831e-05
3.43974e-05
3.44036e-05
0.000939683
0.000835704
0.000745863
0.000667991
0.000600278
0.000541215
0.000489535
0.000444177
0.000404247
0.000368989
0.000337764
0.000310033
0.000285333
0.000263272
0.000243514
0.000225773
0.000209799
0.000195382
0.000182337
0.000170504
0.000159747
0.000149944
0.000140993
0.0001328
0.000125286
0.000118381
0.000112024
0.000106159
0.000100739
9.57218e-05
9.10695e-05
8.67488e-05
8.27302e-05
7.89875e-05
7.54973e-05
7.22388e-05
6.91935e-05
6.63448e-05
6.36782e-05
6.11804e-05
5.884e-05
5.66466e-05
5.45909e-05
5.2665e-05
5.08615e-05
4.91741e-05
4.7597e-05
4.61252e-05
4.47542e-05
4.34797e-05
4.2298e-05
4.12056e-05
4.01991e-05
3.92753e-05
3.8431e-05
3.76629e-05
3.69679e-05
3.63426e-05
3.57836e-05
3.52873e-05
3.48502e-05
3.44686e-05
3.41389e-05
3.38572e-05
3.362e-05
3.34235e-05
3.32643e-05
3.31388e-05
3.30438e-05
3.29762e-05
3.29329e-05
3.29111e-05
3.29084e-05
3.29214e-05
3.29492e-05
3.29893e-05
3.30396e-05
3.30986e-05
3.31645e-05
3.3236e-05
3.33116e-05
3.33903e-05
3.34708e-05
3.35523e-05
3.36338e-05
3.37144e-05
3.37934e-05
3.38702e-05
3.39439e-05
3.4014e-05
3.408e-05
3.41412e-05
3.41971e-05
3.42472e-05
3.4291e-05
3.43281e-05
3.43581e-05
3.43805e-05
3.4395e-05
3.44012e-05
0.000939683
0.000835705
0.000745864
0.000667991
0.000600279
0.000541216
0.000489537
0.000444179
0.000404249
0.000368991
0.000337768
0.000310036
0.000285337
0.000263276
0.000243519
0.000225778
0.000209805
0.000195388
0.000182343
0.000170511
0.000159755
0.000149953
0.000141001
0.000132809
0.000125296
0.000118391
0.000112034
0.00010617
0.000100751
9.57339e-05
9.1082e-05
8.67618e-05
8.27437e-05
7.90014e-05
7.55116e-05
7.22535e-05
6.92086e-05
6.63602e-05
6.36939e-05
6.11964e-05
5.88562e-05
5.66629e-05
5.46073e-05
5.26814e-05
5.08778e-05
4.91902e-05
4.76128e-05
4.61406e-05
4.47691e-05
4.34939e-05
4.23115e-05
4.12183e-05
4.02108e-05
3.92859e-05
3.84405e-05
3.76712e-05
3.69749e-05
3.63482e-05
3.57878e-05
3.52902e-05
3.48518e-05
3.44689e-05
3.41379e-05
3.3855e-05
3.36166e-05
3.34191e-05
3.32589e-05
3.31326e-05
3.30368e-05
3.29685e-05
3.29247e-05
3.29024e-05
3.28994e-05
3.29121e-05
3.29397e-05
3.29797e-05
3.30301e-05
3.30891e-05
3.31551e-05
3.32268e-05
3.33027e-05
3.33816e-05
3.34625e-05
3.35444e-05
3.36262e-05
3.37073e-05
3.37867e-05
3.38639e-05
3.3938e-05
3.40086e-05
3.4075e-05
3.41366e-05
3.41929e-05
3.42434e-05
3.42876e-05
3.4325e-05
3.43551e-05
3.43778e-05
3.43924e-05
3.43986e-05
0.000939683
0.000835705
0.000745864
0.000667992
0.00060028
0.000541217
0.000489538
0.000444181
0.000404251
0.000368994
0.00033777
0.00031004
0.000285341
0.000263281
0.000243524
0.000225783
0.000209811
0.000195394
0.00018235
0.000170519
0.000159762
0.000149961
0.00014101
0.000132818
0.000125305
0.000118401
0.000112045
0.000106181
0.000100762
9.57458e-05
9.10944e-05
8.67747e-05
8.2757e-05
7.90152e-05
7.55259e-05
7.22681e-05
6.92236e-05
6.63756e-05
6.37095e-05
6.12123e-05
5.88723e-05
5.66791e-05
5.46236e-05
5.26977e-05
5.0894e-05
4.92062e-05
4.76285e-05
4.6156e-05
4.47839e-05
4.35082e-05
4.2325e-05
4.12309e-05
4.02225e-05
3.92966e-05
3.84499e-05
3.76794e-05
3.69818e-05
3.63539e-05
3.57921e-05
3.52931e-05
3.48534e-05
3.44692e-05
3.41369e-05
3.38528e-05
3.36133e-05
3.34147e-05
3.32535e-05