/*--------------------------------*- C++ -*----------------------------------*\
  =========                 |
  \\      /  F ield         | OpenFOAM: The Open Source CFD Toolbox
   \\    /   O peration     | Website:  https://openfoam.org
    \\  /    A nd           | Version:  11
     \\/     M anipulation  |
\*---------------------------------------------------------------------------*/
FoamFile
{
    format      ascii;
    class       volScalarField;
    location    "482";
    object      k;
}
// * * * * * * * * * * * * * * * * * * * * * * * * * * * * * * * * * * * * * //

dimensions      [0 2 -2 0 0 0 0];

internalField   nonuniform List<scalar> 
10000
(
0.000939686
0.000835715
0.000745885
0.000668026
0.00060033
0.000541285
0.000489628
0.000444294
0.00040439
0.000369161
0.000337969
0.00031027
0.000285605
0.000263581
0.000243861
0.000226159
0.000210227
0.000195851
0.000182848
0.000171059
0.000160346
0.000150588
0.000141681
0.000133533
0.000126065
0.000119205
0.000112892
0.000107072
0.000101695
9.67195e-05
9.21074e-05
8.78249e-05
8.38419e-05
8.01318e-05
7.66703e-05
7.34362e-05
7.041e-05
6.75745e-05
6.4914e-05
6.24144e-05
6.00629e-05
5.78481e-05
5.57594e-05
5.37875e-05
5.19236e-05
5.01599e-05
4.84892e-05
4.69051e-05
4.54016e-05
4.39731e-05
4.26148e-05
4.1322e-05
4.00907e-05
3.89168e-05
3.7797e-05
3.67281e-05
3.5707e-05
3.4731e-05
3.37978e-05
3.2905e-05
3.20506e-05
3.12327e-05
3.04496e-05
2.96997e-05
2.89818e-05
2.82944e-05
2.76365e-05
2.70071e-05
2.64053e-05
2.58303e-05
2.52815e-05
2.47582e-05
2.42599e-05
2.37862e-05
2.33367e-05
2.29109e-05
2.25086e-05
2.21295e-05
2.17731e-05
2.14393e-05
2.11276e-05
2.08377e-05
2.0569e-05
2.03211e-05
2.00934e-05
1.98851e-05
1.96956e-05
1.95242e-05
1.93698e-05
1.92317e-05
1.91089e-05
1.90002e-05
1.89048e-05
1.88216e-05
1.87498e-05
1.86885e-05
1.86372e-05
1.85957e-05
1.85646e-05
1.85457e-05
0.000939686
0.000835716
0.000745885
0.000668026
0.00060033
0.000541285
0.000489628
0.000444294
0.000404391
0.000369162
0.000337969
0.00031027
0.000285605
0.000263581
0.000243862
0.000226159
0.000210227
0.000195851
0.000182848
0.000171059
0.000160346
0.000150588
0.000141681
0.000133534
0.000126065
0.000119205
0.000112893
0.000107072
0.000101695
9.67198e-05
9.21076e-05
8.78251e-05
8.38422e-05
8.0132e-05
7.66706e-05
7.34365e-05
7.04103e-05
6.75748e-05
6.49143e-05
6.24147e-05
6.00632e-05
5.78484e-05
5.57598e-05
5.37878e-05
5.19239e-05
5.01602e-05
4.84896e-05
4.69055e-05
4.5402e-05
4.39735e-05
4.26152e-05
4.13225e-05
4.00911e-05
3.89173e-05
3.77975e-05
3.67286e-05
3.57075e-05
3.47316e-05
3.37983e-05
3.29056e-05
3.20512e-05
3.12333e-05
3.04502e-05
2.97004e-05
2.89824e-05
2.8295e-05
2.76372e-05
2.70078e-05
2.6406e-05
2.5831e-05
2.52822e-05
2.47589e-05
2.42607e-05
2.37869e-05
2.33374e-05
2.29116e-05
2.25093e-05
2.21302e-05
2.17738e-05
2.144e-05
2.11283e-05
2.08383e-05
2.05696e-05
2.03217e-05
2.00939e-05
1.98857e-05
1.96962e-05
1.95247e-05
1.93704e-05
1.92322e-05
1.91093e-05
1.90006e-05
1.89051e-05
1.88218e-05
1.87499e-05
1.86886e-05
1.86373e-05
1.85957e-05
1.85646e-05
1.85456e-05
0.000939686
0.000835716
0.000745886
0.000668026
0.00060033
0.000541286
0.000489628
0.000444295
0.000404391
0.000369162
0.000337969
0.000310271
0.000285606
0.000263581
0.000243862
0.00022616
0.000210227
0.000195851
0.000182849
0.00017106
0.000160346
0.000150589
0.000141682
0.000133534
0.000126066
0.000119206
0.000112893
0.000107072
0.000101696
9.67203e-05
9.21082e-05
8.78257e-05
8.38427e-05
8.01326e-05
7.66712e-05
7.3437e-05
7.04109e-05
6.75754e-05
6.49149e-05
6.24153e-05
6.00638e-05
5.7849e-05
5.57604e-05
5.37885e-05
5.19246e-05
5.01609e-05
4.84903e-05
4.69062e-05
4.54027e-05
4.39743e-05
4.2616e-05
4.13232e-05
4.00919e-05
3.89181e-05
3.77983e-05
3.67294e-05
3.57083e-05
3.47324e-05
3.37992e-05
3.29065e-05
3.20521e-05
3.12342e-05
3.04512e-05
2.97013e-05
2.89834e-05
2.8296e-05
2.76382e-05
2.70088e-05
2.6407e-05
2.58321e-05
2.52832e-05
2.47599e-05
2.42617e-05
2.3788e-05
2.33384e-05
2.29126e-05
2.25103e-05
2.21311e-05
2.17747e-05
2.14409e-05
2.11291e-05
2.08391e-05
2.05703e-05
2.03223e-05
2.00945e-05
1.98862e-05
1.96967e-05
1.95252e-05
1.93708e-05
1.92326e-05
1.91096e-05
1.90008e-05
1.89053e-05
1.88219e-05
1.875e-05
1.86886e-05
1.86373e-05
1.85957e-05
1.85646e-05
1.85456e-05
0.000939686
0.000835716
0.000745886
0.000668027
0.00060033
0.000541286
0.000489629
0.000444295
0.000404391
0.000369162
0.00033797
0.000310271
0.000285606
0.000263582
0.000243863
0.00022616
0.000210228
0.000195852
0.000182849
0.00017106
0.000160347
0.000150589
0.000141682
0.000133535
0.000126066
0.000119207
0.000112894
0.000107073
0.000101696
9.6721e-05
9.21089e-05
8.78264e-05
8.38435e-05
8.01334e-05
7.6672e-05
7.34379e-05
7.04117e-05
6.75762e-05
6.49157e-05
6.24162e-05
6.00647e-05
5.78499e-05
5.57613e-05
5.37894e-05
5.19256e-05
5.01619e-05
4.84913e-05
4.69072e-05
4.54037e-05
4.39753e-05
4.26171e-05
4.13244e-05
4.00931e-05
3.89193e-05
3.77995e-05
3.67306e-05
3.57096e-05
3.47337e-05
3.38005e-05
3.29078e-05
3.20534e-05
3.12356e-05
3.04525e-05
2.97027e-05
2.89848e-05
2.82974e-05
2.76396e-05
2.70102e-05
2.64084e-05
2.58335e-05
2.52846e-05
2.47613e-05
2.42631e-05
2.37893e-05
2.33397e-05
2.29139e-05
2.25115e-05
2.21323e-05
2.17759e-05
2.14419e-05
2.11301e-05
2.084e-05
2.05712e-05
2.03232e-05
2.00953e-05
1.98869e-05
1.96973e-05
1.95257e-05
1.93713e-05
1.9233e-05
1.91099e-05
1.90011e-05
1.89054e-05
1.88221e-05
1.87501e-05
1.86887e-05
1.86373e-05
1.85957e-05
1.85646e-05
1.85456e-05
0.000939686
0.000835716
0.000745886
0.000668027
0.000600331
0.000541287
0.000489629
0.000444296
0.000404392
0.000369163
0.00033797
0.000310272
0.000285607
0.000263583
0.000243863
0.000226161
0.000210229
0.000195853
0.00018285
0.000171061
0.000160348
0.00015059
0.000141683
0.000133536
0.000126067
0.000119208
0.000112895
0.000107074
0.000101697
9.67219e-05
9.21099e-05
8.78274e-05
8.38445e-05
8.01344e-05
7.6673e-05
7.34389e-05
7.04128e-05
6.75773e-05
6.49169e-05
6.24173e-05
6.00659e-05
5.78511e-05
5.57626e-05
5.37907e-05
5.19268e-05
5.01632e-05
4.84926e-05
4.69086e-05
4.54051e-05
4.39768e-05
4.26185e-05
4.13259e-05
4.00946e-05
3.89208e-05
3.78011e-05
3.67322e-05
3.57112e-05
3.47354e-05
3.38022e-05
3.29095e-05
3.20552e-05
3.12373e-05
3.04543e-05
2.97045e-05
2.89866e-05
2.82993e-05
2.76414e-05
2.70121e-05
2.64103e-05
2.58353e-05
2.52865e-05
2.47631e-05
2.42648e-05
2.3791e-05
2.33414e-05
2.29155e-05
2.25131e-05
2.21338e-05
2.17773e-05
2.14433e-05
2.11314e-05
2.08412e-05
2.05723e-05
2.03241e-05
2.00962e-05
1.98877e-05
1.9698e-05
1.95263e-05
1.93718e-05
1.92334e-05
1.91102e-05
1.90013e-05
1.89056e-05
1.88222e-05
1.87501e-05
1.86887e-05
1.86372e-05
1.85957e-05
1.85645e-05
1.85455e-05
0.000939686
0.000835716
0.000745886
0.000668027
0.000600331
0.000541287
0.00048963
0.000444296
0.000404393
0.000369164
0.000337971
0.000310273
0.000285608
0.000263584
0.000243864
0.000226162
0.000210229
0.000195854
0.000182851
0.000171062
0.000160349
0.000150591
0.000141684
0.000133537
0.000126068
0.000119209
0.000112896
0.000107075
0.000101698
9.67231e-05
9.21111e-05
8.78286e-05
8.38457e-05
8.01356e-05
7.66743e-05
7.34402e-05
7.04141e-05
6.75787e-05
6.49182e-05
6.24187e-05
6.00673e-05
5.78526e-05
5.57641e-05
5.37922e-05
5.19284e-05
5.01648e-05
4.84943e-05
4.69103e-05
4.54068e-05
4.39785e-05
4.26203e-05
4.13277e-05
4.00964e-05
3.89227e-05
3.7803e-05
3.67342e-05
3.57132e-05
3.47374e-05
3.38043e-05
3.29116e-05
3.20573e-05
3.12395e-05
3.04565e-05
2.97067e-05
2.89888e-05
2.83015e-05
2.76437e-05
2.70143e-05
2.64125e-05
2.58375e-05
2.52887e-05
2.47653e-05
2.4267e-05
2.37931e-05
2.33435e-05
2.29175e-05
2.2515e-05
2.21356e-05
2.17791e-05
2.14449e-05
2.11329e-05
2.08426e-05
2.05736e-05
2.03253e-05
2.00972e-05
1.98886e-05
1.96988e-05
1.9527e-05
1.93723e-05
1.92338e-05
1.91106e-05
1.90016e-05
1.89058e-05
1.88223e-05
1.87501e-05
1.86886e-05
1.86372e-05
1.85956e-05
1.85644e-05
1.85454e-05
0.000939687
0.000835716
0.000745886
0.000668028
0.000600332
0.000541288
0.00048963
0.000444297
0.000404393
0.000369165
0.000337972
0.000310274
0.000285609
0.000263585
0.000243865
0.000226163
0.000210231
0.000195855
0.000182852
0.000171063
0.00016035
0.000150592
0.000141685
0.000133538
0.00012607
0.00011921
0.000112897
0.000107076
0.0001017
9.67245e-05
9.21124e-05
8.783e-05
8.38472e-05
8.01371e-05
7.66758e-05
7.34417e-05
7.04157e-05
6.75803e-05
6.49199e-05
6.24204e-05
6.0069e-05
5.78543e-05
5.57658e-05
5.3794e-05
5.19302e-05
5.01667e-05
4.84962e-05
4.69122e-05
4.54088e-05
4.39805e-05
4.26224e-05
4.13298e-05
4.00986e-05
3.89249e-05
3.78053e-05
3.67365e-05
3.57155e-05
3.47398e-05
3.38067e-05
3.29141e-05
3.20598e-05
3.1242e-05
3.0459e-05
2.97093e-05
2.89914e-05
2.83041e-05
2.76463e-05
2.70169e-05
2.64151e-05
2.58401e-05
2.52913e-05
2.47679e-05
2.42695e-05
2.37956e-05
2.33458e-05
2.29198e-05
2.25172e-05
2.21378e-05
2.17811e-05
2.14468e-05
2.11347e-05
2.08442e-05
2.0575e-05
2.03266e-05
2.00983e-05
1.98896e-05
1.96997e-05
1.95277e-05
1.93729e-05
1.92343e-05
1.91109e-05
1.90018e-05
1.89059e-05
1.88223e-05
1.87501e-05
1.86886e-05
1.86371e-05
1.85955e-05
1.85643e-05
1.85452e-05
0.000939687
0.000835716
0.000745887
0.000668028
0.000600332
0.000541288
0.000489631
0.000444298
0.000404394
0.000369165
0.000337973
0.000310275
0.00028561
0.000263586
0.000243866
0.000226164
0.000210232
0.000195856
0.000182853
0.000171065
0.000160351
0.000150594
0.000141687
0.000133539
0.000126071
0.000119211
0.000112898
0.000107078
0.000101701
9.6726e-05
9.2114e-05
8.78316e-05
8.38488e-05
8.01388e-05
7.66775e-05
7.34435e-05
7.04175e-05
6.75821e-05
6.49217e-05
6.24223e-05
6.0071e-05
5.78563e-05
5.57678e-05
5.37961e-05
5.19323e-05
5.01688e-05
4.84984e-05
4.69145e-05
4.54111e-05
4.39829e-05
4.26248e-05
4.13322e-05
4.01011e-05
3.89274e-05
3.78079e-05
3.67391e-05
3.57182e-05
3.47425e-05
3.38095e-05
3.29169e-05
3.20626e-05
3.12449e-05
3.0462e-05
2.97123e-05
2.89944e-05
2.83071e-05
2.76493e-05
2.70199e-05
2.64181e-05
2.58431e-05
2.52942e-05
2.47708e-05
2.42723e-05
2.37984e-05
2.33486e-05
2.29225e-05
2.25198e-05
2.21402e-05
2.17833e-05
2.14489e-05
2.11366e-05
2.0846e-05
2.05767e-05
2.0328e-05
2.00996e-05
1.98907e-05
1.97006e-05
1.95285e-05
1.93735e-05
1.92348e-05
1.91112e-05
1.9002e-05
1.8906e-05
1.88223e-05
1.875e-05
1.86884e-05
1.86369e-05
1.85953e-05
1.8564e-05
1.85449e-05
0.000939687
0.000835716
0.000745887
0.000668028
0.000600332
0.000541289
0.000489631
0.000444298
0.000404395
0.000369166
0.000337974
0.000310276
0.000285611
0.000263587
0.000243868
0.000226165
0.000210233
0.000195857
0.000182855
0.000171066
0.000160353
0.000150595
0.000141688
0.000133541
0.000126072
0.000119213
0.0001129
0.00010708
0.000101703
9.67277e-05
9.21157e-05
8.78334e-05
8.38506e-05
8.01406e-05
7.66794e-05
7.34454e-05
7.04194e-05
6.75841e-05
6.49238e-05
6.24244e-05
6.00731e-05
5.78585e-05
5.57701e-05
5.37983e-05
5.19347e-05
5.01712e-05
4.85008e-05
4.6917e-05
4.54137e-05
4.39855e-05
4.26274e-05
4.13349e-05
4.01038e-05
3.89303e-05
3.78108e-05
3.67421e-05
3.57212e-05
3.47455e-05
3.38126e-05
3.292e-05
3.20658e-05
3.12481e-05
3.04652e-05
2.97155e-05
2.89977e-05
2.83104e-05
2.76526e-05
2.70233e-05
2.64215e-05
2.58464e-05
2.52975e-05
2.4774e-05
2.42755e-05
2.38015e-05
2.33516e-05
2.29254e-05
2.25225e-05
2.21428e-05
2.17858e-05
2.14513e-05
2.11388e-05
2.0848e-05
2.05784e-05
2.03296e-05
2.0101e-05
1.98919e-05
1.97016e-05
1.95293e-05
1.93741e-05
1.92352e-05
1.91116e-05
1.90022e-05
1.89061e-05
1.88223e-05
1.87499e-05
1.86882e-05
1.86367e-05
1.8595e-05
1.85637e-05
1.85445e-05
0.000939687
0.000835716
0.000745887
0.000668028
0.000600333
0.000541289
0.000489632
0.000444299
0.000404396
0.000369167
0.000337975
0.000310277
0.000285612
0.000263588
0.000243869
0.000226167
0.000210234
0.000195859
0.000182856
0.000171067
0.000160354
0.000150597
0.00014169
0.000133542
0.000126074
0.000119215
0.000112902
0.000107081
0.000101705
9.67296e-05
9.21176e-05
8.78353e-05
8.38526e-05
8.01426e-05
7.66814e-05
7.34475e-05
7.04216e-05
6.75863e-05
6.4926e-05
6.24266e-05
6.00755e-05
5.78609e-05
5.57725e-05
5.38009e-05
5.19372e-05
5.01739e-05
4.85035e-05
4.69197e-05
4.54165e-05
4.39883e-05
4.26304e-05
4.13379e-05
4.01069e-05
3.89334e-05
3.78139e-05
3.67453e-05
3.57245e-05
3.47489e-05
3.3816e-05
3.29235e-05
3.20693e-05
3.12517e-05
3.04688e-05
2.97192e-05
2.90014e-05
2.83141e-05
2.76563e-05
2.7027e-05
2.64251e-05
2.58501e-05
2.53011e-05
2.47776e-05
2.4279e-05
2.38049e-05
2.33549e-05
2.29285e-05
2.25256e-05
2.21457e-05
2.17885e-05
2.14538e-05
2.11411e-05
2.08501e-05
2.05804e-05
2.03314e-05
2.01025e-05
1.98932e-05
1.97026e-05
1.95301e-05
1.93748e-05
1.92357e-05
1.91119e-05
1.90023e-05
1.89061e-05
1.88222e-05
1.87497e-05
1.8688e-05
1.86363e-05
1.85946e-05
1.85632e-05
1.8544e-05
0.000939687
0.000835717
0.000745887
0.000668029
0.000600333
0.00054129
0.000489633
0.0004443
0.000404397
0.000369168
0.000337976
0.000310278
0.000285613
0.000263589
0.00024387
0.000226168
0.000210236
0.00019586
0.000182858
0.000171069
0.000160356
0.000150598
0.000141692
0.000133544
0.000126076
0.000119216
0.000112904
0.000107083
0.000101707
9.67315e-05
9.21197e-05
8.78374e-05
8.38547e-05
8.01448e-05
7.66836e-05
7.34498e-05
7.04239e-05
6.75887e-05
6.49284e-05
6.24291e-05
6.0078e-05
5.78635e-05
5.57752e-05
5.38036e-05
5.194e-05
5.01767e-05
4.85064e-05
4.69227e-05
4.54195e-05
4.39914e-05
4.26335e-05
4.13412e-05
4.01102e-05
3.89368e-05
3.78174e-05
3.67488e-05
3.57281e-05
3.47525e-05
3.38197e-05
3.29272e-05
3.20731e-05
3.12555e-05
3.04727e-05
2.97231e-05
2.90053e-05
2.83181e-05
2.76603e-05
2.70309e-05
2.64291e-05
2.5854e-05
2.5305e-05
2.47814e-05
2.42828e-05
2.38086e-05
2.33584e-05
2.2932e-05
2.25289e-05
2.21488e-05
2.17915e-05
2.14565e-05
2.11437e-05
2.08524e-05
2.05824e-05
2.03332e-05
2.01041e-05
1.98945e-05
1.97038e-05
1.9531e-05
1.93755e-05
1.92362e-05
1.91121e-05
1.90024e-05
1.8906e-05
1.8822e-05
1.87494e-05
1.86876e-05
1.86359e-05
1.85941e-05
1.85627e-05
1.85435e-05
0.000939687
0.000835717
0.000745887
0.000668029
0.000600333
0.00054129
0.000489633
0.0004443
0.000404397
0.000369169
0.000337977
0.000310279
0.000285614
0.00026359
0.000243871
0.000226169
0.000210237
0.000195862
0.000182859
0.000171071
0.000160357
0.0001506
0.000141693
0.000133546
0.000126078
0.000119218
0.000112906
0.000107085
0.000101709
9.67336e-05
9.21218e-05
8.78396e-05
8.3857e-05
8.01471e-05
7.6686e-05
7.34522e-05
7.04264e-05
6.75912e-05
6.4931e-05
6.24318e-05
6.00807e-05
5.78663e-05
5.5778e-05
5.38065e-05
5.1943e-05
5.01797e-05
4.85095e-05
4.69258e-05
4.54227e-05
4.39948e-05
4.26369e-05
4.13446e-05
4.01137e-05
3.89404e-05
3.7821e-05
3.67525e-05
3.57319e-05
3.47564e-05
3.38236e-05
3.29312e-05
3.20772e-05
3.12596e-05
3.04769e-05
2.97273e-05
2.90095e-05
2.83223e-05
2.76646e-05
2.70352e-05
2.64333e-05
2.58582e-05
2.53092e-05
2.47855e-05
2.42868e-05
2.38125e-05
2.33622e-05
2.29356e-05
2.25324e-05
2.21521e-05
2.17946e-05
2.14594e-05
2.11463e-05
2.08549e-05
2.05846e-05
2.03351e-05
2.01057e-05
1.98959e-05
1.97049e-05
1.95319e-05
1.93761e-05
1.92366e-05
1.91124e-05
1.90025e-05
1.89059e-05
1.88218e-05
1.87491e-05
1.86871e-05
1.86353e-05
1.85935e-05
1.85621e-05
1.85428e-05
0.000939687
0.000835717
0.000745887
0.000668029
0.000600334
0.00054129
0.000489634
0.000444301
0.000404398
0.00036917
0.000337978
0.00031028
0.000285615
0.000263592
0.000243873
0.000226171
0.000210239
0.000195863
0.000182861
0.000171072
0.000160359
0.000150602
0.000141695
0.000133548
0.00012608
0.00011922
0.000112908
0.000107087
0.000101711
9.67358e-05
9.21241e-05
8.78419e-05
8.38593e-05
8.01495e-05
7.66885e-05
7.34547e-05
7.0429e-05
6.75938e-05
6.49337e-05
6.24346e-05
6.00836e-05
5.78692e-05
5.5781e-05
5.38095e-05
5.19461e-05
5.01829e-05
4.85128e-05
4.69292e-05
4.54262e-05
4.39983e-05
4.26405e-05
4.13483e-05
4.01175e-05
3.89442e-05
3.78249e-05
3.67565e-05
3.57359e-05
3.47605e-05
3.38278e-05
3.29355e-05
3.20815e-05
3.1264e-05
3.04813e-05
2.97318e-05
2.9014e-05
2.83268e-05
2.76691e-05
2.70397e-05
2.64378e-05
2.58627e-05
2.53136e-05
2.47899e-05
2.4291e-05
2.38166e-05
2.33662e-05
2.29395e-05
2.25361e-05
2.21556e-05
2.17979e-05
2.14625e-05
2.11491e-05
2.08574e-05
2.05869e-05
2.03371e-05
2.01075e-05
1.98974e-05
1.97061e-05
1.95329e-05
1.93768e-05
1.92371e-05
1.91126e-05
1.90025e-05
1.89058e-05
1.88215e-05
1.87487e-05
1.86866e-05
1.86347e-05
1.85928e-05
1.85613e-05
1.8542e-05
0.000939687
0.000835717
0.000745888
0.000668029
0.000600334
0.000541291
0.000489634
0.000444302
0.000404399
0.000369171
0.000337979
0.000310281
0.000285616
0.000263593
0.000243874
0.000226172
0.00021024
0.000195865
0.000182862
0.000171074
0.000160361
0.000150604
0.000141697
0.00013355
0.000126082
0.000119222
0.00011291
0.000107089
0.000101713
9.67381e-05
9.21264e-05
8.78443e-05
8.38618e-05
8.01521e-05
7.66911e-05
7.34574e-05
7.04317e-05
6.75966e-05
6.49366e-05
6.24375e-05
6.00865e-05
5.78723e-05
5.57841e-05
5.38127e-05
5.19494e-05
5.01863e-05
4.85162e-05
4.69327e-05
4.54298e-05
4.4002e-05
4.26443e-05
4.13521e-05
4.01214e-05
3.89482e-05
3.7829e-05
3.67607e-05
3.57402e-05
3.47649e-05
3.38322e-05
3.29399e-05
3.2086e-05
3.12686e-05
3.04859e-05
2.97364e-05
2.90187e-05
2.83316e-05
2.76738e-05
2.70444e-05
2.64426e-05
2.58674e-05
2.53182e-05
2.47944e-05
2.42955e-05
2.3821e-05
2.33704e-05
2.29435e-05
2.25399e-05
2.21593e-05
2.18013e-05
2.14657e-05
2.11521e-05
2.08601e-05
2.05893e-05
2.03392e-05
2.01093e-05
1.98989e-05
1.97073e-05
1.95338e-05
1.93775e-05
1.92375e-05
1.91128e-05
1.90025e-05
1.89056e-05
1.88211e-05
1.87481e-05
1.8686e-05
1.8634e-05
1.85919e-05
1.85604e-05
1.85411e-05
0.000939687
0.000835717
0.000745888
0.00066803
0.000600334
0.000541291
0.000489635
0.000444302
0.000404399
0.000369171
0.000337979
0.000310282
0.000285618
0.000263594
0.000243875
0.000226173
0.000210241
0.000195866
0.000182864
0.000171076
0.000160363
0.000150605
0.000141699
0.000133552
0.000126084
0.000119224
0.000112912
0.000107092
0.000101715
9.67405e-05
9.21288e-05
8.78468e-05
8.38644e-05
8.01547e-05
7.66938e-05
7.34601e-05
7.04345e-05
6.75995e-05
6.49396e-05
6.24405e-05
6.00897e-05
5.78754e-05
5.57874e-05
5.38161e-05
5.19528e-05
5.01898e-05
4.85198e-05
4.69364e-05
4.54335e-05
4.40058e-05
4.26482e-05
4.13562e-05
4.01255e-05
3.89524e-05
3.78333e-05
3.6765e-05
3.57446e-05
3.47694e-05
3.38368e-05
3.29446e-05
3.20908e-05
3.12734e-05
3.04908e-05
2.97413e-05
2.90237e-05
2.83365e-05
2.76788e-05
2.70494e-05
2.64475e-05
2.58723e-05
2.5323e-05
2.47992e-05
2.43001e-05
2.38255e-05
2.33748e-05
2.29478e-05
2.2544e-05
2.21631e-05
2.18049e-05
2.1469e-05
2.11551e-05
2.08629e-05
2.05918e-05
2.03414e-05
2.01111e-05
1.99004e-05
1.97086e-05
1.95348e-05
1.93782e-05
1.92379e-05
1.9113e-05
1.90024e-05
1.89053e-05
1.88206e-05
1.87475e-05
1.86852e-05
1.86331e-05
1.8591e-05
1.85594e-05
1.854e-05
0.000939687
0.000835717
0.000745888
0.00066803
0.000600335
0.000541292
0.000489635
0.000444303
0.0004044
0.000369172
0.00033798
0.000310283
0.000285619
0.000263595
0.000243877
0.000226175
0.000210243
0.000195868
0.000182866
0.000171077
0.000160364
0.000150607
0.000141701
0.000133554
0.000126086
0.000119227
0.000112914
0.000107094
0.000101718
9.67429e-05
9.21313e-05
8.78494e-05
8.3867e-05
8.01574e-05
7.66965e-05
7.3463e-05
7.04374e-05
6.76025e-05
6.49426e-05
6.24437e-05
6.00929e-05
5.78787e-05
5.57908e-05
5.38195e-05
5.19564e-05
5.01934e-05
4.85235e-05
4.69402e-05
4.54374e-05
4.40098e-05
4.26523e-05
4.13603e-05
4.01297e-05
3.89567e-05
3.78377e-05
3.67696e-05
3.57492e-05
3.4774e-05
3.38415e-05
3.29494e-05
3.20957e-05
3.12784e-05
3.04958e-05
2.97464e-05
2.90288e-05
2.83416e-05
2.76839e-05
2.70545e-05
2.64526e-05
2.58773e-05
2.5328e-05
2.48041e-05
2.4305e-05
2.38302e-05
2.33794e-05
2.29521e-05
2.25481e-05
2.2167e-05
2.18086e-05
2.14725e-05
2.11583e-05
2.08657e-05
2.05943e-05
2.03436e-05
2.0113e-05
1.9902e-05
1.97098e-05
1.95357e-05
1.93788e-05
1.92383e-05
1.91131e-05
1.90023e-05
1.8905e-05
1.88201e-05
1.87468e-05
1.86844e-05
1.86322e-05
1.859e-05
1.85583e-05
1.85389e-05
0.000939687
0.000835717
0.000745888
0.00066803
0.000600335
0.000541292
0.000489636
0.000444303
0.000404401
0.000369173
0.000337981
0.000310284
0.00028562
0.000263596
0.000243878
0.000226176
0.000210244
0.000195869
0.000182867
0.000171079
0.000160366
0.000150609
0.000141703
0.000133556
0.000126088
0.000119229
0.000112916
0.000107096
0.00010172
9.67454e-05
9.21339e-05
8.7852e-05
8.38697e-05
8.01601e-05
7.66994e-05
7.34659e-05
7.04404e-05
6.76056e-05
6.49458e-05
6.24469e-05
6.00962e-05
5.78821e-05
5.57942e-05
5.38231e-05
5.196e-05
5.01971e-05
4.85274e-05
4.69441e-05
4.54414e-05
4.40139e-05
4.26564e-05
4.13646e-05
4.01341e-05
3.89612e-05
3.78423e-05
3.67742e-05
3.5754e-05
3.47789e-05
3.38464e-05
3.29544e-05
3.21007e-05
3.12835e-05
3.05009e-05
2.97516e-05
2.9034e-05
2.83469e-05
2.76892e-05
2.70598e-05
2.64578e-05
2.58825e-05
2.53332e-05
2.48091e-05
2.43099e-05
2.3835e-05
2.3384e-05
2.29566e-05
2.25524e-05
2.21711e-05
2.18124e-05
2.1476e-05
2.11615e-05
2.08686e-05
2.05969e-05
2.03459e-05
2.0115e-05
1.99036e-05
1.97111e-05
1.95366e-05
1.93795e-05
1.92386e-05
1.91131e-05
1.90021e-05
1.89045e-05
1.88195e-05
1.8746e-05
1.86834e-05
1.86311e-05
1.85888e-05
1.85571e-05
1.85376e-05
0.000939687
0.000835717
0.000745888
0.00066803
0.000600335
0.000541292
0.000489636
0.000444304
0.000404401
0.000369174
0.000337982
0.000310285
0.000285621
0.000263598
0.000243879
0.000226178
0.000210246
0.000195871
0.000182869
0.000171081
0.000160368
0.000150611
0.000141705
0.000133558
0.00012609
0.000119231
0.000112919
0.000107099
0.000101723
9.67479e-05
9.21364e-05
8.78546e-05
8.38724e-05
8.01629e-05
7.67022e-05
7.34688e-05
7.04434e-05
6.76087e-05
6.49489e-05
6.24501e-05
6.00995e-05
5.78856e-05
5.57978e-05
5.38267e-05
5.19637e-05
5.0201e-05
4.85313e-05
4.69481e-05
4.54455e-05
4.40181e-05
4.26607e-05
4.1369e-05
4.01386e-05
3.89658e-05
3.7847e-05
3.6779e-05
3.57588e-05
3.47838e-05
3.38515e-05
3.29595e-05
3.21059e-05
3.12887e-05
3.05062e-05
2.97569e-05
2.90394e-05
2.83523e-05
2.76946e-05
2.70652e-05
2.64632e-05
2.58878e-05
2.53384e-05
2.48143e-05
2.4315e-05
2.38399e-05
2.33888e-05
2.29612e-05
2.25568e-05
2.21752e-05
2.18163e-05
2.14796e-05
2.11648e-05
2.08716e-05
2.05995e-05
2.03482e-05
2.01169e-05
1.99052e-05
1.97124e-05
1.95376e-05
1.93801e-05
1.92389e-05
1.91132e-05
1.90019e-05
1.89041e-05
1.88188e-05
1.87452e-05
1.86824e-05
1.863e-05
1.85876e-05
1.85558e-05
1.85363e-05
0.000939687
0.000835717
0.000745888
0.00066803
0.000600335
0.000541293
0.000489637
0.000444304
0.000404402
0.000369174
0.000337983
0.000310286
0.000285622
0.000263599
0.00024388
0.000226179
0.000210247
0.000195872
0.000182871
0.000171082
0.00016037
0.000150613
0.000141707
0.00013356
0.000126092
0.000119233
0.000112921
0.000107101
0.000101725
9.67504e-05
9.2139e-05
8.78573e-05
8.38751e-05
8.01657e-05
7.67051e-05
7.34718e-05
7.04465e-05
6.76118e-05
6.49522e-05
6.24535e-05
6.01029e-05
5.78891e-05
5.58014e-05
5.38304e-05
5.19675e-05
5.02048e-05
4.85352e-05
4.69522e-05
4.54497e-05
4.40223e-05
4.26651e-05
4.13734e-05
4.01432e-05
3.89704e-05
3.78517e-05
3.67838e-05
3.57638e-05
3.47888e-05
3.38566e-05
3.29647e-05
3.21112e-05
3.1294e-05
3.05116e-05
2.97624e-05
2.90449e-05
2.83578e-05
2.77001e-05
2.70707e-05
2.64687e-05
2.58933e-05
2.53438e-05
2.48196e-05
2.43201e-05
2.38449e-05
2.33936e-05
2.29658e-05
2.25612e-05
2.21794e-05
2.18202e-05
2.14832e-05
2.11681e-05
2.08746e-05
2.06022e-05
2.03505e-05
2.01189e-05
1.99068e-05
1.97136e-05
1.95385e-05
1.93807e-05
1.92392e-05
1.91132e-05
1.90016e-05
1.89036e-05
1.88181e-05
1.87442e-05
1.86813e-05
1.86287e-05
1.85862e-05
1.85544e-05
1.85348e-05
0.000939687
0.000835717
0.000745888
0.000668031
0.000600336
0.000541293
0.000489637
0.000444305
0.000404403
0.000369175
0.000337984
0.000310287
0.000285623
0.0002636
0.000243881
0.00022618
0.000210249
0.000195874
0.000182872
0.000171084
0.000160372
0.000150615
0.000141709
0.000133562
0.000126094
0.000119235
0.000112923
0.000107103
0.000101728
9.67529e-05
9.21416e-05
8.786e-05
8.38779e-05
8.01686e-05
7.67081e-05
7.34748e-05
7.04496e-05
6.7615e-05
6.49555e-05
6.24568e-05
6.01064e-05
5.78926e-05
5.5805e-05
5.38341e-05
5.19713e-05
5.02088e-05
4.85393e-05
4.69563e-05
4.54539e-05
4.40267e-05
4.26695e-05
4.1378e-05
4.01478e-05
3.89752e-05
3.78566e-05
3.67887e-05
3.57688e-05
3.4794e-05
3.38618e-05
3.297e-05
3.21165e-05
3.12995e-05
3.05171e-05
2.97679e-05
2.90504e-05
2.83634e-05
2.77057e-05
2.70762e-05
2.64742e-05
2.58988e-05
2.53492e-05
2.48249e-05
2.43254e-05
2.385e-05
2.33986e-05
2.29706e-05
2.25657e-05
2.21837e-05
2.18242e-05
2.14869e-05
2.11715e-05
2.08777e-05
2.06049e-05
2.03528e-05
2.01209e-05
1.99085e-05
1.97149e-05
1.95394e-05
1.93813e-05
1.92395e-05
1.91131e-05
1.90013e-05
1.8903e-05
1.88172e-05
1.87432e-05
1.86801e-05
1.86274e-05
1.85848e-05
1.85528e-05
1.85332e-05
0.000939687
0.000835717
0.000745888
0.000668031
0.000600336
0.000541293
0.000489637
0.000444305
0.000404403
0.000369176
0.000337985
0.000310287
0.000285624
0.000263601
0.000243883
0.000226182
0.00021025
0.000195875
0.000182874
0.000171086
0.000160373
0.000150617
0.000141711
0.000133564
0.000126096
0.000119238
0.000112926
0.000107106
0.00010173
9.67554e-05
9.21442e-05
8.78627e-05
8.38807e-05
8.01715e-05
7.6711e-05
7.34779e-05
7.04527e-05
6.76182e-05
6.49588e-05
6.24602e-05
6.01099e-05
5.78962e-05
5.58087e-05
5.38379e-05
5.19752e-05
5.02127e-05
4.85433e-05
4.69605e-05
4.54582e-05
4.4031e-05
4.2674e-05
4.13825e-05
4.01525e-05
3.89799e-05
3.78614e-05
3.67937e-05
3.57739e-05
3.47991e-05
3.3867e-05
3.29753e-05
3.21219e-05
3.13049e-05
3.05226e-05
2.97735e-05
2.9056e-05
2.8369e-05
2.77113e-05
2.70819e-05
2.64798e-05
2.59043e-05
2.53547e-05
2.48303e-05
2.43306e-05
2.38552e-05
2.34035e-05
2.29753e-05
2.25703e-05
2.2188e-05
2.18282e-05
2.14906e-05
2.11749e-05
2.08807e-05
2.06076e-05
2.03552e-05
2.01229e-05
1.99101e-05
1.97162e-05
1.95403e-05
1.93818e-05
1.92397e-05
1.9113e-05
1.90009e-05
1.89023e-05
1.88164e-05
1.87422e-05
1.86789e-05
1.8626e-05
1.85833e-05
1.85512e-05
1.85316e-05
0.000939687
0.000835717
0.000745888
0.000668031
0.000600336
0.000541294
0.000489638
0.000444306
0.000404404
0.000369177
0.000337985
0.000310288
0.000285625
0.000263602
0.000243884
0.000226183
0.000210251
0.000195877
0.000182875
0.000171087
0.000160375
0.000150618
0.000141713
0.000133566
0.000126098
0.00011924
0.000112928
0.000107108
0.000101732
9.67579e-05
9.21468e-05
8.78654e-05
8.38835e-05
8.01743e-05
7.6714e-05
7.34809e-05
7.04558e-05
6.76214e-05
6.49621e-05
6.24636e-05
6.01134e-05
5.78998e-05
5.58124e-05
5.38417e-05
5.19791e-05
5.02167e-05
4.85474e-05
4.69646e-05
4.54625e-05
4.40354e-05
4.26785e-05
4.13871e-05
4.01572e-05
3.89847e-05
3.78663e-05
3.67987e-05
3.57789e-05
3.48043e-05
3.38723e-05
3.29807e-05
3.21274e-05
3.13104e-05
3.05282e-05
2.97791e-05
2.90617e-05
2.83747e-05
2.7717e-05
2.70875e-05
2.64855e-05
2.59099e-05
2.53602e-05
2.48357e-05
2.43359e-05
2.38603e-05
2.34085e-05
2.29801e-05
2.25748e-05
2.21923e-05
2.18322e-05
2.14944e-05
2.11783e-05
2.08838e-05
2.06104e-05
2.03576e-05
2.01249e-05
1.99117e-05
1.97174e-05
1.95412e-05
1.93823e-05
1.92399e-05
1.91129e-05
1.90005e-05
1.89017e-05
1.88155e-05
1.8741e-05
1.86776e-05
1.86245e-05
1.85817e-05
1.85496e-05
1.85299e-05
0.000939687
0.000835717
0.000745889
0.000668031
0.000600336
0.000541294
0.000489638
0.000444306
0.000404404
0.000369177
0.000337986
0.000310289
0.000285626
0.000263603
0.000243885
0.000226184
0.000210253
0.000195878
0.000182877
0.000171089
0.000160377
0.00015062
0.000141714
0.000133568
0.0001261
0.000119242
0.00011293
0.00010711
0.000101735
9.67604e-05
9.21494e-05
8.7868e-05
8.38862e-05
8.01772e-05
7.67169e-05
7.34839e-05
7.0459e-05
6.76246e-05
6.49654e-05
6.2467e-05
6.01169e-05
5.79033e-05
5.5816e-05
5.38455e-05
5.1983e-05
5.02207e-05
4.85515e-05
4.69688e-05
4.54668e-05
4.40398e-05
4.2683e-05
4.13917e-05
4.01619e-05
3.89895e-05
3.78712e-05
3.68037e-05
3.57841e-05
3.48095e-05
3.38776e-05
3.2986e-05
3.21328e-05
3.13159e-05
3.05338e-05
2.97847e-05
2.90673e-05
2.83804e-05
2.77227e-05
2.70932e-05
2.64911e-05
2.59155e-05
2.53657e-05
2.48412e-05
2.43412e-05
2.38655e-05
2.34135e-05
2.29849e-05
2.25794e-05
2.21966e-05
2.18363e-05
2.14981e-05
2.11818e-05
2.08869e-05
2.06131e-05
2.03599e-05
2.01269e-05
1.99133e-05
1.97186e-05
1.95421e-05
1.93829e-05
1.92401e-05
1.91128e-05
1.90001e-05
1.89009e-05
1.88145e-05
1.87398e-05
1.86762e-05
1.8623e-05
1.858e-05
1.85478e-05
1.85281e-05
0.000939687
0.000835717
0.000745889
0.000668031
0.000600337
0.000541294
0.000489638
0.000444307
0.000404405
0.000369178
0.000337987
0.00031029
0.000285627
0.000263604
0.000243886
0.000226185
0.000210254
0.00019588
0.000182878
0.000171091
0.000160379
0.000150622
0.000141716
0.00013357
0.000126103
0.000119244
0.000112932
0.000107113
0.000101737
9.67629e-05
9.2152e-05
8.78707e-05
8.38889e-05
8.018e-05
7.67198e-05
7.34869e-05
7.0462e-05
6.76278e-05
6.49686e-05
6.24704e-05
6.01203e-05
5.79069e-05
5.58197e-05
5.38492e-05
5.19868e-05
5.02246e-05
4.85555e-05
4.6973e-05
4.5471e-05
4.40442e-05
4.26875e-05
4.13963e-05
4.01666e-05
3.89943e-05
3.78761e-05
3.68087e-05
3.57891e-05
3.48147e-05
3.38829e-05
3.29914e-05
3.21382e-05
3.13214e-05
3.05393e-05
2.97903e-05
2.9073e-05
2.8386e-05
2.77283e-05
2.70989e-05
2.64967e-05
2.59211e-05
2.53713e-05
2.48466e-05
2.43465e-05
2.38706e-05
2.34185e-05
2.29897e-05
2.25839e-05
2.22009e-05
2.18403e-05
2.15018e-05
2.11852e-05
2.089e-05
2.06158e-05
2.03623e-05
2.01288e-05
1.99149e-05
1.97199e-05
1.95429e-05
1.93833e-05
1.92402e-05
1.91126e-05
1.89996e-05
1.89002e-05
1.88135e-05
1.87386e-05
1.86748e-05
1.86214e-05
1.85783e-05
1.8546e-05
1.85262e-05
0.000939687
0.000835717
0.000745889
0.000668031
0.000600337
0.000541294
0.000489639
0.000444307
0.000404405
0.000369178
0.000337987
0.000310291
0.000285627
0.000263605
0.000243887
0.000226186
0.000210255
0.000195881
0.00018288
0.000171092
0.00016038
0.000150624
0.000141718
0.000133572
0.000126104
0.000119246
0.000112934
0.000107115
0.00010174
9.67653e-05
9.21545e-05
8.78733e-05
8.38916e-05
8.01828e-05
7.67227e-05
7.34899e-05
7.04651e-05
6.7631e-05
6.49719e-05
6.24737e-05
6.01238e-05
5.79104e-05
5.58233e-05
5.3853e-05
5.19906e-05
5.02286e-05
4.85596e-05
4.69771e-05
4.54753e-05
4.40485e-05
4.26919e-05
4.14009e-05
4.01712e-05
3.89991e-05
3.7881e-05
3.68137e-05
3.57942e-05
3.48199e-05
3.38881e-05
3.29967e-05
3.21436e-05
3.13269e-05
3.05449e-05
2.97959e-05
2.90786e-05