/*--------------------------------*- C++ -*----------------------------------*\
  =========                 |
  \\      /  F ield         | OpenFOAM: The Open Source CFD Toolbox
   \\    /   O peration     | Website:  https://openfoam.org
    \\  /    A nd           | Version:  11
     \\/     M anipulation  |
\*---------------------------------------------------------------------------*/
FoamFile
{
    format      ascii;
    class       volScalarField;
    location    "294";
    object      k;
}
// * * * * * * * * * * * * * * * * * * * * * * * * * * * * * * * * * * * * * //

dimensions      [0 2 -2 0 0 0 0];

internalField   nonuniform List<scalar> 
10000
(
0.000939681
0.000835694
0.000745845
0.000667963
0.000600241
0.000541168
0.000489479
0.000444112
0.000404172
0.000368905
0.000337673
0.000309934
0.000285226
0.000263159
0.000243394
0.000225646
0.000209667
0.000195243
0.000182192
0.000170354
0.00015959
0.000149782
0.000140824
0.000132626
0.000125106
0.000118195
0.000111832
0.000105961
0.000100535
9.5512e-05
9.08538e-05
8.65274e-05
8.25033e-05
7.87553e-05
7.52602e-05
7.19972e-05
6.89479e-05
6.60961e-05
6.34271e-05
6.0928e-05
5.85875e-05
5.63953e-05
5.43425e-05
5.24211e-05
5.06241e-05
4.89453e-05
4.7379e-05
4.59205e-05
4.45651e-05
4.33089e-05
4.21479e-05
4.10786e-05
4.00975e-05
3.92011e-05
3.83859e-05
3.76484e-05
3.6985e-05
3.63918e-05
3.58651e-05
3.54007e-05
3.49948e-05
3.46435e-05
3.4343e-05
3.40892e-05
3.38783e-05
3.37065e-05
3.35697e-05
3.34646e-05
3.33874e-05
3.33353e-05
3.33052e-05
3.32945e-05
3.33003e-05
3.33208e-05
3.33539e-05
3.33976e-05
3.345e-05
3.35095e-05
3.35747e-05
3.36443e-05
3.37171e-05
3.3792e-05
3.38679e-05
3.39441e-05
3.40197e-05
3.40939e-05
3.41662e-05
3.42358e-05
3.43024e-05
3.43652e-05
3.44239e-05
3.4478e-05
3.45271e-05
3.45707e-05
3.46086e-05
3.46404e-05
3.46659e-05
3.46849e-05
3.46971e-05
3.47026e-05
0.000939681
0.000835695
0.000745846
0.000667964
0.000600242
0.000541169
0.00048948
0.000444113
0.000404173
0.000368907
0.000337674
0.000309935
0.000285228
0.00026316
0.000243395
0.000225647
0.000209668
0.000195244
0.000182193
0.000170355
0.000159591
0.000149783
0.000140825
0.000132627
0.000125107
0.000118196
0.000111833
0.000105962
0.000100536
9.55133e-05
9.08551e-05
8.65287e-05
8.25047e-05
7.87567e-05
7.52617e-05
7.19987e-05
6.89496e-05
6.60978e-05
6.34289e-05
6.09299e-05
5.85894e-05
5.63973e-05
5.43446e-05
5.24233e-05
5.06264e-05
4.89476e-05
4.73815e-05
4.5923e-05
4.45677e-05
4.33115e-05
4.21505e-05
4.10812e-05
4.01001e-05
3.92037e-05
3.83884e-05
3.76509e-05
3.69874e-05
3.63942e-05
3.58675e-05
3.54032e-05
3.49975e-05
3.46463e-05
3.43457e-05
3.40918e-05
3.38807e-05
3.37085e-05
3.35714e-05
3.34659e-05
3.33885e-05
3.33362e-05
3.3306e-05
3.32953e-05
3.33009e-05
3.33213e-05
3.33544e-05
3.3398e-05
3.34503e-05
3.35098e-05
3.3575e-05
3.36446e-05
3.37173e-05
3.37922e-05
3.38681e-05
3.39442e-05
3.40198e-05
3.4094e-05
3.41663e-05
3.42359e-05
3.43024e-05
3.43652e-05
3.44239e-05
3.4478e-05
3.45271e-05
3.45707e-05
3.46086e-05
3.46405e-05
3.4666e-05
3.46849e-05
3.46972e-05
3.47027e-05
0.000939681
0.000835695
0.000745847
0.000667965
0.000600243
0.000541171
0.000489482
0.000444115
0.000404175
0.000368909
0.000337676
0.000309937
0.00028523
0.000263162
0.000243398
0.000225649
0.00020967
0.000195246
0.000182195
0.000170357
0.000159593
0.000149785
0.000140827
0.000132629
0.000125109
0.000118198
0.000111835
0.000105964
0.000100539
9.55154e-05
9.08572e-05
8.65309e-05
8.25069e-05
7.8759e-05
7.5264e-05
7.20011e-05
6.8952e-05
6.61003e-05
6.34314e-05
6.09325e-05
5.85921e-05
5.64001e-05
5.43474e-05
5.24261e-05
5.06293e-05
4.89505e-05
4.73844e-05
4.59259e-05
4.45706e-05
4.33143e-05
4.21533e-05
4.10839e-05
4.01027e-05
3.92061e-05
3.83908e-05
3.76531e-05
3.69895e-05
3.63961e-05
3.58692e-05
3.54048e-05
3.4999e-05
3.46477e-05
3.43471e-05
3.4093e-05
3.38816e-05
3.37091e-05
3.35718e-05
3.3466e-05
3.33885e-05
3.3336e-05
3.33057e-05
3.32948e-05
3.33004e-05
3.33208e-05
3.33538e-05
3.33973e-05
3.34496e-05
3.35091e-05
3.35743e-05
3.36439e-05
3.37167e-05
3.37915e-05
3.38675e-05
3.39436e-05
3.40192e-05
3.40935e-05
3.41658e-05
3.42355e-05
3.4302e-05
3.43649e-05
3.44236e-05
3.44777e-05
3.45269e-05
3.45706e-05
3.46085e-05
3.46404e-05
3.4666e-05
3.4685e-05
3.46973e-05
3.47028e-05
0.000939681
0.000835696
0.000745848
0.000667967
0.000600246
0.000541173
0.000489484
0.000444117
0.000404178
0.000368912
0.000337679
0.00030994
0.000285233
0.000263165
0.0002434
0.000225652
0.000209673
0.000195249
0.000182198
0.000170359
0.000159596
0.000149788
0.00014083
0.000132632
0.000125112
0.000118201
0.000111838
0.000105967
0.000100542
9.55184e-05
9.08603e-05
8.6534e-05
8.25101e-05
7.87623e-05
7.52673e-05
7.20045e-05
6.89554e-05
6.61038e-05
6.3435e-05
6.09362e-05
5.85958e-05
5.64038e-05
5.43512e-05
5.24299e-05
5.06331e-05
4.89543e-05
4.73882e-05
4.59296e-05
4.45742e-05
4.33178e-05
4.21567e-05
4.10872e-05
4.01057e-05
3.9209e-05
3.83934e-05
3.76554e-05
3.69915e-05
3.63979e-05
3.58707e-05
3.54061e-05
3.50001e-05
3.46486e-05
3.43477e-05
3.40934e-05
3.38817e-05
3.37089e-05
3.35713e-05
3.34653e-05
3.33875e-05
3.33349e-05
3.33044e-05
3.32935e-05
3.3299e-05
3.33193e-05
3.33522e-05
3.33958e-05
3.34481e-05
3.35076e-05
3.35728e-05
3.36425e-05
3.37153e-05
3.37902e-05
3.38662e-05
3.39424e-05
3.40181e-05
3.40924e-05
3.41648e-05
3.42346e-05
3.43012e-05
3.43642e-05
3.4423e-05
3.44773e-05
3.45265e-05
3.45703e-05
3.46083e-05
3.46403e-05
3.4666e-05
3.46851e-05
3.46974e-05
3.47029e-05
0.000939681
0.000835697
0.000745849
0.000667969
0.000600248
0.000541176
0.000489487
0.000444121
0.000404182
0.000368915
0.000337683
0.000309944
0.000285236
0.000263168
0.000243404
0.000225656
0.000209676
0.000195253
0.000182201
0.000170363
0.0001596
0.000149792
0.000140834
0.000132635
0.000125116
0.000118205
0.000111842
0.000105971
0.000100545
9.55223e-05
9.08643e-05
8.65381e-05
8.25142e-05
7.87665e-05
7.52716e-05
7.20089e-05
6.89599e-05
6.61084e-05
6.34397e-05
6.09409e-05
5.86006e-05
5.64087e-05
5.43561e-05
5.24348e-05
5.0638e-05
4.89592e-05
4.7393e-05
4.59343e-05
4.45788e-05
4.33223e-05
4.21609e-05
4.10912e-05
4.01095e-05
3.92124e-05
3.83965e-05
3.76582e-05
3.69939e-05
3.63999e-05
3.58723e-05
3.54074e-05
3.5001e-05
3.46491e-05
3.43479e-05
3.40932e-05
3.38812e-05
3.37081e-05
3.35702e-05
3.34639e-05
3.33859e-05
3.33331e-05
3.33025e-05
3.32914e-05
3.32968e-05
3.3317e-05
3.335e-05
3.33935e-05
3.34458e-05
3.35054e-05
3.35707e-05
3.36404e-05
3.37132e-05
3.37882e-05
3.38643e-05
3.39407e-05
3.40165e-05
3.4091e-05
3.41634e-05
3.42334e-05
3.43001e-05
3.43632e-05
3.44222e-05
3.44766e-05
3.45259e-05
3.45699e-05
3.46081e-05
3.46402e-05
3.4666e-05
3.46852e-05
3.46976e-05
3.47031e-05
0.000939682
0.000835698
0.00074585
0.000667971
0.00060025
0.000541179
0.000489491
0.000444124
0.000404185
0.000368919
0.000337687
0.000309948
0.000285241
0.000263173
0.000243409
0.00022566
0.000209681
0.000195257
0.000182206
0.000170368
0.000159604
0.000149796
0.000140838
0.00013264
0.00012512
0.00011821
0.000111846
0.000105976
0.00010055
9.55272e-05
9.08692e-05
8.65431e-05
8.25193e-05
7.87717e-05
7.52769e-05
7.20143e-05
6.89655e-05
6.6114e-05
6.34454e-05
6.09467e-05
5.86065e-05
5.64146e-05
5.4362e-05
5.24408e-05
5.0644e-05
4.89651e-05
4.73988e-05
4.59401e-05
4.45844e-05
4.33276e-05
4.2166e-05
4.10959e-05
4.01139e-05
3.92164e-05
3.84001e-05
3.76613e-05
3.69966e-05
3.64021e-05
3.5874e-05
3.54086e-05
3.50017e-05
3.46494e-05
3.43477e-05
3.40926e-05
3.38802e-05
3.37067e-05
3.35684e-05
3.34618e-05
3.33836e-05
3.33306e-05
3.32998e-05
3.32886e-05
3.32939e-05
3.33141e-05
3.3347e-05
3.33905e-05
3.34429e-05
3.35025e-05
3.35678e-05
3.36376e-05
3.37106e-05
3.37857e-05
3.3862e-05
3.39385e-05
3.40144e-05
3.4089e-05
3.41617e-05
3.42318e-05
3.42987e-05
3.4362e-05
3.44212e-05
3.44757e-05
3.45252e-05
3.45694e-05
3.46077e-05
3.464e-05
3.46659e-05
3.46852e-05
3.46977e-05
3.47032e-05
0.000939682
0.000835698
0.000745852
0.000667973
0.000600253
0.000541181
0.000489494
0.000444128
0.000404189
0.000368923
0.000337692
0.000309953
0.000285245
0.000263178
0.000243413
0.000225665
0.000209686
0.000195262
0.000182211
0.000170373
0.00015961
0.000149801
0.000140844
0.000132645
0.000125126
0.000118215
0.000111852
0.000105981
0.000100556
9.55329e-05
9.08751e-05
8.65491e-05
8.25254e-05
7.87779e-05
7.52832e-05
7.20207e-05
6.8972e-05
6.61207e-05
6.34522e-05
6.09536e-05
5.86135e-05
5.64216e-05
5.43691e-05
5.24479e-05
5.0651e-05
4.89721e-05
4.74057e-05
4.59468e-05
4.45909e-05
4.33339e-05
4.21719e-05
4.11015e-05
4.0119e-05
3.92211e-05
3.84042e-05
3.76649e-05
3.69995e-05
3.64045e-05
3.58758e-05
3.54098e-05
3.50023e-05
3.46495e-05
3.43473e-05
3.40917e-05
3.38788e-05
3.37049e-05
3.35662e-05
3.34592e-05
3.33807e-05
3.33274e-05
3.32964e-05
3.32851e-05
3.32903e-05
3.33104e-05
3.33433e-05
3.33868e-05
3.34392e-05
3.34989e-05
3.35644e-05
3.36342e-05
3.37074e-05
3.37826e-05
3.3859e-05
3.39357e-05
3.40118e-05
3.40867e-05
3.41595e-05
3.42298e-05
3.4297e-05
3.43605e-05
3.44199e-05
3.44746e-05
3.45244e-05
3.45687e-05
3.46073e-05
3.46397e-05
3.46657e-05
3.46852e-05
3.46977e-05
3.47032e-05
0.000939682
0.000835699
0.000745853
0.000667974
0.000600255
0.000541184
0.000489497
0.000444132
0.000404194
0.000368928
0.000337696
0.000309957
0.000285251
0.000263183
0.000243419
0.000225671
0.000209691
0.000195268
0.000182217
0.000170378
0.000159615
0.000149807
0.00014085
0.000132651
0.000125132
0.000118221
0.000111858
0.000105988
0.000100562
9.55395e-05
9.08818e-05
8.65559e-05
8.25324e-05
7.8785e-05
7.52905e-05
7.20282e-05
6.89796e-05
6.61284e-05
6.346e-05
6.09615e-05
5.86215e-05
5.64297e-05
5.43772e-05
5.24561e-05
5.06591e-05
4.89801e-05
4.74136e-05
4.59545e-05
4.45983e-05
4.3341e-05
4.21787e-05
4.11078e-05
4.01248e-05
3.92263e-05
3.84088e-05
3.76688e-05
3.70028e-05
3.64071e-05
3.58778e-05
3.5411e-05
3.50029e-05
3.46494e-05
3.43466e-05
3.40904e-05
3.3877e-05
3.37025e-05
3.35634e-05
3.34561e-05
3.33772e-05
3.33236e-05
3.32924e-05
3.32809e-05
3.32861e-05
3.33061e-05
3.33389e-05
3.33825e-05
3.34349e-05
3.34947e-05
3.35602e-05
3.36303e-05
3.37035e-05
3.3779e-05
3.38556e-05
3.39325e-05
3.40088e-05
3.40839e-05
3.4157e-05
3.42275e-05
3.4295e-05
3.43587e-05
3.44183e-05
3.44734e-05
3.45234e-05
3.45679e-05
3.46067e-05
3.46393e-05
3.46655e-05
3.4685e-05
3.46977e-05
3.47031e-05
0.000939682
0.000835699
0.000745854
0.000667976
0.000600257
0.000541187
0.000489501
0.000444136
0.000404198
0.000368932
0.000337701
0.000309963
0.000285256
0.000263188
0.000243424
0.000225676
0.000209697
0.000195274
0.000182223
0.000170385
0.000159622
0.000149814
0.000140856
0.000132658
0.000125138
0.000118228
0.000111865
0.000105995
0.000100569
9.55468e-05
9.08893e-05
8.65636e-05
8.25402e-05
7.8793e-05
7.52987e-05
7.20365e-05
6.89881e-05
6.6137e-05
6.34688e-05
6.09704e-05
5.86305e-05
5.64388e-05
5.43864e-05
5.24652e-05
5.06682e-05
4.89891e-05
4.74224e-05
4.59631e-05
4.46066e-05
4.33489e-05
4.21862e-05
4.11148e-05
4.01312e-05
3.92321e-05
3.84139e-05
3.76732e-05
3.70065e-05
3.64099e-05
3.58798e-05
3.54123e-05
3.50034e-05
3.46492e-05
3.43456e-05
3.40888e-05
3.38748e-05
3.36998e-05
3.35601e-05
3.34524e-05
3.33731e-05
3.33193e-05
3.32878e-05
3.32761e-05
3.32811e-05
3.33011e-05
3.33339e-05
3.33775e-05
3.343e-05
3.34898e-05
3.35555e-05
3.36257e-05
3.36992e-05
3.37748e-05
3.38516e-05
3.39288e-05
3.40054e-05
3.40807e-05
3.41541e-05
3.42249e-05
3.42926e-05
3.43567e-05
3.44166e-05
3.44719e-05
3.45221e-05
3.4567e-05
3.4606e-05
3.46388e-05
3.46652e-05
3.46848e-05
3.46975e-05
3.4703e-05
0.000939682
0.0008357
0.000745855
0.000667977
0.000600259
0.00054119
0.000489504
0.000444139
0.000404202
0.000368937
0.000337706
0.000309968
0.000285261
0.000263194
0.00024343
0.000225683
0.000209703
0.00019528
0.000182229
0.000170391
0.000159628
0.00014982
0.000140863
0.000132665
0.000125146
0.000118235
0.000111872
0.000106002
0.000100577
9.55549e-05
9.08975e-05
8.6572e-05
8.25489e-05
7.88019e-05
7.53077e-05
7.20457e-05
6.89975e-05
6.61466e-05
6.34785e-05
6.09803e-05
5.86405e-05
5.64489e-05
5.43965e-05
5.24753e-05
5.06783e-05
4.89991e-05
4.74322e-05
4.59726e-05
4.46158e-05
4.33577e-05
4.21945e-05
4.11225e-05
4.01383e-05
3.92384e-05
3.84195e-05
3.7678e-05
3.70104e-05
3.6413e-05
3.5882e-05
3.54136e-05
3.50039e-05
3.46489e-05
3.43445e-05
3.4087e-05
3.38723e-05
3.36967e-05
3.35565e-05
3.34482e-05
3.33686e-05
3.33144e-05
3.32827e-05
3.32707e-05
3.32756e-05
3.32955e-05
3.33283e-05
3.33719e-05
3.34245e-05
3.34844e-05
3.35502e-05
3.36206e-05
3.36942e-05
3.37701e-05
3.38472e-05
3.39246e-05
3.40015e-05
3.40771e-05
3.41508e-05
3.42219e-05
3.429e-05
3.43543e-05
3.44146e-05
3.44702e-05
3.45207e-05
3.45659e-05
3.46051e-05
3.46382e-05
3.46647e-05
3.46845e-05
3.46973e-05
3.47028e-05
0.000939682
0.0008357
0.000745856
0.000667979
0.000600261
0.000541192
0.000489507
0.000444143
0.000404206
0.000368941
0.000337711
0.000309973
0.000285267
0.0002632
0.000243436
0.000225689
0.00020971
0.000195287
0.000182236
0.000170398
0.000159635
0.000149828
0.000140871
0.000132672
0.000125153
0.000118243
0.000111881
0.000106011
0.000100586
9.55637e-05
9.09065e-05
8.65812e-05
8.25583e-05
7.88115e-05
7.53176e-05
7.20558e-05
6.90078e-05
6.61571e-05
6.34892e-05
6.09912e-05
5.86515e-05
5.64599e-05
5.44076e-05
5.24864e-05
5.06892e-05
4.90099e-05
4.74428e-05
4.59829e-05
4.46258e-05
4.33672e-05
4.22035e-05
4.11309e-05
4.0146e-05
3.92454e-05
3.84256e-05
3.76832e-05
3.70147e-05
3.64163e-05
3.58844e-05
3.54151e-05
3.50044e-05
3.46485e-05
3.43433e-05
3.40849e-05
3.38695e-05
3.36932e-05
3.35524e-05
3.34437e-05
3.33636e-05
3.3309e-05
3.3277e-05
3.32648e-05
3.32696e-05
3.32893e-05
3.33221e-05
3.33657e-05
3.34184e-05
3.34784e-05
3.35444e-05
3.36149e-05
3.36888e-05
3.37649e-05
3.38423e-05
3.392e-05
3.39972e-05
3.40731e-05
3.41472e-05
3.42186e-05
3.4287e-05
3.43517e-05
3.44123e-05
3.44683e-05
3.45192e-05
3.45646e-05
3.46041e-05
3.46374e-05
3.46642e-05
3.46841e-05
3.46969e-05
3.47024e-05
0.000939682
0.000835701
0.000745857
0.00066798
0.000600263
0.000541195
0.00048951
0.000444146
0.00040421
0.000368946
0.000337716
0.000309978
0.000285272
0.000263206
0.000243443
0.000225695
0.000209717
0.000195294
0.000182243
0.000170405
0.000159643
0.000149835
0.000140878
0.000132681
0.000125162
0.000118252
0.000111889
0.00010602
0.000100595
9.55731e-05
9.09162e-05
8.65911e-05
8.25684e-05
7.88219e-05
7.53282e-05
7.20667e-05
6.90189e-05
6.61684e-05
6.35007e-05
6.10028e-05
5.86633e-05
5.64718e-05
5.44195e-05
5.24983e-05
5.07011e-05
4.90216e-05
4.74543e-05
4.59941e-05
4.46365e-05
4.33775e-05
4.22131e-05
4.11399e-05
4.01542e-05
3.92528e-05
3.84321e-05
3.76888e-05
3.70193e-05
3.64199e-05
3.58869e-05
3.54166e-05
3.50049e-05
3.4648e-05
3.43419e-05
3.40827e-05
3.38665e-05
3.36895e-05
3.3548e-05
3.34387e-05
3.33581e-05
3.33032e-05
3.32708e-05
3.32584e-05
3.3263e-05
3.32826e-05
3.33154e-05
3.3359e-05
3.34117e-05
3.34719e-05
3.3538e-05
3.36088e-05
3.36829e-05
3.37593e-05
3.38369e-05
3.39149e-05
3.39925e-05
3.40688e-05
3.41432e-05
3.4215e-05
3.42838e-05
3.43489e-05
3.44098e-05
3.44661e-05
3.45173e-05
3.45631e-05
3.46029e-05
3.46365e-05
3.46634e-05
3.46835e-05
3.46965e-05
3.4702e-05
0.000939683
0.000835701
0.000745858
0.000667981
0.000600265
0.000541197
0.000489513
0.000444149
0.000404214
0.00036895
0.00033772
0.000309983
0.000285278
0.000263212
0.000243449
0.000225702
0.000209723
0.000195301
0.00018225
0.000170413
0.000159651
0.000149843
0.000140887
0.000132689
0.00012517
0.000118261
0.000111899
0.000106029
0.000100605
9.55831e-05
9.09264e-05
8.66017e-05
8.25792e-05
7.8833e-05
7.53396e-05
7.20783e-05
6.90307e-05
6.61805e-05
6.3513e-05
6.10153e-05
5.86759e-05
5.64845e-05
5.44322e-05
5.2511e-05
5.07137e-05
4.90341e-05
4.74665e-05
4.6006e-05
4.4648e-05
4.33884e-05
4.22234e-05
4.11494e-05
4.0163e-05
3.92607e-05
3.84391e-05
3.76947e-05
3.70241e-05
3.64237e-05
3.58896e-05
3.54182e-05
3.50055e-05
3.46476e-05
3.43405e-05
3.40803e-05
3.38632e-05
3.36855e-05
3.35434e-05
3.34334e-05
3.33523e-05
3.32969e-05
3.32643e-05
3.32516e-05
3.3256e-05
3.32755e-05
3.33082e-05
3.33518e-05
3.34046e-05
3.34649e-05
3.35312e-05
3.36022e-05
3.36765e-05
3.37532e-05
3.38312e-05
3.39095e-05
3.39874e-05
3.40641e-05
3.41388e-05
3.42111e-05
3.42802e-05
3.43457e-05
3.44071e-05
3.44637e-05
3.45153e-05
3.45614e-05
3.46015e-05
3.46353e-05
3.46625e-05
3.46828e-05
3.46958e-05
3.47014e-05
0.000939683
0.000835702
0.000745858
0.000667983
0.000600266
0.000541199
0.000489515
0.000444153
0.000404217
0.000368954
0.000337725
0.000309988
0.000285283
0.000263217
0.000243455
0.000225708
0.00020973
0.000195308
0.000182258
0.000170421
0.000159659
0.000149852
0.000140895
0.000132698
0.00012518
0.00011827
0.000111908
0.000106039
0.000100615
9.55936e-05
9.09372e-05
8.66127e-05
8.25906e-05
7.88447e-05
7.53515e-05
7.20906e-05
6.90433e-05
6.61933e-05
6.3526e-05
6.10285e-05
5.86892e-05
5.64979e-05
5.44457e-05
5.25244e-05
5.0727e-05
4.90472e-05
4.74794e-05
4.60185e-05
4.46601e-05
4.33999e-05
4.22343e-05
4.11596e-05
4.01723e-05
3.9269e-05
3.84464e-05
3.7701e-05
3.70293e-05
3.64277e-05
3.58925e-05
3.54199e-05
3.50061e-05
3.46471e-05
3.43389e-05
3.40778e-05
3.38599e-05
3.36813e-05
3.35384e-05
3.34278e-05
3.33462e-05
3.32903e-05
3.32573e-05
3.32443e-05
3.32486e-05
3.32679e-05
3.33005e-05
3.33442e-05
3.3397e-05
3.34575e-05
3.35239e-05
3.35951e-05
3.36698e-05
3.37467e-05
3.3825e-05
3.39037e-05
3.3982e-05
3.4059e-05
3.41342e-05
3.42069e-05
3.42764e-05
3.43423e-05
3.44041e-05
3.44611e-05
3.45131e-05
3.45595e-05
3.45999e-05
3.4634e-05
3.46615e-05
3.46819e-05
3.46951e-05
3.47006e-05
0.000939683
0.000835702
0.000745859
0.000667984
0.000600268
0.000541201
0.000489518
0.000444156
0.000404221
0.000368958
0.000337729
0.000309993
0.000285288
0.000263223
0.000243461
0.000225715
0.000209737
0.000195315
0.000182265
0.000170428
0.000159667
0.00014986
0.000140904
0.000132707
0.000125189
0.00011828
0.000111918
0.000106049
0.000100626
9.56045e-05
9.09485e-05
8.66243e-05
8.26025e-05
7.88569e-05
7.53641e-05
7.21034e-05
6.90564e-05
6.62067e-05
6.35396e-05
6.10423e-05
5.87031e-05
5.6512e-05
5.44598e-05
5.25385e-05
5.0741e-05
4.9061e-05
4.74929e-05
4.60317e-05
4.46727e-05
4.3412e-05
4.22457e-05
4.11702e-05
4.0182e-05
3.92778e-05
3.84541e-05
3.77076e-05
3.70347e-05
3.64319e-05
3.58955e-05
3.54217e-05
3.50067e-05
3.46466e-05
3.43374e-05
3.40752e-05
3.38563e-05
3.36769e-05
3.35333e-05
3.3422e-05
3.33398e-05
3.32834e-05
3.325e-05
3.32367e-05
3.32407e-05
3.32599e-05
3.32925e-05
3.33361e-05
3.33891e-05
3.34496e-05
3.35163e-05
3.35877e-05
3.36626e-05
3.37399e-05
3.38185e-05
3.38975e-05
3.39762e-05
3.40537e-05
3.41293e-05
3.42023e-05
3.42723e-05
3.43387e-05
3.44008e-05
3.44583e-05
3.45106e-05
3.45574e-05
3.45982e-05
3.46326e-05
3.46602e-05
3.46808e-05
3.46941e-05
3.46997e-05
0.000939683
0.000835702
0.00074586
0.000667985
0.000600269
0.000541203
0.00048952
0.000444158
0.000404224
0.000368962
0.000337734
0.000309998
0.000285294
0.000263229
0.000243467
0.000225721
0.000209744
0.000195322
0.000182273
0.000170436
0.000159675
0.000149869
0.000140913
0.000132716
0.000125198
0.00011829
0.000111928
0.00010606
0.000100637
9.56158e-05
9.09602e-05
8.66364e-05
8.26149e-05
7.88696e-05
7.53772e-05
7.21168e-05
6.90701e-05
6.62206e-05
6.35538e-05
6.10567e-05
5.87177e-05
5.65267e-05
5.44745e-05
5.25532e-05
5.07556e-05
4.90754e-05
4.7507e-05
4.60454e-05
4.46859e-05
4.34246e-05
4.22576e-05
4.11812e-05
4.01921e-05
3.92869e-05
3.84621e-05
3.77144e-05
3.70404e-05
3.64363e-05
3.58987e-05
3.54237e-05
3.50074e-05
3.46461e-05
3.43358e-05
3.40726e-05
3.38527e-05
3.36723e-05
3.35279e-05
3.3416e-05
3.33331e-05
3.32762e-05
3.32424e-05
3.32288e-05
3.32326e-05
3.32516e-05
3.32841e-05
3.33278e-05
3.33808e-05
3.34414e-05
3.35083e-05
3.35799e-05
3.36551e-05
3.37327e-05
3.38116e-05
3.38911e-05
3.39701e-05
3.4048e-05
3.4124e-05
3.41976e-05
3.4268e-05
3.43347e-05
3.43973e-05
3.44552e-05
3.4508e-05
3.45551e-05
3.45962e-05
3.46309e-05
3.46588e-05
3.46796e-05
3.4693e-05
3.46987e-05
0.000939683
0.000835703
0.00074586
0.000667985
0.00060027
0.000541204
0.000489522
0.000444161
0.000404227
0.000368965
0.000337738
0.000310002
0.000285299
0.000263234
0.000243473
0.000225727
0.00020975
0.000195329
0.00018228
0.000170444
0.000159683
0.000149877
0.000140922
0.000132726
0.000125208
0.0001183
0.000111939
0.000106071
0.000100648
9.56275e-05
9.09722e-05
8.66488e-05
8.26277e-05
7.88828e-05
7.53906e-05
7.21306e-05
6.90842e-05
6.6235e-05
6.35685e-05
6.10716e-05
5.87328e-05
5.65418e-05
5.44897e-05
5.25684e-05
5.07707e-05
4.90903e-05
4.75216e-05
4.60595e-05
4.46996e-05
4.34376e-05
4.22699e-05
4.11927e-05
4.02026e-05
3.92963e-05
3.84704e-05
3.77215e-05
3.70462e-05
3.64409e-05
3.5902e-05
3.54257e-05
3.50082e-05
3.46456e-05
3.43342e-05
3.40699e-05
3.38489e-05
3.36677e-05
3.35224e-05
3.34097e-05
3.33262e-05
3.32688e-05
3.32346e-05
3.32206e-05
3.32242e-05
3.3243e-05
3.32754e-05
3.33191e-05
3.33721e-05
3.34329e-05
3.34999e-05
3.35718e-05
3.36473e-05
3.37252e-05
3.38045e-05
3.38843e-05
3.39638e-05
3.40421e-05
3.41185e-05
3.41925e-05
3.42634e-05
3.43306e-05
3.43936e-05
3.44519e-05
3.45051e-05
3.45526e-05
3.4594e-05
3.4629e-05
3.46571e-05
3.46782e-05
3.46917e-05
3.46974e-05
0.000939683
0.000835703
0.000745861
0.000667986
0.000600272
0.000541206
0.000489524
0.000444163
0.00040423
0.000368969
0.000337742
0.000310007
0.000285304
0.000263239
0.000243479
0.000225734
0.000209757
0.000195337
0.000182288
0.000170452
0.000159692
0.000149886
0.000140931
0.000132735
0.000125218
0.00011831
0.00011195
0.000106082
0.000100659
9.56394e-05
9.09845e-05
8.66615e-05
8.26408e-05
7.88963e-05
7.54045e-05
7.21448e-05
6.90987e-05
6.62499e-05
6.35836e-05
6.10869e-05
5.87483e-05
5.65574e-05
5.45054e-05
5.2584e-05
5.07862e-05
4.91056e-05
4.75365e-05
4.60741e-05
4.47136e-05
4.3451e-05
4.22825e-05
4.12044e-05
4.02134e-05
3.9306e-05
3.8479e-05
3.77289e-05
3.70523e-05
3.64457e-05
3.59054e-05
3.54278e-05
3.5009e-05
3.46452e-05
3.43325e-05
3.40671e-05
3.38452e-05
3.36629e-05
3.35168e-05
3.34034e-05
3.33192e-05
3.32613e-05
3.32265e-05
3.32122e-05
3.32155e-05
3.32342e-05
3.32665e-05
3.33101e-05
3.33632e-05
3.34241e-05
3.34913e-05
3.35634e-05
3.36392e-05
3.37174e-05
3.37971e-05
3.38773e-05
3.39571e-05
3.40359e-05
3.41128e-05
3.41872e-05
3.42586e-05
3.43262e-05
3.43897e-05
3.44484e-05
3.4502e-05
3.45499e-05
3.45916e-05
3.46269e-05
3.46553e-05
3.46765e-05
3.46902e-05
3.4696e-05
0.000939683
0.000835703
0.000745861
0.000667987
0.000600273
0.000541208
0.000489526
0.000444166
0.000404233
0.000368972
0.000337745
0.000310011
0.000285308
0.000263245
0.000243484
0.00022574
0.000209764
0.000195344
0.000182295
0.00017046
0.0001597
0.000149895
0.00014094
0.000132745
0.000125228
0.000118321
0.000111961
0.000106093
0.000100671
9.56516e-05
9.09971e-05
8.66745e-05
8.26542e-05
7.891e-05
7.54186e-05
7.21593e-05
6.91136e-05
6.6265e-05
6.3599e-05
6.11025e-05
5.87641e-05
5.65734e-05
5.45214e-05
5.26e-05
5.0802e-05
4.91212e-05
4.75519e-05
4.6089e-05
4.4728e-05
4.34647e-05
4.22954e-05
4.12165e-05
4.02244e-05
3.9316e-05
3.84878e-05
3.77364e-05
3.70586e-05
3.64506e-05
3.5909e-05
3.543e-05
3.50099e-05
3.46448e-05
3.43309e-05
3.40644e-05
3.38413e-05
3.36581e-05
3.35111e-05
3.33969e-05
3.33121e-05
3.32535e-05
3.32183e-05
3.32037e-05
3.32067e-05
3.32251e-05
3.32573e-05
3.33009e-05
3.33541e-05
3.34151e-05
3.34825e-05
3.35548e-05
3.36308e-05
3.37094e-05
3.37894e-05
3.387e-05
3.39503e-05
3.40295e-05
3.41068e-05
3.41817e-05
3.42535e-05
3.43216e-05
3.43855e-05
3.44447e-05
3.44987e-05
3.45469e-05
3.45891e-05
3.46246e-05
3.46533e-05
3.46747e-05
3.46885e-05
3.46943e-05
0.000939683
0.000835703
0.000745862
0.000667988
0.000600274
0.000541209
0.000489528
0.000444168
0.000404236
0.000368975
0.000337749
0.000310015
0.000285313
0.00026325
0.00024349
0.000225746
0.00020977
0.000195351
0.000182303
0.000170468
0.000159708
0.000149904
0.000140949
0.000132754
0.000125238
0.000118331
0.000111972
0.000106105
0.000100683
9.56638e-05
9.10098e-05
8.66876e-05
8.26678e-05
7.8924e-05
7.5433e-05
7.21741e-05
6.91287e-05
6.62804e-05
6.36147e-05
6.11185e-05
5.87802e-05
5.65896e-05
5.45377e-05
5.26162e-05
5.08182e-05
4.91371e-05
4.75674e-05
4.61041e-05
4.47425e-05
4.34786e-05
4.23085e-05
4.12287e-05
4.02357e-05
3.93261e-05
3.84967e-05
3.77441e-05
3.70649e-05
3.64557e-05
3.59127e-05
3.54324e-05
3.50109e-05
3.46445e-05
3.43294e-05
3.40616e-05
3.38375e-05
3.36533e-05
3.35054e-05
3.33903e-05
3.33048e-05
3.32457e-05
3.321e-05
3.31949e-05
3.31977e-05
3.32159e-05
3.3248e-05
3.32916e-05
3.33448e-05
3.34059e-05
3.34734e-05
3.3546e-05
3.36223e-05
3.37012e-05
3.37816e-05
3.38626e-05
3.39432e-05
3.40229e-05
3.41007e-05
3.4176e-05
3.42483e-05
3.43168e-05
3.43812e-05
3.44408e-05
3.44952e-05
3.45438e-05
3.45863e-05
3.46222e-05
3.46511e-05
3.46727e-05
3.46866e-05
3.46925e-05
0.000939683
0.000835704
0.000745862
0.000667989
0.000600275
0.00054121
0.00048953
0.00044417
0.000404238
0.000368978
0.000337753
0.000310019
0.000285317
0.000263255
0.000243495
0.000225752
0.000209777
0.000195357
0.00018231
0.000170476
0.000159717
0.000149912
0.000140959
0.000132764
0.000125248
0.000118342
0.000111983
0.000106116
0.000100695
9.56762e-05
9.10226e-05
8.67009e-05
8.26815e-05
7.89381e-05
7.54476e-05
7.2189e-05
6.9144e-05
6.6296e-05
6.36306e-05
6.11346e-05
5.87965e-05
5.66061e-05
5.45541e-05
5.26327e-05
5.08345e-05
4.91532e-05
4.75832e-05
4.61194e-05
4.47573e-05
4.34927e-05
4.23219e-05
4.12411e-05
4.02471e-05
3.93364e-05
3.85058e-05
3.7752e-05
3.70714e-05
3.64608e-05
3.59165e-05
3.54347e-05
3.50119e-05
3.46442e-05
3.43278e-05
3.40589e-05
3.38337e-05
3.36484e-05
3.34996e-05
3.33837e-05
3.32975e-05
3.32378e-05
3.32016e-05
3.31861e-05
3.31886e-05
3.32066e-05
3.32385e-05
3.32821e-05
3.33353e-05
3.33965e-05
3.34643e-05
3.3537e-05
3.36136e-05
3.36928e-05
3.37735e-05
3.38549e-05
3.3936e-05
3.40161e-05
3.40943e-05
3.41701e-05
3.42429e-05
3.43119e-05
3.43767e-05
3.44367e-05
3.44915e-05
3.45405e-05
3.45833e-05
3.46195e-05
3.46487e-05
3.46705e-05
3.46846e-05
3.46905e-05
0.000939683
0.000835704
0.000745862
0.000667989
0.000600276
0.000541212
0.000489531
0.000444172
0.000404241
0.000368981
0.000337756
0.000310023
0.000285322
0.00026326
0.000243501
0.000225758
0.000209783
0.000195364
0.000182317
0.000170484
0.000159725
0.000149921
0.000140968
0.000132773
0.000125258
0.000118352
0.000111994
0.000106128
0.000100707
9.56886e-05
9.10355e-05
8.67142e-05
8.26952e-05
7.89523e-05
7.54622e-05
7.2204e-05
6.91593e-05
6.63118e-05
6.36466e-05
6.11509e-05
5.8813e-05
5.66226e-05
5.45707e-05
5.26492e-05
5.08509e-05
4.91694e-05
4.75991e-05
4.61349e-05
4.47722e-05
4.3507e-05
4.23353e-05
4.12537e-05
4.02586e-05
3.93468e-05
3.8515e-05
3.77599e-05
3.7078e-05
3.6466e-05
3.59203e-05
3.54372e-05
3.5013e-05
3.4644e-05
3.43263e-05
3.40562e-05
3.38298e-05
3.36436e-05
3.34938e-05
3.33771e-05
3.32902e-05
3.32298e-05
3.31931e-05
3.31772e-05
3.31794e-05
3.31972e-05
3.3229e-05
3.32725e-05
3.33257e-05
3.33871e-05
3.34549e-05
3.35279e-05
3.36048e-05
3.36843e-05
3.37654e-05
3.38471e-05
3.39287e-05
3.40091e-05
3.40879e-05
3.41641e-05
3.42373e-05
3.43068e-05
3.4372e-05
3.44325e-05
3.44877e-05
3.45371e-05
3.45802e-05
3.46167e-05
3.46461e-05
3.46681e-05
3.46823e-05
3.46883e-05
0.000939683
0.000835704
0.000745863
0.00066799
0.000600277
0.000541213
0.000489533
0.000444174
0.000404243
0.000368984
0.000337759
0.000310027
0.000285326
0.000263264
0.000243506
0.000225763
0.000209789
0.000195371
0.000182324
0.000170491
0.000159733
0.000149929
0.000140977
0.000132783
0.000125268
0.000118363
0.000112005
0.000106139
0.000100719
9.5701e-05
9.10484e-05
8.67275e-05
8.2709e-05
7.89666e-05
7.54768e-05
7.22191e-05
6.91748e-05
6.63275e-05
6.36626e-05
6.11671e-05
5.88294e-05
5.66392e-05
5.45874e-05
5.26659e-05
5.08674e-05
4.91857e-05
4.76151e-05
4.61504e-05
4.47872e-05
4.35213e-05
4.23488e-05
4.12663e-05
4.02702e-05
3.93573e-05
3.85243e-05
3.77679e-05
3.70847e-05
3.64713e-05
3.59242e-05
3.54397e-05
3.50142e-05
3.46438e-05
3.43249e-05
3.40535e-05
3.38261e-05
3.36388e-05
3.34881e-05
3.33706e-05
3.32829e-05
3.32219e-05
3.31847e-05
3.31684e-05
3.31702e-05
3.31877e-05
3.32194e-05
3.32628e-05
3.33161e-05
3.33775e-05
3.34455e-05
3.35188e-05
3.35958e-05
3.36757e-05
3.37571e-05
3.38393e-05
3.39212e-05
3.40021e-05
3.40813e-05
3.4158e-05
3.42316e-05
3.43015e-05
3.43672e-05
3.44281e-05
3.44837e-05
3.45335e-05
3.4577e-05
3.46137e-05
3.46434e-05
3.46656e-05
3.46799e-05
3.4686e-05
0.000939683
0.000835704
0.000745863
0.00066799
0.000600278
0.000541214
0.000489534
0.000444176
0.000404245
0.000368987
0.000337762
0.00031003
0.00028533
0.000263269
0.000243511
0.000225769
0.000209795
0.000195377
0.000182331
0.000170498
0.000159741
0.000149938
0.000140986
0.000132792
0.000125278
0.000118373
0.000112015
0.000106151
0.000100731
9.57134e-05
9.10612e-05
8.67408e-05
8.27228e-05
7.89808e-05
7.54915e-05
7.22341e-05
6.91902e-05
6.63433e-05
6.36787e-05
6.11834e-05
5.88459e-05
5.66558e-05
5.46041e-05
5.26825e-05
5.08839e-05
4.9202e-05
4.7631e-05
4.61659e-05
4.48022e-05
4.35356e-05
4.23623e-05
4.12789e-05
4.02818e-05
3.93678e-05
3.85336e-05
3.77759e-05
3.70914e-05
3.64767e-05
3.59282e-05
3.54423e-05
3.50154e-05
3.46437e-05
3.43235e-05
3.40509e-05
3.38223e-05
3.3634e-05
3.34824e-05
3.3364e-05
3.32756e-05
3.3214e-05
3.31762e-05
3.31595e-05
3.3161e-05
3.31783e-05
3.32098e-05
3.32532e-05
3.33064e-05
3.33679e-05
3.34361e-05
3.35095e-05
3.35869e-05
3.3667e-05
3.37488e-05
3.38313e-05
3.39136e-05
3.3995e-05
3.40745e-05
3.41517e-05
3.42258e-05
3.42962e-05
3.43623e-05
3.44236e-05
3.44796e-05
3.45297e-05
3.45735e-05
3.46106e-05
3.46405e-05
3.46629e-05
3.46774e-05
3.46835e-05
0.000939683
0.000835704
0.000745864
0.000667991
0.000600278
0.000541215
0.000489536
0.000444178
0.000404248
0.000368989
0.000337765
0.000310034
0.000285334
0.000263273
0.000243516
0.000225774
0.000209801
0.000195383
0.000182338
0.000170506
0.000159748
0.000149946
0.000140994
0.000132802
0.000125288
0.000118383
0.000112026
0.000106162
0.000100742
9.57256e-05
9.10739e-05
8.6754e-05
8.27364e-05
7.89949e-05
7.5506e-05
7.2249e-05
6.92055e-05
6.63589e-05
6.36946e-05
6.11996e-05
5.88623e-05
5.66723e-05
5.46206e-05
5.2699e-05
5.09003e-05
4.92182e-05
4.76469e-05
4.61814e-05
4.48171e-05
4.35498e-05
4.23758e-05
4.12914e-05
4.02933e-05
3.93782e-05
3.85429e-05
3.77839e-05
3.70981e-05
3.6482e-05
3.59321e-05
3.54449e-05
3.50167e-05
3.46437e-05
3.43222e-05
3.40484e-05
3.38187e-05
3.36293e-05