/*--------------------------------*- C++ -*----------------------------------*\
  =========                 |
  \\      /  F ield         | OpenFOAM: The Open Source CFD Toolbox
   \\    /   O peration     | Website:  https://openfoam.org
    \\  /    A nd           | Version:  11
     \\/     M anipulation  |
\*---------------------------------------------------------------------------*/
FoamFile
{
    format      ascii;
    class       volScalarField;
    location    "294";
    object      nut;
}
// * * * * * * * * * * * * * * * * * * * * * * * * * * * * * * * * * * * * * //

dimensions      [0 2 -1 0 0 0 0];

internalField   nonuniform List<scalar> 
10000
(
0.000977109
0.000936677
0.000899592
0.000865534
0.000834216
0.000805377
0.000778786
0.000754234
0.000731531
0.00071051
0.000691018
0.000672916
0.000656081
0.000640401
0.000625776
0.000612114
0.000599332
0.000587356
0.000576119
0.00056556
0.000555623
0.000546259
0.000537423
0.000529074
0.000521175
0.000513694
0.000506602
0.000499873
0.000493483
0.000487413
0.000481647
0.000476171
0.000470973
0.000466045
0.000461383
0.000456985
0.00045285
0.000448985
0.000445395
0.000442092
0.000439091
0.000436407
0.000434063
0.000432082
0.000430492
0.000429321
0.000428601
0.000428365
0.000428648
0.000429482
0.000430901
0.000432933
0.000435606
0.000438942
0.000442955
0.000447657
0.000453048
0.000459122
0.000465866
0.000473257
0.000481265
0.000489855
0.000498983
0.000508602
0.000518658
0.000529092
0.000539847
0.000550861
0.000562074
0.000573429
0.000584868
0.000596339
0.000607783
0.000619161
0.000630431
0.000641548
0.000652474
0.000663176
0.000673623
0.000683788
0.000693646
0.000703176
0.000712357
0.000721173
0.000729608
0.000737648
0.000745278
0.000752488
0.000759264
0.000765593
0.000771462
0.000776857
0.000781761
0.000786158
0.000790026
0.000793343
0.00079608
0.000798204
0.000799673
0.00080044
0.000977109
0.000936677
0.000899593
0.000865535
0.000834216
0.000805378
0.000778787
0.000754235
0.000731532
0.000710511
0.000691019
0.000672917
0.000656082
0.000640403
0.000625777
0.000612115
0.000599333
0.000587358
0.000576121
0.000565562
0.000555625
0.000546261
0.000537425
0.000529076
0.000521178
0.000513697
0.000506605
0.000499876
0.000493486
0.000487417
0.000481651
0.000476175
0.000470977
0.00046605
0.000461388
0.000456989
0.000452855
0.00044899
0.0004454
0.000442098
0.000439096
0.000436412
0.000434068
0.000432087
0.000430496
0.000429324
0.000428604
0.000428367
0.000428648
0.000429481
0.000430898
0.000432928
0.000435598
0.000438931
0.000442942
0.00044764
0.000453028
0.000459099
0.000465841
0.000473229
0.000481236
0.000489823
0.000498949
0.000508565
0.000518616
0.000529047
0.000539797
0.000550808
0.000562019
0.000573372
0.000584811
0.000596281
0.000607725
0.000619104
0.000630374
0.000641492
0.00065242
0.000663123
0.000673572
0.000683738
0.000693598
0.000703129
0.000712313
0.000721131
0.000729567
0.000737609
0.000745242
0.000752453
0.000759231
0.000765562
0.000771432
0.000776829
0.000781735
0.000786133
0.000790003
0.000793321
0.000796059
0.000798184
0.000799654
0.000800421
0.000977109
0.000936678
0.000899593
0.000865536
0.000834218
0.000805379
0.000778789
0.000754236
0.000731535
0.000710514
0.000691021
0.000672919
0.000656085
0.000640406
0.00062578
0.000612118
0.000599337
0.000587361
0.000576124
0.000565565
0.000555629
0.000546265
0.000537429
0.00052908
0.000521182
0.000513702
0.00050661
0.000499881
0.000493492
0.000487423
0.000481657
0.000476181
0.000470983
0.000466056
0.000461395
0.000456996
0.000452862
0.000448997
0.000445407
0.000442104
0.000439102
0.000436418
0.000434073
0.00043209
0.000430498
0.000429324
0.000428601
0.000428362
0.00042864
0.000429468
0.00043088
0.000432906
0.000435571
0.000438897
0.000442901
0.000447593
0.000452974
0.000459038
0.000465773
0.000473155
0.000481155
0.000489736
0.000498855
0.000508465
0.00051851
0.000528935
0.00053968
0.000550687
0.000561895
0.000573246
0.000584684
0.000596154
0.000607599
0.000618978
0.000630251
0.000641371
0.000652301
0.000663008
0.00067346
0.00068363
0.000693494
0.000703029
0.000712217
0.000721039
0.00072948
0.000737526
0.000745163
0.000752379
0.000759161
0.000765496
0.000771371
0.000776771
0.000781681
0.000786082
0.000789955
0.000793276
0.000796017
0.000798144
0.000799616
0.000800383
0.000977109
0.000936678
0.000899594
0.000865537
0.000834219
0.000805381
0.000778791
0.000754239
0.000731537
0.000710517
0.000691024
0.000672923
0.000656089
0.000640409
0.000625784
0.000612122
0.000599341
0.000587366
0.000576129
0.00056557
0.000555634
0.000546271
0.000537435
0.000529087
0.000521189
0.000513709
0.000506617
0.000499889
0.0004935
0.000487431
0.000481666
0.00047619
0.000470993
0.000466066
0.000461405
0.000457007
0.000452873
0.000449007
0.000445417
0.000442114
0.00043911
0.000436425
0.000434079
0.000432094
0.000430499
0.000429322
0.000428595
0.000428352
0.000428624
0.000429447
0.000430852
0.00043287
0.000435527
0.000438844
0.000442839
0.00044752
0.000452891
0.000458944
0.000465668
0.000473039
0.000481029
0.000489601
0.000498711
0.00050831
0.000518347
0.000528764
0.000539503
0.000550505
0.000561709
0.000573057
0.000584494
0.000595964
0.000607409
0.000618791
0.000630065
0.000641189
0.000652123
0.000662834
0.000673292
0.000683468
0.000693337
0.000702879
0.000712073
0.000720902
0.00072935
0.000737402
0.000745046
0.000752269
0.000759057
0.000765398
0.000771279
0.000776685
0.0007816
0.000786007
0.000789885
0.00079321
0.000795955
0.000798085
0.000799558
0.000800327
0.00097711
0.000936679
0.000899595
0.000865539
0.000834221
0.000805384
0.000778794
0.000754242
0.000731541
0.000710521
0.000691029
0.000672928
0.000656093
0.000640415
0.00062579
0.000612128
0.000599347
0.000587372
0.000576136
0.000565577
0.000555641
0.000546278
0.000537443
0.000529095
0.000521198
0.000513718
0.000506627
0.000499899
0.000493511
0.000487442
0.000481678
0.000476202
0.000471005
0.000466079
0.000461418
0.00045702
0.000452886
0.00044902
0.00044543
0.000442126
0.000439121
0.000436435
0.000434086
0.000432099
0.000430501
0.00042932
0.000428588
0.000428339
0.000428605
0.00042942
0.000430816
0.000432824
0.00043547
0.000438775
0.000442757
0.000447426
0.000452782
0.000458822
0.000465532
0.000472889
0.000480865
0.000489424
0.000498521
0.000508109
0.000518135
0.000528543
0.000539273
0.000550268
0.000561467
0.000572812
0.000584247
0.000595717
0.000607163
0.000618546
0.000629824
0.000640952
0.000651891
0.000662608
0.000673072
0.000683255
0.000693133
0.000702682
0.000711885
0.000720722
0.000729179
0.00073724
0.000744893
0.000752124
0.00075892
0.00076527
0.000771159
0.000776572
0.000781495
0.000785908
0.000789792
0.000793123
0.000795873
0.000798007
0.000799483
0.000800253
0.00097711
0.000936679
0.000899597
0.000865541
0.000834224
0.000805387
0.000778797
0.000754246
0.000731545
0.000710525
0.000691034
0.000672933
0.000656099
0.000640421
0.000625796
0.000612135
0.000599354
0.00058738
0.000576144
0.000565586
0.00055565
0.000546288
0.000537453
0.000529105
0.000521209
0.00051373
0.000506639
0.000499912
0.000493524
0.000487456
0.000481692
0.000476217
0.000471021
0.000466095
0.000461434
0.000457037
0.000452903
0.000449037
0.000445446
0.000442141
0.000439135
0.000436447
0.000434096
0.000432106
0.000430503
0.000429318
0.00042858
0.000428323
0.000428581
0.000429387
0.000430773
0.000432769
0.000435401
0.000438693
0.000442659
0.000447312
0.000452652
0.000458674
0.000465367
0.000472707
0.000480667
0.000489209
0.000498291
0.000507865
0.000517878
0.000528274
0.000538995
0.000549982
0.000561174
0.000572515
0.000583947
0.000595416
0.000606863
0.000618249
0.00062953
0.000640663
0.000651609
0.000662333
0.000672805
0.000682996
0.000692883
0.000702443
0.000711655
0.000720503
0.00072897
0.000737042
0.000744705
0.000751947
0.000758754
0.000765113
0.000771012
0.000776435
0.000781366
0.000785788
0.000789679
0.000793017
0.000795772
0.00079791
0.00079939
0.000800161
0.00097711
0.00093668
0.000899598
0.000865543
0.000834226
0.00080539
0.000778801
0.00075425
0.00073155
0.00071053
0.000691039
0.000672939
0.000656106
0.000640428
0.000625804
0.000612143
0.000599363
0.000587389
0.000576153
0.000565596
0.000555661
0.000546299
0.000537465
0.000529118
0.000521222
0.000513743
0.000506654
0.000499927
0.00049354
0.000487473
0.000481709
0.000476235
0.00047104
0.000466114
0.000461454
0.000457056
0.000452923
0.000449056
0.000445465
0.000442159
0.000439152
0.000436461
0.000434107
0.000432114
0.000430507
0.000429316
0.000428571
0.000428307
0.000428555
0.00042935
0.000430723
0.000432705
0.000435323
0.000438598
0.000442547
0.00044718
0.000452501
0.000458504
0.000465176
0.000472497
0.000480437
0.00048896
0.000498025
0.000507582
0.00051758
0.000527963
0.000538672
0.00054965
0.000560835
0.000572171
0.0005836
0.000595067
0.000606515
0.000617903
0.000629189
0.000640327
0.000651279
0.000662011
0.000672492
0.000682694
0.000692591
0.000702162
0.000711386
0.000720246
0.000728725
0.00073681
0.000744485
0.000751739
0.000758558
0.000764929
0.000770839
0.000776273
0.000781215
0.000785646
0.000789546
0.000792891
0.000795653
0.000797796
0.000799279
0.000800051
0.00097711
0.000936681
0.000899599
0.000865545
0.000834229
0.000805393
0.000778805
0.000754255
0.000731555
0.000710536
0.000691046
0.000672946
0.000656113
0.000640436
0.000625812
0.000612152
0.000599372
0.000587399
0.000576164
0.000565607
0.000555673
0.000546311
0.000537478
0.000529132
0.000521236
0.000513759
0.00050667
0.000499944
0.000493558
0.000487492
0.000481729
0.000476256
0.000471061
0.000466137
0.000461477
0.00045708
0.000452946
0.000449079
0.000445487
0.00044218
0.000439172
0.000436479
0.000434122
0.000432124
0.000430512
0.000429314
0.000428562
0.000428289
0.000428527
0.000429309
0.000430669
0.000432635
0.000435236
0.000438492
0.000442422
0.000447034
0.000452333
0.000458314
0.000464964
0.000472262
0.00048018
0.000488682
0.000497726
0.000507265
0.000517246
0.000527614
0.00053831
0.000549276
0.000560453
0.000571783
0.000583208
0.000594674
0.000606122
0.000617512
0.000628802
0.000639946
0.000650906
0.000661647
0.000672138
0.000682351
0.00069226
0.000701843
0.000711081
0.000719954
0.000728447
0.000736545
0.000744235
0.000751503
0.000758335
0.00076472
0.000770643
0.000776089
0.000781042
0.000785484
0.000789394
0.000792748
0.000795516
0.000797665
0.000799152
0.000799925
0.00097711
0.000936682
0.0008996
0.000865546
0.000834231
0.000805396
0.000778809
0.000754259
0.00073156
0.000710542
0.000691052
0.000672953
0.000656121
0.000640444
0.000625821
0.000612162
0.000599383
0.00058741
0.000576176
0.00056562
0.000555686
0.000546326
0.000537493
0.000529148
0.000521253
0.000513777
0.000506689
0.000499964
0.000493579
0.000487514
0.000481752
0.00047628
0.000471086
0.000466162
0.000461503
0.000457106
0.000452972
0.000449106
0.000445513
0.000442205
0.000439194
0.000436499
0.000434138
0.000432136
0.000430519
0.000429314
0.000428554
0.00042827
0.000428496
0.000429266
0.00043061
0.00043256
0.000435142
0.000438378
0.000442285
0.000446875
0.00045215
0.000458106
0.000464731
0.000472004
0.000479898
0.000488377
0.000497399
0.000506917
0.000516879
0.00052723
0.000537912
0.000548866
0.000560034
0.000571356
0.000582776
0.00059424
0.000605689
0.000617081
0.000628376
0.000639526
0.000650494
0.000661245
0.000671746
0.000681971
0.000691893
0.00070149
0.000710742
0.00071963
0.000728138
0.000736252
0.000743957
0.00075124
0.000758088
0.000764487
0.000770424
0.000775884
0.00078085
0.000785304
0.000789224
0.000792587
0.000795363
0.000797518
0.000799009
0.000799783
0.000977111
0.000936682
0.000899602
0.000865548
0.000834234
0.000805399
0.000778812
0.000754264
0.000731566
0.000710548
0.000691059
0.000672961
0.000656129
0.000640453
0.000625831
0.000612172
0.000599394
0.000587422
0.000576189
0.000565633
0.000555701
0.000546341
0.00053751
0.000529165
0.000521272
0.000513796
0.00050671
0.000499986
0.000493602
0.000487538
0.000481777
0.000476306
0.000471113
0.00046619
0.000461532
0.000457135
0.000453002
0.000449135
0.000445542
0.000442232
0.00043922
0.000436522
0.000434158
0.000432151
0.000430527
0.000429315
0.000428546
0.000428252
0.000428465
0.00042922
0.000430548
0.00043248
0.000435042
0.000438256
0.00044214
0.000446705
0.000451954
0.000457883
0.000464481
0.000471728
0.000479596
0.000488049
0.000497047
0.000506543
0.000516484
0.000526817
0.000537483
0.000548423
0.00055958
0.000570894
0.00058231
0.000593771
0.000605219
0.000616614
0.000627913
0.00063907
0.000650046
0.000660806
0.00067132
0.000681557
0.000691493
0.000701105
0.000710372
0.000719276
0.000727801
0.000735931
0.000743652
0.000750952
0.000757816
0.000764232
0.000770184
0.000775659
0.000780638
0.000785105
0.000789037
0.00079241
0.000795195
0.000797356
0.000798851
0.000799627
0.000977111
0.000936683
0.000899603
0.00086555
0.000834236
0.000805402
0.000778816
0.000754269
0.000731571
0.000710554
0.000691066
0.000672969
0.000656138
0.000640463
0.000625841
0.000612183
0.000599406
0.000587435
0.000576202
0.000565648
0.000555717
0.000546358
0.000537527
0.000529184
0.000521292
0.000513818
0.000506732
0.00050001
0.000493627
0.000487564
0.000481805
0.000476335
0.000471143
0.000466221
0.000461563
0.000457168
0.000453034
0.000449167
0.000445574
0.000442263
0.000439249
0.000436548
0.00043418
0.000432168
0.000430537
0.000429318
0.000428539
0.000428233
0.000428434
0.000429173
0.000430484
0.000432396
0.000434937
0.000438128
0.000441987
0.000446525
0.000451747
0.000457648
0.000464217
0.000471435
0.000479275
0.000487701
0.000496673
0.000506144
0.000516064
0.000526377
0.000537025
0.000547952
0.000559097
0.000570402
0.000581811
0.000593269
0.000604717
0.000616113
0.000627417
0.00063858
0.000649565
0.000660336
0.000670861
0.000681112
0.000691063
0.00070069
0.000709974
0.000718895
0.000727437
0.000735585
0.000743324
0.000750641
0.000757523
0.000763956
0.000769925
0.000775415
0.000780409
0.00078489
0.000788834
0.000792218
0.000795012
0.000797179
0.000798679
0.000799457
0.000977111
0.000936683
0.000899604
0.000865552
0.000834238
0.000805406
0.00077882
0.000754273
0.000731577
0.000710561
0.000691073
0.000672977
0.000656147
0.000640472
0.000625852
0.000612195
0.000599419
0.000587448
0.000576217
0.000565664
0.000555733
0.000546376
0.000537547
0.000529205
0.000521314
0.000513841
0.000506757
0.000500035
0.000493654
0.000487593
0.000481835
0.000476366
0.000471176
0.000466255
0.000461598
0.000457203
0.00045307
0.000449203
0.000445608
0.000442296
0.00043928
0.000436576
0.000434204
0.000432187
0.00043055
0.000429322
0.000428533
0.000428216
0.000428402
0.000429126
0.000430418
0.00043231
0.000434828
0.000437994
0.000441827
0.000446338
0.00045153
0.000457402
0.000463941
0.000471129
0.000478938
0.000487336
0.00049628
0.000505726
0.000515622
0.000525914
0.000536544
0.000547454
0.000558587
0.000569882
0.000581285
0.000592739
0.000604186
0.000615584
0.000626892
0.000638062
0.000649056
0.000659837
0.000670375
0.00068064
0.000690606
0.000700249
0.00070955
0.000718489
0.000727049
0.000735216
0.000742974
0.00075031
0.00075721
0.000763661
0.000769647
0.000775154
0.000780164
0.000784659
0.000788616
0.000792011
0.000794814
0.00079699
0.000798494
0.000799275
0.000977111
0.000936684
0.000899605
0.000865553
0.000834241
0.000805408
0.000778824
0.000754278
0.000731582
0.000710567
0.00069108
0.000672985
0.000656156
0.000640483
0.000625863
0.000612207
0.000599432
0.000587463
0.000576232
0.00056568
0.000555751
0.000546395
0.000537567
0.000529226
0.000521337
0.000513865
0.000506783
0.000500063
0.000493683
0.000487623
0.000481867
0.0004764
0.000471211
0.000466291
0.000461635
0.000457241
0.000453108
0.000449241
0.000445646
0.000442333
0.000439314
0.000436607
0.000434231
0.000432208
0.000430564
0.000429328
0.000428529
0.000428199
0.000428371
0.000429078
0.000430351
0.000432222
0.000434716
0.000437857
0.000441663
0.000446144
0.000451307
0.000457147
0.000463654
0.000470811
0.000478589
0.000486956
0.000495872
0.000505291
0.000515162
0.000525431
0.000536042
0.000546936
0.000558054
0.00056934
0.000580735
0.000592184
0.000603631
0.00061503
0.000626342
0.000637518
0.000648521
0.000659313
0.000669864
0.000680143
0.000690124
0.000699785
0.000709103
0.000718061
0.000726641
0.000734827
0.000742604
0.00074996
0.000756879
0.000763348
0.000769353
0.000774877
0.000779904
0.000784413
0.000788384
0.000791791
0.000794604
0.000796787
0.000798297
0.00079908
0.000977111
0.000936684
0.000899606
0.000865555
0.000834243
0.000805411
0.000778828
0.000754282
0.000731587
0.000710573
0.000691088
0.000672993
0.000656165
0.000640493
0.000625875
0.000612219
0.000599445
0.000587477
0.000576248
0.000565697
0.000555769
0.000546415
0.000537588
0.000529249
0.000521361
0.000513891
0.00050681
0.000500092
0.000493714
0.000487656
0.000481901
0.000476435
0.000471248
0.000466329
0.000461674
0.000457281
0.000453149
0.000449282
0.000445686
0.000442371
0.000439351
0.000436641
0.00043426
0.000432232
0.000430581
0.000429336
0.000428526
0.000428183
0.00042834
0.00042903
0.000430284
0.000432132
0.000434603
0.000437717
0.000441494
0.000445946
0.000451077
0.000456885
0.00046336
0.000470483
0.000478229
0.000486565
0.000495451
0.000504842
0.000514687
0.000524932
0.000535522
0.000546399
0.000557503
0.000568777
0.000580164
0.000591609
0.000603053
0.000614453
0.000625769
0.000636952
0.000647964
0.000658767
0.000669331
0.000679624
0.000689622
0.0006993
0.000708637
0.000717614
0.000726213
0.000734419
0.000742217
0.000749592
0.000756532
0.00076302
0.000769044
0.000774586
0.000779629
0.000784155
0.00078814
0.000791559
0.000794382
0.000796573
0.000798088
0.000798874
0.000977111
0.000936685
0.000899607
0.000865556
0.000834245
0.000805414
0.000778831
0.000754287
0.000731593
0.000710579
0.000691095
0.000673001
0.000656174
0.000640503
0.000625886
0.000612232
0.000599459
0.000587492
0.000576265
0.000565715
0.000555789
0.000546435
0.00053761
0.000529273
0.000521386
0.000513918
0.000506839
0.000500122
0.000493746
0.00048769
0.000481937
0.000476473
0.000471287
0.00046637
0.000461716
0.000457323
0.000453192
0.000449325
0.000445729
0.000442413
0.00043939
0.000436677
0.000434292
0.000432258
0.0004306
0.000429345
0.000428524
0.000428168
0.00042831
0.000428982
0.000430216
0.000432042
0.000434488
0.000437575
0.000441324
0.000445744
0.000450843
0.000456618
0.000463059
0.000470148
0.000477861
0.000486165
0.000495019
0.000504381
0.000514199
0.00052442
0.000534989
0.000545846
0.000556935
0.000568197
0.000579576
0.000591015
0.000602458
0.000613858
0.000625178
0.000636367
0.000647388
0.000658202
0.000668779
0.000679087
0.000689101
0.000698797
0.000708152
0.000717149
0.000725768
0.000733995
0.000741813
0.00074921
0.00075617
0.000762678
0.000768721
0.000774282
0.000779343
0.000783884
0.000787884
0.000791316
0.00079415
0.000796349
0.00079787
0.000798658
0.000977112
0.000936685
0.000899608
0.000865558
0.000834247
0.000805417
0.000778834
0.000754291
0.000731598
0.000710586
0.000691102
0.000673009
0.000656184
0.000640513
0.000625897
0.000612245
0.000599473
0.000587508
0.000576281
0.000565733
0.000555808
0.000546457
0.000537633
0.000529297
0.000521412
0.000513946
0.000506869
0.000500154
0.00049378
0.000487725
0.000481974
0.000476512
0.000471327
0.000466412
0.00046176
0.000457368
0.000453237
0.00044937
0.000445773
0.000442456
0.000439432
0.000436715
0.000434326
0.000432286
0.00043062
0.000429357
0.000428524
0.000428155
0.000428282
0.000428936
0.000430149
0.000431952
0.000434372
0.000437432
0.000441151
0.00044554
0.000450606
0.000456347
0.000462754
0.000469808
0.000477487
0.000485757
0.00049458
0.000503911
0.000513701
0.000523897
0.000534444
0.000545282
0.000556355
0.000567605
0.000578974
0.000590407
0.000601847
0.000613248
0.000624571
0.000635767
0.000646796
0.000657621
0.000668211
0.000678534
0.000688565
0.000698278
0.000707653
0.000716669
0.000725309
0.000733557
0.000741397
0.000748814
0.000755795
0.000762324
0.000768387
0.000773966
0.000779045
0.000783603
0.000787617
0.000791062
0.000793907
0.000796115
0.000797641
0.000798433
0.000977112
0.000936686
0.000899608
0.000865559
0.000834249
0.000805419
0.000778838
0.000754295
0.000731603
0.000710591
0.000691109
0.000673017
0.000656193
0.000640524
0.000625909
0.000612258
0.000599487
0.000587523
0.000576298
0.000565752
0.000555828
0.000546478
0.000537656
0.000529322
0.000521439
0.000513975
0.000506899
0.000500187
0.000493815
0.000487762
0.000482013
0.000476553
0.00047137
0.000466456
0.000461805
0.000457414
0.000453284
0.000449417
0.00044582
0.000442502
0.000439475
0.000436755
0.000434362
0.000432316
0.000430643
0.00042937
0.000428526
0.000428144
0.000428254
0.00042889
0.000430083
0.000431863
0.000434257
0.000437289
0.000440978
0.000445335
0.000450367
0.000456074
0.000462445
0.000469465
0.000477108
0.000485344
0.000494135
0.000503435
0.000513197
0.000523367
0.00053389
0.000544709
0.000555765
0.000567001
0.000578361
0.000589788
0.000601225
0.000612626
0.000623951
0.000635153
0.000646191
0.000657027
0.00066763
0.000677968
0.000688015
0.000697747
0.000707141
0.000716177
0.000724838
0.000733107
0.000740968
0.000748407
0.000755409
0.000761959
0.000768041
0.00077364
0.000778737
0.000783312
0.000787341
0.000790799
0.000793655
0.000795872
0.000797405
0.000798199
0.000977112
0.000936686
0.000899609
0.00086556
0.000834251
0.000805422
0.000778841
0.000754299
0.000731607
0.000710597
0.000691116
0.000673025
0.000656202
0.000640534
0.00062592
0.00061227
0.000599501
0.000587539
0.000576316
0.000565771
0.000555849
0.0005465
0.00053768
0.000529348
0.000521467
0.000514005
0.000506931
0.000500221
0.00049385
0.0004878
0.000482053
0.000476595
0.000471414
0.000466501
0.000461852
0.000457462
0.000453333
0.000449466
0.000445869
0.000442549
0.00043952
0.000436797
0.000434399
0.000432348
0.000430667
0.000429385
0.00042853
0.000428134
0.000428228
0.000428845
0.000430017
0.000431774
0.000434142
0.000437146
0.000440804
0.000445129
0.000450128
0.0004558
0.000462135
0.000469119
0.000476727
0.000484929
0.000493686
0.000502955
0.000512688
0.000522831
0.000533331
0.000544129
0.000555168
0.000566391
0.00057774
0.00058916
0.000600594
0.000611994
0.000623322
0.00063453
0.000645575
0.000656423
0.000667038
0.000677392
0.000687456
0.000697205
0.000706618
0.000715675
0.000724356
0.000732647
0.000740529
0.00074799
0.000755013
0.000761584
0.000767687
0.000773306
0.000778421
0.000783012
0.000787057
0.000790529
0.000793396
0.000795622
0.000797161
0.000797958
0.000977112
0.000936687
0.00089961
0.000865561
0.000834252
0.000805424
0.000778844
0.000754303
0.000731612
0.000710603
0.000691122
0.000673033
0.000656211
0.000640544
0.000625932
0.000612283
0.000599516
0.000587555
0.000576333
0.000565789
0.000555869
0.000546523
0.000537705
0.000529374
0.000521495
0.000514035
0.000506963
0.000500255
0.000493887
0.000487839
0.000482094
0.000476638
0.000471458
0.000466548
0.0004619
0.000457512
0.000453383
0.000449517
0.000445919
0.000442598
0.000439567
0.000436841
0.000434438
0.000432381
0.000430693
0.000429401
0.000428535
0.000428125
0.000428204
0.000428802
0.000429953
0.000431687
0.000434029
0.000437004
0.000440632
0.000444925
0.000449889
0.000455525
0.000461825
0.000468773
0.000476346
0.000484512
0.000493236
0.000502473
0.000512176
0.000522293
0.000532768
0.000543545
0.000554567
0.000565775
0.000577113
0.000588526
0.000599956
0.000611356
0.000622687
0.000633899
0.000644953
0.000655811
0.000666439
0.000676807
0.000686888
0.000696655
0.000706087
0.000715164
0.000723867
0.000732178
0.000740083
0.000747565
0.00075461
0.000761203
0.000767326
0.000772964
0.000778097
0.000782706
0.000786766
0.000790251
0.00079313
0.000795365
0.00079691
0.000797711
0.000977112
0.000936687
0.000899611
0.000865562
0.000834254
0.000805426
0.000778847
0.000754306
0.000731617
0.000710608
0.000691129
0.00067304
0.000656219
0.000640554
0.000625943
0.000612296
0.00059953
0.00058757
0.00057635
0.000565808
0.00055589
0.000546545
0.000537729
0.000529401
0.000521524
0.000514066
0.000506996
0.00050029
0.000493924
0.000487878
0.000482136
0.000476681
0.000471504
0.000466596
0.000461949
0.000457562
0.000453434
0.000449568
0.00044597
0.000442648
0.000439615
0.000436886
0.000434479
0.000432416
0.00043072
0.000429419
0.000428541
0.000428118
0.000428181
0.000428761
0.000429891
0.000431601
0.000433917
0.000436864
0.000440461
0.000444721
0.000449652
0.000455253
0.000461517
0.000468428
0.000475965
0.000484096
0.000492786
0.000501991
0.000511664
0.000521753
0.000532204
0.00054296
0.000553963
0.000565157
0.000576484
0.000587889
0.000599316
0.000610713
0.000622046
0.000633264
0.000644326
0.000655194
0.000665835
0.000676217
0.000686314
0.000696099
0.000705551
0.000714648
0.000723371
0.000731704
0.000739631
0.000747135
0.000754201
0.000760815
0.000766959
0.000772616
0.000777768
0.000782394
0.00078647
0.000789968
0.000792859
0.000795102
0.000796654
0.000797458
0.000977112
0.000936687
0.000899611
0.000865563
0.000834255
0.000805428
0.00077885
0.00075431
0.000731621
0.000710614
0.000691135
0.000673048
0.000656228
0.000640564
0.000625954
0.000612308
0.000599544
0.000587586
0.000576367
0.000565827
0.000555911
0.000546568
0.000537754
0.000529427
0.000521553
0.000514096
0.000507029
0.000500326
0.000493962
0.000487918
0.000482178
0.000476726
0.000471551
0.000466644
0.000461999
0.000457614
0.000453487
0.000449621
0.000446022
0.0004427
0.000439665
0.000436932
0.000434521
0.000432452
0.000430749
0.000429438
0.00042855
0.000428113
0.000428159
0.000428721
0.000429831
0.000431517
0.000433807
0.000436726
0.000440292
0.00044452
0.000449416
0.000454982
0.00046121
0.000468085
0.000475586
0.000483682
0.000492338
0.00050151
0.000511153
0.000521215
0.000531641
0.000542375
0.000553361
0.000564539
0.000575855
0.000587252
0.000598674
0.00061007
0.000621405
0.000632627
0.000643696
0.000654574
0.000665227
0.000675624
0.000685737
0.00069554
0.00070501
0.000714127
0.000722872
0.000731226
0.000739174
0.0007467
0.000753788
0.000760422
0.000766587
0.000772264
0.000777434
0.000782077
0.000786168
0.000789681
0.000792582
0.000794835
0.000796393
0.0007972
0.000977112
0.000936688
0.000899612
0.000865564
0.000834257
0.00080543
0.000778852
0.000754313
0.000731625
0.000710619
0.000691141
0.000673055
0.000656236
0.000640573
0.000625965
0.000612321
0.000599558
0.000587601
0.000576384
0.000565846
0.000555932
0.000546591
0.000537778
0.000529454
0.000521582
0.000514128
0.000507063
0.000500361
0.000494
0.000487959
0.00048222
0.000476771
0.000471598
0.000466693
0.00046205
0.000457665
0.000453539
0.000449674
0.000446075
0.000442752
0.000439715
0.00043698
0.000434564
0.000432489
0.000430779
0.000429459
0.000428559
0.000428109
0.00042814
0.000428684
0.000429772
0.000431435
0.0004337
0.00043659
0.000440126
0.000444322
0.000449184
0.000454715
0.000460907
0.000467746
0.000475211
0.000483271
0.000491893
0.000501033
0.000510646
0.00052068
0.000531081
0.000541794
0.00055276
0.000563924
0.000575227
0.000586616
0.000598033
0.000609428
0.000620764
0.00063199
0.000643066
0.000653954
0.000664619
0.00067503
0.000685159
0.000694979
0.000704468
0.000713605
0.00072237
0.000730745
0.000738715
0.000746262
0.000753372
0.000760027
0.000766212
0.000771908
0.000777097
0.000781757
0.000785864
0.00078939
0.000792303
0.000794565
0.000796128
0.000796939
0.000977112
0.000936688
0.000899613
0.000865565
0.000834258
0.000805432
0.000778855
0.000754316
0.000731629
0.000710624
0.000691147
0.000673062
0.000656244
0.000640583
0.000625976
0.000612333
0.000599571
0.000587616
0.000576401
0.000565865
0.000555952
0.000546613
0.000537803
0.000529481
0.00052161
0.000514159
0.000507096
0.000500397
0.000494038
0.000487999
0.000482263
0.000476816
0.000471645
0.000466742
0.000462101
0.000457718
0.000453593
0.000449728
0.000446129
0.000442804
0.000439766
0.000437028
0.000434608
0.000432527
0.00043081
0.000429481
0.00042857
0.000428106
0.000428122
0.000428648
0.000429716
0.000431355
0.000433595
0.000436457
0.000439963
0.000444127
0.000448956
0.000454452
0.000460608
0.000467411
0.00047484
0.000482866
0.000491453
0.000500562
0.000510144
0.00052015
0.000530527
0.000541217
0.000552165
0.000563313
0.000574604
0.000585985
0.000597397
0.000608789
0.000620126
0.000631356
0.000642439
0.000653336
0.000664013
0.000674438
0.000684582
0.000694419
0.000703927
0.000713083
0.000721868
0.000730264
0.000738255
0.000745824
0.000752954
0.00075963
0.000765835
0.000771551
0.000776758
0.000781435
0.000785557
0.000789096
0.000792021
0.000794292
0.000795862
0.000796675
0.000977112
0.000936688
0.000899613
0.000865566
0.00083426
0.000805434
0.000778857
0.00075432
0.000731633
0.000710628
0.000691153
0.000673069
0.000656252
0.000640592
0.000625986
0.000612345
0.000599585
0.000587631
0.000576418
0.000565883
0.000555972
0.000546635
0.000537827
0.000529507
0.000521639
0.00051419
0.00050713
0.000500433
0.000494076
0.00048804
0.000482306
0.000476861
0.000471692
0.000466791
0.000462152
0.00045777
0.000453646
0.000449782
0.000446183
0.000442857
0.000439817
0.000437076
0.000434652
0.000432566
0.000430841
0.000429504
0.000428582
0.000428105
0.000428105
0.000428613
0.000429661
0.000431278
0.000433492
0.000436328
0.000439804
0.000443936
0.000448732
0.000454193
0.000460314
0.000467082
0.000474475
0.000482466
0.00049102
0.000500097
0.000509649
0.000519627
0.000529979
0.000540647
0.000551576
0.000562708
0.000573988
0.000585359
0.000596766
0.000608155
0.000619493
0.000630727
0.000641817
0.000652723
0.000663411
0.000673849
0.000684008
0.000693862
0.000703387
0.000712562
0.000721368
0.000729784
0.000737796
0.000745385
0.000752537
0.000759234
0.000765458
0.000771193
0.000776418
0.000781112
0.000785249
0.000788802
0.000791738
0.000794017
0.000795593
0.00079641
0.000977112
0.000936688
0.000899614
0.000865567
0.000834261
0.000805436
0.00077886
0.000754323
0.000731637
0.000710633
0.000691158
0.000673075
0.00065626
0.000640601
0.000625997
0.000612356
0.000599598
0.000587646
0.000576434
0.000565902
0.000555992
0.000546657
0.000537851
0.000529534
0.000521667
0.00051422
0.000507163
0.000500468
0.000494114
0.00048808
0.000482349
0.000476906
0.000471739
0.00046684
0.000462203
0.000457823
0.0004537
0.000449836
0.000446237
0.000442911
0.000439868
0.000437125
0.000434697
0.000432605
0.000430874
0.000429527
0.000428595
0.000428105
0.00042809
0.000428581
0.000429609
0.000431204
0.000433393
0.000436202
0.000439649
0.00044375
0.000448513
0.00045394
0.000460027
0.000466759
0.000474118
0.000482074
0.000490595
0.000499639
0.000509162