/*--------------------------------*- C++ -*----------------------------------*\
  =========                 |
  \\      /  F ield         | OpenFOAM: The Open Source CFD Toolbox
   \\    /   O peration     | Website:  https://openfoam.org
    \\  /    A nd           | Version:  11
     \\/     M anipulation  |
\*---------------------------------------------------------------------------*/
FoamFile
{
    format      ascii;
    class       surfaceScalarField;
    location    "294";
    object      phi;
}
// * * * * * * * * * * * * * * * * * * * * * * * * * * * * * * * * * * * * * //

dimensions      [0 3 -1 0 0 0 0];

internalField   nonuniform List<scalar> 
19800
(
1.99977e-05
-2.40131e-08
1.99939e-05
-7.13046e-08
1.99891e-05
-1.1876e-07
1.99834e-05
-1.67069e-07
1.99766e-05
-2.16708e-07
1.99688e-05
-2.67999e-07
1.99599e-05
-3.21191e-07
1.99499e-05
-3.76491e-07
1.99387e-05
-4.3408e-07
1.99263e-05
-4.94121e-07
1.99125e-05
-5.56763e-07
1.98974e-05
-6.22148e-07
1.98808e-05
-6.9041e-07
1.98626e-05
-7.61678e-07
1.98427e-05
-8.36077e-07
1.98211e-05
-9.13727e-07
1.97977e-05
-9.94742e-07
1.97724e-05
-1.07923e-06
1.9745e-05
-1.16731e-06
1.97154e-05
-1.25906e-06
1.96836e-05
-1.35459e-06
1.96494e-05
-1.45398e-06
1.96127e-05
-1.5573e-06
1.95735e-05
-1.66463e-06
1.95314e-05
-1.77602e-06
1.94866e-05
-1.89151e-06
1.94387e-05
-2.01113e-06
1.93877e-05
-2.13489e-06
1.93335e-05
-2.26278e-06
1.92759e-05
-2.39478e-06
1.92147e-05
-2.53082e-06
1.91499e-05
-2.67082e-06
1.90814e-05
-2.81467e-06
1.90089e-05
-2.96221e-06
1.89324e-05
-3.11326e-06
1.88518e-05
-3.26759e-06
1.8767e-05
-3.42491e-06
1.86778e-05
-3.5849e-06
1.85842e-05
-3.74716e-06
1.84861e-05
-3.91125e-06
1.83835e-05
-4.07667e-06
1.82764e-05
-4.24283e-06
1.81647e-05
-4.40911e-06
1.80486e-05
-4.5748e-06
1.7928e-05
-4.73913e-06
1.78031e-05
-4.90129e-06
1.7674e-05
-5.0604e-06
1.7541e-05
-5.21555e-06
1.74042e-05
-5.36582e-06
1.72639e-05
-5.51025e-06
1.71205e-05
-5.64793e-06
1.69743e-05
-5.77795e-06
1.68257e-05
-5.89947e-06
1.66751e-05
-6.01173e-06
1.6523e-05
-6.11405e-06
1.63699e-05
-6.2059e-06
1.62165e-05
-6.28689e-06
1.60636e-05
-6.35681e-06
1.59106e-05
-6.41525e-06
1.57561e-05
-6.46183e-06
1.56005e-05
-6.49638e-06
1.54444e-05
-6.51948e-06
1.52885e-05
-6.53187e-06
1.51348e-05
-6.53444e-06
1.4985e-05
-6.5275e-06
1.4839e-05
-6.51105e-06
1.46971e-05
-6.48542e-06
1.45593e-05
-6.45098e-06
1.44244e-05
-6.40829e-06
1.42919e-05
-6.35849e-06
1.4162e-05
-6.30228e-06
1.40351e-05
-6.24013e-06
1.39112e-05
-6.17253e-06
1.37904e-05
-6.09999e-06
1.36728e-05
-6.02301e-06
1.35585e-05
-5.94208e-06
1.34475e-05
-5.85766e-06
1.33398e-05
-5.77021e-06
1.32354e-05
-5.68016e-06
1.31344e-05
-5.58795e-06
1.30369e-05
-5.49397e-06
1.29428e-05
-5.39864e-06
1.28522e-05
-5.30237e-06
1.27652e-05
-5.20555e-06
1.26818e-05
-5.10859e-06
1.2602e-05
-5.01191e-06
1.2526e-05
-4.91594e-06
1.24537e-05
-4.82112e-06
1.23854e-05
-4.72793e-06
1.23211e-05
-4.63687e-06
1.22609e-05
-4.54847e-06
1.2205e-05
-4.46334e-06
1.21535e-05
-4.38214e-06
1.21067e-05
-4.3056e-06
1.20649e-05
-4.23459e-06
1.20282e-05
-4.17012e-06
1.19971e-05
-4.11341e-06
1.19722e-05
-4.06596e-06
1.19542e-05
-4.0302e-06
-4.01079e-06
1.99983e-05
-2.23093e-08
1.99947e-05
-6.77422e-08
1.999e-05
-1.13996e-07
1.99842e-05
-1.61271e-07
1.99774e-05
-2.09902e-07
1.99695e-05
-2.60167e-07
1.99606e-05
-3.12291e-07
1.99506e-05
-3.66472e-07
1.99394e-05
-4.2288e-07
1.9927e-05
-4.81673e-07
1.99132e-05
-5.42996e-07
1.9898e-05
-6.06985e-07
1.98814e-05
-6.73772e-07
1.98632e-05
-7.4348e-07
1.98434e-05
-8.16231e-07
1.98218e-05
-8.92141e-07
1.97983e-05
-9.7132e-07
1.9773e-05
-1.05388e-06
1.97456e-05
-1.13991e-06
1.97161e-05
-1.22952e-06
1.96843e-05
-1.32279e-06
1.96501e-05
-1.41981e-06
1.96134e-05
-1.52065e-06
1.95742e-05
-1.62537e-06
1.95322e-05
-1.73402e-06
1.94873e-05
-1.84666e-06
1.94395e-05
-1.96329e-06
1.93885e-05
-2.08394e-06
1.93343e-05
-2.20858e-06
1.92768e-05
-2.3372e-06
1.92157e-05
-2.46973e-06
1.91509e-05
-2.60609e-06
1.90824e-05
-2.74617e-06
1.901e-05
-2.88982e-06
1.89336e-05
-3.03686e-06
1.88531e-05
-3.18706e-06
1.87683e-05
-3.34015e-06
1.86793e-05
-3.49581e-06
1.85858e-05
-3.65367e-06
1.84878e-05
-3.81329e-06
1.83853e-05
-3.9742e-06
1.82783e-05
-4.13584e-06
1.81668e-05
-4.2976e-06
1.80508e-05
-4.4588e-06
1.79304e-05
-4.61872e-06
1.78057e-05
-4.77657e-06
1.76768e-05
-4.93152e-06
1.7544e-05
-5.08271e-06
1.74074e-05
-5.22923e-06
1.72673e-05
-5.37019e-06
1.71241e-05
-5.50471e-06
1.69781e-05
-5.63191e-06
1.68296e-05
-5.75101e-06
1.66791e-05
-5.86124e-06
1.65271e-05
-5.96198e-06
1.63738e-05
-6.05266e-06
1.62198e-05
-6.13287e-06
1.60652e-05
-6.20218e-06
1.591e-05
-6.26011e-06
1.57547e-05
-6.30645e-06
1.56e-05
-6.34171e-06
1.54466e-05
-6.36613e-06
1.52949e-05
-6.38015e-06
1.5145e-05
-6.38452e-06
1.4997e-05
-6.37955e-06
1.48513e-05
-6.36536e-06
1.47084e-05
-6.34244e-06
1.45686e-05
-6.31124e-06
1.44323e-05
-6.27192e-06
1.4299e-05
-6.22526e-06
1.41688e-05
-6.17207e-06
1.40417e-05
-6.11297e-06
1.39176e-05
-6.04847e-06
1.37967e-05
-5.97909e-06
1.3679e-05
-5.90532e-06
1.35646e-05
-5.82764e-06
1.34534e-05
-5.74651e-06
1.33456e-05
-5.66238e-06
1.32411e-05
-5.57569e-06
1.314e-05
-5.48686e-06
1.30423e-05
-5.3963e-06
1.29481e-05
-5.30443e-06
1.28574e-05
-5.21165e-06
1.27702e-05
-5.11837e-06
1.26867e-05
-5.025e-06
1.26067e-05
-4.93197e-06
1.25305e-05
-4.83971e-06
1.24581e-05
-4.74869e-06
1.23895e-05
-4.65937e-06
1.23249e-05
-4.57229e-06
1.22644e-05
-4.48799e-06
1.22082e-05
-4.40709e-06
1.21563e-05
-4.33028e-06
1.2109e-05
-4.2583e-06
1.20665e-05
-4.19207e-06
1.2029e-05
-4.1326e-06
1.19967e-05
-4.08114e-06
1.19699e-05
-4.03916e-06
1.19485e-05
-4.00877e-06
-3.99329e-06
1.99987e-05
-2.10283e-08
1.99956e-05
-6.45759e-08
1.9991e-05
-1.09447e-07
1.99853e-05
-1.55575e-07
1.99785e-05
-2.03138e-07
1.99707e-05
-2.52345e-07
1.99618e-05
-3.03388e-07
1.99518e-05
-3.56441e-07
1.99406e-05
-4.11667e-07
1.99281e-05
-4.69212e-07
1.99143e-05
-5.29216e-07
1.98992e-05
-5.91812e-07
1.98825e-05
-6.57126e-07
1.98643e-05
-7.25277e-07
1.98445e-05
-7.96383e-07
1.98229e-05
-8.70556e-07
1.97995e-05
-9.47902e-07
1.97741e-05
-1.02853e-06
1.97467e-05
-1.11253e-06
1.97172e-05
-1.19999e-06
1.96854e-05
-1.29101e-06
1.96513e-05
-1.38567e-06
1.96147e-05
-1.48402e-06
1.95754e-05
-1.58614e-06
1.95335e-05
-1.69207e-06
1.94887e-05
-1.80186e-06
1.94409e-05
-1.91551e-06
1.939e-05
-2.03305e-06
1.93359e-05
-2.15446e-06
1.92784e-05
-2.27971e-06
1.92174e-05
-2.40874e-06
1.91528e-05
-2.54147e-06
1.90844e-05
-2.67779e-06
1.90122e-05
-2.81756e-06
1.89359e-05
-2.9606e-06
1.88555e-05
-3.10669e-06
1.87709e-05
-3.25556e-06
1.86821e-05
-3.40692e-06
1.85888e-05
-3.5604e-06
1.84911e-05
-3.71558e-06
1.83889e-05
-3.87201e-06
1.82822e-05
-4.02914e-06
1.8171e-05
-4.18641e-06
1.80554e-05
-4.34316e-06
1.79353e-05
-4.49869e-06
1.7811e-05
-4.65226e-06
1.76826e-05
-4.80308e-06
1.75502e-05
-4.95031e-06
1.7414e-05
-5.0931e-06
1.72744e-05
-5.2306e-06
1.71317e-05
-5.36195e-06
1.69861e-05
-5.48633e-06
1.68381e-05
-5.60296e-06
1.6688e-05
-5.71112e-06
1.65362e-05
-5.81017e-06
1.6383e-05
-5.89955e-06
1.6229e-05
-5.97879e-06
1.60743e-05
-6.04747e-06
1.59193e-05
-6.1052e-06
1.57648e-05
-6.15192e-06
1.56111e-05
-6.18798e-06
1.54586e-05
-6.21364e-06
1.53077e-05
-6.22926e-06
1.51586e-05
-6.23536e-06
1.50113e-05
-6.2323e-06
1.48663e-05
-6.22033e-06
1.47237e-05
-6.19989e-06
1.45838e-05
-6.17137e-06
1.4447e-05
-6.13505e-06
1.43132e-05
-6.09151e-06
1.41826e-05
-6.04144e-06
1.40551e-05
-5.98545e-06
1.39307e-05
-5.9241e-06
1.38095e-05
-5.85789e-06
1.36915e-05
-5.78734e-06
1.35768e-05
-5.71292e-06
1.34654e-05
-5.63507e-06
1.33573e-05
-5.55427e-06
1.32525e-05
-5.47092e-06
1.31511e-05
-5.38547e-06
1.30531e-05
-5.29832e-06
1.29586e-05
-5.20989e-06
1.28675e-05
-5.12059e-06
1.278e-05
-5.03083e-06
1.2696e-05
-4.94104e-06
1.26157e-05
-4.85163e-06
1.2539e-05
-4.76306e-06
1.24661e-05
-4.67578e-06
1.23971e-05
-4.5903e-06
1.23319e-05
-4.50714e-06
1.22708e-05
-4.42686e-06
1.22138e-05
-4.35009e-06
1.2161e-05
-4.27751e-06
1.21126e-05
-4.20991e-06
1.20687e-05
-4.14817e-06
1.20294e-05
-4.0933e-06
1.19947e-05
-4.04647e-06
1.19646e-05
-4.00902e-06
1.19384e-05
-3.98259e-06
-3.96946e-06
1.9999e-05
-1.99863e-08
1.99962e-05
-6.17793e-08
1.99919e-05
-1.05197e-07
1.99864e-05
-1.50078e-07
1.99798e-05
-1.96498e-07
1.9972e-05
-2.44596e-07
1.99632e-05
-2.94523e-07
1.99531e-05
-3.46429e-07
1.99419e-05
-4.00458e-07
1.99295e-05
-4.56748e-07
1.99157e-05
-5.15431e-07
1.99005e-05
-5.76632e-07
1.98839e-05
-6.40472e-07
1.98656e-05
-7.07068e-07
1.98458e-05
-7.76531e-07
1.98242e-05
-8.4897e-07
1.98008e-05
-9.24488e-07
1.97755e-05
-1.00319e-06
1.97481e-05
-1.08515e-06
1.97186e-05
-1.17049e-06
1.96868e-05
-1.25926e-06
1.96527e-05
-1.35155e-06
1.96161e-05
-1.44744e-06
1.95769e-05
-1.54696e-06
1.9535e-05
-1.65018e-06
1.94903e-05
-1.75712e-06
1.94426e-05
-1.86781e-06
1.93918e-05
-1.98225e-06
1.93378e-05
-2.10044e-06
1.92804e-05
-2.22233e-06
1.92195e-05
-2.34787e-06
1.91551e-05
-2.47699e-06
1.90869e-05
-2.60958e-06
1.90148e-05
-2.74549e-06
1.89387e-05
-2.88455e-06
1.88586e-05
-3.02655e-06
1.87743e-05
-3.17124e-06
1.86857e-05
-3.31833e-06
1.85927e-05
-3.46745e-06
1.84954e-05
-3.61823e-06
1.83936e-05
-3.77021e-06
1.82873e-05
-3.92288e-06
1.81766e-05
-4.07569e-06
1.80615e-05
-4.22802e-06
1.7942e-05
-4.37921e-06
1.78183e-05
-4.52854e-06
1.76904e-05
-4.67525e-06
1.75587e-05
-4.81856e-06
1.74233e-05
-4.95766e-06
1.72844e-05
-5.09171e-06
1.71423e-05
-5.21991e-06
1.69974e-05
-5.34146e-06
1.68501e-05
-5.4556e-06
1.67006e-05
-5.56165e-06
1.65494e-05
-5.65896e-06
1.63968e-05
-5.74698e-06
1.62433e-05
-5.82524e-06
1.60891e-05
-5.89333e-06
1.59349e-05
-5.95098e-06
1.57811e-05
-5.99814e-06
1.56282e-05
-6.03502e-06
1.54764e-05
-6.06186e-06
1.53261e-05
-6.07899e-06
1.51775e-05
-6.08678e-06
1.50308e-05
-6.08558e-06
1.48862e-05
-6.07573e-06
1.47439e-05
-6.05761e-06
1.46042e-05
-6.03162e-06
1.44672e-05
-5.99809e-06
1.43332e-05
-5.95751e-06
1.42023e-05
-5.91049e-06
1.40744e-05
-5.8576e-06
1.39497e-05
-5.79938e-06
1.38282e-05
-5.73635e-06
1.37098e-05
-5.66901e-06
1.35947e-05
-5.59782e-06
1.34829e-05
-5.52326e-06
1.33744e-05
-5.44575e-06
1.32692e-05
-5.36574e-06
1.31674e-05
-5.28365e-06
1.3069e-05
-5.19989e-06
1.29739e-05
-5.11488e-06
1.28824e-05
-5.02904e-06
1.27943e-05
-4.94278e-06
1.27098e-05
-4.85652e-06
1.26289e-05
-4.7707e-06
1.25516e-05
-4.68577e-06
1.2478e-05
-4.60219e-06
1.24082e-05
-4.52047e-06
1.23422e-05
-4.44114e-06
1.22801e-05
-4.36476e-06
1.2222e-05
-4.29197e-06
1.21679e-05
-4.22345e-06
1.2118e-05
-4.15996e-06
1.20721e-05
-4.10235e-06
1.20304e-05
-4.05159e-06
1.19927e-05
-4.00874e-06
1.19586e-05
-3.97495e-06
1.19276e-05
-3.95155e-06
-3.94029e-06
1.99991e-05
-1.91045e-08
1.99966e-05
-5.9272e-08
1.99927e-05
-1.01239e-07
1.99874e-05
-1.44821e-07
1.99809e-05
-1.90037e-07
1.99733e-05
-2.36973e-07
1.99645e-05
-2.85744e-07
1.99546e-05
-3.36473e-07
1.99434e-05
-3.89285e-07
1.9931e-05
-4.44306e-07
1.99172e-05
-5.01658e-07
1.9902e-05
-5.61458e-07
1.98854e-05
-6.23823e-07
1.98672e-05
-6.88862e-07
1.98473e-05
-7.56683e-07
1.98257e-05
-8.2739e-07
1.98023e-05
-9.01083e-07
1.9777e-05
-9.77856e-07
1.97496e-05
-1.0578e-06
1.97202e-05
-1.141e-06
1.96884e-05
-1.22754e-06
1.96544e-05
-1.31748e-06
1.96178e-05
-1.4109e-06
1.95787e-05
-1.50784e-06
1.95369e-05
-1.60835e-06
1.94922e-05
-1.71246e-06
1.94446e-05
-1.8202e-06
1.93939e-05
-1.93156e-06
1.934e-05
-2.04654e-06
1.92828e-05
-2.16509e-06
1.92221e-05
-2.28718e-06
1.91578e-05
-2.4127e-06
1.90898e-05
-2.54158e-06
1.9018e-05
-2.67365e-06
1.89422e-05
-2.80877e-06
1.88624e-05
-2.94672e-06
1.87784e-05
-3.08726e-06
1.86901e-05
-3.2301e-06
1.85976e-05
-3.37492e-06
1.85007e-05
-3.52133e-06
1.83994e-05
-3.66891e-06
1.82937e-05
-3.81716e-06
1.81836e-05
-3.96557e-06
1.80691e-05
-4.11353e-06
1.79503e-05
-4.26042e-06
1.78273e-05
-4.40556e-06
1.77003e-05
-4.54822e-06
1.75694e-05
-4.68765e-06
1.74348e-05
-4.82307e-06
1.72968e-05
-4.9537e-06
1.71556e-05
-5.07876e-06
1.70117e-05
-5.19748e-06
1.68652e-05
-5.30914e-06
1.67166e-05
-5.41305e-06
1.65662e-05
-5.5086e-06
1.64145e-05
-5.59524e-06
1.62618e-05
-5.67252e-06
1.61085e-05
-5.74006e-06
1.59552e-05
-5.79764e-06
1.58022e-05
-5.84518e-06
1.565e-05
-5.88283e-06
1.54989e-05
-5.91078e-06
1.53492e-05
-5.92929e-06
1.52012e-05
-5.93869e-06
1.50549e-05
-5.93931e-06
1.49107e-05
-5.9315e-06
1.47687e-05
-5.91561e-06
1.46291e-05
-5.89203e-06
1.44921e-05
-5.86114e-06
1.4358e-05
-5.8234e-06
1.42269e-05
-5.77933e-06
1.40987e-05
-5.72947e-06
1.39737e-05
-5.67434e-06
1.38518e-05
-5.61445e-06
1.37331e-05
-5.55028e-06
1.36175e-05
-5.48231e-06
1.35053e-05
-5.41099e-06
1.33963e-05
-5.33676e-06
1.32906e-05
-5.26006e-06
1.31883e-05
-5.1813e-06
1.30893e-05
-5.1009e-06
1.29937e-05
-5.01929e-06
1.29015e-05
-4.93688e-06
1.28128e-05
-4.85407e-06
1.27276e-05
-4.77131e-06
1.26459e-05
-4.68902e-06
1.25678e-05
-4.60767e-06
1.24933e-05
-4.52772e-06
1.24225e-05
-4.44967e-06
1.23555e-05
-4.37406e-06
1.22921e-05
-4.30145e-06
1.22326e-05
-4.23246e-06
1.21769e-05
-4.16776e-06
1.21251e-05
-4.10808e-06
1.2077e-05
-4.05425e-06
1.20325e-05
-4.00712e-06
1.19914e-05
-3.96767e-06
1.19533e-05
-3.93686e-06
1.19176e-05
-3.91584e-06
-3.90636e-06
1.99992e-05
-1.83318e-08
1.99969e-05
-5.6992e-08
1.99933e-05
-9.75434e-08
1.99882e-05
-1.39809e-07
1.9982e-05
-1.83781e-07
1.99745e-05
-2.29514e-07
1.99659e-05
-2.7709e-07
1.9956e-05
-3.2661e-07
1.99449e-05
-3.78181e-07
1.99325e-05
-4.31914e-07
1.99188e-05
-4.87921e-07
1.99036e-05
-5.46312e-07
1.9887e-05
-6.07194e-07
1.98688e-05
-6.70673e-07
1.9849e-05
-7.36851e-07
1.98274e-05
-8.05827e-07
1.9804e-05
-8.77697e-07
1.97787e-05
-9.52551e-07
1.97514e-05
-1.03048e-06
1.9722e-05
-1.11155e-06
1.96903e-05
-1.19586e-06
1.96562e-05
-1.28346e-06
1.96198e-05
-1.37442e-06
1.95807e-05
-1.46879e-06
1.9539e-05
-1.56661e-06
1.94944e-05
-1.66791e-06
1.94469e-05
-1.77271e-06
1.93964e-05
-1.88101e-06
1.93426e-05
-1.9928e-06
1.92856e-05
-2.10804e-06
1.92251e-05
-2.22668e-06
1.9161e-05
-2.34864e-06
1.90933e-05
-2.47383e-06
1.90217e-05
-2.60211e-06
1.89463e-05
-2.73331e-06
1.88668e-05
-2.86725e-06
1.87832e-05
-3.00368e-06
1.86955e-05
-3.14233e-06
1.86034e-05
-3.28288e-06
1.85071e-05
-3.42498e-06
1.84064e-05
-3.5682e-06
1.83013e-05
-3.7121e-06
1.81919e-05
-3.85615e-06
1.80782e-05
-3.99981e-06
1.79602e-05
-4.14246e-06
1.78381e-05
-4.28346e-06
1.7712e-05
-4.42211e-06
1.7582e-05
-4.5577e-06
1.74485e-05
-4.6895e-06
1.73115e-05
-4.81674e-06
1.71714e-05
-4.93867e-06
1.70285e-05
-5.05458e-06
1.68831e-05
-5.16374e-06
1.67356e-05
-5.26551e-06
1.65863e-05
-5.35929e-06
1.64356e-05
-5.44454e-06
1.62839e-05
-5.52084e-06
1.61316e-05
-5.58782e-06
1.59793e-05
-5.64528e-06
1.58272e-05
-5.69314e-06
1.56759e-05
-5.73146e-06
1.55255e-05
-5.76041e-06
1.53764e-05
-5.78021e-06
1.52289e-05
-5.79114e-06
1.5083e-05
-5.7935e-06
1.49392e-05
-5.78763e-06
1.47975e-05
-5.77389e-06
1.46581e-05
-5.75264e-06
1.45212e-05
-5.72428e-06
1.4387e-05
-5.68924e-06
1.42557e-05
-5.64802e-06
1.41274e-05
-5.6011e-06
1.4002e-05
-5.54899e-06
1.38798e-05
-5.49218e-06
1.37606e-05
-5.43114e-06
1.36446e-05
-5.36634e-06
1.35319e-05
-5.29823e-06
1.34224e-05
-5.22724e-06
1.33161e-05
-5.1538e-06
1.32132e-05
-5.07834e-06
1.31135e-05
-5.00128e-06
1.30173e-05
-4.92302e-06
1.29244e-05
-4.84398e-06
1.28349e-05
-4.76459e-06
1.27489e-05
-4.68527e-06
1.26663e-05
-4.60646e-06
1.25872e-05
-4.52861e-06
1.25117e-05
-4.45219e-06
1.24397e-05
-4.37771e-06
1.23714e-05
-4.30569e-06
1.23066e-05
-4.23668e-06
1.22454e-05
-4.1713e-06
1.21879e-05
-4.11019e-06
1.21338e-05
-4.05404e-06
1.20832e-05
-4.00362e-06
1.20358e-05
-3.95972e-06
1.19913e-05
-3.92317e-06
1.19493e-05
-3.89483e-06
1.19091e-05
-3.87567e-06
-3.86776e-06
1.99993e-05
-1.7635e-08
1.99972e-05
-5.48903e-08
1.99937e-05
-9.40734e-08
1.9989e-05
-1.35028e-07
1.99829e-05
-1.77738e-07
1.99756e-05
-2.22236e-07
1.99671e-05
-2.68587e-07
1.99574e-05
-3.16868e-07
1.99464e-05
-3.67173e-07
1.99341e-05
-4.19599e-07
1.99204e-05
-4.74246e-07
1.99053e-05
-5.31215e-07
1.98887e-05
-5.90607e-07
1.98706e-05
-6.52521e-07
1.98508e-05
-7.17053e-07
1.98292e-05
-7.84298e-07
1.98059e-05
-8.54345e-07
1.97806e-05
-9.27283e-07
1.97533e-05
-1.00319e-06
1.97239e-05
-1.08215e-06
1.96923e-05
-1.16424e-06
1.96584e-05
-1.24951e-06
1.9622e-05
-1.33802e-06
1.9583e-05
-1.42983e-06
1.95414e-05
-1.52497e-06
1.94969e-05
-1.62348e-06
1.94496e-05
-1.72536e-06
1.93992e-05
-1.83062e-06
1.93456e-05
-1.93924e-06
1.92888e-05
-2.05119e-06
1.92285e-05
-2.16642e-06
1.91647e-05
-2.28485e-06
1.90973e-05
-2.40639e-06
1.90261e-05
-2.5309e-06
1.8951e-05
-2.65824e-06
1.8872e-05
-2.7882e-06
1.87889e-05
-2.92056e-06
1.87016e-05
-3.05507e-06
1.86101e-05
-3.19142e-06
1.85144e-05
-3.32925e-06
1.84144e-05
-3.46819e-06
1.83101e-05
-3.60778e-06
1.82015e-05
-3.74754e-06
1.80886e-05
-3.88695e-06
1.79716e-05
-4.02542e-06
1.78504e-05
-4.16233e-06
1.77254e-05
-4.29704e-06
1.75965e-05
-4.42884e-06
1.74641e-05
-4.55705e-06
1.73282e-05
-4.68093e-06
1.71893e-05
-4.79977e-06
1.70476e-05
-4.91287e-06
1.69035e-05
-5.01955e-06
1.67571e-05
-5.11918e-06
1.6609e-05
-5.21118e-06
1.64595e-05
-5.29503e-06
1.6309e-05
-5.37032e-06
1.61579e-05
-5.43671e-06
1.60066e-05
-5.49399e-06
1.58555e-05
-5.54207e-06
1.5705e-05
-5.58098e-06
1.55554e-05
-5.61082e-06
1.5407e-05
-5.6318e-06
1.526e-05
-5.64415e-06
1.51147e-05
-5.64816e-06
1.49712e-05
-5.64415e-06
1.48298e-05
-5.63246e-06
1.46906e-05
-5.61346e-06
1.45539e-05
-5.58753e-06
1.44197e-05
-5.55509e-06
1.42883e-05
-5.5166e-06
1.41597e-05
-5.47254e-06
1.40341e-05
-5.42337e-06
1.39115e-05
-5.36956e-06
1.37919e-05
-5.31159e-06
1.36755e-05
-5.24991e-06
1.35622e-05
-5.18495e-06
1.34521e-05
-5.11715e-06
1.33453e-05
-5.04694e-06
1.32417e-05
-4.97473e-06
1.31413e-05
-4.90094e-06
1.30443e-05
-4.82598e-06
1.29506e-05
-4.75028e-06
1.28602e-05
-4.67424e-06
1.27732e-05
-4.59829e-06
1.26897e-05
-4.52288e-06
1.26095e-05
-4.44845e-06
1.25328e-05
-4.37547e-06
1.24595e-05
-4.30443e-06
1.23897e-05
-4.23586e-06
1.23233e-05
-4.17029e-06
1.22603e-05
-4.10832e-06
1.22007e-05
-4.05056e-06
1.21443e-05
-3.99767e-06
1.2091e-05
-3.95034e-06
1.20406e-05
-3.90931e-06
1.19927e-05
-3.87529e-06
1.19469e-05
-3.84904e-06
1.19026e-05
-3.83135e-06
-3.8245e-06
1.99994e-05
-1.69931e-08
1.99974e-05
-5.29287e-08
1.99941e-05
-9.0794e-08
1.99895e-05
-1.30456e-07
1.99837e-05
-1.719e-07
1.99766e-05
-2.15148e-07
1.99683e-05
-2.60249e-07
1.99587e-05
-3.0727e-07
1.99478e-05
-3.56286e-07
1.99356e-05
-4.07385e-07
1.9922e-05
-4.60656e-07
1.9907e-05
-5.16191e-07
1.98904e-05
-5.74084e-07
1.98723e-05
-6.34426e-07
1.98526e-05
-6.97309e-07
1.98311e-05
-7.6282e-07
1.98078e-05
-8.31047e-07
1.97826e-05
-9.02072e-07
1.97554e-05
-9.75973e-07
1.97261e-05
-1.05282e-06
1.96945e-05
-1.13269e-06
1.96607e-05
-1.21564e-06
1.96244e-05
-1.30172e-06
1.95855e-05
-1.39099e-06
1.9544e-05
-1.48347e-06
1.94997e-05
-1.57919e-06
1.94525e-05
-1.67818e-06
1.94023e-05
-1.78042e-06
1.9349e-05
-1.8859e-06
1.92924e-05
-1.99459e-06
1.92324e-05
-2.10644e-06
1.91689e-05
-2.22137e-06
1.91018e-05
-2.3393e-06
1.9031e-05
-2.46009e-06
1.89564e-05
-2.58359e-06
1.88778e-05
-2.70963e-06
1.87952e-05
-2.83798e-06
1.87085e-05
-2.9684e-06
1.86177e-05
-3.10059e-06
1.85227e-05
-3.23422e-06
1.84234e-05
-3.36893e-06
1.83199e-05
-3.50428e-06
1.82122e-05
-3.63982e-06
1.81003e-05
-3.77504e-06
1.79843e-05
-3.90939e-06
1.78642e-05
-4.04228e-06
1.77403e-05
-4.17309e-06
1.76126e-05
-4.30117e-06
1.74814e-05
-4.42583e-06
1.73468e-05
-4.54639e-06
1.72092e-05
-4.66217e-06
1.70688e-05
-4.77248e-06
1.6926e-05
-4.87669e-06
1.67809e-05
-4.97417e-06
1.66341e-05
-5.06437e-06
1.64859e-05
-5.14681e-06
1.63367e-05
-5.22106e-06
1.61868e-05
-5.28681e-06
1.60366e-05
-5.34384e-06
1.58866e-05
-5.39204e-06
1.5737e-05
-5.43142e-06
1.55883e-05
-5.46206e-06
1.54406e-05
-5.4841e-06
1.52942e-05
-5.49778e-06
1.51494e-05
-5.50334e-06
1.50063e-05
-5.5011e-06
1.48652e-05
-5.49137e-06
1.47263e-05
-5.47452e-06
1.45897e-05
-5.45091e-06
1.44555e-05
-5.42097e-06
1.43241e-05
-5.38512e-06
1.41953e-05
-5.3438e-06
1.40694e-05
-5.29749e-06
1.39465e-05
-5.24661e-06
1.38265e-05
-5.19164e-06
1.37096e-05
-5.133e-06
1.35958e-05
-5.07113e-06
1.34851e-05
-5.00646e-06
1.33776e-05
-4.93941e-06
1.32733e-05
-4.8704e-06
1.31722e-05
-4.79983e-06
1.30743e-05
-4.72812e-06
1.29797e-05
-4.65568e-06
1.28884e-05
-4.58293e-06
1.28004e-05
-4.51028e-06
1.27157e-05
-4.43818e-06
1.26343e-05
-4.36708e-06
1.25563e-05
-4.29742e-06
1.24815e-05
-4.22971e-06
1.24101e-05
-4.16443e-06
1.2342e-05
-4.10214e-06
1.2277e-05
-4.04338e-06
1.22152e-05
-3.98875e-06
1.21564e-05
-3.93885e-06
1.21004e-05
-3.89435e-06
1.2047e-05
-3.85588e-06
1.19958e-05
-3.8241e-06
1.19464e-05
-3.79965e-06
1.18983e-05
-3.78322e-06
-3.77693e-06
1.99994e-05
-1.63926e-08
1.99975e-05
-5.10786e-08
1.99944e-05
-8.76748e-08
1.999e-05
-1.2607e-07
1.99844e-05
-1.66254e-07
1.99775e-05
-2.08245e-07
1.99693e-05
-2.52084e-07
1.99599e-05
-2.97825e-07
1.99491e-05
-3.45536e-07
1.9937e-05
-3.95291e-07
1.99236e-05
-4.47172e-07
1.99086e-05
-5.01261e-07
1.98922e-05
-5.57645e-07
1.98742e-05
-6.16408e-07
1.98545e-05
-6.77637e-07
1.98331e-05
-7.41414e-07
1.98099e-05
-8.07821e-07
1.97847e-05
-8.76935e-07
1.97576e-05
-9.48831e-07
1.97283e-05
-1.02358e-06
1.96969e-05
-1.10124e-06
1.96631e-05
-1.18188e-06
1.9627e-05
-1.26554e-06
1.95882e-05
-1.35228e-06
1.95469e-05
-1.44212e-06
1.95028e-05
-1.53508e-06
1.94558e-05
-1.63119e-06
1.94058e-05
-1.73044e-06
1.93527e-05
-1.8328e-06
1.92964e-05
-1.93827e-06
1.92367e-05
-2.04677e-06
1.91736e-05
-2.15824e-06
1.91069e-05
-2.27259e-06
1.90365e-05
-2.3897e-06
1.89623e-05
-2.50942e-06
1.88843e-05
-2.63158e-06
1.88023e-05
-2.75598e-06
1.87163e-05
-2.88236e-06
1.86261e-05
-3.01046e-06
1.85319e-05
-3.13996e-06
1.84334e-05
-3.27049e-06
1.83308e-05
-3.40167e-06
1.8224e-05
-3.53305e-06
1.81132e-05
-3.66415e-06
1.79982e-05
-3.79445e-06
1.78793e-05
-3.92338e-06
1.77566e-05
-4.05036e-06
1.76302e-05
-4.17475e-06
1.75002e-05
-4.29591e-06
1.7367e-05
-4.41319e-06
1.72308e-05
-4.52593e-06
1.70918e-05
-4.63348e-06
1.69503e-05
-4.73521e-06
1.68067e-05
-4.83055e-06
1.66613e-05
-4.91895e-06
1.65144e-05
-4.99994e-06
1.63665e-05
-5.07312e-06
1.62178e-05
-5.13817e-06
1.60689e-05
-5.19487e-06
1.59199e-05
-5.24311e-06
1.57714e-05
-5.28286e-06
1.56235e-05
-5.31417e-06
1.54765e-05
-5.33717e-06
1.53308e-05
-5.35207e-06
1.51866e-05
-5.35908e-06
1.5044e-05
-5.3585e-06
1.49032e-05
-5.35064e-06
1.47646e-05
-5.33584e-06
1.46281e-05
-5.31447e-06
1.44941e-05
-5.28691e-06
1.43625e-05
-5.25359e-06
1.42337e-05
-5.21494e-06
1.41076e-05
-5.17137e-06
1.39843e-05
-5.12334e-06
1.38639e-05
-5.07128e-06
1.37465e-05
-5.01561e-06
1.36322e-05
-4.95677e-06
1.35209e-05
-4.89516e-06
1.34127e-05
-4.83121e-06
1.33076e-05
-4.76533e-06
1.32057e-05
-4.69792e-06
1.3107e-05
-4.62938e-06
1.30114e-05
-4.56014e-06
1.29191e-05
-4.49059e-06
1.283e-05
-4.42117e-06
1.27441e-05
-4.35229e-06
1.26614e-05
-4.2844e-06
1.25819e-05
-4.21796e-06
1.25057e-05
-4.15344e-06
1.24326e-05
-4.09132e-06
1.23625e-05
-4.03213e-06
1.22956e-05
-3.97639e-06
1.22315e-05
-3.92468e-06
1.21702e-05
-3.87756e-06
1.21115e-05
-3.83562e-06
1.20551e-05
-3.79948e-06
1.20007e-05
-3.7697e-06
1.19479e-05
-3.74684e-06
1.18962e-05
-3.73153e-06
-3.72532e-06
1.99994e-05
-1.5824e-08
1.99977e-05
-4.93187e-08
1.99947e-05
-8.46904e-08
1.99905e-05
-1.21847e-07
1.9985e-05
-1.60784e-07
1.99783e-05
-2.0152e-07
1.99703e-05
-2.4409e-07
1.9961e-05
-2.88541e-07
1.99504e-05
-3.34933e-07
1.99384e-05
-3.83331e-07
1.99251e-05
-4.33809e-07
1.99102e-05
-4.86442e-07
1.98939e-05
-5.41308e-07
1.9876e-05
-5.98487e-07
1.98564e-05
-6.58058e-07
1.98351e-05
-7.20099e-07
1.9812e-05
-7.84686e-07
1.97869e-05
-8.51893e-07
1.97599e-05
-9.21789e-07
1.97307e-05
-9.9444e-07
1.96994e-05
-1.06991e-06
1.96658e-05
-1.14825e-06
1.96297e-05
-1.22951e-06
1.95912e-05
-1.31373e-06
1.955e-05
-1.40094e-06
1.95061e-05
-1.49117e-06
1.94593e-05
-1.58442e-06
1.94096e-05
-1.6807e-06
1.93568e-05
-1.77999e-06
1.93008e-05
-1.88225e-06
1.92414e-05
-1.98744e-06
1.91787e-05
-2.09549e-06
1.91124e-05
-2.20631e-06
1.90425e-05
-2.31979e-06
1.89689e-05
-2.43578e-06
1.88914e-05
-2.55411e-06
1.881e-05
-2.6746e-06
1.87247e-05
-2.79701e-06
1.86353e-05
-2.92108e-06
1.85418e-05
-3.0465e-06
1.84443e-05
-3.17294e-06
1.83426e-05
-3.30001e-06
1.82369e-05
-3.4273e-06
1.81271e-05
-3.55435e-06
1.80133e-05
-3.68066e-06
1.78956e-05
-3.80569e-06
1.77741e-05
-3.92888e-06
1.7649e-05
-4.04964e-06
1.75204e-05
-4.16735e-06
1.73886e-05
-4.28139e-06
1.72538e-05
-4.39112e-06
1.71163e-05
-4.49592e-06
1.69763e-05
-4.5952e-06
1.68341e-05
-4.68839e-06
1.66901e-05
-4.77497e-06
1.65447e-05
-4.85448e-06
1.63981e-05
-4.92654e-06
1.62507e-05
-4.99083e-06
1.6103e-05
-5.04713e-06
1.59552e-05
-5.09531e-06
1.58077e-05
-5.13532e-06
1.56607e-05
-5.1672e-06
1.55146e-05
-5.19106e-06
1.53696e-05
-5.20706e-06
1.52259e-05
-5.21542e-06
1.50838e-05
-5.2164e-06
1.49435e-05
-5.21031e-06
1.48051e-05
-5.19746e-06
1.46688e-05
-5.17821e-06
1.45349e-05
-5.15295e-06
1.44033e-05
-5.12206e-06
1.42744e-05
-5.08595e-06
1.4148e-05
-5.04505e-06
1.40245e-05
-4.99977e-06
1.39037e-05
-4.95053e-06
1.37859e-05
-4.89776e-06
1.3671e-05
-4.84185e-06
1.3559e-05
-4.78324e-06
1.34501e-05
-4.72232e-06
1.33443e-05
-4.65949e-06
1.32415e-05
-4.59516e-06
1.31419e-05
-4.52973e-06
1.30453e-05
-4.4636e-06
1.29519e-05
-4.39718e-06
1.28617e-05
-4.33089e-06
1.27745e-05
-4.26514e-06
1.26905e-05
-4.20037e-06
1.26095e-05
-4.13702e-06
1.25316e-05
-4.07555e-06
1.24568e-05
-4.01645e-06
1.23848e-05
-3.9602e-06
1.23158e-05
-3.90731e-06
1.22494e-05
-3.85832e-06
1.21856e-05
-3.81377e-06
1.21242e-05
-3.7742e-06
1.20649e-05
-3.74017e-06
1.20074e-05
-3.71221e-06
1.19514e-05
-3.69081e-06
1.18963e-05
-3.67649e-06
-3.66988e-06
1.99995e-05
-1.5281e-08
1.99978e-05
-4.76329e-08
1.99949e-05
-8.18202e-08
1.99908e-05
-1.17766e-07
1.99855e-05
-1.55473e-07
1.9979e-05
-1.94961e-07
1.99711e-05
-2.36261e-07
1.9962e-05
-2.79418e-07
1.99515e-05
-3.24483e-07
1.99397e-05
-3.71515e-07
1.99265e-05
-4.20581e-07
1.99118e-05
-4.71749e-07
1.98956e-05
-5.25091e-07
1.98778e-05
-5.8068e-07
1.98583e-05
-6.3859e-07
1.98371e-05
-6.98894e-07
1.98141e-05
-7.61662e-07
1.97892e-05
-8.26965e-07
1.97622e-05
-8.94866e-07
1.97332e-05
-9.6543e-07
1.9702e-05
-1.03871e-06
1.96686e-05
-1.11477e-06
1.96327e-05
-1.19363e-06
1.95943e-05
-1.27536e-06
1.95533e-05
-1.35997e-06
1.95096e-05
-1.44748e-06
1.94631e-05
-1.53791e-06
1.94137e-05
-1.63125e-06
1.93612e-05
-1.72748e-06
1.93055e-05
-1.82658e-06
1.92466e-05
-1.9285e-06
1.91842e-05
-2.03317e-06
1.91184e-05
-2.1405e-06
1.9049e-05
-2.25038e-06
1.89759e-05
-2.36269e-06
1.88991e-05
-2.47726e-06
1.88184e-05
-2.5939e-06
1.87338e-05
-2.7124e-06
1.86452e-05
-2.8325e-06
1.85526e-05
-2.95391e-06
1.8456e-05
-3.07631e-06
1.83553e-05
-3.19934e-06
1.82506e-05
-3.32261e-06
1.81419e-05
-3.44567e-06
1.80293e-05
-3.56805e-06
1.79129e-05
-3.68925e-06
1.77927e-05
-3.80872e-06
1.7669e-05
-3.9259e-06
1.75418e-05
-4.0402e-06
1.74115e-05
-4.15103e-06
1.72781e-05
-4.25778e-06
1.71421e-05
-4.35985e-06
1.70036e-05
-4.45668e-06
1.68629e-05
-4.54772e-06
1.67204e-05
-4.63246e-06
1.65764e-05
-4.71047e-06
1.64312e-05
-4.78136e-06
1.62852e-05
-4.84482e-06
1.61387e-05
-4.90064e-06
1.5992e-05
-4.94867e-06
1.58456e-05
-4.98884e-06
1.56996e-05
-5.02119e-06
1.55543e-05
-5.04579e-06
1.541e-05
-5.06279e-06
1.5267e-05
-5.07239e-06
1.51254e-05
-5.07483e-06
1.49855e-05
-5.0704e-06
1.48475e-05
-5.0594e-06
1.47114e-05
-5.04218e-06
1.45776e-05
-5.0191e-06
1.44461e-05
-4.99054e-06
1.4317e-05
-4.95689e-06
1.41905e-05
-4.91854e-06
1.40666e-05
-4.87592e-06
1.39455e-05
-4.82941e-06
1.38272e-05
-4.77944e-06
1.37117e-05
-4.7264e-06
1.35992e-05
-4.67069e-06
1.34896e-05
-4.61272e-06
1.3383e-05
-4.55287e-06
1.32794e-05
-4.49154e-06
1.31788e-05
-4.42914e-06
1.30812e-05
-4.36604e-06
1.29867e-05
-4.30266e-06
1.28952e-05
-4.2394e-06
1.28068e-05
-4.17668e-06
1.27213e-05
-4.11492e-06
1.26388e-05
-4.05455e-06
1.25593e-05
-3.99601e-06
1.24826e-05
-3.93978e-06
1.24087e-05
-3.88631e-06
1.23375e-05
-3.83611e-06
1.22689e-05
-3.78967e-06
1.22026e-05
-3.7475e-06
1.21385e-05
-3.71012e-06
1.20764e-05
-3.67803e-06
1.20159e-05
-3.65174e-06
1.19568e-05
-3.63168e-06
1.18986e-05
-3.61829e-06
-3.6113e-06
1.99995e-05
-1.47588e-08
1.99979e-05
-4.6009e-08
1.99951e-05
-7.90475e-08
1.99911e-05
-1.13811e-07
1.9986e-05
-1.50306e-07
1.99796e-05
-1.88557e-07
1.99719e-05
-2.28592e-07
1.99629e-05
-2.70454e-07
1.99526e-05
-3.14188e-07
1.9941e-05
-3.59849e-07
1.99279e-05
-4.07496e-07
1.99133e-05
-4.57193e-07
1.98972e-05
-5.09006e-07
1.98796e-05
-5.63002e-07
1.98602e-05
-6.19249e-07
1.98391e-05
-6.77816e-07
1.98162e-05
-7.38767e-07
1.97914e-05
-8.02169e-07
1.97647e-05
-8.68082e-07
1.97358e-05
-9.36566e-07
1.97048e-05
-1.00767e-06
1.96714e-05
-1.08145e-06
1.96358e-05
-1.15795e-06
1.95976e-05
-1.23719e-06
1.95568e-05
-1.31922e-06
1.95134e-05
-1.40404e-06
1.94672e-05
-1.49167e-06
1.9418e-05
-1.5821e-06
1.93658e-05
-1.67531e-06
1.93105e-05
-1.77128e-06
1.9252e-05
-1.86996e-06
1.91901e-05
-1.97129e-06
1.91248e-05
-2.07518e-06
1.9056e-05
-2.18153e-06
1.89835e-05
-2.2902e-06
1.89073e-05
-2.40106e-06
1.88273e-05
-2.51391e-06
1.87434e-05
-2.62856e-06
1.86557e-05
-2.74475e-06
1.8564e-05
-2.86221e-06
1.84683e-05
-2.98065e-06
1.83687e-05
-3.09971e-06
1.82651e-05
-3.21902e-06
1.81576e-05
-3.33816e-06
1.80462e-05
-3.45668e-06
1.79311e-05
-3.5741e-06
1.78123e-05
-3.68991e-06
1.76899e-05
-3.80356e-06
1.75642e-05
-3.9145e-06
1.74353e-05
-4.02215e-06
1.73035e-05
-4.12594e-06
1.7169e-05
-4.2253e-06
1.7032e-05
-4.31969e-06
1.68928e-05
-4.40856e-06
1.67518e-05
-4.49145e-06
1.66092e-05
-4.56791e-06
1.64655e-05
-4.63758e-06
1.63208e-05
-4.70016e-06
1.61756e-05
-4.75542e-06
1.60301e-05
-4.80321e-06
1.58848e-05
-4.84346e-06
1.57397e-05
-4.87617e-06
1.55953e-05
-4.90141e-06
1.54519e-05
-4.9193e-06
1.53095e-05
-4.93003e-06
1.51685e-05
-4.93382e-06
1.5029e-05
-4.93095e-06
1.48913e-05
-4.9217e-06
1.47555e-05
-4.9064e-06
1.46218e-05
-4.8854e-06
1.44904e-05
-4.85906e-06
1.43612e-05
-4.82775e-06
1.42346e-05
-4.79187e-06
1.41104e-05
-4.7518e-06
1.3989e-05
-4.70794e-06
1.38702e-05
-4.66068e-06
1.37542e-05
-4.61041e-06
1.36411e-05
-4.55753e-06
1.35308e-05
-4.50242e-06
1.34234e-05
-4.44546e-06
1.33189e-05
-4.38706e-06
1.32173e-05
-4.32759e-06
1.31187e-05
-4.26744e-06
1.30231e-05
-4.20701e-06
1.29303e-05
-4.14669e-06
1.28406e-05
-4.08689e-06
1.27537e-05
-4.02803e-06
1.26696e-05
-3.97052e-06
1.25884e-05
-3.91479e-06
1.25099e-05