/*--------------------------------*- C++ -*----------------------------------*\
  =========                 |
  \\      /  F ield         | OpenFOAM: The Open Source CFD Toolbox
   \\    /   O peration     | Website:  https://openfoam.org
    \\  /    A nd           | Version:  11
     \\/     M anipulation  |
\*---------------------------------------------------------------------------*/
FoamFile
{
    format      ascii;
    class       volScalarField;
    location    "436";
    object      nut;
}
// * * * * * * * * * * * * * * * * * * * * * * * * * * * * * * * * * * * * * //

dimensions      [0 2 -1 0 0 0 0];

internalField   nonuniform List<scalar> 
10000
(
0.000977116
0.000936703
0.000899642
0.000865614
0.00083433
0.000805533
0.00077899
0.000754493
0.000731854
0.000710903
0.000691489
0.000673474
0.000656735
0.00064116
0.000626648
0.000613108
0.000600458
0.000588624
0.000577538
0.000567138
0.000557369
0.000548181
0.000539528
0.000531368
0.000523663
0.000516379
0.000509483
0.000502948
0.000496746
0.000490853
0.000485247
0.000479908
0.000474818
0.000469959
0.000465315
0.000460873
0.000456618
0.00045254
0.000448627
0.000444869
0.000441257
0.000437782
0.000434438
0.000431218
0.000428116
0.000425127
0.000422247
0.000419473
0.000416802
0.000414232
0.000411763
0.000409395
0.000407128
0.000404966
0.00040291
0.000400966
0.000399139
0.000397435
0.000395864
0.000394433
0.000393154
0.000392039
0.000391102
0.000390357
0.00038982
0.00038951
0.000389443
0.00038964
0.000390119
0.000390902
0.000392006
0.00039345
0.000395254
0.000397431
0.000399996
0.00040296
0.000406328
0.000410105
0.000414288
0.000418871
0.000423842
0.000429184
0.000434872
0.000440878
0.000447164
0.000453688
0.0004604
0.000467247
0.000474166
0.000481093
0.000487952
0.000494662
0.000501135
0.00050727
0.00051296
0.000518079
0.000522491
0.000526044
0.000528571
0.000529892
0.000977116
0.000936703
0.000899642
0.000865614
0.00083433
0.000805533
0.000778991
0.000754494
0.000731854
0.000710903
0.000691489
0.000673474
0.000656735
0.00064116
0.000626648
0.000613109
0.000600459
0.000588624
0.000577538
0.000567138
0.00055737
0.000548182
0.000539529
0.000531369
0.000523664
0.00051638
0.000509484
0.000502949
0.000496747
0.000490854
0.000485248
0.000479909
0.000474819
0.00046996
0.000465316
0.000460874
0.00045662
0.000452541
0.000448628
0.00044487
0.000441258
0.000437784
0.00043444
0.00043122
0.000428118
0.000425129
0.000422249
0.000419475
0.000416804
0.000414234
0.000411765
0.000409397
0.000407131
0.000404968
0.000402913
0.000400968
0.000399141
0.000397438
0.000395866
0.000394435
0.000393156
0.000392041
0.000391103
0.000390358
0.000389821
0.00038951
0.000389443
0.000389639
0.000390117
0.000390898
0.000392001
0.000393445
0.000395246
0.000397422
0.000399986
0.000402948
0.000406315
0.00041009
0.000414271
0.000418853
0.000423822
0.000429162
0.000434849
0.000440852
0.000447136
0.000453658
0.000460368
0.000467212
0.000474131
0.000481057
0.000487916
0.000494626
0.000501099
0.000507235
0.000512925
0.000518045
0.000522458
0.000526011
0.000528539
0.00052986
0.000977116
0.000936703
0.000899643
0.000865614
0.000834331
0.000805534
0.000778991
0.000754494
0.000731855
0.000710904
0.00069149
0.000673475
0.000656736
0.000641161
0.000626649
0.000613109
0.00060046
0.000588625
0.000577539
0.000567139
0.000557371
0.000548183
0.00053953
0.00053137
0.000523665
0.000516381
0.000509486
0.00050295
0.000496748
0.000490855
0.00048525
0.000479911
0.000474821
0.000469962
0.000465318
0.000460876
0.000456622
0.000452544
0.000448631
0.000444873
0.000441261
0.000437787
0.000434443
0.000431223
0.000428121
0.000425133
0.000422253
0.000419479
0.000416808
0.000414238
0.000411769
0.000409401
0.000407134
0.000404972
0.000402916
0.000400972
0.000399144
0.000397441
0.000395868
0.000394437
0.000393157
0.000392042
0.000391103
0.000390357
0.000389819
0.000389506
0.000389437
0.000389631
0.000390108
0.000390886
0.000391987
0.000393428
0.000395226
0.000397399
0.000399959
0.000402917
0.000406281
0.000410052
0.00041423
0.000418808
0.000423774
0.00042911
0.000434793
0.000440793
0.000447073
0.000453591
0.000460299
0.000467142
0.000474059
0.000480984
0.000487843
0.000494554
0.000501027
0.000507165
0.000512856
0.000517978
0.000522392
0.000525947
0.000528475
0.000529796
0.000977116
0.000936703
0.000899643
0.000865615
0.000834331
0.000805534
0.000778992
0.000754495
0.000731855
0.000710905
0.000691491
0.000673476
0.000656737
0.000641162
0.00062665
0.000613111
0.000600461
0.000588627
0.000577541
0.000567141
0.000557372
0.000548185
0.000539532
0.000531372
0.000523667
0.000516383
0.000509488
0.000502952
0.000496751
0.000490858
0.000485253
0.000479914
0.000474824
0.000469965
0.000465321
0.000460879
0.000456625
0.000452547
0.000448634
0.000444877
0.000441265
0.000437791
0.000434447
0.000431227
0.000428126
0.000425137
0.000422258
0.000419484
0.000416813
0.000414243
0.000411774
0.000409406
0.000407139
0.000404976
0.000402921
0.000400976
0.000399148
0.000397444
0.000395871
0.000394439
0.000393159
0.000392042
0.000391102
0.000390354
0.000389814
0.000389499
0.000389428
0.000389619
0.000390093
0.000390868
0.000391964
0.000393401
0.000395195
0.000397363
0.000399918
0.000402871
0.000406229
0.000409995
0.000414167
0.000418739
0.0004237
0.000429031
0.000434708
0.000440703
0.000446978
0.000453492
0.000460197
0.000467037
0.000473953
0.000480877
0.000487735
0.000494447
0.000500922
0.000507061
0.000512754
0.000517878
0.000522294
0.000525851
0.000528381
0.000529703
0.000977117
0.000936704
0.000899643
0.000865615
0.000834332
0.000805535
0.000778993
0.000754496
0.000731856
0.000710906
0.000691492
0.000673477
0.000656738
0.000641163
0.000626652
0.000613112
0.000600463
0.000588629
0.000577542
0.000567143
0.000557375
0.000548187
0.000539534
0.000531375
0.00052367
0.000516386
0.000509491
0.000502955
0.000496754
0.000490861
0.000485256
0.000479918
0.000474828
0.000469969
0.000465326
0.000460884
0.00045663
0.000452552
0.000448639
0.000444882
0.00044127
0.000437796
0.000434453
0.000431233
0.000428132
0.000425143
0.000422264
0.00041949
0.000416819
0.00041425
0.000411781
0.000409412
0.000407146
0.000404983
0.000402927
0.000400982
0.000399154
0.000397449
0.000395875
0.000394442
0.000393161
0.000392042
0.000391101
0.00039035
0.000389808
0.000389491
0.000389416
0.000389604
0.000390073
0.000390844
0.000391935
0.000393366
0.000395155
0.000397316
0.000399865
0.00040281
0.000406161
0.000409919
0.000414084
0.000418649
0.000423603
0.000428926
0.000434597
0.000440586
0.000446855
0.000453364
0.000460065
0.000466902
0.000473816
0.000480739
0.000487597
0.000494309
0.000500785
0.000506926
0.000512622
0.000517748
0.000522167
0.000525726
0.000528258
0.000529581
0.000977117
0.000936704
0.000899643
0.000865615
0.000834332
0.000805536
0.000778993
0.000754497
0.000731858
0.000710907
0.000691493
0.000673479
0.00065674
0.000641165
0.000626654
0.000613114
0.000600465
0.000588631
0.000577545
0.000567145
0.000557377
0.00054819
0.000539537
0.000531378
0.000523673
0.000516389
0.000509494
0.000502959
0.000496758
0.000490865
0.00048526
0.000479922
0.000474832
0.000469974
0.000465331
0.000460889
0.000456635
0.000452558
0.000448645
0.000444888
0.000441277
0.000437803
0.00043446
0.000431241
0.000428139
0.000425151
0.000422272
0.000419498
0.000416828
0.000414258
0.000411789
0.000409421
0.000407154
0.000404991
0.000402935
0.00040099
0.000399161
0.000397455
0.00039588
0.000394446
0.000393163
0.000392043
0.000391099
0.000390347
0.000389801
0.00038948
0.000389402
0.000389585
0.00039005
0.000390815
0.0003919
0.000393325
0.000395106
0.00039726
0.0003998
0.000402737
0.000406079
0.000409828
0.000413984
0.00041854
0.000423484
0.0004288
0.000434463
0.000440443
0.000446706
0.000453209
0.000459905
0.000466738
0.000473649
0.00048057
0.000487428
0.000494141
0.000500618
0.000506762
0.00051246
0.00051759
0.000522012
0.000525574
0.000528108
0.000529431
0.000977117
0.000936704
0.000899644
0.000865616
0.000834333
0.000805537
0.000778994
0.000754498
0.000731859
0.000710909
0.000691495
0.000673481
0.000656742
0.000641167
0.000626656
0.000613117
0.000600467
0.000588634
0.000577548
0.000567148
0.00055738
0.000548193
0.000539541
0.000531381
0.000523677
0.000516393
0.000509499
0.000502964
0.000496762
0.00049087
0.000485265
0.000479927
0.000474838
0.000469979
0.000465337
0.000460895
0.000456642
0.000452565
0.000448653
0.000444896
0.000441285
0.000437811
0.000434468
0.000431249
0.000428148
0.00042516
0.000422281
0.000419508
0.000416837
0.000414268
0.000411799
0.000409431
0.000407164
0.000405001
0.000402944
0.000400999
0.000399169
0.000397463
0.000395887
0.000394451
0.000393166
0.000392044
0.000391098
0.000390342
0.000389794
0.000389469
0.000389386
0.000389564
0.000390023
0.000390781
0.00039186
0.000393276
0.000395049
0.000397194
0.000399725
0.000402652
0.000405984
0.000409723
0.000413868
0.000418413
0.000423347
0.000428653
0.000434306
0.000440278
0.000446533
0.000453029
0.000459719
0.000466548
0.000473456
0.000480375
0.000487232
0.000493945
0.000500424
0.00050657
0.000512271
0.000517404
0.000521829
0.000525394
0.000527931
0.000529255
0.000977117
0.000936704
0.000899644
0.000865616
0.000834334
0.000805537
0.000778995
0.000754499
0.00073186
0.00071091
0.000691497
0.000673483
0.000656744
0.00064117
0.000626658
0.000613119
0.00060047
0.000588637
0.000577551
0.000567152
0.000557384
0.000548197
0.000539544
0.000531385
0.000523681
0.000516398
0.000509503
0.000502969
0.000496767
0.000490876
0.000485271
0.000479933
0.000474844
0.000469986
0.000465344
0.000460903
0.00045665
0.000452573
0.000448661
0.000444904
0.000441294
0.000437821
0.000434478
0.000431259
0.000428159
0.000425171
0.000422292
0.000419519
0.000416849
0.00041428
0.000411811
0.000409443
0.000407176
0.000405012
0.000402955
0.000401009
0.000399179
0.000397471
0.000395894
0.000394457
0.00039317
0.000392046
0.000391097
0.000390338
0.000389785
0.000389456
0.000389368
0.000389541
0.000389993
0.000390744
0.000391814
0.000393222
0.000394986
0.000397121
0.000399641
0.000402557
0.000405877
0.000409604
0.000413737
0.00041827
0.000423193
0.000428487
0.00043413
0.000440092
0.000446338
0.000452826
0.00045951
0.000466334
0.000473238
0.000480155
0.00048701
0.000493724
0.000500204
0.000506353
0.000512057
0.000517193
0.000521622
0.00052519
0.000527729
0.000529054
0.000977117
0.000936704
0.000899644
0.000865617
0.000834334
0.000805538
0.000778997
0.0007545
0.000731862
0.000710912
0.000691499
0.000673485
0.000656746
0.000641172
0.000626661
0.000613122
0.000600473
0.00058864
0.000577554
0.000567155
0.000557388
0.000548201
0.000539549
0.00053139
0.000523686
0.000516403
0.000509509
0.000502974
0.000496773
0.000490882
0.000485278
0.00047994
0.000474851
0.000469994
0.000465352
0.000460911
0.000456658
0.000452582
0.00044867
0.000444914
0.000441304
0.000437831
0.000434489
0.000431271
0.00042817
0.000425183
0.000422305
0.000419532
0.000416862
0.000414293
0.000411824
0.000409456
0.000407189
0.000405025
0.000402968
0.000401021
0.00039919
0.000397482
0.000395903
0.000394464
0.000393175
0.000392048
0.000391096
0.000390334
0.000389777
0.000389443
0.000389349
0.000389515
0.00038996
0.000390704
0.000391765
0.000393164
0.000394917
0.00039704
0.000399548
0.000402452
0.000405759
0.000409473
0.000413593
0.000418114
0.000423023
0.000428305
0.000433935
0.000439887
0.000446123
0.000452603
0.000459279
0.000466097
0.000472997
0.000479911
0.000486766
0.000493479
0.000499961
0.000506111
0.000511819
0.000516959
0.000521392
0.000524963
0.000527504
0.00052883
0.000977117
0.000936704
0.000899645
0.000865617
0.000834335
0.000805539
0.000778998
0.000754502
0.000731863
0.000710914
0.000691501
0.000673487
0.000656749
0.000641175
0.000626664
0.000613125
0.000600477
0.000588643
0.000577558
0.000567159
0.000557392
0.000548205
0.000539554
0.000531395
0.000523691
0.000516409
0.000509515
0.00050298
0.00049678
0.000490889
0.000485285
0.000479948
0.000474859
0.000470002
0.00046536
0.00046092
0.000456668
0.000452592
0.000448681
0.000444925
0.000441315
0.000437843
0.000434501
0.000431283
0.000428184
0.000425197
0.000422319
0.000419546
0.000416876
0.000414308
0.000411839
0.000409471
0.000407204
0.00040504
0.000402982
0.000401035
0.000399203
0.000397493
0.000395914
0.000394473
0.000393182
0.000392052
0.000391096
0.00039033
0.000389769
0.000389429
0.00038933
0.000389489
0.000389926
0.000390661
0.000391713
0.000393101
0.000394842
0.000396954
0.000399449
0.00040234
0.000405633
0.000409332
0.000413438
0.000417944
0.000422839
0.000428107
0.000433725
0.000439665
0.00044589
0.000452361
0.000459029
0.00046584
0.000472735
0.000479646
0.000486499
0.000493213
0.000499696
0.000505849
0.000511559
0.000516703
0.000521139
0.000524714
0.000527258
0.000528585
0.000977117
0.000936705
0.000899645
0.000865618
0.000834336
0.00080554
0.000778999
0.000754503
0.000731865
0.000710916
0.000691503
0.000673489
0.000656751
0.000641177
0.000626667
0.000613128
0.00060048
0.000588647
0.000577562
0.000567164
0.000557396
0.00054821
0.000539559
0.0005314
0.000523697
0.000516415
0.000509521
0.000502987
0.000496787
0.000490896
0.000485293
0.000479956
0.000474868
0.000470011
0.00046537
0.00046093
0.000456678
0.000452602
0.000448692
0.000444937
0.000441327
0.000437856
0.000434515
0.000431297
0.000428198
0.000425211
0.000422334
0.000419562
0.000416892
0.000414324
0.000411856
0.000409487
0.00040722
0.000405056
0.000402998
0.00040105
0.000399217
0.000397506
0.000395925
0.000394482
0.000393189
0.000392056
0.000391097
0.000390327
0.000389761
0.000389415
0.000389309
0.000389461
0.00038989
0.000390616
0.000391658
0.000393034
0.000394764
0.000396862
0.000399344
0.00040222
0.000405498
0.000409183
0.000413273
0.000417764
0.000422644
0.000427897
0.000433502
0.000439428
0.000445642
0.000452102
0.000458761
0.000465566
0.000472455
0.000479363
0.000486214
0.000492927
0.000499411
0.000505566
0.00051128
0.000516427
0.000520867
0.000524445
0.000526991
0.00052832
0.000977117
0.000936705
0.000899645
0.000865618
0.000834336
0.000805541
0.000779
0.000754504
0.000731866
0.000710917
0.000691505
0.000673491
0.000656754
0.00064118
0.00062667
0.000613132
0.000600484
0.000588651
0.000577566
0.000567168
0.000557401
0.000548215
0.000539564
0.000531406
0.000523703
0.000516421
0.000509528
0.000502994
0.000496794
0.000490904
0.000485301
0.000479965
0.000474877
0.000470021
0.00046538
0.00046094
0.000456689
0.000452614
0.000448704
0.000444949
0.000441341
0.00043787
0.000434529
0.000431312
0.000428213
0.000425227
0.00042235
0.000419579
0.00041691
0.000414341
0.000411873
0.000409505
0.000407238
0.000405074
0.000403015
0.000401067
0.000399233
0.000397521
0.000395938
0.000394493
0.000393197
0.000392061
0.000391099
0.000390324
0.000389753
0.000389402
0.000389289
0.000389433
0.000389853
0.000390569
0.0003916
0.000392965
0.000394682
0.000396767
0.000399234
0.000402095
0.000405357
0.000409025
0.000413099
0.000417574
0.000422438
0.000427676
0.000433266
0.000439178
0.00044538
0.000451829
0.000458479
0.000465276
0.000472159
0.000479062
0.000485911
0.000492623
0.000499108
0.000505265
0.000510982
0.000516132
0.000520576
0.000524158
0.000526707
0.000528037
0.000977117
0.000936705
0.000899646
0.000865619
0.000834337
0.000805542
0.000779001
0.000754506
0.000731868
0.000710919
0.000691507
0.000673494
0.000656756
0.000641183
0.000626673
0.000613135
0.000600487
0.000588655
0.000577571
0.000567173
0.000557406
0.000548221
0.00053957
0.000531412
0.00052371
0.000516428
0.000509535
0.000503002
0.000496802
0.000490913
0.00048531
0.000479974
0.000474887
0.000470031
0.000465391
0.000460952
0.000456701
0.000452627
0.000448717
0.000444963
0.000441355
0.000437884
0.000434544
0.000431328
0.00042823
0.000425245
0.000422368
0.000419597
0.000416928
0.00041436
0.000411893
0.000409525
0.000407257
0.000405093
0.000403034
0.000401085
0.00039925
0.000397537
0.000395952
0.000394505
0.000393207
0.000392068
0.000391101
0.000390322
0.000389745
0.000389388
0.000389268
0.000389404
0.000389815
0.000390521
0.000391541
0.000392893
0.000394597
0.000396667
0.000399119
0.000401964
0.00040521
0.000408862
0.000412919
0.000417376
0.000422223
0.000427445
0.000433019
0.000438917
0.000445105
0.000451543
0.000458183
0.000464971
0.000471848
0.000478747
0.000485593
0.000492304
0.000498789
0.000504948
0.000510667
0.000515821
0.000520269
0.000523854
0.000526406
0.000527738
0.000977117
0.000936705
0.000899646
0.000865619
0.000834338
0.000805543
0.000779002
0.000754507
0.000731869
0.000710921
0.000691509
0.000673496
0.000656759
0.000641186
0.000626676
0.000613139
0.000600491
0.000588659
0.000577575
0.000567178
0.000557411
0.000548226
0.000539576
0.000531418
0.000523716
0.000516435
0.000509542
0.00050301
0.000496811
0.000490921
0.000485319
0.000479984
0.000474897
0.000470042
0.000465402
0.000460964
0.000456714
0.00045264
0.000448731
0.000444978
0.00044137
0.0004379
0.000434561
0.000431345
0.000428248
0.000425263
0.000422387
0.000419616
0.000416948
0.000414381
0.000411913
0.000409545
0.000407278
0.000405113
0.000403054
0.000401104
0.000399269
0.000397554
0.000395968
0.000394519
0.000393217
0.000392075
0.000391105
0.000390321
0.000389738
0.000389375
0.000389248
0.000389375
0.000389777
0.000390472
0.00039148
0.00039282
0.00039451
0.000396565
0.000399002
0.00040183
0.000405059
0.000408693
0.000412732
0.000417171
0.000422001
0.000427206
0.000432764
0.000438647
0.000444821
0.000451246
0.000457875
0.000464655
0.000471525
0.000478418
0.000485261
0.00049197
0.000498456
0.000504616
0.000510338
0.000515496
0.000519947
0.000523536
0.000526091
0.000527424
0.000977117
0.000936705
0.000899646
0.00086562
0.000834338
0.000805543
0.000779003
0.000754508
0.000731871
0.000710923
0.000691511
0.000673498
0.000656762
0.000641189
0.00062668
0.000613142
0.000600495
0.000588664
0.00057758
0.000567183
0.000557417
0.000548232
0.000539582
0.000531425
0.000523723
0.000516442
0.00050955
0.000503018
0.00049682
0.000490931
0.000485329
0.000479994
0.000474908
0.000470053
0.000465414
0.000460976
0.000456727
0.000452654
0.000448746
0.000444993
0.000441386
0.000437917
0.000434578
0.000431363
0.000428266
0.000425282
0.000422407
0.000419636
0.000416969
0.000414402
0.000411935
0.000409567
0.0004073
0.000405135
0.000403075
0.000401125
0.000399288
0.000397572
0.000395985
0.000394533
0.000393229
0.000392083
0.000391109
0.00039032
0.000389732
0.000389362
0.000389227
0.000389346
0.000389738
0.000390422
0.000391419
0.000392745
0.000394421
0.000396461
0.000398881
0.000401693
0.000404904
0.000408519
0.00041254
0.000416961
0.000421773
0.00042696
0.000432501
0.000438368
0.000444528
0.00045094
0.000457558
0.000464328
0.000471191
0.000478079
0.000484918
0.000491625
0.00049811
0.000504272
0.000509996
0.000515157
0.000519612
0.000523204
0.000525762
0.000527097
0.000977117
0.000936705
0.000899646
0.00086562
0.000834339
0.000805544
0.000779004
0.000754509
0.000731872
0.000710924
0.000691513
0.000673501
0.000656764
0.000641192
0.000626683
0.000613146
0.000600499
0.000588668
0.000577584
0.000567188
0.000557422
0.000548238
0.000539588
0.000531432
0.00052373
0.00051645
0.000509558
0.000503027
0.000496829
0.00049094
0.000485339
0.000480005
0.000474919
0.000470065
0.000465427
0.00046099
0.000456741
0.000452668
0.000448761
0.000445009
0.000441402
0.000437934
0.000434596
0.000431382
0.000428286
0.000425302
0.000422427
0.000419658
0.000416991
0.000414424
0.000411957
0.00040959
0.000407323
0.000405158
0.000403098
0.000401147
0.000399309
0.000397592
0.000396002
0.000394549
0.000393242
0.000392093
0.000391114
0.000390321
0.000389727
0.00038935
0.000389207
0.000389317
0.000389699
0.000390373
0.000391357
0.00039267
0.000394331
0.000396356
0.000398759
0.000401553
0.000404746
0.000408343
0.000412345
0.000416747
0.00042154
0.000426709
0.000432232
0.000438083
0.000444228
0.000450627
0.000457233
0.000463993
0.000470848
0.000477729
0.000484564
0.00049127
0.000497754
0.000503917
0.000509643
0.000514807
0.000519265
0.000522861
0.000525422
0.000526759
0.000977117
0.000936705
0.000899647
0.000865621
0.000834339
0.000805545
0.000779005
0.00075451
0.000731874
0.000710926
0.000691515
0.000673503
0.000656767
0.000641195
0.000626686
0.00061315
0.000600503
0.000588672
0.000577589
0.000567193
0.000557428
0.000548244
0.000539594
0.000531438
0.000523738
0.000516458
0.000509567
0.000503035
0.000496838
0.00049095
0.00048535
0.000480016
0.000474931
0.000470077
0.00046544
0.000461003
0.000456755
0.000452683
0.000448777
0.000445025
0.00044142
0.000437952
0.000434615
0.000431401
0.000428306
0.000425323
0.000422449
0.00041968
0.000417014
0.000414448
0.000411981
0.000409614
0.000407347
0.000405182
0.000403122
0.00040117
0.000399331
0.000397613
0.000396021
0.000394566
0.000393256
0.000392103
0.000391121
0.000390322
0.000389722
0.000389339
0.000389188
0.000389289
0.000389661
0.000390323
0.000391295
0.000392594
0.00039424
0.000396249
0.000398636
0.000401412
0.000404586
0.000408164
0.000412146
0.000416529
0.000421303
0.000426453
0.000431959
0.000437793
0.000443923
0.000450307
0.000456901
0.000463651
0.000470497
0.000477372
0.000484203
0.000490906
0.000497389
0.000503553
0.000509281
0.000514448
0.000518909
0.000522509
0.000525072
0.000526411
0.000977117
0.000936706
0.000899647
0.000865621
0.00083434
0.000805546
0.000779006
0.000754512
0.000731875
0.000710928
0.000691517
0.000673505
0.00065677
0.000641198
0.000626689
0.000613153
0.000600507
0.000588677
0.000577594
0.000567198
0.000557433
0.00054825
0.000539601
0.000531445
0.000523745
0.000516466
0.000509575
0.000503044
0.000496848
0.00049096
0.00048536
0.000480027
0.000474943
0.00047009
0.000465453
0.000461017
0.00045677
0.000452699
0.000448793
0.000445042
0.000441437
0.000437971
0.000434634
0.000431421
0.000428327
0.000425345
0.000422471
0.000419703
0.000417037
0.000414472
0.000412006
0.000409639
0.000407372
0.000405207
0.000403146
0.000401194
0.000399355
0.000397635
0.000396041
0.000394583
0.000393271
0.000392115
0.000391128
0.000390324
0.000389719
0.000389328
0.000389169
0.000389262
0.000389623
0.000390274
0.000391233
0.000392519
0.00039415
0.000396142
0.000398512
0.00040127
0.000404425
0.000407984
0.000411947
0.00041631
0.000421064
0.000426195
0.000431683
0.0004375
0.000443613
0.000449983
0.000456565
0.000463304
0.000470141
0.000477009
0.000483835
0.000490535
0.000497017
0.000503181
0.000508911
0.00051408
0.000518545
0.000522148
0.000524714
0.000526054
0.000977117
0.000936706
0.000899647
0.000865621
0.00083434
0.000805546
0.000779007
0.000754513
0.000731877
0.000710929
0.000691519
0.000673508
0.000656772
0.000641201
0.000626693
0.000613157
0.000600511
0.000588681
0.000577599
0.000567203
0.000557439
0.000548256
0.000539607
0.000531452
0.000523753
0.000516474
0.000509584
0.000503054
0.000496857
0.000490971
0.000485371
0.000480039
0.000474955
0.000470103
0.000465466
0.000461032
0.000456785
0.000452714
0.000448809
0.000445059
0.000441456
0.00043799
0.000434654
0.000431442
0.000428348
0.000425367
0.000422494
0.000419727
0.000417062
0.000414497
0.000412031
0.000409664
0.000407398
0.000405233
0.000403172
0.000401219
0.000399379
0.000397657
0.000396062
0.000394602
0.000393287
0.000392127
0.000391136
0.000390327
0.000389716
0.000389318
0.000389152
0.000389235
0.000389586
0.000390225
0.000391171
0.000392443
0.000394059
0.000396036
0.000398388
0.000401127
0.000404264
0.000407803
0.000411746
0.000416089
0.000420824
0.000425935
0.000431404
0.000437204
0.000443301
0.000449656
0.000456225
0.000462952
0.00046978
0.000476642
0.000483462
0.000490159
0.00049664
0.000502804
0.000508535
0.000513707
0.000518175
0.00052178
0.000524349
0.000525691
0.000977117
0.000936706
0.000899647
0.000865622
0.000834341
0.000805547
0.000779007
0.000754514
0.000731878
0.000710931
0.000691521
0.00067351
0.000656775
0.000641204
0.000626696
0.00061316
0.000600515
0.000588685
0.000577603
0.000567208
0.000557445
0.000548262
0.000539614
0.00053146
0.00052376
0.000516482
0.000509592
0.000503063
0.000496867
0.000490981
0.000485382
0.000480051
0.000474968
0.000470116
0.00046548
0.000461046
0.0004568
0.000452731
0.000448826
0.000445077
0.000441474
0.000438009
0.000434674
0.000431463
0.00042837
0.00042539
0.000422518
0.000419751
0.000417086
0.000414522
0.000412057
0.000409691
0.000407424
0.000405259
0.000403198
0.000401244
0.000399403
0.000397681
0.000396084
0.000394622
0.000393303
0.00039214
0.000391145
0.000390331
0.000389714
0.000389309
0.000389135
0.000389209
0.00038955
0.000390177
0.000391111
0.000392369
0.000393969
0.000395929
0.000398264
0.000400985
0.000404103
0.000407622
0.000411545
0.000415868
0.000420583
0.000425675
0.000431125
0.000436907
0.000442987
0.000449328
0.000455883
0.000462599
0.000469418
0.000476271
0.000483086
0.000489779
0.000496258
0.000502422
0.000508155
0.000513328
0.000517799
0.000521408
0.00052398
0.000525323
0.000977117
0.000936706
0.000899648
0.000865622
0.000834341
0.000805547
0.000779008
0.000754515
0.000731879
0.000710933
0.000691522
0.000673512
0.000656777
0.000641206
0.000626699
0.000613164
0.000600519
0.00058869
0.000577608
0.000567214
0.00055745
0.000548268
0.000539621
0.000531467
0.000523768
0.00051649
0.000509601
0.000503072
0.000496877
0.000490991
0.000485393
0.000480062
0.00047498
0.000470129
0.000465494
0.000461061
0.000456816
0.000452747
0.000448843
0.000445095
0.000441493
0.000438029
0.000434695
0.000431485
0.000428393
0.000425413
0.000422542
0.000419776
0.000417112
0.000414548
0.000412083
0.000409718
0.000407451
0.000405286
0.000403225
0.000401271
0.000399429
0.000397705
0.000396107
0.000394642
0.000393321
0.000392154
0.000391155
0.000390336
0.000389712
0.000389301
0.000389118
0.000389183
0.000389514
0.00039013
0.000391051
0.000392295
0.00039388
0.000395824
0.000398141
0.000400844
0.000403943
0.000407442
0.000411345
0.000415648
0.000420342
0.000425415
0.000430846
0.00043661
0.000442674
0.000448999
0.00045554
0.000462245
0.000469053
0.000475899
0.000482708
0.000489397
0.000495875
0.000502037
0.000507771
0.000512947
0.00051742
0.000521032
0.000523606
0.000524951
0.000977117
0.000936706
0.000899648
0.000865622
0.000834342
0.000805548
0.000779009
0.000754516
0.00073188
0.000710934
0.000691524
0.000673514
0.000656779
0.000641209
0.000626702
0.000613167
0.000600523
0.000588694
0.000577613
0.000567219
0.000557456
0.000548274
0.000539627
0.000531474
0.000523775
0.000516498
0.00050961
0.000503081
0.000496887
0.000491002
0.000485405
0.000480074
0.000474993
0.000470143
0.000465508
0.000461076
0.000456831
0.000452763
0.000448861
0.000445114
0.000441512
0.000438049
0.000434716
0.000431507
0.000428415
0.000425437
0.000422566
0.000419801
0.000417138
0.000414575
0.00041211
0.000409745
0.000407479
0.000405314
0.000403252
0.000401297
0.000399455
0.00039773
0.00039613
0.000394663
0.000393339
0.000392169
0.000391165
0.000390341
0.000389712
0.000389294
0.000389103
0.000389159
0.00038948
0.000390084
0.000390992
0.000392222
0.000393793
0.00039572
0.00039802
0.000400705
0.000403784
0.000407264
0.000411146
0.000415429
0.000420103
0.000425156
0.000430568
0.000436314
0.000442361
0.000448671
0.000455198
0.000461891
0.000468689
0.000475527
0.00048233
0.000489015
0.00049549
0.000501652
0.000507386
0.000512564
0.000517039
0.000520654
0.000523231
0.000524577
0.000977117
0.000936706
0.000899648
0.000865622
0.000834342
0.000805549
0.00077901
0.000754517
0.000731882
0.000710935
0.000691526
0.000673516
0.000656782
0.000641212
0.000626705
0.000613171
0.000600527
0.000588698
0.000577617
0.000567224
0.000557461
0.00054828
0.000539634
0.000531481
0.000523783
0.000516506
0.000509618
0.000503091
0.000496897
0.000491013
0.000485416
0.000480086
0.000475005
0.000470156
0.000465523
0.000461091
0.000456847
0.00045278
0.000448878
0.000445132
0.000441532
0.000438069
0.000434737
0.000431529
0.000428438
0.00042546
0.000422591
0.000419826
0.000417164
0.000414601
0.000412138
0.000409773
0.000407507
0.000405342
0.00040328
0.000401325
0.000399481
0.000397755
0.000396153
0.000394684
0.000393358
0.000392184
0.000391176
0.000390347
0.000389712
0.000389287
0.000389089
0.000389136
0.000389446
0.00039004
0.000390935
0.000392151
0.000393707
0.000395618
0.0003979
0.000400567
0.000403627
0.000407087
0.00041095
0.000415212
0.000419867
0.0004249
0.000430293
0.00043602
0.00044205
0.000448345
0.000454858
0.000461539
0.000468327
0.000475156
0.000481953
0.000488633
0.000495106
0.000501267
0.000507001
0.00051218
0.000516658
0.000520275
0.000522855
0.000524203
0.000977117
0.000936706
0.000899648
0.000865623
0.000834343
0.000805549
0.00077901
0.000754518
0.000731883
0.000710937
0.000691528
0.000673518
0.000656784
0.000641214
0.000626708
0.000613174
0.00060053
0.000588702
0.000577622
0.000567229
0.000557467
0.000548286
0.00053964
0.000531488
0.00052379
0.000516514
0.000509627
0.0005031
0.000496907
0.000491023
0.000485427
0.000480098
0.000475018
0.000470169
0.000465537
0.000461106
0.000456863
0.000452797
0.000448896
0.00044515
0.000441551
0.000438089
0.000434758
0.000431551
0.000428461
0.000425484
0.000422616
0.000419852
0.00041719
0.000414628
0.000412165
0.0004098
0.000407535
0.00040537
0.000403308
0.000401352
0.000399508
0.000397781
0.000396177
0.000394706
0.000393377
0.0003922
0.000391188
0.000390354
0.000389714
0.000389282
0.000389076
0.000389114
0.000389414
0.000389996
0.000390879
0.000392082
0.000393622
0.000395518
0.000397783
0.000400431
0.000403473
0.000406914
0.000410756
0.000414999
0.000419633
0.000424647
0.000430021
0.00043573
0.000441743
0.000448022
0.000454521
0.000461189
0.000467967
0.000474788
0.000481578
0.000488254
0.000494723
0.000500883
0.000506618
0.000511798
0.000516278
0.000519898
0.000522479
0.000523829
0.000977117
0.000936706
0.000899648
0.000865623
0.000834343
0.00080555
0.000779011
0.000754518
0.000731884
0.000710938
0.000691529
0.00067352
0.000656786
0.000641217
0.000626711
0.000613177
0.000600534
0.000588706
0.000577626
0.000567233
0.000557472
0.000548292
0.000539646
0.000531494
0.000523798
0.000516522
0.000509635
0.000503109
0.000496916
0.000491033
0.000485438
0.00048011
0.000475031
0.000470183
0.000465551
0.000461121
0.000456879
0.000452813
0.000448913
0.000445169
0.00044157
0.000438109
0.000434779
0.000431573
0.000428484
0.000425508
0.00042264
0.000419877
0.000417216
0.000414655
0.000412193
0.000409828
0.000407563
0.000405398
0.000403336
0.00040138
0.000399535
0.000397806
0.000396202
0.000394728
0.000393396
0.000392216
0.0003912
0.000390362
0.000389715