/*--------------------------------*- C++ -*----------------------------------*\
  =========                 |
  \\      /  F ield         | OpenFOAM: The Open Source CFD Toolbox
   \\    /   O peration     | Website:  https://openfoam.org
    \\  /    A nd           | Version:  11
     \\/     M anipulation  |
\*---------------------------------------------------------------------------*/
FoamFile
{
    format      ascii;
    class       volScalarField;
    location    "434";
    object      omega;
}
// * * * * * * * * * * * * * * * * * * * * * * * * * * * * * * * * * * * * * //

dimensions      [0 0 -1 0 0 0 0];

internalField   nonuniform List<scalar> 
10000
(
0.961693
0.892186
0.829086
0.771729
0.719524
0.671944
0.628521
0.588839
0.552525
0.519247
0.48871
0.460648
0.434825
0.41103
0.389073
0.368784
0.35001
0.332616
0.316478
0.301484
0.287537
0.274546
0.262429
0.251115
0.240536
0.230632
0.221351
0.212641
0.204459
0.196763
0.189517
0.182688
0.176243
0.170155
0.164399
0.15895
0.153787
0.148891
0.144242
0.139825
0.135623
0.131623
0.127812
0.124176
0.120706
0.11739
0.114218
0.111183
0.108274
0.105485
0.102808
0.100236
0.0977628
0.0953822
0.0930885
0.0908763
0.0887406
0.0866765
0.0846796
0.0827456
0.0808704
0.0790503
0.0772817
0.0755614
0.0738861
0.0722532
0.07066
0.0691044
0.0675843
0.0660982
0.0646445
0.0632224
0.0618313
0.0604706
0.0591406
0.0578414
0.0565736
0.0553381
0.0541358
0.052968
0.051836
0.0507414
0.0496855
0.0486697
0.0476955
0.046764
0.0458764
0.0450338
0.0442375
0.0434887
0.0427888
0.0421393
0.041542
0.0409994
0.0405144
0.0400909
0.039734
0.0394504
0.0392489
0.0391409
0.961693
0.892186
0.829086
0.771729
0.719524
0.671944
0.628521
0.588839
0.552525
0.519247
0.48871
0.460648
0.434825
0.41103
0.389073
0.368784
0.350011
0.332616
0.316478
0.301485
0.287537
0.274546
0.26243
0.251115
0.240536
0.230633
0.221351
0.212641
0.204459
0.196764
0.189518
0.182688
0.176243
0.170156
0.164399
0.15895
0.153788
0.148891
0.144243
0.139825
0.135624
0.131624
0.127812
0.124177
0.120707
0.11739
0.114219
0.111183
0.108275
0.105486
0.102809
0.100237
0.0977638
0.0953833
0.0930896
0.0908775
0.0887419
0.0866779
0.0846811
0.0827472
0.0808722
0.0790522
0.0772837
0.0755635
0.0738884
0.0722556
0.0706627
0.0691072
0.0675873
0.0661013
0.0646478
0.0632259
0.0618349
0.0604744
0.0591445
0.0578454
0.0565777
0.0553423
0.0541401
0.0529725
0.0518406
0.050746
0.0496901
0.0486743
0.0476999
0.0467682
0.0458803
0.0450376
0.0442412
0.0434922
0.0427921
0.0421424
0.041545
0.0410022
0.0405171
0.0400934
0.0397365
0.0394528
0.0392512
0.0391432
0.961693
0.892186
0.829086
0.771729
0.719524
0.671944
0.628522
0.588839
0.552525
0.519247
0.48871
0.460648
0.434826
0.411031
0.389074
0.368785
0.350011
0.332617
0.316478
0.301485
0.287538
0.274546
0.26243
0.251115
0.240537
0.230633
0.221352
0.212642
0.20446
0.196764
0.189518
0.182689
0.176244
0.170156
0.1644
0.158951
0.153788
0.148892
0.144244
0.139826
0.135625
0.131625
0.127813
0.124178
0.120708
0.117392
0.11422
0.111185
0.108276
0.105487
0.10281
0.100239
0.0977655
0.0953851
0.0930915
0.0908796
0.0887441
0.0866803
0.0846836
0.0827499
0.080875
0.0790552
0.077287
0.075567
0.0738921
0.0722596
0.0706669
0.0691117
0.0675921
0.0661064
0.0646532
0.0632316
0.0618408
0.0604806
0.059151
0.0578521
0.0565846
0.0553494
0.0541474
0.0529799
0.0518482
0.0507536
0.0496977
0.0486818
0.0477073
0.0467754
0.0458874
0.0450444
0.0442477
0.0434985
0.0427982
0.0421482
0.0415505
0.0410075
0.0405221
0.0400983
0.0397411
0.0394573
0.0392556
0.0391475
0.961693
0.892186
0.829087
0.77173
0.719524
0.671944
0.628522
0.58884
0.552526
0.519248
0.488711
0.460649
0.434826
0.411031
0.389074
0.368785
0.350012
0.332617
0.316479
0.301486
0.287539
0.274547
0.262431
0.251116
0.240537
0.230634
0.221352
0.212643
0.204461
0.196765
0.189519
0.18269
0.176245
0.170157
0.164401
0.158952
0.15379
0.148893
0.144245
0.139828
0.135626
0.131626
0.127815
0.12418
0.120709
0.117393
0.114222
0.111187
0.108278
0.105489
0.102813
0.100241
0.0977679
0.0953876
0.0930942
0.0908824
0.0887471
0.0866835
0.0846871
0.0827536
0.080879
0.0790595
0.0772915
0.0755718
0.0738973
0.0722651
0.0706728
0.069118
0.0675988
0.0661135
0.0646607
0.0632395
0.0618492
0.0604894
0.05916
0.0578615
0.0565944
0.0553594
0.0541577
0.0529903
0.0518587
0.0507643
0.0497084
0.0486924
0.0477177
0.0467856
0.0458974
0.0450541
0.0442571
0.0435076
0.0428068
0.0421565
0.0415585
0.0410152
0.0405295
0.0401054
0.0397479
0.0394639
0.0392621
0.0391539
0.961693
0.892186
0.829087
0.77173
0.719524
0.671945
0.628522
0.58884
0.552526
0.519248
0.488711
0.46065
0.434827
0.411032
0.389075
0.368786
0.350013
0.332618
0.31648
0.301487
0.287539
0.274548
0.262432
0.251117
0.240538
0.230635
0.221353
0.212644
0.204462
0.196766
0.189521
0.182691
0.176246
0.170159
0.164402
0.158954
0.153791
0.148895
0.144246
0.139829
0.135628
0.131628
0.127817
0.124182
0.120711
0.117395
0.114224
0.111189
0.108281
0.105492
0.102815
0.100244
0.097771
0.0953909
0.0930977
0.0908861
0.0887511
0.0866877
0.0846916
0.0827583
0.0808841
0.0790649
0.0772973
0.075578
0.073904
0.0722723
0.0706804
0.0691261
0.0676074
0.0661226
0.0646704
0.0632497
0.0618599
0.0605005
0.0591717
0.0578736
0.0566068
0.0553722
0.0541707
0.0530036
0.0518721
0.0507778
0.0497218
0.0487058
0.0477309
0.0467986
0.0459101
0.0450665
0.0442691
0.0435191
0.042818
0.0421673
0.0415688
0.041025
0.040539
0.0401145
0.0397568
0.0394725
0.0392705
0.0391622
0.961693
0.892186
0.829087
0.77173
0.719525
0.671945
0.628523
0.58884
0.552527
0.519249
0.488712
0.46065
0.434828
0.411033
0.389076
0.368787
0.350014
0.332619
0.316481
0.301488
0.28754
0.274549
0.262433
0.251118
0.24054
0.230636
0.221355
0.212645
0.204463
0.196768
0.189522
0.182692
0.176248
0.17016
0.164404
0.158955
0.153793
0.148897
0.144248
0.139831
0.13563
0.13163
0.127819
0.124184
0.120714
0.117398
0.114227
0.111192
0.108284
0.105495
0.102819
0.100247
0.0977748
0.0953949
0.093102
0.0908906
0.0887558
0.0866928
0.084697
0.0827641
0.0808903
0.0790715
0.0773044
0.0755856
0.073912
0.0722809
0.0706896
0.0691359
0.0676178
0.0661336
0.064682
0.0632619
0.0618727
0.0605139
0.0591856
0.057888
0.0566217
0.0553875
0.0541863
0.0530195
0.0518882
0.0507939
0.049738
0.0487218
0.0477468
0.0468142
0.0459253
0.0450814
0.0442835
0.0435331
0.0428315
0.0421802
0.0415813
0.041037
0.0405505
0.0401256
0.0397675
0.0394829
0.0392807
0.0391722
0.961693
0.892186
0.829087
0.77173
0.719525
0.671945
0.628523
0.588841
0.552527
0.51925
0.488713
0.460651
0.434829
0.411034
0.389077
0.368788
0.350015
0.33262
0.316482
0.301489
0.287542
0.27455
0.262434
0.25112
0.240541
0.230638
0.221356
0.212647
0.204465
0.196769
0.189524
0.182694
0.17625
0.170162
0.164406
0.158957
0.153795
0.148899
0.144251
0.139834
0.135633
0.131633
0.127822
0.124187
0.120717
0.117401
0.11423
0.111195
0.108287
0.105499
0.102823
0.100252
0.0977792
0.0953996
0.0931069
0.0908959
0.0887614
0.0866988
0.0847033
0.0827709
0.0808975
0.0790792
0.0773126
0.0755944
0.0739214
0.0722908
0.0707002
0.0691472
0.0676298
0.0661463
0.0646954
0.063276
0.0618875
0.0605294
0.0592017
0.0579047
0.0566389
0.0554051
0.0542043
0.0530378
0.0519067
0.0508125
0.0497566
0.0487403
0.0477651
0.0468322
0.0459429
0.0450985
0.0443002
0.0435492
0.0428471
0.0421952
0.0415957
0.0410509
0.0405638
0.0401385
0.0397799
0.039495
0.0392925
0.0391838
0.961693
0.892186
0.829087
0.77173
0.719525
0.671945
0.628523
0.588841
0.552528
0.51925
0.488713
0.460652
0.434829
0.411035
0.389078
0.368789
0.350016
0.332621
0.316483
0.30149
0.287543
0.274552
0.262436
0.251121
0.240543
0.230639
0.221358
0.212648
0.204467
0.196771
0.189526
0.182696
0.176252
0.170164
0.164408
0.15896
0.153797
0.148901
0.144253
0.139836
0.135635
0.131636
0.127825
0.12419
0.12072
0.117405
0.114234
0.111199
0.108291
0.105503
0.102827
0.100256
0.0977843
0.0954049
0.0931126
0.0909019
0.0887678
0.0867055
0.0847105
0.0827786
0.0809056
0.0790879
0.0773219
0.0756043
0.0739319
0.0723021
0.0707122
0.0691599
0.0676432
0.0661606
0.0647105
0.0632919
0.0619041
0.0605468
0.0592198
0.0579234
0.0566582
0.0554249
0.0542245
0.0530583
0.0519274
0.0508333
0.0497773
0.048761
0.0477855
0.0468523
0.0459626
0.0451178
0.0443189
0.0435674
0.0428646
0.0422121
0.041612
0.0410666
0.0405789
0.040153
0.039794
0.0395087
0.0393058
0.039197
0.961693
0.892186
0.829087
0.77173
0.719525
0.671946
0.628524
0.588842
0.552528
0.519251
0.488714
0.460652
0.43483
0.411035
0.389079
0.36879
0.350017
0.332623
0.316484
0.301492
0.287544
0.274553
0.262437
0.251123
0.240544
0.230641
0.22136
0.21265
0.204468
0.196773
0.189528
0.182698
0.176254
0.170167
0.164411
0.158962
0.1538
0.148904
0.144256
0.139839
0.135639
0.131639
0.127828
0.124194
0.120724
0.117409
0.114238
0.111203
0.108296
0.105508
0.102832
0.100262
0.0977898
0.0954108
0.0931188
0.0909085
0.0887748
0.086713
0.0847185
0.082787
0.0809146
0.0790975
0.0773322
0.0756152
0.0739436
0.0723145
0.0707254
0.0691739
0.0676581
0.0661763
0.064727
0.0633093
0.0619224
0.0605658
0.0592396
0.0579439
0.0566793
0.0554466
0.0542467
0.0530807
0.0519501
0.0508561
0.0498001
0.0487836
0.0478079
0.0468744
0.0459843
0.0451389
0.0443395
0.0435873
0.0428839
0.0422307
0.0416299
0.0410838
0.0405955
0.040169
0.0398095
0.0395238
0.0393206
0.0392115
0.961693
0.892186
0.829087
0.77173
0.719525
0.671946
0.628524
0.588842
0.552528
0.519251
0.488714
0.460653
0.434831
0.411036
0.38908
0.368791
0.350018
0.332624
0.316486
0.301493
0.287546
0.274555
0.262439
0.251125
0.240546
0.230643
0.221362
0.212652
0.204471
0.196775
0.18953
0.182701
0.176256
0.170169
0.164413
0.158965
0.153803
0.148907
0.144259
0.139843
0.135642
0.131643
0.127832
0.124198
0.120728
0.117413
0.114243
0.111208
0.108301
0.105513
0.102838
0.100267
0.0977959
0.0954172
0.0931256
0.0909157
0.0887825
0.0867211
0.0847271
0.0827963
0.0809245
0.079108
0.0773433
0.0756271
0.0739562
0.072328
0.0707397
0.0691891
0.0676742
0.0661933
0.064745
0.0633282
0.0619421
0.0605864
0.059261
0.0579661
0.0567022
0.05547
0.0542705
0.053105
0.0519746
0.0508807
0.0498247
0.0488081
0.0478321
0.0468982
0.0460077
0.0451617
0.0443617
0.0436089
0.0429047
0.0422509
0.0416493
0.0411025
0.0406136
0.0401864
0.0398264
0.0395401
0.0393366
0.0392273
0.961693
0.892186
0.829087
0.77173
0.719525
0.671946
0.628524
0.588842
0.552529
0.519252
0.488715
0.460654
0.434832
0.411037
0.389081
0.368792
0.350019
0.332625
0.316487
0.301494
0.287547
0.274556
0.26244
0.251126
0.240548
0.230645
0.221364
0.212654
0.204473
0.196778
0.189532
0.182703
0.176259
0.170172
0.164416
0.158968
0.153806
0.14891
0.144263
0.139846
0.135646
0.131647
0.127836
0.124202
0.120732
0.117417
0.114247
0.111213
0.108306
0.105519
0.102844
0.100274
0.0978025
0.0954242
0.093133
0.0909235
0.0887908
0.0867299
0.0847365
0.0828062
0.080935
0.0791192
0.0773553
0.0756398
0.0739698
0.0723424
0.070755
0.0692053
0.0676914
0.0662115
0.0647641
0.0633483
0.0619632
0.0606084
0.0592838
0.0579897
0.0567265
0.0554949
0.054296
0.0531308
0.0520006
0.0509068
0.0498509
0.0488341
0.0478579
0.0469236
0.0460326
0.0451861
0.0443854
0.0436319
0.042927
0.0422724
0.0416701
0.0411225
0.0406328
0.0402051
0.0398444
0.0395577
0.0393538
0.0392443
0.961693
0.892186
0.829087
0.77173
0.719525
0.671946
0.628524
0.588843
0.552529
0.519252
0.488716
0.460654
0.434833
0.411038
0.389081
0.368793
0.35002
0.332626
0.316488
0.301496
0.287549
0.274558
0.262442
0.251128
0.24055
0.230647
0.221366
0.212657
0.204475
0.19678
0.189535
0.182706
0.176262
0.170175
0.164419
0.158971
0.153809
0.148914
0.144266
0.13985
0.135649
0.131651
0.12784
0.124206
0.120737
0.117422
0.114253
0.111218
0.108312
0.105525
0.10285
0.10028
0.0978095
0.0954316
0.0931408
0.0909318
0.0887995
0.0867392
0.0847464
0.0828167
0.0809462
0.0791312
0.077368
0.0756533
0.0739842
0.0723577
0.0707712
0.0692225
0.0677096
0.0662307
0.0647843
0.0633695
0.0619854
0.0606316
0.0593079
0.0580146
0.0567521
0.0555212
0.0543227
0.0531579
0.052028
0.0509344
0.0498784
0.0488615
0.047885
0.0469504
0.0460589
0.0452118
0.0444104
0.0436562
0.0429505
0.0422951
0.041692
0.0411437
0.0406533
0.0402248
0.0398635
0.0395763
0.039372
0.0392623
0.961693
0.892186
0.829087
0.77173
0.719525
0.671946
0.628524
0.588843
0.552529
0.519253
0.488716
0.460655
0.434833
0.411039
0.389082
0.368794
0.350021
0.332627
0.31649
0.301497
0.28755
0.27456
0.262444
0.25113
0.240552
0.230649
0.221368
0.212659
0.204477
0.196783
0.189538
0.182708
0.176265
0.170178
0.164422
0.158974
0.153813
0.148917
0.14427
0.139854
0.135653
0.131655
0.127845
0.124211
0.120742
0.117427
0.114258
0.111224
0.108318
0.105531
0.102856
0.100287
0.0978168
0.0954393
0.093149
0.0909405
0.0888088
0.0867491
0.0847568
0.0828278
0.080958
0.0791437
0.0773813
0.0756675
0.0739993
0.0723737
0.0707882
0.0692405
0.0677286
0.0662508
0.0648055
0.0633917
0.0620086
0.0606558
0.059333
0.0580406
0.0567788
0.0555486
0.0543507
0.0531863
0.0520567
0.0509632
0.0499072
0.0488901
0.0479134
0.0469783
0.0460863
0.0452386
0.0444366
0.0436816
0.0429752
0.0423189
0.041715
0.0411659
0.0406747
0.0402455
0.0398836
0.0395958
0.0393911
0.0392811
0.961693
0.892186
0.829087
0.77173
0.719525
0.671946
0.628524
0.588843
0.55253
0.519253
0.488716
0.460656
0.434834
0.41104
0.389083
0.368795
0.350022
0.332629
0.316491
0.301499
0.287552
0.274561
0.262446
0.251132
0.240554
0.230651
0.22137
0.212661
0.20448
0.196785
0.18954
0.182711
0.176268
0.170181
0.164425
0.158978
0.153816
0.148921
0.144274
0.139858
0.135658
0.131659
0.127849
0.124216
0.120747
0.117433
0.114263
0.11123
0.108324
0.105538
0.102863
0.100294
0.0978245
0.0954475
0.0931576
0.0909496
0.0888185
0.0867593
0.0847677
0.0828394
0.0809703
0.0791568
0.0773952
0.0756823
0.0740149
0.0723903
0.0708059
0.0692593
0.0677484
0.0662716
0.0648274
0.0634147
0.0620327
0.0606809
0.0593591
0.0580675
0.0568065
0.055577
0.0543796
0.0532157
0.0520863
0.050993
0.049937
0.0489198
0.0479428
0.0470073
0.0461148
0.0452665
0.0444637
0.043708
0.0430007
0.0423437
0.0417389
0.0411889
0.0406969
0.040267
0.0399044
0.0396161
0.039411
0.0393008
0.961693
0.892186
0.829087
0.77173
0.719525
0.671946
0.628525
0.588843
0.55253
0.519253
0.488717
0.460656
0.434834
0.41104
0.389084
0.368796
0.350023
0.33263
0.316492
0.3015
0.287553
0.274563
0.262447
0.251134
0.240555
0.230653
0.221372
0.212663
0.204482
0.196788
0.189543
0.182714
0.17627
0.170184
0.164429
0.158981
0.15382
0.148925
0.144278
0.139862
0.135662
0.131664
0.127854
0.124221
0.120752
0.117438
0.114269
0.111236
0.10833
0.105544
0.10287
0.100302
0.0978325
0.0954559
0.0931665
0.0909591
0.0888285
0.0867699
0.084779
0.0828513
0.0809831
0.0791703
0.0774096
0.0756976
0.0740312
0.0724076
0.0708241
0.0692786
0.0677688
0.0662931
0.0648501
0.0634385
0.0620575
0.0607067
0.0593859
0.0580952
0.0568351
0.0556062
0.0544094
0.0532459
0.0521169
0.0510237
0.0499677
0.0489503
0.047973
0.0470371
0.0461441
0.0452951
0.0444917
0.0437352
0.0430271
0.0423692
0.0417635
0.0412127
0.0407199
0.0402892
0.0399259
0.039637
0.0394315
0.0393211
0.961693
0.892186
0.829087
0.77173
0.719525
0.671946
0.628525
0.588843
0.55253
0.519254
0.488717
0.460657
0.434835
0.411041
0.389085
0.368797
0.350024
0.332631
0.316493
0.301501
0.287555
0.274564
0.262449
0.251135
0.240557
0.230655
0.221374
0.212666
0.204485
0.19679
0.189546
0.182717
0.176274
0.170187
0.164432
0.158985
0.153823
0.148928
0.144282
0.139866
0.135666
0.131668
0.127859
0.124226
0.120758
0.117444
0.114275
0.111242
0.108337
0.105551
0.102878
0.10031
0.0978407
0.0954646
0.0931757
0.0909688
0.0888388
0.0867809
0.0847906
0.0828637
0.0809961
0.0791842
0.0774244
0.0757133
0.0740478
0.0724252
0.0708428
0.0692984
0.0677897
0.0663152
0.0648732
0.0634627
0.0620829
0.0607331
0.0594133
0.0581235
0.0568642
0.055636
0.0544399
0.0532768
0.0521481
0.051055
0.049999
0.0489815
0.0480039
0.0470677
0.0461741
0.0453245
0.0445203
0.043763
0.0430541
0.0423953
0.0417888
0.0412371
0.0407435
0.040312
0.039948
0.0396586
0.0394526
0.0393419
0.961693
0.892186
0.829087
0.77173
0.719525
0.671946
0.628525
0.588843
0.55253
0.519254
0.488718
0.460657
0.434836
0.411042
0.389086
0.368798
0.350025
0.332632
0.316495
0.301503
0.287556
0.274566
0.262451
0.251137
0.240559
0.230657
0.221377
0.212668
0.204487
0.196793
0.189548
0.18272
0.176277
0.17019
0.164435
0.158988
0.153827
0.148932
0.144286
0.13987
0.135671
0.131673
0.127864
0.124231
0.120763
0.11745
0.114281
0.111249
0.108344
0.105558
0.102885
0.100318
0.0978491
0.0954735
0.0931852
0.0909788
0.0888494
0.0867921
0.0848025
0.0828763
0.0810095
0.0791985
0.0774395
0.0757293
0.0740648
0.0724433
0.0708619
0.0693186
0.0678111
0.0663376
0.0648968
0.0634875
0.0621087
0.06076
0.0594412
0.0581524
0.0568939
0.0556664
0.0544708
0.0533082
0.0521798
0.0510869
0.0500309
0.0490133
0.0480354
0.0470987
0.0462046
0.0453544
0.0445495
0.0437914
0.0430816
0.042422
0.0418146
0.041262
0.0407675
0.0403352
0.0399706
0.0396805
0.0394741
0.0393631
0.961693
0.892186
0.829087
0.77173
0.719525
0.671946
0.628525
0.588843
0.55253
0.519254
0.488718
0.460657
0.434836
0.411042
0.389086
0.368798
0.350026
0.332633
0.316496
0.301504
0.287558
0.274568
0.262452
0.251139
0.240561
0.230659
0.221379
0.21267
0.20449
0.196796
0.189551
0.182723
0.17628
0.170194
0.164439
0.158992
0.153831
0.148936
0.14429
0.139875
0.135676
0.131678
0.127869
0.124236
0.120769
0.117456
0.114288
0.111255
0.108351
0.105566
0.102893
0.100326
0.0978577
0.0954826
0.0931948
0.090989
0.0888601
0.0868035
0.0848146
0.0828891
0.0810232
0.0792129
0.0774548
0.0757456
0.0740821
0.0724616
0.0708813
0.0693391
0.0678327
0.0663604
0.0649208
0.0635125
0.0621349
0.0607873
0.0594695
0.0581816
0.0569239
0.0556972
0.0545022
0.05334
0.0522119
0.0511192
0.0500632
0.0490455
0.0480673
0.0471302
0.0462356
0.0453847
0.0445791
0.0438202
0.0431096
0.0424491
0.0418408
0.0412873
0.0407919
0.0403589
0.0399935
0.0397028
0.039496
0.0393847
0.961693
0.892186
0.829087
0.77173
0.719525
0.671946
0.628525
0.588844
0.552531
0.519254
0.488718
0.460658
0.434837
0.411043
0.389087
0.368799
0.350027
0.332634
0.316497
0.301505
0.287559
0.274569
0.262454
0.251141
0.240563
0.230661
0.221381
0.212673
0.204492
0.196798
0.189554
0.182726
0.176283
0.170197
0.164442
0.158995
0.153835
0.14894
0.144294
0.139879
0.13568
0.131683
0.127874
0.124242
0.120774
0.117462
0.114294
0.111262
0.108358
0.105573
0.102901
0.100334
0.0978664
0.0954918
0.0932045
0.0909993
0.088871
0.086815
0.0848268
0.0829021
0.081037
0.0792276
0.0774704
0.0757621
0.0740996
0.0724801
0.0709009
0.0693598
0.0678545
0.0663834
0.0649449
0.0635378
0.0621613
0.0608148
0.059498
0.058211
0.0569542
0.0557281
0.0545338
0.0533721
0.0522443
0.0511517
0.0500958
0.0490779
0.0480995
0.047162
0.0462668
0.0454153
0.044609
0.0438493
0.0431378
0.0424764
0.0418672
0.0413128
0.0408166
0.0403827
0.0400166
0.0397254
0.039518
0.0394065
0.961693
0.892186
0.829087
0.77173
0.719525
0.671946
0.628525
0.588844
0.552531
0.519254
0.488718
0.460658
0.434837
0.411043
0.389088
0.3688
0.350028
0.332635
0.316498
0.301506
0.28756
0.27457
0.262456
0.251142
0.240565
0.230663
0.221383
0.212675
0.204494
0.196801
0.189557
0.182729
0.176286
0.1702
0.164446
0.158999
0.153839
0.148944
0.144298
0.139884
0.135685
0.131688
0.127879
0.124247
0.12078
0.117468
0.1143
0.111269
0.108365
0.105581
0.102909
0.100342
0.0978752
0.095501
0.0932143
0.0910097
0.088882
0.0868267
0.0848392
0.0829153
0.0810509
0.0792423
0.077486
0.0757787
0.0741172
0.0724987
0.0709206
0.0693806
0.0678765
0.0664065
0.0649691
0.0635632
0.0621878
0.0608423
0.0595266
0.0582405
0.0569845
0.0557592
0.0545655
0.0534042
0.0522768
0.0511844
0.0501285
0.0491105
0.0481318
0.0471939
0.0462982
0.0454461
0.044639
0.0438785
0.0431662
0.0425039
0.0418938
0.0413385
0.0408414
0.0404068
0.0400399
0.0397481
0.0395403
0.0394285
0.961693
0.892186
0.829086
0.77173
0.719525
0.671946
0.628525
0.588844
0.552531
0.519255
0.488719
0.460658
0.434837
0.411044
0.389088
0.368801
0.350029
0.332636
0.316499
0.301507
0.287562
0.274572
0.262457
0.251144
0.240567
0.230665
0.221385
0.212677
0.204497
0.196803
0.189559
0.182732
0.176289
0.170203
0.164449
0.159003
0.153842
0.148948
0.144303
0.139888
0.13569
0.131693
0.127885
0.124253
0.120786
0.117474
0.114307
0.111276
0.108372
0.105588
0.102917
0.100351
0.097884
0.0955104
0.0932242
0.0910201
0.0888931
0.0868384
0.0848516
0.0829284
0.0810648
0.0792571
0.0775017
0.0757953
0.0741348
0.0725174
0.0709404
0.0694014
0.0678984
0.0664296
0.0649934
0.0635886
0.0622143
0.0608699
0.0595551
0.05827
0.0570149
0.0557903
0.0545972
0.0534364
0.0523093
0.0512171
0.0501612
0.0491431
0.0481641
0.0472258
0.0463296
0.0454768
0.0446691
0.0439078
0.0431946
0.0425314
0.0419204
0.0413643
0.0408664
0.0404309
0.0400633
0.0397708
0.0395626
0.0394505
0.961693
0.892186
0.829086
0.77173
0.719525
0.671946
0.628525
0.588844
0.552531
0.519255
0.488719
0.460659
0.434838
0.411044
0.389089
0.368801
0.35003
0.332637
0.3165
0.301509
0.287563
0.274573
0.262459
0.251146
0.240569
0.230667
0.221387
0.21268
0.204499
0.196806
0.189562
0.182734
0.176292
0.170207
0.164453
0.159006
0.153846
0.148952
0.144307
0.139893
0.135694
0.131698
0.12789
0.124258
0.120792
0.11748
0.114313
0.111282
0.108379
0.105596
0.102925
0.100359
0.0978929
0.0955197
0.0932341
0.0910306
0.0889042
0.0868502
0.084864
0.0829416
0.0810788
0.0792719
0.0775174
0.0758119
0.0741524
0.072536
0.07096
0.0694222
0.0679203
0.0664527
0.0650176
0.0636139
0.0622407
0.0608974
0.0595836
0.0582994
0.0570451
0.0558213
0.0546287
0.0534684
0.0523417
0.0512496
0.0501938
0.0491755
0.0481963
0.0472576
0.0463609
0.0455076
0.0446991
0.043937
0.043223
0.0425589
0.0419471
0.04139
0.0408912
0.0404549
0.0400867
0.0397935
0.0395848
0.0394725
0.961693
0.892186
0.829086
0.77173
0.719525
0.671946
0.628525
0.588844
0.552531
0.519255
0.488719
0.460659
0.434838
0.411045
0.389089
0.368802
0.35003
0.332638
0.316501
0.30151
0.287564
0.274575
0.26246
0.251147
0.24057
0.230669
0.221389
0.212682
0.204502
0.196808
0.189565
0.182737
0.176295
0.17021
0.164456
0.15901
0.15385
0.148956
0.144311
0.139897
0.135699
0.131703
0.127895
0.124264
0.120797
0.117486
0.11432
0.111289
0.108386
0.105603
0.102933
0.100367
0.0979017
0.095529
0.0932439
0.091041
0.0889152
0.0868619
0.0848764
0.0829547
0.0810927
0.0792867
0.077533
0.0758285
0.0741699
0.0725545
0.0709796
0.0694429
0.0679421
0.0664756
0.0650416
0.0636391
0.062267
0.0609247
0.0596119
0.0583286
0.0570751
0.055852
0.0546601
0.0535003
0.0523738
0.051282
0.0502261
0.0492078
0.0482283
0.0472893
0.046392
0.0455381
0.0447289
0.0439661
0.0432512
0.0425863
0.0419735
0.0414156
0.040916
0.0404789
0.0401099
0.0398162
0.039607
0.0394944
0.961693
0.892186
0.829086
0.77173
0.719525
0.671946
0.628525
0.588844
0.552531
0.519255
0.488719
0.460659
0.434838
0.411045
0.38909
0.368802
0.350031
0.332638
0.316502
0.301511
0.287565
0.274576
0.262461
0.251149
0.240572
0.230671
0.221391
0.212684
0.204504
0.196811
0.189567
0.18274
0.176298
0.170213
0.164459
0.159013
0.153854
0.14896
0.144315
0.139901
0.135704
0.131708
0.1279
0.124269
0.120803
0.117492
0.114326
0.111296
0.108393
0.105611
0.10294
0.100376
0.0979104
0.0955383
0.0932537
0.0910513
0.0889262
0.0868735
0.0848887
0.0829677
0.0811065
0.0793013
0.0775485
0.0758449
0.0741873
0.0725729
0.070999
0.0694633
0.0679637
0.0664982
0.0650654
0.063664
0.0622929
0.0609517
0.0596399
0.0583575
0.0571048
0.0558824
0.0546911
0.0535317
0.0524056
0.0513139
0.0502582
0.0492397
0.04826
0.0473206
0.0464229
0.0455683
0.0447585
0.0439949
0.0432792
0.0426134
0.0419998
0.041441
0.0409405
0.0405026
0.0401329
0.0398386
0.0396289
0.0395161
0.961693
0.892186
0.829086
0.77173
0.719525
0.671946
0.628525
0.588844
0.552531
0.519255
0.488719
0.460659
0.434839
0.411045
0.38909
0.368803
0.350032
0.332639
0.316503
0.301512
0.287566
0.274577
0.262463
0.25115
0.240574
0.230673
0.221393
0.212686
0.204506
0.196813
0.18957
0.182743
0.176301
0.170216
0.164462
0.159017
0.153857
0.148964
0.144319
0.139906
0.135708
0.131712
0.127905
0.124274
0.120809
0.117498
0.114332
0.111302
0.1084
0.105618
0.102948
0.100384
0.0979191
0.0955475
0.0932634
0.0910616
0.088937
0.086885
0.0849009
0.0829806
0.0811202
0.0793158
0.0775638
0.0758611
0.0742045
0.072591
0.0710182
0.0694836
0.067985
0.0665206
0.0650889
0.0636885
0.0623185
0.0609783
0.0596675
0.058386
0.0571341
0.0559124
0.0547216
0.0535628
0.052437
0.0513455
0.0502898
0.0492712
0.0482913
0.0473515
0.0464533
0.0455982
0.0447876
0.0440233
0.0433069
0.0426402
0.0420258
0.0414661
0.0409648
0.0405261
0.0401557
0.0398608
0.0396507
0.0395375
0.961693
0.892186
0.829086
0.77173
0.719525
0.671946
0.628525
0.588844
0.552531
0.519255
0.48872
0.46066
0.434839
0.411046
0.389091
0.368804
0.350032
0.33264
0.316504
0.301513
0.287567
0.274578
0.262464
0.251152
0.240575
0.230674
0.221395
0.212688
0.204508
0.196815
0.189572
0.182745
0.176304
0.170219
0.164466
0.15902
0.153861
0.148968
0.144323
0.13991
0.135713
0.131717
0.12791
0.12428
0.120814
0.117504
0.114338
0.111309
0.108407
0.105625
0.102956
0.100392
0.0979277
0.0955565
0.093273
0.0910717
0.0889477
0.0868963
0.0849129
0.0829933
0.0811336
0.07933
0.0775789
0.0758771
0.0742214
0.0726089
0.0710371
0.0695035
0.0680059
0.0665426
0.065112
0.0637127
0.0623437
0.0610045
0.0596946
0.058414
0.0571629
0.0559419
0.0547517
0.0535933
0.0524678
0.0513765
0.0503208
0.0493022
0.0483221
0.0473819
0.0464833
0.0456276
0.0448164
0.0440513
0.0433341
0.0426667
0.0420513
0.0414909
0.0409887
0.0405493
0.0401782
0.0398826
0.0396721
0.0395587
0.961693
0.892186
0.829086
0.77173
0.719525
0.671946
0.628525
0.588844
0.552531
0.519255
0.48872
0.46066
0.434839
0.411046
0.389091
0.368804
0.350033
0.332641
0.316504
0.301513
0.287568
0.274579
0.262465
0.251153
0.240577
0.230676
0.221397
0.21269
0.20451
0.196818
0.189575
0.182748
0.176306
0.170222
0.164469
0.159023
0.153864
0.148972
0.144327
0.139914
0.135717
0.131722
0.127915
0.124285
0.12082
0.11751
0.114344
0.111315
0.108414
0.105632
0.102963
0.1004
0.0979361
0.0955654
0.0932824
0.0910817
0.0889583
0.0869074
0.0849247
0.0830058
0.0811468
0.079344
0.0775937
0.0758928
0.074238
0.0726264
0.0710556
0.069523
0.0680265
0.0665642
0.0651346
0.0637363
0.0623684
0.0610301
0.0597212
0.0584414
0.0571911
0.0559708
0.0547812
0.0536232
0.052498
0.0514069
0.0503513
0.0493326
0.0483522
0.0474118
0.0465126
0.0456564
0.0448446
0.0440788
0.0433608
0.0426926
0.0420764
0.0415151
0.0410122
0.040572
0.0402002
0.0399041
0.0396931
0.0395794
0.961693
0.892186
0.829086
0.77173
0.719525
0.671946
0.628525
0.588844
0.552531
0.519255
0.48872
0.46066
0.434839
0.411046
0.389091
0.368804
0.350033
0.332641
0.316505
0.301514
0.287569
0.27458
0.262467
0.251155
0.240578
0.230678
0.221399
0.212692
0.204512
0.19682
0.189577
0.18275
0.176309
0.170225
0.164472
0.159027
0.153868
0.148975
0.144331
0.139918
0.135721
0.131726
0.12792
0.12429
0.120825
0.117515
0.11435
0.111322
0.108421
0.105639
0.102971
0.100408
0.0979443
0.0955741
0.0932916
0.0910914
0.0889686
0.0869183
0.0849362
0.083018
0.0811598
0.0793577
0.0776082
0.0759081
0.0742542
0.0726436
0.0710737
0.069542
0.0680465
0.0665853
0.0651567
0.0637594
0.0623925
0.0610552
0.0597471
0.0584682
0.0572187
0.055999
0.0548099
0.0536524
0.0525276
0.0514367
0.0503811
0.0493623
0.0483817
0.0474409
0.0465414
0.0456846
0.0448722
0.0441057
0.043387
0.042718
0.042101
0.0415389
0.0410352
0.0405943
0.0402218
0.0399251
0.0397136
0.0395997
0.961693
0.892186
0.829086
0.77173
0.719525
0.671946
0.628525
0.588844
0.552531
0.519255
0.48872
0.46066
0.43484
0.411047
0.389092
0.368805
0.350034
0.332642
0.316506
0.301515
0.28757
0.274582
0.262468
0.251156
0.24058
0.230679
0.2214
0.212694
0.204514
0.196822
0.189579
0.182753
0.176312
0.170227
0.164475
0.15903
0.153871
0.148979
0.144335
0.139922
0.135726
0.131731
0.127925
0.124295
0.12083
0.117521
0.114356
0.111328
0.108427
0.105646
0.102978
0.100415
0.0979524
0.0955826
0.0933006
0.0911009
0.0889786
0.086929
0.0849475
0.08303
0.0811724
0.079371
0.0776224
0.0759231
0.07427
0.0726603
0.0710913
0.0695606
0.0680661
0.0666058
0.0651782
0.0637819
0.0624159
0.0610796
0.0597724
0.0584943
0.0572455
0.0560265
0.0548379
0.0536808
0.0525563
0.0514656
0.0504101
0.0493912
0.0484105
0.0474694
0.0465694
0.0457121
0.0448991
0.0441319
0.0434125
0.0427427
0.042125
0.0415621
0.0410576
0.040616
0.0402429
0.0399456
0.0397337
0.0396195
0.961693
0.892186
0.829086
0.77173
0.719525
0.671946
0.628525
0.588844
0.552531
0.519256
0.48872
0.46066
0.43484
0.411047
0.389092
0.368805
0.350034
0.332642
0.316506
0.301516
0.287571
0.274583
0.262469
0.251157
0.240581
0.230681
0.221402
0.212695
0.204516
0.196824
0.189582
0.182755
0.176314
0.17023
0.164478
0.159033
0.153874
0.148982
0.144338
0.139926
0.13573
0.131735
0.127929
0.1243
0.120835
0.117526
0.114362
0.111334
0.108433
0.105653
0.102985
0.100423
0.0979602
0.0955909
0.0933093
0.0911102
0.0889884
0.0869393
0.0849584
0.0830415
0.0811847
0.079384
0.0776361
0.0759376
0.0742853
0.0726765
0.0711084
0.0695786
0.0680851
0.0666257
0.0651991
0.0638038
0.0624387
0.0611032
0.0597969
0.0585196
0.0572715
0.0560531
0.0548651
0.0537085
0.0525842
0.0514937
0.0504382
0.0494193
0.0484384
0.047497
0.0465966
0.0457388
0.0449252
0.0441574
0.0434373
0.0427668
0.0421483
0.0415847
0.0410795
0.0406371
0.0402633
0.0399655
0.0397532
0.0396388
0.961693
0.892186
0.829086
0.77173
0.719525
0.671946
0.628525
0.588844
0.552531
0.519256
0.48872
0.460661
0.43484
0.411047
0.389092
0.368806
0.350035
0.332643
0.316507
0.301517
0.287572
0.274583
0.26247
0.251158
0.240582
0.230682
0.221403
0.212697
0.204518
0.196826
0.189584
0.182757
0.176317
0.170233
0.16448
0.159036
0.153877
0.148986
0.144342
0.13993
0.135734
0.131739
0.127934
0.124304
0.12084
0.117531
0.114367
0.111339
0.108439
0.105659
0.102992
0.10043
0.0979678
0.0955989
0.0933178
0.0911191
0.0889979
0.0869493
0.084969
0.0830528
0.0811965
0.0793966
0.0776494
0.0759516
0.0743002
0.0726922
0.071125
0.0695961
0.0681034
0.066645
0.0652193
0.0638249
0.0624607
0.0611261
0.0598206
0.0585441
0.0572967
0.0560789
0.0548914
0.0537352
0.0526112
0.0515209
0.0504655
0.0494465
0.0484654
0.0475237
0.046623
0.0457647
0.0449505
0.0441821
0.0434613
0.0427901
0.0421709
0.0416065
0.0411006
0.0406576
0.0402832
0.0399848
0.0397721
0.0396574
0.961693
0.892186
0.829086
0.77173
0.719525
0.671946
0.628525
0.588844
0.552531
0.519256
0.48872
0.460661
0.43484
0.411047
0.389093
0.368806
0.350035
0.332644
0.316508
0.301517
0.287573
0.274584
0.262471
0.251159
0.240583
0.230683
0.221405
0.212699
0.20452
0.196828
0.189586
0.18276
0.176319
0.170235