/*--------------------------------*- C++ -*----------------------------------*\
  =========                 |
  \\      /  F ield         | OpenFOAM: The Open Source CFD Toolbox
   \\    /   O peration     | Website:  https://openfoam.org
    \\  /    A nd           | Version:  11
     \\/     M anipulation  |
\*---------------------------------------------------------------------------*/
FoamFile
{
    format      ascii;
    class       volVectorField;
    location    "1466";
    object      U;
}
// * * * * * * * * * * * * * * * * * * * * * * * * * * * * * * * * * * * * * //

dimensions      [0 1 -1 0 0 0 0];

internalField   nonuniform List<vector> 
10000
(
(0.005 -3.47072e-12 0)
(0.005 -9.86171e-12 0)
(0.005 -1.61313e-11 0)
(0.005 -2.2456e-11 0)
(0.005 -2.89389e-11 0)
(0.005 -3.56535e-11 0)
(0.005 -4.26556e-11 0)
(0.005 -4.99912e-11 0)
(0.005 -5.76999e-11 0)
(0.005 -6.5818e-11 0)
(0.005 -7.43793e-11 0)
(0.005 -8.34167e-11 0)
(0.005 -9.29619e-11 0)
(0.005 -1.03047e-10 0)
(0.005 -1.13703e-10 0)
(0.005 -1.24961e-10 0)
(0.005 -1.36855e-10 0)
(0.005 -1.49415e-10 0)
(0.005 -1.62676e-10 0)
(0.005 -1.76669e-10 0)
(0.005 -1.9143e-10 0)
(0.005 -2.06992e-10 0)
(0.005 -2.23389e-10 0)
(0.005 -2.40659e-10 0)
(0.005 -2.58836e-10 0)
(0.005 -2.77957e-10 0)
(0.005 -2.9806e-10 0)
(0.005 -3.19181e-10 0)
(0.005 -3.4136e-10 0)
(0.005 -3.64633e-10 0)
(0.005 -3.89041e-10 0)
(0.005 -4.14623e-10 0)
(0.005 -4.41417e-10 0)
(0.005 -4.69464e-10 0)
(0.005 -4.98802e-10 0)
(0.005 -5.29472e-10 0)
(0.005 -5.61514e-10 0)
(0.005 -5.94966e-10 0)
(0.005 -6.29867e-10 0)
(0.005 -6.66257e-10 0)
(0.005 -7.04174e-10 0)
(0.005 -7.43655e-10 0)
(0.005 -7.84736e-10 0)
(0.005 -8.27453e-10 0)
(0.005 -8.71841e-10 0)
(0.005 -9.17933e-10 0)
(0.005 -9.65761e-10 0)
(0.005 -1.01535e-09 0)
(0.005 -1.06674e-09 0)
(0.005 -1.11994e-09 0)
(0.005 -1.17499e-09 0)
(0.005 -1.2319e-09 0)
(0.005 -1.29069e-09 0)
(0.005 -1.35138e-09 0)
(0.005 -1.41397e-09 0)
(0.005 -1.47847e-09 0)
(0.005 -1.54489e-09 0)
(0.005 -1.61323e-09 0)
(0.005 -1.68346e-09 0)
(0.005 -1.7556e-09 0)
(0.005 -1.82961e-09 0)
(0.005 -1.90546e-09 0)
(0.005 -1.98314e-09 0)
(0.005 -2.06259e-09 0)
(0.005 -2.14378e-09 0)
(0.005 -2.22664e-09 0)
(0.005 -2.3111e-09 0)
(0.005 -2.3971e-09 0)
(0.005 -2.48453e-09 0)
(0.005 -2.5733e-09 0)
(0.005 -2.6633e-09 0)
(0.005 -2.7544e-09 0)
(0.005 -2.84644e-09 0)
(0.005 -2.93928e-09 0)
(0.005 -3.03271e-09 0)
(0.005 -3.12655e-09 0)
(0.005 -3.22057e-09 0)
(0.005 -3.31451e-09 0)
(0.005 -3.4081e-09 0)
(0.005 -3.50103e-09 0)
(0.005 -3.59295e-09 0)
(0.005 -3.68351e-09 0)
(0.005 -3.77228e-09 0)
(0.005 -3.8588e-09 0)
(0.005 -3.94258e-09 0)
(0.005 -4.02307e-09 0)
(0.005 -4.09966e-09 0)
(0.005 -4.17172e-09 0)
(0.005 -4.23853e-09 0)
(0.005 -4.29936e-09 0)
(0.005 -4.35347e-09 0)
(0.005 -4.4003e-09 0)
(0.005 -4.43941e-09 0)
(0.005 -4.46884e-09 0)
(0.00499999 -4.48721e-09 0)
(0.00499999 -4.49367e-09 0)
(0.00499999 -4.48831e-09 0)
(0.00499999 -4.47231e-09 0)
(0.00499999 -4.44914e-09 0)
(0.00499999 -4.4298e-09 0)
(0.005 -3.04092e-12 0)
(0.005 -9.04812e-12 0)
(0.005 -1.50698e-11 0)
(0.005 -2.11686e-11 0)
(0.005 -2.74278e-11 0)
(0.005 -3.39127e-11 0)
(0.005 -4.06747e-11 0)
(0.005 -4.77569e-11 0)
(0.005 -5.51971e-11 0)
(0.005 -6.30299e-11 0)
(0.005 -7.1288e-11 0)
(0.005 -8.00025e-11 0)
(0.005 -8.92042e-11 0)
(0.005 -9.89234e-11 0)
(0.005 -1.0919e-10 0)
(0.005 -1.20036e-10 0)
(0.005 -1.3149e-10 0)
(0.005 -1.43583e-10 0)
(0.005 -1.56348e-10 0)
(0.005 -1.69816e-10 0)
(0.005 -1.84019e-10 0)
(0.005 -1.9899e-10 0)
(0.005 -2.14762e-10 0)
(0.005 -2.3137e-10 0)
(0.005 -2.48847e-10 0)
(0.005 -2.67228e-10 0)
(0.005 -2.8655e-10 0)
(0.005 -3.06847e-10 0)
(0.005 -3.28156e-10 0)
(0.005 -3.50514e-10 0)
(0.005 -3.73957e-10 0)
(0.005 -3.98522e-10 0)
(0.005 -4.24248e-10 0)
(0.005 -4.51171e-10 0)
(0.005 -4.7933e-10 0)
(0.005 -5.08762e-10 0)
(0.005 -5.39503e-10 0)
(0.005 -5.71593e-10 0)
(0.005 -6.05068e-10 0)
(0.005 -6.39963e-10 0)
(0.005 -6.76316e-10 0)
(0.005 -7.14162e-10 0)
(0.005 -7.53536e-10 0)
(0.005 -7.9447e-10 0)
(0.005 -8.36997e-10 0)
(0.005 -8.8115e-10 0)
(0.005 -9.26957e-10 0)
(0.005 -9.74446e-10 0)
(0.005 -1.02364e-09 0)
(0.005 -1.07458e-09 0)
(0.005 -1.12726e-09 0)
(0.005 -1.18172e-09 0)
(0.005 -1.23798e-09 0)
(0.005 -1.29603e-09 0)
(0.005 -1.3559e-09 0)
(0.005 -1.4176e-09 0)
(0.005 -1.48111e-09 0)
(0.005 -1.54645e-09 0)
(0.005 -1.61361e-09 0)
(0.005 -1.68257e-09 0)
(0.005 -1.75332e-09 0)
(0.005 -1.82584e-09 0)
(0.005 -1.90009e-09 0)
(0.005 -1.97604e-09 0)
(0.005 -2.05365e-09 0)
(0.005 -2.13287e-09 0)
(0.005 -2.21364e-09 0)
(0.005 -2.29588e-09 0)
(0.005 -2.37951e-09 0)
(0.005 -2.46446e-09 0)
(0.005 -2.5506e-09 0)
(0.005 -2.63784e-09 0)
(0.005 -2.72603e-09 0)
(0.005 -2.81504e-09 0)
(0.005 -2.9047e-09 0)
(0.005 -2.99484e-09 0)
(0.005 -3.08525e-09 0)
(0.005 -3.17571e-09 0)
(0.005 -3.26598e-09 0)
(0.005 -3.3558e-09 0)
(0.005 -3.44486e-09 0)
(0.005 -3.53283e-09 0)
(0.005 -3.61937e-09 0)
(0.005 -3.70407e-09 0)
(0.005 -3.78651e-09 0)
(0.005 -3.86621e-09 0)
(0.005 -3.94267e-09 0)
(0.005 -4.01533e-09 0)
(0.005 -4.08361e-09 0)
(0.005 -4.14687e-09 0)
(0.005 -4.20446e-09 0)
(0.005 -4.25544e-09 0)
(0.005 -4.2985e-09 0)
(0.005 -4.33293e-09 0)
(0.00499999 -4.35856e-09 0)
(0.00499999 -4.37606e-09 0)
(0.00499999 -4.38635e-09 0)
(0.00499999 -4.38955e-09 0)
(0.00499999 -4.3869e-09 0)
(0.00499999 -4.387e-09 0)
(0.005 -2.69737e-12 0)
(0.005 -8.29498e-12 0)
(0.005 -1.40309e-11 0)
(0.005 -1.98907e-11 0)
(0.005 -2.59231e-11 0)
(0.005 -3.21796e-11 0)
(0.005 -3.87049e-11 0)
(0.005 -4.55384e-11 0)
(0.005 -5.27157e-11 0)
(0.005 -6.02695e-11 0)
(0.005 -6.82309e-11 0)
(0.005 -7.66301e-11 0)
(0.005 -8.54963e-11 0)
(0.005 -9.48586e-11 0)
(0.005 -1.04746e-10 0)
(0.005 -1.15188e-10 0)
(0.005 -1.26214e-10 0)
(0.005 -1.37852e-10 0)
(0.005 -1.50134e-10 0)
(0.005 -1.6309e-10 0)
(0.005 -1.7675e-10 0)
(0.005 -1.91147e-10 0)
(0.005 -2.06311e-10 0)
(0.005 -2.22275e-10 0)
(0.005 -2.39071e-10 0)
(0.005 -2.56735e-10 0)
(0.005 -2.75297e-10 0)
(0.005 -2.94794e-10 0)
(0.005 -3.15259e-10 0)
(0.005 -3.36728e-10 0)
(0.005 -3.59234e-10 0)
(0.005 -3.82815e-10 0)
(0.005 -4.07504e-10 0)
(0.005 -4.33339e-10 0)
(0.005 -4.60354e-10 0)
(0.005 -4.88586e-10 0)
(0.005 -5.18069e-10 0)
(0.005 -5.48839e-10 0)
(0.005 -5.80931e-10 0)
(0.005 -6.1438e-10 0)
(0.005 -6.4922e-10 0)
(0.005 -6.85484e-10 0)
(0.005 -7.23205e-10 0)
(0.005 -7.62415e-10 0)
(0.005 -8.03144e-10 0)
(0.005 -8.45421e-10 0)
(0.005 -8.89274e-10 0)
(0.005 -9.34731e-10 0)
(0.005 -9.81816e-10 0)
(0.005 -1.03055e-09 0)
(0.005 -1.08096e-09 0)
(0.005 -1.13305e-09 0)
(0.005 -1.18685e-09 0)
(0.005 -1.24237e-09 0)
(0.005 -1.29962e-09 0)
(0.005 -1.3586e-09 0)
(0.005 -1.41932e-09 0)
(0.005 -1.48177e-09 0)
(0.005 -1.54595e-09 0)
(0.005 -1.61186e-09 0)
(0.005 -1.67947e-09 0)
(0.005 -1.74876e-09 0)
(0.005 -1.81972e-09 0)
(0.005 -1.8923e-09 0)
(0.005 -1.96646e-09 0)
(0.005 -2.04218e-09 0)
(0.005 -2.11937e-09 0)
(0.005 -2.198e-09 0)
(0.005 -2.27798e-09 0)
(0.005 -2.35924e-09 0)
(0.005 -2.44168e-09 0)
(0.005 -2.5252e-09 0)
(0.005 -2.60969e-09 0)
(0.005 -2.69502e-09 0)
(0.005 -2.78105e-09 0)
(0.005 -2.86763e-09 0)
(0.005 -2.95457e-09 0)
(0.005 -3.04168e-09 0)
(0.005 -3.12877e-09 0)
(0.005 -3.21558e-09 0)
(0.005 -3.30188e-09 0)
(0.005 -3.38737e-09 0)
(0.005 -3.47175e-09 0)
(0.005 -3.55468e-09 0)
(0.005 -3.6358e-09 0)
(0.005 -3.71471e-09 0)
(0.005 -3.79097e-09 0)
(0.005 -3.86412e-09 0)
(0.005 -3.93364e-09 0)
(0.005 -3.99899e-09 0)
(0.005 -4.05954e-09 0)
(0.005 -4.11451e-09 0)
(0.005 -4.1632e-09 0)
(0.005 -4.20522e-09 0)
(0.00499999 -4.2403e-09 0)
(0.00499999 -4.26842e-09 0)
(0.00499999 -4.28989e-09 0)
(0.00499999 -4.30516e-09 0)
(0.00499999 -4.31529e-09 0)
(0.00499999 -4.32597e-09 0)
(0.005 -2.46245e-12 0)
(0.005 -7.69149e-12 0)
(0.005 -1.31399e-11 0)
(0.005 -1.87579e-11 0)
(0.005 -2.45684e-11 0)
(0.005 -3.0608e-11 0)
(0.005 -3.69129e-11 0)
(0.005 -4.35175e-11 0)
(0.005 -5.04542e-11 0)
(0.005 -5.77535e-11 0)
(0.005 -6.54451e-11 0)
(0.005 -7.35574e-11 0)
(0.005 -8.21187e-11 0)
(0.005 -9.11567e-11 0)
(0.005 -1.00699e-10 0)
(0.005 -1.10775e-10 0)
(0.005 -1.21411e-10 0)
(0.005 -1.32636e-10 0)
(0.005 -1.44479e-10 0)
(0.005 -1.5697e-10 0)
(0.005 -1.70137e-10 0)
(0.005 -1.84011e-10 0)
(0.005 -1.98621e-10 0)
(0.005 -2.14001e-10 0)
(0.005 -2.30179e-10 0)
(0.005 -2.47189e-10 0)
(0.005 -2.65062e-10 0)
(0.005 -2.83831e-10 0)
(0.005 -3.03529e-10 0)
(0.005 -3.24189e-10 0)
(0.005 -3.45844e-10 0)
(0.005 -3.68529e-10 0)
(0.005 -3.92277e-10 0)
(0.005 -4.17121e-10 0)
(0.005 -4.43097e-10 0)
(0.005 -4.70237e-10 0)
(0.005 -4.98576e-10 0)
(0.005 -5.28146e-10 0)
(0.005 -5.58982e-10 0)
(0.005 -5.91116e-10 0)
(0.005 -6.2458e-10 0)
(0.005 -6.59407e-10 0)
(0.005 -6.95625e-10 0)
(0.005 -7.33267e-10 0)
(0.005 -7.7236e-10 0)
(0.005 -8.12933e-10 0)
(0.005 -8.55011e-10 0)
(0.005 -8.9862e-10 0)
(0.005 -9.43784e-10 0)
(0.005 -9.90522e-10 0)
(0.005 -1.03886e-09 0)
(0.005 -1.0888e-09 0)
(0.005 -1.14038e-09 0)
(0.005 -1.19359e-09 0)
(0.005 -1.24845e-09 0)
(0.005 -1.30496e-09 0)
(0.005 -1.36314e-09 0)
(0.005 -1.42297e-09 0)
(0.005 -1.48445e-09 0)
(0.005 -1.54757e-09 0)
(0.005 -1.61233e-09 0)
(0.005 -1.67869e-09 0)
(0.005 -1.74665e-09 0)
(0.005 -1.81617e-09 0)
(0.005 -1.88721e-09 0)
(0.005 -1.95973e-09 0)
(0.005 -2.03369e-09 0)
(0.005 -2.10903e-09 0)
(0.005 -2.18569e-09 0)
(0.005 -2.26359e-09 0)
(0.005 -2.34266e-09 0)
(0.005 -2.42281e-09 0)
(0.005 -2.50393e-09 0)
(0.005 -2.58591e-09 0)
(0.005 -2.66863e-09 0)
(0.005 -2.75196e-09 0)
(0.005 -2.83574e-09 0)
(0.005 -2.9198e-09 0)
(0.005 -3.00397e-09 0)
(0.005 -3.08804e-09 0)
(0.005 -3.17179e-09 0)
(0.005 -3.25499e-09 0)
(0.005 -3.33737e-09 0)
(0.005 -3.41864e-09 0)
(0.005 -3.4985e-09 0)
(0.005 -3.57659e-09 0)
(0.005 -3.65256e-09 0)
(0.005 -3.72599e-09 0)
(0.005 -3.79646e-09 0)
(0.005 -3.86346e-09 0)
(0.005 -3.92647e-09 0)
(0.005 -3.98485e-09 0)
(0.005 -4.0381e-09 0)
(0.005 -4.08587e-09 0)
(0.00499999 -4.12797e-09 0)
(0.00499999 -4.16428e-09 0)
(0.00499999 -4.19475e-09 0)
(0.00499999 -4.21923e-09 0)
(0.00499999 -4.23762e-09 0)
(0.00499999 -4.24992e-09 0)
(0.005 -2.27468e-12 0)
(0.005 -7.16535e-12 0)
(0.005 -1.23229e-11 0)
(0.005 -1.76864e-11 0)
(0.005 -2.32634e-11 0)
(0.005 -2.90778e-11 0)
(0.005 -3.51574e-11 0)
(0.005 -4.15309e-11 0)
(0.005 -4.82268e-11 0)
(0.005 -5.52729e-11 0)
(0.005 -6.26968e-11 0)
(0.005 -7.05253e-11 0)
(0.005 -7.87852e-11 0)
(0.005 -8.75031e-11 0)
(0.005 -9.67056e-11 0)
(0.005 -1.06419e-10 0)
(0.005 -1.16671e-10 0)
(0.005 -1.27489e-10 0)
(0.005 -1.38899e-10 0)
(0.005 -1.50931e-10 0)
(0.005 -1.63611e-10 0)
(0.005 -1.7697e-10 0)
(0.005 -1.91035e-10 0)
(0.005 -2.05838e-10 0)
(0.005 -2.21406e-10 0)
(0.005 -2.37772e-10 0)
(0.005 -2.54964e-10 0)
(0.005 -2.73016e-10 0)
(0.005 -2.91957e-10 0)
(0.005 -3.1182e-10 0)
(0.005 -3.32636e-10 0)
(0.005 -3.54437e-10 0)
(0.005 -3.77255e-10 0)
(0.005 -4.01124e-10 0)
(0.005 -4.26074e-10 0)
(0.005 -4.52138e-10 0)
(0.005 -4.79348e-10 0)
(0.005 -5.07736e-10 0)
(0.005 -5.37333e-10 0)
(0.005 -5.6817e-10 0)
(0.005 -6.00278e-10 0)
(0.005 -6.33686e-10 0)
(0.005 -6.68423e-10 0)
(0.005 -7.04519e-10 0)
(0.005 -7.42e-10 0)
(0.005 -7.80891e-10 0)
(0.005 -8.21219e-10 0)
(0.005 -8.63007e-10 0)
(0.005 -9.06276e-10 0)
(0.005 -9.51047e-10 0)
(0.005 -9.97337e-10 0)
(0.005 -1.04516e-09 0)
(0.005 -1.09454e-09 0)
(0.005 -1.14548e-09 0)
(0.005 -1.19799e-09 0)
(0.005 -1.25207e-09 0)
(0.005 -1.30774e-09 0)
(0.005 -1.36498e-09 0)
(0.005 -1.4238e-09 0)
(0.005 -1.48419e-09 0)
(0.005 -1.54613e-09 0)
(0.005 -1.60961e-09 0)
(0.005 -1.67461e-09 0)
(0.005 -1.7411e-09 0)
(0.005 -1.80906e-09 0)
(0.005 -1.87844e-09 0)
(0.005 -1.94921e-09 0)
(0.005 -2.02131e-09 0)
(0.005 -2.09469e-09 0)
(0.005 -2.16928e-09 0)
(0.005 -2.24503e-09 0)
(0.005 -2.32184e-09 0)
(0.005 -2.39964e-09 0)
(0.005 -2.47831e-09 0)
(0.005 -2.55777e-09 0)
(0.005 -2.63789e-09 0)
(0.005 -2.71854e-09 0)
(0.005 -2.79957e-09 0)
(0.005 -2.88085e-09 0)
(0.005 -2.96218e-09 0)
(0.005 -3.0434e-09 0)
(0.005 -3.1243e-09 0)
(0.005 -3.20465e-09 0)
(0.005 -3.28423e-09 0)
(0.005 -3.36275e-09 0)
(0.005 -3.43995e-09 0)
(0.005 -3.5155e-09 0)
(0.005 -3.58908e-09 0)
(0.005 -3.66029e-09 0)
(0.005 -3.72873e-09 0)
(0.005 -3.79396e-09 0)
(0.005 -3.85548e-09 0)
(0.005 -3.91286e-09 0)
(0.005 -3.96578e-09 0)
(0.005 -4.01395e-09 0)
(0.00499999 -4.05708e-09 0)
(0.00499999 -4.09474e-09 0)
(0.00499999 -4.12615e-09 0)
(0.00499999 -4.15011e-09 0)
(0.00499999 -4.16202e-09 0)
(0.005 -2.11164e-12 0)
(0.005 -6.69056e-12 0)
(0.005 -1.15624e-11 0)
(0.005 -1.66658e-11 0)
(0.005 -2.2e-11 0)
(0.005 -2.75804e-11 0)
(0.005 -3.34275e-11 0)
(0.005 -3.95645e-11 0)
(0.005 -4.60158e-11 0)
(0.005 -5.28065e-11 0)
(0.005 -5.99614e-11 0)
(0.005 -6.75057e-11 0)
(0.005 -7.54645e-11 0)
(0.005 -8.38629e-11 0)
(0.005 -9.27262e-11 0)
(0.005 -1.0208e-10 0)
(0.005 -1.1195e-10 0)
(0.005 -1.22361e-10 0)
(0.005 -1.33341e-10 0)
(0.005 -1.44916e-10 0)
(0.005 -1.57113e-10 0)
(0.005 -1.69959e-10 0)
(0.005 -1.83482e-10 0)
(0.005 -1.97711e-10 0)
(0.005 -2.12673e-10 0)
(0.005 -2.28398e-10 0)
(0.005 -2.44915e-10 0)
(0.005 -2.62253e-10 0)
(0.005 -2.80442e-10 0)
(0.005 -2.99512e-10 0)
(0.005 -3.19494e-10 0)
(0.005 -3.40417e-10 0)
(0.005 -3.62312e-10 0)
(0.005 -3.85211e-10 0)
(0.005 -4.09142e-10 0)
(0.005 -4.34137e-10 0)
(0.005 -4.60226e-10 0)
(0.005 -4.87438e-10 0)
(0.005 -5.15804e-10 0)
(0.005 -5.45353e-10 0)
(0.005 -5.76114e-10 0)
(0.005 -6.08113e-10 0)
(0.005 -6.4138e-10 0)
(0.005 -6.7594e-10 0)
(0.005 -7.1182e-10 0)
(0.005 -7.49043e-10 0)
(0.005 -7.87632e-10 0)
(0.005 -8.27611e-10 0)
(0.005 -8.69e-10 0)
(0.005 -9.11817e-10 0)
(0.005 -9.56079e-10 0)
(0.005 -1.0018e-09 0)
(0.005 -1.049e-09 0)
(0.005 -1.09768e-09 0)
(0.005 -1.14786e-09 0)
(0.005 -1.19953e-09 0)
(0.005 -1.25271e-09 0)
(0.005 -1.30738e-09 0)
(0.005 -1.36356e-09 0)
(0.005 -1.42123e-09 0)
(0.005 -1.48038e-09 0)
(0.005 -1.541e-09 0)
(0.005 -1.60307e-09 0)
(0.005 -1.66656e-09 0)
(0.005 -1.73146e-09 0)
(0.005 -1.79772e-09 0)
(0.005 -1.86532e-09 0)
(0.005 -1.9342e-09 0)
(0.005 -2.00433e-09 0)
(0.005 -2.07565e-09 0)
(0.005 -2.14809e-09 0)
(0.005 -2.2216e-09 0)
(0.005 -2.29608e-09 0)
(0.005 -2.37148e-09 0)
(0.005 -2.44768e-09 0)
(0.005 -2.52461e-09 0)
(0.005 -2.60214e-09 0)
(0.005 -2.68016e-09 0)
(0.005 -2.75853e-09 0)
(0.005 -2.83713e-09 0)
(0.005 -2.9158e-09 0)
(0.005 -2.99437e-09 0)
(0.005 -3.07266e-09 0)
(0.005 -3.15047e-09 0)
(0.005 -3.2276e-09 0)
(0.005 -3.30379e-09 0)
(0.005 -3.37881e-09 0)
(0.005 -3.45236e-09 0)
(0.005 -3.52413e-09 0)
(0.005 -3.59377e-09 0)
(0.005 -3.66093e-09 0)
(0.005 -3.72519e-09 0)
(0.005 -3.78616e-09 0)
(0.005 -3.8435e-09 0)
(0.005 -3.89679e-09 0)
(0.00499999 -3.94552e-09 0)
(0.00499999 -3.9889e-09 0)
(0.00499999 -4.02554e-09 0)
(0.00499999 -4.05315e-09 0)
(0.00499999 -4.06632e-09 0)
(0.005 -1.96754e-12 0)
(0.005 -6.25965e-12 0)
(0.005 -1.08569e-11 0)
(0.005 -1.57017e-11 0)
(0.005 -2.07898e-11 0)
(0.005 -2.61312e-11 0)
(0.005 -3.1741e-11 0)
(0.005 -3.76378e-11 0)
(0.005 -4.38421e-11 0)
(0.005 -5.03759e-11 0)
(0.005 -5.72617e-11 0)
(0.005 -6.45226e-11 0)
(0.005 -7.21818e-11 0)
(0.005 -8.02631e-11 0)
(0.005 -8.87901e-11 0)
(0.005 -9.77871e-11 0)
(0.005 -1.07278e-10 0)
(0.005 -1.17289e-10 0)
(0.005 -1.27843e-10 0)
(0.005 -1.38967e-10 0)
(0.005 -1.50686e-10 0)
(0.005 -1.63026e-10 0)
(0.005 -1.76014e-10 0)
(0.005 -1.89676e-10 0)
(0.005 -2.04039e-10 0)
(0.005 -2.19132e-10 0)
(0.005 -2.34981e-10 0)
(0.005 -2.51615e-10 0)
(0.005 -2.69061e-10 0)
(0.005 -2.87349e-10 0)
(0.005 -3.06508e-10 0)
(0.005 -3.26564e-10 0)
(0.005 -3.47549e-10 0)
(0.005 -3.6949e-10 0)
(0.005 -3.92416e-10 0)
(0.005 -4.16357e-10 0)
(0.005 -4.41339e-10 0)
(0.005 -4.67393e-10 0)
(0.005 -4.94545e-10 0)
(0.005 -5.22823e-10 0)
(0.005 -5.52255e-10 0)
(0.005 -5.82866e-10 0)
(0.005 -6.14682e-10 0)
(0.005 -6.47729e-10 0)
(0.005 -6.82029e-10 0)
(0.005 -7.17607e-10 0)
(0.005 -7.54484e-10 0)
(0.005 -7.92681e-10 0)
(0.005 -8.32216e-10 0)
(0.005 -8.73108e-10 0)
(0.005 -9.15372e-10 0)
(0.005 -9.59022e-10 0)
(0.005 -1.00407e-09 0)
(0.005 -1.05053e-09 0)
(0.005 -1.09841e-09 0)
(0.005 -1.14771e-09 0)
(0.005 -1.19843e-09 0)
(0.005 -1.25058e-09 0)
(0.005 -1.30415e-09 0)
(0.005 -1.35915e-09 0)
(0.005 -1.41555e-09 0)
(0.005 -1.47335e-09 0)
(0.005 -1.53253e-09 0)
(0.005 -1.59307e-09 0)
(0.005 -1.65496e-09 0)
(0.005 -1.71815e-09 0)
(0.005 -1.78263e-09 0)
(0.005 -1.84835e-09 0)
(0.005 -1.91527e-09 0)
(0.005 -1.98335e-09 0)
(0.005 -2.05254e-09 0)
(0.005 -2.12278e-09 0)
(0.005 -2.19401e-09 0)
(0.005 -2.26617e-09 0)
(0.005 -2.33916e-09 0)
(0.005 -2.41293e-09 0)
(0.005 -2.48737e-09 0)
(0.005 -2.5624e-09 0)
(0.005 -2.6379e-09 0)
(0.005 -2.71377e-09 0)
(0.005 -2.78988e-09 0)
(0.005 -2.86611e-09 0)
(0.005 -2.9423e-09 0)
(0.005 -3.0183e-09 0)
(0.005 -3.09394e-09 0)
(0.005 -3.16903e-09 0)
(0.005 -3.24336e-09 0)
(0.005 -3.31671e-09 0)
(0.005 -3.38881e-09 0)
(0.005 -3.45937e-09 0)
(0.005 -3.52809e-09 0)
(0.005 -3.5946e-09 0)
(0.005 -3.65854e-09 0)
(0.005 -3.71948e-09 0)
(0.005 -3.77691e-09 0)
(0.00499999 -3.83008e-09 0)
(0.00499999 -3.87789e-09 0)
(0.00499999 -3.91848e-09 0)
(0.00499999 -3.94884e-09 0)
(0.00499999 -3.9652e-09 0)
(0.005 -1.83791e-12 0)
(0.005 -5.86503e-12 0)
(0.005 -1.02008e-11 0)
(0.005 -1.47926e-11 0)
(0.005 -1.96354e-11 0)
(0.005 -2.47362e-11 0)
(0.005 -3.01062e-11 0)
(0.005 -3.57605e-11 0)
(0.005 -4.17162e-11 0)
(0.005 -4.79925e-11 0)
(0.005 -5.46094e-11 0)
(0.005 -6.15879e-11 0)
(0.005 -6.89496e-11 0)
(0.005 -7.67164e-11 0)
(0.005 -8.49106e-11 0)
(0.005 -9.3555e-11 0)
(0.005 -1.02673e-10 0)
(0.005 -1.12287e-10 0)
(0.005 -1.22421e-10 0)
(0.005 -1.331e-10 0)
(0.005 -1.44348e-10 0)
(0.005 -1.5619e-10 0)
(0.005 -1.6865e-10 0)
(0.005 -1.81754e-10 0)
(0.005 -1.95528e-10 0)
(0.005 -2.09998e-10 0)
(0.005 -2.2519e-10 0)
(0.005 -2.41131e-10 0)
(0.005 -2.57847e-10 0)
(0.005 -2.75365e-10 0)
(0.005 -2.93713e-10 0)
(0.005 -3.12918e-10 0)
(0.005 -3.33006e-10 0)
(0.005 -3.54006e-10 0)
(0.005 -3.75943e-10 0)
(0.005 -3.98846e-10 0)
(0.005 -4.22742e-10 0)
(0.005 -4.47655e-10 0)
(0.005 -4.73614e-10 0)
(0.005 -5.00643e-10 0)
(0.005 -5.28768e-10 0)
(0.005 -5.58015e-10 0)
(0.005 -5.88405e-10 0)
(0.005 -6.19964e-10 0)
(0.005 -6.52714e-10 0)
(0.005 -6.86676e-10 0)
(0.005 -7.2187e-10 0)
(0.005 -7.58315e-10 0)
(0.005 -7.9603e-10 0)
(0.005 -8.3503e-10 0)
(0.005 -8.75332e-10 0)
(0.005 -9.16947e-10 0)
(0.005 -9.59888e-10 0)
(0.005 -1.00416e-09 0)
(0.005 -1.04978e-09 0)
(0.005 -1.09675e-09 0)
(0.005 -1.14507e-09 0)
(0.005 -1.19474e-09 0)
(0.005 -1.24576e-09 0)
(0.005 -1.29812e-09 0)
(0.005 -1.35183e-09 0)
(0.005 -1.40686e-09 0)
(0.005 -1.46321e-09 0)
(0.005 -1.52086e-09 0)
(0.005 -1.57978e-09 0)
(0.005 -1.63997e-09 0)
(0.005 -1.70138e-09 0)
(0.005 -1.76399e-09 0)
(0.005 -1.82777e-09 0)
(0.005 -1.89268e-09 0)
(0.005 -1.95867e-09 0)
(0.005 -2.0257e-09 0)
(0.005 -2.09373e-09 0)
(0.005 -2.16269e-09 0)
(0.005 -2.23253e-09 0)
(0.005 -2.30318e-09 0)
(0.005 -2.37457e-09 0)
(0.005 -2.44663e-09 0)
(0.005 -2.51928e-09 0)
(0.005 -2.59243e-09 0)
(0.005 -2.66599e-09 0)
(0.005 -2.73986e-09 0)
(0.005 -2.81391e-09 0)
(0.005 -2.88805e-09 0)
(0.005 -2.96212e-09 0)
(0.005 -3.03599e-09 0)
(0.005 -3.1095e-09 0)
(0.005 -3.18244e-09 0)
(0.005 -3.25462e-09 0)
(0.005 -3.32579e-09 0)
(0.005 -3.39567e-09 0)
(0.005 -3.46393e-09 0)
(0.005 -3.53019e-09 0)
(0.005 -3.59397e-09 0)
(0.005 -3.65462e-09 0)
(0.005 -3.71122e-09 0)
(0.00499999 -3.76242e-09 0)
(0.00499999 -3.80611e-09 0)
(0.00499999 -3.83927e-09 0)
(0.00499999 -3.85866e-09 0)
(0.005 -1.7194e-12 0)
(0.005 -5.50028e-12 0)
(0.005 -9.5878e-12 0)
(0.005 -1.39344e-11 0)
(0.005 -1.85355e-11 0)
(0.005 -2.33966e-11 0)
(0.005 -2.85265e-11 0)
(0.005 -3.39375e-11 0)
(0.005 -3.9644e-11 0)
(0.005 -4.56626e-11 0)
(0.005 -5.20113e-11 0)
(0.005 -5.87089e-11 0)
(0.005 -6.57751e-11 0)
(0.005 -7.32303e-11 0)
(0.005 -8.10952e-11 0)
(0.005 -8.93913e-11 0)
(0.005 -9.81401e-11 0)
(0.005 -1.07364e-10 0)
(0.005 -1.17085e-10 0)
(0.005 -1.27326e-10 0)
(0.005 -1.3811e-10 0)
(0.005 -1.49461e-10 0)
(0.005 -1.61402e-10 0)
(0.005 -1.73957e-10 0)
(0.005 -1.87152e-10 0)
(0.005 -2.01009e-10 0)
(0.005 -2.15556e-10 0)
(0.005 -2.30815e-10 0)
(0.005 -2.46813e-10 0)
(0.005 -2.63576e-10 0)
(0.005 -2.81128e-10 0)
(0.005 -2.99495e-10 0)
(0.005 -3.18704e-10 0)
(0.005 -3.38779e-10 0)
(0.005 -3.59746e-10 0)
(0.005 -3.8163e-10 0)
(0.005 -4.04458e-10 0)
(0.005 -4.28253e-10 0)
(0.005 -4.5304e-10 0)
(0.005 -4.78843e-10 0)
(0.005 -5.05687e-10 0)
(0.005 -5.33594e-10 0)
(0.005 -5.62587e-10 0)
(0.005 -5.92687e-10 0)
(0.005 -6.23915e-10 0)
(0.005 -6.56291e-10 0)
(0.005 -6.89835e-10 0)
(0.005 -7.24563e-10 0)
(0.005 -7.60494e-10 0)
(0.005 -7.97641e-10 0)
(0.005 -8.36018e-10 0)
(0.005 -8.75639e-10 0)
(0.005 -9.16514e-10 0)
(0.005 -9.58651e-10 0)
(0.005 -1.00206e-09 0)
(0.005 -1.04674e-09 0)
(0.005 -1.0927e-09 0)
(0.005 -1.13994e-09 0)
(0.005 -1.18846e-09 0)
(0.005 -1.23825e-09 0)
(0.005 -1.28932e-09 0)
(0.005 -1.34164e-09 0)
(0.005 -1.39521e-09 0)
(0.005 -1.45002e-09 0)
(0.005 -1.50605e-09 0)
(0.005 -1.56329e-09 0)
(0.005 -1.6217e-09 0)
(0.005 -1.68126e-09 0)
(0.005 -1.74196e-09 0)
(0.005 -1.80375e-09 0)
(0.005 -1.86661e-09 0)
(0.005 -1.9305e-09 0)
(0.005 -1.99538e-09 0)
(0.005 -2.0612e-09 0)
(0.005 -2.12793e-09 0)
(0.005 -2.19552e-09 0)
(0.005 -2.2639e-09 0)
(0.005 -2.33303e-09 0)
(0.005 -2.40285e-09 0)
(0.005 -2.4733e-09 0)
(0.005 -2.5443e-09 0)
(0.005 -2.61579e-09 0)
(0.005 -2.68768e-09 0)
(0.005 -2.75989e-09 0)
(0.005 -2.83231e-09 0)
(0.005 -2.90484e-09 0)
(0.005 -2.97735e-09 0)
(0.005 -3.0497e-09 0)
(0.005 -3.1217e-09 0)
(0.005 -3.19315e-09 0)
(0.005 -3.26379e-09 0)
(0.005 -3.3333e-09 0)
(0.005 -3.40128e-09 0)
(0.005 -3.46719e-09 0)
(0.005 -3.53027e-09 0)
(0.005 -3.58947e-09 0)
(0.005 -3.64323e-09 0)
(0.00499999 -3.68928e-09 0)
(0.00499999 -3.72454e-09 0)
(0.00499999 -3.74556e-09 0)
(0.005 -1.60981e-12 0)
(0.005 -5.16066e-12 0)
(0.005 -9.01273e-12 0)
(0.005 -1.31229e-11 0)
(0.005 -1.74879e-11 0)
(0.005 -2.21124e-11 0)
(0.005 -2.70037e-11 0)
(0.005 -3.21721e-11 0)
(0.005 -3.76301e-11 0)
(0.005 -4.33919e-11 0)
(0.005 -4.94736e-11 0)
(0.005 -5.5892e-11 0)
(0.005 -6.26653e-11 0)
(0.005 -6.9812e-11 0)
(0.005 -7.73515e-11 0)
(0.005 -8.53037e-11 0)
(0.005 -9.36889e-11 0)
(0.005 -1.02528e-10 0)
(0.005 -1.11842e-10 0)
(0.005 -1.21652e-10 0)
(0.005 -1.3198e-10 0)
(0.005 -1.42848e-10 0)
(0.005 -1.5428e-10 0)
(0.005 -1.66296e-10 0)
(0.005 -1.78922e-10 0)
(0.005 -1.92179e-10 0)
(0.005 -2.06091e-10 0)
(0.005 -2.20682e-10 0)
(0.005 -2.35976e-10 0)
(0.005 -2.51997e-10 0)
(0.005 -2.68769e-10 0)
(0.005 -2.86315e-10 0)
(0.005 -3.04661e-10 0)
(0.005 -3.2383e-10 0)
(0.005 -3.43845e-10 0)
(0.005 -3.64732e-10 0)
(0.005 -3.86513e-10 0)
(0.005 -4.09212e-10 0)
(0.005 -4.32852e-10 0)
(0.005 -4.57455e-10 0)
(0.005 -4.83044e-10 0)
(0.005 -5.09639e-10 0)
(0.005 -5.37263e-10 0)
(0.005 -5.65934e-10 0)
(0.005 -5.95673e-10 0)
(0.005 -6.26498e-10 0)
(0.005 -6.58427e-10 0)
(0.005 -6.91475e-10 0)
(0.005 -7.25659e-10 0)
(0.005 -7.60993e-10 0)
(0.005 -7.97489e-10 0)
(0.005 -8.35159e-10 0)
(0.005 -8.74013e-10 0)
(0.005 -9.14059e-10 0)
(0.005 -9.55304e-10 0)
(0.005 -9.97753e-10 0)
(0.005 -1.04141e-09 0)
(0.005 -1.08627e-09 0)
(0.005 -1.13235e-09 0)
(0.005 -1.17963e-09 0)
(0.005 -1.22811e-09 0)
(0.005 -1.27778e-09 0)
(0.005 -1.32864e-09 0)
(0.005 -1.38068e-09 0)
(0.005 -1.43388e-09 0)
(0.005 -1.48823e-09 0)
(0.005 -1.54371e-09 0)
(0.005 -1.6003e-09 0)
(0.005 -1.65798e-09 0)
(0.005 -1.71672e-09 0)
(0.005 -1.77652e-09 0)
(0.005 -1.83732e-09 0)
(0.005 -1.89912e-09 0)
(0.005 -1.96187e-09 0)
(0.005 -2.02554e-09 0)
(0.005 -2.09011e-09 0)
(0.005 -2.15553e-09 0)
(0.005 -2.22177e-09 0)
(0.005 -2.28878e-09 0)
(0.005 -2.35654e-09 0)
(0.005 -2.42499e-09 0)
(0.005 -2.49408e-09 0)
(0.005 -2.56377e-09 0)
(0.005 -2.63398e-09 0)
(0.005 -2.70467e-09 0)
(0.005 -2.77574e-09 0)
(0.005 -2.8471e-09 0)
(0.005 -2.91864e-09 0)
(0.005 -2.99021e-09 0)
(0.005 -3.06162e-09 0)
(0.005 -3.13264e-09 0)
(0.005 -3.20293e-09 0)
(0.005 -3.27208e-09 0)
(0.005 -3.33948e-09 0)
(0.005 -3.40431e-09 0)
(0.005 -3.46538e-09 0)
(0.005 -3.52103e-09 0)
(0.00499999 -3.56886e-09 0)
(0.00499999 -3.60569e-09 0)
(0.00499999 -3.62778e-09 0)
(0.005 -1.50769e-12 0)
(0.005 -4.84269e-12 0)
(0.005 -8.47141e-12 0)
(0.005 -1.23546e-11 0)
(0.005 -1.64901e-11 0)
(0.005 -2.08825e-11 0)
(0.005 -2.55384e-11 0)
(0.005 -3.04666e-11 0)
(0.005 -3.56778e-11 0)
(0.005 -4.11847e-11 0)
(0.005 -4.70014e-11 0)
(0.005 -5.31432e-11 0)
(0.005 -5.96265e-11 0)
(0.005 -6.64683e-11 0)
(0.005 -7.36866e-11 0)
(0.005 -8.12999e-11 0)
(0.005 -8.9327e-11 0)
(0.005 -9.77874e-11 0)
(0.005 -1.06701e-10 0)
(0.005 -1.16088e-10 0)
(0.005 -1.25968e-10 0)
(0.005 -1.36363e-10 0)
(0.005 -1.47295e-10 0)
(0.005 -1.58783e-10 0)
(0.005 -1.7085e-10 0)
(0.005 -1.83519e-10 0)
(0.005 -1.9681e-10 0)
(0.005 -2.10747e-10 0)
(0.005 -2.25351e-10 0)
(0.005 -2.40646e-10 0)
(0.005 -2.56653e-10 0)
(0.005 -2.73396e-10 0)
(0.005 -2.90897e-10 0)
(0.005 -3.09179e-10 0)
(0.005 -3.28264e-10 0)
(0.005 -3.48175e-10 0)
(0.005 -3.68933e-10 0)
(0.005 -3.9056e-10 0)
(0.005 -4.13078e-10 0)
(0.005 -4.36507e-10 0)
(0.005 -4.60869e-10 0)
(0.005 -4.86183e-10 0)
(0.005 -5.12468e-10 0)
(0.005 -5.39744e-10 0)
(0.005 -5.68028e-10 0)
(0.005 -5.97338e-10 0)
(0.005 -6.27689e-10 0)
(0.005 -6.59097e-10 0)
(0.005 -6.91576e-10 0)
(0.005 -7.2514e-10 0)
(0.005 -7.59799e-10 0)
(0.005 -7.95565e-10 0)
(0.005 -8.32446e-10 0)
(0.005 -8.70452e-10 0)
(0.005 -9.09587e-10 0)
(0.005 -9.49857e-10 0)
(0.005 -9.91265e-10 0)
(0.005 -1.03381e-09 0)
(0.005 -1.0775e-09 0)
(0.005 -1.12233e-09 0)
(0.005 -1.16829e-09 0)
(0.005 -1.21538e-09 0)
(0.005 -1.2636e-09 0)
(0.005 -1.31293e-09 0)
(0.005 -1.36337e-09 0)
(0.005 -1.4149e-09 0)
(0.005 -1.46752e-09 0)
(0.005 -1.5212e-09 0)
(0.005 -1.57594e-09 0)
(0.005 -1.63171e-09 0)
(0.005 -1.68851e-09 0)
(0.005 -1.7463e-09 0)
(0.005 -1.80508e-09 0)
(0.005 -1.86481e-09 0)
(0.005 -1.92549e-09 0)
(0.005 -1.9871e-09 0)
(0.005 -2.0496e-09 0)
(0.005 -2.11299e-09 0)
(0.005 -2.17723e-09 0)
(0.005 -2.24231e-09 0)
(0.005 -2.30821e-09 0)
(0.005 -2.37489e-09 0)
(0.005 -2.44233e-09 0)
(0.005 -2.51051e-09 0)
(0.005 -2.57936e-09 0)
(0.005 -2.64886e-09 0)
(0.005 -2.71892e-09 0)
(0.005 -2.78945e-09 0)
(0.005 -2.86034e-09 0)
(0.005 -2.9314e-09 0)
(0.005 -3.00242e-09 0)
(0.005 -3.07306e-09 0)
(0.005 -3.14287e-09 0)
(0.005 -3.21121e-09 0)
(0.005 -3.27718e-09 0)
(0.005 -3.33953e-09 0)
(0.005 -3.39647e-09 0)
(0.005 -3.44556e-09 0)
(0.00499999 -3.48349e-09 0)
(0.00499999 -3.50627e-09 0)
(0.005 -1.41201e-12 0)
(0.005 -4.54377e-12 0)
(0.005 -7.96044e-12 0)
(0.005 -1.1626e-11 0)
(0.005 -1.55395e-11 0)
(0.005 -1.97056e-11 0)
(0.005 -2.41304e-11 0)
(0.005 -2.88218e-11 0)
(0.005 -3.37893e-11 0)
(0.005 -3.90441e-11 0)
(0.005 -4.45988e-11 0)
(0.005 -5.04672e-11 0)
(0.005 -5.6664e-11 0)
(0.005 -6.32052e-11 0)
(0.005 -7.01069e-11 0)
(0.005 -7.73865e-11 0)
(0.005 -8.50614e-11 0)
(0.005 -9.31498e-11 0)
(0.005 -1.0167e-10 0)
(0.005 -1.10642e-10 0)
(0.005 -1.20083e-10 0)
(0.005 -1.30015e-10 0)
(0.005 -1.40456e-10 0)
(0.005 -1.51427e-10 0)
(0.005 -1.62948e-10 0)
(0.005 -1.7504e-10 0)
(0.005 -1.87724e-10 0)
(0.005 -2.01021e-10 0)
(0.005 -2.14951e-10 0)
(0.005 -2.29535e-10 0)
(0.005 -2.44796e-10 0)
(0.005 -2.60754e-10 0)
(0.005 -2.7743e-10 0)
(0.005 -2.94846e-10 0)
(0.005 -3.13022e-10 0)
(0.005 -3.31979e-10 0)
(0.005 -3.51738e-10 0)
(0.005 -3.72319e-10 0)
(0.005 -3.93742e-10 0)
(0.005 -4.16026e-10 0)
(0.005 -4.3919e-10 0)
(0.005 -4.63254e-10 0)
(0.005 -4.88235e-10 0)
(0.005 -5.14149e-10 0)
(0.005 -5.41015e-10 0)
(0.005 -5.68847e-10 0)
(0.005 -5.97661e-10 0)
(0.005 -6.2747e-10 0)
(0.005 -6.58288e-10 0)
(0.005 -6.90126e-10 0)
(0.005 -7.22996e-10 0)
(0.005 -7.56907e-10 0)
(0.005 -7.91868e-10 0)
(0.005 -8.27886e-10 0)
(0.005 -8.64967e-10 0)
(0.005 -9.03115e-10 0)
(0.005 -9.42335e-10 0)
(0.005 -9.82628e-10 0)
(0.005 -1.024e-09 0)
(0.005 -1.06644e-09 0)
(0.005 -1.10995e-09 0)
(0.005 -1.15453e-09 0)
(0.005 -1.20017e-09 0)
(0.005 -1.24687e-09 0)
(0.005 -1.29462e-09 0)
(0.005 -1.34341e-09 0)
(0.005 -1.39324e-09 0)
(0.005 -1.44409e-09 0)
(0.005 -1.49596e-09 0)
(0.005 -1.54884e-09 0)
(0.005 -1.6027e-09 0)
(0.005 -1.65756e-09 0)
(0.005 -1.71338e-09 0)
(0.005 -1.77018e-09 0)
(0.005 -1.82792e-09 0)
(0.005 -1.88662e-09 0)
(0.005 -1.94625e-09 0)
(0.005 -2.00683e-09 0)
(0.005 -2.06833e-09 0)
(0.005 -2.13075e-09 0)
(0.005 -2.1941e-09 0)
(0.005 -2.25836e-09 0)
(0.005 -2.32353e-09 0)
(0.005 -2.3896e-09 0)
(0.005 -2.45655e-09 0)
(0.005 -2.52435e-09 0)
(0.005 -2.59296e-09 0)
(0.005 -2.66229e-09 0)
(0.005 -2.73226e-09 0)
(0.005 -2.80269e-09 0)
(0.005 -2.87337e-09 0)
(0.005 -2.94396e-09 0)
(0.005 -3.01398e-09 0)
(0.005 -3.08276e-09 0)
(0.005 -3.14936e-09 0)
(0.005 -3.21245e-09 0)
(0.005 -3.2702e-09 0)
(0.005 -3.32007e-09 0)
(0.005 -3.3587e-09 0)
(0.00499999 -3.3819e-09 0)
(0.005 -1.32202e-12 0)
(0.005 -4.2619e-12 0)
(0.005 -7.4771e-12 0)
(0.005 -1.09343e-11 0)
(0.005 -1.46336e-11 0)
(0.005 -1.85799e-11 0)
(0.005 -2.2779e-11 0)
(0.005 -2.72382e-11 0)
(0.005 -3.1966e-11 0)
(0.005 -3.69725e-11 0)
(0.005 -4.22689e-11 0)
(0.005 -4.78677e-11 0)
(0.005 -5.37824e-11 0)
(0.005 -6.00274e-11 0)
(0.005 -6.66178e-11 0)
(0.005 -7.35694e-11 0)
(0.005 -8.08985e-11 0)
(0.005 -8.86219e-11 0)
(0.005 -9.6757e-11 0)
(0.005 -1.05321e-10 0)
(0.005 -1.14333e-10 0)
(0.005 -1.23811e-10 0)
(0.005 -1.33773e-10 0)
(0.005 -1.44238e-10 0)
(0.005 -1.55225e-10 0)
(0.005 -1.66754e-10 0)
(0.005 -1.78845e-10 0)
(0.005 -1.91516e-10 0)
(0.005 -2.04787e-10 0)
(0.005 -2.18679e-10 0)
(0.005 -2.33211e-10 0)
(0.005 -2.48403e-10 0)
(0.005 -2.64275e-10 0)
(0.005 -2.80846e-10 0)
(0.005 -2.98135e-10 0)
(0.005 -3.16163e-10 0)
(0.005 -3.34949e-10 0)
(0.005 -3.5451e-10 0)
(0.005 -3.74866e-10 0)
(0.005 -3.96034e-10 0)
(0.005 -4.18033e-10 0)
(0.005 -4.40879e-10 0)
(0.005 -4.64589e-10 0)
(0.005 -4.89179e-10 0)
(0.005 -5.14664e-10 0)
(0.005 -5.41059e-10 0)
(0.005 -5.68376e-10 0)
(0.005 -5.9663e-10 0)
(0.005 -6.25832e-10 0)
(0.005 -6.55993e-10 0)
(0.005 -6.87123e-10 0)
(0.005 -7.1923e-10 0)
(0.005 -7.52324e-10 0)
(0.005 -7.8641e-10 0)
(0.005 -8.21495e-10 0)
(0.005 -8.57582e-10 0)
(0.005 -8.94675e-10 0)
(0.005 -9.32777e-10 0)
(0.005 -9.71889e-10 0)
(0.005 -1.01201e-09 0)
(0.005 -1.05314e-09 0)
(0.005 -1.09528e-09 0)
(0.005 -1.13842e-09 0)
(0.005 -1.18256e-09 0)
(0.005 -1.2277e-09 0)
(0.005 -1.27383e-09 0)
(0.005 -1.32095e-09 0)
(0.005 -1.36905e-09 0)
(0.005 -1.41813e-09 0)
(0.005 -1.46818e-09 0)
(0.005 -1.5192e-09 0)