/*--------------------------------*- C++ -*----------------------------------*\
  =========                 |
  \\      /  F ield         | OpenFOAM: The Open Source CFD Toolbox
   \\    /   O peration     | Website:  https://openfoam.org
    \\  /    A nd           | Version:  11
     \\/     M anipulation  |
\*---------------------------------------------------------------------------*/
FoamFile
{
    format      ascii;
    class       volScalarField;
    location    "10";
    object      omega;
}
// * * * * * * * * * * * * * * * * * * * * * * * * * * * * * * * * * * * * * //

dimensions      [0 0 -1 0 0 0 0];

internalField   nonuniform List<scalar> 
10000
(
0.956729
0.882462
0.816792
0.761099
0.714772
0.676885
0.646412
0.622298
0.603506
0.589062
0.578099
0.56987
0.563767
0.559282
0.556001
0.553614
0.551886
0.550637
0.549737
0.549086
0.548615
0.548272
0.548021
0.547835
0.547696
0.54759
0.547509
0.547445
0.547394
0.547353
0.547319
0.54729
0.547266
0.547245
0.547227
0.547211
0.547198
0.547185
0.547174
0.547164
0.547155
0.547147
0.54714
0.547134
0.547128
0.547122
0.547117
0.547113
0.547108
0.547105
0.547101
0.547098
0.547095
0.547092
0.547089
0.547087
0.547085
0.547083
0.547081
0.547079
0.547078
0.547076
0.547075
0.547074
0.547072
0.547071
0.54707
0.547069
0.547068
0.547067
0.547067
0.547066
0.547065
0.547065
0.547064
0.547063
0.547063
0.547062
0.547062
0.547062
0.547061
0.547061
0.54706
0.54706
0.547059
0.547059
0.547058
0.547058
0.547057
0.547057
0.547056
0.547056
0.547055
0.547055
0.547054
0.547053
0.547053
0.547052
0.547052
0.547052
0.956779
0.881596
0.816237
0.760732
0.714516
0.676703
0.646288
0.622219
0.603462
0.589045
0.578102
0.569891
0.563793
0.559305
0.556022
0.553634
0.551904
0.550654
0.549752
0.5491
0.548628
0.548284
0.548032
0.547845
0.547705
0.547599
0.547517
0.547453
0.547401
0.547359
0.547325
0.547296
0.547271
0.54725
0.547232
0.547216
0.547202
0.547189
0.547178
0.547168
0.547159
0.54715
0.547143
0.547136
0.54713
0.547124
0.547119
0.547114
0.54711
0.547106
0.547103
0.547099
0.547096
0.547093
0.547091
0.547088
0.547086
0.547084
0.547082
0.54708
0.547079
0.547077
0.547076
0.547074
0.547073
0.547072
0.547071
0.54707
0.547069
0.547068
0.547067
0.547066
0.547066
0.547065
0.547064
0.547064
0.547063
0.547063
0.547062
0.547062
0.547061
0.547061
0.54706
0.54706
0.54706
0.547059
0.547059
0.547058
0.547058
0.547057
0.547057
0.547056
0.547055
0.547055
0.547054
0.547053
0.547053
0.547052
0.547052
0.547052
0.956798
0.881109
0.815698
0.760266
0.714136
0.676407
0.646069
0.622067
0.603361
0.588984
0.578073
0.569884
0.563798
0.559314
0.556034
0.553647
0.551918
0.550668
0.549765
0.549113
0.548641
0.548296
0.548044
0.547857
0.547716
0.54761
0.547527
0.547462
0.54741
0.547368
0.547333
0.547304
0.547279
0.547257
0.547239
0.547222
0.547208
0.547195
0.547183
0.547173
0.547163
0.547155
0.547147
0.54714
0.547134
0.547128
0.547122
0.547117
0.547113
0.547109
0.547105
0.547102
0.547098
0.547095
0.547093
0.54709
0.547088
0.547085
0.547083
0.547082
0.54708
0.547078
0.547077
0.547075
0.547074
0.547073
0.547072
0.547071
0.54707
0.547069
0.547068
0.547067
0.547066
0.547066
0.547065
0.547064
0.547064
0.547063
0.547063
0.547062
0.547062
0.547061
0.547061
0.54706
0.54706
0.54706
0.547059
0.547059
0.547058
0.547058
0.547057
0.547056
0.547056
0.547055
0.547054
0.547054
0.547053
0.547053
0.547052
0.547052
0.956812
0.880845
0.8153
0.759837
0.713739
0.676076
0.645814
0.621883
0.603237
0.588907
0.57803
0.569864
0.563793
0.559318
0.556042
0.553657
0.551929
0.55068
0.549777
0.549125
0.548652
0.548308
0.548055
0.547868
0.547728
0.547621
0.547538
0.547473
0.547421
0.547378
0.547343
0.547313
0.547288
0.547266
0.547246
0.54723
0.547215
0.547201
0.547189
0.547178
0.547169
0.54716
0.547152
0.547145
0.547138
0.547132
0.547126
0.547121
0.547116
0.547112
0.547108
0.547104
0.547101
0.547098
0.547095
0.547092
0.54709
0.547087
0.547085
0.547083
0.547081
0.54708
0.547078
0.547077
0.547075
0.547074
0.547073
0.547072
0.547071
0.54707
0.547069
0.547068
0.547067
0.547067
0.547066
0.547065
0.547065
0.547064
0.547063
0.547063
0.547062
0.547062
0.547062
0.547061
0.547061
0.54706
0.54706
0.547059
0.547059
0.547058
0.547057
0.547057
0.547056
0.547055
0.547055
0.547054
0.547053
0.547053
0.547052
0.547052
0.956828
0.880715
0.815032
0.759493
0.713387
0.675766
0.645567
0.621701
0.603114
0.58883
0.577986
0.569843
0.563786
0.559319
0.556048
0.553665
0.551938
0.550689
0.549787
0.549135
0.548663
0.548318
0.548066
0.547879
0.547738
0.547631
0.547548
0.547483
0.547431
0.547388
0.547352
0.547322
0.547296
0.547274
0.547254
0.547237
0.547222
0.547208
0.547196
0.547185
0.547175
0.547165
0.547157
0.547149
0.547142
0.547136
0.54713
0.547125
0.54712
0.547115
0.547111
0.547107
0.547104
0.5471
0.547097
0.547095
0.547092
0.54709
0.547087
0.547085
0.547083
0.547081
0.54708
0.547078
0.547077
0.547075
0.547074
0.547073
0.547072
0.547071
0.54707
0.547069
0.547068
0.547067
0.547067
0.547066
0.547065
0.547065
0.547064
0.547064
0.547063
0.547063
0.547062
0.547062
0.547061
0.547061
0.54706
0.54706
0.547059
0.547058
0.547058
0.547057
0.547056
0.547056
0.547055
0.547054
0.547054
0.547053
0.547053
0.547052
0.956845
0.880655
0.814862
0.75924
0.713107
0.675505
0.645353
0.621541
0.603003
0.588759
0.577945
0.569822
0.563778
0.559319
0.556051
0.553671
0.551944
0.550695
0.549794
0.549142
0.54867
0.548326
0.548074
0.547887
0.547746
0.54764
0.547557
0.547492
0.547439
0.547396
0.54736
0.54733
0.547304
0.547282
0.547262
0.547244
0.547229
0.547215
0.547202
0.547191
0.54718
0.547171
0.547162
0.547154
0.547147
0.54714
0.547134
0.547129
0.547124
0.547119
0.547114
0.54711
0.547107
0.547103
0.5471
0.547097
0.547094
0.547092
0.547089
0.547087
0.547085
0.547083
0.547081
0.54708
0.547078
0.547077
0.547075
0.547074
0.547073
0.547072
0.547071
0.54707
0.547069
0.547068
0.547068
0.547067
0.547066
0.547066
0.547065
0.547064
0.547064
0.547063
0.547063
0.547062
0.547062
0.547061
0.547061
0.54706
0.547059
0.547059
0.547058
0.547058
0.547057
0.547056
0.547055
0.547055
0.547054
0.547053
0.547053
0.547053
0.956865
0.880631
0.814757
0.759065
0.712899
0.675303
0.645182
0.621411
0.602913
0.588702
0.577911
0.569804
0.563771
0.559317
0.556052
0.553673
0.551947
0.550698
0.549797
0.549145
0.548673
0.54833
0.548078
0.547891
0.547752
0.547645
0.547563
0.547498
0.547446
0.547403
0.547367
0.547337
0.547311
0.547288
0.547268
0.54725
0.547235
0.54722
0.547207
0.547196
0.547185
0.547175
0.547167
0.547158
0.547151
0.547144
0.547138
0.547132
0.547127
0.547122
0.547117
0.547113
0.547109
0.547106
0.547102
0.547099
0.547096
0.547094
0.547091
0.547089
0.547087
0.547085
0.547083
0.547081
0.54708
0.547078
0.547077
0.547075
0.547074
0.547073
0.547072
0.547071
0.54707
0.547069
0.547068
0.547068
0.547067
0.547066
0.547066
0.547065
0.547064
0.547064
0.547063
0.547063
0.547062
0.547062
0.547061
0.547061
0.54706
0.547059
0.547059
0.547058
0.547057
0.547056
0.547056
0.547055
0.547054
0.547054
0.547053
0.547053
0.956885
0.880625
0.814694
0.758947
0.712751
0.675155
0.645054
0.621312
0.602843
0.588657
0.577885
0.569791
0.563764
0.559314
0.556051
0.553672
0.551946
0.550697
0.549796
0.549144
0.548673
0.54833
0.548078
0.547893
0.547754
0.547648
0.547566
0.547502
0.54745
0.547407
0.547372
0.547342
0.547316
0.547293
0.547273
0.547255
0.547239
0.547225
0.547212
0.5472
0.547189
0.547179
0.54717
0.547162
0.547155
0.547148
0.547141
0.547135
0.54713
0.547125
0.54712
0.547116
0.547112
0.547108
0.547104
0.547101
0.547098
0.547095
0.547093
0.54709
0.547088
0.547086
0.547084
0.547082
0.547081
0.547079
0.547078
0.547076
0.547075
0.547074
0.547073
0.547072
0.547071
0.54707
0.547069
0.547068
0.547068
0.547067
0.547066
0.547066
0.547065
0.547064
0.547064
0.547063
0.547063
0.547062
0.547062
0.547061
0.54706
0.54706
0.547059
0.547058
0.547058
0.547057
0.547056
0.547055
0.547055
0.547054
0.547053
0.547053
0.956903
0.880628
0.814657
0.758869
0.712649
0.67505
0.644962
0.621241
0.602794
0.588626
0.577868
0.569782
0.56376
0.559311
0.556048
0.553669
0.551942
0.550693
0.549791
0.54914
0.548668
0.548326
0.548076
0.547891
0.547753
0.547648
0.547567
0.547503
0.547452
0.54741
0.547374
0.547345
0.547319
0.547296
0.547277
0.547259
0.547243
0.547228
0.547215
0.547203
0.547193
0.547183
0.547174
0.547165
0.547157
0.54715
0.547144
0.547138
0.547132
0.547127
0.547122
0.547118
0.547114
0.54711
0.547106
0.547103
0.5471
0.547097
0.547094
0.547092
0.547089
0.547087
0.547085
0.547083
0.547082
0.54708
0.547079
0.547077
0.547076
0.547075
0.547074
0.547072
0.547071
0.547071
0.54707
0.547069
0.547068
0.547067
0.547067
0.547066
0.547065
0.547065
0.547064
0.547064
0.547063
0.547062
0.547062
0.547061
0.547061
0.54706
0.547059
0.547059
0.547058
0.547057
0.547056
0.547055
0.547055
0.547054
0.547054
0.547053
0.956919
0.880635
0.814635
0.758818
0.71258
0.674977
0.644898
0.621192
0.602761
0.588606
0.577857
0.569776
0.563756
0.559308
0.556044
0.553664
0.551936
0.550686
0.549783
0.549132
0.548661
0.548319
0.54807
0.547886
0.547749
0.547645
0.547565
0.547502
0.547451
0.54741
0.547375
0.547346
0.54732
0.547298
0.547278
0.547261
0.547245
0.547231
0.547218
0.547206
0.547195
0.547185
0.547176
0.547167
0.54716
0.547152
0.547146
0.54714
0.547134
0.547129
0.547124
0.547119
0.547115
0.547111
0.547108
0.547104
0.547101
0.547098
0.547095
0.547093
0.54709
0.547088
0.547086
0.547084
0.547083
0.547081
0.547079
0.547078
0.547077
0.547075
0.547074
0.547073
0.547072
0.547071
0.54707
0.547069
0.547068
0.547068
0.547067
0.547066
0.547066
0.547065
0.547064
0.547064
0.547063
0.547063
0.547062
0.547062
0.547061
0.54706
0.547059
0.547059
0.547058
0.547057
0.547056
0.547056
0.547055
0.547054
0.547054
0.547053
0.956933
0.880643
0.814624
0.758785
0.712533
0.674928
0.644856
0.621161
0.602741
0.588596
0.577852
0.569774
0.563755
0.559306
0.55604
0.553657
0.551927
0.550676
0.549773
0.549122
0.548651
0.54831
0.548061
0.547878
0.547742
0.547639
0.54756
0.547498
0.547448
0.547408
0.547374
0.547345
0.54732
0.547298
0.547279
0.547262
0.547246
0.547232
0.547219
0.547207
0.547196
0.547186
0.547177
0.547169
0.547161
0.547154
0.547147
0.547141
0.547135
0.54713
0.547125
0.54712
0.547116
0.547112
0.547109
0.547105
0.547102
0.547099
0.547096
0.547094
0.547091
0.547089
0.547087
0.547085
0.547083
0.547081
0.54708
0.547078
0.547077
0.547076
0.547075
0.547073
0.547072
0.547071
0.54707
0.54707
0.547069
0.547068
0.547067
0.547067
0.547066
0.547065
0.547065
0.547064
0.547063
0.547063
0.547062
0.547062
0.547061
0.54706
0.54706
0.547059
0.547058
0.547057
0.547057
0.547056
0.547055
0.547054
0.547054
0.547053
0.956944
0.880652
0.814618
0.758763
0.712502
0.674895
0.644828
0.621142
0.602731
0.588591
0.577852
0.569775
0.563754
0.559303
0.556035
0.55365
0.551918
0.550665
0.549761
0.549109
0.548639
0.548299
0.548051
0.547869
0.547734
0.547632
0.547554
0.547493
0.547444
0.547404
0.547371
0.547343
0.547319
0.547297
0.547278
0.547261
0.547246
0.547232
0.547219
0.547208
0.547197
0.547187
0.547178
0.54717
0.547162
0.547155
0.547148
0.547142
0.547136
0.547131
0.547126
0.547121
0.547117
0.547113
0.547109
0.547106
0.547103
0.5471
0.547097
0.547094
0.547092
0.54709
0.547087
0.547085
0.547084
0.547082
0.54708
0.547079
0.547077
0.547076
0.547075
0.547074
0.547073
0.547072
0.547071
0.54707
0.547069
0.547068
0.547067
0.547067
0.547066
0.547065
0.547065
0.547064
0.547064
0.547063
0.547062
0.547062
0.547061
0.54706
0.54706
0.547059
0.547058
0.547057
0.547057
0.547056
0.547055
0.547054
0.547054
0.547054
0.956955
0.880661
0.814616
0.758749
0.71248
0.674873
0.64481
0.621131
0.602726
0.588592
0.577854
0.569777
0.563755
0.559301
0.55603
0.553642
0.551908
0.550653
0.549748
0.549096
0.548626
0.548286
0.548039
0.547858
0.547724
0.547623
0.547546
0.547486
0.547439
0.5474
0.547367
0.54734
0.547316
0.547295
0.547277
0.54726
0.547245
0.547231
0.547219
0.547208
0.547197
0.547187
0.547178
0.54717
0.547162
0.547155
0.547148
0.547142
0.547137
0.547131
0.547126
0.547122
0.547117
0.547113
0.54711
0.547106
0.547103
0.5471
0.547097
0.547095
0.547092
0.54709
0.547088
0.547086
0.547084
0.547082
0.54708
0.547079
0.547078
0.547076
0.547075
0.547074
0.547073
0.547072
0.547071
0.54707
0.547069
0.547068
0.547068
0.547067
0.547066
0.547065
0.547065
0.547064
0.547064
0.547063
0.547062
0.547062
0.547061
0.54706
0.54706
0.547059
0.547058
0.547057
0.547057
0.547056
0.547055
0.547054
0.547054
0.547054
0.956964
0.88067
0.814616
0.75874
0.712465
0.674858
0.644799
0.621125
0.602726
0.588595
0.577859
0.569781
0.563756
0.559299
0.556025
0.553634
0.551897
0.550641
0.549735
0.549082
0.548612
0.548272
0.548026
0.547846
0.547713
0.547614
0.547538
0.547479
0.547432
0.547394
0.547362
0.547336
0.547313
0.547292
0.547274
0.547258
0.547244
0.54723
0.547218
0.547207
0.547196
0.547187
0.547178
0.54717
0.547162
0.547155
0.547148
0.547142
0.547137
0.547131
0.547126
0.547122
0.547118
0.547114
0.54711
0.547106
0.547103
0.5471
0.547097
0.547095
0.547092
0.54709
0.547088
0.547086
0.547084
0.547082
0.547081
0.547079
0.547078
0.547076
0.547075
0.547074
0.547073
0.547072
0.547071
0.54707
0.547069
0.547068
0.547068
0.547067
0.547066
0.547065
0.547065
0.547064
0.547064
0.547063
0.547062
0.547062
0.547061
0.54706
0.54706
0.547059
0.547058
0.547057
0.547057
0.547056
0.547055
0.547054
0.547054
0.547054
0.956972
0.880678
0.814617
0.758733
0.712454
0.674847
0.644791
0.621123
0.602728
0.5886
0.577864
0.569785
0.563758
0.559298
0.55602
0.553626
0.551886
0.550628
0.549721
0.549068
0.548598
0.548258
0.548013
0.547834
0.547702
0.547603
0.547528
0.54747
0.547425
0.547387
0.547357
0.547331
0.547308
0.547289
0.547271
0.547256
0.547241
0.547228
0.547216
0.547205
0.547195
0.547186
0.547177
0.547169
0.547162
0.547155
0.547148
0.547142
0.547137
0.547131
0.547126
0.547122
0.547118
0.547114
0.54711
0.547106
0.547103
0.5471
0.547097
0.547095
0.547092
0.54709
0.547088
0.547086
0.547084
0.547082
0.547081
0.547079
0.547078
0.547076
0.547075
0.547074
0.547073
0.547072
0.547071
0.54707
0.547069
0.547068
0.547067
0.547067
0.547066
0.547065
0.547065
0.547064
0.547063
0.547063
0.547062
0.547062
0.547061
0.54706
0.54706
0.547059
0.547058
0.547057
0.547057
0.547056
0.547055
0.547054
0.547054
0.547054
0.956979
0.880685
0.814619
0.758727
0.712445
0.674838
0.644786
0.621122
0.602731
0.588605
0.57787
0.56979
0.56376
0.559296
0.556015
0.553618
0.551876
0.550616
0.549707
0.549054
0.548583
0.548244
0.547999
0.547821
0.54769
0.547592
0.547518
0.547462
0.547417
0.54738
0.547351
0.547325
0.547304
0.547285
0.547268
0.547252
0.547239
0.547226
0.547214
0.547204
0.547194
0.547185
0.547176
0.547168
0.547161
0.547154
0.547148
0.547142
0.547136
0.547131
0.547126
0.547122
0.547117
0.547113
0.54711
0.547106
0.547103
0.5471
0.547097
0.547095
0.547092
0.54709
0.547088
0.547086
0.547084
0.547082
0.54708
0.547079
0.547077
0.547076
0.547075
0.547074
0.547073
0.547072
0.547071
0.54707
0.547069
0.547068
0.547067
0.547067
0.547066
0.547065
0.547065
0.547064
0.547063
0.547063
0.547062
0.547061
0.547061
0.54706
0.547059
0.547059
0.547058
0.547057
0.547056
0.547056
0.547055
0.547054
0.547054
0.547053
0.956985
0.880692
0.81462
0.758723
0.712437
0.674831
0.644782
0.621122
0.602735
0.588611
0.577876
0.569794
0.563762
0.559295
0.556011
0.553611
0.551866
0.550604
0.549694
0.54904
0.548569
0.54823
0.547986
0.547808
0.547678
0.547581
0.547508
0.547452
0.547409
0.547373
0.547344
0.54732
0.547299
0.54728
0.547264
0.547249
0.547236
0.547223
0.547212
0.547202
0.547192
0.547183
0.547175
0.547167
0.54716
0.547153
0.547147
0.547141
0.547135
0.54713
0.547126
0.547121
0.547117
0.547113
0.547109
0.547106
0.547103
0.5471
0.547097
0.547094
0.547092
0.54709
0.547088
0.547086
0.547084
0.547082
0.54708
0.547079
0.547077
0.547076
0.547075
0.547073
0.547072
0.547071
0.54707
0.547069
0.547069
0.547068
0.547067
0.547066
0.547066
0.547065
0.547064
0.547064
0.547063
0.547062
0.547062
0.547061
0.547061
0.54706
0.547059
0.547059
0.547058
0.547057
0.547056
0.547056
0.547055
0.547054
0.547054
0.547053
0.95699
0.880698
0.814621
0.758719
0.71243
0.674824
0.644778
0.621122
0.602738
0.588616
0.577882
0.569799
0.563764
0.559295
0.556007
0.553604
0.551857
0.550593
0.549682
0.549026
0.548555
0.548217
0.547973
0.547796
0.547666
0.54757
0.547498
0.547443
0.5474
0.547366
0.547338
0.547314
0.547293
0.547276
0.54726
0.547245
0.547232
0.547221
0.54721
0.5472
0.54719
0.547181
0.547173
0.547166
0.547159
0.547152
0.547146
0.54714
0.547135
0.54713
0.547125
0.547121
0.547116
0.547113
0.547109
0.547106
0.547102
0.547099
0.547097
0.547094
0.547092
0.547089
0.547087
0.547085
0.547083
0.547082
0.54708
0.547078
0.547077
0.547076
0.547074
0.547073
0.547072
0.547071
0.54707
0.547069
0.547068
0.547068
0.547067
0.547066
0.547065
0.547065
0.547064
0.547063
0.547063
0.547062
0.547062
0.547061
0.54706
0.54706
0.547059
0.547058
0.547058
0.547057
0.547056
0.547055
0.547055
0.547054
0.547054
0.547053
0.956995
0.880703
0.814623
0.758715
0.712423
0.674818
0.644774
0.621122
0.602741
0.588621
0.577887
0.569803
0.563766
0.559294
0.556003
0.553597
0.551848
0.550582
0.54967
0.549014
0.548542
0.548204
0.54796
0.547783
0.547655
0.54756
0.547489
0.547434
0.547392
0.547358
0.547331
0.547308
0.547288
0.547271
0.547255
0.547242
0.547229
0.547218
0.547207
0.547197
0.547188
0.54718
0.547172
0.547164
0.547157
0.547151
0.547145
0.547139
0.547134
0.547129
0.547124
0.54712
0.547116
0.547112
0.547108
0.547105
0.547102
0.547099
0.547096
0.547094
0.547091
0.547089
0.547087
0.547085
0.547083
0.547081
0.54708
0.547078
0.547077
0.547075
0.547074
0.547073
0.547072
0.547071
0.54707
0.547069
0.547068
0.547067
0.547067
0.547066
0.547065
0.547064
0.547064
0.547063
0.547063
0.547062
0.547061
0.547061
0.54706
0.547059
0.547059
0.547058
0.547057
0.547057
0.547056
0.547055
0.547055
0.547054
0.547053
0.547053
0.956999
0.880708
0.814623
0.758712
0.712417
0.674812
0.644771
0.621122
0.602744
0.588626
0.577892
0.569807
0.563768
0.559293
0.556
0.553592
0.55184
0.550573
0.549659
0.549001
0.54853
0.548191
0.547948
0.547772
0.547643
0.547549
0.547479
0.547425
0.547384
0.547351
0.547324
0.547302
0.547283
0.547266
0.547251
0.547238
0.547226
0.547215
0.547204
0.547195
0.547186
0.547178
0.54717
0.547163
0.547156
0.54715
0.547144
0.547138
0.547133
0.547128
0.547123
0.547119
0.547115
0.547111
0.547108
0.547104
0.547101
0.547098
0.547096
0.547093
0.547091
0.547089
0.547086
0.547085
0.547083
0.547081
0.547079
0.547078
0.547076
0.547075
0.547074
0.547073
0.547072
0.54707
0.54707
0.547069
0.547068
0.547067
0.547066
0.547066
0.547065
0.547064
0.547064
0.547063
0.547062
0.547062
0.547061
0.54706
0.54706
0.547059
0.547059
0.547058
0.547057
0.547056
0.547056
0.547055
0.547054
0.547054
0.547053
0.547053
0.957003
0.880712
0.814624
0.758708
0.712411
0.674806
0.644767
0.621121
0.602746
0.58863
0.577896
0.56981
0.56377
0.559293
0.555997
0.553586
0.551833
0.550563
0.549648
0.54899
0.548518
0.548179
0.547936
0.54776
0.547633
0.547539
0.54747
0.547417
0.547376
0.547344
0.547318
0.547296
0.547277
0.547261
0.547247
0.547234
0.547222
0.547211
0.547201
0.547192
0.547184
0.547176
0.547168
0.547161
0.547154
0.547148
0.547142
0.547137
0.547132
0.547127
0.547123
0.547118
0.547114
0.547111
0.547107
0.547104
0.547101
0.547098
0.547095
0.547093
0.54709
0.547088
0.547086
0.547084
0.547082
0.547081
0.547079
0.547077
0.547076
0.547075
0.547073
0.547072
0.547071
0.54707
0.547069
0.547068
0.547067
0.547067
0.547066
0.547065
0.547064
0.547064
0.547063
0.547063
0.547062
0.547061
0.547061
0.54706
0.54706
0.547059
0.547058
0.547058
0.547057
0.547056
0.547056
0.547055
0.547054
0.547054
0.547053
0.547053
0.957007
0.880716
0.814625
0.758705
0.712406
0.6748
0.644764
0.62112
0.602748
0.588633
0.5779
0.569813
0.563772
0.559292
0.555994
0.553581
0.551826
0.550555
0.549638
0.54898
0.548507
0.548168
0.547925
0.54775
0.547623
0.54753
0.547461
0.547409
0.547368
0.547337
0.547311
0.54729
0.547272
0.547256
0.547243
0.54723
0.547219
0.547208
0.547199
0.54719
0.547181
0.547174
0.547166
0.547159
0.547153
0.547147
0.547141
0.547136
0.547131
0.547126
0.547122
0.547118
0.547114
0.54711
0.547106
0.547103
0.5471
0.547097
0.547095
0.547092
0.54709
0.547088
0.547086
0.547084
0.547082
0.54708
0.547079
0.547077
0.547076
0.547074
0.547073
0.547072
0.547071
0.54707
0.547069
0.547068
0.547067
0.547066
0.547066
0.547065
0.547064
0.547063
0.547063
0.547062
0.547062
0.547061
0.54706
0.54706
0.547059
0.547059
0.547058
0.547057
0.547057
0.547056
0.547055
0.547055
0.547054
0.547053
0.547053
0.547053
0.95701
0.880719
0.814625
0.758701
0.7124
0.674795
0.64476
0.621119
0.602749
0.588636
0.577903
0.569816
0.563773
0.559292
0.555992
0.553577
0.551819
0.550547
0.549629
0.54897
0.548497
0.548158
0.547915
0.54774
0.547613
0.54752
0.547452
0.547401
0.547361
0.54733
0.547305
0.547285
0.547267
0.547252
0.547238
0.547226
0.547215
0.547205
0.547196
0.547187
0.547179
0.547171
0.547164
0.547158
0.547151
0.547145
0.54714
0.547135
0.54713
0.547125
0.547121
0.547117
0.547113
0.547109
0.547106
0.547103
0.5471
0.547097
0.547094
0.547092
0.547089
0.547087
0.547085
0.547083
0.547081
0.54708
0.547078
0.547077
0.547075
0.547074
0.547073
0.547072
0.54707
0.547069
0.547068
0.547068
0.547067
0.547066
0.547065
0.547064
0.547064
0.547063
0.547063
0.547062
0.547061
0.547061
0.54706
0.54706
0.547059
0.547058
0.547058
0.547057
0.547056
0.547056
0.547055
0.547054
0.547054
0.547053
0.547053
0.547053
0.957012
0.880722
0.814625
0.758698
0.712394
0.674789
0.644756
0.621118
0.60275
0.588638
0.577906
0.569818
0.563774
0.559291
0.555989
0.553573
0.551813
0.55054
0.549621
0.548961
0.548487
0.548148
0.547905
0.54773
0.547604
0.547512
0.547444
0.547393
0.547354
0.547324
0.547299
0.547279
0.547262
0.547247
0.547234
0.547223
0.547212
0.547202
0.547193
0.547185
0.547177
0.547169
0.547163
0.547156
0.54715
0.547144
0.547139
0.547133
0.547129
0.547124
0.54712
0.547116
0.547112
0.547108
0.547105
0.547102
0.547099
0.547096
0.547094
0.547091
0.547089
0.547087
0.547085
0.547083
0.547081
0.547079
0.547078
0.547076
0.547075
0.547073
0.547072
0.547071
0.54707
0.547069
0.547068
0.547067
0.547066
0.547066
0.547065
0.547064
0.547063
0.547063
0.547062
0.547062
0.547061
0.54706
0.54706
0.547059
0.547059
0.547058
0.547057
0.547057
0.547056
0.547056
0.547055
0.547054
0.547054
0.547053
0.547053
0.547052
0.957015
0.880725
0.814625
0.758694
0.712389
0.674784
0.644752
0.621116
0.60275
0.58864
0.577908
0.56982
0.563775
0.559291
0.555987
0.553569
0.551808
0.550533
0.549613
0.548952
0.548478
0.548139
0.547896
0.547721
0.547595
0.547504
0.547436
0.547386
0.547347
0.547318
0.547294
0.547274
0.547257
0.547243
0.54723
0.547219
0.547209
0.547199
0.547191
0.547182
0.547175
0.547167
0.547161
0.547154
0.547148
0.547143
0.547137
0.547132
0.547128
0.547123
0.547119
0.547115
0.547111
0.547108
0.547104
0.547101
0.547098
0.547096
0.547093
0.547091
0.547088
0.547086
0.547084
0.547082
0.54708
0.547079
0.547077
0.547076
0.547074
0.547073
0.547072
0.547071
0.54707
0.547069
0.547068
0.547067
0.547066
0.547065
0.547064
0.547064
0.547063
0.547062
0.547062
0.547061
0.547061
0.54706
0.547059
0.547059
0.547058
0.547058
0.547057
0.547057
0.547056
0.547055
0.547055
0.547054
0.547053
0.547053
0.547053
0.547052
0.957017
0.880727
0.814625
0.758691
0.712383
0.674778
0.644747
0.621114
0.60275
0.588641
0.57791
0.569822
0.563776
0.559291
0.555985
0.553565
0.551803
0.550527
0.549606
0.548944
0.54847
0.54813
0.547887
0.547713
0.547587
0.547496
0.547429
0.547379
0.547341
0.547312
0.547288
0.547269
0.547253
0.547239
0.547227
0.547216
0.547206
0.547197
0.547188
0.54718
0.547173
0.547166
0.547159
0.547153
0.547147
0.547141
0.547136
0.547131
0.547126
0.547122
0.547118
0.547114
0.54711
0.547107
0.547104
0.547101
0.547098
0.547095
0.547092
0.54709
0.547088
0.547086
0.547084
0.547082
0.54708
0.547078
0.547077
0.547075
0.547074
0.547073
0.547071
0.54707
0.547069
0.547068
0.547067
0.547066
0.547066
0.547065
0.547064
0.547063
0.547063
0.547062
0.547061
0.547061
0.54706
0.54706
0.547059
0.547059
0.547058
0.547057
0.547057
0.547056
0.547056
0.547055
0.547054
0.547054
0.547053
0.547053
0.547052
0.547052
0.957019
0.880729
0.814624
0.758687
0.712378
0.674772
0.644743
0.621111
0.602749
0.588642
0.577912
0.569824
0.563777
0.55929
0.555984
0.553562
0.551799
0.550521
0.549599
0.548937
0.548462
0.548123
0.547879
0.547705
0.54758
0.547489
0.547422
0.547373
0.547335
0.547306
0.547283
0.547264
0.547249
0.547235
0.547223
0.547212
0.547203
0.547194
0.547185
0.547178
0.54717
0.547164
0.547157
0.547151
0.547145
0.54714
0.547135
0.54713
0.547125
0.547121
0.547117
0.547113
0.54711
0.547106
0.547103
0.5471
0.547097
0.547094
0.547092
0.54709
0.547087
0.547085
0.547083
0.547081
0.54708
0.547078
0.547076
0.547075
0.547074
0.547072
0.547071
0.54707
0.547069
0.547068
0.547067
0.547066
0.547065
0.547064
0.547064
0.547063
0.547062
0.547062
0.547061
0.547061
0.54706
0.547059
0.547059
0.547058
0.547058
0.547057
0.547057
0.547056
0.547055
0.547055
0.547054
0.547054
0.547053
0.547053
0.547052
0.547052
0.957021
0.880731
0.814624
0.758684
0.712373
0.674767
0.644738
0.621108
0.602748
0.588642
0.577913
0.569825
0.563778
0.55929
0.555982
0.553559
0.551795
0.550516
0.549593
0.54893
0.548455
0.548115
0.547872
0.547698
0.547573
0.547482
0.547416
0.547367
0.547329
0.547301
0.547278
0.54726
0.547244
0.547231
0.54722
0.547209
0.5472
0.547191
0.547183
0.547176
0.547168
0.547162
0.547156
0.54715
0.547144
0.547139
0.547134
0.547129
0.547124
0.54712
0.547116
0.547112
0.547109
0.547105
0.547102
0.547099
0.547096
0.547094
0.547091
0.547089
0.547087
0.547085
0.547083
0.547081
0.547079
0.547077
0.547076
0.547074
0.547073
0.547072
0.547071
0.54707
0.547068
0.547067
0.547067
0.547066
0.547065
0.547064
0.547063
0.547063
0.547062
0.547061
0.547061
0.54706
0.54706
0.547059
0.547058
0.547058
0.547057
0.547057
0.547056
0.547056
0.547055
0.547054
0.547054
0.547053
0.547053
0.547052
0.547052
0.547052
0.957023
0.880733
0.814623
0.758681
0.712367
0.674761
0.644734
0.621105
0.602747
0.588643
0.577914
0.569826
0.563778
0.559289
0.555981
0.553557
0.551791
0.550511
0.549588
0.548924
0.548449
0.548108
0.547865
0.547691
0.547566
0.547476
0.54741
0.547361
0.547324
0.547296
0.547274
0.547256
0.54724
0.547228
0.547216
0.547206
0.547197
0.547189
0.547181
0.547173
0.547167
0.54716
0.547154
0.547148
0.547143
0.547137
0.547132
0.547128
0.547123
0.547119
0.547115
0.547112
0.547108
0.547105
0.547102
0.547099
0.547096
0.547093
0.547091
0.547088
0.547086
0.547084
0.547082
0.54708
0.547079
0.547077
0.547075
0.547074
0.547073
0.547071
0.54707
0.547069
0.547068
0.547067
0.547066
0.547065
0.547064
0.547064
0.547063
0.547062
0.547062
0.547061
0.54706
0.54706
0.547059
0.547059
0.547058
0.547058
0.547057
0.547056
0.547056
0.547055
0.547055
0.547054
0.547054
0.547053
0.547053
0.547052
0.547052
0.547052
0.957024
0.880735
0.814623
0.758677
0.712362
0.674755
0.644729
0.621102
0.602746
0.588642
0.577914
0.569827
0.563778
0.559289
0.555979
0.553554
0.551787
0.550507
0.549583
0.548919
0.548443
0.548102
0.547859
0.547685
0.54756
0.54747
0.547404
0.547356
0.547319
0.547291
0.547269
0.547252
0.547237
0.547224
0.547213
0.547203
0.547194
0.547186
0.547179
0.547171
0.547165
0.547158
0.547152
0.547147
0.547141
0.547136
0.547131
0.547127
0.547122
0.547118
0.547114
0.547111
0.547107
0.547104
0.547101
0.547098
0.547095
0.547093
0.54709
0.547088
0.547086
0.547084
0.547082
0.54708
0.547078
0.547077
0.547075
0.547074
0.547072
0.547071
0.54707
0.547069
0.547068
0.547067
0.547066
0.547065
0.547064
0.547063
0.547063
0.547062
0.547061
0.547061
0.54706
0.547059
0.547059
0.547058
0.547058
0.547057
0.547057
0.547056
0.547056
0.547055
0.547055
0.547054
0.547053
0.547053
0.547052
0.547052
0.547052
0.547051
0.957025
0.880736
0.814622
0.758674
0.712357
0.67475
0.644724
0.621099
0.602744
0.588642
0.577915
0.569827
0.563779
0.559289
0.555978
0.553552
0.551784
0.550503
0.549578
0.548913
0.548437
0.548096
0.547853
0.547679
0.547554
0.547464
0.547399
0.547351
0.547314
0.547287
0.547265
0.547248
0.547233
0.547221
0.54721
0.547201
0.547192
0.547184
0.547176
0.547169
0.547163
0.547157
0.547151
0.547145
0.54714
0.547135
0.54713
0.547126
0.547122
0.547117
0.547114
0.54711
0.547107
0.547103
0.5471
0.547097
0.547095
0.547092
0.54709
0.547087
0.547085
0.547083
0.547081
0.547079
0.547078
0.547076
0.547075
0.547073
0.547072
0.547071
0.547069
0.547068
0.547067
0.547066
0.547065
0.547065
0.547064
0.547063
0.547062
0.547062
0.547061
0.54706
0.54706
0.547059
0.547059
0.547058
0.547057
0.547057
0.547056
0.547056
0.547055
0.547055
0.547054
0.547054
0.547053
0.547053
0.547052
0.547052
0.547051
0.547051
0.957027
0.880737
0.814621
0.758671
0.712352
0.674745
0.64472
0.621096
0.602742
0.588642
0.577915
0.569828
0.563779
0.559288
0.555977
0.55355
0.551781
0.550499
0.549574
0.548909
0.548432
0.548091
0.547848
0.547674
0.547549
0.547459
0.547394
0.547346
0.54731
0.547283
0.547261
0.547244
0.54723
0.547218
0.547207
0.547198
0.54719
0.547182
0.547174
0.547168
0.547161
0.547155
0.547149
0.547144
0.547139
0.547134
0.547129
0.547125
0.547121
0.547117
0.547113
0.547109
0.547106
0.547103
0.5471
0.547097
0.547094
0.547092
0.547089
0.547087
0.547085
0.547083
0.547081
0.547079
0.547077
0.547076
0.547074
0.547073
0.547072
0.54707
0.547069
0.547068
0.547067
0.547066
0.547065
0.547064
0.547063
0.547063
0.547062
0.547061
0.547061
0.54706
0.547059
0.547059
0.547058
0.547058
0.547057
0.547057
0.547056
0.547056
0.547055
0.547055
0.547054
0.547053
0.547053
0.547052
0.547052
0.547052
0.547051
0.547051
0.957028
0.880738
0.81462
0.758668
0.712348
0.67474
0.644716
0.621093
0.602741
0.588641
0.577915
0.569828
0.563779
0.559288
0.555976
0.553548
0.551779
0.550496
0.54957
0.548904
0.548427
0.548086
0.547843
0.547669
0.547544
0.547454
0.547389
0.547342
0.547306
0.547279
0.547258
0.547241
0.547227
0.547215
0.547205
0.547196
0.547187
0.54718
0.547173
0.547166
0.54716
0.547154
0.547148
0.547143
0.547138
0.547133
0.547128
0.547124
0.54712
0.547116
0.547112
0.547109
0.547105
0.547102
0.547099
0.547096
0.547094
0.547091
0.547089
0.547086
0.547084
0.547082
0.54708
0.547079
0.547077
0.547075
0.547074
0.547072
0.547071
0.54707
0.547069
0.547068
0.547067
0.547066
0.547065
0.547064
0.547063
0.547062
0.547062
0.547061
0.54706
0.54706
0.547059
0.547058
0.547058
0.547057
0.547057
0.547056
0.547056
0.547055
0.547055
0.547054
0.547054
0.547053
0.547053
0.547052
0.547052
0.547051