/*--------------------------------*- C++ -*----------------------------------*\
  =========                 |
  \\      /  F ield         | OpenFOAM: The Open Source CFD Toolbox
   \\    /   O peration     | Website:  https://openfoam.org
    \\  /    A nd           | Version:  11
     \\/     M anipulation  |
\*---------------------------------------------------------------------------*/
FoamFile
{
    format      ascii;
    class       volVectorField;
    location    "10";
    object      U;
}
// * * * * * * * * * * * * * * * * * * * * * * * * * * * * * * * * * * * * * //

dimensions      [0 1 -1 0 0 0 0];

internalField   nonuniform List<vector> 
10000
(
(0.00386978 -0.000850782 0)
(0.00456968 -0.00187447 0)
(0.00435309 -0.00252038 0)
(0.00416432 -0.00309376 0)
(0.00410251 -0.00372756 0)
(0.00400389 -0.00434777 0)
(0.00387441 -0.00489529 0)
(0.00371623 -0.00534452 0)
(0.0035422 -0.00569069 0)
(0.00333264 -0.00593929 0)
(0.0031107 -0.00608667 0)
(0.00290259 -0.00614963 0)
(0.00271522 -0.00614926 0)
(0.00253054 -0.00609855 0)
(0.00235564 -0.0060076 0)
(0.00219154 -0.00588564 0)
(0.00203851 -0.00574113 0)
(0.00189667 -0.00558101 0)
(0.00176571 -0.00541089 0)
(0.00164517 -0.00523518 0)
(0.00153443 -0.0050573 0)
(0.00143284 -0.00487979 0)
(0.00133972 -0.00470458 0)
(0.0012544 -0.004533 0)
(0.00117624 -0.00436601 0)
(0.00110461 -0.00420423 0)
(0.00103893 -0.00404801 0)
(0.00097866 -0.00389755 0)
(0.000923296 -0.00375288 0)
(0.000872375 -0.00361396 0)
(0.000825478 -0.00348067 0)
(0.000782219 -0.00335283 0)
(0.000742252 -0.00323025 0)
(0.000705263 -0.0031127 0)
(0.00067097 -0.00299996 0)
(0.00063912 -0.0028918 0)
(0.000609486 -0.002788 0)
(0.000581864 -0.00268833 0)
(0.000556074 -0.00259259 0)
(0.000531953 -0.00250057 0)
(0.000509355 -0.00241208 0)
(0.00048815 -0.00232694 0)
(0.000468223 -0.00224498 0)
(0.000449469 -0.00216604 0)
(0.000431795 -0.00208996 0)
(0.000415117 -0.0020166 0)
(0.000399359 -0.00194583 0)
(0.000384455 -0.00187753 0)
(0.000370342 -0.00181157 0)
(0.000356965 -0.00174784 0)
(0.000344275 -0.00168624 0)
(0.000332225 -0.00162666 0)
(0.000320775 -0.00156903 0)
(0.000309887 -0.00151324 0)
(0.000299527 -0.00145922 0)
(0.000289663 -0.00140688 0)
(0.000280267 -0.00135615 0)
(0.000271313 -0.00130696 0)
(0.000262776 -0.00125924 0)
(0.000254635 -0.00121293 0)
(0.000246869 -0.00116797 0)
(0.00023946 -0.0011243 0)
(0.000232389 -0.00108185 0)
(0.000225641 -0.00104059 0)
(0.000219201 -0.00100045 0)
(0.000213056 -0.000961393 0)
(0.000207191 -0.000923364 0)
(0.000201597 -0.000886321 0)
(0.00019626 -0.00085022 0)
(0.000191172 -0.000815019 0)
(0.000186323 -0.000780677 0)
(0.000181703 -0.000747157 0)
(0.000177304 -0.000714421 0)
(0.000173119 -0.000682434 0)
(0.00016914 -0.00065116 0)
(0.00016536 -0.000620569 0)
(0.000161774 -0.00059063 0)
(0.000158375 -0.000561315 0)
(0.000155157 -0.000532598 0)
(0.000152116 -0.000504457 0)
(0.000149246 -0.000476873 0)
(0.000146544 -0.000449832 0)
(0.000144005 -0.000423327 0)
(0.000141626 -0.000397356 0)
(0.000139403 -0.00037193 0)
(0.000137334 -0.000347069 0)
(0.000135414 -0.000322808 0)
(0.000133641 -0.000299202 0)
(0.00013201 -0.000276324 0)
(0.000130515 -0.000254273 0)
(0.000129147 -0.000233172 0)
(0.000127897 -0.000213168 0)
(0.000126755 -0.000194443 0)
(0.000125713 -0.000177164 0)
(0.000124782 -0.000161518 0)
(0.000123992 -0.000147763 0)
(0.000123379 -0.000136191 0)
(0.000122947 -0.000127027 0)
(0.000122615 -0.000120704 0)
(0.000122441 -0.000117478 0)
(0.00472403 -0.000600496 0)
(0.00477991 -0.00168776 0)
(0.00447635 -0.00229182 0)
(0.00430064 -0.00293443 0)
(0.0041869 -0.00358963 0)
(0.00405669 -0.00419294 0)
(0.0039051 -0.00471425 0)
(0.00373192 -0.00513918 0)
(0.00354264 -0.00546414 0)
(0.00333778 -0.00569208 0)
(0.0031367 -0.00584165 0)
(0.00293144 -0.00592055 0)
(0.0027376 -0.00593282 0)
(0.00255236 -0.00589349 0)
(0.00237774 -0.00581431 0)
(0.00221406 -0.00570485 0)
(0.00206148 -0.00557301 0)
(0.00191993 -0.00542535 0)
(0.0017891 -0.00526724 0)
(0.00166852 -0.00510291 0)
(0.0015576 -0.00493568 0)
(0.00145571 -0.00476808 0)
(0.0013622 -0.00460201 0)
(0.00127642 -0.00443885 0)
(0.00119773 -0.00427956 0)
(0.00112553 -0.00412479 0)
(0.00105925 -0.00397497 0)
(0.000998356 -0.00383031 0)
(0.000942355 -0.00369092 0)
(0.000890792 -0.00355678 0)
(0.000843253 -0.00342781 0)
(0.000799358 -0.00330389 0)
(0.000758764 -0.00318486 0)
(0.000721162 -0.00307053 0)
(0.000686272 -0.00296071 0)
(0.000653843 -0.0028552 0)
(0.00062365 -0.00275381 0)
(0.000595489 -0.00265634 0)
(0.000569181 -0.0025626 0)
(0.000544562 -0.00247241 0)
(0.000521487 -0.0023856 0)
(0.000499827 -0.002302 0)
(0.000479464 -0.00222145 0)
(0.000460293 -0.00214381 0)
(0.000442222 -0.00206894 0)
(0.000425165 -0.0019967 0)
(0.000409045 -0.00192696 0)
(0.000393796 -0.00185962 0)
(0.000379353 -0.00179455 0)
(0.000365663 -0.00173166 0)
(0.000352673 -0.00167084 0)
(0.000340337 -0.001612 0)
(0.000328614 -0.00155506 0)
(0.000317466 -0.00149991 0)
(0.000306857 -0.0014465 0)
(0.000296756 -0.00139474 0)
(0.000287134 -0.00134456 0)
(0.000277964 -0.00129589 0)
(0.000269221 -0.00124866 0)
(0.000260883 -0.00120282 0)
(0.000252928 -0.0011583 0)
(0.000245339 -0.00111505 0)
(0.000238096 -0.00107301 0)
(0.000231184 -0.00103213 0)
(0.000224588 -0.000992365 0)
(0.000218293 -0.000953661 0)
(0.000212286 -0.000915973 0)
(0.000206554 -0.000879258 0)
(0.000201088 -0.000843472 0)
(0.000195876 -0.000808575 0)
(0.000190908 -0.000774528 0)
(0.000186176 -0.000741291 0)
(0.00018167 -0.000708829 0)
(0.000177383 -0.000677107 0)
(0.000173307 -0.000646091 0)
(0.000169435 -0.00061575 0)
(0.000165762 -0.000586054 0)
(0.00016228 -0.000556975 0)
(0.000158984 -0.000528487 0)
(0.000155869 -0.00050057 0)
(0.00015293 -0.000473205 0)
(0.000150163 -0.000446378 0)
(0.000147563 -0.000420082 0)
(0.000145126 -0.000394317 0)
(0.000142849 -0.000369092 0)
(0.000140728 -0.000344428 0)
(0.00013876 -0.000320361 0)
(0.000136942 -0.000296944 0)
(0.000135268 -0.000274248 0)
(0.000133734 -0.000252372 0)
(0.000132332 -0.000231435 0)
(0.000131055 -0.000211586 0)
(0.000129894 -0.000192999 0)
(0.000128844 -0.000175862 0)
(0.000127917 -0.000160397 0)
(0.000127129 -0.000146853 0)
(0.000126499 -0.000135482 0)
(0.000126015 -0.000126513 0)
(0.00012557 -0.000120234 0)
(0.000125275 -0.000117031 0)
(0.00488725 -0.000436625 0)
(0.00483462 -0.00136753 0)
(0.00461793 -0.0021101 0)
(0.00445326 -0.00279815 0)
(0.00430451 -0.00344892 0)
(0.0041419 -0.00403152 0)
(0.00396466 -0.00453017 0)
(0.00377441 -0.00493676 0)
(0.00357559 -0.00525039 0)
(0.00337226 -0.00547677 0)
(0.00317006 -0.00562566 0)
(0.00296986 -0.00570633 0)
(0.00277677 -0.00572729 0)
(0.00259255 -0.00569868 0)
(0.00241871 -0.00563109 0)
(0.00225573 -0.00553357 0)
(0.00210367 -0.00541369 0)
(0.00196242 -0.00527776 0)
(0.00183163 -0.00513092 0)
(0.00171086 -0.0049773 0)
(0.00159954 -0.00482013 0)
(0.00149709 -0.00466191 0)
(0.00140287 -0.00450453 0)
(0.00131626 -0.00434935 0)
(0.00123665 -0.00419739 0)
(0.00116347 -0.00404933 0)
(0.00109614 -0.00390562 0)
(0.00103417 -0.00376652 0)
(0.000977073 -0.00363218 0)
(0.000924398 -0.00350262 0)
(0.000875746 -0.00337782 0)
(0.000830746 -0.00325766 0)
(0.000789061 -0.00314205 0)
(0.000750389 -0.00303082 0)
(0.000714454 -0.00292381 0)
(0.000681008 -0.00282086 0)
(0.000649829 -0.00272179 0)
(0.000620715 -0.00262644 0)
(0.000593488 -0.00253464 0)
(0.000567984 -0.00244621 0)
(0.000544059 -0.00236102 0)
(0.000521583 -0.0022789 0)
(0.000500438 -0.00219972 0)
(0.000480518 -0.00212333 0)
(0.000461729 -0.00204962 0)
(0.000443986 -0.00197844 0)
(0.00042721 -0.0019097 0)
(0.000411332 -0.00184328 0)
(0.00039629 -0.00177907 0)
(0.000382026 -0.00171697 0)
(0.000368487 -0.0016569 0)
(0.000355627 -0.00159875 0)
(0.000343403 -0.00154246 0)
(0.000331776 -0.00148793 0)
(0.000320709 -0.00143509 0)
(0.00031017 -0.00138388 0)
(0.000300128 -0.00133421 0)
(0.000290557 -0.00128602 0)
(0.000281431 -0.00123925 0)
(0.000272727 -0.00119384 0)
(0.000264422 -0.00114974 0)
(0.000256497 -0.00110688 0)
(0.000248934 -0.00106521 0)
(0.000241716 -0.00102469 0)
(0.000234827 -0.000985263 0)
(0.000228252 -0.000946884 0)
(0.000221977 -0.000909507 0)
(0.000215991 -0.00087309 0)
(0.00021028 -0.00083759 0)
(0.000204835 -0.000802968 0)
(0.000199646 -0.000769184 0)
(0.000194701 -0.000736202 0)
(0.000189994 -0.000703986 0)
(0.000185515 -0.000672501 0)
(0.000181256 -0.000641714 0)
(0.000177212 -0.000611594 0)
(0.000173374 -0.000582113 0)
(0.000169736 -0.000553242 0)
(0.000166293 -0.000524957 0)
(0.000163039 -0.000497236 0)
(0.000159969 -0.000470063 0)
(0.000157078 -0.000443422 0)
(0.000154361 -0.000417308 0)
(0.000151815 -0.000391721 0)
(0.000149436 -0.00036667 0)
(0.000147219 -0.000342176 0)
(0.000145161 -0.000318275 0)
(0.000143258 -0.00029502 0)
(0.000141506 -0.000272481 0)
(0.000139899 -0.000250755 0)
(0.000138432 -0.000229962 0)
(0.000137101 -0.00021025 0)
(0.000135901 -0.000191794 0)
(0.000134829 -0.000174793 0)
(0.000133887 -0.000159473 0)
(0.000133077 -0.000146083 0)
(0.000132401 -0.000134871 0)
(0.000131814 -0.000126038 0)
(0.000131254 -0.000119812 0)
(0.000130835 -0.00011659 0)
(0.00493154 -0.000364973 0)
(0.00487173 -0.00120823 0)
(0.00471493 -0.00195266 0)
(0.00455866 -0.00264639 0)
(0.00439795 -0.00328742 0)
(0.00422116 -0.00385733 0)
(0.00403207 -0.00434389 0)
(0.0038338 -0.00474147 0)
(0.00363042 -0.00505033 0)
(0.00342591 -0.00527619 0)
(0.00322369 -0.00542751 0)
(0.00302547 -0.00551297 0)
(0.00283388 -0.00554148 0)
(0.00265097 -0.00552238 0)
(0.00247804 -0.00546515 0)
(0.00231561 -0.00537829 0)
(0.00216383 -0.00526907 0)
(0.00202256 -0.00514357 0)
(0.00189149 -0.00500679 0)
(0.00177019 -0.00486273 0)
(0.00165812 -0.00471456 0)
(0.00155473 -0.00456475 0)
(0.00145941 -0.00441516 0)
(0.00137158 -0.00426719 0)
(0.00129064 -0.00412185 0)
(0.00121605 -0.00397986 0)
(0.00114726 -0.00384169 0)
(0.00108379 -0.00370765 0)
(0.00102517 -0.0035779 0)
(0.000970964 -0.00345253 0)
(0.000920786 -0.00333153 0)
(0.000874276 -0.00321483 0)
(0.000831105 -0.00310236 0)
(0.000790975 -0.00299399 0)
(0.000753618 -0.00288958 0)
(0.00071879 -0.00278899 0)
(0.00068627 -0.00269208 0)
(0.000655859 -0.0025987 0)
(0.00062738 -0.00250869 0)
(0.000600671 -0.00242192 0)
(0.000575586 -0.00233823 0)
(0.000551995 -0.0022575 0)
(0.00052978 -0.00217959 0)
(0.000508833 -0.00210438 0)
(0.00048906 -0.00203175 0)
(0.000470374 -0.00196158 0)
(0.000452695 -0.00189376 0)
(0.000435952 -0.0018282 0)
(0.000420081 -0.00176479 0)
(0.000405024 -0.00170345 0)
(0.000390726 -0.00164407 0)
(0.000377139 -0.00158658 0)
(0.00036422 -0.0015309 0)
(0.000351926 -0.00147694 0)
(0.000340222 -0.00142464 0)
(0.000329072 -0.00137393 0)
(0.000318447 -0.00132474 0)
(0.000308317 -0.001277 0)
(0.000298655 -0.00123066 0)
(0.000289438 -0.00118566 0)
(0.000280643 -0.00114193 0)
(0.000272249 -0.00109944 0)
(0.000264236 -0.00105812 0)
(0.000256588 -0.00101793 0)
(0.000249288 -0.000978816 0)
(0.000242319 -0.000940736 0)
(0.000235669 -0.000903646 0)
(0.000229323 -0.000867504 0)
(0.000223269 -0.000832267 0)
(0.000217496 -0.000797897 0)
(0.000211994 -0.000764357 0)
(0.000206751 -0.000731608 0)
(0.000201759 -0.000699616 0)
(0.000197009 -0.000668348 0)
(0.000192493 -0.000637771 0)
(0.000188203 -0.000607853 0)
(0.000184133 -0.000578567 0)
(0.000180275 -0.000549886 0)
(0.000176623 -0.000521785 0)
(0.000173172 -0.000494243 0)
(0.000169916 -0.000467243 0)
(0.00016685 -0.000440771 0)
(0.000163969 -0.000414822 0)
(0.00016127 -0.000389395 0)
(0.000158746 -0.0003645 0)
(0.000156394 -0.000340159 0)
(0.000154211 -0.000316406 0)
(0.000152191 -0.000293295 0)
(0.00015033 -0.000270896 0)
(0.000148624 -0.000249306 0)
(0.000147069 -0.000228644 0)
(0.000145659 -0.000209058 0)
(0.000144391 -0.000190725 0)
(0.000143262 -0.000173846 0)
(0.000142266 -0.000158646 0)
(0.000141394 -0.00014537 0)
(0.000140647 -0.000134255 0)
(0.00013995 -0.00012549 0)
(0.000139298 -0.00011928 0)
(0.000138846 -0.000116043 0)
(0.00494617 -0.000318589 0)
(0.00490453 -0.0010745 0)
(0.00477686 -0.00180516 0)
(0.00463066 -0.00248877 0)
(0.00447054 -0.00311653 0)
(0.00429221 -0.00367381 0)
(0.00410123 -0.00415047 0)
(0.00390174 -0.00454179 0)
(0.00369805 -0.00484835 0)
(0.00349399 -0.00507506 0)
(0.00329255 -0.00522961 0)
(0.00309582 -0.00532049 0)
(0.00290583 -0.00535639 0)
(0.00272425 -0.00534628 0)
(0.00255221 -0.00529894 0)
(0.00239027 -0.00522235 0)
(0.0022386 -0.00512344 0)
(0.00209711 -0.00500805 0)
(0.00196553 -0.00488104 0)
(0.00184343 -0.00474629 0)
(0.00173034 -0.00460691 0)
(0.00162572 -0.00446533 0)
(0.00152901 -0.0043234 0)
(0.00143964 -0.00418251 0)
(0.00135706 -0.00404371 0)
(0.00128074 -0.00390772 0)
(0.00121017 -0.00377505 0)
(0.00114487 -0.00364605 0)
(0.0010844 -0.00352091 0)
(0.00102835 -0.00339974 0)
(0.000976331 -0.00328257 0)
(0.000927999 -0.00316937 0)
(0.000883036 -0.00306008 0)
(0.00084115 -0.00295462 0)
(0.000802079 -0.00285287 0)
(0.000765582 -0.00275472 0)
(0.000731443 -0.00266003 0)
(0.000699465 -0.00256868 0)
(0.000669472 -0.00248054 0)
(0.000641301 -0.00239548 0)
(0.000614809 -0.00231337 0)
(0.000589863 -0.00223409 0)
(0.000566345 -0.00215752 0)
(0.000544147 -0.00208355 0)
(0.000523173 -0.00201206 0)
(0.000503333 -0.00194296 0)
(0.000484548 -0.00187613 0)
(0.000466744 -0.00181149 0)
(0.000449856 -0.00174894 0)
(0.000433823 -0.0016884 0)
(0.00041859 -0.00162977 0)
(0.000404108 -0.00157298 0)
(0.000390329 -0.00151796 0)
(0.000377212 -0.00146462 0)
(0.000364719 -0.00141291 0)
(0.000352814 -0.00136275 0)
(0.000341464 -0.00131408 0)
(0.00033064 -0.00126684 0)
(0.000320313 -0.00122096 0)
(0.000310458 -0.0011764 0)
(0.000301053 -0.0011331 0)
(0.000292074 -0.00109101 0)
(0.000283502 -0.00105007 0)
(0.000275317 -0.00101024 0)
(0.000267503 -0.000971479 0)
(0.000260043 -0.000933733 0)
(0.000252923 -0.000896962 0)
(0.000246127 -0.000861126 0)
(0.000239644 -0.000826183 0)
(0.000233461 -0.000792097 0)
(0.000227566 -0.000758828 0)
(0.000221949 -0.000726342 0)
(0.000216601 -0.000694603 0)
(0.000211511 -0.000663579 0)
(0.000206672 -0.000633238 0)
(0.000202074 -0.00060355 0)
(0.000197712 -0.000574486 0)
(0.000193577 -0.00054602 0)
(0.000189663 -0.000518128 0)
(0.000185965 -0.00049079 0)
(0.000182475 -0.000463988 0)
(0.000179189 -0.00043771 0)
(0.000176101 -0.000411948 0)
(0.000173208 -0.000386705 0)
(0.000170503 -0.00036199 0)
(0.000167982 -0.000337823 0)
(0.000165642 -0.000314242 0)
(0.000163476 -0.000291296 0)
(0.000161481 -0.000269059 0)
(0.000159652 -0.000247625 0)
(0.000157984 -0.000227115 0)
(0.000156472 -0.000207676 0)
(0.000155111 -0.000189485 0)
(0.000153896 -0.000172744 0)
(0.000152815 -0.000157676 0)
(0.000151855 -0.000144522 0)
(0.000151016 -0.000133512 0)
(0.000150205 -0.000124834 0)
(0.000149466 -0.000118679 0)
(0.000148957 -0.000115462 0)
(0.00496757 -0.00027536 0)
(0.00492988 -0.000972435 0)
(0.00482203 -0.00167656 0)
(0.00468652 -0.00233878 0)
(0.00453169 -0.00294746 0)
(0.00435738 -0.00348961 0)
(0.00416959 -0.00395567 0)
(0.00397295 -0.00434089 0)
(0.00377187 -0.00464545 0)
(0.00357017 -0.00487349 0)
(0.00337086 -0.0050318 0)
(0.00317623 -0.00512838 0)
(0.00298815 -0.00517171 0)
(0.0028081 -0.00517037 0)
(0.00263711 -0.00513261 0)
(0.00247575 -0.00506597 0)
(0.00232422 -0.00497707 0)
(0.00218248 -0.00487154 0)
(0.0020503 -0.00475406 0)
(0.0019273 -0.00462841 0)
(0.00181305 -0.00449764 0)
(0.00170705 -0.00436414 0)
(0.00160876 -0.00422975 0)
(0.00151767 -0.00409586 0)
(0.00143325 -0.00396353 0)
(0.00135501 -0.0038335 0)
(0.00128244 -0.00370631 0)
(0.00121511 -0.00358234 0)
(0.00115258 -0.00346181 0)
(0.00109446 -0.00334486 0)
(0.00104038 -0.00323155 0)
(0.000990015 -0.00312189 0)
(0.000943044 -0.00301584 0)
(0.00089919 -0.00291334 0)
(0.000858193 -0.0028143 0)
(0.000819821 -0.00271864 0)
(0.000783859 -0.00262623 0)
(0.000750113 -0.00253698 0)
(0.000718408 -0.00245077 0)
(0.000688583 -0.00236748 0)
(0.000660495 -0.00228701 0)
(0.00063401 -0.00220924 0)
(0.00060901 -0.00213407 0)
(0.000585386 -0.0020614 0)
(0.00056304 -0.00199111 0)
(0.000541882 -0.00192312 0)
(0.00052183 -0.00185734 0)
(0.000502809 -0.00179367 0)
(0.000484753 -0.00173202 0)
(0.000467598 -0.00167232 0)
(0.000451289 -0.00161449 0)
(0.000435773 -0.00155845 0)
(0.000421002 -0.00150413 0)
(0.000406934 -0.00145145 0)
(0.000393528 -0.00140036 0)
(0.000380747 -0.00135079 0)
(0.000368557 -0.00130267 0)
(0.000356926 -0.00125595 0)
(0.000345827 -0.00121058 0)
(0.000335231 -0.00116649 0)
(0.000325115 -0.00112364 0)
(0.000315455 -0.00108197 0)
(0.000306229 -0.00104145 0)
(0.000297419 -0.00100201 0)
(0.000289006 -0.000963617 0)
(0.000280972 -0.000926228 0)
(0.000273302 -0.000889799 0)
(0.000265981 -0.000854291 0)
(0.000258995 -0.000819664 0)
(0.000252331 -0.00078588 0)
(0.000245977 -0.000752903 0)
(0.000239922 -0.000720698 0)
(0.000234156 -0.000689231 0)
(0.000228667 -0.000658469 0)
(0.000223449 -0.000628381 0)
(0.000218491 -0.000598939 0)
(0.000213785 -0.000570113 0)
(0.000209325 -0.000541878 0)
(0.000205103 -0.000514211 0)
(0.000201113 -0.000487091 0)
(0.000197348 -0.000460501 0)
(0.000193804 -0.00043443 0)
(0.000190473 -0.000408871 0)
(0.000187351 -0.000383824 0)
(0.000184433 -0.000359301 0)
(0.000181713 -0.000335322 0)
(0.000179188 -0.000311923 0)
(0.000176851 -0.000289156 0)
(0.000174699 -0.000267091 0)
(0.000172724 -0.000245825 0)
(0.000170922 -0.000225477 0)
(0.000169287 -0.000206195 0)
(0.000167814 -0.000188153 0)
(0.000166493 -0.000171553 0)
(0.00016531 -0.000156616 0)
(0.000164246 -0.000143579 0)
(0.000163306 -0.00013267 0)
(0.00016238 -0.000124078 0)
(0.000161544 -0.000117998 0)
(0.000160962 -0.00011483 0)
(0.00498174 -0.000246045 0)
(0.00494871 -0.000890917 0)
(0.00485628 -0.0015614 0)
(0.00473146 -0.0021975 0)
(0.00458432 -0.00278466 0)
(0.0044169 -0.00331033 0)
(0.0042352 -0.0037649 0)
(0.00404397 -0.00414336 0)
(0.00384759 -0.00444531 0)
(0.00364991 -0.00467415 0)
(0.00345402 -0.00483587 0)
(0.00326233 -0.00493792 0)
(0.00307671 -0.00498837 0)
(0.00289859 -0.00499535 0)
(0.00272895 -0.00496669 0)
(0.00256839 -0.00490955 0)
(0.00241716 -0.00483026 0)
(0.00227527 -0.00473422 0)
(0.00214254 -0.00462594 0)
(0.00201867 -0.00450912 0)
(0.00190324 -0.00438672 0)
(0.00179581 -0.00426111 0)
(0.00169591 -0.00413409 0)
(0.00160303 -0.00400707 0)
(0.00151669 -0.0038811 0)
(0.00143641 -0.00375696 0)
(0.00136175 -0.00363521 0)
(0.00129227 -0.00351625 0)
(0.00122756 -0.00340032 0)
(0.00116726 -0.0032876 0)
(0.001111 -0.00317818 0)
(0.00105846 -0.00307209 0)
(0.00100936 -0.00296932 0)
(0.000963398 -0.00286983 0)
(0.000920342 -0.00277356 0)
(0.000879958 -0.00268044 0)
(0.000842036 -0.00259037 0)
(0.000806386 -0.00250328 0)
(0.000772834 -0.00241906 0)
(0.000741221 -0.00233761 0)
(0.000711403 -0.00225884 0)
(0.000683248 -0.00218265 0)
(0.000656636 -0.00210894 0)
(0.000631459 -0.00203762 0)
(0.000607615 -0.0019686 0)
(0.000585016 -0.00190179 0)
(0.000563576 -0.0018371 0)
(0.000543221 -0.00177446 0)
(0.000523881 -0.00171377 0)
(0.000505493 -0.00165497 0)
(0.000487997 -0.00159798 0)
(0.000471341 -0.00154273 0)
(0.000455476 -0.00148916 0)
(0.000440356 -0.00143719 0)
(0.000425939 -0.00138676 0)
(0.000412187 -0.00133781 0)
(0.000399065 -0.00129029 0)
(0.00038654 -0.00124414 0)
(0.000374582 -0.0011993 0)
(0.000363162 -0.00115572 0)
(0.000352254 -0.00111336 0)
(0.000341835 -0.00107215 0)
(0.000331882 -0.00103206 0)
(0.000322374 -0.000993048 0)
(0.000313292 -0.000955059 0)
(0.000304617 -0.000918055 0)
(0.000296333 -0.000881996 0)
(0.000288424 -0.000846843 0)
(0.000280875 -0.000812557 0)
(0.000273673 -0.000779102 0)
(0.000266805 -0.000746441 0)
(0.000260259 -0.000714541 0)
(0.000254023 -0.000683369 0)
(0.000248088 -0.000652892 0)
(0.000242443 -0.00062308 0)
(0.00023708 -0.000593905 0)
(0.00023199 -0.000565338 0)
(0.000227164 -0.000537355 0)
(0.000222596 -0.000509932 0)
(0.000218279 -0.00048305 0)
(0.000214205 -0.000456693 0)
(0.000210369 -0.000430848 0)
(0.000206764 -0.000405509 0)
(0.000203385 -0.000380677 0)
(0.000200227 -0.000356364 0)
(0.000197284 -0.00033259 0)
(0.00019455 -0.00030939 0)
(0.00019202 -0.000286816 0)
(0.000189689 -0.000264941 0)
(0.00018755 -0.000243857 0)
(0.000185597 -0.000223685 0)
(0.000183823 -0.000204571 0)
(0.000182221 -0.000186689 0)
(0.00018078 -0.000170238 0)
(0.000179483 -0.000155438 0)
(0.000178309 -0.000142522 0)
(0.000177263 -0.000131716 0)
(0.000176224 -0.000123215 0)
(0.000175284 -0.000117221 0)
(0.000174624 -0.000114111 0)
(0.00499102 -0.000225997 0)
(0.00496195 -0.000824289 0)
(0.00488202 -0.00145864 0)
(0.0047678 -0.00206632 0)
(0.00462958 -0.00263073 0)
(0.00447065 -0.00313897 0)
(0.00429676 -0.00358121 0)
(0.00411255 -0.00395202 0)
(0.00392234 -0.00425046 0)
(0.00372995 -0.00447922 0)
(0.00353854 -0.00464362 0)
(0.0033506 -0.0047505 0)
(0.00316805 -0.00480743 0)
(0.00299232 -0.00482211 0)
(0.00282442 -0.00480196 0)
(0.00266497 -0.00475377 0)
(0.0025143 -0.00468358 0)
(0.00237246 -0.00459658 0)
(0.00223935 -0.00449712 0)
(0.00211471 -0.00438879 0)
(0.0019982 -0.00427449 0)
(0.00188942 -0.00415652 0)
(0.00178794 -0.00403668 0)
(0.00169329 -0.00391638 0)
(0.00160504 -0.00379666 0)
(0.00152274 -0.00367832 0)
(0.00144597 -0.00356193 0)
(0.00137432 -0.00344793 0)
(0.00130741 -0.00333658 0)
(0.00124487 -0.00322809 0)
(0.00118638 -0.00312256 0)
(0.00113163 -0.00302005 0)
(0.00108032 -0.00292059 0)
(0.0010322 -0.00282415 0)
(0.00098701 -0.00273069 0)
(0.000944541 -0.00264016 0)
(0.000904584 -0.0025525 0)
(0.000866951 -0.00246762 0)
(0.000831471 -0.00238545 0)
(0.000797987 -0.0023059 0)
(0.000766355 -0.0022289 0)
(0.000736445 -0.00215434 0)
(0.000708137 -0.00208215 0)
(0.00068132 -0.00201225 0)
(0.000655895 -0.00194455 0)
(0.000631769 -0.00187897 0)
(0.000608858 -0.00181543 0)
(0.000587086 -0.00175386 0)
(0.000566381 -0.00169419 0)
(0.000546678 -0.00163634 0)
(0.000527917 -0.00158024 0)
(0.000510044 -0.00152583 0)
(0.000493007 -0.00147305 0)
(0.00047676 -0.00142182 0)
(0.00046126 -0.0013721 0)
(0.000446467 -0.00132383 0)
(0.000432344 -0.00127694 0)
(0.000418856 -0.00123139 0)
(0.000405973 -0.00118712 0)
(0.000393665 -0.00114409 0)
(0.000381905 -0.00110224 0)
(0.000370667 -0.00106153 0)
(0.000359928 -0.00102192 0)
(0.000349665 -0.000983355 0)
(0.00033986 -0.000945799 0)
(0.000330491 -0.00090921 0)
(0.000321542 -0.00087355 0)
(0.000312996 -0.000838779 0)
(0.000304838 -0.000804861 0)
(0.000297052 -0.000771759 0)
(0.000289626 -0.00073944 0)
(0.000282546 -0.00070787 0)
(0.000275802 -0.000677016 0)
(0.000269381 -0.000646847 0)
(0.000263274 -0.000617333 0)
(0.00025747 -0.000588446 0)
(0.000251961 -0.00056016 0)
(0.000246738 -0.000532449 0)
(0.000241793 -0.000505292 0)
(0.000237119 -0.000478668 0)
(0.000232709 -0.000452561 0)
(0.000228555 -0.000426961 0)
(0.000224652 -0.000401861 0)
(0.000220993 -0.000377262 0)
(0.000217573 -0.000353176 0)
(0.000214385 -0.000329624 0)
(0.000211424 -0.00030664 0)
(0.000208683 -0.000284277 0)
(0.000206157 -0.000262605 0)
(0.000203838 -0.000241718 0)
(0.000201719 -0.000221736 0)
(0.000199793 -0.000202802 0)
(0.00019805 -0.00018509 0)
(0.000196479 -0.000168798 0)
(0.000195061 -0.000154142 0)
(0.000193769 -0.000141352 0)
(0.000192616 -0.000130655 0)
(0.000191463 -0.000122251 0)
(0.000190409 -0.000116344 0)
(0.000189659 -0.00011329 0)
(0.00499638 -0.00021203 0)
(0.0049708 -0.000768836 0)
(0.00490115 -0.00136679 0)
(0.00479704 -0.00194532 0)
(0.00466824 -0.00248642 0)
(0.00451858 -0.00297666 0)
(0.00435342 -0.00340586 0)
(0.0041772 -0.00376819 0)
(0.00399412 -0.00406218 0)
(0.00380793 -0.00428993 0)
(0.00362182 -0.00445611 0)
(0.00343833 -0.004567 0)
(0.00325941 -0.00462964 0)
(0.00308655 -0.00465129 0)
(0.00292079 -0.00463895 0)
(0.00276281 -0.00459908 0)
(0.002613 -0.00453743 0)
(0.00247148 -0.00445897 0)
(0.00233822 -0.00436791 0)
(0.00221302 -0.0042677 0)
(0.0020956 -0.00416118 0)
(0.00198561 -0.00405059 0)
(0.00188267 -0.00393772 0)
(0.00178637 -0.00382395 0)
(0.0016963 -0.00371033 0)
(0.00161205 -0.00359768 0)
(0.00153323 -0.00348658 0)
(0.00145946 -0.00337748 0)
(0.00139037 -0.00327068 0)
(0.00132564 -0.00316639 0)
(0.00126494 -0.00306475 0)
(0.00120797 -0.00296585 0)
(0.00115446 -0.00286971 0)
(0.00110416 -0.00277635 0)
(0.00105683 -0.00268574 0)
(0.00101226 -0.00259785 0)
(0.000970242 -0.00251263 0)
(0.000930595 -0.00243002 0)
(0.000893153 -0.00234995 0)
(0.00085776 -0.00227236 0)
(0.000824274 -0.00219717 0)
(0.000792565 -0.0021243 0)
(0.000762513 -0.00205369 0)
(0.00073401 -0.00198526 0)
(0.000706953 -0.00191893 0)
(0.00068125 -0.00185464 0)
(0.000656817 -0.00179231 0)
(0.000633575 -0.00173187 0)
(0.000611452 -0.00167326 0)
(0.000590382 -0.00161641 0)
(0.000570304 -0.00156125 0)
(0.000551161 -0.00150773 0)
(0.000532901 -0.00145578 0)
(0.000515477 -0.00140535 0)
(0.000498843 -0.00135638 0)
(0.000482958 -0.00130881 0)
(0.000467785 -0.0012626 0)
(0.000453287 -0.00121769 0)
(0.000439433 -0.00117403 0)
(0.000426191 -0.00113158 0)
(0.000413532 -0.00109029 0)
(0.000401432 -0.00105011 0)
(0.000389864 -0.001011 0)
(0.000378806 -0.000972916 0)
(0.000368236 -0.000935823 0)
(0.000358134 -0.000899679 0)
(0.000348482 -0.000864445 0)
(0.000339263 -0.000830084 0)
(0.000330459 -0.000796561 0)
(0.000322055 -0.00076384 0)
(0.000314038 -0.000731887 0)
(0.000306394 -0.000700671 0)
(0.000299109 -0.000670159 0)
(0.000292174 -0.000640321 0)
(0.000285575 -0.000611129 0)
(0.000279304 -0.000582553 0)
(0.000273351 -0.000554569 0)
(0.000267705 -0.000527152 0)
(0.00026236 -0.00050028 0)
(0.000257307 -0.000473934 0)
(0.000252538 -0.000448098 0)
(0.000248047 -0.000422762 0)
(0.000243826 -0.00039792 0)
(0.000239869 -0.000373573 0)
(0.00023617 -0.000349732 0)
(0.000232722 -0.000326419 0)
(0.000229519 -0.000303668 0)
(0.000226553 -0.000281532 0)
(0.000223819 -0.000260079 0)
(0.000221308 -0.000239404 0)
(0.000219012 -0.000219625 0)
(0.000216923 -0.000200884 0)
(0.00021503 -0.000183354 0)
(0.000213322 -0.000167229 0)
(0.000211774 -0.000152725 0)
(0.000210362 -0.000140068 0)
(0.000209096 -0.000129487 0)
(0.000207825 -0.000121181 0)
(0.00020665 -0.000115359 0)
(0.000205799 -0.000112355 0)
(0.00499943 -0.000201444 0)
(0.00497632 -0.000721798 0)
(0.00491521 -0.00128448 0)
(0.0048205 -0.00183407 0)
(0.00470104 -0.0023518 0)
(0.00456084 -0.00282373 0)
(0.00440478 -0.00323933 0)
(0.00423705 -0.00359243 0)
(0.00406165 -0.00388111 0)
(0.00388225 -0.00410692 0)
(0.00370201 -0.00427396 0)
(0.00352349 -0.00438796 0)
(0.00334869 -0.00445547 0)
(0.00317913 -0.0044833 0)
(0.0030159 -0.00447804 0)
(0.00285976 -0.00444582 0)
(0.00271113 -0.00439211 0)
(0.00257024 -0.00432167 0)
(0.0024371 -0.00423854 0)
(0.00231159 -0.00414606 0)
(0.00219348 -0.00404698 0)
(0.00208249 -0.00394349 0)
(0.00197828 -0.00383734 0)
(0.00188048 -0.00372991 0)
(0.00178874 -0.00362225 0)
(0.00170268 -0.00351516 0)
(0.00162193 -0.00340925 0)
(0.00154614 -0.00330498 0)
(0.00147498 -0.00320268 0)
(0.00140812 -0.00310257 0)
(0.00134527 -0.00300481 0)
(0.00128615 -0.0029095 0)
(0.00123049 -0.00281671 0)
(0.00117806 -0.00272645 0)
(0.00112862 -0.00263872 0)
(0.00108196 -0.0025535 0)
(0.0010379 -0.00247077 0)
(0.000996253 -0.00239047 0)
(0.000956852 -0.00231255 0)
(0.000919549 -0.00223696 0)
(0.000884204 -0.00216364 0)
(0.000850686 -0.00209252 0)
(0.000818878 -0.00202354 0)
(0.000788671 -0.00195663 0)
(0.000759963 -0.00189173 0)
(0.000732663 -0.00182878 0)
(0.000706683 -0.0017677 0)
(0.000681946 -0.00170845 0)
(0.000658379 -0.00165095 0)
(0.000635913 -0.00159514 0)
(0.000614488 -0.00154097 0)
(0.000594045 -0.00148839 0)
(0.000574532 -0.00143732 0)
(0.000555899 -0.00138772 0)
(0.0005381 -0.00133955 0)
(0.000521093 -0.00129273 0)
(0.000504838 -0.00124723 0)
(0.000489299 -0.001203 0)
(0.000474442 -0.00115999 0)
(0.000460236 -0.00111816 0)
(0.00044665 -0.00107745 0)
(0.000433656 -0.00103783 0)
(0.000421231 -0.000999262 0)
(0.000409348 -0.000961697 0)
(0.000397987 -0.000925098 0)
(0.000387125 -0.000889429 0)
(0.000376744 -0.000854651 0)
(0.000366825 -0.000820729 0)
(0.00035735 -0.000787628 0)
(0.000348305 -0.000755314 0)
(0.000339673 -0.000723755 0)
(0.00033144 -0.000692918 0)
(0.000323594 -0.000662774 0)
(0.000316122 -0.000633292 0)
(0.000309012 -0.000604444 0)
(0.000302254 -0.000576203 0)
(0.000295837 -0.000548543 0)
(0.000289751 -0.000521442 0)
(0.000283988 -0.000494877 0)
(0.00027854 -0.00046883 0)
(0.000273397 -0.000443286 0)
(0.000268553 -0.000418235 0)
(0.000264001 -0.00039367 0)
(0.000259732 -0.000369594 0)
(0.000255741 -0.000346017 0)
(0.000252021 -0.000322962 0)
(0.000248564 -0.000300462 0)
(0.000245363 -0.000278569 0)
(0.000242411 -0.000257352 0)
(0.000239698 -0.000236905 0)
(0.000237217 -0.000217343 0)
(0.000234957 -0.000198809 0)
(0.000232909 -0.000181472 0)
(0.000231056 -0.000165526 0)
(0.000229376 -0.000151182 0)
(0.000227838 -0.000138668 0)
(0.000226455 -0.000128207 0)
(0.000225063 -0.000120002 0)
(0.000223764 -0.000114258 0)
(0.000222804 -0.000111298 0)
(0.0050013 -0.000192461 0)
(0.00497989 -0.000680817 0)
(0.00492567 -0.00121039 0)
(0.00483939 -0.00173192 0)
(0.00472882 -0.00222657 0)
(0.00459784 -0.00268009 0)
(0.00445083 -0.0030817 0)
(0.00429169 -0.00342495 0)
(0.0041242 -0.00370752 0)
(0.00395191 -0.00393052 0)
(0.0037779 -0.00409753 0)
(0.00360472 -0.00421376 0)
(0.00343441 -0.00428529 0)
(0.00326851 -0.00431847 0)
(0.00310816 -0.00431954 0)
(0.00295418 -0.00429428 0)
(0.00280707 -0.00424789 0)
(0.00266711 -0.00418492 0)
(0.00253438 -0.00410924 0)
(0.00240882 -0.00402408 0)
(0.00229029 -0.00393208 0)
(0.00217853 -0.00383539 0)
(0.00207327 -0.00373572 0)
(0.00197419 -0.00363441 0)
(0.00188097 -0.00353253 0)
(0.00179326 -0.00343086 0)
(0.00171074 -0.00333004 0)
(0.00163308 -0.00323053 0)
(0.00155997 -0.00313266 0)
(0.00149111 -0.00303668 0)
(0.00142623 -0.00294278 0)
(0.00136505 -0.00285107 0)
(0.00130733 -0.00276161 0)
(0.00125284 -0.00267447 0)
(0.00120135 -0.00258964 0)
(0.00115268 -0.00250713 0)
(0.00110662 -0.00242692 0)
(0.00106301 -0.00234897 0)
(0.00102169 -0.00227325 0)
(0.000982503 -0.00219971 0)
(0.000945321 -0.0021283 0)
(0.000910013 -0.00205897 0)
(0.000876463 -0.00199167 0)
(0.000844561 -0.00192634 0)
(0.000814208 -0.00186292 0)
(0.000785311 -0.00180135 0)
(0.000757785 -0.00174159 0)
(0.000731549 -0.00168356 0)
(0.000706531 -0.00162722 0)
(0.000682662 -0.00157251 0)
(0.000659881 -0.00151938 0)
(0.000638127 -0.00146777 0)
(0.000617348 -0.00141763 0)
(0.000597492 -0.00136891 0)