/*--------------------------------*- C++ -*----------------------------------*\
  =========                 |
  \\      /  F ield         | OpenFOAM: The Open Source CFD Toolbox
   \\    /   O peration     | Website:  https://openfoam.org
    \\  /    A nd           | Version:  11
     \\/     M anipulation  |
\*---------------------------------------------------------------------------*/
FoamFile
{
    format      ascii;
    class       volScalarField;
    location    "484";
    object      k;
}
// * * * * * * * * * * * * * * * * * * * * * * * * * * * * * * * * * * * * * //

dimensions      [0 2 -2 0 0 0 0];

internalField   nonuniform List<scalar> 
10000
(
0.000939686
0.000835716
0.000745885
0.000668026
0.00060033
0.000541286
0.000489628
0.000444295
0.000404391
0.000369162
0.00033797
0.000310271
0.000285606
0.000263582
0.000243863
0.000226161
0.000210229
0.000195853
0.00018285
0.000171062
0.000160348
0.000150591
0.000141684
0.000133537
0.000126068
0.000119209
0.000112896
0.000107076
0.000101699
9.67241e-05
9.21122e-05
8.78299e-05
8.38472e-05
8.01373e-05
7.66761e-05
7.34422e-05
7.04163e-05
6.7581e-05
6.49207e-05
6.24214e-05
6.00702e-05
5.78556e-05
5.57672e-05
5.37955e-05
5.19319e-05
5.01685e-05
4.84981e-05
4.69142e-05
4.54109e-05
4.39827e-05
4.26246e-05
4.1332e-05
4.01008e-05
3.89271e-05
3.78074e-05
3.67386e-05
3.57175e-05
3.47416e-05
3.38083e-05
3.29154e-05
3.20608e-05
3.12427e-05
3.04592e-05
2.97089e-05
2.89904e-05
2.83024e-05
2.76438e-05
2.70135e-05
2.64107e-05
2.58345e-05
2.52843e-05
2.47595e-05
2.42596e-05
2.3784e-05
2.33323e-05
2.29043e-05
2.24996e-05
2.21178e-05
2.17587e-05
2.14219e-05
2.11071e-05
2.08138e-05
2.05418e-05
2.02904e-05
2.00591e-05
1.98473e-05
1.96543e-05
1.94792e-05
1.93214e-05
1.91799e-05
1.90537e-05
1.8942e-05
1.88436e-05
1.87576e-05
1.86833e-05
1.86198e-05
1.85667e-05
1.85237e-05
1.84915e-05
1.8472e-05
0.000939686
0.000835716
0.000745885
0.000668026
0.00060033
0.000541286
0.000489628
0.000444295
0.000404391
0.000369163
0.00033797
0.000310271
0.000285607
0.000263583
0.000243863
0.000226161
0.000210229
0.000195853
0.000182851
0.000171062
0.000160349
0.000150591
0.000141684
0.000133537
0.000126069
0.000119209
0.000112896
0.000107076
0.0001017
9.67243e-05
9.21124e-05
8.78302e-05
8.38475e-05
8.01375e-05
7.66764e-05
7.34425e-05
7.04166e-05
6.75813e-05
6.4921e-05
6.24217e-05
6.00705e-05
5.7856e-05
5.57676e-05
5.37959e-05
5.19323e-05
5.01688e-05
4.84985e-05
4.69146e-05
4.54113e-05
4.39831e-05
4.2625e-05
4.13324e-05
4.01012e-05
3.89276e-05
3.78079e-05
3.6739e-05
3.5718e-05
3.47421e-05
3.38088e-05
3.29159e-05
3.20614e-05
3.12432e-05
3.04598e-05
2.97096e-05
2.89911e-05
2.83031e-05
2.76444e-05
2.70142e-05
2.64114e-05
2.58352e-05
2.5285e-05
2.47602e-05
2.42603e-05
2.37847e-05
2.33331e-05
2.29051e-05
2.25003e-05
2.21185e-05
2.17594e-05
2.14226e-05
2.11077e-05
2.08145e-05
2.05424e-05
2.0291e-05
2.00597e-05
1.98479e-05
1.96548e-05
1.94798e-05
1.93219e-05
1.91804e-05
1.90541e-05
1.89423e-05
1.88438e-05
1.87578e-05
1.86835e-05
1.86199e-05
1.85667e-05
1.85237e-05
1.84915e-05
1.8472e-05
0.000939686
0.000835716
0.000745886
0.000668027
0.00060033
0.000541286
0.000489629
0.000444295
0.000404392
0.000369163
0.00033797
0.000310272
0.000285607
0.000263583
0.000243864
0.000226162
0.000210229
0.000195854
0.000182851
0.000171062
0.000160349
0.000150592
0.000141685
0.000133537
0.000126069
0.00011921
0.000112897
0.000107076
0.0001017
9.67248e-05
9.21129e-05
8.78307e-05
8.3848e-05
8.01381e-05
7.66769e-05
7.3443e-05
7.04171e-05
6.75819e-05
6.49216e-05
6.24223e-05
6.00711e-05
5.78566e-05
5.57682e-05
5.37965e-05
5.19329e-05
5.01695e-05
4.84991e-05
4.69153e-05
4.5412e-05
4.39838e-05
4.26257e-05
4.13332e-05
4.0102e-05
3.89284e-05
3.78087e-05
3.67399e-05
3.57189e-05
3.4743e-05
3.38097e-05
3.29168e-05
3.20623e-05
3.12442e-05
3.04608e-05
2.97105e-05
2.8992e-05
2.83041e-05
2.76454e-05
2.70152e-05
2.64124e-05
2.58362e-05
2.52861e-05
2.47613e-05
2.42613e-05
2.37857e-05
2.33341e-05
2.2906e-05
2.25013e-05
2.21194e-05
2.17603e-05
2.14234e-05
2.11085e-05
2.08152e-05
2.05431e-05
2.02916e-05
2.00603e-05
1.98484e-05
1.96553e-05
1.94803e-05
1.93224e-05
1.91808e-05
1.90545e-05
1.89426e-05
1.88441e-05
1.8758e-05
1.86836e-05
1.862e-05
1.85668e-05
1.85237e-05
1.84915e-05
1.8472e-05
0.000939686
0.000835716
0.000745886
0.000668027
0.000600331
0.000541287
0.000489629
0.000444296
0.000404392
0.000369163
0.000337971
0.000310272
0.000285608
0.000263584
0.000243864
0.000226162
0.00021023
0.000195854
0.000182852
0.000171063
0.00016035
0.000150592
0.000141685
0.000133538
0.00012607
0.00011921
0.000112898
0.000107077
0.000101701
9.67255e-05
9.21137e-05
8.78314e-05
8.38488e-05
8.01388e-05
7.66777e-05
7.34438e-05
7.0418e-05
6.75827e-05
6.49225e-05
6.24232e-05
6.0072e-05
5.78575e-05
5.57691e-05
5.37975e-05
5.19339e-05
5.01705e-05
4.85001e-05
4.69163e-05
4.54131e-05
4.39849e-05
4.26268e-05
4.13343e-05
4.01032e-05
3.89295e-05
3.78099e-05
3.67411e-05
3.57201e-05
3.47442e-05
3.3811e-05
3.29181e-05
3.20636e-05
3.12455e-05
3.04621e-05
2.97119e-05
2.89934e-05
2.83055e-05
2.76468e-05
2.70166e-05
2.64138e-05
2.58376e-05
2.52875e-05
2.47627e-05
2.42627e-05
2.3787e-05
2.33354e-05
2.29073e-05
2.25025e-05
2.21206e-05
2.17614e-05
2.14245e-05
2.11096e-05
2.08162e-05
2.0544e-05
2.02925e-05
2.00611e-05
1.98491e-05
1.9656e-05
1.94808e-05
1.93229e-05
1.91812e-05
1.90548e-05
1.89428e-05
1.88443e-05
1.87582e-05
1.86837e-05
1.86201e-05
1.85668e-05
1.85237e-05
1.84915e-05
1.8472e-05
0.000939686
0.000835716
0.000745886
0.000668027
0.000600331
0.000541287
0.00048963
0.000444296
0.000404393
0.000369164
0.000337971
0.000310273
0.000285608
0.000263584
0.000243865
0.000226163
0.000210231
0.000195855
0.000182852
0.000171064
0.000160351
0.000150593
0.000141686
0.000133539
0.000126071
0.000119211
0.000112899
0.000107078
0.000101702
9.67265e-05
9.21146e-05
8.78324e-05
8.38498e-05
8.01399e-05
7.66787e-05
7.34449e-05
7.0419e-05
6.75838e-05
6.49236e-05
6.24243e-05
6.00732e-05
5.78587e-05
5.57704e-05
5.37987e-05
5.19352e-05
5.01718e-05
4.85015e-05
4.69177e-05
4.54144e-05
4.39863e-05
4.26283e-05
4.13358e-05
4.01047e-05
3.89311e-05
3.78115e-05
3.67427e-05
3.57217e-05
3.47458e-05
3.38126e-05
3.29198e-05
3.20653e-05
3.12472e-05
3.04639e-05
2.97137e-05
2.89952e-05
2.83073e-05
2.76487e-05
2.70184e-05
2.64156e-05
2.58395e-05
2.52893e-05
2.47644e-05
2.42644e-05
2.37888e-05
2.33371e-05
2.2909e-05
2.25041e-05
2.21222e-05
2.17629e-05
2.14259e-05
2.11109e-05
2.08174e-05
2.05451e-05
2.02935e-05
2.0062e-05
1.98499e-05
1.96567e-05
1.94814e-05
1.93234e-05
1.91816e-05
1.90552e-05
1.89431e-05
1.88445e-05
1.87583e-05
1.86838e-05
1.86201e-05
1.85668e-05
1.85237e-05
1.84915e-05
1.84719e-05
0.000939687
0.000835716
0.000745886
0.000668027
0.000600331
0.000541287
0.00048963
0.000444297
0.000404393
0.000369165
0.000337972
0.000310274
0.000285609
0.000263585
0.000243866
0.000226164
0.000210231
0.000195856
0.000182853
0.000171065
0.000160352
0.000150594
0.000141687
0.00013354
0.000126072
0.000119212
0.0001129
0.000107079
0.000101703
9.67276e-05
9.21158e-05
8.78336e-05
8.3851e-05
8.01411e-05
7.668e-05
7.34462e-05
7.04203e-05
6.75852e-05
6.4925e-05
6.24257e-05
6.00746e-05
5.78601e-05
5.57718e-05
5.38002e-05
5.19367e-05
5.01734e-05
4.85031e-05
4.69193e-05
4.54161e-05
4.3988e-05
4.263e-05
4.13376e-05
4.01065e-05
3.89329e-05
3.78134e-05
3.67446e-05
3.57237e-05
3.47479e-05
3.38147e-05
3.29219e-05
3.20674e-05
3.12494e-05
3.0466e-05
2.97159e-05
2.89974e-05
2.83095e-05
2.76509e-05
2.70206e-05
2.64178e-05
2.58417e-05
2.52915e-05
2.47666e-05
2.42666e-05
2.37909e-05
2.33391e-05
2.2911e-05
2.2506e-05
2.2124e-05
2.17646e-05
2.14275e-05
2.11124e-05
2.08188e-05
2.05464e-05
2.02947e-05
2.0063e-05
1.98509e-05
1.96575e-05
1.94821e-05
1.9324e-05
1.91821e-05
1.90555e-05
1.89434e-05
1.88447e-05
1.87584e-05
1.86838e-05
1.86201e-05
1.85668e-05
1.85236e-05
1.84914e-05
1.84718e-05
0.000939687
0.000835716
0.000745886
0.000668028
0.000600332
0.000541288
0.000489631
0.000444298
0.000404394
0.000369165
0.000337973
0.000310275
0.00028561
0.000263586
0.000243867
0.000226165
0.000210232
0.000195857
0.000182854
0.000171066
0.000160353
0.000150595
0.000141689
0.000133541
0.000126073
0.000119213
0.000112901
0.000107081
0.000101704
9.6729e-05
9.21172e-05
8.7835e-05
8.38524e-05
8.01426e-05
7.66815e-05
7.34477e-05
7.04219e-05
6.75867e-05
6.49266e-05
6.24273e-05
6.00763e-05
5.78618e-05
5.57736e-05
5.3802e-05
5.19385e-05
5.01752e-05
4.8505e-05
4.69213e-05
4.54181e-05
4.399e-05
4.26321e-05
4.13397e-05
4.01086e-05
3.89351e-05
3.78156e-05
3.67469e-05
3.5726e-05
3.47502e-05
3.38171e-05
3.29243e-05
3.20699e-05
3.12519e-05
3.04686e-05
2.97184e-05
2.9e-05
2.83121e-05
2.76535e-05
2.70233e-05
2.64205e-05
2.58443e-05
2.52941e-05
2.47692e-05
2.42691e-05
2.37933e-05
2.33415e-05
2.29133e-05
2.25083e-05
2.21262e-05
2.17667e-05
2.14294e-05
2.11142e-05
2.08205e-05
2.05479e-05
2.0296e-05
2.00642e-05
1.98519e-05
1.96584e-05
1.94829e-05
1.93246e-05
1.91826e-05
1.90559e-05
1.89437e-05
1.88448e-05
1.87585e-05
1.86838e-05
1.86201e-05
1.85667e-05
1.85235e-05
1.84913e-05
1.84716e-05
0.000939687
0.000835716
0.000745887
0.000668028
0.000600332
0.000541288
0.000489631
0.000444298
0.000404395
0.000369166
0.000337974
0.000310276
0.000285611
0.000263587
0.000243868
0.000226166
0.000210234
0.000195858
0.000182856
0.000171067
0.000160354
0.000150596
0.00014169
0.000133543
0.000126074
0.000119215
0.000112902
0.000107082
0.000101706
9.67305e-05
9.21187e-05
8.78366e-05
8.3854e-05
8.01442e-05
7.66832e-05
7.34494e-05
7.04236e-05
6.75885e-05
6.49284e-05
6.24292e-05
6.00782e-05
5.78638e-05
5.57756e-05
5.38041e-05
5.19406e-05
5.01774e-05
4.85072e-05
4.69235e-05
4.54204e-05
4.39923e-05
4.26344e-05
4.13421e-05
4.01111e-05
3.89376e-05
3.78182e-05
3.67495e-05
3.57286e-05
3.47529e-05
3.38198e-05
3.29271e-05
3.20727e-05
3.12547e-05
3.04715e-05
2.97213e-05
2.9003e-05
2.83151e-05
2.76565e-05
2.70262e-05
2.64234e-05
2.58472e-05
2.5297e-05
2.47721e-05
2.42719e-05
2.37961e-05
2.33442e-05
2.29159e-05
2.25108e-05
2.21286e-05
2.17689e-05
2.14316e-05
2.11162e-05
2.08223e-05
2.05496e-05
2.02975e-05
2.00655e-05
1.98531e-05
1.96594e-05
1.94837e-05
1.93253e-05
1.91831e-05
1.90563e-05
1.89439e-05
1.8845e-05
1.87586e-05
1.86838e-05
1.862e-05
1.85665e-05
1.85234e-05
1.8491e-05
1.84714e-05
0.000939687
0.000835716
0.000745887
0.000668028
0.000600333
0.000541289
0.000489632
0.000444299
0.000404396
0.000369167
0.000337975
0.000310277
0.000285612
0.000263588
0.000243869
0.000226167
0.000210235
0.000195859
0.000182857
0.000171068
0.000160355
0.000150598
0.000141691
0.000133544
0.000126076
0.000119216
0.000112904
0.000107084
0.000101707
9.67322e-05
9.21205e-05
8.78383e-05
8.38558e-05
8.0146e-05
7.6685e-05
7.34513e-05
7.04256e-05
6.75905e-05
6.49304e-05
6.24313e-05
6.00803e-05
5.7866e-05
5.57778e-05
5.38063e-05
5.19429e-05
5.01797e-05
4.85096e-05
4.6926e-05
4.54229e-05
4.39949e-05
4.26371e-05
4.13448e-05
4.01138e-05
3.89404e-05
3.7821e-05
3.67524e-05
3.57316e-05
3.47559e-05
3.38229e-05
3.29302e-05
3.20759e-05
3.1258e-05
3.04747e-05
2.97246e-05
2.90063e-05
2.83184e-05
2.76598e-05
2.70296e-05
2.64268e-05
2.58506e-05
2.53003e-05
2.47753e-05
2.42751e-05
2.37992e-05
2.33473e-05
2.29188e-05
2.25136e-05
2.21312e-05
2.17715e-05
2.1434e-05
2.11184e-05
2.08243e-05
2.05514e-05
2.02992e-05
2.0067e-05
1.98543e-05
1.96604e-05
1.94846e-05
1.9326e-05
1.91836e-05
1.90567e-05
1.89442e-05
1.88451e-05
1.87586e-05
1.86837e-05
1.86198e-05
1.85663e-05
1.85231e-05
1.84907e-05
1.8471e-05
0.000939687
0.000835716
0.000745887
0.000668029
0.000600333
0.000541289
0.000489632
0.0004443
0.000404396
0.000369168
0.000337976
0.000310278
0.000285613
0.000263589
0.00024387
0.000226168
0.000210236
0.000195861
0.000182858
0.00017107
0.000160357
0.000150599
0.000141693
0.000133546
0.000126077
0.000119218
0.000112906
0.000107085
0.000101709
9.6734e-05
9.21223e-05
8.78403e-05
8.38578e-05
8.0148e-05
7.66871e-05
7.34534e-05
7.04277e-05
6.75927e-05
6.49327e-05
6.24336e-05
6.00826e-05
5.78683e-05
5.57802e-05
5.38088e-05
5.19455e-05
5.01823e-05
4.85122e-05
4.69287e-05
4.54257e-05
4.39978e-05
4.264e-05
4.13477e-05
4.01169e-05
3.89435e-05
3.78242e-05
3.67556e-05
3.57349e-05
3.47593e-05
3.38263e-05
3.29337e-05
3.20794e-05
3.12615e-05
3.04783e-05
2.97282e-05
2.90099e-05
2.8322e-05
2.76635e-05
2.70332e-05
2.64304e-05
2.58542e-05
2.53039e-05
2.47789e-05
2.42786e-05
2.38026e-05
2.33506e-05
2.2922e-05
2.25167e-05
2.21342e-05
2.17742e-05
2.14365e-05
2.11208e-05
2.08265e-05
2.05534e-05
2.03009e-05
2.00685e-05
1.98557e-05
1.96616e-05
1.94855e-05
1.93267e-05
1.91842e-05
1.90571e-05
1.89444e-05
1.88452e-05
1.87585e-05
1.86836e-05
1.86196e-05
1.8566e-05
1.85228e-05
1.84903e-05
1.84706e-05
0.000939687
0.000835717
0.000745887
0.000668029
0.000600333
0.00054129
0.000489633
0.0004443
0.000404397
0.000369169
0.000337977
0.000310279
0.000285614
0.00026359
0.000243872
0.00022617
0.000210238
0.000195862
0.00018286
0.000171071
0.000160358
0.000150601
0.000141695
0.000133547
0.000126079
0.00011922
0.000112907
0.000107087
0.000101711
9.6736e-05
9.21243e-05
8.78423e-05
8.38599e-05
8.01502e-05
7.66893e-05
7.34556e-05
7.043e-05
6.7595e-05
6.49351e-05
6.2436e-05
6.00851e-05
5.78709e-05
5.57829e-05
5.38115e-05
5.19482e-05
5.01851e-05
4.85151e-05
4.69316e-05
4.54287e-05
4.40008e-05
4.26431e-05
4.13509e-05
4.01201e-05
3.89468e-05
3.78276e-05
3.67591e-05
3.57384e-05
3.47628e-05
3.38299e-05
3.29374e-05
3.20831e-05
3.12653e-05
3.04821e-05
2.97321e-05
2.90138e-05
2.8326e-05
2.76674e-05
2.70372e-05
2.64343e-05
2.58581e-05
2.53078e-05
2.47827e-05
2.42824e-05
2.38063e-05
2.33541e-05
2.29255e-05
2.252e-05
2.21373e-05
2.17772e-05
2.14393e-05
2.11233e-05
2.08289e-05
2.05555e-05
2.03028e-05
2.00702e-05
1.98571e-05
1.96628e-05
1.94865e-05
1.93274e-05
1.91847e-05
1.90574e-05
1.89446e-05
1.88452e-05
1.87584e-05
1.86834e-05
1.86193e-05
1.85657e-05
1.85223e-05
1.84899e-05
1.84701e-05
0.000939687
0.000835717
0.000745887
0.000668029
0.000600334
0.00054129
0.000489634
0.000444301
0.000404398
0.00036917
0.000337978
0.00031028
0.000285615
0.000263592
0.000243873
0.000226171
0.000210239
0.000195864
0.000182861
0.000171073
0.00016036
0.000150603
0.000141696
0.000133549
0.000126081
0.000119222
0.000112909
0.000107089
0.000101713
9.67381e-05
9.21265e-05
8.78445e-05
8.38621e-05
8.01525e-05
7.66916e-05
7.3458e-05
7.04325e-05
6.75975e-05
6.49376e-05
6.24386e-05
6.00878e-05
5.78736e-05
5.57857e-05
5.38144e-05
5.19511e-05
5.01881e-05
4.85182e-05
4.69347e-05
4.54319e-05
4.40041e-05
4.26465e-05
4.13544e-05
4.01236e-05
3.89504e-05
3.78312e-05
3.67628e-05
3.57422e-05
3.47667e-05
3.38338e-05
3.29414e-05
3.20872e-05
3.12694e-05
3.04863e-05
2.97363e-05
2.9018e-05
2.83302e-05
2.76717e-05
2.70414e-05
2.64386e-05
2.58623e-05
2.53119e-05
2.47868e-05
2.42864e-05
2.38102e-05
2.3358e-05
2.29291e-05
2.25235e-05
2.21406e-05
2.17803e-05
2.14423e-05
2.11261e-05
2.08314e-05
2.05578e-05
2.03048e-05
2.00719e-05
1.98586e-05
1.9664e-05
1.94875e-05
1.93282e-05
1.91853e-05
1.90578e-05
1.89447e-05
1.88452e-05
1.87583e-05
1.86831e-05
1.86189e-05
1.85652e-05
1.85218e-05
1.84893e-05
1.84694e-05
0.000939687
0.000835717
0.000745887
0.000668029
0.000600334
0.000541291
0.000489634
0.000444302
0.000404399
0.000369171
0.000337979
0.000310281
0.000285617
0.000263593
0.000243874
0.000226172
0.00021024
0.000195865
0.000182863
0.000171075
0.000160362
0.000150604
0.000141698
0.000133551
0.000126083
0.000119224
0.000112911
0.000107091
0.000101715
9.67402e-05
9.21287e-05
8.78468e-05
8.38644e-05
8.01549e-05
7.66941e-05
7.34605e-05
7.0435e-05
6.76002e-05
6.49403e-05
6.24414e-05
6.00906e-05
5.78765e-05
5.57886e-05
5.38174e-05
5.19542e-05
5.01913e-05
4.85214e-05
4.69381e-05
4.54353e-05
4.40076e-05
4.265e-05
4.1358e-05
4.01273e-05
3.89542e-05
3.78351e-05
3.67667e-05
3.57462e-05
3.47708e-05
3.3838e-05
3.29456e-05
3.20914e-05
3.12737e-05
3.04906e-05
2.97407e-05
2.90225e-05
2.83347e-05
2.76761e-05
2.70459e-05
2.6443e-05
2.58667e-05
2.53163e-05
2.47911e-05
2.42906e-05
2.38144e-05
2.3362e-05
2.2933e-05
2.25272e-05
2.21442e-05
2.17837e-05
2.14454e-05
2.11289e-05
2.0834e-05
2.05601e-05
2.03069e-05
2.00738e-05
1.98601e-05
1.96653e-05
1.94885e-05
1.93289e-05
1.91858e-05
1.90581e-05
1.89448e-05
1.88451e-05
1.8758e-05
1.86827e-05
1.86184e-05
1.85646e-05
1.85211e-05
1.84885e-05
1.84687e-05
0.000939687
0.000835717
0.000745888
0.00066803
0.000600334
0.000541291
0.000489635
0.000444302
0.000404399
0.000369171
0.000337979
0.000310282
0.000285618
0.000263594
0.000243875
0.000226174
0.000210242
0.000195867
0.000182865
0.000171076
0.000160363
0.000150606
0.0001417
0.000133553
0.000126085
0.000119226
0.000112913
0.000107093
0.000101717
9.67425e-05
9.2131e-05
8.78491e-05
8.38669e-05
8.01574e-05
7.66966e-05
7.34632e-05
7.04377e-05
6.76029e-05
6.49431e-05
6.24443e-05
6.00936e-05
5.78796e-05
5.57917e-05
5.38206e-05
5.19575e-05
5.01946e-05
4.85248e-05
4.69416e-05
4.54388e-05
4.40112e-05
4.26537e-05
4.13618e-05
4.01312e-05
3.89582e-05
3.78391e-05
3.67709e-05
3.57504e-05
3.47751e-05
3.38424e-05
3.295e-05
3.20959e-05
3.12782e-05
3.04952e-05
2.97453e-05
2.90271e-05
2.83394e-05
2.76809e-05
2.70506e-05
2.64477e-05
2.58714e-05
2.53209e-05
2.47957e-05
2.42951e-05
2.38187e-05
2.33662e-05
2.29371e-05
2.25311e-05
2.21479e-05
2.17872e-05
2.14486e-05
2.11319e-05
2.08367e-05
2.05626e-05
2.03091e-05
2.00756e-05
1.98617e-05
1.96666e-05
1.94895e-05
1.93297e-05
1.91863e-05
1.90583e-05
1.89449e-05
1.8845e-05
1.87577e-05
1.86822e-05
1.86178e-05
1.85639e-05
1.85204e-05
1.84877e-05
1.84678e-05
0.000939687
0.000835717
0.000745888
0.00066803
0.000600335
0.000541292
0.000489635
0.000444303
0.0004044
0.000369172
0.00033798
0.000310283
0.000285619
0.000263595
0.000243877
0.000226175
0.000210243
0.000195868
0.000182866
0.000171078
0.000160365
0.000150608
0.000141702
0.000133555
0.000126087
0.000119228
0.000112916
0.000107096
0.00010172
9.67448e-05
9.21334e-05
8.78516e-05
8.38694e-05
8.01599e-05
7.66993e-05
7.34659e-05
7.04405e-05
6.76058e-05
6.49461e-05
6.24473e-05
6.00967e-05
5.78827e-05
5.5795e-05
5.38239e-05
5.19609e-05
5.01981e-05
4.85284e-05
4.69452e-05
4.54426e-05
4.4015e-05
4.26576e-05
4.13658e-05
4.01353e-05
3.89623e-05
3.78434e-05
3.67752e-05
3.57548e-05
3.47795e-05
3.38469e-05
3.29546e-05
3.21006e-05
3.1283e-05
3.05e-05
2.97502e-05
2.9032e-05
2.83443e-05
2.76858e-05
2.70555e-05
2.64526e-05
2.58763e-05
2.53257e-05
2.48004e-05
2.42997e-05
2.38233e-05
2.33706e-05
2.29413e-05
2.25351e-05
2.21517e-05
2.17908e-05
2.1452e-05
2.1135e-05
2.08395e-05
2.05651e-05
2.03113e-05
2.00776e-05
1.98633e-05
1.96679e-05
1.94905e-05
1.93305e-05
1.91868e-05
1.90586e-05
1.89449e-05
1.88448e-05
1.87573e-05
1.86817e-05
1.86172e-05
1.85631e-05
1.85195e-05
1.84868e-05
1.84669e-05
0.000939687
0.000835717
0.000745888
0.00066803
0.000600335
0.000541292
0.000489636
0.000444303
0.000404401
0.000369173
0.000337981
0.000310284
0.00028562
0.000263596
0.000243878
0.000226176
0.000210245
0.00019587
0.000182868
0.00017108
0.000160367
0.00015061
0.000141704
0.000133557
0.000126089
0.00011923
0.000112918
0.000107098
0.000101722
9.67472e-05
9.21359e-05
8.78541e-05
8.3872e-05
8.01626e-05
7.6702e-05
7.34687e-05
7.04434e-05
6.76087e-05
6.49491e-05
6.24504e-05
6.00999e-05
5.7886e-05
5.57983e-05
5.38273e-05
5.19644e-05
5.02017e-05
4.85321e-05
4.69489e-05
4.54464e-05
4.4019e-05
4.26617e-05
4.13699e-05
4.01395e-05
3.89666e-05
3.78477e-05
3.67796e-05
3.57593e-05
3.47842e-05
3.38516e-05
3.29594e-05
3.21055e-05
3.12879e-05
3.0505e-05
2.97552e-05
2.90371e-05
2.83493e-05
2.76909e-05
2.70606e-05
2.64577e-05
2.58813e-05
2.53307e-05
2.48053e-05
2.43045e-05
2.3828e-05
2.33751e-05
2.29457e-05
2.25393e-05
2.21557e-05
2.17945e-05
2.14555e-05
2.11382e-05
2.08425e-05
2.05677e-05
2.03136e-05
2.00796e-05
1.9865e-05
1.96692e-05
1.94916e-05
1.93312e-05
1.91872e-05
1.90588e-05
1.89448e-05
1.88445e-05
1.87569e-05
1.86811e-05
1.86164e-05
1.85623e-05
1.85185e-05
1.84858e-05
1.84658e-05
0.000939687
0.000835717
0.000745888
0.00066803
0.000600335
0.000541292
0.000489636
0.000444304
0.000404401
0.000369174
0.000337982
0.000310285
0.000285621
0.000263598
0.000243879
0.000226178
0.000210246
0.000195871
0.000182869
0.000171081
0.000160369
0.000150612
0.000141706
0.000133559
0.000126091
0.000119232
0.00011292
0.0001071
0.000101724
9.67497e-05
9.21384e-05
8.78567e-05
8.38746e-05
8.01653e-05
7.67048e-05
7.34716e-05
7.04463e-05
6.76118e-05
6.49522e-05
6.24536e-05
6.01031e-05
5.78893e-05
5.58017e-05
5.38308e-05
5.1968e-05
5.02054e-05
4.85358e-05
4.69528e-05
4.54504e-05
4.4023e-05
4.26658e-05
4.13741e-05
4.01438e-05
3.8971e-05
3.78522e-05
3.67842e-05
3.5764e-05
3.47889e-05
3.38565e-05
3.29643e-05
3.21105e-05
3.1293e-05
3.05101e-05
2.97604e-05
2.90423e-05
2.83546e-05
2.76961e-05
2.70659e-05
2.64629e-05
2.58865e-05
2.53358e-05
2.48103e-05
2.43095e-05
2.38328e-05
2.33798e-05
2.29502e-05
2.25436e-05
2.21598e-05
2.17984e-05
2.1459e-05
2.11415e-05
2.08454e-05
2.05704e-05
2.0316e-05
2.00816e-05
1.98667e-05
1.96706e-05
1.94926e-05
1.93319e-05
1.91877e-05
1.90589e-05
1.89448e-05
1.88442e-05
1.87564e-05
1.86804e-05
1.86155e-05
1.85613e-05
1.85174e-05
1.84846e-05
1.84646e-05
0.000939687
0.000835717
0.000745888
0.00066803
0.000600335
0.000541293
0.000489636
0.000444304
0.000404402
0.000369174
0.000337983
0.000310286
0.000285622
0.000263599
0.00024388
0.000226179
0.000210248
0.000195873
0.000182871
0.000171083
0.000160371
0.000150614
0.000141708
0.000133561
0.000126093
0.000119234
0.000112922
0.000107102
0.000101727
9.67521e-05
9.21409e-05
8.78593e-05
8.38773e-05
8.01681e-05
7.67077e-05
7.34745e-05
7.04493e-05
6.76148e-05
6.49554e-05
6.24568e-05
6.01065e-05
5.78927e-05
5.58052e-05
5.38344e-05
5.19717e-05
5.02091e-05
4.85397e-05
4.69568e-05
4.54544e-05
4.40272e-05
4.267e-05
4.13785e-05
4.01483e-05
3.89756e-05
3.78569e-05
3.67889e-05
3.57688e-05
3.47938e-05
3.38614e-05
3.29694e-05
3.21156e-05
3.12982e-05
3.05154e-05
2.97657e-05
2.90476e-05
2.83599e-05
2.77015e-05
2.70712e-05
2.64683e-05
2.58918e-05
2.53411e-05
2.48155e-05
2.43145e-05
2.38377e-05
2.33846e-05
2.29548e-05
2.2548e-05
2.2164e-05
2.18023e-05
2.14627e-05
2.11449e-05
2.08485e-05
2.05731e-05
2.03183e-05
2.00836e-05
1.98684e-05
1.9672e-05
1.94937e-05
1.93327e-05
1.91881e-05
1.90591e-05
1.89446e-05
1.88438e-05
1.87558e-05
1.86796e-05
1.86146e-05
1.85602e-05
1.85162e-05
1.84834e-05
1.84633e-05
0.000939687
0.000835717
0.000745888
0.000668031
0.000600336
0.000541293
0.000489637
0.000444305
0.000404403
0.000369175
0.000337984
0.000310287
0.000285623
0.0002636
0.000243882
0.00022618
0.000210249
0.000195874
0.000182873
0.000171085
0.000160372
0.000150616
0.00014171
0.000133563
0.000126095
0.000119237
0.000112925
0.000107105
0.000101729
9.67546e-05
9.21435e-05
8.7862e-05
8.38801e-05
8.01709e-05
7.67105e-05
7.34775e-05
7.04524e-05
6.7618e-05
6.49586e-05
6.24601e-05
6.01098e-05
5.78962e-05
5.58088e-05
5.38381e-05
5.19754e-05
5.0213e-05
4.85436e-05
4.69608e-05
4.54585e-05
4.40314e-05
4.26744e-05
4.13829e-05
4.01528e-05
3.89802e-05
3.78616e-05
3.67937e-05
3.57737e-05
3.47988e-05
3.38665e-05
3.29745e-05
3.21208e-05
3.13034e-05
3.05207e-05
2.97711e-05
2.9053e-05
2.83654e-05
2.77069e-05
2.70767e-05
2.64737e-05
2.58972e-05
2.53464e-05
2.48208e-05
2.43197e-05
2.38427e-05
2.33894e-05
2.29595e-05
2.25525e-05
2.21682e-05
2.18063e-05
2.14664e-05
2.11483e-05
2.08516e-05
2.05759e-05
2.03208e-05
2.00857e-05
1.98701e-05
1.96733e-05
1.94947e-05
1.93334e-05
1.91885e-05
1.90592e-05
1.89444e-05
1.88434e-05
1.87551e-05
1.86788e-05
1.86136e-05
1.8559e-05
1.8515e-05
1.8482e-05
1.84619e-05
0.000939687
0.000835717
0.000745888
0.000668031
0.000600336
0.000541293
0.000489637
0.000444305
0.000404403
0.000369176
0.000337985
0.000310288
0.000285624
0.000263601
0.000243883
0.000226182
0.00021025
0.000195876
0.000182874
0.000171086
0.000160374
0.000150617
0.000141711
0.000133565
0.000126097
0.000119239
0.000112927
0.000107107
0.000101732
9.67571e-05
9.21461e-05
8.78646e-05
8.38828e-05
8.01737e-05
7.67134e-05
7.34804e-05
7.04555e-05
6.76211e-05
6.49618e-05
6.24634e-05
6.01133e-05
5.78997e-05
5.58124e-05
5.38417e-05
5.19792e-05
5.02169e-05
4.85476e-05
4.69649e-05
4.54627e-05
4.40357e-05
4.26787e-05
4.13874e-05
4.01573e-05
3.89848e-05
3.78663e-05
3.67986e-05
3.57787e-05
3.48039e-05
3.38716e-05
3.29797e-05
3.21261e-05
3.13088e-05
3.05261e-05
2.97765e-05
2.90585e-05
2.83709e-05
2.77125e-05
2.70822e-05
2.64792e-05
2.59027e-05
2.53518e-05
2.48261e-05
2.43249e-05
2.38478e-05
2.33944e-05
2.29642e-05
2.2557e-05
2.21725e-05
2.18103e-05
2.14701e-05
2.11517e-05
2.08547e-05
2.05787e-05
2.03232e-05
2.00878e-05
1.98718e-05
1.96747e-05
1.94957e-05
1.93341e-05
1.91888e-05
1.90592e-05
1.89442e-05
1.88429e-05
1.87544e-05
1.86778e-05
1.86125e-05
1.85578e-05
1.85136e-05
1.84806e-05
1.84604e-05
0.000939687
0.000835717
0.000745888
0.000668031
0.000600336
0.000541294
0.000489638
0.000444306
0.000404404
0.000369177
0.000337985
0.000310288
0.000285625
0.000263602
0.000243884
0.000226183
0.000210252
0.000195877
0.000182876
0.000171088
0.000160376
0.000150619
0.000141713
0.000133567
0.000126099
0.000119241
0.000112929
0.000107109
0.000101734
9.67596e-05
9.21486e-05
8.78673e-05
8.38855e-05
8.01766e-05
7.67163e-05
7.34834e-05
7.04585e-05
6.76243e-05
6.49651e-05
6.24668e-05
6.01167e-05
5.79033e-05
5.5816e-05
5.38455e-05
5.1983e-05
5.02208e-05
4.85516e-05
4.6969e-05
4.54669e-05
4.404e-05
4.26832e-05
4.13919e-05
4.0162e-05
3.89896e-05
3.78712e-05
3.68035e-05
3.57837e-05
3.4809e-05
3.38768e-05
3.2985e-05
3.21315e-05
3.13142e-05
3.05316e-05
2.97821e-05
2.90641e-05
2.83765e-05
2.77181e-05
2.70878e-05
2.64848e-05
2.59082e-05
2.53573e-05
2.48315e-05
2.43302e-05
2.38529e-05
2.33993e-05
2.2969e-05
2.25616e-05
2.21768e-05
2.18144e-05
2.14739e-05
2.11552e-05
2.08578e-05
2.05815e-05
2.03256e-05
2.00899e-05
1.98736e-05
1.96761e-05
1.94967e-05
1.93347e-05
1.91892e-05
1.90592e-05
1.89439e-05
1.88424e-05
1.87536e-05
1.86769e-05
1.86113e-05
1.85565e-05
1.85122e-05
1.8479e-05
1.84588e-05
0.000939687
0.000835717
0.000745889
0.000668031
0.000600336
0.000541294
0.000489638
0.000444306
0.000404404
0.000369177
0.000337986
0.000310289
0.000285626
0.000263603
0.000243885
0.000226184
0.000210253
0.000195879
0.000182877
0.00017109
0.000160378
0.000150621
0.000141715
0.000133569
0.000126102
0.000119243
0.000112931
0.000107112
0.000101736
9.67621e-05
9.21512e-05
8.787e-05
8.38883e-05
8.01794e-05
7.67193e-05
7.34864e-05
7.04616e-05
6.76275e-05
6.49683e-05
6.24701e-05
6.01201e-05
5.79068e-05
5.58196e-05
5.38492e-05
5.19868e-05
5.02247e-05
4.85557e-05
4.69731e-05
4.54712e-05
4.40443e-05
4.26876e-05
4.13964e-05
4.01666e-05
3.89943e-05
3.7876e-05
3.68085e-05
3.57888e-05
3.48141e-05
3.38821e-05
3.29903e-05
3.21368e-05
3.13197e-05
3.05371e-05
2.97876e-05
2.90697e-05
2.83821e-05
2.77237e-05
2.70935e-05
2.64904e-05
2.59137e-05
2.53628e-05
2.48369e-05
2.43355e-05
2.38581e-05
2.34043e-05
2.29738e-05
2.25662e-05
2.21812e-05
2.18184e-05
2.14777e-05
2.11587e-05
2.0861e-05
2.05843e-05
2.03281e-05
2.00919e-05
1.98753e-05
1.96774e-05
1.94977e-05
1.93354e-05
1.91895e-05
1.90592e-05
1.89436e-05
1.88418e-05
1.87528e-05
1.86758e-05
1.86101e-05
1.85551e-05
1.85107e-05
1.84774e-05
1.84572e-05
0.000939687
0.000835717
0.000745889
0.000668031
0.000600337
0.000541294
0.000489638
0.000444307
0.000404405
0.000369178
0.000337987
0.00031029
0.000285627
0.000263604
0.000243886
0.000226185
0.000210254
0.00019588
0.000182879
0.000171091
0.000160379
0.000150623
0.000141717
0.000133571
0.000126104
0.000119245
0.000112933
0.000107114
0.000101739
9.67646e-05
9.21538e-05
8.78726e-05
8.3891e-05
8.01822e-05
7.67222e-05
7.34894e-05
7.04647e-05
6.76306e-05
6.49716e-05
6.24735e-05
6.01236e-05
5.79103e-05
5.58233e-05
5.38529e-05
5.19907e-05
5.02287e-05
4.85597e-05
4.69773e-05
4.54754e-05
4.40487e-05
4.2692e-05
4.1401e-05
4.01713e-05
3.89991e-05
3.78809e-05
3.68134e-05
3.57938e-05
3.48193e-05
3.38873e-05
3.29956e-05
3.21422e-05
3.13251e-05
3.05426e-05
2.97932e-05
2.90753e-05
2.83878e-05
2.77294e-05
2.70991e-05
2.6496e-05
2.59193e-05
2.53683e-05
2.48423e-05
2.43408e-05
2.38633e-05
2.34093e-05
2.29786e-05
2.25708e-05
2.21855e-05
2.18225e-05
2.14815e-05
2.11622e-05
2.08641e-05
2.05871e-05
2.03305e-05
2.0094e-05
1.9877e-05
1.96788e-05
1.94987e-05
1.9336e-05
1.91898e-05
1.90592e-05
1.89433e-05
1.88412e-05
1.87519e-05
1.86747e-05
1.86088e-05
1.85536e-05
1.85091e-05
1.84757e-05
1.84554e-05
0.000939687
0.000835717
0.000745889
0.000668031
0.000600337
0.000541294
0.000489639
0.000444307
0.000404405
0.000369178
0.000337987
0.000310291
0.000285628
0.000263605
0.000243887
0.000226187
0.000210256
0.000195881
0.00018288
0.000171093
0.000160381
0.000150624
0.000141719
0.000133573
0.000126106
0.000119247
0.000112936
0.000107116
0.000101741
9.6767e-05
9.21563e-05
8.78752e-05
8.38937e-05
8.0185e-05
7.6725e-05
7.34924e-05
7.04678e-05
6.76338e-05
6.49748e-05
6.24768e-05
6.0127e-05
5.79139e-05
5.58269e-05
5.38567e-05
5.19945e-05
5.02326e-05
4.85637e-05
4.69814e-05
4.54796e-05
4.4053e-05
4.26965e-05
4.14055e-05
4.01759e-05
3.90038e-05
3.78857e-05
3.68184e-05
3.57988e-05
3.48244e-05
3.38925e-05
3.30009e-05
3.21476e-05
3.13306e-05
3.05482e-05
2.97987e-05
2.90809e-05
2.83934e-05
2.7735e-05
2.71047e-05
2.65016e-05
2.59249e-05
2.53738e-05
2.48477e-05
2.43461e-05
2.38684e-05
2.34143e-05
2.29834e-05
2.25754e-05
2.21899e-05
2.18266e-05
2.14853e-05
2.11656e-05
2.08673e-05
2.05899e-05
2.0333e-05
2.00961e-05
1.98787e-05
1.96801e-05
1.94996e-05
1.93366e-05
1.919e-05
1.90591e-05
1.89429e-05
1.88405e-05
1.8751e-05
1.86736e-05
1.86075e-05
1.85521e-05
1.85074e-05
1.8474e-05
1.84536e-05
0.000939687
0.000835717
0.000745889
0.000668031
0.000600337
0.000541295
0.000489639
0.000444308
0.000404406
0.000369179
0.000337988
0.000310292
0.000285628
0.000263606
0.000243888
0.000226188
0.000210257
0.000195883
0.000182882
0.000171094
0.000160382
0.000150626
0.000141721
0.000133575
0.000126108
0.000119249
0.000112938
0.000107119
0.000101743
9.67694e-05
9.21588e-05
8.78778e-05
8.38964e-05
8.01877e-05
7.67279e-05
7.34953e-05
7.04708e-05
6.76369e-05
6.4978e-05
6.24801e-05
6.01304e-05
5.79173e-05
5.58305e-05
5.38603e-05
5.19983e-05
5.02365e-05
4.85677e-05
4.69855e-05
4.54838e-05
4.40573e-05
4.27009e-05
4.141e-05
4.01805e-05
3.90085e-05
3.78905e-05
3.68233e-05
3.58039e-05
3.48295e-05
3.38977e-05
3.30062e-05
3.2153e-05
3.1336e-05
3.05536e-05
2.98043e-05
2.90865e-05