/*--------------------------------*- C++ -*----------------------------------*\
  =========                 |
  \\      /  F ield         | OpenFOAM: The Open Source CFD Toolbox
   \\    /   O peration     | Website:  https://openfoam.org
    \\  /    A nd           | Version:  11
     \\/     M anipulation  |
\*---------------------------------------------------------------------------*/
FoamFile
{
    format      ascii;
    class       volScalarField;
    location    "484";
    object      nut;
}
// * * * * * * * * * * * * * * * * * * * * * * * * * * * * * * * * * * * * * //

dimensions      [0 2 -1 0 0 0 0];

internalField   nonuniform List<scalar> 
10000
(
0.000977117
0.000936706
0.000899648
0.000865624
0.000834344
0.000805552
0.000779015
0.000754525
0.000731893
0.000710951
0.000691546
0.000673542
0.000656814
0.000641252
0.000626754
0.000613229
0.000600596
0.000588779
0.000577712
0.000567333
0.000557586
0.000548421
0.000539793
0.00053166
0.000523983
0.000516729
0.000509865
0.000503362
0.000497195
0.000491338
0.000485771
0.000480472
0.000475423
0.000470606
0.000466006
0.000461609
0.000457401
0.000453369
0.000449502
0.000445791
0.000442225
0.000438795
0.000435493
0.000432312
0.000429245
0.000426285
0.000423428
0.000420668
0.000418
0.000415421
0.000412927
0.000410515
0.000408183
0.000405929
0.000403753
0.000401653
0.000399629
0.000397683
0.000395816
0.000394031
0.000392329
0.000390717
0.000389197
0.000387776
0.000386462
0.000385261
0.000384182
0.000383236
0.000382433
0.000381786
0.000381308
0.000381011
0.000380912
0.000381025
0.000381366
0.00038195
0.000382794
0.000383911
0.000385317
0.000387022
0.000389037
0.00039137
0.000394024
0.000396999
0.00040029
0.000403886
0.000407771
0.00041192
0.000416301
0.000420874
0.000425587
0.000430378
0.00043517
0.000439875
0.000444385
0.000448573
0.00045229
0.00045536
0.000457591
0.00045877
0.000977117
0.000936706
0.000899648
0.000865624
0.000834344
0.000805552
0.000779015
0.000754525
0.000731893
0.000710951
0.000691546
0.000673542
0.000656815
0.000641252
0.000626754
0.00061323
0.000600596
0.00058878
0.000577712
0.000567333
0.000557586
0.000548422
0.000539794
0.00053166
0.000523984
0.000516729
0.000509865
0.000503363
0.000497195
0.000491339
0.000485772
0.000480473
0.000475423
0.000470607
0.000466007
0.00046161
0.000457402
0.00045337
0.000449504
0.000445792
0.000442226
0.000438796
0.000435494
0.000432313
0.000429246
0.000426287
0.000423429
0.000420669
0.000418002
0.000415422
0.000412928
0.000410517
0.000408185
0.000405931
0.000403755
0.000401655
0.000399631
0.000397685
0.000395818
0.000394033
0.000392332
0.000390719
0.000389199
0.000387778
0.000386464
0.000385262
0.000384184
0.000383238
0.000382435
0.000381787
0.000381308
0.000381011
0.000380912
0.000381024
0.000381364
0.000381948
0.00038279
0.000383907
0.000385311
0.000387015
0.000389029
0.000391361
0.000394013
0.000396987
0.000400277
0.000403872
0.000407755
0.000411903
0.000416284
0.000420855
0.000425567
0.000430356
0.000435147
0.000439851
0.00044436
0.000448548
0.000452263
0.000455334
0.000457565
0.000458744
0.000977117
0.000936706
0.000899649
0.000865624
0.000834345
0.000805553
0.000779016
0.000754525
0.000731894
0.000710951
0.000691547
0.000673543
0.000656815
0.000641253
0.000626755
0.00061323
0.000600597
0.00058878
0.000577713
0.000567334
0.000557587
0.000548423
0.000539795
0.000531661
0.000523985
0.00051673
0.000509866
0.000503364
0.000497197
0.00049134
0.000485773
0.000480474
0.000475425
0.000470609
0.000466009
0.000461612
0.000457403
0.000453372
0.000449505
0.000445794
0.000442228
0.000438798
0.000435496
0.000432315
0.000429249
0.000426289
0.000423432
0.000420672
0.000418004
0.000415425
0.000412931
0.00041052
0.000408188
0.000405934
0.000403758
0.000401658
0.000399635
0.000397689
0.000395822
0.000394036
0.000392335
0.000390722
0.000389202
0.000387781
0.000386466
0.000385264
0.000384185
0.000383238
0.000382435
0.000381787
0.000381307
0.000381009
0.000380908
0.000381019
0.000381357
0.000381939
0.00038278
0.000383894
0.000385296
0.000386998
0.000389009
0.000391338
0.000393988
0.000396959
0.000400246
0.000403838
0.000407719
0.000411865
0.000416243
0.000420812
0.000425522
0.000430309
0.000435099
0.000439802
0.00044431
0.000448497
0.000452212
0.000455283
0.000457514
0.000458693
0.000977117
0.000936706
0.000899649
0.000865624
0.000834345
0.000805553
0.000779016
0.000754526
0.000731894
0.000710952
0.000691547
0.000673543
0.000656816
0.000641253
0.000626756
0.000613231
0.000600598
0.000588781
0.000577714
0.000567335
0.000557588
0.000548424
0.000539796
0.000531663
0.000523986
0.000516732
0.000509868
0.000503366
0.000497199
0.000491342
0.000485775
0.000480476
0.000475427
0.000470611
0.000466011
0.000461614
0.000457406
0.000453375
0.000449508
0.000445797
0.000442231
0.000438801
0.0004355
0.000432319
0.000429252
0.000426293
0.000423436
0.000420676
0.000418009
0.00041543
0.000412936
0.000410524
0.000408193
0.000405939
0.000403763
0.000401663
0.000399639
0.000397693
0.000395826
0.000394041
0.000392339
0.000390726
0.000389206
0.000387785
0.000386469
0.000385267
0.000384187
0.000383239
0.000382434
0.000381785
0.000381304
0.000381004
0.000380901
0.00038101
0.000381346
0.000381925
0.000382763
0.000383874
0.000385273
0.000386971
0.000388979
0.000391304
0.00039395
0.000396917
0.0004002
0.000403788
0.000407665
0.000411807
0.000416182
0.000420748
0.000425455
0.00043024
0.000435028
0.000439729
0.000444236
0.000448423
0.000452138
0.000455208
0.000457439
0.000458619
0.000977117
0.000936707
0.000899649
0.000865624
0.000834345
0.000805553
0.000779017
0.000754526
0.000731895
0.000710953
0.000691548
0.000673544
0.000656817
0.000641255
0.000626757
0.000613232
0.000600599
0.000588783
0.000577716
0.000567337
0.00055759
0.000548426
0.000539798
0.000531665
0.000523988
0.000516734
0.00050987
0.000503368
0.000497201
0.000491345
0.000485778
0.000480479
0.00047543
0.000470614
0.000466015
0.000461618
0.00045741
0.000453378
0.000449512
0.000445801
0.000442235
0.000438806
0.000435504
0.000432324
0.000429257
0.000426298
0.000423441
0.000420682
0.000418014
0.000415435
0.000412942
0.00041053
0.000408199
0.000405945
0.000403769
0.000401669
0.000399646
0.0003977
0.000395833
0.000394047
0.000392345
0.000390732
0.000389211
0.000387789
0.000386473
0.00038527
0.000384189
0.00038324
0.000382434
0.000381783
0.0003813
0.000380998
0.000380893
0.000380999
0.000381332
0.000381907
0.000382742
0.000383849
0.000385243
0.000386936
0.000388939
0.000391259
0.0003939
0.000396861
0.000400139
0.000403722
0.000407594
0.000411731
0.000416102
0.000420664
0.000425367
0.000430149
0.000434935
0.000439634
0.00044414
0.000448326
0.00045204
0.000455111
0.000457343
0.000458522
0.000977117
0.000936707
0.000899649
0.000865625
0.000834346
0.000805554
0.000779017
0.000754527
0.000731896
0.000710954
0.000691549
0.000673545
0.000656818
0.000641256
0.000626758
0.000613234
0.000600601
0.000588784
0.000577717
0.000567338
0.000557592
0.000548428
0.0005398
0.000531667
0.000523991
0.000516737
0.000509873
0.000503371
0.000497204
0.000491348
0.000485781
0.000480483
0.000475434
0.000470618
0.000466019
0.000461622
0.000457414
0.000453383
0.000449517
0.000445806
0.00044224
0.000438811
0.00043551
0.00043233
0.000429263
0.000426304
0.000423448
0.000420688
0.000418021
0.000415443
0.000412949
0.000410538
0.000408206
0.000405953
0.000403777
0.000401677
0.000399654
0.000397708
0.000395841
0.000394054
0.000392352
0.000390739
0.000389218
0.000387795
0.000386478
0.000385274
0.000384192
0.000383242
0.000382434
0.000381781
0.000381295
0.000380991
0.000380882
0.000380985
0.000381314
0.000381886
0.000382716
0.000383818
0.000385207
0.000386894
0.000388891
0.000391205
0.000393839
0.000396794
0.000400065
0.000403642
0.000407508
0.000411639
0.000416004
0.000420561
0.00042526
0.000430039
0.000434821
0.000439519
0.000444023
0.000448207
0.000451922
0.000454993
0.000457225
0.000458404
0.000977117
0.000936707
0.000899649
0.000865625
0.000834346
0.000805554
0.000779018
0.000754528
0.000731896
0.000710955
0.00069155
0.000673546
0.000656819
0.000641257
0.00062676
0.000613236
0.000600603
0.000588786
0.000577719
0.000567341
0.000557594
0.00054843
0.000539803
0.00053167
0.000523994
0.00051674
0.000509876
0.000503374
0.000497208
0.000491352
0.000485785
0.000480487
0.000475438
0.000470622
0.000466023
0.000461627
0.000457419
0.000453388
0.000449523
0.000445812
0.000442247
0.000438817
0.000435517
0.000432337
0.00042927
0.000426312
0.000423456
0.000420696
0.000418029
0.000415451
0.000412958
0.000410547
0.000408216
0.000405962
0.000403786
0.000401687
0.000399663
0.000397717
0.00039585
0.000394064
0.000392361
0.000390747
0.000389225
0.000387802
0.000386484
0.000385279
0.000384196
0.000383244
0.000382434
0.000381779
0.00038129
0.000380983
0.000380871
0.00038097
0.000381295
0.000381861
0.000382686
0.000383782
0.000385165
0.000386846
0.000388836
0.000391142
0.000393769
0.000396716
0.00039998
0.000403549
0.000407408
0.000411532
0.000415891
0.000420442
0.000425136
0.00042991
0.000434689
0.000439383
0.000443886
0.000448069
0.000451784
0.000454854
0.000457086
0.000458266
0.000977118
0.000936707
0.00089965
0.000865625
0.000834346
0.000805555
0.000779019
0.000754529
0.000731897
0.000710956
0.000691552
0.000673548
0.000656821
0.000641259
0.000626761
0.000613237
0.000600605
0.000588789
0.000577722
0.000567343
0.000557597
0.000548433
0.000539806
0.000531673
0.000523997
0.000516743
0.00050988
0.000503378
0.000497212
0.000491356
0.00048579
0.000480492
0.000475443
0.000470628
0.000466029
0.000461633
0.000457425
0.000453395
0.000449529
0.000445819
0.000442254
0.000438825
0.000435524
0.000432345
0.000429279
0.000426321
0.000423465
0.000420705
0.000418039
0.000415461
0.000412968
0.000410557
0.000408226
0.000405973
0.000403797
0.000401698
0.000399674
0.000397728
0.000395861
0.000394074
0.000392372
0.000390757
0.000389235
0.000387811
0.000386492
0.000385285
0.0003842
0.000383246
0.000382434
0.000381776
0.000381285
0.000380974
0.000380858
0.000380953
0.000381273
0.000381834
0.000382652
0.000383742
0.000385118
0.000386791
0.000388773
0.000391071
0.00039369
0.000396629
0.000399883
0.000403444
0.000407295
0.000411411
0.000415762
0.000420307
0.000424995
0.000429764
0.000434539
0.00043923
0.00044373
0.000447913
0.000451626
0.000454697
0.000456929
0.000458109
0.000977118
0.000936707
0.00089965
0.000865626
0.000834347
0.000805556
0.000779019
0.00075453
0.000731898
0.000710957
0.000691553
0.000673549
0.000656822
0.000641261
0.000626763
0.00061324
0.000600607
0.000588791
0.000577724
0.000567346
0.0005576
0.000548436
0.000539809
0.000531677
0.000524001
0.000516747
0.000509884
0.000503383
0.000497216
0.000491361
0.000485795
0.000480497
0.000475449
0.000470633
0.000466035
0.000461639
0.000457432
0.000453402
0.000449537
0.000445826
0.000442262
0.000438833
0.000435533
0.000432353
0.000429288
0.00042633
0.000423475
0.000420716
0.00041805
0.000415472
0.000412979
0.000410569
0.000408238
0.000405985
0.00040381
0.00040171
0.000399687
0.000397741
0.000395873
0.000394087
0.000392384
0.000390768
0.000389245
0.00038782
0.0003865
0.000385292
0.000384206
0.00038325
0.000382435
0.000381774
0.00038128
0.000380965
0.000380845
0.000380934
0.000381249
0.000381804
0.000382616
0.000383698
0.000385066
0.000386731
0.000388705
0.000390994
0.000393603
0.000396532
0.000399777
0.000403329
0.00040717
0.000411278
0.000415621
0.000420158
0.00042484
0.000429603
0.000434374
0.000439061
0.000443558
0.000447739
0.000451452
0.000454522
0.000456754
0.000457934
0.000977118
0.000936707
0.00089965
0.000865626
0.000834347
0.000805556
0.00077902
0.00075453
0.000731899
0.000710958
0.000691554
0.000673551
0.000656824
0.000641263
0.000626765
0.000613242
0.000600609
0.000588794
0.000577727
0.000567349
0.000557603
0.00054844
0.000539813
0.00053168
0.000524005
0.000516752
0.000509889
0.000503387
0.000497221
0.000491366
0.0004858
0.000480503
0.000475455
0.00047064
0.000466042
0.000461646
0.000457439
0.000453409
0.000449545
0.000445835
0.00044227
0.000438842
0.000435542
0.000432363
0.000429298
0.000426341
0.000423486
0.000420727
0.000418062
0.000415484
0.000412992
0.000410582
0.000408251
0.000405999
0.000403823
0.000401724
0.000399701
0.000397755
0.000395887
0.0003941
0.000392397
0.000390781
0.000389257
0.000387831
0.00038651
0.000385301
0.000384212
0.000383254
0.000382437
0.000381773
0.000381275
0.000380956
0.000380831
0.000380915
0.000381224
0.000381772
0.000382577
0.000383651
0.000385011
0.000386667
0.000388631
0.00039091
0.000393509
0.000396428
0.000399663
0.000403204
0.000407035
0.000411133
0.000415467
0.000419996
0.000424671
0.000429428
0.000434193
0.000438876
0.000443371
0.000447549
0.000451261
0.000454331
0.000456563
0.000457742
0.000977118
0.000936707
0.00089965
0.000865626
0.000834348
0.000805557
0.000779021
0.000754531
0.000731901
0.000710959
0.000691556
0.000673552
0.000656826
0.000641265
0.000626768
0.000613244
0.000600612
0.000588796
0.00057773
0.000567352
0.000557607
0.000548443
0.000539817
0.000531685
0.000524009
0.000516756
0.000509894
0.000503393
0.000497227
0.000491372
0.000485806
0.000480509
0.000475462
0.000470647
0.000466049
0.000461654
0.000457447
0.000453418
0.000449553
0.000445844
0.00044228
0.000438852
0.000435553
0.000432374
0.00042931
0.000426353
0.000423498
0.00042074
0.000418075
0.000415498
0.000413006
0.000410596
0.000408266
0.000406014
0.000403838
0.000401739
0.000399716
0.00039777
0.000395902
0.000394115
0.000392411
0.000390795
0.000389271
0.000387844
0.000386521
0.00038531
0.000384219
0.000383259
0.000382439
0.000381772
0.00038127
0.000380946
0.000380817
0.000380895
0.000381197
0.000381739
0.000382535
0.000383602
0.000384952
0.000386599
0.000388552
0.000390821
0.000393409
0.000396316
0.00039954
0.00040307
0.000406891
0.000410979
0.000415303
0.000419823
0.000424489
0.00042924
0.000433999
0.000438677
0.000443169
0.000447345
0.000451056
0.000454125
0.000456357
0.000457536
0.000977118
0.000936707
0.00089965
0.000865627
0.000834348
0.000805557
0.000779022
0.000754532
0.000731902
0.000710961
0.000691557
0.000673554
0.000656828
0.000641267
0.00062677
0.000613247
0.000600615
0.000588799
0.000577733
0.000567355
0.00055761
0.000548447
0.000539821
0.000531689
0.000524014
0.000516761
0.000509899
0.000503398
0.000497233
0.000491378
0.000485813
0.000480516
0.000475469
0.000470654
0.000466057
0.000461662
0.000457456
0.000453427
0.000449563
0.000445854
0.00044229
0.000438863
0.000435564
0.000432386
0.000429322
0.000426365
0.000423511
0.000420754
0.000418089
0.000415512
0.000413021
0.000410611
0.000408281
0.00040603
0.000403855
0.000401756
0.000399733
0.000397787
0.000395919
0.000394132
0.000392427
0.00039081
0.000389285
0.000387857
0.000386533
0.00038532
0.000384228
0.000383265
0.000382442
0.000381771
0.000381265
0.000380937
0.000380802
0.000380874
0.00038117
0.000381704
0.000382493
0.00038355
0.000384891
0.000386527
0.00038847
0.000390727
0.000393303
0.000396199
0.000399411
0.000402929
0.000406738
0.000410815
0.000415129
0.00041964
0.000424297
0.00042904
0.000433793
0.000438467
0.000442954
0.000447128
0.000450837
0.000453905
0.000456137
0.000457316
0.000977118
0.000936708
0.000899651
0.000865627
0.000834349
0.000805558
0.000779022
0.000754533
0.000731903
0.000710962
0.000691559
0.000673556
0.00065683
0.000641269
0.000626772
0.000613249
0.000600617
0.000588802
0.000577737
0.000567359
0.000557614
0.000548451
0.000539825
0.000531694
0.000524019
0.000516766
0.000509904
0.000503404
0.000497239
0.000491385
0.00048582
0.000480523
0.000475476
0.000470662
0.000466065
0.000461671
0.000457465
0.000453436
0.000449573
0.000445865
0.000442301
0.000438875
0.000435576
0.000432398
0.000429335
0.000426379
0.000423525
0.000420768
0.000418104
0.000415528
0.000413037
0.000410628
0.000408298
0.000406047
0.000403872
0.000401773
0.000399751
0.000397805
0.000395937
0.000394149
0.000392445
0.000390827
0.000389301
0.000387872
0.000386546
0.000385332
0.000384237
0.000383271
0.000382446
0.000381771
0.000381261
0.000380928
0.000380787
0.000380854
0.000381142
0.000381668
0.000382448
0.000383497
0.000384827
0.000386453
0.000388384
0.00039063
0.000393194
0.000396077
0.000399276
0.000402782
0.000406579
0.000410644
0.000414947
0.000419448
0.000424096
0.00042883
0.000433576
0.000438245
0.000442728
0.000446899
0.000450606
0.000453673
0.000455904
0.000457084
0.000977118
0.000936708
0.000899651
0.000865627
0.000834349
0.000805559
0.000779023
0.000754534
0.000731904
0.000710963
0.00069156
0.000673558
0.000656832
0.000641271
0.000626775
0.000613252
0.00060062
0.000588806
0.00057774
0.000567363
0.000557618
0.000548456
0.00053983
0.000531698
0.000524024
0.000516772
0.00050991
0.00050341
0.000497245
0.000491392
0.000485827
0.000480531
0.000475484
0.000470671
0.000466074
0.00046168
0.000457475
0.000453447
0.000449584
0.000445876
0.000442313
0.000438887
0.000435589
0.000432412
0.000429348
0.000426393
0.00042354
0.000420783
0.000418119
0.000415544
0.000413053
0.000410645
0.000408316
0.000406065
0.000403891
0.000401792
0.00039977
0.000397824
0.000395956
0.000394168
0.000392463
0.000390845
0.000389318
0.000387888
0.000386561
0.000385344
0.000384247
0.000383279
0.00038245
0.000381772
0.000381257
0.000380919
0.000380773
0.000380833
0.000381114
0.000381632
0.000382403
0.000383442
0.000384762
0.000386376
0.000388296
0.000390529
0.00039308
0.000395951
0.000399137
0.00040263
0.000406414
0.000410467
0.000414758
0.000419248
0.000423886
0.000428612
0.000433351
0.000438013
0.000442492
0.000446659
0.000450364
0.00045343
0.000455661
0.00045684
0.000977118
0.000936708
0.000899651
0.000865627
0.00083435
0.000805559
0.000779024
0.000754535
0.000731905
0.000710965
0.000691562
0.000673559
0.000656834
0.000641273
0.000626777
0.000613255
0.000600623
0.000588809
0.000577743
0.000567366
0.000557622
0.00054846
0.000539834
0.000531703
0.000524029
0.000516777
0.000509916
0.000503416
0.000497252
0.000491399
0.000485834
0.000480538
0.000475493
0.000470679
0.000466083
0.00046169
0.000457485
0.000453457
0.000449595
0.000445887
0.000442325
0.000438899
0.000435602
0.000432425
0.000429363
0.000426408
0.000423555
0.0004208
0.000418136
0.000415561
0.000413071
0.000410663
0.000408335
0.000406084
0.00040391
0.000401812
0.00039979
0.000397844
0.000395976
0.000394188
0.000392483
0.000390864
0.000389336
0.000387905
0.000386576
0.000385358
0.000384259
0.000383288
0.000382455
0.000381773
0.000381254
0.000380911
0.000380759
0.000380812
0.000381085
0.000381595
0.000382357
0.000383386
0.000384695
0.000386298
0.000388206
0.000390426
0.000392964
0.000395821
0.000398993
0.000402473
0.000406244
0.000410284
0.000414563
0.000419041
0.000423669
0.000428386
0.000433117
0.000437773
0.000442247
0.00044641
0.000450112
0.000453177
0.000455407
0.000456587
0.000977118
0.000936708
0.000899651
0.000865628
0.00083435
0.00080556
0.000779024
0.000754536
0.000731906
0.000710966
0.000691563
0.000673561
0.000656835
0.000641275
0.000626779
0.000613257
0.000600626
0.000588812
0.000577747
0.00056737
0.000557626
0.000548464
0.000539839
0.000531708
0.000524035
0.000516783
0.000509922
0.000503423
0.000497259
0.000491406
0.000485842
0.000480547
0.000475501
0.000470689
0.000466093
0.0004617
0.000457496
0.000453468
0.000449606
0.000445899
0.000442338
0.000438913
0.000435616
0.00043244
0.000429378
0.000426424
0.000423572
0.000420816
0.000418154
0.000415579
0.00041309
0.000410682
0.000408355
0.000406104
0.000403931
0.000401833
0.000399811
0.000397865
0.000395997
0.000394209
0.000392503
0.000390884
0.000389355
0.000387923
0.000386593
0.000385373
0.000384271
0.000383297
0.000382461
0.000381775
0.000381251
0.000380903
0.000380745
0.000380791
0.000381057
0.000381558
0.000382311
0.000383329
0.000384627
0.000386219
0.000388114
0.000390321
0.000392845
0.000395688
0.000398847
0.000402312
0.000406069
0.000410096
0.000414362
0.000418829
0.000423447
0.000428154
0.000432877
0.000437526
0.000441994
0.000446154
0.000449853
0.000452916
0.000455146
0.000456325
0.000977118
0.000936708
0.000899651
0.000865628
0.00083435
0.00080556
0.000779025
0.000754537
0.000731907
0.000710967
0.000691565
0.000673563
0.000656837
0.000641277
0.000626782
0.00061326
0.000600629
0.000588815
0.000577751
0.000567374
0.00055763
0.000548469
0.000539844
0.000531714
0.00052404
0.000516789
0.000509928
0.00050343
0.000497266
0.000491414
0.00048585
0.000480555
0.00047551
0.000470698
0.000466103
0.00046171
0.000457506
0.00045348
0.000449618
0.000445912
0.000442351
0.000438926
0.00043563
0.000432455
0.000429393
0.00042644
0.000423588
0.000420834
0.000418172
0.000415598
0.000413109
0.000410702
0.000408375
0.000406125
0.000403952
0.000401855
0.000399833
0.000397887
0.000396019
0.000394231
0.000392525
0.000390905
0.000389375
0.000387941
0.00038661
0.000385388
0.000384284
0.000383307
0.000382468
0.000381778
0.00038125
0.000380896
0.000380731
0.00038077
0.000381029
0.000381521
0.000382264
0.000383272
0.000384559
0.000386138
0.00038802
0.000390214
0.000392725
0.000395554
0.000398698
0.000402149
0.000405892
0.000409905
0.000414158
0.000418613
0.000423219
0.000427917
0.000432631
0.000437272
0.000441735
0.00044589
0.000449587
0.000452648
0.000454877
0.000456056
0.000977118
0.000936708
0.000899652
0.000865628
0.000834351
0.000805561
0.000779026
0.000754538
0.000731908
0.000710968
0.000691566
0.000673564
0.000656839
0.00064128
0.000626784
0.000613263
0.000600632
0.000588818
0.000577754
0.000567378
0.000557635
0.000548473
0.000539849
0.000531719
0.000524046
0.000516795
0.000509935
0.000503436
0.000497273
0.000491421
0.000485858
0.000480564
0.000475519
0.000470707
0.000466113
0.000461721
0.000457518
0.000453491
0.000449631
0.000445925
0.000442364
0.00043894
0.000435645
0.00043247
0.000429409
0.000426457
0.000423606
0.000420852
0.00041819
0.000415617
0.000413129
0.000410723
0.000408396
0.000406147
0.000403974
0.000401877
0.000399855
0.00039791
0.000396042
0.000394253
0.000392547
0.000390926
0.000389396
0.000387961
0.000386628
0.000385404
0.000384298
0.000383318
0.000382476
0.000381782
0.000381248
0.000380889
0.000380718
0.00038075
0.000381001
0.000381485
0.000382218
0.000383215
0.000384491
0.000386057
0.000387927
0.000390107
0.000392603
0.000395418
0.000398547
0.000401983
0.000405712
0.000409711
0.000413951
0.000418393
0.000422988
0.000427675
0.00043238
0.000437014
0.000441471
0.000445622
0.000449315
0.000452374
0.000454602
0.000455781
0.000977118
0.000936708
0.000899652
0.000865629
0.000834351
0.000805561
0.000779026
0.000754538
0.000731909
0.000710969
0.000691567
0.000673566
0.000656841
0.000641282
0.000626787
0.000613265
0.000600635
0.000588822
0.000577758
0.000567382
0.000557639
0.000548478
0.000539854
0.000531724
0.000524052
0.000516801
0.000509941
0.000503443
0.000497281
0.000491429
0.000485866
0.000480572
0.000475528
0.000470717
0.000466123
0.000461731
0.000457529
0.000453503
0.000449643
0.000445938
0.000442378
0.000438955
0.00043566
0.000432486
0.000429426
0.000426474
0.000423623
0.00042087
0.00041821
0.000415637
0.00041315
0.000410744
0.000408418
0.000406169
0.000403997
0.0004019
0.000399879
0.000397934
0.000396066
0.000394277
0.00039257
0.000390949
0.000389418
0.000387982
0.000386647
0.000385422
0.000384313
0.00038333
0.000382484
0.000381786
0.000381248
0.000380883
0.000380706
0.000380731
0.000380973
0.000381448
0.000382172
0.000383158
0.000384422
0.000385977
0.000387833
0.000389999
0.000392481
0.000395281
0.000398396
0.000401817
0.000405531
0.000409515
0.000413742
0.000418171
0.000422754
0.00042743
0.000432126
0.000436753
0.000441203
0.000445349
0.000449039
0.000452096
0.000454323
0.000455501
0.000977118
0.000936708
0.000899652
0.000865629
0.000834351
0.000805562
0.000779027
0.000754539
0.00073191
0.000710971
0.000691569
0.000673567
0.000656843
0.000641284
0.000626789
0.000613268
0.000600638
0.000588825
0.000577761
0.000567386
0.000557643
0.000548483
0.000539859
0.00053173
0.000524057
0.000516807
0.000509948
0.00050345
0.000497288
0.000491437
0.000485875
0.000480581
0.000475538
0.000470727
0.000466133
0.000461742
0.00045754
0.000453515
0.000449656
0.000445951
0.000442392
0.00043897
0.000435675
0.000432502
0.000429443
0.000426491
0.000423642
0.000420889
0.000418229
0.000415657
0.00041317
0.000410765
0.00040844
0.000406192
0.00040402
0.000401924
0.000399903
0.000397958
0.00039609
0.000394301
0.000392594
0.000390972
0.00038944
0.000388003
0.000386667
0.000385439
0.000384328
0.000383343
0.000382493
0.000381791
0.000381248
0.000380878
0.000380694
0.000380712
0.000380946
0.000381412
0.000382126
0.000383102
0.000384354
0.000385896
0.000387739
0.000389891
0.000392359
0.000395144
0.000398244
0.00040165
0.000405349
0.000409319
0.000413531
0.000417947
0.000422518
0.000427184
0.00043187
0.000436489
0.000440932
0.000445073
0.000448759
0.000451815
0.00045404
0.000455218
0.000977118
0.000936708
0.000899652
0.000865629
0.000834352
0.000805562
0.000779028
0.00075454
0.000731911
0.000710972
0.00069157
0.000673569
0.000656845
0.000641286
0.000626791
0.000613271
0.000600641
0.000588828
0.000577765
0.00056739
0.000557647
0.000548487
0.000539864
0.000531735
0.000524063
0.000516813
0.000509955
0.000503457
0.000497295
0.000491445
0.000485883
0.00048059
0.000475547
0.000470737
0.000466144
0.000461753
0.000457552
0.000453528
0.000449669
0.000445965
0.000442406
0.000438984
0.000435691
0.000432518
0.00042946
0.000426509
0.00042366
0.000420908
0.000418249
0.000415678
0.000413192
0.000410787
0.000408462
0.000406215
0.000404044
0.000401948
0.000399927
0.000397982
0.000396114
0.000394325
0.000392618
0.000390996
0.000389463
0.000388025
0.000386687
0.000385458
0.000384344
0.000383356
0.000382503
0.000381797
0.000381249
0.000380873
0.000380683
0.000380694
0.00038092
0.000381377
0.000382081
0.000383046
0.000384287
0.000385816
0.000387646
0.000389784
0.000392237
0.000395007
0.000398092
0.000401483
0.000405167
0.000409122
0.00041332
0.000417723
0.000422282
0.000426936
0.000431613
0.000436223
0.00044066
0.000444795
0.000448478
0.000451531
0.000453755
0.000454933
0.000977118
0.000936708
0.000899652
0.000865629
0.000834352
0.000805563
0.000779028
0.000754541
0.000731912
0.000710973
0.000691571
0.000673571
0.000656847
0.000641288
0.000626794
0.000613273
0.000600644
0.000588831
0.000577768
0.000567393
0.000557651
0.000548492
0.000539868
0.00053174
0.000524069
0.00051682
0.000509961
0.000503464
0.000497303
0.000491453
0.000485892
0.000480599
0.000475557
0.000470747
0.000466155
0.000461765
0.000457564
0.00045354
0.000449682
0.000445979
0.000442421
0.000438999
0.000435707
0.000432535
0.000429477
0.000426527
0.000423679
0.000420928
0.000418269
0.000415699
0.000413213
0.00041081
0.000408485
0.000406238
0.000404068
0.000401972
0.000399952
0.000398007
0.000396139
0.00039435
0.000392643
0.00039102
0.000389486
0.000388047
0.000386708
0.000385477
0.000384361
0.00038337
0.000382513
0.000381803
0.00038125
0.000380869
0.000380673
0.000380677
0.000380895
0.000381343
0.000382037
0.000382991
0.00038422
0.000385737
0.000387553
0.000389678
0.000392117
0.000394872
0.000397941
0.000401317
0.000404985
0.000408926
0.00041311
0.0004175
0.000422046
0.000426689
0.000431356
0.000435957
0.000440387
0.000444517
0.000448195
0.000451246
0.000453469
0.000454646
0.000977118
0.000936708
0.000899652
0.000865629
0.000834352
0.000805563
0.000779029
0.000754541
0.000731913
0.000710974
0.000691573
0.000673572
0.000656848
0.00064129
0.000626796
0.000613276
0.000600647
0.000588835
0.000577772
0.000567397
0.000557656
0.000548496
0.000539873
0.000531745
0.000524074
0.000516826
0.000509968
0.000503471
0.00049731
0.000491461
0.0004859
0.000480608
0.000475566
0.000470757
0.000466165
0.000461776
0.000457576
0.000453552
0.000449695
0.000445992
0.000442435
0.000439015
0.000435722
0.000432551
0.000429494
0.000426545
0.000423697
0.000420947
0.000418289
0.00041572
0.000413235
0.000410832
0.000408508
0.000406262
0.000404092
0.000401997
0.000399977
0.000398032
0.000396165
0.000394376
0.000392668
0.000391045
0.00038951
0.00038807
0.000386729
0.000385496
0.000384378
0.000383384
0.000382524
0.00038181
0.000381252
0.000380866
0.000380663
0.00038066
0.00038087
0.00038131
0.000381994
0.000382937
0.000384155
0.000385659
0.000387462
0.000389573
0.000391997
0.000394737
0.000397791
0.000401152
0.000404805
0.000408731
0.000412901
0.000417277
0.000421811
0.000426442
0.000431099
0.000435692
0.000440114
0.000444239
0.000447913
0.000450961
0.000453183
0.00045436
0.000977118
0.000936708
0.000899652
0.00086563
0.000834353
0.000805563
0.000779029
0.000754542
0.000731913
0.000710975
0.000691574
0.000673573
0.00065685
0.000641292
0.000626798
0.000613278
0.000600649
0.000588838
0.000577775
0.000567401
0.00055766
0.000548501
0.000539878
0.000531751
0.00052408
0.000516832
0.000509974
0.000503478
0.000497318
0.000491469
0.000485908
0.000480617
0.000475576
0.000470767
0.000466176
0.000461787
0.000457587
0.000453565
0.000449708
0.000446006
0.000442449
0.00043903
0.000435738
0.000432568
0.000429511
0.000426563
0.000423716
0.000420967
0.000418309
0.000415741
0.000413257
0.000410854
0.000408531
0.000406286
0.000404116
0.000402021
0.000400002
0.000398058
0.00039619
0.000394401
0.000392693
0.000391069
0.000389534
0.000388093
0.000386751
0.000385516
0.000384395
0.000383398
0.000382535
0.000381817
0.000381255
0.000380863
0.000380655
0.000380644
0.000380846
0.000381277
0.000381951
0.000382884
0.00038409
0.000385583
0.000387373
0.000389469
0.000391879
0.000394605
0.000397643
0.000400989
0.000404627
0.000408538
0.000412694
0.000417056
0.000421577
0.000426198
0.000430844
0.000435428
0.000439843
0.000443962
0.000447632
0.000450677
0.000452897
0.000454074
0.000977118
0.000936708
0.000899652
0.00086563
0.000834353
0.000805564
0.00077903
0.000754543
0.000731914
0.000710976
0.000691575
0.000673575
0.000656852
0.000641294
0.0006268
0.00061328
0.000600652
0.000588841
0.000577778
0.000567405
0.000557664
0.000548505
0.000539883
0.000531756
0.000524086
0.000516838
0.00050998
0.000503485
0.000497325
0.000491476
0.000485917
0.000480626
0.000475585
0.000470777
0.000466186
0.000461798
0.000457599
0.000453577
0.000449721
0.00044602
0.000442464
0.000439045
0.000435754
0.000432584
0.000429528
0.000426581
0.000423735
0.000420986
0.00041833
0.000415762
0.000413278
0.000410877
0.000408554
0.000406309
0.00040414
0.000402046
0.000400027
0.000398083
0.000396216
0.000394427
0.000392718
0.000391094
0.000389558
0.000388116
0.000386772