/*--------------------------------*- C++ -*----------------------------------*\
  =========                 |
  \\      /  F ield         | OpenFOAM: The Open Source CFD Toolbox
   \\    /   O peration     | Website:  https://openfoam.org
    \\  /    A nd           | Version:  11
     \\/     M anipulation  |
\*---------------------------------------------------------------------------*/
FoamFile
{
    format      ascii;
    class       volScalarField;
    location    "1408";
    object      p;
}
// * * * * * * * * * * * * * * * * * * * * * * * * * * * * * * * * * * * * * //

dimensions      [0 2 -2 0 0 0 0];

internalField   nonuniform List<scalar> 
10000
(
1.44728e-13
1.40936e-13
1.45702e-13
1.56339e-13
1.68762e-13
1.82028e-13
1.9605e-13
2.10798e-13
2.2626e-13
2.42457e-13
2.59427e-13
2.77215e-13
2.9587e-13
3.15443e-13
3.35987e-13
3.57556e-13
3.80205e-13
4.03989e-13
4.28965e-13
4.55192e-13
4.82728e-13
5.11633e-13
5.41969e-13
5.73797e-13
6.07181e-13
6.42186e-13
6.78876e-13
7.17318e-13
7.5758e-13
7.99729e-13
8.43835e-13
8.89968e-13
9.38197e-13
9.88593e-13
1.04123e-12
1.09617e-12
1.15349e-12
1.21327e-12
1.27556e-12
1.34044e-12
1.40798e-12
1.47824e-12
1.55129e-12
1.62718e-12
1.70597e-12
1.78773e-12
1.8725e-12
1.96032e-12
2.05124e-12
2.14529e-12
2.2425e-12
2.34288e-12
2.44645e-12
2.5532e-12
2.66313e-12
2.7762e-12
2.89238e-12
3.01161e-12
3.13381e-12
3.2589e-12
3.38675e-12
3.51723e-12
3.65016e-12
3.78535e-12
3.92255e-12
4.06151e-12
4.2019e-12
4.34337e-12
4.48551e-12
4.62785e-12
4.76986e-12
4.91093e-12
5.05039e-12
5.18747e-12
5.32131e-12
5.45093e-12
5.57525e-12
5.69304e-12
5.80292e-12
5.90334e-12
5.99256e-12
6.06862e-12
6.1293e-12
6.17205e-12
6.19398e-12
6.1917e-12
6.161e-12
6.09565e-12
5.98694e-12
5.84236e-12
5.6783e-12
5.47357e-12
5.20526e-12
4.87693e-12
4.46834e-12
3.92967e-12
3.23775e-12
2.39193e-12
1.32013e-12
9.9772e-14
2.74384e-13
2.59212e-13
2.49549e-13
2.52914e-13
2.62087e-13
2.74145e-13
2.883e-13
3.0414e-13
3.21402e-13
3.39947e-13
3.59718e-13
3.80695e-13
4.02887e-13
4.26317e-13
4.51021e-13
4.77041e-13
5.04427e-13
5.33231e-13
5.6351e-13
5.95324e-13
6.28735e-13
6.63808e-13
7.00609e-13
7.39207e-13
7.79672e-13
8.22074e-13
8.66488e-13
9.12987e-13
9.61646e-13
1.01254e-12
1.06575e-12
1.12135e-12
1.17942e-12
1.24003e-12
1.30327e-12
1.36922e-12
1.43794e-12
1.50952e-12
1.58403e-12
1.66155e-12
1.74214e-12
1.82587e-12
1.91282e-12
2.00304e-12
2.09659e-12
2.19353e-12
2.2939e-12
2.39774e-12
2.50508e-12
2.61596e-12
2.73038e-12
2.84835e-12
2.96986e-12
3.0949e-12
3.22342e-12
3.35538e-12
3.4907e-12
3.62929e-12
3.77104e-12
3.91581e-12
4.06342e-12
4.21367e-12
4.36634e-12
4.52115e-12
4.67778e-12
4.83587e-12
4.995e-12
5.1547e-12
5.31444e-12
5.4736e-12
5.6315e-12
5.78736e-12
5.94032e-12
6.0894e-12
6.23349e-12
6.37138e-12
6.50169e-12
6.62286e-12
6.73318e-12
6.83071e-12
6.91328e-12
6.97845e-12
7.0235e-12
7.04532e-12
7.04045e-12
7.00499e-12
6.93447e-12
6.82351e-12
6.66739e-12
6.47264e-12
6.23395e-12
5.91168e-12
5.48779e-12
4.97298e-12
4.37861e-12
3.69656e-12
2.87285e-12
1.78376e-12
2.84243e-13
-9.9647e-13
3.39022e-13
3.17353e-13
2.98148e-13
2.92465e-13
2.93955e-13
2.99446e-13
3.07876e-13
3.18615e-13
3.3122e-13
3.45414e-13
3.61031e-13
3.77974e-13
3.96186e-13
4.15641e-13
4.36333e-13
4.5827e-13
4.81471e-13
5.05963e-13
5.3178e-13
5.58958e-13
5.8754e-13
6.17573e-13
6.49102e-13
6.8218e-13
7.16857e-13
7.53189e-13
7.9123e-13
8.31037e-13
8.72668e-13
9.16181e-13
9.61634e-13
1.00909e-12
1.0586e-12
1.11023e-12
1.16404e-12
1.22008e-12
1.27842e-12
1.33911e-12
1.4022e-12
1.46775e-12
1.5358e-12
1.60641e-12
1.67962e-12
1.75547e-12
1.834e-12
1.91523e-12
1.9992e-12
2.08592e-12
2.1754e-12
2.26765e-12
2.36266e-12
2.46042e-12
2.5609e-12
2.66406e-12
2.76985e-12
2.87819e-12
2.989e-12
3.10218e-12
3.21759e-12
3.33508e-12
3.45448e-12
3.57558e-12
3.69814e-12
3.82189e-12
3.94652e-12
4.07166e-12
4.19693e-12
4.32186e-12
4.44594e-12
4.5686e-12
4.68919e-12
4.80698e-12
4.92116e-12
5.03082e-12
5.13496e-12
5.23243e-12
5.32198e-12
5.40219e-12
5.47151e-12
5.52817e-12
5.57023e-12
5.59552e-12
5.60162e-12
5.58584e-12
5.54521e-12
5.4765e-12
5.37623e-12
5.24074e-12
5.06699e-12
4.85587e-12
4.60528e-12
4.29733e-12
3.91213e-12
3.44071e-12
2.86953e-12
2.17985e-12
1.35081e-12
2.87826e-13
-1.14493e-12
-2.06913e-12
3.95184e-13
3.71386e-13
3.5025e-13
3.41027e-13
3.38699e-13
3.40691e-13
3.46032e-13
3.54062e-13
3.64282e-13
3.76358e-13
3.90068e-13
4.05265e-13
4.21856e-13
4.3978e-13
4.59005e-13
4.79516e-13
5.01312e-13
5.24404e-13
5.48811e-13
5.74556e-13
6.01672e-13
6.30192e-13
6.60154e-13
6.916e-13
7.24571e-13
7.59113e-13
7.95273e-13
8.33099e-13
8.72639e-13
9.13943e-13
9.57061e-13
1.00204e-12
1.04894e-12
1.0978e-12
1.14867e-12
1.20161e-12
1.25666e-12
1.31386e-12
1.37326e-12
1.43489e-12
1.49881e-12
1.56505e-12
1.63363e-12
1.70459e-12
1.77794e-12
1.85372e-12
1.93192e-12
2.01255e-12
2.09562e-12
2.18111e-12
2.26899e-12
2.35925e-12
2.45183e-12
2.54668e-12
2.64372e-12
2.74288e-12
2.84404e-12
2.94708e-12
3.05186e-12
3.15821e-12
3.26592e-12
3.37478e-12
3.48453e-12
3.59488e-12
3.70549e-12
3.81599e-12
3.92596e-12
4.03493e-12
4.14237e-12
4.24768e-12
4.3502e-12
4.44919e-12
4.54383e-12
4.6332e-12
4.71627e-12
4.79191e-12
4.85885e-12
4.9157e-12
4.96089e-12
4.9927e-12
5.0092e-12
5.00828e-12
4.9876e-12
4.94455e-12
4.87631e-12
4.77979e-12
4.65171e-12
4.48856e-12
4.28681e-12
4.04358e-12
3.75441e-12
3.40865e-12
2.99282e-12
2.49558e-12
1.90368e-12
1.20623e-12
3.92023e-13
-6.4621e-13
-2.08164e-12
-2.77883e-12
4.43835e-13
4.20221e-13
3.99407e-13
3.88828e-13
3.84492e-13
3.84433e-13
3.87856e-13
3.94156e-13
4.02848e-13
4.13582e-13
4.26114e-13
4.40275e-13
4.55945e-13
4.73045e-13
4.91521e-13
5.11344e-13
5.32498e-13
5.54981e-13
5.78801e-13
6.03974e-13
6.3052e-13
6.58466e-13
6.87843e-13
7.18684e-13
7.51026e-13
7.84906e-13
8.20367e-13
8.57448e-13
8.96193e-13
9.36644e-13
9.78846e-13
1.02284e-12
1.06868e-12
1.11639e-12
1.16603e-12
1.21763e-12
1.27124e-12
1.32689e-12
1.38461e-12
1.44445e-12
1.50642e-12
1.57057e-12
1.6369e-12
1.70544e-12
1.77621e-12
1.8492e-12
1.92442e-12
2.00186e-12
2.08151e-12
2.16334e-12
2.24732e-12
2.33341e-12
2.42154e-12
2.51164e-12
2.60363e-12
2.6974e-12
2.79284e-12
2.8898e-12
2.98811e-12
3.0876e-12
3.18803e-12
3.28917e-12
3.39073e-12
3.49242e-12
3.59386e-12
3.69466e-12
3.79438e-12
3.89253e-12
3.98853e-12
4.08179e-12
4.1716e-12
4.25721e-12
4.33776e-12
4.4123e-12
4.4798e-12
4.53908e-12
4.58888e-12
4.62776e-12
4.65415e-12
4.66631e-12
4.66234e-12
4.6401e-12
4.59727e-12
4.5313e-12
4.43939e-12
4.3185e-12
4.16533e-12
3.97629e-12
3.74753e-12
3.47487e-12
3.15289e-12
2.77334e-12
2.32649e-12
1.80276e-12
1.19246e-12
4.91689e-13
-3.0438e-13
-1.32073e-12
-2.80928e-12
-3.25088e-12
4.85151e-13
4.62642e-13
4.42604e-13
4.31406e-13
4.25795e-13
4.24255e-13
4.26169e-13
4.31015e-13
4.38347e-13
4.4783e-13
4.59216e-13
4.72326e-13
4.87026e-13
5.03224e-13
5.20852e-13
5.39869e-13
5.60247e-13
5.81973e-13
6.05046e-13
6.29472e-13
6.55265e-13
6.82442e-13
7.11027e-13
7.41047e-13
7.72531e-13
8.05512e-13
8.40023e-13
8.76099e-13
9.13777e-13
9.53092e-13
9.94084e-13
1.03679e-12
1.08124e-12
1.12748e-12
1.17554e-12
1.22545e-12
1.27725e-12
1.33096e-12
1.38662e-12
1.44425e-12
1.50387e-12
1.56549e-12
1.62913e-12
1.6948e-12
1.76251e-12
1.83224e-12
1.90399e-12
1.97773e-12
2.05345e-12
2.13111e-12
2.21065e-12
2.29202e-12
2.37516e-12
2.45997e-12
2.54635e-12
2.63418e-12
2.72334e-12
2.81365e-12
2.90494e-12
2.99701e-12
3.08962e-12
3.18251e-12
3.27539e-12
3.36791e-12
3.45972e-12
3.55039e-12
3.63946e-12
3.72642e-12
3.8107e-12
3.89165e-12
3.96858e-12
4.0407e-12
4.10714e-12
4.16696e-12
4.21909e-12
4.26237e-12
4.29551e-12
4.31708e-12
4.32553e-12
4.31914e-12
4.296e-12
4.25404e-12
4.19098e-12
4.10432e-12
3.99135e-12
3.84908e-12
3.67429e-12
3.46344e-12
3.21266e-12
2.91761e-12
2.57304e-12
2.17226e-12
1.70776e-12
1.17182e-12
5.57499e-13
-1.33864e-13
-8.99598e-13
-1.87244e-12
-3.37e-12
-3.60081e-12
5.21287e-13
5.00102e-13
4.81021e-13
4.69654e-13
4.63274e-13
4.60695e-13
4.61446e-13
4.65096e-13
4.71253e-13
4.79607e-13
4.89923e-13
5.02018e-13
5.15755e-13
5.31034e-13
5.47778e-13
5.65937e-13
5.85474e-13
6.06368e-13
6.28609e-13
6.52195e-13
6.77132e-13
7.03432e-13
7.3111e-13
7.60188e-13
7.90688e-13
8.22635e-13
8.56058e-13
8.90985e-13
9.27446e-13
9.65471e-13
1.00509e-12
1.04634e-12
1.08924e-12
1.13383e-12
1.18013e-12
1.22816e-12
1.27797e-12
1.32956e-12
1.38295e-12
1.43816e-12
1.49521e-12
1.55411e-12
1.61485e-12
1.67744e-12
1.74186e-12
1.80811e-12
1.87617e-12
1.946e-12
2.01757e-12
2.09083e-12
2.16573e-12
2.24218e-12
2.32011e-12
2.39942e-12
2.48e-12
2.56171e-12
2.64441e-12
2.72792e-12
2.81205e-12
2.89658e-12
2.98126e-12
3.06582e-12
3.14994e-12
3.23328e-12
3.31546e-12
3.39604e-12
3.47455e-12
3.55047e-12
3.6232e-12
3.69211e-12
3.75647e-12
3.8155e-12
3.86833e-12
3.91401e-12
3.95147e-12
3.97955e-12
3.99698e-12
4.00235e-12
3.99413e-12
3.97062e-12
3.92997e-12
3.87017e-12
3.789e-12
3.68406e-12
3.55271e-12
3.3921e-12
3.19913e-12
2.97042e-12
2.70224e-12
2.39048e-12
2.03042e-12
1.61663e-12
1.1432e-12
6.04032e-13
-5.8242e-15
-6.81537e-13
-1.41554e-12
-2.34628e-12
-3.82601e-12
-3.93801e-12
5.53714e-13
5.33838e-13
5.15763e-13
5.04514e-13
4.97731e-13
4.94461e-13
4.94354e-13
4.9706e-13
5.02241e-13
5.09623e-13
5.18984e-13
5.30151e-13
5.42988e-13
5.5739e-13
5.73278e-13
5.90594e-13
6.09295e-13
6.29353e-13
6.50753e-13
6.73484e-13
6.97548e-13
7.22948e-13
7.49696e-13
7.77804e-13
8.07291e-13
8.38176e-13
8.7048e-13
9.04227e-13
9.3944e-13
9.76144e-13
1.01436e-12
1.05412e-12
1.09544e-12
1.13835e-12
1.18286e-12
1.229e-12
1.27679e-12
1.32623e-12
1.37734e-12
1.43013e-12
1.48461e-12
1.54077e-12
1.59861e-12
1.65812e-12
1.71928e-12
1.78207e-12
1.84647e-12
1.91242e-12
1.97989e-12
2.04881e-12
2.11912e-12
2.19074e-12
2.26356e-12
2.33749e-12
2.41239e-12
2.48813e-12
2.56453e-12
2.64142e-12
2.7186e-12
2.79582e-12
2.87284e-12
2.94935e-12
3.02505e-12
3.09958e-12
3.17253e-12
3.24347e-12
3.31192e-12
3.37734e-12
3.43914e-12
3.49666e-12
3.54919e-12
3.59595e-12
3.63605e-12
3.66856e-12
3.69242e-12
3.70648e-12
3.7095e-12
3.70009e-12
3.67675e-12
3.63784e-12
3.58156e-12
3.50596e-12
3.40892e-12
3.28813e-12
3.14109e-12
2.96509e-12
2.75719e-12
2.5142e-12
2.23268e-12
1.90887e-12
1.53864e-12
1.11753e-12
6.409e-13
1.03893e-13
-4.96968e-13
-1.15472e-12
-1.85967e-12
-2.75924e-12
-4.23694e-12
-4.26142e-12
5.83212e-13
5.64552e-13
5.47447e-13
5.36468e-13
5.29517e-13
5.25805e-13
5.25072e-13
5.27036e-13
5.31413e-13
5.37959e-13
5.46474e-13
5.56797e-13
5.68796e-13
5.82368e-13
5.97431e-13
6.13924e-13
6.318e-13
6.51027e-13
6.71582e-13
6.93452e-13
7.16631e-13
7.41118e-13
7.66917e-13
7.94038e-13
8.22492e-13
8.52293e-13
8.83457e-13
9.16002e-13
9.49945e-13
9.85306e-13
1.0221e-12
1.06035e-12
1.10007e-12
1.14128e-12
1.184e-12
1.22823e-12
1.27398e-12
1.32127e-12
1.3701e-12
1.42047e-12
1.47237e-12
1.52581e-12
1.58076e-12
1.63722e-12
1.69514e-12
1.75452e-12
1.81529e-12
1.87742e-12
1.94085e-12
2.00551e-12
2.07132e-12
2.1382e-12
2.20603e-12
2.2747e-12
2.34407e-12
2.41399e-12
2.48429e-12
2.55477e-12
2.62522e-12
2.6954e-12
2.76504e-12
2.83383e-12
2.90146e-12
2.96755e-12
3.0317e-12
3.09347e-12
3.15237e-12
3.20786e-12
3.25934e-12
3.30616e-12
3.34761e-12
3.3829e-12
3.41117e-12
3.43149e-12
3.44282e-12
3.44403e-12
3.43391e-12
3.41111e-12
3.37417e-12
3.32151e-12
3.2514e-12
3.16198e-12
3.05121e-12
2.9169e-12
2.7567e-12
2.56806e-12
2.34824e-12
2.0943e-12
1.80309e-12
1.47126e-12
1.09525e-12
6.71384e-13
1.95967e-13
-3.34863e-13
-9.2354e-13
-1.56166e-12
-2.23831e-12
-3.10842e-12
-4.57693e-12
-4.51553e-12
6.10259e-13
5.92696e-13
5.76496e-13
5.65861e-13
5.58887e-13
5.54904e-13
5.53716e-13
5.55097e-13
5.58806e-13
5.64631e-13
5.72395e-13
5.81947e-13
5.93165e-13
6.05948e-13
6.20216e-13
6.35906e-13
6.52969e-13
6.71368e-13
6.91077e-13
7.12079e-13
7.34362e-13
7.57921e-13
7.82757e-13
8.08871e-13
8.36272e-13
8.64969e-13
8.94971e-13
9.26291e-13
9.58942e-13
9.92937e-13
1.02829e-12
1.06501e-12
1.10312e-12
1.14261e-12
1.18351e-12
1.22581e-12
1.26953e-12
1.31466e-12
1.36119e-12
1.40914e-12
1.45848e-12
1.5092e-12
1.56128e-12
1.6147e-12
1.66942e-12
1.7254e-12
1.7826e-12
1.84096e-12
1.90041e-12
1.96088e-12
2.02228e-12
2.08451e-12
2.14746e-12
2.211e-12
2.27498e-12
2.33925e-12
2.40362e-12
2.4679e-12
2.53185e-12
2.59523e-12
2.65776e-12
2.71914e-12
2.77903e-12
2.83707e-12
2.89284e-12
2.94589e-12
2.99574e-12
3.04184e-12
3.08361e-12
3.12039e-12
3.15148e-12
3.1761e-12
3.1934e-12
3.20247e-12
3.2023e-12
3.19179e-12
3.16976e-12
3.1349e-12
3.08581e-12
3.02098e-12
2.93875e-12
2.83735e-12
2.71486e-12
2.56922e-12
2.39822e-12
2.19949e-12
1.97052e-12
1.70861e-12
1.41094e-12
1.07455e-12
6.96404e-13
2.73461e-13
-1.97245e-13
-7.18825e-13
-1.29295e-12
-1.91021e-12
-2.55883e-12
-3.39932e-12
-4.85155e-12
-4.71257e-12
6.35185e-13
6.18607e-13
6.0324e-13
5.9298e-13
5.86075e-13
5.81938e-13
5.80421e-13
5.81341e-13
5.84493e-13
5.89694e-13
5.96787e-13
6.05636e-13
6.16126e-13
6.28161e-13
6.41664e-13
6.56572e-13
6.72834e-13
6.90412e-13
7.09277e-13
7.29408e-13
7.50789e-13
7.73411e-13
7.97271e-13
8.22366e-13
8.48699e-13
8.76274e-13
9.05098e-13
9.35177e-13
9.6652e-13
9.99133e-13
1.03303e-12
1.06821e-12
1.10468e-12
1.14245e-12
1.18152e-12
1.22189e-12
1.26356e-12
1.30653e-12
1.35078e-12
1.39631e-12
1.4431e-12
1.49112e-12
1.54035e-12
1.59076e-12
1.64231e-12
1.69494e-12
1.74862e-12
1.80326e-12
1.8588e-12
1.91517e-12
1.97225e-12
2.02994e-12
2.08813e-12
2.14667e-12
2.20542e-12
2.26421e-12
2.32284e-12
2.38112e-12
2.43881e-12
2.49565e-12
2.55136e-12
2.60565e-12
2.65815e-12
2.70851e-12
2.75632e-12
2.80112e-12
2.84242e-12
2.87969e-12
2.91235e-12
2.93975e-12
2.96119e-12
2.97592e-12
2.98311e-12
2.98186e-12
2.97119e-12
2.95005e-12
2.91728e-12
2.87165e-12
2.81181e-12
2.73631e-12
2.64359e-12
2.53197e-12
2.39964e-12
2.2447e-12
2.06507e-12
1.85859e-12
1.62295e-12
1.35572e-12
1.0544e-12
7.16397e-13
3.39105e-13
-7.998e-14
-5.43255e-13
-1.05326e-12
-1.61113e-12
-2.2067e-12
-2.82764e-12
-3.63852e-12
-5.06995e-12
-4.86349e-12
6.5823e-13
6.42538e-13
6.27937e-13
6.18062e-13
6.11282e-13
6.07072e-13
6.05318e-13
6.0587e-13
6.08555e-13
6.13214e-13
6.19707e-13
6.27911e-13
6.3772e-13
6.49047e-13
6.61814e-13
6.75962e-13
6.9144e-13
7.08207e-13
7.26233e-13
7.45493e-13
7.6597e-13
7.87651e-13
8.10528e-13
8.34595e-13
8.5985e-13
8.86295e-13
9.13929e-13
9.42756e-13
9.72779e-13
1.004e-12
1.03643e-12
1.07006e-12
1.10489e-12
1.14093e-12
1.17817e-12
1.21661e-12
1.25625e-12
1.29706e-12
1.33904e-12
1.38216e-12
1.42641e-12
1.47176e-12
1.51818e-12
1.56562e-12
1.61403e-12
1.66338e-12
1.71359e-12
1.76459e-12
1.81631e-12
1.86865e-12
1.92152e-12
1.97479e-12
2.02835e-12
2.08205e-12
2.13572e-12
2.18921e-12
2.24231e-12
2.29481e-12
2.34648e-12
2.39705e-12
2.44625e-12
2.49375e-12
2.53923e-12
2.58231e-12
2.62257e-12
2.65958e-12
2.69285e-12
2.72184e-12
2.74598e-12
2.76465e-12
2.77715e-12
2.78276e-12
2.78067e-12
2.77e-12
2.74982e-12
2.7191e-12
2.67674e-12
2.62157e-12
2.5523e-12
2.46755e-12
2.36587e-12
2.24566e-12
2.10526e-12
1.94288e-12
1.75662e-12
1.54449e-12
1.30441e-12
1.03421e-12
7.31659e-13
3.94501e-13
2.05236e-14
-3.92355e-13
-8.46081e-13
-1.34277e-12
-1.88312e-12
-2.45651e-12
-3.05016e-12
-3.83151e-12
-5.23857e-12
-4.97417e-12
6.79572e-13
6.64684e-13
6.50792e-13
6.413e-13
6.34678e-13
6.3045e-13
6.28527e-13
6.28785e-13
6.31074e-13
6.35256e-13
6.41208e-13
6.4882e-13
6.57994e-13
6.68647e-13
6.80709e-13
6.94119e-13
7.08829e-13
7.24797e-13
7.41992e-13
7.60387e-13
7.79961e-13
8.007e-13
8.22591e-13
8.45625e-13
8.69798e-13
8.95106e-13
9.21545e-13
9.49114e-13
9.77813e-13
1.00764e-12
1.03859e-12
1.07067e-12
1.10387e-12
1.13818e-12
1.1736e-12
1.21012e-12
1.24772e-12
1.28639e-12
1.32611e-12
1.36686e-12
1.4086e-12
1.45131e-12
1.49495e-12
1.53946e-12
1.58481e-12
1.63092e-12
1.67774e-12
1.72518e-12
1.77316e-12
1.82158e-12
1.87034e-12
1.91932e-12
1.96839e-12
2.01739e-12
2.06617e-12
2.11454e-12
2.16231e-12
2.20927e-12
2.25517e-12
2.29975e-12
2.34272e-12
2.38379e-12
2.4226e-12
2.45878e-12
2.49193e-12
2.52161e-12
2.54734e-12
2.5686e-12
2.58482e-12
2.5954e-12
2.59967e-12
2.5969e-12
2.58633e-12
2.56712e-12
2.53836e-12
2.49908e-12
2.44823e-12
2.38468e-12
2.30723e-12
2.21458e-12
2.10536e-12
1.9781e-12
1.83123e-12
1.66313e-12
1.47204e-12
1.25617e-12
1.01362e-12
7.42475e-13
4.40763e-13
1.06528e-13
-2.62118e-13
-6.66905e-13
-1.10943e-12
-1.59146e-12
-2.11341e-12
-2.6643e-12
-3.2311e-12
-3.98301e-12
-5.36251e-12
-5.04881e-12
6.99354e-13
6.85203e-13
6.71969e-13
6.62853e-13
6.56409e-13
6.522e-13
6.50158e-13
6.50177e-13
6.52127e-13
6.55888e-13
6.6135e-13
6.68414e-13
6.76992e-13
6.87006e-13
6.98389e-13
7.11085e-13
7.25045e-13
7.40229e-13
7.56602e-13
7.74139e-13
7.92815e-13
8.12613e-13
8.3352e-13
8.55522e-13
8.78612e-13
9.02781e-13
9.28023e-13
9.54334e-13
9.81707e-13
1.01014e-12
1.03962e-12
1.07015e-12
1.10171e-12
1.13431e-12
1.16791e-12
1.20252e-12
1.23811e-12
1.27466e-12
1.31215e-12
1.35055e-12
1.38982e-12
1.42993e-12
1.47083e-12
1.51247e-12
1.5548e-12
1.59775e-12
1.64125e-12
1.68522e-12
1.72956e-12
1.77417e-12
1.81895e-12
1.86377e-12
1.90848e-12
1.95295e-12
1.99701e-12
2.04046e-12
2.08312e-12
2.12476e-12
2.16515e-12
2.20401e-12
2.24108e-12
2.27603e-12
2.30853e-12
2.3382e-12
2.36467e-12
2.38748e-12
2.40617e-12
2.42023e-12
2.42912e-12
2.43223e-12
2.42893e-12
2.41852e-12
2.40027e-12
2.37335e-12
2.33692e-12
2.29004e-12
2.23173e-12
2.16091e-12
2.07646e-12
1.97716e-12
1.86173e-12
1.72881e-12
1.57697e-12
1.40469e-12
1.2104e-12
9.92458e-13
7.49183e-13
4.78856e-13
1.79754e-13
-1.49821e-13
-5.11479e-13
-9.06664e-13
-1.33668e-12
-1.80305e-12
-2.30596e-12
-2.8342e-12
-3.37462e-12
-4.09716e-12
-5.44624e-12
-5.09095e-12
7.17696e-13
7.04226e-13
6.91607e-13
6.82854e-13
6.76599e-13
6.72436e-13
6.70311e-13
6.70134e-13
6.71792e-13
6.75177e-13
6.80192e-13
6.86748e-13
6.94764e-13
7.0417e-13
7.14901e-13
7.26905e-13
7.40134e-13
7.54547e-13
7.70112e-13
7.86799e-13
8.04585e-13
8.23449e-13
8.43375e-13
8.64348e-13
8.86357e-13
9.09391e-13
9.33439e-13
9.58494e-13
9.84547e-13
1.01159e-12
1.03961e-12
1.06859e-12
1.09854e-12
1.12942e-12
1.16123e-12
1.19394e-12
1.22754e-12
1.262e-12
1.29729e-12
1.33337e-12
1.37021e-12
1.40777e-12
1.44599e-12
1.48482e-12
1.5242e-12
1.56406e-12
1.60432e-12
1.6449e-12
1.6857e-12
1.72662e-12
1.76754e-12
1.80833e-12
1.84885e-12
1.88896e-12
1.92847e-12
1.96721e-12
2.00497e-12
2.04153e-12
2.07666e-12
2.11009e-12
2.14155e-12
2.17071e-12
2.19726e-12
2.22082e-12
2.24101e-12
2.25741e-12
2.26955e-12
2.27694e-12
2.27905e-12
2.27531e-12
2.2651e-12
2.24775e-12
2.22255e-12
2.18874e-12
2.1455e-12
2.09194e-12
2.02714e-12
1.95009e-12
1.85973e-12
1.75494e-12
1.63453e-12
1.49725e-12
1.34177e-12
1.16672e-12
9.7068e-13
7.52166e-13
5.09677e-13
2.41692e-13
-5.32991e-14
-3.76764e-13
-7.3008e-13
-1.11445e-12
-1.53096e-12
-1.9809e-12
-2.46431e-12
-2.96987e-12
-3.48439e-12
-4.17766e-12
-5.49367e-12
-5.10372e-12
7.34698e-13
7.21861e-13
7.09821e-13
7.0142e-13
6.95359e-13
6.9126e-13
6.8908e-13
6.8874e-13
6.90141e-13
6.93187e-13
6.97792e-13
7.03874e-13
7.11361e-13
7.20186e-13
7.30292e-13
7.41625e-13
7.54141e-13
7.678e-13
7.8257e-13
7.98419e-13
8.15324e-13
8.33262e-13
8.52215e-13
8.72166e-13
8.93101e-13
9.15005e-13
9.37867e-13
9.61674e-13
9.86413e-13
1.01207e-12
1.03864e-12
1.0661e-12
1.09444e-12
1.12363e-12
1.15366e-12
1.18451e-12
1.21614e-12
1.24853e-12
1.28165e-12
1.31546e-12
1.34992e-12
1.38497e-12
1.42056e-12
1.45665e-12
1.49315e-12
1.53e-12
1.56711e-12
1.60441e-12
1.64178e-12
1.67911e-12
1.7163e-12
1.75321e-12
1.7897e-12
1.8256e-12
1.86076e-12
1.89498e-12
1.92806e-12
1.95979e-12
1.98992e-12
2.0182e-12
2.04435e-12
2.06806e-12
2.089e-12
2.10683e-12
2.12116e-12
2.13158e-12
2.13765e-12
2.13888e-12
2.13477e-12
2.12476e-12
2.10827e-12
2.08465e-12
2.05323e-12
2.01329e-12
1.96404e-12
1.90467e-12
1.83429e-12
1.75198e-12
1.65674e-12
1.54754e-12
1.42327e-12
1.28279e-12
1.1249e-12
9.48345e-13
7.51838e-13
5.3406e-13
2.93673e-13
2.93348e-14
-2.60274e-13
-5.76424e-13
-9.2029e-13
-1.29288e-12
-1.69509e-12
-2.12805e-12
-2.59166e-12
-3.07459e-12
-3.56368e-12
-4.22778e-12
-5.50831e-12
-5.08991e-12
7.50447e-13
7.38206e-13
7.26712e-13
7.1865e-13
7.12784e-13
7.08762e-13
7.06547e-13
7.06071e-13
7.07244e-13
7.09983e-13
7.14208e-13
7.19847e-13
7.26833e-13
7.35105e-13
7.44607e-13
7.55291e-13
7.67113e-13
7.80036e-13
7.94025e-13
8.0905e-13
8.25086e-13
8.42109e-13
8.60099e-13
8.79038e-13
8.98907e-13
9.19692e-13
9.41377e-13
9.63946e-13
9.87385e-13
1.01168e-12
1.03681e-12
1.06276e-12
1.0895e-12
1.11703e-12
1.14531e-12
1.17431e-12
1.20401e-12
1.23438e-12
1.26537e-12
1.29695e-12
1.32907e-12
1.36167e-12
1.39471e-12
1.42811e-12
1.46181e-12
1.49573e-12
1.52979e-12
1.5639e-12
1.59795e-12
1.63183e-12
1.66542e-12
1.69859e-12
1.7312e-12
1.76308e-12
1.79407e-12
1.82397e-12
1.8526e-12
1.87973e-12
1.90512e-12
1.92852e-12
1.94966e-12
1.96824e-12
1.98394e-12
1.99641e-12
2.00528e-12
2.01015e-12
2.01061e-12
2.00618e-12
1.99637e-12
1.98066e-12
1.95848e-12
1.92924e-12
1.89228e-12
1.84693e-12
1.79245e-12
1.72807e-12
1.65297e-12
1.56629e-12
1.46712e-12
1.35449e-12
1.22739e-12
1.08478e-12
9.25569e-13
7.48625e-13
5.52794e-13
3.36897e-13
9.97505e-14
-1.59826e-13
-4.42985e-13
-7.50823e-13
-1.08434e-12
-1.44439e-12
-1.83169e-12
-2.24726e-12
-2.6909e-12
-3.15131e-12
-3.61545e-12
-4.25049e-12
-5.49334e-12
-5.05204e-12
7.65024e-13
7.53343e-13
7.42368e-13
7.34634e-13
7.28963e-13
7.25026e-13
7.22791e-13
7.22198e-13
7.23169e-13
7.25626e-13
7.29499e-13
7.34721e-13
7.41232e-13
7.48973e-13
7.57895e-13
7.67951e-13
7.79099e-13
7.91302e-13
8.04526e-13
8.18742e-13
8.33923e-13
8.50044e-13
8.67084e-13
8.85022e-13
9.03839e-13
9.23517e-13
9.44039e-13
9.65385e-13
9.87539e-13
1.01048e-12
1.03419e-12
1.05865e-12
1.08383e-12
1.10971e-12
1.13627e-12
1.16347e-12
1.19127e-12
1.21965e-12
1.24856e-12
1.27796e-12
1.30779e-12
1.33801e-12
1.36855e-12
1.39934e-12
1.43032e-12
1.46141e-12
1.49251e-12
1.52353e-12
1.55438e-12
1.58493e-12
1.61506e-12
1.64464e-12
1.67352e-12
1.70155e-12
1.72856e-12
1.75436e-12
1.77875e-12
1.80151e-12
1.82242e-12
1.84122e-12
1.85765e-12
1.87141e-12
1.8822e-12
1.88967e-12
1.89348e-12
1.89323e-12
1.88852e-12
1.8789e-12
1.86391e-12
1.84304e-12
1.81575e-12
1.78149e-12
1.73963e-12
1.68955e-12
1.63056e-12
1.56193e-12
1.48291e-12
1.39269e-12
1.29045e-12
1.17528e-12
1.04629e-12
9.02506e-13
7.42953e-13
5.66615e-13
3.7246e-13
1.59442e-13
-7.34866e-14
-3.27358e-13
-6.03174e-13
-9.01882e-13
-1.22433e-12
-1.57123e-12
-1.94319e-12
-2.34109e-12
-2.76466e-12
-3.20271e-12
-3.64239e-12
-4.24849e-12
-5.45168e-12
-4.99248e-12
7.78498e-13
7.67349e-13
7.56869e-13
7.4945e-13
7.43973e-13
7.40126e-13
7.37882e-13
7.3719e-13
7.37978e-13
7.40175e-13
7.43719e-13
7.48548e-13
7.54606e-13
7.61841e-13
7.70204e-13
7.79653e-13
7.90145e-13
8.01646e-13
8.14123e-13
8.27546e-13
8.41887e-13
8.57121e-13
8.73226e-13
8.90179e-13
9.07959e-13
9.26546e-13
9.4592e-13
9.66061e-13
9.86948e-13
1.00856e-12
1.03087e-12
1.05387e-12
1.07751e-12
1.10178e-12
1.12664e-12
1.15207e-12
1.17802e-12
1.20445e-12
1.23133e-12
1.2586e-12
1.2862e-12
1.3141e-12
1.34221e-12
1.37048e-12
1.39882e-12
1.42716e-12
1.4554e-12
1.48345e-12
1.51121e-12
1.53855e-12
1.56536e-12
1.5915e-12
1.61683e-12
1.64118e-12
1.66439e-12
1.68628e-12
1.70665e-12
1.72529e-12
1.74197e-12
1.75644e-12
1.76845e-12
1.77771e-12
1.78391e-12
1.78675e-12
1.78587e-12
1.7809e-12
1.77145e-12
1.7571e-12
1.7374e-12
1.71189e-12
1.68004e-12
1.64133e-12
1.59519e-12
1.54101e-12
1.47817e-12
1.406e-12
1.32378e-12
1.2308e-12
1.12627e-12
1.00939e-12
8.79336e-13
7.35239e-13
5.76215e-13
4.0136e-13
2.09753e-13
4.71938e-16
-2.27404e-13
-4.74775e-13
-7.42511e-13
-1.03142e-12
-1.34224e-12
-1.67553e-12
-2.03182e-12
-2.41188e-12
-2.81537e-12
-3.23128e-12
-3.64697e-12
-4.22426e-12
-5.38602e-12
-4.91343e-12
7.90936e-13
7.80293e-13
7.70286e-13
7.63172e-13
7.57885e-13
7.54131e-13
7.51888e-13
7.5111e-13
7.51731e-13
7.53688e-13
7.56923e-13
7.6138e-13
7.67007e-13
7.73756e-13
7.81582e-13
7.90442e-13
8.00298e-13
8.11117e-13
8.22864e-13
8.35511e-13
8.49029e-13
8.63394e-13
8.7858e-13
8.94565e-13
9.11325e-13
9.28839e-13
9.47086e-13
9.66041e-13
9.85684e-13
1.00599e-12
1.02693e-12
1.04849e-12
1.07062e-12
1.09331e-12
1.11652e-12
1.14021e-12
1.16435e-12
1.18888e-12
1.21378e-12
1.23897e-12
1.26442e-12
1.29006e-12
1.31582e-12
1.34163e-12
1.36742e-12
1.39311e-12
1.41859e-12
1.44378e-12
1.46857e-12
1.49284e-12
1.51647e-12
1.53931e-12
1.56124e-12
1.5821e-12
1.6017e-12
1.61989e-12
1.63645e-12
1.65119e-12
1.66389e-12
1.6743e-12
1.68217e-12
1.68722e-12
1.68917e-12
1.68771e-12
1.68251e-12
1.67321e-12
1.65943e-12
1.64079e-12
1.61685e-12
1.58717e-12
1.55127e-12
1.50866e-12
1.4588e-12
1.40113e-12
1.33506e-12
1.25999e-12
1.17526e-12
1.0802e-12
9.74104e-13
8.56251e-13
7.25886e-13
5.82237e-13
4.2451e-13
2.51902e-13
6.35997e-14
-1.41209e-13
-3.63327e-13
-6.03538e-13
-8.62589e-13
-1.14118e-12
-1.43991e-12
-1.75927e-12
-2.09966e-12
-2.46179e-12
-2.84527e-12
-3.23929e-12
-3.63146e-12
-4.18012e-12
-5.29891e-12
-4.81696e-12
8.02398e-13
7.9224e-13
7.82686e-13
7.75866e-13
7.70765e-13
7.67106e-13
7.64871e-13
7.64017e-13
7.64486e-13
7.66219e-13
7.69163e-13
7.73267e-13
7.78484e-13
7.84766e-13
7.92074e-13
8.00366e-13
8.09606e-13
8.1976e-13
8.30797e-13
8.42686e-13
8.55401e-13
8.68914e-13
8.832e-13
8.98236e-13
9.13997e-13
9.30459e-13
9.47599e-13
9.65393e-13
9.83815e-13
1.00284e-12
1.02244e-12
1.04259e-12
1.06325e-12
1.08439e-12
1.10599e-12
1.12799e-12
1.15036e-12
1.17305e-12
1.19601e-12
1.21919e-12
1.24254e-12
1.26599e-12
1.28948e-12
1.31292e-12
1.33625e-12
1.35938e-12
1.38221e-12
1.40465e-12
1.42659e-12
1.44791e-12
1.46849e-12
1.4882e-12
1.5069e-12
1.52442e-12
1.54061e-12
1.55529e-12
1.56826e-12
1.57933e-12
1.58829e-12
1.59489e-12
1.59889e-12
1.60004e-12
1.59805e-12
1.59262e-12
1.58344e-12
1.57018e-12
1.55247e-12
1.52995e-12
1.5022e-12
1.46882e-12
1.42936e-12
1.38335e-12
1.3303e-12
1.26968e-12
1.20097e-12
1.12359e-12
1.03695e-12
9.40451e-13
8.33444e-13
7.15277e-13
5.85274e-13
4.42746e-13
2.86989e-13
1.17293e-13
-6.70565e-14
-2.66768e-13
-4.8254e-13
-7.15047e-13
-9.64929e-13
-1.23278e-12
-1.5191e-12
-1.82429e-12
-2.14867e-12
-2.49286e-12
-2.85644e-12
-3.22885e-12
-3.598e-12
-4.11822e-12
-5.19274e-12
-4.70504e-12
8.12942e-13
8.03247e-13
7.94127e-13
7.87593e-13
7.82674e-13
7.79111e-13
7.76888e-13
7.75968e-13
7.76296e-13
7.7782e-13
7.80489e-13
7.84259e-13
7.89082e-13
7.94918e-13
8.01727e-13
8.0947e-13
8.18113e-13
8.27623e-13
8.37968e-13
8.4912e-13
8.61051e-13
8.73732e-13
8.8714e-13
9.01248e-13
9.16031e-13
9.31464e-13
9.47522e-13
9.64179e-13
9.81409e-13
9.99182e-13
1.01747e-12
1.03624e-12
1.05547e-12
1.07511e-12
1.09512e-12
1.11548e-12
1.13613e-12
1.15703e-12
1.17812e-12
1.19935e-12
1.22067e-12
1.24201e-12
1.26329e-12
1.28445e-12
1.30541e-12
1.32608e-12
1.34636e-12
1.36616e-12
1.38538e-12
1.40388e-12
1.42156e-12
1.43828e-12
1.4539e-12
1.46827e-12
1.48122e-12
1.49258e-12
1.50218e-12
1.5098e-12
1.51525e-12
1.51829e-12
1.5187e-12
1.51622e-12
1.51059e-12
1.50151e-12
1.4887e-12
1.47182e-12
1.45056e-12
1.42454e-12
1.39341e-12
1.35676e-12
1.31418e-12
1.26524e-12
1.20948e-12
1.14644e-12
1.0756e-12
9.9646e-13
9.08481e-13
8.11108e-13
7.03769e-13
5.85876e-13
4.56828e-13
3.16013e-13
1.6281e-13
-3.40321e-15
-1.83249e-13
-3.77342e-13
-5.86283e-13
-8.10648e-13
-1.05098e-12
-1.30778e-12
-1.58146e-12
-1.87233e-12
-2.18065e-12
-2.50698e-12
-2.85084e-12
-3.20195e-12
-3.54857e-12
-4.04061e-12
-5.06976e-12
-4.57957e-12
8.2262e-13
8.1337e-13
8.04669e-13
7.98409e-13
7.93668e-13
7.90201e-13
7.87996e-13
7.87017e-13
7.87215e-13
7.88542e-13
7.90952e-13
7.94402e-13
7.98851e-13
8.04258e-13
8.10586e-13
8.178e-13
8.25866e-13
8.34751e-13
8.44426e-13
8.54861e-13
8.66027e-13
8.77899e-13
8.9045e-13
9.03653e-13
9.17482e-13
9.31911e-13
9.46913e-13
9.62462e-13
9.78527e-13
9.95081e-13
1.01209e-12
1.02953e-12
1.04735e-12
1.06552e-12
1.08401e-12
1.10277e-12
1.12175e-12
1.14091e-12
1.16019e-12
1.17954e-12
1.1989e-12
1.21819e-12
1.23736e-12
1.25632e-12
1.275e-12
1.29331e-12
1.31115e-12
1.32843e-12
1.34503e-12
1.36086e-12
1.37577e-12
1.38965e-12
1.40235e-12
1.41373e-12
1.42362e-12
1.43187e-12
1.43828e-12
1.44267e-12
1.44485e-12
1.44458e-12
1.44165e-12
1.43582e-12
1.42682e-12
1.4144e-12
1.39827e-12
1.37812e-12
1.35364e-12
1.32451e-12
1.29037e-12
1.25085e-12
1.20558e-12
1.15415e-12
1.09614e-12
1.03113e-12
9.58653e-13
8.78247e-13
7.89429e-13
6.91699e-13
5.84547e-13
4.6745e-13
3.39876e-13
2.01287e-13
5.11408e-14
-1.11104e-13
-2.85985e-13
-4.74029e-13
-6.75748e-13
-8.9163e-13
-1.12213e-12
-1.36766e-12
-1.62855e-12
-1.90505e-12
-2.19734e-12
-2.50591e-12
-2.83028e-12
-3.16045e-12
-3.48504e-12
-3.94919e-12
-4.93212e-12
-4.44232e-12
8.31485e-13
8.22662e-13
8.14363e-13
8.08369e-13
8.03802e-13
8.0043e-13
7.98244e-13
7.97213e-13
7.97291e-13
7.98432e-13
8.00597e-13
8.03743e-13
8.07834e-13
8.1283e-13
8.18697e-13
8.254e-13
8.32908e-13
8.41189e-13
8.50214e-13
8.59953e-13
8.70378e-13
8.81463e-13
8.9318e-13
9.05503e-13
9.18403e-13
9.31855e-13
9.4583e-13
9.60299e-13
9.75232e-13
9.90599e-13
1.00637e-12
1.0225e-12
1.03896e-12
1.05572e-12
1.07272e-12
1.08993e-12
1.1073e-12
1.12478e-12
1.14231e-12
1.15984e-12
1.17731e-12
1.19464e-12
1.21177e-12
1.22862e-12
1.24511e-12
1.26116e-12
1.27666e-12
1.29153e-12
1.30565e-12
1.31892e-12
1.33121e-12
1.34239e-12
1.35233e-12
1.36089e-12
1.3679e-12
1.37321e-12
1.37665e-12
1.37802e-12
1.37713e-12
1.37379e-12
1.36777e-12
1.35884e-12
1.34676e-12
1.33128e-12
1.31213e-12
1.28903e-12
1.26168e-12
1.22977e-12
1.19298e-12
1.15098e-12
1.1034e-12
1.04988e-12
9.9004e-13
9.23485e-13
8.49806e-13
7.68581e-13
6.79375e-13
5.81746e-13
4.7524e-13
3.59396e-13
2.33747e-13
9.78265e-14
-4.88364e-14
-2.06707e-13
-3.76243e-13
-5.57893e-13
-7.52085e-13
-9.59225e-13
-1.17969e-12
-1.41381e-12
-1.66185e-12
-1.92398e-12
-2.20033e-12
-2.49134e-12
-2.79648e-12
-3.1061e-12
-3.40917e-12
-3.84578e-12
-4.78186e-12
-4.29503e-12
8.39584e-13
8.31173e-13
8.23261e-13
8.17523e-13
8.13124e-13
8.09848e-13
8.07684e-13
8.06606e-13
8.06571e-13
8.07539e-13
8.0947e-13
8.12328e-13
8.16075e-13
8.20677e-13
8.26101e-13
8.32313e-13
8.39283e-13
8.46981e-13
8.55376e-13
8.64442e-13
8.74149e-13
8.84471e-13
8.95379e-13
9.06847e-13
9.18846e-13
9.31348e-13
9.44325e-13
9.57747e-13
9.71582e-13
9.85797e-13
1.00036e-12
1.01523e-12
1.03038e-12
1.04576e-12
1.06133e-12
1.07705e-12
1.09286e-12
1.10871e-12
1.12456e-12
1.14033e-12
1.15598e-12
1.17142e-12
1.1866e-12
1.20143e-12
1.21583e-12
1.22971e-12
1.24299e-12
1.25556e-12
1.26732e-12