/*--------------------------------*- C++ -*----------------------------------*\
  =========                 |
  \\      /  F ield         | OpenFOAM: The Open Source CFD Toolbox
   \\    /   O peration     | Website:  https://openfoam.org
    \\  /    A nd           | Version:  11
     \\/     M anipulation  |
\*---------------------------------------------------------------------------*/
FoamFile
{
    format      ascii;
    class       volVectorField;
    location    "1408";
    object      U;
}
// * * * * * * * * * * * * * * * * * * * * * * * * * * * * * * * * * * * * * //

dimensions      [0 1 -1 0 0 0 0];

internalField   nonuniform List<vector> 
10000
(
(0.005 -7.22194e-12 0)
(0.005 -2.04236e-11 0)
(0.005 -3.32867e-11 0)
(0.005 -4.62625e-11 0)
(0.005 -5.95661e-11 0)
(0.005 -7.33301e-11 0)
(0.005 -8.76562e-11 0)
(0.005 -1.02628e-10 0)
(0.005 -1.1832e-10 0)
(0.005 -1.34796e-10 0)
(0.005 -1.5212e-10 0)
(0.005 -1.70351e-10 0)
(0.005 -1.89547e-10 0)
(0.005 -2.09765e-10 0)
(0.005 -2.31061e-10 0)
(0.005 -2.53492e-10 0)
(0.005 -2.77115e-10 0)
(0.005 -3.01985e-10 0)
(0.005 -3.2816e-10 0)
(0.005 -3.55698e-10 0)
(0.005 -3.84656e-10 0)
(0.005 -4.15093e-10 0)
(0.005 -4.47068e-10 0)
(0.005 -4.80642e-10 0)
(0.005 -5.15873e-10 0)
(0.005 -5.52823e-10 0)
(0.005 -5.91553e-10 0)
(0.005 -6.32125e-10 0)
(0.005 -6.746e-10 0)
(0.005 -7.1904e-10 0)
(0.005 -7.65508e-10 0)
(0.005 -8.14066e-10 0)
(0.005 -8.64776e-10 0)
(0.005 -9.17699e-10 0)
(0.005 -9.72897e-10 0)
(0.005 -1.03043e-09 0)
(0.005 -1.09036e-09 0)
(0.005 -1.15274e-09 0)
(0.005 -1.21764e-09 0)
(0.005 -1.2851e-09 0)
(0.005 -1.35519e-09 0)
(0.005 -1.42796e-09 0)
(0.005 -1.50346e-09 0)
(0.005 -1.58173e-09 0)
(0.005 -1.66283e-09 0)
(0.005 -1.7468e-09 0)
(0.005 -1.83367e-09 0)
(0.005 -1.92349e-09 0)
(0.005 -2.01629e-09 0)
(0.005 -2.1121e-09 0)
(0.005 -2.21094e-09 0)
(0.005 -2.31283e-09 0)
(0.005 -2.41779e-09 0)
(0.005 -2.52582e-09 0)
(0.005 -2.63692e-09 0)
(0.005 -2.7511e-09 0)
(0.005 -2.86834e-09 0)
(0.005 -2.98862e-09 0)
(0.005 -3.1119e-09 0)
(0.005 -3.23817e-09 0)
(0.005 -3.36736e-09 0)
(0.005 -3.49941e-09 0)
(0.005 -3.63427e-09 0)
(0.005 -3.77185e-09 0)
(0.005 -3.91205e-09 0)
(0.005 -4.05476e-09 0)
(0.005 -4.19986e-09 0)
(0.005 -4.3472e-09 0)
(0.005 -4.49663e-09 0)
(0.005 -4.64796e-09 0)
(0.005 -4.80099e-09 0)
(0.005 -4.9555e-09 0)
(0.005 -5.11122e-09 0)
(0.005 -5.26788e-09 0)
(0.005 -5.42516e-09 0)
(0.00499999 -5.58271e-09 0)
(0.00499999 -5.74014e-09 0)
(0.00499999 -5.89702e-09 0)
(0.00499999 -6.05287e-09 0)
(0.00499999 -6.20715e-09 0)
(0.00499999 -6.35928e-09 0)
(0.00499999 -6.50859e-09 0)
(0.00499999 -6.65437e-09 0)
(0.00499999 -6.79582e-09 0)
(0.00499999 -6.93204e-09 0)
(0.00499999 -7.06206e-09 0)
(0.00499999 -7.18482e-09 0)
(0.00499999 -7.29916e-09 0)
(0.00499999 -7.4039e-09 0)
(0.00499999 -7.49802e-09 0)
(0.00499999 -7.58068e-09 0)
(0.00499999 -7.64963e-09 0)
(0.00499999 -7.70158e-09 0)
(0.00499999 -7.73508e-09 0)
(0.00499999 -7.74847e-09 0)
(0.00499999 -7.74066e-09 0)
(0.00499999 -7.71263e-09 0)
(0.00499999 -7.66676e-09 0)
(0.00499999 -7.61039e-09 0)
(0.00499999 -7.56693e-09 0)
(0.005 -6.37504e-12 0)
(0.005 -1.87862e-11 0)
(0.005 -3.11437e-11 0)
(0.005 -4.36706e-11 0)
(0.005 -5.65289e-11 0)
(0.005 -6.98348e-11 0)
(0.005 -8.36814e-11 0)
(0.005 -9.81474e-11 0)
(0.005 -1.13302e-10 0)
(0.005 -1.29209e-10 0)
(0.005 -1.45928e-10 0)
(0.005 -1.63515e-10 0)
(0.005 -1.82026e-10 0)
(0.005 -2.01516e-10 0)
(0.005 -2.22039e-10 0)
(0.005 -2.43647e-10 0)
(0.005 -2.66395e-10 0)
(0.005 -2.90338e-10 0)
(0.005 -3.15528e-10 0)
(0.005 -3.42021e-10 0)
(0.005 -3.69873e-10 0)
(0.005 -3.99138e-10 0)
(0.005 -4.29872e-10 0)
(0.005 -4.62133e-10 0)
(0.005 -4.95978e-10 0)
(0.005 -5.31462e-10 0)
(0.005 -5.68646e-10 0)
(0.005 -6.07585e-10 0)
(0.005 -6.4834e-10 0)
(0.005 -6.90967e-10 0)
(0.005 -7.35526e-10 0)
(0.005 -7.82075e-10 0)
(0.005 -8.30672e-10 0)
(0.005 -8.81375e-10 0)
(0.005 -9.34241e-10 0)
(0.005 -9.89327e-10 0)
(0.005 -1.04669e-09 0)
(0.005 -1.10638e-09 0)
(0.005 -1.16846e-09 0)
(0.005 -1.23297e-09 0)
(0.005 -1.29997e-09 0)
(0.005 -1.36951e-09 0)
(0.005 -1.44164e-09 0)
(0.005 -1.51639e-09 0)
(0.005 -1.59381e-09 0)
(0.005 -1.67395e-09 0)
(0.005 -1.75683e-09 0)
(0.005 -1.8425e-09 0)
(0.005 -1.93098e-09 0)
(0.005 -2.0223e-09 0)
(0.005 -2.11647e-09 0)
(0.005 -2.21352e-09 0)
(0.005 -2.31346e-09 0)
(0.005 -2.41629e-09 0)
(0.005 -2.52202e-09 0)
(0.005 -2.63064e-09 0)
(0.005 -2.74214e-09 0)
(0.005 -2.8565e-09 0)
(0.005 -2.97369e-09 0)
(0.005 -3.09368e-09 0)
(0.005 -3.21642e-09 0)
(0.005 -3.34186e-09 0)
(0.005 -3.46994e-09 0)
(0.005 -3.60058e-09 0)
(0.005 -3.73369e-09 0)
(0.005 -3.86919e-09 0)
(0.005 -4.00695e-09 0)
(0.005 -4.14685e-09 0)
(0.005 -4.28874e-09 0)
(0.005 -4.43247e-09 0)
(0.005 -4.57786e-09 0)
(0.005 -4.7247e-09 0)
(0.005 -4.87277e-09 0)
(0.005 -5.02184e-09 0)
(0.005 -5.17162e-09 0)
(0.00499999 -5.3218e-09 0)
(0.00499999 -5.47207e-09 0)
(0.00499999 -5.62204e-09 0)
(0.00499999 -5.77129e-09 0)
(0.00499999 -5.91939e-09 0)
(0.00499999 -6.06581e-09 0)
(0.00499999 -6.21001e-09 0)
(0.00499999 -6.35137e-09 0)
(0.00499999 -6.48921e-09 0)
(0.00499999 -6.62279e-09 0)
(0.00499999 -6.7513e-09 0)
(0.00499999 -6.87386e-09 0)
(0.00499999 -6.9895e-09 0)
(0.00499999 -7.0972e-09 0)
(0.00499999 -7.19561e-09 0)
(0.00499999 -7.28276e-09 0)
(0.00499999 -7.35684e-09 0)
(0.00499999 -7.41689e-09 0)
(0.00499999 -7.46207e-09 0)
(0.00499999 -7.49281e-09 0)
(0.00499999 -7.51051e-09 0)
(0.00499999 -7.51519e-09 0)
(0.00499999 -7.50629e-09 0)
(0.00499999 -7.48848e-09 0)
(0.00499999 -7.48236e-09 0)
(0.005 -5.694e-12 0)
(0.005 -1.72772e-11 0)
(0.005 -2.90666e-11 0)
(0.005 -4.11178e-11 0)
(0.005 -5.35239e-11 0)
(0.005 -6.6374e-11 0)
(0.005 -7.97482e-11 0)
(0.005 -9.37178e-11 0)
(0.005 -1.08348e-10 0)
(0.005 -1.23698e-10 0)
(0.005 -1.39825e-10 0)
(0.005 -1.56783e-10 0)
(0.005 -1.74626e-10 0)
(0.005 -1.93405e-10 0)
(0.005 -2.13172e-10 0)
(0.005 -2.33978e-10 0)
(0.005 -2.55874e-10 0)
(0.005 -2.78912e-10 0)
(0.005 -3.03143e-10 0)
(0.005 -3.2862e-10 0)
(0.005 -3.55394e-10 0)
(0.005 -3.83518e-10 0)
(0.005 -4.13046e-10 0)
(0.005 -4.44031e-10 0)
(0.005 -4.76527e-10 0)
(0.005 -5.10588e-10 0)
(0.005 -5.46269e-10 0)
(0.005 -5.83624e-10 0)
(0.005 -6.22708e-10 0)
(0.005 -6.63576e-10 0)
(0.005 -7.06283e-10 0)
(0.005 -7.50883e-10 0)
(0.005 -7.97432e-10 0)
(0.005 -8.45982e-10 0)
(0.005 -8.96588e-10 0)
(0.005 -9.49303e-10 0)
(0.005 -1.00418e-09 0)
(0.005 -1.06126e-09 0)
(0.005 -1.12061e-09 0)
(0.005 -1.18227e-09 0)
(0.005 -1.24628e-09 0)
(0.005 -1.3127e-09 0)
(0.005 -1.38156e-09 0)
(0.005 -1.4529e-09 0)
(0.005 -1.52678e-09 0)
(0.005 -1.60321e-09 0)
(0.005 -1.68224e-09 0)
(0.005 -1.76389e-09 0)
(0.005 -1.8482e-09 0)
(0.005 -1.93517e-09 0)
(0.005 -2.02484e-09 0)
(0.005 -2.11722e-09 0)
(0.005 -2.21232e-09 0)
(0.005 -2.31014e-09 0)
(0.005 -2.41068e-09 0)
(0.005 -2.51394e-09 0)
(0.005 -2.6199e-09 0)
(0.005 -2.72855e-09 0)
(0.005 -2.83986e-09 0)
(0.005 -2.9538e-09 0)
(0.005 -3.07033e-09 0)
(0.005 -3.18939e-09 0)
(0.005 -3.31094e-09 0)
(0.005 -3.4349e-09 0)
(0.005 -3.5612e-09 0)
(0.005 -3.68975e-09 0)
(0.005 -3.82044e-09 0)
(0.005 -3.95318e-09 0)
(0.005 -4.08782e-09 0)
(0.005 -4.22424e-09 0)
(0.005 -4.36227e-09 0)
(0.005 -4.50174e-09 0)
(0.005 -4.64246e-09 0)
(0.005 -4.78423e-09 0)
(0.005 -4.92679e-09 0)
(0.00499999 -5.06991e-09 0)
(0.00499999 -5.21328e-09 0)
(0.00499999 -5.3566e-09 0)
(0.00499999 -5.49952e-09 0)
(0.00499999 -5.64166e-09 0)
(0.00499999 -5.78259e-09 0)
(0.00499999 -5.92185e-09 0)
(0.00499999 -6.05893e-09 0)
(0.00499999 -6.19327e-09 0)
(0.00499999 -6.32424e-09 0)
(0.00499999 -6.45117e-09 0)
(0.00499999 -6.57332e-09 0)
(0.00499999 -6.68985e-09 0)
(0.00499999 -6.79982e-09 0)
(0.00499999 -6.90204e-09 0)
(0.00499999 -6.99525e-09 0)
(0.00499999 -7.07847e-09 0)
(0.00499999 -7.15088e-09 0)
(0.00499999 -7.21167e-09 0)
(0.00499999 -7.26049e-09 0)
(0.00499999 -7.29764e-09 0)
(0.00499999 -7.32374e-09 0)
(0.00499999 -7.3396e-09 0)
(0.00499999 -7.3479e-09 0)
(0.00499999 -7.36026e-09 0)
(0.005 -5.2289e-12 0)
(0.005 -1.60731e-11 0)
(0.005 -2.72861e-11 0)
(0.005 -3.88539e-11 0)
(0.005 -5.08168e-11 0)
(0.005 -6.32336e-11 0)
(0.005 -7.61676e-11 0)
(0.005 -8.96799e-11 0)
(0.005 -1.03829e-10 0)
(0.005 -1.18672e-10 0)
(0.005 -1.3426e-10 0)
(0.005 -1.50647e-10 0)
(0.005 -1.67882e-10 0)
(0.005 -1.86015e-10 0)
(0.005 -2.05095e-10 0)
(0.005 -2.25171e-10 0)
(0.005 -2.46293e-10 0)
(0.005 -2.68509e-10 0)
(0.005 -2.91868e-10 0)
(0.005 -3.1642e-10 0)
(0.005 -3.42215e-10 0)
(0.005 -3.69303e-10 0)
(0.005 -3.97734e-10 0)
(0.005 -4.27559e-10 0)
(0.005 -4.5883e-10 0)
(0.005 -4.91596e-10 0)
(0.005 -5.25911e-10 0)
(0.005 -5.61825e-10 0)
(0.005 -5.99391e-10 0)
(0.005 -6.3866e-10 0)
(0.005 -6.79683e-10 0)
(0.005 -7.22512e-10 0)
(0.005 -7.67199e-10 0)
(0.005 -8.13793e-10 0)
(0.005 -8.62345e-10 0)
(0.005 -9.12903e-10 0)
(0.005 -9.65518e-10 0)
(0.005 -1.02023e-09 0)
(0.005 -1.0771e-09 0)
(0.005 -1.13616e-09 0)
(0.005 -1.19746e-09 0)
(0.005 -1.26104e-09 0)
(0.005 -1.32693e-09 0)
(0.005 -1.39519e-09 0)
(0.005 -1.46583e-09 0)
(0.005 -1.5389e-09 0)
(0.005 -1.61442e-09 0)
(0.005 -1.69243e-09 0)
(0.005 -1.77294e-09 0)
(0.005 -1.85598e-09 0)
(0.005 -1.94156e-09 0)
(0.005 -2.0297e-09 0)
(0.005 -2.12039e-09 0)
(0.005 -2.21366e-09 0)
(0.005 -2.30949e-09 0)
(0.005 -2.40788e-09 0)
(0.005 -2.50881e-09 0)
(0.005 -2.61228e-09 0)
(0.005 -2.71825e-09 0)
(0.005 -2.8267e-09 0)
(0.005 -2.93758e-09 0)
(0.005 -3.05086e-09 0)
(0.005 -3.16647e-09 0)
(0.005 -3.28437e-09 0)
(0.005 -3.40447e-09 0)
(0.005 -3.52671e-09 0)
(0.005 -3.65099e-09 0)
(0.005 -3.77722e-09 0)
(0.005 -3.90528e-09 0)
(0.005 -4.03505e-09 0)
(0.005 -4.1664e-09 0)
(0.005 -4.29918e-09 0)
(0.005 -4.43322e-09 0)
(0.005 -4.56834e-09 0)
(0.005 -4.70435e-09 0)
(0.00499999 -4.84102e-09 0)
(0.00499999 -4.97812e-09 0)
(0.00499999 -5.11538e-09 0)
(0.00499999 -5.25251e-09 0)
(0.00499999 -5.38919e-09 0)
(0.00499999 -5.52509e-09 0)
(0.00499999 -5.6598e-09 0)
(0.00499999 -5.7929e-09 0)
(0.00499999 -5.92394e-09 0)
(0.00499999 -6.05238e-09 0)
(0.00499999 -6.17768e-09 0)
(0.00499999 -6.29919e-09 0)
(0.00499999 -6.4162e-09 0)
(0.00499999 -6.52789e-09 0)
(0.00499999 -6.63331e-09 0)
(0.00499999 -6.73148e-09 0)
(0.00499999 -6.82167e-09 0)
(0.00499999 -6.90327e-09 0)
(0.00499999 -6.97572e-09 0)
(0.00499999 -7.03868e-09 0)
(0.00499999 -7.09217e-09 0)
(0.00499999 -7.13619e-09 0)
(0.00499999 -7.17056e-09 0)
(0.00499999 -7.19556e-09 0)
(0.00499999 -7.20876e-09 0)
(0.005 -4.85068e-12 0)
(0.005 -1.50196e-11 0)
(0.005 -2.56503e-11 0)
(0.005 -3.67088e-11 0)
(0.005 -4.82043e-11 0)
(0.005 -6.01708e-11 0)
(0.005 -7.26543e-11 0)
(0.005 -8.57047e-11 0)
(0.005 -9.9373e-11 0)
(0.005 -1.1371e-10 0)
(0.005 -1.28764e-10 0)
(0.005 -1.44584e-10 0)
(0.005 -1.61218e-10 0)
(0.005 -1.78713e-10 0)
(0.005 -1.97116e-10 0)
(0.005 -2.16473e-10 0)
(0.005 -2.3683e-10 0)
(0.005 -2.58235e-10 0)
(0.005 -2.80735e-10 0)
(0.005 -3.04375e-10 0)
(0.005 -3.29205e-10 0)
(0.005 -3.5527e-10 0)
(0.005 -3.8262e-10 0)
(0.005 -4.11301e-10 0)
(0.005 -4.41363e-10 0)
(0.005 -4.72853e-10 0)
(0.005 -5.05821e-10 0)
(0.005 -5.40315e-10 0)
(0.005 -5.76383e-10 0)
(0.005 -6.14075e-10 0)
(0.005 -6.53439e-10 0)
(0.005 -6.94522e-10 0)
(0.005 -7.37372e-10 0)
(0.005 -7.82038e-10 0)
(0.005 -8.28565e-10 0)
(0.005 -8.76999e-10 0)
(0.005 -9.27385e-10 0)
(0.005 -9.79767e-10 0)
(0.005 -1.03419e-09 0)
(0.005 -1.09069e-09 0)
(0.005 -1.14931e-09 0)
(0.005 -1.21009e-09 0)
(0.005 -1.27307e-09 0)
(0.005 -1.33827e-09 0)
(0.005 -1.40573e-09 0)
(0.005 -1.47549e-09 0)
(0.005 -1.54756e-09 0)
(0.005 -1.62198e-09 0)
(0.005 -1.69875e-09 0)
(0.005 -1.77791e-09 0)
(0.005 -1.85946e-09 0)
(0.005 -1.94341e-09 0)
(0.005 -2.02978e-09 0)
(0.005 -2.11856e-09 0)
(0.005 -2.20975e-09 0)
(0.005 -2.30334e-09 0)
(0.005 -2.39933e-09 0)
(0.005 -2.49769e-09 0)
(0.005 -2.5984e-09 0)
(0.005 -2.70144e-09 0)
(0.005 -2.80676e-09 0)
(0.005 -2.91434e-09 0)
(0.005 -3.02412e-09 0)
(0.005 -3.13604e-09 0)
(0.005 -3.25005e-09 0)
(0.005 -3.36608e-09 0)
(0.005 -3.48404e-09 0)
(0.005 -3.60386e-09 0)
(0.005 -3.72543e-09 0)
(0.005 -3.84866e-09 0)
(0.005 -3.97343e-09 0)
(0.005 -4.09961e-09 0)
(0.005 -4.22706e-09 0)
(0.005 -4.35563e-09 0)
(0.005 -4.48517e-09 0)
(0.00499999 -4.61548e-09 0)
(0.00499999 -4.74638e-09 0)
(0.00499999 -4.87764e-09 0)
(0.00499999 -5.00904e-09 0)
(0.00499999 -5.14031e-09 0)
(0.00499999 -5.27117e-09 0)
(0.00499999 -5.40132e-09 0)
(0.00499999 -5.53042e-09 0)
(0.00499999 -5.65807e-09 0)
(0.00499999 -5.78388e-09 0)
(0.00499999 -5.90738e-09 0)
(0.00499999 -6.02804e-09 0)
(0.00499999 -6.14528e-09 0)
(0.00499999 -6.25843e-09 0)
(0.00499999 -6.36677e-09 0)
(0.00499999 -6.46955e-09 0)
(0.00499999 -6.56615e-09 0)
(0.00499999 -6.65606e-09 0)
(0.00499999 -6.73877e-09 0)
(0.00499999 -6.81385e-09 0)
(0.00499999 -6.88087e-09 0)
(0.00499999 -6.93917e-09 0)
(0.00499999 -6.98728e-09 0)
(0.00499999 -7.02276e-09 0)
(0.00499999 -7.03674e-09 0)
(0.005 -4.52188e-12 0)
(0.005 -1.40688e-11 0)
(0.005 -2.41283e-11 0)
(0.005 -3.46661e-11 0)
(0.005 -4.56756e-11 0)
(0.005 -5.71736e-11 0)
(0.005 -6.91917e-11 0)
(0.005 -8.17691e-11 0)
(0.005 -9.49487e-11 0)
(0.005 -1.08775e-10 0)
(0.005 -1.23292e-10 0)
(0.005 -1.38545e-10 0)
(0.005 -1.54578e-10 0)
(0.005 -1.71437e-10 0)
(0.005 -1.89164e-10 0)
(0.005 -2.07803e-10 0)
(0.005 -2.274e-10 0)
(0.005 -2.47999e-10 0)
(0.005 -2.69642e-10 0)
(0.005 -2.92376e-10 0)
(0.005 -3.16245e-10 0)
(0.005 -3.41294e-10 0)
(0.005 -3.67568e-10 0)
(0.005 -3.95113e-10 0)
(0.005 -4.23973e-10 0)
(0.005 -4.54195e-10 0)
(0.005 -4.85824e-10 0)
(0.005 -5.18907e-10 0)
(0.005 -5.53487e-10 0)
(0.005 -5.89612e-10 0)
(0.005 -6.27327e-10 0)
(0.005 -6.66675e-10 0)
(0.005 -7.07703e-10 0)
(0.005 -7.50452e-10 0)
(0.005 -7.94968e-10 0)
(0.005 -8.41292e-10 0)
(0.005 -8.89466e-10 0)
(0.005 -9.3953e-10 0)
(0.005 -9.91524e-10 0)
(0.005 -1.04548e-09 0)
(0.005 -1.10145e-09 0)
(0.005 -1.15945e-09 0)
(0.005 -1.21953e-09 0)
(0.005 -1.28171e-09 0)
(0.005 -1.34602e-09 0)
(0.005 -1.41248e-09 0)
(0.005 -1.48113e-09 0)
(0.005 -1.55198e-09 0)
(0.005 -1.62505e-09 0)
(0.005 -1.70036e-09 0)
(0.005 -1.77791e-09 0)
(0.005 -1.85772e-09 0)
(0.005 -1.93979e-09 0)
(0.005 -2.02413e-09 0)
(0.005 -2.11072e-09 0)
(0.005 -2.19956e-09 0)
(0.005 -2.29064e-09 0)
(0.005 -2.38394e-09 0)
(0.005 -2.47944e-09 0)
(0.005 -2.57712e-09 0)
(0.005 -2.67694e-09 0)
(0.005 -2.77887e-09 0)
(0.005 -2.88286e-09 0)
(0.005 -2.98887e-09 0)
(0.005 -3.09684e-09 0)
(0.005 -3.20671e-09 0)
(0.005 -3.31841e-09 0)
(0.005 -3.43188e-09 0)
(0.005 -3.54703e-09 0)
(0.005 -3.66378e-09 0)
(0.005 -3.78202e-09 0)
(0.005 -3.90166e-09 0)
(0.005 -4.02258e-09 0)
(0.005 -4.14466e-09 0)
(0.005 -4.26777e-09 0)
(0.005 -4.39176e-09 0)
(0.00499999 -4.51649e-09 0)
(0.00499999 -4.64178e-09 0)
(0.00499999 -4.76745e-09 0)
(0.00499999 -4.89331e-09 0)
(0.00499999 -5.01913e-09 0)
(0.00499999 -5.14467e-09 0)
(0.00499999 -5.26968e-09 0)
(0.00499999 -5.39386e-09 0)
(0.00499999 -5.51689e-09 0)
(0.00499999 -5.63841e-09 0)
(0.00499999 -5.758e-09 0)
(0.00499999 -5.8752e-09 0)
(0.00499999 -5.9895e-09 0)
(0.00499999 -6.10033e-09 0)
(0.00499999 -6.20712e-09 0)
(0.00499999 -6.30933e-09 0)
(0.00499999 -6.40647e-09 0)
(0.00499999 -6.49797e-09 0)
(0.00499999 -6.5832e-09 0)
(0.00499999 -6.66131e-09 0)
(0.00499999 -6.73091e-09 0)
(0.00499999 -6.78944e-09 0)
(0.00499999 -6.83227e-09 0)
(0.00499999 -6.85357e-09 0)
(0.005 -4.23093e-12 0)
(0.005 -1.32043e-11 0)
(0.005 -2.27151e-11 0)
(0.005 -3.27353e-11 0)
(0.005 -4.3252e-11 0)
(0.005 -5.42713e-11 0)
(0.005 -6.58143e-11 0)
(0.005 -7.79108e-11 0)
(0.005 -9.05963e-11 0)
(0.005 -1.03909e-10 0)
(0.005 -1.17888e-10 0)
(0.005 -1.32576e-10 0)
(0.005 -1.48011e-10 0)
(0.005 -1.64237e-10 0)
(0.005 -1.81294e-10 0)
(0.005 -1.99224e-10 0)
(0.005 -2.18068e-10 0)
(0.005 -2.37868e-10 0)
(0.005 -2.58666e-10 0)
(0.005 -2.80504e-10 0)
(0.005 -3.03424e-10 0)
(0.005 -3.27468e-10 0)
(0.005 -3.5268e-10 0)
(0.005 -3.79102e-10 0)
(0.005 -4.06776e-10 0)
(0.005 -4.35746e-10 0)
(0.005 -4.66055e-10 0)
(0.005 -4.97744e-10 0)
(0.005 -5.30857e-10 0)
(0.005 -5.65436e-10 0)
(0.005 -6.01524e-10 0)
(0.005 -6.39162e-10 0)
(0.005 -6.78391e-10 0)
(0.005 -7.19252e-10 0)
(0.005 -7.61784e-10 0)
(0.005 -8.06028e-10 0)
(0.005 -8.52021e-10 0)
(0.005 -8.99801e-10 0)
(0.005 -9.49402e-10 0)
(0.005 -1.00086e-09 0)
(0.005 -1.05421e-09 0)
(0.005 -1.10948e-09 0)
(0.005 -1.1667e-09 0)
(0.005 -1.22589e-09 0)
(0.005 -1.2871e-09 0)
(0.005 -1.35032e-09 0)
(0.005 -1.4156e-09 0)
(0.005 -1.48294e-09 0)
(0.005 -1.55237e-09 0)
(0.005 -1.62388e-09 0)
(0.005 -1.69751e-09 0)
(0.005 -1.77324e-09 0)
(0.005 -1.85108e-09 0)
(0.005 -1.93104e-09 0)
(0.005 -2.0131e-09 0)
(0.005 -2.09727e-09 0)
(0.005 -2.18352e-09 0)
(0.005 -2.27185e-09 0)
(0.005 -2.36223e-09 0)
(0.005 -2.45464e-09 0)
(0.005 -2.54905e-09 0)
(0.005 -2.64542e-09 0)
(0.005 -2.74373e-09 0)
(0.005 -2.84392e-09 0)
(0.005 -2.94596e-09 0)
(0.005 -3.04978e-09 0)
(0.005 -3.15533e-09 0)
(0.005 -3.26256e-09 0)
(0.005 -3.3714e-09 0)
(0.005 -3.48176e-09 0)
(0.005 -3.59359e-09 0)
(0.005 -3.70679e-09 0)
(0.005 -3.82128e-09 0)
(0.005 -3.93697e-09 0)
(0.005 -4.05374e-09 0)
(0.005 -4.17151e-09 0)
(0.00499999 -4.29014e-09 0)
(0.00499999 -4.40953e-09 0)
(0.00499999 -4.52952e-09 0)
(0.00499999 -4.64999e-09 0)
(0.00499999 -4.77078e-09 0)
(0.00499999 -4.8917e-09 0)
(0.00499999 -5.01257e-09 0)
(0.00499999 -5.13319e-09 0)
(0.00499999 -5.2533e-09 0)
(0.00499999 -5.37265e-09 0)
(0.00499999 -5.49092e-09 0)
(0.00499999 -5.60777e-09 0)
(0.00499999 -5.72279e-09 0)
(0.00499999 -5.83556e-09 0)
(0.00499999 -5.94561e-09 0)
(0.00499999 -6.05245e-09 0)
(0.00499999 -6.15555e-09 0)
(0.00499999 -6.25426e-09 0)
(0.00499999 -6.3477e-09 0)
(0.00499999 -6.43463e-09 0)
(0.00499999 -6.51309e-09 0)
(0.00499999 -6.57987e-09 0)
(0.00499999 -6.6302e-09 0)
(0.00499999 -6.65945e-09 0)
(0.005 -3.96886e-12 0)
(0.005 -1.24114e-11 0)
(0.005 -2.13995e-11 0)
(0.005 -3.09133e-11 0)
(0.005 -4.09386e-11 0)
(0.005 -5.14756e-11 0)
(0.005 -6.25382e-11 0)
(0.005 -7.4149e-11 0)
(0.005 -8.63368e-11 0)
(0.005 -9.91342e-11 0)
(0.005 -1.12576e-10 0)
(0.005 -1.26699e-10 0)
(0.005 -1.41541e-10 0)
(0.005 -1.5714e-10 0)
(0.005 -1.73533e-10 0)
(0.005 -1.90761e-10 0)
(0.005 -2.08861e-10 0)
(0.005 -2.27873e-10 0)
(0.005 -2.47837e-10 0)
(0.005 -2.68791e-10 0)
(0.005 -2.90776e-10 0)
(0.005 -3.13832e-10 0)
(0.005 -3.37998e-10 0)
(0.005 -3.63314e-10 0)
(0.005 -3.89821e-10 0)
(0.005 -4.17559e-10 0)
(0.005 -4.46567e-10 0)
(0.005 -4.76886e-10 0)
(0.005 -5.08555e-10 0)
(0.005 -5.41614e-10 0)
(0.005 -5.76102e-10 0)
(0.005 -6.12058e-10 0)
(0.005 -6.49519e-10 0)
(0.005 -6.88523e-10 0)
(0.005 -7.29107e-10 0)
(0.005 -7.71307e-10 0)
(0.005 -8.15157e-10 0)
(0.005 -8.60692e-10 0)
(0.005 -9.07943e-10 0)
(0.005 -9.56943e-10 0)
(0.005 -1.00772e-09 0)
(0.005 -1.0603e-09 0)
(0.005 -1.11472e-09 0)
(0.005 -1.17099e-09 0)
(0.005 -1.22914e-09 0)
(0.005 -1.28919e-09 0)
(0.005 -1.35116e-09 0)
(0.005 -1.41506e-09 0)
(0.005 -1.48091e-09 0)
(0.005 -1.54871e-09 0)
(0.005 -1.61848e-09 0)
(0.005 -1.69021e-09 0)
(0.005 -1.76391e-09 0)
(0.005 -1.83958e-09 0)
(0.005 -1.91721e-09 0)
(0.005 -1.9968e-09 0)
(0.005 -2.07832e-09 0)
(0.005 -2.16178e-09 0)
(0.005 -2.24714e-09 0)
(0.005 -2.33439e-09 0)
(0.005 -2.42349e-09 0)
(0.005 -2.51443e-09 0)
(0.005 -2.60717e-09 0)
(0.005 -2.70167e-09 0)
(0.005 -2.79789e-09 0)
(0.005 -2.89579e-09 0)
(0.005 -2.99532e-09 0)
(0.005 -3.09643e-09 0)
(0.005 -3.19908e-09 0)
(0.005 -3.3032e-09 0)
(0.005 -3.40874e-09 0)
(0.005 -3.51563e-09 0)
(0.005 -3.62382e-09 0)
(0.005 -3.73322e-09 0)
(0.005 -3.84378e-09 0)
(0.005 -3.95542e-09 0)
(0.005 -4.06805e-09 0)
(0.00499999 -4.18161e-09 0)
(0.00499999 -4.29599e-09 0)
(0.00499999 -4.41112e-09 0)
(0.00499999 -4.52688e-09 0)
(0.00499999 -4.64317e-09 0)
(0.00499999 -4.75986e-09 0)
(0.00499999 -4.87681e-09 0)
(0.00499999 -4.99387e-09 0)
(0.00499999 -5.11085e-09 0)
(0.00499999 -5.22754e-09 0)
(0.00499999 -5.34367e-09 0)
(0.00499999 -5.45895e-09 0)
(0.00499999 -5.57304e-09 0)
(0.00499999 -5.68554e-09 0)
(0.00499999 -5.79599e-09 0)
(0.00499999 -5.9038e-09 0)
(0.00499999 -6.00822e-09 0)
(0.00499999 -6.10814e-09 0)
(0.00499999 -6.20197e-09 0)
(0.00499999 -6.28731e-09 0)
(0.00499999 -6.3605e-09 0)
(0.00499999 -6.41648e-09 0)
(0.00499999 -6.44999e-09 0)
(0.005 -3.72891e-12 0)
(0.005 -1.16776e-11 0)
(0.005 -2.01691e-11 0)
(0.005 -2.91917e-11 0)
(0.005 -3.87325e-11 0)
(0.005 -4.8789e-11 0)
(0.005 -5.93701e-11 0)
(0.005 -7.04933e-11 0)
(0.005 -8.21819e-11 0)
(0.005 -9.44637e-11 0)
(0.005 -1.07369e-10 0)
(0.005 -1.20931e-10 0)
(0.005 -1.35183e-10 0)
(0.005 -1.50159e-10 0)
(0.005 -1.65897e-10 0)
(0.005 -1.8243e-10 0)
(0.005 -1.99796e-10 0)
(0.005 -2.18031e-10 0)
(0.005 -2.37173e-10 0)
(0.005 -2.57257e-10 0)
(0.005 -2.78322e-10 0)
(0.005 -3.00404e-10 0)
(0.005 -3.23541e-10 0)
(0.005 -3.47771e-10 0)
(0.005 -3.7313e-10 0)
(0.005 -3.99657e-10 0)
(0.005 -4.27388e-10 0)
(0.005 -4.56361e-10 0)
(0.005 -4.86612e-10 0)
(0.005 -5.18179e-10 0)
(0.005 -5.51096e-10 0)
(0.005 -5.85401e-10 0)
(0.005 -6.21127e-10 0)
(0.005 -6.58309e-10 0)
(0.005 -6.96982e-10 0)
(0.005 -7.37177e-10 0)
(0.005 -7.78926e-10 0)
(0.005 -8.2226e-10 0)
(0.005 -8.67208e-10 0)
(0.005 -9.13798e-10 0)
(0.005 -9.62056e-10 0)
(0.005 -1.01201e-09 0)
(0.005 -1.06368e-09 0)
(0.005 -1.11709e-09 0)
(0.005 -1.17225e-09 0)
(0.005 -1.22919e-09 0)
(0.005 -1.28792e-09 0)
(0.005 -1.34845e-09 0)
(0.005 -1.4108e-09 0)
(0.005 -1.47496e-09 0)
(0.005 -1.54095e-09 0)
(0.005 -1.60878e-09 0)
(0.005 -1.67843e-09 0)
(0.005 -1.7499e-09 0)
(0.005 -1.8232e-09 0)
(0.005 -1.8983e-09 0)
(0.005 -1.97521e-09 0)
(0.005 -2.0539e-09 0)
(0.005 -2.13435e-09 0)
(0.005 -2.21656e-09 0)
(0.005 -2.30048e-09 0)
(0.005 -2.38611e-09 0)
(0.005 -2.47341e-09 0)
(0.005 -2.56234e-09 0)
(0.005 -2.65288e-09 0)
(0.005 -2.74499e-09 0)
(0.005 -2.83864e-09 0)
(0.005 -2.93378e-09 0)
(0.005 -3.03038e-09 0)
(0.005 -3.1284e-09 0)
(0.005 -3.22779e-09 0)
(0.005 -3.32851e-09 0)
(0.005 -3.43052e-09 0)
(0.005 -3.53378e-09 0)
(0.005 -3.63824e-09 0)
(0.005 -3.74386e-09 0)
(0.005 -3.8506e-09 0)
(0.00499999 -3.95841e-09 0)
(0.00499999 -4.06725e-09 0)
(0.00499999 -4.17708e-09 0)
(0.00499999 -4.28784e-09 0)
(0.00499999 -4.39948e-09 0)
(0.00499999 -4.51194e-09 0)
(0.00499999 -4.62514e-09 0)
(0.00499999 -4.73899e-09 0)
(0.00499999 -4.8534e-09 0)
(0.00499999 -4.9682e-09 0)
(0.00499999 -5.08324e-09 0)
(0.00499999 -5.19829e-09 0)
(0.00499999 -5.31307e-09 0)
(0.00499999 -5.42723e-09 0)
(0.00499999 -5.5403e-09 0)
(0.00499999 -5.65166e-09 0)
(0.00499999 -5.76042e-09 0)
(0.00499999 -5.86528e-09 0)
(0.00499999 -5.9644e-09 0)
(0.00499999 -6.05504e-09 0)
(0.00499999 -6.13322e-09 0)
(0.00499999 -6.19355e-09 0)
(0.00499999 -6.23e-09 0)
(0.005 -3.50669e-12 0)
(0.005 -1.09933e-11 0)
(0.005 -1.90134e-11 0)
(0.005 -2.75623e-11 0)
(0.005 -3.66293e-11 0)
(0.005 -4.62109e-11 0)
(0.005 -5.63133e-11 0)
(0.005 -6.69501e-11 0)
(0.005 -7.81405e-11 0)
(0.005 -8.9908e-11 0)
(0.005 -1.02279e-10 0)
(0.005 -1.15283e-10 0)
(0.005 -1.28949e-10 0)
(0.005 -1.4331e-10 0)
(0.005 -1.58398e-10 0)
(0.005 -1.74247e-10 0)
(0.005 -1.90889e-10 0)
(0.005 -2.08359e-10 0)
(0.005 -2.26691e-10 0)
(0.005 -2.45919e-10 0)
(0.005 -2.66079e-10 0)
(0.005 -2.87205e-10 0)
(0.005 -3.09332e-10 0)
(0.005 -3.32494e-10 0)
(0.005 -3.56727e-10 0)
(0.005 -3.82066e-10 0)
(0.005 -4.08545e-10 0)
(0.005 -4.36197e-10 0)
(0.005 -4.65059e-10 0)
(0.005 -4.95162e-10 0)
(0.005 -5.26541e-10 0)
(0.005 -5.59228e-10 0)
(0.005 -5.93255e-10 0)
(0.005 -6.28654e-10 0)
(0.005 -6.65454e-10 0)
(0.005 -7.03686e-10 0)
(0.005 -7.43379e-10 0)
(0.005 -7.84559e-10 0)
(0.005 -8.27254e-10 0)
(0.005 -8.71487e-10 0)
(0.005 -9.17282e-10 0)
(0.005 -9.64662e-10 0)
(0.005 -1.01365e-09 0)
(0.005 -1.06425e-09 0)
(0.005 -1.1165e-09 0)
(0.005 -1.1704e-09 0)
(0.005 -1.22596e-09 0)
(0.005 -1.28321e-09 0)
(0.005 -1.34213e-09 0)
(0.005 -1.40275e-09 0)
(0.005 -1.46506e-09 0)
(0.005 -1.52906e-09 0)
(0.005 -1.59476e-09 0)
(0.005 -1.66214e-09 0)
(0.005 -1.73121e-09 0)
(0.005 -1.80194e-09 0)
(0.005 -1.87434e-09 0)
(0.005 -1.94839e-09 0)
(0.005 -2.02406e-09 0)
(0.005 -2.10135e-09 0)
(0.005 -2.18023e-09 0)
(0.005 -2.26068e-09 0)
(0.005 -2.34267e-09 0)
(0.005 -2.42618e-09 0)
(0.005 -2.51119e-09 0)
(0.005 -2.59766e-09 0)
(0.005 -2.68557e-09 0)
(0.005 -2.77489e-09 0)
(0.005 -2.8656e-09 0)
(0.005 -2.95766e-09 0)
(0.005 -3.05105e-09 0)
(0.005 -3.14574e-09 0)
(0.005 -3.24173e-09 0)
(0.005 -3.33897e-09 0)
(0.005 -3.43746e-09 0)
(0.005 -3.53719e-09 0)
(0.005 -3.63814e-09 0)
(0.005 -3.74031e-09 0)
(0.00499999 -3.84368e-09 0)
(0.00499999 -3.94826e-09 0)
(0.00499999 -4.05404e-09 0)
(0.00499999 -4.16103e-09 0)
(0.00499999 -4.2692e-09 0)
(0.00499999 -4.37856e-09 0)
(0.00499999 -4.48906e-09 0)
(0.00499999 -4.60067e-09 0)
(0.00499999 -4.71331e-09 0)
(0.00499999 -4.82687e-09 0)
(0.00499999 -4.94119e-09 0)
(0.00499999 -5.05605e-09 0)
(0.00499999 -5.1711e-09 0)
(0.00499999 -5.28588e-09 0)
(0.00499999 -5.3997e-09 0)
(0.00499999 -5.51157e-09 0)
(0.00499999 -5.62005e-09 0)
(0.00499999 -5.72307e-09 0)
(0.00499999 -5.81764e-09 0)
(0.00499999 -5.89954e-09 0)
(0.00499999 -5.9631e-09 0)
(0.00499999 -6.00155e-09 0)
(0.005 -3.29924e-12 0)
(0.005 -1.03518e-11 0)
(0.005 -1.79241e-11 0)
(0.005 -2.60175e-11 0)
(0.005 -3.46237e-11 0)
(0.005 -4.37394e-11 0)
(0.005 -5.33691e-11 0)
(0.005 -6.35237e-11 0)
(0.005 -7.42192e-11 0)
(0.005 -8.54757e-11 0)
(0.005 -9.73163e-11 0)
(0.005 -1.09766e-10 0)
(0.005 -1.22853e-10 0)
(0.005 -1.36606e-10 0)
(0.005 -1.51053e-10 0)
(0.005 -1.66225e-10 0)
(0.005 -1.82154e-10 0)
(0.005 -1.98871e-10 0)
(0.005 -2.16407e-10 0)
(0.005 -2.34795e-10 0)
(0.005 -2.54067e-10 0)
(0.005 -2.74254e-10 0)
(0.005 -2.9539e-10 0)
(0.005 -3.17507e-10 0)
(0.005 -3.40637e-10 0)
(0.005 -3.64811e-10 0)
(0.005 -3.90064e-10 0)
(0.005 -4.16424e-10 0)
(0.005 -4.43925e-10 0)
(0.005 -4.72598e-10 0)
(0.005 -5.02471e-10 0)
(0.005 -5.33576e-10 0)
(0.005 -5.65942e-10 0)
(0.005 -5.99597e-10 0)
(0.005 -6.34569e-10 0)
(0.005 -6.70884e-10 0)
(0.005 -7.08568e-10 0)
(0.005 -7.47645e-10 0)
(0.005 -7.88139e-10 0)
(0.005 -8.30072e-10 0)
(0.005 -8.73464e-10 0)
(0.005 -9.18333e-10 0)
(0.005 -9.64698e-10 0)
(0.005 -1.01257e-09 0)
(0.005 -1.06197e-09 0)
(0.005 -1.11291e-09 0)
(0.005 -1.16539e-09 0)
(0.005 -1.21943e-09 0)
(0.005 -1.27502e-09 0)
(0.005 -1.33218e-09 0)
(0.005 -1.39091e-09 0)
(0.005 -1.45119e-09 0)
(0.005 -1.51304e-09 0)
(0.005 -1.57644e-09 0)
(0.005 -1.64139e-09 0)
(0.005 -1.70788e-09 0)
(0.005 -1.77589e-09 0)
(0.005 -1.84542e-09 0)
(0.005 -1.91644e-09 0)
(0.005 -1.98895e-09 0)
(0.005 -2.06292e-09 0)
(0.005 -2.13833e-09 0)
(0.005 -2.21517e-09 0)
(0.005 -2.29341e-09 0)
(0.005 -2.37304e-09 0)
(0.005 -2.45403e-09 0)
(0.005 -2.53636e-09 0)
(0.005 -2.62002e-09 0)
(0.005 -2.70499e-09 0)
(0.005 -2.79126e-09 0)
(0.005 -2.87881e-09 0)
(0.005 -2.96764e-09 0)
(0.005 -3.05775e-09 0)
(0.005 -3.14913e-09 0)
(0.005 -3.2418e-09 0)
(0.005 -3.33576e-09 0)
(0.005 -3.43104e-09 0)
(0.005 -3.52765e-09 0)
(0.00499999 -3.62564e-09 0)
(0.00499999 -3.72503e-09 0)
(0.00499999 -3.82587e-09 0)
(0.00499999 -3.92819e-09 0)
(0.00499999 -4.03204e-09 0)
(0.00499999 -4.13745e-09 0)
(0.00499999 -4.24446e-09 0)
(0.00499999 -4.35306e-09 0)
(0.00499999 -4.46325e-09 0)
(0.00499999 -4.57496e-09 0)
(0.00499999 -4.68808e-09 0)
(0.00499999 -4.80242e-09 0)
(0.00499999 -4.91764e-09 0)
(0.00499999 -5.03327e-09 0)
(0.00499999 -5.14857e-09 0)
(0.00499999 -5.26247e-09 0)
(0.00499999 -5.3734e-09 0)
(0.00499999 -5.47912e-09 0)
(0.00499999 -5.57645e-09 0)
(0.00499999 -5.66099e-09 0)
(0.00499999 -5.72681e-09 0)
(0.00499999 -5.76661e-09 0)
(0.005 -3.10449e-12 0)
(0.005 -9.74765e-12 0)
(0.005 -1.68944e-11 0)
(0.005 -2.45507e-11 0)
(0.005 -3.27106e-11 0)
(0.005 -4.13714e-11 0)
(0.005 -5.05368e-11 0)
(0.005 -6.02159e-11 0)
(0.005 -7.04222e-11 0)
(0.005 -8.11731e-11 0)
(0.005 -9.24886e-11 0)
(0.005 -1.04391e-10 0)
(0.005 -1.16905e-10 0)
(0.005 -1.30057e-10 0)
(0.005 -1.43872e-10 0)
(0.005 -1.5838e-10 0)
(0.005 -1.73607e-10 0)
(0.005 -1.89584e-10 0)
(0.005 -2.06339e-10 0)
(0.005 -2.23902e-10 0)
(0.005 -2.42303e-10 0)
(0.005 -2.61571e-10 0)
(0.005 -2.81737e-10 0)
(0.005 -3.02829e-10 0)
(0.005 -3.2488e-10 0)
(0.005 -3.47916e-10 0)
(0.005 -3.71969e-10 0)
(0.005 -3.97067e-10 0)
(0.005 -4.2324e-10 0)
(0.005 -4.50514e-10 0)
(0.005 -4.78918e-10 0)
(0.005 -5.08479e-10 0)
(0.005 -5.39224e-10 0)
(0.005 -5.71178e-10 0)
(0.005 -6.04366e-10 0)
(0.005 -6.38812e-10 0)
(0.005 -6.74537e-10 0)
(0.005 -7.11565e-10 0)
(0.005 -7.49916e-10 0)
(0.005 -7.89608e-10 0)
(0.005 -8.30658e-10 0)
(0.005 -8.73084e-10 0)
(0.005 -9.169e-10 0)
(0.005 -9.62117e-10 0)
(0.005 -1.00875e-09 0)
(0.005 -1.0568e-09 0)
(0.005 -1.10629e-09 0)
(0.005 -1.15721e-09 0)
(0.005 -1.20956e-09 0)
(0.005 -1.26336e-09 0)
(0.005 -1.3186e-09 0)
(0.005 -1.37527e-09 0)
(0.005 -1.43338e-09 0)
(0.005 -1.49292e-09 0)
(0.005 -1.55387e-09 0)
(0.005 -1.61623e-09 0)
(0.005 -1.67999e-09 0)
(0.005 -1.74514e-09 0)
(0.005 -1.81165e-09 0)
(0.005 -1.87952e-09 0)
(0.005 -1.94873e-09 0)
(0.005 -2.01926e-09 0)
(0.005 -2.0911e-09 0)
(0.005 -2.16423e-09 0)
(0.005 -2.23864e-09 0)
(0.005 -2.31431e-09 0)
(0.005 -2.39124e-09 0)
(0.005 -2.4694e-09 0)
(0.005 -2.54881e-09 0)
(0.005 -2.62945e-09 0)
(0.005 -2.71134e-09 0)
(0.005 -2.79446e-09 0)
(0.005 -2.87886e-09 0)
(0.005 -2.96453e-09 0)
(0.005 -3.05152e-09 0)
(0.005 -3.13985e-09 0)
(0.005 -3.22958e-09 0)
(0.005 -3.32076e-09 0)
(0.005 -3.41345e-09 0)
(0.00499999 -3.50772e-09 0)
(0.00499999 -3.60364e-09 0)
(0.00499999 -3.7013e-09 0)
(0.00499999 -3.80079e-09 0)
(0.00499999 -3.90218e-09 0)
(0.00499999 -4.00555e-09 0)
(0.00499999 -4.11095e-09 0)
(0.00499999 -4.21841e-09 0)
(0.00499999 -4.32792e-09 0)
(0.00499999 -4.43939e-09 0)
(0.00499999 -4.55264e-09 0)
(0.00499999 -4.66737e-09 0)
(0.00499999 -4.78308e-09 0)
(0.00499999 -4.89899e-09 0)
(0.00499999 -5.01396e-09 0)
(0.00499999 -5.12631e-09 0)
(0.00499999 -5.23368e-09 0)
(0.00499999 -5.33278e-09 0)
(0.00499999 -5.41903e-09 0)
(0.00499999 -5.48634e-09 0)
(0.00499999 -5.52699e-09 0)
(0.005 -2.9209e-12 0)
(0.005 -9.17694e-12 0)
(0.005 -1.59188e-11 0)
(0.005 -2.31562e-11 0)
(0.005 -3.08851e-11 0)
(0.005 -3.91035e-11 0)
(0.005 -4.78149e-11 0)
(0.005 -5.70272e-11 0)
(0.005 -6.6752e-11 0)
(0.005 -7.70044e-11 0)
(0.005 -8.78021e-11 0)
(0.005 -9.91649e-11 0)
(0.005 -1.11115e-10 0)
(0.005 -1.23674e-10 0)
(0.005 -1.36868e-10 0)
(0.005 -1.50721e-10 0)
(0.005 -1.6526e-10 0)
(0.005 -1.80511e-10 0)
(0.005 -1.965e-10 0)