/*--------------------------------*- C++ -*----------------------------------*\
  =========                 |
  \\      /  F ield         | OpenFOAM: The Open Source CFD Toolbox
   \\    /   O peration     | Website:  https://openfoam.org
    \\  /    A nd           | Version:  11
     \\/     M anipulation  |
\*---------------------------------------------------------------------------*/
FoamFile
{
    format      ascii;
    class       volScalarField;
    location    "1708";
    object      p;
}
// * * * * * * * * * * * * * * * * * * * * * * * * * * * * * * * * * * * * * //

dimensions      [0 2 -2 0 0 0 0];

internalField   nonuniform List<scalar> 
10000
(
3.60794e-15
3.50507e-15
3.62857e-15
3.90739e-15
4.23392e-15
4.58348e-15
4.95385e-15
5.34425e-15
5.75454e-15
6.18536e-15
6.63789e-15
7.1135e-15
7.61376e-15
8.14012e-15
8.69434e-15
9.27797e-15
9.89275e-15
1.05404e-14
1.12227e-14
1.19415e-14
1.26986e-14
1.34958e-14
1.43353e-14
1.52188e-14
1.61485e-14
1.71264e-14
1.81547e-14
1.92355e-14
2.0371e-14
2.15635e-14
2.28152e-14
2.41284e-14
2.55056e-14
2.69491e-14
2.84612e-14
3.00445e-14
3.17013e-14
3.3434e-14
3.52451e-14
3.7137e-14
3.91121e-14
4.11728e-14
4.33212e-14
4.55598e-14
4.78907e-14
5.03159e-14
5.28374e-14
5.54572e-14
5.81769e-14
6.0998e-14
6.39217e-14
6.69494e-14
7.00817e-14
7.33191e-14
7.66619e-14
8.01098e-14
8.36623e-14
8.73181e-14
9.10758e-14
9.4933e-14
9.88868e-14
1.02933e-13
1.07069e-13
1.11287e-13
1.15582e-13
1.19945e-13
1.24369e-13
1.28842e-13
1.33354e-13
1.37889e-13
1.42433e-13
1.46968e-13
1.51474e-13
1.55927e-13
1.60301e-13
1.64568e-13
1.68695e-13
1.72643e-13
1.76371e-13
1.79831e-13
1.8297e-13
1.85729e-13
1.88038e-13
1.89823e-13
1.90998e-13
1.91466e-13
1.91117e-13
1.89827e-13
1.87457e-13
1.83846e-13
1.7881e-13
1.72133e-13
1.63564e-13
1.52792e-13
1.39421e-13
1.22935e-13
1.02714e-13
7.81205e-14
4.36966e-14
2.70496e-15
6.62257e-15
6.21335e-15
5.95739e-15
6.04527e-15
6.2866e-15
6.60499e-15
6.97965e-15
7.39971e-15
7.85823e-15
8.35178e-15
8.8791e-15
9.4398e-15
1.00344e-14
1.06637e-14
1.1329e-14
1.20317e-14
1.27732e-14
1.35554e-14
1.43802e-14
1.52493e-14
1.61647e-14
1.71286e-14
1.8143e-14
1.92101e-14
2.03323e-14
2.15119e-14
2.27513e-14
2.40528e-14
2.54188e-14
2.6852e-14
2.83549e-14
2.99301e-14
3.15803e-14
3.3308e-14
3.5116e-14
3.70067e-14
3.89831e-14
4.10476e-14
4.32031e-14
4.5452e-14
4.77968e-14
5.02403e-14
5.27846e-14
5.54323e-14
5.81854e-14
6.10462e-14
6.40164e-14
6.7098e-14
7.02925e-14
7.36012e-14
7.7025e-14
8.05648e-14
8.42209e-14
8.79934e-14
9.18817e-14
9.58848e-14
1.00001e-13
1.04229e-13
1.08566e-13
1.13007e-13
1.17548e-13
1.22185e-13
1.2691e-13
1.31716e-13
1.36595e-13
1.41534e-13
1.46524e-13
1.5155e-13
1.56596e-13
1.61644e-13
1.66674e-13
1.71663e-13
1.76585e-13
1.8141e-13
1.86106e-13
1.90634e-13
1.94953e-13
1.99015e-13
2.02768e-13
2.06153e-13
2.09101e-13
2.11537e-13
2.13379e-13
2.1453e-13
2.14883e-13
2.14319e-13
2.12701e-13
2.09875e-13
2.05667e-13
1.99876e-13
1.92272e-13
1.82588e-13
1.70507e-13
1.55643e-13
1.37522e-13
1.1565e-13
8.95038e-14
5.67441e-14
8.62387e-15
-3.20835e-14
7.91958e-15
7.34213e-15
6.83785e-15
6.68918e-15
6.72929e-15
6.87535e-15
7.09947e-15
7.385e-15
7.72009e-15
8.09771e-15
8.51381e-15
8.96576e-15
9.45245e-15
9.97325e-15
1.05283e-14
1.1118e-14
1.17431e-14
1.24045e-14
1.31035e-14
1.38412e-14
1.46192e-14
1.54388e-14
1.63016e-14
1.72092e-14
1.81636e-14
1.91663e-14
2.02192e-14
2.13243e-14
2.24833e-14
2.36982e-14
2.4971e-14
2.63037e-14
2.76984e-14
2.91571e-14
3.06817e-14
3.22742e-14
3.39368e-14
3.56712e-14
3.74797e-14
3.93639e-14
4.13258e-14
4.33672e-14
4.54897e-14
4.76949e-14
4.99842e-14
5.23592e-14
5.48207e-14
5.73701e-14
6.00079e-14
6.27348e-14
6.55509e-14
6.84563e-14
7.14508e-14
7.45334e-14
7.7703e-14
8.09581e-14
8.42964e-14
8.77154e-14
9.12116e-14
9.47809e-14
9.84184e-14
1.02118e-13
1.05874e-13
1.09678e-13
1.13521e-13
1.17392e-13
1.2128e-13
1.25172e-13
1.29052e-13
1.32903e-13
1.36707e-13
1.4044e-13
1.44078e-13
1.47594e-13
1.50958e-13
1.54133e-13
1.57082e-13
1.59762e-13
1.62123e-13
1.64111e-13
1.65666e-13
1.66719e-13
1.67194e-13
1.67007e-13
1.6606e-13
1.64246e-13
1.61444e-13
1.57518e-13
1.52312e-13
1.45649e-13
1.37329e-13
1.27118e-13
1.14745e-13
9.98817e-14
8.21543e-14
6.12703e-14
3.68725e-14
5.79748e-15
-3.95775e-14
-6.43963e-14
8.9882e-15
8.36257e-15
7.80902e-15
7.56847e-15
7.50929e-15
7.5641e-15
7.70715e-15
7.92123e-15
8.19298e-15
8.51381e-15
8.87828e-15
9.28244e-15
9.72415e-15
1.02019e-14
1.07151e-14
1.12634e-14
1.18473e-14
1.24671e-14
1.31236e-14
1.38176e-14
1.45504e-14
1.53229e-14
1.61366e-14
1.69926e-14
1.78927e-14
1.88382e-14
1.98307e-14
2.08718e-14
2.1963e-14
2.3106e-14
2.43027e-14
2.55547e-14
2.68637e-14
2.82315e-14
2.96596e-14
3.11499e-14
3.27039e-14
3.43233e-14
3.60097e-14
3.77647e-14
3.95898e-14
4.14862e-14
4.34553e-14
4.54982e-14
4.76159e-14
4.98094e-14
5.20794e-14
5.44263e-14
5.68506e-14
5.93522e-14
6.19307e-14
6.45859e-14
6.73166e-14
7.01215e-14
7.29991e-14
7.5947e-14
7.89626e-14
8.20424e-14
8.51825e-14
8.83781e-14
9.16237e-14
9.49129e-14
9.82383e-14
1.01592e-13
1.04963e-13
1.08341e-13
1.11714e-13
1.15068e-13
1.18386e-13
1.21651e-13
1.24843e-13
1.2794e-13
1.30917e-13
1.33744e-13
1.36392e-13
1.38825e-13
1.41005e-13
1.42887e-13
1.44423e-13
1.45559e-13
1.46236e-13
1.46385e-13
1.45932e-13
1.44793e-13
1.42874e-13
1.40071e-13
1.36267e-13
1.31331e-13
1.25113e-13
1.17448e-13
1.08147e-13
9.69953e-14
8.37459e-14
6.81081e-14
4.97689e-14
2.85477e-14
4.15288e-15
-2.70252e-14
-7.15634e-14
-8.95371e-14
9.86287e-15
9.24411e-15
8.7002e-15
8.42532e-15
8.31437e-15
8.31573e-15
8.40865e-15
8.57703e-15
8.8079e-15
9.09249e-15
9.42462e-15
9.79976e-15
1.0215e-14
1.06685e-14
1.1159e-14
1.16858e-14
1.2249e-14
1.28485e-14
1.34848e-14
1.41586e-14
1.48706e-14
1.56218e-14
1.64133e-14
1.72462e-14
1.81218e-14
1.90414e-14
2.00065e-14
2.10183e-14
2.20782e-14
2.31877e-14
2.43485e-14
2.55619e-14
2.68295e-14
2.81528e-14
2.95332e-14
3.09723e-14
3.24713e-14
3.40317e-14
3.56549e-14
3.7342e-14
3.90943e-14
4.09128e-14
4.27986e-14
4.47523e-14
4.67747e-14
4.88663e-14
5.10276e-14
5.32585e-14
5.5559e-14
5.79286e-14
6.03667e-14
6.28723e-14
6.54439e-14
6.80797e-14
7.07776e-14
7.35347e-14
7.63477e-14
7.92127e-14
8.2125e-14
8.50794e-14
8.80694e-14
9.10883e-14
9.41277e-14
9.71785e-14
1.0023e-13
1.03271e-13
1.06288e-13
1.09266e-13
1.12189e-13
1.15037e-13
1.17789e-13
1.20424e-13
1.22914e-13
1.25231e-13
1.27342e-13
1.29212e-13
1.30801e-13
1.32064e-13
1.32953e-13
1.33413e-13
1.33383e-13
1.32797e-13
1.31579e-13
1.29645e-13
1.26905e-13
1.23254e-13
1.1858e-13
1.12753e-13
1.05632e-13
9.7059e-14
8.68563e-14
7.48268e-14
6.07482e-14
4.43635e-14
2.54132e-14
3.8095e-15
-2.06567e-14
-5.18395e-14
-9.56326e-14
-1.09909e-13
1.05465e-14
9.95639e-15
9.43384e-15
9.14365e-15
8.99996e-15
8.96277e-15
9.0159e-15
9.14562e-15
9.34002e-15
9.5905e-15
9.89092e-15
1.02364e-14
1.06237e-14
1.10506e-14
1.15155e-14
1.20175e-14
1.2556e-14
1.3131e-14
1.37424e-14
1.43909e-14
1.50769e-14
1.58011e-14
1.65645e-14
1.7368e-14
1.82126e-14
1.90994e-14
2.00296e-14
2.10045e-14
2.20251e-14
2.30929e-14
2.4209e-14
2.53748e-14
2.65916e-14
2.78607e-14
2.91832e-14
3.05605e-14
3.19935e-14
3.34837e-14
3.50318e-14
3.66389e-14
3.8306e-14
4.00336e-14
4.18227e-14
4.36734e-14
4.55864e-14
4.75616e-14
4.95991e-14
5.16987e-14
5.38598e-14
5.60815e-14
5.83629e-14
6.07023e-14
6.30981e-14
6.55477e-14
6.80487e-14
7.05977e-14
7.31908e-14
7.58235e-14
7.84908e-14
8.11866e-14
8.39043e-14
8.6636e-14
8.93733e-14
9.21061e-14
9.48235e-14
9.75131e-14
1.00161e-13
1.02752e-13
1.05268e-13
1.0769e-13
1.09997e-13
1.12165e-13
1.14168e-13
1.15975e-13
1.17555e-13
1.18872e-13
1.19884e-13
1.20549e-13
1.20817e-13
1.20633e-13
1.19939e-13
1.18667e-13
1.16744e-13
1.1409e-13
1.10614e-13
1.06217e-13
1.00791e-13
9.42146e-14
8.63545e-14
7.70642e-14
6.61826e-14
5.35341e-14
3.89252e-14
2.21371e-14
2.96503e-15
-1.85783e-14
-4.25849e-14
-7.32351e-14
-1.17132e-13
-1.26191e-13
1.10926e-14
1.05377e-14
1.00414e-14
9.74779e-15
9.58446e-15
9.52017e-15
9.54248e-15
9.64021e-15
9.80279e-15
1.00223e-14
1.02927e-14
1.06093e-14
1.09687e-14
1.13684e-14
1.18066e-14
1.2282e-14
1.2794e-14
1.3342e-14
1.3926e-14
1.45464e-14
1.52033e-14
1.58974e-14
1.66293e-14
1.73997e-14
1.82094e-14
1.90594e-14
1.99508e-14
2.08844e-14
2.18613e-14
2.28826e-14
2.39493e-14
2.50625e-14
2.62234e-14
2.74329e-14
2.86922e-14
3.0002e-14
3.13634e-14
3.27772e-14
3.42443e-14
3.57652e-14
3.73407e-14
3.89711e-14
4.06569e-14
4.23982e-14
4.4195e-14
4.6047e-14
4.79541e-14
4.99156e-14
5.19304e-14
5.39976e-14
5.61154e-14
5.82821e-14
6.04955e-14
6.27527e-14
6.50507e-14
6.73856e-14
6.97532e-14
7.21485e-14
7.4566e-14
7.69991e-14
7.94407e-14
8.18825e-14
8.43154e-14
8.6729e-14
8.91119e-14
9.1451e-14
9.37322e-14
9.59395e-14
9.8055e-14
1.00059e-13
1.0193e-13
1.03644e-13
1.05173e-13
1.0649e-13
1.0756e-13
1.08347e-13
1.08813e-13
1.08913e-13
1.086e-13
1.07818e-13
1.06511e-13
1.04614e-13
1.02055e-13
9.87578e-14
9.46353e-14
8.95942e-14
8.3532e-14
7.63362e-14
6.78845e-14
5.80442e-14
4.66722e-14
3.36164e-14
1.87132e-14
1.78123e-15
-1.73335e-14
-3.85163e-14
-6.17235e-14
-9.15905e-14
-1.36714e-13
-1.39464e-13
1.15398e-14
1.10208e-14
1.05524e-14
1.0263e-14
1.00897e-14
1.00075e-14
1.0007e-14
1.00792e-14
1.02151e-14
1.04076e-14
1.0651e-14
1.09408e-14
1.12738e-14
1.16472e-14
1.20591e-14
1.25081e-14
1.29934e-14
1.35143e-14
1.40706e-14
1.46622e-14
1.52894e-14
1.59524e-14
1.66518e-14
1.73882e-14
1.81621e-14
1.89742e-14
1.98256e-14
2.07169e-14
2.16489e-14
2.26226e-14
2.36389e-14
2.46984e-14
2.58023e-14
2.69513e-14
2.81463e-14
2.93877e-14
3.06766e-14
3.20134e-14
3.33987e-14
3.48329e-14
3.63163e-14
3.78492e-14
3.94315e-14
4.10632e-14
4.27441e-14
4.44735e-14
4.62508e-14
4.8075e-14
4.99448e-14
5.18589e-14
5.38151e-14
5.58114e-14
5.78451e-14
5.9913e-14
6.20116e-14
6.41367e-14
6.62837e-14
6.84472e-14
7.06212e-14
7.27987e-14
7.49722e-14
7.7133e-14
7.92716e-14
8.13771e-14
8.34378e-14
8.54404e-14
8.73702e-14
8.92109e-14
9.09446e-14
9.25512e-14
9.40089e-14
9.52934e-14
9.63781e-14
9.72334e-14
9.78271e-14
9.81235e-14
9.80835e-14
9.7664e-14
9.6818e-14
9.54937e-14
9.36342e-14
9.11777e-14
8.80561e-14
8.41955e-14
7.95148e-14
7.39263e-14
6.73346e-14
5.96367e-14
5.07218e-14
4.04717e-14
2.87616e-14
1.54623e-14
4.39092e-16
-1.64559e-14
-3.53328e-14
-5.59861e-14
-7.82458e-14
-1.07228e-13
-1.53814e-13
-1.50931e-13
1.19095e-14
1.14245e-14
1.09834e-14
1.07024e-14
1.05254e-14
1.04319e-14
1.04148e-14
1.04668e-14
1.05803e-14
1.07492e-14
1.09683e-14
1.12334e-14
1.15415e-14
1.18897e-14
1.22759e-14
1.2699e-14
1.31577e-14
1.36515e-14
1.41796e-14
1.47421e-14
1.53389e-14
1.59704e-14
1.66367e-14
1.73383e-14
1.80755e-14
1.88491e-14
1.96597e-14
2.05078e-14
2.13942e-14
2.23195e-14
2.32844e-14
2.42896e-14
2.53358e-14
2.64236e-14
2.75535e-14
2.87262e-14
2.9942e-14
3.12014e-14
3.25047e-14
3.38519e-14
3.52434e-14
3.66788e-14
3.8158e-14
3.96806e-14
4.12462e-14
4.28539e-14
4.45025e-14
4.61909e-14
4.79176e-14
4.96806e-14
5.14778e-14
5.33065e-14
5.51638e-14
5.70463e-14
5.89499e-14
6.08702e-14
6.28021e-14
6.47401e-14
6.66775e-14
6.86073e-14
7.05213e-14
7.24108e-14
7.42658e-14
7.60751e-14
7.78268e-14
7.95072e-14
8.11015e-14
8.25933e-14
8.39643e-14
8.51946e-14
8.62622e-14
8.71431e-14
8.78107e-14
8.82359e-14
8.8387e-14
8.82288e-14
8.77232e-14
8.68283e-14
8.54985e-14
8.36838e-14
8.13298e-14
7.83771e-14
7.47616e-14
7.04133e-14
6.52565e-14
5.92097e-14
5.21855e-14
4.40903e-14
3.48251e-14
2.42858e-14
1.23653e-14
-1.04419e-15
-1.60512e-14
-3.27733e-14
-5.12831e-14
-7.12953e-14
-9.251e-14
-1.20391e-13
-1.67909e-13
-1.60657e-13
1.2215e-14
1.17614e-14
1.13461e-14
1.10755e-14
1.08988e-14
1.07984e-14
1.07692e-14
1.0805e-14
1.08998e-14
1.10481e-14
1.12453e-14
1.14876e-14
1.1772e-14
1.20958e-14
1.24573e-14
1.28547e-14
1.3287e-14
1.37533e-14
1.42532e-14
1.47863e-14
1.53524e-14
1.59516e-14
1.65842e-14
1.72503e-14
1.79502e-14
1.86844e-14
1.94534e-14
2.02576e-14
2.10975e-14
2.19737e-14
2.28865e-14
2.38365e-14
2.48243e-14
2.58502e-14
2.69147e-14
2.8018e-14
2.91603e-14
3.03419e-14
3.15628e-14
3.2823e-14
3.41224e-14
3.54605e-14
3.68369e-14
3.8251e-14
3.9702e-14
4.11888e-14
4.27099e-14
4.42641e-14
4.58492e-14
4.74633e-14
4.91038e-14
5.07678e-14
5.24521e-14
5.41529e-14
5.58658e-14
5.7586e-14
5.93084e-14
6.10269e-14
6.27346e-14
6.44242e-14
6.60874e-14
6.7715e-14
6.92969e-14
7.08217e-14
7.22771e-14
7.36495e-14
7.49238e-14
7.60836e-14
7.71108e-14
7.79854e-14
7.86855e-14
7.91876e-14
7.94652e-14
7.949e-14
7.92307e-14
7.86535e-14
7.7721e-14
7.63929e-14
7.46251e-14
7.23702e-14
6.9576e-14
6.61866e-14
6.21414e-14
5.7375e-14
5.18173e-14
4.53933e-14
3.80236e-14
2.96239e-14
2.01064e-14
9.3806e-15
-2.64464e-15
-1.60579e-14
-3.09449e-14
-4.7398e-14
-6.54585e-14
-8.47781e-14
-1.04943e-13
-1.31612e-13
-1.7915e-13
-1.68911e-13
1.24658e-14
1.20407e-14
1.16496e-14
1.13903e-14
1.12163e-14
1.11121e-14
1.10741e-14
1.1097e-14
1.1176e-14
1.13061e-14
1.14835e-14
1.17046e-14
1.19666e-14
1.22672e-14
1.26044e-14
1.29766e-14
1.33826e-14
1.38216e-14
1.42931e-14
1.47965e-14
1.53316e-14
1.58983e-14
1.64965e-14
1.71266e-14
1.77887e-14
1.84829e-14
1.92097e-14
1.99694e-14
2.07622e-14
2.15885e-14
2.24488e-14
2.33432e-14
2.4272e-14
2.52356e-14
2.62341e-14
2.72677e-14
2.83364e-14
2.94401e-14
3.05787e-14
3.1752e-14
3.29595e-14
3.42008e-14
3.5475e-14
3.67813e-14
3.81186e-14
3.94858e-14
4.08809e-14
4.23025e-14
4.37482e-14
4.52159e-14
4.67025e-14
4.82051e-14
4.97199e-14
5.1243e-14
5.27698e-14
5.42953e-14
5.58139e-14
5.73193e-14
5.88047e-14
6.02622e-14
6.16833e-14
6.30588e-14
6.43783e-14
6.56304e-14
6.68027e-14
6.78812e-14
6.88513e-14
6.96964e-14
7.03985e-14
7.09378e-14
7.1293e-14
7.14406e-14
7.13551e-14
7.10084e-14
7.03705e-14
6.94085e-14
6.80865e-14
6.63656e-14
6.42041e-14
6.15563e-14
5.83735e-14
5.46028e-14
5.01876e-14
4.50673e-14
3.91772e-14
3.24491e-14
2.4811e-14
1.61878e-14
6.50209e-15
-4.32439e-15
-1.63687e-14
-2.97032e-14
-4.43958e-14
-6.05191e-14
-7.80936e-14
-9.67326e-14
-1.15966e-13
-1.41648e-13
-1.89004e-13
-1.7673e-13
1.26685e-14
1.22694e-14
1.1901e-14
1.16534e-14
1.14837e-14
1.1378e-14
1.13335e-14
1.1346e-14
1.14114e-14
1.15255e-14
1.16848e-14
1.18862e-14
1.21271e-14
1.24053e-14
1.27189e-14
1.30663e-14
1.34464e-14
1.38583e-14
1.43013e-14
1.47748e-14
1.52787e-14
1.58126e-14
1.63764e-14
1.69701e-14
1.75939e-14
1.82477e-14
1.89319e-14
1.96466e-14
2.03919e-14
2.11681e-14
2.19753e-14
2.28137e-14
2.36835e-14
2.45846e-14
2.5517e-14
2.64808e-14
2.74759e-14
2.85019e-14
2.95584e-14
3.06452e-14
3.17614e-14
3.29065e-14
3.40794e-14
3.5279e-14
3.65041e-14
3.77531e-14
3.90241e-14
4.03153e-14
4.16241e-14
4.29481e-14
4.4284e-14
4.56286e-14
4.69779e-14
4.83278e-14
4.96736e-14
5.10099e-14
5.23309e-14
5.36301e-14
5.49006e-14
5.61344e-14
5.73226e-14
5.8456e-14
5.95243e-14
6.05157e-14
6.1418e-14
6.22174e-14
6.2899e-14
6.34466e-14
6.38424e-14
6.40669e-14
6.40993e-14
6.39166e-14
6.34939e-14
6.28043e-14
6.18185e-14
6.0505e-14
5.88293e-14
5.67545e-14
5.42408e-14
5.12453e-14
4.77219e-14
4.36215e-14
3.88914e-14
3.34757e-14
2.73153e-14
2.03482e-14
1.25097e-14
3.73302e-15
-6.04959e-15
-1.69057e-14
-2.89004e-14
-4.2093e-14
-5.65374e-14
-7.22931e-14
-8.93678e-14
-1.07353e-13
-1.2576e-13
-1.50668e-13
-1.97985e-13
-1.83819e-13
1.28283e-14
1.24533e-14
1.21062e-14
1.18704e-14
1.17057e-14
1.16e-14
1.15509e-14
1.1555e-14
1.16087e-14
1.17085e-14
1.18512e-14
1.20342e-14
1.22551e-14
1.25117e-14
1.28023e-14
1.31254e-14
1.348e-14
1.38649e-14
1.42796e-14
1.47235e-14
1.5196e-14
1.56969e-14
1.6226e-14
1.67832e-14
1.73684e-14
1.79817e-14
1.86231e-14
1.92925e-14
1.99901e-14
2.07159e-14
2.147e-14
2.22523e-14
2.30628e-14
2.39014e-14
2.47679e-14
2.56622e-14
2.65838e-14
2.75324e-14
2.85075e-14
2.95083e-14
3.05341e-14
3.15839e-14
3.26567e-14
3.3751e-14
3.48655e-14
3.59982e-14
3.71472e-14
3.83103e-14
3.9485e-14
4.06683e-14
4.18569e-14
4.30474e-14
4.42356e-14
4.54172e-14
4.65871e-14
4.774e-14
4.88699e-14
4.99702e-14
5.10336e-14
5.2052e-14
5.30168e-14
5.39185e-14
5.47467e-14
5.54897e-14
5.61354e-14
5.667e-14
5.70789e-14
5.73461e-14
5.74541e-14
5.7384e-14
5.71154e-14
5.66258e-14
5.58915e-14
5.48864e-14
5.35823e-14
5.19491e-14
4.9954e-14
4.75619e-14
4.47354e-14
4.14342e-14
3.76152e-14
3.32327e-14
2.8238e-14
2.258e-14
1.62048e-14
9.05639e-15
1.07689e-15
-7.79286e-15
-1.76122e-14
-2.84393e-14
-4.03295e-14
-5.33312e-14
-6.7488e-14
-8.28503e-14
-9.94176e-14
-1.16766e-13
-1.34398e-13
-1.58577e-13
-2.057e-13
-1.89624e-13
1.29497e-14
1.25971e-14
1.227e-14
1.20458e-14
1.18869e-14
1.17821e-14
1.17297e-14
1.17269e-14
1.17703e-14
1.18572e-14
1.19847e-14
1.21504e-14
1.23521e-14
1.25881e-14
1.28564e-14
1.31558e-14
1.34851e-14
1.38435e-14
1.423e-14
1.46443e-14
1.50855e-14
1.55534e-14
1.60477e-14
1.65684e-14
1.7115e-14
1.76876e-14
1.8286e-14
1.89101e-14
1.95599e-14
2.02353e-14
2.09363e-14
2.16625e-14
2.24139e-14
2.31903e-14
2.39911e-14
2.48161e-14
2.56649e-14
2.65367e-14
2.74309e-14
2.83467e-14
2.92832e-14
3.0239e-14
3.1213e-14
3.22036e-14
3.32093e-14
3.42279e-14
3.52572e-14
3.6295e-14
3.73384e-14
3.83843e-14
3.94294e-14
4.04698e-14
4.15015e-14
4.25198e-14
4.35194e-14
4.4495e-14
4.54404e-14
4.6349e-14
4.72133e-14
4.80252e-14
4.8776e-14
4.94563e-14
5.00556e-14
5.05626e-14
5.09648e-14
5.12491e-14
5.14009e-14
5.14045e-14
5.1243e-14
5.08979e-14
5.03494e-14
4.95761e-14
4.85546e-14
4.72603e-14
4.56663e-14
4.37438e-14
4.14617e-14
3.8787e-14
3.56847e-14
3.21168e-14
2.80436e-14
2.34225e-14
1.82092e-14
1.23566e-14
5.81613e-15
-1.46279e-15
-9.53175e-15
-1.8443e-14
-2.82485e-14
-3.89986e-14
-5.07399e-14
-6.35129e-14
-7.73529e-14
-9.23037e-14
-1.08359e-13
-1.25085e-13
-1.41975e-13
-1.65435e-13
-2.1223e-13
-1.94382e-13
1.30364e-14
1.27047e-14
1.23966e-14
1.21838e-14
1.20308e-14
1.19277e-14
1.1873e-14
1.18643e-14
1.18988e-14
1.19739e-14
1.20873e-14
1.22367e-14
1.24202e-14
1.26361e-14
1.28829e-14
1.31591e-14
1.34637e-14
1.37958e-14
1.41545e-14
1.45392e-14
1.49493e-14
1.53844e-14
1.5844e-14
1.63281e-14
1.68362e-14
1.73681e-14
1.79235e-14
1.85024e-14
1.91046e-14
1.97297e-14
2.03777e-14
2.10481e-14
2.17408e-14
2.24551e-14
2.31908e-14
2.39472e-14
2.47237e-14
2.55195e-14
2.63338e-14
2.71657e-14
2.8014e-14
2.88773e-14
2.97541e-14
3.06429e-14
3.15417e-14
3.24485e-14
3.33608e-14
3.42761e-14
3.51914e-14
3.61035e-14
3.7009e-14
3.79037e-14
3.87836e-14
3.96437e-14
4.04788e-14
4.12834e-14
4.20512e-14
4.27754e-14
4.34486e-14
4.40629e-14
4.46093e-14
4.50785e-14
4.54603e-14
4.57432e-14
4.59153e-14
4.59634e-14
4.58735e-14
4.56301e-14
4.52169e-14
4.46158e-14
4.38081e-14
4.27729e-14
4.1488e-14
3.99297e-14
3.80727e-14
3.58896e-14
3.33511e-14
3.04263e-14
2.70823e-14
2.32841e-14
1.89946e-14
1.41749e-14
8.78427e-15
2.77999e-15
-3.882e-15
-1.12469e-14
-1.93607e-14
-2.82696e-14
-3.8019e-14
-4.86525e-14
-6.02098e-14
-7.27246e-14
-8.6226e-14
-1.00753e-13
-1.16296e-13
-1.32411e-13
-1.48585e-13
-1.71338e-13
-2.17717e-13
-1.98273e-13
1.30913e-14
1.27794e-14
1.24894e-14
1.22876e-14
1.21409e-14
1.204e-14
1.19837e-14
1.197e-14
1.19965e-14
1.20608e-14
1.2161e-14
1.2295e-14
1.24612e-14
1.26579e-14
1.28836e-14
1.31372e-14
1.34175e-14
1.37237e-14
1.40549e-14
1.44104e-14
1.47896e-14
1.51919e-14
1.56171e-14
1.60647e-14
1.65345e-14
1.70258e-14
1.75385e-14
1.80724e-14
1.86271e-14
1.92023e-14
1.97977e-14
2.04127e-14
2.10469e-14
2.16999e-14
2.2371e-14
2.30595e-14
2.37645e-14
2.44853e-14
2.52209e-14
2.59701e-14
2.67317e-14
2.75041e-14
2.82856e-14
2.90745e-14
2.98688e-14
3.06662e-14
3.14642e-14
3.22601e-14
3.30507e-14
3.38328e-14
3.46027e-14
3.53562e-14
3.60891e-14
3.67965e-14
3.7473e-14
3.81128e-14
3.87099e-14
3.92573e-14
3.97477e-14
4.01731e-14
4.05247e-14
4.07933e-14
4.09685e-14
4.10396e-14
4.09944e-14
4.08203e-14
4.05036e-14
4.00293e-14
3.93817e-14
3.85434e-14
3.74961e-14
3.62202e-14
3.46944e-14
3.28963e-14
3.08017e-14
2.8385e-14
2.56188e-14
2.24742e-14
1.89204e-14
1.4925e-14
1.0454e-14
5.47181e-15
-5.89739e-17
-6.17688e-15
-1.29216e-14
-2.03337e-14
-2.84541e-14
-3.73234e-14
-4.69815e-14
-5.74661e-14
-6.88113e-14
-8.10452e-14
-9.41922e-14
-1.08288e-13
-1.23318e-13
-1.38835e-13
-1.54317e-13
-1.76373e-13
-2.22269e-13
-2.01405e-13
1.31176e-14
1.28244e-14
1.25516e-14
1.23606e-14
1.22202e-14
1.21218e-14
1.20645e-14
1.20466e-14
1.20657e-14
1.21201e-14
1.22079e-14
1.23274e-14
1.24769e-14
1.2655e-14
1.28604e-14
1.30918e-14
1.33484e-14
1.36292e-14
1.39332e-14
1.42598e-14
1.46084e-14
1.49783e-14
1.53693e-14
1.57808e-14
1.62123e-14
1.66634e-14
1.71337e-14
1.76229e-14
1.81306e-14
1.86562e-14
1.91994e-14
1.97595e-14
2.0336e-14
2.09283e-14
2.15356e-14
2.2157e-14
2.27917e-14
2.34386e-14
2.40968e-14
2.47648e-14
2.54412e-14
2.61244e-14
2.68126e-14
2.75038e-14
2.81961e-14
2.88868e-14
2.95734e-14
3.02531e-14
3.09226e-14
3.15785e-14
3.22171e-14
3.28341e-14
3.34251e-14
3.39851e-14
3.45089e-14
3.49905e-14
3.54238e-14
3.5802e-14
3.61177e-14
3.63631e-14
3.65294e-14
3.66075e-14
3.65874e-14
3.64584e-14
3.62087e-14
3.58261e-14
3.52971e-14
3.46077e-14
3.37423e-14
3.26845e-14
3.14167e-14
2.99203e-14
2.8175e-14
2.61598e-14
2.38518e-14
2.12269e-14
1.82597e-14
1.49231e-14
1.11888e-14
7.02688e-15
2.40606e-15
-2.70623e-15
-8.34381e-15
-1.45415e-14
-2.13351e-14
-2.87608e-14
-3.68549e-14
-4.56533e-14
-5.51908e-14
-6.55003e-14
-7.66111e-14
-8.85469e-14
-1.01328e-13
-1.14987e-13
-1.29509e-13
-1.44438e-13
-1.59251e-13
-1.80622e-13
-2.25979e-13
-2.03857e-13
1.3118e-14
1.28424e-14
1.2586e-14
1.24055e-14
1.22715e-14
1.21759e-14
1.21179e-14
1.20962e-14
1.21088e-14
1.21539e-14
1.22301e-14
1.23356e-14
1.24692e-14
1.26294e-14
1.2815e-14
1.30249e-14
1.32582e-14
1.35139e-14
1.37911e-14
1.40893e-14
1.44077e-14
1.47456e-14
1.51027e-14
1.54784e-14
1.58721e-14
1.62834e-14
1.67117e-14
1.71567e-14
1.76178e-14
1.80945e-14
1.8586e-14
1.90919e-14
1.96115e-14
2.01439e-14
2.06883e-14
2.12438e-14
2.18093e-14
2.23836e-14
2.29657e-14
2.35541e-14
2.41471e-14
2.47431e-14
2.534e-14
2.5936e-14
2.65288e-14
2.71156e-14
2.7694e-14
2.82609e-14
2.88129e-14
2.93467e-14
2.98583e-14
3.03435e-14
3.07976e-14
3.12159e-14
3.15929e-14
3.19229e-14
3.21995e-14
3.24161e-14
3.25653e-14
3.26393e-14
3.26297e-14
3.25275e-14
3.23229e-14
3.20053e-14
3.15636e-14
3.09857e-14
3.02589e-14
2.93693e-14
2.83022e-14
2.70419e-14
2.55718e-14
2.38741e-14
2.19297e-14
1.97188e-14
1.72199e-14
1.44105e-14
1.12671e-14
7.76446e-15
3.87648e-15
-4.24216e-16
-5.16633e-15
-1.03794e-14
-1.60941e-14
-2.23419e-14
-2.91548e-14
-3.65649e-14
-4.46048e-14
-5.33058e-14
-6.26987e-14
-7.2812e-14
-8.36712e-14
-9.5296e-14
-1.07704e-13
-1.20925e-13
-1.34942e-13
-1.49297e-13
-1.63462e-13
-1.84158e-13
-2.2893e-13
-2.05699e-13
1.30946e-14
1.28359e-14
1.25954e-14
1.24251e-14
1.22973e-14
1.22045e-14
1.21463e-14
1.21213e-14
1.21279e-14
1.21643e-14
1.22294e-14
1.23217e-14
1.24399e-14
1.25827e-14
1.27492e-14
1.29382e-14
1.31487e-14
1.33799e-14
1.36308e-14
1.3901e-14
1.41897e-14
1.4496e-14
1.48196e-14
1.516e-14
1.55163e-14
1.58883e-14
1.62752e-14
1.66764e-14
1.70916e-14
1.75199e-14
1.79607e-14
1.84132e-14
1.88766e-14
1.93501e-14
1.98326e-14
2.03234e-14
2.0821e-14
2.13243e-14
2.18319e-14
2.23423e-14
2.28538e-14
2.33646e-14
2.38727e-14
2.43758e-14
2.48718e-14
2.53578e-14
2.58311e-14
2.62887e-14
2.67271e-14
2.71429e-14
2.7532e-14
2.78901e-14
2.82127e-14
2.84949e-14
2.87312e-14
2.89159e-14
2.90429e-14
2.91053e-14
2.90961e-14
2.90075e-14
2.88313e-14
2.85587e-14
2.81801e-14
2.76854e-14
2.70637e-14
2.63034e-14
2.53923e-14
2.43171e-14
2.30637e-14
2.16173e-14
1.99621e-14
1.80812e-14
1.59569e-14
1.35703e-14
1.09017e-14
7.92994e-15
4.6331e-15
9.88213e-16
-3.02887e-15
-7.44316e-15
-1.22808e-14
-1.75685e-14
-2.33341e-14
-2.96058e-14
-3.64122e-14
-4.37821e-14
-5.17438e-14
-6.03255e-14
-6.95542e-14
-7.94545e-14
-9.00486e-14
-1.01353e-13
-1.13383e-13
-1.26167e-13
-1.39685e-13
-1.53479e-13
-1.67017e-13
-1.8705e-13
-2.31196e-13
-2.06992e-13
1.30498e-14
1.28073e-14
1.2582e-14
1.24216e-14
1.22999e-14
1.22102e-14
1.2152e-14
1.21241e-14
1.2125e-14
1.21533e-14
1.22079e-14
1.22875e-14
1.2391e-14
1.25171e-14
1.26649e-14
1.28335e-14
1.30218e-14
1.32289e-14
1.34542e-14
1.36968e-14
1.39562e-14
1.42316e-14
1.45223e-14
1.48277e-14
1.51474e-14
1.54806e-14
1.58266e-14
1.61849e-14
1.65547e-14
1.69355e-14
1.73262e-14
1.77262e-14
1.81346e-14
1.85503e-14
1.89722e-14
1.93994e-14
1.98305e-14
2.02643e-14
2.06992e-14
2.11335e-14
2.15655e-14
2.19934e-14
2.24149e-14
2.28279e-14
2.32299e-14
2.36182e-14
2.39898e-14
2.43416e-14
2.46703e-14
2.49722e-14
2.52433e-14
2.54793e-14
2.56756e-14
2.58273e-14
2.5929e-14
2.5975e-14
2.59593e-14
2.5875e-14
2.57153e-14
2.54727e-14
2.51391e-14
2.47057e-14
2.41635e-14
2.35027e-14
2.27127e-14
2.17824e-14
2.07001e-14
1.94532e-14
1.80282e-14
1.64112e-14
1.45872e-14
1.25404e-14
1.02541e-14
7.71072e-15
4.8918e-15
1.778e-15
-1.65105e-15
-5.4165e-15
-9.54035e-15
-1.40455e-14
-1.89555e-14
-2.42947e-14
-3.00881e-14
-3.63608e-14
-4.31385e-14
-5.04466e-14
-5.83106e-14
-6.67549e-14
-7.58033e-14
-8.54775e-14
-9.57967e-14
-1.06775e-13
-1.18425e-13
-1.30773e-13
-1.43801e-13
-1.57046e-13
-1.69977e-13
-1.8936e-13
-2.32847e-13
-2.07792e-13
1.29862e-14
1.27589e-14
1.2548e-14
1.23972e-14
1.22817e-14
1.21952e-14
1.21371e-14
1.21066e-14
1.21022e-14
1.21228e-14
1.21674e-14
1.22349e-14
1.23241e-14
1.24341e-14
1.25639e-14
1.27126e-14
1.28792e-14
1.30629e-14
1.3263e-14
1.34787e-14
1.37094e-14
1.39542e-14
1.42126e-14
1.44839e-14
1.47674e-14
1.50625e-14
1.53684e-14
1.56844e-14
1.60098e-14
1.63439e-14
1.66856e-14
1.70341e-14
1.73885e-14
1.77476e-14
1.81102e-14
1.84753e-14
1.88415e-14
1.92075e-14
1.95714e-14
1.99316e-14
2.02863e-14
2.06335e-14
2.0971e-14
2.12966e-14
2.16075e-14
2.19012e-14
2.21744e-14
2.24243e-14
2.26472e-14
2.28395e-14
2.29972e-14
2.31159e-14
2.31912e-14
2.3218e-14
2.31912e-14
2.3105e-14
2.29535e-14
2.27299e-14
2.24277e-14
2.20393e-14
2.15571e-14
2.09725e-14
2.02768e-14
1.94604e-14
1.85133e-14
1.7425e-14
1.61842e-14
1.47788e-14
1.31963e-14
1.14233e-14
9.44597e-15
7.24936e-15
4.81782e-15
2.13511e-15
-8.15911e-16
-4.05303e-15
-7.59502e-15
-1.14612e-14
-1.56716e-14
-2.02471e-14
-2.5209e-14
-3.05791e-14
-3.63799e-14
-4.26339e-14
-4.93638e-14
-5.65923e-14
-6.43417e-14
-7.26338e-14
-8.14894e-14
-9.09275e-14
-1.00965e-13
-1.11613e-13
-1.22884e-13
-1.34801e-13
-1.47346e-13
-1.60056e-13
-1.72401e-13
-1.91146e-13
-2.33943e-13
-2.08151e-13
1.29059e-14
1.26927e-14
1.24956e-14
1.23543e-14
1.22448e-14
1.21614e-14
1.21037e-14
1.20706e-14
1.20613e-14
1.20746e-14
1.21097e-14
1.21656e-14
1.22412e-14
1.23356e-14
1.24479e-14
1.25772e-14
1.27226e-14
1.28835e-14
1.30591e-14
1.32486e-14
1.34511e-14
1.36661e-14
1.38928e-14
1.41305e-14
1.43786e-14
1.46364e-14
1.4903e-14
1.51776e-14
1.54595e-14
1.57478e-14
1.60414e-14
1.63396e-14
1.66412e-14
1.6945e-14
1.72499e-14
1.75544e-14
1.78573e-14
1.81571e-14
1.8452e-14
1.87403e-14
1.90199e-14
1.92889e-14
1.9545e-14
1.97859e-14
2.00088e-14
2.0211e-14
2.03895e-14
2.05411e-14
2.06622e-14
2.07492e-14
2.07981e-14
2.08046e-14
2.07641e-14
2.06716e-14
2.05222e-14
2.03103e-14
2.00297e-14
1.96742e-14
1.9237e-14
1.87111e-14
1.80889e-14
1.73623e-14
1.65227e-14
1.55611e-14
1.44679e-14
1.32329e-14
1.18455e-14
1.02944e-14
8.56752e-15
6.6525e-15
4.5362e-15
2.20477e-15
-3.5626e-16
-3.16207e-15
-6.22845e-15
-9.57167e-15
-1.3209e-14
-1.71579e-14
-2.14367e-14
-2.60643e-14
-3.10597e-14
-3.64427e-14
-4.22332e-14
-4.84513e-14
-5.51173e-14
-6.2251e-14
-6.98723e-14
-7.80003e-14
-8.66533e-14
-9.5848e-14
-1.05599e-13
-1.15916e-13
-1.26809e-13
-1.38301e-13
-1.50373e-13
-1.62561e-13
-1.74339e-13
-1.92461e-13
-2.34543e-13
-2.08114e-13
1.2811e-14
1.26106e-14
1.24267e-14
1.22945e-14
1.2191e-14
1.21108e-14
1.20534e-14
1.20181e-14
1.20042e-14
1.20107e-14
1.20367e-14
1.20813e-14
1.21438e-14
1.22231e-14
1.23185e-14
1.2429e-14
1.2554e-14
1.26927e-14
1.28443e-14
1.30081e-14
1.31832e-14
1.3369e-14
1.35648e-14
1.37698e-14
1.39833e-14
1.42045e-14
1.44326e-14
1.46667e-14
1.49061e-14
1.51497e-14
1.53964e-14
1.56454e-14
1.58956e-14
1.61455e-14
1.63941e-14
1.66397e-14
1.68811e-14
1.71166e-14
1.73446e-14
1.7563e-14
1.77698e-14
1.79632e-14
1.81406e-14
1.82996e-14
1.84376e-14
1.85517e-14
1.86389e-14
1.8696e-14
1.87195e-14
1.87055e-14
1.86501e-14
1.85492e-14
1.83982e-14
1.81922e-14
1.79262e-14
1.75946e-14
1.71917e-14
1.67113e-14
1.61468e-14
1.54913e-14
1.47376e-14
1.38778e-14
1.29038e-14
1.18068e-14
1.05778e-14
9.20709e-15
7.68455e-15
5.99958e-15
4.14089e-15
2.09685e-15
-1.44836e-16
-2.59702e-15
-5.27306e-15
-8.18699e-15
-1.13533e-14
-1.4787e-14
-1.85036e-14
-2.25191e-14
-2.685e-14
-3.15132e-14
-3.65262e-14
-4.19062e-14
-4.76711e-14
-5.38387e-14
-6.0427e-14
-6.74535e-14
-7.49357e-14
-8.28903e-14
-9.13334e-14
-1.0028e-13
-1.09742e-13
-1.19728e-13
-1.30246e-13
-1.4132e-13
-1.52929e-13
-1.64611e-13
-1.75842e-13
-1.93352e-13
-2.347e-13
-2.07725e-13
1.27037e-14
1.25142e-14
1.23428e-14
1.22197e-14
1.2122e-14
1.2045e-14
1.19881e-14
1.19509e-14
1.19327e-14
1.19326e-14
1.19499e-14
1.19838e-14
1.20336e-14
1.20983e-14
1.21774e-14
1.22699e-14
1.2375e-14
1.24921e-14
1.26203e-14
1.27592e-14
1.29076e-14
1.30649e-14
1.32306e-14
1.34037e-14
1.35833e-14
1.37689e-14
1.39595e-14
1.41542e-14
1.4352e-14
1.45521e-14
1.47532e-14
1.49544e-14
1.51544e-14
1.53519e-14
1.55457e-14
1.57341e-14
1.59159e-14
1.60891e-14
1.62521e-14
1.64029e-14
1.65395e-14
1.66597e-14
1.67611e-14
1.68412e-14
1.68975e-14
1.69269e-14
1.69264e-14
1.68928e-14
1.68226e-14
1.6712e-14
1.65571e-14
1.63537e-14
1.60973e-14
1.57832e-14
1.54064e-14
1.49615e-14
1.44429e-14
1.38444e-14
1.31599e-14
1.23826e-14
1.15055e-14
1.05212e-14
9.4217e-15
8.19887e-15
6.84396e-15
5.34786e-15
3.70111e-15
1.89361e-15
-8.51379e-17
-2.24607e-15
-4.6005e-15
-7.16036e-15
-9.93801e-15
-1.29463e-14
-1.61985e-14
-1.97083e-14
-2.34897e-14
-2.75572e-14
-3.19257e-14
-3.66103e-14
-4.16265e-14
-4.69899e-14
-5.27161e-14
-5.88209e-14
-6.53201e-14
-7.22292e-14
-7.95635e-14
-8.73376e-14
-9.55658e-14
-1.04261e-13
-1.13433e-13
-1.23091e-13
-1.3324e-13
-1.43903e-13
-1.5506e-13
-1.6625e-13
-1.76952e-13
-1.93865e-13
-2.34464e-13
-2.07026e-13
1.25868e-14
1.24039e-14
1.22449e-14
1.21313e-14
1.20397e-14
1.19659e-14
1.19097e-14
1.18707e-14
1.18484e-14
1.18421e-14
1.18511e-14
1.18747e-14
1.19123e-14
1.1963e-14
1.20263e-14
1.21012e-14
1.21871e-14
1.22833e-14
1.2389e-14
1.25035e-14
1.2626e-14
1.27557e-14
1.2892e-14
1.30339e-14
1.31808e-14
1.33317e-14
1.34858e-14
1.36421e-14
1.37996e-14
1.39573e-14
1.4114e-14
1.42687e-14
1.44201e-14
1.45668e-14
1.47076e-14
1.48406e-14
1.49645e-14
1.50775e-14
1.51777e-14