/*--------------------------------*- C++ -*----------------------------------*\
  =========                 |
  \\      /  F ield         | OpenFOAM: The Open Source CFD Toolbox
   \\    /   O peration     | Website:  https://openfoam.org
    \\  /    A nd           | Version:  11
     \\/     M anipulation  |
\*---------------------------------------------------------------------------*/
FoamFile
{
    format      ascii;
    class       volVectorField;
    location    "836";
    object      U;
}
// * * * * * * * * * * * * * * * * * * * * * * * * * * * * * * * * * * * * * //

dimensions      [0 1 -1 0 0 0 0];

internalField   nonuniform List<vector> 
10000
(
(0.005 -4.78474e-09 0)
(0.005 -1.24032e-08 0)
(0.005 -1.91589e-08 0)
(0.00499999 -2.56907e-08 0)
(0.00499999 -3.22675e-08 0)
(0.00499999 -3.90351e-08 0)
(0.00499998 -4.61087e-08 0)
(0.00499998 -5.35857e-08 0)
(0.00499997 -6.15544e-08 0)
(0.00499997 -7.00983e-08 0)
(0.00499996 -7.92989e-08 0)
(0.00499996 -8.9238e-08 0)
(0.00499995 -9.99986e-08 0)
(0.00499994 -1.11666e-07 0)
(0.00499993 -1.24329e-07 0)
(0.00499992 -1.38079e-07 0)
(0.00499991 -1.53013e-07 0)
(0.0049999 -1.69233e-07 0)
(0.00499988 -1.86846e-07 0)
(0.00499987 -2.05965e-07 0)
(0.00499986 -2.26709e-07 0)
(0.00499984 -2.49204e-07 0)
(0.00499982 -2.73584e-07 0)
(0.0049998 -2.99989e-07 0)
(0.00499978 -3.28569e-07 0)
(0.00499976 -3.5948e-07 0)
(0.00499973 -3.9289e-07 0)
(0.00499971 -4.28972e-07 0)
(0.00499968 -4.67913e-07 0)
(0.00499965 -5.09907e-07 0)
(0.00499962 -5.55159e-07 0)
(0.00499958 -6.03887e-07 0)
(0.00499954 -6.56317e-07 0)
(0.0049995 -7.12688e-07 0)
(0.00499946 -7.73251e-07 0)
(0.00499941 -8.3827e-07 0)
(0.00499936 -9.0802e-07 0)
(0.00499931 -9.8279e-07 0)
(0.00499926 -1.06288e-06 0)
(0.0049992 -1.14862e-06 0)
(0.00499913 -1.24032e-06 0)
(0.00499906 -1.33833e-06 0)
(0.00499899 -1.44302e-06 0)
(0.00499892 -1.55475e-06 0)
(0.00499883 -1.67392e-06 0)
(0.00499875 -1.80092e-06 0)
(0.00499866 -1.93618e-06 0)
(0.00499856 -2.08014e-06 0)
(0.00499845 -2.23324e-06 0)
(0.00499835 -2.39594e-06 0)
(0.00499823 -2.56874e-06 0)
(0.00499811 -2.75212e-06 0)
(0.00499798 -2.94659e-06 0)
(0.00499784 -3.15268e-06 0)
(0.0049977 -3.37093e-06 0)
(0.00499755 -3.6019e-06 0)
(0.00499739 -3.84614e-06 0)
(0.00499722 -4.10424e-06 0)
(0.00499704 -4.37679e-06 0)
(0.00499685 -4.66438e-06 0)
(0.00499666 -4.96762e-06 0)
(0.00499645 -5.28714e-06 0)
(0.00499623 -5.62354e-06 0)
(0.00499601 -5.97745e-06 0)
(0.00499577 -6.3495e-06 0)
(0.00499552 -6.7403e-06 0)
(0.00499526 -7.15048e-06 0)
(0.00499499 -7.58063e-06 0)
(0.00499471 -8.03136e-06 0)
(0.00499441 -8.50323e-06 0)
(0.0049941 -8.99679e-06 0)
(0.00499378 -9.51255e-06 0)
(0.00499345 -1.0051e-05 0)
(0.00499311 -1.06125e-05 0)
(0.00499275 -1.11975e-05 0)
(0.00499238 -1.18062e-05 0)
(0.00499199 -1.24389e-05 0)
(0.0049916 -1.30955e-05 0)
(0.00499119 -1.3776e-05 0)
(0.00499077 -1.44802e-05 0)
(0.00499034 -1.52077e-05 0)
(0.0049899 -1.59577e-05 0)
(0.00498945 -1.67292e-05 0)
(0.00498899 -1.7521e-05 0)
(0.00498852 -1.83312e-05 0)
(0.00498805 -1.91576e-05 0)
(0.00498757 -1.99972e-05 0)
(0.00498709 -2.08463e-05 0)
(0.00498661 -2.17003e-05 0)
(0.00498613 -2.25535e-05 0)
(0.00498566 -2.33988e-05 0)
(0.0049852 -2.42276e-05 0)
(0.00498475 -2.50294e-05 0)
(0.00498432 -2.57916e-05 0)
(0.00498392 -2.64991e-05 0)
(0.00498355 -2.7134e-05 0)
(0.00498321 -2.76757e-05 0)
(0.00498293 -2.81002e-05 0)
(0.0049827 -2.83857e-05 0)
(0.00498251 -2.85306e-05 0)
(0.005 -3.81678e-09 0)
(0.005 -1.05049e-08 0)
(0.005 -1.66671e-08 0)
(0.00499999 -2.26833e-08 0)
(0.00499999 -2.87472e-08 0)
(0.00499999 -3.49858e-08 0)
(0.00499998 -4.15037e-08 0)
(0.00499998 -4.83921e-08 0)
(0.00499997 -5.57346e-08 0)
(0.00499997 -6.36106e-08 0)
(0.00499996 -7.20978e-08 0)
(0.00499996 -8.12742e-08 0)
(0.00499995 -9.12188e-08 0)
(0.00499994 -1.02013e-07 0)
(0.00499993 -1.13742e-07 0)
(0.00499992 -1.26493e-07 0)
(0.00499991 -1.40359e-07 0)
(0.0049999 -1.55437e-07 0)
(0.00499989 -1.7183e-07 0)
(0.00499987 -1.89645e-07 0)
(0.00499986 -2.08998e-07 0)
(0.00499984 -2.3001e-07 0)
(0.00499982 -2.52808e-07 0)
(0.0049998 -2.77527e-07 0)
(0.00499978 -3.04312e-07 0)
(0.00499976 -3.33313e-07 0)
(0.00499973 -3.64691e-07 0)
(0.00499971 -3.98614e-07 0)
(0.00499968 -4.35261e-07 0)
(0.00499965 -4.74821e-07 0)
(0.00499962 -5.17491e-07 0)
(0.00499958 -5.6348e-07 0)
(0.00499954 -6.13009e-07 0)
(0.0049995 -6.66309e-07 0)
(0.00499946 -7.23622e-07 0)
(0.00499942 -7.85205e-07 0)
(0.00499937 -8.51324e-07 0)
(0.00499931 -9.2226e-07 0)
(0.00499926 -9.98306e-07 0)
(0.0049992 -1.07977e-06 0)
(0.00499914 -1.16698e-06 0)
(0.00499907 -1.26025e-06 0)
(0.004999 -1.35996e-06 0)
(0.00499892 -1.46645e-06 0)
(0.00499884 -1.58011e-06 0)
(0.00499875 -1.70133e-06 0)
(0.00499866 -1.83053e-06 0)
(0.00499856 -1.96812e-06 0)
(0.00499846 -2.11456e-06 0)
(0.00499835 -2.27028e-06 0)
(0.00499824 -2.43578e-06 0)
(0.00499812 -2.61154e-06 0)
(0.00499799 -2.79805e-06 0)
(0.00499785 -2.99584e-06 0)
(0.00499771 -3.20544e-06 0)
(0.00499756 -3.42739e-06 0)
(0.0049974 -3.66226e-06 0)
(0.00499723 -3.91063e-06 0)
(0.00499705 -4.17307e-06 0)
(0.00499687 -4.45019e-06 0)
(0.00499667 -4.7426e-06 0)
(0.00499647 -5.05091e-06 0)
(0.00499625 -5.37574e-06 0)
(0.00499602 -5.71773e-06 0)
(0.00499579 -6.07751e-06 0)
(0.00499554 -6.45571e-06 0)
(0.00499528 -6.85296e-06 0)
(0.00499501 -7.2699e-06 0)
(0.00499473 -7.70713e-06 0)
(0.00499443 -8.16526e-06 0)
(0.00499413 -8.64487e-06 0)
(0.00499381 -9.14651e-06 0)
(0.00499348 -9.67071e-06 0)
(0.00499313 -1.02179e-05 0)
(0.00499278 -1.07886e-05 0)
(0.00499241 -1.13831e-05 0)
(0.00499202 -1.20017e-05 0)
(0.00499163 -1.26445e-05 0)
(0.00499122 -1.33116e-05 0)
(0.0049908 -1.40029e-05 0)
(0.00499037 -1.47181e-05 0)
(0.00498993 -1.54567e-05 0)
(0.00498948 -1.62179e-05 0)
(0.00498902 -1.70005e-05 0)
(0.00498856 -1.78031e-05 0)
(0.00498809 -1.86236e-05 0)
(0.00498761 -1.94594e-05 0)
(0.00498713 -2.03072e-05 0)
(0.00498665 -2.11627e-05 0)
(0.00498617 -2.20207e-05 0)
(0.0049857 -2.28747e-05 0)
(0.00498524 -2.37165e-05 0)
(0.00498479 -2.45364e-05 0)
(0.00498436 -2.53225e-05 0)
(0.00498395 -2.60605e-05 0)
(0.00498357 -2.67336e-05 0)
(0.00498323 -2.73221e-05 0)
(0.00498293 -2.78031e-05 0)
(0.00498267 -2.81528e-05 0)
(0.00498243 -2.83553e-05 0)
(0.005 -3.02734e-09 0)
(0.005 -8.76334e-09 0)
(0.005 -1.42736e-08 0)
(0.00499999 -1.97432e-08 0)
(0.00499999 -2.52875e-08 0)
(0.00499999 -3.10015e-08 0)
(0.00499998 -3.69739e-08 0)
(0.00499998 -4.32871e-08 0)
(0.00499998 -5.00187e-08 0)
(0.00499997 -5.72437e-08 0)
(0.00499996 -6.50358e-08 0)
(0.00499996 -7.34692e-08 0)
(0.00499995 -8.26193e-08 0)
(0.00499994 -9.25638e-08 0)
(0.00499993 -1.03383e-07 0)
(0.00499992 -1.15162e-07 0)
(0.00499991 -1.27989e-07 0)
(0.0049999 -1.41956e-07 0)
(0.00499989 -1.57162e-07 0)
(0.00499987 -1.73711e-07 0)
(0.00499986 -1.91713e-07 0)
(0.00499984 -2.11283e-07 0)
(0.00499982 -2.32544e-07 0)
(0.0049998 -2.55627e-07 0)
(0.00499978 -2.8067e-07 0)
(0.00499976 -3.07817e-07 0)
(0.00499974 -3.37224e-07 0)
(0.00499971 -3.69053e-07 0)
(0.00499968 -4.03476e-07 0)
(0.00499965 -4.40675e-07 0)
(0.00499962 -4.80842e-07 0)
(0.00499959 -5.24178e-07 0)
(0.00499955 -5.70896e-07 0)
(0.00499951 -6.21221e-07 0)
(0.00499947 -6.75387e-07 0)
(0.00499942 -7.33642e-07 0)
(0.00499937 -7.96246e-07 0)
(0.00499932 -8.63471e-07 0)
(0.00499927 -9.35602e-07 0)
(0.00499921 -1.01294e-06 0)
(0.00499914 -1.09579e-06 0)
(0.00499908 -1.18449e-06 0)
(0.00499901 -1.27937e-06 0)
(0.00499893 -1.3808e-06 0)
(0.00499885 -1.48913e-06 0)
(0.00499876 -1.60477e-06 0)
(0.00499867 -1.7281e-06 0)
(0.00499858 -1.85955e-06 0)
(0.00499847 -1.99954e-06 0)
(0.00499837 -2.14853e-06 0)
(0.00499825 -2.30698e-06 0)
(0.00499813 -2.47537e-06 0)
(0.004998 -2.6542e-06 0)
(0.00499787 -2.84397e-06 0)
(0.00499773 -3.04521e-06 0)
(0.00499758 -3.25847e-06 0)
(0.00499742 -3.4843e-06 0)
(0.00499725 -3.72327e-06 0)
(0.00499708 -3.97597e-06 0)
(0.00499689 -4.24299e-06 0)
(0.0049967 -4.52493e-06 0)
(0.00499649 -4.82243e-06 0)
(0.00499628 -5.13611e-06 0)
(0.00499606 -5.4666e-06 0)
(0.00499582 -5.81455e-06 0)
(0.00499557 -6.1806e-06 0)
(0.00499532 -6.56539e-06 0)
(0.00499505 -6.96959e-06 0)
(0.00499477 -7.39381e-06 0)
(0.00499448 -7.83869e-06 0)
(0.00499417 -8.30485e-06 0)
(0.00499385 -8.79289e-06 0)
(0.00499353 -9.30336e-06 0)
(0.00499318 -9.8368e-06 0)
(0.00499283 -1.03937e-05 0)
(0.00499246 -1.09745e-05 0)
(0.00499208 -1.15795e-05 0)
(0.00499169 -1.2209e-05 0)
(0.00499128 -1.28631e-05 0)
(0.00499087 -1.3542e-05 0)
(0.00499044 -1.42453e-05 0)
(0.00499 -1.49729e-05 0)
(0.00498955 -1.5724e-05 0)
(0.0049891 -1.64977e-05 0)
(0.00498863 -1.72928e-05 0)
(0.00498816 -1.81075e-05 0)
(0.00498769 -1.89395e-05 0)
(0.00498721 -1.97857e-05 0)
(0.00498673 -2.06423e-05 0)
(0.00498625 -2.15046e-05 0)
(0.00498578 -2.23663e-05 0)
(0.00498531 -2.32199e-05 0)
(0.00498486 -2.40563e-05 0)
(0.00498443 -2.48639e-05 0)
(0.00498401 -2.56292e-05 0)
(0.00498362 -2.63357e-05 0)
(0.00498326 -2.69638e-05 0)
(0.00498294 -2.74901e-05 0)
(0.00498263 -2.78891e-05 0)
(0.00498234 -2.81377e-05 0)
(0.005 -2.49677e-09 0)
(0.005 -7.37964e-09 0)
(0.005 -1.22267e-08 0)
(0.005 -1.71429e-08 0)
(0.00499999 -2.21804e-08 0)
(0.00499999 -2.73985e-08 0)
(0.00499999 -3.28659e-08 0)
(0.00499998 -3.86528e-08 0)
(0.00499998 -4.4829e-08 0)
(0.00499997 -5.1464e-08 0)
(0.00499996 -5.8627e-08 0)
(0.00499996 -6.63884e-08 0)
(0.00499995 -7.482e-08 0)
(0.00499994 -8.3996e-08 0)
(0.00499993 -9.39934e-08 0)
(0.00499992 -1.04893e-07 0)
(0.00499991 -1.16779e-07 0)
(0.0049999 -1.29742e-07 0)
(0.00499989 -1.43874e-07 0)
(0.00499987 -1.59277e-07 0)
(0.00499986 -1.76055e-07 0)
(0.00499984 -1.94319e-07 0)
(0.00499983 -2.1419e-07 0)
(0.00499981 -2.35791e-07 0)
(0.00499979 -2.59255e-07 0)
(0.00499976 -2.84723e-07 0)
(0.00499974 -3.12344e-07 0)
(0.00499972 -3.42276e-07 0)
(0.00499969 -3.74683e-07 0)
(0.00499966 -4.09743e-07 0)
(0.00499963 -4.47641e-07 0)
(0.00499959 -4.88572e-07 0)
(0.00499956 -5.32742e-07 0)
(0.00499952 -5.80369e-07 0)
(0.00499947 -6.31682e-07 0)
(0.00499943 -6.8692e-07 0)
(0.00499938 -7.46335e-07 0)
(0.00499933 -8.10194e-07 0)
(0.00499928 -8.78773e-07 0)
(0.00499922 -9.52364e-07 0)
(0.00499915 -1.03127e-06 0)
(0.00499909 -1.11581e-06 0)
(0.00499902 -1.20632e-06 0)
(0.00499894 -1.30315e-06 0)
(0.00499886 -1.40665e-06 0)
(0.00499878 -1.51721e-06 0)
(0.00499869 -1.63522e-06 0)
(0.00499859 -1.76109e-06 0)
(0.00499849 -1.89524e-06 0)
(0.00499839 -2.03811e-06 0)
(0.00499827 -2.19016e-06 0)
(0.00499815 -2.35186e-06 0)
(0.00499803 -2.5237e-06 0)
(0.00499789 -2.70619e-06 0)
(0.00499775 -2.89985e-06 0)
(0.0049976 -3.1052e-06 0)
(0.00499745 -3.32281e-06 0)
(0.00499728 -3.55325e-06 0)
(0.00499711 -3.79708e-06 0)
(0.00499693 -4.05492e-06 0)
(0.00499673 -4.32736e-06 0)
(0.00499653 -4.61503e-06 0)
(0.00499632 -4.91856e-06 0)
(0.0049961 -5.2386e-06 0)
(0.00499587 -5.57578e-06 0)
(0.00499562 -5.93077e-06 0)
(0.00499537 -6.30423e-06 0)
(0.0049951 -6.69681e-06 0)
(0.00499483 -7.10918e-06 0)
(0.00499454 -7.542e-06 0)
(0.00499423 -7.99591e-06 0)
(0.00499392 -8.47153e-06 0)
(0.00499359 -8.96947e-06 0)
(0.00499325 -9.49032e-06 0)
(0.0049929 -1.00346e-05 0)
(0.00499254 -1.06028e-05 0)
(0.00499216 -1.11954e-05 0)
(0.00499177 -1.18127e-05 0)
(0.00499137 -1.2455e-05 0)
(0.00499096 -1.31224e-05 0)
(0.00499053 -1.38148e-05 0)
(0.0049901 -1.45321e-05 0)
(0.00498965 -1.52738e-05 0)
(0.0049892 -1.60391e-05 0)
(0.00498874 -1.68271e-05 0)
(0.00498827 -1.76361e-05 0)
(0.00498779 -1.84641e-05 0)
(0.00498732 -1.93083e-05 0)
(0.00498684 -2.01653e-05 0)
(0.00498636 -2.10305e-05 0)
(0.00498589 -2.18981e-05 0)
(0.00498542 -2.27611e-05 0)
(0.00498496 -2.36105e-05 0)
(0.00498452 -2.44352e-05 0)
(0.00498409 -2.52218e-05 0)
(0.00498369 -2.59537e-05 0)
(0.00498331 -2.66107e-05 0)
(0.00498296 -2.71679e-05 0)
(0.00498261 -2.75957e-05 0)
(0.00498226 -2.78698e-05 0)
(0.005 -2.06287e-09 0)
(0.005 -6.16783e-09 0)
(0.005 -1.03488e-08 0)
(0.005 -1.46848e-08 0)
(0.00499999 -1.9191e-08 0)
(0.00499999 -2.38972e-08 0)
(0.00499999 -2.88516e-08 0)
(0.00499998 -3.41107e-08 0)
(0.00499998 -3.97349e-08 0)
(0.00499997 -4.57867e-08 0)
(0.00499997 -5.23303e-08 0)
(0.00499996 -5.94314e-08 0)
(0.00499995 -6.71578e-08 0)
(0.00499994 -7.558e-08 0)
(0.00499993 -8.47713e-08 0)
(0.00499993 -9.48088e-08 0)
(0.00499991 -1.05773e-07 0)
(0.0049999 -1.1775e-07 0)
(0.00499989 -1.3083e-07 0)
(0.00499988 -1.45109e-07 0)
(0.00499986 -1.60686e-07 0)
(0.00499985 -1.77671e-07 0)
(0.00499983 -1.96176e-07 0)
(0.00499981 -2.16323e-07 0)
(0.00499979 -2.38238e-07 0)
(0.00499977 -2.62058e-07 0)
(0.00499975 -2.87927e-07 0)
(0.00499972 -3.15995e-07 0)
(0.00499969 -3.46423e-07 0)
(0.00499966 -3.79382e-07 0)
(0.00499963 -4.15051e-07 0)
(0.0049996 -4.53619e-07 0)
(0.00499956 -4.95286e-07 0)
(0.00499952 -5.40263e-07 0)
(0.00499948 -5.8877e-07 0)
(0.00499944 -6.41043e-07 0)
(0.00499939 -6.97324e-07 0)
(0.00499934 -7.57873e-07 0)
(0.00499929 -8.2296e-07 0)
(0.00499923 -8.92868e-07 0)
(0.00499917 -9.67893e-07 0)
(0.0049991 -1.04835e-06 0)
(0.00499903 -1.13456e-06 0)
(0.00499896 -1.22686e-06 0)
(0.00499888 -1.32561e-06 0)
(0.0049988 -1.43117e-06 0)
(0.00499871 -1.54394e-06 0)
(0.00499862 -1.66432e-06 0)
(0.00499852 -1.79271e-06 0)
(0.00499841 -1.92955e-06 0)
(0.0049983 -2.0753e-06 0)
(0.00499818 -2.23042e-06 0)
(0.00499806 -2.39538e-06 0)
(0.00499793 -2.57069e-06 0)
(0.00499779 -2.75687e-06 0)
(0.00499764 -2.95444e-06 0)
(0.00499749 -3.16395e-06 0)
(0.00499732 -3.38597e-06 0)
(0.00499715 -3.62107e-06 0)
(0.00499697 -3.86985e-06 0)
(0.00499678 -4.13292e-06 0)
(0.00499658 -4.41089e-06 0)
(0.00499637 -4.70441e-06 0)
(0.00499615 -5.01412e-06 0)
(0.00499593 -5.34067e-06 0)
(0.00499569 -5.68474e-06 0)
(0.00499543 -6.04699e-06 0)
(0.00499517 -6.42811e-06 0)
(0.0049949 -6.82877e-06 0)
(0.00499461 -7.24965e-06 0)
(0.00499431 -7.69142e-06 0)
(0.004994 -8.15475e-06 0)
(0.00499368 -8.64029e-06 0)
(0.00499334 -9.14865e-06 0)
(0.004993 -9.68043e-06 0)
(0.00499264 -1.02362e-05 0)
(0.00499226 -1.08164e-05 0)
(0.00499188 -1.14215e-05 0)
(0.00499148 -1.20519e-05 0)
(0.00499107 -1.27078e-05 0)
(0.00499065 -1.33892e-05 0)
(0.00499022 -1.40962e-05 0)
(0.00498978 -1.48283e-05 0)
(0.00498933 -1.5585e-05 0)
(0.00498887 -1.63655e-05 0)
(0.0049884 -1.71684e-05 0)
(0.00498793 -1.79919e-05 0)
(0.00498745 -1.88335e-05 0)
(0.00498697 -1.96899e-05 0)
(0.0049865 -2.05569e-05 0)
(0.00498602 -2.14291e-05 0)
(0.00498555 -2.22995e-05 0)
(0.00498509 -2.31596e-05 0)
(0.00498464 -2.39984e-05 0)
(0.0049842 -2.48024e-05 0)
(0.00498378 -2.55547e-05 0)
(0.00498338 -2.62342e-05 0)
(0.004983 -2.68141e-05 0)
(0.00498262 -2.72615e-05 0)
(0.00498221 -2.7547e-05 0)
(0.005 -1.68555e-09 0)
(0.005 -5.08101e-09 0)
(0.005 -8.61304e-09 0)
(0.005 -1.23596e-08 0)
(0.00499999 -1.6317e-08 0)
(0.00499999 -2.04946e-08 0)
(0.00499999 -2.49234e-08 0)
(0.00499998 -2.96469e-08 0)
(0.00499998 -3.47153e-08 0)
(0.00499997 -4.01838e-08 0)
(0.00499997 -4.61104e-08 0)
(0.00499996 -5.25558e-08 0)
(0.00499995 -5.95834e-08 0)
(0.00499995 -6.72595e-08 0)
(0.00499994 -7.56538e-08 0)
(0.00499993 -8.48393e-08 0)
(0.00499992 -9.48931e-08 0)
(0.00499991 -1.05897e-07 0)
(0.00499989 -1.17937e-07 0)
(0.00499988 -1.31104e-07 0)
(0.00499987 -1.45496e-07 0)
(0.00499985 -1.61216e-07 0)
(0.00499983 -1.78373e-07 0)
(0.00499981 -1.97082e-07 0)
(0.0049998 -2.17467e-07 0)
(0.00499977 -2.39658e-07 0)
(0.00499975 -2.63793e-07 0)
(0.00499973 -2.90019e-07 0)
(0.0049997 -3.1849e-07 0)
(0.00499967 -3.49372e-07 0)
(0.00499964 -3.82836e-07 0)
(0.00499961 -4.19067e-07 0)
(0.00499957 -4.58257e-07 0)
(0.00499953 -5.00611e-07 0)
(0.00499949 -5.46343e-07 0)
(0.00499945 -5.9568e-07 0)
(0.0049994 -6.4886e-07 0)
(0.00499935 -7.06133e-07 0)
(0.0049993 -7.67762e-07 0)
(0.00499924 -8.34022e-07 0)
(0.00499918 -9.05204e-07 0)
(0.00499912 -9.8161e-07 0)
(0.00499905 -1.06356e-06 0)
(0.00499898 -1.15138e-06 0)
(0.0049989 -1.24541e-06 0)
(0.00499882 -1.34603e-06 0)
(0.00499873 -1.45361e-06 0)
(0.00499864 -1.56854e-06 0)
(0.00499854 -1.69123e-06 0)
(0.00499844 -1.8221e-06 0)
(0.00499833 -1.9616e-06 0)
(0.00499821 -2.11018e-06 0)
(0.00499809 -2.26832e-06 0)
(0.00499796 -2.43652e-06 0)
(0.00499783 -2.61527e-06 0)
(0.00499768 -2.80512e-06 0)
(0.00499753 -3.00659e-06 0)
(0.00499737 -3.22025e-06 0)
(0.0049972 -3.44668e-06 0)
(0.00499702 -3.68646e-06 0)
(0.00499684 -3.94022e-06 0)
(0.00499664 -4.20856e-06 0)
(0.00499644 -4.49212e-06 0)
(0.00499622 -4.79157e-06 0)
(0.004996 -5.10756e-06 0)
(0.00499576 -5.44076e-06 0)
(0.00499551 -5.79187e-06 0)
(0.00499525 -6.16157e-06 0)
(0.00499498 -6.55056e-06 0)
(0.0049947 -6.95955e-06 0)
(0.00499441 -7.38922e-06 0)
(0.0049941 -7.84029e-06 0)
(0.00499378 -8.31343e-06 0)
(0.00499345 -8.8093e-06 0)
(0.00499311 -9.32857e-06 0)
(0.00499275 -9.87182e-06 0)
(0.00499238 -1.04396e-05 0)
(0.004992 -1.10325e-05 0)
(0.00499161 -1.16509e-05 0)
(0.00499121 -1.22951e-05 0)
(0.00499079 -1.29654e-05 0)
(0.00499036 -1.36618e-05 0)
(0.00498993 -1.4384e-05 0)
(0.00498948 -1.51318e-05 0)
(0.00498902 -1.59044e-05 0)
(0.00498856 -1.67007e-05 0)
(0.00498809 -1.75189e-05 0)
(0.00498761 -1.8357e-05 0)
(0.00498714 -1.92118e-05 0)
(0.00498666 -2.00794e-05 0)
(0.00498618 -2.09545e-05 0)
(0.00498571 -2.18305e-05 0)
(0.00498524 -2.26988e-05 0)
(0.00498478 -2.35487e-05 0)
(0.00498433 -2.43663e-05 0)
(0.00498389 -2.51345e-05 0)
(0.00498347 -2.5831e-05 0)
(0.00498306 -2.64278e-05 0)
(0.00498265 -2.6889e-05 0)
(0.00498218 -2.71734e-05 0)
(0.005 -1.35281e-09 0)
(0.005 -4.09914e-09 0)
(0.005 -7.01319e-09 0)
(0.005 -1.01791e-08 0)
(0.00499999 -1.35849e-08 0)
(0.00499999 -1.72273e-08 0)
(0.00499999 -2.11247e-08 0)
(0.00499998 -2.5309e-08 0)
(0.00499998 -2.98216e-08 0)
(0.00499997 -3.47097e-08 0)
(0.00499997 -4.00252e-08 0)
(0.00499996 -4.58233e-08 0)
(0.00499995 -5.21627e-08 0)
(0.00499995 -5.91055e-08 0)
(0.00499994 -6.67171e-08 0)
(0.00499993 -7.50667e-08 0)
(0.00499992 -8.42275e-08 0)
(0.00499991 -9.42771e-08 0)
(0.0049999 -1.05298e-07 0)
(0.00499988 -1.17377e-07 0)
(0.00499987 -1.30607e-07 0)
(0.00499985 -1.45087e-07 0)
(0.00499984 -1.60922e-07 0)
(0.00499982 -1.78222e-07 0)
(0.0049998 -1.97107e-07 0)
(0.00499978 -2.177e-07 0)
(0.00499976 -2.40136e-07 0)
(0.00499973 -2.64555e-07 0)
(0.00499971 -2.91107e-07 0)
(0.00499968 -3.19951e-07 0)
(0.00499965 -3.51252e-07 0)
(0.00499962 -3.85189e-07 0)
(0.00499958 -4.21949e-07 0)
(0.00499954 -4.61728e-07 0)
(0.0049995 -5.04736e-07 0)
(0.00499946 -5.51191e-07 0)
(0.00499942 -6.01325e-07 0)
(0.00499937 -6.5538e-07 0)
(0.00499932 -7.13613e-07 0)
(0.00499926 -7.76291e-07 0)
(0.0049992 -8.43695e-07 0)
(0.00499914 -9.16122e-07 0)
(0.00499907 -9.93881e-07 0)
(0.004999 -1.07729e-06 0)
(0.00499893 -1.1667e-06 0)
(0.00499885 -1.26246e-06 0)
(0.00499876 -1.36493e-06 0)
(0.00499867 -1.4745e-06 0)
(0.00499858 -1.59157e-06 0)
(0.00499847 -1.71657e-06 0)
(0.00499837 -1.84991e-06 0)
(0.00499825 -1.99207e-06 0)
(0.00499813 -2.14349e-06 0)
(0.00499801 -2.30468e-06 0)
(0.00499787 -2.47613e-06 0)
(0.00499773 -2.65836e-06 0)
(0.00499758 -2.85191e-06 0)
(0.00499742 -3.05734e-06 0)
(0.00499726 -3.27521e-06 0)
(0.00499709 -3.50613e-06 0)
(0.0049969 -3.7507e-06 0)
(0.00499671 -4.00953e-06 0)
(0.00499651 -4.28328e-06 0)
(0.0049963 -4.57259e-06 0)
(0.00499607 -4.87814e-06 0)
(0.00499584 -5.20061e-06 0)
(0.0049956 -5.5407e-06 0)
(0.00499534 -5.89911e-06 0)
(0.00499508 -6.27655e-06 0)
(0.0049948 -6.67376e-06 0)
(0.00499451 -7.09145e-06 0)
(0.00499421 -7.53035e-06 0)
(0.0049939 -7.99117e-06 0)
(0.00499357 -8.47464e-06 0)
(0.00499323 -8.98144e-06 0)
(0.00499288 -9.51224e-06 0)
(0.00499252 -1.00677e-05 0)
(0.00499215 -1.06483e-05 0)
(0.00499176 -1.12546e-05 0)
(0.00499136 -1.18871e-05 0)
(0.00499095 -1.2546e-05 0)
(0.00499053 -1.32316e-05 0)
(0.00499009 -1.39437e-05 0)
(0.00498965 -1.46822e-05 0)
(0.0049892 -1.54464e-05 0)
(0.00498874 -1.62353e-05 0)
(0.00498827 -1.70477e-05 0)
(0.0049878 -1.78813e-05 0)
(0.00498732 -1.87333e-05 0)
(0.00498684 -1.96e-05 0)
(0.00498636 -2.04763e-05 0)
(0.00498588 -2.13557e-05 0)
(0.00498541 -2.22297e-05 0)
(0.00498494 -2.30875e-05 0)
(0.00498447 -2.39151e-05 0)
(0.00498402 -2.46946e-05 0)
(0.00498358 -2.54034e-05 0)
(0.00498314 -2.60117e-05 0)
(0.00498269 -2.64819e-05 0)
(0.00498219 -2.67587e-05 0)
(0.005 -1.05596e-09 0)
(0.005 -3.20556e-09 0)
(0.005 -5.53771e-09 0)
(0.005 -8.14179e-09 0)
(0.00499999 -1.10036e-08 0)
(0.00499999 -1.41127e-08 0)
(0.00499999 -1.74786e-08 0)
(0.00499998 -2.11247e-08 0)
(0.00499998 -2.50842e-08 0)
(0.00499998 -2.93971e-08 0)
(0.00499997 -3.41091e-08 0)
(0.00499996 -3.92701e-08 0)
(0.00499996 -4.49339e-08 0)
(0.00499995 -5.11581e-08 0)
(0.00499994 -5.80038e-08 0)
(0.00499993 -6.55362e-08 0)
(0.00499992 -7.38245e-08 0)
(0.00499991 -8.29423e-08 0)
(0.0049999 -9.29679e-08 0)
(0.00499989 -1.03985e-07 0)
(0.00499987 -1.16081e-07 0)
(0.00499986 -1.29351e-07 0)
(0.00499984 -1.43896e-07 0)
(0.00499983 -1.59821e-07 0)
(0.00499981 -1.7724e-07 0)
(0.00499979 -1.96274e-07 0)
(0.00499976 -2.17051e-07 0)
(0.00499974 -2.39706e-07 0)
(0.00499971 -2.64383e-07 0)
(0.00499969 -2.91235e-07 0)
(0.00499966 -3.20423e-07 0)
(0.00499963 -3.52119e-07 0)
(0.00499959 -3.86502e-07 0)
(0.00499956 -4.23765e-07 0)
(0.00499952 -4.64109e-07 0)
(0.00499948 -5.07745e-07 0)
(0.00499943 -5.54899e-07 0)
(0.00499939 -6.05807e-07 0)
(0.00499933 -6.60716e-07 0)
(0.00499928 -7.19887e-07 0)
(0.00499922 -7.83594e-07 0)
(0.00499916 -8.52126e-07 0)
(0.0049991 -9.25783e-07 0)
(0.00499903 -1.00488e-06 0)
(0.00499895 -1.08975e-06 0)
(0.00499888 -1.18074e-06 0)
(0.00499879 -1.2782e-06 0)
(0.0049987 -1.38253e-06 0)
(0.00499861 -1.4941e-06 0)
(0.00499851 -1.61333e-06 0)
(0.00499841 -1.74064e-06 0)
(0.0049983 -1.87649e-06 0)
(0.00499818 -2.02132e-06 0)
(0.00499805 -2.17563e-06 0)
(0.00499792 -2.3399e-06 0)
(0.00499778 -2.51465e-06 0)
(0.00499764 -2.70042e-06 0)
(0.00499749 -2.89776e-06 0)
(0.00499732 -3.10723e-06 0)
(0.00499715 -3.32943e-06 0)
(0.00499697 -3.56496e-06 0)
(0.00499679 -3.81445e-06 0)
(0.00499659 -4.07853e-06 0)
(0.00499638 -4.35786e-06 0)
(0.00499616 -4.65313e-06 0)
(0.00499594 -4.96502e-06 0)
(0.0049957 -5.29423e-06 0)
(0.00499545 -5.6415e-06 0)
(0.00499519 -6.00754e-06 0)
(0.00499492 -6.3931e-06 0)
(0.00499463 -6.79893e-06 0)
(0.00499434 -7.22578e-06 0)
(0.00499403 -7.67441e-06 0)
(0.00499371 -8.14555e-06 0)
(0.00499338 -8.63995e-06 0)
(0.00499303 -9.15833e-06 0)
(0.00499267 -9.70137e-06 0)
(0.0049923 -1.02697e-05 0)
(0.00499192 -1.08639e-05 0)
(0.00499153 -1.14846e-05 0)
(0.00499112 -1.2132e-05 0)
(0.00499071 -1.28065e-05 0)
(0.00499028 -1.35082e-05 0)
(0.00498984 -1.42369e-05 0)
(0.00498939 -1.49921e-05 0)
(0.00498894 -1.57732e-05 0)
(0.00498847 -1.65787e-05 0)
(0.004988 -1.74068e-05 0)
(0.00498752 -1.82549e-05 0)
(0.00498704 -1.91192e-05 0)
(0.00498656 -1.99949e-05 0)
(0.00498608 -2.08754e-05 0)
(0.00498559 -2.17525e-05 0)
(0.00498511 -2.26151e-05 0)
(0.00498464 -2.3449e-05 0)
(0.00498417 -2.42359e-05 0)
(0.00498371 -2.49524e-05 0)
(0.00498325 -2.55678e-05 0)
(0.00498277 -2.60431e-05 0)
(0.00498223 -2.63155e-05 0)
(0.005 -7.86641e-10 0)
(0.005 -2.38712e-09 0)
(0.005 -4.17431e-09 0)
(0.005 -6.24078e-09 0)
(0.00499999 -8.5728e-09 0)
(0.00499999 -1.1157e-08 0)
(0.00499999 -1.39972e-08 0)
(0.00499999 -1.711e-08 0)
(0.00499998 -2.05221e-08 0)
(0.00499998 -2.42672e-08 0)
(0.00499997 -2.83852e-08 0)
(0.00499997 -3.29207e-08 0)
(0.00499996 -3.79226e-08 0)
(0.00499995 -4.3444e-08 0)
(0.00499994 -4.95419e-08 0)
(0.00499993 -5.62772e-08 0)
(0.00499993 -6.37152e-08 0)
(0.00499991 -7.19255e-08 0)
(0.0049999 -8.09822e-08 0)
(0.00499989 -9.09647e-08 0)
(0.00499988 -1.01957e-07 0)
(0.00499986 -1.1405e-07 0)
(0.00499985 -1.27338e-07 0)
(0.00499983 -1.41925e-07 0)
(0.00499981 -1.57918e-07 0)
(0.00499979 -1.75434e-07 0)
(0.00499977 -1.94595e-07 0)
(0.00499975 -2.15531e-07 0)
(0.00499972 -2.38382e-07 0)
(0.0049997 -2.63293e-07 0)
(0.00499967 -2.90422e-07 0)
(0.00499964 -3.19933e-07 0)
(0.00499961 -3.52e-07 0)
(0.00499957 -3.86809e-07 0)
(0.00499953 -4.24554e-07 0)
(0.00499949 -4.65442e-07 0)
(0.00499945 -5.09689e-07 0)
(0.0049994 -5.57524e-07 0)
(0.00499935 -6.09188e-07 0)
(0.0049993 -6.64936e-07 0)
(0.00499925 -7.25033e-07 0)
(0.00499919 -7.89759e-07 0)
(0.00499912 -8.59409e-07 0)
(0.00499906 -9.3429e-07 0)
(0.00499898 -1.01472e-06 0)
(0.00499891 -1.10105e-06 0)
(0.00499883 -1.19362e-06 0)
(0.00499874 -1.29281e-06 0)
(0.00499865 -1.399e-06 0)
(0.00499855 -1.51258e-06 0)
(0.00499845 -1.63399e-06 0)
(0.00499834 -1.76366e-06 0)
(0.00499823 -1.90204e-06 0)
(0.00499811 -2.04961e-06 0)
(0.00499798 -2.20685e-06 0)
(0.00499784 -2.37427e-06 0)
(0.0049977 -2.55241e-06 0)
(0.00499755 -2.74181e-06 0)
(0.00499739 -2.94304e-06 0)
(0.00499723 -3.15668e-06 0)
(0.00499705 -3.38333e-06 0)
(0.00499687 -3.62363e-06 0)
(0.00499668 -3.8782e-06 0)
(0.00499647 -4.14773e-06 0)
(0.00499626 -4.43287e-06 0)
(0.00499604 -4.73434e-06 0)
(0.0049958 -5.05285e-06 0)
(0.00499556 -5.38912e-06 0)
(0.00499531 -5.74391e-06 0)
(0.00499504 -6.11797e-06 0)
(0.00499476 -6.51207e-06 0)
(0.00499447 -6.92699e-06 0)
(0.00499417 -7.36352e-06 0)
(0.00499386 -7.82243e-06 0)
(0.00499353 -8.30449e-06 0)
(0.00499319 -8.81049e-06 0)
(0.00499284 -9.34114e-06 0)
(0.00499248 -9.89716e-06 0)
(0.0049921 -1.04792e-05 0)
(0.00499171 -1.10879e-05 0)
(0.00499131 -1.17236e-05 0)
(0.0049909 -1.23868e-05 0)
(0.00499048 -1.30776e-05 0)
(0.00499005 -1.37961e-05 0)
(0.0049896 -1.45418e-05 0)
(0.00498915 -1.53142e-05 0)
(0.00498869 -1.61121e-05 0)
(0.00498822 -1.69336e-05 0)
(0.00498774 -1.77764e-05 0)
(0.00498726 -1.86367e-05 0)
(0.00498678 -1.95099e-05 0)
(0.00498629 -2.03895e-05 0)
(0.0049858 -2.12671e-05 0)
(0.00498531 -2.21316e-05 0)
(0.00498482 -2.29685e-05 0)
(0.00498434 -2.37593e-05 0)
(0.00498385 -2.44798e-05 0)
(0.00498337 -2.50986e-05 0)
(0.00498286 -2.5576e-05 0)
(0.0049823 -2.58475e-05 0)
(0.005 -5.33779e-10 0)
(0.005 -1.63556e-09 0)
(0.005 -2.91423e-09 0)
(0.005 -4.46904e-09 0)
(0.005 -6.29004e-09 0)
(0.00499999 -8.36291e-09 0)
(0.00499999 -1.06879e-08 0)
(0.00499999 -1.32768e-08 0)
(0.00499998 -1.61508e-08 0)
(0.00499998 -1.93383e-08 0)
(0.00499997 -2.28739e-08 0)
(0.00499997 -2.67973e-08 0)
(0.00499996 -3.11527e-08 0)
(0.00499995 -3.59889e-08 0)
(0.00499995 -4.13585e-08 0)
(0.00499994 -4.73185e-08 0)
(0.00499993 -5.393e-08 0)
(0.00499992 -6.12586e-08 0)
(0.00499991 -6.93746e-08 0)
(0.0049999 -7.83531e-08 0)
(0.00499988 -8.82743e-08 0)
(0.00499987 -9.9224e-08 0)
(0.00499985 -1.11294e-07 0)
(0.00499984 -1.24581e-07 0)
(0.00499982 -1.3919e-07 0)
(0.0049998 -1.55231e-07 0)
(0.00499978 -1.72823e-07 0)
(0.00499976 -1.9209e-07 0)
(0.00499973 -2.13167e-07 0)
(0.00499971 -2.36194e-07 0)
(0.00499968 -2.61321e-07 0)
(0.00499965 -2.88708e-07 0)
(0.00499962 -3.18524e-07 0)
(0.00499958 -3.50946e-07 0)
(0.00499955 -3.86164e-07 0)
(0.00499951 -4.24376e-07 0)
(0.00499947 -4.65794e-07 0)
(0.00499942 -5.10639e-07 0)
(0.00499938 -5.59144e-07 0)
(0.00499932 -6.11558e-07 0)
(0.00499927 -6.68137e-07 0)
(0.00499921 -7.29156e-07 0)
(0.00499915 -7.949e-07 0)
(0.00499909 -8.65669e-07 0)
(0.00499902 -9.41779e-07 0)
(0.00499894 -1.02356e-06 0)
(0.00499886 -1.11136e-06 0)
(0.00499878 -1.20553e-06 0)
(0.00499869 -1.30646e-06 0)
(0.0049986 -1.41454e-06 0)
(0.0049985 -1.53018e-06 0)
(0.00499839 -1.65381e-06 0)
(0.00499828 -1.78588e-06 0)
(0.00499816 -1.92685e-06 0)
(0.00499804 -2.07721e-06 0)
(0.00499791 -2.23747e-06 0)
(0.00499777 -2.40814e-06 0)
(0.00499762 -2.58976e-06 0)
(0.00499747 -2.78291e-06 0)
(0.00499731 -2.98815e-06 0)
(0.00499714 -3.20611e-06 0)
(0.00499696 -3.43738e-06 0)
(0.00499677 -3.68263e-06 0)
(0.00499657 -3.94251e-06 0)
(0.00499636 -4.21771e-06 0)
(0.00499615 -4.50893e-06 0)
(0.00499592 -4.81689e-06 0)
(0.00499568 -5.14234e-06 0)
(0.00499543 -5.48603e-06 0)
(0.00499517 -5.84873e-06 0)
(0.0049949 -6.23124e-06 0)
(0.00499462 -6.63435e-06 0)
(0.00499432 -7.05888e-06 0)
(0.00499401 -7.50564e-06 0)
(0.00499369 -7.97543e-06 0)
(0.00499336 -8.46907e-06 0)
(0.00499302 -8.98734e-06 0)
(0.00499266 -9.531e-06 0)
(0.00499229 -1.01008e-05 0)
(0.00499191 -1.06973e-05 0)
(0.00499152 -1.13211e-05 0)
(0.00499111 -1.19727e-05 0)
(0.00499069 -1.26523e-05 0)
(0.00499027 -1.33601e-05 0)
(0.00498983 -1.40957e-05 0)
(0.00498938 -1.48587e-05 0)
(0.00498892 -1.56479e-05 0)
(0.00498845 -1.64618e-05 0)
(0.00498798 -1.72979e-05 0)
(0.0049875 -1.81527e-05 0)
(0.00498701 -1.90216e-05 0)
(0.00498652 -1.98981e-05 0)
(0.00498602 -2.07738e-05 0)
(0.00498552 -2.16375e-05 0)
(0.00498502 -2.24746e-05 0)
(0.00498452 -2.32661e-05 0)
(0.00498402 -2.39875e-05 0)
(0.00498352 -2.46068e-05 0)
(0.00498299 -2.50833e-05 0)
(0.0049824 -2.53537e-05 0)
(0.005 -2.97895e-10 0)
(0.005 -9.45864e-10 0)
(0.005 -1.7486e-09 0)
(0.005 -2.81901e-09 0)
(0.005 -4.15128e-09 0)
(0.00499999 -5.73079e-09 0)
(0.00499999 -7.55553e-09 0)
(0.00499999 -9.63384e-09 0)
(0.00499998 -1.19826e-08 0)
(0.00499998 -1.46256e-08 0)
(0.00499997 -1.7593e-08 0)
(0.00499997 -2.09199e-08 0)
(0.00499996 -2.46463e-08 0)
(0.00499996 -2.88165e-08 0)
(0.00499995 -3.34791e-08 0)
(0.00499994 -3.86871e-08 0)
(0.00499993 -4.44976e-08 0)
(0.00499992 -5.09724e-08 0)
(0.00499991 -5.81776e-08 0)
(0.0049999 -6.61843e-08 0)
(0.00499989 -7.50688e-08 0)
(0.00499987 -8.49127e-08 0)
(0.00499986 -9.5803e-08 0)
(0.00499984 -1.07833e-07 0)
(0.00499983 -1.21102e-07 0)
(0.00499981 -1.35717e-07 0)
(0.00499979 -1.51789e-07 0)
(0.00499977 -1.69441e-07 0)
(0.00499974 -1.88799e-07 0)
(0.00499972 -2.09999e-07 0)
(0.00499969 -2.33187e-07 0)
(0.00499966 -2.58516e-07 0)
(0.00499963 -2.86149e-07 0)
(0.0049996 -3.16257e-07 0)
(0.00499957 -3.49023e-07 0)
(0.00499953 -3.84639e-07 0)
(0.00499949 -4.23311e-07 0)
(0.00499944 -4.65252e-07 0)
(0.0049994 -5.1069e-07 0)
(0.00499935 -5.59864e-07 0)
(0.0049993 -6.13026e-07 0)
(0.00499924 -6.70441e-07 0)
(0.00499918 -7.32387e-07 0)
(0.00499912 -7.99157e-07 0)
(0.00499905 -8.71058e-07 0)
(0.00499898 -9.48414e-07 0)
(0.0049989 -1.03156e-06 0)
(0.00499882 -1.12085e-06 0)
(0.00499874 -1.21666e-06 0)
(0.00499864 -1.31937e-06 0)
(0.00499855 -1.42938e-06 0)
(0.00499845 -1.54713e-06 0)
(0.00499834 -1.67304e-06 0)
(0.00499822 -1.80758e-06 0)
(0.0049981 -1.95123e-06 0)
(0.00499798 -2.10447e-06 0)
(0.00499784 -2.26784e-06 0)
(0.0049977 -2.44186e-06 0)
(0.00499755 -2.6271e-06 0)
(0.00499739 -2.82414e-06 0)
(0.00499723 -3.03356e-06 0)
(0.00499705 -3.25601e-06 0)
(0.00499687 -3.49211e-06 0)