/*--------------------------------*- C++ -*----------------------------------*\
  =========                 |
  \\      /  F ield         | OpenFOAM: The Open Source CFD Toolbox
   \\    /   O peration     | Website:  https://openfoam.org
    \\  /    A nd           | Version:  11
     \\/     M anipulation  |
\*---------------------------------------------------------------------------*/
FoamFile
{
    format      ascii;
    class       volScalarField;
    location    "1216";
    object      p;
}
// * * * * * * * * * * * * * * * * * * * * * * * * * * * * * * * * * * * * * //

dimensions      [0 2 -2 0 0 0 0];

internalField   nonuniform List<scalar> 
10000
(
1.44248e-12
1.40279e-12
1.44903e-12
1.5536e-12
1.67578e-12
1.80631e-12
1.94431e-12
2.08945e-12
2.24163e-12
2.40104e-12
2.56808e-12
2.74323e-12
2.92698e-12
3.11988e-12
3.32248e-12
3.53534e-12
3.75907e-12
3.99425e-12
4.2415e-12
4.50144e-12
4.77474e-12
5.06204e-12
5.36403e-12
5.6814e-12
6.01489e-12
6.36521e-12
6.73313e-12
7.11942e-12
7.52487e-12
7.9503e-12
8.39652e-12
8.86438e-12
9.35476e-12
9.86852e-12
1.04066e-11
1.09698e-11
1.15591e-11
1.21754e-11
1.28197e-11
1.34929e-11
1.41959e-11
1.49297e-11
1.56951e-11
1.64932e-11
1.73247e-11
1.81907e-11
1.90918e-11
2.0029e-11
2.10029e-11
2.20144e-11
2.30641e-11
2.41524e-11
2.528e-11
2.64472e-11
2.76543e-11
2.89014e-11
3.01885e-11
3.15154e-11
3.28818e-11
3.4287e-11
3.57302e-11
3.72103e-11
3.87257e-11
4.02748e-11
4.18553e-11
4.34646e-11
4.50996e-11
4.67565e-11
4.84311e-11
5.01183e-11
5.18125e-11
5.35069e-11
5.51939e-11
5.6865e-11
5.85103e-11
6.01186e-11
6.16772e-11
6.31718e-11
6.45863e-11
6.59023e-11
6.70995e-11
6.81546e-11
6.90417e-11
6.97315e-11
7.01912e-11
7.03838e-11
7.02677e-11
6.97957e-11
6.89149e-11
6.75645e-11
6.56753e-11
6.31671e-11
5.99451e-11
5.58861e-11
5.08037e-11
4.45166e-11
3.76153e-11
2.91123e-11
1.64555e-11
1.124e-12
2.75176e-12
2.59499e-12
2.4988e-12
2.53174e-12
2.62185e-12
2.74052e-12
2.87998e-12
3.03611e-12
3.20629e-12
3.38919e-12
3.58422e-12
3.79124e-12
4.01035e-12
4.24184e-12
4.48608e-12
4.74355e-12
5.01478e-12
5.30035e-12
5.6009e-12
5.91708e-12
6.24958e-12
6.59913e-12
6.96648e-12
7.35241e-12
7.75772e-12
8.18324e-12
8.62981e-12
9.09831e-12
9.58963e-12
1.01047e-11
1.06444e-11
1.12098e-11
1.18017e-11
1.24213e-11
1.30694e-11
1.37471e-11
1.44553e-11
1.51952e-11
1.59678e-11
1.6774e-11
1.76149e-11
1.84915e-11
1.94048e-11
2.03557e-11
2.13452e-11
2.23742e-11
2.34435e-11
2.4554e-11
2.57064e-11
2.69013e-11
2.81394e-11
2.94211e-11
3.07468e-11
3.21166e-11
3.35307e-11
3.4989e-11
3.64911e-11
3.80365e-11
3.96245e-11
4.12539e-11
4.29233e-11
4.46311e-11
4.63751e-11
4.81526e-11
4.99607e-11
5.17955e-11
5.3653e-11
5.5528e-11
5.74148e-11
5.93069e-11
6.11967e-11
6.30755e-11
6.49335e-11
6.67596e-11
6.85412e-11
7.0264e-11
7.1912e-11
7.3467e-11
7.49086e-11
7.62141e-11
7.73576e-11
7.83103e-11
7.90398e-11
7.95098e-11
7.96795e-11
7.95029e-11
7.89285e-11
7.78981e-11
7.63457e-11
7.41964e-11
7.13644e-11
6.77505e-11
6.3239e-11
5.7685e-11
5.09049e-11
4.27808e-11
3.34897e-11
2.10856e-11
3.31111e-12
-1.21759e-11
3.41574e-12
3.19597e-12
3.00645e-12
2.95042e-12
2.96498e-12
3.01914e-12
3.10245e-12
3.20865e-12
3.33334e-12
3.47379e-12
3.6284e-12
3.79621e-12
3.97669e-12
4.16962e-12
4.37497e-12
4.59285e-12
4.82351e-12
5.06725e-12
5.32447e-12
5.5956e-12
5.88111e-12
6.18154e-12
6.49745e-12
6.8294e-12
7.17802e-12
7.54394e-12
7.92781e-12
8.33033e-12
8.75217e-12
9.19406e-12
9.65672e-12
1.01409e-11
1.06473e-11
1.11768e-11
1.173e-11
1.23079e-11
1.2911e-11
1.35403e-11
1.41965e-11
1.48803e-11
1.55925e-11
1.63339e-11
1.7105e-11
1.79067e-11
1.87396e-11
1.96042e-11
2.05012e-11
2.1431e-11
2.23941e-11
2.33908e-11
2.44214e-11
2.5486e-11
2.65847e-11
2.77175e-11
2.8884e-11
3.00839e-11
3.13166e-11
3.25813e-11
3.38769e-11
3.52021e-11
3.65553e-11
3.79346e-11
3.93377e-11
4.07618e-11
4.22037e-11
4.36597e-11
4.51257e-11
4.65966e-11
4.80669e-11
4.95301e-11
5.09792e-11
5.24058e-11
5.38006e-11
5.51534e-11
5.64521e-11
5.76838e-11
5.88335e-11
5.98846e-11
6.08185e-11
6.16143e-11
6.22487e-11
6.26957e-11
6.29261e-11
6.29073e-11
6.26029e-11
6.1972e-11
6.09689e-11
5.9542e-11
5.76335e-11
5.51777e-11
5.20999e-11
4.83148e-11
4.37237e-11
3.82075e-11
3.16296e-11
2.39029e-11
1.4971e-11
3.40181e-12
-1.30936e-11
-2.41635e-11
3.9928e-12
3.75669e-12
3.54817e-12
3.45722e-12
3.43434e-12
3.45427e-12
3.50741e-12
3.5872e-12
3.68874e-12
3.8087e-12
3.94493e-12
4.096e-12
4.261e-12
4.43937e-12
4.63081e-12
4.83523e-12
5.05265e-12
5.28323e-12
5.52721e-12
5.78489e-12
6.05663e-12
6.34286e-12
6.64401e-12
6.96058e-12
7.29308e-12
7.64205e-12
8.00805e-12
8.39168e-12
8.79353e-12
9.21422e-12
9.65438e-12
1.01147e-11
1.05957e-11
1.10981e-11
1.16226e-11
1.21699e-11
1.27405e-11
1.33352e-11
1.39545e-11
1.45992e-11
1.52697e-11
1.59668e-11
1.66909e-11
1.74426e-11
1.82224e-11
1.90307e-11
1.98679e-11
2.07343e-11
2.16302e-11
2.25556e-11
2.35108e-11
2.44955e-11
2.55097e-11
2.65531e-11
2.76252e-11
2.87253e-11
2.98526e-11
3.1006e-11
3.21843e-11
3.33858e-11
3.46088e-11
3.58509e-11
3.71095e-11
3.83818e-11
3.96641e-11
4.09526e-11
4.22426e-11
4.3529e-11
4.4806e-11
4.60668e-11
4.73039e-11
4.8509e-11
4.96725e-11
5.07837e-11
5.18309e-11
5.28005e-11
5.36777e-11
5.44459e-11
5.50864e-11
5.55786e-11
5.58993e-11
5.60229e-11
5.59208e-11
5.55611e-11
5.49083e-11
5.39229e-11
5.25607e-11
5.07724e-11
4.8503e-11
4.56905e-11
4.22654e-11
3.81493e-11
3.32525e-11
2.74691e-11
2.06838e-11
1.28329e-11
3.82204e-12
-7.78826e-12
-2.45501e-11
-3.2358e-11
4.49775e-12
4.26485e-12
4.05965e-12
3.95544e-12
3.91302e-12
3.91298e-12
3.94748e-12
4.01052e-12
4.09731e-12
4.20441e-12
4.32942e-12
4.47069e-12
4.62707e-12
4.79778e-12
4.98236e-12
5.18052e-12
5.39217e-12
5.61734e-12
5.85614e-12
6.1088e-12
6.37559e-12
6.65683e-12
6.95291e-12
7.26423e-12
7.59124e-12
7.93442e-12
8.29426e-12
8.67129e-12
9.06604e-12
9.47906e-12
9.91091e-12
1.03622e-11
1.08334e-11
1.13252e-11
1.18381e-11
1.23727e-11
1.29297e-11
1.35094e-11
1.41126e-11
1.47396e-11
1.53911e-11
1.60675e-11
1.67692e-11
1.74967e-11
1.82503e-11
1.90303e-11
1.9837e-11
2.06705e-11
2.15309e-11
2.24183e-11
2.33324e-11
2.42731e-11
2.524e-11
2.62327e-11
2.72504e-11
2.82923e-11
2.93573e-11
3.04442e-11
3.15514e-11
3.2677e-11
3.3819e-11
3.49747e-11
3.61415e-11
3.73159e-11
3.84941e-11
3.9672e-11
4.08446e-11
4.20063e-11
4.3151e-11
4.42718e-11
4.53606e-11
4.64088e-11
4.74065e-11
4.83427e-11
4.92051e-11
4.99801e-11
5.06524e-11
5.12052e-11
5.16195e-11
5.18745e-11
5.19471e-11
5.18114e-11
5.1439e-11
5.07983e-11
4.98542e-11
4.85679e-11
4.68963e-11
4.47919e-11
4.22017e-11
3.9067e-11
3.53229e-11
3.08975e-11
2.57104e-11
1.96687e-11
1.26778e-11
4.71839e-12
-4.24604e-12
-1.57576e-11
-3.31543e-11
-3.78777e-11
4.93147e-12
4.70933e-12
4.51182e-12
4.40167e-12
4.34687e-12
4.33247e-12
4.35235e-12
4.40133e-12
4.47503e-12
4.57014e-12
4.68422e-12
4.81552e-12
4.96275e-12
5.12501e-12
5.30168e-12
5.49237e-12
5.69687e-12
5.91509e-12
6.14706e-12
6.39291e-12
6.65282e-12
6.92704e-12
7.21589e-12
7.51969e-12
7.83882e-12
8.1737e-12
8.52476e-12
8.89243e-12
9.2772e-12
9.67954e-12
1.00999e-11
1.05389e-11
1.09969e-11
1.14745e-11
1.19721e-11
1.24903e-11
1.30295e-11
1.35902e-11
1.41728e-11
1.47778e-11
1.54057e-11
1.60566e-11
1.6731e-11
1.74292e-11
1.81514e-11
1.88977e-11
1.96683e-11
2.04632e-11
2.12824e-11
2.21256e-11
2.29927e-11
2.38831e-11
2.47965e-11
2.5732e-11
2.66889e-11
2.7666e-11
2.86622e-11
2.96759e-11
3.07053e-11
3.17485e-11
3.2803e-11
3.38661e-11
3.49346e-11
3.60051e-11
3.70736e-11
3.81354e-11
3.91854e-11
4.02179e-11
4.12264e-11
4.22037e-11
4.31417e-11
4.40314e-11
4.48626e-11
4.56243e-11
4.6304e-11
4.68879e-11
4.73607e-11
4.77055e-11
4.79034e-11
4.79338e-11
4.77736e-11
4.73977e-11
4.6778e-11
4.58836e-11
4.46807e-11
4.31319e-11
4.1196e-11
3.88279e-11
3.5978e-11
3.25922e-11
2.86114e-11
2.3972e-11
1.86047e-11
1.24318e-11
5.38135e-12
-2.52074e-12
-1.12376e-11
-2.23641e-11
-3.97637e-11
-4.23515e-11
5.31362e-12
5.10445e-12
4.91638e-12
4.8047e-12
4.74251e-12
4.71807e-12
4.72672e-12
4.76419e-12
4.8266e-12
4.9109e-12
5.01476e-12
5.13641e-12
5.27453e-12
5.42812e-12
5.59649e-12
5.77915e-12
5.97579e-12
6.18625e-12
6.41048e-12
6.6485e-12
6.90045e-12
7.16649e-12
7.44686e-12
7.74183e-12
8.05171e-12
8.37685e-12
8.71759e-12
9.07434e-12
9.44748e-12
9.83743e-12
1.02446e-11
1.06694e-11
1.11123e-11
1.15737e-11
1.2054e-11
1.25536e-11
1.3073e-11
1.36124e-11
1.41723e-11
1.4753e-11
1.53547e-11
1.59778e-11
1.66224e-11
1.72888e-11
1.7977e-11
1.86871e-11
1.9419e-11
2.01727e-11
2.0948e-11
2.17445e-11
2.25618e-11
2.33994e-11
2.42566e-11
2.51325e-11
2.6026e-11
2.69361e-11
2.78612e-11
2.87995e-11
2.97493e-11
3.07082e-11
3.16737e-11
3.26428e-11
3.36122e-11
3.45781e-11
3.55365e-11
3.64824e-11
3.74106e-11
3.83151e-11
3.91893e-11
4.00259e-11
4.08165e-11
4.1552e-11
4.22223e-11
4.28162e-11
4.33211e-11
4.37233e-11
4.40077e-11
4.41574e-11
4.4154e-11
4.39771e-11
4.36042e-11
4.30108e-11
4.21698e-11
4.10516e-11
3.96237e-11
3.78506e-11
3.56936e-11
3.31108e-11
3.00564e-11
2.64813e-11
2.23332e-11
1.75567e-11
1.20939e-11
5.88077e-12
-1.13547e-12
-8.89585e-12
-1.73164e-11
-2.80675e-11
-4.53993e-11
-4.66897e-11
5.65852e-12
5.46228e-12
5.2842e-12
5.17382e-12
5.10783e-12
5.0768e-12
5.07722e-12
5.10563e-12
5.1587e-12
5.23369e-12
5.32846e-12
5.44129e-12
5.57087e-12
5.71617e-12
5.87646e-12
6.05118e-12
6.23996e-12
6.44256e-12
6.65887e-12
6.88886e-12
7.13257e-12
7.39013e-12
7.66169e-12
7.94747e-12
8.24771e-12
8.56269e-12
8.89271e-12
9.23809e-12
9.59916e-12
9.97627e-12
1.03698e-11
1.078e-11
1.12073e-11
1.16521e-11
1.21146e-11
1.25953e-11
1.30944e-11
1.36121e-11
1.41489e-11
1.47049e-11
1.52803e-11
1.58752e-11
1.64898e-11
1.71242e-11
1.77784e-11
1.84522e-11
1.91455e-11
1.98581e-11
2.05897e-11
2.13398e-11
2.21079e-11
2.28932e-11
2.3695e-11
2.45122e-11
2.53436e-11
2.61878e-11
2.70434e-11
2.79082e-11
2.87804e-11
2.96574e-11
3.05366e-11
3.14147e-11
3.22885e-11
3.31538e-11
3.40064e-11
3.48414e-11
3.56533e-11
3.64361e-11
3.71829e-11
3.78863e-11
3.8538e-11
3.91287e-11
3.96485e-11
4.0086e-11
4.04289e-11
4.06635e-11
4.0775e-11
4.07468e-11
4.05609e-11
4.01974e-11
3.96348e-11
3.88491e-11
3.78146e-11
3.6503e-11
3.48836e-11
3.2923e-11
3.05854e-11
2.78319e-11
2.4621e-11
2.09089e-11
1.66494e-11
1.17952e-11
6.29816e-12
1.05897e-13
-6.82013e-12
-1.43981e-11
-2.25184e-11
-3.29459e-11
-5.02518e-11
-5.0434e-11
5.97387e-12
5.78971e-12
5.62132e-12
5.51375e-12
5.44629e-12
5.41111e-12
5.40559e-12
5.42693e-12
5.47232e-12
5.53935e-12
5.62606e-12
5.73086e-12
5.85247e-12
5.9899e-12
6.14236e-12
6.30929e-12
6.49026e-12
6.68498e-12
6.89329e-12
7.11509e-12
7.35039e-12
7.59923e-12
7.86173e-12
8.13803e-12
8.42833e-12
8.73284e-12
9.05181e-12
9.38549e-12
9.73414e-12
1.00981e-11
1.04775e-11
1.08728e-11
1.12843e-11
1.17121e-11
1.21565e-11
1.26179e-11
1.30965e-11
1.35923e-11
1.41057e-11
1.46368e-11
1.51857e-11
1.57524e-11
1.6337e-11
1.69395e-11
1.75596e-11
1.81973e-11
1.88523e-11
1.95242e-11
2.02125e-11
2.09168e-11
2.16363e-11
2.23703e-11
2.31176e-11
2.38773e-11
2.46479e-11
2.5428e-11
2.62158e-11
2.70092e-11
2.78061e-11
2.86039e-11
2.93998e-11
3.01904e-11
3.09722e-11
3.17412e-11
3.24928e-11
3.3222e-11
3.39234e-11
3.45907e-11
3.52172e-11
3.57953e-11
3.63167e-11
3.67723e-11
3.7152e-11
3.74448e-11
3.76383e-11
3.77193e-11
3.76732e-11
3.74839e-11
3.71339e-11
3.66042e-11
3.58737e-11
3.492e-11
3.37184e-11
3.22422e-11
3.04626e-11
2.83486e-11
2.58671e-11
2.29827e-11
1.9658e-11
1.5854e-11
1.15306e-11
6.64766e-12
1.16521e-12
-4.95969e-12
-1.17548e-11
-1.91218e-11
-2.69345e-11
-3.70372e-11
-5.42312e-11
-5.33838e-11
6.26438e-12
6.09117e-12
5.93185e-12
5.82785e-12
5.76037e-12
5.72273e-12
5.71295e-12
5.72877e-12
5.76781e-12
5.82799e-12
5.90754e-12
6.00501e-12
6.11919e-12
6.24911e-12
6.394e-12
6.55328e-12
6.72649e-12
6.91331e-12
7.11353e-12
7.32701e-12
7.55371e-12
7.79362e-12
8.0468e-12
8.31336e-12
8.59343e-12
8.88716e-12
9.19475e-12
9.51639e-12
9.8523e-12
1.02027e-11
1.05678e-11
1.09478e-11
1.1343e-11
1.17536e-11
1.21796e-11
1.26215e-11
1.30792e-11
1.35529e-11
1.40428e-11
1.45488e-11
1.5071e-11
1.56094e-11
1.6164e-11
1.67345e-11
1.73207e-11
1.79224e-11
1.85393e-11
1.91708e-11
1.98164e-11
2.04755e-11
2.11471e-11
2.18305e-11
2.25245e-11
2.32278e-11
2.3939e-11
2.46564e-11
2.53782e-11
2.61023e-11
2.68263e-11
2.75475e-11
2.8263e-11
2.89694e-11
2.9663e-11
3.03397e-11
3.09949e-11
3.16235e-11
3.22201e-11
3.27783e-11
3.32913e-11
3.37518e-11
3.41514e-11
3.44811e-11
3.47309e-11
3.489e-11
3.49465e-11
3.48874e-11
3.46984e-11
3.43641e-11
3.38676e-11
3.31907e-11
3.23135e-11
3.12144e-11
2.98703e-11
2.82562e-11
2.63453e-11
2.4109e-11
2.15169e-11
1.85371e-11
1.51361e-11
1.12795e-11
6.93261e-12
2.06143e-12
-3.36706e-12
-9.38836e-12
-1.60221e-11
-2.3158e-11
-3.0658e-11
-4.04277e-11
-5.74372e-11
-5.56826e-11
6.53326e-12
6.36994e-12
6.21903e-12
6.11892e-12
6.05233e-12
6.01339e-12
6.00058e-12
6.01208e-12
6.04587e-12
6.10013e-12
6.1733e-12
6.26406e-12
6.37129e-12
6.49407e-12
6.63164e-12
6.78343e-12
6.94896e-12
7.12789e-12
7.31997e-12
7.52504e-12
7.743e-12
7.97381e-12
8.21749e-12
8.47408e-12
8.74367e-12
9.02637e-12
9.32232e-12
9.63166e-12
9.95454e-12
1.02911e-11
1.06416e-11
1.10061e-11
1.13848e-11
1.17778e-11
1.21853e-11
1.26074e-11
1.30441e-11
1.34955e-11
1.39617e-11
1.44426e-11
1.49381e-11
1.54482e-11
1.59728e-11
1.65114e-11
1.7064e-11
1.76301e-11
1.82092e-11
1.88008e-11
1.94042e-11
2.00187e-11
2.06434e-11
2.12771e-11
2.19188e-11
2.25671e-11
2.32204e-11
2.38769e-11
2.45347e-11
2.51916e-11
2.58452e-11
2.64926e-11
2.71308e-11
2.77564e-11
2.83656e-11
2.89543e-11
2.95178e-11
3.00511e-11
3.05485e-11
3.10039e-11
3.14105e-11
3.1761e-11
3.20471e-11
3.22601e-11
3.23901e-11
3.24266e-11
3.23581e-11
3.21718e-11
3.18542e-11
3.13904e-11
3.07643e-11
2.99585e-11
2.89542e-11
2.77311e-11
2.62676e-11
2.45403e-11
2.25247e-11
2.01943e-11
1.75217e-11
1.44779e-11
1.10334e-11
7.15785e-12
2.8213e-12
-2.00487e-12
-7.348e-12
-1.32377e-11
-1.96876e-11
-2.65786e-11
-3.37646e-11
-4.31969e-11
-5.99681e-11
-5.74314e-11
6.78283e-12
6.62847e-12
6.48535e-12
6.38927e-12
6.32413e-12
6.28468e-12
6.26976e-12
6.27786e-12
6.30726e-12
6.35638e-12
6.42385e-12
6.50846e-12
6.60918e-12
6.72516e-12
6.85567e-12
7.00013e-12
7.15809e-12
7.32917e-12
7.51311e-12
7.70971e-12
7.91885e-12
8.14045e-12
8.37447e-12
8.62093e-12
8.87987e-12
9.15136e-12
9.43546e-12
9.73229e-12
1.00419e-11
1.03645e-11
1.07002e-11
1.10489e-11
1.1411e-11
1.17863e-11
1.2175e-11
1.25772e-11
1.29928e-11
1.34219e-11
1.38644e-11
1.43202e-11
1.47891e-11
1.52711e-11
1.57657e-11
1.62729e-11
1.67921e-11
1.73229e-11
1.78648e-11
1.84171e-11
1.8979e-11
1.95498e-11
2.01284e-11
2.07137e-11
2.13045e-11
2.18991e-11
2.24961e-11
2.30936e-11
2.36895e-11
2.42816e-11
2.48673e-11
2.54438e-11
2.6008e-11
2.65564e-11
2.70852e-11
2.75902e-11
2.80668e-11
2.851e-11
2.89141e-11
2.9273e-11
2.95802e-11
2.98283e-11
3.00093e-11
3.01145e-11
3.01346e-11
3.00593e-11
2.98774e-11
2.95767e-11
2.91442e-11
2.85658e-11
2.78261e-11
2.69087e-11
2.57959e-11
2.44688e-11
2.29072e-11
2.10895e-11
1.89932e-11
1.65942e-11
1.38676e-11
1.07877e-11
7.32803e-12
3.4622e-12
-8.35615e-13
-5.58956e-12
-1.08223e-11
-1.65589e-11
-2.28083e-11
-2.94452e-11
-3.63183e-11
-4.54102e-11
-6.1897e-11
-5.86925e-11
7.01486e-12
6.86869e-12
6.73283e-12
6.64076e-12
6.57741e-12
6.53801e-12
6.52165e-12
6.52706e-12
6.55276e-12
6.59738e-12
6.6597e-12
6.73865e-12
6.83328e-12
6.94277e-12
7.06647e-12
7.20379e-12
7.35429e-12
7.5176e-12
7.69342e-12
7.88154e-12
8.08181e-12
8.29412e-12
8.51839e-12
8.75461e-12
9.00277e-12
9.2629e-12
9.53502e-12
9.81919e-12
1.01155e-11
1.04239e-11
1.07446e-11
1.10775e-11
1.14228e-11
1.17803e-11
1.21503e-11
1.25325e-11
1.2927e-11
1.33338e-11
1.37526e-11
1.41834e-11
1.46259e-11
1.50799e-11
1.5545e-11
1.6021e-11
1.65072e-11
1.70033e-11
1.75086e-11
1.80223e-11
1.85436e-11
1.90716e-11
1.96053e-11
2.01433e-11
2.06845e-11
2.12271e-11
2.17696e-11
2.231e-11
2.28462e-11
2.33759e-11
2.38965e-11
2.44051e-11
2.48986e-11
2.53734e-11
2.58258e-11
2.62516e-11
2.66462e-11
2.70045e-11
2.73211e-11
2.75899e-11
2.78045e-11
2.79577e-11
2.80417e-11
2.80482e-11
2.7968e-11
2.77912e-11
2.75071e-11
2.71042e-11
2.657e-11
2.5891e-11
2.50529e-11
2.40401e-11
2.28362e-11
2.14236e-11
1.97835e-11
1.78963e-11
1.57411e-11
1.32963e-11
1.05394e-11
7.44746e-12
3.99717e-12
1.65428e-13
-4.06999e-12
-8.72947e-12
-1.38319e-11
-1.93986e-11
-2.54351e-11
-3.1812e-11
-3.83744e-11
-4.71238e-11
-6.32845e-11
-5.95148e-11
7.23073e-12
7.09211e-12
6.96304e-12
6.87493e-12
6.81358e-12
6.77461e-12
6.75729e-12
6.76056e-12
6.78311e-12
6.82377e-12
6.88143e-12
6.95513e-12
7.04402e-12
7.14734e-12
7.26446e-12
7.39483e-12
7.53801e-12
7.69362e-12
7.86138e-12
8.04104e-12
8.23242e-12
8.4354e-12
8.64988e-12
8.87578e-12
9.11308e-12
9.36176e-12
9.62181e-12
9.89324e-12
1.01761e-11
1.04703e-11
1.07759e-11
1.10929e-11
1.14214e-11
1.17612e-11
1.21123e-11
1.24746e-11
1.28481e-11
1.32326e-11
1.3628e-11
1.40339e-11
1.44503e-11
1.48766e-11
1.53126e-11
1.57577e-11
1.62116e-11
1.66735e-11
1.71428e-11
1.76188e-11
1.81004e-11
1.85867e-11
1.90766e-11
1.95687e-11
2.00618e-11
2.05541e-11
2.10439e-11
2.15293e-11
2.20081e-11
2.24779e-11
2.29362e-11
2.33799e-11
2.3806e-11
2.4211e-11
2.45911e-11
2.4942e-11
2.52594e-11
2.55381e-11
2.57729e-11
2.59579e-11
2.60867e-11
2.61523e-11
2.61473e-11
2.60636e-11
2.58924e-11
2.56242e-11
2.52488e-11
2.47552e-11
2.41317e-11
2.33655e-11
2.24432e-11
2.13503e-11
2.00714e-11
1.85903e-11
1.68897e-11
1.49517e-11
1.27573e-11
1.0287e-11
7.52059e-12
4.43772e-12
1.01784e-12
-2.75919e-12
-6.91252e-12
-1.14594e-11
-1.64155e-11
-2.17993e-11
-2.76138e-11
-3.3727e-11
-3.9982e-11
-4.8387e-11
-6.41834e-11
-5.99401e-11
7.4316e-12
7.30001e-12
7.17734e-12
7.09309e-12
7.03386e-12
6.99559e-12
6.97768e-12
6.97921e-12
6.99907e-12
7.03618e-12
7.08959e-12
7.15842e-12
7.24189e-12
7.33931e-12
7.45007e-12
7.57368e-12
7.70967e-12
7.8577e-12
8.01746e-12
8.1887e-12
8.37123e-12
8.56488e-12
8.76954e-12
8.9851e-12
9.21151e-12
9.4487e-12
9.69663e-12
9.95527e-12
1.02246e-11
1.05046e-11
1.07951e-11
1.10963e-11
1.14079e-11
1.17299e-11
1.20623e-11
1.24049e-11
1.27575e-11
1.31199e-11
1.3492e-11
1.38734e-11
1.42638e-11
1.46629e-11
1.50702e-11
1.54851e-11
1.59071e-11
1.63356e-11
1.67698e-11
1.72088e-11
1.76517e-11
1.80975e-11
1.85448e-11
1.89925e-11
1.9439e-11
1.98827e-11
2.03218e-11
2.07543e-11
2.1178e-11
2.15906e-11
2.19893e-11
2.23713e-11
2.27335e-11
2.30723e-11
2.33841e-11
2.36646e-11
2.39095e-11
2.41139e-11
2.42726e-11
2.43798e-11
2.44294e-11
2.44146e-11
2.43283e-11
2.41627e-11
2.39094e-11
2.35594e-11
2.31029e-11
2.25297e-11
2.18286e-11
2.09878e-11
1.99945e-11
1.88355e-11
1.74965e-11
1.59625e-11
1.42178e-11
1.2246e-11
1.00299e-11
7.55206e-12
4.79445e-12
1.73893e-12
-1.63252e-12
-5.33746e-12
-9.39237e-12
-1.38118e-11
-1.8609e-11
-2.37999e-11
-2.93857e-11
-3.5233e-11
-4.11843e-11
-4.92437e-11
-6.46406e-11
-6.00057e-11
7.61845e-12
7.49345e-12
7.37684e-12
7.29637e-12
7.23932e-12
7.20192e-12
7.18369e-12
7.18382e-12
7.20132e-12
7.23525e-12
7.28475e-12
7.34903e-12
7.42737e-12
7.51914e-12
7.62378e-12
7.74079e-12
7.86976e-12
8.01032e-12
8.16217e-12
8.32506e-12
8.49877e-12
8.68313e-12
8.87799e-12
9.08322e-12
9.29874e-12
9.52444e-12
9.76026e-12
1.00061e-11
1.0262e-11
1.05277e-11
1.08033e-11
1.10885e-11
1.13834e-11
1.16879e-11
1.20016e-11
1.23246e-11
1.26565e-11
1.29971e-11
1.33462e-11
1.37034e-11
1.40683e-11
1.44405e-11
1.48196e-11
1.52049e-11
1.55958e-11
1.59916e-11
1.63914e-11
1.67945e-11
1.71998e-11
1.76061e-11
1.80123e-11
1.8417e-11
1.88186e-11
1.92155e-11
1.96058e-11
1.99876e-11
2.03587e-11
2.07165e-11
2.10586e-11
2.1382e-11
2.16836e-11
2.196e-11
2.22075e-11
2.2422e-11
2.25992e-11
2.27344e-11
2.28224e-11
2.28578e-11
2.28346e-11
2.27464e-11
2.25862e-11
2.23467e-11
2.20198e-11
2.15971e-11
2.10694e-11
2.04269e-11
1.96592e-11
1.87554e-11
1.77035e-11
1.64914e-11
1.51059e-11
1.35332e-11
1.17591e-11
9.76875e-12
7.54667e-12
5.07714e-12
2.34418e-12
-6.6823e-13
-3.97592e-12
-7.59415e-12
-1.15371e-11
-1.58172e-11
-2.04453e-11
-2.54358e-11
-3.07879e-11
-3.63684e-11
-4.20201e-11
-4.97329e-11
-6.46981e-11
-5.97452e-11
7.79214e-12
7.67338e-12
7.56255e-12
7.48574e-12
7.43089e-12
7.39451e-12
7.37615e-12
7.37513e-12
7.39057e-12
7.42161e-12
7.46749e-12
7.52749e-12
7.60096e-12
7.68732e-12
7.78603e-12
7.89663e-12
8.01872e-12
8.15195e-12
8.29601e-12
8.45064e-12
8.61561e-12
8.79073e-12
8.97584e-12
9.17079e-12
9.37545e-12
9.58971e-12
9.81346e-12
1.00466e-11
1.0289e-11
1.05406e-11
1.08012e-11
1.10708e-11
1.13491e-11
1.1636e-11
1.19313e-11
1.22348e-11
1.25463e-11
1.28654e-11
1.31918e-11
1.35252e-11
1.38651e-11
1.4211e-11
1.45624e-11
1.49187e-11
1.52792e-11
1.56432e-11
1.60097e-11
1.63778e-11
1.67466e-11
1.71148e-11
1.74812e-11
1.78444e-11
1.82027e-11
1.85547e-11
1.88983e-11
1.92316e-11
1.95524e-11
1.98582e-11
2.01465e-11
2.04144e-11
2.06589e-11
2.08765e-11
2.10636e-11
2.12163e-11
2.13305e-11
2.14014e-11
2.14242e-11
2.13936e-11
2.13038e-11
2.11488e-11
2.09219e-11
2.0616e-11
2.02238e-11
1.9737e-11
1.91471e-11
1.84451e-11
1.76212e-11
1.66651e-11
1.55661e-11
1.43128e-11
1.28932e-11
1.12948e-11
9.50459e-12
7.50924e-12
5.29493e-12
2.84762e-12
1.53123e-13
-2.80266e-12
-6.03359e-12
-9.55292e-12
-1.33729e-11
-1.75038e-11
-2.19551e-11
-2.67393e-11
-3.18545e-11
-3.71683e-11
-4.25245e-11
-4.989e-11
-6.43942e-11
-5.91895e-11
7.95344e-12
7.84062e-12
7.73532e-12
7.66207e-12
7.60944e-12
7.57414e-12
7.55581e-12
7.55385e-12
7.56745e-12
7.59585e-12
7.63836e-12
7.69433e-12
7.76317e-12
7.84432e-12
7.93731e-12
8.04168e-12
8.15706e-12
8.28309e-12
8.41947e-12
8.56595e-12
8.72227e-12
8.88825e-12
9.06369e-12
9.24844e-12
9.44232e-12
9.64522e-12
9.85698e-12
1.00775e-11
1.03066e-11
1.05441e-11
1.07899e-11
1.10439e-11
1.13058e-11
1.15754e-11
1.18526e-11
1.21369e-11
1.24283e-11
1.27262e-11
1.30304e-11
1.33404e-11
1.36557e-11
1.39759e-11
1.43003e-11
1.46283e-11
1.49592e-11
1.52921e-11
1.56263e-11
1.59606e-11
1.6294e-11
1.66254e-11
1.69534e-11
1.72767e-11
1.75936e-11
1.79024e-11
1.82014e-11
1.84884e-11
1.87614e-11
1.90178e-11
1.92552e-11
1.94707e-11
1.96612e-11
1.98237e-11
1.99544e-11
2.00496e-11
2.01052e-11
2.01167e-11
2.00795e-11
1.99884e-11
1.98381e-11
1.96225e-11
1.93357e-11
1.89708e-11
1.85207e-11
1.7978e-11
1.73347e-11
1.65822e-11
1.57115e-11
1.47133e-11
1.35776e-11
1.2294e-11
1.08515e-11
9.23897e-12
7.44459e-12
5.45635e-12
3.26197e-12
8.48976e-13
-1.79514e-12
-4.68277e-12
-7.826e-12
-1.12363e-11
-1.49242e-11
-1.88984e-11
-2.31667e-11
-2.77404e-11
-3.26167e-11
-3.76644e-11
-4.27297e-11
-4.97477e-11
-6.37645e-11
-5.83674e-11
8.10307e-12
7.99592e-12
7.89593e-12
7.82614e-12
7.77571e-12
7.74156e-12
7.72338e-12
7.72063e-12
7.73258e-12
7.75855e-12
7.79791e-12
7.85007e-12
7.91448e-12
7.99064e-12
8.07809e-12
8.17641e-12
8.28523e-12
8.40421e-12
8.53306e-12
8.67151e-12
8.81931e-12
8.97626e-12
9.14214e-12
9.31678e-12
9.50001e-12
9.69165e-12
9.89154e-12
1.00995e-11
1.03154e-11
1.05391e-11
1.07703e-11
1.10089e-11
1.12546e-11
1.15072e-11
1.17664e-11
1.20319e-11
1.23035e-11
1.25806e-11
1.2863e-11
1.31501e-11
1.34415e-11
1.37365e-11
1.40347e-11
1.43351e-11
1.46372e-11
1.49401e-11
1.52429e-11
1.55445e-11
1.58438e-11
1.61397e-11
1.64309e-11
1.67158e-11
1.69929e-11
1.72606e-11
1.75169e-11
1.77599e-11
1.79875e-11
1.81971e-11
1.83864e-11
1.85525e-11
1.86926e-11
1.88034e-11
1.88814e-11
1.89232e-11
1.89246e-11
1.88814e-11
1.87892e-11
1.8643e-11
1.84378e-11
1.81679e-11
1.78275e-11
1.74103e-11
1.69098e-11
1.63188e-11
1.563e-11
1.48354e-11
1.39269e-11
1.28958e-11
1.17329e-11
1.04288e-11
8.97371e-12
7.35739e-12
5.56937e-12
3.5989e-12
1.43507e-12
-9.33117e-13
-3.51666e-12
-6.32638e-12
-9.37277e-12
-1.26658e-11
-1.62143e-11
-2.00258e-11
-2.41067e-11
-2.8467e-11
-3.31033e-11
-3.78864e-11
-4.26652e-11
-4.93358e-11
-6.28417e-11
-5.73058e-11
8.24167e-12
8.13996e-12
8.04508e-12
7.97866e-12
7.93041e-12
7.89745e-12
7.87951e-12
7.8761e-12
7.88656e-12
7.91027e-12
7.94668e-12
7.99522e-12
8.0554e-12
8.12675e-12
8.20885e-12
8.30129e-12
8.40372e-12
8.51581e-12
8.63728e-12
8.76784e-12
8.90726e-12
9.0553e-12
9.21176e-12
9.37644e-12
9.54914e-12
9.72967e-12
9.91785e-12
1.01135e-11
1.03164e-11
1.05264e-11
1.07432e-11
1.09666e-11
1.11964e-11
1.14322e-11
1.16738e-11
1.19209e-11
1.21731e-11
1.24299e-11
1.26909e-11
1.29557e-11
1.32237e-11
1.34943e-11
1.37669e-11
1.40406e-11
1.43148e-11
1.45886e-11
1.48611e-11
1.51311e-11
1.53976e-11
1.56594e-11
1.59151e-11
1.61634e-11
1.64025e-11
1.66309e-11
1.68467e-11
1.70479e-11
1.72324e-11
1.73978e-11
1.75418e-11
1.76616e-11
1.77543e-11
1.78169e-11
1.78461e-11
1.78383e-11
1.77898e-11
1.76964e-11
1.7554e-11
1.73579e-11
1.71031e-11
1.67846e-11
1.63968e-11
1.59338e-11
1.53895e-11
1.47574e-11
1.40305e-11
1.32017e-11
1.22634e-11
1.12077e-11
1.00264e-11
8.7108e-12
7.25218e-12
5.64138e-12
3.86905e-12
1.92568e-12
-1.98366e-13
-2.51274e-12
-5.02704e-12
-7.75068e-12
-1.06927e-11
-1.38617e-11
-1.72652e-11
-2.09093e-11
-2.47996e-11
-2.89447e-11
-3.33409e-11
-3.78615e-11
-4.23585e-11
-4.86826e-11
-6.16572e-11
-5.60306e-11
8.36985e-12
8.27338e-12
8.18344e-12
8.12029e-12
8.07419e-12
8.04245e-12
8.0248e-12
8.02083e-12
8.02994e-12
8.05156e-12
8.08517e-12
8.13028e-12
8.18641e-12
8.25314e-12
8.33006e-12
8.41679e-12
8.513e-12
8.61837e-12
8.73261e-12
8.85545e-12
8.98664e-12
9.12594e-12
9.27313e-12
9.428e-12
9.59034e-12
9.75994e-12
9.93659e-12
1.01201e-11
1.03102e-11
1.05067e-11
1.07094e-11
1.09179e-11
1.1132e-11
1.13515e-11
1.15759e-11
1.18049e-11
1.20381e-11
1.22751e-11
1.25153e-11
1.27584e-11
1.30036e-11
1.32505e-11
1.34982e-11
1.37461e-11
1.39933e-11
1.4239e-11
1.44822e-11
1.47219e-11
1.49569e-11
1.51859e-11
1.54078e-11
1.56209e-11
1.58238e-11
1.60148e-11
1.61921e-11
1.63537e-11
1.64976e-11
1.66214e-11
1.67228e-11
1.67992e-11
1.68477e-11
1.68655e-11
1.68494e-11
1.67959e-11
1.67015e-11
1.65623e-11
1.63742e-11
1.6133e-11
1.58339e-11
1.54722e-11
1.50427e-11
1.45399e-11
1.39582e-11
1.32914e-11
1.25334e-11
1.16775e-11
1.07169e-11
9.64427e-12
8.45229e-12
7.13325e-12
5.67924e-12
4.08214e-12
2.33371e-12
4.25551e-13
-1.65076e-12
-3.90365e-12
-6.34144e-12
-8.97223e-12
-1.18038e-11
-1.48434e-11
-1.80975e-11
-2.15711e-11
-2.52686e-11
-2.91979e-11
-3.33547e-11
-3.76153e-11
-4.18354e-11
-4.78142e-11
-6.024e-11
-5.45661e-11
8.48818e-12
8.39676e-12
8.3116e-12
8.25163e-12
8.20765e-12
8.17713e-12
8.15984e-12
8.1554e-12
8.16327e-12
8.18293e-12
8.2139e-12
8.25573e-12
8.30799e-12
8.37026e-12
8.44218e-12
8.52339e-12
8.61355e-12
8.71237e-12
8.81956e-12
8.93484e-12
9.05797e-12
9.18871e-12
9.32681e-12
9.47206e-12
9.62423e-12
9.78309e-12
9.94843e-12
1.012e-11
1.02976e-11
1.04809e-11
1.06697e-11
1.08636e-11
1.10625e-11
1.12659e-11
1.14734e-11
1.16848e-11
1.18995e-11
1.21172e-11
1.23373e-11
1.25592e-11
1.27824e-11
1.30062e-11
1.32299e-11
1.34528e-11
1.3674e-11
1.38926e-11
1.41077e-11
1.43182e-11
1.45229e-11
1.47207e-11
1.49101e-11
1.50899e-11
1.52583e-11
1.54138e-11
1.55546e-11
1.56788e-11
1.57844e-11
1.58691e-11
1.59306e-11
1.59664e-11
1.59738e-11
1.595e-11
1.5892e-11
1.57965e-11
1.56601e-11
1.54792e-11
1.52499e-11
1.49681e-11
1.46296e-11
1.42298e-11
1.37639e-11
1.32269e-11
1.26136e-11
1.19184e-11
1.11356e-11
1.02591e-11
9.28282e-12
8.20021e-12
7.00465e-12
5.68927e-12
4.24707e-12
2.67089e-12
9.53484e-13
-9.12468e-13
-2.93429e-12
-5.11924e-12
-7.47449e-12
-1.00069e-11
-1.27232e-11
-1.56294e-11
-1.87309e-11
-2.20318e-11
-2.55355e-11
-2.92492e-11
-3.31679e-11
-3.71716e-11
-4.112e-11
-4.67556e-11
-5.86182e-11
-5.29355e-11
8.59721e-12
8.51067e-12
8.43013e-12
8.37326e-12
8.33136e-12
8.30206e-12
8.28517e-12
8.28034e-12
8.28706e-12
8.30488e-12
8.33335e-12
8.37206e-12
8.4206e-12
8.47859e-12
8.54568e-12
8.62153e-12
8.70583e-12
8.79828e-12
8.89859e-12
9.00651e-12
9.12177e-12
9.24413e-12
9.37334e-12
9.50917e-12
9.65139e-12
9.79974e-12
9.954e-12
1.01139e-11
1.02792e-11
1.04496e-11
1.06248e-11
1.08046e-11
1.09885e-11
1.11762e-11
1.13674e-11
1.15616e-11
1.17584e-11
1.19573e-11
1.21577e-11
1.23592e-11
1.2561e-11
1.27626e-11
1.29631e-11
1.31619e-11
1.33581e-11
1.35507e-11
1.37387e-11
1.39213e-11
1.40971e-11
1.42649e-11
1.44235e-11
1.45714e-11
1.47072e-11
1.48291e-11
1.49354e-11
1.50243e-11
1.50939e-11
1.51419e-11
1.51661e-11
1.51641e-11
1.51333e-11
1.50711e-11
1.49745e-11
1.48405e-11
1.46658e-11
1.44471e-11
1.41806e-11
1.38627e-11
1.34893e-11
1.30561e-11
1.25589e-11
1.19929e-11
1.13534e-11
1.06353e-11
9.83347e-12
8.94241e-12
7.95656e-12
6.87016e-12
5.67729e-12
4.37191e-12
2.94784e-12
1.39884e-12
-2.81398e-13
-2.09919e-12
-4.06082e-12
-6.17251e-12
-8.44033e-12
-1.08701e-11
-1.34674e-11
-1.62373e-11
-1.91841e-11
-2.23111e-11
-2.56209e-11
-2.91198e-11
-3.28027e-11
-3.65531e-11
-4.02351e-11
-4.55302e-11
-5.68182e-11
-5.11612e-11
8.69745e-12
8.61563e-12
8.53956e-12
8.48571e-12
8.44585e-12
8.41777e-12
8.40131e-12
8.39614e-12
8.40181e-12
8.4179e-12
8.444e-12
8.47973e-12
8.5247e-12
8.57858e-12
8.64101e-12
8.71168e-12
8.7903e-12
8.87656e-12
8.97019e-12
9.07093e-12
9.17853e-12
9.29271e-12
9.41325e-12
9.5399e-12
9.67239e-12
9.81049e-12
9.95394e-12
1.01025e-11
1.02558e-11
1.04136e-11
1.05756e-11
1.07415e-11
1.09109e-11
1.10834e-11
1.12586e-11
1.14362e-11
1.16156e-11
1.17962e-11
1.19777e-11
1.21594e-11
1.23406e-11
1.25207e-11
1.26989e-11
1.28745e-11
1.30465e-11
1.32142e-11
1.33764e-11
1.35322e-11
1.36804e-11
1.38198e-11
1.3949e-11
1.40667e-11
1.41715e-11
1.42616e-11
1.43355e-11
1.43912e-11
1.4427e-11
1.44406e-11
1.44301e-11
1.4393e-11
1.43269e-11
1.42292e-11
1.40972e-11
1.3928e-11
1.37186e-11
1.34658e-11
1.31661e-11
1.2816e-11
1.2412e-11
1.195e-11
1.1426e-11
1.08358e-11
1.01751e-11
9.4392e-12
8.62353e-12
7.72321e-12
6.73327e-12
5.64859e-12
4.46398e-12
3.17414e-12
1.77371e-12
2.57276e-13
-1.38056e-12
-3.14519e-12
-5.04194e-12
-7.07605e-12
-9.25257e-12
-1.15764e-11
-1.4052e-11
-1.66836e-11
-1.94746e-11
-2.24274e-11
-2.55441e-11
-2.883e-11
-3.22797e-11
-3.57808e-11
-3.92022e-11
-4.41604e-11
-5.48653e-11
-4.92645e-11
8.78939e-12
8.71214e-12
8.64041e-12
8.58948e-12
8.55162e-12
8.52475e-12
8.50874e-12
8.50329e-12
8.50799e-12
8.52245e-12
8.5463e-12
8.57918e-12
8.62074e-12
8.67066e-12
8.72861e-12
8.79428e-12
8.86739e-12
8.94766e-12
9.03482e-12
9.12859e-12
9.22873e-12
9.33497e-12
9.44707e-12
9.56476e-12
9.6878e-12
9.81591e-12
9.94883e-12
1.00863e-11
1.02279e-11
1.03735e-11
1.05227e-11
1.06751e-11
1.08304e-11
1.09881e-11
1.11479e-11
1.13093e-11
1.14718e-11
1.16349e-11
1.17981e-11
1.19606e-11
1.2122e-11
1.22814e-11
1.24382e-11
1.25915e-11
1.27405e-11