/*--------------------------------*- C++ -*----------------------------------*\
  =========                 |
  \\      /  F ield         | OpenFOAM: The Open Source CFD Toolbox
   \\    /   O peration     | Website:  https://openfoam.org
    \\  /    A nd           | Version:  11
     \\/     M anipulation  |
\*---------------------------------------------------------------------------*/
FoamFile
{
    format      ascii;
    class       surfaceScalarField;
    location    "700";
    object      phi;
}
// * * * * * * * * * * * * * * * * * * * * * * * * * * * * * * * * * * * * * //

dimensions      [0 3 -1 0 0 0 0];

internalField   nonuniform List<scalar> 
19800
(
2e-05
-1.16748e-10
1.99999e-05
-3.29349e-10
1.99999e-05
-5.332e-10
1.99998e-05
-7.39233e-10
1.99998e-05
-9.53171e-10
1.99997e-05
-1.17854e-09
1.99996e-05
-1.41828e-09
1.99995e-05
-1.67499e-09
1.99993e-05
-1.95112e-09
1.99992e-05
-2.24899e-09
1.99991e-05
-2.57092e-09
1.99989e-05
-2.91922e-09
1.99987e-05
-3.29624e-09
1.99985e-05
-3.70439e-09
1.99983e-05
-4.14615e-09
1.99981e-05
-4.62408e-09
1.99978e-05
-5.14084e-09
1.99975e-05
-5.69919e-09
1.99972e-05
-6.30202e-09
1.99969e-05
-6.95232e-09
1.99965e-05
-7.65321e-09
1.99962e-05
-8.40796e-09
1.99957e-05
-9.21996e-09
1.99953e-05
-1.00928e-08
1.99948e-05
-1.103e-08
1.99943e-05
-1.20356e-08
1.99937e-05
-1.31136e-08
1.99931e-05
-1.42681e-08
1.99924e-05
-1.55034e-08
1.99917e-05
-1.6824e-08
1.9991e-05
-1.82346e-08
1.99902e-05
-1.97401e-08
1.99893e-05
-2.13455e-08
1.99884e-05
-2.3056e-08
1.99874e-05
-2.4877e-08
1.99864e-05
-2.6814e-08
1.99852e-05
-2.88728e-08
1.99841e-05
-3.10593e-08
1.99828e-05
-3.33796e-08
1.99814e-05
-3.584e-08
1.998e-05
-3.84469e-08
1.99785e-05
-4.1207e-08
1.99769e-05
-4.41272e-08
1.99752e-05
-4.72142e-08
1.99734e-05
-5.04753e-08
1.99714e-05
-5.39177e-08
1.99694e-05
-5.75489e-08
1.99672e-05
-6.13763e-08
1.9965e-05
-6.54077e-08
1.99626e-05
-6.96507e-08
1.996e-05
-7.41133e-08
1.99574e-05
-7.88034e-08
1.99546e-05
-8.37289e-08
1.99516e-05
-8.88978e-08
1.99485e-05
-9.43183e-08
1.99452e-05
-9.99984e-08
1.99418e-05
-1.05946e-07
1.99381e-05
-1.12169e-07
1.99344e-05
-1.18675e-07
1.99304e-05
-1.25472e-07
1.99262e-05
-1.32567e-07
1.99218e-05
-1.39968e-07
1.99173e-05
-1.47681e-07
1.99125e-05
-1.55712e-07
1.99075e-05
-1.64069e-07
1.99023e-05
-1.72757e-07
1.98969e-05
-1.8178e-07
1.98913e-05
-1.91143e-07
1.98854e-05
-2.00849e-07
1.98793e-05
-2.10902e-07
1.98729e-05
-2.21303e-07
1.98664e-05
-2.32052e-07
1.98595e-05
-2.43149e-07
1.98525e-05
-2.54592e-07
1.98452e-05
-2.66376e-07
1.98377e-05
-2.78497e-07
1.983e-05
-2.90945e-07
1.9822e-05
-3.0371e-07
1.98138e-05
-3.1678e-07
1.98054e-05
-3.30138e-07
1.97969e-05
-3.43763e-07
1.97881e-05
-3.57632e-07
1.97792e-05
-3.71714e-07
1.97702e-05
-3.85977e-07
1.97611e-05
-4.00377e-07
1.97519e-05
-4.14867e-07
1.97426e-05
-4.29388e-07
1.97334e-05
-4.43873e-07
1.97242e-05
-4.58241e-07
1.97152e-05
-4.72397e-07
1.97063e-05
-4.86232e-07
1.96977e-05
-4.99613e-07
1.96894e-05
-5.12387e-07
1.96815e-05
-5.24376e-07
1.96742e-05
-5.35371e-07
1.96676e-05
-5.45137e-07
1.96618e-05
-5.53406e-07
1.9657e-05
-5.59882e-07
1.96535e-05
-5.643e-07
-5.66711e-07
2e-05
-9.89008e-11
1.99999e-05
-2.91571e-10
1.99999e-05
-4.8268e-10
1.99998e-05
-6.77898e-10
1.99998e-05
-8.81258e-10
1.99997e-05
-1.0958e-09
1.99996e-05
-1.32421e-09
1.99995e-05
-1.56896e-09
1.99994e-05
-1.83236e-09
1.99992e-05
-2.11667e-09
1.99991e-05
-2.42413e-09
1.99989e-05
-2.75698e-09
1.99987e-05
-3.11749e-09
1.99985e-05
-3.508e-09
1.99983e-05
-3.93092e-09
1.99981e-05
-4.38873e-09
1.99978e-05
-4.88402e-09
1.99976e-05
-5.41947e-09
1.99973e-05
-5.99788e-09
1.99969e-05
-6.62215e-09
1.99966e-05
-7.29534e-09
1.99962e-05
-8.0206e-09
1.99958e-05
-8.80124e-09
1.99953e-05
-9.64071e-09
1.99948e-05
-1.05426e-08
1.99943e-05
-1.15106e-08
1.99937e-05
-1.25488e-08
1.99931e-05
-1.3661e-08
1.99925e-05
-1.48516e-08
1.99918e-05
-1.61249e-08
1.9991e-05
-1.74855e-08
1.99902e-05
-1.89381e-08
1.99894e-05
-2.04876e-08
1.99884e-05
-2.21391e-08
1.99875e-05
-2.38979e-08
1.99864e-05
-2.57693e-08
1.99853e-05
-2.77591e-08
1.99841e-05
-2.98729e-08
1.99829e-05
-3.21168e-08
1.99815e-05
-3.44968e-08
1.99801e-05
-3.70194e-08
1.99786e-05
-3.9691e-08
1.9977e-05
-4.25182e-08
1.99753e-05
-4.5508e-08
1.99734e-05
-4.86672e-08
1.99715e-05
-5.20029e-08
1.99695e-05
-5.55226e-08
1.99674e-05
-5.92335e-08
1.99651e-05
-6.31432e-08
1.99627e-05
-6.72594e-08
1.99602e-05
-7.15898e-08
1.99575e-05
-7.61422e-08
1.99547e-05
-8.09245e-08
1.99518e-05
-8.59446e-08
1.99487e-05
-9.12105e-08
1.99454e-05
-9.67302e-08
1.9942e-05
-1.02512e-07
1.99383e-05
-1.08563e-07
1.99346e-05
-1.14891e-07
1.99306e-05
-1.21504e-07
1.99264e-05
-1.2841e-07
1.99221e-05
-1.35616e-07
1.99175e-05
-1.43128e-07
1.99128e-05
-1.50954e-07
1.99078e-05
-1.591e-07
1.99026e-05
-1.67572e-07
1.98972e-05
-1.76375e-07
1.98916e-05
-1.85513e-07
1.98857e-05
-1.94992e-07
1.98796e-05
-2.04813e-07
1.98733e-05
-2.1498e-07
1.98668e-05
-2.25495e-07
1.986e-05
-2.36356e-07
1.98529e-05
-2.47563e-07
1.98457e-05
-2.59113e-07
1.98382e-05
-2.71001e-07
1.98305e-05
-2.83222e-07
1.98225e-05
-2.95767e-07
1.98144e-05
-3.08623e-07
1.9806e-05
-3.21778e-07
1.97974e-05
-3.35213e-07
1.97887e-05
-3.48907e-07
1.97798e-05
-3.62835e-07
1.97708e-05
-3.76964e-07
1.97617e-05
-3.91258e-07
1.97525e-05
-4.05673e-07
1.97433e-05
-4.20155e-07
1.97341e-05
-4.34643e-07
1.97249e-05
-4.49063e-07
1.97158e-05
-4.63326e-07
1.97069e-05
-4.77331e-07
1.96982e-05
-4.90954e-07
1.96899e-05
-5.04052e-07
1.9682e-05
-5.16456e-07
1.96746e-05
-5.27971e-07
1.96678e-05
-5.38369e-07
1.96618e-05
-5.47391e-07
1.96567e-05
-5.54735e-07
1.96525e-05
-5.60092e-07
-5.63275e-07
2e-05
-8.5453e-11
2e-05
-2.58144e-10
1.99999e-05
-4.34714e-10
1.99998e-05
-6.1795e-10
1.99998e-05
-8.10167e-10
1.99997e-05
-1.01364e-09
1.99996e-05
-1.23066e-09
1.99995e-05
-1.46347e-09
1.99994e-05
-1.71422e-09
1.99992e-05
-1.98509e-09
1.99991e-05
-2.2782e-09
1.99989e-05
-2.59573e-09
1.99988e-05
-2.93987e-09
1.99986e-05
-3.3129e-09
1.99983e-05
-3.71713e-09
1.99981e-05
-4.15499e-09
1.99979e-05
-4.62898e-09
1.99976e-05
-5.1417e-09
1.99973e-05
-5.69587e-09
1.9997e-05
-6.29432e-09
1.99966e-05
-6.94e-09
1.99962e-05
-7.63598e-09
1.99958e-05
-8.38548e-09
1.99953e-05
-9.19186e-09
1.99949e-05
-1.00586e-08
1.99943e-05
-1.09893e-08
1.99938e-05
-1.19879e-08
1.99932e-05
-1.30582e-08
1.99925e-05
-1.42043e-08
1.99918e-05
-1.54306e-08
1.99911e-05
-1.67415e-08
1.99903e-05
-1.81415e-08
1.99894e-05
-1.96355e-08
1.99885e-05
-2.12284e-08
1.99876e-05
-2.29254e-08
1.99865e-05
-2.47317e-08
1.99854e-05
-2.66528e-08
1.99842e-05
-2.86944e-08
1.9983e-05
-3.08622e-08
1.99817e-05
-3.31624e-08
1.99802e-05
-3.56011e-08
1.99787e-05
-3.81847e-08
1.99771e-05
-4.09196e-08
1.99754e-05
-4.38125e-08
1.99736e-05
-4.68704e-08
1.99717e-05
-5.01001e-08
1.99697e-05
-5.35088e-08
1.99676e-05
-5.71039e-08
1.99653e-05
-6.08926e-08
1.9963e-05
-6.48826e-08
1.99605e-05
-6.90815e-08
1.99578e-05
-7.34969e-08
1.9955e-05
-7.81368e-08
1.99521e-05
-8.30088e-08
1.9949e-05
-8.8121e-08
1.99457e-05
-9.34811e-08
1.99423e-05
-9.90972e-08
1.99387e-05
-1.04977e-07
1.9935e-05
-1.11128e-07
1.9931e-05
-1.17559e-07
1.99269e-05
-1.24277e-07
1.99226e-05
-1.31288e-07
1.9918e-05
-1.38601e-07
1.99133e-05
-1.46222e-07
1.99084e-05
-1.54158e-07
1.99032e-05
-1.62415e-07
1.98978e-05
-1.70998e-07
1.98922e-05
-1.79913e-07
1.98864e-05
-1.89164e-07
1.98804e-05
-1.98755e-07
1.98741e-05
-2.0869e-07
1.98675e-05
-2.18969e-07
1.98608e-05
-2.29595e-07
1.98538e-05
-2.40566e-07
1.98466e-05
-2.51882e-07
1.98391e-05
-2.6354e-07
1.98314e-05
-2.75533e-07
1.98235e-05
-2.87856e-07
1.98154e-05
-3.00499e-07
1.9807e-05
-3.1345e-07
1.97985e-05
-3.26693e-07
1.97898e-05
-3.40211e-07
1.9781e-05
-3.53981e-07
1.9772e-05
-3.67974e-07
1.97629e-05
-3.82158e-07
1.97537e-05
-3.96492e-07
1.97445e-05
-4.10929e-07
1.97352e-05
-4.25412e-07
1.97261e-05
-4.39872e-07
1.9717e-05
-4.54229e-07
1.9708e-05
-4.68387e-07
1.96993e-05
-4.8223e-07
1.96909e-05
-4.95622e-07
1.96828e-05
-5.08402e-07
1.96752e-05
-5.20379e-07
1.96682e-05
-5.31327e-07
1.96618e-05
-5.40981e-07
1.9656e-05
-5.49017e-07
1.9651e-05
-5.55071e-07
-5.58795e-07
2e-05
-7.4511e-11
2e-05
-2.28811e-10
1.99999e-05
-3.90233e-10
1.99999e-05
-5.60549e-10
1.99998e-05
-7.4094e-10
1.99997e-05
-9.32929e-10
1.99996e-05
-1.13834e-09
1.99995e-05
-1.35912e-09
1.99994e-05
-1.59725e-09
1.99993e-05
-1.85473e-09
1.99991e-05
-2.13361e-09
1.9999e-05
-2.43596e-09
1.99988e-05
-2.76391e-09
1.99986e-05
-3.11963e-09
1.99984e-05
-3.50538e-09
1.99981e-05
-3.92349e-09
1.99979e-05
-4.3764e-09
1.99976e-05
-4.86664e-09
1.99973e-05
-5.39682e-09
1.9997e-05
-5.9697e-09
1.99966e-05
-6.58815e-09
1.99963e-05
-7.25515e-09
1.99959e-05
-7.97382e-09
1.99954e-05
-8.74742e-09
1.99949e-05
-9.57934e-09
1.99944e-05
-1.04731e-08
1.99939e-05
-1.14325e-08
1.99933e-05
-1.24612e-08
1.99926e-05
-1.35633e-08
1.99919e-05
-1.4743e-08
1.99912e-05
-1.60046e-08
1.99904e-05
-1.73525e-08
1.99896e-05
-1.87915e-08
1.99887e-05
-2.03263e-08
1.99877e-05
-2.1962e-08
1.99867e-05
-2.37036e-08
1.99856e-05
-2.55567e-08
1.99844e-05
-2.75266e-08
1.99832e-05
-2.96192e-08
1.99818e-05
-3.18402e-08
1.99804e-05
-3.41956e-08
1.99789e-05
-3.66918e-08
1.99774e-05
-3.93351e-08
1.99757e-05
-4.21321e-08
1.99739e-05
-4.50893e-08
1.9972e-05
-4.82138e-08
1.997e-05
-5.15125e-08
1.99679e-05
-5.49926e-08
1.99657e-05
-5.86613e-08
1.99633e-05
-6.2526e-08
1.99608e-05
-6.65944e-08
1.99582e-05
-7.08739e-08
1.99554e-05
-7.53722e-08
1.99525e-05
-8.00972e-08
1.99495e-05
-8.50567e-08
1.99462e-05
-9.02585e-08
1.99429e-05
-9.57104e-08
1.99393e-05
-1.0142e-07
1.99356e-05
-1.07396e-07
1.99316e-05
-1.13645e-07
1.99275e-05
-1.20175e-07
1.99233e-05
-1.26994e-07
1.99188e-05
-1.34109e-07
1.99141e-05
-1.41526e-07
1.99092e-05
-1.49253e-07
1.9904e-05
-1.57296e-07
1.98987e-05
-1.65661e-07
1.98931e-05
-1.74354e-07
1.98874e-05
-1.83379e-07
1.98813e-05
-1.92741e-07
1.98751e-05
-2.02443e-07
1.98686e-05
-2.12489e-07
1.98619e-05
-2.2288e-07
1.9855e-05
-2.33617e-07
1.98478e-05
-2.44699e-07
1.98404e-05
-2.56125e-07
1.98327e-05
-2.67891e-07
1.98249e-05
-2.79992e-07
1.98168e-05
-2.92421e-07
1.98085e-05
-3.05166e-07
1.98e-05
-3.18217e-07
1.97914e-05
-3.31556e-07
1.97825e-05
-3.45164e-07
1.97736e-05
-3.59017e-07
1.97645e-05
-3.73084e-07
1.97553e-05
-3.87331e-07
1.97461e-05
-4.01713e-07
1.97369e-05
-4.16179e-07
1.97277e-05
-4.30666e-07
1.97186e-05
-4.45098e-07
1.97096e-05
-4.59385e-07
1.97007e-05
-4.73417e-07
1.96922e-05
-4.87065e-07
1.9684e-05
-5.00169e-07
1.96761e-05
-5.1254e-07
1.96687e-05
-5.23948e-07
1.96619e-05
-5.3411e-07
1.96555e-05
-5.42674e-07
1.96497e-05
-5.49223e-07
-5.5337e-07
2e-05
-6.52646e-11
2e-05
-2.02764e-10
1.99999e-05
-3.49247e-10
1.99999e-05
-5.06245e-10
1.99998e-05
-6.74319e-10
1.99997e-05
-8.54426e-10
1.99996e-05
-1.04797e-09
1.99995e-05
-1.25658e-09
1.99994e-05
-1.48204e-09
1.99993e-05
-1.72618e-09
1.99991e-05
-1.99092e-09
1.9999e-05
-2.27824e-09
1.99988e-05
-2.59015e-09
1.99986e-05
-2.92877e-09
1.99984e-05
-3.29626e-09
1.99982e-05
-3.69488e-09
1.99979e-05
-4.12698e-09
1.99977e-05
-4.595e-09
1.99974e-05
-5.1015e-09
1.9997e-05
-5.64914e-09
1.99967e-05
-6.24069e-09
1.99963e-05
-6.87906e-09
1.99959e-05
-7.56727e-09
1.99955e-05
-8.30849e-09
1.9995e-05
-9.10601e-09
1.99945e-05
-9.96327e-09
1.99939e-05
-1.08839e-08
1.99934e-05
-1.18715e-08
1.99927e-05
-1.29301e-08
1.9992e-05
-1.40638e-08
1.99913e-05
-1.52766e-08
1.99905e-05
-1.6573e-08
1.99897e-05
-1.79575e-08
1.99888e-05
-1.94349e-08
1.99879e-05
-2.10099e-08
1.99868e-05
-2.26877e-08
1.99858e-05
-2.44734e-08
1.99846e-05
-2.63724e-08
1.99834e-05
-2.83904e-08
1.99821e-05
-3.0533e-08
1.99807e-05
-3.28061e-08
1.99792e-05
-3.52158e-08
1.99776e-05
-3.77685e-08
1.9976e-05
-4.04703e-08
1.99742e-05
-4.3328e-08
1.99723e-05
-4.63483e-08
1.99704e-05
-4.9538e-08
1.99683e-05
-5.29042e-08
1.99661e-05
-5.6454e-08
1.99637e-05
-6.01947e-08
1.99613e-05
-6.41337e-08
1.99587e-05
-6.82785e-08
1.9956e-05
-7.26367e-08
1.99531e-05
-7.7216e-08
1.995e-05
-8.20242e-08
1.99469e-05
-8.7069e-08
1.99435e-05
-9.23582e-08
1.994e-05
-9.78996e-08
1.99363e-05
-1.03701e-07
1.99324e-05
-1.0977e-07
1.99283e-05
-1.16115e-07
1.99241e-05
-1.22742e-07
1.99196e-05
-1.2966e-07
1.9915e-05
-1.36876e-07
1.99101e-05
-1.44395e-07
1.99051e-05
-1.52226e-07
1.98998e-05
-1.60375e-07
1.98943e-05
-1.68846e-07
1.98885e-05
-1.77647e-07
1.98826e-05
-1.8678e-07
1.98764e-05
-1.96252e-07
1.987e-05
-2.06065e-07
1.98633e-05
-2.16223e-07
1.98564e-05
-2.26726e-07
1.98493e-05
-2.37575e-07
1.98419e-05
-2.4877e-07
1.98344e-05
-2.60308e-07
1.98266e-05
-2.72187e-07
1.98185e-05
-2.844e-07
1.98103e-05
-2.96939e-07
1.98019e-05
-3.09793e-07
1.97933e-05
-3.2295e-07
1.97845e-05
-3.36393e-07
1.97756e-05
-3.50099e-07
1.97665e-05
-3.64043e-07
1.97574e-05
-3.78193e-07
1.97482e-05
-3.92509e-07
1.9739e-05
-4.06943e-07
1.97297e-05
-4.21438e-07
1.97206e-05
-4.35923e-07
1.97115e-05
-4.50311e-07
1.97026e-05
-4.64498e-07
1.96939e-05
-4.78356e-07
1.96854e-05
-4.91729e-07
1.96773e-05
-5.04423e-07
1.96696e-05
-5.162e-07
1.96622e-05
-5.26762e-07
1.96553e-05
-5.35724e-07
1.96487e-05
-5.42612e-07
-5.47036e-07
2e-05
-5.72498e-11
2e-05
-1.79369e-10
1.99999e-05
-3.11488e-10
1.99999e-05
-4.55183e-10
1.99998e-05
-6.10721e-10
1.99997e-05
-7.78689e-10
1.99997e-05
-9.60152e-10
1.99996e-05
-1.15647e-09
1.99994e-05
-1.36921e-09
1.99993e-05
-1.60003e-09
1.99992e-05
-1.85072e-09
1.9999e-05
-2.12313e-09
1.99988e-05
-2.4192e-09
1.99987e-05
-2.74092e-09
1.99985e-05
-3.09039e-09
1.99982e-05
-3.46979e-09
1.9998e-05
-3.88137e-09
1.99977e-05
-4.32751e-09
1.99974e-05
-4.81067e-09
1.99971e-05
-5.33343e-09
1.99968e-05
-5.89848e-09
1.99964e-05
-6.50864e-09
1.9996e-05
-7.16683e-09
1.99956e-05
-7.87613e-09
1.99951e-05
-8.63973e-09
1.99946e-05
-9.46099e-09
1.99941e-05
-1.03434e-08
1.99935e-05
-1.12905e-08
1.99928e-05
-1.23062e-08
1.99922e-05
-1.33944e-08
1.99915e-05
-1.45591e-08
1.99907e-05
-1.58047e-08
1.99899e-05
-1.71355e-08
1.9989e-05
-1.85561e-08
1.99881e-05
-2.00713e-08
1.99871e-05
-2.1686e-08
1.9986e-05
-2.34052e-08
1.99848e-05
-2.52342e-08
1.99836e-05
-2.71785e-08
1.99823e-05
-2.92437e-08
1.9981e-05
-3.14355e-08
1.99795e-05
-3.37598e-08
1.9978e-05
-3.62228e-08
1.99763e-05
-3.88307e-08
1.99746e-05
-4.15901e-08
1.99728e-05
-4.45073e-08
1.99708e-05
-4.75893e-08
1.99687e-05
-5.08429e-08
1.99666e-05
-5.42751e-08
1.99643e-05
-5.78932e-08
1.99618e-05
-6.17043e-08
1.99593e-05
-6.57159e-08
1.99566e-05
-6.99355e-08
1.99537e-05
-7.43707e-08
1.99507e-05
-7.90291e-08
1.99476e-05
-8.39185e-08
1.99443e-05
-8.90467e-08
1.99408e-05
-9.44214e-08
1.99371e-05
-1.0005e-07
1.99333e-05
-1.05941e-07
1.99293e-05
-1.12102e-07
1.99251e-05
-1.1854e-07
1.99207e-05
-1.25263e-07
1.99161e-05
-1.32278e-07
1.99113e-05
-1.39593e-07
1.99063e-05
-1.47213e-07
1.99011e-05
-1.55146e-07
1.98956e-05
-1.63399e-07
1.98899e-05
-1.71976e-07
1.9884e-05
-1.80884e-07
1.98779e-05
-1.90126e-07
1.98716e-05
-1.99708e-07
1.9865e-05
-2.09632e-07
1.98581e-05
-2.19902e-07
1.98511e-05
-2.30519e-07
1.98438e-05
-2.41483e-07
1.98363e-05
-2.52794e-07
1.98286e-05
-2.64449e-07
1.98206e-05
-2.76445e-07
1.98124e-05
-2.88775e-07
1.98041e-05
-3.01431e-07
1.97955e-05
-3.14402e-07
1.97868e-05
-3.27673e-07
1.97779e-05
-3.41226e-07
1.97689e-05
-3.55038e-07
1.97598e-05
-3.6908e-07
1.97506e-05
-3.83316e-07
1.97414e-05
-3.97703e-07
1.97321e-05
-4.12186e-07
1.97229e-05
-4.26697e-07
1.97137e-05
-4.41156e-07
1.97047e-05
-4.55459e-07
1.96958e-05
-4.6948e-07
1.96872e-05
-4.83063e-07
1.96788e-05
-4.9601e-07
1.96706e-05
-5.08075e-07
1.96628e-05
-5.1894e-07
1.96553e-05
-5.28196e-07
1.9648e-05
-5.35325e-07
-5.39883e-07
2e-05
-5.01452e-11
2e-05
-1.58155e-10
1.99999e-05
-2.76635e-10
1.99999e-05
-4.07307e-10
1.99998e-05
-5.50331e-10
1.99998e-05
-7.0607e-10
1.99997e-05
-8.75349e-10
1.99996e-05
-1.0593e-09
1.99995e-05
-1.2593e-09
1.99993e-05
-1.47684e-09
1.99992e-05
-1.71357e-09
1.99991e-05
-1.97122e-09
1.99989e-05
-2.25162e-09
1.99987e-05
-2.55668e-09
1.99985e-05
-2.8884e-09
1.99983e-05
-3.24887e-09
1.9998e-05
-3.64027e-09
1.99978e-05
-4.06488e-09
1.99975e-05
-4.52508e-09
1.99972e-05
-5.02338e-09
1.99968e-05
-5.56236e-09
1.99965e-05
-6.14477e-09
1.99961e-05
-6.77343e-09
1.99957e-05
-7.45133e-09
1.99952e-05
-8.18157e-09
1.99947e-05
-8.9674e-09
1.99942e-05
-9.81219e-09
1.99936e-05
-1.07195e-08
1.9993e-05
-1.16929e-08
1.99923e-05
-1.27363e-08
1.99916e-05
-1.38537e-08
1.99909e-05
-1.50492e-08
1.99901e-05
-1.63271e-08
1.99892e-05
-1.76919e-08
1.99883e-05
-1.91481e-08
1.99873e-05
-2.07006e-08
1.99862e-05
-2.23543e-08
1.99851e-05
-2.41143e-08
1.99839e-05
-2.5986e-08
1.99827e-05
-2.79748e-08
1.99813e-05
-3.00864e-08
1.99799e-05
-3.23265e-08
1.99784e-05
-3.47011e-08
1.99767e-05
-3.72164e-08
1.9975e-05
-3.98787e-08
1.99732e-05
-4.26943e-08
1.99713e-05
-4.567e-08
1.99693e-05
-4.88125e-08
1.99671e-05
-5.21287e-08
1.99649e-05
-5.56256e-08
1.99625e-05
-5.93105e-08
1.99599e-05
-6.31905e-08
1.99573e-05
-6.72732e-08
1.99545e-05
-7.1566e-08
1.99515e-05
-7.60766e-08
1.99484e-05
-8.08125e-08
1.99451e-05
-8.57815e-08
1.99417e-05
-9.09913e-08
1.99381e-05
-9.64498e-08
1.99343e-05
-1.02165e-07
1.99304e-05
-1.08143e-07
1.99262e-05
-1.14394e-07
1.99219e-05
-1.20924e-07
1.99174e-05
-1.27741e-07
1.99126e-05
-1.34852e-07
1.99077e-05
-1.42264e-07
1.99025e-05
-1.49984e-07
1.98971e-05
-1.58019e-07
1.98915e-05
-1.66375e-07
1.98857e-05
-1.75058e-07
1.98796e-05
-1.84073e-07
1.98734e-05
-1.93425e-07
1.98668e-05
-2.03118e-07
1.98601e-05
-2.13155e-07
1.98531e-05
-2.2354e-07
1.98459e-05
-2.34273e-07
1.98385e-05
-2.45356e-07
1.98308e-05
-2.56787e-07
1.98229e-05
-2.68564e-07
1.98148e-05
-2.80682e-07
1.98065e-05
-2.93136e-07
1.97981e-05
-3.05916e-07
1.97894e-05
-3.1901e-07
1.97806e-05
-3.32402e-07
1.97716e-05
-3.46072e-07
1.97625e-05
-3.59994e-07
1.97533e-05
-3.74135e-07
1.97441e-05
-3.88455e-07
1.97348e-05
-4.02903e-07
1.97255e-05
-4.17414e-07
1.97163e-05
-4.3191e-07
1.97071e-05
-4.46288e-07
1.96981e-05
-4.60425e-07
1.96891e-05
-4.74161e-07
1.96804e-05
-4.87296e-07
1.96719e-05
-4.99573e-07
1.96637e-05
-5.10662e-07
1.96556e-05
-5.20131e-07
1.96477e-05
-5.27434e-07
-5.32002e-07
2e-05
-4.37415e-11
2e-05
-1.38768e-10
1.99999e-05
-2.44382e-10
1.99999e-05
-3.62471e-10
1.99998e-05
-4.93184e-10
1.99998e-05
-6.36766e-10
1.99997e-05
-7.93876e-10
1.99996e-05
-9.65476e-10
1.99995e-05
-1.15276e-09
1.99994e-05
-1.35709e-09
1.99992e-05
-1.57997e-09
1.99991e-05
-1.82303e-09
1.99989e-05
-2.08797e-09
1.99987e-05
-2.37661e-09
1.99985e-05
-2.69086e-09
1.99983e-05
-3.03272e-09
1.99981e-05
-3.40428e-09
1.99978e-05
-3.80775e-09
1.99976e-05
-4.24542e-09
1.99973e-05
-4.7197e-09
1.99969e-05
-5.2331e-09
1.99966e-05
-5.78826e-09
1.99962e-05
-6.38794e-09
1.99958e-05
-7.03502e-09
1.99953e-05
-7.73251e-09
1.99948e-05
-8.48354e-09
1.99943e-05
-9.2914e-09
1.99938e-05
-1.01595e-08
1.99932e-05
-1.10914e-08
1.99925e-05
-1.20909e-08
1.99918e-05
-1.31618e-08
1.99911e-05
-1.4308e-08
1.99903e-05
-1.55339e-08
1.99894e-05
-1.68437e-08
1.99885e-05
-1.8242e-08
1.99876e-05
-1.97333e-08
1.99865e-05
-2.13226e-08
1.99854e-05
-2.30147e-08
1.99843e-05
-2.4815e-08
1.9983e-05
-2.67287e-08
1.99817e-05
-2.87613e-08
1.99803e-05
-3.09185e-08
1.99788e-05
-3.32061e-08
1.99772e-05
-3.56301e-08
1.99755e-05
-3.81968e-08
1.99737e-05
-4.09123e-08
1.99718e-05
-4.37833e-08
1.99698e-05
-4.68163e-08
1.99677e-05
-5.00181e-08
1.99655e-05
-5.33957e-08
1.99632e-05
-5.6956e-08
1.99607e-05
-6.07064e-08
1.9958e-05
-6.46541e-08
1.99553e-05
-6.88064e-08
1.99524e-05
-7.3171e-08
1.99493e-05
-7.77555e-08
1.99461e-05
-8.25674e-08
1.99427e-05
-8.76145e-08
1.99392e-05
-9.29045e-08
1.99355e-05
-9.84453e-08
1.99316e-05
-1.04245e-07
1.99275e-05
-1.1031e-07
1.99232e-05
-1.16649e-07
1.99187e-05
-1.2327e-07
1.99141e-05
-1.3018e-07
1.99092e-05
-1.37386e-07
1.99041e-05
-1.44895e-07
1.98988e-05
-1.52715e-07
1.98933e-05
-1.60851e-07
1.98875e-05
-1.69311e-07
1.98816e-05
-1.78099e-07
1.98753e-05
-1.87222e-07
1.98689e-05
-1.96685e-07
1.98623e-05
-2.06491e-07
1.98554e-05
-2.16644e-07
1.98482e-05
-2.27146e-07
1.98409e-05
-2.38e-07
1.98333e-05
-2.49206e-07
1.98255e-05
-2.60762e-07
1.98175e-05
-2.72666e-07
1.98093e-05
-2.84913e-07
1.98008e-05
-2.97497e-07
1.97922e-05
-3.10407e-07
1.97835e-05
-3.23629e-07
1.97745e-05
-3.37146e-07
1.97655e-05
-3.50935e-07
1.97563e-05
-3.64965e-07
1.9747e-05
-3.79199e-07
1.97377e-05
-3.93588e-07
1.97284e-05
-4.0807e-07
1.9719e-05
-4.22568e-07
1.97097e-05
-4.36983e-07
1.97005e-05
-4.51188e-07
1.96914e-05
-4.65024e-07
1.96824e-05
-4.78286e-07
1.96735e-05
-4.9071e-07
1.96648e-05
-5.01955e-07
1.96562e-05
-5.11575e-07
1.96478e-05
-5.18998e-07
-5.2348e-07
2e-05
-3.79047e-11
2e-05
-1.20942e-10
1.99999e-05
-2.1446e-10
1.99999e-05
-3.20497e-10
1.99999e-05
-4.39234e-10
1.99998e-05
-5.70862e-10
1.99997e-05
-7.15931e-10
1.99996e-05
-8.75276e-10
1.99995e-05
-1.04995e-09
1.99994e-05
-1.2412e-09
1.99993e-05
-1.45039e-09
1.99991e-05
-1.67903e-09
1.9999e-05
-1.92874e-09
1.99988e-05
-2.20123e-09
1.99986e-05
-2.49832e-09
1.99984e-05
-2.82191e-09
1.99982e-05
-3.17402e-09
1.99979e-05
-3.55676e-09
1.99976e-05
-3.97234e-09
1.99973e-05
-4.42308e-09
1.9997e-05
-4.91142e-09
1.99967e-05
-5.43989e-09
1.99963e-05
-6.01117e-09
1.99959e-05
-6.62805e-09
1.99954e-05
-7.29343e-09
1.9995e-05
-8.01036e-09
1.99945e-05
-8.78202e-09
1.99939e-05
-9.61173e-09
1.99933e-05
-1.0503e-08
1.99927e-05
-1.14593e-08
1.9992e-05
-1.24845e-08
1.99913e-05
-1.35825e-08
1.99905e-05
-1.47573e-08
1.99897e-05
-1.60132e-08
1.99888e-05
-1.73545e-08
1.99878e-05
-1.87858e-08
1.99868e-05
-2.03118e-08
1.99858e-05
-2.19373e-08
1.99846e-05
-2.36674e-08
1.99834e-05
-2.55073e-08
1.99821e-05
-2.74623e-08
1.99807e-05
-2.9538e-08
1.99792e-05
-3.174e-08
1.99777e-05
-3.40744e-08
1.9976e-05
-3.6547e-08
1.99743e-05
-3.9164e-08
1.99724e-05
-4.1932e-08
1.99705e-05
-4.48572e-08
1.99684e-05
-4.79464e-08
1.99662e-05
-5.12065e-08
1.99639e-05
-5.46443e-08
1.99615e-05
-5.82669e-08
1.99589e-05
-6.20816e-08
1.99562e-05
-6.60956e-08
1.99533e-05
-7.03164e-08
1.99503e-05
-7.47515e-08
1.99472e-05
-7.94086e-08
1.99438e-05
-8.42952e-08
1.99404e-05
-8.94191e-08
1.99367e-05
-9.47881e-08
1.99329e-05
-1.0041e-07
1.99289e-05
-1.06292e-07
1.99246e-05
-1.12443e-07
1.99202e-05
-1.1887e-07
1.99156e-05
-1.25581e-07
1.99108e-05
-1.32583e-07
1.99058e-05
-1.39883e-07
1.99006e-05
-1.4749e-07
1.98952e-05
-1.55408e-07
1.98895e-05
-1.63647e-07
1.98836e-05
-1.72211e-07
1.98775e-05
-1.81107e-07
1.98712e-05
-1.90339e-07
1.98646e-05
-1.99915e-07
1.98578e-05
-2.09836e-07
1.98507e-05
-2.20108e-07
1.98435e-05
-2.30732e-07
1.9836e-05
-2.4171e-07
1.98282e-05
-2.53043e-07
1.98203e-05
-2.64729e-07
1.98122e-05
-2.76766e-07
1.98038e-05
-2.89147e-07
1.97953e-05
-3.01865e-07
1.97866e-05
-3.14908e-07
1.97777e-05
-3.28261e-07
1.97686e-05
-3.41902e-07
1.97595e-05
-3.55804e-07
1.97502e-05
-3.69931e-07
1.97409e-05
-3.84237e-07
1.97314e-05
-3.98662e-07
1.9722e-05
-4.13129e-07
1.97126e-05
-4.2754e-07
1.97032e-05
-4.4177e-07
1.96938e-05
-4.55655e-07
1.96845e-05
-4.68988e-07
1.96753e-05
-4.815e-07
1.96662e-05
-4.92843e-07
1.96571e-05
-5.02562e-07
1.96482e-05
-5.10066e-07
-5.14456e-07
2e-05
-3.25458e-11
2e-05
-1.04479e-10
2e-05
-1.86647e-10
1.99999e-05
-2.81208e-10
1.99999e-05
-3.88392e-10
1.99998e-05
-5.0837e-10
1.99997e-05
-6.41628e-10
1.99996e-05
-7.88904e-10
1.99995e-05
-9.5115e-10
1.99994e-05
-1.12949e-09
1.99993e-05
-1.32519e-09
1.99992e-05
-1.53965e-09
1.9999e-05
-1.77439e-09
1.99988e-05
-2.03102e-09
1.99987e-05
-2.31128e-09
1.99984e-05
-2.61697e-09
1.99982e-05
-2.95003e-09
1.9998e-05
-3.31248e-09
1.99977e-05
-3.70645e-09
1.99974e-05
-4.13417e-09
1.99971e-05
-4.59799e-09
1.99968e-05
-5.10036e-09
1.99964e-05
-5.64386e-09
1.9996e-05
-6.23118e-09
1.99956e-05
-6.86516e-09
1.99951e-05
-7.54872e-09
1.99946e-05
-8.28496e-09
1.99941e-05
-9.07709e-09
1.99935e-05
-9.92847e-09
1.99929e-05
-1.08426e-08
1.99922e-05
-1.18231e-08
1.99915e-05
-1.28738e-08
1.99908e-05
-1.39986e-08
1.999e-05
-1.52017e-08
1.99891e-05
-1.64872e-08
1.99882e-05
-1.78596e-08
1.99872e-05
-1.93235e-08
1.99861e-05
-2.08837e-08
1.9985e-05
-2.25449e-08
1.99838e-05
-2.43123e-08
1.99825e-05
-2.61912e-08
1.99812e-05
-2.81869e-08
1.99797e-05
-3.0305e-08
1.99782e-05
-3.25512e-08
1.99766e-05
-3.49315e-08
1.99749e-05
-3.74518e-08
1.99731e-05
-4.01185e-08
1.99712e-05
-4.29378e-08
1.99691e-05
-4.59164e-08
1.9967e-05
-4.90609e-08
1.99647e-05
-5.23782e-08
1.99623e-05
-5.58752e-08
1.99598e-05
-5.9559e-08
1.99571e-05
-6.34368e-08
1.99543e-05
-6.7516e-08
1.99514e-05
-7.18041e-08
1.99483e-05
-7.63086e-08
1.9945e-05
-8.1037e-08
1.99416e-05
-8.59972e-08
1.9938e-05
-9.11969e-08
1.99343e-05
-9.66438e-08
1.99303e-05
-1.02346e-07
1.99262e-05
-1.08311e-07
1.99219e-05
-1.14546e-07
1.99173e-05
-1.2106e-07
1.99126e-05
-1.2786e-07
1.99077e-05
-1.34954e-07
1.99025e-05
-1.42349e-07
1.98972e-05
-1.50052e-07
1.98916e-05
-1.58071e-07
1.98858e-05
-1.66412e-07
1.98798e-05
-1.75082e-07
1.98735e-05
-1.84086e-07
1.9867e-05
-1.93431e-07
1.98603e-05
-2.03121e-07
1.98534e-05
-2.13161e-07
1.98462e-05
-2.23554e-07
1.98388e-05
-2.34304e-07
1.98312e-05
-2.45411e-07
1.98233e-05
-2.56875e-07
1.98152e-05
-2.68696e-07
1.9807e-05
-2.80869e-07
1.97985e-05
-2.93387e-07
1.97898e-05
-3.06241e-07
1.9781e-05
-3.19418e-07
1.9772e-05
-3.32897e-07
1.97628e-05
-3.46654e-07
1.97535e-05
-3.60653e-07
1.97442e-05
-3.74852e-07
1.97347e-05
-3.89191e-07
1.97252e-05
-4.03594e-07
1.97156e-05
-4.17965e-07
1.9706e-05
-4.32175e-07
1.96964e-05
-4.46063e-07
1.96868e-05
-4.59417e-07
1.96773e-05
-4.71964e-07
1.96678e-05
-4.83353e-07
1.96584e-05
-4.93124e-07
1.9649e-05
-5.00686e-07
-5.05041e-07
2e-05
-2.76034e-11
2e-05
-8.92316e-11
2e-05
-1.60763e-10
1.99999e-05
-2.44443e-10
1.99999e-05
-3.40552e-10
1.99998e-05
-4.49261e-10
1.99997e-05
-5.71017e-10
1.99997e-05
-7.0649e-10
1.99996e-05
-8.56546e-10
1.99995e-05
-1.02222e-09
1.99993e-05
-1.20467e-09
1.99992e-05
-1.40523e-09
1.99991e-05
-1.62529e-09
1.99989e-05
-1.8664e-09
1.99987e-05
-2.13018e-09
1.99985e-05
-2.41837e-09
1.99983e-05
-2.73281e-09
1.99981e-05
-3.07543e-09
1.99978e-05
-3.44829e-09
1.99975e-05
-3.85353e-09
1.99972e-05
-4.29341e-09
1.99969e-05
-4.77029e-09
1.99965e-05
-5.28667e-09
1.99961e-05
-5.84514e-09
1.99957e-05
-6.44844e-09
1.99953e-05
-7.09941e-09
1.99948e-05
-7.80105e-09
1.99943e-05
-8.55646e-09
1.99937e-05
-9.36889e-09
1.99931e-05
-1.02417e-08
1.99925e-05
-1.11785e-08
1.99918e-05
-1.2183e-08
1.9991e-05
-1.32589e-08
1.99902e-05
-1.44102e-08
1.99894e-05
-1.56412e-08
1.99885e-05
-1.6956e-08
1.99875e-05
-1.83591e-08
1.99865e-05
-1.98552e-08
1.99854e-05
-2.1449e-08
1.99842e-05
-2.31455e-08
1.9983e-05
-2.49497e-08
1.99817e-05
-2.6867e-08
1.99803e-05
-2.89028e-08
1.99788e-05
-3.10626e-08
1.99772e-05
-3.33522e-08
1.99755e-05
-3.57777e-08
1.99738e-05
-3.8345e-08
1.99719e-05
-4.10604e-08
1.99699e-05
-4.39303e-08
1.99678e-05
-4.69614e-08
1.99656e-05
-5.01602e-08
1.99632e-05
-5.35337e-08
1.99608e-05
-5.70888e-08
1.99582e-05
-6.08328e-08
1.99554e-05
-6.47728e-08
1.99525e-05
-6.89161e-08
1.99495e-05
-7.32704e-08
1.99463e-05
-7.78432e-08
1.99429e-05
-8.26421e-08
1.99394e-05
-8.76749e-08
1.99357e-05
-9.29493e-08
1.99319e-05
-9.84733e-08
1.99278e-05
-1.04255e-07
1.99235e-05
-1.10301e-07
1.99191e-05
-1.16621e-07
1.99145e-05
-1.23221e-07
1.99096e-05
-1.30111e-07
1.99046e-05
-1.37297e-07
1.98993e-05
-1.44786e-07
1.98938e-05
-1.52587e-07
1.98881e-05
-1.60706e-07
1.98822e-05
-1.69151e-07
1.9876e-05
-1.77928e-07
1.98696e-05
-1.87043e-07
1.9863e-05
-1.96501e-07
1.98562e-05
-2.06309e-07
1.98491e-05
-2.16471e-07
1.98418e-05
-2.26989e-07
1.98342e-05
-2.37867e-07
1.98265e-05
-2.49106e-07
1.98185e-05
-2.60706e-07
1.98103e-05
-2.72663e-07
1.98018e-05
-2.84973e-07
1.97932e-05
-2.97629e-07
1.97844e-05
-3.10616e-07
1.97755e-05
-3.23919e-07
1.97663e-05
-3.37513e-07
1.9757e-05
-3.51365e-07
1.97476e-05
-3.65432e-07
1.97381e-05
-3.79657e-07
1.97284e-05
-3.93966e-07
1.97187e-05
-4.0826e-07
1.9709e-05
-4.22413e-07
1.96992e-05
-4.36261e-07
1.96894e-05
-4.49591e-07
1.96795e-05
-4.62128e-07
1.96697e-05
-4.73518e-07
1.96599e-05
-4.83303e-07
1.96501e-05
-4.90896e-07
-4.95253e-07
2e-05
-2.30342e-11
2e-05
-7.50876e-11
2e-05
-1.36662e-10
1.99999e-05
-2.10061e-10
1.99999e-05
-2.95607e-10
1.99998e-05
-3.93482e-10
1.99998e-05
-5.04107e-10
1.99997e-05
-6.28106e-10
1.99996e-05
-7.66278e-10
1.99995e-05
-9.19576e-10
1.99994e-05
-1.08909e-09
1.99992e-05
-1.27605e-09
1.99991e-05
-1.48177e-09
1.99989e-05
-1.7077e-09
1.99988e-05
-1.9554e-09
1.99986e-05
-2.22651e-09
1.99984e-05
-2.52279e-09
1.99981e-05
-2.84608e-09
1.99979e-05
-3.19836e-09
1.99976e-05
-3.58168e-09
1.99973e-05
-3.99822e-09
1.9997e-05
-4.45026e-09
1.99966e-05
-4.9402e-09
1.99963e-05
-5.47055e-09
1.99959e-05
-6.04394e-09
1.99954e-05
-6.66313e-09
1.9995e-05
-7.33101e-09
1.99945e-05
-8.05059e-09
1.99939e-05
-8.82503e-09
1.99933e-05
-9.6576e-09
1.99927e-05
-1.05517e-08
1.9992e-05
-1.1511e-08
1.99913e-05
-1.25391e-08
1.99905e-05
-1.364e-08
1.99897e-05
-1.48176e-08
1.99888e-05
-1.60761e-08
1.99879e-05
-1.74198e-08
1.99869e-05
-1.88532e-08
1.99858e-05
-2.03811e-08
1.99847e-05
-2.20081e-08
1.99835e-05
-2.37393e-08
1.99822e-05
-2.55798e-08
1.99808e-05
-2.75349e-08
1.99794e-05
-2.96101e-08
1.99778e-05
-3.1811e-08
1.99762e-05
-3.41434e-08
1.99745e-05
-3.66133e-08
1.99726e-05
-3.92267e-08
1.99707e-05
-4.19901e-08
1.99686e-05
-4.49098e-08
1.99665e-05
-4.79924e-08
1.99642e-05
-5.12446e-08
1.99618e-05
-5.46734e-08
1.99592e-05
-5.82858e-08
1.99565e-05
-6.20889e-08
1.99537e-05
-6.60901e-08
1.99507e-05
-7.02966e-08
1.99476e-05
-7.47162e-08
1.99443e-05
-7.93563e-08
1.99409e-05
-8.42247e-08
1.99373e-05
-8.93292e-08
1.99335e-05
-9.46777e-08
1.99295e-05
-1.00278e-07
1.99253e-05
-1.06138e-07
1.9921e-05
-1.12266e-07
1.99164e-05
-1.18669e-07
1.99117e-05
-1.25356e-07
1.99067e-05
-1.32335e-07
1.99015e-05
-1.39613e-07
1.98961e-05
-1.47197e-07
1.98905e-05
-1.55096e-07
1.98847e-05
-1.63317e-07
1.98786e-05
-1.71867e-07
1.98723e-05
-1.80752e-07
1.98658e-05
-1.89979e-07
1.98591e-05
-1.99554e-07
1.98521e-05
-2.09482e-07
1.98448e-05
-2.19767e-07
1.98374e-05
-2.30414e-07
1.98297e-05
-2.41423e-07
1.98218e-05
-2.52795e-07
1.98137e-05
-2.64531e-07
1.98053e-05
-2.76625e-07
1.97968e-05
-2.89071e-07
1.9788e-05
-3.01857e-07
1.97791e-05
-3.14969e-07
1.97699e-05
-3.28382e-07
1.97606e-05
-3.42067e-07
1.97512e-05
-3.5598e-07
1.97416e-05
-3.70065e-07
1.97319e-05
-3.8425e-07
1.9722e-05
-3.98435e-07
1.97121e-05
-4.12495e-07
1.97021e-05
-4.26264e-07
1.96921e-05