/*--------------------------------*- C++ -*----------------------------------*\
  =========                 |
  \\      /  F ield         | OpenFOAM: The Open Source CFD Toolbox
   \\    /   O peration     | Website:  https://openfoam.org
    \\  /    A nd           | Version:  11
     \\/     M anipulation  |
\*---------------------------------------------------------------------------*/
FoamFile
{
    format      ascii;
    class       volVectorField;
    location    "1542";
    object      U;
}
// * * * * * * * * * * * * * * * * * * * * * * * * * * * * * * * * * * * * * //

dimensions      [0 1 -1 0 0 0 0];

internalField   nonuniform List<vector> 
10000
(
(0.005 -1.31479e-12 0)
(0.005 -3.71994e-12 0)
(0.005 -6.07317e-12 0)
(0.005 -8.44588e-12 0)
(0.005 -1.08798e-11 0)
(0.005 -1.3405e-11 0)
(0.005 -1.60444e-11 0)
(0.005 -1.8817e-11 0)
(0.005 -2.17395e-11 0)
(0.005 -2.48271e-11 0)
(0.005 -2.80944e-11 0)
(0.005 -3.15555e-11 0)
(0.005 -3.52241e-11 0)
(0.005 -3.91141e-11 0)
(0.005 -4.32396e-11 0)
(0.005 -4.76145e-11 0)
(0.005 -5.22533e-11 0)
(0.005 -5.71705e-11 0)
(0.005 -6.23811e-11 0)
(0.005 -6.79003e-11 0)
(0.005 -7.37437e-11 0)
(0.005 -7.99275e-11 0)
(0.005 -8.64678e-11 0)
(0.005 -9.33817e-11 0)
(0.005 -1.00686e-10 0)
(0.005 -1.08399e-10 0)
(0.005 -1.16538e-10 0)
(0.005 -1.25122e-10 0)
(0.005 -1.34169e-10 0)
(0.005 -1.43699e-10 0)
(0.005 -1.53731e-10 0)
(0.005 -1.64286e-10 0)
(0.005 -1.75383e-10 0)
(0.005 -1.87043e-10 0)
(0.005 -1.99286e-10 0)
(0.005 -2.12135e-10 0)
(0.005 -2.2561e-10 0)
(0.005 -2.39733e-10 0)
(0.005 -2.54525e-10 0)
(0.005 -2.70008e-10 0)
(0.005 -2.86204e-10 0)
(0.005 -3.03135e-10 0)
(0.005 -3.20822e-10 0)
(0.005 -3.39287e-10 0)
(0.005 -3.58552e-10 0)
(0.005 -3.78637e-10 0)
(0.005 -3.99563e-10 0)
(0.005 -4.21351e-10 0)
(0.005 -4.4402e-10 0)
(0.005 -4.67589e-10 0)
(0.005 -4.92077e-10 0)
(0.005 -5.17501e-10 0)
(0.005 -5.43877e-10 0)
(0.005 -5.71221e-10 0)
(0.005 -5.99546e-10 0)
(0.005 -6.28865e-10 0)
(0.005 -6.59189e-10 0)
(0.005 -6.90526e-10 0)
(0.005 -7.22884e-10 0)
(0.005 -7.56267e-10 0)
(0.005 -7.90678e-10 0)
(0.005 -8.26115e-10 0)
(0.005 -8.62576e-10 0)
(0.005 -9.00053e-10 0)
(0.005 -9.38536e-10 0)
(0.005 -9.78011e-10 0)
(0.005 -1.01846e-09 0)
(0.005 -1.05985e-09 0)
(0.005 -1.10217e-09 0)
(0.005 -1.14537e-09 0)
(0.005 -1.18942e-09 0)
(0.005 -1.23426e-09 0)
(0.005 -1.27984e-09 0)
(0.005 -1.3261e-09 0)
(0.005 -1.37297e-09 0)
(0.005 -1.42037e-09 0)
(0.005 -1.46819e-09 0)
(0.005 -1.51634e-09 0)
(0.005 -1.5647e-09 0)
(0.005 -1.61314e-09 0)
(0.005 -1.66151e-09 0)
(0.005 -1.70964e-09 0)
(0.005 -1.75735e-09 0)
(0.005 -1.80444e-09 0)
(0.005 -1.85067e-09 0)
(0.005 -1.89581e-09 0)
(0.005 -1.93955e-09 0)
(0.005 -1.98161e-09 0)
(0.005 -2.02163e-09 0)
(0.005 -2.05923e-09 0)
(0.005 -2.09402e-09 0)
(0.005 -2.12554e-09 0)
(0.005 -2.15332e-09 0)
(0.005 -2.17691e-09 0)
(0.005 -2.19597e-09 0)
(0.005 -2.21025e-09 0)
(0.005 -2.21849e-09 0)
(0.005 -2.22007e-09 0)
(0.005 -2.21622e-09 0)
(0.005 -2.21122e-09 0)
(0.005 -1.14261e-12 0)
(0.005 -3.39401e-12 0)
(0.005 -5.64792e-12 0)
(0.005 -7.9301e-12 0)
(0.005 -1.02745e-11 0)
(0.005 -1.27076e-11 0)
(0.005 -1.52507e-11 0)
(0.005 -1.79217e-11 0)
(0.005 -2.07364e-11 0)
(0.005 -2.37095e-11 0)
(0.005 -2.68548e-11 0)
(0.005 -3.0186e-11 0)
(0.005 -3.37164e-11 0)
(0.005 -3.74592e-11 0)
(0.005 -4.14278e-11 0)
(0.005 -4.56359e-11 0)
(0.005 -5.00972e-11 0)
(0.005 -5.48257e-11 0)
(0.005 -5.98358e-11 0)
(0.005 -6.51421e-11 0)
(0.005 -7.07596e-11 0)
(0.005 -7.67038e-11 0)
(0.005 -8.29903e-11 0)
(0.005 -8.96352e-11 0)
(0.005 -9.66552e-11 0)
(0.005 -1.04067e-10 0)
(0.005 -1.11888e-10 0)
(0.005 -1.20136e-10 0)
(0.005 -1.28829e-10 0)
(0.005 -1.37985e-10 0)
(0.005 -1.47623e-10 0)
(0.005 -1.57762e-10 0)
(0.005 -1.68422e-10 0)
(0.005 -1.79622e-10 0)
(0.005 -1.91382e-10 0)
(0.005 -2.03723e-10 0)
(0.005 -2.16665e-10 0)
(0.005 -2.30228e-10 0)
(0.005 -2.44434e-10 0)
(0.005 -2.59303e-10 0)
(0.005 -2.74855e-10 0)
(0.005 -2.91113e-10 0)
(0.005 -3.08097e-10 0)
(0.005 -3.25827e-10 0)
(0.005 -3.44325e-10 0)
(0.005 -3.6361e-10 0)
(0.005 -3.83702e-10 0)
(0.005 -4.04621e-10 0)
(0.005 -4.26385e-10 0)
(0.005 -4.49014e-10 0)
(0.005 -4.72525e-10 0)
(0.005 -4.96935e-10 0)
(0.005 -5.2226e-10 0)
(0.005 -5.48514e-10 0)
(0.005 -5.75711e-10 0)
(0.005 -6.03864e-10 0)
(0.005 -6.32983e-10 0)
(0.005 -6.63078e-10 0)
(0.005 -6.94155e-10 0)
(0.005 -7.2622e-10 0)
(0.005 -7.59276e-10 0)
(0.005 -7.93322e-10 0)
(0.005 -8.28358e-10 0)
(0.005 -8.64377e-10 0)
(0.005 -9.0137e-10 0)
(0.005 -9.39326e-10 0)
(0.005 -9.78229e-10 0)
(0.005 -1.01806e-09 0)
(0.005 -1.05879e-09 0)
(0.005 -1.10039e-09 0)
(0.005 -1.14282e-09 0)
(0.005 -1.18605e-09 0)
(0.005 -1.23002e-09 0)
(0.005 -1.27468e-09 0)
(0.005 -1.31996e-09 0)
(0.005 -1.36579e-09 0)
(0.005 -1.4121e-09 0)
(0.005 -1.45878e-09 0)
(0.005 -1.50574e-09 0)
(0.005 -1.55286e-09 0)
(0.005 -1.6e-09 0)
(0.005 -1.64703e-09 0)
(0.005 -1.69378e-09 0)
(0.005 -1.74007e-09 0)
(0.005 -1.78571e-09 0)
(0.005 -1.83047e-09 0)
(0.005 -1.87411e-09 0)
(0.005 -1.91636e-09 0)
(0.005 -1.95692e-09 0)
(0.005 -1.99547e-09 0)
(0.005 -2.03165e-09 0)
(0.005 -2.06508e-09 0)
(0.005 -2.09536e-09 0)
(0.005 -2.12207e-09 0)
(0.005 -2.14463e-09 0)
(0.005 -2.16232e-09 0)
(0.005 -2.17508e-09 0)
(0.005 -2.18363e-09 0)
(0.005 -2.18888e-09 0)
(0.005 -2.19258e-09 0)
(0.005 -1.00497e-12 0)
(0.005 -3.09235e-12 0)
(0.005 -5.23184e-12 0)
(0.005 -7.4183e-12 0)
(0.005 -9.67181e-12 0)
(0.005 -1.20135e-11 0)
(0.005 -1.44617e-11 0)
(0.005 -1.7033e-11 0)
(0.005 -1.97422e-11 0)
(0.005 -2.26032e-11 0)
(0.005 -2.56294e-11 0)
(0.005 -2.88338e-11 0)
(0.005 -3.22291e-11 0)
(0.005 -3.58282e-11 0)
(0.005 -3.96439e-11 0)
(0.005 -4.36893e-11 0)
(0.005 -4.79776e-11 0)
(0.005 -5.25222e-11 0)
(0.005 -5.7337e-11 0)
(0.005 -6.24361e-11 0)
(0.005 -6.78338e-11 0)
(0.005 -7.35449e-11 0)
(0.005 -7.95845e-11 0)
(0.005 -8.59681e-11 0)
(0.005 -9.27115e-11 0)
(0.005 -9.9831e-11 0)
(0.005 -1.07343e-10 0)
(0.005 -1.15265e-10 0)
(0.005 -1.23613e-10 0)
(0.005 -1.32406e-10 0)
(0.005 -1.41662e-10 0)
(0.005 -1.51398e-10 0)
(0.005 -1.61634e-10 0)
(0.005 -1.72389e-10 0)
(0.005 -1.8368e-10 0)
(0.005 -1.95529e-10 0)
(0.005 -2.07954e-10 0)
(0.005 -2.20976e-10 0)
(0.005 -2.34614e-10 0)
(0.005 -2.48888e-10 0)
(0.005 -2.63818e-10 0)
(0.005 -2.79425e-10 0)
(0.005 -2.95728e-10 0)
(0.005 -3.12747e-10 0)
(0.005 -3.30503e-10 0)
(0.005 -3.49013e-10 0)
(0.005 -3.68299e-10 0)
(0.005 -3.88378e-10 0)
(0.005 -4.09269e-10 0)
(0.005 -4.30989e-10 0)
(0.005 -4.53557e-10 0)
(0.005 -4.76987e-10 0)
(0.005 -5.01296e-10 0)
(0.005 -5.26498e-10 0)
(0.005 -5.52606e-10 0)
(0.005 -5.79634e-10 0)
(0.005 -6.0759e-10 0)
(0.005 -6.36486e-10 0)
(0.005 -6.66327e-10 0)
(0.005 -6.97121e-10 0)
(0.005 -7.2887e-10 0)
(0.005 -7.61576e-10 0)
(0.005 -7.95237e-10 0)
(0.005 -8.2985e-10 0)
(0.005 -8.65409e-10 0)
(0.005 -9.01902e-10 0)
(0.005 -9.39316e-10 0)
(0.005 -9.77635e-10 0)
(0.005 -1.01684e-09 0)
(0.005 -1.05689e-09 0)
(0.005 -1.09778e-09 0)
(0.005 -1.13945e-09 0)
(0.005 -1.18186e-09 0)
(0.005 -1.22498e-09 0)
(0.005 -1.26874e-09 0)
(0.005 -1.31307e-09 0)
(0.005 -1.35792e-09 0)
(0.005 -1.40319e-09 0)
(0.005 -1.44879e-09 0)
(0.005 -1.49464e-09 0)
(0.005 -1.5406e-09 0)
(0.005 -1.58657e-09 0)
(0.005 -1.63239e-09 0)
(0.005 -1.67791e-09 0)
(0.005 -1.72297e-09 0)
(0.005 -1.76736e-09 0)
(0.005 -1.81088e-09 0)
(0.005 -1.85329e-09 0)
(0.005 -1.89434e-09 0)
(0.005 -1.93374e-09 0)
(0.005 -1.9712e-09 0)
(0.005 -2.00636e-09 0)
(0.005 -2.03888e-09 0)
(0.005 -2.06835e-09 0)
(0.005 -2.09429e-09 0)
(0.005 -2.11635e-09 0)
(0.005 -2.13442e-09 0)
(0.005 -2.14852e-09 0)
(0.005 -2.15897e-09 0)
(0.005 -2.16754e-09 0)
(0.005 -9.10883e-13 0)
(0.005 -2.8507e-12 0)
(0.005 -4.87509e-12 0)
(0.005 -6.96481e-12 0)
(0.005 -9.12951e-12 0)
(0.005 -1.13843e-11 0)
(0.005 -1.37443e-11 0)
(0.005 -1.62239e-11 0)
(0.005 -1.88366e-11 0)
(0.005 -2.15956e-11 0)
(0.005 -2.45134e-11 0)
(0.005 -2.76025e-11 0)
(0.005 -3.08752e-11 0)
(0.005 -3.43437e-11 0)
(0.005 -3.80205e-11 0)
(0.005 -4.19181e-11 0)
(0.005 -4.60492e-11 0)
(0.005 -5.04268e-11 0)
(0.005 -5.50642e-11 0)
(0.005 -5.99749e-11 0)
(0.005 -6.51729e-11 0)
(0.005 -7.06722e-11 0)
(0.005 -7.64874e-11 0)
(0.005 -8.26334e-11 0)
(0.005 -8.91255e-11 0)
(0.005 -9.59792e-11 0)
(0.005 -1.0321e-10 0)
(0.005 -1.10836e-10 0)
(0.005 -1.18871e-10 0)
(0.005 -1.27334e-10 0)
(0.005 -1.36242e-10 0)
(0.005 -1.45613e-10 0)
(0.005 -1.55463e-10 0)
(0.005 -1.65812e-10 0)
(0.005 -1.76678e-10 0)
(0.005 -1.88079e-10 0)
(0.005 -2.00035e-10 0)
(0.005 -2.12564e-10 0)
(0.005 -2.25685e-10 0)
(0.005 -2.39419e-10 0)
(0.005 -2.53783e-10 0)
(0.005 -2.68798e-10 0)
(0.005 -2.84482e-10 0)
(0.005 -3.00855e-10 0)
(0.005 -3.17935e-10 0)
(0.005 -3.35742e-10 0)
(0.005 -3.54294e-10 0)
(0.005 -3.7361e-10 0)
(0.005 -3.93706e-10 0)
(0.005 -4.146e-10 0)
(0.005 -4.36309e-10 0)
(0.005 -4.58849e-10 0)
(0.005 -4.82234e-10 0)
(0.005 -5.0648e-10 0)
(0.005 -5.31598e-10 0)
(0.005 -5.57602e-10 0)
(0.005 -5.84501e-10 0)
(0.005 -6.12306e-10 0)
(0.005 -6.41024e-10 0)
(0.005 -6.70661e-10 0)
(0.005 -7.01222e-10 0)
(0.005 -7.32708e-10 0)
(0.005 -7.6512e-10 0)
(0.005 -7.98455e-10 0)
(0.005 -8.32707e-10 0)
(0.005 -8.6787e-10 0)
(0.005 -9.03931e-10 0)
(0.005 -9.40876e-10 0)
(0.005 -9.78686e-10 0)
(0.005 -1.01734e-09 0)
(0.005 -1.05681e-09 0)
(0.005 -1.09706e-09 0)
(0.005 -1.13807e-09 0)
(0.005 -1.17977e-09 0)
(0.005 -1.22214e-09 0)
(0.005 -1.26511e-09 0)
(0.005 -1.30862e-09 0)
(0.005 -1.3526e-09 0)
(0.005 -1.39697e-09 0)
(0.005 -1.44165e-09 0)
(0.005 -1.48653e-09 0)
(0.005 -1.53151e-09 0)
(0.005 -1.57647e-09 0)
(0.005 -1.62127e-09 0)
(0.005 -1.66576e-09 0)
(0.005 -1.70978e-09 0)
(0.005 -1.75315e-09 0)
(0.005 -1.79566e-09 0)
(0.005 -1.83708e-09 0)
(0.005 -1.87718e-09 0)
(0.005 -1.91567e-09 0)
(0.005 -1.95227e-09 0)
(0.005 -1.98662e-09 0)
(0.005 -2.01838e-09 0)
(0.005 -2.04713e-09 0)
(0.005 -2.07253e-09 0)
(0.005 -2.09434e-09 0)
(0.005 -2.11228e-09 0)
(0.005 -2.12603e-09 0)
(0.005 -2.13603e-09 0)
(0.005 -8.35713e-13 0)
(0.005 -2.64012e-12 0)
(0.005 -4.54814e-12 0)
(0.005 -6.53611e-12 0)
(0.005 -8.6074e-12 0)
(0.005 -1.07722e-11 0)
(0.005 -1.3042e-11 0)
(0.005 -1.5429e-11 0)
(0.005 -1.79453e-11 0)
(0.005 -2.06027e-11 0)
(0.005 -2.34132e-11 0)
(0.005 -2.63883e-11 0)
(0.005 -2.95399e-11 0)
(0.005 -3.28796e-11 0)
(0.005 -3.64194e-11 0)
(0.005 -4.01713e-11 0)
(0.005 -4.41475e-11 0)
(0.005 -4.83604e-11 0)
(0.005 -5.2823e-11 0)
(0.005 -5.75481e-11 0)
(0.005 -6.25491e-11 0)
(0.005 -6.78396e-11 0)
(0.005 -7.34336e-11 0)
(0.005 -7.93454e-11 0)
(0.005 -8.55897e-11 0)
(0.005 -9.21814e-11 0)
(0.005 -9.91358e-11 0)
(0.005 -1.06469e-10 0)
(0.005 -1.14196e-10 0)
(0.005 -1.22333e-10 0)
(0.005 -1.30898e-10 0)
(0.005 -1.39908e-10 0)
(0.005 -1.49378e-10 0)
(0.005 -1.59327e-10 0)
(0.005 -1.69773e-10 0)
(0.005 -1.80733e-10 0)
(0.005 -1.92226e-10 0)
(0.005 -2.04269e-10 0)
(0.005 -2.16881e-10 0)
(0.005 -2.30081e-10 0)
(0.005 -2.43887e-10 0)
(0.005 -2.58317e-10 0)
(0.005 -2.73391e-10 0)
(0.005 -2.89126e-10 0)
(0.005 -3.05541e-10 0)
(0.005 -3.22654e-10 0)
(0.005 -3.40483e-10 0)
(0.005 -3.59045e-10 0)
(0.005 -3.78358e-10 0)
(0.005 -3.98437e-10 0)
(0.005 -4.193e-10 0)
(0.005 -4.40961e-10 0)
(0.005 -4.63435e-10 0)
(0.005 -4.86737e-10 0)
(0.005 -5.10878e-10 0)
(0.005 -5.35872e-10 0)
(0.005 -5.61729e-10 0)
(0.005 -5.88458e-10 0)
(0.005 -6.16067e-10 0)
(0.005 -6.44564e-10 0)
(0.005 -6.73952e-10 0)
(0.005 -7.04235e-10 0)
(0.005 -7.35414e-10 0)
(0.005 -7.67487e-10 0)
(0.005 -8.00451e-10 0)
(0.005 -8.343e-10 0)
(0.005 -8.69025e-10 0)
(0.005 -9.04614e-10 0)
(0.005 -9.41051e-10 0)
(0.005 -9.78318e-10 0)
(0.005 -1.01639e-09 0)
(0.005 -1.05525e-09 0)
(0.005 -1.09485e-09 0)
(0.005 -1.13517e-09 0)
(0.005 -1.17616e-09 0)
(0.005 -1.21777e-09 0)
(0.005 -1.25996e-09 0)
(0.005 -1.30265e-09 0)
(0.005 -1.3458e-09 0)
(0.005 -1.38931e-09 0)
(0.005 -1.43311e-09 0)
(0.005 -1.4771e-09 0)
(0.005 -1.52119e-09 0)
(0.005 -1.56525e-09 0)
(0.005 -1.60916e-09 0)
(0.005 -1.65277e-09 0)
(0.005 -1.69593e-09 0)
(0.005 -1.73847e-09 0)
(0.005 -1.78018e-09 0)
(0.005 -1.82086e-09 0)
(0.005 -1.86025e-09 0)
(0.005 -1.89809e-09 0)
(0.005 -1.93408e-09 0)
(0.005 -1.96786e-09 0)
(0.005 -1.99905e-09 0)
(0.005 -2.02728e-09 0)
(0.005 -2.05212e-09 0)
(0.005 -2.07299e-09 0)
(0.005 -2.08908e-09 0)
(0.005 -2.09854e-09 0)
(0.005 -7.70497e-13 0)
(0.005 -2.45024e-12 0)
(0.005 -4.24407e-12 0)
(0.005 -6.12807e-12 0)
(0.005 -8.10237e-12 0)
(0.005 -1.01736e-11 0)
(0.005 -1.23505e-11 0)
(0.005 -1.46429e-11 0)
(0.005 -1.70614e-11 0)
(0.005 -1.96165e-11 0)
(0.005 -2.23191e-11 0)
(0.005 -2.51802e-11 0)
(0.005 -2.82109e-11 0)
(0.005 -3.14222e-11 0)
(0.005 -3.48255e-11 0)
(0.005 -3.84323e-11 0)
(0.005 -4.22544e-11 0)
(0.005 -4.63037e-11 0)
(0.005 -5.05923e-11 0)
(0.005 -5.51329e-11 0)
(0.005 -5.99381e-11 0)
(0.005 -6.50211e-11 0)
(0.005 -7.03953e-11 0)
(0.005 -7.60743e-11 0)
(0.005 -8.20723e-11 0)
(0.005 -8.84035e-11 0)
(0.005 -9.50828e-11 0)
(0.005 -1.02125e-10 0)
(0.005 -1.09545e-10 0)
(0.005 -1.1736e-10 0)
(0.005 -1.25584e-10 0)
(0.005 -1.34234e-10 0)
(0.005 -1.43327e-10 0)
(0.005 -1.52879e-10 0)
(0.005 -1.62908e-10 0)
(0.005 -1.73429e-10 0)
(0.005 -1.84461e-10 0)
(0.005 -1.96022e-10 0)
(0.005 -2.08128e-10 0)
(0.005 -2.20798e-10 0)
(0.005 -2.34049e-10 0)
(0.005 -2.47899e-10 0)
(0.005 -2.62367e-10 0)
(0.005 -2.77468e-10 0)
(0.005 -2.93222e-10 0)
(0.005 -3.09646e-10 0)
(0.005 -3.26756e-10 0)
(0.005 -3.44569e-10 0)
(0.005 -3.63103e-10 0)
(0.005 -3.82373e-10 0)
(0.005 -4.02395e-10 0)
(0.005 -4.23183e-10 0)
(0.005 -4.44753e-10 0)
(0.005 -4.67117e-10 0)
(0.005 -4.90289e-10 0)
(0.005 -5.1428e-10 0)
(0.005 -5.391e-10 0)
(0.005 -5.64761e-10 0)
(0.005 -5.91269e-10 0)
(0.005 -6.18632e-10 0)
(0.005 -6.46856e-10 0)
(0.005 -6.75944e-10 0)
(0.005 -7.05898e-10 0)
(0.005 -7.36718e-10 0)
(0.005 -7.68402e-10 0)
(0.005 -8.00946e-10 0)
(0.005 -8.34343e-10 0)
(0.005 -8.68584e-10 0)
(0.005 -9.03657e-10 0)
(0.005 -9.39546e-10 0)
(0.005 -9.76232e-10 0)
(0.005 -1.01369e-09 0)
(0.005 -1.05191e-09 0)
(0.005 -1.09084e-09 0)
(0.005 -1.13045e-09 0)
(0.005 -1.17072e-09 0)
(0.005 -1.21158e-09 0)
(0.005 -1.253e-09 0)
(0.005 -1.29491e-09 0)
(0.005 -1.33725e-09 0)
(0.005 -1.37996e-09 0)
(0.005 -1.42295e-09 0)
(0.005 -1.46614e-09 0)
(0.005 -1.50943e-09 0)
(0.005 -1.55272e-09 0)
(0.005 -1.59588e-09 0)
(0.005 -1.63878e-09 0)
(0.005 -1.68126e-09 0)
(0.005 -1.72317e-09 0)
(0.005 -1.76431e-09 0)
(0.005 -1.80446e-09 0)
(0.005 -1.84337e-09 0)
(0.005 -1.88075e-09 0)
(0.005 -1.91626e-09 0)
(0.005 -1.94952e-09 0)
(0.005 -1.98006e-09 0)
(0.005 -2.0073e-09 0)
(0.005 -2.03038e-09 0)
(0.005 -2.04805e-09 0)
(0.005 -2.0572e-09 0)
(0.005 -7.12911e-13 0)
(0.005 -2.27808e-12 0)
(0.005 -3.96226e-12 0)
(0.005 -5.74301e-12 0)
(0.005 -7.6191e-12 0)
(0.005 -9.59494e-12 0)
(0.005 -1.16771e-11 0)
(0.005 -1.38736e-11 0)
(0.005 -1.61932e-11 0)
(0.005 -1.86456e-11 0)
(0.005 -2.12405e-11 0)
(0.005 -2.3988e-11 0)
(0.005 -2.68985e-11 0)
(0.005 -2.99824e-11 0)
(0.005 -3.32506e-11 0)
(0.005 -3.67139e-11 0)
(0.005 -4.03836e-11 0)
(0.005 -4.4271e-11 0)
(0.005 -4.83879e-11 0)
(0.005 -5.27462e-11 0)
(0.005 -5.73581e-11 0)
(0.005 -6.22362e-11 0)
(0.005 -6.73933e-11 0)
(0.005 -7.28426e-11 0)
(0.005 -7.85975e-11 0)
(0.005 -8.46717e-11 0)
(0.005 -9.10793e-11 0)
(0.005 -9.78348e-11 0)
(0.005 -1.04953e-10 0)
(0.005 -1.12448e-10 0)
(0.005 -1.20336e-10 0)
(0.005 -1.28632e-10 0)
(0.005 -1.37352e-10 0)
(0.005 -1.46513e-10 0)
(0.005 -1.56129e-10 0)
(0.005 -1.66218e-10 0)
(0.005 -1.76796e-10 0)
(0.005 -1.8788e-10 0)
(0.005 -1.99487e-10 0)
(0.005 -2.11634e-10 0)
(0.005 -2.24338e-10 0)
(0.005 -2.37616e-10 0)
(0.005 -2.51485e-10 0)
(0.005 -2.65962e-10 0)
(0.005 -2.81063e-10 0)
(0.005 -2.96807e-10 0)
(0.005 -3.13208e-10 0)
(0.005 -3.30283e-10 0)
(0.005 -3.48049e-10 0)
(0.005 -3.66521e-10 0)
(0.005 -3.85713e-10 0)
(0.005 -4.05641e-10 0)
(0.005 -4.26318e-10 0)
(0.005 -4.47758e-10 0)
(0.005 -4.69973e-10 0)
(0.005 -4.92975e-10 0)
(0.005 -5.16774e-10 0)
(0.005 -5.41381e-10 0)
(0.005 -5.66803e-10 0)
(0.005 -5.93049e-10 0)
(0.005 -6.20124e-10 0)
(0.005 -6.48033e-10 0)
(0.005 -6.76779e-10 0)
(0.005 -7.06363e-10 0)
(0.005 -7.36784e-10 0)
(0.005 -7.68041e-10 0)
(0.005 -8.00128e-10 0)
(0.005 -8.33039e-10 0)
(0.005 -8.66765e-10 0)
(0.005 -9.01292e-10 0)
(0.005 -9.36608e-10 0)
(0.005 -9.72694e-10 0)
(0.005 -1.00953e-09 0)
(0.005 -1.04709e-09 0)
(0.005 -1.08535e-09 0)
(0.005 -1.12427e-09 0)
(0.005 -1.16382e-09 0)
(0.005 -1.20396e-09 0)
(0.005 -1.24464e-09 0)
(0.005 -1.28582e-09 0)
(0.005 -1.32743e-09 0)
(0.005 -1.36941e-09 0)
(0.005 -1.41168e-09 0)
(0.005 -1.45418e-09 0)
(0.005 -1.49681e-09 0)
(0.005 -1.53946e-09 0)
(0.005 -1.58203e-09 0)
(0.005 -1.62439e-09 0)
(0.005 -1.66639e-09 0)
(0.005 -1.70785e-09 0)
(0.005 -1.74858e-09 0)
(0.005 -1.78835e-09 0)
(0.005 -1.82687e-09 0)
(0.005 -1.8638e-09 0)
(0.005 -1.89871e-09 0)
(0.005 -1.93107e-09 0)
(0.005 -1.96015e-09 0)
(0.005 -1.98485e-09 0)
(0.005 -2.00357e-09 0)
(0.005 -2.01318e-09 0)
(0.005 -6.61182e-13 0)
(0.005 -2.12063e-12 0)
(0.005 -3.70051e-12 0)
(0.005 -5.38039e-12 0)
(0.005 -7.1587e-12 0)
(0.005 -9.0386e-12 0)
(0.005 -1.10252e-11 0)
(0.005 -1.31249e-11 0)
(0.005 -1.53453e-11 0)
(0.005 -1.76947e-11 0)
(0.005 -2.01821e-11 0)
(0.005 -2.28166e-11 0)
(0.005 -2.56078e-11 0)
(0.005 -2.85657e-11 0)
(0.005 -3.17002e-11 0)
(0.005 -3.50218e-11 0)
(0.005 -3.85411e-11 0)
(0.005 -4.22689e-11 0)
(0.005 -4.62165e-11 0)
(0.005 -5.03952e-11 0)
(0.005 -5.48168e-11 0)
(0.005 -5.94931e-11 0)
(0.005 -6.44366e-11 0)
(0.005 -6.96596e-11 0)
(0.005 -7.51752e-11 0)
(0.005 -8.09965e-11 0)
(0.005 -8.71369e-11 0)
(0.005 -9.36102e-11 0)
(0.005 -1.0043e-10 0)
(0.005 -1.07612e-10 0)
(0.005 -1.15169e-10 0)
(0.005 -1.23117e-10 0)
(0.005 -1.3147e-10 0)
(0.005 -1.40245e-10 0)
(0.005 -1.49456e-10 0)
(0.005 -1.59119e-10 0)
(0.005 -1.69251e-10 0)
(0.005 -1.79867e-10 0)
(0.005 -1.90983e-10 0)
(0.005 -2.02616e-10 0)
(0.005 -2.14781e-10 0)
(0.005 -2.27496e-10 0)
(0.005 -2.40777e-10 0)
(0.005 -2.54639e-10 0)
(0.005 -2.69099e-10 0)
(0.005 -2.84174e-10 0)
(0.005 -2.99878e-10 0)
(0.005 -3.16228e-10 0)
(0.005 -3.33238e-10 0)
(0.005 -3.50925e-10 0)
(0.005 -3.69302e-10 0)
(0.005 -3.88384e-10 0)
(0.005 -4.08183e-10 0)
(0.005 -4.28714e-10 0)
(0.005 -4.49989e-10 0)
(0.005 -4.72018e-10 0)
(0.005 -4.94813e-10 0)
(0.005 -5.18384e-10 0)
(0.005 -5.42739e-10 0)
(0.005 -5.67886e-10 0)
(0.005 -5.93832e-10 0)
(0.005 -6.20582e-10 0)
(0.005 -6.4814e-10 0)
(0.005 -6.76508e-10 0)
(0.005 -7.05688e-10 0)
(0.005 -7.35678e-10 0)
(0.005 -7.66477e-10 0)
(0.005 -7.98079e-10 0)
(0.005 -8.30478e-10 0)
(0.005 -8.63666e-10 0)
(0.005 -8.97631e-10 0)
(0.005 -9.3236e-10 0)
(0.005 -9.67838e-10 0)
(0.005 -1.00404e-09 0)
(0.005 -1.04096e-09 0)
(0.005 -1.07856e-09 0)
(0.005 -1.11681e-09 0)
(0.005 -1.15568e-09 0)
(0.005 -1.19514e-09 0)
(0.005 -1.23514e-09 0)
(0.005 -1.27565e-09 0)
(0.005 -1.3166e-09 0)
(0.005 -1.35795e-09 0)
(0.005 -1.39962e-09 0)
(0.005 -1.44155e-09 0)
(0.005 -1.48364e-09 0)
(0.005 -1.52581e-09 0)
(0.005 -1.56795e-09 0)
(0.005 -1.60992e-09 0)
(0.005 -1.65157e-09 0)
(0.005 -1.69271e-09 0)
(0.005 -1.73311e-09 0)
(0.005 -1.77251e-09 0)
(0.005 -1.81052e-09 0)
(0.005 -1.84671e-09 0)
(0.005 -1.88044e-09 0)
(0.005 -1.91088e-09 0)
(0.005 -1.93677e-09 0)
(0.005 -1.95624e-09 0)
(0.005 -1.96694e-09 0)
(0.005 -6.13965e-13 0)
(0.005 -1.97533e-12 0)
(0.005 -3.45635e-12 0)
(0.005 -5.0386e-12 0)
(0.005 -6.7207e-12 0)
(0.005 -8.50518e-12 0)
(0.005 -1.03961e-11 0)
(0.005 -1.23989e-11 0)
(0.005 -1.452e-11 0)
(0.005 -1.67666e-11 0)
(0.005 -1.91469e-11 0)
(0.005 -2.1669e-11 0)
(0.005 -2.4342e-11 0)
(0.005 -2.7175e-11 0)
(0.005 -3.01775e-11 0)
(0.005 -3.33592e-11 0)
(0.005 -3.67302e-11 0)
(0.005 -4.03009e-11 0)
(0.005 -4.40818e-11 0)
(0.005 -4.80838e-11 0)
(0.005 -5.23181e-11 0)
(0.005 -5.6796e-11 0)
(0.005 -6.15294e-11 0)
(0.005 -6.65302e-11 0)
(0.005 -7.18106e-11 0)
(0.005 -7.73833e-11 0)
(0.005 -8.32611e-11 0)
(0.005 -8.94572e-11 0)
(0.005 -9.59849e-11 0)
(0.005 -1.02858e-10 0)
(0.005 -1.1009e-10 0)
(0.005 -1.17696e-10 0)
(0.005 -1.25689e-10 0)
(0.005 -1.34085e-10 0)
(0.005 -1.42898e-10 0)
(0.005 -1.52144e-10 0)
(0.005 -1.61837e-10 0)
(0.005 -1.71993e-10 0)
(0.005 -1.82627e-10 0)
(0.005 -1.93755e-10 0)
(0.005 -2.05392e-10 0)
(0.005 -2.17554e-10 0)
(0.005 -2.30257e-10 0)
(0.005 -2.43516e-10 0)
(0.005 -2.57346e-10 0)
(0.005 -2.71764e-10 0)
(0.005 -2.86784e-10 0)
(0.005 -3.02422e-10 0)
(0.005 -3.18691e-10 0)
(0.005 -3.35608e-10 0)
(0.005 -3.53184e-10 0)
(0.005 -3.71436e-10 0)
(0.005 -3.90374e-10 0)
(0.005 -4.10013e-10 0)
(0.005 -4.30365e-10 0)
(0.005 -4.5144e-10 0)
(0.005 -4.73249e-10 0)
(0.005 -4.95803e-10 0)
(0.005 -5.1911e-10 0)
(0.005 -5.43179e-10 0)
(0.005 -5.68017e-10 0)
(0.005 -5.93629e-10 0)
(0.005 -6.20021e-10 0)
(0.005 -6.47196e-10 0)
(0.005 -6.75156e-10 0)
(0.005 -7.03903e-10 0)
(0.005 -7.33435e-10 0)
(0.005 -7.63751e-10 0)
(0.005 -7.94847e-10 0)
(0.005 -8.26717e-10 0)
(0.005 -8.59354e-10 0)
(0.005 -8.92748e-10 0)
(0.005 -9.26888e-10 0)
(0.005 -9.6176e-10 0)
(0.005 -9.97348e-10 0)
(0.005 -1.03363e-09 0)
(0.005 -1.0706e-09 0)
(0.005 -1.10821e-09 0)
(0.005 -1.14645e-09 0)
(0.005 -1.18529e-09 0)
(0.005 -1.22468e-09 0)
(0.005 -1.2646e-09 0)
(0.005 -1.30499e-09 0)
(0.005 -1.34581e-09 0)
(0.005 -1.38699e-09 0)
(0.005 -1.42847e-09 0)
(0.005 -1.47017e-09 0)
(0.005 -1.51198e-09 0)
(0.005 -1.55381e-09 0)
(0.005 -1.59549e-09 0)
(0.005 -1.63687e-09 0)
(0.005 -1.6777e-09 0)
(0.005 -1.71771e-09 0)
(0.005 -1.75652e-09 0)
(0.005 -1.79362e-09 0)
(0.005 -1.82835e-09 0)
(0.005 -1.85978e-09 0)
(0.005 -1.88657e-09 0)
(0.005 -1.90691e-09 0)
(0.005 -1.91876e-09 0)
(0.005 -5.70391e-13 0)
(0.005 -1.8403e-12 0)
(0.005 -3.22773e-12 0)
(0.005 -4.71604e-12 0)
(0.005 -6.30427e-12 0)
(0.005 -7.99469e-12 0)
(0.005 -9.79075e-12 0)
(0.005 -1.1697e-11 0)
(0.005 -1.37192e-11 0)
(0.005 -1.58636e-11 0)
(0.005 -1.81373e-11 0)
(0.005 -2.05481e-11 0)
(0.005 -2.3104e-11 0)
(0.005 -2.58136e-11 0)
(0.005 -2.86857e-11 0)
(0.005 -3.17295e-11 0)
(0.005 -3.49545e-11 0)
(0.005 -3.83705e-11 0)
(0.005 -4.19875e-11 0)
(0.005 -4.58158e-11 0)
(0.005 -4.98661e-11 0)
(0.005 -5.41493e-11 0)
(0.005 -5.86764e-11 0)
(0.005 -6.34589e-11 0)
(0.005 -6.85086e-11 0)
(0.005 -7.38375e-11 0)
(0.005 -7.94577e-11 0)
(0.005 -8.53818e-11 0)
(0.005 -9.16226e-11 0)
(0.005 -9.81932e-11 0)
(0.005 -1.05107e-10 0)
(0.005 -1.12377e-10 0)
(0.005 -1.20017e-10 0)
(0.005 -1.28042e-10 0)
(0.005 -1.36465e-10 0)
(0.005 -1.45301e-10 0)
(0.005 -1.54564e-10 0)
(0.005 -1.64269e-10 0)
(0.005 -1.74431e-10 0)
(0.005 -1.85064e-10 0)
(0.005 -1.96183e-10 0)
(0.005 -2.07803e-10 0)
(0.005 -2.1994e-10 0)
(0.005 -2.32608e-10 0)
(0.005 -2.45822e-10 0)
(0.005 -2.59596e-10 0)
(0.005 -2.73946e-10 0)
(0.005 -2.88885e-10 0)
(0.005 -3.04429e-10 0)
(0.005 -3.2059e-10 0)
(0.005 -3.37383e-10 0)
(0.005 -3.54821e-10 0)
(0.005 -3.72916e-10 0)
(0.005 -3.91681e-10 0)
(0.005 -4.11128e-10 0)
(0.005 -4.31268e-10 0)
(0.005 -4.52112e-10 0)
(0.005 -4.7367e-10 0)
(0.005 -4.95951e-10 0)
(0.005 -5.18964e-10 0)
(0.005 -5.42715e-10 0)
(0.005 -5.67213e-10 0)
(0.005 -5.92462e-10 0)
(0.005 -6.18467e-10 0)
(0.005 -6.45232e-10 0)
(0.005 -6.7276e-10 0)
(0.005 -7.0105e-10 0)
(0.005 -7.30105e-10 0)
(0.005 -7.59921e-10 0)
(0.005 -7.90497e-10 0)
(0.005 -8.21828e-10 0)
(0.005 -8.53909e-10 0)
(0.005 -8.86733e-10 0)
(0.005 -9.2029e-10 0)
(0.005 -9.5457e-10 0)
(0.005 -9.89561e-10 0)
(0.005 -1.02525e-09 0)
(0.005 -1.06161e-09 0)
(0.005 -1.09864e-09 0)
(0.005 -1.13631e-09 0)
(0.005 -1.17459e-09 0)
(0.005 -1.21345e-09 0)
(0.005 -1.25286e-09 0)
(0.005 -1.29279e-09 0)
(0.005 -1.33319e-09 0)
(0.005 -1.37399e-09 0)
(0.005 -1.41514e-09 0)
(0.005 -1.45654e-09 0)
(0.005 -1.4981e-09 0)
(0.005 -1.53969e-09 0)
(0.005 -1.58112e-09 0)
(0.005 -1.62218e-09 0)
(0.005 -1.66257e-09 0)
(0.005 -1.70189e-09 0)
(0.005 -1.73962e-09 0)
(0.005 -1.77504e-09 0)
(0.005 -1.80715e-09 0)
(0.005 -1.8346e-09 0)
(0.005 -1.85555e-09 0)
(0.005 -1.86795e-09 0)
(0.005 -5.29881e-13 0)
(0.005 -1.71416e-12 0)
(0.005 -3.01299e-12 0)
(0.005 -4.41124e-12 0)
(0.005 -5.90844e-12 0)
(0.005 -7.5068e-12 0)
(0.005 -9.20941e-12 0)
(0.005 -1.10203e-11 0)
(0.005 -1.29444e-11 0)
(0.005 -1.49874e-11 0)
(0.005 -1.71556e-11 0)
(0.005 -1.94561e-11 0)
(0.005 -2.18963e-11 0)
(0.005 -2.44841e-11 0)
(0.005 -2.72278e-11 0)
(0.005 -3.01358e-11 0)
(0.005 -3.32172e-11 0)
(0.005 -3.64812e-11 0)
(0.005 -3.99372e-11 0)
(0.005 -4.35951e-11 0)
(0.005 -4.74649e-11 0)
(0.005 -5.1557e-11 0)
(0.005 -5.5882e-11 0)
(0.005 -6.04507e-11 0)
(0.005 -6.52743e-11 0)
(0.005 -7.03642e-11 0)
(0.005 -7.57322e-11 0)
(0.005 -8.139e-11 0)
(0.005 -8.73499e-11 0)
(0.005 -9.36244e-11 0)
(0.005 -1.00226e-10 0)
(0.005 -1.07168e-10 0)
(0.005 -1.14463e-10 0)
(0.005 -1.22124e-10 0)
(0.005 -1.30165e-10 0)
(0.005 -1.386e-10 0)
(0.005 -1.47443e-10 0)
(0.005 -1.56707e-10 0)
(0.005 -1.66406e-10 0)
(0.005 -1.76555e-10 0)
(0.005 -1.87167e-10 0)
(0.005 -1.98258e-10 0)
(0.005 -2.09841e-10 0)
(0.005 -2.2193e-10 0)
(0.005 -2.34541e-10 0)
(0.005 -2.47686e-10 0)
(0.005 -2.6138e-10 0)
(0.005 -2.75637e-10 0)
(0.005 -2.9047e-10 0)
(0.005 -3.05894e-10 0)
(0.005 -3.2192e-10 0)
(0.005 -3.38562e-10 0)
(0.005 -3.55832e-10 0)
(0.005 -3.73743e-10 0)
(0.005 -3.92306e-10 0)
(0.005 -4.11532e-10 0)
(0.005 -4.31432e-10 0)
(0.005 -4.52016e-10 0)
(0.005 -4.73293e-10 0)
(0.005 -4.95272e-10 0)
(0.005 -5.17962e-10 0)
(0.005 -5.41369e-10 0)
(0.005 -5.655e-10 0)
(0.005 -5.9036e-10 0)
(0.005 -6.15956e-10 0)
(0.005 -6.42289e-10 0)
(0.005 -6.69364e-10 0)
(0.005 -6.97182e-10 0)
(0.005 -7.25745e-10 0)
(0.005 -7.55052e-10 0)
(0.005 -7.85103e-10 0)
(0.005 -8.15894e-10 0)
(0.005 -8.47424e-10 0)
(0.005 -8.79687e-10 0)
(0.005 -9.12678e-10 0)
(0.005 -9.4639e-10 0)
(0.005 -9.80814e-10 0)
(0.005 -1.01594e-09 0)
(0.005 -1.05176e-09 0)
(0.005 -1.08825e-09 0)
(0.005 -1.12541e-09 0)
(0.005 -1.16321e-09 0)
(0.005 -1.20163e-09 0)
(0.005 -1.24063e-09 0)
(0.005 -1.28019e-09 0)
(0.005 -1.32026e-09 0)
(0.005 -1.36078e-09 0)
(0.005 -1.40168e-09 0)
(0.005 -1.44287e-09 0)
(0.005 -1.48421e-09 0)
(0.005 -1.52554e-09 0)
(0.005 -1.56663e-09 0)
(0.005 -1.60719e-09 0)
(0.005 -1.64679e-09 0)
(0.005 -1.68489e-09 0)
(0.005 -1.72073e-09 0)
(0.005 -1.75329e-09 0)
(0.005 -1.78117e-09 0)
(0.005 -1.80256e-09 0)
(0.005 -1.81528e-09 0)
(0.005 -4.92027e-13 0)
(0.005 -1.59589e-12 0)
(0.005 -2.81079e-12 0)
(0.005 -4.12291e-12 0)
(0.005 -5.53221e-12 0)
(0.005 -7.04097e-12 0)
(0.005 -8.65205e-12 0)
(0.005 -1.03691e-11 0)
(0.005 -1.21965e-11 0)
(0.005 -1.41394e-11 0)
(0.005 -1.62035e-11 0)
(0.005 -1.83952e-11 0)
(0.005 -2.07214e-11 0)
(0.005 -2.31892e-11 0)
(0.005 -2.58064e-11 0)
(0.005 -2.8581e-11 0)
(0.005 -3.15213e-11 0)
(0.005 -3.46361e-11 0)
(0.005 -3.79343e-11 0)
(0.005 -4.14251e-11 0)
(0.005 -4.51182e-11 0)
(0.005 -4.90232e-11 0)
(0.005 -5.31502e-11 0)
(0.005 -5.75097e-11 0)
(0.005 -6.21121e-11 0)
(0.005 -6.69684e-11 0)
(0.005 -7.20896e-11 0)
(0.005 -7.74871e-11 0)
(0.005 -8.31724e-11 0)
(0.005 -8.91575e-11 0)
(0.005 -9.54543e-11 0)
(0.005 -1.02075e-10 0)
(0.005 -1.09032e-10 0)
(0.005 -1.16339e-10 0)
(0.005 -1.24007e-10 0)
(0.005 -1.3205e-10 0)
(0.005 -1.40482e-10 0)
(0.005 -1.49315e-10 0)
(0.005 -1.58562e-10 0)
(0.005 -1.68238e-10 0)
(0.005 -1.78356e-10 0)
(0.005 -1.88929e-10 0)
(0.005 -1.99971e-10 0)
(0.005 -2.11496e-10 0)
(0.005 -2.23517e-10 0)
(0.005 -2.36048e-10 0)
(0.005 -2.49102e-10 0)
(0.005 -2.62693e-10 0)
(0.005 -2.76833e-10 0)
(0.005 -2.91536e-10 0)
(0.005 -3.06813e-10 0)
(0.005 -3.22679e-10 0)
(0.005 -3.39144e-10 0)
(0.005 -3.56221e-10 0)
(0.005 -3.7392e-10 0)
(0.005 -3.92254e-10 0)
(0.005 -4.11232e-10 0)
(0.005 -4.30865e-10 0)
(0.005 -4.51163e-10 0)
(0.005 -4.72133e-10 0)
(0.005 -4.93786e-10 0)
(0.005 -5.16128e-10 0)
(0.005 -5.39167e-10 0)
(0.005 -5.62909e-10 0)
(0.005 -5.87361e-10 0)
(0.005 -6.12528e-10 0)
(0.005 -6.38414e-10 0)
(0.005 -6.65023e-10 0)
(0.005 -6.92359e-10 0)
(0.005 -7.20423e-10 0)
(0.005 -7.49218e-10 0)
(0.005 -7.78745e-10 0)
(0.005 -8.09004e-10 0)
(0.005 -8.39995e-10 0)
(0.005 -8.71716e-10 0)
(0.005 -9.04166e-10 0)
(0.005 -9.37342e-10 0)
(0.005 -9.7124e-10 0)
(0.005 -1.00586e-09 0)
(0.005 -1.04118e-09 0)
(0.005 -1.07721e-09 0)
(0.005 -1.11393e-09 0)
(0.005 -1.15132e-09 0)
(0.005 -1.18938e-09 0)
(0.005 -1.22806e-09 0)
(0.005 -1.26734e-09 0)
(0.005 -1.30716e-09 0)
(0.005 -1.34747e-09 0)
(0.005 -1.38817e-09 0)
(0.005 -1.42914e-09 0)
(0.005 -1.47021e-09 0)
(0.005 -1.51117e-09 0)
(0.005 -1.55169e-09 0)
(0.005 -1.59136e-09 0)
(0.005 -1.6296e-09 0)
(0.005 -1.66564e-09 0)
(0.005 -1.69843e-09 0)
(0.005 -1.72657e-09 0)
(0.005 -1.74821e-09 0)
(0.005 -1.7611e-09 0)
(0.005 -4.56531e-13 0)
(0.005 -1.48468e-12 0)
(0.005 -2.62006e-12 0)
(0.005 -3.84993e-12 0)
(0.005 -5.17464e-12 0)
(0.005 -6.59654e-12 0)
(0.005 -8.11842e-12 0)
(0.005 -9.74362e-12 0)
(0.005 -1.14761e-11 0)
(0.005 -1.33206e-11 0)
(0.005 -1.52823e-11 0)
(0.005 -1.7367e-11 0)
(0.005 -1.95809e-11 0)
(0.005 -2.19308e-11 0)
(0.005 -2.44238e-11 0)
(0.005 -2.70675e-11 0)
(0.005 -2.98695e-11 0)
(0.005 -3.28381e-11 0)
(0.005 -3.59817e-11 0)
(0.005 -3.9309e-11 0)
(0.005 -4.28291e-11 0)
(0.005 -4.65512e-11 0)
(0.005 -5.04848e-11 0)
(0.005 -5.46398e-11 0)
(0.005 -5.90262e-11 0)
(0.005 -6.36542e-11 0)
(0.005 -6.85345e-11 0)
(0.005 -7.36778e-11 0)
(0.005 -7.90952e-11 0)
(0.005 -8.47977e-11 0)
(0.005 -9.0797e-11 0)
(0.005 -9.71046e-11 0)
(0.005 -1.03732e-10 0)
(0.005 -1.10692e-10 0)
(0.005 -1.17997e-10 0)
(0.005 -1.25658e-10 0)
(0.005 -1.33689e-10 0)
(0.005 -1.42102e-10 0)
(0.005 -1.50909e-10 0)
(0.005 -1.60124e-10 0)
(0.005 -1.69759e-10 0)
(0.005 -1.79828e-10 0)
(0.005 -1.90343e-10 0)
(0.005 -2.01317e-10 0)
(0.005 -2.12764e-10 0)
(0.005 -2.24696e-10 0)
(0.005 -2.37126e-10 0)
(0.005 -2.50067e-10 0)
(0.005 -2.63532e-10 0)
(0.005 -2.77532e-10 0)
(0.005 -2.9208e-10 0)
(0.005 -3.07189e-10 0)
(0.005 -3.22869e-10 0)
(0.005 -3.39133e-10 0)
(0.005 -3.55992e-10 0)
(0.005 -3.73456e-10 0)
(0.005 -3.91536e-10 0)
(0.005 -4.10242e-10 0)
(0.005 -4.29584e-10 0)
(0.005 -4.49571e-10 0)
(0.005 -4.70212e-10 0)
(0.005 -4.91516e-10 0)
(0.005 -5.13489e-10 0)
(0.005 -5.36141e-10 0)
(0.005 -5.59477e-10 0)
(0.005 -5.83505e-10 0)
(0.005 -6.0823e-10 0)
(0.005 -6.33658e-10 0)
(0.005 -6.59794e-10 0)
(0.005 -6.86643e-10 0)
(0.005 -7.1421e-10 0)
(0.005 -7.42497e-10 0)
(0.005 -7.7151e-10 0)
(0.005 -8.01251e-10 0)
(0.005 -8.31723e-10 0)
(0.005 -8.62929e-10 0)
(0.005 -8.94871e-10 0)
(0.005 -9.27551e-10 0)
(0.005 -9.6097e-10 0)
(0.005 -9.95127e-10 0)