/*--------------------------------*- C++ -*----------------------------------*\
  =========                 |
  \\      /  F ield         | OpenFOAM: The Open Source CFD Toolbox
   \\    /   O peration     | Website:  https://openfoam.org
    \\  /    A nd           | Version:  11
     \\/     M anipulation  |
\*---------------------------------------------------------------------------*/
FoamFile
{
    format      ascii;
    class       volScalarField;
    location    "336";
    object      omega;
}
// * * * * * * * * * * * * * * * * * * * * * * * * * * * * * * * * * * * * * //

dimensions      [0 0 -1 0 0 0 0];

internalField   nonuniform List<scalar> 
10000
(
0.961694
0.892189
0.82909
0.771732
0.719526
0.671944
0.628518
0.588831
0.552512
0.519228
0.488683
0.460613
0.434781
0.410975
0.389006
0.368703
0.349916
0.332506
0.31635
0.301339
0.287372
0.27436
0.262221
0.250883
0.240279
0.230348
0.221037
0.212297
0.204082
0.196351
0.189067
0.182197
0.175709
0.169574
0.163767
0.158264
0.153042
0.148082
0.143365
0.138873
0.13459
0.130501
0.126593
0.122853
0.119269
0.115829
0.112524
0.109343
0.106278
0.10332
0.100462
0.0976969
0.0950188
0.0924221
0.0899021
0.0874548
0.085077
0.0827663
0.0805209
0.0783398
0.0762225
0.0741691
0.0721801
0.0702565
0.0683991
0.066609
0.0648875
0.0632355
0.061654
0.0601434
0.0587038
0.0573348
0.0560355
0.0548048
0.0536411
0.0525428
0.0515081
0.0505347
0.0496205
0.048763
0.0479599
0.0472089
0.0465074
0.0458533
0.0452444
0.0446786
0.0441539
0.0436686
0.0432212
0.0428102
0.0424346
0.0420934
0.0417862
0.0415126
0.0412728
0.0410672
0.040897
0.0407639
0.0406705
0.0406205
0.961694
0.892189
0.82909
0.771733
0.719526
0.671944
0.628518
0.588832
0.552512
0.519229
0.488684
0.460613
0.434781
0.410975
0.389006
0.368704
0.349916
0.332506
0.316351
0.30134
0.287373
0.274361
0.262222
0.250884
0.240279
0.230349
0.221038
0.212298
0.204082
0.196352
0.189068
0.182198
0.175709
0.169575
0.163768
0.158265
0.153043
0.148083
0.143366
0.138874
0.134591
0.130503
0.126595
0.122855
0.119271
0.115831
0.112526
0.109345
0.10628
0.103323
0.100465
0.0977006
0.0950228
0.0924265
0.0899068
0.0874598
0.0850824
0.082772
0.0805269
0.0783461
0.0762291
0.0741759
0.0721872
0.0702638
0.0684066
0.0666167
0.0648954
0.0632437
0.0616622
0.0601515
0.0587117
0.0573423
0.0560426
0.0548114
0.0536474
0.0525488
0.0515138
0.0505401
0.0496256
0.0487678
0.0479645
0.0472131
0.0465114
0.0458571
0.0452479
0.0446818
0.0441569
0.0436714
0.0432238
0.0428126
0.0424369
0.0420956
0.0417882
0.0415145
0.0412746
0.0410689
0.0408986
0.0407654
0.040672
0.0406219
0.961694
0.892189
0.82909
0.771733
0.719526
0.671945
0.628519
0.588833
0.552513
0.519229
0.488685
0.460614
0.434782
0.410976
0.389007
0.368705
0.349917
0.332507
0.316352
0.301341
0.287374
0.274362
0.262223
0.250885
0.24028
0.23035
0.221039
0.212299
0.204084
0.196353
0.189069
0.182199
0.175711
0.169576
0.16377
0.158267
0.153045
0.148085
0.143368
0.138876
0.134593
0.130505
0.126598
0.122858
0.119274
0.115835
0.11253
0.109349
0.106285
0.103328
0.10047
0.0977062
0.0950289
0.0924331
0.089914
0.0874676
0.0850907
0.0827809
0.0805364
0.0783561
0.0762396
0.0741869
0.0721986
0.0702754
0.0684186
0.066629
0.0649079
0.0632563
0.0616749
0.0601641
0.058724
0.0573543
0.0560542
0.0548226
0.0536582
0.0525591
0.0515236
0.0505494
0.0496344
0.0487762
0.0479724
0.0472206
0.0465184
0.0458637
0.0452541
0.0446876
0.0441623
0.0436765
0.0432285
0.0428171
0.042441
0.0420995
0.0417919
0.041518
0.0412779
0.0410721
0.0409017
0.0407684
0.0406749
0.0406248
0.961694
0.892189
0.82909
0.771733
0.719527
0.671945
0.62852
0.588834
0.552514
0.519231
0.488686
0.460616
0.434784
0.410978
0.389009
0.368706
0.349919
0.332509
0.316354
0.301342
0.287376
0.274363
0.262225
0.250886
0.240282
0.230352
0.221041
0.212301
0.204085
0.196355
0.189071
0.182201
0.175713
0.169578
0.163772
0.158269
0.153048
0.148088
0.143371
0.138879
0.134596
0.130509
0.126601
0.122862
0.119278
0.115839
0.112535
0.109355
0.106291
0.103334
0.100477
0.0977139
0.0950373
0.0924422
0.0899238
0.0874782
0.0851021
0.0827931
0.0805494
0.0783698
0.076254
0.0742019
0.0722142
0.0702916
0.0684351
0.0666459
0.064925
0.0632736
0.0616921
0.0601812
0.0587409
0.0573708
0.0560702
0.0548381
0.0536731
0.0525734
0.0515373
0.0505625
0.0496469
0.048788
0.0479835
0.0472311
0.0465283
0.045873
0.0452628
0.0446958
0.0441701
0.0436837
0.0432353
0.0428235
0.042447
0.0421051
0.0417973
0.0415231
0.0412827
0.0410767
0.0409061
0.0407727
0.0406792
0.040629
0.961694
0.892189
0.829091
0.771734
0.719528
0.671946
0.628521
0.588835
0.552516
0.519232
0.488687
0.460617
0.434785
0.410979
0.38901
0.368708
0.349921
0.332511
0.316355
0.301344
0.287378
0.274365
0.262227
0.250888
0.240284
0.230354
0.221043
0.212303
0.204088
0.196357
0.189074
0.182203
0.175715
0.169581
0.163775
0.158272
0.153051
0.148091
0.143374
0.138883
0.1346
0.130513
0.126606
0.122867
0.119284
0.115845
0.112541
0.109362
0.106298
0.103342
0.100487
0.0977238
0.0950481
0.0924538
0.0899364
0.0874918
0.0851167
0.0828086
0.0805659
0.0783872
0.0762723
0.074221
0.072234
0.070312
0.068456
0.0666672
0.0649466
0.0632952
0.0617138
0.0602027
0.0587621
0.0573916
0.0560905
0.0548577
0.053692
0.0525916
0.0515547
0.0505791
0.0496627
0.048803
0.0479977
0.0472445
0.046541
0.0458849
0.0452741
0.0447064
0.04418
0.0436931
0.0432441
0.0428317
0.0424548
0.0421125
0.0418042
0.0415297
0.041289
0.0410827
0.0409119
0.0407784
0.0406847
0.0406345
0.961694
0.892189
0.829091
0.771734
0.719528
0.671947
0.628522
0.588836
0.552517
0.519233
0.488689
0.460619
0.434787
0.410981
0.389012
0.36871
0.349923
0.332513
0.316358
0.301347
0.28738
0.274368
0.262229
0.250891
0.240287
0.230356
0.221046
0.212305
0.20409
0.19636
0.189076
0.182206
0.175719
0.169584
0.163778
0.158275
0.153054
0.148095
0.143378
0.138887
0.134605
0.130518
0.126612
0.122873
0.11929
0.115852
0.112549
0.10937
0.106308
0.103352
0.100497
0.0977357
0.095061
0.0924678
0.0899515
0.087508
0.0851341
0.0828273
0.0805856
0.0784081
0.0762941
0.0742438
0.0722576
0.0703363
0.0684809
0.0666925
0.0649722
0.063321
0.0617395
0.0602283
0.0587873
0.0574162
0.0561145
0.0548811
0.0537145
0.0526133
0.0515755
0.050599
0.0496816
0.048821
0.0480148
0.0472606
0.0465562
0.0458993
0.0452876
0.0447191
0.044192
0.0437043
0.0432547
0.0428417
0.0424642
0.0421214
0.0418126
0.0415377
0.0412966
0.0410901
0.040919
0.0407853
0.0406915
0.0406411
0.961694
0.892189
0.829091
0.771735
0.719529
0.671948
0.628523
0.588837
0.552518
0.519235
0.488691
0.460621
0.434789
0.410983
0.389015
0.368713
0.349925
0.332515
0.31636
0.301349
0.287382
0.27437
0.262232
0.250894
0.240289
0.230359
0.221049
0.212308
0.204094
0.196363
0.18908
0.18221
0.175722
0.169588
0.163782
0.15828
0.153059
0.1481
0.143383
0.138892
0.134611
0.130524
0.126618
0.12288
0.119298
0.115861
0.112558
0.10938
0.106318
0.103364
0.10051
0.0977495
0.095076
0.0924841
0.089969
0.0875268
0.0851542
0.0828487
0.0806083
0.078432
0.0763193
0.07427
0.0722847
0.0703642
0.0685095
0.0667216
0.0650016
0.0633505
0.061769
0.0602574
0.058816
0.0574445
0.056142
0.0549078
0.0537404
0.0526382
0.0515994
0.0506218
0.0497034
0.0488417
0.0480344
0.0472792
0.0465738
0.0459159
0.0453032
0.0447339
0.0442058
0.0437174
0.043267
0.0428533
0.0424752
0.0421317
0.0418224
0.041547
0.0413056
0.0410986
0.0409273
0.0407934
0.0406993
0.0406489
0.961694
0.892189
0.829091
0.771735
0.719529
0.671948
0.628524
0.588838
0.55252
0.519236
0.488692
0.460623
0.434791
0.410986
0.389017
0.368715
0.349928
0.332518
0.316363
0.301352
0.287385
0.274373
0.262235
0.250897
0.240293
0.230363
0.221052
0.212312
0.204097
0.196367
0.189084
0.182214
0.175726
0.169593
0.163787
0.158284
0.153064
0.148105
0.143389
0.138899
0.134618
0.130531
0.126626
0.122888
0.119307
0.11587
0.112568
0.109391
0.106331
0.103377
0.100525
0.0977652
0.0950929
0.0925023
0.0899887
0.087548
0.0851768
0.0828727
0.0806338
0.0784588
0.0763473
0.0742993
0.072315
0.0703954
0.0685413
0.0667539
0.0650343
0.0633833
0.0618017
0.0602899
0.0588481
0.0574759
0.0561727
0.0549376
0.0537692
0.052666
0.051626
0.0506473
0.0497277
0.0488648
0.0480564
0.0473001
0.0465935
0.0459345
0.0453208
0.0447504
0.0442214
0.0437321
0.0432809
0.0428664
0.0424875
0.0421434
0.0418335
0.0415576
0.0413157
0.0411084
0.0409367
0.0408025
0.0407083
0.0406577
0.961694
0.892189
0.829091
0.771735
0.71953
0.671949
0.628524
0.588839
0.552521
0.519238
0.488694
0.460624
0.434793
0.410988
0.389019
0.368717
0.34993
0.33252
0.316366
0.301355
0.287388
0.274376
0.262238
0.2509
0.240296
0.230366
0.221056
0.212316
0.204101
0.196371
0.189088
0.182218
0.175731
0.169597
0.163792
0.15829
0.15307
0.148111
0.143396
0.138905
0.134625
0.130539
0.126634
0.122897
0.119317
0.115881
0.11258
0.109404
0.106344
0.103392
0.100541
0.0977824
0.0951116
0.0925225
0.0900104
0.0875712
0.0852016
0.0828991
0.0806617
0.0784882
0.0763781
0.0743313
0.0723482
0.0704295
0.0685762
0.0667893
0.06507
0.0634192
0.0618375
0.0603254
0.058883
0.0575102
0.0562062
0.0549701
0.0538007
0.0526963
0.0516552
0.0506753
0.0497544
0.0488902
0.0480805
0.047323
0.0466152
0.045955
0.0453401
0.0447687
0.0442386
0.0437483
0.0432962
0.0428808
0.0425012
0.0421564
0.0418458
0.0415693
0.0413269
0.0411191
0.0409471
0.0408126
0.0407182
0.0406675
0.961694
0.892189
0.829091
0.771735
0.71953
0.671949
0.628525
0.58884
0.552522
0.519239
0.488695
0.460626
0.434795
0.41099
0.389021
0.36872
0.349933
0.332523
0.316368
0.301358
0.287391
0.27438
0.262241
0.250903
0.2403
0.23037
0.22106
0.21232
0.204105
0.196375
0.189092
0.182223
0.175736
0.169603
0.163797
0.158296
0.153076
0.148118
0.143403
0.138913
0.134633
0.130548
0.126643
0.122907
0.119327
0.115893
0.112593
0.109418
0.106359
0.103408
0.100558
0.0978012
0.0951319
0.0925443
0.0900339
0.0875964
0.0852285
0.0829276
0.0806918
0.0785199
0.0764113
0.0743658
0.0723838
0.0704661
0.0686136
0.0668274
0.0651084
0.0634577
0.0618759
0.0603635
0.0589206
0.0575471
0.0562422
0.0550052
0.0538346
0.052729
0.0516866
0.0507054
0.0497831
0.0489176
0.0481066
0.0473477
0.0466386
0.0459771
0.0453611
0.0447884
0.0442573
0.0437659
0.0433128
0.0428965
0.042516
0.0421704
0.0418592
0.041582
0.0413391
0.0411308
0.0409584
0.0408236
0.040729
0.0406781
0.961694
0.892189
0.829091
0.771735
0.71953
0.67195
0.628526
0.588841
0.552523
0.51924
0.488697
0.460628
0.434797
0.410992
0.389023
0.368722
0.349935
0.332526
0.316371
0.301361
0.287394
0.274383
0.262245
0.250907
0.240303
0.230374
0.221064
0.212324
0.20411
0.19638
0.189097
0.182228
0.175741
0.169608
0.163803
0.158302
0.153083
0.148125
0.14341
0.138921
0.134642
0.130557
0.126653
0.122918
0.119339
0.115905
0.112606
0.109432
0.106375
0.103425
0.100577
0.0978214
0.0951536
0.0925678
0.090059
0.0876233
0.0852571
0.082958
0.080724
0.0785537
0.0764466
0.0744025
0.0724218
0.0705051
0.0686535
0.0668678
0.0651492
0.0634986
0.0619167
0.0604039
0.0589605
0.0575862
0.0562805
0.0550424
0.0538706
0.0527638
0.05172
0.0507374
0.0498137
0.0489468
0.0481343
0.047374
0.0466635
0.0460007
0.0453834
0.0448095
0.0442772
0.0437847
0.0433305
0.0429133
0.0425319
0.0421855
0.0418735
0.0415957
0.0413522
0.0411434
0.0409706
0.0408354
0.0407406
0.0406895
0.961694
0.892189
0.829091
0.771735
0.71953
0.67195
0.628526
0.588841
0.552524
0.519241
0.488698
0.460629
0.434798
0.410994
0.389026
0.368724
0.349938
0.332529
0.316374
0.301364
0.287398
0.274386
0.262248
0.250911
0.240307
0.230378
0.221068
0.212328
0.204114
0.196385
0.189102
0.182234
0.175747
0.169614
0.16381
0.158309
0.15309
0.148132
0.143418
0.13893
0.134651
0.130567
0.126664
0.12293
0.119352
0.115919
0.112621
0.109448
0.106392
0.103444
0.100597
0.0978429
0.0951767
0.0925926
0.0900856
0.0876517
0.0852874
0.0829901
0.0807579
0.0785893
0.0764838
0.0744411
0.0724617
0.0705461
0.0686953
0.0669103
0.065192
0.0635415
0.0619595
0.0604464
0.0590024
0.0576274
0.0563207
0.0550814
0.0539085
0.0528003
0.0517552
0.0507711
0.049846
0.0489775
0.0481636
0.0474018
0.0466899
0.0460256
0.045407
0.0448318
0.0442983
0.0438046
0.0433493
0.0429311
0.0425488
0.0422015
0.0418887
0.0416102
0.041366
0.0411568
0.0409835
0.040848
0.0407529
0.0407017
0.961694
0.892189
0.829091
0.771735
0.71953
0.67195
0.628526
0.588842
0.552524
0.519242
0.488699
0.460631
0.4348
0.410995
0.389028
0.368727
0.34994
0.332531
0.316377
0.301367
0.287401
0.27439
0.262252
0.250915
0.240311
0.230382
0.221072
0.212333
0.204119
0.19639
0.189108
0.182239
0.175753
0.169621
0.163816
0.158316
0.153097
0.148141
0.143427
0.138939
0.134661
0.130578
0.126676
0.122942
0.119365
0.115933
0.112636
0.109465
0.10641
0.103463
0.100617
0.0978654
0.095201
0.0926187
0.0901135
0.0876815
0.0853191
0.0830237
0.0807933
0.0786265
0.0765226
0.0744815
0.0725033
0.0705889
0.0687389
0.0669545
0.0652367
0.0635863
0.0620041
0.0604907
0.0590461
0.0576702
0.0563625
0.0551222
0.053948
0.0528384
0.0517918
0.0508063
0.0498796
0.0490096
0.0481941
0.0474308
0.0467174
0.0460517
0.0454316
0.0448551
0.0443203
0.0438255
0.0433691
0.0429498
0.0425665
0.0422183
0.0419047
0.0416255
0.0413806
0.0411708
0.0409971
0.0408612
0.0407658
0.0407145
0.961694
0.892189
0.829091
0.771735
0.71953
0.67195
0.628527
0.588842
0.552525
0.519243
0.4887
0.460632
0.434801
0.410997
0.389029
0.368729
0.349942
0.332534
0.31638
0.30137
0.287404
0.274393
0.262256
0.250918
0.240315
0.230386
0.221077
0.212338
0.204124
0.196395
0.189113
0.182245
0.175759
0.169627
0.163823
0.158323
0.153105
0.148149
0.143436
0.138949
0.134671
0.130589
0.126687
0.122955
0.119379
0.115948
0.112652
0.109482
0.106429
0.103484
0.100639
0.0978889
0.0952263
0.0926458
0.0901426
0.0877124
0.085352
0.0830586
0.08083
0.078665
0.0765628
0.0745232
0.0725464
0.0706331
0.068784
0.0670003
0.0652828
0.0636326
0.0620503
0.0605364
0.0590912
0.0577146
0.0564059
0.0551643
0.0539888
0.0528779
0.0518298
0.0508427
0.0499144
0.0490429
0.0482258
0.0474609
0.046746
0.0460788
0.0454573
0.0448794
0.0443433
0.0438472
0.0433896
0.0429692
0.0425849
0.0422358
0.0419214
0.0416413
0.0413958
0.0411854
0.0410112
0.040875
0.0407793
0.0407278
0.961694
0.892189
0.829091
0.771735
0.71953
0.67195
0.628527
0.588843
0.552525
0.519244
0.488701
0.460633
0.434803
0.410999
0.389031
0.368731
0.349945
0.332536
0.316382
0.301373
0.287407
0.274396
0.262259
0.250922
0.240319
0.23039
0.221081
0.212343
0.204129
0.1964
0.189119
0.182251
0.175766
0.169634
0.163831
0.158331
0.153113
0.148158
0.143445
0.138959
0.134682
0.1306
0.1267
0.122968
0.119393
0.115963
0.112669
0.1095
0.106448
0.103505
0.100662
0.0979133
0.0952524
0.0926738
0.0901725
0.0877444
0.085386
0.0830945
0.0808678
0.0787047
0.0766042
0.0745661
0.0725907
0.0706785
0.0688304
0.0670473
0.0653302
0.0636801
0.0620976
0.0605834
0.0591376
0.0577601
0.0564504
0.0552077
0.0540308
0.0529184
0.0518688
0.0508801
0.0499503
0.0490771
0.0482584
0.0474919
0.0467754
0.0461067
0.0454837
0.0449044
0.0443669
0.0438696
0.0434108
0.0429893
0.0426039
0.0422539
0.0419386
0.0416578
0.0414116
0.0412006
0.0410259
0.0408892
0.0407933
0.0407417
0.961694
0.892189
0.829091
0.771735
0.71953
0.67195
0.628527
0.588843
0.552526
0.519244
0.488702
0.460634
0.434804
0.411
0.389033
0.368733
0.349947
0.332539
0.316385
0.301375
0.28741
0.2744
0.262263
0.250926
0.240323
0.230395
0.221086
0.212347
0.204134
0.196406
0.189125
0.182257
0.175772
0.169641
0.163838
0.158339
0.153122
0.148167
0.143455
0.138969
0.134693
0.130612
0.126713
0.122982
0.119408
0.115979
0.112686
0.109519
0.106468
0.103526
0.100685
0.0979383
0.0952793
0.0927026
0.0902033
0.0877772
0.0854207
0.0831312
0.0809065
0.0787452
0.0766465
0.07461
0.0726359
0.0707249
0.0688777
0.0670952
0.0653786
0.0637286
0.062146
0.0606314
0.059185
0.0578066
0.0564958
0.0552519
0.0540737
0.0529599
0.0519088
0.0509185
0.049987
0.0491121
0.0482918
0.0475236
0.0468055
0.0461353
0.0455108
0.0449301
0.0443912
0.0438926
0.0434326
0.0430099
0.0426235
0.0422724
0.0419562
0.0416746
0.0414278
0.0412161
0.0410409
0.0409039
0.0408076
0.0407559
0.961694
0.892189
0.829091
0.771735
0.71953
0.67195
0.628527
0.588843
0.552526
0.519245
0.488703
0.460635
0.434805
0.411001
0.389034
0.368734
0.349949
0.332541
0.316387
0.301378
0.287413
0.274403
0.262266
0.25093
0.240327
0.230399
0.221091
0.212352
0.20414
0.196412
0.189131
0.182264
0.175779
0.169648
0.163846
0.158347
0.153131
0.148176
0.143465
0.13898
0.134705
0.130625
0.126726
0.122996
0.119423
0.115996
0.112704
0.109538
0.106489
0.103548
0.100709
0.097964
0.0953068
0.092732
0.0902347
0.0878106
0.0854562
0.0831687
0.080946
0.0787865
0.0766895
0.0746546
0.0726819
0.0707721
0.0689258
0.067144
0.0654277
0.0637779
0.0621952
0.0606802
0.0592331
0.0578538
0.056542
0.0552969
0.0541174
0.0530021
0.0519494
0.0509575
0.0500243
0.0491478
0.0483258
0.047556
0.0468363
0.0461645
0.0455384
0.0449562
0.044416
0.043916
0.0434548
0.0430309
0.0426434
0.0422914
0.0419743
0.0416919
0.0414443
0.041232
0.0410563
0.0409188
0.0408223
0.0407704
0.961694
0.892189
0.829091
0.771735
0.71953
0.67195
0.628527
0.588843
0.552527
0.519245
0.488703
0.460636
0.434806
0.411003
0.389036
0.368736
0.349951
0.332543
0.31639
0.301381
0.287416
0.274406
0.26227
0.250934
0.240331
0.230403
0.221095
0.212357
0.204145
0.196417
0.189137
0.18227
0.175786
0.169656
0.163853
0.158355
0.15314
0.148186
0.143475
0.138991
0.134716
0.130637
0.12674
0.123011
0.119439
0.116013
0.112722
0.109557
0.10651
0.103571
0.100733
0.09799
0.0953348
0.0927619
0.0902666
0.0878445
0.0854922
0.0832067
0.0809859
0.0788283
0.076733
0.0746997
0.0727284
0.0708198
0.0689744
0.0671933
0.0654775
0.0638277
0.0622449
0.0607295
0.0592817
0.0579016
0.0565888
0.0553424
0.0541615
0.0530447
0.0519905
0.050997
0.0500621
0.049184
0.0483602
0.0475888
0.0468675
0.046194
0.0455665
0.0449828
0.0444412
0.0439398
0.0434773
0.0430523
0.0426637
0.0423107
0.0419927
0.0417094
0.0414611
0.0412482
0.0410719
0.0409341
0.0408373
0.0407852
0.961694
0.892189
0.829091
0.771735
0.71953
0.67195
0.628527
0.588843
0.552527
0.519246
0.488704
0.460636
0.434807
0.411004
0.389037
0.368738
0.349953
0.332545
0.316392
0.301383
0.287419
0.274409
0.262273
0.250937
0.240335
0.230408
0.2211
0.212362
0.20415
0.196423
0.189143
0.182277
0.175793
0.169663
0.163861
0.158364
0.153149
0.148195
0.143486
0.139002
0.134728
0.13065
0.126753
0.123025
0.119455
0.11603
0.112741
0.109577
0.106531
0.103594
0.100758
0.0980164
0.0953631
0.0927922
0.0902988
0.0878788
0.0855284
0.083245
0.0810262
0.0788704
0.0767769
0.0747452
0.0727753
0.0708678
0.0690234
0.067243
0.0655275
0.0638779
0.0622949
0.0607791
0.0593308
0.0579498
0.0566359
0.0553883
0.054206
0.0530878
0.0520319
0.0510368
0.0501003
0.0492204
0.048395
0.0476219
0.0468989
0.0462239
0.0455948
0.0450097
0.0444666
0.0439639
0.0435002
0.043074
0.0426843
0.0423302
0.0420113
0.0417272
0.0414781
0.0412646
0.0410878
0.0409495
0.0408524
0.0408001
0.961694
0.892189
0.829091
0.771735
0.71953
0.67195
0.628527
0.588844
0.552527
0.519246
0.488704
0.460637
0.434808
0.411005
0.389039
0.368739
0.349954
0.332547
0.316394
0.301386
0.287422
0.274412
0.262276
0.250941
0.240339
0.230412
0.221104
0.212367
0.204156
0.196429
0.189149
0.182283
0.1758
0.16967
0.163869
0.158372
0.153158
0.148205
0.143496
0.139013
0.13474
0.130663
0.126767
0.12304
0.119471
0.116047
0.112759
0.109597
0.106553
0.103617
0.100783
0.0980431
0.0953915
0.0928226
0.0903312
0.0879132
0.0855649
0.0832835
0.0810666
0.0789127
0.0768209
0.0747908
0.0728223
0.070916
0.0690725
0.0672928
0.0655777
0.0639282
0.0623451
0.0608289
0.0593799
0.0579981
0.0566831
0.0554343
0.0542507
0.053131
0.0520736
0.0510768
0.0501386
0.0492571
0.04843
0.0476552
0.0469306
0.046254
0.0456233
0.0450367
0.0444922
0.0439882
0.0435231
0.0430958
0.042705
0.0423499
0.04203
0.0417451
0.0414952
0.0412811
0.0411037
0.040965
0.0408676
0.0408151
0.961694
0.892189
0.82909
0.771735
0.71953
0.67195
0.628527
0.588844
0.552527
0.519246
0.488705
0.460638
0.434809
0.411006
0.38904
0.368741
0.349956
0.332549
0.316397
0.301388
0.287424
0.274415
0.26228
0.250944
0.240343
0.230416
0.221109
0.212372
0.204161
0.196434
0.189155
0.18229
0.175807
0.169678
0.163877
0.158381
0.153167
0.148215
0.143507
0.139024
0.134752
0.130676
0.126781
0.123056
0.119487
0.116065
0.112778
0.109617
0.106574
0.10364
0.100808
0.0980698
0.0954201
0.0928531
0.0903637
0.0879477
0.0856014
0.083322
0.081107
0.078955
0.076865
0.0748364
0.0728693
0.0709641
0.0691216
0.0673425
0.0656278
0.0639785
0.0623952
0.0608787
0.059429
0.0580464
0.0567304
0.0554804
0.0542954
0.0531742
0.0521152
0.0511168
0.050177
0.0492938
0.048465
0.0476885
0.0469623
0.0462841
0.0456519
0.0450638
0.0445178
0.0440125
0.0435462
0.0431176
0.0427257
0.0423696
0.0420488
0.041763
0.0415124
0.0412976
0.0411197
0.0409806
0.0408828
0.0408302
0.961694
0.892188
0.82909
0.771735
0.71953
0.67195
0.628527
0.588844
0.552527
0.519247
0.488705
0.460638
0.434809
0.411007
0.389041
0.368742
0.349957
0.332551
0.316399
0.301391
0.287427
0.274418
0.262283
0.250948
0.240347
0.23042
0.221113
0.212377
0.204166
0.19644
0.189161
0.182296
0.175814
0.169685
0.163885
0.15839
0.153176
0.148225
0.143517
0.139036
0.134765
0.130689
0.126795
0.123071
0.119503
0.116082
0.112797
0.109638
0.106596
0.103663
0.100833
0.0980965
0.0954487
0.0928836
0.0903962
0.0879821
0.0856379
0.0833604
0.0811473
0.0789972
0.0769088
0.0748818
0.0729161
0.0710121
0.0691704
0.067392
0.0656778
0.0640285
0.0624452
0.0609282
0.059478
0.0580945
0.0567775
0.0555262
0.0543399
0.0532173
0.0521568
0.0511567
0.0502153
0.0493304
0.0484999
0.0477218
0.0469939
0.0463141
0.0456804
0.0450908
0.0445435
0.0440368
0.0435692
0.0431395
0.0427464
0.0423893
0.0420676
0.0417809
0.0415296
0.0413141
0.0411357
0.0409961
0.0408981
0.0408453
0.961694
0.892188
0.82909
0.771735
0.71953
0.67195
0.628527
0.588844
0.552528
0.519247
0.488706
0.460639
0.43481
0.411008
0.389042
0.368743
0.349959
0.332552
0.316401
0.301393
0.287429
0.274421
0.262286
0.250951
0.240351
0.230424
0.221118
0.212382
0.204171
0.196445
0.189167
0.182303
0.175821
0.169693
0.163893
0.158398
0.153185
0.148235
0.143528
0.139047
0.134777
0.130702
0.126809
0.123086
0.119519
0.116099
0.112815
0.109658
0.106618
0.103687
0.100858
0.0981231
0.0954771
0.0929139
0.0904284
0.0880164
0.085674
0.0833985
0.0811874
0.079039
0.0769523
0.0749268
0.0729625
0.0710596
0.0692189
0.0674411
0.0657273
0.0640782
0.0624947
0.0609774
0.0595265
0.0581422
0.0568242
0.0555718
0.0543841
0.05326
0.052198
0.0511964
0.0502533
0.0493667
0.0485346
0.0477549
0.0470254
0.046344
0.0457088
0.0451177
0.044569
0.044061
0.0435921
0.0431612
0.0427671
0.0424089
0.0420863
0.0417988
0.0415467
0.0413306
0.0411516
0.0410116
0.0409133
0.0408603
0.961694
0.892188
0.82909
0.771734
0.71953
0.67195
0.628527
0.588844
0.552528
0.519247
0.488706
0.460639
0.434811
0.411008
0.389043
0.368744
0.34996
0.332554
0.316402
0.301395
0.287432
0.274423
0.262289
0.250954
0.240354
0.230428
0.221122
0.212386
0.204176
0.196451
0.189173
0.182309
0.175827
0.1697
0.163901
0.158407
0.153194
0.148245
0.143538
0.139058
0.134789
0.130715
0.126823
0.123101
0.119536
0.116117
0.112834
0.109678
0.106639
0.10371
0.100882
0.0981495
0.0955053
0.0929439
0.0904604
0.0880502
0.0857099
0.0834362
0.081227
0.0790804
0.0769954
0.0749714
0.0730084
0.0711066
0.0692668
0.0674897
0.0657763
0.0641273
0.0625437
0.061026
0.0595746
0.0581895
0.0568704
0.0556169
0.0544279
0.0533024
0.0522389
0.0512357
0.050291
0.0494028
0.048569
0.0477877
0.0470566
0.0463737
0.0457369
0.0451444
0.0445943
0.044085
0.0436149
0.0431828
0.0427876
0.0424284
0.0421048
0.0418165
0.0415637
0.0413469
0.0411674
0.041027
0.0409283
0.0408752
0.961694
0.892188
0.82909
0.771734
0.71953
0.67195
0.628527
0.588844
0.552528
0.519247
0.488706
0.46064
0.434811
0.411009
0.389044
0.368745
0.349962
0.332556
0.316404
0.301397
0.287434
0.274426
0.262292
0.250958
0.240358
0.230432
0.221126
0.212391
0.204181
0.196456
0.189179
0.182315
0.175834
0.169707
0.163909
0.158415
0.153203
0.148254
0.143549
0.13907
0.134801
0.130728
0.126837
0.123116
0.119552
0.116134
0.112852
0.109697
0.10666
0.103732
0.100907
0.0981755
0.0955331
0.0929736
0.0904919
0.0880837
0.0857452
0.0834735
0.081266
0.0791212
0.0770378
0.0750153
0.0730536
0.071153
0.069314
0.0675376
0.0658245
0.0641757
0.062592
0.061074
0.059622
0.0582361
0.056916
0.0556613
0.0544711
0.0533442
0.0522792
0.0512745
0.0503282
0.0494384
0.048603
0.0478201
0.0470874
0.046403
0.0457647
0.0451708
0.0446193
0.0441087
0.0436374
0.0432041
0.0428078
0.0424477
0.0421232
0.041834
0.0415805
0.0413631
0.041183
0.0410421
0.0409432
0.0408899
0.961694
0.892188
0.82909
0.771734
0.71953
0.67195
0.628527
0.588844
0.552528
0.519248
0.488706
0.46064
0.434812
0.41101
0.389045
0.368747
0.349963
0.332557
0.316406
0.301399
0.287436
0.274429
0.262294
0.250961
0.240361
0.230436
0.22113
0.212395
0.204186
0.196461
0.189184
0.182321
0.175841
0.169715
0.163917
0.158423
0.153212
0.148264
0.143559
0.139081
0.134813
0.130741
0.126851
0.12313
0.119567
0.116151
0.112871
0.109717
0.106681
0.103755
0.100931
0.0982012
0.0955606
0.0930028
0.090523
0.0881166
0.08578
0.0835101
0.0813044
0.0791613
0.0770795
0.0750585
0.0730981
0.0711985
0.0693604
0.0675846
0.065872
0.0642233
0.0626395
0.0611211
0.0596685
0.0582819
0.0569609
0.0557051
0.0545136
0.0533853
0.0523189
0.0513126
0.0503648
0.0494734
0.0486365
0.047852
0.0471178
0.0464318
0.0457921
0.0451968
0.044644
0.044132
0.0436595
0.0432251
0.0428278
0.0424667
0.0421412
0.0418513
0.041597
0.041379
0.0411984
0.0410571
0.0409578
0.0409044
0.961694
0.892188
0.82909
0.771734
0.71953
0.67195
0.628527
0.588844
0.552528
0.519248
0.488707
0.46064
0.434812
0.41101
0.389046
0.368748
0.349964
0.332558
0.316408
0.301401
0.287438
0.274431
0.262297
0.250964
0.240364
0.230439
0.221134
0.2124
0.204191
0.196467
0.18919
0.182327
0.175847
0.169722
0.163924
0.158431
0.153221
0.148273
0.143569
0.139091
0.134824
0.130753
0.126864
0.123145
0.119583
0.116168
0.112888
0.109736
0.106702
0.103777
0.100954
0.0982265
0.0955875
0.0930315
0.0905534
0.0881489
0.0858141
0.083546
0.0813421
0.0792006
0.0771204
0.0751008
0.0731416
0.0712431
0.0694059
0.0676307
0.0659184
0.0642699
0.062686
0.0611673
0.0597142
0.0583268
0.0570049
0.055748
0.0545553
0.0534257
0.0523578
0.0513501
0.0504007
0.0495078
0.0486693
0.0478833
0.0471476
0.0464601
0.045819
0.0452223
0.0446682
0.044155
0.0436813
0.0432458
0.0428474
0.0424853
0.042159
0.0418683
0.0416133
0.0413946
0.0412135
0.0410718
0.0409722
0.0409186
0.961693
0.892188
0.82909
0.771734
0.719529
0.67195
0.628527
0.588844
0.552528
0.519248
0.488707
0.460641
0.434813
0.411011
0.389046
0.368748
0.349965
0.33256
0.316409
0.301403
0.287441
0.274433
0.2623
0.250966
0.240368
0.230443
0.221138
0.212404
0.204195
0.196471
0.189195
0.182333
0.175854
0.169728
0.163932
0.158439
0.15323
0.148282
0.143579
0.139102
0.134836
0.130766
0.126878
0.123159
0.119598
0.116184
0.112906
0.109755
0.106722
0.103799
0.100977
0.0982511
0.0956138
0.0930595
0.0905832
0.0881804
0.0858474
0.083581
0.0813788
0.079239
0.0771603
0.075142
0.0731841
0.0712867
0.0694503
0.0676757
0.0659638
0.0643155
0.0627314
0.0612124
0.0597588
0.0583706
0.0570478
0.0557899
0.054596
0.0534651
0.0523959
0.0513867
0.0504359
0.0495414
0.0487015
0.0479139
0.0471767
0.0464879
0.0458453
0.0452473
0.0446919
0.0441775
0.0437026
0.043266
0.0428666
0.0425036
0.0421764
0.0418849
0.0416292
0.0414099
0.0412283
0.0410861
0.0409863
0.0409325
0.961693
0.892188
0.82909
0.771734
0.719529
0.67195
0.628527
0.588844
0.552528
0.519248
0.488707
0.460641
0.434813
0.411012
0.389047
0.368749
0.349966
0.332561
0.316411
0.301404
0.287442
0.274435
0.262302
0.250969
0.240371
0.230446
0.221142
0.212408
0.2042
0.196476
0.189201
0.182339
0.17586
0.169735
0.163939
0.158447
0.153238
0.148291
0.143589
0.139112
0.134847
0.130778
0.12689
0.123173
0.119613
0.1162
0.112923
0.109773
0.106742
0.10382
0.101
0.0982752
0.0956395
0.0930868
0.0906122
0.0882111
0.0858798
0.0836151
0.0814146
0.0792763
0.0771991
0.0751822
0.0732254
0.071329
0.0694935
0.0677195
0.066008
0.0643597
0.0627757
0.0612563
0.0598022
0.0584133
0.0570897
0.0558307
0.0546357
0.0535035
0.0524329
0.0514224
0.0504701
0.0495742
0.0487328
0.0479438
0.0472052
0.0465149
0.045871
0.0452716
0.044715
0.0441994
0.0437234
0.0432857
0.0428853
0.0425214
0.0421934
0.0419011
0.0416447
0.0414248
0.0412427
0.0411002
0.041
0.040946
0.961693
0.892188
0.82909
0.771734
0.719529
0.67195
0.628527
0.588844
0.552528
0.519248
0.488707
0.460641
0.434814
0.411012
0.389048
0.36875
0.349967
0.332562
0.316412
0.301406
0.287444
0.274438
0.262305
0.250972
0.240374
0.23045
0.221145
0.212412
0.204204
0.196481
0.189206
0.182344
0.175866
0.169742
0.163946
0.158455
0.153246
0.1483
0.143598
0.139123
0.134858
0.130789
0.126903
0.123186
0.119627
0.116215
0.11294
0.109791
0.106761
0.10384
0.101022
0.0982986
0.0956644
0.0931133
0.0906403
0.0882409
0.0859113
0.0836482
0.0814493
0.0793125
0.0772367
0.0752212
0.0732656
0.0713701
0.0695353
0.0677619
0.0660508
0.0644027
0.0628186
0.061299
0.0598443
0.0584548
0.0571303
0.0558703
0.0546742
0.0535408
0.052469
0.0514571
0.0505034
0.0496061
0.0487633
0.0479728
0.0472328
0.0465412
0.045896
0.0452953
0.0447374
0.0442207
0.0437436
0.0433049
0.0429035
0.0425387
0.0422099
0.0419168
0.0416598
0.0414393
0.0412567
0.0411138
0.0410134
0.0409592
0.961693
0.892188
0.82909
0.771734
0.719529
0.67195
0.628527
0.588844
0.552528
0.519248
0.488708
0.460642
0.434814
0.411013
0.389048
0.368751
0.349968
0.332563
0.316413
0.301407
0.287446
0.27444
0.262307
0.250974
0.240376
0.230453
0.221149
0.212416
0.204208
0.196486
0.189211
0.18235
0.175872
0.169748
0.163953
0.158462
0.153254
0.148309
0.143607
0.139132
0.134868
0.130801
0.126915
0.123199
0.119641
0.11623
0.112956
0.109808
0.106779
0.10386
0.101043
0.0983212
0.0956885
0.093139
0.0906676
0.0882697
0.0859417
0.0836802
0.0814828
0.0793476
0.0772731
0.0752588
0.0733043
0.0714098
0.0695758
0.067803
0.0660922
0.0644443
0.0628601
0.0613402
0.0598851
0.0584949
0.0571696
0.0559087
0.0547115
0.053577
0.0525038
0.0514906
0.0505356
0.049637
0.0487927
0.048001
0.0472596
0.0465666
0.0459202
0.0453183
0.0447592
0.0442413
0.0437632
0.0433235
0.0429212
0.0425555
0.0422258
0.0419321
0.0416744
0.0414534
0.0412703
0.041127
0.0410263
0.040972
0.961693
0.892188
0.82909
0.771734
0.719529
0.67195
0.628527
0.588844
0.552528
0.519248
0.488708
0.460642
0.434814
0.411013
0.389049
0.368752
0.349969
0.332565
0.316415
0.301409
0.287448
0.274442
0.262309
0.250977
0.240379
0.230456
0.221152
0.212419
0.204212
0.19649
0.189215
0.182355
0.175877