/*--------------------------------*- C++ -*----------------------------------*\
  =========                 |
  \\      /  F ield         | OpenFOAM: The Open Source CFD Toolbox
   \\    /   O peration     | Website:  https://openfoam.org
    \\  /    A nd           | Version:  11
     \\/     M anipulation  |
\*---------------------------------------------------------------------------*/
FoamFile
{
    format      ascii;
    class       volScalarField;
    location    "302";
    object      nut;
}
// * * * * * * * * * * * * * * * * * * * * * * * * * * * * * * * * * * * * * //

dimensions      [0 2 -1 0 0 0 0];

internalField   nonuniform List<scalar> 
10000
(
0.00097711
0.000936679
0.000899597
0.000865542
0.000834227
0.000805393
0.000778807
0.00075426
0.000731564
0.00071055
0.000691065
0.000672972
0.000656147
0.000640478
0.000625863
0.000612213
0.000599444
0.000587482
0.000576259
0.000565714
0.000555792
0.000546443
0.000537622
0.000529288
0.000521404
0.000513936
0.000506855
0.000500135
0.000493751
0.000487683
0.000481914
0.000476427
0.000471211
0.000466256
0.000461554
0.000457102
0.000452898
0.000448943
0.000445241
0.0004418
0.00043863
0.000435745
0.000433162
0.000430901
0.000428984
0.000427438
0.000426291
0.000425573
0.000425316
0.000425553
0.000426317
0.000427639
0.000429549
0.000432074
0.000435237
0.000439054
0.000443538
0.000448691
0.00045451
0.000460985
0.000468096
0.000475817
0.000484116
0.000492953
0.000502283
0.000512056
0.000522218
0.00053271
0.000543476
0.000554455
0.000565592
0.000576831
0.000588118
0.000599397
0.000610623
0.000621758
0.000632756
0.000643577
0.000654186
0.000664551
0.000674643
0.000684434
0.000693901
0.000703022
0.000711778
0.000720148
0.000728117
0.000735666
0.000742781
0.000749443
0.000755637
0.000761343
0.000766542
0.000771213
0.00077533
0.000778866
0.000781789
0.000784061
0.000785635
0.000786456
0.00097711
0.00093668
0.000899598
0.000865543
0.000834228
0.000805394
0.000778808
0.000754261
0.000731565
0.000710551
0.000691066
0.000672973
0.000656148
0.000640479
0.000625865
0.000612214
0.000599445
0.000587483
0.00057626
0.000565716
0.000555794
0.000546445
0.000537624
0.00052929
0.000521406
0.000513938
0.000506858
0.000500137
0.000493754
0.000487686
0.000481917
0.00047643
0.000471215
0.00046626
0.000461558
0.000457107
0.000452902
0.000448947
0.000445246
0.000441805
0.000438635
0.00043575
0.000433167
0.000430906
0.000428989
0.000427442
0.000426294
0.000425576
0.000425318
0.000425553
0.000426315
0.000427636
0.000429544
0.000432067
0.000435227
0.000439042
0.000443522
0.000448672
0.000454489
0.000460961
0.00046807
0.000475789
0.000484085
0.00049292
0.000502247
0.000512016
0.000522173
0.000532662
0.000543424
0.000554401
0.000565536
0.000576774
0.000588061
0.00059934
0.000610566
0.000621703
0.000632701
0.000643523
0.000654134
0.0006645
0.000674593
0.000684386
0.000693855
0.000702978
0.000711735
0.000720108
0.000728078
0.000735629
0.000742746
0.00074941
0.000755606
0.000761313
0.000766514
0.000771186
0.000775304
0.000778842
0.000781766
0.000784039
0.000785614
0.000786435
0.00097711
0.00093668
0.000899598
0.000865544
0.000834229
0.000805395
0.000778809
0.000754262
0.000731567
0.000710553
0.000691068
0.000672976
0.000656151
0.000640481
0.000625867
0.000612217
0.000599448
0.000587486
0.000576263
0.000565719
0.000555797
0.000546449
0.000537628
0.000529294
0.00052141
0.000513943
0.000506862
0.000500142
0.000493759
0.000487691
0.000481922
0.000476436
0.000471221
0.000466266
0.000461565
0.000457113
0.000452909
0.000448954
0.000445253
0.000441812
0.000438642
0.000435756
0.000433173
0.00043091
0.000428992
0.000427444
0.000426294
0.000425573
0.000425312
0.000425545
0.000426303
0.000427619
0.000429523
0.00043204
0.000435195
0.000439003
0.000443477
0.00044862
0.00045443
0.000460895
0.000467998
0.000475711
0.000484001
0.000492829
0.00050215
0.000511913
0.000522064
0.000532548
0.000543306
0.00055428
0.000565413
0.00057665
0.000587937
0.000599216
0.000610443
0.000621581
0.000632581
0.000643406
0.000654019
0.000664389
0.000674486
0.000684283
0.000693756
0.000702883
0.000711644
0.000720021
0.000727996
0.000735552
0.000742672
0.000749341
0.00075554
0.000761252
0.000766456
0.000771131
0.000775253
0.000778794
0.000781721
0.000783996
0.000785572
0.000786394
0.00097711
0.000936681
0.000899599
0.000865545
0.000834231
0.000805397
0.000778811
0.000754265
0.00073157
0.000710556
0.000691072
0.000672979
0.000656154
0.000640485
0.000625871
0.000612221
0.000599452
0.000587491
0.000576268
0.000565724
0.000555803
0.000546454
0.000537634
0.0005293
0.000521416
0.000513949
0.000506869
0.000500149
0.000493766
0.000487699
0.00048193
0.000476445
0.00047123
0.000466275
0.000461574
0.000457123
0.000452919
0.000448964
0.000445262
0.000441821
0.00043865
0.000435764
0.000433179
0.000430915
0.000428995
0.000427445
0.000426292
0.000425567
0.000425303
0.00042553
0.000426283
0.000427592
0.000429488
0.000431998
0.000435144
0.000438943
0.000443407
0.00044854
0.00045434
0.000460795
0.000467887
0.00047559
0.00048387
0.000492689
0.000502001
0.000511755
0.000521899
0.000532376
0.000543128
0.000554098
0.000565229
0.000576464
0.00058775
0.00059903
0.000610259
0.000621399
0.000632402
0.000643231
0.000653849
0.000664223
0.000674325
0.000684128
0.000693607
0.000702741
0.000711509
0.000719892
0.000727873
0.000735436
0.000742563
0.000749237
0.000755443
0.000761161
0.00076637
0.000771051
0.000775178
0.000778723
0.000781654
0.000783932
0.00078551
0.000786333
0.00097711
0.000936681
0.0008996
0.000865547
0.000834233
0.000805399
0.000778814
0.000754268
0.000731573
0.00071056
0.000691075
0.000672983
0.000656158
0.00064049
0.000625876
0.000612226
0.000599458
0.000587496
0.000576274
0.00056573
0.000555809
0.000546461
0.000537641
0.000529308
0.000521424
0.000513958
0.000506878
0.000500159
0.000493776
0.000487709
0.000481941
0.000476456
0.000471241
0.000466287
0.000461587
0.000457135
0.000452931
0.000448976
0.000445274
0.000441833
0.000438661
0.000435774
0.000433188
0.000430922
0.000429
0.000427446
0.00042629
0.00042556
0.00042529
0.000425511
0.000426256
0.000427557
0.000429444
0.000431943
0.000435078
0.000438865
0.000443316
0.000448436
0.000454222
0.000460663
0.000467742
0.000475431
0.000483699
0.000492506
0.000501806
0.000511549
0.000521684
0.000532152
0.000542898
0.000553863
0.000564989
0.000576222
0.000587507
0.000598788
0.000610018
0.000621161
0.000632169
0.000643002
0.000653626
0.000664007
0.000674116
0.000683926
0.000693413
0.000702555
0.000711331
0.000719723
0.000727713
0.000735284
0.000742419
0.000749102
0.000755316
0.000761041
0.000766258
0.000770946
0.000775079
0.00077863
0.000781565
0.000783847
0.000785429
0.000786253
0.00097711
0.000936682
0.000899601
0.000865548
0.000834235
0.000805402
0.000778817
0.000754271
0.000731577
0.000710564
0.00069108
0.000672988
0.000656164
0.000640495
0.000625882
0.000612233
0.000599465
0.000587503
0.000576281
0.000565738
0.000555817
0.00054647
0.00053765
0.000529317
0.000521434
0.000513968
0.000506889
0.00050017
0.000493788
0.000487722
0.000481954
0.00047647
0.000471255
0.000466302
0.000461602
0.000457151
0.000452947
0.000448992
0.00044529
0.000441848
0.000438676
0.000435787
0.000433199
0.000430931
0.000429006
0.000427448
0.000426287
0.000425552
0.000425275
0.000425488
0.000426224
0.000427515
0.000429391
0.000431878
0.000434998
0.000438771
0.000443207
0.000448311
0.00045408
0.000460505
0.000467566
0.00047524
0.000483492
0.000492283
0.000501569
0.0005113
0.000521423
0.000531881
0.000542618
0.000553577
0.000564699
0.000575929
0.000587213
0.000598494
0.000609726
0.000620873
0.000631885
0.000642724
0.000653354
0.000663743
0.00067386
0.000683679
0.000693176
0.000702328
0.000711114
0.000719516
0.000727516
0.000735098
0.000742244
0.000748937
0.00075516
0.000760895
0.000766121
0.000770817
0.000774958
0.000778515
0.000781457
0.000783743
0.000785328
0.000786154
0.000977111
0.000936683
0.000899603
0.00086555
0.000834237
0.000805405
0.00077882
0.000754275
0.000731581
0.000710569
0.000691085
0.000672994
0.00065617
0.000640502
0.000625889
0.00061224
0.000599472
0.000587511
0.00057629
0.000565747
0.000555827
0.00054648
0.000537661
0.000529328
0.000521446
0.000513981
0.000506902
0.000500184
0.000493803
0.000487737
0.00048197
0.000476486
0.000471273
0.00046632
0.00046162
0.000457169
0.000452966
0.000449011
0.000445308
0.000441866
0.000438693
0.000435803
0.000433213
0.000430942
0.000429013
0.000427451
0.000426285
0.000425543
0.000425258
0.000425463
0.000426189
0.000427468
0.00042933
0.000431802
0.000434907
0.000438663
0.000443081
0.000448166
0.000453916
0.000460321
0.000467364
0.000475018
0.000483252
0.000492026
0.000501295
0.000511011
0.00052112
0.000531567
0.000542295
0.000553246
0.000564362
0.000575589
0.000586871
0.000598152
0.000609387
0.000620537
0.000631554
0.0006424
0.000653037
0.000663435
0.000673562
0.000683391
0.000692899
0.000702062
0.00071086
0.000719274
0.000727287
0.00073488
0.000742038
0.000748743
0.000754978
0.000760724
0.000765961
0.000770666
0.000774816
0.000778381
0.000781329
0.000783621
0.000785208
0.000786036
0.000977111
0.000936683
0.000899604
0.000865552
0.000834239
0.000805408
0.000778824
0.000754279
0.000731586
0.000710574
0.000691091
0.000673
0.000656176
0.000640509
0.000625897
0.000612248
0.000599481
0.000587521
0.0005763
0.000565757
0.000555838
0.000546491
0.000537673
0.000529341
0.00052146
0.000513995
0.000506917
0.0005002
0.000493819
0.000487755
0.000481989
0.000476505
0.000471293
0.00046634
0.000461641
0.000457191
0.000452988
0.000449033
0.00044533
0.000441887
0.000438713
0.000435821
0.000433229
0.000430955
0.000429022
0.000427455
0.000426283
0.000425534
0.000425241
0.000425435
0.000426149
0.000427415
0.000429263
0.000431719
0.000434806
0.000438542
0.00044294
0.000448004
0.000453733
0.000460116
0.000467137
0.00047477
0.000482982
0.000491737
0.000500988
0.000510687
0.000520781
0.000531214
0.000541931
0.000552873
0.000563983
0.000575205
0.000586486
0.000597767
0.000609003
0.000620157
0.00063118
0.000642032
0.000652679
0.000663086
0.000673223
0.000683065
0.000692584
0.00070176
0.000710572
0.000718999
0.000727026
0.000734633
0.000741804
0.000748523
0.00075477
0.000760529
0.000765777
0.000770494
0.000774653
0.000778227
0.000781183
0.00078348
0.000785071
0.0007859
0.000977111
0.000936684
0.000899605
0.000865554
0.000834242
0.00080541
0.000778827
0.000754284
0.000731591
0.000710579
0.000691097
0.000673007
0.000656184
0.000640517
0.000625905
0.000612257
0.000599491
0.000587531
0.000576311
0.000565769
0.00055585
0.000546504
0.000537687
0.000529356
0.000521475
0.000514011
0.000506934
0.000500218
0.000493838
0.000487775
0.000482009
0.000476527
0.000471315
0.000466364
0.000461665
0.000457216
0.000453013
0.000449058
0.000445355
0.000441911
0.000438736
0.000435843
0.000433248
0.000430971
0.000429033
0.000427461
0.000426282
0.000425525
0.000425222
0.000425406
0.000426107
0.000427359
0.00042919
0.000431628
0.000434696
0.000438411
0.000442787
0.000447828
0.000453533
0.000459892
0.000466889
0.000474498
0.000482688
0.00049142
0.00050065
0.000510331
0.000520408
0.000530827
0.000541531
0.000552463
0.000563566
0.000574783
0.000586061
0.000597342
0.00060858
0.000619738
0.000630766
0.000641626
0.000652282
0.000662699
0.000672848
0.000682702
0.000692235
0.000701425
0.000710251
0.000718694
0.000726735
0.000734358
0.000741544
0.000748277
0.000754539
0.000760311
0.000765573
0.000770301
0.000774472
0.000778055
0.000781019
0.000783322
0.000784917
0.000785748
0.000977111
0.000936684
0.000899606
0.000865555
0.000834244
0.000805413
0.000778831
0.000754288
0.000731596
0.000710585
0.000691103
0.000673013
0.000656191
0.000640525
0.000625914
0.000612267
0.000599501
0.000587542
0.000576322
0.000565781
0.000555863
0.000546518
0.000537702
0.000529372
0.000521492
0.000514029
0.000506953
0.000500238
0.000493859
0.000487797
0.000482033
0.000476551
0.00047134
0.00046639
0.000461692
0.000457243
0.000453041
0.000449086
0.000445383
0.000441938
0.000438762
0.000435867
0.000433269
0.000430988
0.000429047
0.000427469
0.000426283
0.000425517
0.000425204
0.000425375
0.000426063
0.000427299
0.000429113
0.000431532
0.000434579
0.000438272
0.000442623
0.00044764
0.000453319
0.000459652
0.000466622
0.000474206
0.00048237
0.000491079
0.000500287
0.000509947
0.000520006
0.000530409
0.000541099
0.00055202
0.000563115
0.000574326
0.000585601
0.000596881
0.000608121
0.000619282
0.000630317
0.000641185
0.00065185
0.000662278
0.00067244
0.000682307
0.000691855
0.00070106
0.000709902
0.00071836
0.000726418
0.000734057
0.000741259
0.000748008
0.000754286
0.000760073
0.000765348
0.00077009
0.000774272
0.000777866
0.000780838
0.000783148
0.000784748
0.00078558
0.000977111
0.000936685
0.000899607
0.000865557
0.000834246
0.000805416
0.000778835
0.000754292
0.000731601
0.000710591
0.00069111
0.000673021
0.000656199
0.000640534
0.000625924
0.000612277
0.000599512
0.000587554
0.000576335
0.000565795
0.000555878
0.000546534
0.000537718
0.000529389
0.00052151
0.000514048
0.000506974
0.000500259
0.000493882
0.000487821
0.000482058
0.000476578
0.000471368
0.000466418
0.000461722
0.000457273
0.000453071
0.000449117
0.000445414
0.000441968
0.00043879
0.000435893
0.000433293
0.000431009
0.000429062
0.000427478
0.000426284
0.00042551
0.000425186
0.000425345
0.000426018
0.000427237
0.000429033
0.000431431
0.000434455
0.000438124
0.000442451
0.00044744
0.000453092
0.000459397
0.00046634
0.000473896
0.000482034
0.000490717
0.000499901
0.000509539
0.000519578
0.000529963
0.000540639
0.000551548
0.000562633
0.000573838
0.000585109
0.000596389
0.000607629
0.000618795
0.000629836
0.000640712
0.000651387
0.000661827
0.000672001
0.000681883
0.000691446
0.000700667
0.000709525
0.000718001
0.000726076
0.000733732
0.000740952
0.000747718
0.000754012
0.000759815
0.000765105
0.000769861
0.000774056
0.000777661
0.000780642
0.000782959
0.000784563
0.000785398
0.000977112
0.000936686
0.000899608
0.000865558
0.000834248
0.000805419
0.000778838
0.000754296
0.000731606
0.000710597
0.000691116
0.000673028
0.000656208
0.000640543
0.000625933
0.000612288
0.000599523
0.000587566
0.000576348
0.000565809
0.000555893
0.00054655
0.000537735
0.000529408
0.00052153
0.000514069
0.000506996
0.000500283
0.000493907
0.000487847
0.000482085
0.000476606
0.000471398
0.000466449
0.000461754
0.000457306
0.000453105
0.000449151
0.000445447
0.000442001
0.000438822
0.000435923
0.00043332
0.000431032
0.00042908
0.00042749
0.000426288
0.000425504
0.000425168
0.000425314
0.000425972
0.000427174
0.000428949
0.000431326
0.000434327
0.000437971
0.00044227
0.000447232
0.000452855
0.000459131
0.000466044
0.000473571
0.000481681
0.000490336
0.000499495
0.00050911
0.000519127
0.000529494
0.000540154
0.00055105
0.000562125
0.000573323
0.000584589
0.000595868
0.00060711
0.000618279
0.000629326
0.00064021
0.000650895
0.000661347
0.000671536
0.000681432
0.00069101
0.000700248
0.000709124
0.000717618
0.000725711
0.000733386
0.000740624
0.000747408
0.000753719
0.000759539
0.000764845
0.000769615
0.000773823
0.00077744
0.000780431
0.000782755
0.000784365
0.000785202
0.000977112
0.000936686
0.000899609
0.00086556
0.00083425
0.000805422
0.000778842
0.000754301
0.000731611
0.000710602
0.000691123
0.000673036
0.000656216
0.000640552
0.000625943
0.000612299
0.000599535
0.000587579
0.000576362
0.000565824
0.000555909
0.000546567
0.000537754
0.000529427
0.000521551
0.000514092
0.000507019
0.000500308
0.000493933
0.000487875
0.000482115
0.000476637
0.00047143
0.000466483
0.000461788
0.000457342
0.000453141
0.000449187
0.000445483
0.000442037
0.000438856
0.000435955
0.000433349
0.000431057
0.0004291
0.000427503
0.000426293
0.000425499
0.000425152
0.000425283
0.000425925
0.000427109
0.000428864
0.000431219
0.000434195
0.000437813
0.000442084
0.000447017
0.000452609
0.000458855
0.000465737
0.000473233
0.000481313
0.000489941
0.000499073
0.000508663
0.000518658
0.000529005
0.000539648
0.00055053
0.000561594
0.000572784
0.000584046
0.000595322
0.000606565
0.000617738
0.000628791
0.000639684
0.000650379
0.000660843
0.000671045
0.000680957
0.000690552
0.000699808
0.000708702
0.000717214
0.000725326
0.00073302
0.000740277
0.00074708
0.00075341
0.000759246
0.000764569
0.000769355
0.000773576
0.000777205
0.000780206
0.000782539
0.000784154
0.000784993
0.000977112
0.000936686
0.00089961
0.000865561
0.000834252
0.000805424
0.000778845
0.000754305
0.000731616
0.000710608
0.00069113
0.000673043
0.000656224
0.000640562
0.000625954
0.00061231
0.000599548
0.000587593
0.000576377
0.00056584
0.000555926
0.000546585
0.000537773
0.000529448
0.000521573
0.000514115
0.000507044
0.000500334
0.000493961
0.000487904
0.000482146
0.00047667
0.000471464
0.000466518
0.000461825
0.000457379
0.000453179
0.000449226
0.000445522
0.000442075
0.000438893
0.00043599
0.000433381
0.000431084
0.000429122
0.000427518
0.0004263
0.000425495
0.000425136
0.000425253
0.000425879
0.000427044
0.000428778
0.000431109
0.000434061
0.000437651
0.000441894
0.000446796
0.000452357
0.000458571
0.000465421
0.000472886
0.000480935
0.000489533
0.000498637
0.000508201
0.000518173
0.000528499
0.000539124
0.000549991
0.000561044
0.000572225
0.000583481
0.000594756
0.000605999
0.000617175
0.000628234
0.000639135
0.000649841
0.000660318
0.000670534
0.000680461
0.000690073
0.000699347
0.000708259
0.000716791
0.000724923
0.000732636
0.000739913
0.000746735
0.000753084
0.000758939
0.000764279
0.00076908
0.000773316
0.000776957
0.000779969
0.00078231
0.000783931
0.000784772
0.000977112
0.000936687
0.000899611
0.000865563
0.000834254
0.000805427
0.000778848
0.000754309
0.00073162
0.000710614
0.000691136
0.000673051
0.000656233
0.000640571
0.000625964
0.000612322
0.00059956
0.000587606
0.000576392
0.000565856
0.000555943
0.000546604
0.000537793
0.000529469
0.000521596
0.00051414
0.000507071
0.000500362
0.000493991
0.000487936
0.000482179
0.000476704
0.0004715
0.000466556
0.000461864
0.000457419
0.00045322
0.000449267
0.000445563
0.000442115
0.000438932
0.000436027
0.000433415
0.000431114
0.000429146
0.000427535
0.000426308
0.000425493
0.000425121
0.000425224
0.000425832
0.000426978
0.000428691
0.000430999
0.000433924
0.000437486
0.000441699
0.00044657
0.0004521
0.00045828
0.000465098
0.00047253
0.000480547
0.000489115
0.00049819
0.000507727
0.000517674
0.000527979
0.000538586
0.000549437
0.000560477
0.000571649
0.0005829
0.000594172
0.000605415
0.000616594
0.000627658
0.000638568
0.000649284
0.000659774
0.000670004
0.000679947
0.000689577
0.000698868
0.0007078
0.000716352
0.000724504
0.000732237
0.000739534
0.000746377
0.000752744
0.000758618
0.000763975
0.000768793
0.000773044
0.000776698
0.00077972
0.00078207
0.000783696
0.000784541
0.000977112
0.000936687
0.000899612
0.000865564
0.000834256
0.000805429
0.000778851
0.000754313
0.000731625
0.000710619
0.000691143
0.000673058
0.000656241
0.00064058
0.000625975
0.000612333
0.000599573
0.00058762
0.000576407
0.000565872
0.000555961
0.000546624
0.000537814
0.000529492
0.00052162
0.000514165
0.000507098
0.000500391
0.000494022
0.000487968
0.000482213
0.00047674
0.000471538
0.000466595
0.000461904
0.000457461
0.000453262
0.00044931
0.000445606
0.000442157
0.000438973
0.000436066
0.000433451
0.000431146
0.000429172
0.000427554
0.000426318
0.000425493
0.000425108
0.000425196
0.000425787
0.000426914
0.000428605
0.000430888
0.000433786
0.00043732
0.000441503
0.000446342
0.000451839
0.000457986
0.000464769
0.000472168
0.000480153
0.000488689
0.000497734
0.000507244
0.000517166
0.000527448
0.000538035
0.000548871
0.000559897
0.00057106
0.000582304
0.000593573
0.000604815
0.000615997
0.000627068
0.000637985
0.000648712
0.000659214
0.000669459
0.000679418
0.000689065
0.000698375
0.000707327
0.000715898
0.000724071
0.000731825
0.000739142
0.000746005
0.000752392
0.000758285
0.00076366
0.000768494
0.00077276
0.000776428
0.000779462
0.00078182
0.000783452
0.0007843
0.000977112
0.000936688
0.000899612
0.000865565
0.000834258
0.000805432
0.000778854
0.000754316
0.00073163
0.000710625
0.000691149
0.000673065
0.000656249
0.00064059
0.000625985
0.000612345
0.000599586
0.000587634
0.000576423
0.000565889
0.00055598
0.000546643
0.000537835
0.000529515
0.000521644
0.000514192
0.000507126
0.000500421
0.000494053
0.000488002
0.000482248
0.000476777
0.000471577
0.000466635
0.000461946
0.000457504
0.000453307
0.000449355
0.000445651
0.000442202
0.000439017
0.000436107
0.000433489
0.00043118
0.0004292
0.000427575
0.00042633
0.000425494
0.000425096
0.000425169
0.000425743
0.000426849
0.000428518
0.000430777
0.000433649
0.000437153
0.000441305
0.000446112
0.000451575
0.000457688
0.000464438
0.000471802
0.000479754
0.000488257
0.000497272
0.000506753
0.00051665
0.000526909
0.000537476
0.000548294
0.000559308
0.00057046
0.000581697
0.000592962
0.000604204
0.000615388
0.000626464
0.00063739
0.000648127
0.000658641
0.000668901
0.000678876
0.00068854
0.000697869
0.00070684
0.000715432
0.000723625
0.000731401
0.000738739
0.000745622
0.00075203
0.000757941
0.000763335
0.000768186
0.000772467
0.000776148
0.000779193
0.000781561
0.000783199
0.00078405
0.000977112
0.000936688
0.000899613
0.000865566
0.000834259
0.000805434
0.000778857
0.00075432
0.000731634
0.00071063
0.000691155
0.000673072
0.000656258
0.000640599
0.000625996
0.000612357
0.000599599
0.000587649
0.000576438
0.000565906
0.000555998
0.000546663
0.000537857
0.000529538
0.00052167
0.000514219
0.000507155
0.000500452
0.000494086
0.000488036
0.000482285
0.000476816
0.000471617
0.000466677
0.00046199
0.000457549
0.000453353
0.000449401
0.000445698
0.000442248
0.000439062
0.00043615
0.000433529
0.000431215
0.00042923
0.000427598
0.000426344
0.000425497
0.000425086
0.000425143
0.0004257
0.000426786
0.000428433
0.000430666
0.000433511
0.000436987
0.000441108
0.000445882
0.000451311
0.000457389
0.000464104
0.000471434
0.000479351
0.000487822
0.000496807
0.000506258
0.000516129
0.000526364
0.00053691
0.000547711
0.00055871
0.000569852
0.000581081
0.000592343
0.000603583
0.00061477
0.000625851
0.000636784
0.000647532
0.000658058
0.000668332
0.000678324
0.000688005
0.000697353
0.000706344
0.000714956
0.00072317
0.000730967
0.000738326
0.00074523
0.000751658
0.000757589
0.000763001
0.000767869
0.000772166
0.000775861
0.000778917
0.000781293
0.000782939
0.000783792
0.000977112
0.000936688
0.000899614
0.000865567
0.000834261
0.000805436
0.00077886
0.000754323
0.000731638
0.000710635
0.000691161
0.00067308
0.000656266
0.000640608
0.000626006
0.000612368
0.000599612
0.000587663
0.000576454
0.000565924
0.000556017
0.000546684
0.000537879
0.000529562
0.000521695
0.000514246
0.000507184
0.000500483
0.000494119
0.000488072
0.000482322
0.000476855
0.000471658
0.00046672
0.000462034
0.000457595
0.0004534
0.000449449
0.000445746
0.000442296
0.000439108
0.000436195
0.00043357
0.000431252
0.000429262
0.000427622
0.000426359
0.000425501
0.000425077
0.000425119
0.000425658
0.000426725
0.000428348
0.000430557
0.000433375
0.000436821
0.00044091
0.000445652
0.000451047
0.00045709
0.00046377
0.000471065
0.000478948
0.000487386
0.000496339
0.000505761
0.000515604
0.000525816
0.000536341
0.000547124
0.000558108
0.000569239
0.00058046
0.000591718
0.000602957
0.000614145
0.000625231
0.000636171
0.000646929
0.000657468
0.000667756
0.000677763
0.000687463
0.000696829
0.000705839
0.000714472
0.000722707
0.000730525
0.000737905
0.00074483
0.000751278
0.000757229
0.000762659
0.000767545
0.000771857
0.000775566
0.000778634
0.000781019
0.000782671
0.000783528
0.000977112
0.000936689
0.000899614
0.000865568
0.000834262
0.000805438
0.000778863
0.000754327
0.000731642
0.00071064
0.000691167
0.000673086
0.000656274
0.000640617
0.000626016
0.00061238
0.000599625
0.000587677
0.00057647
0.000565941
0.000556036
0.000546704
0.000537901
0.000529586
0.000521721
0.000514274
0.000507214
0.000500515
0.000494153
0.000488108
0.00048236
0.000476896
0.0004717
0.000466765
0.00046208
0.000457642
0.000453448
0.000449498
0.000445795
0.000442345
0.000439156
0.00043624
0.000433613
0.000431291
0.000429295
0.000427648
0.000426376
0.000425507
0.00042507
0.000425097
0.000425618
0.000426664
0.000428266
0.000430449
0.00043324
0.000436656
0.000440715
0.000445423
0.000450784
0.000456793
0.000463437
0.000470696
0.000478545
0.00048695
0.000495871
0.000505263
0.000515079
0.000525266
0.00053577
0.000546534
0.000557504
0.000568623
0.000579836
0.000591089
0.000602326
0.000613516
0.000624606
0.000635554
0.000646321
0.000656872
0.000667174
0.000677197
0.000686914
0.000696299
0.000705329
0.000713982
0.000722238
0.000730077
0.000737479
0.000744424
0.000750893
0.000756863
0.000762312
0.000767215
0.000771543
0.000775265
0.000778345
0.00078074
0.000782398
0.000783258
0.000977113
0.000936689
0.000899615
0.000865569
0.000834264
0.00080544
0.000778865
0.00075433
0.000731646
0.000710645
0.000691173
0.000673093
0.000656282
0.000640626
0.000626027
0.000612391
0.000599638
0.000587691
0.000576485
0.000565958
0.000556055
0.000546725
0.000537924
0.00052961
0.000521747
0.000514302
0.000507244
0.000500548
0.000494188
0.000488144
0.000482399
0.000476936
0.000471743
0.000466809
0.000462127
0.00045769
0.000453497
0.000449548
0.000445845
0.000442395
0.000439205
0.000436287
0.000433657
0.00043133
0.000429329
0.000427675
0.000426394
0.000425514
0.000425065
0.000425076
0.00042558
0.000426606
0.000428185
0.000430344
0.000433107
0.000436494
0.000440521
0.000445196
0.000450523
0.000456497
0.000463105
0.00047033
0.000478144
0.000486515
0.000495404
0.000504767
0.000514556
0.000524718
0.0005352
0.000545946
0.0005569
0.000568007
0.000579211
0.000590459
0.000601694
0.000612885
0.000623979
0.000634934
0.000645711
0.000656273
0.000666589
0.000676628
0.000686362
0.000695765
0.000704815
0.000713488
0.000721765
0.000729624
0.000737047
0.000744014
0.000750502
0.000756492
0.00076196
0.00076688
0.000771224
0.00077496
0.000778051
0.000780455
0.00078212
0.000782983
0.000977113
0.000936689
0.000899615
0.00086557
0.000834265
0.000805442
0.000778868
0.000754333
0.00073165
0.00071065
0.000691179
0.0006731
0.000656289
0.000640635
0.000626037
0.000612402
0.00059965
0.000587705
0.000576501
0.000565975
0.000556073
0.000546745
0.000537946
0.000529635
0.000521774
0.00051433
0.000507275
0.00050058
0.000494223
0.000488181
0.000482438
0.000476978
0.000471787
0.000466855
0.000462174
0.000457739
0.000453547
0.000449599
0.000445896
0.000442445
0.000439255
0.000436335
0.000433702
0.000431371
0.000429364
0.000427703
0.000426413
0.000425523
0.00042506
0.000425057
0.000425543
0.000426549
0.000428106
0.00043024
0.000432976
0.000436334
0.00044033
0.000444973
0.000450266
0.000456204
0.000462778
0.000469967
0.000477747
0.000486084
0.000494942
0.000504275
0.000514035
0.000524172
0.000534632
0.000545359
0.000556298
0.000567392
0.000578588
0.000589831
0.000601064
0.000612255
0.000623353
0.000634314
0.0006451
0.000655674
0.000666003
0.000676057
0.000685808
0.00069523
0.000704299
0.000712992
0.000721289
0.00072917
0.000736613
0.0007436
0.000750109
0.000756119
0.000761605
0.000766542
0.000770901
0.000774651
0.000777754
0.000780167
0.000781838
0.000782705
0.000977113
0.00093669
0.000899616
0.000865571
0.000834267
0.000805444
0.00077887
0.000754336
0.000731654
0.000710654
0.000691184
0.000673106
0.000656297
0.000640644
0.000626046
0.000612413
0.000599663
0.000587719
0.000576516
0.000565992
0.000556092
0.000546766
0.000537968
0.000529659
0.0005218
0.000514359
0.000507305
0.000500613
0.000494257
0.000488218
0.000482478
0.000477019
0.00047183
0.0004669
0.000462221
0.000457788
0.000453597
0.00044965
0.000445948
0.000442497
0.000439305
0.000436384
0.000433747
0.000431413
0.0004294
0.000427732
0.000426434
0.000425533
0.000425058
0.000425039
0.000425508
0.000426495
0.000428029
0.000430139
0.000432848
0.000436178
0.000440142
0.000444753
0.000450012
0.000455916
0.000462454
0.000469609
0.000477354
0.000485658
0.000494484
0.000503787
0.00051352
0.000523632
0.00053407
0.000544778
0.000555701
0.000566783
0.000577969
0.000589207
0.000600436
0.000611629
0.00062273
0.000633697
0.000644491
0.000655076
0.000665419
0.000675488
0.000685255
0.000694695
0.000703782
0.000712496
0.000720813
0.000728714
0.000736179
0.000743186
0.000749715
0.000755743
0.000761247
0.000766201
0.000770576
0.00077434
0.000777455
0.000779877
0.000781554
0.000782424
0.000977113
0.00093669
0.000899617
0.000865572
0.000834268
0.000805445
0.000778872
0.000754339
0.000731658
0.000710658
0.000691189
0.000673112
0.000656304
0.000640652
0.000626056
0.000612424
0.000599675
0.000587733
0.000576531
0.000566009
0.000556111
0.000546786
0.000537991
0.000529683
0.000521826
0.000514387
0.000507336
0.000500645
0.000494292
0.000488255
0.000482517
0.000477061
0.000471874
0.000466946
0.000462269
0.000457837
0.000453648
0.000449701
0.000445999
0.000442548
0.000439356
0.000436433
0.000433793
0.000431455
0.000429437
0.000427762
0.000426455
0.000425544
0.000425056
0.000425023
0.000425475
0.000426442
0.000427955
0.000430041
0.000432724
0.000436024
0.000439959
0.000444537
0.000449763
0.000455633
0.000462136
0.000469256
0.000476967
0.000485239
0.000494032
0.000503305
0.000513011
0.000523098
0.000533514
0.000544203
0.000555109
0.000566179
0.000577356
0.000588588
0.000599814
0.000611007
0.000622111
0.000633084
0.000643887
0.000654482
0.000664838
0.000674921
0.000684705
0.000694162
0.000703268
0.000712001
0.000720338
0.000728259
0.000735744
0.000742771
0.00074932
0.000755368
0.00076089
0.000765861
0.000770251
0.000774028
0.000777154
0.000779586
0.000781269
0.000782142
0.000977113
0.00093669
0.000899617
0.000865573
0.000834269
0.000805447
0.000778874
0.000754342
0.000731661
0.000710663
0.000691194
0.000673118
0.000656311
0.00064066
0.000626065
0.000612435
0.000599687
0.000587746
0.000576546
0.000566026
0.000556129
0.000546806
0.000538012
0.000529707
0.000521852
0.000514415
0.000507366
0.000500678
0.000494327
0.000488292
0.000482556
0.000477102
0.000471917
0.000466991
0.000462316
0.000457886
0.000453698
0.000449752
0.000446051
0.0004426
0.000439406
0.000436482
0.00043384
0.000431498
0.000429474
0.000427793
0.000426478
0.000425556
0.000425056
0.000425008
0.000425444
0.000426392
0.000427884
0.000429945
0.000432602
0.000435875
0.000439779
0.000444326
0.000449519
0.000455355
0.000461825
0.00046891
0.000476588
0.000484826
0.000493588
0.000502832
0.00051251
0.000522572
0.000532966