/*--------------------------------*- C++ -*----------------------------------*\
  =========                 |
  \\      /  F ield         | OpenFOAM: The Open Source CFD Toolbox
   \\    /   O peration     | Website:  https://openfoam.org
    \\  /    A nd           | Version:  11
     \\/     M anipulation  |
\*---------------------------------------------------------------------------*/
FoamFile
{
    format      ascii;
    class       volScalarField;
    location    "130";
    object      omega;
}
// * * * * * * * * * * * * * * * * * * * * * * * * * * * * * * * * * * * * * //

dimensions      [0 0 -1 0 0 0 0];

internalField   nonuniform List<scalar> 
10000
(
0.961705
0.89221
0.829107
0.77173
0.719485
0.671845
0.628338
0.588545
0.55209
0.51864
0.487893
0.459581
0.433462
0.409321
0.386962
0.36621
0.346908
0.328914
0.312103
0.296361
0.281591
0.267704
0.254626
0.242295
0.230659
0.219676
0.209312
0.199544
0.190351
0.181718
0.173632
0.16608
0.159049
0.152523
0.146485
0.140915
0.13579
0.131087
0.126782
0.122848
0.11926
0.115994
0.113023
0.110326
0.107878
0.105658
0.103647
0.101826
0.100178
0.0986872
0.0973397
0.0961224
0.0950232
0.0940313
0.0931367
0.0923304
0.0916041
0.0909502
0.090362
0.0898332
0.089358
0.0889314
0.0885487
0.0882055
0.0878979
0.0876224
0.0873759
0.0871552
0.0869579
0.0867814
0.0866237
0.0864826
0.0863565
0.0862438
0.0861429
0.0860525
0.0859715
0.0858989
0.0858337
0.085775
0.0857222
0.0856744
0.0856313
0.0855921
0.0855566
0.0855242
0.0854947
0.0854677
0.085443
0.0854204
0.0853997
0.0853807
0.0853636
0.0853481
0.0853343
0.0853222
0.0853121
0.085304
0.0852981
0.0852946
0.961705
0.892211
0.829109
0.771732
0.719488
0.671848
0.628342
0.588549
0.552095
0.518645
0.487898
0.459586
0.433468
0.409327
0.386969
0.366217
0.346916
0.328923
0.312113
0.296373
0.281603
0.267717
0.254641
0.242312
0.230677
0.219695
0.209334
0.199566
0.190375
0.181743
0.173658
0.166106
0.159075
0.152549
0.14651
0.140939
0.135814
0.131111
0.126805
0.12287
0.119282
0.116014
0.113043
0.110343
0.107894
0.105673
0.103661
0.101839
0.100189
0.0986979
0.0973496
0.0961315
0.0950316
0.0940391
0.0931439
0.0923371
0.0916102
0.0909559
0.0903672
0.089838
0.0893625
0.0889355
0.0885525
0.088209
0.0879011
0.0876254
0.0873786
0.0871577
0.0869602
0.0867836
0.0866256
0.0864844
0.0863582
0.0862453
0.0861442
0.0860538
0.0859727
0.0859
0.0858347
0.0857759
0.085723
0.0856752
0.085632
0.0855928
0.0855572
0.0855247
0.0854952
0.0854681
0.0854434
0.0854207
0.0854
0.085381
0.0853638
0.0853483
0.0853345
0.0853224
0.0853123
0.0853041
0.0852982
0.0852948
0.961705
0.892212
0.829111
0.771736
0.719493
0.671854
0.628349
0.588557
0.552103
0.518654
0.487908
0.459597
0.433479
0.409339
0.386981
0.366231
0.346931
0.328939
0.31213
0.296392
0.281624
0.267741
0.254667
0.24234
0.230708
0.219728
0.209369
0.199604
0.190414
0.181784
0.1737
0.166149
0.159118
0.152591
0.146552
0.14098
0.135854
0.131149
0.126842
0.122905
0.119315
0.116046
0.113073
0.110372
0.10792
0.105697
0.103683
0.101859
0.100208
0.0987151
0.0973655
0.0961461
0.095045
0.0940514
0.0931552
0.0923473
0.0916196
0.0909645
0.0903751
0.0898452
0.089369
0.0889415
0.0885579
0.0882139
0.0879056
0.0876295
0.0873823
0.0871611
0.0869632
0.0867863
0.0866281
0.0864867
0.0863602
0.0862471
0.0861459
0.0860553
0.0859741
0.0859012
0.0858358
0.0857769
0.0857239
0.085676
0.0856327
0.0855935
0.0855578
0.0855253
0.0854957
0.0854686
0.0854438
0.0854211
0.0854004
0.0853814
0.0853642
0.0853487
0.0853348
0.0853228
0.0853126
0.0853045
0.0852986
0.0852951
0.961705
0.892213
0.829114
0.77174
0.719499
0.671861
0.628357
0.588566
0.552114
0.518666
0.487921
0.459611
0.433494
0.409355
0.386999
0.36625
0.346951
0.328961
0.312155
0.296418
0.281653
0.267773
0.254702
0.242379
0.23075
0.219774
0.209418
0.199656
0.190469
0.18184
0.173758
0.166208
0.159177
0.15265
0.14661
0.141037
0.135908
0.131202
0.126892
0.122954
0.119361
0.116089
0.113113
0.110409
0.107955
0.10573
0.103713
0.101887
0.100234
0.0987387
0.0973871
0.0961659
0.0950632
0.094068
0.0931704
0.0923612
0.0916323
0.090976
0.0903856
0.0898547
0.0893777
0.0889493
0.088565
0.0882203
0.0879114
0.0876347
0.087387
0.0871653
0.0869671
0.0867897
0.0866312
0.0864895
0.0863627
0.0862493
0.0861479
0.0860571
0.0859757
0.0859027
0.0858371
0.0857781
0.085725
0.085677
0.0856336
0.0855943
0.0855585
0.085526
0.0854963
0.0854692
0.0854444
0.0854217
0.0854009
0.0853819
0.0853647
0.0853491
0.0853353
0.0853233
0.0853131
0.085305
0.0852991
0.0852956
0.961705
0.892214
0.829116
0.771744
0.719505
0.671869
0.628367
0.588577
0.552127
0.51868
0.487936
0.459627
0.433513
0.409375
0.38702
0.366273
0.346977
0.32899
0.312186
0.296452
0.281691
0.267814
0.254748
0.242428
0.230804
0.219832
0.20948
0.199722
0.190537
0.181912
0.173831
0.166282
0.159251
0.152724
0.146682
0.141108
0.135977
0.131268
0.126956
0.123014
0.119418
0.116143
0.113164
0.110457
0.107999
0.105771
0.103751
0.101922
0.100266
0.0987683
0.0974143
0.0961908
0.095086
0.0940889
0.0931894
0.0923786
0.0916481
0.0909905
0.0903987
0.0898666
0.0893885
0.0889591
0.0885738
0.0882283
0.0879186
0.0876412
0.0873928
0.0871706
0.0869717
0.0867939
0.086635
0.0864928
0.0863657
0.086252
0.0861503
0.0860592
0.0859776
0.0859044
0.0858386
0.0857795
0.0857262
0.0856781
0.0856346
0.0855952
0.0855594
0.0855268
0.0854971
0.0854699
0.085445
0.0854223
0.0854015
0.0853825
0.0853653
0.0853497
0.0853359
0.0853238
0.0853137
0.0853056
0.0852997
0.0852962
0.961705
0.892214
0.829118
0.771748
0.71951
0.671876
0.628376
0.588589
0.55214
0.518695
0.487953
0.459646
0.433533
0.409398
0.387045
0.366301
0.347007
0.329023
0.312222
0.296493
0.281735
0.267863
0.254801
0.242487
0.230867
0.219901
0.209553
0.199799
0.190619
0.181996
0.173917
0.166369
0.159339
0.152811
0.146768
0.141191
0.136058
0.131346
0.12703
0.123085
0.119486
0.116207
0.113223
0.110512
0.108051
0.105819
0.103795
0.101963
0.100304
0.0988032
0.0974463
0.0962203
0.095113
0.0941135
0.093212
0.0923992
0.0916668
0.0910075
0.0904141
0.0898806
0.0894011
0.0889706
0.0885842
0.0882376
0.087927
0.0876487
0.0873996
0.0871766
0.0869772
0.0867988
0.0866393
0.0864967
0.0863691
0.0862551
0.086153
0.0860616
0.0859797
0.0859063
0.0858403
0.085781
0.0857275
0.0856793
0.0856357
0.0855962
0.0855603
0.0855276
0.0854978
0.0854706
0.0854458
0.085423
0.0854022
0.0853832
0.0853659
0.0853504
0.0853366
0.0853245
0.0853144
0.0853063
0.0853004
0.085297
0.961705
0.892214
0.829119
0.77175
0.719514
0.671883
0.628385
0.5886
0.552153
0.51871
0.487971
0.459666
0.433556
0.409423
0.387073
0.366331
0.347041
0.32906
0.312264
0.296539
0.281786
0.267919
0.254863
0.242554
0.23094
0.219979
0.209637
0.199887
0.190711
0.182091
0.174015
0.166468
0.159438
0.15291
0.146866
0.141286
0.13615
0.131435
0.127115
0.123166
0.119562
0.116278
0.113291
0.110575
0.10811
0.105873
0.103846
0.102009
0.100347
0.0988429
0.0974828
0.0962537
0.0951436
0.0941416
0.0932376
0.0924225
0.0916881
0.0910268
0.0904317
0.0898965
0.0894155
0.0889836
0.0885959
0.0882482
0.0879365
0.0876572
0.0874072
0.0871834
0.0869832
0.0868042
0.0866441
0.0865009
0.0863729
0.0862584
0.086156
0.0860643
0.0859821
0.0859083
0.0858421
0.0857826
0.085729
0.0856806
0.0856369
0.0855972
0.0855613
0.0855285
0.0854987
0.0854714
0.0854465
0.0854237
0.0854029
0.0853839
0.0853667
0.0853511
0.0853373
0.0853253
0.0853152
0.0853071
0.0853012
0.0852978
0.961705
0.892214
0.829119
0.771752
0.719518
0.671888
0.628392
0.58861
0.552166
0.518726
0.487989
0.459687
0.433579
0.409449
0.387102
0.366364
0.347077
0.329101
0.312309
0.296589
0.281842
0.26798
0.25493
0.242628
0.23102
0.220065
0.209729
0.199985
0.190813
0.182197
0.174123
0.166578
0.159548
0.153019
0.146973
0.141391
0.136252
0.131532
0.127208
0.123255
0.119646
0.116358
0.113365
0.110645
0.108175
0.105934
0.103902
0.102061
0.100395
0.0988867
0.0975231
0.0962907
0.0951775
0.0941726
0.0932659
0.0924483
0.0917116
0.0910482
0.0904511
0.089914
0.0894314
0.0889979
0.0886088
0.0882598
0.0879469
0.0876666
0.0874155
0.0871909
0.0869899
0.0868101
0.0866493
0.0865056
0.086377
0.0862621
0.0861592
0.0860671
0.0859845
0.0859105
0.0858441
0.0857843
0.0857305
0.085682
0.0856381
0.0855983
0.0855623
0.0855294
0.0854995
0.0854723
0.0854473
0.0854245
0.0854037
0.0853847
0.0853674
0.0853519
0.0853381
0.0853261
0.085316
0.085308
0.0853021
0.0852986
0.961704
0.892214
0.829119
0.771753
0.71952
0.671893
0.628399
0.588619
0.552178
0.51874
0.488006
0.459707
0.433603
0.409476
0.387133
0.366399
0.347116
0.329144
0.312357
0.296643
0.281902
0.268047
0.255003
0.242707
0.231107
0.220158
0.209828
0.20009
0.190923
0.182311
0.174239
0.166696
0.159666
0.153136
0.147088
0.141504
0.136361
0.131638
0.127309
0.123351
0.119737
0.116443
0.113445
0.11072
0.108245
0.105999
0.103962
0.102117
0.100446
0.0989343
0.0975669
0.0963309
0.0952143
0.0942062
0.0932966
0.0924764
0.0917371
0.0910713
0.0904721
0.0899331
0.0894486
0.0890134
0.0886227
0.0882723
0.0879581
0.0876766
0.0874245
0.0871989
0.086997
0.0868164
0.0866549
0.0865105
0.0863814
0.0862659
0.0861625
0.08607
0.0859871
0.0859128
0.0858461
0.0857861
0.085732
0.0856833
0.0856393
0.0855994
0.0855632
0.0855304
0.0855004
0.0854731
0.0854481
0.0854253
0.0854044
0.0853855
0.0853682
0.0853527
0.085339
0.085327
0.0853169
0.0853089
0.085303
0.0852995
0.961704
0.892213
0.829119
0.771754
0.719522
0.671897
0.628405
0.588628
0.552189
0.518754
0.488023
0.459728
0.433626
0.409503
0.387164
0.366434
0.347156
0.32919
0.312408
0.2967
0.281965
0.268117
0.25508
0.242792
0.231199
0.220257
0.209934
0.200201
0.191039
0.182431
0.174363
0.166821
0.159792
0.153261
0.147211
0.141624
0.136478
0.13175
0.127416
0.123453
0.119834
0.116534
0.113531
0.1108
0.108319
0.106068
0.104027
0.102177
0.100501
0.098985
0.0976135
0.0963737
0.0952536
0.0942422
0.0933294
0.0925063
0.0917643
0.091096
0.0904945
0.0899534
0.0894669
0.0890299
0.0886376
0.0882856
0.0879701
0.0876873
0.0874341
0.0872074
0.0870045
0.0868231
0.0866608
0.0865157
0.0863859
0.0862699
0.086166
0.0860731
0.0859898
0.0859151
0.0858481
0.0857878
0.0857336
0.0856847
0.0856405
0.0856005
0.0855642
0.0855313
0.0855012
0.0854739
0.0854489
0.0854261
0.0854052
0.0853862
0.085369
0.0853536
0.0853398
0.0853279
0.0853178
0.0853098
0.0853039
0.0853005
0.961704
0.892213
0.829119
0.771754
0.719524
0.671899
0.62841
0.588635
0.552199
0.518767
0.488039
0.459747
0.43365
0.409531
0.387196
0.36647
0.347198
0.329236
0.312461
0.296759
0.282031
0.26819
0.255161
0.24288
0.231295
0.220361
0.210044
0.200318
0.191162
0.182558
0.174492
0.166952
0.159923
0.153392
0.14734
0.14175
0.1366
0.131867
0.127529
0.12356
0.119935
0.11663
0.113621
0.110884
0.108398
0.106141
0.104094
0.102239
0.100559
0.0990385
0.0976627
0.0964189
0.095295
0.0942801
0.093364
0.0925378
0.091793
0.0911221
0.0905181
0.0899747
0.0894862
0.0890473
0.0886532
0.0882997
0.0879826
0.0876985
0.087444
0.0872162
0.0870124
0.08683
0.0866669
0.086521
0.0863906
0.086274
0.0861696
0.0860762
0.0859925
0.0859174
0.0858501
0.0857896
0.0857351
0.085686
0.0856417
0.0856015
0.0855652
0.0855321
0.0855021
0.0854746
0.0854496
0.0854268
0.085406
0.085387
0.0853698
0.0853544
0.0853407
0.0853288
0.0853187
0.0853107
0.0853049
0.0853014
0.961704
0.892212
0.829118
0.771753
0.719524
0.671902
0.628414
0.588641
0.552208
0.518779
0.488054
0.459766
0.433672
0.409557
0.387227
0.366507
0.347239
0.329284
0.312515
0.296819
0.282099
0.268265
0.255244
0.242972
0.231394
0.220468
0.210159
0.200439
0.191288
0.182689
0.174626
0.167088
0.16006
0.153527
0.147474
0.14188
0.136726
0.131989
0.127646
0.123671
0.120041
0.11673
0.113715
0.110972
0.10848
0.106217
0.104165
0.102305
0.10062
0.0990943
0.0977141
0.0964661
0.0953382
0.0943196
0.0934002
0.0925707
0.091823
0.0911493
0.0905428
0.089997
0.0895063
0.0890654
0.0886695
0.0883143
0.0879957
0.0877101
0.0874544
0.0872254
0.0870205
0.0868371
0.0866732
0.0865265
0.0863954
0.0862781
0.0861732
0.0860793
0.0859952
0.0859198
0.0858521
0.0857913
0.0857366
0.0856873
0.0856428
0.0856025
0.085566
0.0855329
0.0855028
0.0854754
0.0854503
0.0854275
0.0854067
0.0853877
0.0853706
0.0853552
0.0853415
0.0853296
0.0853196
0.0853116
0.0853058
0.0853023
0.961703
0.892211
0.829117
0.771753
0.719525
0.671903
0.628417
0.588646
0.552216
0.51879
0.488068
0.459783
0.433694
0.409583
0.387258
0.366543
0.347281
0.329331
0.312569
0.296881
0.282167
0.268342
0.255329
0.243065
0.231496
0.220577
0.210276
0.200563
0.191418
0.182823
0.174764
0.167227
0.1602
0.153667
0.147611
0.142015
0.136857
0.132115
0.127766
0.123786
0.120149
0.116832
0.113811
0.111062
0.108564
0.106296
0.104238
0.102373
0.100682
0.099152
0.0977672
0.0965149
0.095383
0.0943606
0.0934376
0.0926048
0.091854
0.0911775
0.0905683
0.0900201
0.0895272
0.0890842
0.0886863
0.0883293
0.0880091
0.0877221
0.087465
0.0872348
0.0870288
0.0868445
0.0866796
0.0865321
0.0864003
0.0862824
0.0861769
0.0860824
0.0859979
0.0859221
0.0858541
0.085793
0.085738
0.0856885
0.0856438
0.0856035
0.0855669
0.0855337
0.0855035
0.085476
0.085451
0.0854281
0.0854073
0.0853884
0.0853713
0.0853559
0.0853423
0.0853304
0.0853204
0.0853125
0.0853066
0.0853032
0.961703
0.89221
0.829116
0.771752
0.719525
0.671904
0.62842
0.588651
0.552223
0.5188
0.488082
0.4598
0.433715
0.409609
0.387288
0.366578
0.347322
0.329379
0.312623
0.296942
0.282237
0.268419
0.255415
0.243159
0.231599
0.220689
0.210395
0.200689
0.19155
0.182959
0.174904
0.16737
0.160343
0.153809
0.147752
0.142152
0.13699
0.132244
0.127889
0.123903
0.120261
0.116938
0.11391
0.111155
0.108651
0.106377
0.104313
0.102442
0.100747
0.0992113
0.0978218
0.096565
0.0954289
0.0944026
0.093476
0.0926399
0.0918859
0.0912064
0.0905945
0.0900438
0.0895485
0.0891034
0.0887036
0.0883448
0.0880229
0.0877344
0.0874759
0.0872444
0.0870372
0.0868519
0.0866861
0.0865378
0.0864052
0.0862866
0.0861805
0.0860855
0.0860005
0.0859243
0.085856
0.0857946
0.0857394
0.0856897
0.0856448
0.0856043
0.0855676
0.0855343
0.0855041
0.0854766
0.0854515
0.0854287
0.0854079
0.085389
0.0853719
0.0853566
0.085343
0.0853312
0.0853212
0.0853133
0.0853075
0.085304
0.961702
0.89221
0.829115
0.771751
0.719524
0.671905
0.628422
0.588655
0.552229
0.518809
0.488094
0.459816
0.433735
0.409633
0.387317
0.366613
0.347363
0.329426
0.312677
0.297004
0.282306
0.268497
0.255501
0.243254
0.231702
0.220801
0.210515
0.200816
0.191683
0.183097
0.175046
0.167513
0.160487
0.153953
0.147894
0.142291
0.137125
0.132374
0.128015
0.124023
0.120374
0.117045
0.114011
0.111249
0.108739
0.106459
0.10439
0.102513
0.100812
0.0992717
0.0978774
0.0966161
0.0954759
0.0944456
0.0935152
0.0926756
0.0919184
0.0912359
0.0906212
0.090068
0.0895703
0.089123
0.0887211
0.0883605
0.0880369
0.0877468
0.0874869
0.0872541
0.0870458
0.0868594
0.0866926
0.0865435
0.0864101
0.0862908
0.0861841
0.0860886
0.0860031
0.0859265
0.0858578
0.0857961
0.0857407
0.0856907
0.0856457
0.0856051
0.0855683
0.0855349
0.0855046
0.0854771
0.085452
0.0854292
0.0854084
0.0853896
0.0853725
0.0853572
0.0853437
0.0853319
0.085322
0.085314
0.0853082
0.0853048
0.961702
0.892209
0.829114
0.77175
0.719524
0.671905
0.628424
0.588659
0.552235
0.518817
0.488105
0.459831
0.433754
0.409657
0.387346
0.366647
0.347402
0.329472
0.312731
0.297065
0.282375
0.268575
0.255588
0.243349
0.231806
0.220913
0.210635
0.200943
0.191816
0.183236
0.175188
0.167658
0.160633
0.154098
0.148037
0.142431
0.137262
0.132506
0.128141
0.124143
0.120488
0.117153
0.114113
0.111345
0.108828
0.106542
0.104467
0.102585
0.100879
0.099333
0.0979339
0.0966681
0.0955235
0.0944892
0.093555
0.0927119
0.0919514
0.0912659
0.0906484
0.0900925
0.0895924
0.0891428
0.0887389
0.0883763
0.088051
0.0877594
0.087498
0.0872639
0.0870544
0.0868669
0.0866992
0.0865491
0.086415
0.086295
0.0861877
0.0860916
0.0860056
0.0859286
0.0858595
0.0857976
0.0857418
0.0856917
0.0856465
0.0856057
0.0855688
0.0855354
0.0855051
0.0854775
0.0854524
0.0854296
0.0854089
0.08539
0.085373
0.0853577
0.0853442
0.0853325
0.0853226
0.0853147
0.0853089
0.0853054
0.961702
0.892208
0.829113
0.771749
0.719523
0.671905
0.628425
0.588662
0.55224
0.518825
0.488116
0.459845
0.433772
0.409679
0.387373
0.36668
0.347441
0.329518
0.312783
0.297125
0.282443
0.268651
0.255673
0.243444
0.231909
0.221025
0.210755
0.201071
0.19195
0.183375
0.17533
0.167803
0.160779
0.154243
0.14818
0.142572
0.137399
0.132638
0.128268
0.124264
0.120604
0.117262
0.114215
0.111441
0.108919
0.106626
0.104545
0.102657
0.100946
0.0993949
0.0979909
0.0967205
0.0955716
0.0945332
0.0935953
0.0927486
0.0919848
0.0912962
0.0906758
0.0901172
0.0896147
0.0891628
0.0887569
0.0883924
0.0880653
0.087772
0.0875092
0.0872738
0.087063
0.0868744
0.0867057
0.0865548
0.0864198
0.0862991
0.0861911
0.0860946
0.0860081
0.0859306
0.0858612
0.0857989
0.0857429
0.0856926
0.0856472
0.0856063
0.0855693
0.0855358
0.0855054
0.0854778
0.0854527
0.0854299
0.0854092
0.0853904
0.0853734
0.0853582
0.0853447
0.085333
0.0853232
0.0853153
0.0853095
0.085306
0.961701
0.892207
0.829112
0.771748
0.719522
0.671905
0.628426
0.588664
0.552245
0.518832
0.488126
0.459859
0.433789
0.409701
0.3874
0.366711
0.347479
0.329562
0.312835
0.297184
0.28251
0.268727
0.255757
0.243537
0.232012
0.221136
0.210874
0.201197
0.192083
0.183513
0.175472
0.167947
0.160924
0.154388
0.148324
0.142713
0.137535
0.13277
0.128395
0.124386
0.120719
0.117371
0.114318
0.111538
0.109009
0.106711
0.104624
0.10273
0.101013
0.0994571
0.0980483
0.0967732
0.0956199
0.0945775
0.0936357
0.0927855
0.0920183
0.0913266
0.0907033
0.0901421
0.0896371
0.0891829
0.0887749
0.0884084
0.0880796
0.0877847
0.0875203
0.0872836
0.0870716
0.0868819
0.0867121
0.0865603
0.0864246
0.0863031
0.0861945
0.0860974
0.0860104
0.0859326
0.0858628
0.0858001
0.0857439
0.0856933
0.0856478
0.0856067
0.0855696
0.085536
0.0855056
0.085478
0.0854529
0.0854301
0.0854094
0.0853906
0.0853737
0.0853585
0.0853451
0.0853334
0.0853236
0.0853158
0.08531
0.0853066
0.961701
0.892206
0.82911
0.771747
0.719521
0.671905
0.628427
0.588666
0.552249
0.518838
0.488135
0.459871
0.433805
0.409721
0.387425
0.366742
0.347516
0.329605
0.312885
0.297242
0.282576
0.268801
0.255841
0.243629
0.232112
0.221245
0.210991
0.201322
0.192214
0.183649
0.175613
0.16809
0.161068
0.154532
0.148466
0.142852
0.137671
0.132902
0.128521
0.124507
0.120834
0.11748
0.114421
0.111634
0.109099
0.106795
0.104702
0.102803
0.10108
0.0995194
0.0981057
0.096826
0.0956684
0.0946218
0.0936762
0.0928224
0.0920519
0.0913571
0.0907309
0.090167
0.0896594
0.089203
0.0887928
0.0884244
0.0880938
0.0877973
0.0875315
0.0872933
0.0870801
0.0868893
0.0867185
0.0865658
0.0864292
0.0863071
0.0861978
0.0861001
0.0860127
0.0859344
0.0858642
0.0858013
0.0857448
0.085694
0.0856483
0.085607
0.0855698
0.0855362
0.0855057
0.0854781
0.085453
0.0854302
0.0854095
0.0853908
0.0853739
0.0853588
0.0853454
0.0853338
0.085324
0.0853162
0.0853104
0.085307
0.961701
0.892205
0.829109
0.771746
0.71952
0.671905
0.628427
0.588668
0.552252
0.518844
0.488144
0.459883
0.433821
0.409741
0.38745
0.366772
0.347551
0.329647
0.312934
0.297298
0.282641
0.268874
0.255922
0.243719
0.232212
0.221353
0.211107
0.201445
0.192343
0.183784
0.175751
0.168231
0.16121
0.154674
0.148607
0.142991
0.137806
0.133032
0.128647
0.124627
0.120948
0.117588
0.114523
0.11173
0.109189
0.106879
0.10478
0.102875
0.101148
0.0995815
0.0981629
0.0968786
0.0957167
0.094666
0.0937166
0.0928592
0.0920854
0.0913874
0.0907584
0.0901918
0.0896818
0.0892231
0.0888107
0.0884404
0.088108
0.0878098
0.0875425
0.087303
0.0870885
0.0868966
0.0867248
0.0865712
0.0864338
0.0863109
0.086201
0.0861027
0.0860148
0.0859361
0.0858655
0.0858023
0.0857455
0.0856945
0.0856486
0.0856072
0.0855699
0.0855362
0.0855057
0.085478
0.0854529
0.0854302
0.0854095
0.0853908
0.085374
0.0853589
0.0853456
0.085334
0.0853243
0.0853165
0.0853107
0.0853073
0.961701
0.892205
0.829108
0.771744
0.719519
0.671904
0.628428
0.58867
0.552256
0.51885
0.488152
0.459895
0.433836
0.40976
0.387473
0.366801
0.347586
0.329688
0.312981
0.297353
0.282703
0.268945
0.256001
0.243808
0.232308
0.221458
0.211221
0.201566
0.19247
0.183916
0.175888
0.16837
0.161351
0.154815
0.148746
0.143127
0.137939
0.133161
0.128771
0.124746
0.121061
0.117695
0.114624
0.111825
0.109278
0.106962
0.104858
0.102947
0.101214
0.0996431
0.0982197
0.0969309
0.0957647
0.09471
0.0937568
0.0928958
0.0921187
0.0914177
0.0907857
0.0902164
0.0897039
0.0892429
0.0888285
0.0884562
0.088122
0.0878222
0.0875534
0.0873125
0.0870968
0.0869037
0.086731
0.0865764
0.0864382
0.0863146
0.0862041
0.0861053
0.0860168
0.0859376
0.0858667
0.0858032
0.0857461
0.0856949
0.0856488
0.0856073
0.0855699
0.0855361
0.0855056
0.0854779
0.0854528
0.08543
0.0854094
0.0853908
0.085374
0.0853589
0.0853457
0.0853341
0.0853244
0.0853167
0.085311
0.0853075
0.9617
0.892204
0.829107
0.771743
0.719518
0.671904
0.628428
0.588672
0.552259
0.518855
0.48816
0.459905
0.43385
0.409778
0.387496
0.366828
0.347619
0.329727
0.313027
0.297406
0.282764
0.269014
0.256079
0.243894
0.232403
0.221561
0.211331
0.201684
0.192595
0.184046
0.176021
0.168507
0.161489
0.154952
0.148883
0.143262
0.138071
0.133289
0.128894
0.124863
0.121173
0.117801
0.114724
0.111919
0.109366
0.107044
0.104934
0.103018
0.10128
0.0997042
0.098276
0.0969827
0.0958123
0.0947536
0.0937966
0.0929321
0.0921517
0.0914476
0.0908128
0.0902408
0.0897259
0.0892626
0.0888461
0.0884719
0.0881359
0.0878344
0.0875641
0.0873219
0.087105
0.0869108
0.086737
0.0865815
0.0864425
0.0863182
0.0862071
0.0861076
0.0860187
0.0859391
0.0858678
0.085804
0.0857467
0.0856952
0.085649
0.0856073
0.0855698
0.085536
0.0855053
0.0854776
0.0854526
0.0854298
0.0854092
0.0853906
0.0853739
0.0853589
0.0853456
0.0853341
0.0853245
0.0853167
0.0853111
0.0853076
0.9617
0.892203
0.829106
0.771742
0.719517
0.671903
0.628428
0.588673
0.552262
0.51886
0.488167
0.459915
0.433863
0.409795
0.387517
0.366854
0.347651
0.329765
0.313071
0.297457
0.282823
0.269081
0.256154
0.243977
0.232495
0.221662
0.211439
0.201799
0.192716
0.184173
0.176152
0.16864
0.161623
0.155087
0.149017
0.143394
0.138199
0.133413
0.129014
0.124978
0.121283
0.117905
0.114822
0.112012
0.109453
0.107125
0.10501
0.103089
0.101345
0.0997644
0.0983316
0.0970339
0.0958592
0.0947966
0.0938359
0.092968
0.0921843
0.0914771
0.0908395
0.0902649
0.0897475
0.089282
0.0888634
0.0884872
0.0881495
0.0878464
0.0875747
0.0873311
0.0871129
0.0869176
0.0867429
0.0865865
0.0864467
0.0863217
0.0862099
0.0861099
0.0860205
0.0859404
0.0858688
0.0858046
0.0857471
0.0856954
0.085649
0.0856072
0.0855696
0.0855357
0.085505
0.0854773
0.0854522
0.0854295
0.0854089
0.0853904
0.0853736
0.0853587
0.0853455
0.0853341
0.0853244
0.0853167
0.0853111
0.0853076
0.9617
0.892202
0.829105
0.771741
0.719516
0.671902
0.628428
0.588674
0.552264
0.518864
0.488174
0.459925
0.433876
0.409812
0.387538
0.36688
0.347681
0.329801
0.313114
0.297507
0.28288
0.269145
0.256227
0.244058
0.232584
0.221759
0.211544
0.201911
0.192834
0.184296
0.176279
0.16877
0.161755
0.155219
0.149147
0.143522
0.138325
0.133536
0.129132
0.125091
0.12139
0.118007
0.114919
0.112103
0.109538
0.107205
0.105084
0.103158
0.10141
0.0998237
0.0983863
0.0970842
0.0959055
0.094839
0.0938746
0.0930032
0.0922163
0.0915062
0.0908658
0.0902886
0.0897688
0.0893011
0.0888804
0.0885024
0.0881629
0.0878582
0.087585
0.0873401
0.0871207
0.0869243
0.0867486
0.0865913
0.0864507
0.086325
0.0862125
0.086112
0.0860221
0.0859417
0.0858697
0.0858052
0.0857474
0.0856955
0.0856489
0.085607
0.0855693
0.0855353
0.0855046
0.0854769
0.0854518
0.0854291
0.0854085
0.08539
0.0853733
0.0853584
0.0853453
0.0853339
0.0853243
0.0853166
0.085311
0.0853076
0.961699
0.892202
0.829104
0.77174
0.719515
0.671902
0.628428
0.588675
0.552267
0.518869
0.48818
0.459934
0.433888
0.409827
0.387557
0.366904
0.34771
0.329836
0.313155
0.297554
0.282935
0.269208
0.256297
0.244136
0.23267
0.221853
0.211646
0.202019
0.192949
0.184415
0.176403
0.168897
0.161883
0.155348
0.149275
0.143648
0.138448
0.133655
0.129247
0.125201
0.121496
0.118107
0.115013
0.112192
0.109622
0.107283
0.105157
0.103226
0.101472
0.0998819
0.09844
0.0971337
0.0959508
0.0948805
0.0939126
0.0930379
0.0922478
0.0915347
0.0908916
0.0903119
0.0897897
0.0893198
0.0888971
0.0885172
0.088176
0.0878697
0.0875951
0.0873489
0.0871283
0.0869308
0.0867541
0.086596
0.0864546
0.0863281
0.0862151
0.086114
0.0860236
0.0859428
0.0858704
0.0858056
0.0857476
0.0856955
0.0856487
0.0856067
0.0855689
0.0855348
0.0855041
0.0854763
0.0854513
0.0854286
0.0854081
0.0853896
0.0853729
0.0853581
0.085345
0.0853336
0.0853241
0.0853164
0.0853108
0.0853074
0.961699
0.892201
0.829103
0.771739
0.719514
0.671901
0.628428
0.588676
0.552269
0.518872
0.488186
0.459942
0.433899
0.409842
0.387576
0.366927
0.347738
0.329869
0.313194
0.2976
0.282987
0.269268
0.256364
0.244212
0.232754
0.221944
0.211744
0.202124
0.19306
0.184531
0.176523
0.169019
0.162007
0.155472
0.149399
0.14377
0.138568
0.133771
0.129359
0.125309
0.121598
0.118205
0.115105
0.112279
0.109703
0.10736
0.105228
0.103292
0.101534
0.0999387
0.0984925
0.097182
0.0959952
0.0949212
0.0939498
0.0930718
0.0922786
0.0915627
0.0909168
0.0903346
0.0898102
0.089338
0.0889134
0.0885316
0.0881888
0.087881
0.0876049
0.0873574
0.0871357
0.0869371
0.0867594
0.0866004
0.0864583
0.0863311
0.0862175
0.0861159
0.086025
0.0859438
0.0858711
0.085806
0.0857477
0.0856954
0.0856485
0.0856063
0.0855684
0.0855343
0.0855035
0.0854757
0.0854507
0.085428
0.0854075
0.085389
0.0853725
0.0853577
0.0853446
0.0853333
0.0853238
0.0853162
0.0853106
0.0853072
0.961699
0.8922
0.829102
0.771738
0.719513
0.6719
0.628428
0.588677
0.552271
0.518876
0.488192
0.45995
0.43391
0.409856
0.387594
0.366949
0.347765
0.329901
0.313232
0.297644
0.283038
0.269325
0.256429
0.244284
0.232834
0.222031
0.211839
0.202225
0.193167
0.184643
0.176638
0.169138
0.162127
0.155593
0.149519
0.143889
0.138683
0.133883
0.129467
0.125413
0.121698
0.118299
0.115195
0.112363
0.109783
0.107434
0.105298
0.103356
0.101594
0.0999942
0.0985437
0.0972291
0.0960385
0.0949609
0.0939861
0.0931048
0.0923087
0.0915899
0.0909414
0.0903568
0.0898301
0.0893559
0.0889292
0.0885457
0.0882012
0.0878919
0.0876144
0.0873657
0.0871428
0.0869432
0.0867646
0.0866047
0.0864618
0.086334
0.0862198
0.0861176
0.0860263
0.0859446
0.0858716
0.0858062
0.0857477
0.0856952
0.0856481
0.0856059
0.0855679
0.0855337
0.0855028
0.0854751
0.08545
0.0854273
0.0854069
0.0853884
0.0853719
0.0853572
0.0853441
0.0853329
0.0853234
0.0853158
0.0853102
0.0853068
0.961699
0.8922
0.829101
0.771737
0.719512
0.6719
0.628428
0.588678
0.552273
0.51888
0.488197
0.459958
0.43392
0.409869
0.387611
0.36697
0.34779
0.329932
0.313268
0.297686
0.283086
0.26938
0.256492
0.244354
0.232911
0.222115
0.211929
0.202322
0.19327
0.184751
0.17675
0.169252
0.162243
0.155709
0.149635
0.144003
0.138796
0.133992
0.129573
0.125514
0.121795
0.118391
0.115282
0.112445
0.10986
0.107506
0.105365
0.103419
0.101652
0.100048
0.0985935
0.097275
0.0960807
0.0949995
0.0940213
0.093137
0.0923379
0.0916164
0.0909654
0.0903784
0.0898494
0.0893732
0.0889447
0.0885594
0.0882132
0.0879025
0.0876237
0.0873737
0.0871497
0.0869491
0.0867695
0.0866089
0.0864652
0.0863367
0.0862219
0.0861192
0.0860275
0.0859454
0.085872
0.0858064
0.0857476
0.0856949
0.0856477
0.0856053
0.0855672
0.085533
0.0855021
0.0854743
0.0854492
0.0854266
0.0854062
0.0853878
0.0853713
0.0853566
0.0853436
0.0853324
0.0853229
0.0853154
0.0853098
0.0853064
0.961699
0.892199
0.829101
0.771736
0.719511
0.671899
0.628428
0.588679
0.552275
0.518883
0.488202
0.459965
0.43393
0.409882
0.387627
0.36699
0.347815
0.329961
0.313302
0.297726
0.283132
0.269433
0.256551
0.24442
0.232984
0.222196
0.212017
0.202416
0.193368
0.184854
0.176857
0.169362
0.162355
0.155821
0.149746
0.144113
0.138904
0.134098
0.129674
0.125612
0.121888
0.11848
0.115366
0.112525
0.109934
0.107576
0.10543
0.10348
0.101708
0.1001
0.0986417
0.0973194
0.0961215
0.0950369
0.0940556
0.0931682
0.0923663
0.0916421
0.0909886
0.0903993
0.0898682
0.0893899
0.0889596
0.0885726
0.0882249
0.0879127
0.0876326
0.0873814
0.0871563
0.0869547
0.0867742
0.0866128
0.0864684
0.0863393
0.0862239
0.0861207
0.0860285
0.0859461
0.0858724
0.0858065
0.0857474
0.0856946
0.0856472
0.0856047
0.0855665
0.0855322
0.0855013
0.0854735
0.0854484
0.0854258
0.0854054
0.085387
0.0853706
0.0853559
0.085343
0.0853318
0.0853224
0.0853149
0.0853094
0.085306
0.961698
0.892199
0.8291
0.771735
0.719511
0.671899
0.628428
0.588679
0.552277
0.518886
0.488207
0.459972
0.433939
0.409894
0.387642
0.367009
0.347838
0.329988
0.313335
0.297764
0.283176
0.269483
0.256608
0.244484
0.233054
0.222272
0.2121
0.202505
0.193463
0.184953
0.17696
0.169467
0.162462
0.155929
0.149854
0.144219
0.139008
0.134199
0.129772
0.125706
0.121978
0.118566
0.115447
0.112601
0.110006
0.107643
0.105493
0.103539
0.101763
0.100151
0.0986883
0.0973624
0.096161
0.0950731
0.0940886
0.0931983
0.0923937
0.0916669
0.091011
0.0904195
0.0898863
0.0894061
0.088974
0.0885854
0.0882361
0.0879225
0.0876411
0.0873888
0.0871626
0.0869601
0.0867788
0.0866165
0.0864714
0.0863417
0.0862257
0.0861221
0.0860295
0.0859467
0.0858727
0.0858064
0.0857472
0.0856942
0.0856466
0.085604
0.0855658
0.0855314
0.0855005
0.0854726
0.0854476
0.085425
0.0854046
0.0853863
0.0853698
0.0853552
0.0853424
0.0853312
0.0853219
0.0853144
0.0853088
0.0853055
0.961698
0.892198
0.829099
0.771734
0.71951
0.671898
0.628428
0.58868
0.552278
0.518889
0.488211
0.459978
0.433948
0.409905
0.387656
0.367026
0.347859
0.330014
0.313365
0.2978
0.283218
0.269531
0.256662
0.244544
0.233121
0.222346
0.212179
0.20259
0.193553
0.185048
0.177058
0.169568
0.162564
0.156032
0.149956
0.144321
0.139107
0.134296
0.129866
0.125796
0.122064
0.118648
0.115525
0.112675
0.110076
0.107708
0.105554
0.103595
0.101815
0.100199
0.0987332
0.0974038
0.096199
0.095108
0.0941205
0.0932274
0.0924201
0.0916909
0.0910327
0.0904389
0.0899037
0.0894217
0.0889879
0.0885976
0.088247
0.087932
0.0876494
0.0873959
0.0871687
0.0869652
0.0867831
0.0866201
0.0864743
0.086344
0.0862275
0.0861234
0.0860303
0.0859472
0.0858728
0.0858064
0.0857469
0.0856937
0.085646
0.0856033
0.085565
0.0855305
0.0854996
0.0854717
0.0854467
0.0854241
0.0854037
0.0853854
0.0853691
0.0853545
0.0853417
0.0853306
0.0853212
0.0853138
0.0853083
0.0853049
0.961698
0.892198
0.829098
0.771733
0.719509
0.671898
0.628428
0.58868
0.55228
0.518891
0.488216
0.459984
0.433956
0.409916
0.38767
0.367043
0.34788
0.330039
0.313395
0.297834
0.283257
0.269576
0.256713