/*--------------------------------*- C++ -*----------------------------------*\
  =========                 |
  \\      /  F ield         | OpenFOAM: The Open Source CFD Toolbox
   \\    /   O peration     | Website:  https://openfoam.org
    \\  /    A nd           | Version:  11
     \\/     M anipulation  |
\*---------------------------------------------------------------------------*/
FoamFile
{
    format      ascii;
    class       volScalarField;
    location    "428";
    object      k;
}
// * * * * * * * * * * * * * * * * * * * * * * * * * * * * * * * * * * * * * //

dimensions      [0 2 -2 0 0 0 0];

internalField   nonuniform List<scalar> 
10000
(
0.000939686
0.000835713
0.00074588
0.000668018
0.000600318
0.00054127
0.000489608
0.000444271
0.000404362
0.000369128
0.00033793
0.000310227
0.000285556
0.000263526
0.000243801
0.000226093
0.000210154
0.000195772
0.000182763
0.000170967
0.000160247
0.000150483
0.000141569
0.000133414
0.000125938
0.000119071
0.00011275
0.000106922
0.000101537
9.65537e-05
9.19334e-05
8.76426e-05
8.36512e-05
7.99325e-05
7.64624e-05
7.32196e-05
7.01846e-05
6.73403e-05
6.4671e-05
6.21626e-05
5.98024e-05
5.7579e-05
5.54819e-05
5.35017e-05
5.16299e-05
4.98586e-05
4.81809e-05
4.65903e-05
4.50809e-05
4.36474e-05
4.2285e-05
4.09894e-05
3.97563e-05
3.85824e-05
3.74642e-05
3.63987e-05
3.53834e-05
3.44157e-05
3.34934e-05
3.26147e-05
3.17778e-05
3.09811e-05
3.02233e-05
2.95032e-05
2.88197e-05
2.8172e-05
2.75591e-05
2.69804e-05
2.64352e-05
2.5923e-05
2.5443e-05
2.49948e-05
2.45778e-05
2.41913e-05
2.38347e-05
2.35072e-05
2.32081e-05
2.29364e-05
2.2691e-05
2.24711e-05
2.22754e-05
2.21027e-05
2.19517e-05
2.18208e-05
2.17087e-05
2.16136e-05
2.1534e-05
2.14684e-05
2.14152e-05
2.13728e-05
2.13398e-05
2.13146e-05
2.12958e-05
2.1282e-05
2.1272e-05
2.12644e-05
2.12584e-05
2.12531e-05
2.12482e-05
2.12439e-05
0.000939686
0.000835713
0.00074588
0.000668018
0.000600318
0.00054127
0.000489609
0.000444271
0.000404363
0.000369129
0.000337931
0.000310227
0.000285557
0.000263527
0.000243801
0.000226093
0.000210154
0.000195772
0.000182763
0.000170968
0.000160248
0.000150483
0.000141569
0.000133414
0.000125938
0.000119071
0.000112751
0.000106922
0.000101538
9.6554e-05
9.19337e-05
8.76429e-05
8.36516e-05
7.99329e-05
7.64628e-05
7.322e-05
7.01851e-05
6.73407e-05
6.46714e-05
6.2163e-05
5.98029e-05
5.75794e-05
5.54824e-05
5.35022e-05
5.16304e-05
4.98592e-05
4.81814e-05
4.65908e-05
4.50815e-05
4.3648e-05
4.22857e-05
4.099e-05
3.9757e-05
3.85831e-05
3.74649e-05
3.63995e-05
3.53842e-05
3.44165e-05
3.34943e-05
3.26156e-05
3.17787e-05
3.0982e-05
3.02243e-05
2.95042e-05
2.88207e-05
2.8173e-05
2.75601e-05
2.69815e-05
2.64363e-05
2.5924e-05
2.5444e-05
2.49958e-05
2.45788e-05
2.41923e-05
2.38356e-05
2.35082e-05
2.3209e-05
2.29373e-05
2.2692e-05
2.2472e-05
2.22763e-05
2.21036e-05
2.19525e-05
2.18215e-05
2.17092e-05
2.1614e-05
2.15343e-05
2.14686e-05
2.14153e-05
2.13729e-05
2.13398e-05
2.13146e-05
2.12958e-05
2.1282e-05
2.12719e-05
2.12644e-05
2.12583e-05
2.1253e-05
2.12481e-05
2.12439e-05
0.000939686
0.000835713
0.00074588
0.000668018
0.000600319
0.000541271
0.000489609
0.000444271
0.000404363
0.000369129
0.000337931
0.000310228
0.000285557
0.000263527
0.000243802
0.000226094
0.000210155
0.000195773
0.000182764
0.000170968
0.000160248
0.000150484
0.00014157
0.000133415
0.000125939
0.000119072
0.000112751
0.000106923
0.000101538
9.65547e-05
9.19344e-05
8.76436e-05
8.36523e-05
7.99336e-05
7.64636e-05
7.32207e-05
7.01858e-05
6.73415e-05
6.46722e-05
6.21638e-05
5.98037e-05
5.75803e-05
5.54832e-05
5.35031e-05
5.16313e-05
4.98601e-05
4.81824e-05
4.65918e-05
4.50825e-05
4.3649e-05
4.22867e-05
4.09911e-05
3.97581e-05
3.85842e-05
3.7466e-05
3.64007e-05
3.53853e-05
3.44177e-05
3.34955e-05
3.26168e-05
3.17799e-05
3.09833e-05
3.02255e-05
2.95054e-05
2.8822e-05
2.81743e-05
2.75614e-05
2.69827e-05
2.64375e-05
2.59252e-05
2.54452e-05
2.49969e-05
2.45798e-05
2.41933e-05
2.38366e-05
2.3509e-05
2.32098e-05
2.2938e-05
2.26927e-05
2.24727e-05
2.22769e-05
2.21041e-05
2.19529e-05
2.18218e-05
2.17093e-05
2.1614e-05
2.15342e-05
2.14685e-05
2.14151e-05
2.13727e-05
2.13396e-05
2.13143e-05
2.12955e-05
2.12817e-05
2.12717e-05
2.12642e-05
2.12581e-05
2.12528e-05
2.12479e-05
2.12437e-05
0.000939686
0.000835713
0.000745881
0.000668019
0.000600319
0.000541272
0.00048961
0.000444272
0.000404364
0.00036913
0.000337932
0.000310228
0.000285558
0.000263528
0.000243803
0.000226095
0.000210156
0.000195774
0.000182765
0.000170969
0.000160249
0.000150484
0.00014157
0.000133416
0.00012594
0.000119073
0.000112752
0.000106924
0.000101539
9.65557e-05
9.19354e-05
8.76446e-05
8.36533e-05
7.99346e-05
7.64646e-05
7.32218e-05
7.01869e-05
6.73426e-05
6.46733e-05
6.2165e-05
5.98049e-05
5.75815e-05
5.54844e-05
5.35043e-05
5.16326e-05
4.98614e-05
4.81837e-05
4.65932e-05
4.50839e-05
4.36505e-05
4.22882e-05
4.09926e-05
3.97596e-05
3.85857e-05
3.74676e-05
3.64023e-05
3.5387e-05
3.44193e-05
3.34971e-05
3.26185e-05
3.17816e-05
3.0985e-05
3.02272e-05
2.95071e-05
2.88237e-05
2.81759e-05
2.7563e-05
2.69843e-05
2.6439e-05
2.59266e-05
2.54466e-05
2.49982e-05
2.4581e-05
2.41944e-05
2.38376e-05
2.351e-05
2.32107e-05
2.29388e-05
2.26933e-05
2.24732e-05
2.22774e-05
2.21044e-05
2.19531e-05
2.18218e-05
2.17093e-05
2.16138e-05
2.1534e-05
2.14681e-05
2.14148e-05
2.13723e-05
2.13391e-05
2.13139e-05
2.12951e-05
2.12813e-05
2.12713e-05
2.12638e-05
2.12578e-05
2.12525e-05
2.12476e-05
2.12434e-05
0.000939686
0.000835713
0.000745881
0.000668019
0.00060032
0.000541272
0.000489611
0.000444273
0.000404365
0.000369131
0.000337933
0.00031023
0.000285559
0.000263529
0.000243804
0.000226096
0.000210157
0.000195775
0.000182766
0.00017097
0.00016025
0.000150486
0.000141572
0.000133417
0.000125941
0.000119074
0.000112753
0.000106925
0.00010154
9.6557e-05
9.19367e-05
8.7646e-05
8.36547e-05
7.9936e-05
7.6466e-05
7.32232e-05
7.01883e-05
6.73441e-05
6.46748e-05
6.21665e-05
5.98064e-05
5.75831e-05
5.54861e-05
5.3506e-05
5.16343e-05
4.98631e-05
4.81855e-05
4.6595e-05
4.50857e-05
4.36523e-05
4.22901e-05
4.09945e-05
3.97616e-05
3.85878e-05
3.74697e-05
3.64043e-05
3.53891e-05
3.44214e-05
3.34993e-05
3.26206e-05
3.17838e-05
3.09871e-05
3.02294e-05
2.95093e-05
2.88258e-05
2.8178e-05
2.75651e-05
2.69863e-05
2.64409e-05
2.59285e-05
2.54483e-05
2.49999e-05
2.45826e-05
2.41958e-05
2.38389e-05
2.35111e-05
2.32116e-05
2.29396e-05
2.2694e-05
2.24738e-05
2.22777e-05
2.21047e-05
2.19531e-05
2.18218e-05
2.17091e-05
2.16135e-05
2.15336e-05
2.14676e-05
2.14142e-05
2.13716e-05
2.13385e-05
2.13132e-05
2.12944e-05
2.12807e-05
2.12707e-05
2.12633e-05
2.12573e-05
2.1252e-05
2.12472e-05
2.1243e-05
0.000939686
0.000835714
0.000745881
0.00066802
0.000600321
0.000541273
0.000489612
0.000444274
0.000404366
0.000369132
0.000337934
0.000310231
0.00028556
0.000263531
0.000243805
0.000226097
0.000210158
0.000195776
0.000182767
0.000170972
0.000160252
0.000150487
0.000141573
0.000133418
0.000125943
0.000119075
0.000112755
0.000106927
0.000101542
9.65586e-05
9.19383e-05
8.76476e-05
8.36563e-05
7.99377e-05
7.64677e-05
7.32249e-05
7.01901e-05
6.73459e-05
6.46767e-05
6.21684e-05
5.98083e-05
5.7585e-05
5.54881e-05
5.3508e-05
5.16363e-05
4.98652e-05
4.81877e-05
4.65972e-05
4.50879e-05
4.36546e-05
4.22924e-05
4.09969e-05
3.97641e-05
3.85902e-05
3.74722e-05
3.64069e-05
3.53917e-05
3.44241e-05
3.35019e-05
3.26233e-05
3.17864e-05
3.09898e-05
3.0232e-05
2.95119e-05
2.88284e-05
2.81805e-05
2.75676e-05
2.69887e-05
2.64433e-05
2.59307e-05
2.54504e-05
2.50018e-05
2.45844e-05
2.41974e-05
2.38403e-05
2.35124e-05
2.32127e-05
2.29405e-05
2.26947e-05
2.24743e-05
2.22781e-05
2.21048e-05
2.19531e-05
2.18216e-05
2.17087e-05
2.1613e-05
2.1533e-05
2.1467e-05
2.14134e-05
2.13709e-05
2.13377e-05
2.13124e-05
2.12936e-05
2.12799e-05
2.127e-05
2.12626e-05
2.12566e-05
2.12514e-05
2.12466e-05
2.12424e-05
0.000939686
0.000835714
0.000745882
0.00066802
0.000600321
0.000541274
0.000489613
0.000444275
0.000404367
0.000369134
0.000337936
0.000310232
0.000285562
0.000263532
0.000243807
0.000226099
0.00021016
0.000195778
0.000182769
0.000170973
0.000160253
0.000150489
0.000141575
0.00013342
0.000125944
0.000119077
0.000112757
0.000106928
0.000101544
9.65604e-05
9.19402e-05
8.76495e-05
8.36582e-05
7.99396e-05
7.64697e-05
7.3227e-05
7.01922e-05
6.7348e-05
6.46788e-05
6.21706e-05
5.98106e-05
5.75873e-05
5.54904e-05
5.35104e-05
5.16388e-05
4.98677e-05
4.81902e-05
4.65998e-05
4.50906e-05
4.36574e-05
4.22952e-05
4.09997e-05
3.97669e-05
3.85932e-05
3.74752e-05
3.64099e-05
3.53947e-05
3.44271e-05
3.3505e-05
3.26264e-05
3.17896e-05
3.09929e-05
3.02351e-05
2.9515e-05
2.88314e-05
2.81835e-05
2.75705e-05
2.69915e-05
2.6446e-05
2.59333e-05
2.54528e-05
2.50041e-05
2.45864e-05
2.41993e-05
2.3842e-05
2.35138e-05
2.32139e-05
2.29415e-05
2.26955e-05
2.24748e-05
2.22784e-05
2.21049e-05
2.1953e-05
2.18213e-05
2.17082e-05
2.16124e-05
2.15322e-05
2.14661e-05
2.14125e-05
2.13699e-05
2.13367e-05
2.13114e-05
2.12927e-05
2.1279e-05
2.12691e-05
2.12617e-05
2.12558e-05
2.12507e-05
2.12459e-05
2.12416e-05
0.000939686
0.000835714
0.000745882
0.000668021
0.000600322
0.000541275
0.000489614
0.000444276
0.000404368
0.000369135
0.000337937
0.000310234
0.000285563
0.000263534
0.000243809
0.0002261
0.000210162
0.00019578
0.000182771
0.000170975
0.000160255
0.000150491
0.000141577
0.000133422
0.000125946
0.000119079
0.000112759
0.00010693
0.000101546
9.65625e-05
9.19423e-05
8.76516e-05
8.36604e-05
7.99419e-05
7.6472e-05
7.32293e-05
7.01945e-05
6.73504e-05
6.46813e-05
6.21731e-05
5.98131e-05
5.75899e-05
5.54931e-05
5.35131e-05
5.16416e-05
4.98706e-05
4.81931e-05
4.66028e-05
4.50937e-05
4.36605e-05
4.22984e-05
4.1003e-05
3.97702e-05
3.85965e-05
3.74786e-05
3.64133e-05
3.53982e-05
3.44307e-05
3.35086e-05
3.263e-05
3.17931e-05
3.09965e-05
3.02387e-05
2.95185e-05
2.88349e-05
2.81869e-05
2.75738e-05
2.69947e-05
2.6449e-05
2.59362e-05
2.54556e-05
2.50066e-05
2.45888e-05
2.42014e-05
2.38439e-05
2.35154e-05
2.32153e-05
2.29426e-05
2.26963e-05
2.24754e-05
2.22787e-05
2.21049e-05
2.19528e-05
2.18209e-05
2.17076e-05
2.16117e-05
2.15313e-05
2.14651e-05
2.14114e-05
2.13687e-05
2.13355e-05
2.13103e-05
2.12915e-05
2.12779e-05
2.1268e-05
2.12607e-05
2.12549e-05
2.12497e-05
2.12449e-05
2.12406e-05
0.000939686
0.000835714
0.000745882
0.000668021
0.000600323
0.000541275
0.000489615
0.000444277
0.00040437
0.000369136
0.000337939
0.000310235
0.000285565
0.000263535
0.00024381
0.000226102
0.000210164
0.000195782
0.000182773
0.000170977
0.000160257
0.000150493
0.000141579
0.000133424
0.000125948
0.000119081
0.000112761
0.000106933
0.000101548
9.65648e-05
9.19446e-05
8.7654e-05
8.36628e-05
7.99443e-05
7.64745e-05
7.32319e-05
7.01972e-05
6.73531e-05
6.4684e-05
6.21759e-05
5.9816e-05
5.75929e-05
5.54961e-05
5.35162e-05
5.16447e-05
4.98738e-05
4.81964e-05
4.66061e-05
4.50971e-05
4.3664e-05
4.23019e-05
4.10066e-05
3.97739e-05
3.86003e-05
3.74824e-05
3.64172e-05
3.54021e-05
3.44346e-05
3.35126e-05
3.2634e-05
3.17972e-05
3.10005e-05
3.02427e-05
2.95224e-05
2.88388e-05
2.81907e-05
2.75774e-05
2.69982e-05
2.64524e-05
2.59394e-05
2.54586e-05
2.50094e-05
2.45914e-05
2.42037e-05
2.38459e-05
2.35172e-05
2.32167e-05
2.29437e-05
2.26971e-05
2.24759e-05
2.22789e-05
2.21049e-05
2.19525e-05
2.18203e-05
2.17069e-05
2.16108e-05
2.15303e-05
2.14639e-05
2.14102e-05
2.13674e-05
2.13342e-05
2.13089e-05
2.12902e-05
2.12766e-05
2.12667e-05
2.12595e-05
2.12537e-05
2.12486e-05
2.12438e-05
2.12395e-05
0.000939686
0.000835714
0.000745883
0.000668022
0.000600323
0.000541276
0.000489615
0.000444278
0.000404371
0.000369138
0.00033794
0.000310237
0.000285567
0.000263537
0.000243812
0.000226104
0.000210165
0.000195784
0.000182775
0.000170979
0.000160259
0.000150495
0.000141581
0.000133426
0.000125951
0.000119084
0.000112763
0.000106935
0.000101551
9.65673e-05
9.19472e-05
8.76566e-05
8.36655e-05
7.9947e-05
7.64773e-05
7.32347e-05
7.02001e-05
6.7356e-05
6.4687e-05
6.2179e-05
5.98191e-05
5.75961e-05
5.54994e-05
5.35196e-05
5.16482e-05
4.98773e-05
4.82e-05
4.66098e-05
4.51008e-05
4.36678e-05
4.23059e-05
4.10106e-05
3.9778e-05
3.86044e-05
3.74866e-05
3.64215e-05
3.54064e-05
3.4439e-05
3.3517e-05
3.26384e-05
3.18016e-05
3.10049e-05
3.0247e-05
2.95268e-05
2.8843e-05
2.81949e-05
2.75815e-05
2.70021e-05
2.64562e-05
2.5943e-05
2.54619e-05
2.50125e-05
2.45942e-05
2.42062e-05
2.38481e-05
2.35191e-05
2.32183e-05
2.29449e-05
2.2698e-05
2.24765e-05
2.22792e-05
2.21049e-05
2.19522e-05
2.18198e-05
2.17061e-05
2.16097e-05
2.15291e-05
2.14626e-05
2.14087e-05
2.13659e-05
2.13326e-05
2.13073e-05
2.12886e-05
2.12751e-05
2.12653e-05
2.12581e-05
2.12523e-05
2.12473e-05
2.12425e-05
2.12382e-05
0.000939686
0.000835714
0.000745883
0.000668022
0.000600324
0.000541277
0.000489616
0.00044428
0.000404372
0.000369139
0.000337942
0.000310238
0.000285568
0.000263539
0.000243814
0.000226106
0.000210167
0.000195786
0.000182777
0.000170981
0.000160261
0.000150497
0.000141583
0.000133429
0.000125953
0.000119086
0.000112766
0.000106938
0.000101553
9.657e-05
9.19499e-05
8.76594e-05
8.36684e-05
7.995e-05
7.64802e-05
7.32377e-05
7.02032e-05
6.73592e-05
6.46903e-05
6.21823e-05
5.98226e-05
5.75996e-05
5.5503e-05
5.35232e-05
5.16519e-05
4.98812e-05
4.82039e-05
4.66138e-05
4.51049e-05
4.3672e-05
4.23101e-05
4.10149e-05
3.97824e-05
3.86089e-05
3.74912e-05
3.64261e-05
3.54111e-05
3.44437e-05
3.35217e-05
3.26432e-05
3.18064e-05
3.10097e-05
3.02518e-05
2.95315e-05
2.88477e-05
2.81994e-05
2.75859e-05
2.70064e-05
2.64602e-05
2.59468e-05
2.54655e-05
2.50158e-05
2.45972e-05
2.4209e-05
2.38505e-05
2.35211e-05
2.322e-05
2.29463e-05
2.2699e-05
2.24771e-05
2.22795e-05
2.21048e-05
2.19518e-05
2.18191e-05
2.17052e-05
2.16086e-05
2.15278e-05
2.14611e-05
2.14072e-05
2.13643e-05
2.13309e-05
2.13056e-05
2.12869e-05
2.12734e-05
2.12637e-05
2.12565e-05
2.12508e-05
2.12458e-05
2.12411e-05
2.12367e-05
0.000939686
0.000835715
0.000745883
0.000668023
0.000600324
0.000541278
0.000489617
0.000444281
0.000404373
0.00036914
0.000337943
0.00031024
0.00028557
0.000263541
0.000243816
0.000226108
0.00021017
0.000195788
0.000182779
0.000170984
0.000160264
0.000150499
0.000141586
0.000133431
0.000125956
0.000119089
0.000112768
0.00010694
0.000101556
9.65728e-05
9.19529e-05
8.76624e-05
8.36714e-05
7.99531e-05
7.64834e-05
7.3241e-05
7.02065e-05
6.73626e-05
6.46938e-05
6.21859e-05
5.98262e-05
5.76033e-05
5.55068e-05
5.35272e-05
5.16559e-05
4.98853e-05
4.82081e-05
4.66181e-05
4.51093e-05
4.36765e-05
4.23147e-05
4.10196e-05
3.97872e-05
3.86138e-05
3.74961e-05
3.64311e-05
3.54162e-05
3.44488e-05
3.35269e-05
3.26483e-05
3.18115e-05
3.10148e-05
3.02569e-05
2.95365e-05
2.88526e-05
2.82042e-05
2.75906e-05
2.70109e-05
2.64646e-05
2.59509e-05
2.54694e-05
2.50194e-05
2.46004e-05
2.42119e-05
2.3853e-05
2.35233e-05
2.32218e-05
2.29477e-05
2.27e-05
2.24777e-05
2.22797e-05
2.21047e-05
2.19514e-05
2.18183e-05
2.17042e-05
2.16073e-05
2.15263e-05
2.14595e-05
2.14054e-05
2.13624e-05
2.1329e-05
2.13037e-05
2.1285e-05
2.12715e-05
2.12618e-05
2.12547e-05
2.12491e-05
2.12441e-05
2.12394e-05
2.1235e-05
0.000939686
0.000835715
0.000745884
0.000668023
0.000600325
0.000541278
0.000489618
0.000444282
0.000404374
0.000369141
0.000337944
0.000310241
0.000285572
0.000263542
0.000243818
0.00022611
0.000210172
0.00019579
0.000182781
0.000170986
0.000160266
0.000150502
0.000141588
0.000133434
0.000125958
0.000119091
0.000112771
0.000106943
0.000101559
9.65758e-05
9.19559e-05
8.76655e-05
8.36746e-05
7.99564e-05
7.64868e-05
7.32445e-05
7.021e-05
6.73663e-05
6.46975e-05
6.21897e-05
5.98301e-05
5.76073e-05
5.55109e-05
5.35313e-05
5.16602e-05
4.98897e-05
4.82126e-05
4.66227e-05
4.5114e-05
4.36813e-05
4.23196e-05
4.10246e-05
3.97923e-05
3.86189e-05
3.75013e-05
3.64364e-05
3.54215e-05
3.44542e-05
3.35323e-05
3.26538e-05
3.1817e-05
3.10203e-05
3.02623e-05
2.95419e-05
2.88579e-05
2.82094e-05
2.75956e-05
2.70157e-05
2.64692e-05
2.59553e-05
2.54734e-05
2.50232e-05
2.46039e-05
2.42149e-05
2.38557e-05
2.35256e-05
2.32236e-05
2.29491e-05
2.2701e-05
2.24784e-05
2.22799e-05
2.21046e-05
2.19509e-05
2.18175e-05
2.17031e-05
2.1606e-05
2.15247e-05
2.14578e-05
2.14035e-05
2.13605e-05
2.1327e-05
2.13017e-05
2.12829e-05
2.12695e-05
2.12598e-05
2.12527e-05
2.12472e-05
2.12422e-05
2.12375e-05
2.12332e-05
0.000939686
0.000835715
0.000745884
0.000668023
0.000600325
0.000541279
0.000489619
0.000444282
0.000404375
0.000369143
0.000337946
0.000310243
0.000285573
0.000263544
0.00024382
0.000226112
0.000210174
0.000195792
0.000182783
0.000170988
0.000160269
0.000150504
0.000141591
0.000133436
0.000125961
0.000119094
0.000112774
0.000106946
0.000101562
9.65789e-05
9.19591e-05
8.76688e-05
8.3678e-05
7.99598e-05
7.64903e-05
7.32481e-05
7.02137e-05
6.737e-05
6.47014e-05
6.21937e-05
5.98342e-05
5.76115e-05
5.55152e-05
5.35357e-05
5.16647e-05
4.98943e-05
4.82173e-05
4.66275e-05
4.5119e-05
4.36863e-05
4.23248e-05
4.10298e-05
3.97976e-05
3.86244e-05
3.75068e-05
3.6442e-05
3.54272e-05
3.446e-05
3.35381e-05
3.26596e-05
3.18228e-05
3.10261e-05
3.0268e-05
2.95475e-05
2.88634e-05
2.82148e-05
2.76009e-05
2.70208e-05
2.6474e-05
2.59598e-05
2.54777e-05
2.50271e-05
2.46075e-05
2.42182e-05
2.38586e-05
2.3528e-05
2.32256e-05
2.29507e-05
2.27021e-05
2.2479e-05
2.22802e-05
2.21044e-05
2.19504e-05
2.18167e-05
2.17019e-05
2.16045e-05
2.15231e-05
2.14559e-05
2.14015e-05
2.13583e-05
2.13248e-05
2.12994e-05
2.12807e-05
2.12672e-05
2.12576e-05
2.12506e-05
2.1245e-05
2.12402e-05
2.12355e-05
2.12311e-05
0.000939686
0.000835715
0.000745884
0.000668024
0.000600326
0.00054128
0.00048962
0.000444283
0.000404376
0.000369144
0.000337947
0.000310244
0.000285575
0.000263546
0.000243821
0.000226114
0.000210176
0.000195794
0.000182786
0.000170991
0.000160271
0.000150507
0.000141594
0.000133439
0.000125964
0.000119097
0.000112777
0.000106949
0.000101565
9.65822e-05
9.19624e-05
8.76722e-05
8.36815e-05
7.99634e-05
7.6494e-05
7.32518e-05
7.02176e-05
6.7374e-05
6.47054e-05
6.21978e-05
5.98385e-05
5.76159e-05
5.55196e-05
5.35403e-05
5.16694e-05
4.98991e-05
4.82223e-05
4.66326e-05
4.51241e-05
4.36916e-05
4.23301e-05
4.10353e-05
3.98032e-05
3.86301e-05
3.75126e-05
3.64479e-05
3.54331e-05
3.44659e-05
3.35441e-05
3.26657e-05
3.18288e-05
3.10321e-05
3.0274e-05
2.95534e-05
2.88692e-05
2.82205e-05
2.76064e-05
2.70261e-05
2.64791e-05
2.59646e-05
2.54822e-05
2.50313e-05
2.46113e-05
2.42216e-05
2.38615e-05
2.35305e-05
2.32277e-05
2.29523e-05
2.27033e-05
2.24797e-05
2.22804e-05
2.21042e-05
2.19498e-05
2.18157e-05
2.17006e-05
2.1603e-05
2.15213e-05
2.14539e-05
2.13994e-05
2.13561e-05
2.13224e-05
2.1297e-05
2.12783e-05
2.12648e-05
2.12552e-05
2.12482e-05
2.12427e-05
2.12379e-05
2.12333e-05
2.12289e-05
0.000939686
0.000835715
0.000745884
0.000668024
0.000600326
0.00054128
0.00048962
0.000444284
0.000404377
0.000369145
0.000337949
0.000310246
0.000285577
0.000263548
0.000243823
0.000226116
0.000210178
0.000195797
0.000182788
0.000170993
0.000160274
0.00015051
0.000141596
0.000133442
0.000125967
0.0001191
0.00011278
0.000106952
0.000101568
9.65855e-05
9.19658e-05
8.76757e-05
8.36851e-05
7.99671e-05
7.64978e-05
7.32557e-05
7.02216e-05
6.73781e-05
6.47096e-05
6.22021e-05
5.98429e-05
5.76204e-05
5.55243e-05
5.35451e-05
5.16743e-05
4.99041e-05
4.82274e-05
4.66378e-05
4.51295e-05
4.36971e-05
4.23357e-05
4.10411e-05
3.9809e-05
3.8636e-05
3.75186e-05
3.6454e-05
3.54393e-05
3.44722e-05
3.35504e-05
3.26719e-05
3.18351e-05
3.10384e-05
3.02803e-05
2.95596e-05
2.88753e-05
2.82264e-05
2.76121e-05
2.70316e-05
2.64843e-05
2.59696e-05
2.54869e-05
2.50356e-05
2.46152e-05
2.42251e-05
2.38646e-05
2.35331e-05
2.32298e-05
2.29539e-05
2.27045e-05
2.24804e-05
2.22807e-05
2.2104e-05
2.19492e-05
2.18148e-05
2.16993e-05
2.16014e-05
2.15194e-05
2.14518e-05
2.13971e-05
2.13537e-05
2.132e-05
2.12945e-05
2.12757e-05
2.12622e-05
2.12527e-05
2.12457e-05
2.12403e-05
2.12354e-05
2.12308e-05
2.12265e-05
0.000939686
0.000835715
0.000745884
0.000668024
0.000600327
0.000541281
0.000489621
0.000444285
0.000404378
0.000369146
0.00033795
0.000310247
0.000285578
0.000263549
0.000243825
0.000226118
0.00021018
0.000195799
0.00018279
0.000170996
0.000160276
0.000150512
0.000141599
0.000133445
0.00012597
0.000119103
0.000112783
0.000106956
0.000101572
9.65889e-05
9.19693e-05
8.76793e-05
8.36887e-05
7.99708e-05
7.65016e-05
7.32597e-05
7.02257e-05
6.73823e-05
6.47139e-05
6.22066e-05
5.98474e-05
5.76251e-05
5.55291e-05
5.355e-05
5.16793e-05
4.99093e-05
4.82327e-05
4.66433e-05
4.5135e-05
4.37028e-05
4.23415e-05
4.1047e-05
3.9815e-05
3.86421e-05
3.75249e-05
3.64603e-05
3.54457e-05
3.44786e-05
3.35569e-05
3.26784e-05
3.18416e-05
3.10448e-05
3.02867e-05
2.95659e-05
2.88815e-05
2.82325e-05
2.7618e-05
2.70373e-05
2.64898e-05
2.59748e-05
2.54917e-05
2.50401e-05
2.46192e-05
2.42287e-05
2.38678e-05
2.35358e-05
2.3232e-05
2.29556e-05
2.27057e-05
2.24811e-05
2.22809e-05
2.21038e-05
2.19486e-05
2.18137e-05
2.16979e-05
2.15997e-05
2.15174e-05
2.14496e-05
2.13947e-05
2.13511e-05
2.13173e-05
2.12918e-05
2.1273e-05
2.12595e-05
2.125e-05
2.1243e-05
2.12376e-05
2.12328e-05
2.12282e-05
2.12239e-05
0.000939686
0.000835715
0.000745884
0.000668025
0.000600327
0.000541281
0.000489622
0.000444286
0.000404379
0.000369147
0.000337951
0.000310249
0.00028558
0.000263551
0.000243827
0.00022612
0.000210182
0.000195801
0.000182793
0.000170998
0.000160279
0.000150515
0.000141602
0.000133448
0.000125973
0.000119106
0.000112786
0.000106959
0.000101575
9.65923e-05
9.19729e-05
8.76829e-05
8.36925e-05
7.99747e-05
7.65056e-05
7.32638e-05
7.02299e-05
6.73866e-05
6.47184e-05
6.22111e-05
5.98521e-05
5.76299e-05
5.5534e-05
5.35551e-05
5.16845e-05
4.99146e-05
4.82381e-05
4.66488e-05
4.51407e-05
4.37086e-05
4.23475e-05
4.1053e-05
3.98212e-05
3.86484e-05
3.75313e-05
3.64668e-05
3.54522e-05
3.44852e-05
3.35635e-05
3.26851e-05
3.18483e-05
3.10515e-05
3.02933e-05
2.95725e-05
2.88879e-05
2.82388e-05
2.76241e-05
2.70432e-05
2.64954e-05
2.59801e-05
2.54967e-05
2.50446e-05
2.46234e-05
2.42324e-05
2.3871e-05
2.35386e-05
2.32343e-05
2.29574e-05
2.27069e-05
2.24819e-05
2.22812e-05
2.21036e-05
2.19479e-05
2.18127e-05
2.16965e-05
2.15979e-05
2.15154e-05
2.14473e-05
2.13922e-05
2.13485e-05
2.13146e-05
2.1289e-05
2.12701e-05
2.12566e-05
2.12471e-05
2.12402e-05
2.12348e-05
2.123e-05
2.12254e-05
2.12211e-05
0.000939686
0.000835715
0.000745885
0.000668025
0.000600327
0.000541282
0.000489622
0.000444287
0.00040438
0.000369148
0.000337952
0.00031025
0.000285581
0.000263553
0.000243829
0.000226122
0.000210184
0.000195803
0.000182795
0.000171
0.000160281
0.000150517
0.000141604
0.00013345
0.000125976
0.000119109
0.00011279
0.000106962
0.000101578
9.65958e-05
9.19764e-05
8.76866e-05
8.36963e-05
7.99786e-05
7.65096e-05
7.32679e-05
7.02341e-05
6.7391e-05
6.47229e-05
6.22157e-05
5.98568e-05
5.76347e-05
5.5539e-05
5.35602e-05
5.16898e-05
4.992e-05
4.82437e-05
4.66545e-05
4.51466e-05
4.37145e-05
4.23536e-05
4.10593e-05
3.98276e-05
3.86548e-05
3.75378e-05
3.64734e-05
3.54589e-05
3.4492e-05
3.35703e-05
3.2692e-05
3.18551e-05
3.10583e-05
3.03e-05
2.95791e-05
2.88945e-05
2.82451e-05
2.76303e-05
2.70491e-05
2.65011e-05
2.59855e-05
2.55017e-05
2.50493e-05
2.46276e-05
2.42362e-05
2.38743e-05
2.35414e-05
2.32366e-05
2.29592e-05
2.27082e-05
2.24827e-05
2.22815e-05
2.21034e-05
2.19473e-05
2.18116e-05
2.16951e-05
2.15961e-05
2.15133e-05
2.1445e-05
2.13897e-05
2.13458e-05
2.13117e-05
2.1286e-05
2.12671e-05
2.12536e-05
2.12441e-05
2.12372e-05
2.12318e-05
2.1227e-05
2.12225e-05
2.12182e-05
0.000939686
0.000835715
0.000745885
0.000668025
0.000600328
0.000541282
0.000489623
0.000444287
0.000404381
0.000369149
0.000337953
0.000310251
0.000285583
0.000263554
0.00024383
0.000226123
0.000210186
0.000195805
0.000182797
0.000171003
0.000160284
0.00015052
0.000141607
0.000133453
0.000125978
0.000119112
0.000112793
0.000106965
0.000101582
9.65993e-05
9.198e-05
8.76903e-05
8.37001e-05
7.99825e-05
7.65137e-05
7.32721e-05
7.02384e-05
6.73954e-05
6.47274e-05
6.22204e-05
5.98617e-05
5.76397e-05
5.55441e-05
5.35654e-05
5.16952e-05
4.99255e-05
4.82493e-05
4.66603e-05
4.51525e-05
4.37206e-05
4.23598e-05
4.10656e-05
3.9834e-05
3.86614e-05
3.75444e-05
3.64801e-05
3.54658e-05
3.44989e-05
3.35772e-05
3.26989e-05
3.18621e-05
3.10652e-05
3.03069e-05
2.95859e-05
2.89011e-05
2.82517e-05
2.76366e-05
2.70552e-05
2.65069e-05
2.59909e-05
2.55068e-05
2.5054e-05
2.4632e-05
2.42401e-05
2.38777e-05
2.35443e-05
2.3239e-05
2.2961e-05
2.27095e-05
2.24834e-05
2.22817e-05
2.21032e-05
2.19466e-05
2.18105e-05
2.16936e-05
2.15943e-05
2.15111e-05
2.14426e-05
2.1387e-05
2.1343e-05
2.13088e-05
2.1283e-05
2.1264e-05
2.12505e-05
2.12409e-05
2.1234e-05
2.12286e-05
2.12239e-05
2.12194e-05
2.12151e-05
0.000939686
0.000835715
0.000745885
0.000668025
0.000600328
0.000541283
0.000489623
0.000444288
0.000404382
0.00036915
0.000337954
0.000310253
0.000285584
0.000263556
0.000243832
0.000226125
0.000210188
0.000195807
0.000182799
0.000171005
0.000160286
0.000150523
0.00014161
0.000133456
0.000125981
0.000119115
0.000112796
0.000106969
0.000101585
9.66027e-05
9.19836e-05
8.76941e-05
8.37039e-05
7.99865e-05
7.65178e-05
7.32763e-05
7.02428e-05
6.73999e-05
6.4732e-05
6.22252e-05
5.98665e-05
5.76447e-05
5.55493e-05
5.35707e-05
5.17006e-05
4.99311e-05
4.82551e-05
4.66662e-05
4.51585e-05
4.37267e-05
4.2366e-05
4.1072e-05
3.98405e-05
3.8668e-05
3.75512e-05
3.6487e-05
3.54727e-05
3.45058e-05
3.35843e-05
3.27059e-05
3.18691e-05
3.10722e-05
3.03139e-05
2.95928e-05
2.89079e-05
2.82582e-05
2.7643e-05
2.70614e-05
2.65128e-05
2.59965e-05
2.55121e-05
2.50589e-05
2.46364e-05
2.4244e-05
2.38812e-05
2.35472e-05
2.32414e-05
2.29629e-05
2.27108e-05
2.24842e-05
2.2282e-05
2.2103e-05
2.19459e-05
2.18094e-05
2.1692e-05
2.15924e-05
2.15089e-05
2.14401e-05
2.13843e-05
2.13401e-05
2.13058e-05
2.12798e-05
2.12608e-05
2.12472e-05
2.12376e-05
2.12308e-05
2.12254e-05
2.12207e-05
2.12162e-05
2.12118e-05
0.000939686
0.000835715
0.000745885
0.000668025
0.000600328
0.000541283
0.000489624
0.000444289
0.000404383
0.000369151
0.000337955
0.000310254
0.000285585
0.000263557
0.000243834
0.000226127
0.00021019
0.000195809
0.000182801
0.000171007
0.000160288
0.000150525
0.000141612
0.000133459
0.000125984
0.000119118
0.000112799
0.000106972
0.000101588
9.66062e-05
9.19872e-05
8.76978e-05
8.37078e-05
7.99905e-05
7.65219e-05
7.32805e-05
7.02471e-05
6.74044e-05
6.47367e-05
6.22299e-05
5.98714e-05
5.76498e-05
5.55544e-05
5.35761e-05
5.17061e-05
4.99367e-05
4.82608e-05
4.66721e-05
4.51645e-05
4.37329e-05
4.23724e-05
4.10784e-05
3.98471e-05
3.86747e-05
3.7558e-05
3.64939e-05
3.54796e-05
3.45129e-05
3.35913e-05
3.2713e-05
3.18762e-05
3.10793e-05
3.03209e-05
2.95997e-05
2.89147e-05
2.82649e-05
2.76494e-05
2.70676e-05
2.65187e-05
2.60021e-05
2.55173e-05
2.50637e-05
2.46408e-05
2.4248e-05
2.38846e-05
2.35502e-05
2.32438e-05
2.29648e-05
2.27122e-05
2.24851e-05
2.22823e-05
2.21028e-05
2.19452e-05
2.18082e-05
2.16905e-05
2.15905e-05
2.15067e-05
2.14376e-05
2.13816e-05
2.13371e-05
2.13027e-05
2.12766e-05
2.12575e-05
2.12439e-05
2.12343e-05
2.12274e-05
2.1222e-05
2.12173e-05
2.12128e-05
2.12085e-05
0.000939686
0.000835716
0.000745885
0.000668026
0.000600329
0.000541283
0.000489624
0.000444289
0.000404383
0.000369152
0.000337956
0.000310255
0.000285587
0.000263559
0.000243835
0.000226129
0.000210192
0.000195811
0.000182804
0.000171009
0.000160291
0.000150528
0.000141615
0.000133462
0.000125987
0.000119121
0.000112802
0.000106975
0.000101592
9.66097e-05
9.19908e-05
8.77015e-05
8.37116e-05
7.99945e-05
7.6526e-05
7.32848e-05
7.02515e-05
6.74089e-05
6.47413e-05
6.22347e-05
5.98764e-05
5.76548e-05
5.55596e-05
5.35814e-05
5.17116e-05
4.99423e-05
4.82666e-05
4.6678e-05
4.51706e-05
4.37391e-05
4.23787e-05
4.10849e-05
3.98537e-05
3.86814e-05
3.75648e-05
3.65008e-05
3.54866e-05
3.45199e-05
3.35984e-05
3.27202e-05
3.18834e-05
3.10864e-05
3.03279e-05
2.96067e-05
2.89215e-05
2.82716e-05
2.76559e-05
2.70738e-05
2.65247e-05
2.60078e-05
2.55226e-05
2.50686e-05
2.46452e-05
2.42519e-05
2.38881e-05
2.35531e-05
2.32462e-05
2.29667e-05
2.27135e-05
2.24859e-05
2.22826e-05
2.21026e-05
2.19445e-05
2.18071e-05
2.16889e-05
2.15885e-05
2.15044e-05
2.1435e-05
2.13788e-05
2.13341e-05
2.12995e-05
2.12734e-05
2.12542e-05
2.12405e-05
2.12308e-05
2.12239e-05
2.12185e-05
2.12139e-05
2.12094e-05
2.1205e-05
0.000939686
0.000835716
0.000745885
0.000668026
0.000600329
0.000541284
0.000489625
0.00044429
0.000404384
0.000369153
0.000337957
0.000310256
0.000285588
0.00026356
0.000243837
0.00022613
0.000210193
0.000195813
0.000182806
0.000171012
0.000160293
0.00015053
0.000141618
0.000133464
0.00012599
0.000119124
0.000112805
0.000106978
0.000101595
9.66131e-05
9.19944e-05
8.77052e-05
8.37154e-05
7.99984e-05
7.65301e-05
7.3289e-05
7.02558e-05
6.74133e-05
6.47459e-05
6.22394e-05
5.98813e-05
5.76599e-05
5.55648e-05
5.35868e-05
5.17171e-05
4.9948e-05
4.82724e-05
4.66839e-05
4.51767e-05
4.37453e-05
4.2385e-05
4.10914e-05
3.98603e-05
3.86881e-05
3.75716e-05
3.65077e-05
3.54936e-05
3.4527e-05
3.36055e-05
3.27273e-05
3.18905e-05
3.10935e-05
3.0335e-05
2.96136e-05
2.89284e-05
2.82782e-05
2.76624e-05
2.70801e-05
2.65306e-05
2.60134e-05
2.55279e-05
2.50735e-05
2.46497e-05
2.42559e-05
2.38916e-05
2.35561e-05
2.32487e-05
2.29686e-05
2.27149e-05
2.24867e-05
2.22829e-05
2.21023e-05
2.19438e-05
2.18059e-05
2.16874e-05
2.15866e-05
2.15021e-05
2.14324e-05
2.1376e-05
2.13311e-05
2.12963e-05
2.127e-05
2.12508e-05
2.1237e-05
2.12273e-05
2.12204e-05
2.1215e-05
2.12103e-05
2.12058e-05
2.12015e-05
0.000939686
0.000835716
0.000745885
0.000668026
0.000600329
0.000541284
0.000489625
0.00044429
0.000404385
0.000369154
0.000337958
0.000310257
0.000285589
0.000263561
0.000243838
0.000226132
0.000210195
0.000195815
0.000182808
0.000171014
0.000160295
0.000150532
0.00014162
0.000133467
0.000125993
0.000119127
0.000112808
0.000106981
0.000101598
9.66165e-05
9.19979e-05
8.77088e-05
8.37192e-05
8.00023e-05
7.65341e-05
7.32931e-05
7.02601e-05
6.74178e-05
6.47505e-05
6.22442e-05
5.98861e-05
5.76649e-05
5.557e-05
5.35921e-05
5.17225e-05
4.99536e-05
4.82781e-05
4.66898e-05
4.51827e-05
4.37515e-05
4.23914e-05
4.10978e-05
3.98669e-05
3.86948e-05
3.75784e-05
3.65146e-05
3.55006e-05
3.4534e-05
3.36126e-05
3.27344e-05
3.18976e-05
3.11006e-05
3.0342e-05
2.96206e-05
2.89352e-05
2.82849e-05
2.76688e-05
2.70863e-05