/*--------------------------------*- C++ -*----------------------------------*\
  =========                 |
  \\      /  F ield         | OpenFOAM: The Open Source CFD Toolbox
   \\    /   O peration     | Website:  https://openfoam.org
    \\  /    A nd           | Version:  11
     \\/     M anipulation  |
\*---------------------------------------------------------------------------*/
FoamFile
{
    format      ascii;
    class       volScalarField;
    location    "428";
    object      omega;
}
// * * * * * * * * * * * * * * * * * * * * * * * * * * * * * * * * * * * * * //

dimensions      [0 0 -1 0 0 0 0];

internalField   nonuniform List<scalar> 
10000
(
0.961693
0.892186
0.829086
0.771729
0.719524
0.671944
0.628521
0.588838
0.552524
0.519246
0.488709
0.460647
0.434824
0.411028
0.38907
0.368781
0.350007
0.332612
0.316473
0.301479
0.287531
0.274539
0.262421
0.251106
0.240526
0.230622
0.221339
0.212628
0.204445
0.196748
0.189501
0.18267
0.176224
0.170134
0.164376
0.158926
0.153761
0.148863
0.144212
0.139793
0.135589
0.131587
0.127772
0.124134
0.12066
0.117341
0.114166
0.111126
0.108214
0.10542
0.102738
0.100161
0.0976815
0.0952946
0.0929941
0.0907745
0.0886309
0.0865583
0.0845522
0.0826083
0.0807226
0.0788914
0.077111
0.0753783
0.0736902
0.0720441
0.0704374
0.0688681
0.0673344
0.0658348
0.0643682
0.0629338
0.0615313
0.0601606
0.0588219
0.0575157
0.0562429
0.0550043
0.0538012
0.0526349
0.0515068
0.0504184
0.0493709
0.0483656
0.0474038
0.0464862
0.045614
0.044788
0.0440093
0.0432786
0.0425971
0.0419661
0.0413871
0.0408621
0.0403938
0.0399857
0.0396425
0.0393702
0.039177
0.0390737
0.961693
0.892186
0.829086
0.771729
0.719524
0.671944
0.628521
0.588839
0.552524
0.519246
0.488709
0.460647
0.434824
0.411028
0.389071
0.368781
0.350007
0.332612
0.316473
0.301479
0.287531
0.274539
0.262422
0.251106
0.240526
0.230622
0.221339
0.212629
0.204445
0.196749
0.189501
0.18267
0.176224
0.170135
0.164377
0.158926
0.153762
0.148863
0.144213
0.139793
0.13559
0.131587
0.127773
0.124135
0.120661
0.117342
0.114167
0.111127
0.108214
0.105421
0.102739
0.100162
0.0976826
0.0952958
0.0929953
0.0907759
0.0886323
0.0865598
0.0845538
0.0826101
0.0807245
0.0788934
0.0771132
0.0753806
0.0736927
0.0720467
0.0704402
0.0688711
0.0673376
0.0658381
0.0643717
0.0629375
0.0615352
0.0601646
0.058826
0.05752
0.0562472
0.0550088
0.0538058
0.0526396
0.0515116
0.0504232
0.0493756
0.0483702
0.0474081
0.0464904
0.045618
0.0447919
0.0440129
0.0432821
0.0426004
0.0419692
0.0413901
0.0408649
0.0403965
0.0399882
0.0396449
0.0393725
0.0391793
0.0390759
0.961693
0.892186
0.829087
0.77173
0.719524
0.671944
0.628521
0.588839
0.552525
0.519247
0.488709
0.460647
0.434824
0.411029
0.389071
0.368782
0.350008
0.332613
0.316473
0.30148
0.287532
0.27454
0.262422
0.251107
0.240527
0.230623
0.22134
0.212629
0.204446
0.196749
0.189502
0.182671
0.176225
0.170136
0.164378
0.158927
0.153763
0.148864
0.144214
0.139794
0.135591
0.131588
0.127774
0.124136
0.120662
0.117343
0.114168
0.111128
0.108216
0.105422
0.10274
0.100163
0.0976844
0.0952977
0.0929973
0.090778
0.0886346
0.0865623
0.0845564
0.0826129
0.0807275
0.0788967
0.0771167
0.0753844
0.0736967
0.072051
0.0704448
0.068876
0.0673427
0.0658436
0.0643775
0.0629436
0.0615416
0.0601713
0.0588329
0.0575271
0.0562545
0.0550163
0.0538135
0.0526474
0.0515195
0.0504311
0.0493835
0.0483779
0.0474157
0.0464977
0.0456251
0.0447987
0.0440195
0.0432884
0.0426064
0.041975
0.0413955
0.0408702
0.0404015
0.039993
0.0396495
0.039377
0.0391837
0.0390802
0.961693
0.892186
0.829087
0.77173
0.719524
0.671944
0.628522
0.588839
0.552525
0.519247
0.48871
0.460648
0.434825
0.411029
0.389072
0.368782
0.350008
0.332613
0.316474
0.30148
0.287532
0.27454
0.262423
0.251108
0.240528
0.230624
0.221341
0.21263
0.204447
0.19675
0.189503
0.182672
0.176226
0.170137
0.164379
0.158928
0.153764
0.148865
0.144215
0.139796
0.135592
0.13159
0.127775
0.124137
0.120664
0.117345
0.11417
0.11113
0.108218
0.105424
0.102743
0.100166
0.0976869
0.0953003
0.0930002
0.0907811
0.0886378
0.0865657
0.0845602
0.0826169
0.0807318
0.0789012
0.0771216
0.0753896
0.0737023
0.072057
0.0704512
0.0688828
0.06735
0.0658513
0.0643856
0.0629522
0.0615505
0.0601806
0.0588426
0.0575371
0.0562648
0.0550268
0.0538242
0.0526583
0.0515304
0.050442
0.0493944
0.0483887
0.0474263
0.0465081
0.0456351
0.0448084
0.0440288
0.0432974
0.0426151
0.0419833
0.0414035
0.0408777
0.0404087
0.04
0.0396562
0.0393835
0.0391901
0.0390865
0.961693
0.892186
0.829087
0.77173
0.719525
0.671945
0.628522
0.58884
0.552526
0.519248
0.48871
0.460648
0.434825
0.41103
0.389072
0.368783
0.350009
0.332614
0.316475
0.301481
0.287533
0.274541
0.262424
0.251109
0.240529
0.230625
0.221342
0.212631
0.204448
0.196751
0.189504
0.182673
0.176227
0.170138
0.16438
0.15893
0.153765
0.148867
0.144217
0.139797
0.135594
0.131592
0.127777
0.124139
0.120666
0.117347
0.114172
0.111133
0.10822
0.105427
0.102746
0.100169
0.0976902
0.0953038
0.0930039
0.090785
0.088642
0.0865702
0.0845649
0.082622
0.0807373
0.0789071
0.0771278
0.0753963
0.0737095
0.0720647
0.0704594
0.0688915
0.0673592
0.0658611
0.064396
0.062963
0.0615619
0.0601924
0.0588549
0.0575498
0.0562779
0.0550402
0.0538378
0.0526721
0.0515444
0.050456
0.0494082
0.0484024
0.0474397
0.0465212
0.0456479
0.0448208
0.0440408
0.0433089
0.0426262
0.0419939
0.0414137
0.0408875
0.0404181
0.040009
0.0396649
0.039392
0.0391983
0.0390947
0.961693
0.892186
0.829087
0.77173
0.719525
0.671945
0.628523
0.58884
0.552526
0.519248
0.488711
0.460649
0.434826
0.411031
0.389073
0.368784
0.35001
0.332615
0.316476
0.301482
0.287534
0.274542
0.262425
0.25111
0.24053
0.230626
0.221343
0.212633
0.204449
0.196753
0.189506
0.182675
0.176229
0.17014
0.164382
0.158932
0.153767
0.148869
0.144219
0.1398
0.135596
0.131594
0.12778
0.124142
0.120669
0.11735
0.114175
0.111136
0.108224
0.105431
0.102749
0.100173
0.0976942
0.0953081
0.0930084
0.0907898
0.0886471
0.0865756
0.0845707
0.0826282
0.0807439
0.0789142
0.0771354
0.0754044
0.0737182
0.0720739
0.0704693
0.068902
0.0673704
0.0658729
0.0644084
0.0629761
0.0615756
0.0602067
0.0588697
0.0575651
0.0562936
0.0550562
0.0538542
0.0526886
0.051561
0.0504726
0.0494248
0.0484188
0.0474558
0.046537
0.0456633
0.0448358
0.0440553
0.0433229
0.0426396
0.0420068
0.041426
0.0408994
0.0404295
0.04002
0.0396755
0.0394022
0.0392084
0.0391046
0.961693
0.892186
0.829087
0.77173
0.719525
0.671945
0.628523
0.588841
0.552527
0.519249
0.488712
0.46065
0.434827
0.411032
0.389074
0.368785
0.350011
0.332616
0.316477
0.301484
0.287536
0.274544
0.262427
0.251111
0.240532
0.230628
0.221345
0.212634
0.204451
0.196755
0.189508
0.182677
0.176231
0.170142
0.164384
0.158934
0.153769
0.148871
0.144221
0.139802
0.135599
0.131597
0.127783
0.124145
0.120672
0.117353
0.114178
0.111139
0.108227
0.105435
0.102753
0.100177
0.0976989
0.095313
0.0930137
0.0907954
0.0886531
0.086582
0.0845775
0.0826354
0.0807516
0.0789224
0.0771443
0.0754139
0.0737283
0.0720847
0.0704807
0.0689142
0.0673833
0.0658865
0.0644228
0.0629912
0.0615914
0.0602232
0.0588868
0.0575827
0.0563117
0.0550747
0.053873
0.0527077
0.0515801
0.0504917
0.0494438
0.0484376
0.0474744
0.0465552
0.0456811
0.044853
0.044072
0.043339
0.0426551
0.0420217
0.0414404
0.0409131
0.0404427
0.0400327
0.0396878
0.0394142
0.03922
0.039116
0.961693
0.892186
0.829087
0.77173
0.719525
0.671946
0.628523
0.588841
0.552527
0.51925
0.488712
0.460651
0.434828
0.411033
0.389075
0.368786
0.350012
0.332617
0.316479
0.301485
0.287537
0.274545
0.262428
0.251113
0.240533
0.230629
0.221347
0.212636
0.204453
0.196757
0.18951
0.182679
0.176233
0.170144
0.164386
0.158936
0.153772
0.148874
0.144224
0.139805
0.135602
0.1316
0.127786
0.124148
0.120675
0.117356
0.114182
0.111143
0.108232
0.105439
0.102758
0.100182
0.0977042
0.0953186
0.0930196
0.0908017
0.0886598
0.0865892
0.0845852
0.0826436
0.0807604
0.0789318
0.0771542
0.0754245
0.0737396
0.0720968
0.0704936
0.0689278
0.0673978
0.0659018
0.0644389
0.0630081
0.0616091
0.0602416
0.0589059
0.0576024
0.056332
0.0550955
0.053894
0.052729
0.0516015
0.0505132
0.0494651
0.0484587
0.0474952
0.0465756
0.045701
0.0448724
0.0440908
0.0433571
0.0426726
0.0420385
0.0414565
0.0409286
0.0404576
0.0400471
0.0397017
0.0394277
0.0392332
0.039129
0.961693
0.892186
0.829087
0.77173
0.719525
0.671946
0.628524
0.588842
0.552528
0.51925
0.488713
0.460651
0.434829
0.411034
0.389076
0.368787
0.350013
0.332619
0.31648
0.301486
0.287539
0.274547
0.26243
0.251115
0.240535
0.230631
0.221348
0.212638
0.204455
0.196759
0.189512
0.182681
0.176235
0.170146
0.164389
0.158939
0.153775
0.148877
0.144227
0.139808
0.135605
0.131603
0.127789
0.124152
0.120679
0.117361
0.114187
0.111148
0.108236
0.105444
0.102763
0.100187
0.09771
0.0953249
0.0930262
0.0908088
0.0886673
0.0865971
0.0845937
0.0826526
0.08077
0.0789421
0.0771652
0.0754363
0.0737521
0.0721101
0.0705077
0.0689429
0.0674137
0.0659187
0.0644566
0.0630267
0.0616285
0.0602619
0.0589269
0.0576241
0.0563542
0.0551182
0.0539171
0.0527523
0.051625
0.0505366
0.0494885
0.0484819
0.047518
0.0465979
0.0457228
0.0448936
0.0441114
0.0433771
0.0426918
0.042057
0.0414743
0.0409457
0.0404741
0.0400629
0.039717
0.0394426
0.0392478
0.0391434
0.961693
0.892186
0.829087
0.77173
0.719525
0.671946
0.628524
0.588842
0.552528
0.519251
0.488714
0.460652
0.43483
0.411035
0.389077
0.368788
0.350015
0.33262
0.316481
0.301488
0.28754
0.274548
0.262431
0.251116
0.240537
0.230633
0.22135
0.21264
0.204457
0.196761
0.189514
0.182683
0.176238
0.170149
0.164392
0.158942
0.153778
0.14888
0.14423
0.139811
0.135608
0.131607
0.127793
0.124156
0.120683
0.117365
0.114191
0.111153
0.108242
0.105449
0.102769
0.100194
0.0977165
0.0953317
0.0930335
0.0908164
0.0886755
0.0866058
0.0846029
0.0826625
0.0807806
0.0789533
0.0771772
0.075449
0.0737657
0.0721246
0.0705231
0.0689592
0.067431
0.0659369
0.0644758
0.0630469
0.0616496
0.0602837
0.0589496
0.0576475
0.0563782
0.0551427
0.053942
0.0527774
0.0516503
0.050562
0.0495137
0.0485068
0.0475426
0.0466221
0.0457464
0.0449166
0.0441337
0.0433986
0.0427126
0.042077
0.0414936
0.0409643
0.0404919
0.0400801
0.0397336
0.0394587
0.0392636
0.039159
0.961693
0.892186
0.829087
0.77173
0.719525
0.671946
0.628524
0.588842
0.552529
0.519251
0.488714
0.460653
0.43483
0.411035
0.389078
0.368789
0.350016
0.332621
0.316483
0.301489
0.287542
0.27455
0.262433
0.251118
0.240539
0.230635
0.221353
0.212642
0.204459
0.196763
0.189517
0.182686
0.17624
0.170152
0.164394
0.158945
0.153781
0.148883
0.144233
0.139815
0.135612
0.131611
0.127797
0.12416
0.120688
0.11737
0.114196
0.111158
0.108247
0.105455
0.102775
0.1002
0.0977234
0.095339
0.0930413
0.0908247
0.0886843
0.0866152
0.0846129
0.0826731
0.0807919
0.0789654
0.0771901
0.0754627
0.0737803
0.0721401
0.0705396
0.0689767
0.0674494
0.0659564
0.0644963
0.0630683
0.061672
0.060307
0.0589737
0.0576724
0.0564037
0.0551687
0.0539685
0.0528042
0.0516772
0.0505889
0.0495405
0.0485334
0.0475688
0.0466478
0.0457716
0.0449411
0.0441574
0.0434216
0.0427348
0.0420985
0.0415142
0.0409841
0.040511
0.0400985
0.0397515
0.0394761
0.0392806
0.0391757
0.961693
0.892186
0.829087
0.77173
0.719525
0.671946
0.628524
0.588843
0.552529
0.519252
0.488715
0.460654
0.434831
0.411036
0.389079
0.36879
0.350017
0.332623
0.316484
0.301491
0.287543
0.274552
0.262435
0.25112
0.240541
0.230637
0.221355
0.212645
0.204462
0.196766
0.189519
0.182689
0.176243
0.170155
0.164397
0.158948
0.153784
0.148887
0.144237
0.139819
0.135616
0.131615
0.127802
0.124165
0.120693
0.117375
0.114202
0.111164
0.108253
0.105462
0.102782
0.100207
0.0977308
0.0953468
0.0930495
0.0908335
0.0886936
0.0866251
0.0846235
0.0826844
0.0808039
0.0789781
0.0772037
0.0754772
0.0737957
0.0721565
0.070557
0.0689951
0.0674689
0.0659769
0.0645179
0.063091
0.0616956
0.0603316
0.0589991
0.0576986
0.0564306
0.0551962
0.0539964
0.0528324
0.0517056
0.0506173
0.0495688
0.0485614
0.0475964
0.0466749
0.0457981
0.0449669
0.0441825
0.0434459
0.0427583
0.0421211
0.041536
0.0410051
0.0405312
0.040118
0.0397704
0.0394944
0.0392985
0.0391935
0.961693
0.892186
0.829087
0.77173
0.719525
0.671946
0.628524
0.588843
0.552529
0.519252
0.488715
0.460654
0.434832
0.411037
0.38908
0.368791
0.350018
0.332624
0.316485
0.301492
0.287545
0.274553
0.262437
0.251122
0.240543
0.230639
0.221357
0.212647
0.204464
0.196768
0.189522
0.182692
0.176246
0.170158
0.164401
0.158951
0.153788
0.14889
0.144241
0.139823
0.13562
0.131619
0.127806
0.12417
0.120698
0.11738
0.114207
0.11117
0.108259
0.105468
0.102789
0.100214
0.0977385
0.0953551
0.0930583
0.0908428
0.0887035
0.0866356
0.0846346
0.0826962
0.0808165
0.0789916
0.077218
0.0754924
0.0738119
0.0721737
0.0705752
0.0690144
0.0674893
0.0659984
0.0645405
0.0631146
0.0617203
0.0603573
0.0590257
0.057726
0.0564587
0.0552249
0.0540255
0.0528619
0.0517352
0.0506469
0.0495983
0.0485906
0.0476252
0.0467032
0.0458258
0.0449939
0.0442088
0.0434713
0.0427829
0.0421448
0.0415588
0.0410271
0.0405524
0.0401385
0.0397902
0.0395137
0.0393174
0.0392121
0.961693
0.892186
0.829087
0.77173
0.719525
0.671946
0.628525
0.588843
0.55253
0.519253
0.488716
0.460655
0.434833
0.411038
0.389081
0.368792
0.350019
0.332625
0.316487
0.301494
0.287546
0.274555
0.262438
0.251124
0.240545
0.230641
0.221359
0.212649
0.204467
0.196771
0.189525
0.182694
0.176249
0.170161
0.164404
0.158955
0.153791
0.148894
0.144245
0.139827
0.135625
0.131624
0.127811
0.124175
0.120703
0.117386
0.114213
0.111176
0.108266
0.105475
0.102796
0.100222
0.0977467
0.0953637
0.0930674
0.0908524
0.0887137
0.0866465
0.0846462
0.0827086
0.0808296
0.0790056
0.0772329
0.0755083
0.0738288
0.0721916
0.0705942
0.0690345
0.0675105
0.0660207
0.0645639
0.0631392
0.0617459
0.0603839
0.0590532
0.0577543
0.0564878
0.0552546
0.0540557
0.0528923
0.0517659
0.0506776
0.0496288
0.0486209
0.0476551
0.0467326
0.0458545
0.045022
0.044236
0.0434977
0.0428084
0.0421694
0.0415825
0.0410499
0.0405744
0.0401598
0.0398108
0.0395338
0.039337
0.0392315
0.961693
0.892186
0.829087
0.77173
0.719525
0.671946
0.628525
0.588843
0.55253
0.519253
0.488716
0.460655
0.434833
0.411039
0.389082
0.368793
0.35002
0.332626
0.316488
0.301495
0.287548
0.274557
0.26244
0.251126
0.240547
0.230643
0.221361
0.212652
0.204469
0.196773
0.189527
0.182697
0.176252
0.170164
0.164407
0.158958
0.153795
0.148898
0.144249
0.139831
0.135629
0.131628
0.127816
0.12418
0.120709
0.117392
0.114219
0.111182
0.108273
0.105482
0.102804
0.10023
0.0977551
0.0953726
0.0930768
0.0908625
0.0887244
0.0866578
0.0846583
0.0827214
0.0808433
0.0790201
0.0772483
0.0755247
0.0738462
0.07221
0.0706138
0.0690552
0.0675324
0.0660437
0.0645881
0.0631644
0.0617723
0.0604113
0.0590816
0.0577835
0.0565177
0.0552851
0.0540867
0.0529237
0.0517974
0.0507091
0.0496602
0.0486521
0.0476859
0.0467628
0.0458841
0.0450508
0.044264
0.0435249
0.0428347
0.0421948
0.041607
0.0410735
0.0405972
0.0401818
0.0398321
0.0395545
0.0393573
0.0392515
0.961693
0.892186
0.829087
0.77173
0.719525
0.671946
0.628525
0.588843
0.55253
0.519253
0.488717
0.460656
0.434834
0.411039
0.389083
0.368794
0.350021
0.332627
0.316489
0.301497
0.287549
0.274558
0.262442
0.251128
0.240549
0.230646
0.221364
0.212654
0.204472
0.196776
0.18953
0.1827
0.176255
0.170168
0.164411
0.158962
0.153799
0.148902
0.144253
0.139836
0.135634
0.131633
0.127821
0.124185
0.120714
0.117397
0.114225
0.111189
0.10828
0.105489
0.102811
0.100238
0.0977638
0.0953818
0.0930866
0.0908728
0.0887354
0.0866695
0.0846706
0.0827346
0.0808573
0.079035
0.0772641
0.0755415
0.073864
0.072229
0.0706338
0.0690764
0.0675548
0.0660673
0.0646128
0.0631903
0.0617992
0.0604393
0.0591106
0.0578134
0.0565483
0.0553164
0.0541184
0.0529558
0.0518296
0.0507414
0.0496924
0.0486839
0.0477173
0.0467938
0.0459144
0.0450804
0.0442928
0.0435528
0.0428616
0.0422208
0.0416321
0.0410977
0.0406205
0.0402043
0.0398539
0.0395757
0.0393782
0.0392721
0.961693
0.892186
0.829087
0.77173
0.719525
0.671946
0.628525
0.588843
0.55253
0.519253
0.488717
0.460656
0.434834
0.41104
0.389084
0.368795
0.350022
0.332629
0.316491
0.301498
0.287551
0.27456
0.262444
0.251129
0.240551
0.230648
0.221366
0.212656
0.204474
0.196779
0.189533
0.182703
0.176259
0.170171
0.164414
0.158966
0.153803
0.148906
0.144258
0.13984
0.135639
0.131638
0.127827
0.124191
0.12072
0.117404
0.114232
0.111196
0.108287
0.105497
0.102819
0.100247
0.0977727
0.0953912
0.0930966
0.0908834
0.0887466
0.0866814
0.0846833
0.0827481
0.0808716
0.0790502
0.0772803
0.0755587
0.0738823
0.0722483
0.0706543
0.069098
0.0675776
0.0660913
0.064638
0.0632167
0.0618267
0.0604678
0.05914
0.0578437
0.0565795
0.0553481
0.0541507
0.0529884
0.0518624
0.0507742
0.0497251
0.0487164
0.0477494
0.0468253
0.0459453
0.0451105
0.0443221
0.0435812
0.0428891
0.0422474
0.0416577
0.0411224
0.0406444
0.0402273
0.0398762
0.0395974
0.0393994
0.0392931
0.961693
0.892186
0.829087
0.77173
0.719525
0.671946
0.628525
0.588843
0.55253
0.519254
0.488717
0.460657
0.434835
0.411041
0.389084
0.368796
0.350023
0.33263
0.316492
0.301499
0.287552
0.274562
0.262446
0.251131
0.240553
0.23065
0.221368
0.212659
0.204477
0.196782
0.189536
0.182706
0.176262
0.170174
0.164418
0.158969
0.153807
0.14891
0.144262
0.139845
0.135643
0.131643
0.127832
0.124196
0.120726
0.11741
0.114238
0.111203
0.108294
0.105505
0.102827
0.100255
0.0977818
0.0954008
0.0931068
0.0908942
0.0887581
0.0866936
0.0846963
0.0827618
0.0808862
0.0790657
0.0772968
0.0755762
0.0739008
0.072268
0.0706751
0.06912
0.0676007
0.0661157
0.0646635
0.0632434
0.0618545
0.0604967
0.0591699
0.0578745
0.056611
0.0553803
0.0541833
0.0530214
0.0518956
0.0508075
0.0497582
0.0487492
0.0477818
0.0468572
0.0459765
0.045141
0.0443518
0.04361
0.042917
0.0422743
0.0416837
0.0411475
0.0406686
0.0402507
0.0398989
0.0396195
0.039421
0.0393145
0.961693
0.892186
0.829087
0.77173
0.719525
0.671946
0.628525
0.588844
0.55253
0.519254
0.488718
0.460657
0.434835
0.411041
0.389085
0.368797
0.350024
0.332631
0.316493
0.301501
0.287554
0.274563
0.262447
0.251133
0.240555
0.230652
0.221371
0.212661
0.204479
0.196784
0.189539
0.182709
0.176265
0.170178
0.164422
0.158973
0.153811
0.148914
0.144266
0.139849
0.135648
0.131649
0.127837
0.124202
0.120732
0.117416
0.114245
0.11121
0.108301
0.105512
0.102836
0.100264
0.097791
0.0954106
0.0931171
0.0909052
0.0887697
0.0867059
0.0847093
0.0827757
0.0809009
0.0790814
0.0773134
0.0755938
0.0739196
0.0722878
0.0706961
0.0691422
0.0676241
0.0661402
0.0646893
0.0632703
0.0618825
0.0605258
0.0592
0.0579054
0.0566427
0.0554127
0.0542162
0.0530546
0.0519291
0.050841
0.0497916
0.0487824
0.0478145
0.0468894
0.0460081
0.0451718
0.0443818
0.0436391
0.0429452
0.0423016
0.04171
0.0411729
0.040693
0.0402744
0.0399218
0.0396418
0.0394428
0.039336
0.961693
0.892186
0.829087
0.77173
0.719525
0.671946
0.628525
0.588844
0.552531
0.519254
0.488718
0.460657
0.434836
0.411042
0.389086
0.368798
0.350025
0.332632
0.316494
0.301502
0.287555
0.274565
0.262449
0.251135
0.240557
0.230654
0.221373
0.212664
0.204482
0.196787
0.189542
0.182712
0.176268
0.170181
0.164425
0.158977
0.153815
0.148919
0.144271
0.139854
0.135653
0.131654
0.127843
0.124208
0.120738
0.117422
0.114252
0.111217
0.108309
0.10552
0.102844
0.100273
0.0978003
0.0954204
0.0931275
0.0909162
0.0887814
0.0867184
0.0847225
0.0827897
0.0809158
0.0790972
0.0773302
0.0756116
0.0739384
0.0723078
0.0707172
0.0691644
0.0676475
0.0661649
0.0647151
0.0632973
0.0619107
0.060555
0.0592302
0.0579365
0.0566746
0.0554452
0.0542493
0.053088
0.0519627
0.0508746
0.0498251
0.0488156
0.0478474
0.0469217
0.0460398
0.0452028
0.0444119
0.0436684
0.0429735
0.0423289
0.0417364
0.0411984
0.0407177
0.0402981
0.0399448
0.0396642
0.0394648
0.0393577
0.961693
0.892186
0.829087
0.77173
0.719525
0.671946
0.628525
0.588844
0.552531
0.519254
0.488718
0.460658
0.434836
0.411042
0.389086
0.368798
0.350026
0.332633
0.316495
0.301503
0.287557
0.274566
0.26245
0.251137
0.240559
0.230656
0.221375
0.212666
0.204484
0.19679
0.189545
0.182715
0.176271
0.170184
0.164429
0.158981
0.153819
0.148923
0.144275
0.139859
0.135658
0.131659
0.127848
0.124214
0.120744
0.117429
0.114258
0.111224
0.108316
0.105528
0.102852
0.100282
0.0978096
0.0954303
0.093138
0.0909273
0.0887932
0.0867309
0.0847358
0.0828038
0.0809308
0.079113
0.077347
0.0756295
0.0739573
0.0723278
0.0707383
0.0691868
0.067671
0.0661896
0.064741
0.0633243
0.0619388
0.0605842
0.0592604
0.0579676
0.0567064
0.0554777
0.0542823
0.0531214
0.0519962
0.0509082
0.0498587
0.0488489
0.0478803
0.0469541
0.0460715
0.0452338
0.0444421
0.0436977
0.0430019
0.0423564
0.0417629
0.0412239
0.0407423
0.040322
0.039968
0.0396867
0.0394869
0.0393795
0.961693
0.892186
0.829087
0.77173
0.719525
0.671946
0.628525
0.588844
0.552531
0.519254
0.488718
0.460658
0.434837
0.411043
0.389087
0.368799
0.350027
0.332634
0.316496
0.301504
0.287558
0.274567
0.262452
0.251138
0.24056
0.230658
0.221377
0.212668
0.204487
0.196792
0.189547
0.182718
0.176275
0.170188
0.164432
0.158984
0.153823
0.148927
0.14428
0.139863
0.135663
0.131664
0.127854
0.124219
0.12075
0.117435
0.114265
0.111231
0.108324
0.105536
0.102861
0.10029
0.097819
0.0954402
0.0931485
0.0909385
0.088805
0.0867434
0.0847491
0.0828178
0.0809457
0.0791289
0.0773638
0.0756473
0.0739762
0.0723477
0.0707594
0.069209
0.0676945
0.0662142
0.0647668
0.0633513
0.0619669
0.0606133
0.0592904
0.0579986
0.0567382
0.05551
0.0543151
0.0531546
0.0520297
0.0509417
0.0498921
0.0488821
0.0479131
0.0469863
0.0461031
0.0452647
0.0444722
0.0437269
0.0430303
0.0423838
0.0417894
0.0412495
0.040767
0.0403458
0.039991
0.0397092
0.0395089
0.0394012
0.961693
0.892186
0.829087
0.77173
0.719525
0.671946
0.628525
0.588844
0.552531
0.519255
0.488719
0.460658
0.434837
0.411043
0.389087
0.3688
0.350028
0.332634
0.316497
0.301505
0.287559
0.274569
0.262454
0.25114
0.240562
0.23066
0.221379
0.212671
0.204489
0.196795
0.18955
0.182721
0.176278
0.170191
0.164436
0.158988
0.153826
0.148931
0.144284
0.139868
0.135668
0.131669
0.127859
0.124225
0.120756
0.117442
0.114272
0.111238
0.108331
0.105544
0.102869
0.100299
0.0978283
0.0954501
0.093159
0.0909496
0.0888168
0.0867558
0.0847623
0.0828319
0.0809606
0.0791446
0.0773806
0.075665
0.073995
0.0723676
0.0707804
0.0692311
0.0677178
0.0662387
0.0647924
0.063378
0.0619947
0.0606422
0.0593203
0.0580293
0.0567697
0.0555422
0.0543478
0.0531876
0.0520629
0.050975
0.0499253
0.048915
0.0479456
0.0470184
0.0461346
0.0452954
0.0445021
0.043756
0.0430585
0.0424111
0.0418158
0.0412749
0.0407915
0.0403696
0.040014
0.0397316
0.0395308
0.0394229
0.961693
0.892186
0.829087
0.77173
0.719525
0.671946
0.628525
0.588844
0.552531
0.519255
0.488719
0.460658
0.434837
0.411044
0.389088
0.3688
0.350028
0.332635
0.316498
0.301506
0.28756
0.27457
0.262455
0.251142
0.240564
0.230662
0.221381
0.212673
0.204492
0.196797
0.189553
0.182724
0.176281
0.170194
0.164439
0.158992
0.15383
0.148935
0.144288
0.139873
0.135673
0.131674
0.127864
0.124231
0.120762
0.117448
0.114279
0.111245
0.108339
0.105552
0.102877
0.100308
0.0978376
0.09546
0.0931694
0.0909606
0.0888284
0.0867682
0.0847754
0.0828458
0.0809753
0.0791603
0.0773971
0.0756826
0.0740136
0.0723873
0.0708012
0.069253
0.0677408
0.0662629
0.0648178
0.0634045
0.0620223
0.0606708
0.0593498
0.0580597
0.0568008
0.055574
0.0543801
0.0532203
0.0520958
0.0510079
0.0499581
0.0489476
0.0479779
0.0470502
0.0461658
0.0453259
0.0445318
0.0437849
0.0430864
0.0424381
0.0418419
0.0413001
0.0408159
0.0403931
0.0400368
0.0397538
0.0395525
0.0394443
0.961693
0.892186
0.829087
0.77173
0.719525
0.671946
0.628525
0.588844
0.552531
0.519255
0.488719
0.460659
0.434838
0.411044
0.389088
0.368801
0.350029
0.332636
0.316499
0.301507
0.287561
0.274571
0.262456
0.251143
0.240566
0.230664
0.221383
0.212675
0.204494
0.1968
0.189556
0.182727
0.176284
0.170198
0.164443
0.158995
0.153834
0.148939
0.144293
0.139877
0.135677
0.131679
0.12787
0.124236
0.120768
0.117454
0.114285
0.111252
0.108346
0.10556
0.102886
0.100317
0.0978468
0.0954697
0.0931797
0.0909715
0.08884
0.0867805
0.0847884
0.0828596
0.0809899
0.0791758
0.0774135
0.0757
0.0740319
0.0724067
0.0708217
0.0692747
0.0677636
0.0662868
0.0648428
0.0634306
0.0620495
0.060699
0.059379
0.0580897
0.0568315
0.0556053
0.0544119
0.0532525
0.0521282
0.0510404
0.0499905
0.0489798
0.0480097
0.0470815
0.0461965
0.045356
0.0445611
0.0438134
0.043114
0.0424648
0.0418677
0.041325
0.04084
0.0404164
0.0400594
0.0397757
0.039574
0.0394655
0.961693
0.892186
0.829086
0.77173
0.719525
0.671946
0.628525
0.588844
0.552531
0.519255
0.488719
0.460659
0.434838
0.411044
0.389089
0.368801
0.35003
0.332637
0.3165
0.301508
0.287562
0.274573
0.262458
0.251145
0.240567
0.230665
0.221385
0.212677
0.204496
0.196802
0.189558
0.18273
0.176287
0.170201
0.164446
0.158999
0.153838
0.148943
0.144297
0.139881
0.135682
0.131684
0.127875
0.124242
0.120774
0.11746
0.114292
0.111259
0.108353
0.105567
0.102894
0.100325
0.0978559
0.0954793
0.0931899
0.0909823
0.0888514
0.0867926
0.0848012
0.0828731
0.0810043
0.079191
0.0774297
0.0757171
0.0740501
0.0724259
0.0708419
0.069296
0.067786
0.0663103
0.0648674
0.0634563
0.0620762
0.0607267
0.0594076
0.0581191
0.0568618
0.0556361
0.0544432
0.0532842
0.0521601
0.0510724
0.0500224
0.0490115
0.0480411
0.0471124
0.0462268
0.0453856
0.04459
0.0438414
0.0431412
0.0424911
0.0418931
0.0413496
0.0408637
0.0404393
0.0400816
0.0397973
0.0395951
0.0394864
0.961693
0.892186
0.829086
0.77173
0.719525
0.671946
0.628525
0.588844
0.552531
0.519255
0.488719
0.460659
0.434838
0.411045
0.389089
0.368802
0.35003
0.332637
0.316501
0.301509
0.287564
0.274574
0.262459
0.251146
0.240569
0.230667
0.221387
0.212679
0.204498
0.196805
0.189561
0.182733
0.17629
0.170204
0.164449
0.159002
0.153842
0.148947
0.144301
0.139886
0.135687
0.131689
0.12788
0.124247
0.12078
0.117466
0.114298
0.111266
0.10836
0.105575
0.102902
0.100334
0.0978648
0.0954887
0.0931999
0.0909928
0.0888626
0.0868044
0.0848138
0.0828865
0.0810185
0.079206
0.0774456
0.0757339
0.0740678
0.0724446
0.0708617
0.0693168
0.0678079
0.0663333
0.0648915
0.0634815
0.0621024
0.0607538
0.0594357
0.058148
0.0568913
0.0556663
0.0544739
0.0533152
0.0521914
0.0511037
0.0500537
0.0490426
0.0480718
0.0471427
0.0462565
0.0454147
0.0446184
0.043869
0.0431679
0.042517
0.0419181
0.0413737
0.040887
0.0404618
0.0401034
0.0398185
0.0396159
0.0395069
0.961693
0.892186
0.829086
0.77173
0.719525
0.671946
0.628525
0.588844
0.552531
0.519255
0.488719
0.460659
0.434838
0.411045
0.38909
0.368802
0.350031
0.332638
0.316501
0.30151
0.287565
0.274575
0.26246
0.251148
0.24057
0.230669
0.221389
0.212681
0.204501
0.196807
0.189563
0.182735
0.176292
0.170207
0.164452
0.159006
0.153845
0.148951
0.144305
0.13989
0.135691
0.131694
0.127885
0.124253
0.120785
0.117472
0.114304
0.111272
0.108367
0.105582
0.10291
0.100342
0.0978736
0.095498
0.0932097
0.0910032
0.0888736
0.0868161
0.0848261
0.0828995
0.0810323
0.0792207
0.0774611
0.0757503
0.0740852
0.072463
0.0708811
0.0693372
0.0678294
0.0663558
0.0649151
0.063506
0.062128
0.0607804
0.0594631
0.0581762
0.0569202
0.0556958
0.0545039
0.0533455
0.0522219
0.0511343
0.0500842
0.0490729
0.0481018
0.0471723
0.0462856
0.0454431
0.0446461
0.0438959
0.0431941
0.0425423
0.0419426
0.0413973
0.0409098
0.0404838
0.0401248
0.0398393
0.0396363
0.039527
0.961693
0.892186
0.829086
0.77173
0.719525
0.671946
0.628525
0.588844
0.552531
0.519255
0.488719
0.460659
0.434839
0.411045
0.38909
0.368803
0.350031
0.332639
0.316502
0.301511
0.287566
0.274576
0.262462
0.251149
0.240572
0.23067
0.221391
0.212683
0.204503
0.196809
0.189565
0.182738
0.176295
0.17021
0.164455
0.159009
0.153849
0.148955
0.144309
0.139894
0.135696
0.131699
0.12789
0.124258
0.120791
0.117478
0.11431
0.111279
0.108374
0.10559
0.102917
0.10035
0.0978821
0.095507
0.0932192
0.0910133
0.0888843
0.0868274
0.0848381
0.0829123
0.0810458
0.079235
0.0774762
0.0757663
0.0741021
0.0724809
0.0709
0.0693571
0.0678503
0.0663777
0.064938
0.06353
0.0621529
0.0608062
0.0594897
0.0582037
0.0569484
0.0557246
0.0545331
0.053375
0.0522516
0.0511641
0.050114
0.0491025
0.0481311
0.0472011
0.0463139
0.0454708
0.0446731
0.0439222
0.0432196
0.042567
0.0419664
0.0414204
0.040932
0.0405054
0.0401456
0.0398596
0.0396561
0.0395466
0.961693
0.892186
0.829086
0.77173
0.719525
0.671946
0.628525
0.588844
0.552531
0.519255
0.48872
0.46066
0.434839
0.411046
0.38909
0.368803
0.350032
0.332639
0.316503
0.301512
0.287566
0.274577
0.262463
0.25115
0.240573
0.230672
0.221392
0.212685
0.204505
0.196811
0.189568
0.18274
0.176298
0.170212
0.164458
0.159012
0.153852
0.148958
0.144313
0.139898
0.1357
0.131703
0.127895
0.124263
0.120796
0.117484
0.114316
0.111285
0.108381
0.105597
0.102925
0.100358
0.0978904
0.0955158
0.0932285
0.0910232
0.0888947
0.0868385
0.0848498
0.0829247
0.0810589
0.0792488
0.0774909
0.0757819
0.0741186
0.0724982
0.0709183
0.0693764
0.0678705
0.066399
0.0649602
0.0635532
0.062177
0.0608312
0.0595156
0.0582303
0.0569757
0.0557524
0.0545614
0.0534037
0.0522805
0.0511931
0.0501429
0.0491312
0.0481595
0.0472292
0.0463415
0.0454977
0.0446994
0.0439477
0.0432444
0.042591
0.0419896
0.0414428
0.0409536
0.0405263
0.0401659
0.0398793
0.0396754
0.0395656
0.961693
0.892186
0.829086
0.77173
0.719525
0.671946
0.628525
0.588844
0.552531
0.519255
0.48872
0.46066
0.434839
0.411046
0.389091
0.368804
0.350032
0.33264
0.316504
0.301513
0.287567
0.274578
0.262464
0.251151
0.240575
0.230673
0.221394
0.212686
0.204506
0.196813
0.18957
0.182742
0.1763
0.170215
0.164461
0.159015
0.153855
0.148962
0.144316
0.139902
0.135704
0.131707
0.127899
0.124268
0.120801
0.117489
0.114322
0.111291
0.108387
0.105603
0.102932
0.100366
0.0978985
0.0955243
0.0932375
0.0910327
0.0889048
0.0868492
0.0848612
0.0829367
0.0810716
0.0792623
0.0775052
0.0757969
0.0741345
0.072515
0.070936
0.0693951
0.0678902
0.0664196
0.0649818
0.0635757
0.0622004
0.0608555
0.0595406
0.0582561
0.0570021
0.0557794
0.0545888
0.0534314
0.0523084
0.0512211
0.0501708
0.049159
0.048187
0.0472563
0.0463681
0.0455238
0.0447248
0.0439725
0.0432684
0.0426142
0.0420121
0.0414645
0.0409746
0.0405465
0.0401855
0.0398984
0.0396941
0.0395841
0.961693
0.892186
0.829086
0.77173
0.719525
0.671946
0.628525
0.588844
0.552531
0.519255
0.48872
0.46066
0.434839
0.411046
0.389091
0.368804
0.350033
0.332641
0.316504
0.301513
0.287568
0.274579
0.262465
0.251152
0.240576
0.230675
0.221395
0.212688
0.204508
0.196815
0.189572
0.182745
0.176303