/*--------------------------------*- C++ -*----------------------------------*\
  =========                 |
  \\      /  F ield         | OpenFOAM: The Open Source CFD Toolbox
   \\    /   O peration     | Website:  https://openfoam.org
    \\  /    A nd           | Version:  11
     \\/     M anipulation  |
\*---------------------------------------------------------------------------*/
FoamFile
{
    format      ascii;
    class       volScalarField;
    location    "362";
    object      nut;
}
// * * * * * * * * * * * * * * * * * * * * * * * * * * * * * * * * * * * * * //

dimensions      [0 2 -1 0 0 0 0];

internalField   nonuniform List<scalar> 
10000
(
0.000977114
0.000936694
0.000899625
0.000865586
0.00083429
0.000805478
0.000778919
0.000754402
0.000731741
0.000710766
0.000691324
0.000673278
0.000656506
0.000640894
0.000626341
0.000612758
0.000600061
0.000588175
0.000577034
0.000566576
0.000556744
0.00054749
0.000538766
0.000530532
0.000522748
0.000515382
0.0005084
0.000501776
0.000495481
0.000489494
0.000483792
0.000478356
0.000473169
0.000468214
0.000463477
0.000458946
0.00045461
0.00045046
0.000446487
0.000442685
0.00043905
0.000435578
0.000432267
0.000429117
0.000426131
0.000423311
0.000420664
0.000418196
0.000415917
0.000413838
0.000411974
0.00041034
0.000408953
0.000407834
0.000407005
0.000406489
0.000406311
0.000406497
0.000407072
0.000408064
0.000409498
0.000411399
0.000413787
0.000416684
0.000420103
0.000424057
0.000428552
0.000433588
0.00043916
0.000445257
0.000451862
0.000458954
0.000466503
0.000474476
0.000482833
0.000491531
0.000500523
0.00050976
0.000519192
0.000528767
0.000538434
0.00054814
0.000557827
0.000567446
0.000576955
0.000586299
0.000595428
0.000604292
0.000612843
0.00062103
0.000628804
0.00063611
0.000642893
0.000649096
0.000654655
0.000659501
0.000663561
0.000666753
0.000668982
0.000670144
0.000977114
0.000936694
0.000899625
0.000865586
0.00083429
0.000805479
0.000778919
0.000754403
0.000731742
0.000710766
0.000691325
0.000673279
0.000656506
0.000640894
0.000626342
0.000612759
0.000600062
0.000588176
0.000577035
0.000566576
0.000556745
0.000547491
0.000538767
0.000530533
0.000522749
0.000515383
0.000508402
0.000501777
0.000495483
0.000489496
0.000483794
0.000478358
0.000473171
0.000468216
0.000463479
0.000458948
0.000454612
0.000450462
0.000446489
0.000442688
0.000439053
0.000435581
0.00043227
0.00042912
0.000426134
0.000423315
0.000420667
0.000418199
0.00041592
0.000413842
0.000411977
0.000410343
0.000408956
0.000407837
0.000407007
0.000406491
0.000406312
0.000406496
0.00040707
0.000408061
0.000409494
0.000411392
0.000413779
0.000416673
0.00042009
0.000424042
0.000428534
0.000433568
0.000439138
0.000445233
0.000451837
0.000458927
0.000466474
0.000474443
0.000482797
0.000491491
0.00050048
0.000509715
0.000519145
0.00052872
0.000538386
0.000548091
0.000557778
0.000567398
0.000576907
0.000586252
0.000595382
0.000604248
0.0006128
0.000620989
0.000628763
0.000636071
0.000642856
0.00064906
0.00065462
0.000659468
0.000663529
0.000666722
0.000668952
0.000670114
0.000977114
0.000936694
0.000899625
0.000865587
0.000834291
0.00080548
0.00077892
0.000754404
0.000731743
0.000710767
0.000691326
0.00067328
0.000656508
0.000640896
0.000626344
0.00061276
0.000600063
0.000588178
0.000577037
0.000566578
0.000556747
0.000547493
0.000538769
0.000530535
0.000522752
0.000515385
0.000508404
0.00050178
0.000495486
0.000489499
0.000483797
0.000478361
0.000473174
0.000468219
0.000463483
0.000458952
0.000454616
0.000450466
0.000446494
0.000442692
0.000439057
0.000435585
0.000432275
0.000429125
0.000426139
0.000423319
0.000420672
0.000418204
0.000415924
0.000413845
0.00041198
0.000410345
0.000408957
0.000407837
0.000407005
0.000406487
0.000406306
0.000406488
0.000407059
0.000408047
0.000409476
0.00041137
0.000413753
0.000416642
0.000420055
0.000424001
0.000428488
0.000433517
0.000439081
0.000445172
0.00045177
0.000458855
0.000466396
0.00047436
0.000482709
0.000491399
0.000500384
0.000509616
0.000519044
0.000528617
0.000538282
0.000547988
0.000557675
0.000567296
0.000576807
0.000586153
0.000595286
0.000604154
0.00061271
0.000620902
0.00062868
0.000635991
0.00064278
0.000648987
0.00065455
0.000659401
0.000663465
0.00066666
0.000668892
0.000670054
0.000977114
0.000936695
0.000899626
0.000865588
0.000834292
0.000805481
0.000778921
0.000754405
0.000731744
0.000710769
0.000691327
0.000673282
0.00065651
0.000640898
0.000626346
0.000612762
0.000600066
0.00058818
0.000577039
0.000566581
0.00055675
0.000547496
0.000538772
0.000530538
0.000522755
0.000515389
0.000508408
0.000501783
0.00049549
0.000489503
0.000483801
0.000478366
0.000473179
0.000468224
0.000463488
0.000458958
0.000454622
0.000450472
0.0004465
0.000442699
0.000439064
0.000435592
0.000432281
0.000429132
0.000426145
0.000423326
0.000420678
0.000418209
0.000415929
0.000413849
0.000411983
0.000410347
0.000408957
0.000407835
0.000407001
0.00040648
0.000406296
0.000406474
0.000407041
0.000408024
0.000409447
0.000411336
0.000413712
0.000416594
0.000419999
0.000423938
0.000428417
0.000433437
0.000438994
0.000445076
0.000451667
0.000458744
0.000466277
0.000474234
0.000482576
0.00049126
0.00050024
0.000509468
0.000518893
0.000528464
0.000538129
0.000547834
0.000557522
0.000567144
0.000576658
0.000586007
0.000595143
0.000604016
0.000612576
0.000620773
0.000628556
0.000635873
0.000642666
0.000648879
0.000654447
0.000659302
0.00066337
0.000666568
0.000668803
0.000669966
0.000977114
0.000936695
0.000899626
0.000865588
0.000834293
0.000805482
0.000778923
0.000754407
0.000731746
0.000710771
0.00069133
0.000673285
0.000656512
0.0006409
0.000626348
0.000612765
0.000600069
0.000588184
0.000577043
0.000566585
0.000556754
0.0005475
0.000538776
0.000530542
0.00052276
0.000515393
0.000508413
0.000501789
0.000495495
0.000489508
0.000483807
0.000478372
0.000473185
0.000468231
0.000463495
0.000458965
0.00045463
0.00045048
0.000446508
0.000442707
0.000439072
0.0004356
0.00043229
0.000429141
0.000426154
0.000423334
0.000420686
0.000418217
0.000415936
0.000413855
0.000411988
0.000410349
0.000408958
0.000407833
0.000406996
0.000406471
0.000406282
0.000406456
0.000407017
0.000407994
0.00040941
0.000411291
0.000413658
0.000416532
0.000419927
0.000423856
0.000428324
0.000433334
0.00043888
0.000444951
0.000451532
0.000458598
0.000466122
0.000474069
0.000482403
0.000491079
0.000500053
0.000509276
0.000518697
0.000528266
0.000537929
0.000547634
0.000557323
0.000566947
0.000576463
0.000585817
0.000594958
0.000603836
0.000612402
0.000620605
0.000628395
0.000635718
0.000642518
0.000648737
0.000654312
0.000659173
0.000663246
0.000666448
0.000668686
0.000669851
0.000977114
0.000936695
0.000899627
0.000865589
0.000834294
0.000805484
0.000778925
0.000754409
0.000731748
0.000710773
0.000691332
0.000673287
0.000656515
0.000640904
0.000626352
0.000612769
0.000600072
0.000588188
0.000577047
0.000566589
0.000556758
0.000547504
0.000538781
0.000530547
0.000522765
0.000515399
0.000508419
0.000501795
0.000495502
0.000489515
0.000483815
0.00047838
0.000473193
0.000468239
0.000463504
0.000458974
0.000454639
0.00045049
0.000446518
0.000442717
0.000439083
0.000435611
0.000432301
0.000429151
0.000426165
0.000423345
0.000420696
0.000418226
0.000415944
0.000413862
0.000411993
0.000410353
0.000408958
0.00040783
0.00040699
0.000406461
0.000406267
0.000406434
0.000406989
0.000407958
0.000409365
0.000411237
0.000413594
0.000416456
0.00041984
0.000423756
0.000428212
0.000433209
0.000438741
0.0004448
0.000451367
0.000458421
0.000465933
0.000473869
0.000482192
0.00049086
0.000499826
0.000509043
0.000518459
0.000528025
0.000537686
0.000547391
0.000557081
0.000566707
0.000576227
0.000585585
0.000594732
0.000603616
0.000612189
0.0006204
0.000628198
0.000635529
0.000642337
0.000648565
0.000654146
0.000659015
0.000663094
0.000666301
0.000668542
0.000669709
0.000977114
0.000936696
0.000899628
0.00086559
0.000834296
0.000805485
0.000778927
0.000754411
0.000731751
0.000710776
0.000691335
0.000673291
0.000656518
0.000640907
0.000626356
0.000612773
0.000600077
0.000588192
0.000577052
0.000566594
0.000556763
0.00054751
0.000538787
0.000530554
0.000522771
0.000515406
0.000508426
0.000501802
0.000495509
0.000489524
0.000483823
0.000478389
0.000473203
0.000468249
0.000463514
0.000458985
0.00045465
0.000450501
0.00044653
0.00044273
0.000439095
0.000435624
0.000432314
0.000429165
0.000426178
0.000423357
0.000420708
0.000418237
0.000415955
0.000413871
0.000412
0.000410357
0.00040896
0.000407828
0.000406984
0.000406449
0.000406249
0.00040641
0.000406957
0.000407916
0.000409314
0.000411174
0.00041352
0.000416369
0.000419739
0.000423641
0.000428082
0.000433064
0.000438581
0.000444624
0.000451176
0.000458215
0.000465713
0.000473637
0.000481949
0.000490606
0.000499563
0.000508772
0.000518184
0.000527745
0.000537404
0.000547108
0.0005568
0.000566428
0.000575952
0.000585315
0.000594468
0.00060336
0.000611941
0.00062016
0.000627967
0.000635308
0.000642126
0.000648362
0.000653953
0.000658829
0.000662915
0.000666128
0.000668372
0.000669541
0.000977114
0.000936696
0.000899628
0.000865591
0.000834297
0.000805487
0.000778929
0.000754413
0.000731753
0.000710779
0.000691338
0.000673294
0.000656522
0.000640911
0.00062636
0.000612778
0.000600082
0.000588197
0.000577057
0.0005666
0.00055677
0.000547516
0.000538794
0.000530561
0.000522779
0.000515414
0.000508434
0.000501811
0.000495518
0.000489533
0.000483833
0.000478399
0.000473214
0.000468261
0.000463526
0.000458997
0.000454663
0.000450515
0.000446544
0.000442744
0.00043911
0.000435639
0.000432329
0.00042918
0.000426193
0.000423372
0.000420722
0.000418251
0.000415967
0.000413882
0.000412008
0.000410363
0.000408962
0.000407827
0.000406977
0.000406437
0.00040623
0.000406383
0.000406921
0.00040787
0.000409257
0.000411105
0.000413437
0.000416272
0.000419627
0.000423513
0.000427937
0.000432901
0.000438401
0.000444427
0.000450962
0.000457985
0.000465467
0.000473377
0.000481675
0.00049032
0.000499267
0.000508468
0.000517873
0.00052743
0.000537086
0.000546789
0.000556482
0.000566113
0.000575641
0.00058501
0.000594169
0.000603069
0.000611659
0.000619889
0.000627706
0.000635056
0.000641885
0.000648131
0.000653732
0.000658617
0.000662711
0.000665929
0.000668178
0.000669348
0.000977115
0.000936696
0.000899629
0.000865592
0.000834298
0.000805488
0.000778931
0.000754416
0.000731756
0.000710782
0.000691342
0.000673298
0.000656526
0.000640916
0.000626365
0.000612783
0.000600087
0.000588203
0.000577063
0.000566606
0.000556776
0.000547523
0.000538801
0.000530569
0.000522787
0.000515422
0.000508443
0.000501821
0.000495529
0.000489544
0.000483844
0.000478411
0.000473226
0.000468274
0.00046354
0.000459011
0.000454678
0.00045053
0.00044656
0.00044276
0.000439127
0.000435656
0.000432347
0.000429197
0.000426211
0.000423389
0.000420739
0.000418266
0.000415981
0.000413894
0.000412019
0.00041037
0.000408966
0.000407826
0.000406971
0.000406424
0.00040621
0.000406354
0.000406882
0.000407821
0.000409195
0.00041103
0.000413347
0.000416166
0.000419504
0.000423372
0.000427778
0.000432723
0.000438204
0.00044421
0.000450727
0.000457732
0.000465197
0.00047309
0.000481374
0.000490006
0.000498942
0.000508133
0.000517531
0.000527082
0.000536735
0.000546438
0.000556131
0.000565765
0.000575297
0.000584672
0.000593839
0.000602748
0.000611347
0.000619587
0.000627415
0.000634777
0.000641617
0.000647875
0.000653485
0.00065838
0.000662482
0.000665707
0.000667961
0.000669133
0.000977115
0.000936697
0.00089963
0.000865593
0.000834299
0.00080549
0.000778933
0.000754418
0.000731759
0.000710785
0.000691345
0.000673302
0.000656531
0.00064092
0.00062637
0.000612788
0.000600093
0.000588209
0.00057707
0.000566613
0.000556784
0.000547531
0.000538809
0.000530577
0.000522796
0.000515432
0.000508453
0.000501831
0.00049554
0.000489556
0.000483857
0.000478424
0.00047324
0.000468288
0.000463555
0.000459027
0.000454695
0.000450547
0.000446578
0.000442779
0.000439146
0.000435676
0.000432366
0.000429217
0.00042623
0.000423408
0.000420757
0.000418284
0.000415997
0.000413908
0.00041203
0.000410379
0.000408971
0.000407826
0.000406965
0.000406411
0.000406189
0.000406324
0.000406842
0.000407769
0.00040913
0.00041095
0.000413251
0.000416053
0.000419372
0.000423221
0.000427607
0.000432532
0.000437992
0.000443977
0.000450474
0.000457459
0.000464905
0.000472781
0.000481048
0.000489666
0.00049859
0.000507771
0.00051716
0.000526706
0.000536355
0.000546056
0.00055575
0.000565386
0.000574924
0.000584305
0.000593479
0.000602397
0.000611007
0.000619258
0.000627098
0.000634472
0.000641324
0.000647593
0.000653215
0.00065812
0.000662231
0.000665464
0.000667721
0.000668896
0.000977115
0.000936697
0.00089963
0.000865594
0.000834301
0.000805492
0.000778935
0.000754421
0.000731762
0.000710789
0.000691349
0.000673306
0.000656535
0.000640925
0.000626375
0.000612794
0.000600099
0.000588216
0.000577076
0.00056662
0.000556791
0.000547539
0.000538818
0.000530587
0.000522806
0.000515442
0.000508464
0.000501843
0.000495552
0.000489569
0.00048387
0.000478438
0.000473255
0.000468304
0.000463571
0.000459044
0.000454713
0.000450566
0.000446597
0.000442799
0.000439167
0.000435697
0.000432387
0.000429239
0.000426252
0.00042343
0.000420778
0.000418304
0.000416015
0.000413925
0.000412044
0.000410389
0.000408977
0.000407827
0.00040696
0.000406399
0.000406168
0.000406293
0.0004068
0.000407714
0.000409061
0.000410865
0.000413149
0.000415933
0.000419233
0.000423061
0.000427426
0.000432328
0.000437766
0.00044373
0.000450204
0.000457168
0.000464595
0.000472451
0.000480702
0.000489304
0.000498214
0.000507384
0.000516764
0.000526304
0.000535949
0.000545648
0.000555343
0.000564981
0.000574523
0.000583911
0.000593093
0.000602021
0.000610641
0.000618904
0.000626756
0.000634143
0.000641008
0.00064729
0.000652924
0.000657839
0.000661959
0.000665199
0.000667462
0.000668639
0.000977115
0.000936697
0.000899631
0.000865595
0.000834302
0.000805493
0.000778937
0.000754423
0.000731764
0.000710792
0.000691353
0.00067331
0.00065654
0.00064093
0.000626381
0.0006128
0.000600105
0.000588222
0.000577084
0.000566628
0.0005568
0.000547548
0.000538828
0.000530596
0.000522817
0.000515454
0.000508476
0.000501855
0.000495565
0.000489582
0.000483885
0.000478454
0.000473271
0.000468321
0.000463589
0.000459063
0.000454732
0.000450587
0.000446618
0.000442821
0.000439189
0.00043572
0.000432411
0.000429262
0.000426275
0.000423453
0.000420801
0.000418325
0.000416036
0.000413943
0.000412059
0.000410401
0.000408984
0.000407829
0.000406955
0.000406387
0.000406147
0.000406262
0.000406757
0.000407658
0.00040899
0.000410778
0.000413044
0.000415808
0.000419088
0.000422894
0.000427236
0.000432116
0.00043753
0.00044347
0.000449922
0.000456863
0.000464268
0.000472105
0.000480337
0.000488922
0.000497818
0.000506976
0.000516347
0.000525879
0.000535519
0.000545216
0.000554911
0.000564552
0.000574098
0.000583493
0.000592684
0.000601621
0.000610252
0.000618527
0.000626392
0.000633793
0.000640671
0.000646965
0.000652611
0.000657538
0.000661668
0.000664916
0.000667185
0.000668364
0.000977115
0.000936698
0.000899631
0.000865596
0.000834303
0.000805495
0.000778939
0.000754425
0.000731767
0.000710795
0.000691356
0.000673314
0.000656544
0.000640935
0.000626386
0.000612806
0.000600112
0.00058823
0.000577091
0.000566636
0.000556808
0.000547558
0.000538838
0.000530607
0.000522828
0.000515466
0.000508489
0.000501869
0.000495579
0.000489597
0.000483901
0.00047847
0.000473289
0.000468339
0.000463608
0.000459083
0.000454753
0.000450608
0.000446641
0.000442844
0.000439213
0.000435745
0.000432436
0.000429288
0.000426301
0.000423478
0.000420826
0.000418349
0.000416058
0.000413962
0.000412076
0.000410414
0.000408993
0.000407832
0.000406952
0.000406376
0.000406127
0.000406231
0.000406713
0.0004076
0.000408917
0.000410687
0.000412935
0.000415679
0.000418937
0.000422721
0.000427039
0.000431894
0.000437284
0.0004432
0.000449627
0.000456545
0.000463928
0.000471743
0.000479956
0.000488524
0.000497405
0.00050655
0.00051591
0.000525434
0.000535069
0.000544763
0.000554458
0.000564102
0.000573652
0.000583053
0.000592253
0.0006012
0.000609843
0.00061813
0.000626008
0.000633422
0.000640314
0.000646622
0.000652281
0.000657219
0.00066136
0.000664616
0.00066689
0.000668072
0.000977115
0.000936698
0.000899632
0.000865597
0.000834304
0.000805496
0.00077894
0.000754428
0.00073177
0.000710798
0.00069136
0.000673318
0.000656549
0.000640941
0.000626392
0.000612812
0.000600119
0.000588237
0.000577099
0.000566645
0.000556818
0.000547567
0.000538848
0.000530618
0.00052284
0.000515478
0.000508502
0.000501883
0.000495594
0.000489613
0.000483917
0.000478488
0.000473307
0.000468359
0.000463629
0.000459105
0.000454776
0.000450632
0.000446665
0.000442869
0.000439239
0.000435771
0.000432463
0.000429315
0.000426328
0.000423506
0.000420852
0.000418374
0.000416082
0.000413984
0.000412095
0.000410429
0.000409003
0.000407837
0.00040695
0.000406365
0.000406107
0.0004062
0.000406669
0.000407542
0.000408842
0.000410595
0.000412823
0.000415547
0.000418782
0.000422543
0.000426836
0.000431667
0.000437031
0.000442921
0.000449323
0.000456217
0.000463576
0.000471369
0.000479561
0.000488112
0.000496976
0.000506107
0.000515456
0.000524972
0.000534602
0.000544293
0.000553988
0.000563633
0.000573188
0.000582595
0.000591803
0.00060076
0.000609415
0.000617715
0.000625607
0.000633034
0.00063994
0.000646262
0.000651934
0.000656884
0.000661035
0.000664299
0.000666579
0.000667765
0.000977115
0.000936698
0.000899632
0.000865597
0.000834305
0.000805498
0.000778942
0.00075443
0.000731773
0.000710801
0.000691364
0.000673323
0.000656554
0.000640946
0.000626398
0.000612818
0.000600126
0.000588244
0.000577107
0.000566654
0.000556827
0.000547577
0.000538859
0.00053063
0.000522852
0.000515491
0.000508516
0.000501897
0.00049561
0.00048963
0.000483935
0.000478506
0.000473326
0.000468379
0.00046365
0.000459127
0.000454799
0.000450656
0.000446691
0.000442896
0.000439267
0.000435799
0.000432492
0.000429344
0.000426357
0.000423534
0.00042088
0.000418402
0.000416107
0.000414008
0.000412116
0.000410446
0.000409015
0.000407843
0.000406949
0.000406356
0.000406087
0.000406169
0.000406625
0.000407483
0.000408767
0.000410502
0.00041271
0.000415412
0.000418625
0.000422361
0.000426629
0.000431434
0.000436772
0.000442636
0.000449012
0.00045588
0.000463215
0.000470985
0.000479156
0.000487687
0.000496535
0.000505652
0.000514989
0.000524496
0.00053412
0.000543807
0.000553501
0.000563148
0.000572707
0.000582121
0.000591338
0.000600305
0.000608971
0.000617284
0.000625189
0.000632631
0.000639551
0.000645887
0.000651572
0.000656534
0.000660696
0.000663969
0.000666255
0.000667443
0.000977115
0.000936698
0.000899633
0.000865598
0.000834306
0.000805499
0.000778944
0.000754432
0.000731775
0.000710805
0.000691367
0.000673327
0.000656558
0.000640951
0.000626403
0.000612825
0.000600133
0.000588252
0.000577116
0.000566662
0.000556837
0.000547588
0.00053887
0.000530641
0.000522865
0.000515505
0.00050853
0.000501913
0.000495626
0.000489647
0.000483953
0.000478526
0.000473347
0.000468401
0.000463673
0.000459151
0.000454824
0.000450682
0.000446718
0.000442924
0.000439295
0.000435829
0.000432522
0.000429375
0.000426388
0.000423565
0.00042091
0.000418431
0.000416135
0.000414033
0.000412138
0.000410464
0.000409028
0.00040785
0.000406949
0.000406347
0.000406069
0.000406138
0.000406582
0.000407424
0.000408692
0.000410408
0.000412596
0.000415276
0.000418465
0.000422176
0.000426419
0.000431197
0.000436508
0.000442345
0.000448694
0.000455536
0.000462846
0.000470593
0.000478742
0.000487254
0.000496084
0.000505186
0.000514511
0.000524009
0.000533626
0.000543309
0.000553002
0.00056265
0.000572214
0.000581634
0.000590858
0.000599836
0.000608514
0.000616839
0.000624758
0.000632214
0.000639148
0.000645498
0.000651197
0.000656171
0.000660344
0.000663625
0.000665918
0.00066711
0.000977115
0.000936699
0.000899633
0.000865599
0.000834307
0.0008055
0.000778946
0.000754434
0.000731778
0.000710808
0.000691371
0.000673331
0.000656563
0.000640956
0.000626409
0.000612831
0.00060014
0.00058826
0.000577124
0.000566672
0.000556846
0.000547598
0.000538881
0.000530654
0.000522878
0.000515518
0.000508545
0.000501928
0.000495643
0.000489665
0.000483972
0.000478546
0.000473368
0.000468423
0.000463696
0.000459176
0.00045485
0.000450709
0.000446746
0.000442953
0.000439325
0.00043586
0.000432553
0.000429407
0.00042642
0.000423597
0.000420942
0.000418461
0.000416163
0.000414059
0.000412161
0.000410484
0.000409043
0.000407859
0.00040695
0.00040634
0.000406051
0.000406109
0.000406539
0.000407366
0.000408616
0.000410314
0.000412481
0.000415139
0.000418304
0.00042199
0.000426207
0.000430958
0.000436241
0.000442051
0.000448373
0.000455188
0.000462472
0.000470195
0.000478322
0.000486813
0.000495625
0.000504712
0.000514024
0.000523512
0.000533122
0.000542801
0.000552493
0.000562142
0.000571709
0.000581135
0.000590368
0.000599355
0.000608044
0.000616383
0.000624315
0.000631785
0.000638734
0.000645098
0.00065081
0.000655797
0.00065998
0.000663271
0.00066557
0.000666765
0.000977115
0.000936699
0.000899634
0.000865599
0.000834308
0.000805502
0.000778947
0.000754436
0.00073178
0.000710811
0.000691374
0.000673335
0.000656568
0.000640961
0.000626415
0.000612838
0.000600147
0.000588267
0.000577133
0.000566681
0.000556856
0.000547609
0.000538893
0.000530666
0.000522891
0.000515533
0.00050856
0.000501945
0.00049566
0.000489683
0.000483991
0.000478566
0.00047339
0.000468446
0.00046372
0.000459201
0.000454876
0.000450737
0.000446775
0.000442983
0.000439356
0.000435892
0.000432586
0.00042944
0.000426453
0.00042363
0.000420974
0.000418493
0.000416194
0.000414087
0.000412186
0.000410505
0.000409059
0.000407868
0.000406953
0.000406334
0.000406035
0.000406081
0.000406497
0.000407309
0.000408542
0.00041022
0.000412366
0.000415001
0.000418142
0.000421803
0.000425994
0.000430717
0.000435973
0.000441754
0.000448048
0.000454837
0.000462095
0.000469793
0.000477897
0.000486367
0.000495161
0.000504232
0.000513531
0.000523008
0.00053261
0.000542285
0.000551975
0.000561625
0.000571195
0.000580627
0.000589868
0.000598865
0.000607566
0.000615917
0.000623863
0.000631347
0.00063831
0.000644688
0.000650414
0.000655414
0.000659608
0.000662908
0.000665213
0.000666411
0.000977115
0.000936699
0.000899634
0.0008656
0.000834309
0.000805503
0.000778949
0.000754438
0.000731783
0.000710813
0.000691378
0.000673339
0.000656572
0.000640966
0.000626421
0.000612844
0.000600154
0.000588275
0.000577141
0.00056669
0.000556866
0.00054762
0.000538904
0.000530678
0.000522904
0.000515547
0.000508576
0.000501961
0.000495678
0.000489702
0.000484011
0.000478587
0.000473412
0.000468469
0.000463745
0.000459227
0.000454904
0.000450766
0.000446805
0.000443014
0.000439388
0.000435924
0.00043262
0.000429474
0.000426488
0.000423665
0.000421008
0.000418526
0.000416225
0.000414116
0.000412212
0.000410527
0.000409077
0.00040788
0.000406956
0.000406329
0.000406019
0.000406053
0.000406456
0.000407252
0.000408468
0.000410127
0.000412252
0.000414865
0.000417981
0.000421617
0.00042578
0.000430476
0.000435704
0.000441457
0.000447723
0.000454484
0.000461715
0.000469389
0.000477469
0.000485918
0.000494693
0.000503748
0.000513033
0.000522499
0.000532094
0.000541764
0.000551452
0.000561102
0.000570675
0.000580113
0.000589361
0.000598368
0.00060708
0.000615443
0.000623403
0.000630901
0.000637878
0.00064427
0.00065001
0.000655022
0.000659227
0.000662536
0.000664848
0.00066605
0.000977115
0.000936699
0.000899634
0.000865601
0.00083431
0.000805504
0.00077895
0.00075444
0.000731785
0.000710816
0.000691381
0.000673342
0.000656576
0.000640971
0.000626426
0.00061285
0.00060016
0.000588283
0.000577149
0.000566699
0.000556876
0.000547631
0.000538916
0.000530691
0.000522918
0.000515562
0.000508591
0.000501978
0.000495696
0.000489721
0.000484032
0.000478609
0.000473435
0.000468493
0.000463771
0.000459254
0.000454932
0.000450795
0.000446835
0.000443046
0.000439421
0.000435958
0.000432654
0.000429509
0.000426523
0.0004237
0.000421043
0.00041856
0.000416258
0.000414147
0.00041224
0.00041055
0.000409095
0.000407892
0.000406962
0.000406325
0.000406005
0.000406027
0.000406416
0.000407197
0.000408395
0.000410035
0.000412139
0.000414729
0.000417821
0.000421431
0.000425567
0.000430235
0.000435435
0.000441159
0.000447397
0.00045413
0.000461336
0.000468984
0.000477041
0.000485468
0.000494224
0.000503262
0.000512533
0.000521988
0.000531575
0.000541239
0.000550925
0.000560575
0.000570151
0.000579594
0.00058885
0.000597866
0.000606589
0.000614964
0.000622937
0.000630449
0.00063744
0.000643847
0.000649599
0.000654624
0.00065884
0.000662158
0.000664477
0.000665682
0.000977115
0.000936699
0.000899635
0.000865601
0.000834311
0.000805505
0.000778952
0.000754442
0.000731787
0.000710819
0.000691384
0.000673346
0.000656581
0.000640976
0.000626432
0.000612856
0.000600167
0.00058829
0.000577158
0.000566708
0.000556886
0.000547641
0.000538928
0.000530704
0.000522932
0.000515576
0.000508607
0.000501995
0.000495714
0.00048974
0.000484052
0.000478631
0.000473458
0.000468518
0.000463796
0.000459281
0.00045496
0.000450825
0.000446866
0.000443078
0.000439455
0.000435993
0.00043269
0.000429545
0.00042656
0.000423736
0.000421079
0.000418595
0.000416291
0.000414178
0.000412268
0.000410575
0.000409115
0.000407906
0.000406968
0.000406322
0.000405993
0.000406003
0.000406378
0.000407143
0.000408324
0.000409944
0.000412028
0.000414595
0.000417663
0.000421247
0.000425356
0.000429997
0.000435168
0.000440864
0.000447073
0.000453779
0.000460957
0.00046858
0.000476613
0.000485019
0.000493755
0.000502776
0.000512033
0.000521477
0.000531054
0.000540713
0.000550396
0.000560046
0.000569625
0.000579073
0.000588336
0.000597361
0.000606094
0.000614482
0.000622467
0.000629993
0.000636998
0.000643419
0.000649184
0.000654221
0.000658448
0.000661775
0.0006641
0.000665309
0.000977115
0.000936699
0.000899635
0.000865602
0.000834312
0.000805506
0.000778953
0.000754444
0.000731789
0.000710821
0.000691387
0.00067335
0.000656585
0.000640981
0.000626437
0.000612862
0.000600174
0.000588298
0.000577166
0.000566717
0.000556896
0.000547652
0.00053894
0.000530717
0.000522945
0.000515591
0.000508623
0.000502012
0.000495732
0.000489759
0.000484073
0.000478653
0.000473481
0.000468543
0.000463823
0.000459309
0.000454989
0.000450855
0.000446898
0.000443111
0.000439489
0.000436028
0.000432726
0.000429582
0.000426597
0.000423773
0.000421116
0.00041863
0.000416325
0.00041421
0.000412297
0.0004106
0.000409135
0.00040792
0.000406975
0.000406321
0.000405981
0.000405979
0.000406341
0.00040709
0.000408254
0.000409856
0.000411918
0.000414462
0.000417506
0.000421065
0.000425147
0.00042976
0.000434903
0.000440571
0.000446752
0.000453429
0.000460581
0.000468178
0.000476188
0.000484571
0.000493288
0.000502292
0.000511535
0.000520966
0.000530535
0.000540188
0.000549868
0.000559518
0.000569099
0.000578551
0.000587821
0.000596854
0.000605598
0.000613997
0.000621996
0.000629535
0.000636554
0.000642988
0.000648767
0.000653816
0.000658054
0.000661389
0.000663721
0.000664933
0.000977115
0.0009367
0.000899635
0.000865602
0.000834312
0.000805507
0.000778954
0.000754445
0.000731791
0.000710824
0.00069139
0.000673353
0.000656589
0.000640986
0.000626442
0.000612868
0.000600181
0.000588305
0.000577174
0.000566726
0.000556906
0.000547663
0.000538951
0.000530729
0.000522959
0.000515606
0.000508639
0.000502029
0.00049575
0.000489779
0.000484094
0.000478675
0.000473505
0.000468567
0.000463849
0.000459336
0.000455018
0.000450886
0.00044693
0.000443144
0.000439523
0.000436063
0.000432762
0.000429619
0.000426634
0.000423811
0.000421153
0.000418667
0.00041636
0.000414243
0.000412327
0.000410626
0.000409157
0.000407936
0.000406983
0.000406321
0.000405971
0.000405957
0.000406305
0.00040704
0.000408186
0.000409769
0.000411811
0.000414333
0.000417353
0.000420885
0.000424942
0.000429527
0.000434642
0.000440281
0.000446434
0.000453084
0.000460209
0.00046778
0.000475766
0.000484128
0.000492824
0.000501811
0.000511039
0.000520459
0.000530019
0.000539666
0.000549343
0.000558991
0.000568574
0.000578031
0.000587307
0.000596349
0.000605103
0.000613513
0.000621524
0.000629076
0.000636109
0.000642556
0.000648348
0.000653409
0.000657657
0.000661001
0.000663339
0.000664554
0.000977116
0.0009367
0.000899636
0.000865603
0.000834313
0.000805508
0.000778956
0.000754447
0.000731793
0.000710826
0.000691393
0.000673357
0.000656593
0.00064099
0.000626448
0.000612874
0.000600187
0.000588312
0.000577182
0.000566735
0.000556916
0.000547674
0.000538963
0.000530742
0.000522973
0.000515621
0.000508655
0.000502046
0.000495768
0.000489798
0.000484114
0.000478697
0.000473528
0.000468592
0.000463875
0.000459364
0.000455048
0.000450916
0.000446962
0.000443177
0.000439558
0.000436099
0.000432799
0.000429656
0.000426672
0.000423849
0.00042119
0.000418704
0.000416396
0.000414276
0.000412358
0.000410653
0.000409179
0.000407952
0.000406993
0.000406322
0.000405962
0.000405936
0.000406271
0.000406991
0.00040812
0.000409684
0.000411706
0.000414206
0.000417202
0.00042071
0.000424739
0.000429297
0.000434384
0.000439995
0.000446121
0.000452743
0.000459841
0.000467387
0.000475349
0.000483689
0.000492366
0.000501335
0.000510549
0.000519957
0.000529508
0.000539148
0.000548822
0.000558469
0.000568053
0.000577513
0.000586796
0.000595846
0.000604609
0.000613031
0.000621054
0.000628619
0.000635664
0.000642124
0.000647929
0.000653002
0.00065726
0.000660613
0.000662958
0.000664176
0.000977116
0.0009367
0.000899636
0.000865603
0.000834314
0.000805509
0.000778957
0.000754448
0.000731795
0.000710829
0.000691396
0.00067336
0.000656597
0.000640994
0.000626453
0.00061288
0.000600194
0.00058832
0.00057719
0.000566744
0.000556925
0.000547684
0.000538974
0.000530754
0.000522986
0.000515635
0.00050867
0.000502063
0.000495787
0.000489818
0.000484135
0.000478719
0.000473552
0.000468617
0.000463902
0.000459392
0.000455077
0.000450947
0.000446994
0.000443211
0.000439592
0.000436135
0.000432835
0.000429693
0.00042671
0.000423887
0.000421228
0.000418741
0.000416431
0.00041431
0.000412389
0.000410681
0.000409202
0.000407969
0.000407003
0.000406323
0.000405954
0.000405917
0.000406239
0.000406944
0.000408057
0.000409602
0.000411604
0.000414082
0.000417055
0.000420537