/*--------------------------------*- C++ -*----------------------------------*\
  =========                 |
  \\      /  F ield         | OpenFOAM: The Open Source CFD Toolbox
   \\    /   O peration     | Website:  https://openfoam.org
    \\  /    A nd           | Version:  11
     \\/     M anipulation  |
\*---------------------------------------------------------------------------*/
FoamFile
{
    format      ascii;
    class       surfaceScalarField;
    location    "362";
    object      phi;
}
// * * * * * * * * * * * * * * * * * * * * * * * * * * * * * * * * * * * * * //

dimensions      [0 3 -1 0 0 0 0];

internalField   nonuniform List<scalar> 
19800
(
1.99989e-05
-1.16504e-08
1.9997e-05
-3.46328e-08
1.99946e-05
-5.77496e-08
1.99917e-05
-8.13522e-08
1.99883e-05
-1.05686e-07
1.99845e-05
-1.30917e-07
1.998e-05
-1.57177e-07
1.99751e-05
-1.84579e-07
1.99695e-05
-2.13221e-07
1.99633e-05
-2.43193e-07
1.99564e-05
-2.74582e-07
1.99489e-05
-3.07469e-07
1.99406e-05
-3.41934e-07
1.99315e-05
-3.78056e-07
1.99216e-05
-4.1591e-07
1.99108e-05
-4.55575e-07
1.98991e-05
-4.97125e-07
1.98864e-05
-5.40637e-07
1.98727e-05
-5.86183e-07
1.98578e-05
-6.3384e-07
1.98419e-05
-6.83681e-07
1.98247e-05
-7.35777e-07
1.98062e-05
-7.902e-07
1.97864e-05
-8.47021e-07
1.97652e-05
-9.06307e-07
1.97426e-05
-9.68125e-07
1.97183e-05
-1.03254e-06
1.96925e-05
-1.0996e-06
1.96649e-05
-1.16938e-06
1.96356e-05
-1.24192e-06
1.96044e-05
-1.31727e-06
1.95713e-05
-1.39547e-06
1.95362e-05
-1.47654e-06
1.94989e-05
-1.56053e-06
1.94594e-05
-1.64744e-06
1.94177e-05
-1.73728e-06
1.93736e-05
-1.83005e-06
1.9327e-05
-1.92572e-06
1.92779e-05
-2.02425e-06
1.92261e-05
-2.1256e-06
1.91716e-05
-2.2297e-06
1.91143e-05
-2.33646e-06
1.90541e-05
-2.44575e-06
1.8991e-05
-2.55745e-06
1.89248e-05
-2.67138e-06
1.88555e-05
-2.78734e-06
1.87831e-05
-2.90511e-06
1.87075e-05
-3.02441e-06
1.86286e-05
-3.14494e-06
1.85465e-05
-3.26637e-06
1.84611e-05
-3.3883e-06
1.83724e-05
-3.51031e-06
1.82805e-05
-3.63194e-06
1.81855e-05
-3.75267e-06
1.80873e-05
-3.87195e-06
1.79861e-05
-3.98922e-06
1.78821e-05
-4.10385e-06
1.77753e-05
-4.21522e-06
1.7666e-05
-4.32267e-06
1.75544e-05
-4.42555e-06
1.74407e-05
-4.52322e-06
1.73252e-05
-4.61505e-06
1.72082e-05
-4.70045e-06
1.709e-05
-4.7789e-06
1.69711e-05
-4.84991e-06
1.68518e-05
-4.9131e-06
1.67327e-05
-4.96824e-06
1.66138e-05
-5.01492e-06
1.64939e-05
-5.05273e-06
1.63732e-05
-5.08136e-06
1.6252e-05
-5.10105e-06
1.61308e-05
-5.11225e-06
1.60112e-05
-5.11563e-06
1.58949e-05
-5.11148e-06
1.57821e-05
-5.09968e-06
1.56729e-05
-5.08039e-06
1.55673e-05
-5.05385e-06
1.54644e-05
-5.02056e-06
1.53639e-05
-4.98147e-06
1.5266e-05
-4.93719e-06
1.5171e-05
-4.88817e-06
1.50791e-05
-4.83488e-06
1.49904e-05
-4.77786e-06
1.4905e-05
-4.71763e-06
1.4823e-05
-4.65473e-06
1.47446e-05
-4.58967e-06
1.46697e-05
-4.52301e-06
1.45986e-05
-4.45528e-06
1.45312e-05
-4.38703e-06
1.44678e-05
-4.31882e-06
1.44084e-05
-4.25125e-06
1.43532e-05
-4.18492e-06
1.43023e-05
-4.12051e-06
1.4256e-05
-4.05875e-06
1.42146e-05
-4.00047e-06
1.41782e-05
-3.94667e-06
1.41473e-05
-3.8985e-06
1.41224e-05
-3.85744e-06
1.41045e-05
-3.82585e-06
-3.80834e-06
1.99992e-05
-1.0803e-08
1.99974e-05
-3.28598e-08
1.9995e-05
-5.53789e-08
1.99921e-05
-7.84672e-08
1.99887e-05
-1.02299e-07
1.99848e-05
-1.27019e-07
1.99804e-05
-1.52748e-07
1.99754e-05
-1.79591e-07
1.99698e-05
-2.07644e-07
1.99636e-05
-2.36993e-07
1.99568e-05
-2.67721e-07
1.99492e-05
-2.99909e-07
1.99409e-05
-3.33634e-07
1.99318e-05
-3.68972e-07
1.99219e-05
-4.05998e-07
1.99111e-05
-4.44786e-07
1.98994e-05
-4.85409e-07
1.98867e-05
-5.27942e-07
1.9873e-05
-5.72456e-07
1.98582e-05
-6.19024e-07
1.98422e-05
-6.67717e-07
1.9825e-05
-7.18604e-07
1.98066e-05
-7.71756e-07
1.97868e-05
-8.2724e-07
1.97656e-05
-8.85121e-07
1.9743e-05
-9.45464e-07
1.97188e-05
-1.00833e-06
1.96929e-05
-1.07377e-06
1.96654e-05
-1.14185e-06
1.96361e-05
-1.21262e-06
1.9605e-05
-1.28611e-06
1.95719e-05
-1.36237e-06
1.95367e-05
-1.44143e-06
1.94995e-05
-1.5233e-06
1.94601e-05
-1.60802e-06
1.94184e-05
-1.69558e-06
1.93743e-05
-1.78598e-06
1.93278e-05
-1.87918e-06
1.92787e-05
-1.97517e-06
1.9227e-05
-2.07389e-06
1.91726e-05
-2.17528e-06
1.91153e-05
-2.27923e-06
1.90552e-05
-2.38564e-06
1.89922e-05
-2.49438e-06
1.89261e-05
-2.60528e-06
1.88569e-05
-2.71815e-06
1.87845e-05
-2.83277e-06
1.8709e-05
-2.94887e-06
1.86302e-05
-3.06618e-06
1.85482e-05
-3.18435e-06
1.84629e-05
-3.30302e-06
1.83744e-05
-3.42178e-06
1.82826e-05
-3.54018e-06
1.81877e-05
-3.65774e-06
1.80897e-05
-3.77393e-06
1.79887e-05
-3.8882e-06
1.78848e-05
-3.99996e-06
1.77782e-05
-4.10861e-06
1.7669e-05
-4.21352e-06
1.75576e-05
-4.31408e-06
1.7444e-05
-4.40966e-06
1.73286e-05
-4.49966e-06
1.72117e-05
-4.58353e-06
1.70936e-05
-4.66074e-06
1.69745e-05
-4.73083e-06
1.68548e-05
-4.79339e-06
1.67346e-05
-4.84806e-06
1.6614e-05
-4.89434e-06
1.64932e-05
-4.93194e-06
1.63729e-05
-4.96105e-06
1.62536e-05
-4.98178e-06
1.61357e-05
-4.99434e-06
1.60194e-05
-4.99929e-06
1.59048e-05
-4.99689e-06
1.57922e-05
-4.98712e-06
1.56821e-05
-4.97028e-06
1.5575e-05
-4.94668e-06
1.54709e-05
-4.91647e-06
1.53697e-05
-4.88034e-06
1.52716e-05
-4.839e-06
1.51764e-05
-4.79298e-06
1.50843e-05
-4.74281e-06
1.49954e-05
-4.68901e-06
1.49099e-05
-4.6321e-06
1.48278e-05
-4.57261e-06
1.47492e-05
-4.51106e-06
1.46741e-05
-4.44799e-06
1.46028e-05
-4.38394e-06
1.45352e-05
-4.31947e-06
1.44716e-05
-4.25515e-06
1.44119e-05
-4.19158e-06
1.43564e-05
-4.12938e-06
1.43051e-05
-4.06926e-06
1.42583e-05
-4.01196e-06
1.42162e-05
-3.95836e-06
1.4179e-05
-3.90945e-06
1.41469e-05
-3.86644e-06
1.41203e-05
-3.83076e-06
1.40989e-05
-3.80449e-06
-3.79093e-06
1.99994e-05
-1.01658e-08
1.99978e-05
-3.12844e-08
1.99955e-05
-5.31159e-08
1.99927e-05
-7.56339e-08
1.99893e-05
-9.89348e-08
1.99854e-05
-1.23128e-07
1.9981e-05
-1.48318e-07
1.9976e-05
-1.746e-07
1.99704e-05
-2.02062e-07
1.99642e-05
-2.30788e-07
1.99574e-05
-2.60857e-07
1.99498e-05
-2.92347e-07
1.99415e-05
-3.25333e-07
1.99324e-05
-3.59889e-07
1.99225e-05
-3.96088e-07
1.99117e-05
-4.34001e-07
1.99e-05
-4.737e-07
1.98873e-05
-5.15256e-07
1.98736e-05
-5.5874e-07
1.98588e-05
-6.04221e-07
1.98429e-05
-6.51768e-07
1.98257e-05
-7.0145e-07
1.98073e-05
-7.53333e-07
1.97875e-05
-8.07482e-07
1.97664e-05
-8.63962e-07
1.97437e-05
-9.22834e-07
1.97196e-05
-9.84156e-07
1.96938e-05
-1.04798e-06
1.96663e-05
-1.11437e-06
1.9637e-05
-1.18336e-06
1.96059e-05
-1.255e-06
1.95729e-05
-1.32933e-06
1.95378e-05
-1.40637e-06
1.95007e-05
-1.48614e-06
1.94613e-05
-1.56867e-06
1.94197e-05
-1.65396e-06
1.93757e-05
-1.74199e-06
1.93293e-05
-1.83275e-06
1.92803e-05
-1.9262e-06
1.92287e-05
-2.02229e-06
1.91744e-05
-2.12097e-06
1.91173e-05
-2.22213e-06
1.90573e-05
-2.32567e-06
1.89944e-05
-2.43146e-06
1.89285e-05
-2.53934e-06
1.88594e-05
-2.64913e-06
1.87873e-05
-2.76061e-06
1.87119e-05
-2.87354e-06
1.86334e-05
-2.98763e-06
1.85516e-05
-3.10256e-06
1.84666e-05
-3.21799e-06
1.83783e-05
-3.33351e-06
1.82868e-05
-3.44871e-06
1.81922e-05
-3.56311e-06
1.80945e-05
-3.67622e-06
1.79938e-05
-3.7875e-06
1.78902e-05
-3.8964e-06
1.7784e-05
-4.00234e-06
1.76752e-05
-4.10472e-06
1.7564e-05
-4.20294e-06
1.74508e-05
-4.29642e-06
1.73357e-05
-4.38458e-06
1.7219e-05
-4.46687e-06
1.71011e-05
-4.54279e-06
1.69821e-05
-4.61185e-06
1.68624e-05
-4.67366e-06
1.67421e-05
-4.7278e-06
1.66217e-05
-4.77389e-06
1.65015e-05
-4.81174e-06
1.63819e-05
-4.84147e-06
1.62633e-05
-4.86321e-06
1.61461e-05
-4.87714e-06
1.60304e-05
-4.88361e-06
1.59164e-05
-4.88288e-06
1.58044e-05
-4.87508e-06
1.56946e-05
-4.86048e-06
1.55872e-05
-4.83936e-06
1.54827e-05
-4.81195e-06
1.53812e-05
-4.77877e-06
1.52826e-05
-4.74042e-06
1.51871e-05
-4.69746e-06
1.50947e-05
-4.65043e-06
1.50055e-05
-4.59985e-06
1.49196e-05
-4.54624e-06
1.48372e-05
-4.49014e-06
1.47582e-05
-4.43206e-06
1.46827e-05
-4.37255e-06
1.4611e-05
-4.31215e-06
1.45429e-05
-4.25141e-06
1.44786e-05
-4.19091e-06
1.44183e-05
-4.13126e-06
1.4362e-05
-4.07309e-06
1.43099e-05
-4.01712e-06
1.4262e-05
-3.96409e-06
1.42186e-05
-3.91488e-06
1.41796e-05
-3.87048e-06
1.41452e-05
-3.83202e-06
1.41152e-05
-3.8008e-06
1.40892e-05
-3.77847e-06
-3.7673e-06
1.99995e-05
-9.64747e-09
1.99981e-05
-2.98939e-08
1.9996e-05
-5.10028e-08
1.99932e-05
-7.29013e-08
1.99899e-05
-9.56338e-08
1.99861e-05
-1.19276e-07
1.99817e-05
-1.43911e-07
1.99767e-05
-1.6962e-07
1.99711e-05
-1.96486e-07
1.99649e-05
-2.24585e-07
1.99581e-05
-2.53994e-07
1.99505e-05
-2.84786e-07
1.99422e-05
-3.17033e-07
1.99331e-05
-3.50808e-07
1.99232e-05
-3.86181e-07
1.99124e-05
-4.23221e-07
1.99007e-05
-4.61998e-07
1.98881e-05
-5.0258e-07
1.98744e-05
-5.45036e-07
1.98596e-05
-5.89433e-07
1.98436e-05
-6.35838e-07
1.98265e-05
-6.84317e-07
1.98081e-05
-7.34935e-07
1.97884e-05
-7.87754e-07
1.97672e-05
-8.42836e-07
1.97447e-05
-9.00241e-07
1.97205e-05
-9.60024e-07
1.96948e-05
-1.02224e-06
1.96673e-05
-1.08694e-06
1.96382e-05
-1.15416e-06
1.96071e-05
-1.22396e-06
1.95741e-05
-1.29636e-06
1.95392e-05
-1.37139e-06
1.95021e-05
-1.44907e-06
1.94628e-05
-1.52942e-06
1.94213e-05
-1.61244e-06
1.93774e-05
-1.69812e-06
1.93311e-05
-1.78644e-06
1.92823e-05
-1.87736e-06
1.92308e-05
-1.97084e-06
1.91767e-05
-2.06682e-06
1.91198e-05
-2.1652e-06
1.906e-05
-2.26589e-06
1.89973e-05
-2.36875e-06
1.89316e-05
-2.47363e-06
1.88628e-05
-2.58036e-06
1.87909e-05
-2.68872e-06
1.87159e-05
-2.79849e-06
1.86376e-05
-2.90938e-06
1.85562e-05
-3.0211e-06
1.84715e-05
-3.1333e-06
1.83836e-05
-3.24562e-06
1.82925e-05
-3.35763e-06
1.81983e-05
-3.4689e-06
1.8101e-05
-3.57895e-06
1.80008e-05
-3.68727e-06
1.78977e-05
-3.79333e-06
1.7792e-05
-3.89657e-06
1.76837e-05
-3.99642e-06
1.7573e-05
-4.09232e-06
1.74603e-05
-4.1837e-06
1.73457e-05
-4.26999e-06
1.72295e-05
-4.35068e-06
1.7112e-05
-4.42526e-06
1.69934e-05
-4.49327e-06
1.6874e-05
-4.55429e-06
1.67542e-05
-4.60796e-06
1.66343e-05
-4.65395e-06
1.65146e-05
-4.69211e-06
1.63957e-05
-4.7225e-06
1.62777e-05
-4.74522e-06
1.6161e-05
-4.76043e-06
1.60458e-05
-4.76839e-06
1.59322e-05
-4.7693e-06
1.58205e-05
-4.76339e-06
1.57109e-05
-4.7509e-06
1.56036e-05
-4.73211e-06
1.5499e-05
-4.70732e-06
1.53972e-05
-4.67694e-06
1.52983e-05
-4.64152e-06
1.52024e-05
-4.60159e-06
1.51097e-05
-4.55766e-06
1.50201e-05
-4.51028e-06
1.49338e-05
-4.45995e-06
1.48508e-05
-4.40719e-06
1.47713e-05
-4.35254e-06
1.46953e-05
-4.29653e-06
1.46229e-05
-4.2397e-06
1.45541e-05
-4.18262e-06
1.4489e-05
-4.12585e-06
1.44278e-05
-4.07e-06
1.43704e-05
-4.01572e-06
1.4317e-05
-3.9637e-06
1.42676e-05
-3.9147e-06
1.42222e-05
-3.86954e-06
1.41809e-05
-3.82916e-06
1.41435e-05
-3.79461e-06
1.41097e-05
-3.767e-06
1.40789e-05
-3.74768e-06
-3.73846e-06
1.99996e-05
-9.20921e-09
1.99983e-05
-2.86482e-08
1.99964e-05
-4.90369e-08
1.99937e-05
-7.02902e-08
1.99905e-05
-9.24243e-08
1.99867e-05
-1.15489e-07
1.99824e-05
-1.39549e-07
1.99774e-05
-1.64673e-07
1.99719e-05
-1.90932e-07
1.99657e-05
-2.18398e-07
1.99588e-05
-2.47141e-07
1.99513e-05
-2.77232e-07
1.9943e-05
-3.08741e-07
1.99339e-05
-3.41734e-07
1.9924e-05
-3.76282e-07
1.99132e-05
-4.1245e-07
1.99016e-05
-4.50306e-07
1.98889e-05
-4.89916e-07
1.98752e-05
-5.31346e-07
1.98604e-05
-5.74663e-07
1.98445e-05
-6.19929e-07
1.98274e-05
-6.67209e-07
1.9809e-05
-7.16566e-07
1.97894e-05
-7.68059e-07
1.97683e-05
-8.21749e-07
1.97457e-05
-8.77692e-07
1.97216e-05
-9.35943e-07
1.96959e-05
-9.96554e-07
1.96686e-05
-1.05957e-06
1.96395e-05
-1.12504e-06
1.96085e-05
-1.193e-06
1.95756e-05
-1.26348e-06
1.95407e-05
-1.33651e-06
1.95038e-05
-1.41211e-06
1.94646e-05
-1.49029e-06
1.94232e-05
-1.57105e-06
1.93795e-05
-1.65439e-06
1.93334e-05
-1.74028e-06
1.92847e-05
-1.82869e-06
1.92334e-05
-1.91958e-06
1.91795e-05
-2.01288e-06
1.91228e-05
-2.1085e-06
1.90632e-05
-2.20635e-06
1.90008e-05
-2.3063e-06
1.89354e-05
-2.4082e-06
1.88669e-05
-2.51189e-06
1.87953e-05
-2.61717e-06
1.87207e-05
-2.7238e-06
1.86428e-05
-2.83152e-06
1.85618e-05
-2.94005e-06
1.84775e-05
-3.04907e-06
1.83901e-05
-3.1582e-06
1.82995e-05
-3.26706e-06
1.82059e-05
-3.37523e-06
1.81092e-05
-3.48225e-06
1.80095e-05
-3.58763e-06
1.79071e-05
-3.69087e-06
1.78019e-05
-3.79143e-06
1.76943e-05
-3.88878e-06
1.75843e-05
-3.98236e-06
1.74722e-05
-4.07163e-06
1.73583e-05
-4.15606e-06
1.72428e-05
-4.23513e-06
1.71259e-05
-4.30836e-06
1.70079e-05
-4.3753e-06
1.68891e-05
-4.43555e-06
1.67699e-05
-4.48876e-06
1.66507e-05
-4.53467e-06
1.65317e-05
-4.57313e-06
1.64133e-05
-4.60415e-06
1.62959e-05
-4.62779e-06
1.61797e-05
-4.6442e-06
1.60648e-05
-4.65356e-06
1.59516e-05
-4.65608e-06
1.58402e-05
-4.65198e-06
1.57308e-05
-4.64152e-06
1.56237e-05
-4.62497e-06
1.5519e-05
-4.60266e-06
1.54171e-05
-4.57497e-06
1.53179e-05
-4.54238e-06
1.52217e-05
-4.50539e-06
1.51286e-05
-4.46451e-06
1.50385e-05
-4.42026e-06
1.49517e-05
-4.37314e-06
1.48682e-05
-4.32367e-06
1.4788e-05
-4.27238e-06
1.47113e-05
-4.21979e-06
1.46381e-05
-4.16645e-06
1.45684e-05
-4.11292e-06
1.45023e-05
-4.05976e-06
1.44398e-05
-4.00757e-06
1.43811e-05
-3.957e-06
1.43261e-05
-3.90871e-06
1.42749e-05
-3.86344e-06
1.42273e-05
-3.82197e-06
1.41833e-05
-3.78517e-06
1.41427e-05
-3.75396e-06
1.4105e-05
-3.72929e-06
1.40696e-05
-3.71232e-06
-3.70491e-06
1.99996e-05
-8.82568e-09
1.99985e-05
-2.75166e-08
1.99967e-05
-4.72029e-08
1.99942e-05
-6.7803e-08
1.99911e-05
-8.93199e-08
1.99874e-05
-1.11787e-07
1.99831e-05
-1.35253e-07
1.99782e-05
-1.59775e-07
1.99726e-05
-1.85416e-07
1.99665e-05
-2.12239e-07
1.99597e-05
-2.40312e-07
1.99521e-05
-2.69698e-07
1.99438e-05
-3.00464e-07
1.99348e-05
-3.32675e-07
1.99249e-05
-3.66396e-07
1.99141e-05
-4.01693e-07
1.99025e-05
-4.3863e-07
1.98898e-05
-4.7727e-07
1.98762e-05
-5.17678e-07
1.98614e-05
-5.59916e-07
1.98455e-05
-6.04048e-07
1.98285e-05
-6.50133e-07
1.98101e-05
-6.98233e-07
1.97905e-05
-7.48406e-07
1.97694e-05
-8.00709e-07
1.97469e-05
-8.55197e-07
1.97229e-05
-9.11922e-07
1.96973e-05
-9.70934e-07
1.967e-05
-1.03228e-06
1.9641e-05
-1.096e-06
1.96101e-05
-1.16213e-06
1.95773e-05
-1.2307e-06
1.95425e-05
-1.30174e-06
1.95057e-05
-1.37527e-06
1.94667e-05
-1.45129e-06
1.94255e-05
-1.52982e-06
1.93819e-05
-1.61083e-06
1.93359e-05
-1.69431e-06
1.92875e-05
-1.78023e-06
1.92364e-05
-1.86854e-06
1.91827e-05
-1.95918e-06
1.91263e-05
-2.05206e-06
1.9067e-05
-2.1471e-06
1.90049e-05
-2.24416e-06
1.89398e-05
-2.34312e-06
1.88717e-05
-2.4438e-06
1.88006e-05
-2.54601e-06
1.87263e-05
-2.64953e-06
1.86489e-05
-2.75413e-06
1.85684e-05
-2.8595e-06
1.84846e-05
-2.96536e-06
1.83978e-05
-3.07135e-06
1.83078e-05
-3.17709e-06
1.82148e-05
-3.28219e-06
1.81187e-05
-3.38621e-06
1.80198e-05
-3.48869e-06
1.79181e-05
-3.58914e-06
1.78137e-05
-3.68705e-06
1.77068e-05
-3.7819e-06
1.75976e-05
-3.87318e-06
1.74863e-05
-3.96035e-06
1.73732e-05
-4.04291e-06
1.72584e-05
-4.12036e-06
1.71423e-05
-4.19223e-06
1.70251e-05
-4.2581e-06
1.69071e-05
-4.31758e-06
1.67887e-05
-4.37034e-06
1.66702e-05
-4.41615e-06
1.65519e-05
-4.45486e-06
1.64342e-05
-4.48644e-06
1.63174e-05
-4.51094e-06
1.62016e-05
-4.52845e-06
1.60872e-05
-4.53914e-06
1.59743e-05
-4.54321e-06
1.58632e-05
-4.54086e-06
1.5754e-05
-4.53234e-06
1.5647e-05
-4.51795e-06
1.55424e-05
-4.498e-06
1.54403e-05
-4.47287e-06
1.53409e-05
-4.44301e-06
1.52444e-05
-4.40887e-06
1.51508e-05
-4.37095e-06
1.50603e-05
-4.32975e-06
1.49729e-05
-4.28576e-06
1.48888e-05
-4.23949e-06
1.48079e-05
-4.19147e-06
1.47303e-05
-4.14222e-06
1.46561e-05
-4.09226e-06
1.45853e-05
-4.04216e-06
1.4518e-05
-3.99247e-06
1.44542e-05
-3.94378e-06
1.4394e-05
-3.89672e-06
1.43372e-05
-3.85193e-06
1.42838e-05
-3.8101e-06
1.42338e-05
-3.77199e-06
1.4187e-05
-3.73835e-06
1.41431e-05
-3.71001e-06
1.41016e-05
-3.68779e-06
1.40619e-05
-3.67265e-06
-3.66672e-06
1.99997e-05
-8.48031e-09
1.99986e-05
-2.64749e-08
1.99969e-05
-4.54829e-08
1.99945e-05
-6.54332e-08
1.99915e-05
-8.6324e-08
1.99879e-05
-1.08179e-07
1.99837e-05
-1.31036e-07
1.99789e-05
-1.54943e-07
1.99734e-05
-1.79953e-07
1.99673e-05
-2.06125e-07
1.99605e-05
-2.33518e-07
1.9953e-05
-2.62194e-07
1.99447e-05
-2.92214e-07
1.99357e-05
-3.2364e-07
1.99258e-05
-3.56535e-07
1.99151e-05
-3.9096e-07
1.99035e-05
-4.26977e-07
1.98908e-05
-4.64649e-07
1.98772e-05
-5.04037e-07
1.98625e-05
-5.452e-07
1.98466e-05
-5.882e-07
1.98296e-05
-6.33095e-07
1.98113e-05
-6.79944e-07
1.97917e-05
-7.28802e-07
1.97707e-05
-7.79724e-07
1.97483e-05
-8.32764e-07
1.97243e-05
-8.87971e-07
1.96988e-05
-9.45393e-07
1.96716e-05
-1.00507e-06
1.96426e-05
-1.06705e-06
1.96119e-05
-1.13137e-06
1.95792e-05
-1.19804e-06
1.95446e-05
-1.26711e-06
1.95079e-05
-1.33858e-06
1.94691e-05
-1.41246e-06
1.9428e-05
-1.48876e-06
1.93846e-05
-1.56746e-06
1.93389e-05
-1.64855e-06
1.92907e-05
-1.732e-06
1.92399e-05
-1.81775e-06
1.91865e-05
-1.90575e-06
1.91303e-05
-1.99593e-06
1.90714e-05
-2.08817e-06
1.90096e-05
-2.18238e-06
1.89449e-05
-2.27842e-06
1.88772e-05
-2.37612e-06
1.88065e-05
-2.4753e-06
1.87328e-05
-2.57576e-06
1.86559e-05
-2.67725e-06
1.85759e-05
-2.77951e-06
1.84928e-05
-2.88225e-06
1.84066e-05
-2.98513e-06
1.83173e-05
-3.0878e-06
1.8225e-05
-3.18987e-06
1.81297e-05
-3.29093e-06
1.80315e-05
-3.39053e-06
1.79306e-05
-3.48822e-06
1.7827e-05
-3.5835e-06
1.7721e-05
-3.67589e-06
1.76127e-05
-3.76487e-06
1.75023e-05
-3.84996e-06
1.73901e-05
-3.93066e-06
1.72762e-05
-4.00649e-06
1.7161e-05
-4.077e-06
1.70447e-05
-4.14179e-06
1.69276e-05
-4.20049e-06
1.681e-05
-4.25279e-06
1.66923e-05
-4.29846e-06
1.65748e-05
-4.33736e-06
1.64578e-05
-4.36943e-06
1.63416e-05
-4.39469e-06
1.62263e-05
-4.41322e-06
1.61124e-05
-4.42517e-06
1.59999e-05
-4.43069e-06
1.5889e-05
-4.43001e-06
1.578e-05
-4.42337e-06
1.56731e-05
-4.41105e-06
1.55685e-05
-4.39337e-06
1.54663e-05
-4.37069e-06
1.53667e-05
-4.34343e-06
1.52699e-05
-4.31204e-06
1.51759e-05
-4.27697e-06
1.50849e-05
-4.23872e-06
1.49969e-05
-4.19777e-06
1.4912e-05
-4.15461e-06
1.48303e-05
-4.10975e-06
1.47518e-05
-4.06372e-06
1.46766e-05
-4.01703e-06
1.46046e-05
-3.97021e-06
1.4536e-05
-3.92384e-06
1.44707e-05
-3.87847e-06
1.44087e-05
-3.83471e-06
1.435e-05
-3.79318e-06
1.42944e-05
-3.75454e-06
1.42419e-05
-3.71946e-06
1.41922e-05
-3.68865e-06
1.4145e-05
-3.66282e-06
1.40998e-05
-3.64268e-06
1.40562e-05
-3.62901e-06
-3.62404e-06
1.99997e-05
-8.16272e-09
1.99987e-05
-2.55041e-08
1.99971e-05
-4.38598e-08
1.99948e-05
-6.31701e-08
1.99919e-05
-8.34334e-08
1.99884e-05
-1.04668e-07
1.99843e-05
-1.26905e-07
1.99795e-05
-1.50185e-07
1.99741e-05
-1.74555e-07
1.99681e-05
-2.00066e-07
1.99613e-05
-2.26773e-07
1.99539e-05
-2.54732e-07
1.99457e-05
-2.84001e-07
1.99367e-05
-3.14639e-07
1.99268e-05
-3.46705e-07
1.99161e-05
-3.80258e-07
1.99045e-05
-4.15358e-07
1.98919e-05
-4.52062e-07
1.98783e-05
-4.90431e-07
1.98636e-05
-5.30523e-07
1.98478e-05
-5.72395e-07
1.98308e-05
-6.16104e-07
1.98126e-05
-6.61706e-07
1.97931e-05
-7.09255e-07
1.97721e-05
-7.58804e-07
1.97498e-05
-8.10403e-07
1.97259e-05
-8.64101e-07
1.97005e-05
-9.19942e-07
1.96734e-05
-9.77969e-07
1.96445e-05
-1.03822e-06
1.96139e-05
-1.10073e-06
1.95814e-05
-1.16552e-06
1.95469e-05
-1.23262e-06
1.95103e-05
-1.30205e-06
1.94717e-05
-1.37381e-06
1.94308e-05
-1.4479e-06
1.93877e-05
-1.52432e-06
1.93422e-05
-1.60304e-06
1.92942e-05
-1.68403e-06
1.92437e-05
-1.76725e-06
1.91906e-05
-1.85264e-06
1.91348e-05
-1.94013e-06
1.90762e-05
-2.02962e-06
1.90149e-05
-2.121e-06
1.89506e-05
-2.21415e-06
1.88834e-05
-2.30891e-06
1.88132e-05
-2.4051e-06
1.874e-05
-2.50253e-06
1.86637e-05
-2.60096e-06
1.85843e-05
-2.70015e-06
1.85019e-05
-2.7998e-06
1.84163e-05
-2.89962e-06
1.83278e-05
-2.99925e-06
1.82362e-05
-3.09833e-06
1.81418e-05
-3.19646e-06
1.80445e-05
-3.29323e-06
1.79445e-05
-3.38819e-06
1.78418e-05
-3.48087e-06
1.77368e-05
-3.57082e-06
1.76294e-05
-3.65754e-06
1.752e-05
-3.74055e-06
1.74087e-05
-3.81939e-06
1.72959e-05
-3.8936e-06
1.71816e-05
-3.96276e-06
1.70663e-05
-4.02645e-06
1.69501e-05
-4.08435e-06
1.68335e-05
-4.13615e-06
1.67167e-05
-4.18164e-06
1.66e-05
-4.22066e-06
1.64837e-05
-4.25314e-06
1.63681e-05
-4.27908e-06
1.62534e-05
-4.29855e-06
1.61399e-05
-4.31166e-06
1.60278e-05
-4.31857e-06
1.59172e-05
-4.31947e-06
1.58085e-05
-4.31462e-06
1.57017e-05
-4.30427e-06
1.55971e-05
-4.28875e-06
1.54948e-05
-4.26842e-06
1.5395e-05
-4.24366e-06
1.52979e-05
-4.21489e-06
1.52035e-05
-4.18257e-06
1.51119e-05
-4.14716e-06
1.50233e-05
-4.10913e-06
1.49377e-05
-4.06897e-06
1.48551e-05
-4.02716e-06
1.47756e-05
-3.98422e-06
1.46992e-05
-3.94066e-06
1.4626e-05
-3.89699e-06
1.45559e-05
-3.85377e-06
1.4489e-05
-3.81155e-06
1.44252e-05
-3.77089e-06
1.43644e-05
-3.73239e-06
1.43065e-05
-3.69667e-06
1.42514e-05
-3.66435e-06
1.41988e-05
-3.63607e-06
1.41484e-05
-3.61245e-06
1.40999e-05
-3.59412e-06
1.40526e-05
-3.58173e-06
-3.57725e-06
1.99997e-05
-7.86612e-09
1.99988e-05
-2.45901e-08
1.99972e-05
-4.23184e-08
1.99951e-05
-6.10019e-08
1.99923e-05
-8.06417e-08
1.99889e-05
-1.01254e-07
1.99848e-05
-1.22865e-07
1.99802e-05
-1.4551e-07
1.99748e-05
-1.6923e-07
1.99688e-05
-1.94072e-07
1.99622e-05
-2.20085e-07
1.99547e-05
-2.47322e-07
1.99466e-05
-2.75837e-07
1.99376e-05
-3.05683e-07
1.99278e-05
-3.36918e-07
1.99172e-05
-3.69598e-07
1.99056e-05
-4.03779e-07
1.98931e-05
-4.39518e-07
1.98795e-05
-4.76871e-07
1.98649e-05
-5.15893e-07
1.98491e-05
-5.56641e-07
1.98322e-05
-5.99169e-07
1.9814e-05
-6.4353e-07
1.97945e-05
-6.89776e-07
1.97737e-05
-7.37958e-07
1.97514e-05
-7.88125e-07
1.97276e-05
-8.40321e-07
1.97023e-05
-8.94592e-07
1.96753e-05
-9.50976e-07
1.96466e-05
-1.00951e-06
1.96161e-05
-1.07023e-06
1.95837e-05
-1.13315e-06
1.95494e-05
-1.19831e-06
1.9513e-05
-1.26571e-06
1.94746e-05
-1.33536e-06
1.94339e-05
-1.40726e-06
1.9391e-05
-1.48141e-06
1.93458e-05
-1.55778e-06
1.92981e-05
-1.63635e-06
1.92479e-05
-1.71707e-06
1.91952e-05
-1.79987e-06
1.91397e-05
-1.88471e-06
1.90816e-05
-1.97147e-06
1.90206e-05
-2.06006e-06
1.89568e-05
-2.15036e-06
1.88901e-05
-2.24221e-06
1.88205e-05
-2.33545e-06
1.87478e-05
-2.42988e-06
1.86722e-05
-2.5253e-06
1.85935e-05
-2.62145e-06
1.85117e-05
-2.71807e-06
1.8427e-05
-2.81486e-06
1.83392e-05
-2.9115e-06
1.82485e-05
-3.00763e-06
1.8155e-05
-3.10288e-06
1.80586e-05
-3.19685e-06
1.79595e-05
-3.28911e-06
1.78579e-05
-3.37923e-06
1.77538e-05
-3.46675e-06
1.76475e-05
-3.55122e-06
1.75391e-05
-3.63218e-06
1.74289e-05
-3.70917e-06
1.73171e-05
-3.78177e-06
1.72039e-05
-3.84955e-06
1.70896e-05
-3.91215e-06
1.69744e-05
-3.96922e-06
1.68588e-05
-4.02049e-06
1.67428e-05
-4.06573e-06
1.6627e-05
-4.1048e-06
1.65115e-05
-4.13761e-06
1.63965e-05
-4.16415e-06
1.62824e-05
-4.18446e-06
1.61694e-05
-4.19864e-06
1.60577e-05
-4.20684e-06
1.59475e-05
-4.20925e-06
1.58389e-05
-4.20608e-06
1.57323e-05
-4.19762e-06
1.56277e-05
-4.18417e-06
1.55254e-05
-4.16606e-06
1.54254e-05
-4.14368e-06
1.53279e-05
-4.11743e-06
1.52331e-05
-4.08774e-06
1.5141e-05
-4.05506e-06
1.50517e-05
-4.01983e-06
1.49653e-05
-3.98254e-06
1.48818e-05
-3.94366e-06
1.48012e-05
-3.90368e-06
1.47237e-05
-3.8631e-06
1.46491e-05
-3.82244e-06
1.45775e-05
-3.7822e-06
1.45089e-05
-3.74294e-06
1.44432e-05
-3.70518e-06
1.43803e-05
-3.6695e-06
1.43201e-05
-3.63647e-06
1.42624e-05
-3.60667e-06
1.42071e-05
-3.58067e-06
1.41536e-05
-3.55904e-06
1.41018e-05
-3.54231e-06
1.40512e-05
-3.53106e-06
-3.52661e-06
1.99997e-05
-7.58591e-09
1.99989e-05
-2.37223e-08
1.99974e-05
-4.0846e-08
1.99953e-05
-5.89175e-08
1.99926e-05
-7.79407e-08
1.99893e-05
-9.79315e-08
1.99853e-05
-1.18914e-07
1.99807e-05
-1.40919e-07
1.99755e-05
-1.63984e-07
1.99696e-05
-1.8815e-07
1.99629e-05
-2.13464e-07
1.99556e-05
-2.39974e-07
1.99475e-05
-2.67729e-07
1.99386e-05
-2.96781e-07
1.99288e-05
-3.27183e-07
1.99182e-05
-3.58989e-07
1.99067e-05
-3.92252e-07
1.98942e-05
-4.27025e-07
1.98807e-05
-4.63364e-07
1.98661e-05
-5.0132e-07
1.98504e-05
-5.40948e-07
1.98336e-05
-5.82299e-07
1.98155e-05
-6.25425e-07
1.97961e-05
-6.70375e-07
1.97753e-05
-7.17197e-07
1.97531e-05
-7.65939e-07
1.97294e-05
-8.16645e-07
1.97042e-05
-8.69355e-07
1.96773e-05
-9.24107e-07
1.96488e-05
-9.80937e-07
1.96184e-05
-1.03987e-06
1.95862e-05
-1.10095e-06
1.95521e-05
-1.16417e-06
1.95159e-05
-1.22956e-06
1.94777e-05
-1.29713e-06
1.94373e-05
-1.36687e-06
1.93947e-05
-1.43877e-06
1.93497e-05
-1.51282e-06
1.93023e-05
-1.58898e-06
1.92525e-05
-1.66722e-06
1.92001e-05
-1.74748e-06
1.91451e-05
-1.82968e-06
1.90873e-05
-1.91375e-06
1.90269e-05
-1.99959e-06
1.89636e-05
-2.08707e-06
1.88974e-05
-2.17605e-06
1.88284e-05
-2.26638e-06
1.87563e-05
-2.35787e-06
1.86814e-05
-2.45031e-06
1.86034e-05
-2.54347e-06
1.85224e-05
-2.6371e-06
1.84385e-05
-2.73091e-06
1.83515e-05
-2.8246e-06
1.82617e-05
-2.91783e-06
1.81691e-05
-3.01023e-06
1.80737e-05
-3.10144e-06
1.79756e-05
-3.19104e-06
1.7875e-05
-3.27862e-06
1.7772e-05
-3.36375e-06
1.76668e-05
-3.44599e-06
1.75595e-05
-3.5249e-06
1.74504e-05
-3.60005e-06
1.73396e-05
-3.67103e-06
1.72275e-05
-3.73743e-06
1.71143e-05
-3.79891e-06
1.70002e-05
-3.85512e-06
1.68855e-05
-3.90581e-06
1.67705e-05
-3.95076e-06
1.66555e-05
-3.98981e-06
1.65408e-05
-4.02287e-06
1.64266e-05
-4.04992e-06
1.63131e-05
-4.07099e-06
1.62006e-05
-4.08615e-06
1.60893e-05
-4.09555e-06
1.59794e-05
-4.09936e-06
1.58711e-05
-4.09779e-06
1.57646e-05
-4.09112e-06
1.56601e-05
-4.07962e-06
1.55576e-05
-4.06364e-06
1.54575e-05
-4.04352e-06
1.53597e-05
-4.01967e-06
1.52645e-05
-3.99248e-06
1.51718e-05
-3.9624e-06
1.50818e-05
-3.92985e-06
1.49946e-05
-3.8953e-06
1.49101e-05
-3.85921e-06
1.48285e-05
-3.82206e-06
1.47497e-05
-3.78433e-06
1.46738e-05
-3.7465e-06
1.46007e-05
-3.70909e-06
1.45304e-05
-3.67261e-06
1.44627e-05
-3.63757e-06
1.43977e-05
-3.6045e-06
1.43352e-05
-3.57395e-06
1.4275e-05
-3.54645e-06
1.42169e-05
-3.52254e-06
1.41605e-05
-3.50272e-06
1.41057e-05
-3.48745e-06
1.40519e-05
-3.47723e-06
-3.47247e-06
1.99997e-05
-7.31886e-09
1.99989e-05
-2.28926e-08
1.99975e-05
-3.94325e-08
1.99955e-05
-5.69068e-08
1.99929e-05
-7.53224e-08
1.99896e-05
-9.46958e-08
1.99858e-05
-1.1505e-07
1.99813e-05
-1.36412e-07
1.99761e-05
-1.58818e-07
1.99702e-05
-1.82305e-07
1.99637e-05
-2.06915e-07
1.99564e-05
-2.32693e-07
1.99484e-05
-2.59686e-07
1.99395e-05
-2.87941e-07
1.99299e-05
-3.17509e-07
1.99193e-05
-3.48439e-07
1.99078e-05
-3.80784e-07
1.98954e-05
-4.14593e-07
1.9882e-05
-4.49919e-07
1.98675e-05
-4.86812e-07
1.98518e-05
-5.25324e-07
1.9835e-05
-5.65503e-07
1.9817e-05
-6.07399e-07
1.97977e-05
-6.5106e-07
1.9777e-05
-6.96531e-07
1.97549e-05
-7.43858e-07
1.97314e-05
-7.93082e-07
1.97063e-05
-8.44242e-07
1.96795e-05
-8.97375e-07
1.96511e-05
-9.52515e-07
1.96209e-05
-1.00969e-06
1.95889e-05
-1.06892e-06
1.9555e-05
-1.13023e-06
1.9519e-05
-1.19364e-06
1.9481e-05
-1.25913e-06
1.94409e-05
-1.32673e-06
1.93986e-05
-1.39641e-06
1.93539e-05
-1.46816e-06
1.93069e-05
-1.54195e-06
1.92574e-05
-1.61774e-06
1.92054e-05
-1.69547e-06
1.91508e-05
-1.77509e-06
1.90935e-05
-1.8565e-06
1.90336e-05
-1.93961e-06
1.89708e-05
-2.02432e-06
1.89052e-05
-2.11047e-06
1.88368e-05
-2.19793e-06
1.87654e-05
-2.28651e-06
1.86911e-05
-2.37602e-06
1.86139e-05
-2.46624e-06
1.85337e-05
-2.55692e-06
1.84506e-05
-2.6478e-06
1.83646e-05
-2.73858e-06
1.82757e-05
-2.82894e-06
1.8184e-05
-2.91855e-06
1.80896e-05
-3.00703e-06
1.79926e-05
-3.09401e-06
1.78931e-05
-3.17908e-06
1.77911e-05
-3.26184e-06
1.7687e-05
-3.34187e-06
1.75809e-05
-3.41875e-06
1.74729e-05
-3.49207e-06
1.73633e-05
-3.56142e-06
1.72523e-05
-3.62644e-06
1.71401e-05
-3.68676e-06
1.70271e-05
-3.74209e-06
1.69134e-05
-3.79216e-06
1.67994e-05
-3.83675e-06
1.66853e-05
-3.87571e-06
1.65714e-05
-3.90895e-06
1.64579e-05
-3.93642e-06
1.63451e-05
-3.95815e-06
1.62331e-05
-3.9742e-06
1.61223e-05
-3.98471e-06
1.60128e-05
-3.98982e-06
1.59047e-05
-3.98976e-06
1.57984e-05
-3.98476e-06
1.56938e-05
-3.97511e-06
1.55913e-05
-3.96114e-06
1.5491e-05
-3.94317e-06
1.53929e-05
-3.92159e-06
1.52972e-05
-3.89679e-06
1.5204e-05
-3.86918e-06
1.51133e-05
-3.83919e-06
1.50253e-05
-3.80725e-06
1.49399e-05
-3.77382e-06
1.48572e-05
-3.73935e-06
1.47772e-05
-3.70431e-06
1.46998e-05
-3.66918e-06
1.46252e-05
-3.63443e-06
1.45531e-05
-3.60055e-06
1.44836e-05
-3.56805e-06
1.44165e-05
-3.53741e-06
1.43517e-05
-3.50915e-06
1.4289e-05
-3.48377e-06
1.42282e-05
-3.46175e-06
1.41691e-05
-3.44358e-06
1.41113e-05
-3.42967e-06
1.40545e-05
-3.42042e-06
-3.41545e-06
1.99997e-05
-7.06264e-09
1.99989e-05
-2.20948e-08
1.99976e-05
-3.80694e-08
1.99956e-05
-5.49609e-08
1.99931e-05
-7.27789e-08
1.99899e-05
-9.15408e-08
1.99862e-05
-1.11269e-07
1.99817e-05
-1.31989e-07
1.99767e-05
-1.53735e-07
1.99709e-05
-1.7654e-07
1.99644e-05
-2.00443e-07
1.99572e-05
-2.25487e-07
1.99492e-05
-2.51714e-07
1.99405e-05
-2.7917e-07
1.99309e-05
-3.07902e-07
1.99204e-05
-3.37957e-07
1.9909e-05
-3.69383e-07
1.98966e-05
-4.0223e-07
1.98832e-05
-4.36546e-07
1.98688e-05
-4.72379e-07
1.98533e-05
-5.09778e-07
1.98365e-05
-5.4879e-07
1.98186e-05
-5.89463e-07
1.97994e-05
-6.31842e-07
1.97788e-05
-6.7597e-07
1.97569e-05
-7.2189e-07
1.97334e-05
-7.69643e-07
1.97084e-05
-8.19265e-07
1.96819e-05
-8.70792e-07
1.96536e-05
-9.24255e-07
1.96236e-05
-9.79681e-07
1.95918e-05
-1.03709e-06
1.9558e-05
-1.09651e-06
1.95223e-05
-1.15794e-06
1.94846e-05
-1.22139e-06
1.94447e-05
-1.28687e-06
1.94027e-05
-1.35435e-06
1.93584e-05
-1.42383e-06
1.93117e-05
-1.49527e-06
1.92626e-05
-1.56864e-06
1.9211e-05
-1.64389e-06
1.91569e-05
-1.72094e-06
1.91001e-05
-1.79973e-06
1.90406e-05
-1.88016e-06
1.89784e-05
-1.96213e-06
1.89135e-05
-2.0455e-06
1.88457e-05
-2.13012e-06
1.8775e-05
-2.21584e-06
1.87014e-05
-2.30247e-06
1.8625e-05
-2.38979e-06
1.85456e-05
-2.47757e-06
1.84634e-05
-2.56556e-06
1.83783e-05
-2.65348e-06
1.82904e-05
-2.74102e-06
1.81997e-05
-2.82786e-06
1.81063e-05
-2.91366e-06
1.80103e-05
-2.99804e-06
1.79119e-05
-3.08064e-06
1.78111e-05
-3.16105e-06
1.77081e-05
-3.23889e-06
1.76031e-05
-3.31375e-06
1.74963e-05
-3.38523e-06
1.73878e-05
-3.45296e-06
1.7278e-05
-3.51657e-06
1.7167e-05
-3.57573e-06
1.7055e-05
-3.63014e-06
1.69424e-05
-3.67954e-06
1.68293e-05
-3.72372e-06
1.67162e-05
-3.76252e-06
1.66031e-05
-3.79585e-06
1.64903e-05
-3.82367e-06
1.63781e-05
-3.84597e-06
1.62667e-05
-3.86282e-06
1.61564e-05
-3.87433e-06
1.60472e-05
-3.88065e-06
1.59394e-05
-3.88199e-06
1.58332e-05
-3.87856e-06
1.57288e-05
-3.87066e-06
1.56262e-05
-3.85857e-06
1.55257e-05
-3.84264e-06
1.54273e-05
-3.82321e-06
1.53312e-05
-3.80067e-06
1.52374e-05
-3.77541e-06
1.51461e-05
-3.74784e-06
1.50572e-05
-3.71838e-06
1.49708e-05
-3.68747e-06
1.4887e-05
-3.65555e-06
1.48058e-05
-3.62306e-06