/*--------------------------------*- C++ -*----------------------------------*\
  =========                 |
  \\      /  F ield         | OpenFOAM: The Open Source CFD Toolbox
   \\    /   O peration     | Website:  https://openfoam.org
    \\  /    A nd           | Version:  11
     \\/     M anipulation  |
\*---------------------------------------------------------------------------*/
FoamFile
{
    format      ascii;
    class       volScalarField;
    location    "116";
    object      k;
}
// * * * * * * * * * * * * * * * * * * * * * * * * * * * * * * * * * * * * * //

dimensions      [0 2 -2 0 0 0 0];

internalField   nonuniform List<scalar> 
10000
(
0.000939646
0.000835565
0.000745597
0.000667577
0.0005997
0.000540463
0.000488605
0.000443071
0.000402972
0.000367562
0.000336209
0.000308382
0.000283627
0.000261564
0.000241866
0.000224257
0.000208501
0.000194398
0.000181775
0.000170483
0.000160394
0.000151395
0.000143386
0.000136277
0.000129989
0.000124445
0.000119577
0.00011532
0.000111612
0.000108396
0.000105618
0.000103229
0.000101183
9.94363e-05
9.79521e-05
9.66953e-05
9.56358e-05
9.47468e-05
9.40046e-05
9.33885e-05
9.288e-05
9.24628e-05
9.21228e-05
9.18477e-05
9.16267e-05
9.14508e-05
9.13124e-05
9.12051e-05
9.11231e-05
9.10618e-05
9.10169e-05
9.09849e-05
9.0963e-05
9.09487e-05
9.09397e-05
9.09345e-05
9.09316e-05
9.09298e-05
9.09282e-05
9.0926e-05
9.09227e-05
9.09178e-05
9.09111e-05
9.09023e-05
9.08914e-05
9.08782e-05
9.08629e-05
9.08454e-05
9.08259e-05
9.08046e-05
9.07814e-05
9.07568e-05
9.07307e-05
9.07034e-05
9.06751e-05
9.0646e-05
9.06162e-05
9.05859e-05
9.05553e-05
9.05245e-05
9.04937e-05
9.04631e-05
9.04327e-05
9.04028e-05
9.03734e-05
9.03446e-05
9.03167e-05
9.02896e-05
9.02636e-05
9.02387e-05
9.02151e-05
9.0193e-05
9.01724e-05
9.01537e-05
9.01368e-05
9.01221e-05
9.01098e-05
9.01001e-05
9.00932e-05
9.00894e-05
0.000939647
0.000835568
0.000745602
0.000667583
0.000599707
0.000540471
0.000488614
0.00044308
0.000402982
0.000367572
0.00033622
0.000308392
0.000283638
0.000261575
0.000241877
0.000224269
0.000208514
0.000194411
0.000181788
0.000170496
0.000160407
0.000151408
0.000143399
0.000136291
0.000130002
0.000124458
0.00011959
0.000115332
0.000111624
0.000108407
0.000105629
0.000103239
0.000101192
9.94453e-05
9.79609e-05
9.67043e-05
9.5645e-05
9.47561e-05
9.40139e-05
9.33974e-05
9.28883e-05
9.24703e-05
9.21295e-05
9.18535e-05
9.16319e-05
9.14556e-05
9.1317e-05
9.12094e-05
9.11273e-05
9.10658e-05
9.10208e-05
9.09887e-05
9.09667e-05
9.09522e-05
9.09432e-05
9.09379e-05
9.09348e-05
9.09329e-05
9.09312e-05
9.09289e-05
9.09255e-05
9.09206e-05
9.09137e-05
9.09049e-05
9.08938e-05
9.08806e-05
9.08651e-05
9.08476e-05
9.0828e-05
9.08065e-05
9.07833e-05
9.07585e-05
9.07324e-05
9.0705e-05
9.06766e-05
9.06474e-05
9.06175e-05
9.05871e-05
9.05565e-05
9.05256e-05
9.04948e-05
9.04641e-05
9.04337e-05
9.04037e-05
9.03742e-05
9.03454e-05
9.03174e-05
9.02903e-05
9.02642e-05
9.02393e-05
9.02157e-05
9.01935e-05
9.01729e-05
9.01541e-05
9.01372e-05
9.01225e-05
9.01101e-05
9.01004e-05
9.00935e-05
9.00897e-05
0.000939648
0.000835573
0.00074561
0.000667593
0.00059972
0.000540485
0.000488629
0.000443097
0.000402999
0.00036759
0.000336239
0.000308412
0.000283658
0.000261595
0.000241898
0.00022429
0.000208535
0.000194432
0.000181809
0.000170518
0.000160429
0.000151429
0.00014342
0.000136311
0.000130021
0.000124477
0.000119607
0.000115348
0.000111638
0.000108421
0.000105641
0.00010325
0.000101202
9.94546e-05
9.79694e-05
9.67121e-05
9.56525e-05
9.47632e-05
9.40206e-05
9.34037e-05
9.2894e-05
9.24754e-05
9.21339e-05
9.18574e-05
9.16353e-05
9.14586e-05
9.13198e-05
9.1212e-05
9.11297e-05
9.10681e-05
9.1023e-05
9.09908e-05
9.09688e-05
9.09542e-05
9.09452e-05
9.09398e-05
9.09367e-05
9.09348e-05
9.0933e-05
9.09307e-05
9.09273e-05
9.09223e-05
9.09154e-05
9.09065e-05
9.08954e-05
9.08821e-05
9.08666e-05
9.0849e-05
9.08294e-05
9.08079e-05
9.07846e-05
9.07598e-05
9.07336e-05
9.07062e-05
9.06777e-05
9.06485e-05
9.06185e-05
9.05881e-05
9.05574e-05
9.05265e-05
9.04957e-05
9.04649e-05
9.04345e-05
9.04045e-05
9.0375e-05
9.03461e-05
9.03181e-05
9.0291e-05
9.02649e-05
9.02399e-05
9.02163e-05
9.01941e-05
9.01735e-05
9.01547e-05
9.01378e-05
9.01231e-05
9.01107e-05
9.0101e-05
9.00941e-05
9.00903e-05
0.00093965
0.000835578
0.000745619
0.000667606
0.000599737
0.000540504
0.000488651
0.00044312
0.000403024
0.000367616
0.000336266
0.00030844
0.000283687
0.000261624
0.000241927
0.00022432
0.000208565
0.000194463
0.00018184
0.000170548
0.000160458
0.000151458
0.000143448
0.000136338
0.000130047
0.000124501
0.00011963
0.000115369
0.000111657
0.000108438
0.000105657
0.000103264
0.000101214
9.9465e-05
9.79785e-05
9.67203e-05
9.56597e-05
9.47698e-05
9.40265e-05
9.34088e-05
9.28984e-05
9.24791e-05
9.2137e-05
9.18599e-05
9.16374e-05
9.14605e-05
9.13213e-05
9.12134e-05
9.1131e-05
9.10692e-05
9.10241e-05
9.09919e-05
9.09698e-05
9.09552e-05
9.09462e-05
9.09408e-05
9.09377e-05
9.09358e-05
9.0934e-05
9.09317e-05
9.09283e-05
9.09233e-05
9.09164e-05
9.09075e-05
9.08964e-05
9.08831e-05
9.08676e-05
9.085e-05
9.08303e-05
9.08088e-05
9.07855e-05
9.07607e-05
9.07345e-05
9.0707e-05
9.06786e-05
9.06493e-05
9.06194e-05
9.0589e-05
9.05582e-05
9.05273e-05
9.04965e-05
9.04657e-05
9.04353e-05
9.04052e-05
9.03757e-05
9.03469e-05
9.03189e-05
9.02917e-05
9.02656e-05
9.02407e-05
9.02171e-05
9.01949e-05
9.01743e-05
9.01554e-05
9.01386e-05
9.01239e-05
9.01115e-05
9.01018e-05
9.00949e-05
9.00911e-05
0.000939651
0.000835584
0.000745629
0.000667621
0.000599755
0.000540526
0.000488676
0.000443147
0.000403054
0.000367648
0.000336299
0.000308474
0.000283723
0.000261661
0.000241965
0.000224358
0.000208604
0.000194501
0.000181879
0.000170586
0.000160496
0.000151495
0.000143484
0.000136372
0.00013008
0.000124531
0.000119658
0.000115395
0.000111681
0.000108459
0.000105675
0.00010328
0.000101228
9.94773e-05
9.7989e-05
9.67293e-05
9.56674e-05
9.47763e-05
9.4032e-05
9.34135e-05
9.29022e-05
9.24822e-05
9.21395e-05
9.18619e-05
9.16389e-05
9.14616e-05
9.13222e-05
9.12141e-05
9.11315e-05
9.10697e-05
9.10245e-05
9.09923e-05
9.09701e-05
9.09556e-05
9.09465e-05
9.09412e-05
9.09381e-05
9.09362e-05
9.09345e-05
9.09322e-05
9.09288e-05
9.09238e-05
9.0917e-05
9.09081e-05
9.0897e-05
9.08837e-05
9.08682e-05
9.08506e-05
9.0831e-05
9.08095e-05
9.07862e-05
9.07614e-05
9.07352e-05
9.07077e-05
9.06793e-05
9.065e-05
9.06201e-05
9.05897e-05
9.0559e-05
9.05281e-05
9.04972e-05
9.04665e-05
9.0436e-05
9.0406e-05
9.03765e-05
9.03477e-05
9.03197e-05
9.02926e-05
9.02665e-05
9.02416e-05
9.0218e-05
9.01958e-05
9.01752e-05
9.01564e-05
9.01395e-05
9.01249e-05
9.01125e-05
9.01028e-05
9.0096e-05
9.00922e-05
0.000939653
0.000835589
0.000745639
0.000667636
0.000599774
0.00054055
0.000488703
0.000443178
0.000403088
0.000367684
0.000336338
0.000308515
0.000283765
0.000261705
0.00024201
0.000224403
0.00020865
0.000194548
0.000181925
0.000170633
0.000160542
0.00015154
0.000143527
0.000136413
0.000130118
0.000124568
0.000119692
0.000115425
0.000111708
0.000108483
0.000105697
0.000103299
0.000101245
9.94911e-05
9.80007e-05
9.6739e-05
9.56755e-05
9.4783e-05
9.40374e-05
9.34178e-05
9.29056e-05
9.24847e-05
9.21413e-05
9.18631e-05
9.16396e-05
9.1462e-05
9.13223e-05
9.1214e-05
9.11313e-05
9.10694e-05
9.10241e-05
9.09919e-05
9.09698e-05
9.09553e-05
9.09462e-05
9.09409e-05
9.0938e-05
9.09361e-05
9.09344e-05
9.09322e-05
9.09288e-05
9.09239e-05
9.09171e-05
9.09082e-05
9.08972e-05
9.08839e-05
9.08685e-05
9.08509e-05
9.08313e-05
9.08098e-05
9.07866e-05
9.07618e-05
9.07356e-05
9.07082e-05
9.06798e-05
9.06505e-05
9.06206e-05
9.05902e-05
9.05595e-05
9.05287e-05
9.04978e-05
9.04671e-05
9.04367e-05
9.04067e-05
9.03773e-05
9.03485e-05
9.03205e-05
9.02934e-05
9.02674e-05
9.02425e-05
9.02189e-05
9.01968e-05
9.01762e-05
9.01575e-05
9.01407e-05
9.0126e-05
9.01137e-05
9.0104e-05
9.00972e-05
9.00934e-05
0.000939654
0.000835594
0.000745649
0.00066765
0.000599794
0.000540575
0.000488732
0.000443211
0.000403124
0.000367724
0.00033638
0.00030856
0.000283812
0.000261754
0.00024206
0.000224455
0.000208703
0.000194601
0.000181978
0.000170686
0.000160594
0.000151591
0.000143576
0.00013646
0.000130163
0.000124609
0.00011973
0.00011546
0.00011174
0.000108511
0.000105721
0.00010332
0.000101263
9.95062e-05
9.80133e-05
9.67494e-05
9.56839e-05
9.47896e-05
9.40426e-05
9.34216e-05
9.29083e-05
9.24866e-05
9.21423e-05
9.18635e-05
9.16396e-05
9.14615e-05
9.13216e-05
9.1213e-05
9.11302e-05
9.10682e-05
9.10229e-05
9.09907e-05
9.09686e-05
9.09541e-05
9.09452e-05
9.09399e-05
9.0937e-05
9.09352e-05
9.09337e-05
9.09315e-05
9.09282e-05
9.09234e-05
9.09166e-05
9.09078e-05
9.08969e-05
9.08837e-05
9.08683e-05
9.08508e-05
9.08312e-05
9.08098e-05
9.07866e-05
9.07618e-05
9.07357e-05
9.07083e-05
9.06799e-05
9.06507e-05
9.06209e-05
9.05905e-05
9.05599e-05
9.05291e-05
9.04983e-05
9.04676e-05
9.04372e-05
9.04073e-05
9.03779e-05
9.03492e-05
9.03212e-05
9.02942e-05
9.02682e-05
9.02434e-05
9.02199e-05
9.01978e-05
9.01773e-05
9.01586e-05
9.01418e-05
9.01272e-05
9.0115e-05
9.01054e-05
9.00985e-05
9.00947e-05
0.000939655
0.000835599
0.000745658
0.000667665
0.000599814
0.000540599
0.000488762
0.000443246
0.000403163
0.000367766
0.000336426
0.000308609
0.000283864
0.000261808
0.000242116
0.000224512
0.000208761
0.00019466
0.000182038
0.000170745
0.000160652
0.000151647
0.00014363
0.000136512
0.000130212
0.000124655
0.000119772
0.000115499
0.000111774
0.000108542
0.000105748
0.000103343
0.000101282
9.95225e-05
9.80267e-05
9.67602e-05
9.56924e-05
9.47962e-05
9.40474e-05
9.3425e-05
9.29105e-05
9.24877e-05
9.21426e-05
9.18631e-05
9.16386e-05
9.14601e-05
9.13199e-05
9.12111e-05
9.11282e-05
9.10661e-05
9.10208e-05
9.09886e-05
9.09665e-05
9.09521e-05
9.09432e-05
9.09381e-05
9.09353e-05
9.09336e-05
9.09322e-05
9.09301e-05
9.09269e-05
9.09222e-05
9.09155e-05
9.09069e-05
9.0896e-05
9.08829e-05
9.08676e-05
9.08501e-05
9.08306e-05
9.08092e-05
9.07861e-05
9.07614e-05
9.07353e-05
9.0708e-05
9.06797e-05
9.06506e-05
9.06208e-05
9.05905e-05
9.05599e-05
9.05292e-05
9.04984e-05
9.04678e-05
9.04376e-05
9.04077e-05
9.03784e-05
9.03497e-05
9.03218e-05
9.02949e-05
9.0269e-05
9.02442e-05
9.02208e-05
9.01988e-05
9.01784e-05
9.01598e-05
9.01431e-05
9.01286e-05
9.01164e-05
9.01068e-05
9.00999e-05
9.00961e-05
0.000939656
0.000835603
0.000745667
0.000667678
0.000599833
0.000540624
0.000488792
0.000443281
0.000403202
0.00036781
0.000336474
0.00030866
0.000283918
0.000261865
0.000242176
0.000224574
0.000208824
0.000194724
0.000182102
0.000170808
0.000160715
0.000151709
0.00014369
0.000136569
0.000130266
0.000124705
0.000119818
0.00011554
0.000111812
0.000108575
0.000105776
0.000103368
0.000101303
9.95398e-05
9.80407e-05
9.67713e-05
9.57011e-05
9.48026e-05
9.4052e-05
9.3428e-05
9.2912e-05
9.24881e-05
9.21421e-05
9.18618e-05
9.16367e-05
9.14578e-05
9.13172e-05
9.12083e-05
9.11252e-05
9.10631e-05
9.10177e-05
9.09855e-05
9.09635e-05
9.09492e-05
9.09405e-05
9.09355e-05
9.09328e-05
9.09312e-05
9.09299e-05
9.0928e-05
9.09249e-05
9.09203e-05
9.09138e-05
9.09052e-05
9.08945e-05
9.08815e-05
9.08663e-05
9.08489e-05
9.08295e-05
9.08082e-05
9.07852e-05
9.07606e-05
9.07346e-05
9.07074e-05
9.06791e-05
9.06501e-05
9.06203e-05
9.05901e-05
9.05596e-05
9.0529e-05
9.04983e-05
9.04678e-05
9.04376e-05
9.04079e-05
9.03786e-05
9.03501e-05
9.03223e-05
9.02955e-05
9.02697e-05
9.0245e-05
9.02217e-05
9.01998e-05
9.01795e-05
9.01609e-05
9.01443e-05
9.01299e-05
9.01177e-05
9.01082e-05
9.01014e-05
9.00976e-05
0.000939658
0.000835607
0.000745675
0.000667691
0.000599851
0.000540648
0.000488821
0.000443315
0.000403242
0.000367855
0.000336523
0.000308713
0.000283975
0.000261925
0.000242238
0.000224639
0.00020889
0.000194792
0.00018217
0.000170876
0.000160782
0.000151774
0.000143753
0.00013663
0.000130323
0.000124758
0.000119867
0.000115585
0.000111851
0.00010861
0.000105807
0.000103394
0.000101325
9.95577e-05
9.80552e-05
9.67827e-05
9.57097e-05
9.48089e-05
9.40561e-05
9.34303e-05
9.29129e-05
9.24877e-05
9.21407e-05
9.18596e-05
9.16339e-05
9.14545e-05
9.13136e-05
9.12044e-05
9.11212e-05
9.1059e-05
9.10136e-05
9.09815e-05
9.09596e-05
9.09454e-05
9.09368e-05
9.09319e-05
9.09294e-05
9.0928e-05
9.09268e-05
9.09251e-05
9.09222e-05
9.09177e-05
9.09113e-05
9.09029e-05
9.08923e-05
9.08794e-05
9.08643e-05
9.08471e-05
9.08278e-05
9.08067e-05
9.07837e-05
9.07592e-05
9.07333e-05
9.07062e-05
9.06781e-05
9.06491e-05
9.06195e-05
9.05894e-05
9.0559e-05
9.05285e-05
9.04979e-05
9.04675e-05
9.04374e-05
9.04078e-05
9.03787e-05
9.03502e-05
9.03226e-05
9.02959e-05
9.02702e-05
9.02457e-05
9.02224e-05
9.02007e-05
9.01805e-05
9.0162e-05
9.01455e-05
9.01312e-05
9.01191e-05
9.01096e-05
9.01028e-05
9.0099e-05
0.000939659
0.000835611
0.000745683
0.000667704
0.000599869
0.000540671
0.00048885
0.00044335
0.000403282
0.0003679
0.000336573
0.000308768
0.000284033
0.000261987
0.000242303
0.000224706
0.00020896
0.000194862
0.000182241
0.000170948
0.000160853
0.000151843
0.00014382
0.000136693
0.000130383
0.000124814
0.000119918
0.000115631
0.000111893
0.000108646
0.000105839
0.000103421
0.000101347
9.95763e-05
9.807e-05
9.67942e-05
9.57182e-05
9.48148e-05
9.40599e-05
9.34322e-05
9.29132e-05
9.24867e-05
9.21385e-05
9.18566e-05
9.16302e-05
9.14503e-05
9.1309e-05
9.11996e-05
9.11162e-05
9.10539e-05
9.10086e-05
9.09765e-05
9.09547e-05
9.09406e-05
9.09321e-05
9.09274e-05
9.09251e-05
9.09239e-05
9.09229e-05
9.09213e-05
9.09186e-05
9.09143e-05
9.09082e-05
9.08999e-05
9.08894e-05
9.08767e-05
9.08618e-05
9.08447e-05
9.08256e-05
9.08045e-05
9.07817e-05
9.07574e-05
9.07316e-05
9.07046e-05
9.06766e-05
9.06478e-05
9.06183e-05
9.05883e-05
9.0558e-05
9.05276e-05
9.04972e-05
9.04669e-05
9.0437e-05
9.04074e-05
9.03784e-05
9.03501e-05
9.03226e-05
9.02961e-05
9.02705e-05
9.02462e-05
9.02231e-05
9.02014e-05
9.01814e-05
9.01631e-05
9.01467e-05
9.01324e-05
9.01204e-05
9.0111e-05
9.01042e-05
9.01004e-05
0.00093966
0.000835615
0.00074569
0.000667716
0.000599886
0.000540693
0.000488878
0.000443383
0.000403321
0.000367945
0.000336623
0.000308822
0.000284092
0.00026205
0.00024237
0.000224775
0.000209031
0.000194935
0.000182315
0.000171021
0.000160926
0.000151915
0.000143889
0.000136759
0.000130445
0.000124872
0.000119972
0.00011568
0.000111936
0.000108684
0.000105871
0.000103449
0.000101371
9.95952e-05
9.8085e-05
9.68057e-05
9.57266e-05
9.48204e-05
9.40631e-05
9.34334e-05
9.29127e-05
9.24848e-05
9.21355e-05
9.18526e-05
9.16256e-05
9.14451e-05
9.13034e-05
9.11937e-05
9.11102e-05
9.10479e-05
9.10025e-05
9.09705e-05
9.09488e-05
9.09349e-05
9.09266e-05
9.09221e-05
9.09199e-05
9.09189e-05
9.09181e-05
9.09168e-05
9.09143e-05
9.09102e-05
9.09042e-05
9.08962e-05
9.08859e-05
9.08734e-05
9.08586e-05
9.08417e-05
9.08227e-05
9.08018e-05
9.07792e-05
9.0755e-05
9.07293e-05
9.07025e-05
9.06746e-05
9.06459e-05
9.06166e-05
9.05867e-05
9.05566e-05
9.05263e-05
9.04961e-05
9.04659e-05
9.04361e-05
9.04068e-05
9.03779e-05
9.03498e-05
9.03225e-05
9.02961e-05
9.02707e-05
9.02465e-05
9.02235e-05
9.02021e-05
9.01821e-05
9.0164e-05
9.01477e-05
9.01335e-05
9.01216e-05
9.01122e-05
9.01055e-05
9.01017e-05
0.00093966
0.000835619
0.000745697
0.000667727
0.000599902
0.000540715
0.000488905
0.000443416
0.00040336
0.000367989
0.000336672
0.000308877
0.000284151
0.000262113
0.000242437
0.000224845
0.000209104
0.000195009
0.00018239
0.000171097
0.000161
0.000151988
0.00014396
0.000136827
0.000130509
0.000124932
0.000120027
0.000115729
0.00011198
0.000108723
0.000105905
0.000103477
0.000101394
9.96144e-05
9.81001e-05
9.68171e-05
9.57347e-05
9.48257e-05
9.40659e-05
9.34341e-05
9.29116e-05
9.24822e-05
9.21317e-05
9.18479e-05
9.162e-05
9.1439e-05
9.12969e-05
9.11869e-05
9.11032e-05
9.10408e-05
9.09955e-05
9.09635e-05
9.0942e-05
9.09282e-05
9.09201e-05
9.09158e-05
9.09139e-05
9.09131e-05
9.09125e-05
9.09114e-05
9.09092e-05
9.09053e-05
9.08996e-05
9.08917e-05
9.08816e-05
9.08693e-05
9.08548e-05
9.0838e-05
9.08192e-05
9.07985e-05
9.07761e-05
9.0752e-05
9.07265e-05
9.06999e-05
9.06722e-05
9.06436e-05
9.06144e-05
9.05848e-05
9.05548e-05
9.05247e-05
9.04946e-05
9.04646e-05
9.0435e-05
9.04058e-05
9.03771e-05
9.03492e-05
9.0322e-05
9.02958e-05
9.02706e-05
9.02466e-05
9.02238e-05
9.02025e-05
9.01828e-05
9.01647e-05
9.01486e-05
9.01345e-05
9.01227e-05
9.01134e-05
9.01067e-05
9.0103e-05
0.000939661
0.000835622
0.000745704
0.000667738
0.000599917
0.000540735
0.000488931
0.000443448
0.000403398
0.000368032
0.000336721
0.000308931
0.00028421
0.000262176
0.000242504
0.000224916
0.000209177
0.000195085
0.000182466
0.000171173
0.000161076
0.000152062
0.000144032
0.000136896
0.000130574
0.000124993
0.000120082
0.00011578
0.000112025
0.000108763
0.000105939
0.000103506
0.000101418
9.96337e-05
9.81152e-05
9.68283e-05
9.57426e-05
9.48305e-05
9.40682e-05
9.34341e-05
9.29098e-05
9.24788e-05
9.21271e-05
9.18422e-05
9.16136e-05
9.1432e-05
9.12895e-05
9.11792e-05
9.10953e-05
9.10329e-05
9.09875e-05
9.09556e-05
9.09342e-05
9.09206e-05
9.09127e-05
9.09086e-05
9.09069e-05
9.09064e-05
9.09061e-05
9.09053e-05
9.09032e-05
9.08996e-05
9.08941e-05
9.08865e-05
9.08767e-05
9.08646e-05
9.08502e-05
9.08337e-05
9.08151e-05
9.07946e-05
9.07724e-05
9.07485e-05
9.07232e-05
9.06967e-05
9.06692e-05
9.06408e-05
9.06118e-05
9.05823e-05
9.05525e-05
9.05226e-05
9.04927e-05
9.04629e-05
9.04335e-05
9.04045e-05
9.0376e-05
9.03483e-05
9.03213e-05
9.02953e-05
9.02703e-05
9.02464e-05
9.02239e-05
9.02028e-05
9.01832e-05
9.01653e-05
9.01493e-05
9.01354e-05
9.01237e-05
9.01144e-05
9.01078e-05
9.0104e-05
0.000939662
0.000835625
0.000745711
0.000667748
0.000599932
0.000540755
0.000488957
0.000443479
0.000403434
0.000368075
0.000336769
0.000308984
0.000284269
0.000262239
0.000242571
0.000224986
0.00020925
0.00019516
0.000182543
0.00017125
0.000161153
0.000152137
0.000144105
0.000136966
0.00013064
0.000125054
0.000120139
0.000115831
0.000112071
0.000108803
0.000105974
0.000103535
0.000101442
9.9653e-05
9.81301e-05
9.68393e-05
9.575e-05
9.4835e-05
9.40699e-05
9.34336e-05
9.29073e-05
9.24748e-05
9.21217e-05
9.18358e-05
9.16063e-05
9.14241e-05
9.12811e-05
9.11705e-05
9.10865e-05
9.10239e-05
9.09786e-05
9.09468e-05
9.09255e-05
9.09121e-05
9.09044e-05
9.09006e-05
9.08991e-05
9.08989e-05
9.08989e-05
9.08983e-05
9.08966e-05
9.08932e-05
9.0888e-05
9.08806e-05
9.0871e-05
9.08592e-05
9.08451e-05
9.08288e-05
9.08104e-05
9.07901e-05
9.07681e-05
9.07444e-05
9.07193e-05
9.0693e-05
9.06657e-05
9.06376e-05
9.06087e-05
9.05795e-05
9.05499e-05
9.05201e-05
9.04904e-05
9.04609e-05
9.04316e-05
9.04028e-05
9.03746e-05
9.0347e-05
9.03203e-05
9.02945e-05
9.02697e-05
9.02461e-05
9.02237e-05
9.02028e-05
9.01834e-05
9.01657e-05
9.01498e-05
9.0136e-05
9.01245e-05
9.01153e-05
9.01087e-05
9.01049e-05
0.000939663
0.000835629
0.000745717
0.000667758
0.000599946
0.000540774
0.000488981
0.000443509
0.00040347
0.000368116
0.000336816
0.000309037
0.000284326
0.000262301
0.000242637
0.000225056
0.000209323
0.000195235
0.000182619
0.000171327
0.000161229
0.000152213
0.000144178
0.000137036
0.000130707
0.000125116
0.000120196
0.000115883
0.000112117
0.000108843
0.000106008
0.000103564
0.000101466
9.96721e-05
9.81448e-05
9.685e-05
9.57571e-05
9.48389e-05
9.40711e-05
9.34325e-05
9.29042e-05
9.247e-05
9.21156e-05
9.18286e-05
9.15983e-05
9.14154e-05
9.12719e-05
9.1161e-05
9.10768e-05
9.10142e-05
9.09688e-05
9.09372e-05
9.0916e-05
9.09028e-05
9.08953e-05
9.08917e-05
9.08905e-05
9.08906e-05
9.08909e-05
9.08906e-05
9.08891e-05
9.08861e-05
9.08811e-05
9.0874e-05
9.08647e-05
9.08531e-05
9.08393e-05
9.08232e-05
9.08051e-05
9.07851e-05
9.07632e-05
9.07398e-05
9.07149e-05
9.06889e-05
9.06618e-05
9.06338e-05
9.06052e-05
9.05761e-05
9.05468e-05
9.05172e-05
9.04878e-05
9.04584e-05
9.04294e-05
9.04008e-05
9.03728e-05
9.03455e-05
9.0319e-05
9.02934e-05
9.02688e-05
9.02454e-05
9.02233e-05
9.02026e-05
9.01834e-05
9.01659e-05
9.01502e-05
9.01365e-05
9.0125e-05
9.01159e-05
9.01094e-05
9.01057e-05
0.000939664
0.000835631
0.000745722
0.000667767
0.00059996
0.000540793
0.000489005
0.000443538
0.000403505
0.000368156
0.000336862
0.000309088
0.000284383
0.000262363
0.000242703
0.000225126
0.000209395
0.000195309
0.000182695
0.000171404
0.000161305
0.000152288
0.000144251
0.000137106
0.000130773
0.000125177
0.000120252
0.000115934
0.000112163
0.000108883
0.000106043
0.000103593
0.00010149
9.9691e-05
9.81592e-05
9.68603e-05
9.57638e-05
9.48424e-05
9.40718e-05
9.34307e-05
9.29005e-05
9.24645e-05
9.21087e-05
9.18206e-05
9.15894e-05
9.14059e-05
9.1262e-05
9.11507e-05
9.10663e-05
9.10036e-05
9.09583e-05
9.09267e-05
9.09057e-05
9.08926e-05
9.08854e-05
9.08821e-05
9.08812e-05
9.08815e-05
9.08821e-05
9.08821e-05
9.0881e-05
9.08782e-05
9.08736e-05
9.08668e-05
9.08578e-05
9.08465e-05
9.08329e-05
9.08171e-05
9.07993e-05
9.07794e-05
9.07579e-05
9.07347e-05
9.071e-05
9.06842e-05
9.06573e-05
9.06296e-05
9.06012e-05
9.05724e-05
9.05432e-05
9.0514e-05
9.04847e-05
9.04556e-05
9.04268e-05
9.03985e-05
9.03707e-05
9.03437e-05
9.03174e-05
9.0292e-05
9.02677e-05
9.02445e-05
9.02226e-05
9.02021e-05
9.01831e-05
9.01658e-05
9.01503e-05
9.01368e-05
9.01254e-05
9.01164e-05
9.011e-05
9.01062e-05
0.000939664
0.000835634
0.000745728
0.000667776
0.000599973
0.00054081
0.000489027
0.000443566
0.000403538
0.000368195
0.000336906
0.000309138
0.000284438
0.000262422
0.000242767
0.000225193
0.000209466
0.000195383
0.00018277
0.000171479
0.000161381
0.000152362
0.000144323
0.000137175
0.000130838
0.000125239
0.000120309
0.000115985
0.000112208
0.000108923
0.000106077
0.000103622
0.000101513
9.97095e-05
9.81732e-05
9.68702e-05
9.577e-05
9.48454e-05
9.4072e-05
9.34285e-05
9.28961e-05
9.24585e-05
9.21013e-05
9.1812e-05
9.15799e-05
9.13957e-05
9.12512e-05
9.11397e-05
9.1055e-05
9.09922e-05
9.09469e-05
9.09154e-05
9.08946e-05
9.08817e-05
9.08747e-05
9.08717e-05
9.08711e-05
9.08717e-05
9.08726e-05
9.0873e-05
9.08721e-05
9.08697e-05
9.08654e-05
9.08589e-05
9.08502e-05
9.08392e-05
9.08259e-05
9.08104e-05
9.07928e-05
9.07733e-05
9.0752e-05
9.0729e-05
9.07047e-05
9.06791e-05
9.06524e-05
9.0625e-05
9.05968e-05
9.05682e-05
9.05393e-05
9.05103e-05
9.04813e-05
9.04524e-05
9.04239e-05
9.03958e-05
9.03683e-05
9.03415e-05
9.03155e-05
9.02904e-05
9.02663e-05
9.02434e-05
9.02217e-05
9.02014e-05
9.01826e-05
9.01655e-05
9.01502e-05
9.01368e-05
9.01255e-05
9.01167e-05
9.01103e-05
9.01065e-05
0.000939665
0.000835637
0.000745733
0.000667785
0.000599985
0.000540827
0.000489049
0.000443593
0.00040357
0.000368233
0.00033695
0.000309186
0.000284491
0.000262481
0.000242829
0.00022526
0.000209536
0.000195455
0.000182844
0.000171554
0.000161455
0.000152435
0.000144394
0.000137244
0.000130903
0.000125299
0.000120364
0.000116035
0.000112253
0.000108962
0.00010611
0.00010365
0.000101536
9.97276e-05
9.81868e-05
9.68797e-05
9.57758e-05
9.48479e-05
9.40716e-05
9.34257e-05
9.28913e-05
9.24519e-05
9.20932e-05
9.18028e-05
9.15698e-05
9.13848e-05
9.12399e-05
9.1128e-05
9.10431e-05
9.09802e-05
9.09349e-05
9.09035e-05
9.08828e-05
9.08701e-05
9.08634e-05
9.08606e-05
9.08603e-05
9.08613e-05
9.08625e-05
9.08632e-05
9.08627e-05
9.08606e-05
9.08566e-05
9.08505e-05
9.08421e-05
9.08313e-05
9.08184e-05
9.08032e-05
9.07859e-05
9.07666e-05
9.07456e-05
9.07229e-05
9.06988e-05
9.06735e-05
9.06471e-05
9.06199e-05
9.0592e-05
9.05637e-05
9.0535e-05
9.05062e-05
9.04775e-05
9.04489e-05
9.04207e-05
9.03928e-05
9.03656e-05
9.0339e-05
9.03133e-05
9.02884e-05
9.02646e-05
9.02419e-05
9.02205e-05
9.02005e-05
9.01819e-05
9.01649e-05
9.01498e-05
9.01366e-05
9.01255e-05
9.01167e-05
9.01103e-05
9.01067e-05
0.000939666
0.000835639
0.000745738
0.000667793
0.000599997
0.000540843
0.00048907
0.000443619
0.000403601
0.000368269
0.000336991
0.000309233
0.000284543
0.000262537
0.00024289
0.000225325
0.000209604
0.000195525
0.000182916
0.000171627
0.000161528
0.000152507
0.000144464
0.000137311
0.000130967
0.000125359
0.000120419
0.000116085
0.000112297
0.000109001
0.000106144
0.000103678
0.000101559
9.97452e-05
9.81999e-05
9.68887e-05
9.57812e-05
9.485e-05
9.40708e-05
9.34224e-05
9.28859e-05
9.24447e-05
9.20846e-05
9.1793e-05
9.1559e-05
9.13734e-05
9.12279e-05
9.11156e-05
9.10306e-05
9.09676e-05
9.09222e-05
9.08909e-05
9.08703e-05
9.08579e-05
9.08514e-05
9.08489e-05
9.0849e-05
9.08502e-05
9.08518e-05
9.08528e-05
9.08527e-05
9.08509e-05
9.08473e-05
9.08415e-05
9.08334e-05
9.0823e-05
9.08103e-05
9.07954e-05
9.07784e-05
9.07595e-05
9.07387e-05
9.07163e-05
9.06925e-05
9.06674e-05
9.06413e-05
9.06144e-05
9.05868e-05
9.05587e-05
9.05304e-05
9.05018e-05
9.04734e-05
9.04451e-05
9.04171e-05
9.03895e-05
9.03626e-05
9.03363e-05
9.03108e-05
9.02862e-05
9.02627e-05
9.02403e-05
9.02191e-05
9.01992e-05
9.01809e-05
9.01642e-05
9.01492e-05
9.01361e-05
9.01252e-05
9.01165e-05
9.01102e-05
9.01065e-05
0.000939666
0.000835642
0.000745743
0.000667801
0.000600009
0.000540859
0.00048909
0.000443643
0.000403631
0.000368304
0.000337032
0.000309279
0.000284593
0.000262592
0.00024295
0.000225388
0.00020967
0.000195594
0.000182986
0.000171698
0.000161599
0.000152577
0.000144533
0.000137377
0.000131029
0.000125417
0.000120473
0.000116134
0.000112341
0.000109038
0.000106176
0.000103705
0.000101581
9.97623e-05
9.82125e-05
9.68973e-05
9.5786e-05
9.48516e-05
9.40696e-05
9.34187e-05
9.288e-05
9.24371e-05
9.20755e-05
9.17827e-05
9.15478e-05
9.13614e-05
9.12154e-05
9.11028e-05
9.10175e-05
9.09544e-05
9.0909e-05
9.08778e-05
9.08574e-05
9.08452e-05
9.08389e-05
9.08367e-05
9.0837e-05
9.08387e-05
9.08405e-05
9.08419e-05
9.08421e-05
9.08407e-05
9.08374e-05
9.0832e-05
9.08242e-05
9.08142e-05
9.08018e-05
9.07872e-05
9.07706e-05
9.07519e-05
9.07314e-05
9.07093e-05
9.06858e-05
9.0661e-05
9.06352e-05
9.06086e-05
9.05812e-05
9.05534e-05
9.05253e-05
9.04971e-05
9.04689e-05
9.04409e-05
9.04132e-05
9.03859e-05
9.03592e-05
9.03332e-05
9.0308e-05
9.02837e-05
9.02605e-05
9.02383e-05
9.02174e-05
9.01978e-05
9.01797e-05
9.01632e-05
9.01484e-05
9.01355e-05
9.01246e-05
9.0116e-05
9.01099e-05
9.01062e-05
0.000939667
0.000835644
0.000745748
0.000667808
0.00060002
0.000540874
0.000489109
0.000443667
0.00040366
0.000368338
0.00033707
0.000309322
0.000284642
0.000262646
0.000243007
0.000225449
0.000209734
0.00019566
0.000183055
0.000171767
0.000161668
0.000152646
0.0001446
0.000137441
0.00013109
0.000125474
0.000120525
0.000116181
0.000112383
0.000109075
0.000106208
0.000103731
0.000101602
9.97789e-05
9.82246e-05
9.69053e-05
9.57905e-05
9.48527e-05
9.40679e-05
9.34145e-05
9.28738e-05
9.24291e-05
9.2066e-05
9.1772e-05
9.15361e-05
9.1349e-05
9.12025e-05
9.10894e-05
9.10039e-05
9.09407e-05
9.08954e-05
9.08642e-05
9.08439e-05
9.08319e-05
9.08259e-05
9.0824e-05
9.08246e-05
9.08266e-05
9.08288e-05
9.08305e-05
9.08311e-05
9.08301e-05
9.08271e-05
9.0822e-05
9.08146e-05
9.08049e-05
9.07929e-05
9.07786e-05
9.07623e-05
9.07439e-05
9.07238e-05
9.0702e-05
9.06787e-05
9.06543e-05
9.06287e-05
9.06024e-05
9.05753e-05
9.05478e-05
9.052e-05
9.04921e-05
9.04642e-05
9.04364e-05
9.0409e-05
9.0382e-05
9.03556e-05
9.03299e-05
9.0305e-05
9.0281e-05
9.0258e-05
9.02361e-05
9.02154e-05
9.01961e-05
9.01782e-05
9.01619e-05
9.01473e-05
9.01346e-05
9.01239e-05
9.01154e-05
9.01093e-05
9.01057e-05
0.000939668
0.000835646
0.000745752
0.000667815
0.00060003
0.000540888
0.000489127
0.00044369
0.000403687
0.00036837
0.000337108
0.000309364
0.000284689
0.000262697
0.000243062
0.000225508
0.000209796
0.000195725
0.000183121
0.000171834
0.000161736
0.000152712
0.000144665
0.000137504
0.00013115
0.00012553
0.000120577
0.000116228
0.000112424
0.000109112
0.000106238
0.000103757
0.000101623
9.97948e-05
9.82362e-05
9.69129e-05
9.57944e-05
9.48535e-05
9.40658e-05
9.341e-05
9.28671e-05
9.24207e-05
9.20561e-05
9.17609e-05
9.15241e-05
9.13362e-05
9.11891e-05
9.10757e-05
9.09899e-05
9.09266e-05
9.08813e-05
9.08502e-05
9.08301e-05
9.08182e-05
9.08125e-05
9.08109e-05
9.08118e-05
9.08141e-05
9.08167e-05
9.08188e-05
9.08197e-05
9.0819e-05
9.08164e-05
9.08117e-05
9.08046e-05
9.07953e-05
9.07836e-05
9.07697e-05
9.07537e-05
9.07356e-05
9.07158e-05
9.06943e-05
9.06714e-05
9.06472e-05
9.0622e-05
9.05959e-05
9.05691e-05
9.05419e-05
9.05144e-05
9.04868e-05
9.04591e-05
9.04317e-05
9.04046e-05
9.03779e-05
9.03518e-05
9.03264e-05
9.03017e-05
9.0278e-05
9.02553e-05
9.02337e-05
9.02133e-05
9.01942e-05
9.01765e-05
9.01604e-05
9.0146e-05
9.01335e-05
9.01229e-05
9.01145e-05
9.01085e-05
9.01049e-05
0.000939668
0.000835649
0.000745756
0.000667822
0.00060004
0.000540901
0.000489144
0.000443712
0.000403714
0.000368401
0.000337143
0.000309405
0.000284734
0.000262746
0.000243116
0.000225565
0.000209856
0.000195787
0.000183185
0.000171899
0.000161801
0.000152777
0.000144728
0.000137564
0.000131207
0.000125584
0.000120626
0.000116273
0.000112464
0.000109146
0.000106268
0.000103782
0.000101642
9.98101e-05
9.82472e-05
9.692e-05
9.5798e-05
9.48539e-05
9.40634e-05
9.34052e-05
9.28602e-05
9.2412e-05
9.2046e-05
9.17495e-05
9.15118e-05
9.13232e-05
9.11755e-05
9.10617e-05
9.09757e-05
9.09122e-05
9.08669e-05
9.08358e-05
9.08159e-05
9.08043e-05
9.07987e-05
9.07974e-05
9.07987e-05
9.08013e-05
9.08043e-05
9.08067e-05
9.0808e-05
9.08077e-05
9.08054e-05
9.0801e-05
9.07944e-05
9.07853e-05
9.0774e-05
9.07604e-05
9.07447e-05
9.0727e-05
9.07075e-05
9.06863e-05
9.06637e-05
9.06398e-05
9.06149e-05
9.05891e-05
9.05627e-05
9.05357e-05
9.05085e-05
9.04812e-05
9.04539e-05
9.04267e-05
9.03999e-05
9.03735e-05
9.03477e-05
9.03226e-05
9.02983e-05
9.02748e-05
9.02524e-05
9.0231e-05
9.02109e-05
9.0192e-05
9.01746e-05
9.01588e-05
9.01445e-05
9.01322e-05
9.01217e-05
9.01135e-05
9.01075e-05
9.01039e-05
0.000939669
0.000835651
0.00074576
0.000667829
0.000600049
0.000540914
0.000489161
0.000443732
0.000403739
0.000368431
0.000337177
0.000309444
0.000284777
0.000262794
0.000243167
0.000225619
0.000209914
0.000195847
0.000183247
0.000171962
0.000161864
0.000152839
0.000144788
0.000137623
0.000131263
0.000125636
0.000120674
0.000116316
0.000112503
0.00010918
0.000106297
0.000103805
0.000101662
9.98248e-05
9.82577e-05
9.69266e-05
9.58011e-05
9.48539e-05
9.40607e-05
9.34e-05
9.2853e-05
9.2403e-05
9.20356e-05
9.1738e-05
9.14993e-05
9.13099e-05
9.11617e-05
9.10475e-05
9.09612e-05
9.08976e-05
9.08522e-05
9.08213e-05
9.08014e-05
9.079e-05
9.07848e-05
9.07837e-05
9.07853e-05
9.07883e-05
9.07915e-05
9.07943e-05
9.0796e-05
9.0796e-05
9.07942e-05
9.07901e-05
9.07838e-05
9.07751e-05
9.07641e-05