/*--------------------------------*- C++ -*----------------------------------*\
  =========                 |
  \\      /  F ield         | OpenFOAM: The Open Source CFD Toolbox
   \\    /   O peration     | Website:  https://openfoam.org
    \\  /    A nd           | Version:  11
     \\/     M anipulation  |
\*---------------------------------------------------------------------------*/
FoamFile
{
    format      ascii;
    class       volVectorField;
    location    "116";
    object      U;
}
// * * * * * * * * * * * * * * * * * * * * * * * * * * * * * * * * * * * * * //

dimensions      [0 1 -1 0 0 0 0];

internalField   nonuniform List<vector> 
10000
(
(0.00499854 -4.26684e-05 0)
(0.0049922 -0.000122636 0)
(0.00498376 -0.000201403 0)
(0.00497324 -0.000280812 0)
(0.00496079 -0.000361772 0)
(0.00494638 -0.000444826 0)
(0.00492993 -0.000530328 0)
(0.00491136 -0.000618503 0)
(0.00489059 -0.000709478 0)
(0.00486751 -0.000803302 0)
(0.00484202 -0.000899946 0)
(0.00481404 -0.000999309 0)
(0.00478347 -0.00110121 0)
(0.00475022 -0.0012054 0)
(0.00471424 -0.00131152 0)
(0.00467546 -0.00141916 0)
(0.00463386 -0.00152778 0)
(0.00458943 -0.00163678 0)
(0.0045422 -0.00174546 0)
(0.00449223 -0.00185308 0)
(0.00443962 -0.00195881 0)
(0.00438451 -0.00206182 0)
(0.00432707 -0.00216125 0)
(0.00426751 -0.00225631 0)
(0.0042061 -0.00234625 0)
(0.00414308 -0.00243042 0)
(0.00407876 -0.0025083 0)
(0.00401342 -0.00257952 0)
(0.00394734 -0.00264382 0)
(0.00388081 -0.00270112 0)
(0.00381409 -0.00275143 0)
(0.00374743 -0.00279492 0)
(0.00368105 -0.00283179 0)
(0.00361519 -0.00286242 0)
(0.00355043 -0.00288732 0)
(0.00348525 -0.002907 0)
(0.0034197 -0.00292119 0)
(0.00335436 -0.00293035 0)
(0.00328903 -0.00293486 0)
(0.0032243 -0.0029349 0)
(0.00316113 -0.00293089 0)
(0.00309941 -0.00292331 0)
(0.00303873 -0.00291233 0)
(0.00297942 -0.00289811 0)
(0.00292153 -0.00288107 0)
(0.00286429 -0.0028615 0)
(0.00280764 -0.00283947 0)
(0.0027517 -0.00281507 0)
(0.00269651 -0.00278842 0)
(0.00264207 -0.00275964 0)
(0.00258842 -0.00272883 0)
(0.00253556 -0.00269612 0)
(0.0024835 -0.0026616 0)
(0.00243225 -0.00262538 0)
(0.00238183 -0.00258754 0)
(0.00233224 -0.00254818 0)
(0.0022835 -0.00250739 0)
(0.00223562 -0.00246525 0)
(0.00218861 -0.00242186 0)
(0.00214249 -0.00237729 0)
(0.00209726 -0.00233164 0)
(0.00205295 -0.00228499 0)
(0.00200957 -0.00223743 0)
(0.00196713 -0.00218905 0)
(0.00192565 -0.00213993 0)
(0.00188514 -0.00209017 0)
(0.00184562 -0.00203984 0)
(0.00180709 -0.00198905 0)
(0.00176956 -0.00193788 0)
(0.00173306 -0.00188643 0)
(0.00169758 -0.00183477 0)
(0.00166314 -0.00178301 0)
(0.00162974 -0.00173124 0)
(0.0015974 -0.00167954 0)
(0.00156612 -0.00162801 0)
(0.0015359 -0.00157674 0)
(0.00150675 -0.00152583 0)
(0.00147867 -0.00147537 0)
(0.00145167 -0.00142545 0)
(0.00142575 -0.00137617 0)
(0.00140091 -0.00132762 0)
(0.00137715 -0.00127991 0)
(0.00135448 -0.00123314 0)
(0.00133289 -0.00118742 0)
(0.00131239 -0.00114284 0)
(0.00129297 -0.00109952 0)
(0.00127464 -0.00105759 0)
(0.0012574 -0.00101715 0)
(0.00124126 -0.000978351 0)
(0.00122621 -0.000941317 0)
(0.00121227 -0.000906202 0)
(0.00119944 -0.000873166 0)
(0.00118774 -0.000842384 0)
(0.00117718 -0.000814053 0)
(0.00116779 -0.000788395 0)
(0.00115958 -0.000765666 0)
(0.00115261 -0.000746172 0)
(0.00114691 -0.000730285 0)
(0.00114245 -0.000718594 0)
(0.00113923 -0.000712283 0)
(0.00499943 -3.85067e-05 0)
(0.0049936 -0.000114666 0)
(0.00498543 -0.000190981 0)
(0.00497491 -0.000268186 0)
(0.00496241 -0.000346972 0)
(0.00494796 -0.000427806 0)
(0.00493147 -0.000511005 0)
(0.00491287 -0.000596777 0)
(0.00489208 -0.00068524 0)
(0.00486899 -0.000776437 0)
(0.0048435 -0.000870343 0)
(0.00481552 -0.000966858 0)
(0.00478496 -0.00106581 0)
(0.00475174 -0.00116696 0)
(0.00471578 -0.00126997 0)
(0.00467704 -0.00137445 0)
(0.00463548 -0.00147988 0)
(0.00459111 -0.0015857 0)
(0.00454395 -0.00169126 0)
(0.00449405 -0.00179584 0)
(0.00444152 -0.00189866 0)
(0.0043865 -0.00199894 0)
(0.00432916 -0.00209587 0)
(0.00426971 -0.00218868 0)
(0.0042084 -0.00227667 0)
(0.00414549 -0.00235921 0)
(0.00408127 -0.00243579 0)
(0.00401601 -0.00250602 0)
(0.00395 -0.00256967 0)
(0.00388351 -0.00262662 0)
(0.00381678 -0.00267687 0)
(0.00375003 -0.00272054 0)
(0.00368343 -0.00275783 0)
(0.0036171 -0.00278898 0)
(0.00355116 -0.00281411 0)
(0.00348517 -0.00283331 0)
(0.0034198 -0.00284724 0)
(0.0033552 -0.00285639 0)
(0.0032914 -0.0028613 0)
(0.00322836 -0.00286255 0)
(0.00316608 -0.00286022 0)
(0.00310457 -0.00285431 0)
(0.00304384 -0.00284501 0)
(0.00298396 -0.00283249 0)
(0.00292523 -0.00281678 0)
(0.00286747 -0.00279818 0)
(0.00281056 -0.00277702 0)
(0.00275447 -0.00275349 0)
(0.00269917 -0.00272771 0)
(0.00264466 -0.0026998 0)
(0.00259094 -0.0026699 0)
(0.00253803 -0.00263809 0)
(0.00248592 -0.00260448 0)
(0.00243463 -0.00256918 0)
(0.00238417 -0.00253228 0)
(0.00233455 -0.00249386 0)
(0.00228578 -0.00245403 0)
(0.00223787 -0.00241286 0)
(0.00219083 -0.00237045 0)
(0.00214469 -0.00232688 0)
(0.00209944 -0.00228225 0)
(0.00205512 -0.00223663 0)
(0.00201172 -0.00219011 0)
(0.00196927 -0.00214278 0)
(0.00192777 -0.00209474 0)
(0.00188725 -0.00204606 0)
(0.00184771 -0.00199683 0)
(0.00180917 -0.00194716 0)
(0.00177164 -0.00189711 0)
(0.00173513 -0.00184679 0)
(0.00169965 -0.00179628 0)
(0.0016652 -0.00174567 0)
(0.0016318 -0.00169506 0)
(0.00159945 -0.00164453 0)
(0.00156817 -0.00159417 0)
(0.00153795 -0.00154409 0)
(0.00150879 -0.00149436 0)
(0.00148072 -0.00144508 0)
(0.00145371 -0.00139635 0)
(0.00142779 -0.00134826 0)
(0.00140295 -0.00130091 0)
(0.00137918 -0.0012544 0)
(0.00135651 -0.00120882 0)
(0.00133491 -0.00116429 0)
(0.0013144 -0.00112091 0)
(0.00129497 -0.00107879 0)
(0.00127663 -0.00103805 0)
(0.00125938 -0.000998819 0)
(0.00124322 -0.000961221 0)
(0.00122815 -0.000925399 0)
(0.00121419 -0.000891502 0)
(0.00120133 -0.000859694 0)
(0.00118958 -0.000830155 0)
(0.00117896 -0.000803086 0)
(0.00116949 -0.000778713 0)
(0.00116117 -0.0007573 0)
(0.00115405 -0.000739156 0)
(0.00114809 -0.000724659 0)
(0.00114309 -0.00071435 0)
(0.00113877 -0.000709174 0)
(0.00499977 -3.51753e-05 0)
(0.00499491 -0.000107306 0)
(0.00498735 -0.000180829 0)
(0.00497714 -0.000255703 0)
(0.00496478 -0.000332286 0)
(0.00495039 -0.000410918 0)
(0.00493393 -0.000491857 0)
(0.00491534 -0.000575283 0)
(0.00489455 -0.000661302 0)
(0.00487147 -0.000749953 0)
(0.004846 -0.000841208 0)
(0.00481805 -0.000934974 0)
(0.00478753 -0.00103109 0)
(0.00475437 -0.00112932 0)
(0.00471849 -0.00122935 0)
(0.00467984 -0.00133079 0)
(0.0046384 -0.00143319 0)
(0.00459417 -0.00153599 0)
(0.00454717 -0.00163857 0)
(0.00449746 -0.00174026 0)
(0.00444515 -0.00184032 0)
(0.00439036 -0.001938 0)
(0.00433327 -0.00203255 0)
(0.00427408 -0.00212322 0)
(0.00421304 -0.00220934 0)
(0.00415039 -0.0022903 0)
(0.00408642 -0.0023656 0)
(0.00402138 -0.00243486 0)
(0.00395556 -0.00249783 0)
(0.0038892 -0.00255435 0)
(0.00382255 -0.00260443 0)
(0.0037558 -0.00264813 0)
(0.00368911 -0.00268561 0)
(0.0036226 -0.00271704 0)
(0.00355643 -0.00274262 0)
(0.00349068 -0.00276269 0)
(0.00342556 -0.00277773 0)
(0.00336114 -0.00278807 0)
(0.00329747 -0.00279403 0)
(0.00323455 -0.00279597 0)
(0.00317235 -0.00279413 0)
(0.00311093 -0.00278871 0)
(0.0030503 -0.00277997 0)
(0.00299048 -0.00276814 0)
(0.00293154 -0.00275334 0)
(0.00287349 -0.0027357 0)
(0.00281632 -0.00271546 0)
(0.00276001 -0.0026928 0)
(0.00270452 -0.00266789 0)
(0.00264985 -0.00264086 0)
(0.002596 -0.00261182 0)
(0.00254296 -0.00258088 0)
(0.00249074 -0.00254816 0)
(0.00243936 -0.00251375 0)
(0.0023888 -0.00247775 0)
(0.00233909 -0.00244026 0)
(0.00229024 -0.00240135 0)
(0.00224226 -0.00236113 0)
(0.00219516 -0.00231968 0)
(0.00214896 -0.00227708 0)
(0.00210366 -0.00223343 0)
(0.00205928 -0.00218882 0)
(0.00201584 -0.00214332 0)
(0.00197335 -0.00209703 0)
(0.00193182 -0.00205003 0)
(0.00189126 -0.00200242 0)
(0.0018517 -0.00195427 0)
(0.00181313 -0.00190568 0)
(0.00177557 -0.00185674 0)
(0.00173904 -0.00180753 0)
(0.00170354 -0.00175815 0)
(0.00166908 -0.00170867 0)
(0.00163566 -0.0016592 0)
(0.0016033 -0.00160982 0)
(0.001572 -0.00156062 0)
(0.00154177 -0.0015117 0)
(0.00151261 -0.00146314 0)
(0.00148452 -0.00141503 0)
(0.00145751 -0.00136747 0)
(0.00143157 -0.00132056 0)
(0.00140672 -0.00127439 0)
(0.00138295 -0.00122905 0)
(0.00136025 -0.00118466 0)
(0.00133864 -0.00114131 0)
(0.00131811 -0.00109911 0)
(0.00129867 -0.00105817 0)
(0.0012803 -0.00101862 0)
(0.00126302 -0.00098057 0)
(0.00124681 -0.000944161 0)
(0.0012317 -0.000909532 0)
(0.00121767 -0.000876833 0)
(0.00120473 -0.000846232 0)
(0.00119288 -0.000817908 0)
(0.00118212 -0.000792064 0)
(0.00117247 -0.000768928 0)
(0.00116391 -0.000748761 0)
(0.00115645 -0.000731861 0)
(0.00114999 -0.000718575 0)
(0.00114414 -0.000709345 0)
(0.00113856 -0.000704628 0)
(0.00499982 -3.28983e-05 0)
(0.00499581 -0.000101415 0)
(0.00498892 -0.00017211 0)
(0.00497921 -0.000244611 0)
(0.0049672 -0.000319024 0)
(0.00495302 -0.00039555 0)
(0.0049367 -0.00047437 0)
(0.00491822 -0.000555623 0)
(0.0048975 -0.000639392 0)
(0.00487449 -0.000725706 0)
(0.00484909 -0.000814534 0)
(0.00482122 -0.000905785 0)
(0.00479079 -0.000999303 0)
(0.00475773 -0.00109486 0)
(0.00472198 -0.00119217 0)
(0.00468349 -0.00129086 0)
(0.00464224 -0.00139048 0)
(0.00459823 -0.00149052 0)
(0.00455148 -0.00159039 0)
(0.00450206 -0.00168944 0)
(0.00445006 -0.00178698 0)
(0.00439562 -0.0018823 0)
(0.0043389 -0.00197466 0)
(0.0042801 -0.00206336 0)
(0.00421945 -0.00214775 0)
(0.00415719 -0.00222724 0)
(0.00409357 -0.00230134 0)
(0.00402888 -0.00236966 0)
(0.00396335 -0.00243194 0)
(0.00389724 -0.00248803 0)
(0.00383078 -0.00253787 0)
(0.00376416 -0.00258152 0)
(0.00369754 -0.0026191 0)
(0.0036311 -0.00265076 0)
(0.00356498 -0.00267671 0)
(0.00349934 -0.00269729 0)
(0.00343432 -0.00271291 0)
(0.00336996 -0.0027239 0)
(0.00330631 -0.00273058 0)
(0.0032434 -0.00273326 0)
(0.00318121 -0.0027322 0)
(0.00311976 -0.0027276 0)
(0.0030591 -0.00271971 0)
(0.00299921 -0.00270872 0)
(0.00294013 -0.00269477 0)
(0.00288188 -0.00267801 0)
(0.0028245 -0.00265864 0)
(0.00276797 -0.00263683 0)
(0.00271228 -0.00261275 0)
(0.00265742 -0.00258653 0)
(0.0026034 -0.00255831 0)
(0.0025502 -0.0025282 0)
(0.00249783 -0.00249631 0)
(0.0024463 -0.00246274 0)
(0.00239562 -0.00242758 0)
(0.0023458 -0.00239094 0)
(0.00229684 -0.0023529 0)
(0.00224876 -0.00231355 0)
(0.00220156 -0.00227299 0)
(0.00215527 -0.0022313 0)
(0.0021099 -0.00218857 0)
(0.00206545 -0.00214488 0)
(0.00202194 -0.00210033 0)
(0.00197939 -0.00205499 0)
(0.00193781 -0.00200897 0)
(0.0018972 -0.00196234 0)
(0.00185759 -0.00191519 0)
(0.00181899 -0.0018676 0)
(0.0017814 -0.00181968 0)
(0.00174483 -0.0017715 0)
(0.0017093 -0.00172315 0)
(0.00167481 -0.00167472 0)
(0.00164137 -0.0016263 0)
(0.00160899 -0.00157798 0)
(0.00157767 -0.00152985 0)
(0.00154742 -0.00148199 0)
(0.00151824 -0.0014345 0)
(0.00149013 -0.00138747 0)
(0.0014631 -0.00134099 0)
(0.00143715 -0.00129515 0)
(0.00141227 -0.00125006 0)
(0.00138848 -0.0012058 0)
(0.00136576 -0.00116249 0)
(0.00134412 -0.00112022 0)
(0.00132356 -0.0010791 0)
(0.00130407 -0.00103924 0)
(0.00128566 -0.00100077 0)
(0.00126832 -0.000963798 0)
(0.00125206 -0.000928467 0)
(0.00123686 -0.000894916 0)
(0.00122273 -0.000863296 0)
(0.00120966 -0.000833773 0)
(0.00119765 -0.000806526 0)
(0.00118669 -0.000781755 0)
(0.00117677 -0.000759682 0)
(0.00116786 -0.000740553 0)
(0.00115994 -0.000724643 0)
(0.00115286 -0.000712241 0)
(0.00114604 -0.000703669 0)
(0.0011395 -0.000699137 0)
(0.00499984 -3.10586e-05 0)
(0.00499643 -9.62576e-05 0)
(0.00499014 -0.000164085 0)
(0.004981 -0.000234078 0)
(0.00496943 -0.000306196 0)
(0.0049556 -0.000380524 0)
(0.00493954 -0.000457167 0)
(0.00492126 -0.000536212 0)
(0.00490072 -0.000617718 0)
(0.00487785 -0.000701695 0)
(0.00485259 -0.000788108 0)
(0.00482486 -0.000876864 0)
(0.00479458 -0.000967812 0)
(0.0047617 -0.00106074 0)
(0.00472615 -0.00115536 0)
(0.00468789 -0.00125133 0)
(0.00464689 -0.00134822 0)
(0.00460317 -0.00144554 0)
(0.00455676 -0.00154273 0)
(0.00450771 -0.00163919 0)
(0.00445611 -0.00173425 0)
(0.00440211 -0.00182723 0)
(0.00434585 -0.00191743 0)
(0.00428752 -0.00200419 0)
(0.00422734 -0.00208685 0)
(0.00416555 -0.00216487 0)
(0.00410239 -0.00223774 0)
(0.00403812 -0.00230509 0)
(0.00397298 -0.00236665 0)
(0.00390721 -0.00242224 0)
(0.00384103 -0.0024718 0)
(0.00377464 -0.00251535 0)
(0.00370822 -0.002553 0)
(0.00364194 -0.00258489 0)
(0.00357596 -0.00261124 0)
(0.00351044 -0.00263235 0)
(0.00344548 -0.00264856 0)
(0.00338115 -0.0026602 0)
(0.00331749 -0.00266757 0)
(0.00325453 -0.00267097 0)
(0.00319228 -0.00267064 0)
(0.00313077 -0.00266682 0)
(0.00307001 -0.0026597 0)
(0.00301001 -0.00264949 0)
(0.00295079 -0.00263635 0)
(0.00289238 -0.00262042 0)
(0.0028348 -0.00260189 0)
(0.00277807 -0.00258092 0)
(0.00272217 -0.00255768 0)
(0.00266711 -0.0025323 0)
(0.0026129 -0.00250491 0)
(0.00255952 -0.00247563 0)
(0.00250698 -0.00244458 0)
(0.00245529 -0.00241185 0)
(0.00240446 -0.00237754 0)
(0.00235449 -0.00234176 0)
(0.0023054 -0.00230459 0)
(0.0022572 -0.00226613 0)
(0.00220989 -0.00222646 0)
(0.0021635 -0.00218568 0)
(0.00211803 -0.00214387 0)
(0.00207349 -0.00210112 0)
(0.00202991 -0.00205751 0)
(0.00198728 -0.00201313 0)
(0.00194563 -0.00196808 0)
(0.00190497 -0.00192243 0)
(0.0018653 -0.00187628 0)
(0.00182664 -0.0018297 0)
(0.001789 -0.00178279 0)
(0.0017524 -0.00173564 0)
(0.00171683 -0.00168832 0)
(0.0016823 -0.00164094 0)
(0.00164883 -0.00159357 0)
(0.00161642 -0.0015463 0)
(0.00158507 -0.00149922 0)
(0.00155479 -0.00145243 0)
(0.00152558 -0.00140601 0)
(0.00149744 -0.00136005 0)
(0.00147039 -0.00131464 0)
(0.0014444 -0.00126987 0)
(0.0014195 -0.00122585 0)
(0.00139567 -0.00118267 0)
(0.00137292 -0.00114042 0)
(0.00135124 -0.00109922 0)
(0.00133063 -0.00105917 0)
(0.00131108 -0.00102038 0)
(0.00129261 -0.000982964 0)
(0.00127519 -0.000947055 0)
(0.00125883 -0.00091278 0)
(0.00124352 -0.00088028 0)
(0.00122925 -0.000849706 0)
(0.00121601 -0.00082122 0)
(0.00120379 -0.000794999 0)
(0.00119257 -0.000771236 0)
(0.00118231 -0.00075014 0)
(0.00117298 -0.00073194 0)
(0.00116454 -0.000716879 0)
(0.0011568 -0.000705194 0)
(0.00114907 -0.000697121 0)
(0.00114168 -0.000692942 0)
(0.00499986 -2.94528e-05 0)
(0.00499686 -9.1584e-05 0)
(0.00499109 -0.000156589 0)
(0.0049825 -0.000224008 0)
(0.00497143 -0.000293731 0)
(0.00495802 -0.000365764 0)
(0.00494232 -0.000440148 0)
(0.00492433 -0.000516925 0)
(0.00490404 -0.000596123 0)
(0.0048814 -0.000677735 0)
(0.00485636 -0.000761715 0)
(0.00482885 -0.000847968 0)
(0.00479881 -0.000936346 0)
(0.00476617 -0.00102664 0)
(0.00473088 -0.00111859 0)
(0.00469292 -0.00121185 0)
(0.00465226 -0.00130603 0)
(0.0046089 -0.00140066 0)
(0.00456289 -0.00149521 0)
(0.00451428 -0.0015891 0)
(0.00446317 -0.0016817 0)
(0.00440966 -0.00177236 0)
(0.00435393 -0.00186041 0)
(0.00429615 -0.00194521 0)
(0.00423652 -0.00202615 0)
(0.00417527 -0.00210266 0)
(0.00411264 -0.00217429 0)
(0.00404885 -0.00224063 0)
(0.00398417 -0.00230142 0)
(0.00391881 -0.00235646 0)
(0.00385298 -0.00240569 0)
(0.0037869 -0.0024491 0)
(0.00372075 -0.00248678 0)
(0.0036547 -0.00251887 0)
(0.00358891 -0.00254558 0)
(0.00352352 -0.00256718 0)
(0.00345863 -0.00258396 0)
(0.00339432 -0.00259623 0)
(0.00333065 -0.00260428 0)
(0.00326764 -0.00260837 0)
(0.00320532 -0.00260875 0)
(0.00314371 -0.00260566 0)
(0.00308284 -0.00259929 0)
(0.00302271 -0.00258984 0)
(0.00296334 -0.00257748 0)
(0.00290477 -0.00256237 0)
(0.00284701 -0.00254466 0)
(0.00279007 -0.00252453 0)
(0.00273398 -0.00250213 0)
(0.00267871 -0.00247759 0)
(0.0026243 -0.00245104 0)
(0.00257072 -0.00242261 0)
(0.002518 -0.0023924 0)
(0.00246614 -0.00236053 0)
(0.00241514 -0.00232709 0)
(0.00236502 -0.00229218 0)
(0.00231578 -0.0022559 0)
(0.00226744 -0.00221834 0)
(0.00222001 -0.00217958 0)
(0.00217349 -0.00213971 0)
(0.00212791 -0.00209884 0)
(0.00208327 -0.00205703 0)
(0.00203959 -0.00201438 0)
(0.00199688 -0.00197098 0)
(0.00195515 -0.00192691 0)
(0.00191441 -0.00188225 0)
(0.00187468 -0.00183711 0)
(0.00183596 -0.00179155 0)
(0.00179826 -0.00174566 0)
(0.0017616 -0.00169954 0)
(0.00172598 -0.00165327 0)
(0.00169141 -0.00160694 0)
(0.0016579 -0.00156062 0)
(0.00162545 -0.00151442 0)
(0.00159406 -0.00146841 0)
(0.00156374 -0.00142269 0)
(0.00153449 -0.00137734 0)
(0.00150632 -0.00133245 0)
(0.00147923 -0.00128811 0)
(0.0014532 -0.00124443 0)
(0.00142826 -0.00120148 0)
(0.00140438 -0.00115937 0)
(0.00138158 -0.0011182 0)
(0.00135984 -0.00107806 0)
(0.00133917 -0.00103907 0)
(0.00131955 -0.00100134 0)
(0.00130099 -0.000964986 0)
(0.00128347 -0.000930126 0)
(0.00126699 -0.000896893 0)
(0.00125154 -0.000865426 0)
(0.0012371 -0.000835873 0)
(0.00122365 -0.000808391 0)
(0.00121118 -0.000783152 0)
(0.00119964 -0.00076034 0)
(0.00118901 -0.00074015 0)
(0.00117923 -0.000722791 0)
(0.00117024 -0.000708477 0)
(0.00116185 -0.000697412 0)
(0.00115331 -0.000689804 0)
(0.00114506 -0.000685951 0)
(0.00499988 -2.8025e-05 0)
(0.00499718 -8.73159e-05 0)
(0.00499183 -0.000149595 0)
(0.00498375 -0.000214446 0)
(0.00497319 -0.000281732 0)
(0.00496023 -0.000351411 0)
(0.00494494 -0.000423478 0)
(0.00492732 -0.000497941 0)
(0.00490737 -0.000574797 0)
(0.00488504 -0.000654022 0)
(0.0048603 -0.000735559 0)
(0.00483308 -0.00081931 0)
(0.00480334 -0.000905129 0)
(0.00477101 -0.000992815 0)
(0.00473607 -0.00108211 0)
(0.00469847 -0.0011727 0)
(0.00465821 -0.0012642 0)
(0.00461529 -0.00135617 0)
(0.00456975 -0.00144811 0)
(0.00452164 -0.00153947 0)
(0.00447106 -0.00162964 0)
(0.00441813 -0.001718 0)
(0.00436299 -0.00180392 0)
(0.0043058 -0.00188678 0)
(0.00424678 -0.00196598 0)
(0.00418613 -0.00204098 0)
(0.00412407 -0.00211133 0)
(0.00406084 -0.00217663 0)
(0.00399666 -0.0022366 0)
(0.00393177 -0.00229106 0)
(0.00386637 -0.0023399 0)
(0.00380066 -0.00238313 0)
(0.00373483 -0.00242079 0)
(0.00366904 -0.00245304 0)
(0.00360347 -0.00248006 0)
(0.00353823 -0.00250208 0)
(0.00347344 -0.00251938 0)
(0.00340918 -0.00253223 0)
(0.0033455 -0.0025409 0)
(0.00328245 -0.00254566 0)
(0.00322006 -0.00254673 0)
(0.00315836 -0.00254435 0)
(0.00309736 -0.00253871 0)
(0.0030371 -0.00253001 0)
(0.00297759 -0.00251842 0)
(0.00291885 -0.00250409 0)
(0.00286091 -0.0024872 0)
(0.00280379 -0.0024679 0)
(0.00274749 -0.00244633 0)
(0.00269203 -0.00242263 0)
(0.00263741 -0.00239693 0)
(0.00258364 -0.00236935 0)
(0.00253072 -0.00234 0)
(0.00247868 -0.002309 0)
(0.0024275 -0.00227643 0)
(0.00237722 -0.00224241 0)
(0.00232782 -0.00220702 0)
(0.00227933 -0.00217036 0)
(0.00223176 -0.00213252 0)
(0.00218511 -0.00209359 0)
(0.00213941 -0.00205366 0)
(0.00209466 -0.0020128 0)
(0.00205087 -0.00197112 0)
(0.00200806 -0.0019287 0)
(0.00196624 -0.00188562 0)
(0.00192542 -0.00184197 0)
(0.0018856 -0.00179783 0)
(0.00184681 -0.00175329 0)
(0.00180905 -0.00170844 0)
(0.00177233 -0.00166336 0)
(0.00173665 -0.00161814 0)
(0.00170202 -0.00157286 0)
(0.00166846 -0.0015276 0)
(0.00163596 -0.00148246 0)
(0.00160452 -0.00143753 0)
(0.00157416 -0.00139287 0)
(0.00154486 -0.0013486 0)
(0.00151664 -0.00130478 0)
(0.0014895 -0.00126152 0)
(0.00146343 -0.00121891 0)
(0.00143843 -0.00117704 0)
(0.00141449 -0.00113599 0)
(0.00139163 -0.00109589 0)
(0.00136982 -0.00105682 0)
(0.00134906 -0.00101888 0)
(0.00132936 -0.000982202 0)
(0.00131069 -0.000946888 0)
(0.00129305 -0.00091306 0)
(0.00127642 -0.000880848 0)
(0.0012608 -0.000850387 0)
(0.00124616 -0.000821821 0)
(0.00123247 -0.000795303 0)
(0.00121971 -0.000770997 0)
(0.00120784 -0.000749076 0)
(0.00119681 -0.000729721 0)
(0.00118655 -0.000713124 0)
(0.00117702 -0.000699472 0)
(0.00116801 -0.000688946 0)
(0.0011587 -0.000681733 0)
(0.00114963 -0.000678102 0)
(0.00499989 -2.67305e-05 0)
(0.00499741 -8.33787e-05 0)
(0.00499243 -0.000143048 0)
(0.0049848 -0.000205373 0)
(0.00497471 -0.000270218 0)
(0.00496223 -0.000337515 0)
(0.00494739 -0.000407231 0)
(0.00493019 -0.000479345 0)
(0.00491063 -0.000553834 0)
(0.00488868 -0.000630656 0)
(0.0048643 -0.000709744 0)
(0.00483745 -0.000790995 0)
(0.00480807 -0.000874265 0)
(0.00477613 -0.000959359 0)
(0.00474159 -0.00104603 0)
(0.00470443 -0.00113398 0)
(0.00466463 -0.00122283 0)
(0.0046222 -0.00131218 0)
(0.00457719 -0.00140155 0)
(0.00452965 -0.0014904 0)
(0.00447967 -0.00157817 0)
(0.00442735 -0.00166426 0)
(0.00437284 -0.00174807 0)
(0.00431631 -0.00182899 0)
(0.00425794 -0.00190645 0)
(0.00419793 -0.00197993 0)
(0.00413649 -0.00204897 0)
(0.00407386 -0.0021132 0)
(0.00401024 -0.00217232 0)
(0.00394586 -0.00222614 0)
(0.00388092 -0.00227455 0)
(0.00381563 -0.00231754 0)
(0.00375016 -0.00235514 0)
(0.00368469 -0.00238749 0)
(0.00361936 -0.00241475 0)
(0.00355431 -0.00243713 0)
(0.00348964 -0.00245489 0)
(0.00342544 -0.00246827 0)
(0.00336178 -0.00247753 0)
(0.00329871 -0.00248291 0)
(0.00323626 -0.00248464 0)
(0.00317447 -0.00248294 0)
(0.00311337 -0.00247802 0)
(0.00305298 -0.00247005 0)
(0.00299333 -0.00245921 0)
(0.00293443 -0.00244567 0)
(0.00287632 -0.00242958 0)
(0.00281902 -0.00241109 0)
(0.00276253 -0.00239034 0)
(0.00270687 -0.00236748 0)
(0.00265205 -0.00234263 0)
(0.00259808 -0.00231591 0)
(0.00254498 -0.00228742 0)
(0.00249275 -0.00225729 0)
(0.00244139 -0.00222561 0)
(0.00239093 -0.00219248 0)
(0.00234137 -0.002158 0)
(0.00229272 -0.00212225 0)
(0.002245 -0.00208534 0)
(0.00219822 -0.00204735 0)
(0.00215238 -0.00200836 0)
(0.00210751 -0.00196847 0)
(0.00206361 -0.00192777 0)
(0.00202069 -0.00188633 0)
(0.00197877 -0.00184425 0)
(0.00193785 -0.00180161 0)
(0.00189796 -0.00175849 0)
(0.00185908 -0.00171498 0)
(0.00182124 -0.00167116 0)
(0.00178445 -0.00162713 0)
(0.0017487 -0.00158296 0)
(0.00171402 -0.00153873 0)
(0.00168039 -0.00149454 0)
(0.00164783 -0.00145047 0)
(0.00161633 -0.0014066 0)
(0.00158591 -0.00136302 0)
(0.00155656 -0.00131981 0)
(0.00152829 -0.00127707 0)
(0.00150108 -0.00123489 0)
(0.00147495 -0.00119334 0)
(0.00144989 -0.00115254 0)
(0.00142588 -0.00111256 0)
(0.00140294 -0.00107351 0)
(0.00138104 -0.00103549 0)
(0.00136019 -0.000998604 0)
(0.00134038 -0.000962959 0)
(0.00132158 -0.000928669 0)
(0.0013038 -0.000895854 0)
(0.00128701 -0.000864638 0)
(0.00127119 -0.000835153 0)
(0.00125633 -0.000807539 0)
(0.00124238 -0.000781943 0)
(0.00122932 -0.000758521 0)
(0.00121709 -0.000737434 0)
(0.00120564 -0.000718852 0)
(0.00119491 -0.000702947 0)
(0.00118485 -0.000689891 0)
(0.00117524 -0.000679843 0)
(0.00116522 -0.000672971 0)
(0.00115538 -0.00066952 0)
(0.0049999 -2.55359e-05 0)
(0.00499759 -7.97086e-05 0)
(0.00499291 -0.000136883 0)
(0.00498569 -0.000196747 0)
(0.00497605 -0.000259172 0)
(0.00496403 -0.000324084 0)
(0.00494965 -0.000391434 0)
(0.0049329 -0.000461181 0)
(0.00491378 -0.000533285 0)
(0.00489225 -0.000607692 0)
(0.0048683 -0.000684327 0)
(0.00484187 -0.000763083 0)
(0.00481293 -0.000843814 0)
(0.00478143 -0.000926334 0)
(0.00474736 -0.0010104 0)
(0.00471069 -0.00109573 0)
(0.00467141 -0.00118198 0)
(0.00462953 -0.00126874 0)
(0.0045851 -0.00135556 0)
(0.00453818 -0.00144194 0)
(0.00448883 -0.00152733 0)
(0.00443718 -0.00161118 0)
(0.00438335 -0.00169288 0)
(0.00432751 -0.00177187 0)
(0.00426982 -0.00184759 0)
(0.00421049 -0.00191954 0)
(0.00414972 -0.00198726 0)
(0.00408771 -0.00205037 0)
(0.00402469 -0.0021086 0)
(0.00396086 -0.00216174 0)
(0.00389643 -0.00220967 0)
(0.00383159 -0.00225236 0)
(0.00376652 -0.00228985 0)
(0.00370138 -0.00232223 0)
(0.00363633 -0.00234967 0)
(0.00357149 -0.00237236 0)
(0.00350698 -0.00239052 0)
(0.00344288 -0.00240437 0)
(0.00337926 -0.00241417 0)
(0.00331619 -0.00242013 0)
(0.00325371 -0.00242249 0)
(0.00319185 -0.00242145 0)
(0.00313066 -0.00241722 0)
(0.00307016 -0.00240996 0)
(0.00301037 -0.00239987 0)
(0.00295133 -0.00238709 0)
(0.00289306 -0.00237178 0)
(0.00283558 -0.0023541 0)
(0.00277891 -0.00233418 0)
(0.00272307 -0.00231215 0)
(0.00266806 -0.00228814 0)
(0.0026139 -0.00226228 0)
(0.00256061 -0.00223466 0)
(0.00250819 -0.00220541 0)
(0.00245665 -0.00217462 0)
(0.00240602 -0.00214239 0)
(0.00235629 -0.00210881 0)
(0.00230748 -0.00207399 0)
(0.00225961 -0.00203802 0)
(0.00221268 -0.00200097 0)
(0.00216671 -0.00196294 0)
(0.0021217 -0.00192403 0)
(0.00207768 -0.0018843 0)
(0.00203465 -0.00184386 0)
(0.00199262 -0.00180278 0)
(0.0019516 -0.00176115 0)
(0.00191161 -0.00171906 0)
(0.00187265 -0.00167658 0)
(0.00183473 -0.00163381 0)
(0.00179785 -0.00159082 0)
(0.00176203 -0.0015477 0)
(0.00172727 -0.00150454 0)
(0.00169357 -0.00146141 0)
(0.00166094 -0.00141841 0)
(0.00162938 -0.00137561 0)
(0.0015989 -0.0013331 0)
(0.00156948 -0.00129097 0)
(0.00154114 -0.0012493 0)
(0.00151387 -0.00120819 0)
(0.00148766 -0.00116771 0)
(0.00146252 -0.00112796 0)
(0.00143843 -0.00108905 0)
(0.0014154 -0.00105105 0)
(0.0013934 -0.00101407 0)
(0.00137244 -0.000978216 0)
(0.0013525 -0.000943592 0)
(0.00133357 -0.00091031 0)
(0.00131562 -0.000878485 0)
(0.00129865 -0.00084824 0)
(0.00128262 -0.000819702 0)
(0.00126751 -0.000793006 0)
(0.00125329 -0.000768292 0)
(0.0012399 -0.000745708 0)
(0.00122731 -0.000725404 0)
(0.00121545 -0.000707539 0)
(0.00120425 -0.000692271 0)
(0.00119367 -0.000679753 0)
(0.00118349 -0.000670133 0)
(0.0011728 -0.000663563 0)
(0.00116226 -0.000660264 0)
(0.0049999 -2.44198e-05 0)
(0.00499774 -7.62589e-05 0)
(0.00499332 -0.000131049 0)
(0.00498645 -0.000188523 0)
(0.00497722 -0.00024857 0)
(0.00496565 -0.000311114 0)
(0.00495173 -0.0003761 0)
(0.00493545 -0.000443475 0)
(0.00491679 -0.000513189 0)
(0.00489574 -0.000585178 0)
(0.00487225 -0.00065936 0)
(0.00484629 -0.000735625 0)
(0.00481783 -0.000813831 0)
(0.00478684 -0.000893793 0)
(0.00475328 -0.000975282 0)
(0.00471715 -0.00105802 0)
(0.00467844 -0.00114168 0)
(0.00463717 -0.00122588 0)
(0.00459337 -0.00131019 0)
(0.0045471 -0.00139413 0)
(0.00449844 -0.00147717 0)
(0.00444748 -0.00155878 0)
(0.00439437 -0.0016384 0)
(0.00433925 -0.00171546 0)
(0.00428228 -0.00178943 0)
(0.00422366 -0.00185983 0)
(0.00416358 -0.0019262 0)
(0.00410223 -0.00198818 0)
(0.00403984 -0.00204547 0)
(0.00397659 -0.00209788 0)
(0.0039127 -0.00214528 0)
(0.00384834 -0.00218762 0)
(0.00378369 -0.00222493 0)
(0.00371892 -0.0022573 0)
(0.00365418 -0.00228486 0)
(0.00358958 -0.00230778 0)
(0.00352525 -0.00232628 0)
(0.00346128 -0.00234056 0)
(0.00339774 -0.00235084 0)
(0.00333469 -0.00235735 0)
(0.0032722 -0.0023603 0)
(0.0032103 -0.0023599 0)
(0.00314904 -0.00235632 0)
(0.00308845 -0.00234976 0)
(0.00302855 -0.00234039 0)
(0.00296938 -0.00232836 0)
(0.00291096 -0.00231383 0)
(0.00285332 -0.00229694 0)
(0.00279648 -0.00227783 0)
(0.00274046 -0.00225663 0)
(0.00268527 -0.00223347 0)
(0.00263093 -0.00220846 0)
(0.00257746 -0.00218171 0)
(0.00252486 -0.00215334 0)
(0.00247314 -0.00212344 0)
(0.00242233 -0.00209212 0)
(0.00237244 -0.00205946 0)
(0.00232347 -0.00202557 0)
(0.00227544 -0.00199054 0)
(0.00222836 -0.00195445 0)
(0.00218225 -0.00191739 0)
(0.00213711 -0.00187945 0)
(0.00209296 -0.00184071 0)
(0.00204981 -0.00180127 0)
(0.00200767 -0.0017612 0)
(0.00196654 -0.0017206 0)
(0.00192645 -0.00167953 0)
(0.00188739 -0.00163809 0)
(0.00184938 -0.00159637 0)
(0.00181241 -0.00155443 0)
(0.00177651 -0.00151237 0)
(0.00174167 -0.00147027 0)
(0.00170789 -0.00142821 0)
(0.00167519 -0.00138628 0)
(0.00164356 -0.00134455 0)
(0.00161299 -0.00130312 0)
(0.0015835 -0.00126206 0)
(0.00155508 -0.00122146 0)
(0.00152773 -0.00118141 0)
(0.00150144 -0.00114199 0)
(0.00147621 -0.00110331 0)
(0.00145203 -0.00106544 0)
(0.00142889 -0.00102848 0)
(0.00140679 -0.000992537 0)
(0.0013857 -0.000957703 0)
(0.00136562 -0.000924085 0)
(0.00134653 -0.000891792 0)
(0.00132841 -0.000860936 0)
(0.00131124 -0.000831636 0)
(0.00129499 -0.000804016 0)
(0.00127962 -0.000778205 0)
(0.00126511 -0.000754335 0)
(0.0012514 -0.000732547 0)
(0.00123844 -0.000712982 0)
(0.00122616 -0.000695787 0)
(0.00121451 -0.000681106 0)
(0.00120343 -0.000669084 0)
(0.00119271 -0.000659852 0)
(0.00118139 -0.000653551 0)
(0.0011702 -0.000650387 0)
(0.00499991 -2.33678e-05 0)
(0.00499787 -7.29952e-05 0)
(0.00499366 -0.000125504 0)
(0.00498711 -0.000180665 0)
(0.00497826 -0.000238384 0)
(0.00496712 -0.000298592 0)
(0.00495365 -0.000361231 0)
(0.00493784 -0.000426243 0)
(0.00491967 -0.000493571 0)
(0.0048991 -0.000563147 0)
(0.00487611 -0.000634883 0)
(0.00485067 -0.000708668 0)
(0.00482273 -0.000784362 0)
(0.00479228 -0.000861785 0)
(0.00475929 -0.000940717 0)
(0.00472375 -0.00102089 0)
(0.00468565 -0.001102 0)
(0.00464502 -0.00118367 0)
(0.00460189 -0.00126549 0)
(0.00455631 -0.001347 0)
(0.00450836 -0.00142772 0)
(0.00445814 -0.00150711 0)
(0.00440578 -0.00158465 0)
(0.0043514 -0.00165978 0)
(0.00429518 -0.001732 0)
(0.00423729 -0.00180083 0)
(0.00417792 -0.00186583 0)
(0.00411726 -0.00192664 0)
(0.00405552 -0.00198296 0)
(0.00399288 -0.0020346 0)
(0.00392955 -0.00208142 0)
(0.0038657 -0.00212336 0)
(0.00380151 -0.00216043 0)
(0.00373713 -0.00219272 0)
(0.00367272 -0.00222033 0)
(0.0036084 -0.00224344 0)
(0.00354428 -0.00226221 0)
(0.00348046 -0.00227686 0)
(0.00341703 -0.00228758 0)
(0.00335404 -0.0022946 0)
(0.00329157 -0.0022981 0)
(0.00322965 -0.00229829 0)
(0.00316834 -0.00229536 0)
(0.00310768 -0.00228947 0)
(0.00304769 -0.0022808 0)
(0.0029884 -0.0022695 0)
(0.00292986 -0.00225573 0)
(0.00287208 -0.00223962 0)
(0.00281509 -0.00222131 0)
(0.0027589 -0.00220094 0)
(0.00270354 -0.00217861 0)
(0.00264903 -0.00215446 0)
(0.00259538 -0.00212858 0)
(0.0025426 -0.00210109 0)
(0.00249072 -0.00207209 0)
(0.00243974 -0.00204168 0)
(0.00238968 -0.00200995 0)
(0.00234055 -0.001977 0)
(0.00229237 -0.00194291 0)
(0.00224514 -0.00190778 0)
(0.00219888 -0.00187169 0)
(0.00215361 -0.00183474 0)
(0.00210933 -0.001797 0)
(0.00206605 -0.00175856 0)
(0.00202379 -0.00171951 0)
(0.00198256 -0.00167993 0)
(0.00194235 -0.0016399 0)
(0.00190319 -0.00159951 0)
(0.00186508 -0.00155883 0)
(0.00182803 -0.00151796 0)
(0.00179203 -0.00147696 0)
(0.0017571 -0.00143592 0)
(0.00172324 -0.00139493 0)
(0.00169045 -0.00135407 0)
(0.00165874 -0.00131342 0)
(0.00162809 -0.00127305 0)
(0.00159852 -0.00123306 0)
(0.00157001 -0.00119353 0)
(0.00154257 -0.00115454 0)
(0.00151619 -0.00111619 0)
(0.00149086 -0.00107855 0)
(0.00146657 -0.00104173 0)
(0.00144332 -0.0010058 0)
(0.00142109 -0.000970879 0)
(0.00139987 -0.000937052 0)