/*--------------------------------*- C++ -*----------------------------------*\
  =========                 |
  \\      /  F ield         | OpenFOAM: The Open Source CFD Toolbox
   \\    /   O peration     | Website:  https://openfoam.org
    \\  /    A nd           | Version:  11
     \\/     M anipulation  |
\*---------------------------------------------------------------------------*/
FoamFile
{
    format      ascii;
    class       volScalarField;
    location    "1106";
    object      p;
}
// * * * * * * * * * * * * * * * * * * * * * * * * * * * * * * * * * * * * * //

dimensions      [0 2 -2 0 0 0 0];

internalField   nonuniform List<scalar> 
10000
(
5.10548e-12
4.98366e-12
5.19927e-12
5.61866e-12
6.0953e-12
6.59762e-12
7.12561e-12
7.68004e-12
8.26162e-12
8.8718e-12
9.51245e-12
1.01856e-11
1.08935e-11
1.16383e-11
1.24223e-11
1.32481e-11
1.41181e-11
1.50349e-11
1.60011e-11
1.70195e-11
1.80929e-11
1.92242e-11
2.04165e-11
2.16728e-11
2.29964e-11
2.43905e-11
2.58585e-11
2.7404e-11
2.90306e-11
3.07419e-11
3.25419e-11
3.44344e-11
3.64234e-11
3.8513e-11
4.07075e-11
4.30112e-11
4.54284e-11
4.79636e-11
5.06213e-11
5.3406e-11
5.63224e-11
5.9375e-11
6.25685e-11
6.59076e-11
6.93967e-11
7.30405e-11
7.68434e-11
8.08096e-11
8.49434e-11
8.92488e-11
9.37294e-11
9.83887e-11
1.0323e-10
1.08256e-10
1.13468e-10
1.18869e-10
1.2446e-10
1.30241e-10
1.36211e-10
1.42369e-10
1.48712e-10
1.55237e-10
1.61939e-10
1.68811e-10
1.75845e-10
1.83031e-10
1.90355e-10
1.97803e-10
2.05357e-10
2.12997e-10
2.20697e-10
2.28431e-10
2.36164e-10
2.43861e-10
2.51477e-10
2.58964e-10
2.66267e-10
2.73322e-10
2.80057e-10
2.8639e-10
2.9223e-10
2.97473e-10
3.02001e-10
3.05682e-10
3.08365e-10
3.09883e-10
3.10044e-10
3.08634e-10
3.05409e-10
3.00091e-10
2.92366e-10
2.81868e-10
2.68174e-10
2.50772e-10
2.29041e-10
2.02236e-10
1.69249e-10
1.27114e-10
7.14549e-11
5.18784e-12
9.33444e-12
8.74372e-12
8.44246e-12
8.60893e-12
8.97502e-12
9.43959e-12
9.97836e-12
1.05788e-11
1.12328e-11
1.19361e-11
1.26872e-11
1.34859e-11
1.4333e-11
1.52297e-11
1.61779e-11
1.71796e-11
1.82373e-11
1.93535e-11
2.0531e-11
2.17726e-11
2.30815e-11
2.44609e-11
2.5914e-11
2.74444e-11
2.90556e-11
3.07514e-11
3.25356e-11
3.44122e-11
3.63853e-11
3.8459e-11
4.06378e-11
4.2926e-11
4.53281e-11
4.78488e-11
5.04928e-11
5.3265e-11
5.61701e-11
5.92132e-11
6.23992e-11
6.57332e-11
6.92201e-11
7.28651e-11
7.66731e-11
8.06491e-11
8.4798e-11
8.91245e-11
9.36333e-11
9.83287e-11
1.03215e-10
1.08296e-10
1.13576e-10
1.19056e-10
1.24741e-10
1.30633e-10
1.36732e-10
1.4304e-10
1.49556e-10
1.5628e-10
1.63209e-10
1.7034e-10
1.77669e-10
1.85189e-10
1.92892e-10
2.00768e-10
2.08805e-10
2.16988e-10
2.253e-10
2.3372e-10
2.42224e-10
2.50785e-10
2.5937e-10
2.67942e-10
2.76458e-10
2.84871e-10
2.93125e-10
3.01157e-10
3.08897e-10
3.16264e-10
3.23167e-10
3.29504e-10
3.35159e-10
3.40003e-10
3.43888e-10
3.46649e-10
3.48101e-10
3.48035e-10
3.46214e-10
3.42371e-10
3.36204e-10
3.27368e-10
3.15469e-10
3.00051e-10
2.80577e-10
2.56392e-10
2.26712e-10
1.90697e-10
1.47159e-10
9.13578e-11
1.4205e-11
-5.40359e-11
1.10538e-11
1.01423e-11
9.45439e-12
9.2788e-12
9.35943e-12
9.58345e-12
9.91447e-12
1.0331e-11
1.08176e-11
1.1365e-11
1.19674e-11
1.26216e-11
1.3326e-11
1.40799e-11
1.48836e-11
1.57377e-11
1.66435e-11
1.76024e-11
1.86163e-11
1.9687e-11
2.08169e-11
2.20081e-11
2.32633e-11
2.4585e-11
2.5976e-11
2.74391e-11
2.89774e-11
3.0594e-11
3.2292e-11
3.40747e-11
3.59454e-11
3.79078e-11
3.99652e-11
4.21212e-11
4.43797e-11
4.67441e-11
4.92183e-11
5.18061e-11
5.45112e-11
5.73374e-11
6.02886e-11
6.33683e-11
6.65803e-11
6.99281e-11
7.34153e-11
7.70451e-11
8.08206e-11
8.47448e-11
8.88204e-11
9.30496e-11
9.74346e-11
1.01977e-10
1.06677e-10
1.11537e-10
1.16555e-10
1.21732e-10
1.27065e-10
1.32552e-10
1.3819e-10
1.43973e-10
1.49896e-10
1.55951e-10
1.6213e-10
1.68421e-10
1.74811e-10
1.81286e-10
1.87827e-10
1.94414e-10
2.01023e-10
2.07626e-10
2.14194e-10
2.20689e-10
2.27073e-10
2.33299e-10
2.39315e-10
2.45063e-10
2.50477e-10
2.55484e-10
2.6e-10
2.63932e-10
2.67174e-10
2.69609e-10
2.71105e-10
2.71515e-10
2.70671e-10
2.68387e-10
2.64455e-10
2.58637e-10
2.50668e-10
2.40243e-10
2.27016e-10
2.1059e-10
1.90496e-10
1.66167e-10
1.36945e-10
1.02247e-10
6.11761e-11
8.24414e-12
-6.54188e-11
-1.12148e-10
1.23764e-11
1.14135e-11
1.06377e-11
1.0318e-11
1.02528e-11
1.03473e-11
1.05664e-11
1.08865e-11
1.12899e-11
1.17643e-11
1.23019e-11
1.28976e-11
1.35482e-11
1.42517e-11
1.50073e-11
1.58148e-11
1.66747e-11
1.75877e-11
1.85551e-11
1.95784e-11
2.06591e-11
2.17992e-11
2.30008e-11
2.42659e-11
2.55971e-11
2.69966e-11
2.84672e-11
3.00115e-11
3.16322e-11
3.33322e-11
3.51144e-11
3.69818e-11
3.89375e-11
4.09846e-11
4.31262e-11
4.53655e-11
4.77057e-11
5.015e-11
5.27017e-11
5.53637e-11
5.81393e-11
6.10316e-11
6.40434e-11
6.71775e-11
7.04368e-11
7.38236e-11
7.73404e-11
8.09891e-11
8.47715e-11
8.8689e-11
9.27426e-11
9.6933e-11
1.0126e-10
1.05724e-10
1.10322e-10
1.15053e-10
1.19915e-10
1.24904e-10
1.30014e-10
1.3524e-10
1.40574e-10
1.46009e-10
1.51532e-10
1.57132e-10
1.62795e-10
1.68504e-10
1.74239e-10
1.7998e-10
1.85699e-10
1.9137e-10
1.9696e-10
2.02431e-10
2.07742e-10
2.12847e-10
2.17693e-10
2.2222e-10
2.26363e-10
2.30047e-10
2.33189e-10
2.35696e-10
2.37464e-10
2.38377e-10
2.38306e-10
2.37105e-10
2.34613e-10
2.3065e-10
2.25014e-10
2.17477e-10
2.07787e-10
1.95657e-10
1.80764e-10
1.62739e-10
1.4116e-10
1.1552e-10
8.52632e-11
5.0025e-11
9.18791e-12
-4.33843e-11
-1.17501e-10
-1.52405e-10
1.34251e-11
1.25225e-11
1.17545e-11
1.13766e-11
1.12342e-11
1.12527e-11
1.14024e-11
1.16615e-11
1.20121e-11
1.24413e-11
1.29404e-11
1.3503e-11
1.41251e-11
1.48037e-11
1.55374e-11
1.63253e-11
1.71673e-11
1.80636e-11
1.90151e-11
2.00228e-11
2.1088e-11
2.22122e-11
2.33972e-11
2.46449e-11
2.59573e-11
2.73366e-11
2.87851e-11
3.03051e-11
3.18991e-11
3.35697e-11
3.53195e-11
3.71511e-11
3.90673e-11
4.10709e-11
4.31646e-11
4.53512e-11
4.76336e-11
5.00144e-11
5.24966e-11
5.50828e-11
5.77755e-11
6.05774e-11
6.34909e-11
6.65182e-11
6.96614e-11
7.29225e-11
7.6303e-11
7.98044e-11
8.34277e-11
8.71734e-11
9.1042e-11
9.5033e-11
9.91457e-11
1.03379e-10
1.0773e-10
1.12196e-10
1.16773e-10
1.21457e-10
1.26241e-10
1.31118e-10
1.3608e-10
1.41117e-10
1.46217e-10
1.51365e-10
1.56547e-10
1.61744e-10
1.66936e-10
1.72098e-10
1.77204e-10
1.82224e-10
1.87124e-10
1.91864e-10
1.96403e-10
2.00692e-10
2.04675e-10
2.08294e-10
2.11479e-10
2.14155e-10
2.16238e-10
2.17635e-10
2.1824e-10
2.17937e-10
2.16598e-10
2.14079e-10
2.1022e-10
2.04844e-10
1.97754e-10
1.88732e-10
1.77534e-10
1.63889e-10
1.47496e-10
1.28019e-10
1.05079e-10
7.82365e-11
4.70414e-11
1.13615e-11
-2.90806e-11
-8.12483e-11
-1.58783e-10
-1.80113e-10
1.42201e-11
1.33957e-11
1.26606e-11
1.22586e-11
1.20692e-11
1.20343e-11
1.21305e-11
1.23387e-11
1.26423e-11
1.3029e-11
1.34897e-11
1.40178e-11
1.46084e-11
1.52583e-11
1.59652e-11
1.6728e-11
1.75458e-11
1.84187e-11
1.9347e-11
2.03313e-11
2.13726e-11
2.24721e-11
2.36313e-11
2.48517e-11
2.61351e-11
2.74833e-11
2.88983e-11
3.03822e-11
3.19372e-11
3.35654e-11
3.52692e-11
3.70509e-11
3.89129e-11
4.08576e-11
4.28874e-11
4.50047e-11
4.72119e-11
4.95114e-11
5.19055e-11
5.43964e-11
5.69862e-11
5.9677e-11
6.24707e-11
6.53689e-11
6.83733e-11
7.1485e-11
7.4705e-11
7.80342e-11
8.14726e-11
8.50204e-11
8.8677e-11
9.24412e-11
9.63114e-11
1.00285e-10
1.0436e-10
1.08531e-10
1.12794e-10
1.17144e-10
1.21572e-10
1.26071e-10
1.30632e-10
1.35242e-10
1.39889e-10
1.44559e-10
1.49233e-10
1.53893e-10
1.58517e-10
1.63079e-10
1.67553e-10
1.71906e-10
1.76103e-10
1.80104e-10
1.83866e-10
1.87339e-10
1.90468e-10
1.93191e-10
1.95441e-10
1.97141e-10
1.98208e-10
1.98548e-10
1.98057e-10
1.96623e-10
1.94117e-10
1.90401e-10
1.85319e-10
1.78702e-10
1.70361e-10
1.6009e-10
1.47661e-10
1.32825e-10
1.15309e-10
9.48174e-11
7.10279e-11
4.35767e-11
1.21289e-11
-2.32042e-11
-6.22884e-11
-1.12544e-10
-1.91422e-10
-2.00662e-10
1.48444e-11
1.40888e-11
1.33962e-11
1.29906e-11
1.27752e-11
1.27044e-11
1.27606e-11
1.29276e-11
1.31911e-11
1.35395e-11
1.39641e-11
1.44582e-11
1.50169e-11
1.56365e-11
1.63145e-11
1.70492e-11
1.78396e-11
1.86851e-11
1.95859e-11
2.05422e-11
2.15547e-11
2.26243e-11
2.37521e-11
2.49393e-11
2.61875e-11
2.74982e-11
2.8873e-11
3.03138e-11
3.18224e-11
3.34006e-11
3.50506e-11
3.67742e-11
3.85736e-11
4.04507e-11
4.24076e-11
4.44463e-11
4.65688e-11
4.87771e-11
5.1073e-11
5.34583e-11
5.59346e-11
5.85035e-11
6.11663e-11
6.39242e-11
6.67782e-11
6.97289e-11
7.27767e-11
7.59217e-11
7.91634e-11
8.25012e-11
8.59338e-11
8.94593e-11
9.30753e-11
9.67786e-11
1.00566e-10
1.04431e-10
1.0837e-10
1.12375e-10
1.16438e-10
1.20551e-10
1.24702e-10
1.28879e-10
1.33069e-10
1.37255e-10
1.4142e-10
1.45543e-10
1.49601e-10
1.53568e-10
1.57417e-10
1.61114e-10
1.64623e-10
1.67904e-10
1.70912e-10
1.73599e-10
1.75907e-10
1.77777e-10
1.7914e-10
1.79921e-10
1.80038e-10
1.79399e-10
1.77903e-10
1.75438e-10
1.71883e-10
1.67103e-10
1.60951e-10
1.53266e-10
1.4387e-10
1.32572e-10
1.19163e-10
1.03418e-10
8.50965e-11
6.3944e-11
3.96937e-11
1.2053e-11
-1.92147e-11
-5.38154e-11
-9.13294e-11
-1.39501e-10
-2.17862e-10
-2.20114e-10
1.5347e-11
1.46503e-11
1.40017e-11
1.36045e-11
1.33773e-11
1.32841e-11
1.33118e-11
1.34473e-11
1.3678e-11
1.39936e-11
1.43862e-11
1.48492e-11
1.53778e-11
1.59682e-11
1.66176e-11
1.73241e-11
1.80864e-11
1.89037e-11
1.97758e-11
2.07028e-11
2.16849e-11
2.27227e-11
2.38172e-11
2.49694e-11
2.61803e-11
2.74512e-11
2.87836e-11
3.0179e-11
3.16388e-11
3.31648e-11
3.47585e-11
3.64216e-11
3.81559e-11
3.9963e-11
4.18446e-11
4.38023e-11
4.58379e-11
4.79527e-11
5.01483e-11
5.24259e-11
5.47869e-11
5.72322e-11
5.97626e-11
6.23789e-11
6.50815e-11
6.78705e-11
7.07456e-11
7.37064e-11
7.67518e-11
7.98805e-11
8.30905e-11
8.63793e-11
8.97437e-11
9.318e-11
9.66834e-11
1.00248e-10
1.03869e-10
1.07536e-10
1.11243e-10
1.14979e-10
1.18732e-10
1.22489e-10
1.26236e-10
1.29956e-10
1.33631e-10
1.37238e-10
1.40755e-10
1.44154e-10
1.47408e-10
1.50482e-10
1.5334e-10
1.55943e-10
1.58244e-10
1.60195e-10
1.6174e-10
1.6282e-10
1.63366e-10
1.63306e-10
1.62558e-10
1.61033e-10
1.58634e-10
1.55254e-10
1.50776e-10
1.45071e-10
1.38001e-10
1.29415e-10
1.19148e-10
1.07025e-10
9.28555e-11
7.64398e-11
5.75675e-11
3.60238e-11
1.15894e-11
-1.59712e-11
-4.68243e-11
-8.05607e-11
-1.16627e-10
-1.63278e-10
-2.41896e-10
-2.39282e-10
1.57524e-11
1.51069e-11
1.45001e-11
1.41171e-11
1.38871e-11
1.37808e-11
1.37886e-11
1.39e-11
1.41041e-11
1.4392e-11
1.47564e-11
1.51911e-11
1.56915e-11
1.62539e-11
1.68754e-11
1.75539e-11
1.82879e-11
1.90766e-11
1.99192e-11
2.08158e-11
2.17663e-11
2.27711e-11
2.38309e-11
2.49463e-11
2.61182e-11
2.73477e-11
2.86359e-11
2.9984e-11
3.13932e-11
3.28649e-11
3.44005e-11
3.60012e-11
3.76685e-11
3.94038e-11
4.12083e-11
4.30834e-11
4.50303e-11
4.70501e-11
4.9144e-11
5.13127e-11
5.35572e-11
5.58779e-11
5.82753e-11
6.07496e-11
6.33006e-11
6.5928e-11
6.8631e-11
7.14086e-11
7.42591e-11
7.71806e-11
8.01705e-11
8.32257e-11
8.63424e-11
8.95161e-11
9.27415e-11
9.60124e-11
9.93216e-11
1.02661e-10
1.06021e-10
1.09391e-10
1.12759e-10
1.16111e-10
1.19431e-10
1.22703e-10
1.25907e-10
1.29021e-10
1.32022e-10
1.34882e-10
1.37572e-10
1.40058e-10
1.42304e-10
1.4427e-10
1.45912e-10
1.47179e-10
1.48018e-10
1.48369e-10
1.48167e-10
1.47341e-10
1.45811e-10
1.43493e-10
1.40291e-10
1.36105e-10
1.30823e-10
1.24324e-10
1.16478e-10
1.07146e-10
9.61752e-11
8.34066e-11
6.86702e-11
5.17887e-11
3.25805e-11
1.08647e-11
-1.35384e-11
-4.08197e-11
-7.10956e-11
-1.03878e-10
-1.38539e-10
-1.83797e-10
-2.62386e-10
-2.55022e-10
1.60755e-11
1.54756e-11
1.49076e-11
1.45413e-11
1.43139e-11
1.42007e-11
1.41949e-11
1.42879e-11
1.44704e-11
1.47347e-11
1.5074e-11
1.54829e-11
1.59569e-11
1.64925e-11
1.70867e-11
1.77375e-11
1.84432e-11
1.92027e-11
2.00152e-11
2.08805e-11
2.17983e-11
2.27689e-11
2.37925e-11
2.48697e-11
2.60011e-11
2.71875e-11
2.84298e-11
2.97288e-11
3.10856e-11
3.25013e-11
3.39768e-11
3.55133e-11
3.71118e-11
3.87734e-11
4.04992e-11
4.22899e-11
4.41466e-11
4.607e-11
4.80607e-11
5.01194e-11
5.22463e-11
5.44416e-11
5.67053e-11
5.90372e-11
6.14366e-11
6.39027e-11
6.64342e-11
6.90295e-11
7.16866e-11
7.44029e-11
7.71753e-11
8e-11
8.28729e-11
8.57887e-11
8.87415e-11
9.17246e-11
9.47303e-11
9.77496e-11
1.00773e-10
1.03788e-10
1.06783e-10
1.09744e-10
1.12654e-10
1.15496e-10
1.18249e-10
1.20893e-10
1.23402e-10
1.2575e-10
1.27907e-10
1.29839e-10
1.3151e-10
1.32881e-10
1.33908e-10
1.34541e-10
1.34729e-10
1.34413e-10
1.33529e-10
1.32009e-10
1.29777e-10
1.26751e-10
1.22841e-10
1.17951e-10
1.11977e-10
1.04805e-10
9.63141e-11
8.63759e-11
7.48525e-11
6.15991e-11
4.64648e-11
2.92938e-11
9.92986e-12
-1.1779e-11
-3.59796e-11
-6.28291e-11
-9.2407e-11
-1.24168e-10
-1.57432e-10
-2.01285e-10
-2.79452e-10
-2.67707e-10
1.6327e-11
1.57687e-11
1.52365e-11
1.48881e-11
1.46666e-11
1.4551e-11
1.45361e-11
1.4615e-11
1.47798e-11
1.50238e-11
1.53409e-11
1.57262e-11
1.61755e-11
1.66854e-11
1.72531e-11
1.78764e-11
1.85538e-11
1.92839e-11
2.00658e-11
2.08991e-11
2.17834e-11
2.27186e-11
2.3705e-11
2.47427e-11
2.58322e-11
2.69741e-11
2.8169e-11
2.94175e-11
3.07203e-11
3.20784e-11
3.34924e-11
3.49632e-11
3.64915e-11
3.8078e-11
3.97236e-11
4.14287e-11
4.3194e-11
4.50198e-11
4.69066e-11
4.88543e-11
5.08631e-11
5.29327e-11
5.50626e-11
5.72522e-11
5.95004e-11
6.1806e-11
6.41672e-11
6.65819e-11
6.90476e-11
7.15613e-11
7.41193e-11
7.67175e-11
7.9351e-11
8.20142e-11
8.47007e-11
8.74031e-11
9.01133e-11
9.28219e-11
9.55184e-11
9.8191e-11
1.00827e-10
1.03411e-10
1.05927e-10
1.08357e-10
1.10681e-10
1.12877e-10
1.1492e-10
1.16784e-10
1.18438e-10
1.1985e-10
1.20984e-10
1.21801e-10
1.22258e-10
1.22307e-10
1.21896e-10
1.20971e-10
1.1947e-10
1.17326e-10
1.14467e-10
1.10816e-10
1.06287e-10
1.0079e-10
9.42271e-11
8.64934e-11
7.74774e-11
6.70609e-11
5.51194e-11
4.15228e-11
2.61372e-11
8.82672e-12
-1.0543e-11
-3.20993e-11
-5.59628e-11
-8.22644e-11
-1.11057e-10
-1.41752e-10
-1.73632e-10
-2.16072e-10
-2.93558e-10
-2.77934e-10
1.65148e-11
1.59959e-11
1.5497e-11
1.51666e-11
1.49532e-11
1.48381e-11
1.48174e-11
1.48856e-11
1.50359e-11
1.52624e-11
1.55596e-11
1.59232e-11
1.63493e-11
1.68346e-11
1.73765e-11
1.79729e-11
1.8622e-11
1.93226e-11
2.00736e-11
2.08743e-11
2.17244e-11
2.26235e-11
2.35717e-11
2.45689e-11
2.56155e-11
2.67118e-11
2.7858e-11
2.90548e-11
3.03025e-11
3.16018e-11
3.29531e-11
3.43569e-11
3.58139e-11
3.73243e-11
3.88887e-11
4.05074e-11
4.21805e-11
4.39082e-11
4.56904e-11
4.7527e-11
4.94176e-11
5.13615e-11
5.33581e-11
5.54061e-11
5.75041e-11
5.96505e-11
6.18432e-11
6.40795e-11
6.63566e-11
6.86709e-11
7.10184e-11
7.33945e-11
7.57939e-11
7.82105e-11
8.06374e-11
8.3067e-11
8.54905e-11
8.78983e-11
9.02794e-11
9.26218e-11
9.4912e-11
9.71351e-11
9.92746e-11
1.01312e-10
1.03228e-10
1.04999e-10
1.06602e-10
1.08009e-10
1.09192e-10
1.10117e-10
1.10751e-10
1.11054e-10
1.10985e-10
1.10497e-10
1.09542e-10
1.08065e-10
1.06007e-10
1.03306e-10
9.9893e-11
9.5694e-11
9.06299e-11
8.46156e-11
7.75603e-11
6.93674e-11
5.99346e-11
4.91543e-11
3.69141e-11
2.30981e-11
7.58783e-12
-9.73521e-12
-2.89863e-11
-5.02723e-11
-7.36926e-11
-9.9358e-11
-1.27301e-10
-1.56903e-10
-1.87417e-10
-2.28443e-10
-3.05049e-10
-2.86038e-10
1.66464e-11
1.61644e-11
1.56965e-11
1.53843e-11
1.51804e-11
1.50678e-11
1.50439e-11
1.5104e-11
1.52423e-11
1.54535e-11
1.57329e-11
1.60765e-11
1.64807e-11
1.69425e-11
1.74593e-11
1.80291e-11
1.86502e-11
1.93212e-11
2.0041e-11
2.08089e-11
2.16242e-11
2.24867e-11
2.33959e-11
2.43519e-11
2.53547e-11
2.64044e-11
2.75011e-11
2.86452e-11
2.98368e-11
3.10764e-11
3.2364e-11
3.37002e-11
3.50849e-11
3.65186e-11
3.80012e-11
3.95328e-11
4.11133e-11
4.27426e-11
4.44203e-11
4.61458e-11
4.79185e-11
4.97375e-11
5.16015e-11
5.3509e-11
5.54584e-11
5.74476e-11
5.94739e-11
6.15346e-11
6.36263e-11
6.5745e-11
6.78864e-11
7.00455e-11
7.22165e-11
7.4393e-11
7.65678e-11
7.87329e-11
8.08791e-11
8.29965e-11
8.5074e-11
8.70991e-11
8.90582e-11
9.09362e-11
9.27165e-11
9.43808e-11
9.5909e-11
9.72791e-11
9.84669e-11
9.94461e-11
1.00188e-10
1.0066e-10
1.0083e-10
1.00659e-10
1.00106e-10
9.91291e-11
9.76788e-11
9.57042e-11
9.31495e-11
8.99547e-11
8.60552e-11
8.13818e-11
7.58605e-11
6.94121e-11
6.19529e-11
5.33941e-11
4.36423e-11
3.26003e-11
2.01671e-11
6.23941e-12
-9.28705e-12
-2.65155e-11
-4.5545e-11
-6.64653e-11
-8.93589e-11
-1.14321e-10
-1.41368e-10
-1.6986e-10
-1.99029e-10
-2.38643e-10
-3.14197e-10
-2.92247e-10
1.67286e-11
1.628e-11
1.58417e-11
1.55475e-11
1.53539e-11
1.52454e-11
1.52201e-11
1.52741e-11
1.54024e-11
1.56003e-11
1.58635e-11
1.61885e-11
1.6572e-11
1.70112e-11
1.75036e-11
1.80474e-11
1.86407e-11
1.92822e-11
1.99708e-11
2.07056e-11
2.14858e-11
2.2311e-11
2.31809e-11
2.4095e-11
2.50533e-11
2.60558e-11
2.71023e-11
2.8193e-11
2.93279e-11
3.0507e-11
3.17304e-11
3.29982e-11
3.43103e-11
3.56667e-11
3.70672e-11
3.85116e-11
3.99995e-11
4.15305e-11
4.31039e-11
4.47189e-11
4.63744e-11
4.80693e-11
4.9802e-11
5.15707e-11
5.33734e-11
5.52075e-11
5.70703e-11
5.89585e-11
6.08685e-11
6.27959e-11
6.4736e-11
6.66836e-11
6.86324e-11
7.05759e-11
7.25064e-11
7.44157e-11
7.62944e-11
7.81324e-11
7.99181e-11
8.16392e-11
8.32819e-11
8.48309e-11
8.62698e-11
8.75803e-11
8.87425e-11
8.97346e-11
9.05329e-11
9.11116e-11
9.14424e-11
9.14948e-11
9.12356e-11
9.06286e-11
8.9635e-11
8.82126e-11
8.63159e-11
8.38958e-11
8.08997e-11
7.7271e-11
7.29492e-11
6.78695e-11
6.19633e-11
5.51575e-11
4.73749e-11
3.85345e-11
2.85517e-11
1.73386e-11
4.80494e-12
-9.14099e-12
-2.45909e-11
-4.16348e-11
-6.03577e-11
-8.08352e-11
-1.03136e-10
-1.27343e-10
-1.53462e-10
-1.80836e-10
-2.08683e-10
-2.46886e-10
-3.21234e-10
-2.96748e-10
1.67664e-11
1.63482e-11
1.59381e-11
1.56618e-11
1.5479e-11
1.53756e-11
1.53504e-11
1.53998e-11
1.55197e-11
1.57057e-11
1.59542e-11
1.62619e-11
1.66258e-11
1.70432e-11
1.75119e-11
1.80301e-11
1.85959e-11
1.92081e-11
1.98655e-11
2.0567e-11
2.1312e-11
2.20997e-11
2.29297e-11
2.38016e-11
2.4715e-11
2.56697e-11
2.66656e-11
2.77024e-11
2.878e-11
2.98983e-11
3.10571e-11
3.22562e-11
3.34954e-11
3.47744e-11
3.60928e-11
3.74501e-11
3.88457e-11
4.02788e-11
4.17486e-11
4.32538e-11
4.47933e-11
4.63654e-11
4.79684e-11
4.96002e-11
5.12585e-11
5.29403e-11
5.46427e-11
5.6362e-11
5.80943e-11
5.98351e-11
6.15792e-11
6.33211e-11
6.50544e-11
6.67722e-11
6.84667e-11
7.01293e-11
7.17507e-11
7.33203e-11
7.48266e-11
7.62572e-11
7.75983e-11
7.88347e-11
7.99499e-11
8.0926e-11
8.17433e-11
8.23805e-11
8.28143e-11
8.30196e-11
8.29691e-11
8.2633e-11
8.19795e-11
8.09739e-11
7.9579e-11
7.77545e-11
7.54573e-11
7.26412e-11
6.92564e-11
6.525e-11
6.05654e-11
5.51427e-11
4.89183e-11
4.18249e-11
3.37921e-11
2.47462e-11
1.46107e-11
3.30653e-12
-9.24674e-12
-2.31303e-11
-3.84249e-11
-5.52087e-11
-7.35549e-11
-9.35276e-11
-1.15184e-10
-1.38597e-10
-1.63765e-10
-1.90019e-10
-2.16568e-10
-2.53364e-10
-3.26367e-10
-2.99707e-10
1.67636e-11
1.6374e-11
1.59908e-11
1.57321e-11
1.55603e-11
1.54629e-11
1.54387e-11
1.54848e-11
1.55975e-11
1.5773e-11
1.6008e-11
1.62994e-11
1.66445e-11
1.70409e-11
1.74866e-11
1.79796e-11
1.85184e-11
1.91014e-11
1.97277e-11
2.0396e-11
2.11056e-11
2.18557e-11
2.26456e-11
2.3475e-11
2.43432e-11
2.52499e-11
2.61948e-11
2.71774e-11
2.81976e-11
2.92548e-11
3.03489e-11
3.14793e-11
3.26457e-11
3.38474e-11
3.5084e-11
3.63545e-11
3.76583e-11
3.89943e-11
4.03613e-11
4.1758e-11
4.31827e-11
4.46338e-11
4.61091e-11
4.76064e-11
4.91228e-11
5.06554e-11
5.22008e-11
5.37552e-11
5.53143e-11
5.68733e-11
5.8427e-11
5.99695e-11
6.14943e-11
6.29941e-11
6.4461e-11
6.58864e-11
6.72607e-11
6.85733e-11
6.98128e-11
7.09665e-11
7.20208e-11
7.29608e-11
7.37701e-11
7.4431e-11
7.49244e-11
7.52293e-11
7.53232e-11
7.51817e-11
7.47784e-11
7.40848e-11
7.30702e-11
7.17016e-11
6.99435e-11
6.77579e-11
6.51041e-11
6.19383e-11
5.82143e-11
5.38826e-11
4.88907e-11
4.31832e-11
3.67016e-11
2.93844e-11
2.11675e-11
1.19841e-11
1.76523e-12
-9.55964e-12
-2.20622e-11
-3.58143e-11
-5.08866e-11
-6.73473e-11
-8.52596e-11
-1.04677e-10
-1.25649e-10
-1.4824e-10
-1.72441e-10
-1.97578e-10
-2.22855e-10
-2.58248e-10
-3.29777e-10
-3.0127e-10
1.67241e-11
1.63617e-11
1.60043e-11
1.57628e-11
1.56024e-11
1.55113e-11
1.54888e-11
1.55326e-11
1.56391e-11
1.58051e-11
1.60275e-11
1.63036e-11
1.66308e-11
1.7007e-11
1.74302e-11
1.78986e-11
1.84106e-11
1.89648e-11
1.95601e-11
2.01953e-11
2.08695e-11
2.1582e-11
2.23319e-11
2.31186e-11
2.39415e-11
2.48001e-11
2.56939e-11
2.66223e-11
2.75849e-11
2.85812e-11
2.96106e-11
3.06725e-11
3.17662e-11
3.28911e-11
3.40463e-11
3.52308e-11
3.64436e-11
3.76835e-11
3.89489e-11
4.02385e-11
4.15503e-11
4.28823e-11
4.42321e-11
4.55973e-11
4.69749e-11
4.83617e-11
4.97539e-11
5.11476e-11
5.25382e-11
5.39209e-11
5.529e-11
5.66396e-11
5.79629e-11
5.92527e-11
6.05009e-11
6.16986e-11
6.28363e-11
6.39034e-11
6.48885e-11
6.57791e-11
6.65616e-11
6.72213e-11
6.77422e-11
6.81069e-11
6.82969e-11
6.82917e-11
6.80697e-11
6.76071e-11
6.68787e-11
6.58573e-11
6.45135e-11
6.2816e-11
6.07312e-11
5.82232e-11
5.52538e-11
5.17821e-11
4.77651e-11
4.31567e-11
3.79085e-11
3.19697e-11
2.52865e-11
1.78032e-11
9.46143e-12
2.01119e-13
-1.00396e-11
-2.13237e-11
-3.37148e-11
-4.72762e-11
-6.20699e-11
-7.81553e-11
-9.55868e-11
-1.1441e-10
-1.34667e-10
-1.56414e-10
-1.79639e-10
-2.03665e-10
-2.27694e-10
-2.61691e-10
-3.31632e-10
-3.0157e-10
1.66512e-11
1.63151e-11
1.59828e-11
1.57581e-11
1.5609e-11
1.55245e-11
1.55045e-11
1.55466e-11
1.56478e-11
1.58051e-11
1.60157e-11
1.62773e-11
1.65874e-11
1.6944e-11
1.73453e-11
1.77895e-11
1.82752e-11
1.88009e-11
1.93655e-11
1.99677e-11
2.06068e-11
2.12816e-11
2.19915e-11
2.27356e-11
2.35133e-11
2.43238e-11
2.51666e-11
2.6041e-11
2.69462e-11
2.78817e-11
2.88467e-11
2.98405e-11
3.08621e-11
3.19108e-11
3.29853e-11
3.40847e-11
3.52076e-11
3.63526e-11
3.7518e-11
3.87021e-11
3.99029e-11
4.1118e-11
4.23451e-11
4.35811e-11
4.48231e-11
4.60676e-11
4.73107e-11
4.85482e-11
4.97754e-11
5.09871e-11
5.21779e-11
5.33413e-11
5.44706e-11
5.55585e-11
5.65967e-11
5.75765e-11
5.84882e-11
5.93214e-11
6.00646e-11
6.07056e-11
6.12311e-11
6.16265e-11
6.18762e-11
6.19635e-11
6.18701e-11
6.15765e-11
6.10617e-11
6.0303e-11
5.92762e-11
5.79554e-11
5.63129e-11
5.43188e-11
5.19417e-11
4.91479e-11
4.59016e-11
4.21648e-11
3.78975e-11
3.30574e-11
2.76e-11
2.14785e-11
1.46444e-11
7.04675e-12
-1.36681e-12
-1.06503e-11
-2.0859e-11
-3.20489e-11
-4.42762e-11
-5.75967e-11
-7.20646e-11
-8.77316e-11
-1.04645e-10
-1.22843e-10
-1.4236e-10
-1.6325e-10
-1.85495e-10
-2.08418e-10
-2.31226e-10
-2.63833e-10
-3.32082e-10
-3.00728e-10
1.65485e-11
1.62378e-11
1.59299e-11
1.57217e-11
1.55838e-11
1.55063e-11
1.5489e-11
1.553e-11
1.56266e-11
1.57759e-11
1.59755e-11
1.62232e-11
1.65169e-11
1.68545e-11
1.72344e-11
1.7655e-11
1.81148e-11
1.86123e-11
1.91465e-11
1.97161e-11
2.03202e-11
2.09577e-11
2.16277e-11
2.23295e-11
2.30621e-11
2.38248e-11
2.46168e-11
2.54373e-11
2.62856e-11
2.71607e-11
2.80619e-11
2.89881e-11
2.99383e-11
3.09115e-11
3.19065e-11
3.29218e-11
3.39561e-11
3.50077e-11
3.60749e-11
3.71555e-11
3.82474e-11
3.93482e-11
4.04551e-11
4.15652e-11
4.26751e-11
4.37811e-11
4.48794e-11
4.59654e-11
4.70344e-11
4.8081e-11
4.90996e-11
5.00838e-11
5.10267e-11
5.19209e-11
5.27582e-11
5.35298e-11
5.42261e-11
5.48369e-11
5.53508e-11
5.57557e-11
5.60387e-11
5.61855e-11
5.61811e-11
5.6009e-11
5.56518e-11
5.50907e-11
5.43055e-11
5.32746e-11
5.1975e-11
5.03821e-11
4.84696e-11
4.62097e-11
4.35728e-11
4.05274e-11
3.70402e-11
3.30762e-11
2.85984e-11
2.35679e-11
1.7944e-11
1.16844e-11
4.74468e-12
-2.92072e-12
-1.1359e-11
-2.06183e-11
-3.07479e-11
-4.17974e-11
-5.38163e-11
-6.68534e-11
-8.09563e-11
-9.61698e-11
-1.12534e-10
-1.30083e-10
-1.48845e-10
-1.68868e-10
-1.90133e-10
-2.11965e-10
-2.33577e-10
-2.64801e-10
-3.31266e-10
-2.98859e-10
1.64191e-11
1.61333e-11
1.58491e-11
1.56571e-11
1.55304e-11
1.54599e-11
1.54457e-11
1.5486e-11
1.55784e-11
1.57204e-11
1.59096e-11
1.61441e-11
1.64219e-11
1.67411e-11
1.71002e-11
1.74976e-11
1.79319e-11
1.84018e-11
1.89059e-11
1.94432e-11
2.00126e-11
2.06131e-11
2.12436e-11
2.19033e-11
2.25912e-11
2.33064e-11
2.40481e-11
2.48153e-11
2.5607e-11
2.64224e-11
2.72604e-11
2.81198e-11
2.89996e-11
2.98984e-11
3.08149e-11
3.17476e-11
3.26948e-11
3.36547e-11
3.46255e-11
3.56048e-11
3.65904e-11
3.75795e-11
3.85693e-11
3.95567e-11
4.05381e-11
4.15099e-11
4.24677e-11
4.34072e-11
4.43234e-11
4.52108e-11
4.60637e-11
4.68757e-11
4.76398e-11
4.83486e-11
4.8994e-11
4.95672e-11
5.00588e-11
5.04586e-11
5.07554e-11
5.09376e-11
5.09924e-11
5.09061e-11
5.06639e-11
5.02503e-11
4.96482e-11
4.88398e-11
4.78057e-11
4.65255e-11
4.49775e-11
4.31382e-11
4.09833e-11
3.84864e-11
3.56201e-11
3.23551e-11
2.86606e-11
2.45044e-11
1.98525e-11
1.46694e-11
8.91815e-12
2.56026e-12
-4.44404e-12
-1.21358e-11
-2.05571e-11
-2.97508e-11
-3.97605e-11
-5.06299e-11
-6.24024e-11
-7.51209e-11
-8.88265e-11
-1.03558e-10
-1.19351e-10
-1.36233e-10
-1.54228e-10
-1.7338e-10
-1.93668e-10
-2.14423e-10
-2.34864e-10
-2.64715e-10
-3.29314e-10
-2.96069e-10
1.62662e-11
1.6005e-11
1.57439e-11
1.55677e-11
1.54519e-11
1.53885e-11
1.53776e-11
1.54177e-11
1.55064e-11
1.56415e-11
1.58208e-11
1.60426e-11
1.6305e-11
1.66064e-11
1.69452e-11
1.732e-11
1.77293e-11
1.81719e-11
1.86465e-11
1.91519e-11
1.96871e-11
2.02509e-11
2.08423e-11
2.14604e-11
2.2104e-11
2.27723e-11
2.34641e-11
2.41785e-11
2.49145e-11
2.56708e-11
2.64464e-11
2.72401e-11
2.80504e-11
2.88761e-11
2.97155e-11
3.0567e-11
3.14289e-11
3.22991e-11
3.31756e-11
3.4056e-11
3.49378e-11
3.58182e-11
3.66941e-11
3.75623e-11
3.84192e-11
3.92609e-11
4.0083e-11
4.08811e-11
4.16499e-11
4.23842e-11
4.30779e-11
4.37248e-11
4.43179e-11
4.48497e-11
4.53122e-11
4.56968e-11
4.59941e-11
4.61942e-11
4.62862e-11
4.62587e-11
4.60993e-11
4.57947e-11
4.53309e-11
4.46927e-11
4.3864e-11
4.28277e-11
4.15654e-11
4.00578e-11
3.82844e-11
3.62233e-11
3.38516e-11
3.11449e-11
2.80776e-11
2.46227e-11
2.0752e-11
1.64358e-11
1.16432e-11
6.34192e-12
4.98534e-13
-5.92156e-12
-1.2954e-11
-2.06355e-11
-2.90032e-11
-3.80953e-11
-4.79499e-11
-5.86054e-11
-7.00998e-11
-8.24703e-11
-9.57528e-11
-1.09981e-10
-1.25184e-10
-1.41386e-10
-1.58608e-10
-1.76889e-10
-1.96206e-10
-2.15899e-10
-2.35195e-10
-2.63685e-10
-3.2635e-10
-2.92459e-10
1.60926e-11
1.58559e-11
1.56175e-11
1.54567e-11
1.53517e-11
1.52954e-11
1.52879e-11
1.53279e-11
1.54132e-11
1.55418e-11
1.57117e-11
1.59213e-11
1.6169e-11
1.6453e-11
1.6772e-11
1.71246e-11
1.75095e-11
1.79253e-11
1.83708e-11
1.88448e-11
1.93462e-11
1.98739e-11
2.04268e-11
2.10037e-11
2.16037e-11
2.22256e-11
2.28683e-11
2.35307e-11
2.42117e-11
2.491e-11
2.56242e-11
2.63532e-11
2.70954e-11
2.78492e-11
2.86131e-11
2.93852e-11
3.01636e-11
3.09462e-11
3.17308e-11
3.25148e-11
3.32956e-11
3.40703e-11
3.48357e-11
3.55885e-11
3.63248e-11
3.70408e-11
3.7732e-11
3.83938e-11
3.9021e-11
3.96082e-11
4.01495e-11
4.06384e-11
4.10681e-11
4.14312e-11
4.17199e-11
4.19255e-11
4.20389e-11
4.20504e-11
4.19495e-11
4.17251e-11
4.13651e-11
4.08569e-11
4.01869e-11
3.93407e-11
3.83029e-11
3.70572e-11
3.55863e-11
3.3872e-11
3.18951e-11
2.96352e-11
2.70709e-11
2.41796e-11
2.09378e-11
1.73207e-11
1.33023e-11
8.85561e-12
3.95266e-12
-1.43566e-12
-7.33943e-12
-1.37896e-11
-2.08179e-11
-2.84567e-11
-3.67391e-11
-4.56983e-11
-5.53679e-11
-6.57811e-11
-7.69711e-11
-8.897e-11
-1.01809e-10
-1.15516e-10
-1.30117e-10
-1.45632e-10
-1.62078e-10
-1.79492e-10
-1.97848e-10
-2.16495e-10
-2.34673e-10
-2.61815e-10
-3.22487e-10
-2.88124e-10
1.59019e-11
1.56897e-11
1.54732e-11
1.53271e-11
1.52326e-11
1.51832e-11
1.51793e-11
1.52194e-11
1.53016e-11
1.5424e-11
1.5585e-11
1.57828e-11
1.60161e-11
1.62833e-11
1.65831e-11
1.69141e-11
1.7275e-11
1.76645e-11
1.80814e-11
1.85246e-11
1.89929e-11
1.9485e-11
1.99999e-11
2.05365e-11
2.10934e-11
2.16697e-11
2.22641e-11
2.28754e-11
2.35024e-11
2.41436e-11
2.47977e-11
2.54632e-11
2.61387e-11
2.68223e-11
2.75123e-11
2.82069e-11
2.89039e-11
2.96011e-11
3.02962e-11
3.09865e-11
3.16693e-11
3.23415e-11
3.3e-11
3.36411e-11
3.42611e-11
3.48559e-11
3.5421e-11
3.59518e-11
3.64431e-11
3.68894e-11
3.72848e-11
3.7623e-11
3.78971e-11
3.80999e-11
3.82235e-11
3.82596e-11
3.81994e-11
3.80332e-11
3.77511e-11
3.73421e-11
3.67948e-11
3.6097e-11
3.52357e-11
3.41973e-11
3.29671e-11
3.15297e-11
2.9869e-11
2.79676e-11
2.58078e-11
2.33706e-11
2.06363e-11
1.7584e-11
1.41921e-11
1.0438e-11
6.29804e-12
1.74785e-12
-3.23787e-12
-8.6852e-12
-1.4621e-11
-2.10726e-11
-2.80683e-11
-3.56364e-11
-4.38058e-11
-5.26056e-11
-6.20648e-11
-7.22123e-11
-8.30765e-11
-9.46849e-11
-1.07064e-10
-1.20239e-10
-1.3423e-10
-1.49054e-10
-1.64725e-10
-1.81278e-10
-1.98684e-10
-2.16305e-10
-2.33391e-10
-2.59201e-10
-3.17835e-10
-2.83156e-10
1.57e-11
1.55098e-11
1.53138e-11
1.51818e-11
1.50974e-11
1.50548e-11
1.50544e-11
1.50947e-11
1.51741e-11
1.52907e-11
1.5443e-11
1.56295e-11
1.58489e-11
1.60998e-11
1.63808e-11
1.66907e-11
1.70282e-11
1.73921e-11
1.77811e-11
1.81941e-11
1.86298e-11
1.9087e-11
1.95647e-11
2.00615e-11
2.05763e-11
2.11079e-11
2.16549e-11
2.2216e-11
2.279e-11
2.33754e-11
2.39706e-11
2.45742e-11
2.51844e-11
2.57995e-11
2.64175e-11
2.70365e-11
2.76543e-11
2.82686e-11
2.88768e-11
2.94763e-11
3.00641e-11
3.06373e-11
3.11923e-11
3.17258e-11
3.22336e-11
3.27119e-11
3.31559e-11
3.35611e-11
3.39223e-11
3.42339e-11
3.44901e-11
3.46846e-11
3.48108e-11
3.48614e-11
3.48288e-11
3.47048e-11
3.44809e-11
3.41477e-11
3.36956e-11
3.31141e-11
3.23922e-11
3.15184e-11
3.04802e-11
2.92647e-11
2.78581e-11
2.62459e-11
2.44128e-11
2.23428e-11
2.00194e-11
1.74251e-11
1.45417e-11
1.13501e-11
7.83073e-12
3.96286e-12
-2.74761e-13
-4.90411e-12
-9.94781e-12
-1.54291e-11
-2.13716e-11
-2.77997e-11
-3.47378e-11
-4.22109e-11
-5.02438e-11
-5.88618e-11
-6.80897e-11
-7.79522e-11
-8.84735e-11
-9.96772e-11
-1.11586e-10
-1.2422e-10
-1.37597e-10
-1.5173e-10
-1.66631e-10
-1.82332e-10
-1.98803e-10
-2.15417e-10
-2.3144e-10
-2.55935e-10
-3.12496e-10
-2.77639e-10
1.54894e-11
1.53184e-11
1.51411e-11
1.50225e-11
1.49482e-11
1.49125e-11
1.49156e-11
1.49564e-11
1.50331e-11
1.51441e-11
1.52882e-11
1.54638e-11
1.56698e-11
1.59049e-11
1.61677e-11
1.64571e-11
1.67717e-11
1.71105e-11
1.74722e-11
1.78556e-11
1.82595e-11
1.86826e-11
1.91238e-11
1.95818e-11
2.00553e-11
2.0543e-11
2.10437e-11
2.15558e-11
2.20781e-11
2.26089e-11
2.31467e-11
2.36898e-11
2.42365e-11
2.47848e-11
2.53328e-11
2.58784e-11
2.64194e-11
2.69532e-11
2.74772e-11
2.79888e-11
2.8485e-11
2.89625e-11