/*--------------------------------*- C++ -*----------------------------------*\
  =========                 |
  \\      /  F ield         | OpenFOAM: The Open Source CFD Toolbox
   \\    /   O peration     | Website:  https://openfoam.org
    \\  /    A nd           | Version:  11
     \\/     M anipulation  |
\*---------------------------------------------------------------------------*/
FoamFile
{
    format      ascii;
    class       surfaceScalarField;
    location    "346";
    object      phi;
}
// * * * * * * * * * * * * * * * * * * * * * * * * * * * * * * * * * * * * * //

dimensions      [0 3 -1 0 0 0 0];

internalField   nonuniform List<scalar> 
19800
(
1.99987e-05
-1.38759e-08
1.99964e-05
-4.12418e-08
1.99936e-05
-6.87534e-08
1.99902e-05
-9.68231e-08
1.99863e-05
-1.25738e-07
1.99817e-05
-1.55692e-07
1.99765e-05
-1.86839e-07
1.99706e-05
-2.19309e-07
1.99641e-05
-2.53215e-07
1.99568e-05
-2.88662e-07
1.99487e-05
-3.25748e-07
1.99398e-05
-3.64565e-07
1.993e-05
-4.05206e-07
1.99193e-05
-4.47759e-07
1.99076e-05
-4.9231e-07
1.98949e-05
-5.38945e-07
1.98811e-05
-5.8775e-07
1.98662e-05
-6.38807e-07
1.985e-05
-6.92201e-07
1.98326e-05
-7.48011e-07
1.98138e-05
-8.06318e-07
1.97936e-05
-8.67201e-07
1.97719e-05
-9.30736e-07
1.97487e-05
-9.96996e-07
1.97238e-05
-1.06605e-06
1.96971e-05
-1.13797e-06
1.96687e-05
-1.21282e-06
1.96384e-05
-1.29065e-06
1.9606e-05
-1.37153e-06
1.95716e-05
-1.45548e-06
1.95351e-05
-1.54256e-06
1.94963e-05
-1.63279e-06
1.94551e-05
-1.72618e-06
1.94115e-05
-1.82276e-06
1.93653e-05
-1.92251e-06
1.93165e-05
-2.02542e-06
1.92649e-05
-2.13143e-06
1.92105e-05
-2.24051e-06
1.91532e-05
-2.35258e-06
1.90929e-05
-2.46753e-06
1.90294e-05
-2.58524e-06
1.89627e-05
-2.70555e-06
1.88928e-05
-2.82828e-06
1.88195e-05
-2.95322e-06
1.87428e-05
-3.0801e-06
1.86626e-05
-3.20863e-06
1.85789e-05
-3.33848e-06
1.84917e-05
-3.46926e-06
1.8401e-05
-3.60054e-06
1.83067e-05
-3.73186e-06
1.82089e-05
-3.86269e-06
1.81077e-05
-3.99248e-06
1.80032e-05
-4.12061e-06
1.78953e-05
-4.24644e-06
1.77844e-05
-4.36931e-06
1.76706e-05
-4.4885e-06
1.7554e-05
-4.60332e-06
1.7435e-05
-4.71305e-06
1.73137e-05
-4.817e-06
1.71905e-05
-4.91449e-06
1.70657e-05
-5.00491e-06
1.69397e-05
-5.08768e-06
1.68129e-05
-5.16233e-06
1.66859e-05
-5.22847e-06
1.65591e-05
-5.28587e-06
1.64323e-05
-5.33409e-06
1.63043e-05
-5.37275e-06
1.61754e-05
-5.40154e-06
1.6046e-05
-5.42086e-06
1.59168e-05
-5.43126e-06
1.57897e-05
-5.43342e-06
1.5666e-05
-5.42754e-06
1.55459e-05
-5.41357e-06
1.54295e-05
-5.39169e-06
1.53166e-05
-5.36218e-06
1.52064e-05
-5.32566e-06
1.50986e-05
-5.28307e-06
1.49935e-05
-5.23501e-06
1.48913e-05
-5.18194e-06
1.47921e-05
-5.12434e-06
1.46962e-05
-5.06274e-06
1.46035e-05
-4.99766e-06
1.45142e-05
-4.92961e-06
1.44283e-05
-4.85911e-06
1.4346e-05
-4.78667e-06
1.42672e-05
-4.7128e-06
1.41922e-05
-4.638e-06
1.41208e-05
-4.5628e-06
1.40534e-05
-4.48771e-06
1.39898e-05
-4.41328e-06
1.39304e-05
-4.34007e-06
1.38751e-05
-4.2687e-06
1.38242e-05
-4.1998e-06
1.37779e-05
-4.13413e-06
1.37364e-05
-4.0725e-06
1.37001e-05
-4.01591e-06
1.36692e-05
-3.96552e-06
1.36444e-05
-3.9228e-06
1.36265e-05
-3.89014e-06
-3.87214e-06
1.9999e-05
-1.2877e-08
1.99969e-05
-3.91522e-08
1.99941e-05
-6.59594e-08
1.99907e-05
-9.34228e-08
1.99867e-05
-1.21746e-07
1.99821e-05
-1.51098e-07
1.99769e-05
-1.81619e-07
1.9971e-05
-2.13431e-07
1.99645e-05
-2.46643e-07
1.99572e-05
-2.81356e-07
1.99491e-05
-3.17664e-07
1.99402e-05
-3.5566e-07
1.99304e-05
-3.9543e-07
1.99197e-05
-4.37061e-07
1.9908e-05
-4.80637e-07
1.98953e-05
-5.26243e-07
1.98815e-05
-5.73959e-07
1.98666e-05
-6.23868e-07
1.98504e-05
-6.76049e-07
1.9833e-05
-7.30581e-07
1.98142e-05
-7.87543e-07
1.9794e-05
-8.47009e-07
1.97724e-05
-9.09054e-07
1.97491e-05
-9.73749e-07
1.97242e-05
-1.04116e-06
1.96976e-05
-1.11136e-06
1.96692e-05
-1.1844e-06
1.96389e-05
-1.26034e-06
1.96066e-05
-1.33923e-06
1.95722e-05
-1.42111e-06
1.95357e-05
-1.50603e-06
1.94969e-05
-1.594e-06
1.94557e-05
-1.68505e-06
1.94122e-05
-1.77918e-06
1.9366e-05
-1.87639e-06
1.93173e-05
-1.97665e-06
1.92658e-05
-2.07993e-06
1.92114e-05
-2.18618e-06
1.91542e-05
-2.29531e-06
1.90939e-05
-2.40724e-06
1.90305e-05
-2.52184e-06
1.89639e-05
-2.63896e-06
1.8894e-05
-2.75842e-06
1.88208e-05
-2.88002e-06
1.87442e-05
-3.00349e-06
1.86641e-05
-3.12856e-06
1.85806e-05
-3.25491e-06
1.84935e-05
-3.38217e-06
1.84029e-05
-3.50992e-06
1.83087e-05
-3.63772e-06
1.82111e-05
-3.76506e-06
1.811e-05
-3.89142e-06
1.80056e-05
-4.0162e-06
1.7898e-05
-4.13879e-06
1.77872e-05
-4.25856e-06
1.76735e-05
-4.37483e-06
1.75571e-05
-4.48692e-06
1.74382e-05
-4.59416e-06
1.73171e-05
-4.69587e-06
1.7194e-05
-4.79143e-06
1.70694e-05
-4.88022e-06
1.69434e-05
-4.9617e-06
1.68164e-05
-5.03538e-06
1.66888e-05
-5.10086e-06
1.65607e-05
-5.15775e-06
1.64321e-05
-5.20554e-06
1.63034e-05
-5.24398e-06
1.61752e-05
-5.27337e-06
1.60482e-05
-5.29383e-06
1.59226e-05
-5.30568e-06
1.57986e-05
-5.30945e-06
1.56765e-05
-5.30538e-06
1.55564e-05
-5.29351e-06
1.54389e-05
-5.2742e-06
1.53244e-05
-5.24771e-06
1.52131e-05
-5.2143e-06
1.51047e-05
-5.1747e-06
1.49993e-05
-5.12959e-06
1.48969e-05
-5.07954e-06
1.47976e-05
-5.02505e-06
1.47015e-05
-4.96666e-06
1.46087e-05
-4.90486e-06
1.45193e-05
-4.84017e-06
1.44333e-05
-4.77311e-06
1.43508e-05
-4.70418e-06
1.42719e-05
-4.63389e-06
1.41966e-05
-4.56274e-06
1.41251e-05
-4.49127e-06
1.40574e-05
-4.42001e-06
1.39936e-05
-4.34949e-06
1.39339e-05
-4.28032e-06
1.38783e-05
-4.2131e-06
1.3827e-05
-4.14852e-06
1.37802e-05
-4.08733e-06
1.37381e-05
-4.03038e-06
1.37009e-05
-3.9787e-06
1.36688e-05
-3.93348e-06
1.36422e-05
-3.89615e-06
1.36208e-05
-3.8688e-06
-3.85473e-06
1.99992e-05
-1.21261e-08
1.99974e-05
-3.72953e-08
1.99947e-05
-6.3292e-08
1.99914e-05
-9.0083e-08
1.99874e-05
-1.1778e-07
1.99828e-05
-1.46512e-07
1.99776e-05
-1.76398e-07
1.99717e-05
-2.07548e-07
1.99652e-05
-2.40064e-07
1.99578e-05
-2.74043e-07
1.99497e-05
-3.09576e-07
1.99408e-05
-3.4675e-07
1.99311e-05
-3.85651e-07
1.99204e-05
-4.26363e-07
1.99087e-05
-4.68967e-07
1.9896e-05
-5.13544e-07
1.98822e-05
-5.60174e-07
1.98673e-05
-6.08936e-07
1.98511e-05
-6.59908e-07
1.98337e-05
-7.13165e-07
1.9815e-05
-7.68784e-07
1.97948e-05
-8.26837e-07
1.97731e-05
-8.87395e-07
1.97499e-05
-9.50527e-07
1.9725e-05
-1.0163e-06
1.96985e-05
-1.08478e-06
1.96701e-05
-1.15601e-06
1.96398e-05
-1.23006e-06
1.96076e-05
-1.30698e-06
1.95732e-05
-1.3868e-06
1.95368e-05
-1.46955e-06
1.9498e-05
-1.55528e-06
1.9457e-05
-1.64398e-06
1.94135e-05
-1.73567e-06
1.93674e-05
-1.83034e-06
1.93187e-05
-1.92797e-06
1.92673e-05
-2.02852e-06
1.92131e-05
-2.13195e-06
1.9156e-05
-2.23817e-06
1.90958e-05
-2.34708e-06
1.90325e-05
-2.45859e-06
1.89661e-05
-2.57252e-06
1.88964e-05
-2.68873e-06
1.88234e-05
-2.80699e-06
1.8747e-05
-2.92707e-06
1.86671e-05
-3.0487e-06
1.85838e-05
-3.17157e-06
1.84969e-05
-3.29532e-06
1.84065e-05
-3.41955e-06
1.83127e-05
-3.54385e-06
1.82153e-05
-3.66773e-06
1.81146e-05
-3.79066e-06
1.80105e-05
-3.91211e-06
1.79032e-05
-4.03149e-06
1.77928e-05
-4.14817e-06
1.76795e-05
-4.26151e-06
1.75635e-05
-4.37089e-06
1.74449e-05
-4.47563e-06
1.73242e-05
-4.5751e-06
1.72014e-05
-4.66869e-06
1.7077e-05
-4.7558e-06
1.69512e-05
-4.83591e-06
1.68244e-05
-4.90852e-06
1.66967e-05
-4.97321e-06
1.65685e-05
-5.02955e-06
1.64401e-05
-5.07717e-06
1.63121e-05
-5.11592e-06
1.61847e-05
-5.146e-06
1.60584e-05
-5.16755e-06
1.59336e-05
-5.18082e-06
1.58103e-05
-5.18616e-06
1.56887e-05
-5.18383e-06
1.55692e-05
-5.174e-06
1.5452e-05
-5.15699e-06
1.53374e-05
-5.13307e-06
1.52256e-05
-5.10252e-06
1.51168e-05
-5.06589e-06
1.5011e-05
-5.0238e-06
1.49082e-05
-4.97681e-06
1.48087e-05
-4.92546e-06
1.47123e-05
-4.87027e-06
1.46192e-05
-4.81175e-06
1.45294e-05
-4.75042e-06
1.44431e-05
-4.68677e-06
1.43602e-05
-4.62132e-06
1.42809e-05
-4.55458e-06
1.42052e-05
-4.48706e-06
1.41332e-05
-4.41928e-06
1.4065e-05
-4.35179e-06
1.40007e-05
-4.28513e-06
1.39402e-05
-4.21991e-06
1.38839e-05
-4.15675e-06
1.38317e-05
-4.09633e-06
1.37838e-05
-4.03943e-06
1.37403e-05
-3.9869e-06
1.37013e-05
-3.93973e-06
1.36669e-05
-3.89906e-06
1.3637e-05
-3.8662e-06
1.3611e-05
-3.84278e-06
-3.83108e-06
1.99994e-05
-1.1515e-08
1.99977e-05
-3.56561e-08
1.99953e-05
-6.08006e-08
1.9992e-05
-8.68613e-08
1.99881e-05
-1.13889e-07
1.99836e-05
-1.4197e-07
1.99784e-05
-1.71201e-07
1.99725e-05
-2.01678e-07
1.9966e-05
-2.33491e-07
1.99587e-05
-2.66732e-07
1.99506e-05
-3.01487e-07
1.99417e-05
-3.37839e-07
1.99319e-05
-3.75872e-07
1.99212e-05
-4.15665e-07
1.99095e-05
-4.57298e-07
1.98968e-05
-5.00849e-07
1.9883e-05
-5.46395e-07
1.98681e-05
-5.94013e-07
1.9852e-05
-6.43778e-07
1.98346e-05
-6.95764e-07
1.98158e-05
-7.50043e-07
1.97957e-05
-8.06686e-07
1.97741e-05
-8.65762e-07
1.97509e-05
-9.27336e-07
1.9726e-05
-9.91474e-07
1.96995e-05
-1.05823e-06
1.96712e-05
-1.12767e-06
1.96409e-05
-1.19984e-06
1.96087e-05
-1.27479e-06
1.95745e-05
-1.35255e-06
1.95381e-05
-1.43315e-06
1.94994e-05
-1.51663e-06
1.94585e-05
-1.603e-06
1.94151e-05
-1.69226e-06
1.93691e-05
-1.78441e-06
1.93206e-05
-1.87942e-06
1.92693e-05
-1.97725e-06
1.92152e-05
-2.07786e-06
1.91582e-05
-2.18118e-06
1.90983e-05
-2.2871e-06
1.90352e-05
-2.39552e-06
1.8969e-05
-2.5063e-06
1.88995e-05
-2.61926e-06
1.88267e-05
-2.73421e-06
1.87506e-05
-2.85092e-06
1.8671e-05
-2.96913e-06
1.8588e-05
-3.08854e-06
1.85015e-05
-3.20881e-06
1.84115e-05
-3.32956e-06
1.8318e-05
-3.45038e-06
1.82211e-05
-3.57081e-06
1.81208e-05
-3.69037e-06
1.80172e-05
-3.80851e-06
1.79104e-05
-3.92468e-06
1.78005e-05
-4.0383e-06
1.76878e-05
-4.14874e-06
1.75723e-05
-4.2554e-06
1.74543e-05
-4.35765e-06
1.73341e-05
-4.45488e-06
1.72119e-05
-4.54648e-06
1.7088e-05
-4.63189e-06
1.69626e-05
-4.71059e-06
1.68362e-05
-4.78209e-06
1.67089e-05
-4.84596e-06
1.65812e-05
-4.90182e-06
1.64534e-05
-4.94937e-06
1.6326e-05
-4.98849e-06
1.61993e-05
-5.01928e-06
1.60736e-05
-5.04188e-06
1.59493e-05
-5.05648e-06
1.58265e-05
-5.06335e-06
1.57054e-05
-5.06273e-06
1.55862e-05
-5.05485e-06
1.54692e-05
-5.04001e-06
1.53547e-05
-5.01849e-06
1.52427e-05
-4.99062e-06
1.51337e-05
-4.95684e-06
1.50276e-05
-4.9177e-06
1.49245e-05
-4.87376e-06
1.48246e-05
-4.82552e-06
1.47278e-05
-4.77351e-06
1.46343e-05
-4.71825e-06
1.45441e-05
-4.66023e-06
1.44573e-05
-4.59997e-06
1.4374e-05
-4.53796e-06
1.42941e-05
-4.47472e-06
1.42178e-05
-4.41077e-06
1.41452e-05
-4.34662e-06
1.40762e-05
-4.28282e-06
1.4011e-05
-4.21993e-06
1.39496e-05
-4.15854e-06
1.38922e-05
-4.09929e-06
1.38387e-05
-4.04285e-06
1.37893e-05
-3.98999e-06
1.37439e-05
-3.94152e-06
1.37025e-05
-3.89839e-06
1.36651e-05
-3.86164e-06
1.36313e-05
-3.83239e-06
1.36005e-05
-3.81197e-06
-3.80218e-06
1.99995e-05
-1.09983e-08
1.9998e-05
-3.41871e-08
1.99957e-05
-5.84823e-08
1.99926e-05
-8.3782e-08
1.99888e-05
-1.10104e-07
1.99844e-05
-1.37504e-07
1.99792e-05
-1.66058e-07
1.99734e-05
-1.95843e-07
1.99668e-05
-2.26942e-07
1.99595e-05
-2.59437e-07
1.99515e-05
-2.93409e-07
1.99426e-05
-3.28936e-07
1.99328e-05
-3.66098e-07
1.99221e-05
-4.04972e-07
1.99104e-05
-4.45634e-07
1.98977e-05
-4.88161e-07
1.9884e-05
-5.32625e-07
1.98691e-05
-5.79102e-07
1.98529e-05
-6.27663e-07
1.98356e-05
-6.78381e-07
1.98168e-05
-7.31324e-07
1.97967e-05
-7.86562e-07
1.97751e-05
-8.4416e-07
1.9752e-05
-9.04182e-07
1.97272e-05
-9.6669e-07
1.97007e-05
-1.03174e-06
1.96724e-05
-1.09939e-06
1.96422e-05
-1.16968e-06
1.96101e-05
-1.24266e-06
1.9576e-05
-1.31838e-06
1.95396e-05
-1.39684e-06
1.95011e-05
-1.47809e-06
1.94602e-05
-1.56214e-06
1.9417e-05
-1.64898e-06
1.93712e-05
-1.73861e-06
1.93228e-05
-1.83102e-06
1.92717e-05
-1.92615e-06
1.92178e-05
-2.02397e-06
1.9161e-05
-2.12439e-06
1.91012e-05
-2.22734e-06
1.90384e-05
-2.3327e-06
1.89724e-05
-2.44034e-06
1.89033e-05
-2.55008e-06
1.88308e-05
-2.66175e-06
1.8755e-05
-2.77512e-06
1.86758e-05
-2.88994e-06
1.85932e-05
-3.00592e-06
1.85071e-05
-3.12274e-06
1.84176e-05
-3.24004e-06
1.83246e-05
-3.35742e-06
1.82283e-05
-3.47444e-06
1.81285e-05
-3.59064e-06
1.80255e-05
-3.70551e-06
1.79194e-05
-3.81851e-06
1.78102e-05
-3.92909e-06
1.76981e-05
-4.03666e-06
1.75833e-05
-4.14062e-06
1.7466e-05
-4.24039e-06
1.73465e-05
-4.33536e-06
1.7225e-05
-4.42497e-06
1.71018e-05
-4.50867e-06
1.69771e-05
-4.58594e-06
1.68514e-05
-4.65632e-06
1.67248e-05
-4.71939e-06
1.65978e-05
-4.7748e-06
1.64707e-05
-4.82229e-06
1.6344e-05
-4.86175e-06
1.62179e-05
-4.89322e-06
1.60928e-05
-4.9168e-06
1.5969e-05
-4.93264e-06
1.58466e-05
-4.94097e-06
1.57259e-05
-4.94201e-06
1.5607e-05
-4.93602e-06
1.54903e-05
-4.92326e-06
1.53758e-05
-4.90404e-06
1.52639e-05
-4.87869e-06
1.51547e-05
-4.84764e-06
1.50484e-05
-4.81137e-06
1.4945e-05
-4.77039e-06
1.48447e-05
-4.72521e-06
1.47476e-05
-4.67634e-06
1.46536e-05
-4.62428e-06
1.45629e-05
-4.56953e-06
1.44755e-05
-4.51259e-06
1.43915e-05
-4.45397e-06
1.4311e-05
-4.39418e-06
1.42339e-05
-4.33371e-06
1.41604e-05
-4.27311e-06
1.40905e-05
-4.21291e-06
1.40243e-05
-4.15367e-06
1.39617e-05
-4.09598e-06
1.39028e-05
-4.04046e-06
1.38478e-05
-3.98777e-06
1.37964e-05
-3.93866e-06
1.37488e-05
-3.8939e-06
1.37048e-05
-3.85435e-06
1.36641e-05
-3.82094e-06
1.36263e-05
-3.79463e-06
1.35909e-05
-3.77657e-06
-3.76857e-06
1.99995e-05
-1.05458e-08
1.99982e-05
-3.28522e-08
1.9996e-05
-5.63187e-08
1.99931e-05
-8.08479e-08
1.99895e-05
-1.06441e-07
1.99851e-05
-1.33137e-07
1.998e-05
-1.6099e-07
1.99742e-05
-1.90066e-07
1.99677e-05
-2.20437e-07
1.99605e-05
-2.52175e-07
1.99524e-05
-2.85355e-07
1.99435e-05
-3.20053e-07
1.99338e-05
-3.56341e-07
1.99231e-05
-3.94294e-07
1.99115e-05
-4.33985e-07
1.98988e-05
-4.75487e-07
1.9885e-05
-5.18871e-07
1.98701e-05
-5.64209e-07
1.9854e-05
-6.11569e-07
1.98367e-05
-6.61022e-07
1.9818e-05
-7.12633e-07
1.97979e-05
-7.6647e-07
1.97763e-05
-8.22596e-07
1.97532e-05
-8.81072e-07
1.97285e-05
-9.41957e-07
1.97021e-05
-1.00531e-06
1.96738e-05
-1.07117e-06
1.96438e-05
-1.1396e-06
1.96117e-05
-1.21063e-06
1.95776e-05
-1.2843e-06
1.95414e-05
-1.36064e-06
1.9503e-05
-1.43967e-06
1.94623e-05
-1.52141e-06
1.94192e-05
-1.60585e-06
1.93735e-05
-1.69298e-06
1.93253e-05
-1.7828e-06
1.92744e-05
-1.87525e-06
1.92207e-05
-1.97029e-06
1.91642e-05
-2.06785e-06
1.91047e-05
-2.16785e-06
1.90422e-05
-2.27018e-06
1.89765e-05
-2.3747e-06
1.89077e-05
-2.48126e-06
1.88356e-05
-2.58967e-06
1.87602e-05
-2.69973e-06
1.86815e-05
-2.8112e-06
1.85993e-05
-2.92379e-06
1.85138e-05
-3.0372e-06
1.84248e-05
-3.15108e-06
1.83325e-05
-3.26505e-06
1.82367e-05
-3.37871e-06
1.81377e-05
-3.49159e-06
1.80354e-05
-3.60322e-06
1.793e-05
-3.71309e-06
1.78215e-05
-3.82066e-06
1.77103e-05
-3.92537e-06
1.75963e-05
-4.02667e-06
1.74799e-05
-4.12396e-06
1.73612e-05
-4.2167e-06
1.72406e-05
-4.30432e-06
1.71182e-05
-4.3863e-06
1.69944e-05
-4.46214e-06
1.68695e-05
-4.53139e-06
1.67437e-05
-4.59366e-06
1.66175e-05
-4.64861e-06
1.64913e-05
-4.69602e-06
1.63653e-05
-4.73577e-06
1.62399e-05
-4.76785e-06
1.61154e-05
-4.79232e-06
1.59921e-05
-4.80932e-06
1.58702e-05
-4.81904e-06
1.57499e-05
-4.82168e-06
1.56313e-05
-4.81749e-06
1.55148e-05
-4.80674e-06
1.54005e-05
-4.78973e-06
1.52886e-05
-4.7668e-06
1.51793e-05
-4.73836e-06
1.50728e-05
-4.70485e-06
1.49691e-05
-4.66675e-06
1.48685e-05
-4.62455e-06
1.47709e-05
-4.57873e-06
1.46764e-05
-4.5298e-06
1.45851e-05
-4.47825e-06
1.44971e-05
-4.42457e-06
1.44124e-05
-4.36926e-06
1.4331e-05
-4.31282e-06
1.42531e-05
-4.25577e-06
1.41786e-05
-4.19862e-06
1.41076e-05
-4.1419e-06
1.40401e-05
-4.08617e-06
1.39761e-05
-4.03201e-06
1.39156e-05
-3.98002e-06
1.38587e-05
-3.93086e-06
1.38053e-05
-3.88521e-06
1.37552e-05
-3.84381e-06
1.37083e-05
-3.80743e-06
1.36643e-05
-3.7769e-06
1.36227e-05
-3.75304e-06
1.35829e-05
-3.73681e-06
-3.73032e-06
1.99996e-05
-1.01382e-08
1.99984e-05
-3.16228e-08
1.99963e-05
-5.42889e-08
1.99935e-05
-7.80511e-08
1.999e-05
-1.02906e-07
1.99857e-05
-1.28879e-07
1.99808e-05
-1.56014e-07
1.99751e-05
-1.84364e-07
1.99686e-05
-2.13991e-07
1.99614e-05
-2.44961e-07
1.99534e-05
-2.77342e-07
1.99445e-05
-3.11202e-07
1.99348e-05
-3.46612e-07
1.99242e-05
-3.83642e-07
1.99125e-05
-4.2236e-07
1.98999e-05
-4.62837e-07
1.98862e-05
-5.05142e-07
1.98713e-05
-5.49341e-07
1.98552e-05
-5.95504e-07
1.98379e-05
-6.43695e-07
1.98192e-05
-6.93979e-07
1.97992e-05
-7.4642e-07
1.97777e-05
-8.0108e-07
1.97546e-05
-8.58016e-07
1.97299e-05
-9.17285e-07
1.97036e-05
-9.78941e-07
1.96754e-05
-1.04303e-06
1.96455e-05
-1.1096e-06
1.96135e-05
-1.17869e-06
1.95796e-05
-1.25034e-06
1.95435e-05
-1.32456e-06
1.95052e-05
-1.40139e-06
1.94646e-05
-1.48083e-06
1.94217e-05
-1.56288e-06
1.93762e-05
-1.64754e-06
1.93282e-05
-1.73478e-06
1.92775e-05
-1.82458e-06
1.92241e-05
-1.91687e-06
1.91678e-05
-2.01159e-06
1.91087e-05
-2.10867e-06
1.90465e-05
-2.20798e-06
1.89812e-05
-2.30942e-06
1.89128e-05
-2.41283e-06
1.88411e-05
-2.51803e-06
1.87662e-05
-2.62482e-06
1.8688e-05
-2.73296e-06
1.86064e-05
-2.8422e-06
1.85214e-05
-2.95224e-06
1.84331e-05
-3.06275e-06
1.83414e-05
-3.17337e-06
1.82464e-05
-3.28369e-06
1.81481e-05
-3.39331e-06
1.80466e-05
-3.50174e-06
1.79421e-05
-3.60851e-06
1.78345e-05
-3.71311e-06
1.77241e-05
-3.815e-06
1.76111e-05
-3.91364e-06
1.74956e-05
-4.00849e-06
1.73779e-05
-4.099e-06
1.72582e-05
-4.18463e-06
1.71368e-05
-4.26489e-06
1.7014e-05
-4.3393e-06
1.689e-05
-4.40742e-06
1.67652e-05
-4.46887e-06
1.664e-05
-4.52335e-06
1.65146e-05
-4.57064e-06
1.63894e-05
-4.6106e-06
1.62648e-05
-4.6432e-06
1.6141e-05
-4.66849e-06
1.60182e-05
-4.68656e-06
1.58967e-05
-4.69758e-06
1.57768e-05
-4.70174e-06
1.56586e-05
-4.69927e-06
1.55423e-05
-4.69045e-06
1.54281e-05
-4.67556e-06
1.53163e-05
-4.65496e-06
1.52069e-05
-4.62901e-06
1.51002e-05
-4.59815e-06
1.49963e-05
-4.56283e-06
1.48953e-05
-4.52351e-06
1.47972e-05
-4.48067e-06
1.47022e-05
-4.43479e-06
1.46103e-05
-4.38635e-06
1.45216e-05
-4.33584e-06
1.44361e-05
-4.28375e-06
1.43538e-05
-4.23058e-06
1.42749e-05
-4.17683e-06
1.41993e-05
-4.123e-06
1.4127e-05
-4.06964e-06
1.40581e-05
-4.01727e-06
1.39926e-05
-3.96647e-06
1.39304e-05
-3.91782e-06
1.38715e-05
-3.87195e-06
1.38157e-05
-3.82949e-06
1.37631e-05
-3.79114e-06
1.37132e-05
-3.75759e-06
1.36659e-05
-3.72957e-06
1.36206e-05
-3.70778e-06
1.35769e-05
-3.69302e-06
-3.68754e-06
1.99996e-05
-9.76321e-09
1.99985e-05
-3.04765e-08
1.99966e-05
-5.23724e-08
1.99939e-05
-7.53789e-08
1.99905e-05
-9.94929e-08
1.99863e-05
-1.24734e-07
1.99815e-05
-1.51138e-07
1.99758e-05
-1.78749e-07
1.99695e-05
-2.0762e-07
1.99623e-05
-2.37811e-07
1.99544e-05
-2.69383e-07
1.99456e-05
-3.02399e-07
1.99359e-05
-3.36925e-07
1.99253e-05
-3.73027e-07
1.99137e-05
-4.10771e-07
1.9901e-05
-4.50222e-07
1.98874e-05
-4.91447e-07
1.98725e-05
-5.3451e-07
1.98565e-05
-5.79476e-07
1.98392e-05
-6.26409e-07
1.98206e-05
-6.75371e-07
1.98006e-05
-7.26422e-07
1.97791e-05
-7.79621e-07
1.97562e-05
-8.35024e-07
1.97316e-05
-8.92686e-07
1.97053e-05
-9.52657e-07
1.96772e-05
-1.01498e-06
1.96473e-05
-1.07971e-06
1.96155e-05
-1.14687e-06
1.95817e-05
-1.2165e-06
1.95457e-05
-1.28863e-06
1.95076e-05
-1.36327e-06
1.94672e-05
-1.44043e-06
1.94244e-05
-1.52012e-06
1.93792e-05
-1.60232e-06
1.93314e-05
-1.68701e-06
1.9281e-05
-1.77417e-06
1.92279e-05
-1.86373e-06
1.9172e-05
-1.95565e-06
1.91131e-05
-2.04982e-06
1.90513e-05
-2.14617e-06
1.89864e-05
-2.24456e-06
1.89185e-05
-2.34485e-06
1.88473e-05
-2.44687e-06
1.87729e-05
-2.55042e-06
1.86952e-05
-2.65529e-06
1.86143e-05
-2.76123e-06
1.853e-05
-2.86794e-06
1.84423e-05
-2.97512e-06
1.83514e-05
-3.08243e-06
1.82572e-05
-3.18947e-06
1.81597e-05
-3.29586e-06
1.80591e-05
-3.40114e-06
1.79555e-05
-3.50485e-06
1.78489e-05
-3.60651e-06
1.77395e-05
-3.70561e-06
1.76275e-05
-3.80163e-06
1.7513e-05
-3.89405e-06
1.73964e-05
-3.98235e-06
1.72778e-05
-4.06601e-06
1.71574e-05
-4.14455e-06
1.70356e-05
-4.21751e-06
1.69127e-05
-4.28449e-06
1.67889e-05
-4.34511e-06
1.66647e-05
-4.39909e-06
1.65402e-05
-4.44619e-06
1.64159e-05
-4.48629e-06
1.62921e-05
-4.51934e-06
1.61689e-05
-4.54534e-06
1.60467e-05
-4.56439e-06
1.59258e-05
-4.57662e-06
1.58063e-05
-4.58222e-06
1.56884e-05
-4.58139e-06
1.55724e-05
-4.57441e-06
1.54584e-05
-4.56156e-06
1.53466e-05
-4.54317e-06
1.52372e-05
-4.51962e-06
1.51303e-05
-4.4913e-06
1.50261e-05
-4.45865e-06
1.49247e-05
-4.42211e-06
1.48262e-05
-4.38214e-06
1.47306e-05
-4.33921e-06
1.46381e-05
-4.29379e-06
1.45486e-05
-4.24636e-06
1.44622e-05
-4.19739e-06
1.4379e-05
-4.14737e-06
1.4299e-05
-4.09681e-06
1.42222e-05
-4.04619e-06
1.41486e-05
-3.99603e-06
1.40782e-05
-3.94688e-06
1.4011e-05
-3.89926e-06
1.39469e-05
-3.85375e-06
1.38859e-05
-3.81093e-06
1.38278e-05
-3.77142e-06
1.37725e-05
-3.73584e-06
1.37197e-05
-3.70483e-06
1.36692e-05
-3.67902e-06
1.36204e-05
-3.65903e-06
1.35729e-05
-3.64554e-06
-3.64059e-06
1.99996e-05
-9.41274e-09
1.99986e-05
-2.93966e-08
1.99967e-05
-5.05513e-08
1.99942e-05
-7.28177e-08
1.99909e-05
-9.61952e-08
1.99869e-05
-1.20701e-07
1.99821e-05
-1.46366e-07
1.99766e-05
-1.73227e-07
1.99703e-05
-2.01333e-07
1.99632e-05
-2.30735e-07
1.99553e-05
-2.61489e-07
1.99466e-05
-2.93654e-07
1.99369e-05
-3.27291e-07
1.99264e-05
-3.62461e-07
1.99148e-05
-3.99227e-07
1.99022e-05
-4.37651e-07
1.98886e-05
-4.77797e-07
1.98738e-05
-5.19725e-07
1.98578e-05
-5.63498e-07
1.98406e-05
-6.09176e-07
1.9822e-05
-6.56819e-07
1.98021e-05
-7.06485e-07
1.97807e-05
-7.5823e-07
1.97578e-05
-8.12108e-07
1.97333e-05
-8.68171e-07
1.97071e-05
-9.26467e-07
1.96792e-05
-9.87041e-07
1.96494e-05
-1.04993e-06
1.96177e-05
-1.11518e-06
1.9584e-05
-1.18281e-06
1.95482e-05
-1.25285e-06
1.95103e-05
-1.32532e-06
1.94701e-05
-1.40022e-06
1.94275e-05
-1.47756e-06
1.93825e-05
-1.55733e-06
1.9335e-05
-1.6395e-06
1.92849e-05
-1.72404e-06
1.92321e-05
-1.81091e-06
1.91765e-05
-1.90005e-06
1.9118e-05
-1.99136e-06
1.90566e-05
-2.08477e-06
1.89922e-05
-2.18014e-06
1.89247e-05
-2.27735e-06
1.88541e-05
-2.37624e-06
1.87803e-05
-2.4766e-06
1.87032e-05
-2.57824e-06
1.86229e-05
-2.68092e-06
1.85393e-05
-2.78435e-06
1.84524e-05
-2.88826e-06
1.83623e-05
-2.99229e-06
1.82689e-05
-3.09611e-06
1.81724e-05
-3.19931e-06
1.80727e-05
-3.30148e-06
1.79701e-05
-3.40218e-06
1.78645e-05
-3.50094e-06
1.77562e-05
-3.59728e-06
1.76452e-05
-3.69071e-06
1.75319e-05
-3.78072e-06
1.74164e-05
-3.86682e-06
1.72989e-05
-3.94851e-06
1.71797e-05
-4.02534e-06
1.7059e-05
-4.09685e-06
1.69372e-05
-4.16267e-06
1.68145e-05
-4.22243e-06
1.66913e-05
-4.27585e-06
1.65678e-05
-4.32272e-06
1.64444e-05
-4.36289e-06
1.63213e-05
-4.39629e-06
1.61989e-05
-4.42293e-06
1.60774e-05
-4.44286e-06
1.5957e-05
-4.45621e-06
1.58379e-05
-4.46315e-06
1.57204e-05
-4.46387e-06
1.56046e-05
-4.45864e-06
1.54908e-05
-4.44773e-06
1.53791e-05
-4.43146e-06
1.52696e-05
-4.41019e-06
1.51626e-05
-4.3843e-06
1.50582e-05
-4.35421e-06
1.49564e-05
-4.32035e-06
1.48574e-05
-4.28315e-06
1.47613e-05
-4.24306e-06
1.4668e-05
-4.20055e-06
1.45778e-05
-4.15608e-06
1.44905e-05
-4.11012e-06
1.44063e-05
-4.06315e-06
1.43251e-05
-4.01564e-06
1.4247e-05
-3.9681e-06
1.4172e-05
-3.92101e-06
1.41e-05
-3.8749e-06
1.40311e-05
-3.83029e-06
1.3965e-05
-3.78772e-06
1.39019e-05
-3.74775e-06
1.38414e-05
-3.71095e-06
1.37835e-05
-3.6779e-06
1.37278e-05
-3.64919e-06
1.36742e-05
-3.62537e-06
1.36221e-05
-3.60698e-06
1.35712e-05
-3.59462e-06
-3.58974e-06
1.99997e-05
-9.08139e-09
1.99986e-05
-2.83705e-08
1.99969e-05
-4.88108e-08
1.99944e-05
-7.03539e-08
1.99912e-05
-9.30031e-08
1.99873e-05
-1.16775e-07
1.99827e-05
-1.41697e-07
1.99772e-05
-1.67803e-07
1.9971e-05
-1.95135e-07
1.9964e-05
-2.23741e-07
1.99562e-05
-2.5367e-07
1.99475e-05
-2.84978e-07
1.9938e-05
-3.17721e-07
1.99275e-05
-3.51955e-07
1.9916e-05
-3.87741e-07
1.99035e-05
-4.25137e-07
1.98899e-05
-4.64203e-07
1.98751e-05
-5.04997e-07
1.98592e-05
-5.47578e-07
1.98421e-05
-5.92005e-07
1.98236e-05
-6.38334e-07
1.98037e-05
-6.86621e-07
1.97824e-05
-7.36919e-07
1.97596e-05
-7.89279e-07
1.97351e-05
-8.43752e-07
1.97091e-05
-9.00384e-07
1.96812e-05
-9.59216e-07
1.96516e-05
-1.02029e-06
1.962e-05
-1.08363e-06
1.95865e-05
-1.14928e-06
1.95509e-05
-1.21726e-06
1.95132e-05
-1.28757e-06
1.94732e-05
-1.36024e-06
1.94309e-05
-1.43525e-06
1.93861e-05
-1.5126e-06
1.93389e-05
-1.59228e-06
1.92891e-05
-1.67424e-06
1.92366e-05
-1.75844e-06
1.91814e-05
-1.84482e-06
1.91234e-05
-1.93331e-06
1.90624e-05
-2.02381e-06
1.89985e-05
-2.11622e-06
1.89315e-05
-2.21039e-06
1.88614e-05
-2.30617e-06
1.87882e-05
-2.40339e-06
1.87118e-05
-2.50185e-06
1.86322e-05
-2.60131e-06
1.85494e-05
-2.70152e-06
1.84633e-05
-2.80219e-06
1.83741e-05
-2.90301e-06
1.82816e-05
-3.00364e-06
1.8186e-05
-3.10371e-06
1.80873e-05
-3.20282e-06
1.79857e-05
-3.30054e-06
1.78812e-05
-3.39645e-06
1.7774e-05
-3.49006e-06
1.76642e-05
-3.58092e-06
1.7552e-05
-3.66855e-06
1.74377e-05
-3.75246e-06
1.73213e-05
-3.83219e-06
1.72033e-05
-3.9073e-06
1.70838e-05
-3.97736e-06
1.69631e-05
-4.04199e-06
1.68416e-05
-4.10086e-06
1.67194e-05
-4.15368e-06
1.65969e-05
-4.20025e-06
1.64745e-05
-4.24041e-06
1.63523e-05
-4.27409e-06
1.62306e-05
-4.30126e-06
1.61097e-05
-4.32199e-06
1.59899e-05
-4.33637e-06
1.58713e-05
-4.34455e-06
1.57542e-05
-4.34674e-06
1.56387e-05
-4.34315e-06
1.5525e-05
-4.33408e-06
1.54134e-05
-4.31983e-06
1.5304e-05
-4.30074e-06
1.51968e-05
-4.27717e-06
1.50921e-05
-4.24953e-06
1.499e-05
-4.21822e-06
1.48906e-05
-4.18368e-06
1.47938e-05
-4.14632e-06
1.46999e-05
-4.10661e-06
1.46088e-05
-4.065e-06
1.45206e-05
-4.02193e-06
1.44353e-05
-3.97787e-06
1.4353e-05
-3.9333e-06
1.42736e-05
-3.88869e-06
1.41971e-05
-3.84453e-06
1.41235e-05
-3.8013e-06
1.40527e-05
-3.75953e-06
1.39847e-05
-3.71972e-06
1.39194e-05
-3.6824e-06
1.38565e-05
-3.64811e-06
1.3796e-05
-3.61738e-06
1.37376e-05
-3.59075e-06
1.36809e-05
-3.56874e-06
1.36258e-05
-3.55182e-06
1.35716e-05
-3.54048e-06
-3.53526e-06
1.99997e-05
-8.76537e-09
1.99987e-05
-2.73889e-08
1.9997e-05
-4.71388e-08
1.99947e-05
-6.79758e-08
1.99916e-05
-8.99068e-08
1.99877e-05
-1.12949e-07
1.99832e-05
-1.37129e-07
1.99778e-05
-1.62477e-07
1.99717e-05
-1.89031e-07
1.99648e-05
-2.16834e-07
1.99571e-05
-2.45934e-07
1.99485e-05
-2.76379e-07
1.9939e-05
-3.08223e-07
1.99286e-05
-3.41519e-07
1.99171e-05
-3.76323e-07
1.99047e-05
-4.12689e-07
1.98912e-05
-4.50675e-07
1.98765e-05
-4.90336e-07
1.98607e-05
-5.31729e-07
1.98436e-05
-5.74908e-07
1.98251e-05
-6.19927e-07
1.98054e-05
-6.6684e-07
1.97841e-05
-7.15698e-07
1.97614e-05
-7.6655e-07
1.97371e-05
-8.19442e-07
1.97111e-05
-8.74419e-07
1.96834e-05
-9.31522e-07
1.96539e-05
-9.90787e-07
1.96226e-05
-1.05225e-06
1.95892e-05
-1.11593e-06
1.95538e-05
-1.18185e-06
1.95163e-05
-1.25003e-06
1.94765e-05
-1.32048e-06
1.94345e-05
-1.39319e-06
1.939e-05
-1.46816e-06
1.93431e-05
-1.54536e-06
1.92936e-05
-1.62477e-06
1.92415e-05
-1.70633e-06
1.91867e-05
-1.79e-06
1.91291e-05
-1.8757e-06
1.90686e-05
-1.96333e-06
1.90052e-05
-2.0528e-06
1.89388e-05
-2.14398e-06
1.88693e-05
-2.23671e-06
1.87968e-05
-2.33084e-06
1.87211e-05
-2.42615e-06
1.86422e-05
-2.52245e-06
1.85602e-05
-2.61948e-06
1.8475e-05
-2.71697e-06
1.83866e-05
-2.81463e-06
1.8295e-05
-2.91212e-06
1.82004e-05
-3.0091e-06
1.81028e-05
-3.10519e-06
1.80022e-05
-3.19999e-06
1.78989e-05
-3.29306e-06
1.77928e-05
-3.38399e-06
1.76842e-05
-3.47231e-06
1.75732e-05
-3.55757e-06
1.74601e-05
-3.63931e-06
1.7345e-05
-3.71709e-06
1.72281e-05
-3.79048e-06
1.71098e-05
-3.85907e-06
1.69904e-05
-3.9225e-06
1.68699e-05
-3.98043e-06
1.67489e-05
-4.03261e-06
1.66274e-05
-4.07881e-06
1.65059e-05
-4.11889e-06
1.63846e-05
-4.15276e-06
1.62637e-05
-4.18039e-06
1.61435e-05
-4.20181e-06
1.60243e-05
-4.21712e-06
1.59062e-05
-4.22646e-06
1.57894e-05
-4.23e-06
1.56743e-05
-4.22797e-06
1.55608e-05
-4.22064e-06
1.54493e-05
-4.2083e-06
1.53398e-05
-4.19127e-06
1.52326e-05
-4.16992e-06
1.51276e-05
-4.14461e-06
1.50252e-05
-4.11575e-06
1.49252e-05
-4.08374e-06
1.48279e-05
-4.049e-06
1.47333e-05
-4.01197e-06
1.46414e-05
-3.97309e-06
1.45522e-05
-3.93279e-06
1.44659e-05
-3.89153e-06
1.43823e-05
-3.84976e-06
1.43016e-05
-3.80794e-06
1.42236e-05
-3.76655e-06
1.41484e-05
-3.72606e-06
1.40758e-05
-3.68696e-06
1.40058e-05
-3.64973e-06
1.39383e-05
-3.61488e-06
1.38731e-05
-3.58291e-06
1.381e-05
-3.55432e-06
1.37489e-05
-3.52961e-06
1.36894e-05
-3.50925e-06
1.36312e-05
-3.49368e-06
1.35741e-05
-3.4833e-06
-3.4778e-06
1.99997e-05
-8.46192e-09
1.99988e-05
-2.64445e-08
1.99971e-05
-4.55254e-08
1.99948e-05
-6.56729e-08
1.99918e-05
-8.68973e-08
1.99881e-05
-1.09217e-07
1.99836e-05
-1.32657e-07
1.99784e-05
-1.57246e-07
1.99724e-05
-1.8302e-07
1.99656e-05
-2.10019e-07
1.99579e-05
-2.38285e-07
1.99494e-05
-2.67864e-07
1.994e-05
-2.98806e-07
1.99296e-05
-3.31161e-07
1.99183e-05
-3.64981e-07
1.99059e-05
-4.00317e-07
1.98925e-05
-4.37224e-07
1.98779e-05
-4.75753e-07
1.98621e-05
-5.1596e-07
1.98451e-05
-5.57894e-07
1.98268e-05
-6.01609e-07
1.98071e-05
-6.47155e-07
1.9786e-05
-6.94579e-07
1.97634e-05
-7.4393e-07
1.97392e-05
-7.95252e-07
1.97133e-05
-8.48586e-07
1.96858e-05
-9.03972e-07
1.96564e-05
-9.61444e-07
1.96252e-05
-1.02103e-06
1.95921e-05
-1.08276e-06
1.95569e-05
-1.14666e-06
1.95196e-05
-1.21273e-06
1.94801e-05
-1.28098e-06
1.94383e-05
-1.35141e-06
1.93941e-05
-1.42402e-06
1.93476e-05
-1.49878e-06
1.92984e-05
-1.57566e-06
1.92467e-05
-1.65462e-06
1.91923e-05
-1.73561e-06
1.91352e-05
-1.81855e-06
1.90752e-05
-1.90336e-06
1.90123e-05
-1.98993e-06
1.89465e-05
-2.07816e-06
1.88777e-05
-2.16788e-06
1.88058e-05
-2.25895e-06
1.87308e-05
-2.35118e-06
1.86528e-05
-2.44436e-06
1.85715e-05
-2.53826e-06
1.84872e-05
-2.63263e-06
1.83997e-05
-2.72717e-06
1.83092e-05
-2.82157e-06
1.82156e-05
-2.91551e-06
1.8119e-05
-3.00863e-06
1.80196e-05
-3.10053e-06
1.79173e-05
-3.19083e-06
1.78125e-05
-3.27909e-06
1.7705e-05
-3.3649e-06
1.75953e-05
-3.44782e-06
1.74834e-05
-3.5274e-06
1.73695e-05
-3.60323e-06
1.72539e-05
-3.67489e-06
1.71369e-05
-3.742e-06
1.70186e-05
-3.80419e-06
1.68993e-05
-3.86116e-06
1.67793e-05
-3.91264e-06
1.66589e-05
-3.95842e-06
1.65384e-05
-3.99835e-06
1.6418e-05
-4.03232e-06
1.62979e-05
-4.06032e-06
1.61784e-05
-4.08235e-06
1.60598e-05
-4.0985e-06
1.59422e-05
-4.10889e-06
1.58259e-05
-4.11369e-06
1.5711e-05
-4.11312e-06
1.55978e-05
-4.10742e-06
1.54864e-05
-4.09687e-06
1.53769e-05
-4.0818e-06
1.52696e-05
-4.06254e-06
1.51644e-05
-4.03946e-06
1.50616e-05
-4.01292e-06
1.49612e-05
-3.98333e-06
1.48633e-05
-3.9511e-06
1.47679e-05
-3.91663e-06
1.46752e-05
-3.88035e-06
1.45851e-05
-3.8427e-06
1.44977e-05
-3.8041e-06
1.44129e-05
-3.765e-06
1.43308e-05
-3.72585e-06
1.42514e-05
-3.68708e-06