/*--------------------------------*- C++ -*----------------------------------*\
  =========                 |
  \\      /  F ield         | OpenFOAM: The Open Source CFD Toolbox
   \\    /   O peration     | Website:  https://openfoam.org
    \\  /    A nd           | Version:  11
     \\/     M anipulation  |
\*---------------------------------------------------------------------------*/
FoamFile
{
    format      ascii;
    class       volScalarField;
    location    "680";
    object      nut;
}
// * * * * * * * * * * * * * * * * * * * * * * * * * * * * * * * * * * * * * //

dimensions      [0 2 -1 0 0 0 0];

internalField   nonuniform List<scalar> 
10000
(
0.000977118
0.00093671
0.000899656
0.000865636
0.000834362
0.000805576
0.000779047
0.000754565
0.000731943
0.000711012
0.000691619
0.000673628
0.000656915
0.000641369
0.000626888
0.000613383
0.00060077
0.000588976
0.000577932
0.000567579
0.000557859
0.000548724
0.000540128
0.000532028
0.000524387
0.00051717
0.000510345
0.000503885
0.000497762
0.000491953
0.000486434
0.000481187
0.000476192
0.000471432
0.000466891
0.000462555
0.00045841
0.000454445
0.000450647
0.000447006
0.000443511
0.000440155
0.000436929
0.000433824
0.000430833
0.00042795
0.000425168
0.000422482
0.000419885
0.000417373
0.000414941
0.000412584
0.000410299
0.000408081
0.000405928
0.000403834
0.000401799
0.000399818
0.000397889
0.000396009
0.000394178
0.000392392
0.000390649
0.00038895
0.000387291
0.000385672
0.000384093
0.000382553
0.000381051
0.000379588
0.000378164
0.000376779
0.000375435
0.000374133
0.000372875
0.000371662
0.000370497
0.000369383
0.000368323
0.000367322
0.000366383
0.000365511
0.000364712
0.000363992
0.000363356
0.000362811
0.000362364
0.000362023
0.000361793
0.000361681
0.000361692
0.000361829
0.000362092
0.000362476
0.000362969
0.000363545
0.000364165
0.000364769
0.000365267
0.000365537
0.000977118
0.00093671
0.000899656
0.000865636
0.000834362
0.000805577
0.000779047
0.000754565
0.000731943
0.000711012
0.000691619
0.000673628
0.000656915
0.000641369
0.000626888
0.000613383
0.00060077
0.000588976
0.000577932
0.000567579
0.00055786
0.000548725
0.000540128
0.000532028
0.000524387
0.00051717
0.000510346
0.000503885
0.000497762
0.000491953
0.000486435
0.000481187
0.000476192
0.000471432
0.000466891
0.000462556
0.000458411
0.000454445
0.000450647
0.000447006
0.000443512
0.000440156
0.000436929
0.000433824
0.000430834
0.000427951
0.000425169
0.000422482
0.000419886
0.000417374
0.000414942
0.000412585
0.0004103
0.000408083
0.000405929
0.000403836
0.0004018
0.000399819
0.00039789
0.000396011
0.000394179
0.000392393
0.000390651
0.000388951
0.000387293
0.000385674
0.000384095
0.000382555
0.000381053
0.00037959
0.000378166
0.000376782
0.000375438
0.000374135
0.000372877
0.000371664
0.000370499
0.000369385
0.000368325
0.000367324
0.000366385
0.000365514
0.000364715
0.000363994
0.000363358
0.000362813
0.000362366
0.000362024
0.000361794
0.000361682
0.000361693
0.00036183
0.000362093
0.000362477
0.000362968
0.000363544
0.000364165
0.000364769
0.000365266
0.000365536
0.000977118
0.00093671
0.000899656
0.000865636
0.000834362
0.000805577
0.000779047
0.000754565
0.000731943
0.000711012
0.000691619
0.000673628
0.000656915
0.000641369
0.000626889
0.000613383
0.00060077
0.000588976
0.000577933
0.000567579
0.00055786
0.000548725
0.000540128
0.000532029
0.000524387
0.000517171
0.000510346
0.000503886
0.000497763
0.000491954
0.000486435
0.000481188
0.000476193
0.000471433
0.000466892
0.000462557
0.000458412
0.000454447
0.000450649
0.000447008
0.000443514
0.000440157
0.000436931
0.000433826
0.000430836
0.000427953
0.000425171
0.000422484
0.000419888
0.000417376
0.000414944
0.000412588
0.000410303
0.000408085
0.000405931
0.000403838
0.000401803
0.000399822
0.000397893
0.000396014
0.000394183
0.000392397
0.000390654
0.000388955
0.000387296
0.000385678
0.000384099
0.000382559
0.000381057
0.000379594
0.00037817
0.000376786
0.000375442
0.00037414
0.000372881
0.000371668
0.000370503
0.000369389
0.00036833
0.000367328
0.000366389
0.000365518
0.000364719
0.000363998
0.000363361
0.000362816
0.000362369
0.000362027
0.000361796
0.000361684
0.000361694
0.000361831
0.000362093
0.000362477
0.000362968
0.000363544
0.000364164
0.000364767
0.000365264
0.000365534
0.000977118
0.00093671
0.000899656
0.000865636
0.000834362
0.000805577
0.000779047
0.000754565
0.000731943
0.000711012
0.000691619
0.000673628
0.000656916
0.000641369
0.000626889
0.000613384
0.000600771
0.000588977
0.000577933
0.00056758
0.000557861
0.000548726
0.000540129
0.000532029
0.000524388
0.000517171
0.000510347
0.000503887
0.000497764
0.000491955
0.000486437
0.000481189
0.000476194
0.000471434
0.000466894
0.000462558
0.000458414
0.000454448
0.00045065
0.00044701
0.000443516
0.00044016
0.000436933
0.000433828
0.000430838
0.000427955
0.000425173
0.000422487
0.000419891
0.000417379
0.000414947
0.000412591
0.000410306
0.000408089
0.000405935
0.000403842
0.000401807
0.000399826
0.000397898
0.000396019
0.000394187
0.000392401
0.000390659
0.00038896
0.000387302
0.000385683
0.000384105
0.000382564
0.000381063
0.0003796
0.000378176
0.000376792
0.000375448
0.000374146
0.000372888
0.000371675
0.00037051
0.000369396
0.000368336
0.000367335
0.000366396
0.000365524
0.000364725
0.000364003
0.000363367
0.000362821
0.000362374
0.000362031
0.0003618
0.000361687
0.000361696
0.000361832
0.000362094
0.000362477
0.000362968
0.000363542
0.000364162
0.000364765
0.000365262
0.000365531
0.000977118
0.00093671
0.000899656
0.000865636
0.000834362
0.000805577
0.000779047
0.000754565
0.000731943
0.000711012
0.00069162
0.000673629
0.000656916
0.00064137
0.000626889
0.000613384
0.000600771
0.000588977
0.000577934
0.00056758
0.000557861
0.000548727
0.00054013
0.00053203
0.000524389
0.000517172
0.000510348
0.000503888
0.000497766
0.000491956
0.000486438
0.000481191
0.000476196
0.000471436
0.000466896
0.00046256
0.000458416
0.000454451
0.000450653
0.000447012
0.000443518
0.000440162
0.000436936
0.000433832
0.000430841
0.000427959
0.000425177
0.000422491
0.000419895
0.000417383
0.000414951
0.000412595
0.000410311
0.000408093
0.00040594
0.000403847
0.000401812
0.000399832
0.000397903
0.000396025
0.000394193
0.000392408
0.000390666
0.000388967
0.000387309
0.000385691
0.000384112
0.000382572
0.000381071
0.000379608
0.000378185
0.0003768
0.000375457
0.000374155
0.000372896
0.000371684
0.000370519
0.000369405
0.000368345
0.000367343
0.000366404
0.000365532
0.000364732
0.000364011
0.000363374
0.000362828
0.00036238
0.000362036
0.000361805
0.000361691
0.0003617
0.000361835
0.000362096
0.000362477
0.000362967
0.000363541
0.00036416
0.000364762
0.000365258
0.000365527
0.000977119
0.000936711
0.000899656
0.000865636
0.000834362
0.000805577
0.000779048
0.000754566
0.000731944
0.000711012
0.00069162
0.000673629
0.000656916
0.00064137
0.00062689
0.000613385
0.000600772
0.000588978
0.000577935
0.000567581
0.000557862
0.000548728
0.000540131
0.000532031
0.00052439
0.000517174
0.00051035
0.00050389
0.000497767
0.000491958
0.00048644
0.000481193
0.000476198
0.000471439
0.000466898
0.000462563
0.000458419
0.000454454
0.000450656
0.000447015
0.000443522
0.000440166
0.00043694
0.000433835
0.000430845
0.000427963
0.000425181
0.000422496
0.000419899
0.000417388
0.000414957
0.000412601
0.000410316
0.000408099
0.000405946
0.000403854
0.000401819
0.000399839
0.00039791
0.000396032
0.000394201
0.000392416
0.000390674
0.000388975
0.000387317
0.0003857
0.000384121
0.000382582
0.00038108
0.000379618
0.000378195
0.000376811
0.000375467
0.000374165
0.000372907
0.000371694
0.000370529
0.000369415
0.000368356
0.000367354
0.000366414
0.000365542
0.000364742
0.00036402
0.000363383
0.000362836
0.000362387
0.000362043
0.00036181
0.000361695
0.000361703
0.000361837
0.000362097
0.000362478
0.000362966
0.000363539
0.000364157
0.000364758
0.000365254
0.000365523
0.000977119
0.000936711
0.000899656
0.000865636
0.000834363
0.000805577
0.000779048
0.000754566
0.000731944
0.000711013
0.00069162
0.00067363
0.000656917
0.000641371
0.00062689
0.000613385
0.000600773
0.000588979
0.000577936
0.000567582
0.000557863
0.000548729
0.000540132
0.000532033
0.000524392
0.000517175
0.000510352
0.000503892
0.000497769
0.00049196
0.000486442
0.000481195
0.000476201
0.000471441
0.000466901
0.000462566
0.000458422
0.000454457
0.000450659
0.000447019
0.000443526
0.00044017
0.000436944
0.00043384
0.00043085
0.000427968
0.000425187
0.000422501
0.000419905
0.000417394
0.000414963
0.000412607
0.000410323
0.000408106
0.000405954
0.000403861
0.000401827
0.000399847
0.000397919
0.000396041
0.00039421
0.000392425
0.000390684
0.000388985
0.000387328
0.00038571
0.000384132
0.000382593
0.000381092
0.00037963
0.000378206
0.000376823
0.000375479
0.000374178
0.00037292
0.000371707
0.000370542
0.000369428
0.000368368
0.000367366
0.000366427
0.000365554
0.000364754
0.000364031
0.000363393
0.000362846
0.000362396
0.000362051
0.000361817
0.000361701
0.000361708
0.00036184
0.000362099
0.000362478
0.000362965
0.000363537
0.000364153
0.000364754
0.000365249
0.000365517
0.000977119
0.000936711
0.000899657
0.000865636
0.000834363
0.000805577
0.000779048
0.000754566
0.000731944
0.000711013
0.000691621
0.00067363
0.000656917
0.000641371
0.000626891
0.000613386
0.000600774
0.00058898
0.000577937
0.000567583
0.000557865
0.00054873
0.000540134
0.000532034
0.000524394
0.000517177
0.000510354
0.000503894
0.000497771
0.000491963
0.000486445
0.000481198
0.000476204
0.000471444
0.000466904
0.000462569
0.000458426
0.000454461
0.000450664
0.000447023
0.00044353
0.000440175
0.000436949
0.000433845
0.000430855
0.000427973
0.000425193
0.000422507
0.000419912
0.000417401
0.00041497
0.000412615
0.000410331
0.000408114
0.000405962
0.00040387
0.000401836
0.000399856
0.000397929
0.000396051
0.00039422
0.000392436
0.000390695
0.000388997
0.000387339
0.000385722
0.000384144
0.000382605
0.000381105
0.000379643
0.00037822
0.000376837
0.000375493
0.000374192
0.000372934
0.000371721
0.000370557
0.000369443
0.000368383
0.000367381
0.000366441
0.000365568
0.000364767
0.000364044
0.000363405
0.000362857
0.000362406
0.00036206
0.000361825
0.000361708
0.000361713
0.000361844
0.000362101
0.000362478
0.000362964
0.000363534
0.000364149
0.000364749
0.000365243
0.000365511
0.000977119
0.000936711
0.000899657
0.000865636
0.000834363
0.000805577
0.000779048
0.000754566
0.000731944
0.000711013
0.000691621
0.00067363
0.000656918
0.000641372
0.000626892
0.000613387
0.000600775
0.000588981
0.000577938
0.000567585
0.000557866
0.000548732
0.000540135
0.000532036
0.000524396
0.000517179
0.000510356
0.000503896
0.000497774
0.000491965
0.000486448
0.000481201
0.000476207
0.000471448
0.000466908
0.000462573
0.00045843
0.000454465
0.000450668
0.000447028
0.000443535
0.00044018
0.000436955
0.000433851
0.000430862
0.00042798
0.000425199
0.000422514
0.000419919
0.000417408
0.000414978
0.000412623
0.000410339
0.000408123
0.000405971
0.00040388
0.000401846
0.000399866
0.000397939
0.000396062
0.000394232
0.000392448
0.000390707
0.000389009
0.000387352
0.000385736
0.000384158
0.00038262
0.00038112
0.000379658
0.000378235
0.000376852
0.000375509
0.000374208
0.00037295
0.000371738
0.000370573
0.000369459
0.000368399
0.000367397
0.000366456
0.000365583
0.000364782
0.000364058
0.000363419
0.00036287
0.000362418
0.00036207
0.000361834
0.000361715
0.000361719
0.000361848
0.000362103
0.000362479
0.000362963
0.000363531
0.000364145
0.000364743
0.000365236
0.000365504
0.000977119
0.000936711
0.000899657
0.000865637
0.000834363
0.000805578
0.000779048
0.000754567
0.000731945
0.000711014
0.000691622
0.000673631
0.000656919
0.000641373
0.000626893
0.000613388
0.000600776
0.000588982
0.000577939
0.000567586
0.000557868
0.000548733
0.000540137
0.000532038
0.000524398
0.000517182
0.000510358
0.000503899
0.000497777
0.000491968
0.000486451
0.000481204
0.00047621
0.000471452
0.000466912
0.000462577
0.000458434
0.00045447
0.000450673
0.000447033
0.00044354
0.000440186
0.000436961
0.000433857
0.000430868
0.000427987
0.000425207
0.000422522
0.000419927
0.000417417
0.000414987
0.000412632
0.000410349
0.000408133
0.000405981
0.00040389
0.000401857
0.000399878
0.000397951
0.000396074
0.000394245
0.000392461
0.000390721
0.000389023
0.000387367
0.000385751
0.000384174
0.000382635
0.000381136
0.000379675
0.000378252
0.000376869
0.000375527
0.000374226
0.000372968
0.000371756
0.000370591
0.000369477
0.000368417
0.000367414
0.000366474
0.0003656
0.000364798
0.000364074
0.000363433
0.000362883
0.000362431
0.000362082
0.000361844
0.000361724
0.000361725
0.000361853
0.000362106
0.00036248
0.000362962
0.000363528
0.00036414
0.000364737
0.000365229
0.000365496
0.000977119
0.000936711
0.000899657
0.000865637
0.000834363
0.000805578
0.000779049
0.000754567
0.000731945
0.000711014
0.000691622
0.000673632
0.000656919
0.000641373
0.000626894
0.000613389
0.000600777
0.000588983
0.00057794
0.000567587
0.000557869
0.000548735
0.000540139
0.00053204
0.0005244
0.000517184
0.000510361
0.000503901
0.00049778
0.000491971
0.000486454
0.000481208
0.000476214
0.000471456
0.000466916
0.000462582
0.000458439
0.000454475
0.000450678
0.000447039
0.000443546
0.000440192
0.000436967
0.000433864
0.000430875
0.000427994
0.000425215
0.00042253
0.000419936
0.000417426
0.000414996
0.000412642
0.000410359
0.000408144
0.000405993
0.000403902
0.000401869
0.00039989
0.000397964
0.000396088
0.000394259
0.000392475
0.000390736
0.000389039
0.000387383
0.000385767
0.00038419
0.000382653
0.000381153
0.000379693
0.000378271
0.000376888
0.000375546
0.000374245
0.000372988
0.000371775
0.000370611
0.000369497
0.000368436
0.000367434
0.000366493
0.000365618
0.000364816
0.000364091
0.00036345
0.000362898
0.000362444
0.000362094
0.000361855
0.000361733
0.000361733
0.000361858
0.000362109
0.000362481
0.00036296
0.000363525
0.000364135
0.00036473
0.000365221
0.000365487
0.000977119
0.000936711
0.000899657
0.000865637
0.000834363
0.000805578
0.000779049
0.000754567
0.000731946
0.000711015
0.000691623
0.000673632
0.00065692
0.000641374
0.000626894
0.00061339
0.000600778
0.000588984
0.000577942
0.000567589
0.000557871
0.000548737
0.000540141
0.000532042
0.000524402
0.000517187
0.000510364
0.000503904
0.000497783
0.000491975
0.000486458
0.000481212
0.000476218
0.00047146
0.000466921
0.000462587
0.000458444
0.00045448
0.000450684
0.000447045
0.000443553
0.000440199
0.000436974
0.000433872
0.000430883
0.000428002
0.000425223
0.000422539
0.000419945
0.000417436
0.000415006
0.000412652
0.00041037
0.000408155
0.000406004
0.000403914
0.000401882
0.000399904
0.000397978
0.000396102
0.000394274
0.000392491
0.000390752
0.000389055
0.0003874
0.000385784
0.000384208
0.000382671
0.000381172
0.000379712
0.00037829
0.000376908
0.000375566
0.000374266
0.000373008
0.000371796
0.000370632
0.000369518
0.000368457
0.000367454
0.000366513
0.000365638
0.000364835
0.000364109
0.000363467
0.000362915
0.000362459
0.000362108
0.000361866
0.000361742
0.00036174
0.000361863
0.000362112
0.000362481
0.000362959
0.000363521
0.000364129
0.000364722
0.000365212
0.000365478
0.000977119
0.000936711
0.000899657
0.000865637
0.000834363
0.000805578
0.000779049
0.000754568
0.000731946
0.000711015
0.000691623
0.000673633
0.000656921
0.000641375
0.000626895
0.000613391
0.000600779
0.000588986
0.000577943
0.000567591
0.000557873
0.000548739
0.000540143
0.000532045
0.000524405
0.000517189
0.000510366
0.000503908
0.000497786
0.000491978
0.000486462
0.000481216
0.000476223
0.000471465
0.000466926
0.000462592
0.00045845
0.000454486
0.00045069
0.000447051
0.00044356
0.000440206
0.000436982
0.000433879
0.000430891
0.000428011
0.000425232
0.000422548
0.000419955
0.000417446
0.000415017
0.000412664
0.000410382
0.000408167
0.000406017
0.000403928
0.000401895
0.000399918
0.000397993
0.000396117
0.000394289
0.000392507
0.000390769
0.000389073
0.000387418
0.000385803
0.000384227
0.000382691
0.000381192
0.000379732
0.000378311
0.000376929
0.000375588
0.000374288
0.000373031
0.000371819
0.000370654
0.00036954
0.00036848
0.000367476
0.000366535
0.000365659
0.000364856
0.000364129
0.000363486
0.000362932
0.000362475
0.000362122
0.000361879
0.000361753
0.000361748
0.000361869
0.000362116
0.000362482
0.000362957
0.000363517
0.000364123
0.000364715
0.000365203
0.000365469
0.000977119
0.000936711
0.000899657
0.000865637
0.000834363
0.000805578
0.000779049
0.000754568
0.000731946
0.000711016
0.000691624
0.000673633
0.000656921
0.000641376
0.000626896
0.000613392
0.00060078
0.000588987
0.000577945
0.000567592
0.000557874
0.000548741
0.000540145
0.000532047
0.000524407
0.000517192
0.000510369
0.000503911
0.00049779
0.000491982
0.000486466
0.00048122
0.000476227
0.000471469
0.000466931
0.000462597
0.000458455
0.000454492
0.000450697
0.000447058
0.000443567
0.000440213
0.00043699
0.000433888
0.0004309
0.00042802
0.000425242
0.000422558
0.000419965
0.000417457
0.000415028
0.000412676
0.000410394
0.00040818
0.000406031
0.000403941
0.00040191
0.000399933
0.000398008
0.000396133
0.000394306
0.000392524
0.000390786
0.000389091
0.000387437
0.000385822
0.000384247
0.000382711
0.000381213
0.000379754
0.000378333
0.000376952
0.000375611
0.000374311
0.000373054
0.000371842
0.000370678
0.000369564
0.000368503
0.0003675
0.000366558
0.000365682
0.000364877
0.00036415
0.000363505
0.00036295
0.000362492
0.000362137
0.000361892
0.000361764
0.000361757
0.000361876
0.000362119
0.000362483
0.000362956
0.000363513
0.000364117
0.000364706
0.000365194
0.000365458
0.000977119
0.000936711
0.000899657
0.000865637
0.000834364
0.000805578
0.00077905
0.000754568
0.000731947
0.000711016
0.000691624
0.000673634
0.000656922
0.000641377
0.000626897
0.000613393
0.000600781
0.000588988
0.000577946
0.000567594
0.000557876
0.000548743
0.000540148
0.000532049
0.00052441
0.000517195
0.000510373
0.000503914
0.000497793
0.000491986
0.00048647
0.000481225
0.000476232
0.000471474
0.000466936
0.000462603
0.000458461
0.000454498
0.000450703
0.000447065
0.000443574
0.000440221
0.000436998
0.000433896
0.000430909
0.00042803
0.000425252
0.000422569
0.000419976
0.000417468
0.00041504
0.000412688
0.000410407
0.000408194
0.000406045
0.000403956
0.000401925
0.000399949
0.000398025
0.00039615
0.000394324
0.000392542
0.000390805
0.00038911
0.000387457
0.000385843
0.000384268
0.000382733
0.000381236
0.000379777
0.000378356
0.000376975
0.000375635
0.000374335
0.000373079
0.000371867
0.000370703
0.000369589
0.000368528
0.000367524
0.000366582
0.000365705
0.0003649
0.000364171
0.000363526
0.00036297
0.00036251
0.000362153
0.000361906
0.000361775
0.000361766
0.000361882
0.000362123
0.000362485
0.000362954
0.000363509
0.00036411
0.000364698
0.000365184
0.000365448
0.000977119
0.000936711
0.000899657
0.000865637
0.000834364
0.000805579
0.00077905
0.000754568
0.000731947
0.000711016
0.000691625
0.000673635
0.000656923
0.000641378
0.000626898
0.000613394
0.000600783
0.00058899
0.000577948
0.000567596
0.000557878
0.000548745
0.00054015
0.000532052
0.000524413
0.000517198
0.000510376
0.000503918
0.000497797
0.00049199
0.000486474
0.000481229
0.000476237
0.00047148
0.000466942
0.000462609
0.000458467
0.000454505
0.00045071
0.000447072
0.000443582
0.000440229
0.000437006
0.000433905
0.000430919
0.00042804
0.000425262
0.00042258
0.000419987
0.00041748
0.000415052
0.000412701
0.00041042
0.000408208
0.000406059
0.000403971
0.000401941
0.000399965
0.000398042
0.000396168
0.000394342
0.000392561
0.000390825
0.00038913
0.000387477
0.000385864
0.00038429
0.000382755
0.000381259
0.0003798
0.00037838
0.000377
0.000375659
0.00037436
0.000373104
0.000371893
0.000370728
0.000369614
0.000368553
0.000367549
0.000366606
0.000365729
0.000364923
0.000364194
0.000363547
0.00036299
0.000362528
0.000362169
0.00036192
0.000361788
0.000361776
0.000361889
0.000362127
0.000362486
0.000362953
0.000363505
0.000364103
0.000364689
0.000365173
0.000365437
0.000977119
0.000936711
0.000899657
0.000865637
0.000834364
0.000805579
0.00077905
0.000754569
0.000731947
0.000711017
0.000691625
0.000673635
0.000656924
0.000641378
0.000626899
0.000613395
0.000600784
0.000588991
0.000577949
0.000567598
0.00055788
0.000548747
0.000540152
0.000532055
0.000524416
0.000517201
0.000510379
0.000503921
0.000497801
0.000491994
0.000486479
0.000481234
0.000476242
0.000471485
0.000466947
0.000462615
0.000458474
0.000454512
0.000450717
0.00044708
0.00044359
0.000440238
0.000437015
0.000433914
0.000430928
0.00042805
0.000425272
0.000422591
0.000419999
0.000417492
0.000415065
0.000412714
0.000410434
0.000408222
0.000406074
0.000403987
0.000401957
0.000399982
0.000398059
0.000396186
0.00039436
0.000392581
0.000390845
0.000389151
0.000387498
0.000385886
0.000384313
0.000382778
0.000381282
0.000379824
0.000378405
0.000377025
0.000375685
0.000374386
0.00037313
0.000371919
0.000370755
0.000369641
0.00036858
0.000367575
0.000366632
0.000365755
0.000364948
0.000364217
0.000363569
0.00036301
0.000362547
0.000362186
0.000361935
0.0003618
0.000361786
0.000361896
0.000362132
0.000362487
0.000362951
0.0003635
0.000364096
0.00036468
0.000365163
0.000365426
0.000977119
0.000936711
0.000899657
0.000865637
0.000834364
0.000805579
0.00077905
0.000754569
0.000731948
0.000711017
0.000691626
0.000673636
0.000656924
0.000641379
0.0006269
0.000613396
0.000600785
0.000588993
0.000577951
0.000567599
0.000557882
0.000548749
0.000540155
0.000532057
0.000524418
0.000517204
0.000510382
0.000503925
0.000497805
0.000491998
0.000486483
0.000481239
0.000476247
0.00047149
0.000466953
0.000462621
0.00045848
0.000454519
0.000450725
0.000447088
0.000443598
0.000440246
0.000437024
0.000433924
0.000430938
0.00042806
0.000425283
0.000422602
0.000420011
0.000417504
0.000415078
0.000412727
0.000410448
0.000408237
0.000406089
0.000404003
0.000401973
0.000399999
0.000398077
0.000396204
0.00039438
0.0003926
0.000390865
0.000389172
0.00038752
0.000385909
0.000384336
0.000382802
0.000381307
0.000379849
0.000378431
0.000377051
0.000375712
0.000374413
0.000373157
0.000371946
0.000370782
0.000369668
0.000368607
0.000367602
0.000366659
0.00036578
0.000364973
0.000364241
0.000363592
0.000363032
0.000362567
0.000362204
0.000361951
0.000361813
0.000361796
0.000361904
0.000362136
0.000362489
0.00036295
0.000363496
0.000364089
0.000364671
0.000365152
0.000365414
0.000977119
0.000936711
0.000899657
0.000865637
0.000834364
0.000805579
0.00077905
0.000754569
0.000731948
0.000711018
0.000691626
0.000673637
0.000656925
0.00064138
0.000626901
0.000613398
0.000600787
0.000588994
0.000577953
0.000567601
0.000557884
0.000548752
0.000540157
0.00053206
0.000524421
0.000517207
0.000510386
0.000503929
0.000497809
0.000492002
0.000486488
0.000481244
0.000476252
0.000471496
0.000466959
0.000462627
0.000458487
0.000454526
0.000450732
0.000447095
0.000443606
0.000440255
0.000437033
0.000433933
0.000430948
0.000428071
0.000425294
0.000422614
0.000420023
0.000417517
0.000415091
0.000412741
0.000410463
0.000408252
0.000406105
0.000404019
0.00040199
0.000400017
0.000398095
0.000396223
0.000394399
0.000392621
0.000390886
0.000389194
0.000387543
0.000385932
0.00038436
0.000382826
0.000381332
0.000379875
0.000378457
0.000377078
0.000375739
0.00037444
0.000373185
0.000371974
0.00037081
0.000369696
0.000368635
0.00036763
0.000366686
0.000365807
0.000364998
0.000364266
0.000363615
0.000363053
0.000362587
0.000362222
0.000361967
0.000361827
0.000361807
0.000361912
0.000362141
0.00036249
0.000362948
0.000363491
0.000364082
0.000364661
0.000365141
0.000365402
0.000977119
0.000936711
0.000899657
0.000865637
0.000834364
0.000805579
0.000779051
0.00075457
0.000731948
0.000711018
0.000691627
0.000673637
0.000656926
0.000641381
0.000626902
0.000613399
0.000600788
0.000588996
0.000577954
0.000567603
0.000557886
0.000548754
0.00054016
0.000532063
0.000524424
0.00051721
0.000510389
0.000503932
0.000497813
0.000492007
0.000486492
0.000481249
0.000476257
0.000471502
0.000466965
0.000462634
0.000458494
0.000454533
0.00045074
0.000447103
0.000443614
0.000440264
0.000437043
0.000433943
0.000430958
0.000428081
0.000425306
0.000422625
0.000420035
0.00041753
0.000415105
0.000412755
0.000410477
0.000408267
0.000406121
0.000404035
0.000402008
0.000400035
0.000398114
0.000396243
0.000394419
0.000392641
0.000390907
0.000389216
0.000387565
0.000385955
0.000384384
0.000382851
0.000381357
0.000379901
0.000378483
0.000377105
0.000375766
0.000374468
0.000373213
0.000372003
0.000370839
0.000369725
0.000368663
0.000367658
0.000366713
0.000365834
0.000365024
0.000364291
0.000363639
0.000363076
0.000362607
0.000362241
0.000361983
0.00036184
0.000361818
0.00036192
0.000362146
0.000362492
0.000362947
0.000363487
0.000364075
0.000364652
0.00036513
0.00036539
0.000977119
0.000936711
0.000899657
0.000865638
0.000834364
0.000805579
0.000779051
0.00075457
0.000731949
0.000711019
0.000691627
0.000673638
0.000656927
0.000641382
0.000626903
0.0006134
0.000600789
0.000588997
0.000577956
0.000567605
0.000557888
0.000548756
0.000540162
0.000532065
0.000524427
0.000517214
0.000510393
0.000503936
0.000497817
0.000492011
0.000486497
0.000481254
0.000476263
0.000471507
0.000466971
0.00046264
0.0004585
0.00045454
0.000450747
0.000447111
0.000443623
0.000440273
0.000437052
0.000433953
0.000430969
0.000428092
0.000425317
0.000422637
0.000420048
0.000417543
0.000415118
0.00041277
0.000410492
0.000408283
0.000406137
0.000404052
0.000402025
0.000400053
0.000398132
0.000396262
0.000394439
0.000392662
0.000390929
0.000389238
0.000387588
0.000385979
0.000384408
0.000382876
0.000381382
0.000379927
0.00037851
0.000377132
0.000375794
0.000374496
0.000373242
0.000372031
0.000370868
0.000369753
0.000368692
0.000367686
0.000366741
0.000365861
0.000365051
0.000364316
0.000363663
0.000363098
0.000362628
0.000362259
0.000361999
0.000361854
0.000361829
0.000361928
0.000362151
0.000362494
0.000362945
0.000363482
0.000364068
0.000364642
0.000365119
0.000365378
0.000977119
0.000936711
0.000899657
0.000865638
0.000834364
0.00080558
0.000779051
0.00075457
0.000731949
0.000711019
0.000691628
0.000673639
0.000656927
0.000641383
0.000626904
0.000613401
0.00060079
0.000588998
0.000577958
0.000567607
0.00055789
0.000548758
0.000540165
0.000532068
0.00052443
0.000517217
0.000510396
0.00050394
0.000497821
0.000492015
0.000486501
0.000481258
0.000476268
0.000471513
0.000466977
0.000462646
0.000458507
0.000454547
0.000450755
0.000447119
0.000443631
0.000440281
0.000437061
0.000433963
0.000430979
0.000428103
0.000425328
0.000422649
0.00042006
0.000417556
0.000415132
0.000412784
0.000410507
0.000408298
0.000406153
0.000404069
0.000402042
0.000400071
0.000398151
0.000396282
0.00039446
0.000392683
0.000390951
0.000389261
0.000387611
0.000386002
0.000384433
0.000382901
0.000381408
0.000379953
0.000378537
0.000377159
0.000375822
0.000374525
0.00037327
0.00037206
0.000370897
0.000369782
0.000368721
0.000367715
0.000366769
0.000365889
0.000365078
0.000364342
0.000363688
0.000363121
0.000362649
0.000362278
0.000362016
0.000361868
0.000361841
0.000361936
0.000362156
0.000362496
0.000362944
0.000363478
0.00036406
0.000364633
0.000365107
0.000365366
0.000977119
0.000936711
0.000899657
0.000865638
0.000834365
0.00080558
0.000779051
0.00075457
0.00073195
0.00071102
0.000691628
0.000673639
0.000656928
0.000641384
0.000626905
0.000613402
0.000600792
0.000589
0.000577959
0.000567608
0.000557892
0.00054876
0.000540167
0.000532071
0.000524433
0.00051722
0.0005104
0.000503943
0.000497825
0.00049202
0.000486506
0.000481263
0.000476273
0.000471518
0.000466983
0.000462653
0.000458514
0.000454554
0.000450762
0.000447127
0.00044364
0.00044029
0.000437071
0.000433973
0.000430989
0.000428114
0.00042534
0.000422661
0.000420073
0.000417569
0.000415146
0.000412798
0.000410522
0.000408314
0.000406169
0.000404086
0.00040206
0.000400089
0.00039817
0.000396301
0.00039448
0.000392704
0.000390972
0.000389283
0.000387635
0.000386026
0.000384457
0.000382927
0.000381434
0.00037998
0.000378564
0.000377187
0.00037585
0.000374553
0.000373299
0.000372089
0.000370926
0.000369812
0.00036875
0.000367744
0.000366798
0.000365916
0.000365104
0.000364368
0.000363712
0.000363144
0.00036267
0.000362298
0.000362033
0.000361883
0.000361852
0.000361945
0.000362162
0.000362498
0.000362943
0.000363474
0.000364053
0.000364623
0.000365096
0.000365354
0.000977119
0.000936711
0.000899657
0.000865638
0.000834365
0.00080558
0.000779052
0.000754571
0.00073195
0.00071102
0.000691629
0.00067364
0.000656929
0.000641384
0.000626906
0.000613403
0.000600793
0.000589001
0.000577961
0.00056761
0.000557894
0.000548763
0.000540169
0.000532073
0.000524436
0.000517223
0.000510403
0.000503947
0.000497829
0.000492024
0.000486511
0.000481268
0.000476278
0.000471524
0.000466989
0.000462659
0.000458521
0.000454561
0.00045077
0.000447135
0.000443648
0.000440299
0.00043708
0.000433983
0.000431
0.000428125
0.000425351
0.000422673
0.000420085
0.000417582
0.000415159
0.000412812
0.000410537
0.000408329
0.000406186
0.000404103
0.000402078
0.000400107
0.000398189
0.000396321
0.0003945
0.000392725
0.000390994
0.000389305
0.000387658
0.00038605
0.000384482
0.000382952
0.00038146
0.000380007
0.000378591
0.000377215
0.000375878
0.000374582
0.000373328
0.000372118
0.000370955
0.000369841
0.000368779
0.000367773
0.000366826
0.000365944
0.000365131
0.000364394
0.000363737
0.000363167
0.000362692
0.000362317
0.00036205
0.000361897
0.000361864
0.000361953
0.000362167
0.0003625
0.000362942
0.000363469
0.000364046
0.000364614
0.000365085
0.000365342
0.000977119
0.000936711
0.000899657
0.000865638
0.000834365
0.00080558
0.000779052
0.000754571
0.00073195
0.00071102
0.000691629
0.00067364
0.000656929
0.000641385
0.000626907
0.000613404
0.000600794
0.000589003
0.000577962
0.000567612
0.000557896
0.000548765
0.000540172
0.000532076
0.000524439
0.000517226
0.000510406
0.000503951
0.000497833
0.000492028
0.000486515
0.000481273
0.000476284
0.000471529
0.000466995
0.000462665
0.000458527
0.000454568
0.000450777
0.000447143
0.000443657
0.000440308
0.000437089
0.000433992
0.00043101
0.000428136
0.000425362
0.000422685
0.000420098
0.000417595
0.000415173
0.000412827
0.000410552
0.000408345
0.000406202
0.000404119
0.000402095
0.000400125
0.000398208
0.00039634
0.00039452
0.000392746
0.000391016
0.000389328
0.000387681
0.000386074
0.000384506