/*--------------------------------*- C++ -*----------------------------------*\
  =========                 |
  \\      /  F ield         | OpenFOAM: The Open Source CFD Toolbox
   \\    /   O peration     | Website:  https://openfoam.org
    \\  /    A nd           | Version:  11
     \\/     M anipulation  |
\*---------------------------------------------------------------------------*/
FoamFile
{
    format      ascii;
    class       surfaceScalarField;
    location    "1756";
    object      phi;
}
// * * * * * * * * * * * * * * * * * * * * * * * * * * * * * * * * * * * * * //

dimensions      [0 3 -1 0 0 0 0];

internalField   nonuniform List<scalar> 
19800
(
2e-05
-2.96396e-16
2e-05
-8.39852e-16
2e-05
-1.3603e-15
2e-05
-1.88155e-15
2e-05
-2.41559e-15
2e-05
-2.96938e-15
2e-05
-3.54856e-15
2e-05
-4.15795e-15
2e-05
-4.80193e-15
2e-05
-5.48458e-15
2e-05
-6.20986e-15
2e-05
-6.98165e-15
2e-05
-7.80386e-15
2e-05
-8.68041e-15
2e-05
-9.61532e-15
2e-05
-1.06127e-14
2e-05
-1.16768e-14
2e-05
-1.28119e-14
2e-05
-1.40227e-14
2e-05
-1.53138e-14
2e-05
-1.66901e-14
2e-05
-1.81567e-14
2e-05
-1.97189e-14
2e-05
-2.13822e-14
2e-05
-2.31523e-14
2e-05
-2.50353e-14
2e-05
-2.70372e-14
2e-05
-2.91645e-14
2e-05
-3.14241e-14
2e-05
-3.38228e-14
2e-05
-3.63678e-14
2e-05
-3.90668e-14
2e-05
-4.19275e-14
2e-05
-4.4958e-14
2e-05
-4.81667e-14
2e-05
-5.15622e-14
2e-05
-5.51536e-14
2e-05
-5.89499e-14
2e-05
-6.2961e-14
2e-05
-6.71964e-14
2e-05
-7.16666e-14
2e-05
-7.63818e-14
2e-05
-8.13528e-14
2e-05
-8.65906e-14
2e-05
-9.21066e-14
2e-05
-9.79124e-14
2e-05
-1.0402e-13
2e-05
-1.10441e-13
2e-05
-1.17187e-13
2e-05
-1.24273e-13
2e-05
-1.3171e-13
2e-05
-1.3951e-13
2e-05
-1.47688e-13
2e-05
-1.56257e-13
2e-05
-1.65229e-13
2e-05
-1.74618e-13
2e-05
-1.84438e-13
2e-05
-1.94701e-13
2e-05
-2.05422e-13
2e-05
-2.16612e-13
2e-05
-2.28285e-13
2e-05
-2.40454e-13
2e-05
-2.53131e-13
2e-05
-2.66328e-13
2e-05
-2.80055e-13
2e-05
-2.94324e-13
2e-05
-3.09144e-13
2e-05
-3.24524e-13
2e-05
-3.40472e-13
2e-05
-3.56994e-13
2e-05
-3.74096e-13
2e-05
-3.91781e-13
2e-05
-4.1005e-13
2e-05
-4.28902e-13
2e-05
-4.48333e-13
2e-05
-4.68337e-13
2e-05
-4.88904e-13
2e-05
-5.10019e-13
2e-05
-5.31663e-13
2e-05
-5.53812e-13
2e-05
-5.76435e-13
2e-05
-5.99493e-13
2e-05
-6.2294e-13
2e-05
-6.46718e-13
2e-05
-6.70759e-13
2e-05
-6.94978e-13
2e-05
-7.19276e-13
2e-05
-7.43535e-13
2e-05
-7.6761e-13
2e-05
-7.91335e-13
2e-05
-8.14509e-13
2e-05
-8.36896e-13
2e-05
-8.5822e-13
2e-05
-8.78161e-13
2e-05
-8.96352e-13
2e-05
-9.12381e-13
2e-05
-9.25804e-13
2e-05
-9.3615e-13
2e-05
-9.43079e-13
-9.46914e-13
2e-05
-2.56706e-16
2e-05
-7.55906e-16
2e-05
-1.24802e-15
2e-05
-1.74523e-15
2e-05
-2.25577e-15
2e-05
-2.78554e-15
2e-05
-3.33962e-15
2e-05
-3.92253e-15
2e-05
-4.5384e-15
2e-05
-5.19115e-15
2e-05
-5.88458e-15
2e-05
-6.62241e-15
2e-05
-7.4084e-15
2e-05
-8.24632e-15
2e-05
-9.14004e-15
2e-05
-1.00935e-14
2e-05
-1.11108e-14
2e-05
-1.21961e-14
2e-05
-1.33538e-14
2e-05
-1.45885e-14
2e-05
-1.59048e-14
2e-05
-1.73076e-14
2e-05
-1.8802e-14
2e-05
-2.03934e-14
2e-05
-2.20873e-14
2e-05
-2.38893e-14
2e-05
-2.58056e-14
2e-05
-2.78422e-14
2e-05
-3.00058e-14
2e-05
-3.23031e-14
2e-05
-3.47409e-14
2e-05
-3.73267e-14
2e-05
-4.00679e-14
2e-05
-4.29724e-14
2e-05
-4.60483e-14
2e-05
-4.93039e-14
2e-05
-5.27479e-14
2e-05
-5.63894e-14
2e-05
-6.02376e-14
2e-05
-6.4302e-14
2e-05
-6.85926e-14
2e-05
-7.31194e-14
2e-05
-7.78929e-14
2e-05
-8.29239e-14
2e-05
-8.82233e-14
2e-05
-9.38025e-14
2e-05
-9.9673e-14
2e-05
-1.05847e-13
2e-05
-1.12335e-13
2e-05
-1.19151e-13
2e-05
-1.26308e-13
2e-05
-1.33816e-13
2e-05
-1.41691e-13
2e-05
-1.49944e-13
2e-05
-1.58588e-13
2e-05
-1.67637e-13
2e-05
-1.77105e-13
2e-05
-1.87004e-13
2e-05
-1.97347e-13
2e-05
-2.08149e-13
2e-05
-2.19421e-13
2e-05
-2.31177e-13
2e-05
-2.43429e-13
2e-05
-2.56189e-13
2e-05
-2.6947e-13
2e-05
-2.83281e-13
2e-05
-2.97635e-13
2e-05
-3.12539e-13
2e-05
-3.28004e-13
2e-05
-3.44037e-13
2e-05
-3.60644e-13
2e-05
-3.7783e-13
2e-05
-3.95599e-13
2e-05
-4.13951e-13
2e-05
-4.32886e-13
2e-05
-4.52399e-13
2e-05
-4.72484e-13
2e-05
-4.9313e-13
2e-05
-5.14322e-13
2e-05
-5.3604e-13
2e-05
-5.58259e-13
2e-05
-5.80946e-13
2e-05
-6.04063e-13
2e-05
-6.27557e-13
2e-05
-6.51371e-13
2e-05
-6.75429e-13
2e-05
-6.99643e-13
2e-05
-7.23906e-13
2e-05
-7.4809e-13
2e-05
-7.72041e-13
2e-05
-7.95575e-13
2e-05
-8.18477e-13
2e-05
-8.40491e-13
2e-05
-8.61319e-13
2e-05
-8.80615e-13
2e-05
-8.97992e-13
2e-05
-9.13015e-13
2e-05
-9.25206e-13
2e-05
-9.34154e-13
-9.39811e-13
2e-05
-2.2681e-16
2e-05
-6.81585e-16
2e-05
-1.14134e-15
2e-05
-1.61189e-15
2e-05
-2.09766e-15
2e-05
-2.60285e-15
2e-05
-3.13168e-15
2e-05
-3.68814e-15
2e-05
-4.27606e-15
2e-05
-4.89913e-15
2e-05
-5.56096e-15
2e-05
-6.26511e-15
2e-05
-7.01518e-15
2e-05
-7.8148e-15
2e-05
-8.66766e-15
2e-05
-9.57756e-15
2e-05
-1.05484e-14
2e-05
-1.15843e-14
2e-05
-1.26894e-14
2e-05
-1.3868e-14
2e-05
-1.51247e-14
2e-05
-1.64642e-14
2e-05
-1.78914e-14
2e-05
-1.94114e-14
2e-05
-2.10295e-14
2e-05
-2.27513e-14
2e-05
-2.45825e-14
2e-05
-2.65292e-14
2e-05
-2.85975e-14
2e-05
-3.0794e-14
2e-05
-3.31254e-14
2e-05
-3.55987e-14
2e-05
-3.82213e-14
2e-05
-4.10006e-14
2e-05
-4.39446e-14
2e-05
-4.70613e-14
2e-05
-5.03591e-14
2e-05
-5.38468e-14
2e-05
-5.75332e-14
2e-05
-6.14278e-14
2e-05
-6.554e-14
2e-05
-6.98797e-14
2e-05
-7.4457e-14
2e-05
-7.92825e-14
2e-05
-8.43668e-14
2e-05
-8.97209e-14
2e-05
-9.53561e-14
2e-05
-1.01284e-13
2e-05
-1.07516e-13
2e-05
-1.14065e-13
2e-05
-1.20942e-13
2e-05
-1.28161e-13
2e-05
-1.35734e-13
2e-05
-1.43673e-13
2e-05
-1.51992e-13
2e-05
-1.60703e-13
2e-05
-1.69821e-13
2e-05
-1.79358e-13
2e-05
-1.89327e-13
2e-05
-1.99741e-13
2e-05
-2.10615e-13
2e-05
-2.2196e-13
2e-05
-2.3379e-13
2e-05
-2.46117e-13
2e-05
-2.58953e-13
2e-05
-2.7231e-13
2e-05
-2.86199e-13
2e-05
-3.00631e-13
2e-05
-3.15615e-13
2e-05
-3.31161e-13
2e-05
-3.47275e-13
2e-05
-3.63965e-13
2e-05
-3.81236e-13
2e-05
-3.9909e-13
2e-05
-4.1753e-13
2e-05
-4.36553e-13
2e-05
-4.56157e-13
2e-05
-4.76334e-13
2e-05
-4.97073e-13
2e-05
-5.1836e-13
2e-05
-5.40173e-13
2e-05
-5.62487e-13
2e-05
-5.85268e-13
2e-05
-6.08474e-13
2e-05
-6.32053e-13
2e-05
-6.55941e-13
2e-05
-6.80058e-13
2e-05
-7.0431e-13
2e-05
-7.28582e-13
2e-05
-7.52732e-13
2e-05
-7.76594e-13
2e-05
-7.99967e-13
2e-05
-8.22611e-13
2e-05
-8.44243e-13
2e-05
-8.6453e-13
2e-05
-8.83084e-13
2e-05
-8.99451e-13
2e-05
-9.131e-13
2e-05
-9.23487e-13
-9.30349e-13
2e-05
-2.02506e-16
2e-05
-6.1629e-16
2e-05
-1.0423e-15
2e-05
-1.48409e-15
2e-05
-1.94353e-15
2e-05
-2.42319e-15
2e-05
-2.92624e-15
2e-05
-3.45605e-15
2e-05
-4.01602e-15
2e-05
-4.60954e-15
2e-05
-5.24e-15
2e-05
-5.91077e-15
2e-05
-6.62527e-15
2e-05
-7.38696e-15
2e-05
-8.19939e-15
2e-05
-9.0662e-15
2e-05
-9.99113e-15
2e-05
-1.09781e-14
2e-05
-1.20311e-14
2e-05
-1.31542e-14
2e-05
-1.4352e-14
2e-05
-1.56288e-14
2e-05
-1.69895e-14
2e-05
-1.84388e-14
2e-05
-1.9982e-14
2e-05
-2.16243e-14
2e-05
-2.33714e-14
2e-05
-2.52289e-14
2e-05
-2.72029e-14
2e-05
-2.92996e-14
2e-05
-3.15256e-14
2e-05
-3.38876e-14
2e-05
-3.63927e-14
2e-05
-3.90482e-14
2e-05
-4.18615e-14
2e-05
-4.48407e-14
2e-05
-4.79937e-14
2e-05
-5.1329e-14
2e-05
-5.48553e-14
2e-05
-5.85816e-14
2e-05
-6.25171e-14
2e-05
-6.66715e-14
2e-05
-7.10546e-14
2e-05
-7.56765e-14
2e-05
-8.05477e-14
2e-05
-8.56789e-14
2e-05
-9.10811e-14
2e-05
-9.67655e-14
2e-05
-1.02744e-13
2e-05
-1.09027e-13
2e-05
-1.15629e-13
2e-05
-1.2256e-13
2e-05
-1.29833e-13
2e-05
-1.37462e-13
2e-05
-1.45458e-13
2e-05
-1.53835e-13
2e-05
-1.62606e-13
2e-05
-1.71784e-13
2e-05
-1.81382e-13
2e-05
-1.91413e-13
2e-05
-2.01891e-13
2e-05
-2.1283e-13
2e-05
-2.24241e-13
2e-05
-2.36138e-13
2e-05
-2.48533e-13
2e-05
-2.6144e-13
2e-05
-2.74868e-13
2e-05
-2.88831e-13
2e-05
-3.03338e-13
2e-05
-3.184e-13
2e-05
-3.34025e-13
2e-05
-3.50222e-13
2e-05
-3.66997e-13
2e-05
-3.84357e-13
2e-05
-4.02304e-13
2e-05
-4.20839e-13
2e-05
-4.39963e-13
2e-05
-4.59672e-13
2e-05
-4.79959e-13
2e-05
-5.00812e-13
2e-05
-5.22218e-13
2e-05
-5.44155e-13
2e-05
-5.66595e-13
2e-05
-5.89505e-13
2e-05
-6.12839e-13
2e-05
-6.36543e-13
2e-05
-6.60546e-13
2e-05
-6.84766e-13
2e-05
-7.09096e-13
2e-05
-7.33411e-13
2e-05
-7.57554e-13
2e-05
-7.81337e-13
2e-05
-8.04532e-13
2e-05
-8.26865e-13
2e-05
-8.48002e-13
2e-05
-8.67544e-13
2e-05
-8.85002e-13
2e-05
-8.99769e-13
2e-05
-9.11132e-13
-9.18522e-13
2e-05
-1.8192e-16
2e-05
-5.5824e-16
2e-05
-9.50934e-16
2e-05
-1.36301e-15
2e-05
-1.795e-15
2e-05
-2.2482e-15
2e-05
-2.72485e-15
2e-05
-3.22767e-15
2e-05
-3.75957e-15
2e-05
-4.32359e-15
2e-05
-4.92286e-15
2e-05
-5.56053e-15
2e-05
-6.23982e-15
2e-05
-6.96401e-15
2e-05
-7.73649e-15
2e-05
-8.56073e-15
2e-05
-9.44031e-15
2e-05
-1.0379e-14
2e-05
-1.13805e-14
2e-05
-1.2449e-14
2e-05
-1.35885e-14
2e-05
-1.48035e-14
2e-05
-1.60985e-14
2e-05
-1.74781e-14
2e-05
-1.89473e-14
2e-05
-2.05112e-14
2e-05
-2.21751e-14
2e-05
-2.39446e-14
2e-05
-2.58255e-14
2e-05
-2.78237e-14
2e-05
-2.99457e-14
2e-05
-3.21978e-14
2e-05
-3.45869e-14
2e-05
-3.712e-14
2e-05
-3.98044e-14
2e-05
-4.26476e-14
2e-05
-4.56576e-14
2e-05
-4.88425e-14
2e-05
-5.22106e-14
2e-05
-5.57707e-14
2e-05
-5.95318e-14
2e-05
-6.35031e-14
2e-05
-6.76943e-14
2e-05
-7.21152e-14
2e-05
-7.67759e-14
2e-05
-8.16868e-14
2e-05
-8.68588e-14
2e-05
-9.23027e-14
2e-05
-9.80299e-14
2e-05
-1.04052e-13
2e-05
-1.1038e-13
2e-05
-1.17027e-13
2e-05
-1.24005e-13
2e-05
-1.31327e-13
2e-05
-1.39004e-13
2e-05
-1.4705e-13
2e-05
-1.55478e-13
2e-05
-1.64301e-13
2e-05
-1.73532e-13
2e-05
-1.83185e-13
2e-05
-1.93272e-13
2e-05
-2.03808e-13
2e-05
-2.14805e-13
2e-05
-2.26277e-13
2e-05
-2.38236e-13
2e-05
-2.50696e-13
2e-05
-2.63669e-13
2e-05
-2.77167e-13
2e-05
-2.91202e-13
2e-05
-3.05784e-13
2e-05
-3.20924e-13
2e-05
-3.36633e-13
2e-05
-3.52917e-13
2e-05
-3.69784e-13
2e-05
-3.87241e-13
2e-05
-4.05292e-13
2e-05
-4.23938e-13
2e-05
-4.43179e-13
2e-05
-4.63013e-13
2e-05
-4.83433e-13
2e-05
-5.04428e-13
2e-05
-5.25983e-13
2e-05
-5.48076e-13
2e-05
-5.7068e-13
2e-05
-5.93757e-13
2e-05
-6.1726e-13
2e-05
-6.41128e-13
2e-05
-6.65287e-13
2e-05
-6.89642e-13
2e-05
-7.14076e-13
2e-05
-7.38444e-13
2e-05
-7.62566e-13
2e-05
-7.86222e-13
2e-05
-8.09139e-13
2e-05
-8.30978e-13
2e-05
-8.51321e-13
2e-05
-8.69637e-13
2e-05
-8.85242e-13
2e-05
-8.97278e-13
-9.04622e-13
2e-05
-1.6402e-16
2e-05
-5.06004e-16
2e-05
-8.66611e-16
2e-05
-1.24897e-15
2e-05
-1.65297e-15
2e-05
-2.07909e-15
2e-05
-2.52884e-15
2e-05
-3.00432e-15
2e-05
-3.508e-15
2e-05
-4.04255e-15
2e-05
-4.61078e-15
2e-05
-5.21562e-15
2e-05
-5.86007e-15
2e-05
-6.54722e-15
2e-05
-7.28028e-15
2e-05
-8.06254e-15
2e-05
-8.89742e-15
2e-05
-9.78848e-15
2e-05
-1.07394e-14
2e-05
-1.1754e-14
2e-05
-1.28362e-14
2e-05
-1.39903e-14
2e-05
-1.52206e-14
2e-05
-1.65315e-14
2e-05
-1.79279e-14
2e-05
-1.94145e-14
2e-05
-2.09966e-14
2e-05
-2.26795e-14
2e-05
-2.44686e-14
2e-05
-2.63699e-14
2e-05
-2.83894e-14
2e-05
-3.05333e-14
2e-05
-3.28081e-14
2e-05
-3.52207e-14
2e-05
-3.77781e-14
2e-05
-4.04875e-14
2e-05
-4.33566e-14
2e-05
-4.63933e-14
2e-05
-4.96056e-14
2e-05
-5.3002e-14
2e-05
-5.65912e-14
2e-05
-6.03822e-14
2e-05
-6.43843e-14
2e-05
-6.8607e-14
2e-05
-7.30603e-14
2e-05
-7.77542e-14
2e-05
-8.26993e-14
2e-05
-8.79062e-14
2e-05
-9.3386e-14
2e-05
-9.91499e-14
2e-05
-1.0521e-13
2e-05
-1.11577e-13
2e-05
-1.18263e-13
2e-05
-1.25282e-13
2e-05
-1.32645e-13
2e-05
-1.40364e-13
2e-05
-1.48454e-13
2e-05
-1.56927e-13
2e-05
-1.65796e-13
2e-05
-1.75075e-13
2e-05
-1.84777e-13
2e-05
-1.94916e-13
2e-05
-2.05504e-13
2e-05
-2.16556e-13
2e-05
-2.28085e-13
2e-05
-2.40104e-13
2e-05
-2.52627e-13
2e-05
-2.65665e-13
2e-05
-2.79233e-13
2e-05
-2.93341e-13
2e-05
-3.08002e-13
2e-05
-3.23226e-13
2e-05
-3.39023e-13
2e-05
-3.55403e-13
2e-05
-3.72374e-13
2e-05
-3.89942e-13
2e-05
-4.08112e-13
2e-05
-4.26887e-13
2e-05
-4.46268e-13
2e-05
-4.66252e-13
2e-05
-4.86833e-13
2e-05
-5.08e-13
2e-05
-5.29739e-13
2e-05
-5.52025e-13
2e-05
-5.7483e-13
2e-05
-5.98112e-13
2e-05
-6.2182e-13
2e-05
-6.45887e-13
2e-05
-6.70226e-13
2e-05
-6.94729e-13
2e-05
-7.19259e-13
2e-05
-7.43642e-13
2e-05
-7.67661e-13
2e-05
-7.9104e-13
2e-05
-8.13433e-13
2e-05
-8.34398e-13
2e-05
-8.53364e-13
2e-05
-8.69575e-13
2e-05
-8.82057e-13
-8.89193e-13
2e-05
-1.48108e-16
2e-05
-4.58517e-16
2e-05
-7.88596e-16
2e-05
-1.14181e-15
2e-05
-1.51781e-15
2e-05
-1.9166e-15
2e-05
-2.33917e-15
2e-05
-2.78712e-15
2e-05
-3.26249e-15
2e-05
-3.7676e-15
2e-05
-4.30496e-15
2e-05
-4.87726e-15
2e-05
-5.48725e-15
2e-05
-6.13784e-15
2e-05
-6.83205e-15
2e-05
-7.57298e-15
2e-05
-8.36389e-15
2e-05
-9.20815e-15
2e-05
-1.01093e-14
2e-05
-1.10709e-14
2e-05
-1.20969e-14
2e-05
-1.31912e-14
2e-05
-1.43579e-14
2e-05
-1.56014e-14
2e-05
-1.69262e-14
2e-05
-1.83369e-14
2e-05
-1.98386e-14
2e-05
-2.14364e-14
2e-05
-2.31355e-14
2e-05
-2.49415e-14
2e-05
-2.68603e-14
2e-05
-2.88979e-14
2e-05
-3.10605e-14
2e-05
-3.33546e-14
2e-05
-3.57872e-14
2e-05
-3.83651e-14
2e-05
-4.10958e-14
2e-05
-4.39868e-14
2e-05
-4.7046e-14
2e-05
-5.02816e-14
2e-05
-5.37018e-14
2e-05
-5.73156e-14
2e-05
-6.11318e-14
2e-05
-6.51598e-14
2e-05
-6.94092e-14
2e-05
-7.38898e-14
2e-05
-7.86118e-14
2e-05
-8.35857e-14
2e-05
-8.88222e-14
2e-05
-9.43324e-14
2e-05
-1.00128e-13
2e-05
-1.06219e-13
2e-05
-1.12619e-13
2e-05
-1.1934e-13
2e-05
-1.26393e-13
2e-05
-1.33792e-13
2e-05
-1.4155e-13
2e-05
-1.49678e-13
2e-05
-1.58191e-13
2e-05
-1.67102e-13
2e-05
-1.76424e-13
2e-05
-1.86171e-13
2e-05
-1.96357e-13
2e-05
-2.06996e-13
2e-05
-2.181e-13
2e-05
-2.29685e-13
2e-05
-2.41763e-13
2e-05
-2.54349e-13
2e-05
-2.67456e-13
2e-05
-2.81096e-13
2e-05
-2.95282e-13
2e-05
-3.10027e-13
2e-05
-3.25343e-13
2e-05
-3.4124e-13
2e-05
-3.57728e-13
2e-05
-3.74817e-13
2e-05
-3.92513e-13
2e-05
-4.10823e-13
2e-05
-4.2975e-13
2e-05
-4.49296e-13
2e-05
-4.69459e-13
2e-05
-4.90232e-13
2e-05
-5.11605e-13
2e-05
-5.33562e-13
2e-05
-5.56077e-13
2e-05
-5.79117e-13
2e-05
-6.02636e-13
2e-05
-6.26575e-13
2e-05
-6.50854e-13
2e-05
-6.75372e-13
2e-05
-6.99996e-13
2e-05
-7.24558e-13
2e-05
-7.4884e-13
2e-05
-7.72563e-13
2e-05
-7.95369e-13
2e-05
-8.16792e-13
2e-05
-8.36225e-13
2e-05
-8.52851e-13
2e-05
-8.65608e-13
-8.72675e-13
2e-05
-1.33718e-16
2e-05
-4.14985e-16
2e-05
-7.1619e-16
2e-05
-1.04118e-15
2e-05
-1.38958e-15
2e-05
-1.76115e-15
2e-05
-2.15651e-15
2e-05
-2.5769e-15
2e-05
-3.02399e-15
2e-05
-3.49979e-15
2e-05
-4.00651e-15
2e-05
-4.54658e-15
2e-05
-5.12255e-15
2e-05
-5.7371e-15
2e-05
-6.39306e-15
2e-05
-7.09337e-15
2e-05
-7.84109e-15
2e-05
-8.63943e-15
2e-05
-9.49171e-15
2e-05
-1.04014e-14
2e-05
-1.13722e-14
2e-05
-1.24078e-14
2e-05
-1.35123e-14
2e-05
-1.46897e-14
2e-05
-1.59443e-14
2e-05
-1.72808e-14
2e-05
-1.87037e-14
2e-05
-2.0218e-14
2e-05
-2.18288e-14
2e-05
-2.35415e-14
2e-05
-2.53617e-14
2e-05
-2.7295e-14
2e-05
-2.93476e-14
2e-05
-3.15257e-14
2e-05
-3.38359e-14
2e-05
-3.6285e-14
2e-05
-3.888e-14
2e-05
-4.16283e-14
2e-05
-4.45373e-14
2e-05
-4.76151e-14
2e-05
-5.08698e-14
2e-05
-5.43097e-14
2e-05
-5.79437e-14
2e-05
-6.17807e-14
2e-05
-6.58301e-14
2e-05
-7.01014e-14
2e-05
-7.46047e-14
2e-05
-7.935e-14
2e-05
-8.43478e-14
2e-05
-8.9609e-14
2e-05
-9.51447e-14
2e-05
-1.00966e-13
2e-05
-1.07085e-13
2e-05
-1.13513e-13
2e-05
-1.20263e-13
2e-05
-1.27347e-13
2e-05
-1.34777e-13
2e-05
-1.42568e-13
2e-05
-1.50731e-13
2e-05
-1.5928e-13
2e-05
-1.68229e-13
2e-05
-1.77592e-13
2e-05
-1.87382e-13
2e-05
-1.97613e-13
2e-05
-2.08301e-13
2e-05
-2.19458e-13
2e-05
-2.31099e-13
2e-05
-2.43239e-13
2e-05
-2.5589e-13
2e-05
-2.69069e-13
2e-05
-2.82787e-13
2e-05
-2.9706e-13
2e-05
-3.11899e-13
2e-05
-3.27317e-13
2e-05
-3.43327e-13
2e-05
-3.59939e-13
2e-05
-3.77164e-13
2e-05
-3.95009e-13
2e-05
-4.13482e-13
2e-05
-4.32588e-13
2e-05
-4.52327e-13
2e-05
-4.72699e-13
2e-05
-4.93697e-13
2e-05
-5.15308e-13
2e-05
-5.37515e-13
2e-05
-5.60289e-13
2e-05
-5.8359e-13
2e-05
-6.07363e-13
2e-05
-6.31536e-13
2e-05
-6.56011e-13
2e-05
-6.80662e-13
2e-05
-7.05319e-13
2e-05
-7.29767e-13
2e-05
-7.5372e-13
2e-05
-7.76807e-13
2e-05
-7.98544e-13
2e-05
-8.18291e-13
2e-05
-8.35189e-13
2e-05
-8.48095e-13
-8.55257e-13
2e-05
-1.20549e-16
2e-05
-3.74808e-16
2e-05
-6.48791e-16
2e-05
-9.4667e-16
2e-05
-1.26816e-15
2e-05
-1.61291e-15
2e-05
-1.9813e-15
2e-05
-2.3743e-15
2e-05
-2.79329e-15
2e-05
-3.23999e-15
2e-05
-3.71638e-15
2e-05
-4.22462e-15
2e-05
-4.76703e-15
2e-05
-5.34613e-15
2e-05
-5.96452e-15
2e-05
-6.62496e-15
2e-05
-7.33033e-15
2e-05
-8.08366e-15
2e-05
-8.88812e-15
2e-05
-9.747e-15
2e-05
-1.06638e-14
2e-05
-1.1642e-14
2e-05
-1.26856e-14
2e-05
-1.37983e-14
2e-05
-1.49844e-14
2e-05
-1.62482e-14
2e-05
-1.75941e-14
2e-05
-1.90268e-14
2e-05
-2.05514e-14
2e-05
-2.21728e-14
2e-05
-2.38964e-14
2e-05
-2.57279e-14
2e-05
-2.76729e-14
2e-05
-2.97376e-14
2e-05
-3.19281e-14
2e-05
-3.42512e-14
2e-05
-3.67134e-14
2e-05
-3.9322e-14
2e-05
-4.20843e-14
2e-05
-4.50078e-14
2e-05
-4.81004e-14
2e-05
-5.13703e-14
2e-05
-5.48259e-14
2e-05
-5.84761e-14
2e-05
-6.23297e-14
2e-05
-6.63963e-14
2e-05
-7.06854e-14
2e-05
-7.52069e-14
2e-05
-7.99711e-14
2e-05
-8.49886e-14
2e-05
-9.02701e-14
2e-05
-9.58268e-14
2e-05
-1.0167e-13
2e-05
-1.07812e-13
2e-05
-1.14264e-13
2e-05
-1.21039e-13
2e-05
-1.2815e-13
2e-05
-1.35608e-13
2e-05
-1.43428e-13
2e-05
-1.51623e-13
2e-05
-1.60206e-13
2e-05
-1.69191e-13
2e-05
-1.78593e-13
2e-05
-1.88425e-13
2e-05
-1.98703e-13
2e-05
-2.0944e-13
2e-05
-2.20651e-13
2e-05
-2.32351e-13
2e-05
-2.44556e-13
2e-05
-2.57279e-13
2e-05
-2.70536e-13
2e-05
-2.84342e-13
2e-05
-2.9871e-13
2e-05
-3.13655e-13
2e-05
-3.29191e-13
2e-05
-3.4533e-13
2e-05
-3.62085e-13
2e-05
-3.79466e-13
2e-05
-3.97484e-13
2e-05
-4.16146e-13
2e-05
-4.35457e-13
2e-05
-4.55419e-13
2e-05
-4.7603e-13
2e-05
-4.97282e-13
2e-05
-5.1916e-13
2e-05
-5.41642e-13
2e-05
-5.64693e-13
2e-05
-5.88262e-13
2e-05
-6.12281e-13
2e-05
-6.36657e-13
2e-05
-6.61265e-13
2e-05
-6.85939e-13
2e-05
-7.10458e-13
2e-05
-7.34534e-13
2e-05
-7.57784e-13
2e-05
-7.79709e-13
2e-05
-7.99644e-13
2e-05
-8.16702e-13
2e-05
-8.297e-13
-8.37073e-13
2e-05
-1.08402e-16
2e-05
-3.37549e-16
2e-05
-5.85902e-16
2e-05
-8.57881e-16
2e-05
-1.15333e-15
2e-05
-1.47187e-15
2e-05
-1.81375e-15
2e-05
-2.17972e-15
2e-05
-2.57095e-15
2e-05
-2.98893e-15
2e-05
-3.43538e-15
2e-05
-3.91226e-15
2e-05
-4.42169e-15
2e-05
-4.96596e-15
2e-05
-5.54749e-15
2e-05
-6.16887e-15
2e-05
-6.8328e-15
2e-05
-7.54214e-15
2e-05
-8.29985e-15
2e-05
-9.10909e-15
2e-05
-9.97312e-15
2e-05
-1.08954e-14
2e-05
-1.18795e-14
2e-05
-1.29291e-14
2e-05
-1.40483e-14
2e-05
-1.52412e-14
2e-05
-1.65119e-14
2e-05
-1.78651e-14
2e-05
-1.93055e-14
2e-05
-2.08378e-14
2e-05
-2.24674e-14
2e-05
-2.41994e-14
2e-05
-2.60395e-14
2e-05
-2.79934e-14
2e-05
-3.00672e-14
2e-05
-3.22673e-14
2e-05
-3.46e-14
2e-05
-3.70723e-14
2e-05
-3.96912e-14
2e-05
-4.24641e-14
2e-05
-4.53985e-14
2e-05
-4.85024e-14
2e-05
-5.1784e-14
2e-05
-5.52516e-14
2e-05
-5.89142e-14
2e-05
-6.27807e-14
2e-05
-6.68606e-14
2e-05
-7.11635e-14
2e-05
-7.56995e-14
2e-05
-8.04787e-14
2e-05
-8.55119e-14
2e-05
-9.08099e-14
2e-05
-9.63841e-14
2e-05
-1.02246e-13
2e-05
-1.08407e-13
2e-05
-1.1488e-13
2e-05
-1.21677e-13
2e-05
-1.28811e-13
2e-05
-1.36295e-13
2e-05
-1.44143e-13
2e-05
-1.52368e-13
2e-05
-1.60983e-13
2e-05
-1.70004e-13
2e-05
-1.79445e-13
2e-05
-1.8932e-13
2e-05
-1.99645e-13
2e-05
-2.10434e-13
2e-05
-2.21703e-13
2e-05
-2.33467e-13
2e-05
-2.45743e-13
2e-05
-2.58546e-13
2e-05
-2.71891e-13
2e-05
-2.85794e-13
2e-05
-3.00271e-13
2e-05
-3.15336e-13
2e-05
-3.31006e-13
2e-05
-3.47293e-13
2e-05
-3.64211e-13
2e-05
-3.81773e-13
2e-05
-3.99988e-13
2e-05
-4.18865e-13
2e-05
-4.38408e-13
2e-05
-4.5862e-13
2e-05
-4.79496e-13
2e-05
-5.01026e-13
2e-05
-5.2319e-13
2e-05
-5.45958e-13
2e-05
-5.69284e-13
2e-05
-5.93103e-13
2e-05
-6.17324e-13
2e-05
-6.41824e-13
2e-05
-6.66437e-13
2e-05
-6.90941e-13
2e-05
-7.15042e-13
2e-05
-7.3835e-13
2e-05
-7.60352e-13
2e-05
-7.8037e-13
2e-05
-7.97504e-13
2e-05
-8.10579e-13
-8.18177e-13
2e-05
-9.71355e-17
2e-05
-3.02873e-16
2e-05
-5.27107e-16
2e-05
-7.74449e-16
2e-05
-1.04486e-15
2e-05
-1.33797e-15
2e-05
-1.65396e-15
2e-05
-1.99344e-15
2e-05
-2.35741e-15
2e-05
-2.74714e-15
2e-05
-3.16417e-15
2e-05
-3.61026e-15
2e-05
-4.08733e-15
2e-05
-4.59749e-15
2e-05
-5.14297e-15
2e-05
-5.72616e-15
2e-05
-6.34962e-15
2e-05
-7.01601e-15
2e-05
-7.72814e-15
2e-05
-8.48897e-15
2e-05
-9.30161e-15
2e-05
-1.01693e-14
2e-05
-1.10955e-14
2e-05
-1.20837e-14
2e-05
-1.31378e-14
2e-05
-1.42616e-14
2e-05
-1.54592e-14
2e-05
-1.6735e-14
2e-05
-1.80933e-14
2e-05
-1.9539e-14
2e-05
-2.10769e-14
2e-05
-2.27122e-14
2e-05
-2.44501e-14
2e-05
-2.62962e-14
2e-05
-2.82564e-14
2e-05
-3.03366e-14
2e-05
-3.25432e-14
2e-05
-3.48828e-14
2e-05
-3.73621e-14
2e-05
-3.99883e-14
2e-05
-4.27686e-14
2e-05
-4.57107e-14
2e-05
-4.88226e-14
2e-05
-5.21125e-14
2e-05
-5.55888e-14
2e-05
-5.92603e-14
2e-05
-6.31363e-14
2e-05
-6.72261e-14
2e-05
-7.15394e-14
2e-05
-7.60863e-14
2e-05
-8.08773e-14
2e-05
-8.59229e-14
2e-05
-9.12343e-14
2e-05
-9.68227e-14
2e-05
-1.027e-13
2e-05
-1.08878e-13
2e-05
-1.15369e-13
2e-05
-1.22186e-13
2e-05
-1.29342e-13
2e-05
-1.3685e-13
2e-05
-1.44725e-13
2e-05
-1.52979e-13
2e-05
-1.61627e-13
2e-05
-1.70684e-13
2e-05
-1.80165e-13
2e-05
-1.90086e-13
2e-05
-2.00461e-13
2e-05
-2.11307e-13
2e-05
-2.22639e-13
2e-05
-2.34474e-13
2e-05
-2.46829e-13
2e-05
-2.5972e-13
2e-05
-2.73165e-13
2e-05
-2.87179e-13
2e-05
-3.01779e-13
2e-05
-3.16982e-13
2e-05
-3.32803e-13
2e-05
-3.49259e-13
2e-05
-3.66363e-13
2e-05
-3.84128e-13
2e-05
-4.02564e-13
2e-05
-4.2168e-13
2e-05
-4.41481e-13
2e-05
-4.61965e-13
2e-05
-4.83125e-13
2e-05
-5.04946e-13
2e-05
-5.274e-13
2e-05
-5.50444e-13
2e-05
-5.74016e-13
2e-05
-5.98028e-13
2e-05
-6.22357e-13
2e-05
-6.46839e-13
2e-05
-6.71248e-13
2e-05
-6.95287e-13
2e-05
-7.18561e-13
2e-05
-7.40549e-13
2e-05
-7.60565e-13
2e-05
-7.7771e-13
2e-05
-7.9083e-13
-7.98558e-13
2e-05
-8.66513e-17
2e-05
-2.70528e-16
2e-05
-4.72083e-16
2e-05
-6.96047e-16
2e-05
-9.42491e-16
2e-05
-1.21108e-15
2e-05
-1.50194e-15
2e-05
-1.81562e-15
2e-05
-2.15294e-15
2e-05
-2.51504e-15
2e-05
-2.90329e-15
2e-05
-3.31925e-15
2e-05
-3.76469e-15
2e-05
-4.24151e-15
2e-05
-4.75179e-15
2e-05
-5.29775e-15
2e-05
-5.88176e-15
2e-05
-6.50632e-15
2e-05
-7.17409e-15
2e-05
-7.88783e-15
2e-05
-8.6505e-15
2e-05
-9.46516e-15
2e-05
-1.03351e-14
2e-05
-1.12636e-14
2e-05
-1.22544e-14
2e-05
-1.33111e-14
2e-05
-1.44377e-14
2e-05
-1.56382e-14
2e-05
-1.69169e-14
2e-05
-1.82784e-14
2e-05
-1.97273e-14
2e-05
-2.12685e-14
2e-05
-2.29071e-14
2e-05
-2.46485e-14
2e-05
-2.64982e-14
2e-05
-2.84621e-14
2e-05
-3.05462e-14
2e-05
-3.27567e-14
2e-05
-3.51004e-14
2e-05
-3.75839e-14
2e-05
-4.02144e-14
2e-05
-4.29993e-14
2e-05
-4.59462e-14
2e-05
-4.90631e-14
2e-05
-5.23582e-14
2e-05
-5.58401e-14
2e-05
-5.95176e-14
2e-05
-6.33999e-14
2e-05
-6.74966e-14
2e-05
-7.18174e-14
2e-05
-7.63725e-14
2e-05
-8.11723e-14
2e-05
-8.62277e-14
2e-05
-9.15498e-14
2e-05
-9.71503e-14
2e-05
-1.03041e-13
2e-05
-1.09234e-13
2e-05
-1.15742e-13
2e-05
-1.22577e-13
2e-05
-1.29754e-13
2e-05
-1.37286e-13
2e-05
-1.45187e-13
2e-05
-1.53471e-13
2e-05
-1.62153e-13
2e-05
-1.71249e-13
2e-05
-1.80774e-13
2e-05
-1.90743e-13
2e-05
-2.01173e-13
2e-05
-2.12082e-13
2e-05
-2.23484e-13
2e-05
-2.35399e-13
2e-05
-2.47843e-13
2e-05
-2.60835e-13
2e-05
-2.74391e-13
2e-05
-2.8853e-13
2e-05
-3.0327e-13
2e-05
-3.18628e-13
2e-05
-3.34621e-13
2e-05
-3.51266e-13
2e-05
-3.68576e-13
2e-05
-3.86567e-13
2e-05
-4.05247e-13
2e-05
-4.24624e-13
2e-05
-4.44699e-13
2e-05
-4.6547e-13
2e-05
-4.86921e-13
2e-05
-5.0903e-13
2e-05
-5.31755e-13
2e-05
-5.55037e-13
2e-05
-5.78789e-13
2e-05
-6.0289e-13
2e-05
-6.27173e-13
2e-05
-6.51416e-13
2e-05
-6.75316e-13
2e-05
-6.98475e-13
2e-05
-7.2037e-13
2e-05
-7.40314e-13
2e-05
-7.57413e-13
2e-05
-7.70526e-13
-7.78285e-13
2e-05
-7.68791e-17
2e-05
-2.40325e-16
2e-05
-4.20565e-16
2e-05
-6.22401e-16
2e-05
-8.4599e-16
2e-05
-1.09104e-15
2e-05
-1.35766e-15
2e-05
-1.64631e-15
2e-05
-1.95774e-15
2e-05
-2.29294e-15
2e-05
-2.65313e-15
2e-05
-3.03973e-15
2e-05
-3.45432e-15
2e-05
-3.89867e-15
2e-05
-4.37469e-15
2e-05
-4.88443e-15
2e-05
-5.43009e-15
2e-05
-6.01401e-15
2e-05
-6.63867e-15
2e-05
-7.30671e-15
2e-05
-8.02087e-15
2e-05
-8.78409e-15
2e-05
-9.59942e-15
2e-05
-1.04701e-14
2e-05
-1.13995e-14
2e-05
-1.23912e-14
2e-05
-1.34489e-14
2e-05
-1.45764e-14
2e-05
-1.5778e-14
2e-05
-1.70579e-14
2e-05
-1.84205e-14
2e-05
-1.98705e-14
2e-05
-2.14129e-14
2e-05
-2.30527e-14
2e-05
-2.47953e-14
2e-05
-2.66463e-14
2e-05
-2.86115e-14
2e-05
-3.0697e-14
2e-05
-3.2909e-14
2e-05
-3.52541e-14
2e-05
-3.77392e-14
2e-05
-4.03715e-14
2e-05
-4.31583e-14
2e-05
-4.61073e-14
2e-05
-4.92265e-14
2e-05
-5.25242e-14
2e-05
-5.6009e-14
2e-05
-5.96898e-14
2e-05
-6.3576e-14
2e-05
-6.7677e-14
2e-05
-7.20028e-14
2e-05
-7.65636e-14
2e-05
-8.13701e-14
2e-05
-8.64332e-14
2e-05
-9.17643e-14
2e-05
-9.7375e-14
2e-05
-1.03277e-13
2e-05
-1.09484e-13
2e-05
-1.16008e-13
2e-05
-1.22862e-13
2e-05
-1.3006e-13
2e-05
-1.37616e-13
2e-05
-1.45545e-13
2e-05
-1.53861e-13
2e-05
-1.6258e-13
2e-05
-1.71717e-13
2e-05
-1.81289e-13
2e-05
-1.91313e-13
2e-05
-2.01805e-13
2e-05
-2.12783e-13
2e-05
-2.24265e-13
2e-05
-2.36269e-13
2e-05
-2.48813e-13
2e-05
-2.61918e-13
2e-05
-2.756e-13
2e-05
-2.8988e-13
2e-05
-3.04776e-13
2e-05
-3.20308e-13
2e-05
-3.36492e-13
2e-05
-3.53345e-13
2e-05
-3.70883e-13
2e-05
-3.89118e-13
2e-05
-4.08059e-13
2e-05
-4.2771e-13
2e-05
-4.48071e-13
2e-05
-4.69129e-13
2e-05
-4.90862e-13
2e-05
-5.13233e-13
2e-05
-5.36183e-13
2e-05
-5.59627e-13
2e-05
-5.83446e-13
2e-05
-6.07472e-13
2e-05
-6.31482e-13
2e-05
-6.55174e-13
2e-05
-6.78149e-13
2e-05
-6.99883e-13
2e-05
-7.19692e-13
2e-05
-7.36688e-13
2e-05
-7.49741e-13
-7.57476e-13
2e-05
-6.77609e-17
2e-05
-2.12112e-16
2e-05
-3.7234e-16
2e-05
-5.53271e-16
2e-05
-7.55137e-16
2e-05
-9.7768e-16
2e-05
-1.22101e-15
2e-05
-1.48553e-15
2e-05
-1.7719e-15
2e-05
-2.08103e-15
2e-05
-2.41399e-15
2e-05
-2.77207e-15
2e-05
-3.15672e-15
2e-05
-3.56954e-15
2e-05
-4.01229e-15
2e-05
-4.48688e-15
2e-05
-4.99534e-15
2e-05
-5.53986e-15
2e-05
-6.12277e-15
2e-05
-6.74652e-15
2e-05
-7.41372e-15
2e-05
-8.12713e-15
2e-05
-8.88964e-15
2e-05
-9.70431e-15
2e-05
-1.05743e-14
2e-05
-1.15031e-14
2e-05
-1.24941e-14
2e-05
-1.35512e-14
2e-05
-1.46781e-14
2e-05
-1.5879e-14
2e-05
-1.71581e-14
2e-05
-1.85199e-14
2e-05
-1.99692e-14
2e-05
-2.15108e-14
2e-05
-2.31498e-14
2e-05
-2.48915e-14
2e-05
-2.67416e-14
2e-05
-2.87059e-14
2e-05
-3.07905e-14
2e-05
-3.30016e-14
2e-05
-3.5346e-14
2e-05
-3.78304e-14
2e-05
-4.04621e-14
2e-05
-4.32484e-14
2e-05
-4.61971e-14
2e-05
-4.93163e-14
2e-05
-5.26142e-14
2e-05
-5.60997e-14
2e-05
-5.97817e-14
2e-05
-6.36694e-14
2e-05
-6.77727e-14
2e-05
-7.21016e-14
2e-05
-7.66664e-14
2e-05
-8.14779e-14
2e-05
-8.65472e-14
2e-05
-9.1886e-14
2e-05
-9.7506e-14
2e-05
-1.0342e-13
2e-05
-1.0964e-13
2e-05
-1.1618e-13
2e-05
-1.23052e-13
2e-05
-1.30273e-13
2e-05
-1.37855e-13
2e-05
-1.45813e-13
2e-05
-1.54164e-13
2e-05
-1.62923e-13
2e-05
-1.72107e-13
2e-05
-1.81732e-13
2e-05
-1.91817e-13
2e-05
-2.02378e-13
2e-05
-2.13434e-13
2e-05
-2.25005e-13
2e-05
-2.37109e-13
2e-05
-2.49767e-13
2e-05
-2.62997e-13
2e-05
-2.76821e-13
2e-05
-2.91257e-13
2e-05
-3.06327e-13
2e-05
-3.22049e-13
2e-05
-3.38441e-13
2e-05
-3.55521e-13
2e-05
-3.73302e-13
2e-05
-3.91795e-13
2e-05
-4.11008e-13
2e-05
-4.30939e-13
2e-05
-4.51579e-13
2e-05
-4.7291e-13
2e-05
-4.94893e-13
2e-05
-5.17473e-13
2e-05
-5.40565e-13
2e-05
-5.64051e-13
2e-05
-5.87766e-13
2e-05
-6.11485e-13
2e-05
-6.34908e-13
2e-05
-6.57637e-13
2e-05
-6.79149e-13
2e-05
-6.98765e-13
2e-05
-7.15607e-13
2e-05
-7.28554e-13
-7.3623e-13
2e-05
-5.92557e-17
2e-05
-1.85762e-16
2e-05
-3.27225e-16
2e-05
-4.88456e-16
2e-05
-6.69737e-16
2e-05
-8.70845e-16
2e-05
-1.09189e-15
2e-05
-1.33323e-15
2e-05
-1.59548e-15
2e-05
-1.87944e-15
2e-05
-2.18608e-15
2e-05
-2.51657e-15
2e-05
-2.87223e-15
2e-05
-3.25453e-15
2e-05
-3.66508e-15
2e-05
-4.10565e-15
2e-05
-4.57813e-15
2e-05
-5.08456e-15
2e-05
-5.62709e-15
2e-05
-6.20805e-15
2e-05
-6.82989e-15
2e-05
-7.49519e-15
2e-05
-8.20668e-15
2e-05
-8.96726e-15
2e-05
-9.77996e-15
2e-05
-1.0648e-14
2e-05
-1.15747e-14
2e-05
-1.25636e-14
2e-05
-1.36184e-14
2e-05
-1.47431e-14
2e-05
-1.59416e-14
2e-05
-1.72183e-14
2e-05
-1.85777e-14
2e-05
-2.00243e-14
2e-05
-2.15632e-14
2e-05
-2.31995e-14
2e-05
-2.49385e-14
2e-05
-2.67857e-14
2e-05
-2.87471e-14
2e-05
-3.08288e-14
2e-05
-3.3037e-14
2e-05
-3.53785e-14
2e-05
-3.78602e-14
2e-05
-4.04891e-14
2e-05
-4.32729e-14
2e-05
-4.62193e-14
2e-05
-4.93365e-14
2e-05
-5.26328e-14
2e-05
-5.6117e-14
2e-05
-5.97983e-14
2e-05
-6.3686e-14
2e-05
-6.779e-14
2e-05
-7.21205e-14
2e-05
-7.66879e-14
2e-05
-8.15034e-14
2e-05
-8.65782e-14
2e-05
-9.1924e-14
2e-05
-9.75532e-14
2e-05
-1.03478e-13
2e-05
-1.09712e-13
2e-05
-1.16269e-13
2e-05
-1.23162e-13
2e-05
-1.30406e-13
2e-05
-1.38016e-13
2e-05
-1.46008e-13
2e-05
-1.54398e-13
2e-05
-1.63202e-13
2e-05
-1.72438e-13
2e-05
-1.82122e-13
2e-05
-1.92275e-13
2e-05
-2.02914e-13
2e-05
-2.14058e-13
2e-05
-2.25728e-13
2e-05
-2.37944e-13
2e-05
-2.50727e-13
2e-05
-2.64098e-13
2e-05
-2.78077e-13
2e-05
-2.92686e-13
2e-05
-3.07944e-13
2e-05
-3.23872e-13
2e-05
-3.40488e-13
2e-05
-3.57807e-13
2e-05
-3.75841e-13
2e-05
-3.946e-13
2e-05
-4.14083e-13
2e-05
-4.34285e-13
2e-05
-4.55185e-13
2e-05
-4.7675e-13
2e-05
-4.98923e-13
2e-05
-5.21623e-13
2e-05
-5.44732e-13
2e-05
-5.68086e-13
2e-05
-5.91462e-13
2e-05
-6.1456e-13
2e-05
-6.36987e-13
2e-05
-6.58223e-13
2e-05
-6.77596e-13
2e-05
-6.94237e-13
2e-05
-7.0704e-13
-7.14629e-13
2e-05
-5.13256e-17
2e-05
-1.61181e-16
2e-05
-2.85074e-16
2e-05
-4.27777e-16
2e-05
-5.8961e-16
2e-05
-7.70373e-16
2e-05
-9.70177e-16
2e-05
-1.18936e-15
2e-05
-1.42847e-15
2e-05
-1.68823e-15
2e-05
-1.96953e-15
2e-05
-2.27343e-15
2e-05
-2.60113e-15
2e-05
-2.95398e-15
2e-05
-3.33346e-15
2e-05
-3.74121e-15
2e-05
-4.17897e-15
2e-05
-4.64864e-15
2e-05
-5.15225e-15
2e-05
-5.69196e-15
2e-05
-6.27006e-15
2e-05
-6.88899e-15
2e-05
-7.55133e-15
2e-05
-8.2598e-15
2e-05
-9.01728e-15
2e-05
-9.82678e-15
2e-05
-1.06915e-14
2e-05
-1.16148e-14
2e-05
-1.26002e-14
2e-05
-1.36514e-14
2e-05
-1.47723e-14
2e-05
-1.5967e-14
2e-05
-1.72397e-14
2e-05
-1.85949e-14
2e-05
-2.00373e-14
2e-05
-2.15719e-14
2e-05
-2.32036e-14
2e-05
-2.4938e-14
2e-05
-2.67807e-14
2e-05
-2.87374e-14
2e-05
-3.08144e-14
2e-05
-3.30179e-14
2e-05
-3.53547e-14
2e-05
-3.78318e-14
2e-05
-4.04563e-14
2e-05
-4.32358e-14
2e-05
-4.61782e-14
2e-05
-4.92917e-14
2e-05
-5.25848e-14
2e-05
-5.60663e-14
2e-05
-5.97455e-14
2e-05
-6.36319e-14
2e-05
-6.77355e-14
2e-05
-7.20667e-14
2e-05
-7.66361e-14
2e-05
-8.1455e-14
2e-05
-8.6535e-14
2e-05
-9.1888e-14
2e-05