/*--------------------------------*- C++ -*----------------------------------*\
  =========                 |
  \\      /  F ield         | OpenFOAM: The Open Source CFD Toolbox
   \\    /   O peration     | Website:  https://openfoam.org
    \\  /    A nd           | Version:  11
     \\/     M anipulation  |
\*---------------------------------------------------------------------------*/
FoamFile
{
    format      ascii;
    class       volScalarField;
    location    "120";
    object      omega;
}
// * * * * * * * * * * * * * * * * * * * * * * * * * * * * * * * * * * * * * //

dimensions      [0 0 -1 0 0 0 0];

internalField   nonuniform List<scalar> 
10000
(
0.961705
0.892207
0.829097
0.77171
0.71945
0.671788
0.628253
0.588423
0.551924
0.518417
0.487603
0.45921
0.432996
0.408744
0.386258
0.365363
0.345901
0.327734
0.310737
0.294804
0.279839
0.265765
0.252516
0.240038
0.22829
0.217238
0.206857
0.197128
0.188034
0.179557
0.171682
0.16439
0.157659
0.151466
0.145784
0.140585
0.135838
0.131513
0.127582
0.124013
0.120778
0.11785
0.115202
0.112809
0.110648
0.108699
0.106941
0.105357
0.10393
0.102647
0.101492
0.100455
0.0995229
0.0986867
0.0979368
0.0972649
0.0966632
0.0961249
0.0956437
0.0952138
0.0948301
0.0944878
0.0941828
0.0939111
0.0936692
0.093454
0.0932625
0.0930923
0.092941
0.0928065
0.0926869
0.0925805
0.0924858
0.0924014
0.0923262
0.092259
0.0921989
0.0921451
0.0920967
0.0920532
0.0920139
0.0919784
0.0919461
0.0919167
0.0918898
0.0918652
0.0918426
0.0918217
0.0918025
0.0917847
0.0917683
0.0917532
0.0917394
0.0917268
0.0917155
0.0917056
0.0916971
0.0916903
0.0916854
0.0916824
0.961705
0.892208
0.8291
0.771713
0.719453
0.671792
0.628257
0.588428
0.551929
0.518423
0.487609
0.459217
0.433004
0.408752
0.386267
0.365372
0.345912
0.327746
0.31075
0.294818
0.279855
0.265783
0.252535
0.240059
0.228312
0.217262
0.206882
0.197154
0.188061
0.179585
0.17171
0.164418
0.157686
0.151493
0.14581
0.140609
0.135862
0.131537
0.127604
0.124035
0.120799
0.117869
0.115219
0.112825
0.110663
0.108712
0.106953
0.105368
0.103941
0.102656
0.101501
0.100463
0.0995305
0.0986937
0.0979433
0.0972708
0.0966687
0.09613
0.0956483
0.0952181
0.094834
0.0944915
0.0941861
0.0939141
0.093672
0.0934566
0.0932649
0.0930945
0.0929431
0.0928084
0.0926886
0.0925821
0.0924872
0.0924028
0.0923274
0.0922601
0.0922
0.092146
0.0920976
0.092054
0.0920147
0.091979
0.0919467
0.0919172
0.0918903
0.0918657
0.091843
0.0918221
0.0918029
0.0917851
0.0917686
0.0917535
0.0917396
0.091727
0.0917157
0.0917057
0.0916973
0.0916905
0.0916855
0.0916826
0.961705
0.892209
0.829103
0.771717
0.719459
0.671799
0.628265
0.588437
0.551939
0.518434
0.487621
0.459229
0.433017
0.408766
0.386282
0.365389
0.34593
0.327766
0.310772
0.294842
0.279882
0.265812
0.252568
0.240094
0.22835
0.217302
0.206925
0.197198
0.188106
0.179631
0.171756
0.164464
0.157732
0.151537
0.145853
0.140651
0.135901
0.131575
0.12764
0.124069
0.120831
0.117899
0.115247
0.112851
0.110687
0.108734
0.106973
0.105386
0.103958
0.102672
0.101515
0.100476
0.0995422
0.0987044
0.097953
0.0972797
0.0966768
0.0961373
0.095655
0.0952242
0.0948396
0.0944965
0.0941907
0.0939183
0.0936758
0.09346
0.093268
0.0930973
0.0929456
0.0928106
0.0926907
0.0925839
0.0924889
0.0924043
0.0923288
0.0922614
0.0922011
0.0921471
0.0920986
0.0920549
0.0920155
0.0919798
0.0919474
0.0919179
0.0918909
0.0918662
0.0918435
0.0918226
0.0918033
0.0917855
0.091769
0.0917539
0.09174
0.0917273
0.091716
0.0917061
0.0916976
0.0916908
0.0916859
0.0916829
0.961705
0.892211
0.829106
0.771722
0.719466
0.671807
0.628275
0.588449
0.551952
0.518448
0.487636
0.459246
0.433035
0.408786
0.386304
0.365412
0.345956
0.327794
0.310803
0.294877
0.27992
0.265854
0.252613
0.240143
0.228402
0.217357
0.206983
0.197259
0.188168
0.179694
0.17182
0.164527
0.157794
0.151598
0.145912
0.140708
0.135956
0.131627
0.12769
0.124115
0.120874
0.11794
0.115285
0.112885
0.110719
0.108763
0.107
0.105411
0.10398
0.102692
0.101534
0.100493
0.0995581
0.0987188
0.0979662
0.0972916
0.0966876
0.0961471
0.0956639
0.0952322
0.0948468
0.094503
0.0941966
0.0939236
0.0936805
0.0934642
0.0932718
0.0931008
0.0929487
0.0928134
0.0926931
0.0925862
0.0924909
0.0924061
0.0923304
0.0922629
0.0922024
0.0921483
0.0920996
0.0920559
0.0920163
0.0919806
0.0919481
0.0919186
0.0918915
0.0918668
0.0918441
0.0918231
0.0918038
0.091786
0.0917695
0.0917543
0.0917404
0.0917278
0.0917165
0.0917065
0.0916981
0.0916913
0.0916863
0.0916834
0.961705
0.892211
0.829108
0.771727
0.719472
0.671816
0.628286
0.588462
0.551967
0.518464
0.487654
0.459266
0.433057
0.40881
0.38633
0.365442
0.345988
0.327829
0.310843
0.29492
0.279967
0.265906
0.252669
0.240204
0.228468
0.217428
0.207057
0.197336
0.188247
0.179774
0.1719
0.164607
0.157873
0.151675
0.145986
0.140779
0.136024
0.131692
0.127751
0.124173
0.120929
0.11799
0.115332
0.112929
0.110759
0.1088
0.107034
0.105442
0.104009
0.102719
0.101558
0.100515
0.0995779
0.0987369
0.0979825
0.0973065
0.0967011
0.0961593
0.0956749
0.0952421
0.0948557
0.0945111
0.0942038
0.0939301
0.0936863
0.0934694
0.0932765
0.0931049
0.0929524
0.0928167
0.0926961
0.0925888
0.0924933
0.0924082
0.0923323
0.0922645
0.0922039
0.0921496
0.0921009
0.092057
0.0920174
0.0919815
0.091949
0.0919193
0.0918923
0.0918675
0.0918447
0.0918238
0.0918044
0.0917866
0.0917701
0.0917549
0.091741
0.0917284
0.091717
0.0917071
0.0916987
0.0916919
0.0916869
0.091684
0.961705
0.892212
0.82911
0.77173
0.719478
0.671824
0.628297
0.588475
0.551982
0.518482
0.487675
0.459289
0.433082
0.408838
0.386361
0.365476
0.346026
0.327871
0.310889
0.294971
0.280024
0.265968
0.252737
0.240277
0.228546
0.217511
0.207144
0.197427
0.18834
0.179869
0.171995
0.164701
0.157966
0.151765
0.146074
0.140863
0.136105
0.131768
0.127823
0.124241
0.120992
0.11805
0.115387
0.11298
0.110806
0.108844
0.107074
0.105479
0.104043
0.102749
0.101586
0.100541
0.0996013
0.0987581
0.0980018
0.097324
0.0967169
0.0961736
0.0956878
0.0952538
0.0948662
0.0945205
0.0942122
0.0939376
0.0936931
0.0934755
0.0932819
0.0931097
0.0929567
0.0928205
0.0926995
0.0925918
0.0924959
0.0924106
0.0923344
0.0922664
0.0922056
0.0921511
0.0921022
0.0920582
0.0920184
0.0919825
0.0919499
0.0919202
0.0918931
0.0918682
0.0918454
0.0918244
0.0918051
0.0917872
0.0917707
0.0917555
0.0917416
0.091729
0.0917177
0.0917078
0.0916993
0.0916925
0.0916876
0.0916846
0.961705
0.892212
0.829111
0.771733
0.719483
0.671832
0.628307
0.588488
0.551998
0.518501
0.487696
0.459313
0.43311
0.408869
0.386395
0.365514
0.346068
0.327918
0.310942
0.295029
0.280088
0.266038
0.252814
0.24036
0.228635
0.217605
0.207243
0.197529
0.188446
0.179976
0.172103
0.164808
0.158071
0.151868
0.146173
0.140958
0.136196
0.131855
0.127905
0.124318
0.121064
0.118117
0.115449
0.113038
0.11086
0.108893
0.10712
0.105521
0.104081
0.102784
0.101618
0.10057
0.0996278
0.0987823
0.0980237
0.0973438
0.0967349
0.0961898
0.0957024
0.0952669
0.094878
0.0945311
0.0942217
0.0939461
0.0937007
0.0934822
0.0932879
0.0931151
0.0929614
0.0928247
0.0927032
0.0925951
0.0924988
0.0924131
0.0923367
0.0922684
0.0922074
0.0921527
0.0921036
0.0920594
0.0920196
0.0919835
0.0919508
0.091921
0.0918939
0.091869
0.0918461
0.0918251
0.0918057
0.0917879
0.0917714
0.0917562
0.0917423
0.0917297
0.0917184
0.0917085
0.0917001
0.0916933
0.0916883
0.0916854
0.961705
0.892212
0.829112
0.771735
0.719487
0.671838
0.628316
0.5885
0.552013
0.518519
0.487717
0.459338
0.433138
0.408901
0.386432
0.365555
0.346114
0.32797
0.310999
0.295093
0.280158
0.266115
0.252898
0.240451
0.228733
0.217709
0.207352
0.197642
0.188561
0.180093
0.172221
0.164925
0.158186
0.15198
0.146282
0.141064
0.136296
0.13195
0.127995
0.124403
0.121144
0.118191
0.115518
0.113102
0.110919
0.108948
0.10717
0.105567
0.104123
0.102823
0.101654
0.100602
0.0996572
0.0988089
0.0980479
0.0973658
0.0967547
0.0962077
0.0957186
0.0952814
0.0948911
0.0945427
0.0942322
0.0939554
0.093709
0.0934896
0.0932944
0.0931209
0.0929665
0.0928292
0.0927072
0.0925986
0.0925019
0.0924158
0.092339
0.0922705
0.0922092
0.0921543
0.092105
0.0920607
0.0920207
0.0919845
0.0919517
0.0919219
0.0918947
0.0918697
0.0918469
0.0918258
0.0918064
0.0917885
0.0917721
0.0917569
0.091743
0.0917304
0.0917191
0.0917092
0.0917009
0.0916941
0.0916891
0.0916862
0.961704
0.892211
0.829112
0.771736
0.71949
0.671844
0.628324
0.588511
0.552027
0.518537
0.487738
0.459363
0.433167
0.408935
0.38647
0.365598
0.346163
0.328025
0.31106
0.295161
0.280234
0.266199
0.252989
0.24055
0.228838
0.21782
0.207469
0.197764
0.188686
0.18022
0.172348
0.165052
0.158311
0.152102
0.1464
0.141177
0.136404
0.132053
0.128092
0.124494
0.121229
0.118271
0.115593
0.113171
0.110983
0.109007
0.107224
0.105617
0.104169
0.102865
0.101692
0.100637
0.099689
0.0988378
0.0980741
0.0973895
0.0967761
0.0962271
0.095736
0.0952971
0.0949051
0.0945553
0.0942434
0.0939654
0.0937179
0.0934975
0.0933014
0.093127
0.0929719
0.092834
0.0927114
0.0926023
0.0925051
0.0924186
0.0923415
0.0922726
0.0922111
0.0921559
0.0921064
0.0920619
0.0920218
0.0919855
0.0919526
0.0919227
0.0918954
0.0918704
0.0918475
0.0918265
0.0918071
0.0917892
0.0917727
0.0917576
0.0917437
0.0917312
0.0917199
0.09171
0.0917017
0.0916949
0.09169
0.091687
0.961704
0.892211
0.829111
0.771737
0.719493
0.671848
0.628331
0.588521
0.55204
0.518553
0.487759
0.459387
0.433196
0.408969
0.386509
0.365643
0.346214
0.328082
0.311125
0.295233
0.280314
0.266286
0.253085
0.240654
0.22895
0.217938
0.207593
0.197893
0.188818
0.180354
0.172483
0.165186
0.158443
0.152231
0.146525
0.141297
0.136519
0.132162
0.128196
0.124591
0.121321
0.118356
0.115672
0.113245
0.111051
0.10907
0.107282
0.10567
0.104218
0.10291
0.101733
0.100674
0.0997229
0.0988686
0.0981021
0.0974148
0.096799
0.0962477
0.0957545
0.0953137
0.09492
0.0945686
0.0942553
0.093976
0.0937272
0.0935058
0.0933088
0.0931335
0.0929776
0.092839
0.0927157
0.0926061
0.0925084
0.0924215
0.092344
0.0922748
0.0922129
0.0921575
0.0921078
0.0920632
0.0920229
0.0919865
0.0919535
0.0919235
0.0918961
0.0918711
0.0918482
0.0918271
0.0918077
0.0917899
0.0917734
0.0917583
0.0917444
0.0917319
0.0917207
0.0917108
0.0917025
0.0916958
0.0916908
0.0916879
0.961704
0.89221
0.829111
0.771737
0.719494
0.671851
0.628337
0.588529
0.552052
0.518569
0.487779
0.459411
0.433225
0.409002
0.386548
0.365688
0.346266
0.328141
0.311191
0.295307
0.280396
0.266378
0.253184
0.240762
0.229066
0.218062
0.207723
0.198027
0.188957
0.180494
0.172624
0.165326
0.158581
0.152366
0.146656
0.141423
0.13664
0.132277
0.128304
0.124694
0.121416
0.118446
0.115755
0.113322
0.111122
0.109136
0.107343
0.105726
0.104269
0.102957
0.101776
0.100713
0.0997586
0.0989011
0.0981315
0.0974414
0.096823
0.0962694
0.095774
0.0953312
0.0949357
0.0945826
0.0942677
0.0939871
0.0937371
0.0935145
0.0933164
0.0931402
0.0929835
0.0928441
0.0927202
0.0926099
0.0925118
0.0924244
0.0923465
0.0922769
0.0922148
0.0921591
0.0921092
0.0920643
0.0920239
0.0919874
0.0919543
0.0919242
0.0918968
0.0918717
0.0918488
0.0918277
0.0918083
0.0917905
0.091774
0.0917589
0.0917451
0.0917326
0.0917214
0.0917116
0.0917033
0.0916966
0.0916917
0.0916887
0.961703
0.892209
0.82911
0.771737
0.719495
0.671854
0.628342
0.588537
0.552063
0.518583
0.487797
0.459434
0.433253
0.409036
0.386587
0.365734
0.346318
0.328201
0.311259
0.295383
0.280481
0.266471
0.253287
0.240873
0.229186
0.218189
0.207856
0.198166
0.189099
0.180639
0.17277
0.165471
0.158724
0.152506
0.146792
0.141554
0.136765
0.132396
0.128417
0.1248
0.121516
0.118539
0.115842
0.113403
0.111197
0.109205
0.107407
0.105785
0.104323
0.103006
0.101821
0.100754
0.0997958
0.0989349
0.0981622
0.0974692
0.0968481
0.0962919
0.0957943
0.0953494
0.0949519
0.0945971
0.0942807
0.0939985
0.0937472
0.0935234
0.0933243
0.0931471
0.0929895
0.0928494
0.0927247
0.0926138
0.0925152
0.0924273
0.0923489
0.092279
0.0922165
0.0921606
0.0921105
0.0920654
0.0920248
0.0919881
0.0919549
0.0919248
0.0918973
0.0918723
0.0918493
0.0918282
0.0918088
0.091791
0.0917746
0.0917595
0.0917458
0.0917333
0.0917221
0.0917124
0.0917041
0.0916974
0.0916925
0.0916895
0.961703
0.892208
0.829109
0.771736
0.719495
0.671856
0.628346
0.588544
0.552073
0.518597
0.487815
0.459456
0.43328
0.409068
0.386626
0.365779
0.34637
0.328261
0.311327
0.29546
0.280567
0.266567
0.253392
0.240987
0.229308
0.218319
0.207993
0.198308
0.189245
0.180788
0.172919
0.16562
0.158871
0.15265
0.146931
0.141688
0.136894
0.132518
0.128533
0.124909
0.121618
0.118635
0.115932
0.113486
0.111274
0.109276
0.107472
0.105845
0.104378
0.103057
0.101867
0.100797
0.0998344
0.0989699
0.0981939
0.0974979
0.096874
0.0963153
0.0958153
0.0953682
0.0949687
0.0946121
0.0942939
0.0940103
0.0937576
0.0935326
0.0933323
0.0931541
0.0929956
0.0928547
0.0927293
0.0926178
0.0925185
0.0924301
0.0923513
0.092281
0.0922182
0.092162
0.0921117
0.0920664
0.0920256
0.0919888
0.0919555
0.0919253
0.0918978
0.0918727
0.0918497
0.0918286
0.0918093
0.0917914
0.0917751
0.09176
0.0917463
0.0917339
0.0917228
0.0917131
0.0917048
0.0916982
0.0916933
0.0916903
0.961702
0.892207
0.829108
0.771736
0.719495
0.671857
0.628349
0.588549
0.552082
0.518609
0.487831
0.459477
0.433306
0.4091
0.386664
0.365824
0.346422
0.328321
0.311395
0.295538
0.280654
0.266663
0.253498
0.241102
0.229432
0.218451
0.208132
0.198452
0.189394
0.180939
0.173071
0.165772
0.159021
0.152796
0.147073
0.141826
0.137025
0.132643
0.128651
0.125021
0.121723
0.118733
0.116023
0.113571
0.111353
0.109349
0.10754
0.105907
0.104435
0.103109
0.101915
0.10084
0.0998739
0.0990058
0.0982265
0.0975273
0.0969006
0.0963392
0.0958367
0.0953874
0.0949859
0.0946274
0.0943075
0.0940223
0.0937682
0.0935419
0.0933405
0.0931612
0.0930018
0.09286
0.0927339
0.0926217
0.0925218
0.0924329
0.0923537
0.092283
0.0922199
0.0921634
0.0921128
0.0920673
0.0920264
0.0919894
0.091956
0.0919257
0.0918982
0.091873
0.09185
0.0918289
0.0918096
0.0917918
0.0917755
0.0917605
0.0917468
0.0917345
0.0917234
0.0917137
0.0917055
0.0916988
0.091694
0.091691
0.961702
0.892206
0.829107
0.771734
0.719495
0.671858
0.628352
0.588554
0.55209
0.518621
0.487847
0.459497
0.433331
0.409131
0.386701
0.365867
0.346474
0.32838
0.311463
0.295615
0.28074
0.266759
0.253604
0.241217
0.229556
0.218583
0.208271
0.198598
0.189544
0.181092
0.173225
0.165925
0.159172
0.152945
0.147217
0.141965
0.137158
0.13277
0.128772
0.125134
0.12183
0.118833
0.116116
0.113657
0.111433
0.109423
0.107608
0.10597
0.104493
0.103162
0.101963
0.100884
0.0999142
0.0990425
0.0982597
0.0975573
0.0969276
0.0963635
0.0958586
0.095407
0.0950034
0.0946429
0.0943213
0.0940345
0.0937789
0.0935513
0.0933487
0.0931684
0.093008
0.0928653
0.0927384
0.0926255
0.0925251
0.0924357
0.092356
0.0922849
0.0922214
0.0921646
0.0921137
0.0920681
0.092027
0.0919899
0.0919564
0.091926
0.0918984
0.0918732
0.0918502
0.0918292
0.0918098
0.0917921
0.0917758
0.0917609
0.0917472
0.0917349
0.0917239
0.0917143
0.0917061
0.0916995
0.0916946
0.0916917
0.961702
0.892205
0.829105
0.771733
0.719494
0.671859
0.628354
0.588559
0.552097
0.518631
0.487861
0.459516
0.433355
0.40916
0.386737
0.36591
0.346524
0.328438
0.31153
0.295691
0.280826
0.266855
0.253709
0.241333
0.22968
0.218716
0.208411
0.198744
0.189694
0.181244
0.173379
0.166079
0.159325
0.153094
0.147362
0.142105
0.137293
0.132898
0.128893
0.125249
0.121938
0.118934
0.11621
0.113745
0.111515
0.109498
0.107677
0.106034
0.104552
0.103216
0.102012
0.100929
0.0999551
0.0990796
0.0982933
0.0975878
0.0969551
0.0963882
0.0958807
0.0954268
0.095021
0.0946586
0.0943352
0.0940468
0.0937897
0.0935607
0.0933569
0.0931755
0.0930141
0.0928706
0.0927429
0.0926293
0.0925283
0.0924383
0.0923581
0.0922866
0.0922228
0.0921657
0.0921146
0.0920687
0.0920274
0.0919903
0.0919566
0.0919262
0.0918985
0.0918733
0.0918503
0.0918293
0.09181
0.0917922
0.091776
0.0917611
0.0917476
0.0917353
0.0917243
0.0917147
0.0917066
0.0917
0.0916952
0.0916922
0.961701
0.892204
0.829104
0.771732
0.719494
0.671859
0.628356
0.588563
0.552103
0.518641
0.487874
0.459534
0.433378
0.409189
0.386772
0.365952
0.346573
0.328496
0.311596
0.295766
0.280911
0.26695
0.253814
0.241447
0.229804
0.218848
0.20855
0.198889
0.189843
0.181397
0.173533
0.166233
0.159477
0.153243
0.147508
0.142245
0.137427
0.133027
0.129015
0.125364
0.122046
0.119035
0.116305
0.113833
0.111596
0.109574
0.107747
0.106098
0.104611
0.10327
0.102062
0.100975
0.0999963
0.0991171
0.0983273
0.0976184
0.0969827
0.0964131
0.095903
0.0954467
0.0950388
0.0946744
0.0943492
0.0940591
0.0938005
0.0935702
0.0933651
0.0931826
0.0930202
0.0928758
0.0927473
0.092633
0.0925313
0.0924408
0.0923602
0.0922883
0.0922241
0.0921667
0.0921153
0.0920692
0.0920278
0.0919905
0.0919567
0.0919262
0.0918985
0.0918733
0.0918503
0.0918292
0.09181
0.0917923
0.0917761
0.0917613
0.0917478
0.0917356
0.0917247
0.0917151
0.091707
0.0917005
0.0916956
0.0916927
0.961701
0.892203
0.829103
0.771731
0.719493
0.671859
0.628357
0.588566
0.552109
0.51865
0.487887
0.459551
0.4334
0.409216
0.386805
0.365992
0.346621
0.328552
0.311661
0.29584
0.280995
0.267043
0.253917
0.24156
0.229926
0.218978
0.208688
0.199033
0.189992
0.181549
0.173686
0.166386
0.159628
0.153392
0.147653
0.142385
0.137562
0.133155
0.129137
0.125479
0.122155
0.119137
0.1164
0.113922
0.111679
0.10965
0.107818
0.106163
0.10467
0.103324
0.102112
0.10102
0.100038
0.0991547
0.0983614
0.0976493
0.0970105
0.0964381
0.0959254
0.0954667
0.0950566
0.0946902
0.0943631
0.0940714
0.0938113
0.0935796
0.0933732
0.0931896
0.0930262
0.0928809
0.0927516
0.0926366
0.0925343
0.0924432
0.0923621
0.0922898
0.0922252
0.0921675
0.0921159
0.0920696
0.092028
0.0919905
0.0919567
0.0919261
0.0918984
0.0918731
0.0918501
0.0918291
0.0918099
0.0917922
0.0917761
0.0917613
0.0917479
0.0917357
0.0917249
0.0917154
0.0917073
0.0917008
0.091696
0.0916931
0.9617
0.892202
0.829101
0.77173
0.719492
0.671859
0.628359
0.588569
0.552114
0.518658
0.487899
0.459567
0.43342
0.409242
0.386837
0.366031
0.346667
0.328606
0.311724
0.295912
0.281076
0.267135
0.254018
0.241671
0.230046
0.219107
0.208824
0.199175
0.190139
0.181699
0.173838
0.166538
0.159779
0.15354
0.147797
0.142524
0.137696
0.133283
0.129259
0.125594
0.122263
0.119238
0.116495
0.11401
0.111761
0.109726
0.107888
0.106228
0.10473
0.103379
0.102162
0.101066
0.100079
0.0991924
0.0983955
0.0976801
0.0970383
0.096463
0.0959478
0.0954867
0.0950743
0.0947059
0.094377
0.0940836
0.093822
0.0935889
0.0933813
0.0931965
0.0930321
0.0928859
0.0927558
0.0926401
0.0925371
0.0924455
0.0923639
0.0922912
0.0922262
0.0921683
0.0921164
0.0920698
0.0920281
0.0919905
0.0919566
0.0919259
0.0918981
0.0918729
0.0918498
0.0918288
0.0918096
0.0917921
0.091776
0.0917613
0.0917479
0.0917358
0.091725
0.0917156
0.0917076
0.0917011
0.0916963
0.0916934
0.9617
0.892201
0.8291
0.771728
0.719491
0.671859
0.628359
0.588572
0.552119
0.518666
0.48791
0.459582
0.43344
0.409267
0.386868
0.366068
0.346712
0.328659
0.311785
0.295983
0.281156
0.267224
0.254118
0.24178
0.230164
0.219233
0.208958
0.199315
0.190283
0.181847
0.173987
0.166687
0.159927
0.153686
0.147939
0.142662
0.137828
0.13341
0.129379
0.125708
0.12237
0.119339
0.116589
0.114098
0.111842
0.109802
0.107958
0.106292
0.104789
0.103433
0.102211
0.101111
0.100121
0.0992299
0.0984295
0.0977108
0.097066
0.0964879
0.09597
0.0955065
0.095092
0.0947216
0.0943908
0.0940957
0.0938325
0.0935981
0.0933892
0.0932033
0.0930379
0.0928908
0.0927599
0.0926434
0.0925399
0.0924477
0.0923656
0.0922924
0.0922271
0.0921688
0.0921167
0.09207
0.092028
0.0919903
0.0919563
0.0919256
0.0918977
0.0918725
0.0918495
0.0918285
0.0918093
0.0917918
0.0917757
0.0917611
0.0917478
0.0917358
0.091725
0.0917156
0.0917077
0.0917012
0.0916965
0.0916936
0.9617
0.8922
0.829099
0.771727
0.71949
0.671858
0.62836
0.588574
0.552124
0.518673
0.487921
0.459596
0.433459
0.409291
0.386898
0.366105
0.346755
0.32871
0.311845
0.296051
0.281234
0.267311
0.254214
0.241886
0.230279
0.219357
0.209089
0.199452
0.190425
0.181992
0.174134
0.166835
0.160074
0.15383
0.14808
0.142798
0.137959
0.133535
0.129498
0.125821
0.122477
0.119439
0.116683
0.114185
0.111923
0.109877
0.108027
0.106356
0.104848
0.103487
0.102261
0.101156
0.100162
0.0992671
0.0984632
0.0977413
0.0970934
0.0965125
0.0959921
0.0955262
0.0951095
0.0947371
0.0944045
0.0941076
0.093843
0.0936071
0.093397
0.09321
0.0930436
0.0928955
0.0927638
0.0926466
0.0925424
0.0924497
0.0923671
0.0922935
0.0922279
0.0921693
0.0921169
0.09207
0.0920278
0.09199
0.0919559
0.0919251
0.0918972
0.0918719
0.0918489
0.091828
0.0918089
0.0917914
0.0917754
0.0917608
0.0917476
0.0917356
0.0917249
0.0917156
0.0917077
0.0917013
0.0916965
0.0916936
0.961699
0.8922
0.829098
0.771726
0.719489
0.671858
0.628361
0.588576
0.552128
0.51868
0.48793
0.45961
0.433477
0.409314
0.386926
0.366139
0.346797
0.328759
0.311902
0.296117
0.281309
0.267396
0.254309
0.241989
0.230392
0.219477
0.209217
0.199586
0.190564
0.182134
0.174279
0.166979
0.160217
0.153971
0.148218
0.142932
0.138088
0.133658
0.129616
0.125932
0.122582
0.119537
0.116775
0.114271
0.112003
0.109951
0.108096
0.106419
0.104906
0.103541
0.10231
0.101201
0.100202
0.099304
0.0984966
0.0977714
0.0971206
0.0965369
0.0960139
0.0955456
0.0951268
0.0947523
0.0944179
0.0941194
0.0938532
0.093616
0.0934046
0.0932165
0.093049
0.0929001
0.0927676
0.0926497
0.0925449
0.0924516
0.0923685
0.0922945
0.0922285
0.0921696
0.092117
0.0920698
0.0920275
0.0919896
0.0919554
0.0919245
0.0918966
0.0918713
0.0918483
0.0918274
0.0918083
0.0917909
0.0917749
0.0917604
0.0917472
0.0917353
0.0917247
0.0917155
0.0917076
0.0917012
0.0916965
0.0916936
0.961699
0.892199
0.829096
0.771724
0.719488
0.671857
0.628361
0.588578
0.552132
0.518686
0.48794
0.459623
0.433494
0.409336
0.386953
0.366173
0.346837
0.328806
0.311957
0.296181
0.281382
0.267478
0.2544
0.24209
0.230501
0.219594
0.209341
0.199716
0.190699
0.182273
0.174419
0.16712
0.160358
0.154109
0.148353
0.143063
0.138214
0.13378
0.129731
0.126042
0.122685
0.119634
0.116866
0.114356
0.112082
0.110024
0.108163
0.106482
0.104963
0.103593
0.102358
0.101245
0.100242
0.0993404
0.0985296
0.0978012
0.0971474
0.0965609
0.0960354
0.0955648
0.0951437
0.0947673
0.0944311
0.094131
0.0938633
0.0936246
0.0934121
0.0932228
0.0930544
0.0929045
0.0927712
0.0926526
0.0925471
0.0924533
0.0923698
0.0922953
0.092229
0.0921698
0.0921169
0.0920696
0.0920271
0.091989
0.0919548
0.0919238
0.0918959
0.0918706
0.0918476
0.0918267
0.0918076
0.0917903
0.0917744
0.0917599
0.0917468
0.091735
0.0917244
0.0917152
0.0917074
0.0917011
0.0916964
0.0916935
0.961699
0.892198
0.829095
0.771723
0.719487
0.671857
0.628362
0.58858
0.552135
0.518692
0.487948
0.459635
0.43351
0.409356
0.386979
0.366204
0.346875
0.328852
0.312011
0.296242
0.281452
0.267557
0.254488
0.242187
0.230606
0.219708
0.209462
0.199843
0.190831
0.182408
0.174556
0.167258
0.160494
0.154244
0.148485
0.143191
0.138338
0.133898
0.129844
0.126149
0.122786
0.119729
0.116955
0.114439
0.112159
0.110096
0.10823
0.106543
0.10502
0.103645
0.102405
0.101288
0.100282
0.0993762
0.098562
0.0978304
0.0971737
0.0965846
0.0960565
0.0955836
0.0951604
0.0947821
0.094444
0.0941423
0.0938731
0.0936331
0.0934193
0.0932289
0.0930595
0.0929087
0.0927746
0.0926554
0.0925493
0.0924549
0.0923709
0.0922961
0.0922294
0.0921699
0.0921167
0.0920692
0.0920266
0.0919884
0.091954
0.0919231
0.0918951
0.0918698
0.0918468
0.0918259
0.0918069
0.0917896
0.0917738
0.0917594
0.0917463
0.0917345
0.0917241
0.0917149
0.0917071
0.0917008
0.0916962
0.0916933
0.961698
0.892197
0.829094
0.771722
0.719486
0.671856
0.628362
0.588582
0.552139
0.518697
0.487957
0.459646
0.433525
0.409376
0.387004
0.366235
0.346912
0.328895
0.312062
0.296302
0.281519
0.267633
0.254573
0.242281
0.230708
0.219818
0.209579
0.199966
0.190958
0.182539
0.174689
0.167392
0.160628
0.154376
0.148613
0.143316
0.138459
0.134014
0.129954
0.126253
0.122884
0.119822
0.117042
0.11452
0.112235
0.110166
0.108295
0.106603
0.105075
0.103696
0.102452
0.10133
0.10032
0.0994112
0.0985937
0.0978591
0.0971995
0.0966077
0.0960772
0.095602
0.0951767
0.0947965
0.0944567
0.0941533
0.0938826
0.0936413
0.0934263
0.0932349
0.0930645
0.0929128
0.0927779
0.092658
0.0925513
0.0924564
0.0923719
0.0922967
0.0922296
0.0921698
0.0921165
0.0920687
0.092026
0.0919877
0.0919532
0.0919222
0.0918942
0.0918688
0.0918459
0.091825
0.091806
0.0917888
0.091773
0.0917587
0.0917457
0.091734
0.0917236
0.0917145
0.0917067
0.0917005
0.0916959
0.091693
0.961698
0.892196
0.829093
0.771721
0.719485
0.671856
0.628362
0.588583
0.552142
0.518703
0.487964
0.459657
0.43354
0.409395
0.387028
0.366264
0.346947
0.328937
0.312111
0.296358
0.281584
0.267706
0.254655
0.242371
0.230807
0.219924
0.209691
0.200084
0.191082
0.182665
0.174818
0.167521
0.160757
0.154503
0.148738
0.143438
0.138576
0.134126
0.130061
0.126355
0.122981
0.119913
0.117127
0.114599
0.112309
0.110235
0.108358
0.106662
0.105129
0.103745
0.102497
0.101372
0.100358
0.0994455
0.0986248
0.0978872
0.0972247
0.0966303
0.0960974
0.09562
0.0951927
0.0948105
0.094469
0.094164
0.0938919
0.0936493
0.0934331
0.0932406
0.0930692
0.0929167
0.0927811
0.0926604
0.0925531
0.0924577
0.0923728
0.0922971
0.0922298
0.0921697
0.0921161
0.0920682
0.0920253
0.0919868
0.0919523
0.0919212
0.0918932
0.0918678
0.0918449
0.0918241
0.0918051
0.0917879
0.0917722
0.0917579
0.091745
0.0917334
0.091723
0.091714
0.0917063
0.0917001
0.0916955
0.0916926
0.961698
0.892196
0.829092
0.771719
0.719484
0.671855
0.628362
0.588584
0.552145
0.518708
0.487972
0.459668
0.433554
0.409413
0.38705
0.366292
0.34698
0.328977
0.312158
0.296413
0.281646
0.267777
0.254733
0.242457
0.230901
0.220026
0.2098
0.200198
0.191201
0.182788
0.174942
0.167647
0.160882
0.154627
0.148859
0.143555
0.138689
0.134235
0.130165
0.126454
0.123074
0.120001
0.117209
0.114676
0.112381
0.110301
0.10842
0.106719
0.105181
0.103793
0.102541
0.101412
0.100395
0.0994789
0.098655
0.0979145
0.0972493
0.0966523
0.0961171
0.0956375
0.0952081
0.0948241
0.0944809
0.0941744
0.0939009
0.093657
0.0934397
0.0932461
0.0930738
0.0929205
0.0927841
0.0926627
0.0925549
0.0924589
0.0923735
0.0922975
0.0922298
0.0921695
0.0921156
0.0920675
0.0920245
0.0919859
0.0919513
0.0919202
0.0918921
0.0918668
0.0918438
0.091823
0.0918041
0.0917869
0.0917713
0.0917571
0.0917443
0.0917327
0.0917224
0.0917134
0.0917058
0.0916996
0.091695
0.0916922
0.961698
0.892195
0.829091
0.771718
0.719483
0.671855
0.628363
0.588586
0.552147
0.518712
0.487979
0.459677
0.433567
0.40943
0.387072
0.366318
0.347012
0.329015
0.312202
0.296464
0.281706
0.267844
0.254808
0.24254
0.230992
0.220124
0.209904
0.200308
0.191315
0.182905
0.175062
0.167767
0.161002
0.154746
0.148976
0.143669
0.138799
0.13434
0.130266
0.12655
0.123165
0.120086
0.117289
0.114751
0.11245
0.110366
0.10848
0.106774
0.105233
0.10384
0.102584
0.101451
0.100431
0.0995114
0.0986845
0.097941
0.0972732
0.0966737
0.0961362
0.0956544
0.0952232
0.0948373
0.0944925
0.0941845
0.0939096
0.0936645
0.093446
0.0932514
0.0930782
0.092924
0.0927869
0.0926649
0.0925564
0.09246
0.0923742
0.0922978
0.0922298
0.0921691
0.0921151
0.0920668
0.0920236
0.0919849
0.0919502
0.091919
0.091891
0.0918656
0.0918427
0.0918219
0.0918031
0.0917859
0.0917704
0.0917562
0.0917434
0.0917319
0.0917217
0.0917127
0.0917052
0.091699
0.0916945
0.0916916
0.961697
0.892194
0.82909
0.771717
0.719482
0.671854
0.628363
0.588587
0.55215
0.518716
0.487985
0.459687
0.433579
0.409446
0.387092
0.366343
0.347043
0.329051
0.312245
0.296514
0.281762
0.267908
0.25488
0.24262
0.231079
0.220217
0.210004
0.200413
0.191424
0.183018
0.175177
0.167883
0.161118
0.15486
0.149088
0.143778
0.138905
0.134442
0.130363
0.126642
0.123252
0.120168
0.117367
0.114824
0.112518
0.110429
0.108538
0.106828
0.105282
0.103886
0.102626
0.101489
0.100465
0.0995429
0.0987129
0.0979667
0.0972963
0.0966945
0.0961546
0.0956709
0.0952377
0.0948501
0.0945037
0.0941942
0.093918
0.0936716
0.093452
0.0932564
0.0930823
0.0929274
0.0927895
0.0926669
0.0925579
0.0924609
0.0923747
0.0922979
0.0922296
0.0921687
0.0921145
0.092066
0.0920227
0.0919839
0.0919491
0.0919179
0.0918898
0.0918644
0.0918415
0.0918208
0.0918019
0.0917849
0.0917693
0.0917553
0.0917425
0.0917311
0.0917209
0.091712
0.0917045
0.0916984
0.0916939
0.0916911
0.961697
0.892194
0.829089
0.771716
0.719481
0.671854
0.628363
0.588588
0.552152
0.51872
0.487991
0.459695
0.433591
0.409461
0.387111
0.366367
0.347071
0.329086
0.312285
0.296561
0.281816
0.267969
0.254949
0.242695
0.231161
0.220307
0.210099
0.200514
0.191529
0.183126
0.175287
0.167994
0.161229
0.15497
0.149196
0.143884
0.139007
0.13454
0.130457
0.126731
0.123336
0.120248
0.117441
0.114893
0.112583
0.110489
0.108594
0.10688
0.10533
0.10393
0.102666
0.101526
0.100499
0.0995733
0.0987405
0.0979915
0.0973186
0.0967145
0.0961725
0.0956867
0.0952517
0.0948624
0.0945144
0.0942035
0.093926
0.0936785
0.0934578
0.0932613
0.0930863
0.0929305
0.092792
0.0926688
0.0925592
0.0924618
0.0923751
0.092298
0.0922294
0.0921683
0.0921138
0.0920651
0.0920217
0.0919828
0.0919479
0.0919167
0.0918885
0.0918632
0.0918403
0.0918196
0.0918008
0.0917837
0.0917683
0.0917543
0.0917416
0.0917302
0.0917201
0.0917113
0.0917038
0.0916977
0.0916932
0.0916904
0.961697
0.892193
0.829088
0.771715
0.71948
0.671853
0.628363
0.588589
0.552155
0.518724
0.487997
0.459703
0.433602
0.409475
0.387129
0.366389
0.347098
0.329118
0.312323
0.296605
0.281867
0.268027
0.255013
0.242767
0.23124
0.220392
0.21019
0.20061
0.191629
0.183229
0.175392
0.1681
0.161335
0.155075
0.1493
0.143984
0.139104
0.134634
0.130547
0.126817
0.123417
0.120324
0.117513
0.114961
0.112646
0.110548
0.108648
0.106929
0.105376
0.103972
0.102705
0.101561
0.100531
0.0996025
0.0987669
0.0980154
0.0973401
0.0967337
0.0961896
0.095702
0.0952652
0.0948743
0.0945247
0.0942125
0.0939337
0.093685
0.0934633
0.0932659
0.09309
0.0929335
0.0927943
0.0926705
0.0925604
0.0924625
0.0923755
0.092298
0.0922291
0.0921677
0.092113
0.0920642
0.0920206
0.0919817
0.0919467
0.0919154
0.0918873
0.0918619
0.091839
0.0918183
0.0917996
0.0917826
0.0917672
0.0917532
0.0917406
0.0917293
0.0917193
0.0917105
0.091703
0.091697
0.0916925
0.0916897
0.961697
0.892193
0.829088
0.771715
0.719479
0.671853
0.628363
0.58859
0.552157
0.518728
0.488002
0.459711
0.433612
0.409489
0.387146
0.36641
0.347124
0.329149
0.31236
0.296647
0.281916
0.268082
0.255075
0.242836
0.231315
0.220472
0.210276
0.200701
0.191724
0.183327
0.175492
0.168201
0.161436