/*--------------------------------*- C++ -*----------------------------------*\
  =========                 |
  \\      /  F ield         | OpenFOAM: The Open Source CFD Toolbox
   \\    /   O peration     | Website:  https://openfoam.org
    \\  /    A nd           | Version:  11
     \\/     M anipulation  |
\*---------------------------------------------------------------------------*/
FoamFile
{
    format      ascii;
    class       volVectorField;
    location    "156";
    object      U;
}
// * * * * * * * * * * * * * * * * * * * * * * * * * * * * * * * * * * * * * //

dimensions      [0 1 -1 0 0 0 0];

internalField   nonuniform List<vector> 
10000
(
(0.00499915 -2.65864e-05 0)
(0.00499547 -7.67211e-05 0)
(0.00499057 -0.00012626 0)
(0.00498445 -0.00017631 0)
(0.00497721 -0.000227431 0)
(0.00496882 -0.000279973 0)
(0.00495924 -0.000334186 0)
(0.0049484 -0.000390254 0)
(0.00493626 -0.000448316 0)
(0.00492274 -0.00050848 0)
(0.00490777 -0.000570822 0)
(0.00489128 -0.000635396 0)
(0.00487319 -0.000702225 0)
(0.00485342 -0.000771311 0)
(0.00483191 -0.000842624 0)
(0.00480857 -0.000916103 0)
(0.00478332 -0.000991653 0)
(0.0047561 -0.00106914 0)
(0.00472684 -0.00114839 0)
(0.00469549 -0.00122919 0)
(0.00466199 -0.00131126 0)
(0.0046263 -0.00139429 0)
(0.00458842 -0.00147791 0)
(0.00454832 -0.00156168 0)
(0.00450604 -0.00164514 0)
(0.0044616 -0.00172777 0)
(0.00441508 -0.00180901 0)
(0.00436657 -0.00188829 0)
(0.00431618 -0.00196503 0)
(0.00426406 -0.00203865 0)
(0.00421038 -0.00210862 0)
(0.00415534 -0.00217442 0)
(0.00409914 -0.00223565 0)
(0.00404199 -0.00229196 0)
(0.00398413 -0.00234308 0)
(0.00392578 -0.00238887 0)
(0.00386716 -0.00242925 0)
(0.00380849 -0.00246425 0)
(0.00374997 -0.002494 0)
(0.00369203 -0.00251872 0)
(0.00363434 -0.0025388 0)
(0.00357625 -0.00255426 0)
(0.0035181 -0.00256513 0)
(0.00346001 -0.00257178 0)
(0.00340196 -0.00257442 0)
(0.00334483 -0.00257326 0)
(0.00328911 -0.00256874 0)
(0.00323451 -0.00256117 0)
(0.00318086 -0.00255067 0)
(0.00312853 -0.00253743 0)
(0.00307747 -0.00252186 0)
(0.00302693 -0.00250419 0)
(0.00297703 -0.00248448 0)
(0.00292783 -0.00246282 0)
(0.00287936 -0.00243932 0)
(0.00283161 -0.0024141 0)
(0.00278462 -0.00238726 0)
(0.00273836 -0.0023589 0)
(0.00269286 -0.00232911 0)
(0.00264812 -0.00229797 0)
(0.00260413 -0.00226555 0)
(0.00256091 -0.00223194 0)
(0.00251845 -0.00219719 0)
(0.00247677 -0.00216138 0)
(0.00243586 -0.00212458 0)
(0.00239575 -0.00208684 0)
(0.00235643 -0.00204823 0)
(0.00231792 -0.00200882 0)
(0.00228023 -0.00196867 0)
(0.00224336 -0.00192785 0)
(0.00220734 -0.00188642 0)
(0.00217218 -0.00184446 0)
(0.00213788 -0.00180204 0)
(0.00210447 -0.00175923 0)
(0.00207195 -0.00171611 0)
(0.00204034 -0.00167277 0)
(0.00200966 -0.00162928 0)
(0.00197992 -0.00158573 0)
(0.00195114 -0.00154221 0)
(0.00192332 -0.00149883 0)
(0.00189649 -0.00145567 0)
(0.00187067 -0.00141284 0)
(0.00184586 -0.00137046 0)
(0.00182209 -0.00132863 0)
(0.00179936 -0.00128748 0)
(0.0017777 -0.00124712 0)
(0.00175713 -0.0012077 0)
(0.00173766 -0.00116936 0)
(0.00171932 -0.00113225 0)
(0.00170212 -0.00109652 0)
(0.00168609 -0.00106236 0)
(0.00167125 -0.00102994 0)
(0.00165763 -0.000999489 0)
(0.00164527 -0.000971224 0)
(0.0016342 -0.000945408 0)
(0.00162448 -0.000922342 0)
(0.00161617 -0.00090238 0)
(0.00160935 -0.000885942 0)
(0.00160396 -0.000873676 0)
(0.00160025 -0.000866899 0)
(0.00499967 -2.41691e-05 0)
(0.00499628 -7.20892e-05 0)
(0.00499153 -0.000120203 0)
(0.00498541 -0.00016897 0)
(0.00497814 -0.000218822 0)
(0.00496972 -0.000270064 0)
(0.00496011 -0.000322924 0)
(0.00494926 -0.000377572 0)
(0.0049371 -0.000434142 0)
(0.00492356 -0.000492734 0)
(0.00490859 -0.000553421 0)
(0.00489209 -0.000616254 0)
(0.004874 -0.000681255 0)
(0.00485424 -0.000748424 0)
(0.00483273 -0.000817731 0)
(0.0048094 -0.000889117 0)
(0.00478417 -0.00096249 0)
(0.00475696 -0.00103772 0)
(0.00472773 -0.00111465 0)
(0.0046964 -0.00119305 0)
(0.00466293 -0.00127269 0)
(0.00462729 -0.00135324 0)
(0.00458945 -0.00143436 0)
(0.00454941 -0.00151565 0)
(0.00450718 -0.00159665 0)
(0.00446281 -0.00167688 0)
(0.00441636 -0.00175582 0)
(0.00436793 -0.00183291 0)
(0.00431762 -0.00190761 0)
(0.00426559 -0.00197938 0)
(0.00421201 -0.00204769 0)
(0.00415706 -0.00211208 0)
(0.00410094 -0.00217213 0)
(0.00404387 -0.00222751 0)
(0.00398607 -0.00227797 0)
(0.00392776 -0.00232334 0)
(0.00386913 -0.00236355 0)
(0.00381037 -0.0023986 0)
(0.00375161 -0.00242858 0)
(0.00369301 -0.00245354 0)
(0.00363443 -0.00247344 0)
(0.003576 -0.00248852 0)
(0.00351813 -0.00249923 0)
(0.0034609 -0.00250593 0)
(0.00340438 -0.00250915 0)
(0.00334853 -0.00250926 0)
(0.00329337 -0.00250624 0)
(0.00323891 -0.00250014 0)
(0.00318519 -0.00249118 0)
(0.00313231 -0.00247949 0)
(0.00308054 -0.0024651 0)
(0.00302963 -0.00244833 0)
(0.00297953 -0.00242946 0)
(0.00293022 -0.00240863 0)
(0.00288166 -0.00238598 0)
(0.00283385 -0.00236161 0)
(0.0027868 -0.00233562 0)
(0.00274051 -0.00230811 0)
(0.00269497 -0.00227917 0)
(0.00265018 -0.00224889 0)
(0.00260616 -0.00221733 0)
(0.00256291 -0.00218458 0)
(0.00252042 -0.0021507 0)
(0.00247871 -0.00211576 0)
(0.00243778 -0.00207984 0)
(0.00239764 -0.00204299 0)
(0.0023583 -0.00200528 0)
(0.00231977 -0.00196677 0)
(0.00228206 -0.00192754 0)
(0.00224518 -0.00188765 0)
(0.00220914 -0.00184717 0)
(0.00217397 -0.00180617 0)
(0.00213966 -0.00176472 0)
(0.00210623 -0.0017229 0)
(0.0020737 -0.00168079 0)
(0.00204208 -0.00163846 0)
(0.00201139 -0.001596 0)
(0.00198164 -0.0015535 0)
(0.00195285 -0.00151106 0)
(0.00192503 -0.00146875 0)
(0.00189819 -0.00142669 0)
(0.00187236 -0.00138498 0)
(0.00184754 -0.00134373 0)
(0.00182375 -0.00130305 0)
(0.00180102 -0.00126307 0)
(0.00177935 -0.0012239 0)
(0.00175876 -0.00118569 0)
(0.00173927 -0.00114857 0)
(0.0017209 -0.0011127 0)
(0.00170367 -0.00107825 0)
(0.00168761 -0.00104538 0)
(0.00167272 -0.00101429 0)
(0.00165905 -0.000985199 0)
(0.00164661 -0.000958331 0)
(0.00163544 -0.000933957 0)
(0.00162558 -0.000912386 0)
(0.00161707 -0.000893981 0)
(0.00160992 -0.000879182 0)
(0.00160382 -0.000868623 0)
(0.0015989 -0.000863304 0)
(0.00499987 -2.22316e-05 0)
(0.00499704 -6.78086e-05 0)
(0.00499264 -0.000114299 0)
(0.0049867 -0.000161707 0)
(0.0049795 -0.000210271 0)
(0.00497112 -0.000260222 0)
(0.00496151 -0.000311749 0)
(0.00495066 -0.000365008 0)
(0.00493849 -0.00042012 0)
(0.00492495 -0.00047718 0)
(0.00490997 -0.000536258 0)
(0.00489348 -0.0005974 0)
(0.0048754 -0.000660629 0)
(0.00485565 -0.000725942 0)
(0.00483415 -0.000793311 0)
(0.00481084 -0.000862678 0)
(0.00478564 -0.000933956 0)
(0.00475848 -0.00100702 0)
(0.0047293 -0.00108171 0)
(0.00469803 -0.00115783 0)
(0.00466464 -0.00123513 0)
(0.00462909 -0.00131332 0)
(0.00459135 -0.00139207 0)
(0.00455143 -0.00147099 0)
(0.00450935 -0.00154966 0)
(0.00446514 -0.00162762 0)
(0.00441887 -0.00170436 0)
(0.00437062 -0.00177938 0)
(0.00432053 -0.00185215 0)
(0.00426871 -0.00192215 0)
(0.00421535 -0.00198888 0)
(0.00416062 -0.0020519 0)
(0.00410472 -0.0021108 0)
(0.00404785 -0.00216526 0)
(0.00399023 -0.00221503 0)
(0.00393205 -0.00225992 0)
(0.0038735 -0.00229986 0)
(0.00381476 -0.00233482 0)
(0.00375596 -0.00236483 0)
(0.00369723 -0.00238994 0)
(0.00363871 -0.00241028 0)
(0.00358055 -0.00242614 0)
(0.00352291 -0.00243781 0)
(0.00346587 -0.00244552 0)
(0.00340949 -0.00244957 0)
(0.00335377 -0.00245023 0)
(0.00329871 -0.00244766 0)
(0.00324437 -0.00244205 0)
(0.00319078 -0.00243366 0)
(0.00313796 -0.00242267 0)
(0.00308599 -0.00240917 0)
(0.00303485 -0.00239331 0)
(0.00298455 -0.00237531 0)
(0.00293506 -0.00235532 0)
(0.00288635 -0.00233349 0)
(0.00283842 -0.00230994 0)
(0.00279126 -0.00228478 0)
(0.00274486 -0.00225809 0)
(0.00269922 -0.00222997 0)
(0.00265435 -0.00220051 0)
(0.00261024 -0.00216978 0)
(0.0025669 -0.00213786 0)
(0.00252434 -0.00210482 0)
(0.00248256 -0.00207073 0)
(0.00244156 -0.00203565 0)
(0.00240136 -0.00199967 0)
(0.00236196 -0.00196283 0)
(0.00232338 -0.00192521 0)
(0.00228562 -0.00188688 0)
(0.00224869 -0.0018479 0)
(0.00221261 -0.00180834 0)
(0.00217739 -0.00176828 0)
(0.00214305 -0.00172778 0)
(0.00210959 -0.00168693 0)
(0.00207703 -0.0016458 0)
(0.00204538 -0.00160447 0)
(0.00201466 -0.00156303 0)
(0.00198488 -0.00152157 0)
(0.00195606 -0.00148017 0)
(0.00192821 -0.00143893 0)
(0.00190135 -0.00139796 0)
(0.00187549 -0.00135735 0)
(0.00185064 -0.00131721 0)
(0.00182683 -0.00127766 0)
(0.00180406 -0.00123883 0)
(0.00178235 -0.00120083 0)
(0.00176173 -0.0011638 0)
(0.00174219 -0.00112789 0)
(0.00172376 -0.00109326 0)
(0.00170647 -0.00106005 0)
(0.00169031 -0.00102846 0)
(0.00167532 -0.000998669 0)
(0.00166152 -0.000970899 0)
(0.00164891 -0.000945383 0)
(0.00163751 -0.000922389 0)
(0.00162735 -0.000902221 0)
(0.00161843 -0.000885234 0)
(0.00161065 -0.000871839 0)
(0.00160351 -0.000862585 0)
(0.00159703 -0.000858318 0)
(0.00499989 -2.0906e-05 0)
(0.00499756 -6.43797e-05 0)
(0.00499354 -0.000109224 0)
(0.00498789 -0.000155248 0)
(0.00498089 -0.000202543 0)
(0.00497262 -0.000251257 0)
(0.00496309 -0.000301536 0)
(0.00495227 -0.000353506 0)
(0.00494014 -0.000407275 0)
(0.00492662 -0.000462928 0)
(0.00491166 -0.000520531 0)
(0.00489518 -0.000580124 0)
(0.00487712 -0.00064173 0)
(0.00485739 -0.000705345 0)
(0.00483593 -0.000770941 0)
(0.00481267 -0.000838463 0)
(0.00478752 -0.000907824 0)
(0.00476043 -0.000978907 0)
(0.00473132 -0.00105156 0)
(0.00470015 -0.00112559 0)
(0.00466688 -0.00120075 0)
(0.00463146 -0.00127679 0)
(0.00459389 -0.00135337 0)
(0.00455415 -0.00143013 0)
(0.00451228 -0.00150668 0)
(0.0044683 -0.00158255 0)
(0.00442229 -0.0016573 0)
(0.00437433 -0.00173042 0)
(0.00432453 -0.00180141 0)
(0.00427304 -0.00186978 0)
(0.00422 -0.00193506 0)
(0.0041656 -0.00199681 0)
(0.00411001 -0.00205465 0)
(0.00405345 -0.00210824 0)
(0.0039961 -0.00215733 0)
(0.00393816 -0.00220174 0)
(0.00387981 -0.00224137 0)
(0.00382123 -0.00227618 0)
(0.00376257 -0.00230618 0)
(0.00370397 -0.00233142 0)
(0.0036456 -0.00235204 0)
(0.00358762 -0.00236829 0)
(0.00353013 -0.00238044 0)
(0.0034732 -0.00238872 0)
(0.0034169 -0.00239341 0)
(0.00336124 -0.00239474 0)
(0.00330623 -0.00239289 0)
(0.00325193 -0.00238806 0)
(0.00319835 -0.00238045 0)
(0.00314551 -0.00237026 0)
(0.00309343 -0.00235757 0)
(0.00304215 -0.00234255 0)
(0.00299168 -0.00232536 0)
(0.00294202 -0.00230617 0)
(0.00289315 -0.00228513 0)
(0.00284507 -0.00226235 0)
(0.00279776 -0.00223795 0)
(0.00275122 -0.00221203 0)
(0.00270545 -0.00218468 0)
(0.00266045 -0.00215598 0)
(0.00261623 -0.00212602 0)
(0.00257278 -0.00209487 0)
(0.00253012 -0.00206261 0)
(0.00248823 -0.0020293 0)
(0.00244714 -0.00199502 0)
(0.00240686 -0.00195984 0)
(0.00236738 -0.00192381 0)
(0.00232871 -0.00188701 0)
(0.00229088 -0.00184951 0)
(0.00225389 -0.00181137 0)
(0.00221774 -0.00177267 0)
(0.00218247 -0.00173347 0)
(0.00214806 -0.00169386 0)
(0.00211455 -0.0016539 0)
(0.00208194 -0.00161368 0)
(0.00205025 -0.00157327 0)
(0.00201949 -0.00153277 0)
(0.00198967 -0.00149225 0)
(0.00196081 -0.00145182 0)
(0.00193292 -0.00141156 0)
(0.00190602 -0.00137157 0)
(0.00188011 -0.00133197 0)
(0.00185522 -0.00129286 0)
(0.00183136 -0.00125435 0)
(0.00180854 -0.00121656 0)
(0.00178678 -0.00117963 0)
(0.00176608 -0.00114369 0)
(0.00174647 -0.00110888 0)
(0.00172795 -0.00107535 0)
(0.00171054 -0.00104327 0)
(0.00169426 -0.00101282 0)
(0.0016791 -0.00098419 0)
(0.00166509 -0.000957591 0)
(0.00165223 -0.000933254 0)
(0.00164051 -0.00091144 0)
(0.00162992 -0.000892437 0)
(0.00162044 -0.000876568 0)
(0.00161191 -0.000864186 0)
(0.00160374 -0.000855711 0)
(0.00159562 -0.000851886 0)
(0.00499991 -1.98329e-05 0)
(0.00499792 -6.13732e-05 0)
(0.00499425 -0.000104546 0)
(0.00498891 -0.000149106 0)
(0.00498216 -0.000195058 0)
(0.00497408 -0.00024248 0)
(0.00496469 -0.000291472 0)
(0.00495397 -0.000342131 0)
(0.00494191 -0.000394546 0)
(0.00492845 -0.00044879 0)
(0.00491354 -0.00050492 0)
(0.00489711 -0.000562973 0)
(0.00487909 -0.000622966 0)
(0.00485942 -0.000684896 0)
(0.00483802 -0.000748734 0)
(0.00481482 -0.000814427 0)
(0.00478976 -0.000881892 0)
(0.00476276 -0.000951016 0)
(0.00473377 -0.00102165 0)
(0.00470274 -0.00109361 0)
(0.00466962 -0.00116668 0)
(0.00463439 -0.00124059 0)
(0.00459702 -0.00131503 0)
(0.00455753 -0.00138967 0)
(0.00451592 -0.00146412 0)
(0.00447224 -0.00153795 0)
(0.00442656 -0.00161073 0)
(0.00437895 -0.00168198 0)
(0.00432953 -0.00175122 0)
(0.00427842 -0.00181799 0)
(0.00422578 -0.00188182 0)
(0.00417178 -0.0019423 0)
(0.00411659 -0.00199906 0)
(0.0040604 -0.00205176 0)
(0.00400341 -0.00210015 0)
(0.00394579 -0.00214405 0)
(0.00388774 -0.00218335 0)
(0.00382942 -0.00221798 0)
(0.003771 -0.00224796 0)
(0.00371263 -0.00227334 0)
(0.00365447 -0.00229426 0)
(0.00359666 -0.00231092 0)
(0.00353931 -0.00232356 0)
(0.00348248 -0.00233241 0)
(0.00342624 -0.0023377 0)
(0.00337061 -0.00233967 0)
(0.00331562 -0.0023385 0)
(0.00326131 -0.00233438 0)
(0.0032077 -0.00232751 0)
(0.0031548 -0.00231804 0)
(0.00310264 -0.00230612 0)
(0.00305125 -0.00229188 0)
(0.00300064 -0.00227549 0)
(0.00295082 -0.0022571 0)
(0.00290179 -0.00223684 0)
(0.00285354 -0.00221484 0)
(0.00280607 -0.00219121 0)
(0.00275937 -0.00216606 0)
(0.00271346 -0.00213948 0)
(0.00266832 -0.00211156 0)
(0.00262395 -0.00208237 0)
(0.00258038 -0.002052 0)
(0.00253758 -0.00202052 0)
(0.00249558 -0.001988 0)
(0.00245438 -0.00195451 0)
(0.00241398 -0.00192013 0)
(0.0023744 -0.00188492 0)
(0.00233565 -0.00184894 0)
(0.00229772 -0.00181227 0)
(0.00226065 -0.00177498 0)
(0.00222443 -0.00173713 0)
(0.00218908 -0.0016988 0)
(0.0021546 -0.00166007 0)
(0.00212103 -0.001621 0)
(0.00208836 -0.00158168 0)
(0.0020566 -0.0015422 0)
(0.00202578 -0.00150262 0)
(0.00199591 -0.00146306 0)
(0.00196699 -0.00142358 0)
(0.00193905 -0.00138429 0)
(0.00191209 -0.0013453 0)
(0.00188613 -0.0013067 0)
(0.00186118 -0.00126859 0)
(0.00183726 -0.00123111 0)
(0.00181436 -0.00119437 0)
(0.00179252 -0.00115849 0)
(0.00177173 -0.00112361 0)
(0.00175201 -0.00108987 0)
(0.00173336 -0.00105743 0)
(0.00171581 -0.00102645 0)
(0.00169934 -0.000997104 0)
(0.00168397 -0.000969584 0)
(0.0016697 -0.000944095 0)
(0.00165651 -0.000920862 0)
(0.00164437 -0.00090013 0)
(0.00163327 -0.000882165 0)
(0.00162316 -0.000867253 0)
(0.00161383 -0.00085569 0)
(0.00160462 -0.000847803 0)
(0.00159511 -0.00084395 0)
(0.00499992 -1.88948e-05 0)
(0.00499817 -5.86444e-05 0)
(0.00499479 -0.000100169 0)
(0.00498977 -0.000143224 0)
(0.0049833 -0.00018777 0)
(0.00497544 -0.000233841 0)
(0.00496623 -0.000281496 0)
(0.00495567 -0.000330805 0)
(0.00494372 -0.000381836 0)
(0.00493036 -0.000434648 0)
(0.00491554 -0.000489289 0)
(0.00489919 -0.000545789 0)
(0.00488126 -0.000604163 0)
(0.00486167 -0.000664404 0)
(0.00484036 -0.000726484 0)
(0.00481727 -0.000790351 0)
(0.00479232 -0.000855924 0)
(0.00476545 -0.000923095 0)
(0.00473661 -0.000991723 0)
(0.00470576 -0.00106163 0)
(0.00467284 -0.00113261 0)
(0.00463783 -0.00120441 0)
(0.00460073 -0.00127674 0)
(0.00456152 -0.00134928 0)
(0.00452023 -0.00142165 0)
(0.00447691 -0.00149346 0)
(0.0044316 -0.00156428 0)
(0.0043844 -0.00163367 0)
(0.00433541 -0.00170118 0)
(0.00428475 -0.00176634 0)
(0.00423256 -0.00182873 0)
(0.00417902 -0.00188794 0)
(0.00412428 -0.0019436 0)
(0.00406854 -0.00199539 0)
(0.00401196 -0.00204305 0)
(0.00395474 -0.00208642 0)
(0.00389706 -0.00212534 0)
(0.00383907 -0.00215977 0)
(0.00378095 -0.00218971 0)
(0.00372286 -0.00221522 0)
(0.00366494 -0.0022364 0)
(0.00360733 -0.00225344 0)
(0.00355012 -0.00226655 0)
(0.00349339 -0.00227594 0)
(0.00343721 -0.00228182 0)
(0.00338161 -0.0022844 0)
(0.00332664 -0.00228387 0)
(0.00327231 -0.00228043 0)
(0.00321865 -0.00227426 0)
(0.0031657 -0.0022655 0)
(0.00311345 -0.00225432 0)
(0.00306195 -0.00224084 0)
(0.00301121 -0.00222523 0)
(0.00296124 -0.00220761 0)
(0.00291205 -0.00218814 0)
(0.00286363 -0.00216692 0)
(0.002816 -0.00214407 0)
(0.00276914 -0.0021197 0)
(0.00272306 -0.0020939 0)
(0.00267777 -0.00206675 0)
(0.00263325 -0.00203835 0)
(0.00258953 -0.00200876 0)
(0.00254659 -0.00197808 0)
(0.00250446 -0.00194636 0)
(0.00246313 -0.00191368 0)
(0.00242261 -0.00188011 0)
(0.00238292 -0.00184571 0)
(0.00234405 -0.00181057 0)
(0.00230602 -0.00177474 0)
(0.00226885 -0.0017383 0)
(0.00223254 -0.00170132 0)
(0.0021971 -0.00166387 0)
(0.00216255 -0.00162602 0)
(0.00212889 -0.00158786 0)
(0.00209614 -0.00154945 0)
(0.00206432 -0.0015109 0)
(0.00203343 -0.00147226 0)
(0.00200349 -0.00143365 0)
(0.0019745 -0.00139514 0)
(0.00194649 -0.00135683 0)
(0.00191946 -0.00131882 0)
(0.00189343 -0.00128122 0)
(0.0018684 -0.00124413 0)
(0.00184439 -0.00120767 0)
(0.00182141 -0.00117196 0)
(0.00179945 -0.00113713 0)
(0.00177855 -0.00110331 0)
(0.00175869 -0.00107063 0)
(0.00173989 -0.00103926 0)
(0.00172215 -0.00100935 0)
(0.00170546 -0.000981084 0)
(0.00168983 -0.000954634 0)
(0.00167523 -0.000930204 0)
(0.00166165 -0.000908007 0)
(0.00164906 -0.000888271 0)
(0.00163739 -0.000871239 0)
(0.00162661 -0.000857159 0)
(0.00161647 -0.000846275 0)
(0.0016062 -0.000838841 0)
(0.00159562 -0.000834888 0)
(0.00499993 -1.80588e-05 0)
(0.00499834 -5.61466e-05 0)
(0.00499521 -9.60761e-05 0)
(0.00499048 -0.000137625 0)
(0.00498428 -0.000180737 0)
(0.00497667 -0.000225418 0)
(0.00496768 -0.000271699 0)
(0.0049573 -0.000319625 0)
(0.00494552 -0.000369247 0)
(0.0049323 -0.00042061 0)
(0.00491761 -0.00047375 0)
(0.00490138 -0.000528693 0)
(0.00488356 -0.000585446 0)
(0.0048641 -0.000644002 0)
(0.00484292 -0.000704331 0)
(0.00481996 -0.000766382 0)
(0.00479516 -0.000830078 0)
(0.00476846 -0.000895314 0)
(0.00473981 -0.000961957 0)
(0.00470917 -0.00102984 0)
(0.00467649 -0.00109876 0)
(0.00464176 -0.00116848 0)
(0.00460495 -0.00123872 0)
(0.00456607 -0.00130918 0)
(0.00452515 -0.00137951 0)
(0.00448222 -0.00144932 0)
(0.00443734 -0.00151822 0)
(0.0043906 -0.00158578 0)
(0.00434208 -0.00165157 0)
(0.00429191 -0.00171514 0)
(0.00424023 -0.0017761 0)
(0.00418719 -0.00183402 0)
(0.00413295 -0.00188857 0)
(0.0040777 -0.00193944 0)
(0.00402159 -0.00198636 0)
(0.00396481 -0.00202915 0)
(0.00390754 -0.00206768 0)
(0.00384994 -0.00210188 0)
(0.00379217 -0.00213175 0)
(0.00373438 -0.00215733 0)
(0.00367673 -0.00217873 0)
(0.00361934 -0.00219611 0)
(0.0035623 -0.00220964 0)
(0.00350569 -0.00221952 0)
(0.00344959 -0.00222594 0)
(0.00339403 -0.0022291 0)
(0.00333906 -0.0022292 0)
(0.00328472 -0.00222641 0)
(0.00323102 -0.00222091 0)
(0.003178 -0.00221285 0)
(0.00312568 -0.00220238 0)
(0.00307407 -0.00218964 0)
(0.0030232 -0.00217479 0)
(0.00297309 -0.00215794 0)
(0.00292375 -0.00213924 0)
(0.00287518 -0.0021188 0)
(0.00282737 -0.00209673 0)
(0.00278035 -0.00207314 0)
(0.00273411 -0.00204811 0)
(0.00268865 -0.00202175 0)
(0.00264397 -0.00199414 0)
(0.00260009 -0.00196535 0)
(0.00255701 -0.00193546 0)
(0.00251473 -0.00190454 0)
(0.00247326 -0.00187267 0)
(0.00243261 -0.00183992 0)
(0.00239279 -0.00180636 0)
(0.0023538 -0.00177205 0)
(0.00231566 -0.00173708 0)
(0.00227838 -0.0017015 0)
(0.00224196 -0.00166538 0)
(0.00220642 -0.00162881 0)
(0.00217178 -0.00159186 0)
(0.00213803 -0.0015546 0)
(0.0021052 -0.00151712 0)
(0.00207329 -0.00147949 0)
(0.00204232 -0.0014418 0)
(0.0020123 -0.00140414 0)
(0.00198323 -0.00136659 0)
(0.00195514 -0.00132926 0)
(0.00192802 -0.00129224 0)
(0.0019019 -0.00125564 0)
(0.00187678 -0.00121956 0)
(0.00185266 -0.00118412 0)
(0.00182956 -0.00114943 0)
(0.00180749 -0.00111563 0)
(0.00178644 -0.00108285 0)
(0.00176642 -0.00105122 0)
(0.00174743 -0.00102089 0)
(0.00172946 -0.000992023 0)
(0.00171252 -0.000964787 0)
(0.00169658 -0.000939358 0)
(0.00168163 -0.000915927 0)
(0.00166763 -0.000894693 0)
(0.00165453 -0.000875868 0)
(0.00164227 -0.000859669 0)
(0.00163081 -0.000846312 0)
(0.00161988 -0.000835993 0)
(0.00160859 -0.000828902 0)
(0.00159717 -0.000824995 0)
(0.00499993 -1.72987e-05 0)
(0.00499848 -5.38358e-05 0)
(0.00499555 -9.2233e-05 0)
(0.00499106 -0.000132296 0)
(0.00498513 -0.000173969 0)
(0.00497777 -0.000217239 0)
(0.00496901 -0.00026212 0)
(0.00495885 -0.00030864 0)
(0.00494726 -0.000356833 0)
(0.00493422 -0.00040673 0)
(0.00491969 -0.00045836 0)
(0.00490362 -0.000511739 0)
(0.00488595 -0.000566872 0)
(0.00486664 -0.000623747 0)
(0.00484562 -0.000682334 0)
(0.00482284 -0.000742583 0)
(0.00479823 -0.000804418 0)
(0.00477173 -0.00086774 0)
(0.00474331 -0.00093242 0)
(0.00471292 -0.000998299 0)
(0.00468052 -0.00106519 0)
(0.00464609 -0.00113286 0)
(0.00460963 -0.00120105 0)
(0.00457112 -0.00126946 0)
(0.00453061 -0.00133778 0)
(0.00448811 -0.00140563 0)
(0.0044437 -0.00147263 0)
(0.00439744 -0.00153839 0)
(0.00434943 -0.00160247 0)
(0.0042998 -0.00166448 0)
(0.00424865 -0.00172399 0)
(0.00419616 -0.00178065 0)
(0.00414246 -0.00183408 0)
(0.00408772 -0.001884 0)
(0.00403212 -0.00193015 0)
(0.00397582 -0.00197234 0)
(0.003919 -0.00201045 0)
(0.00386182 -0.00204438 0)
(0.00380443 -0.00207414 0)
(0.00374699 -0.00209976 0)
(0.00368963 -0.00212133 0)
(0.00363247 -0.00213899 0)
(0.00357562 -0.00215289 0)
(0.00351915 -0.00216321 0)
(0.00346314 -0.00217014 0)
(0.00340764 -0.00217386 0)
(0.0033527 -0.00217454 0)
(0.00329835 -0.00217238 0)
(0.00324462 -0.00216752 0)
(0.00319154 -0.00216014 0)
(0.00313914 -0.00215036 0)
(0.00308744 -0.00213835 0)
(0.00303646 -0.00212423 0)
(0.00298622 -0.00210814 0)
(0.00293673 -0.0020902 0)
(0.002888 -0.00207053 0)
(0.00284004 -0.00204923 0)
(0.00279285 -0.00202642 0)
(0.00274644 -0.00200218 0)
(0.00270081 -0.0019766 0)
(0.00265598 -0.00194978 0)
(0.00261194 -0.00192178 0)
(0.0025687 -0.0018927 0)
(0.00252626 -0.00186259 0)
(0.00248465 -0.00183154 0)
(0.00244386 -0.00179962 0)
(0.0024039 -0.00176689 0)
(0.00236478 -0.00173343 0)
(0.00232652 -0.0016993 0)
(0.00228912 -0.00166459 0)
(0.00225259 -0.00162935 0)
(0.00221694 -0.00159367 0)
(0.00218219 -0.00155761 0)
(0.00214834 -0.00152127 0)
(0.00211541 -0.0014847 0)
(0.00208341 -0.001448 0)
(0.00205235 -0.00141126 0)
(0.00202223 -0.00137455 0)
(0.00199307 -0.00133797 0)
(0.00196488 -0.00130161 0)
(0.00193767 -0.00126557 0)
(0.00191144 -0.00122996 0)
(0.0018862 -0.00119489 0)
(0.00186197 -0.00116045 0)
(0.00183874 -0.00112678 0)
(0.00181651 -0.001094 0)
(0.0017953 -0.00106223 0)
(0.00177509 -0.00103161 0)
(0.00175588 -0.0010023 0)
(0.00173767 -0.000974441 0)
(0.00172044 -0.000948196 0)
(0.00170417 -0.000923737 0)
(0.00168883 -0.000901244 0)
(0.00167438 -0.000880904 0)
(0.00166076 -0.000862909 0)
(0.00164791 -0.000847457 0)
(0.00163577 -0.000834734 0)
(0.0016241 -0.000824902 0)
(0.00161187 -0.000818099 0)
(0.00159972 -0.000814411 0)
(0.00499994 -1.65948e-05 0)
(0.00499858 -5.16742e-05 0)
(0.00499582 -8.86019e-05 0)
(0.00499155 -0.000127212 0)
(0.00498586 -0.000167452 0)
(0.00497875 -0.000209305 0)
(0.00497023 -0.000252773 0)
(0.00496029 -0.00029787 0)
(0.00494892 -0.000344617 0)
(0.00493608 -0.000393037 0)
(0.00492174 -0.000443148 0)
(0.00490586 -0.00049496 0)
(0.00488839 -0.000548473 0)
(0.00486927 -0.000603671 0)
(0.00484845 -0.000660525 0)
(0.00482587 -0.000718983 0)
(0.00480148 -0.000778974 0)
(0.00477523 -0.000840401 0)
(0.00474707 -0.000903142 0)
(0.00471696 -0.000967046 0)
(0.00468488 -0.00103193 0)
(0.0046508 -0.00109758 0)
(0.0046147 -0.00116375 0)
(0.00457661 -0.00123016 0)
(0.00453653 -0.00129649 0)
(0.0044945 -0.00136241 0)
(0.00445058 -0.00142755 0)
(0.00440485 -0.00149152 0)
(0.00435738 -0.00155392 0)
(0.0043083 -0.00161436 0)
(0.00425772 -0.00167245 0)
(0.00420579 -0.00172782 0)
(0.00415266 -0.00178014 0)
(0.00409847 -0.0018291 0)
(0.00404341 -0.00187446 0)
(0.00398762 -0.00191603 0)
(0.00393128 -0.00195367 0)
(0.00387454 -0.0019873 0)
(0.00381755 -0.00201691 0)
(0.00376047 -0.00204252 0)
(0.00370342 -0.00206421 0)
(0.00364653 -0.0020821 0)
(0.00358989 -0.00209632 0)
(0.00353358 -0.00210704 0)
(0.00347769 -0.00211443 0)
(0.00342227 -0.00211866 0)
(0.00336736 -0.0021199 0)
(0.00331302 -0.00211833 0)
(0.00325927 -0.0021141 0)
(0.00320615 -0.00210737 0)
(0.00315368 -0.00209827 0)
(0.0031019 -0.00208696 0)
(0.00305081 -0.00207356 0)
(0.00300045 -0.00205821 0)
(0.00295082 -0.00204102 0)
(0.00290195 -0.0020221 0)
(0.00285383 -0.00200158 0)
(0.00280649 -0.00197954 0)
(0.00275991 -0.00195608 0)
(0.00271412 -0.00193129 0)
(0.00266912 -0.00190526 0)
(0.00262492 -0.00187806 0)
(0.00258152 -0.00184978 0)
(0.00253894 -0.00182049 0)
(0.00249717 -0.00179027 0)
(0.00245623 -0.00175917 0)
(0.00241613 -0.00172728 0)
(0.00237688 -0.00169467 0)
(0.00233849 -0.00166141 0)
(0.00230096 -0.00162756 0)
(0.00226431 -0.00159321 0)
(0.00222854 -0.00155841 0)
(0.00219368 -0.00152326 0)
(0.00215972 -0.00148783 0)
(0.00212669 -0.00145218 0)
(0.00209458 -0.00141642 0)
(0.00206341 -0.00138062 0)
(0.00203319 -0.00134486 0)
(0.00200392 -0.00130924 0)
(0.00197562 -0.00127386 0)
(0.0019483 -0.0012388 0)
(0.00192195 -0.00120417 0)
(0.00189659 -0.00117009 0)
(0.00187222 -0.00113665 0)
(0.00184884 -0.00110398 0)
(0.00182644 -0.00107219 0)
(0.00180504 -0.00104142 0)
(0.00178463 -0.0010118 0)
(0.00176518 -0.000983471 0)
(0.0017467 -0.000956581 0)
(0.00172916 -0.000931285 0)
(0.00171254 -0.000907746 0)
(0.0016968 -0.000886135 0)
(0.00168188 -0.000866624 0)
(0.00166774 -0.000849391 0)
(0.0016543 -0.000834614 0)
(0.00164151 -0.000822458 0)
(0.00162914 -0.000813067 0)
(0.00161609 -0.000806571 0)
(0.0016032 -0.000803184 0)
(0.00499994 -1.59343e-05 0)
(0.00499866 -4.9634e-05 0)
(0.00499604 -8.51515e-05 0)
(0.00499197 -0.000122346 0)
(0.00498649 -0.000161173 0)
(0.00497962 -0.000201613 0)
(0.00497134 -0.000243663 0)
(0.00496164 -0.000287328 0)
(0.00495049 -0.000332621 0)
(0.00493788 -0.000379555 0)
(0.00492376 -0.000428141 0)
(0.00490809 -0.000478384 0)
(0.00489084 -0.000530277 0)
(0.00487194 -0.000583805 0)
(0.00485134 -0.000638934 0)
(0.00482901 -0.000695616 0)
(0.00480487 -0.000753779 0)
(0.00477889 -0.000813331 0)
(0.00475103 -0.000874156 0)
(0.00472125 -0.00093611 0)
(0.00468951 -0.000999019 0)
(0.0046558 -0.00106268 0)
(0.00462011 -0.00112686 0)
(0.00458245 -0.00119129 0)
(0.00454284 -0.00125567 0)
(0.00450131 -0.00131969 0)
(0.00445791 -0.00138298 0)
(0.00441272 -0.00144519 0)
(0.00436582 -0.00150593 0)
(0.00431732 -0.00156482 0)
(0.00426733 -0.00162149 0)
(0.00421599 -0.00167558 0)
(0.00416344 -0.00172676 0)
(0.00410983 -0.00177475 0)
(0.00405531 -0.0018193 0)
(0.00400006 -0.00186022 0)
(0.00394421 -0.00189736 0)
(0.00388794 -0.00193066 0)
(0.00383138 -0.00196008 0)
(0.00377468 -0.00198563 0)
(0.00371796 -0.00200739 0)
(0.00366135 -0.00202545 0)
(0.00360494 -0.00203995 0)
(0.00354882 -0.00205102 0)
(0.00349306 -0.00205882 0)
(0.00343773 -0.00206353 0)
(0.00338289 -0.0020653 0)
(0.00332857 -0.00206429 0)
(0.00327482 -0.00206065 0)
(0.00322167 -0.00205455 0)
(0.00316915 -0.00204611 0)
(0.00311729 -0.00203548 0)
(0.00306612 -0.00202279 0)
(0.00301565 -0.00200815 0)
(0.0029659 -0.0019917 0)
(0.00291688 -0.00197354 0)
(0.00286862 -0.00195377 0)
(0.00282112 -0.0019325 0)
(0.00277439 -0.00190982 0)
(0.00272845 -0.00188581 0)
(0.00268329 -0.00186058 0)
(0.00263892 -0.00183418 0)
(0.00259537 -0.00180671 0)
(0.00255262 -0.00177824 0)
(0.00251071 -0.00174884 0)
(0.00246962 -0.00171858 0)
(0.00242938 -0.00168754 0)
(0.00238998 -0.00165578 0)
(0.00235145 -0.00162338 0)
(0.00231379 -0.00159041 0)
(0.00227701 -0.00155694 0)
(0.00224113 -0.00152304 0)
(0.00220614 -0.00148879 0)
(0.00217207 -0.00145427 0)
(0.00213892 -0.00141956 0)
(0.00210669 -0.00138473 0)
(0.00207541 -0.00134987 0)
(0.00204507 -0.00131506 0)
(0.00201569 -0.0012804 0)
(0.00198727 -0.00124599 0)
(0.00195982 -0.0012119 0)
(0.00193334 -0.00117826 0)
(0.00190784 -0.00114515 0)
(0.00188332 -0.0011127 0)
(0.00185977 -0.00108101 0)
(0.0018372 -0.0010502 0)
(0.00181559 -0.00102041 0)
(0.00179495 -0.000991755 0)
(0.00177525 -0.000964378 0)
(0.00175648 -0.000938421 0)
(0.00173862 -0.000914034 0)
(0.00172163 -0.00089137 0)
(0.00170547 -0.000870588 0)
(0.0016901 -0.000851851 0)
(0.00167544 -0.000835322 0)
(0.00166143 -0.000821162 0)
(0.00164803 -0.000809524 0)
(0.00163501 -0.000800541 0)
(0.00162121 -0.000794352 0)
(0.00160754 -0.000791198 0)
(0.00499994 -1.53088e-05 0)
(0.00499873 -4.76948e-05 0)
(0.00499623 -8.18568e-05 0)
(0.00499232 -0.000117675 0)
(0.00498705 -0.000155112 0)
(0.0049804 -0.000194153 0)
(0.00497235 -0.000234789 0)
(0.00496289 -0.000277023 0)
(0.00495198 -0.000320859 0)
(0.0049396 -0.000366304 0)
(0.00492572 -0.000413363 0)
(0.00491029 -0.000462037 0)
(0.00489327 -0.000512315 0)
(0.00487462 -0.000564178 0)
(0.00485429 -0.000617593 0)
(0.00483222 -0.000672511 0)
(0.00480837 -0.000728863 0)
(0.00478269 -0.000786561 0)
(0.00475516 -0.000845494 0)
(0.00472572 -0.000905523 0)
(0.00469436 -0.000966484 0)
(0.00466105 -0.00102818 0)
(0.0046258 -0.0010904 0)
(0.0045886 -0.00115288 0)
(0.00454948 -0.00121535 0)
(0.00450847 -0.00127748 0)
(0.00446561 -0.00133896 0)
(0.00442099 -0.00139943 0)
(0.00437468 -0.00145852 0)
(0.00432677 -0.00151587 0)
(0.00427738 -0.00157112 0)
(0.00422665 -0.00162393 0)
(0.00417469 -0.00167398 0)
(0.00412167 -0.00172098 0)
(0.00406772 -0.00176469 0)
(0.00401301 -0.00180493 0)
(0.00395768 -0.00184155 0)
(0.00390189 -0.00187447 0)
(0.00384577 -0.00190365 0)
(0.00378946 -0.0019291 0)
(0.00373309 -0.00195088 0)
(0.00367678 -0.00196907 0)
(0.00362062 -0.00198379 0)
(0.0035647 -0.00199516 0)
(0.00350911 -0.00200335 0)
(0.0034539 -0.00200849 0)
(0.00339913 -0.00201074 0)
(0.00334486 -0.00201026 0)
(0.00329112 -0.0020072 0)
(0.00323796 -0.0020017 0)
(0.00318541 -0.0019939 0)
(0.00313349 -0.00198393 0)
(0.00308224 -0.00197192 0)
(0.00303167 -0.00195799 0)
(0.00298181 -0.00194226 0)
(0.00293267 -0.00192483 0)
(0.00288428 -0.00190582 0)
(0.00283663 -0.00188531 0)
(0.00278976 -0.0018634 0)
(0.00274365 -0.00184018 0)
(0.00269834 -0.00181574 0)
(0.00265382 -0.00179014 0)
(0.00261011 -0.00176349 0)
(0.00256721 -0.00173583 0)
(0.00252514 -0.00170726 0)
(0.00248391 -0.00167784 0)
(0.00244352 -0.00164765 0)
(0.00240398 -0.00161675 0)
(0.00236531 -0.00158522 0)
(0.00232752 -0.00155312 0)
(0.00229061 -0.00152054 0)
(0.00225459 -0.00148754 0)
(0.00221948 -0.0014542 0)
(0.00218528 -0.0014206 0)
(0.002152 -0.00138681 0)
(0.00211966 -0.00135291 0)
(0.00208825 -0.001319 0)
(0.00205779 -0.00128514 0)
(0.00202829 -0.00125144 0)
(0.00199974 -0.00121799 0)
(0.00197215 -0.00118487 0)
(0.00194553 -0.00115219 0)
(0.00191987 -0.00112006 0)