/*--------------------------------*- C++ -*----------------------------------*\
  =========                 |
  \\      /  F ield         | OpenFOAM: The Open Source CFD Toolbox
   \\    /   O peration     | Website:  https://openfoam.org
    \\  /    A nd           | Version:  11
     \\/     M anipulation  |
\*---------------------------------------------------------------------------*/
FoamFile
{
    format      ascii;
    class       volScalarField;
    location    "128";
    object      omega;
}
// * * * * * * * * * * * * * * * * * * * * * * * * * * * * * * * * * * * * * //

dimensions      [0 0 -1 0 0 0 0];

internalField   nonuniform List<scalar> 
10000
(
0.961705
0.892209
0.829105
0.771727
0.719479
0.671835
0.628324
0.588524
0.552062
0.518602
0.487843
0.459517
0.433382
0.409222
0.38684
0.366063
0.346732
0.328707
0.311862
0.296085
0.281277
0.267353
0.254241
0.241878
0.230215
0.219212
0.208838
0.199068
0.189885
0.181273
0.173219
0.165709
0.158729
0.152261
0.146286
0.140784
0.13573
0.131098
0.126864
0.123
0.119481
0.116281
0.113374
0.110737
0.108346
0.10618
0.104219
0.102445
0.100842
0.0993925
0.0980838
0.0969026
0.0958372
0.0948767
0.0940113
0.0932322
0.0925311
0.0919007
0.0913342
0.0908256
0.0903691
0.0899598
0.089593
0.0892645
0.0889705
0.0887075
0.0884724
0.0882623
0.0880746
0.0879069
0.0877572
0.0876235
0.0875041
0.0873973
0.0873019
0.0872165
0.0871401
0.0870715
0.0870099
0.0869546
0.0869046
0.0868596
0.0868188
0.0867818
0.0867482
0.0867175
0.0866895
0.0866639
0.0866404
0.0866188
0.0865991
0.086581
0.0865645
0.0865497
0.0865364
0.0865248
0.0865151
0.0865072
0.0865015
0.0864982
0.961705
0.89221
0.829107
0.771729
0.719482
0.671839
0.628328
0.588529
0.552067
0.518607
0.487849
0.459523
0.433389
0.409228
0.386848
0.366071
0.346741
0.328717
0.311873
0.296097
0.28129
0.267368
0.254257
0.241895
0.230234
0.219233
0.20886
0.199092
0.18991
0.181299
0.173245
0.165735
0.158755
0.152286
0.146312
0.140808
0.135754
0.131122
0.126887
0.123022
0.119503
0.116301
0.113393
0.110754
0.108362
0.106195
0.104233
0.102458
0.100853
0.099403
0.0980935
0.0969116
0.0958454
0.0948843
0.0940184
0.0932387
0.0925371
0.0919062
0.0913393
0.0908303
0.0903735
0.0899638
0.0895967
0.0892679
0.0889736
0.0887104
0.088475
0.0882647
0.0880768
0.087909
0.0877591
0.0876252
0.0875057
0.0873988
0.0873033
0.0872178
0.0871412
0.0870725
0.0870109
0.0869554
0.0869054
0.0868603
0.0868195
0.0867824
0.0867487
0.086718
0.08669
0.0866643
0.0866408
0.0866192
0.0865994
0.0865813
0.0865648
0.0865499
0.0865366
0.0865251
0.0865153
0.0865074
0.0865017
0.0864984
0.961705
0.892212
0.82911
0.771733
0.719488
0.671845
0.628335
0.588537
0.552076
0.518616
0.487859
0.459534
0.4334
0.40924
0.386861
0.366085
0.346756
0.328734
0.311891
0.296117
0.281312
0.267392
0.254283
0.241925
0.230266
0.219267
0.208896
0.19913
0.18995
0.181341
0.173288
0.165779
0.158798
0.152329
0.146354
0.14085
0.135793
0.13116
0.126924
0.123058
0.119536
0.116333
0.113423
0.110782
0.108387
0.106218
0.104254
0.102478
0.100871
0.0994199
0.098109
0.0969258
0.0958585
0.0948963
0.0940293
0.0932487
0.0925463
0.0919146
0.091347
0.0908372
0.0903798
0.0899696
0.0896019
0.0892727
0.088978
0.0887143
0.0884786
0.0882679
0.0880797
0.0879116
0.0877615
0.0876274
0.0875076
0.0874006
0.0873049
0.0872192
0.0871425
0.0870737
0.087012
0.0869564
0.0869063
0.0868611
0.0868202
0.0867831
0.0867493
0.0867186
0.0866905
0.0866648
0.0866412
0.0866196
0.0865998
0.0865817
0.0865652
0.0865503
0.086537
0.0865254
0.0865156
0.0865077
0.086502
0.0864987
0.961705
0.892213
0.829113
0.771738
0.719494
0.671853
0.628344
0.588547
0.552087
0.518629
0.487872
0.459548
0.433416
0.409257
0.386879
0.366104
0.346778
0.328757
0.311917
0.296145
0.281343
0.267426
0.254321
0.241965
0.23031
0.219315
0.208947
0.199184
0.190006
0.181399
0.173347
0.165839
0.158858
0.152389
0.146412
0.140906
0.135848
0.131213
0.126974
0.123106
0.119582
0.116376
0.113463
0.110819
0.108422
0.10625
0.104284
0.102505
0.100897
0.0994429
0.0981301
0.0969452
0.0958762
0.0949125
0.0940441
0.0932622
0.0925586
0.0919258
0.0913571
0.0908465
0.0903882
0.0899771
0.0896088
0.0892789
0.0889835
0.0887194
0.0884832
0.088272
0.0880834
0.0879149
0.0877645
0.0876301
0.08751
0.0874027
0.0873068
0.0872209
0.0871441
0.0870751
0.0870132
0.0869575
0.0869074
0.0868621
0.0868211
0.0867839
0.0867501
0.0867192
0.0866911
0.0866654
0.0866418
0.0866201
0.0866003
0.0865821
0.0865656
0.0865507
0.0865374
0.0865259
0.0865161
0.0865082
0.0865025
0.0864991
0.961705
0.892214
0.829115
0.771742
0.7195
0.67186
0.628353
0.588558
0.5521
0.518643
0.487888
0.459566
0.433435
0.409278
0.386901
0.366129
0.346804
0.328786
0.311949
0.29618
0.281382
0.267469
0.254368
0.242017
0.230366
0.219375
0.209012
0.199252
0.190077
0.181472
0.173422
0.165914
0.158933
0.152463
0.146485
0.140977
0.135917
0.131279
0.127037
0.123166
0.119638
0.116429
0.113513
0.110866
0.108465
0.10629
0.104321
0.102539
0.100928
0.0994718
0.0981567
0.0969695
0.0958984
0.0949328
0.0940626
0.0932791
0.0925739
0.0919398
0.0913698
0.090858
0.0903986
0.0899866
0.0896173
0.0892865
0.0889904
0.0887256
0.0884887
0.088277
0.0880879
0.0879189
0.087768
0.0876333
0.0875129
0.0874053
0.0873091
0.087223
0.0871459
0.0870767
0.0870147
0.0869588
0.0869085
0.0868631
0.086822
0.0867848
0.0867509
0.08672
0.0866918
0.086666
0.0866424
0.0866207
0.0866009
0.0865827
0.0865662
0.0865513
0.086538
0.0865264
0.0865167
0.0865088
0.0865031
0.0864998
0.961705
0.892214
0.829117
0.771745
0.719505
0.671868
0.628363
0.58857
0.552114
0.518659
0.487906
0.459585
0.433456
0.409302
0.386927
0.366158
0.346836
0.328821
0.311987
0.296223
0.281429
0.267521
0.254424
0.242079
0.230433
0.219446
0.209088
0.199332
0.190161
0.181558
0.17351
0.166003
0.159022
0.152551
0.146571
0.141061
0.135998
0.131357
0.127112
0.123236
0.119705
0.116492
0.113571
0.11092
0.108516
0.106337
0.104365
0.102579
0.100965
0.0995059
0.098188
0.0969982
0.0959247
0.0949568
0.0940845
0.093299
0.0925921
0.0919562
0.0913848
0.0908715
0.0904108
0.0899976
0.0896272
0.0892955
0.0889985
0.0887328
0.0884952
0.0882828
0.0880931
0.0879236
0.0877722
0.0876369
0.0875161
0.0874082
0.0873116
0.0872253
0.0871479
0.0870786
0.0870163
0.0869603
0.0869098
0.0868643
0.0868231
0.0867857
0.0867518
0.0867208
0.0866926
0.0866668
0.0866431
0.0866214
0.0866015
0.0865834
0.0865669
0.086552
0.0865387
0.0865271
0.0865174
0.0865095
0.0865038
0.0865005
0.961705
0.892214
0.829118
0.771748
0.719509
0.671875
0.628372
0.588581
0.552127
0.518675
0.487924
0.459606
0.433479
0.409328
0.386956
0.36619
0.346871
0.32886
0.312031
0.296271
0.281482
0.267579
0.254488
0.242148
0.230508
0.219528
0.209174
0.199424
0.190256
0.181656
0.17361
0.166104
0.159123
0.152651
0.146669
0.141157
0.13609
0.131445
0.127196
0.123316
0.11978
0.116563
0.113638
0.110982
0.108574
0.106391
0.104414
0.102625
0.101007
0.0995447
0.0982236
0.0970308
0.0959545
0.094984
0.0941094
0.0933217
0.0926126
0.0919749
0.0914017
0.0908868
0.0904247
0.0900101
0.0896385
0.0893056
0.0890076
0.088741
0.0885025
0.0882893
0.0880989
0.0879287
0.0877767
0.087641
0.0875197
0.0874113
0.0873145
0.0872278
0.0871501
0.0870805
0.087018
0.0869618
0.0869112
0.0868655
0.0868242
0.0867867
0.0867527
0.0867217
0.0866934
0.0866675
0.0866438
0.0866221
0.0866023
0.0865841
0.0865676
0.0865527
0.0865394
0.0865279
0.0865181
0.0865103
0.0865046
0.0865013
0.961705
0.892214
0.829118
0.771749
0.719513
0.67188
0.62838
0.588592
0.55214
0.518691
0.487943
0.459627
0.433504
0.409355
0.386987
0.366224
0.34691
0.328903
0.312078
0.296323
0.28154
0.267643
0.254559
0.242226
0.230592
0.219617
0.20927
0.199524
0.190361
0.181764
0.17372
0.166215
0.159234
0.152761
0.146777
0.141262
0.136192
0.131542
0.127289
0.123404
0.119864
0.116641
0.113711
0.111051
0.108638
0.10645
0.104469
0.102676
0.101054
0.0995876
0.0982629
0.0970668
0.0959875
0.0950142
0.0941369
0.0933467
0.0926354
0.0919956
0.0914204
0.0909038
0.09044
0.0900239
0.0896509
0.0893168
0.0890176
0.0887499
0.0885105
0.0882964
0.0881052
0.0879343
0.0877817
0.0876454
0.0875236
0.0874148
0.0873175
0.0872304
0.0871524
0.0870826
0.0870198
0.0869634
0.0869126
0.0868668
0.0868253
0.0867878
0.0867536
0.0867226
0.0866942
0.0866683
0.0866446
0.0866229
0.086603
0.0865849
0.0865684
0.0865535
0.0865402
0.0865287
0.086519
0.0865112
0.0865055
0.0865021
0.961705
0.892214
0.829118
0.771751
0.719516
0.671885
0.628387
0.588601
0.552153
0.518706
0.487961
0.459649
0.433528
0.409383
0.387019
0.36626
0.34695
0.328949
0.312129
0.29638
0.281603
0.267713
0.254635
0.242309
0.230682
0.219714
0.209373
0.199633
0.190474
0.181881
0.173839
0.166335
0.159354
0.15288
0.146894
0.141375
0.136301
0.131647
0.127389
0.1235
0.119954
0.116726
0.113791
0.111125
0.108707
0.106514
0.104528
0.102731
0.101104
0.099634
0.0983056
0.097106
0.0960233
0.0950469
0.0941667
0.0933739
0.0926601
0.092018
0.0914407
0.0909221
0.0904565
0.0900388
0.0896643
0.0893288
0.0890283
0.0887595
0.088519
0.0883041
0.088112
0.0879403
0.087787
0.0876501
0.0875277
0.0874184
0.0873206
0.0872332
0.0871549
0.0870847
0.0870217
0.0869651
0.0869141
0.0868681
0.0868265
0.0867888
0.0867546
0.0867234
0.086695
0.0866691
0.0866454
0.0866236
0.0866038
0.0865856
0.0865691
0.0865543
0.0865411
0.0865296
0.0865198
0.086512
0.0865064
0.086503
0.961704
0.892213
0.829118
0.771751
0.719518
0.671889
0.628393
0.58861
0.552164
0.51872
0.487978
0.45967
0.433553
0.409412
0.387051
0.366297
0.346992
0.328996
0.312182
0.29644
0.28167
0.267786
0.254716
0.242397
0.230778
0.219817
0.209482
0.199748
0.190594
0.182004
0.173965
0.166462
0.159481
0.153006
0.147017
0.141495
0.136417
0.131759
0.127496
0.123601
0.120049
0.116816
0.113875
0.111204
0.10878
0.106582
0.104591
0.102789
0.101158
0.0996836
0.0983511
0.0971477
0.0960616
0.0950818
0.0941986
0.0934028
0.0926864
0.0920419
0.0914624
0.0909417
0.0904741
0.0900547
0.0896786
0.0893416
0.0890398
0.0887697
0.0885281
0.0883121
0.0881191
0.0879466
0.0877926
0.0876549
0.087532
0.0874221
0.0873239
0.087236
0.0871573
0.0870868
0.0870236
0.0869667
0.0869155
0.0868693
0.0868276
0.0867898
0.0867555
0.0867243
0.0866958
0.0866698
0.0866461
0.0866244
0.0866045
0.0865864
0.0865699
0.0865551
0.0865419
0.0865304
0.0865207
0.086513
0.0865073
0.0865039
0.961704
0.892212
0.829118
0.771751
0.719519
0.671892
0.628398
0.588617
0.552174
0.518734
0.487995
0.45969
0.433577
0.40944
0.387084
0.366335
0.347035
0.329045
0.312237
0.296501
0.281738
0.267863
0.2548
0.242489
0.230878
0.219924
0.209596
0.199868
0.190719
0.182134
0.174097
0.166596
0.159615
0.153138
0.147147
0.141622
0.136539
0.131876
0.127608
0.123707
0.12015
0.11691
0.113964
0.111287
0.108857
0.106654
0.104658
0.10285
0.101215
0.0997358
0.0983991
0.0971917
0.0961018
0.0951186
0.0942321
0.0934334
0.0927142
0.0920671
0.0914852
0.0909623
0.0904927
0.0900714
0.0896936
0.089355
0.0890518
0.0887804
0.0885376
0.0883205
0.0881265
0.0879532
0.0877983
0.08766
0.0875364
0.087426
0.0873272
0.0872389
0.0871599
0.087089
0.0870254
0.0869683
0.0869169
0.0868705
0.0868287
0.0867908
0.0867564
0.0867251
0.0866966
0.0866706
0.0866468
0.0866251
0.0866052
0.0865871
0.0865707
0.0865559
0.0865427
0.0865313
0.0865216
0.0865138
0.0865082
0.0865048
0.961704
0.892212
0.829117
0.771751
0.71952
0.671894
0.628402
0.588624
0.552184
0.518746
0.488011
0.459709
0.433601
0.409468
0.387117
0.366373
0.347079
0.329094
0.312294
0.296565
0.281809
0.267941
0.254887
0.242584
0.230981
0.220035
0.209715
0.199993
0.190849
0.182268
0.174234
0.166734
0.159753
0.153275
0.147281
0.141753
0.136666
0.131998
0.127724
0.123818
0.120255
0.117009
0.114056
0.111373
0.108938
0.106729
0.104727
0.102915
0.101274
0.0997903
0.0984492
0.0972377
0.0961439
0.095157
0.0942672
0.0934653
0.0927432
0.0920934
0.0915089
0.0909837
0.0905121
0.0900888
0.0897092
0.0893689
0.0890642
0.0887914
0.0885474
0.0883292
0.0881342
0.0879599
0.0878042
0.0876651
0.0875409
0.0874299
0.0873306
0.0872418
0.0871624
0.0870911
0.0870273
0.0869699
0.0869183
0.0868717
0.0868297
0.0867917
0.0867572
0.0867258
0.0866973
0.0866712
0.0866475
0.0866257
0.0866059
0.0865878
0.0865714
0.0865566
0.0865435
0.0865321
0.0865224
0.0865147
0.0865091
0.0865057
0.961703
0.892211
0.829116
0.77175
0.71952
0.671896
0.628406
0.588629
0.552192
0.518757
0.488026
0.459728
0.433623
0.409495
0.387149
0.36641
0.347122
0.329144
0.31235
0.296629
0.281881
0.268022
0.254976
0.242681
0.231086
0.220149
0.209836
0.20012
0.190982
0.182405
0.174374
0.166875
0.159894
0.153415
0.14742
0.141887
0.136797
0.132124
0.127844
0.123932
0.120362
0.11711
0.114151
0.111462
0.109021
0.106806
0.104799
0.102981
0.101335
0.0998467
0.098501
0.0972852
0.0961874
0.0951968
0.0943035
0.0934983
0.0927732
0.0921206
0.0915335
0.0910059
0.0905321
0.0901067
0.0897252
0.0893833
0.089077
0.0888028
0.0885575
0.0883381
0.088142
0.0879668
0.0878102
0.0876704
0.0875454
0.0874338
0.087334
0.0872447
0.0871648
0.0870933
0.0870291
0.0869714
0.0869195
0.0868728
0.0868306
0.0867925
0.0867579
0.0867265
0.0866979
0.0866718
0.086648
0.0866263
0.0866065
0.0865884
0.0865721
0.0865573
0.0865443
0.0865329
0.0865233
0.0865156
0.0865099
0.0865065
0.961703
0.89221
0.829115
0.77175
0.71952
0.671897
0.628408
0.588634
0.552199
0.518768
0.488039
0.459746
0.433645
0.409522
0.387181
0.366448
0.347166
0.329194
0.312407
0.296693
0.281954
0.268103
0.255065
0.24278
0.231193
0.220264
0.209958
0.20025
0.191118
0.182545
0.174517
0.16702
0.160039
0.153559
0.14756
0.142025
0.13693
0.132252
0.127966
0.124048
0.120473
0.117214
0.114249
0.111553
0.109106
0.106885
0.104872
0.103049
0.101398
0.0999045
0.0985542
0.097334
0.0962321
0.0952377
0.0943407
0.0935323
0.092804
0.0921485
0.0915588
0.0910287
0.0905526
0.0901252
0.0897417
0.089398
0.0890901
0.0888145
0.0885678
0.0883472
0.08815
0.0879738
0.0878163
0.0876757
0.08755
0.0874377
0.0873373
0.0872476
0.0871673
0.0870953
0.0870308
0.0869729
0.0869208
0.0868738
0.0868315
0.0867932
0.0867585
0.0867271
0.0866984
0.0866724
0.0866486
0.0866268
0.086607
0.086589
0.0865727
0.086558
0.086545
0.0865336
0.086524
0.0865163
0.0865107
0.0865073
0.961702
0.892209
0.829114
0.771749
0.71952
0.671897
0.628411
0.588639
0.552206
0.518777
0.488052
0.459762
0.433666
0.409547
0.387211
0.366484
0.347208
0.329243
0.312464
0.296758
0.282026
0.268184
0.255155
0.242879
0.231301
0.22038
0.210082
0.200381
0.191254
0.182686
0.174661
0.167166
0.160185
0.153704
0.147703
0.142164
0.137065
0.132382
0.128091
0.124167
0.120585
0.11732
0.114348
0.111646
0.109193
0.106966
0.104947
0.103118
0.101462
0.0999635
0.0986084
0.0973838
0.0962777
0.0952793
0.0943787
0.0935669
0.0928355
0.092177
0.0915846
0.091052
0.0905735
0.0901439
0.0897585
0.089413
0.0891035
0.0888263
0.0885783
0.0883564
0.0881581
0.0879808
0.0878224
0.087681
0.0875545
0.0874416
0.0873407
0.0872504
0.0871696
0.0870973
0.0870324
0.0869742
0.0869219
0.0868748
0.0868323
0.0867939
0.0867591
0.0867276
0.0866989
0.0866728
0.086649
0.0866273
0.0866075
0.0865895
0.0865732
0.0865586
0.0865456
0.0865343
0.0865247
0.0865171
0.0865114
0.0865081
0.961702
0.892208
0.829113
0.771748
0.719519
0.671898
0.628412
0.588642
0.552212
0.518786
0.488064
0.459778
0.433686
0.409572
0.387241
0.366519
0.34725
0.329292
0.31252
0.296821
0.282098
0.268264
0.255245
0.242978
0.231409
0.220497
0.210207
0.200512
0.191391
0.182828
0.174806
0.167313
0.160333
0.15385
0.147847
0.142305
0.137201
0.132513
0.128216
0.124286
0.120698
0.117427
0.114449
0.111741
0.109281
0.107048
0.105023
0.103188
0.101527
0.100023
0.0986635
0.0974343
0.096324
0.0953217
0.0944173
0.093602
0.0928674
0.0922059
0.0916107
0.0910755
0.0905947
0.0901629
0.0897755
0.0894282
0.0891169
0.0888382
0.0885888
0.0883657
0.0881662
0.0879879
0.0878286
0.0876862
0.0875591
0.0874454
0.0873439
0.0872531
0.0871719
0.0870992
0.087034
0.0869755
0.0869229
0.0868756
0.0868329
0.0867944
0.0867596
0.0867279
0.0866992
0.0866731
0.0866493
0.0866276
0.0866079
0.0865899
0.0865737
0.0865591
0.0865461
0.0865348
0.0865253
0.0865177
0.0865121
0.0865087
0.961702
0.892207
0.829111
0.771747
0.719518
0.671898
0.628414
0.588645
0.552217
0.518794
0.488075
0.459793
0.433705
0.409595
0.38727
0.366554
0.347291
0.329339
0.312574
0.296884
0.28217
0.268345
0.255334
0.243076
0.231516
0.220612
0.21033
0.200643
0.191528
0.182969
0.174951
0.16746
0.16048
0.153996
0.147992
0.142446
0.137338
0.132645
0.128342
0.124406
0.120812
0.117534
0.11455
0.111835
0.109369
0.10713
0.1051
0.103259
0.101593
0.100084
0.0987191
0.0974854
0.0963708
0.0953644
0.0944563
0.0936375
0.0928996
0.0922351
0.0916371
0.0910993
0.090616
0.0901821
0.0897926
0.0894434
0.0891305
0.0888502
0.0885993
0.0883749
0.0881743
0.0879949
0.0878346
0.0876914
0.0875635
0.0874492
0.0873471
0.0872558
0.0871741
0.087101
0.0870354
0.0869766
0.0869238
0.0868763
0.0868335
0.0867949
0.0867599
0.0867282
0.0866995
0.0866733
0.0866495
0.0866279
0.0866082
0.0865902
0.086574
0.0865595
0.0865466
0.0865353
0.0865258
0.0865182
0.0865127
0.0865093
0.961701
0.892206
0.82911
0.771745
0.719518
0.671898
0.628415
0.588648
0.552222
0.518801
0.488086
0.459807
0.433723
0.409618
0.387298
0.366587
0.34733
0.329386
0.312628
0.296946
0.28224
0.268423
0.255422
0.243173
0.231622
0.220727
0.210453
0.200773
0.191664
0.18311
0.175096
0.167606
0.160627
0.154142
0.148135
0.142587
0.137474
0.132776
0.128469
0.124527
0.120926
0.117642
0.114651
0.11193
0.109458
0.107213
0.105177
0.103331
0.101658
0.100145
0.098775
0.0975367
0.0964178
0.0954074
0.0944955
0.0936732
0.092932
0.0922644
0.0916636
0.0911232
0.0906375
0.0902013
0.0898098
0.0894587
0.089144
0.0888622
0.0886099
0.0883842
0.0881823
0.0880019
0.0878406
0.0876966
0.0875679
0.0874529
0.0873502
0.0872583
0.0871762
0.0871026
0.0870368
0.0869777
0.0869246
0.0868769
0.086834
0.0867952
0.0867601
0.0867284
0.0866996
0.0866734
0.0866496
0.086628
0.0866083
0.0865904
0.0865743
0.0865598
0.0865469
0.0865357
0.0865263
0.0865187
0.0865131
0.0865098
0.961701
0.892206
0.829109
0.771744
0.719517
0.671898
0.628416
0.58865
0.552226
0.518808
0.488096
0.45982
0.43374
0.40964
0.387324
0.36662
0.347369
0.329431
0.312681
0.297006
0.282309
0.268501
0.255509
0.243268
0.231727
0.22084
0.210574
0.200901
0.191799
0.18325
0.175239
0.167751
0.160772
0.154287
0.148279
0.142726
0.13761
0.132908
0.128594
0.124647
0.12104
0.11775
0.114752
0.112025
0.109547
0.107296
0.105253
0.103402
0.101724
0.100205
0.0988309
0.097588
0.0964648
0.0954504
0.0945348
0.0937089
0.0929644
0.0922938
0.0916901
0.0911471
0.090659
0.0902205
0.089827
0.089474
0.0891576
0.0888741
0.0886204
0.0883933
0.0881903
0.0880088
0.0878466
0.0877016
0.0875722
0.0874565
0.0873531
0.0872608
0.0871781
0.0871042
0.087038
0.0869786
0.0869253
0.0868774
0.0868343
0.0867954
0.0867602
0.0867284
0.0866996
0.0866734
0.0866496
0.086628
0.0866084
0.0865905
0.0865744
0.08656
0.0865472
0.086536
0.0865266
0.0865191
0.0865135
0.0865102
0.961701
0.892205
0.829108
0.771743
0.719516
0.671897
0.628416
0.588652
0.55223
0.518814
0.488105
0.459832
0.433756
0.40966
0.38735
0.366651
0.347406
0.329475
0.312732
0.297065
0.282376
0.268577
0.255594
0.243362
0.23183
0.220952
0.210694
0.201028
0.191932
0.183387
0.17538
0.167894
0.160917
0.154431
0.14842
0.142865
0.137745
0.133038
0.128719
0.124766
0.121153
0.117857
0.114853
0.11212
0.109635
0.107378
0.10533
0.103473
0.10179
0.100266
0.0988866
0.0976392
0.0965118
0.0954933
0.0945739
0.0937445
0.0929967
0.0923231
0.0917165
0.0911709
0.0906803
0.0902397
0.089844
0.0894891
0.089171
0.0888859
0.0886307
0.0884024
0.0881981
0.0880155
0.0878524
0.0877066
0.0875763
0.08746
0.087356
0.0872631
0.08718
0.0871057
0.0870391
0.0869794
0.0869259
0.0868778
0.0868345
0.0867955
0.0867602
0.0867284
0.0866995
0.0866733
0.0866495
0.0866279
0.0866083
0.0865905
0.0865745
0.0865601
0.0865473
0.0865362
0.0865268
0.0865193
0.0865138
0.0865105
0.9617
0.892204
0.829107
0.771742
0.719515
0.671897
0.628417
0.588654
0.552234
0.51882
0.488113
0.459844
0.433772
0.40968
0.387374
0.366681
0.347442
0.329517
0.312782
0.297122
0.282441
0.268651
0.255676
0.243454
0.23193
0.221061
0.210811
0.201152
0.192062
0.183523
0.175518
0.168035
0.161058
0.154572
0.14856
0.143002
0.137878
0.133166
0.128843
0.124884
0.121265
0.117962
0.114953
0.112213
0.109722
0.10746
0.105406
0.103543
0.101855
0.100326
0.098942
0.0976901
0.0965584
0.095536
0.0946128
0.0937799
0.0930289
0.0923522
0.0917428
0.0911945
0.0907016
0.0902586
0.089861
0.0895042
0.0891843
0.0888976
0.088641
0.0884113
0.0882059
0.0880222
0.0878581
0.0877114
0.0875804
0.0874633
0.0873587
0.0872653
0.0871817
0.087107
0.0870401
0.0869801
0.0869263
0.086878
0.0868346
0.0867954
0.0867601
0.0867282
0.0866993
0.0866731
0.0866493
0.0866277
0.0866082
0.0865904
0.0865744
0.08656
0.0865473
0.0865363
0.086527
0.0865195
0.086514
0.0865106
0.9617
0.892203
0.829106
0.77174
0.719514
0.671896
0.628417
0.588656
0.552237
0.518826
0.488121
0.459855
0.433786
0.409699
0.387398
0.366709
0.347476
0.329558
0.31283
0.297178
0.282505
0.268723
0.255757
0.243543
0.232028
0.221167
0.210925
0.201273
0.192189
0.183655
0.175655
0.168174
0.161198
0.154711
0.148697
0.143137
0.138009
0.133293
0.128964
0.125
0.121375
0.118067
0.115051
0.112306
0.109809
0.10754
0.105481
0.103613
0.10192
0.100386
0.0989969
0.0977405
0.0966046
0.0955782
0.0946514
0.093815
0.0930607
0.092381
0.0917688
0.091218
0.0907226
0.0902774
0.0898777
0.089519
0.0891974
0.0889092
0.0886511
0.0884201
0.0882135
0.0880287
0.0878636
0.0877161
0.0875843
0.0874665
0.0873614
0.0872674
0.0871833
0.0871082
0.087041
0.0869807
0.0869267
0.0868782
0.0868346
0.0867953
0.0867599
0.0867279
0.086699
0.0866728
0.086649
0.0866275
0.0866079
0.0865902
0.0865742
0.0865599
0.0865473
0.0865363
0.086527
0.0865195
0.0865141
0.0865107
0.9617
0.892202
0.829105
0.771739
0.719513
0.671896
0.628417
0.588657
0.55224
0.518831
0.488129
0.459866
0.4338
0.409717
0.38742
0.366737
0.34751
0.329598
0.312876
0.297232
0.282566
0.268792
0.255835
0.24363
0.232123
0.221271
0.211036
0.201391
0.192314
0.183784
0.175787
0.168309
0.161334
0.154847
0.148832
0.143269
0.138138
0.133417
0.129084
0.125114
0.121484
0.11817
0.115148
0.112397
0.109894
0.10762
0.105555
0.103682
0.101983
0.100444
0.099051
0.0977903
0.0966502
0.0956199
0.0946894
0.0938496
0.0930921
0.0924094
0.0917945
0.0912411
0.0907433
0.0902959
0.0898942
0.0895336
0.0892103
0.0889205
0.088661
0.0884287
0.0882209
0.0880351
0.087869
0.0877206
0.087588
0.0874696
0.0873638
0.0872693
0.0871848
0.0871093
0.0870417
0.0869812
0.0869269
0.0868782
0.0868344
0.086795
0.0867596
0.0867275
0.0866986
0.0866724
0.0866486
0.0866271
0.0866075
0.0865899
0.086574
0.0865597
0.0865471
0.0865362
0.0865269
0.0865195
0.0865141
0.0865107
0.9617
0.892202
0.829104
0.771738
0.719512
0.671895
0.628417
0.588659
0.552243
0.518836
0.488136
0.459876
0.433814
0.409734
0.387442
0.366763
0.347542
0.329636
0.31292
0.297283
0.282625
0.26886
0.255911
0.243714
0.232216
0.221371
0.211144
0.201506
0.192434
0.18391
0.175917
0.168441
0.161467
0.15498
0.148963
0.143398
0.138263
0.133539
0.129201
0.125226
0.121591
0.118271
0.115243
0.112486
0.109978
0.107698
0.105628
0.103749
0.102046
0.100502
0.0991043
0.0978392
0.0966951
0.095661
0.0947269
0.0938837
0.0931231
0.0924374
0.0918198
0.0912638
0.0907637
0.0903141
0.0899104
0.089548
0.0892229
0.0889316
0.0886707
0.0884371
0.0882281
0.0880413
0.0878742
0.087725
0.0875917
0.0874726
0.0873662
0.0872711
0.0871862
0.0871103
0.0870423
0.0869815
0.086927
0.0868781
0.0868342
0.0867947
0.0867591
0.086727
0.0866981
0.0866718
0.0866481
0.0866266
0.0866071
0.0865895
0.0865736
0.0865594
0.0865469
0.0865359
0.0865268
0.0865194
0.0865139
0.0865106
0.961699
0.892201
0.829103
0.771737
0.719511
0.671894
0.628418
0.58866
0.552246
0.51884
0.488143
0.459885
0.433826
0.40975
0.387462
0.366789
0.347572
0.329672
0.312963
0.297333
0.282682
0.268925
0.255984
0.243795
0.232305
0.221468
0.211249
0.201618
0.192552
0.184032
0.176043
0.168569
0.161596
0.155109
0.149091
0.143523
0.138386
0.133658
0.129315
0.125335
0.121695
0.118369
0.115337
0.112574
0.11006
0.107775
0.105699
0.103816
0.102107
0.100559
0.0991565
0.0978873
0.0967391
0.0957013
0.0947636
0.0939171
0.0931534
0.0924649
0.0918445
0.0912861
0.0907836
0.090332
0.0899262
0.089562
0.0892353
0.0889425
0.0886801
0.0884453
0.0882352
0.0880473
0.0878793
0.0877292
0.0875951
0.0874754
0.0873684
0.0872728
0.0871874
0.0871111
0.0870429
0.0869818
0.086927
0.0868779
0.0868339
0.0867943
0.0867586
0.0867265
0.0866975
0.0866712
0.0866475
0.086626
0.0866066
0.086589
0.0865732
0.086559
0.0865465
0.0865356
0.0865265
0.0865192
0.0865137
0.0865104
0.961699
0.8922
0.829102
0.771736
0.71951
0.671894
0.628418
0.588661
0.552248
0.518844
0.488149
0.459894
0.433838
0.409766
0.387482
0.366813
0.347601
0.329707
0.313004
0.297381
0.282737
0.268987
0.256054
0.243873
0.232391
0.221562
0.21135
0.201726
0.192665
0.18415
0.176165
0.168693
0.161722
0.155235
0.149215
0.143646
0.138505
0.133773
0.129426
0.125442
0.121796
0.118466
0.115428
0.112659
0.11014
0.10785
0.105769
0.10388
0.102167
0.100614
0.0992077
0.0979343
0.0967822
0.0957407
0.0947996
0.0939498
0.0931831
0.0924917
0.0918688
0.0913078
0.0908031
0.0903494
0.0899417
0.0895757
0.0892474
0.088953
0.0886893
0.0884532
0.088242
0.0880531
0.0878842
0.0877332
0.0875984
0.087478
0.0873705
0.0872744
0.0871886
0.0871119
0.0870433
0.0869819
0.0869269
0.0868777
0.0868335
0.0867937
0.086758
0.0867258
0.0866968
0.0866705
0.0866468
0.0866254
0.0866059
0.0865884
0.0865726
0.0865585
0.0865461
0.0865353
0.0865262
0.0865188
0.0865135
0.0865101
0.961699
0.8922
0.829101
0.771735
0.719509
0.671893
0.628418
0.588662
0.55225
0.518848
0.488155
0.459902
0.43385
0.40978
0.387501
0.366836
0.347629
0.32974
0.313044
0.297427
0.28279
0.269047
0.256121
0.243949
0.232474
0.221653
0.211447
0.201829
0.192775
0.184264
0.176282
0.168813
0.161843
0.155356
0.149336
0.143764
0.138621
0.133885
0.129535
0.125545
0.121895
0.118559
0.115516
0.112743
0.110218
0.107923
0.105837
0.103943
0.102226
0.100668
0.0992575
0.0979801
0.0968243
0.0957791
0.0948347
0.0939818
0.0932121
0.0925179
0.0918924
0.0913291
0.0908222
0.0903663
0.0899568
0.089589
0.0892591
0.0889633
0.0886982
0.0884609
0.0882486
0.0880586
0.0878888
0.0877371
0.0876016
0.0874805
0.0873724
0.0872758
0.0871896
0.0871125
0.0870436
0.086982
0.0869268
0.0868773
0.086833
0.0867931
0.0867573
0.0867251
0.086696
0.0866698
0.0866461
0.0866246
0.0866052
0.0865878
0.086572
0.086558
0.0865456
0.0865348
0.0865257
0.0865185
0.0865131
0.0865098
0.961699
0.892199
0.8291
0.771734
0.719508
0.671893
0.628418
0.588663
0.552252
0.518852
0.488161
0.45991
0.43386
0.409794
0.387518
0.366858
0.347656
0.329772
0.313081
0.29747
0.28284
0.269104
0.256186
0.244021
0.232554
0.221739
0.211541
0.201929
0.19288
0.184374
0.176396
0.168929
0.16196
0.155473
0.149452
0.143879
0.138733
0.133994
0.129639
0.125646
0.12199
0.11865
0.115602
0.112823
0.110294
0.107993
0.105903
0.104005
0.102283
0.100721
0.0993059
0.0980246
0.0968651
0.0958165
0.0948688
0.0940128
0.0932402
0.0925434
0.0919154
0.0913497
0.0908406
0.0903828
0.0899714
0.089602
0.0892705
0.0889732
0.0887069
0.0884684
0.0882549
0.088064
0.0878933
0.0877408
0.0876046
0.0874829
0.0873742
0.0872772
0.0871905
0.087113
0.0870438
0.0869819
0.0869265
0.0868769
0.0868324
0.0867925
0.0867566
0.0867243
0.0866952
0.0866689
0.0866452
0.0866238
0.0866045
0.086587
0.0865714
0.0865574
0.086545
0.0865343
0.0865252
0.086518
0.0865127
0.0865094
0.961698
0.892198
0.829099
0.771733
0.719507
0.671892
0.628418
0.588663
0.552254
0.518855
0.488166
0.459918
0.433871
0.409808
0.387535
0.366878
0.347681
0.329803
0.313117
0.297512
0.282888
0.269159
0.256248
0.24409
0.23263
0.221822
0.211631
0.202025
0.192981
0.18448
0.176505
0.16904
0.162073
0.155586
0.149564
0.143989
0.138841
0.134099
0.12974
0.125743
0.122083
0.118738
0.115685
0.112901
0.110367
0.108062
0.105967
0.104064
0.102338
0.100772
0.0993529
0.0980678
0.0969048
0.0958528
0.0949019
0.0940429
0.0932675
0.0925681
0.0919376
0.0913697
0.0908585
0.0903988
0.0899856
0.0896145
0.0892815
0.0889828
0.0887152
0.0884755
0.088261
0.0880692
0.0878976
0.0877443
0.0876074
0.0874851
0.0873759
0.0872784
0.0871913
0.0871135
0.087044
0.0869818
0.0869262
0.0868764
0.0868318
0.0867917
0.0867558
0.0867234
0.0866943
0.0866681
0.0866444
0.086623
0.0866037
0.0865863
0.0865706
0.0865567
0.0865444
0.0865337
0.0865247
0.0865175
0.0865122
0.0865089
0.961698
0.892198
0.829098
0.771732
0.719506
0.671891
0.628418
0.588664
0.552256
0.518858
0.488171
0.459925
0.43388
0.40982
0.387551
0.366898
0.347705
0.329831
0.313151
0.297552
0.282934
0.269211
0.256307
0.244155
0.232702
0.221902
0.211716
0.202116
0.193078
0.184581
0.176609
0.169147
0.162181
0.155694
0.149672
0.144095
0.138945
0.134199
0.129837
0.125836
0.122172
0.118822
0.115765
0.112977
0.110438
0.108128
0.106029
0.104122
0.102391
0.100821
0.0993983
0.0981096
0.0969431
0.0958878
0.0949338
0.094072
0.0932939
0.092592
0.0919592
0.091389
0.0908758
0.0904142
0.0899992
0.0896265
0.089292
0.0889921
0.0887232
0.0884824
0.0882669
0.0880741
0.0879017
0.0877477
0.0876101
0.0874872
0.0873774
0.0872795
0.087192
0.0871138
0.087044
0.0869816
0.0869258
0.0868758
0.0868311
0.0867909
0.0867549
0.0867225
0.0866934
0.0866671
0.0866434
0.0866221
0.0866028
0.0865854
0.0865698
0.0865559
0.0865437
0.086533
0.0865241
0.0865169
0.0865116
0.0865083
0.961698
0.892197
0.829097
0.771731
0.719505
0.671891
0.628417
0.588665
0.552258
0.518861
0.488175
0.459932
0.433889
0.409832
0.387566
0.366917
0.347728
0.329859
0.313183
0.297589
0.282978
0.269261
0.256363
0.244218
0.232771
0.221977
0.211798
0.202204
0.19317
0.184677
0.176709
0.169249
0.162284
0.155798
0.149775
0.144197
0.139044
0.134296
0.129931
0.125925
0.122257
0.118903
0.115841
0.113049
0.110506
0.108192
0.106088
0.104177
0.102442
0.100868
0.099442
0.0981498
0.0969799
0.0959216
0.0949646
0.0941
0.0933194
0.092615
0.0919799
0.0914077
0.0908925
0.090429
0.0900124
0.0896381
0.0893022
0.0890009
0.0887309
0.088489
0.0882725
0.0880788
0.0879056
0.0877509
0.0876126
0.0874891
0.0873789
0.0872805
0.0871926
0.0871141
0.087044
0.0869813
0.0869253
0.0868752
0.0868303
0.0867901
0.086754
0.0867216
0.0866924
0.0866661
0.0866425
0.0866211
0.0866019
0.0865845
0.086569
0.0865552
0.0865429
0.0865323
0.0865234
0.0865163
0.086511
0.0865077
0.961698
0.892197
0.829097
0.77173
0.719504
0.67189
0.628417
0.588665
0.552259
0.518864
0.48818
0.459938
0.433898
0.409843
0.38758
0.366934
0.347749
0.329884
0.313214
0.297625
0.283019
0.269308
0.256416
0.244277
0.232837