/*--------------------------------*- C++ -*----------------------------------*\
  =========                 |
  \\      /  F ield         | OpenFOAM: The Open Source CFD Toolbox
   \\    /   O peration     | Website:  https://openfoam.org
    \\  /    A nd           | Version:  11
     \\/     M anipulation  |
\*---------------------------------------------------------------------------*/
FoamFile
{
    format      ascii;
    class       volScalarField;
    location    "732";
    object      nut;
}
// * * * * * * * * * * * * * * * * * * * * * * * * * * * * * * * * * * * * * //

dimensions      [0 2 -1 0 0 0 0];

internalField   nonuniform List<scalar> 
10000
(
0.000977119
0.000936711
0.000899657
0.000865637
0.000834363
0.000805578
0.000779049
0.000754568
0.000731946
0.000711016
0.000691624
0.000673634
0.000656922
0.000641377
0.000626898
0.000613394
0.000600782
0.000588989
0.000577948
0.000567596
0.000557879
0.000548746
0.000540151
0.000532054
0.000524415
0.000517201
0.00051038
0.000503922
0.000497803
0.000491997
0.000486482
0.000481238
0.000476247
0.000471491
0.000466955
0.000462624
0.000458484
0.000454524
0.000450731
0.000447096
0.000443607
0.000440257
0.000437037
0.000433938
0.000430955
0.000428079
0.000425304
0.000422625
0.000420036
0.000417532
0.000415108
0.000412759
0.000410482
0.000408273
0.000406127
0.000404043
0.000402015
0.000400042
0.000398121
0.000396249
0.000394424
0.000392644
0.000390908
0.000389213
0.000387557
0.000385941
0.000384362
0.00038282
0.000381315
0.000379846
0.000378412
0.000377015
0.000375654
0.000374331
0.000373046
0.000371801
0.000370597
0.000369437
0.000368323
0.000367259
0.000366247
0.000365292
0.000364397
0.000363568
0.00036281
0.000362128
0.00036153
0.000361021
0.000360608
0.000360299
0.000360098
0.000360012
0.000360042
0.000360189
0.000360446
0.000360796
0.000361212
0.000361644
0.000362019
0.000362229
0.000977119
0.000936711
0.000899657
0.000865637
0.000834363
0.000805578
0.000779049
0.000754568
0.000731946
0.000711016
0.000691624
0.000673634
0.000656922
0.000641377
0.000626898
0.000613394
0.000600782
0.00058899
0.000577948
0.000567596
0.000557879
0.000548746
0.000540152
0.000532054
0.000524415
0.000517201
0.00051038
0.000503923
0.000497803
0.000491997
0.000486482
0.000481239
0.000476248
0.000471492
0.000466956
0.000462624
0.000458485
0.000454524
0.000450732
0.000447096
0.000443608
0.000440258
0.000437038
0.000433939
0.000430955
0.000428079
0.000425305
0.000422626
0.000420037
0.000417533
0.000415109
0.00041276
0.000410483
0.000408274
0.000406129
0.000404044
0.000402016
0.000400044
0.000398122
0.000396251
0.000394426
0.000392646
0.000390909
0.000389214
0.000387559
0.000385943
0.000384364
0.000382822
0.000381317
0.000379848
0.000378414
0.000377017
0.000375656
0.000374333
0.000373048
0.000371803
0.000370599
0.000369439
0.000368326
0.000367261
0.000366249
0.000365294
0.000364399
0.00036357
0.000362812
0.00036213
0.000361532
0.000361023
0.00036061
0.0003603
0.0003601
0.000360013
0.000360043
0.00036019
0.000360447
0.000360797
0.000361212
0.000361644
0.000362019
0.000362229
0.000977119
0.000936711
0.000899657
0.000865637
0.000834363
0.000805578
0.000779049
0.000754568
0.000731946
0.000711016
0.000691624
0.000673634
0.000656922
0.000641377
0.000626898
0.000613394
0.000600783
0.00058899
0.000577948
0.000567596
0.000557879
0.000548746
0.000540152
0.000532055
0.000524416
0.000517202
0.000510381
0.000503923
0.000497804
0.000491998
0.000486483
0.000481239
0.000476248
0.000471493
0.000466957
0.000462625
0.000458486
0.000454525
0.000450733
0.000447097
0.000443609
0.000440259
0.000437039
0.000433941
0.000430957
0.000428081
0.000425306
0.000422628
0.000420039
0.000417535
0.000415111
0.000412762
0.000410486
0.000408276
0.000406131
0.000404046
0.000402019
0.000400046
0.000398125
0.000396254
0.000394429
0.000392649
0.000390913
0.000389218
0.000387563
0.000385946
0.000384368
0.000382826
0.000381321
0.000379852
0.000378418
0.000377021
0.000375661
0.000374337
0.000373053
0.000371807
0.000370604
0.000369444
0.00036833
0.000367266
0.000366254
0.000365298
0.000364404
0.000363574
0.000362816
0.000362135
0.000361536
0.000361027
0.000360614
0.000360303
0.000360102
0.000360016
0.000360046
0.000360192
0.000360448
0.000360798
0.000361213
0.000361645
0.000362019
0.00036223
0.000977119
0.000936711
0.000899657
0.000865637
0.000834363
0.000805578
0.000779049
0.000754568
0.000731947
0.000711016
0.000691624
0.000673634
0.000656922
0.000641377
0.000626898
0.000613394
0.000600783
0.00058899
0.000577949
0.000567597
0.00055788
0.000548747
0.000540153
0.000532055
0.000524417
0.000517203
0.000510381
0.000503924
0.000497805
0.000491999
0.000486484
0.000481241
0.00047625
0.000471494
0.000466958
0.000462627
0.000458487
0.000454527
0.000450735
0.000447099
0.000443611
0.000440261
0.000437041
0.000433943
0.000430959
0.000428083
0.000425309
0.00042263
0.000420041
0.000417538
0.000415114
0.000412766
0.000410489
0.00040828
0.000406135
0.00040405
0.000402023
0.00040005
0.000398129
0.000396258
0.000394433
0.000392654
0.000390918
0.000389223
0.000387568
0.000385952
0.000384373
0.000382832
0.000381327
0.000379858
0.000378425
0.000377028
0.000375667
0.000374344
0.000373059
0.000371814
0.000370611
0.000369451
0.000368337
0.000367273
0.000366261
0.000365305
0.00036441
0.000363581
0.000362822
0.000362141
0.000361542
0.000361032
0.000360619
0.000360308
0.000360107
0.000360019
0.000360049
0.000360195
0.00036045
0.0003608
0.000361214
0.000361646
0.00036202
0.00036223
0.000977119
0.000936711
0.000899657
0.000865637
0.000834363
0.000805578
0.000779049
0.000754568
0.000731947
0.000711016
0.000691625
0.000673635
0.000656923
0.000641378
0.000626899
0.000613395
0.000600783
0.000588991
0.000577949
0.000567597
0.00055788
0.000548748
0.000540153
0.000532056
0.000524418
0.000517204
0.000510382
0.000503925
0.000497806
0.000492
0.000486485
0.000481242
0.000476251
0.000471496
0.00046696
0.000462629
0.000458489
0.000454529
0.000450737
0.000447102
0.000443614
0.000440264
0.000437044
0.000433946
0.000430962
0.000428087
0.000425312
0.000422634
0.000420045
0.000417541
0.000415118
0.00041277
0.000410493
0.000408284
0.000406139
0.000404055
0.000402028
0.000400056
0.000398135
0.000396264
0.000394439
0.00039266
0.000390924
0.000389229
0.000387575
0.000385959
0.000384381
0.000382839
0.000381334
0.000379866
0.000378433
0.000377036
0.000375676
0.000374353
0.000373068
0.000371823
0.00037062
0.00036946
0.000368346
0.000367282
0.00036627
0.000365314
0.000364419
0.00036359
0.000362831
0.000362149
0.000361549
0.000361039
0.000360626
0.000360315
0.000360113
0.000360024
0.000360053
0.000360199
0.000360453
0.000360802
0.000361216
0.000361647
0.000362021
0.000362231
0.000977119
0.000936711
0.000899657
0.000865637
0.000834364
0.000805578
0.00077905
0.000754568
0.000731947
0.000711016
0.000691625
0.000673635
0.000656923
0.000641378
0.000626899
0.000613395
0.000600784
0.000588991
0.00057795
0.000567598
0.000557881
0.000548749
0.000540154
0.000532057
0.000524419
0.000517205
0.000510384
0.000503927
0.000497807
0.000492002
0.000486487
0.000481244
0.000476253
0.000471498
0.000466962
0.000462631
0.000458492
0.000454532
0.00045074
0.000447104
0.000443617
0.000440267
0.000437047
0.000433949
0.000430966
0.000428091
0.000425316
0.000422638
0.00042005
0.000417546
0.000415123
0.000412775
0.000410499
0.00040829
0.000406145
0.000404061
0.000402034
0.000400062
0.000398142
0.000396271
0.000394447
0.000392668
0.000390932
0.000389237
0.000387583
0.000385967
0.000384389
0.000382848
0.000381344
0.000379875
0.000378443
0.000377046
0.000375686
0.000374363
0.000373079
0.000371834
0.000370631
0.000369471
0.000368357
0.000367293
0.000366281
0.000365325
0.00036443
0.0003636
0.000362841
0.000362159
0.000361559
0.000361049
0.000360634
0.000360322
0.00036012
0.000360031
0.000360059
0.000360203
0.000360457
0.000360805
0.000361218
0.000361648
0.000362022
0.000362231
0.000977119
0.000936711
0.000899657
0.000865637
0.000834364
0.000805579
0.00077905
0.000754568
0.000731947
0.000711017
0.000691625
0.000673635
0.000656923
0.000641378
0.000626899
0.000613396
0.000600785
0.000588992
0.000577951
0.000567599
0.000557882
0.00054875
0.000540155
0.000532058
0.00052442
0.000517206
0.000510385
0.000503928
0.000497809
0.000492003
0.000486489
0.000481246
0.000476255
0.0004715
0.000466965
0.000462634
0.000458495
0.000454535
0.000450743
0.000447108
0.00044362
0.000440271
0.000437051
0.000433954
0.00043097
0.000428095
0.000425321
0.000422643
0.000420055
0.000417552
0.000415128
0.000412781
0.000410505
0.000408297
0.000406152
0.000404068
0.000402042
0.00040007
0.00039815
0.000396279
0.000394455
0.000392677
0.000390941
0.000389247
0.000387593
0.000385978
0.0003844
0.000382859
0.000381355
0.000379887
0.000378454
0.000377058
0.000375698
0.000374376
0.000373091
0.000371847
0.000370644
0.000369484
0.000368371
0.000367306
0.000366294
0.000365338
0.000364443
0.000363613
0.000362853
0.000362171
0.00036157
0.000361059
0.000360644
0.000360332
0.000360128
0.000360038
0.000360065
0.000360208
0.000360461
0.000360808
0.000361221
0.00036165
0.000362023
0.000362232
0.000977119
0.000936711
0.000899657
0.000865637
0.000834364
0.000805579
0.00077905
0.000754569
0.000731947
0.000711017
0.000691625
0.000673636
0.000656924
0.000641379
0.0006269
0.000613396
0.000600785
0.000588993
0.000577951
0.0005676
0.000557883
0.000548751
0.000540157
0.00053206
0.000524421
0.000517208
0.000510387
0.00050393
0.000497811
0.000492006
0.000486491
0.000481249
0.000476258
0.000471503
0.000466967
0.000462637
0.000458498
0.000454538
0.000450747
0.000447112
0.000443624
0.000440275
0.000437056
0.000433958
0.000430976
0.000428101
0.000425327
0.000422649
0.000420061
0.000417558
0.000415135
0.000412788
0.000410512
0.000408304
0.00040616
0.000404076
0.00040205
0.000400079
0.000398159
0.000396289
0.000394465
0.000392687
0.000390952
0.000389258
0.000387604
0.000385989
0.000384412
0.000382872
0.000381368
0.0003799
0.000378468
0.000377072
0.000375712
0.00037439
0.000373106
0.000371861
0.000370659
0.000369499
0.000368386
0.000367321
0.000366309
0.000365353
0.000364458
0.000363627
0.000362868
0.000362184
0.000361583
0.000361072
0.000360656
0.000360342
0.000360138
0.000360047
0.000360073
0.000360215
0.000360466
0.000360812
0.000361224
0.000361652
0.000362024
0.000362233
0.000977119
0.000936711
0.000899657
0.000865637
0.000834364
0.000805579
0.00077905
0.000754569
0.000731948
0.000711017
0.000691626
0.000673636
0.000656924
0.000641379
0.000626901
0.000613397
0.000600786
0.000588994
0.000577952
0.000567601
0.000557884
0.000548752
0.000540158
0.000532061
0.000524423
0.00051721
0.000510389
0.000503932
0.000497813
0.000492008
0.000486494
0.000481251
0.000476261
0.000471506
0.000466971
0.000462641
0.000458502
0.000454542
0.000450751
0.000447116
0.000443629
0.00044028
0.000437061
0.000433964
0.000430981
0.000428106
0.000425333
0.000422655
0.000420068
0.000417565
0.000415143
0.000412796
0.00041052
0.000408313
0.000406169
0.000404086
0.00040206
0.000400089
0.000398169
0.000396299
0.000394476
0.000392698
0.000390964
0.00038927
0.000387617
0.000386002
0.000384426
0.000382886
0.000381382
0.000379915
0.000378483
0.000377087
0.000375728
0.000374406
0.000373122
0.000371878
0.000370675
0.000369516
0.000368403
0.000367338
0.000366326
0.00036537
0.000364474
0.000363643
0.000362883
0.000362199
0.000361598
0.000361085
0.000360669
0.000360354
0.000360148
0.000360056
0.000360081
0.000360222
0.000360472
0.000360817
0.000361227
0.000361654
0.000362026
0.000362234
0.000977119
0.000936711
0.000899657
0.000865637
0.000834364
0.000805579
0.00077905
0.000754569
0.000731948
0.000711018
0.000691626
0.000673636
0.000656925
0.00064138
0.000626901
0.000613398
0.000600787
0.000588995
0.000577953
0.000567602
0.000557886
0.000548753
0.00054016
0.000532063
0.000524425
0.000517212
0.000510391
0.000503935
0.000497816
0.000492011
0.000486497
0.000481254
0.000476264
0.00047151
0.000466974
0.000462644
0.000458506
0.000454547
0.000450755
0.000447121
0.000443634
0.000440286
0.000437067
0.00043397
0.000430988
0.000428113
0.00042534
0.000422663
0.000420075
0.000417573
0.000415151
0.000412804
0.000410529
0.000408322
0.000406179
0.000404096
0.000402071
0.0004001
0.000398181
0.000396311
0.000394489
0.000392711
0.000390977
0.000389284
0.000387631
0.000386017
0.000384441
0.000382901
0.000381398
0.000379931
0.000378499
0.000377104
0.000375745
0.000374424
0.00037314
0.000371896
0.000370694
0.000369535
0.000368421
0.000367357
0.000366345
0.000365388
0.000364492
0.000363661
0.000362901
0.000362216
0.000361614
0.000361101
0.000360683
0.000360367
0.00036016
0.000360067
0.00036009
0.000360229
0.000360478
0.000360822
0.00036123
0.000361657
0.000362027
0.000362236
0.000977119
0.000936711
0.000899657
0.000865637
0.000834364
0.000805579
0.00077905
0.000754569
0.000731948
0.000711018
0.000691626
0.000673637
0.000656925
0.000641381
0.000626902
0.000613398
0.000600788
0.000588996
0.000577955
0.000567604
0.000557887
0.000548755
0.000540161
0.000532065
0.000524427
0.000517214
0.000510393
0.000503937
0.000497818
0.000492013
0.0004865
0.000481258
0.000476268
0.000471513
0.000466978
0.000462649
0.00045851
0.000454551
0.00045076
0.000447126
0.00044364
0.000440291
0.000437073
0.000433976
0.000430994
0.00042812
0.000425348
0.000422671
0.000420084
0.000417582
0.00041516
0.000412814
0.000410539
0.000408332
0.000406189
0.000404107
0.000402082
0.000400112
0.000398193
0.000396324
0.000394502
0.000392725
0.000390991
0.000389299
0.000387646
0.000386033
0.000384457
0.000382918
0.000381415
0.000379948
0.000378518
0.000377123
0.000375764
0.000374443
0.00037316
0.000371916
0.000370714
0.000369555
0.000368442
0.000367377
0.000366365
0.000365408
0.000364512
0.000363681
0.00036292
0.000362234
0.000361631
0.000361117
0.000360698
0.000360382
0.000360173
0.000360078
0.0003601
0.000360238
0.000360485
0.000360827
0.000361234
0.000361659
0.000362029
0.000362237
0.000977119
0.000936711
0.000899657
0.000865637
0.000834364
0.000805579
0.000779051
0.00075457
0.000731948
0.000711018
0.000691627
0.000673637
0.000656926
0.000641381
0.000626903
0.000613399
0.000600789
0.000588997
0.000577956
0.000567605
0.000557889
0.000548757
0.000540163
0.000532067
0.000524429
0.000517216
0.000510396
0.00050394
0.000497821
0.000492017
0.000486503
0.000481261
0.000476271
0.000471517
0.000466983
0.000462653
0.000458515
0.000454557
0.000450766
0.000447132
0.000443646
0.000440298
0.000437079
0.000433983
0.000431002
0.000428128
0.000425356
0.000422679
0.000420092
0.000417591
0.000415169
0.000412824
0.00041055
0.000408343
0.000406201
0.000404119
0.000402094
0.000400124
0.000398206
0.000396338
0.000394516
0.00039274
0.000391006
0.000389315
0.000387663
0.00038605
0.000384474
0.000382936
0.000381434
0.000379967
0.000378537
0.000377143
0.000375784
0.000374464
0.000373181
0.000371937
0.000370735
0.000369577
0.000368463
0.000367399
0.000366387
0.00036543
0.000364533
0.000363702
0.00036294
0.000362254
0.00036165
0.000361135
0.000360715
0.000360397
0.000360187
0.000360091
0.000360111
0.000360247
0.000360492
0.000360832
0.000361238
0.000361662
0.000362031
0.000362239
0.000977119
0.000936711
0.000899657
0.000865637
0.000834364
0.000805579
0.000779051
0.00075457
0.000731949
0.000711019
0.000691627
0.000673638
0.000656927
0.000641382
0.000626904
0.0006134
0.00060079
0.000588998
0.000577957
0.000567606
0.00055789
0.000548758
0.000540165
0.000532069
0.000524431
0.000517218
0.000510398
0.000503942
0.000497824
0.00049202
0.000486507
0.000481265
0.000476275
0.000471521
0.000466987
0.000462658
0.00045852
0.000454562
0.000450771
0.000447138
0.000443652
0.000440304
0.000437086
0.000433991
0.000431009
0.000428136
0.000425364
0.000422688
0.000420102
0.000417601
0.00041518
0.000412834
0.000410561
0.000408355
0.000406213
0.000404131
0.000402107
0.000400138
0.000398221
0.000396353
0.000394532
0.000392756
0.000391023
0.000389331
0.00038768
0.000386068
0.000384493
0.000382955
0.000381453
0.000379988
0.000378558
0.000377164
0.000375806
0.000374486
0.000373203
0.00037196
0.000370758
0.0003696
0.000368487
0.000367422
0.00036641
0.000365453
0.000364556
0.000363724
0.000362962
0.000362275
0.00036167
0.000361154
0.000360733
0.000360413
0.000360202
0.000360104
0.000360122
0.000360257
0.0003605
0.000360838
0.000361243
0.000361665
0.000362033
0.00036224
0.000977119
0.000936711
0.000899657
0.000865638
0.000834364
0.000805579
0.000779051
0.00075457
0.000731949
0.000711019
0.000691628
0.000673638
0.000656927
0.000641383
0.000626904
0.000613401
0.000600791
0.000588999
0.000577958
0.000567608
0.000557892
0.00054876
0.000540167
0.000532071
0.000524434
0.000517221
0.000510401
0.000503945
0.000497827
0.000492023
0.00048651
0.000481269
0.00047628
0.000471526
0.000466992
0.000462663
0.000458526
0.000454567
0.000450777
0.000447144
0.000443659
0.000440311
0.000437094
0.000433998
0.000431017
0.000428144
0.000425373
0.000422697
0.000420112
0.000417611
0.00041519
0.000412846
0.000410572
0.000408367
0.000406225
0.000404145
0.000402121
0.000400152
0.000398235
0.000396368
0.000394548
0.000392772
0.00039104
0.000389349
0.000387699
0.000386087
0.000384512
0.000382975
0.000381474
0.000380009
0.000378579
0.000377186
0.000375829
0.000374509
0.000373227
0.000371984
0.000370782
0.000369624
0.000368511
0.000367447
0.000366434
0.000365477
0.00036458
0.000363747
0.000362984
0.000362297
0.000361691
0.000361174
0.000360752
0.000360431
0.000360218
0.000360118
0.000360134
0.000360267
0.000360508
0.000360845
0.000361247
0.000361668
0.000362035
0.000362242
0.000977119
0.000936711
0.000899657
0.000865638
0.000834364
0.00080558
0.000779051
0.00075457
0.000731949
0.000711019
0.000691628
0.000673639
0.000656928
0.000641383
0.000626905
0.000613402
0.000600792
0.000589
0.00057796
0.000567609
0.000557893
0.000548762
0.000540169
0.000532073
0.000524436
0.000517223
0.000510404
0.000503948
0.000497831
0.000492027
0.000486514
0.000481273
0.000476284
0.00047153
0.000466997
0.000462668
0.000458531
0.000454573
0.000450783
0.000447151
0.000443665
0.000440319
0.000437101
0.000434006
0.000431026
0.000428153
0.000425382
0.000422707
0.000420122
0.000417622
0.000415202
0.000412857
0.000410585
0.00040838
0.000406239
0.000404158
0.000402136
0.000400167
0.000398251
0.000396384
0.000394564
0.00039279
0.000391058
0.000389368
0.000387718
0.000386106
0.000384533
0.000382996
0.000381496
0.000380031
0.000378602
0.000377209
0.000375853
0.000374533
0.000373251
0.000372009
0.000370808
0.000369649
0.000368537
0.000367472
0.00036646
0.000365502
0.000364605
0.000363772
0.000363008
0.00036232
0.000361713
0.000361195
0.000360771
0.000360449
0.000360234
0.000360133
0.000360147
0.000360277
0.000360517
0.000360851
0.000361252
0.000361672
0.000362037
0.000362243
0.000977119
0.000936711
0.000899657
0.000865638
0.000834365
0.00080558
0.000779051
0.00075457
0.00073195
0.00071102
0.000691629
0.000673639
0.000656928
0.000641384
0.000626906
0.000613403
0.000600793
0.000589001
0.000577961
0.000567611
0.000557895
0.000548764
0.000540171
0.000532075
0.000524438
0.000517226
0.000510407
0.000503952
0.000497834
0.00049203
0.000486518
0.000481277
0.000476288
0.000471535
0.000467002
0.000462673
0.000458537
0.000454579
0.00045079
0.000447158
0.000443673
0.000440326
0.000437109
0.000434015
0.000431035
0.000428163
0.000425392
0.000422717
0.000420132
0.000417633
0.000415213
0.00041287
0.000410597
0.000408393
0.000406253
0.000404173
0.000402151
0.000400183
0.000398267
0.000396401
0.000394582
0.000392808
0.000391077
0.000389387
0.000387738
0.000386127
0.000384554
0.000383018
0.000381518
0.000380054
0.000378626
0.000377233
0.000375877
0.000374558
0.000373277
0.000372035
0.000370834
0.000369676
0.000368563
0.000367499
0.000366486
0.000365529
0.000364631
0.000363797
0.000363033
0.000362344
0.000361736
0.000361217
0.000360792
0.000360468
0.000360251
0.000360148
0.00036016
0.000360288
0.000360526
0.000360858
0.000361257
0.000361675
0.00036204
0.000362245
0.000977119
0.000936711
0.000899657
0.000865638
0.000834365
0.00080558
0.000779051
0.000754571
0.00073195
0.00071102
0.000691629
0.00067364
0.000656929
0.000641385
0.000626907
0.000613404
0.000600794
0.000589003
0.000577962
0.000567612
0.000557897
0.000548766
0.000540173
0.000532077
0.000524441
0.000517229
0.00051041
0.000503955
0.000497838
0.000492034
0.000486522
0.000481281
0.000476293
0.00047154
0.000467007
0.000462679
0.000458543
0.000454586
0.000450796
0.000447164
0.00044368
0.000440334
0.000437118
0.000434023
0.000431044
0.000428172
0.000425402
0.000422728
0.000420143
0.000417644
0.000415225
0.000412882
0.00041061
0.000408407
0.000406267
0.000404188
0.000402166
0.000400199
0.000398284
0.000396418
0.0003946
0.000392826
0.000391096
0.000389407
0.000387758
0.000386148
0.000384576
0.00038304
0.000381541
0.000380078
0.00037865
0.000377258
0.000375903
0.000374584
0.000373303
0.000372062
0.000370861
0.000369703
0.000368591
0.000367526
0.000366514
0.000365556
0.000364658
0.000363824
0.000363059
0.000362369
0.00036176
0.000361239
0.000360813
0.000360487
0.000360269
0.000360164
0.000360174
0.0003603
0.000360535
0.000360866
0.000361262
0.000361679
0.000362042
0.000362247
0.000977119
0.000936711
0.000899657
0.000865638
0.000834365
0.00080558
0.000779052
0.000754571
0.00073195
0.00071102
0.00069163
0.00067364
0.00065693
0.000641386
0.000626908
0.000613405
0.000600795
0.000589004
0.000577964
0.000567614
0.000557898
0.000548767
0.000540175
0.00053208
0.000524443
0.000517232
0.000510413
0.000503958
0.000497841
0.000492038
0.000486526
0.000481285
0.000476298
0.000471545
0.000467012
0.000462685
0.000458549
0.000454592
0.000450803
0.000447172
0.000443688
0.000440342
0.000437126
0.000434032
0.000431053
0.000428182
0.000425412
0.000422738
0.000420155
0.000417656
0.000415238
0.000412895
0.000410624
0.000408421
0.000406281
0.000404203
0.000402182
0.000400215
0.000398301
0.000396436
0.000394618
0.000392845
0.000391116
0.000389428
0.000387779
0.00038617
0.000384598
0.000383064
0.000381565
0.000380102
0.000378675
0.000377284
0.000375929
0.000374611
0.00037333
0.000372089
0.000370889
0.000369731
0.000368619
0.000367555
0.000366542
0.000365584
0.000364685
0.000363851
0.000363085
0.000362394
0.000361785
0.000361262
0.000360834
0.000360507
0.000360287
0.00036018
0.000360188
0.000360312
0.000360545
0.000360873
0.000361268
0.000361682
0.000362045
0.000362249
0.000977119
0.000936711
0.000899657
0.000865638
0.000834365
0.00080558
0.000779052
0.000754571
0.00073195
0.000711021
0.00069163
0.000673641
0.00065693
0.000641386
0.000626909
0.000613406
0.000600796
0.000589005
0.000577965
0.000567615
0.0005579
0.000548769
0.000540177
0.000532082
0.000524446
0.000517234
0.000510416
0.000503961
0.000497845
0.000492042
0.00048653
0.00048129
0.000476302
0.00047155
0.000467018
0.00046269
0.000458555
0.000454598
0.00045081
0.000447179
0.000443695
0.00044035
0.000437134
0.000434041
0.000431062
0.000428192
0.000425423
0.000422749
0.000420166
0.000417668
0.00041525
0.000412908
0.000410638
0.000408435
0.000406296
0.000404218
0.000402198
0.000400232
0.000398318
0.000396454
0.000394637
0.000392865
0.000391136
0.000389448
0.000387801
0.000386192
0.000384621
0.000383087
0.000381589
0.000380127
0.000378701
0.00037731
0.000375956
0.000374638
0.000373358
0.000372117
0.000370917
0.00036976
0.000368648
0.000367584
0.00036657
0.000365612
0.000364713
0.000363878
0.000363112
0.00036242
0.00036181
0.000361286
0.000360856
0.000360528
0.000360306
0.000360196
0.000360202
0.000360324
0.000360555
0.000360881
0.000361273
0.000361686
0.000362047
0.000362251
0.000977119
0.000936711
0.000899657
0.000865638
0.000834365
0.00080558
0.000779052
0.000754571
0.000731951
0.000711021
0.00069163
0.000673642
0.000656931
0.000641387
0.000626909
0.000613407
0.000600797
0.000589006
0.000577967
0.000567617
0.000557902
0.000548771
0.000540179
0.000532084
0.000524449
0.000517237
0.000510419
0.000503965
0.000497848
0.000492045
0.000486534
0.000481294
0.000476307
0.000471555
0.000467023
0.000462696
0.000458561
0.000454605
0.000450817
0.000447186
0.000443703
0.000440358
0.000437143
0.00043405
0.000431072
0.000428202
0.000425433
0.00042276
0.000420178
0.00041768
0.000415263
0.000412921
0.000410651
0.000408449
0.000406311
0.000404234
0.000402214
0.000400249
0.000398336
0.000396472
0.000394656
0.000392885
0.000391156
0.00038947
0.000387823
0.000386215
0.000384645
0.000383111
0.000381614
0.000380153
0.000378727
0.000377337
0.000375983
0.000374666
0.000373386
0.000372146
0.000370946
0.000369789
0.000368677
0.000367613
0.0003666
0.000365641
0.000364742
0.000363906
0.000363139
0.000362447
0.000361835
0.00036131
0.000360879
0.000360548
0.000360325
0.000360213
0.000360217
0.000360336
0.000360565
0.000360888
0.000361279
0.00036169
0.00036205
0.000362253
0.000977119
0.000936711
0.000899658
0.000865638
0.000834365
0.00080558
0.000779052
0.000754572
0.000731951
0.000711021
0.000691631
0.000673642
0.000656932
0.000641388
0.00062691
0.000613408
0.000600798
0.000589008
0.000577968
0.000567619
0.000557904
0.000548773
0.000540182
0.000532087
0.000524451
0.00051724
0.000510422
0.000503968
0.000497852
0.000492049
0.000486538
0.000481299
0.000476312
0.00047156
0.000467029
0.000462702
0.000458567
0.000454611
0.000450824
0.000447194
0.000443711
0.000440366
0.000437152
0.000434059
0.000431082
0.000428212
0.000425444
0.000422771
0.000420189
0.000417692
0.000415276
0.000412935
0.000410665
0.000408464
0.000406327
0.00040425
0.000402231
0.000400267
0.000398354
0.000396491
0.000394675
0.000392905
0.000391177
0.000389491
0.000387845
0.000386238
0.000384668
0.000383136
0.000381639
0.000380178
0.000378753
0.000377364
0.00037601
0.000374694
0.000373415
0.000372175
0.000370975
0.000369819
0.000368707
0.000367643
0.000366629
0.000365671
0.000364771
0.000363935
0.000363167
0.000362474
0.000361861
0.000361335
0.000360902
0.00036057
0.000360344
0.00036023
0.000360232
0.000360349
0.000360575
0.000360896
0.000361285
0.000361694
0.000362053
0.000362255
0.000977119
0.000936711
0.000899658
0.000865638
0.000834365
0.000805581
0.000779052
0.000754572
0.000731951
0.000711022
0.000691631
0.000673643
0.000656932
0.000641389
0.000626911
0.000613409
0.0006008
0.000589009
0.000577969
0.00056762
0.000557905
0.000548775
0.000540184
0.000532089
0.000524454
0.000517243
0.000510425
0.000503971
0.000497855
0.000492053
0.000486543
0.000481303
0.000476317
0.000471565
0.000467034
0.000462708
0.000458573
0.000454618
0.000450831
0.000447201
0.000443719
0.000440375
0.000437161
0.000434069
0.000431091
0.000428222
0.000425455
0.000422783
0.000420201
0.000417705
0.000415289
0.000412948
0.00041068
0.000408479
0.000406342
0.000404266
0.000402248
0.000400284
0.000398372
0.00039651
0.000394695
0.000392925
0.000391198
0.000389513
0.000387867
0.000386261
0.000384692
0.00038316
0.000381664
0.000380204
0.00037878
0.000377391
0.000376038
0.000374722
0.000373443
0.000372204
0.000371005
0.000369848
0.000368737
0.000367672
0.000366659
0.0003657
0.0003648
0.000363963
0.000363195
0.000362501
0.000361887
0.000361359
0.000360925
0.000360591
0.000360363
0.000360248
0.000360247
0.000360361
0.000360585
0.000360904
0.000361291
0.000361698
0.000362055
0.000362258
0.000977119
0.000936711
0.000899658
0.000865638
0.000834365
0.000805581
0.000779053
0.000754572
0.000731952
0.000711022
0.000691632
0.000673643
0.000656933
0.000641389
0.000626912
0.00061341
0.000600801
0.00058901
0.000577971
0.000567622
0.000557907
0.000548777
0.000540186
0.000532091
0.000524456
0.000517246
0.000510428
0.000503975
0.000497859
0.000492057
0.000486547
0.000481308
0.000476321
0.000471571
0.00046704
0.000462714
0.000458579
0.000454625
0.000450838
0.000447208
0.000443726
0.000440383
0.000437169
0.000434078
0.000431101
0.000428232
0.000425465
0.000422794
0.000420213
0.000417717
0.000415301
0.000412962
0.000410694
0.000408494
0.000406357
0.000404282
0.000402264
0.000400301
0.00039839
0.000396529
0.000394714
0.000392945
0.000391219
0.000389534
0.00038789
0.000386284
0.000384716
0.000383185
0.000381689
0.00038023
0.000378806
0.000377418
0.000376066
0.00037475
0.000373472
0.000372233
0.000371034
0.000369878
0.000368767
0.000367702
0.000366689
0.00036573
0.00036483
0.000363992
0.000363223
0.000362528
0.000361913
0.000361384
0.000360948
0.000360612
0.000360383
0.000360265
0.000360262
0.000360374
0.000360596
0.000360912
0.000361297
0.000361702
0.000362058
0.00036226
0.000977119
0.000936711
0.000899658
0.000865638
0.000834365
0.000805581
0.000779053
0.000754572
0.000731952
0.000711023
0.000691632
0.000673644
0.000656933
0.00064139
0.000626913
0.000613411
0.000600802
0.000589011
0.000577972
0.000567623
0.000557909
0.000548779
0.000540188
0.000532094
0.000524459
0.000517248
0.000510431
0.000503978
0.000497862
0.000492061
0.000486551
0.000481312
0.000476326
0.000471576
0.000467045
0.000462719
0.000458586
0.000454631
0.000450845
0.000447216
0.000443734
0.000440391
0.000437178
0.000434087
0.000431111
0.000428243
0.000425476
0.000422805
0.000420225
0.000417729
0.000415314
0.000412975
0.000410708
0.000408508
0.000406373
0.000404298
0.000402281
0.000400319
0.000398408
0.000396547
0.000394734
0.000392965
0.00039124
0.000389556
0.000387912
0.000386307
0.00038474
0.000383209
0.000381715
0.000380256
0.000378833
0.000377445
0.000376094
0.000374779
0.000373501
0.000372262
0.000371064
0.000369908
0.000368797
0.000367732
0.000366719
0.00036576
0.000364859
0.000364021
0.000363251
0.000362555
0.000361939
0.000361409
0.000360971
0.000360634
0.000360402
0.000360282
0.000360277
0.000360387
0.000360606
0.00036092
0.000361303
0.000361707
0.000362061
0.000362262
0.000977119
0.000936711
0.000899658
0.000865638
0.000834365
0.000805581
0.000779053
0.000754573
0.000731952
0.000711023
0.000691633
0.000673644
0.000656934
0.000641391
0.000626913
0.000613412
0.000600803
0.000589012
0.000577973
0.000567625
0.000557911
0.000548781
0.00054019
0.000532096
0.000524461
0.000517251
0.000510434
0.000503981
0.000497866
0.000492065
0.000486555
0.000481317
0.000476331
0.000471581
0.00046705
0.000462725
0.000458592
0.000454638
0.000450852
0.000447223
0.000443742
0.000440399
0.000437187
0.000434096
0.00043112
0.000428253
0.000425487
0.000422816
0.000420236
0.000417742
0.000415327
0.000412989
0.000410722
0.000408523
0.000406388
0.000404314
0.000402298
0.000400336
0.000398426
0.000396566
0.000394753
0.000392985
0.000391261
0.000389577
0.000387934