/*--------------------------------*- C++ -*----------------------------------*\
  =========                 |
  \\      /  F ield         | OpenFOAM: The Open Source CFD Toolbox
   \\    /   O peration     | Website:  https://openfoam.org
    \\  /    A nd           | Version:  11
     \\/     M anipulation  |
\*---------------------------------------------------------------------------*/
FoamFile
{
    format      ascii;
    class       volVectorField;
    location    "1240";
    object      U;
}
// * * * * * * * * * * * * * * * * * * * * * * * * * * * * * * * * * * * * * //

dimensions      [0 1 -1 0 0 0 0];

internalField   nonuniform List<vector> 
10000
(
(0.005 -5.19101e-11 0)
(0.005 -1.45545e-10 0)
(0.005 -2.35626e-10 0)
(0.005 -3.25466e-10 0)
(0.005 -4.16566e-10 0)
(0.005 -5.098e-10 0)
(0.005 -6.05812e-10 0)
(0.005 -7.05108e-10 0)
(0.005 -8.08108e-10 0)
(0.005 -9.15181e-10 0)
(0.005 -1.02666e-09 0)
(0.005 -1.14284e-09 0)
(0.005 -1.26402e-09 0)
(0.005 -1.39048e-09 0)
(0.005 -1.52249e-09 0)
(0.005 -1.6603e-09 0)
(0.005 -1.80417e-09 0)
(0.005 -1.95436e-09 0)
(0.005 -2.11112e-09 0)
(0.005 -2.2747e-09 0)
(0.005 -2.44537e-09 0)
(0.005 -2.62336e-09 0)
(0.005 -2.80893e-09 0)
(0.005 -3.00235e-09 0)
(0.005 -3.20386e-09 0)
(0.005 -3.41373e-09 0)
(0.005 -3.63223e-09 0)
(0.005 -3.85961e-09 0)
(0.005 -4.09616e-09 0)
(0.005 -4.34213e-09 0)
(0.005 -4.59781e-09 0)
(0.005 -4.86349e-09 0)
(0.005 -5.13943e-09 0)
(0.005 -5.42594e-09 0)
(0.005 -5.72331e-09 0)
(0.005 -6.03184e-09 0)
(0.005 -6.35183e-09 0)
(0.005 -6.68361e-09 0)
(0.005 -7.02748e-09 0)
(0.005 -7.38378e-09 0)
(0.00499999 -7.75284e-09 0)
(0.00499999 -8.13501e-09 0)
(0.00499999 -8.53065e-09 0)
(0.00499999 -8.94011e-09 0)
(0.00499999 -9.36377e-09 0)
(0.00499999 -9.80203e-09 0)
(0.00499999 -1.02553e-08 0)
(0.00499999 -1.0724e-08 0)
(0.00499999 -1.12085e-08 0)
(0.00499999 -1.17093e-08 0)
(0.00499999 -1.22269e-08 0)
(0.00499999 -1.27617e-08 0)
(0.00499999 -1.33144e-08 0)
(0.00499999 -1.38853e-08 0)
(0.00499999 -1.4475e-08 0)
(0.00499999 -1.50843e-08 0)
(0.00499999 -1.57135e-08 0)
(0.00499998 -1.63635e-08 0)
(0.00499998 -1.70348e-08 0)
(0.00499998 -1.77281e-08 0)
(0.00499998 -1.84442e-08 0)
(0.00499998 -1.91838e-08 0)
(0.00499998 -1.99477e-08 0)
(0.00499998 -2.07368e-08 0)
(0.00499998 -2.15517e-08 0)
(0.00499998 -2.23935e-08 0)
(0.00499997 -2.32629e-08 0)
(0.00499997 -2.41609e-08 0)
(0.00499997 -2.50883e-08 0)
(0.00499997 -2.6046e-08 0)
(0.00499997 -2.70349e-08 0)
(0.00499997 -2.80557e-08 0)
(0.00499997 -2.91093e-08 0)
(0.00499996 -3.01963e-08 0)
(0.00499996 -3.13172e-08 0)
(0.00499996 -3.24725e-08 0)
(0.00499996 -3.36623e-08 0)
(0.00499996 -3.48865e-08 0)
(0.00499995 -3.61447e-08 0)
(0.00499995 -3.74361e-08 0)
(0.00499995 -3.87593e-08 0)
(0.00499995 -4.01122e-08 0)
(0.00499995 -4.14921e-08 0)
(0.00499994 -4.28951e-08 0)
(0.00499994 -4.43164e-08 0)
(0.00499994 -4.57497e-08 0)
(0.00499994 -4.71869e-08 0)
(0.00499993 -4.86182e-08 0)
(0.00499993 -5.00315e-08 0)
(0.00499993 -5.14121e-08 0)
(0.00499993 -5.27423e-08 0)
(0.00499993 -5.40014e-08 0)
(0.00499992 -5.51651e-08 0)
(0.00499992 -5.62061e-08 0)
(0.00499992 -5.70957e-08 0)
(0.00499992 -5.78077e-08 0)
(0.00499992 -5.83177e-08 0)
(0.00499991 -5.85657e-08 0)
(0.00499991 -5.85428e-08 0)
(0.00499991 -5.84242e-08 0)
(0.005 -4.56504e-11 0)
(0.005 -1.33431e-10 0)
(0.005 -2.19767e-10 0)
(0.005 -3.06289e-10 0)
(0.005 -3.941e-10 0)
(0.005 -4.83952e-10 0)
(0.005 -5.76426e-10 0)
(0.005 -6.71988e-10 0)
(0.005 -7.71035e-10 0)
(0.005 -8.7391e-10 0)
(0.005 -9.80925e-10 0)
(0.005 -1.09237e-09 0)
(0.005 -1.20851e-09 0)
(0.005 -1.3296e-09 0)
(0.005 -1.4559e-09 0)
(0.005 -1.58764e-09 0)
(0.005 -1.72507e-09 0)
(0.005 -1.86841e-09 0)
(0.005 -2.0179e-09 0)
(0.005 -2.17377e-09 0)
(0.005 -2.33625e-09 0)
(0.005 -2.50557e-09 0)
(0.005 -2.68196e-09 0)
(0.005 -2.86565e-09 0)
(0.005 -3.05687e-09 0)
(0.005 -3.25586e-09 0)
(0.005 -3.46284e-09 0)
(0.005 -3.67807e-09 0)
(0.005 -3.90177e-09 0)
(0.005 -4.1342e-09 0)
(0.005 -4.37559e-09 0)
(0.005 -4.6262e-09 0)
(0.005 -4.88627e-09 0)
(0.005 -5.15607e-09 0)
(0.005 -5.43585e-09 0)
(0.005 -5.72587e-09 0)
(0.005 -6.02642e-09 0)
(0.005 -6.33776e-09 0)
(0.005 -6.66017e-09 0)
(0.005 -6.99396e-09 0)
(0.00499999 -7.3394e-09 0)
(0.00499999 -7.69682e-09 0)
(0.00499999 -8.06652e-09 0)
(0.00499999 -8.44883e-09 0)
(0.00499999 -8.84409e-09 0)
(0.00499999 -9.25265e-09 0)
(0.00499999 -9.67488e-09 0)
(0.00499999 -1.01111e-08 0)
(0.00499999 -1.05619e-08 0)
(0.00499999 -1.10274e-08 0)
(0.00499999 -1.15083e-08 0)
(0.00499999 -1.20049e-08 0)
(0.00499999 -1.25177e-08 0)
(0.00499999 -1.30473e-08 0)
(0.00499999 -1.35942e-08 0)
(0.00499999 -1.41589e-08 0)
(0.00499999 -1.4742e-08 0)
(0.00499998 -1.53441e-08 0)
(0.00499998 -1.5966e-08 0)
(0.00499998 -1.66083e-08 0)
(0.00499998 -1.72718e-08 0)
(0.00499998 -1.79572e-08 0)
(0.00499998 -1.86653e-08 0)
(0.00499998 -1.9397e-08 0)
(0.00499998 -2.01532e-08 0)
(0.00499998 -2.09348e-08 0)
(0.00499997 -2.17428e-08 0)
(0.00499997 -2.25782e-08 0)
(0.00499997 -2.34419e-08 0)
(0.00499997 -2.43351e-08 0)
(0.00499997 -2.52588e-08 0)
(0.00499997 -2.62139e-08 0)
(0.00499997 -2.72016e-08 0)
(0.00499996 -2.82227e-08 0)
(0.00499996 -2.92782e-08 0)
(0.00499996 -3.03688e-08 0)
(0.00499996 -3.14952e-08 0)
(0.00499996 -3.26578e-08 0)
(0.00499995 -3.38567e-08 0)
(0.00499995 -3.50918e-08 0)
(0.00499995 -3.63624e-08 0)
(0.00499995 -3.76673e-08 0)
(0.00499995 -3.90047e-08 0)
(0.00499994 -4.03718e-08 0)
(0.00499994 -4.17649e-08 0)
(0.00499994 -4.3179e-08 0)
(0.00499994 -4.46078e-08 0)
(0.00499993 -4.60428e-08 0)
(0.00499993 -4.7474e-08 0)
(0.00499993 -4.88887e-08 0)
(0.00499993 -5.02716e-08 0)
(0.00499993 -5.16045e-08 0)
(0.00499992 -5.28663e-08 0)
(0.00499992 -5.40326e-08 0)
(0.00499992 -5.50761e-08 0)
(0.00499992 -5.59636e-08 0)
(0.00499992 -5.66539e-08 0)
(0.00499991 -5.71319e-08 0)
(0.00499991 -5.74337e-08 0)
(0.00499991 -5.76497e-08 0)
(0.005 -4.06109e-11 0)
(0.005 -1.22272e-10 0)
(0.005 -2.04408e-10 0)
(0.005 -2.87413e-10 0)
(0.005 -3.71884e-10 0)
(0.005 -4.58372e-10 0)
(0.005 -5.47359e-10 0)
(0.005 -6.39261e-10 0)
(0.005 -7.34438e-10 0)
(0.005 -8.3321e-10 0)
(0.005 -9.35867e-10 0)
(0.005 -1.04268e-09 0)
(0.005 -1.15389e-09 0)
(0.005 -1.26975e-09 0)
(0.005 -1.39049e-09 0)
(0.005 -1.51632e-09 0)
(0.005 -1.64746e-09 0)
(0.005 -1.78414e-09 0)
(0.005 -1.92655e-09 0)
(0.005 -2.07492e-09 0)
(0.005 -2.22944e-09 0)
(0.005 -2.39033e-09 0)
(0.005 -2.55779e-09 0)
(0.005 -2.73203e-09 0)
(0.005 -2.91325e-09 0)
(0.005 -3.10167e-09 0)
(0.005 -3.29749e-09 0)
(0.005 -3.50092e-09 0)
(0.005 -3.71217e-09 0)
(0.005 -3.93146e-09 0)
(0.005 -4.159e-09 0)
(0.005 -4.395e-09 0)
(0.005 -4.6397e-09 0)
(0.005 -4.89331e-09 0)
(0.005 -5.15606e-09 0)
(0.005 -5.42818e-09 0)
(0.005 -5.7099e-09 0)
(0.005 -6.00147e-09 0)
(0.005 -6.30313e-09 0)
(0.005 -6.61514e-09 0)
(0.00499999 -6.93775e-09 0)
(0.00499999 -7.27124e-09 0)
(0.00499999 -7.61589e-09 0)
(0.00499999 -7.97197e-09 0)
(0.00499999 -8.33979e-09 0)
(0.00499999 -8.71968e-09 0)
(0.00499999 -9.11194e-09 0)
(0.00499999 -9.51694e-09 0)
(0.00499999 -9.93502e-09 0)
(0.00499999 -1.03666e-08 0)
(0.00499999 -1.0812e-08 0)
(0.00499999 -1.12717e-08 0)
(0.00499999 -1.17462e-08 0)
(0.00499999 -1.2236e-08 0)
(0.00499999 -1.27415e-08 0)
(0.00499999 -1.32632e-08 0)
(0.00499999 -1.38019e-08 0)
(0.00499998 -1.4358e-08 0)
(0.00499998 -1.49323e-08 0)
(0.00499998 -1.55255e-08 0)
(0.00499998 -1.61383e-08 0)
(0.00499998 -1.67715e-08 0)
(0.00499998 -1.74259e-08 0)
(0.00499998 -1.81025e-08 0)
(0.00499998 -1.88021e-08 0)
(0.00499998 -1.95259e-08 0)
(0.00499997 -2.02748e-08 0)
(0.00499997 -2.10499e-08 0)
(0.00499997 -2.18525e-08 0)
(0.00499997 -2.26836e-08 0)
(0.00499997 -2.35446e-08 0)
(0.00499997 -2.44366e-08 0)
(0.00499997 -2.53609e-08 0)
(0.00499996 -2.63187e-08 0)
(0.00499996 -2.73113e-08 0)
(0.00499996 -2.83398e-08 0)
(0.00499996 -2.94053e-08 0)
(0.00499996 -3.05087e-08 0)
(0.00499995 -3.16506e-08 0)
(0.00499995 -3.28315e-08 0)
(0.00499995 -3.40514e-08 0)
(0.00499995 -3.53101e-08 0)
(0.00499995 -3.66064e-08 0)
(0.00499994 -3.79387e-08 0)
(0.00499994 -3.93044e-08 0)
(0.00499994 -4.06997e-08 0)
(0.00499994 -4.21196e-08 0)
(0.00499993 -4.35574e-08 0)
(0.00499993 -4.50045e-08 0)
(0.00499993 -4.64503e-08 0)
(0.00499993 -4.78815e-08 0)
(0.00499993 -4.92821e-08 0)
(0.00499992 -5.06329e-08 0)
(0.00499992 -5.19115e-08 0)
(0.00499992 -5.3092e-08 0)
(0.00499992 -5.41436e-08 0)
(0.00499992 -5.50374e-08 0)
(0.00499992 -5.57513e-08 0)
(0.00499991 -5.62744e-08 0)
(0.00499991 -5.66218e-08 0)
(0.005 -3.71699e-11 0)
(0.005 -1.13366e-10 0)
(0.005 -1.91238e-10 0)
(0.005 -2.7067e-10 0)
(0.005 -3.51866e-10 0)
(0.005 -4.35156e-10 0)
(0.005 -5.20897e-10 0)
(0.005 -6.09429e-10 0)
(0.005 -7.01067e-10 0)
(0.005 -7.961e-10 0)
(0.005 -8.94793e-10 0)
(0.005 -9.97395e-10 0)
(0.005 -1.10414e-09 0)
(0.005 -1.21524e-09 0)
(0.005 -1.33093e-09 0)
(0.005 -1.45139e-09 0)
(0.005 -1.57683e-09 0)
(0.005 -1.70746e-09 0)
(0.005 -1.84345e-09 0)
(0.005 -1.985e-09 0)
(0.005 -2.1323e-09 0)
(0.005 -2.28554e-09 0)
(0.005 -2.44489e-09 0)
(0.005 -2.61055e-09 0)
(0.005 -2.7827e-09 0)
(0.005 -2.96153e-09 0)
(0.005 -3.14721e-09 0)
(0.005 -3.33993e-09 0)
(0.005 -3.53989e-09 0)
(0.005 -3.74726e-09 0)
(0.005 -3.96223e-09 0)
(0.005 -4.18499e-09 0)
(0.005 -4.41574e-09 0)
(0.005 -4.65467e-09 0)
(0.005 -4.90197e-09 0)
(0.005 -5.15784e-09 0)
(0.005 -5.4225e-09 0)
(0.005 -5.69614e-09 0)
(0.005 -5.97898e-09 0)
(0.005 -6.27124e-09 0)
(0.00499999 -6.57316e-09 0)
(0.00499999 -6.88495e-09 0)
(0.00499999 -7.20688e-09 0)
(0.00499999 -7.53918e-09 0)
(0.00499999 -7.88214e-09 0)
(0.00499999 -8.23602e-09 0)
(0.00499999 -8.60114e-09 0)
(0.00499999 -8.97778e-09 0)
(0.00499999 -9.3663e-09 0)
(0.00499999 -9.76703e-09 0)
(0.00499999 -1.01804e-08 0)
(0.00499999 -1.06067e-08 0)
(0.00499999 -1.10464e-08 0)
(0.00499999 -1.15001e-08 0)
(0.00499999 -1.19681e-08 0)
(0.00499999 -1.2451e-08 0)
(0.00499999 -1.29493e-08 0)
(0.00499998 -1.34638e-08 0)
(0.00499998 -1.3995e-08 0)
(0.00499998 -1.45436e-08 0)
(0.00499998 -1.51105e-08 0)
(0.00499998 -1.56964e-08 0)
(0.00499998 -1.63021e-08 0)
(0.00499998 -1.69288e-08 0)
(0.00499998 -1.75772e-08 0)
(0.00499998 -1.82485e-08 0)
(0.00499997 -1.89439e-08 0)
(0.00499997 -1.96645e-08 0)
(0.00499997 -2.04116e-08 0)
(0.00499997 -2.11865e-08 0)
(0.00499997 -2.19906e-08 0)
(0.00499997 -2.28253e-08 0)
(0.00499997 -2.36921e-08 0)
(0.00499996 -2.45925e-08 0)
(0.00499996 -2.5528e-08 0)
(0.00499996 -2.65001e-08 0)
(0.00499996 -2.75102e-08 0)
(0.00499996 -2.85596e-08 0)
(0.00499996 -2.96495e-08 0)
(0.00499995 -3.07809e-08 0)
(0.00499995 -3.19545e-08 0)
(0.00499995 -3.31707e-08 0)
(0.00499995 -3.44291e-08 0)
(0.00499994 -3.57289e-08 0)
(0.00499994 -3.70686e-08 0)
(0.00499994 -3.84455e-08 0)
(0.00499994 -3.98556e-08 0)
(0.00499994 -4.12938e-08 0)
(0.00499993 -4.27527e-08 0)
(0.00499993 -4.42232e-08 0)
(0.00499993 -4.56936e-08 0)
(0.00499993 -4.71495e-08 0)
(0.00499992 -4.85731e-08 0)
(0.00499992 -4.99433e-08 0)
(0.00499992 -5.12345e-08 0)
(0.00499992 -5.24175e-08 0)
(0.00499992 -5.3461e-08 0)
(0.00499992 -5.43319e-08 0)
(0.00499991 -5.49949e-08 0)
(0.00499991 -5.53561e-08 0)
(0.005 -3.4368e-11 0)
(0.005 -1.05568e-10 0)
(0.005 -1.79132e-10 0)
(0.005 -2.54799e-10 0)
(0.005 -3.32543e-10 0)
(0.005 -4.12511e-10 0)
(0.005 -4.94931e-10 0)
(0.005 -5.8006e-10 0)
(0.005 -6.68157e-10 0)
(0.005 -7.59469e-10 0)
(0.005 -8.54234e-10 0)
(0.005 -9.52675e-10 0)
(0.005 -1.055e-09 0)
(0.005 -1.16142e-09 0)
(0.005 -1.27212e-09 0)
(0.005 -1.3873e-09 0)
(0.005 -1.50713e-09 0)
(0.005 -1.63179e-09 0)
(0.005 -1.76146e-09 0)
(0.005 -1.89631e-09 0)
(0.005 -2.0365e-09 0)
(0.005 -2.1822e-09 0)
(0.005 -2.33359e-09 0)
(0.005 -2.49081e-09 0)
(0.005 -2.65403e-09 0)
(0.005 -2.82341e-09 0)
(0.005 -2.99912e-09 0)
(0.005 -3.18132e-09 0)
(0.005 -3.37016e-09 0)
(0.005 -3.5658e-09 0)
(0.005 -3.76841e-09 0)
(0.005 -3.97815e-09 0)
(0.005 -4.19519e-09 0)
(0.005 -4.41968e-09 0)
(0.005 -4.65179e-09 0)
(0.005 -4.8917e-09 0)
(0.005 -5.13958e-09 0)
(0.005 -5.3956e-09 0)
(0.005 -5.65994e-09 0)
(0.005 -5.9328e-09 0)
(0.005 -6.21437e-09 0)
(0.00499999 -6.50485e-09 0)
(0.00499999 -6.80446e-09 0)
(0.00499999 -7.11341e-09 0)
(0.00499999 -7.43193e-09 0)
(0.00499999 -7.76028e-09 0)
(0.00499999 -8.09873e-09 0)
(0.00499999 -8.44753e-09 0)
(0.00499999 -8.80701e-09 0)
(0.00499999 -9.17748e-09 0)
(0.00499999 -9.55929e-09 0)
(0.00499999 -9.9528e-09 0)
(0.00499999 -1.03584e-08 0)
(0.00499999 -1.07766e-08 0)
(0.00499999 -1.12078e-08 0)
(0.00499999 -1.16525e-08 0)
(0.00499999 -1.21114e-08 0)
(0.00499999 -1.25849e-08 0)
(0.00499998 -1.30738e-08 0)
(0.00499998 -1.35787e-08 0)
(0.00499998 -1.41005e-08 0)
(0.00499998 -1.464e-08 0)
(0.00499998 -1.5198e-08 0)
(0.00499998 -1.57756e-08 0)
(0.00499998 -1.63737e-08 0)
(0.00499998 -1.69936e-08 0)
(0.00499998 -1.76364e-08 0)
(0.00499997 -1.83034e-08 0)
(0.00499997 -1.8996e-08 0)
(0.00499997 -1.97156e-08 0)
(0.00499997 -2.04639e-08 0)
(0.00499997 -2.12423e-08 0)
(0.00499997 -2.20526e-08 0)
(0.00499996 -2.28965e-08 0)
(0.00499996 -2.37757e-08 0)
(0.00499996 -2.46922e-08 0)
(0.00499996 -2.56476e-08 0)
(0.00499996 -2.66438e-08 0)
(0.00499996 -2.76823e-08 0)
(0.00499995 -2.87646e-08 0)
(0.00499995 -2.98922e-08 0)
(0.00499995 -3.10658e-08 0)
(0.00499995 -3.22861e-08 0)
(0.00499995 -3.3553e-08 0)
(0.00499994 -3.48658e-08 0)
(0.00499994 -3.62228e-08 0)
(0.00499994 -3.76213e-08 0)
(0.00499994 -3.90571e-08 0)
(0.00499993 -4.05243e-08 0)
(0.00499993 -4.2015e-08 0)
(0.00499993 -4.35188e-08 0)
(0.00499993 -4.50223e-08 0)
(0.00499993 -4.6509e-08 0)
(0.00499992 -4.79581e-08 0)
(0.00499992 -4.93444e-08 0)
(0.00499992 -5.06374e-08 0)
(0.00499992 -5.18009e-08 0)
(0.00499992 -5.27886e-08 0)
(0.00499991 -5.35363e-08 0)
(0.00499991 -5.39362e-08 0)
(0.005 -3.19328e-11 0)
(0.005 -9.85275e-11 0)
(0.005 -1.67867e-10 0)
(0.005 -2.39685e-10 0)
(0.005 -3.13841e-10 0)
(0.005 -3.90352e-10 0)
(0.005 -4.69344e-10 0)
(0.005 -5.50992e-10 0)
(0.005 -6.35494e-10 0)
(0.005 -7.23056e-10 0)
(0.005 -8.13877e-10 0)
(0.005 -9.08155e-10 0)
(0.005 -1.00608e-09 0)
(0.005 -1.10783e-09 0)
(0.005 -1.21357e-09 0)
(0.005 -1.32349e-09 0)
(0.005 -1.43774e-09 0)
(0.005 -1.55649e-09 0)
(0.005 -1.67988e-09 0)
(0.005 -1.80807e-09 0)
(0.005 -1.94121e-09 0)
(0.005 -2.07944e-09 0)
(0.005 -2.22292e-09 0)
(0.005 -2.37177e-09 0)
(0.005 -2.52614e-09 0)
(0.005 -2.68617e-09 0)
(0.005 -2.852e-09 0)
(0.005 -3.02376e-09 0)
(0.005 -3.20159e-09 0)
(0.005 -3.38562e-09 0)
(0.005 -3.57599e-09 0)
(0.005 -3.77284e-09 0)
(0.005 -3.97629e-09 0)
(0.005 -4.18649e-09 0)
(0.005 -4.40357e-09 0)
(0.005 -4.62768e-09 0)
(0.005 -4.85895e-09 0)
(0.005 -5.09754e-09 0)
(0.005 -5.34359e-09 0)
(0.005 -5.59726e-09 0)
(0.005 -5.85871e-09 0)
(0.00499999 -6.12812e-09 0)
(0.00499999 -6.40566e-09 0)
(0.00499999 -6.69151e-09 0)
(0.00499999 -6.98589e-09 0)
(0.00499999 -7.28901e-09 0)
(0.00499999 -7.60109e-09 0)
(0.00499999 -7.92239e-09 0)
(0.00499999 -8.25318e-09 0)
(0.00499999 -8.59375e-09 0)
(0.00499999 -8.94442e-09 0)
(0.00499999 -9.30553e-09 0)
(0.00499999 -9.67747e-09 0)
(0.00499999 -1.00606e-08 0)
(0.00499999 -1.04555e-08 0)
(0.00499999 -1.08626e-08 0)
(0.00499999 -1.12824e-08 0)
(0.00499999 -1.17155e-08 0)
(0.00499998 -1.21626e-08 0)
(0.00499998 -1.26244e-08 0)
(0.00499998 -1.31017e-08 0)
(0.00499998 -1.35953e-08 0)
(0.00499998 -1.41062e-08 0)
(0.00499998 -1.46354e-08 0)
(0.00499998 -1.51839e-08 0)
(0.00499998 -1.57529e-08 0)
(0.00499998 -1.63438e-08 0)
(0.00499997 -1.69579e-08 0)
(0.00499997 -1.75967e-08 0)
(0.00499997 -1.82618e-08 0)
(0.00499997 -1.89548e-08 0)
(0.00499997 -1.96776e-08 0)
(0.00499997 -2.0432e-08 0)
(0.00499997 -2.12199e-08 0)
(0.00499996 -2.20435e-08 0)
(0.00499996 -2.29049e-08 0)
(0.00499996 -2.38061e-08 0)
(0.00499996 -2.47493e-08 0)
(0.00499996 -2.57366e-08 0)
(0.00499995 -2.677e-08 0)
(0.00499995 -2.78513e-08 0)
(0.00499995 -2.89821e-08 0)
(0.00499995 -3.01637e-08 0)
(0.00499995 -3.13967e-08 0)
(0.00499994 -3.26814e-08 0)
(0.00499994 -3.40169e-08 0)
(0.00499994 -3.54015e-08 0)
(0.00499994 -3.6832e-08 0)
(0.00499994 -3.83037e-08 0)
(0.00499993 -3.98096e-08 0)
(0.00499993 -4.13404e-08 0)
(0.00499993 -4.28837e-08 0)
(0.00499993 -4.44234e-08 0)
(0.00499992 -4.5939e-08 0)
(0.00499992 -4.74044e-08 0)
(0.00499992 -4.8787e-08 0)
(0.00499992 -5.00451e-08 0)
(0.00499992 -5.11228e-08 0)
(0.00499992 -5.19433e-08 0)
(0.00499991 -5.24169e-08 0)
(0.005 -2.97757e-11 0)
(0.005 -9.21238e-11 0)
(0.005 -1.57405e-10 0)
(0.005 -2.25399e-10 0)
(0.005 -2.95917e-10 0)
(0.005 -3.689e-10 0)
(0.005 -4.44393e-10 0)
(0.005 -5.22506e-10 0)
(0.005 -6.03379e-10 0)
(0.005 -6.87173e-10 0)
(0.005 -7.74053e-10 0)
(0.005 -8.64185e-10 0)
(0.005 -9.57732e-10 0)
(0.005 -1.05485e-09 0)
(0.005 -1.1557e-09 0)
(0.005 -1.26042e-09 0)
(0.005 -1.36916e-09 0)
(0.005 -1.48207e-09 0)
(0.005 -1.59927e-09 0)
(0.005 -1.7209e-09 0)
(0.005 -1.8471e-09 0)
(0.005 -1.97797e-09 0)
(0.005 -2.11366e-09 0)
(0.005 -2.25428e-09 0)
(0.005 -2.39994e-09 0)
(0.005 -2.55078e-09 0)
(0.005 -2.70689e-09 0)
(0.005 -2.86839e-09 0)
(0.005 -3.0354e-09 0)
(0.005 -3.20802e-09 0)
(0.005 -3.38636e-09 0)
(0.005 -3.57054e-09 0)
(0.005 -3.76066e-09 0)
(0.005 -3.95682e-09 0)
(0.005 -4.15915e-09 0)
(0.005 -4.36774e-09 0)
(0.005 -4.58272e-09 0)
(0.005 -4.8042e-09 0)
(0.005 -5.0323e-09 0)
(0.005 -5.26714e-09 0)
(0.005 -5.50887e-09 0)
(0.00499999 -5.7576e-09 0)
(0.00499999 -6.0135e-09 0)
(0.00499999 -6.27672e-09 0)
(0.00499999 -6.54743e-09 0)
(0.00499999 -6.82582e-09 0)
(0.00499999 -7.11208e-09 0)
(0.00499999 -7.40643e-09 0)
(0.00499999 -7.70912e-09 0)
(0.00499999 -8.0204e-09 0)
(0.00499999 -8.34057e-09 0)
(0.00499999 -8.66995e-09 0)
(0.00499999 -9.0089e-09 0)
(0.00499999 -9.35781e-09 0)
(0.00499999 -9.71711e-09 0)
(0.00499999 -1.00873e-08 0)
(0.00499999 -1.04689e-08 0)
(0.00499999 -1.08625e-08 0)
(0.00499998 -1.12687e-08 0)
(0.00499998 -1.16883e-08 0)
(0.00499998 -1.21221e-08 0)
(0.00499998 -1.25708e-08 0)
(0.00499998 -1.30356e-08 0)
(0.00499998 -1.35174e-08 0)
(0.00499998 -1.40173e-08 0)
(0.00499998 -1.45366e-08 0)
(0.00499998 -1.50767e-08 0)
(0.00499997 -1.5639e-08 0)
(0.00499997 -1.62252e-08 0)
(0.00499997 -1.68368e-08 0)
(0.00499997 -1.74757e-08 0)
(0.00499997 -1.81439e-08 0)
(0.00499997 -1.88434e-08 0)
(0.00499997 -1.95765e-08 0)
(0.00499996 -2.03454e-08 0)
(0.00499996 -2.11526e-08 0)
(0.00499996 -2.20004e-08 0)
(0.00499996 -2.28913e-08 0)
(0.00499996 -2.3828e-08 0)
(0.00499996 -2.48128e-08 0)
(0.00499995 -2.5848e-08 0)
(0.00499995 -2.69359e-08 0)
(0.00499995 -2.80784e-08 0)
(0.00499995 -2.92768e-08 0)
(0.00499995 -3.0532e-08 0)
(0.00499994 -3.18442e-08 0)
(0.00499994 -3.32123e-08 0)
(0.00499994 -3.46342e-08 0)
(0.00499994 -3.6106e-08 0)
(0.00499993 -3.76216e-08 0)
(0.00499993 -3.91725e-08 0)
(0.00499993 -4.07468e-08 0)
(0.00499993 -4.23288e-08 0)
(0.00499993 -4.38976e-08 0)
(0.00499992 -4.54259e-08 0)
(0.00499992 -4.68785e-08 0)
(0.00499992 -4.82092e-08 0)
(0.00499992 -4.93559e-08 0)
(0.00499992 -5.02367e-08 0)
(0.00499991 -5.07605e-08 0)
(0.005 -2.7831e-11 0)
(0.005 -8.62487e-11 0)
(0.005 -1.47664e-10 0)
(0.005 -2.11917e-10 0)
(0.005 -2.78811e-10 0)
(0.005 -3.48242e-10 0)
(0.005 -4.20202e-10 0)
(0.005 -4.94747e-10 0)
(0.005 -5.71971e-10 0)
(0.005 -6.51992e-10 0)
(0.005 -7.3494e-10 0)
(0.005 -8.20949e-10 0)
(0.005 -9.10157e-10 0)
(0.005 -1.0027e-09 0)
(0.005 -1.0987e-09 0)
(0.005 -1.19831e-09 0)
(0.005 -1.30163e-09 0)
(0.005 -1.40879e-09 0)
(0.005 -1.5199e-09 0)
(0.005 -1.63509e-09 0)
(0.005 -1.75446e-09 0)
(0.005 -1.87812e-09 0)
(0.005 -2.00617e-09 0)
(0.005 -2.13871e-09 0)
(0.005 -2.27584e-09 0)
(0.005 -2.41766e-09 0)
(0.005 -2.56425e-09 0)
(0.005 -2.7157e-09 0)
(0.005 -2.87211e-09 0)
(0.005 -3.03356e-09 0)
(0.005 -3.20013e-09 0)
(0.005 -3.37191e-09 0)
(0.005 -3.54898e-09 0)
(0.005 -3.73142e-09 0)
(0.005 -3.91932e-09 0)
(0.005 -4.11275e-09 0)
(0.005 -4.3118e-09 0)
(0.005 -4.51656e-09 0)
(0.005 -4.72712e-09 0)
(0.005 -4.94358e-09 0)
(0.005 -5.16603e-09 0)
(0.00499999 -5.39459e-09 0)
(0.00499999 -5.62937e-09 0)
(0.00499999 -5.87049e-09 0)
(0.00499999 -6.11811e-09 0)
(0.00499999 -6.37236e-09 0)
(0.00499999 -6.63343e-09 0)
(0.00499999 -6.9015e-09 0)
(0.00499999 -7.17677e-09 0)
(0.00499999 -7.4595e-09 0)
(0.00499999 -7.74994e-09 0)
(0.00499999 -8.0484e-09 0)
(0.00499999 -8.35519e-09 0)
(0.00499999 -8.6707e-09 0)
(0.00499999 -8.99535e-09 0)
(0.00499999 -9.32959e-09 0)
(0.00499999 -9.67396e-09 0)
(0.00499999 -1.0029e-08 0)
(0.00499999 -1.03954e-08 0)
(0.00499998 -1.07739e-08 0)
(0.00499998 -1.11653e-08 0)
(0.00499998 -1.15704e-08 0)
(0.00499998 -1.19902e-08 0)
(0.00499998 -1.24259e-08 0)
(0.00499998 -1.28785e-08 0)
(0.00499998 -1.33494e-08 0)
(0.00499998 -1.384e-08 0)
(0.00499998 -1.43518e-08 0)
(0.00499997 -1.48865e-08 0)
(0.00499997 -1.5446e-08 0)
(0.00499997 -1.60321e-08 0)
(0.00499997 -1.66471e-08 0)
(0.00499997 -1.72931e-08 0)
(0.00499997 -1.79725e-08 0)
(0.00499997 -1.86879e-08 0)
(0.00499996 -1.94419e-08 0)
(0.00499996 -2.02372e-08 0)
(0.00499996 -2.10768e-08 0)
(0.00499996 -2.19635e-08 0)
(0.00499996 -2.29001e-08 0)
(0.00499995 -2.38896e-08 0)
(0.00499995 -2.49345e-08 0)
(0.00499995 -2.60374e-08 0)
(0.00499995 -2.72004e-08 0)
(0.00499995 -2.84248e-08 0)
(0.00499994 -2.97117e-08 0)
(0.00499994 -3.10607e-08 0)
(0.00499994 -3.24704e-08 0)
(0.00499994 -3.39376e-08 0)
(0.00499994 -3.54572e-08 0)
(0.00499993 -3.7021e-08 0)
(0.00499993 -3.86175e-08 0)
(0.00499993 -4.0231e-08 0)
(0.00499993 -4.18401e-08 0)
(0.00499993 -4.34163e-08 0)
(0.00499992 -4.49219e-08 0)
(0.00499992 -4.63074e-08 0)
(0.00499992 -4.75061e-08 0)
(0.00499992 -4.84322e-08 0)
(0.00499992 -4.89874e-08 0)
(0.005 -2.60498e-11 0)
(0.005 -8.08095e-11 0)
(0.005 -1.38553e-10 0)
(0.005 -1.99181e-10 0)
(0.005 -2.62504e-10 0)
(0.005 -3.28398e-10 0)
(0.005 -3.96823e-10 0)
(0.005 -4.67792e-10 0)
(0.005 -5.41362e-10 0)
(0.005 -6.17614e-10 0)
(0.005 -6.96644e-10 0)
(0.005 -7.78559e-10 0)
(0.005 -8.63469e-10 0)
(0.005 -9.51485e-10 0)
(0.005 -1.04272e-09 0)
(0.005 -1.13727e-09 0)
(0.005 -1.23526e-09 0)
(0.005 -1.33677e-09 0)
(0.005 -1.44192e-09 0)
(0.005 -1.55079e-09 0)
(0.005 -1.66347e-09 0)
(0.005 -1.78006e-09 0)
(0.005 -1.90063e-09 0)
(0.005 -2.02527e-09 0)
(0.005 -2.15405e-09 0)
(0.005 -2.28705e-09 0)
(0.005 -2.42433e-09 0)
(0.005 -2.56597e-09 0)
(0.005 -2.71203e-09 0)
(0.005 -2.86257e-09 0)
(0.005 -3.01765e-09 0)
(0.005 -3.17733e-09 0)
(0.005 -3.34167e-09 0)
(0.005 -3.51072e-09 0)
(0.005 -3.68454e-09 0)
(0.005 -3.86319e-09 0)
(0.005 -4.04672e-09 0)
(0.005 -4.23519e-09 0)
(0.005 -4.42866e-09 0)
(0.005 -4.62721e-09 0)
(0.005 -4.8309e-09 0)
(0.005 -5.03981e-09 0)
(0.00499999 -5.25403e-09 0)
(0.00499999 -5.47366e-09 0)
(0.00499999 -5.6988e-09 0)
(0.00499999 -5.92959e-09 0)
(0.00499999 -6.16615e-09 0)
(0.00499999 -6.40866e-09 0)
(0.00499999 -6.6573e-09 0)
(0.00499999 -6.91228e-09 0)
(0.00499999 -7.17383e-09 0)
(0.00499999 -7.44223e-09 0)
(0.00499999 -7.71779e-09 0)
(0.00499999 -8.00086e-09 0)
(0.00499999 -8.29185e-09 0)
(0.00499999 -8.5912e-09 0)
(0.00499999 -8.89942e-09 0)
(0.00499999 -9.21709e-09 0)
(0.00499999 -9.54485e-09 0)
(0.00499998 -9.88342e-09 0)
(0.00499998 -1.02336e-08 0)
(0.00499998 -1.05963e-08 0)
(0.00499998 -1.09725e-08 0)
(0.00499998 -1.13634e-08 0)
(0.00499998 -1.177e-08 0)
(0.00499998 -1.21939e-08 0)
(0.00499998 -1.26364e-08 0)
(0.00499998 -1.30992e-08 0)
(0.00499997 -1.3584e-08 0)
(0.00499997 -1.40928e-08 0)
(0.00499997 -1.46276e-08 0)
(0.00499997 -1.51907e-08 0)
(0.00499997 -1.57845e-08 0)
(0.00499997 -1.64116e-08 0)
(0.00499997 -1.70747e-08 0)
(0.00499996 -1.77767e-08 0)
(0.00499996 -1.85207e-08 0)
(0.00499996 -1.93097e-08 0)
(0.00499996 -2.01472e-08 0)
(0.00499996 -2.10362e-08 0)
(0.00499996 -2.19801e-08 0)
(0.00499995 -2.2982e-08 0)
(0.00499995 -2.4045e-08 0)
(0.00499995 -2.51715e-08 0)
(0.00499995 -2.63638e-08 0)
(0.00499995 -2.76233e-08 0)
(0.00499994 -2.89504e-08 0)
(0.00499994 -3.03443e-08 0)
(0.00499994 -3.18024e-08 0)
(0.00499994 -3.33201e-08 0)
(0.00499994 -3.48897e-08 0)
(0.00499993 -3.64998e-08 0)
(0.00499993 -3.81346e-08 0)
(0.00499993 -3.97722e-08 0)
(0.00499993 -4.13827e-08 0)
(0.00499993 -4.29269e-08 0)
(0.00499992 -4.43522e-08 0)
(0.00499992 -4.55892e-08 0)
(0.00499992 -4.65485e-08 0)
(0.00499992 -4.71249e-08 0)
(0.005 -2.43995e-11 0)
(0.005 -7.57377e-11 0)
(0.005 -1.29998e-10 0)
(0.005 -1.87131e-10 0)
(0.005 -2.46965e-10 0)
(0.005 -3.0937e-10 0)
(0.005 -3.74284e-10 0)
(0.005 -4.41693e-10 0)
(0.005 -5.11623e-10 0)
(0.005 -5.84124e-10 0)
(0.005 -6.59264e-10 0)
(0.005 -7.37121e-10 0)
(0.005 -8.17781e-10 0)
(0.005 -9.01331e-10 0)
(0.005 -9.87859e-10 0)
(0.005 -1.07745e-09 0)
(0.005 -1.1702e-09 0)
(0.005 -1.26618e-09 0)
(0.005 -1.36547e-09 0)
(0.005 -1.46815e-09 0)
(0.005 -1.5743e-09 0)
(0.005 -1.68397e-09 0)
(0.005 -1.79724e-09 0)
(0.005 -1.91416e-09 0)
(0.005 -2.03479e-09 0)
(0.005 -2.15918e-09 0)
(0.005 -2.28739e-09 0)
(0.005 -2.41946e-09 0)
(0.005 -2.55543e-09 0)
(0.005 -2.69535e-09 0)
(0.005 -2.83924e-09 0)
(0.005 -2.98715e-09 0)
(0.005 -3.1391e-09 0)
(0.005 -3.29513e-09 0)
(0.005 -3.45527e-09 0)
(0.005 -3.61954e-09 0)
(0.005 -3.78799e-09 0)
(0.005 -3.96063e-09 0)
(0.005 -4.13751e-09 0)
(0.005 -4.31867e-09 0)
(0.005 -4.50415e-09 0)
(0.005 -4.69399e-09 0)
(0.00499999 -4.88827e-09 0)
(0.00499999 -5.08704e-09 0)
(0.00499999 -5.29039e-09 0)
(0.00499999 -5.49842e-09 0)
(0.00499999 -5.71124e-09 0)
(0.00499999 -5.92899e-09 0)
(0.00499999 -6.15181e-09 0)
(0.00499999 -6.3799e-09 0)
(0.00499999 -6.61347e-09 0)
(0.00499999 -6.85278e-09 0)
(0.00499999 -7.0981e-09 0)
(0.00499999 -7.34977e-09 0)
(0.00499999 -7.60818e-09 0)
(0.00499999 -7.87376e-09 0)
(0.00499999 -8.147e-09 0)
(0.00499999 -8.42849e-09 0)
(0.00499999 -8.71885e-09 0)
(0.00499998 -9.01881e-09 0)
(0.00499998 -9.32917e-09 0)
(0.00499998 -9.65086e-09 0)
(0.00499998 -9.98488e-09 0)
(0.00499998 -1.03324e-08 0)
(0.00499998 -1.06946e-08 0)
(0.00499998 -1.10729e-08 0)
(0.00499998 -1.14688e-08 0)
(0.00499998 -1.18841e-08 0)
(0.00499998 -1.23206e-08 0)
(0.00499997 -1.27802e-08 0)
(0.00499997 -1.32652e-08 0)
(0.00499997 -1.3778e-08 0)
(0.00499997 -1.43211e-08 0)
(0.00499997 -1.48973e-08 0)
(0.00499997 -1.55094e-08 0)
(0.00499997 -1.61607e-08 0)
(0.00499996 -1.68545e-08 0)
(0.00499996 -1.75941e-08 0)
(0.00499996 -1.8383e-08 0)
(0.00499996 -1.9225e-08 0)
(0.00499996 -2.01237e-08 0)
(0.00499996 -2.10826e-08 0)
(0.00499995 -2.21051e-08 0)
(0.00499995 -2.31944e-08 0)
(0.00499995 -2.43531e-08 0)
(0.00499995 -2.55832e-08 0)
(0.00499995 -2.68856e-08 0)
(0.00499994 -2.82601e-08 0)
(0.00499994 -2.97046e-08 0)
(0.00499994 -3.12147e-08 0)
(0.00499994 -3.27832e-08 0)
(0.00499994 -3.43988e-08 0)
(0.00499993 -3.60454e-08 0)
(0.00499993 -3.77005e-08 0)
(0.00499993 -3.93336e-08 0)
(0.00499993 -4.09036e-08 0)
(0.00499992 -4.23561e-08 0)
(0.00499992 -4.36196e-08 0)
(0.00499992 -4.46019e-08 0)
(0.00499992 -4.51921e-08 0)
(0.005 -2.28587e-11 0)
(0.005 -7.09828e-11 0)
(0.005 -1.21936e-10 0)
(0.005 -1.75713e-10 0)
(0.005 -2.32159e-10 0)
(0.005 -2.91145e-10 0)
(0.005 -3.52598e-10 0)
(0.005 -4.16485e-10 0)
(0.005 -4.82809e-10 0)
(0.005 -5.51593e-10 0)
(0.005 -6.22882e-10 0)
(0.005 -6.96728e-10 0)
(0.005 -7.73194e-10 0)
(0.005 -8.52346e-10 0)
(0.005 -9.3425e-10 0)
(0.005 -1.01897e-09 0)
(0.005 -1.10658e-09 0)
(0.005 -1.19714e-09 0)
(0.005 -1.29071e-09 0)
(0.005 -1.38735e-09 0)
(0.005 -1.48711e-09 0)
(0.005 -1.59003e-09 0)
(0.005 -1.69618e-09 0)
(0.005 -1.80558e-09 0)
(0.005 -1.91828e-09 0)
(0.005 -2.0343e-09 0)
(0.005 -2.15369e-09 0)
(0.005 -2.27645e-09 0)
(0.005 -2.40262e-09 0)
(0.005 -2.53221e-09 0)
(0.005 -2.66524e-09 0)
(0.005 -2.80172e-09 0)
(0.005 -2.94165e-09 0)
(0.005 -3.08505e-09 0)
(0.005 -3.23193e-09 0)
(0.005 -3.38227e-09 0)
(0.005 -3.5361e-09 0)
(0.005 -3.69342e-09 0)
(0.005 -3.85424e-09 0)
(0.005 -4.01856e-09 0)
(0.005 -4.18642e-09 0)
(0.005 -4.35782e-09 0)
(0.00499999 -4.53281e-09 0)
(0.00499999 -4.71142e-09 0)
(0.00499999 -4.89371e-09 0)
(0.00499999 -5.07976e-09 0)
(0.00499999 -5.26964e-09 0)
(0.00499999 -5.46346e-09 0)
(0.00499999 -5.66136e-09 0)
(0.00499999 -5.8635e-09 0)
(0.00499999 -6.07007e-09 0)
(0.00499999 -6.28129e-09 0)
(0.00499999 -6.49744e-09 0)
(0.00499999 -6.71883e-09 0)
(0.00499999 -6.94582e-09 0)
(0.00499999 -7.17883e-09 0)
(0.00499999 -7.41836e-09 0)
(0.00499999 -7.66496e-09 0)
(0.00499999 -7.91926e-09 0)
(0.00499999 -8.182e-09 0)
(0.00499998 -8.45397e-09 0)
(0.00499998 -8.73612e-09 0)
(0.00499998 -9.02945e-09 0)
(0.00499998 -9.33514e-09 0)
(0.00499998 -9.65446e-09 0)
(0.00499998 -9.98886e-09 0)
(0.00499998 -1.03399e-08 0)
(0.00499998 -1.07093e-08 0)
(0.00499998 -1.10991e-08 0)
(0.00499998 -1.15112e-08 0)
(0.00499997 -1.19481e-08 0)
(0.00499997 -1.24122e-08 0)
(0.00499997 -1.29061e-08 0)
(0.00499997 -1.34329e-08 0)
(0.00499997 -1.39956e-08 0)
(0.00499997 -1.45976e-08 0)
(0.00499997 -1.52423e-08 0)
(0.00499996 -1.59334e-08 0)
(0.00499996 -1.66748e-08 0)
(0.00499996 -1.74704e-08 0)
(0.00499996 -1.83241e-08 0)
(0.00499996 -1.924e-08 0)
(0.00499995 -2.02218e-08 0)
(0.00499995 -2.1273e-08 0)
(0.00499995 -2.23967e-08 0)
(0.00499995 -2.35954e-08 0)
(0.00499995 -2.48705e-08 0)
(0.00499995 -2.6222e-08 0)
(0.00499994 -2.76484e-08 0)
(0.00499994 -2.91456e-08 0)
(0.00499994 -3.07066e-08 0)
(0.00499994 -3.232e-08 0)
(0.00499993 -3.39697e-08 0)
(0.00499993 -3.56328e-08 0)
(0.00499993 -3.72777e-08 0)
(0.00499993 -3.88625e-08 0)
(0.00499993 -4.03314e-08 0)
(0.00499992 -4.16112e-08 0)
(0.00499992 -4.2608e-08 0)
(0.00499992 -4.32067e-08 0)
(0.005 -2.14124e-11 0)
(0.005 -6.6507e-11 0)
(0.005 -1.14321e-10 0)
(0.005 -1.6488e-10 0)
(0.005 -2.18049e-10 0)
(0.005 -2.73704e-10 0)
(0.005 -3.31765e-10 0)
(0.005 -3.92188e-10 0)
(0.005 -4.54956e-10 0)
(0.005 -5.20075e-10 0)
(0.005 -5.87565e-10 0)
(0.005 -6.57459e-10 0)
(0.005 -7.29799e-10 0)
(0.005 -8.04628e-10 0)
(0.005 -8.81994e-10 0)
(0.005 -9.61946e-10 0)
(0.005 -1.04453e-09 0)
(0.005 -1.12979e-09 0)
(0.005 -1.21777e-09 0)
(0.005 -1.30851e-09 0)
(0.005 -1.40205e-09 0)
(0.005 -1.49841e-09 0)
(0.005 -1.59763e-09 0)
(0.005 -1.69973e-09 0)
(0.005 -1.80472e-09 0)
(0.005 -1.91262e-09 0)
(0.005 -2.02344e-09 0)
(0.005 -2.13718e-09 0)
(0.005 -2.25385e-09 0)
(0.005 -2.37345e-09 0)
(0.005 -2.49596e-09 0)
(0.005 -2.62137e-09 0)
(0.005 -2.74968e-09 0)
(0.005 -2.88087e-09 0)
(0.005 -3.01491e-09 0)
(0.005 -3.1518e-09 0)
(0.005 -3.29152e-09 0)
(0.005 -3.43404e-09 0)
(0.005 -3.57935e-09 0)
(0.005 -3.72743e-09 0)