/*--------------------------------*- C++ -*----------------------------------*\
  =========                 |
  \\      /  F ield         | OpenFOAM: The Open Source CFD Toolbox
   \\    /   O peration     | Website:  https://openfoam.org
    \\  /    A nd           | Version:  11
     \\/     M anipulation  |
\*---------------------------------------------------------------------------*/
FoamFile
{
    format      ascii;
    class       volScalarField;
    location    "500";
    object      nut;
}
// * * * * * * * * * * * * * * * * * * * * * * * * * * * * * * * * * * * * * //

dimensions      [0 2 -1 0 0 0 0];

internalField   nonuniform List<scalar> 
10000
(
0.000977118
0.000936707
0.00089965
0.000865626
0.000834348
0.000805557
0.000779021
0.000754532
0.000731902
0.000710962
0.00069156
0.000673558
0.000656833
0.000641274
0.000626779
0.000613258
0.000600629
0.000588816
0.000577753
0.000567379
0.000557637
0.000548478
0.000539856
0.000531729
0.000524059
0.000516812
0.000509955
0.000503461
0.000497302
0.000491454
0.000485896
0.000480607
0.000475568
0.000470762
0.000466173
0.000461787
0.00045759
0.000453571
0.000449717
0.000446018
0.000442464
0.000439047
0.000435758
0.00043259
0.000429535
0.000426588
0.000423742
0.000420992
0.000418333
0.000415761
0.000413273
0.000410864
0.000408532
0.000406274
0.00040409
0.000401976
0.000399933
0.000397961
0.000396059
0.00039423
0.000392473
0.000390792
0.000389191
0.000387672
0.00038624
0.000384902
0.000383664
0.000382533
0.000381517
0.000380626
0.000379871
0.000379262
0.000378812
0.000378534
0.000378441
0.000378548
0.000378869
0.000379418
0.000380209
0.000381256
0.000382571
0.000384164
0.000386043
0.000388215
0.000390679
0.000393433
0.000396469
0.000399772
0.000403319
0.000407081
0.000411018
0.000415078
0.000419196
0.000423292
0.000427268
0.000431005
0.000434358
0.000437155
0.000439201
0.000440283
0.000977118
0.000936707
0.00089965
0.000865626
0.000834348
0.000805557
0.000779021
0.000754532
0.000731902
0.000710962
0.00069156
0.000673558
0.000656833
0.000641274
0.000626779
0.000613258
0.000600629
0.000588816
0.000577754
0.000567379
0.000557638
0.000548479
0.000539857
0.00053173
0.00052406
0.000516812
0.000509956
0.000503461
0.000497302
0.000491455
0.000485897
0.000480607
0.000475568
0.000470762
0.000466174
0.000461788
0.000457591
0.000453572
0.000449718
0.000446019
0.000442465
0.000439048
0.000435759
0.000432591
0.000429537
0.000426589
0.000423743
0.000420993
0.000418335
0.000415763
0.000413274
0.000410865
0.000408533
0.000406276
0.000404091
0.000401978
0.000399935
0.000397963
0.000396061
0.000394232
0.000392475
0.000390794
0.000389193
0.000387674
0.000386242
0.000384904
0.000383666
0.000382534
0.000381518
0.000380628
0.000379872
0.000379263
0.000378813
0.000378534
0.000378441
0.000378547
0.000378867
0.000379415
0.000380206
0.000381252
0.000382565
0.000384157
0.000386036
0.000388206
0.000390669
0.000393422
0.000396457
0.000399758
0.000403305
0.000407066
0.000411002
0.00041506
0.000419177
0.000423272
0.000427248
0.000430984
0.000434337
0.000437134
0.00043918
0.000440262
0.000977118
0.000936707
0.00089965
0.000865626
0.000834348
0.000805557
0.000779022
0.000754533
0.000731903
0.000710963
0.00069156
0.000673559
0.000656834
0.000641274
0.00062678
0.000613259
0.000600629
0.000588817
0.000577754
0.00056738
0.000557638
0.00054848
0.000539858
0.000531731
0.000524061
0.000516813
0.000509957
0.000503462
0.000497304
0.000491456
0.000485898
0.000480609
0.00047557
0.000470764
0.000466175
0.000461789
0.000457593
0.000453573
0.00044972
0.000446021
0.000442467
0.00043905
0.000435762
0.000432593
0.000429539
0.000426592
0.000423746
0.000420996
0.000418337
0.000415766
0.000413277
0.000410868
0.000408537
0.000406279
0.000404095
0.000401981
0.000399939
0.000397966
0.000396065
0.000394235
0.000392478
0.000390798
0.000389196
0.000387677
0.000386245
0.000384907
0.000383668
0.000382536
0.00038152
0.000380628
0.000379872
0.000379262
0.000378811
0.000378532
0.000378437
0.000378542
0.000378861
0.000379407
0.000380196
0.00038124
0.000382552
0.000384142
0.000386018
0.000388185
0.000390646
0.000393397
0.000396429
0.000399728
0.000403273
0.000407032
0.000410966
0.000415023
0.000419138
0.000423232
0.000427206
0.000430942
0.000434294
0.000437091
0.000439137
0.000440219
0.000977118
0.000936707
0.00089965
0.000865626
0.000834348
0.000805557
0.000779022
0.000754533
0.000731903
0.000710963
0.000691561
0.000673559
0.000656834
0.000641275
0.000626781
0.00061326
0.00060063
0.000588818
0.000577755
0.000567381
0.00055764
0.000548481
0.000539859
0.000531732
0.000524062
0.000516815
0.000509958
0.000503464
0.000497305
0.000491458
0.0004859
0.000480611
0.000475572
0.000470766
0.000466178
0.000461792
0.000457595
0.000453576
0.000449722
0.000446024
0.00044247
0.000439053
0.000435765
0.000432597
0.000429542
0.000426595
0.00042375
0.000421
0.000418341
0.00041577
0.000413281
0.000410873
0.000408541
0.000406284
0.000404099
0.000401986
0.000399943
0.000397971
0.00039607
0.00039424
0.000392483
0.000390802
0.0003892
0.000387681
0.000386249
0.00038491
0.000383671
0.000382539
0.000381522
0.000380629
0.000379872
0.000379261
0.000378809
0.000378528
0.000378432
0.000378534
0.000378851
0.000379395
0.000380181
0.000381222
0.000382531
0.000384118
0.00038599
0.000388155
0.000390612
0.000393359
0.000396388
0.000399683
0.000403225
0.000406981
0.000410912
0.000414966
0.000419079
0.000423171
0.000427144
0.000430879
0.000434231
0.000437028
0.000439074
0.000440156
0.000977118
0.000936707
0.00089965
0.000865626
0.000834348
0.000805558
0.000779022
0.000754534
0.000731904
0.000710964
0.000691562
0.00067356
0.000656835
0.000641276
0.000626782
0.000613261
0.000600632
0.000588819
0.000577757
0.000567382
0.000557641
0.000548482
0.00053986
0.000531734
0.000524064
0.000516817
0.000509961
0.000503466
0.000497308
0.00049146
0.000485902
0.000480613
0.000475575
0.000470769
0.000466181
0.000461795
0.000457599
0.00045358
0.000449726
0.000446027
0.000442474
0.000439058
0.000435769
0.000432601
0.000429547
0.0004266
0.000423754
0.000421005
0.000418347
0.000415775
0.000413287
0.000410879
0.000408547
0.00040629
0.000404105
0.000401992
0.00039995
0.000397978
0.000396076
0.000394246
0.000392489
0.000390808
0.000389206
0.000387687
0.000386254
0.000384915
0.000383675
0.000382542
0.000381524
0.000380631
0.000379872
0.00037926
0.000378806
0.000378522
0.000378424
0.000378524
0.000378838
0.000379379
0.000380162
0.000381199
0.000382504
0.000384086
0.000385955
0.000388114
0.000390567
0.000393309
0.000396333
0.000399625
0.000403162
0.000406914
0.000410841
0.000414892
0.000419002
0.000423092
0.000427063
0.000430797
0.000434149
0.000436946
0.000438992
0.000440073
0.000977118
0.000936707
0.00089965
0.000865627
0.000834349
0.000805558
0.000779023
0.000754534
0.000731905
0.000710965
0.000691562
0.000673561
0.000656836
0.000641277
0.000626783
0.000613262
0.000600633
0.000588821
0.000577758
0.000567384
0.000557643
0.000548484
0.000539863
0.000531736
0.000524066
0.000516819
0.000509963
0.000503469
0.00049731
0.000491463
0.000485906
0.000480617
0.000475578
0.000470773
0.000466184
0.000461799
0.000457603
0.000453584
0.00044973
0.000446032
0.000442479
0.000439063
0.000435774
0.000432607
0.000429553
0.000426606
0.000423761
0.000421011
0.000418353
0.000415782
0.000413294
0.000410886
0.000408554
0.000406297
0.000404113
0.000402
0.000399958
0.000397985
0.000396084
0.000394254
0.000392497
0.000390816
0.000389214
0.000387694
0.000386261
0.000384921
0.00038368
0.000382546
0.000381527
0.000380632
0.000379872
0.000379258
0.000378802
0.000378516
0.000378415
0.000378512
0.000378822
0.00037936
0.000380138
0.000381171
0.000382471
0.000384048
0.000385912
0.000388066
0.000390512
0.000393249
0.000396267
0.000399553
0.000403085
0.000406832
0.000410755
0.000414802
0.000418909
0.000422996
0.000426965
0.000430697
0.000434048
0.000436844
0.00043889
0.000439971
0.000977118
0.000936708
0.000899651
0.000865627
0.000834349
0.000805559
0.000779023
0.000754535
0.000731905
0.000710966
0.000691563
0.000673562
0.000656838
0.000641279
0.000626784
0.000613264
0.000600635
0.000588823
0.00057776
0.000567386
0.000557645
0.000548487
0.000539865
0.000531738
0.000524069
0.000516822
0.000509966
0.000503472
0.000497314
0.000491467
0.000485909
0.000480621
0.000475582
0.000470777
0.000466189
0.000461804
0.000457608
0.000453589
0.000449736
0.000446038
0.000442485
0.000439069
0.000435781
0.000432613
0.000429559
0.000426613
0.000423768
0.000421019
0.000418361
0.00041579
0.000413302
0.000410894
0.000408563
0.000406306
0.000404122
0.000402009
0.000399967
0.000397995
0.000396093
0.000394263
0.000392507
0.000390825
0.000389222
0.000387702
0.000386269
0.000384928
0.000383687
0.000382551
0.000381531
0.000380635
0.000379873
0.000379256
0.000378798
0.000378509
0.000378405
0.000378499
0.000378805
0.000379337
0.000380111
0.000381139
0.000382433
0.000384005
0.000385861
0.000388009
0.000390449
0.000393179
0.000396191
0.00039947
0.000402996
0.000406737
0.000410654
0.000414697
0.000418799
0.000422883
0.00042685
0.00043058
0.000433929
0.000436725
0.00043877
0.00043985
0.000977118
0.000936708
0.000899651
0.000865627
0.000834349
0.000805559
0.000779024
0.000754536
0.000731906
0.000710966
0.000691565
0.000673563
0.000656839
0.00064128
0.000626786
0.000613265
0.000600636
0.000588825
0.000577762
0.000567388
0.000557648
0.000548489
0.000539868
0.000531741
0.000524072
0.000516825
0.000509969
0.000503476
0.000497318
0.000491471
0.000485913
0.000480625
0.000475587
0.000470782
0.000466194
0.000461809
0.000457613
0.000453595
0.000449742
0.000446044
0.000442491
0.000439076
0.000435788
0.000432621
0.000429567
0.000426621
0.000423776
0.000421027
0.00041837
0.000415799
0.000413312
0.000410904
0.000408573
0.000406317
0.000404133
0.00040202
0.000399978
0.000398006
0.000396104
0.000394274
0.000392517
0.000390836
0.000389233
0.000387712
0.000386278
0.000384937
0.000383694
0.000382558
0.000381536
0.000380638
0.000379874
0.000379255
0.000378793
0.000378502
0.000378394
0.000378483
0.000378785
0.000379313
0.000380081
0.000381103
0.000382391
0.000383955
0.000385805
0.000387945
0.000390378
0.0003931
0.000396104
0.000399376
0.000402895
0.000406629
0.000410541
0.000414577
0.000418675
0.000422755
0.000426719
0.000430447
0.000433795
0.000436588
0.000438632
0.000439712
0.000977118
0.000936708
0.000899651
0.000865628
0.00083435
0.00080556
0.000779025
0.000754536
0.000731907
0.000710968
0.000691566
0.000673565
0.00065684
0.000641282
0.000626788
0.000613267
0.000600639
0.000588827
0.000577765
0.000567391
0.00055765
0.000548492
0.000539871
0.000531745
0.000524075
0.000516829
0.000509973
0.00050348
0.000497322
0.000491475
0.000485918
0.00048063
0.000475592
0.000470787
0.0004662
0.000461815
0.00045762
0.000453601
0.000449749
0.000446051
0.000442499
0.000439083
0.000435796
0.000432629
0.000429576
0.00042663
0.000423786
0.000421037
0.00041838
0.00041581
0.000413323
0.000410915
0.000408584
0.000406328
0.000404145
0.000402032
0.00039999
0.000398018
0.000396117
0.000394287
0.00039253
0.000390848
0.000389244
0.000387723
0.000386289
0.000384946
0.000383703
0.000382565
0.000381541
0.000380641
0.000379875
0.000379254
0.000378789
0.000378494
0.000378382
0.000378467
0.000378763
0.000379286
0.000380048
0.000381063
0.000382344
0.000383901
0.000385743
0.000387875
0.000390299
0.000393013
0.000396009
0.000399273
0.000402783
0.000406511
0.000410415
0.000414446
0.000418538
0.000422613
0.000426573
0.000430299
0.000433644
0.000436436
0.000438479
0.000439558
0.000977118
0.000936708
0.000899651
0.000865628
0.00083435
0.00080556
0.000779025
0.000754537
0.000731908
0.000710969
0.000691567
0.000673566
0.000656842
0.000641283
0.000626789
0.000613269
0.000600641
0.000588829
0.000577767
0.000567394
0.000557653
0.000548495
0.000539874
0.000531748
0.000524079
0.000516833
0.000509978
0.000503484
0.000497326
0.00049148
0.000485923
0.000480635
0.000475598
0.000470793
0.000466206
0.000461822
0.000457626
0.000453608
0.000449756
0.000446059
0.000442507
0.000439092
0.000435805
0.000432638
0.000429586
0.00042664
0.000423796
0.000421048
0.000418391
0.000415821
0.000413334
0.000410927
0.000408597
0.000406341
0.000404158
0.000402046
0.000400004
0.000398032
0.000396131
0.000394301
0.000392543
0.000390861
0.000389258
0.000387736
0.0003863
0.000384957
0.000383712
0.000382573
0.000381548
0.000380646
0.000379877
0.000379253
0.000378785
0.000378486
0.000378369
0.00037845
0.000378741
0.000379257
0.000380012
0.000381021
0.000382294
0.000383843
0.000385676
0.0003878
0.000390215
0.000392919
0.000395906
0.000399161
0.000402663
0.000406382
0.000410278
0.000414302
0.000418389
0.000422459
0.000426415
0.000430137
0.000433479
0.00043627
0.000438312
0.000439391
0.000977118
0.000936708
0.000899651
0.000865628
0.000834351
0.000805561
0.000779026
0.000754538
0.000731909
0.00071097
0.000691568
0.000673567
0.000656844
0.000641285
0.000626791
0.000613272
0.000600643
0.000588832
0.00057777
0.000567397
0.000557656
0.000548499
0.000539878
0.000531752
0.000524083
0.000516837
0.000509982
0.000503489
0.000497332
0.000491486
0.000485929
0.000480641
0.000475604
0.0004708
0.000466213
0.000461829
0.000457634
0.000453616
0.000449764
0.000446067
0.000442516
0.000439101
0.000435815
0.000432649
0.000429596
0.000426651
0.000423807
0.00042106
0.000418403
0.000415834
0.000413347
0.000410941
0.000408611
0.000406355
0.000404172
0.00040206
0.000400019
0.000398047
0.000396146
0.000394316
0.000392558
0.000390876
0.000389272
0.00038775
0.000386314
0.000384969
0.000383723
0.000382583
0.000381556
0.000380651
0.00037988
0.000379252
0.000378781
0.000378478
0.000378357
0.000378432
0.000378717
0.000379227
0.000379975
0.000380976
0.000382241
0.000383781
0.000385605
0.000387719
0.000390124
0.000392819
0.000395796
0.000399041
0.000402533
0.000406243
0.000410132
0.000414148
0.000418228
0.000422293
0.000426244
0.000429962
0.000433302
0.000436091
0.000438132
0.00043921
0.000977118
0.000936708
0.000899652
0.000865628
0.000834351
0.000805561
0.000779027
0.000754539
0.00073191
0.000710971
0.00069157
0.000673569
0.000656845
0.000641287
0.000626793
0.000613274
0.000600646
0.000588834
0.000577773
0.0005674
0.00055766
0.000548502
0.000539881
0.000531756
0.000524088
0.000516842
0.000509987
0.000503494
0.000497337
0.000491491
0.000485935
0.000480648
0.000475611
0.000470807
0.00046622
0.000461836
0.000457642
0.000453625
0.000449773
0.000446077
0.000442526
0.000439111
0.000435825
0.000432659
0.000429608
0.000426663
0.00042382
0.000421072
0.000418417
0.000415848
0.000413362
0.000410955
0.000408626
0.000406371
0.000404188
0.000402076
0.000400035
0.000398064
0.000396162
0.000394332
0.000392575
0.000390892
0.000389288
0.000387765
0.000386328
0.000384983
0.000383735
0.000382593
0.000381564
0.000380657
0.000379883
0.000379253
0.000378777
0.00037847
0.000378344
0.000378413
0.000378692
0.000379195
0.000379936
0.000380929
0.000382185
0.000383716
0.000385531
0.000387634
0.000390029
0.000392714
0.00039568
0.000398915
0.000402397
0.000406097
0.000409977
0.000413985
0.000418058
0.000422116
0.000426062
0.000429776
0.000433113
0.0004359
0.00043794
0.000439018
0.000977118
0.000936708
0.000899652
0.000865629
0.000834351
0.000805562
0.000779027
0.00075454
0.000731911
0.000710972
0.000691571
0.00067357
0.000656847
0.000641289
0.000626796
0.000613276
0.000600648
0.000588837
0.000577776
0.000567403
0.000557663
0.000548506
0.000539885
0.00053176
0.000524092
0.000516847
0.000509992
0.000503499
0.000497343
0.000491497
0.000485941
0.000480654
0.000475618
0.000470814
0.000466228
0.000461844
0.000457651
0.000453634
0.000449782
0.000446086
0.000442536
0.000439122
0.000435836
0.000432671
0.00042962
0.000426675
0.000423833
0.000421086
0.000418431
0.000415862
0.000413377
0.000410971
0.000408642
0.000406387
0.000404205
0.000402093
0.000400052
0.000398081
0.00039618
0.00039435
0.000392593
0.00039091
0.000389305
0.000387781
0.000386344
0.000384997
0.000383749
0.000382605
0.000381574
0.000380664
0.000379887
0.000379253
0.000378774
0.000378462
0.000378331
0.000378395
0.000378667
0.000379163
0.000379896
0.00038088
0.000382127
0.000383649
0.000385453
0.000387546
0.00038993
0.000392603
0.000395558
0.000398782
0.000402254
0.000405944
0.000409814
0.000413814
0.000417879
0.00042193
0.000425871
0.00042958
0.000432914
0.000435698
0.000437737
0.000438815
0.000977118
0.000936708
0.000899652
0.000865629
0.000834352
0.000805562
0.000779028
0.00075454
0.000731912
0.000710973
0.000691572
0.000673572
0.000656849
0.000641291
0.000626798
0.000613278
0.000600651
0.00058884
0.000577779
0.000567406
0.000557667
0.00054851
0.00053989
0.000531765
0.000524097
0.000516852
0.000509997
0.000503505
0.000497349
0.000491504
0.000485948
0.000480661
0.000475625
0.000470822
0.000466236
0.000461853
0.00045766
0.000453643
0.000449792
0.000446097
0.000442547
0.000439133
0.000435848
0.000432683
0.000429632
0.000426689
0.000423847
0.0004211
0.000418445
0.000415877
0.000413392
0.000410987
0.000408658
0.000406404
0.000404222
0.000402111
0.000400071
0.0003981
0.000396199
0.000394369
0.000392611
0.000390928
0.000389323
0.000387799
0.00038636
0.000385013
0.000383763
0.000382617
0.000381584
0.000380672
0.000379892
0.000379255
0.000378771
0.000378455
0.000378318
0.000378376
0.000378642
0.00037913
0.000379855
0.00038083
0.000382068
0.000383579
0.000385373
0.000387455
0.000389827
0.000392489
0.000395432
0.000398645
0.000402105
0.000405785
0.000409645
0.000413635
0.000417692
0.000421736
0.00042567
0.000429375
0.000432705
0.000435488
0.000437525
0.000438602
0.000977118
0.000936708
0.000899652
0.000865629
0.000834352
0.000805563
0.000779029
0.000754541
0.000731913
0.000710974
0.000691574
0.000673573
0.00065685
0.000641293
0.0006268
0.000613281
0.000600653
0.000588843
0.000577782
0.00056741
0.00055767
0.000548514
0.000539894
0.000531769
0.000524102
0.000516857
0.000510003
0.000503511
0.000497355
0.00049151
0.000485955
0.000480669
0.000475633
0.00047083
0.000466245
0.000461862
0.000457669
0.000453653
0.000449803
0.000446108
0.000442558
0.000439145
0.00043586
0.000432696
0.000429646
0.000426703
0.000423861
0.000421115
0.000418461
0.000415894
0.000413409
0.000411004
0.000408676
0.000406422
0.000404241
0.00040213
0.00040009
0.000398119
0.000396219
0.000394389
0.000392631
0.000390948
0.000389342
0.000387818
0.000386378
0.00038503
0.000383778
0.000382631
0.000381595
0.000380681
0.000379898
0.000379257
0.000378769
0.000378448
0.000378306
0.000378357
0.000378616
0.000379097
0.000379813
0.00038078
0.000382007
0.000383508
0.000385291
0.000387361
0.000389722
0.000392371
0.000395303
0.000398503
0.000401952
0.00040562
0.000409469
0.00041345
0.000417498
0.000421535
0.000425463
0.000429162
0.000432489
0.000435269
0.000437305
0.000438381
0.000977118
0.000936708
0.000899652
0.00086563
0.000834353
0.000805563
0.000779029
0.000754542
0.000731914
0.000710975
0.000691575
0.000673575
0.000656852
0.000641295
0.000626802
0.000613283
0.000600656
0.000588846
0.000577785
0.000567413
0.000557674
0.000548518
0.000539898
0.000531774
0.000524107
0.000516862
0.000510008
0.000503517
0.000497361
0.000491517
0.000485962
0.000480676
0.000475641
0.000470838
0.000466253
0.000461871
0.000457679
0.000453663
0.000449813
0.000446119
0.00044257
0.000439157
0.000435873
0.00043271
0.00042966
0.000426717
0.000423876
0.000421131
0.000418477
0.00041591
0.000413427
0.000411022
0.000408695
0.000406441
0.00040426
0.00040215
0.00040011
0.00039814
0.000396239
0.00039441
0.000392652
0.000390969
0.000389363
0.000387837
0.000386397
0.000385047
0.000383794
0.000382645
0.000381608
0.000380691
0.000379904
0.000379259
0.000378767
0.000378441
0.000378293
0.000378339
0.00037859
0.000379063
0.000379771
0.000380728
0.000381946
0.000383436
0.000385207
0.000387266
0.000389614
0.000392251
0.00039517
0.000398358
0.000401794
0.000405451
0.00040929
0.00041326
0.000417299
0.000421328
0.000425249
0.000428943
0.000432265
0.000435042
0.000437077
0.000438153
0.000977118
0.000936708
0.000899652
0.00086563
0.000834353
0.000805564
0.00077903
0.000754543
0.000731915
0.000710977
0.000691576
0.000673577
0.000656854
0.000641297
0.000626804
0.000613286
0.000600659
0.000588849
0.000577789
0.000567417
0.000557678
0.000548522
0.000539903
0.000531779
0.000524112
0.000516868
0.000510014
0.000503523
0.000497368
0.000491524
0.000485969
0.000480684
0.000475649
0.000470847
0.000466262
0.000461881
0.000457689
0.000453674
0.000449824
0.00044613
0.000442582
0.00043917
0.000435886
0.000432723
0.000429674
0.000426732
0.000423892
0.000421147
0.000418494
0.000415928
0.000413445
0.000411041
0.000408714
0.000406461
0.000404281
0.000402171
0.000400131
0.000398161
0.000396261
0.000394431
0.000392674
0.00039099
0.000389384
0.000387858
0.000386417
0.000385066
0.000383812
0.000382661
0.000381621
0.000380701
0.000379912
0.000379263
0.000378766
0.000378435
0.000378282
0.00037832
0.000378565
0.00037903
0.000379729
0.000380676
0.000381884
0.000383363
0.000385122
0.000387169
0.000389505
0.000392129
0.000395035
0.00039821
0.000401634
0.000405279
0.000409106
0.000413066
0.000417095
0.000421116
0.00042503
0.000428718
0.000432036
0.00043481
0.000436843
0.000437919
0.000977118
0.000936709
0.000899653
0.00086563
0.000834353
0.000805564
0.000779031
0.000754544
0.000731916
0.000710978
0.000691578
0.000673578
0.000656856
0.000641299
0.000626807
0.000613288
0.000600662
0.000588852
0.000577792
0.00056742
0.000557682
0.000548526
0.000539907
0.000531783
0.000524117
0.000516873
0.00051002
0.000503529
0.000497374
0.000491531
0.000485977
0.000480692
0.000475657
0.000470856
0.000466272
0.000461891
0.000457699
0.000453685
0.000449836
0.000446142
0.000442594
0.000439183
0.0004359
0.000432738
0.000429689
0.000426748
0.000423908
0.000421164
0.000418512
0.000415946
0.000413463
0.00041106
0.000408734
0.000406482
0.000404302
0.000402193
0.000400153
0.000398184
0.000396284
0.000394454
0.000392696
0.000391013
0.000389406
0.000387879
0.000386437
0.000385085
0.00038383
0.000382677
0.000381635
0.000380712
0.000379919
0.000379267
0.000378766
0.00037843
0.00037827
0.000378302
0.00037854
0.000378997
0.000379687
0.000380624
0.000381821
0.000383289
0.000385037
0.000387071
0.000389394
0.000392005
0.000394898
0.00039806
0.000401471
0.000405104
0.000408919
0.000412868
0.000416888
0.0004209
0.000424806
0.000428489
0.000431802
0.000434573
0.000436604
0.000437679
0.000977118
0.000936709
0.000899653
0.00086563
0.000834354
0.000805565
0.000779031
0.000754544
0.000731917
0.000710979
0.000691579
0.00067358
0.000656857
0.000641301
0.000626809
0.000613291
0.000600664
0.000588855
0.000577795
0.000567424
0.000557686
0.00054853
0.000539912
0.000531788
0.000524122
0.000516879
0.000510026
0.000503536
0.000497381
0.000491538
0.000485985
0.0004807
0.000475666
0.000470865
0.000466281
0.000461901
0.00045771
0.000453696
0.000449847
0.000446154
0.000442607
0.000439196
0.000435914
0.000432752
0.000429704
0.000426764
0.000423924
0.000421181
0.000418529
0.000415964
0.000413482
0.00041108
0.000408754
0.000406503
0.000404323
0.000402215
0.000400176
0.000398206
0.000396307
0.000394477
0.000392719
0.000391036
0.000389428
0.000387901
0.000386459
0.000385106
0.000383848
0.000382694
0.000381649
0.000380724
0.000379928
0.000379272
0.000378766
0.000378425
0.00037826
0.000378285
0.000378515
0.000378964
0.000379645
0.000380572
0.000381759
0.000383215
0.000384951
0.000386973
0.000389283
0.000391881
0.000394761
0.000397909
0.000401307
0.000404927
0.000408731
0.000412668
0.000416678
0.00042068
0.000424579
0.000428256
0.000431565
0.000434332
0.000436361
0.000437436
0.000977118
0.000936709
0.000899653
0.00086563
0.000834354
0.000805565
0.000779032
0.000754545
0.000731917
0.00071098
0.00069158
0.000673581
0.000656859
0.000641303
0.000626811
0.000613293
0.000600667
0.000588858
0.000577798
0.000567428
0.00055769
0.000548535
0.000539916
0.000531793
0.000524128
0.000516884
0.000510032
0.000503542
0.000497388
0.000491545
0.000485992
0.000480708
0.000475674
0.000470874
0.000466291
0.000461911
0.00045772
0.000453707
0.000449859
0.000446167
0.00044262
0.00043921
0.000435928
0.000432767
0.00042972
0.00042678
0.000423941
0.000421199
0.000418548
0.000415983
0.000413502
0.0004111
0.000408775
0.000406524
0.000404345
0.000402237
0.000400199
0.00039823
0.00039633
0.000394501
0.000392743
0.000391059
0.000389452
0.000387924
0.000386481
0.000385126
0.000383868
0.000382711
0.000381664
0.000380737
0.000379937
0.000379277
0.000378767
0.00037842
0.00037825
0.000378268
0.000378491
0.000378931
0.000379603
0.000380521
0.000381697
0.000383142
0.000384866
0.000386875
0.000389172
0.000391756
0.000394622
0.000397758
0.000401142
0.000404749
0.000408541
0.000412467
0.000416466
0.00042046
0.000424351
0.000428021
0.000431324
0.000434089
0.000436116
0.000437189
0.000977118
0.000936709
0.000899653
0.000865631
0.000834354
0.000805565
0.000779032
0.000754546
0.000731918
0.000710981
0.000691581
0.000673582
0.000656861
0.000641304
0.000626813
0.000613296
0.00060067
0.000588861
0.000577802
0.000567431
0.000557694
0.000548539
0.000539921
0.000531798
0.000524133
0.00051689
0.000510038
0.000503549
0.000497395
0.000491553
0.000486
0.000480716
0.000475683
0.000470883
0.000466301
0.000461921
0.000457731
0.000453718
0.000449871
0.000446179
0.000442633
0.000439224
0.000435942
0.000432782
0.000429735
0.000426796
0.000423958
0.000421216
0.000418566
0.000416002
0.000413522
0.000411121
0.000408796
0.000406546
0.000404367
0.00040226
0.000400222
0.000398253
0.000396354
0.000394525
0.000392767
0.000391083
0.000389475
0.000387947
0.000386503
0.000385148
0.000383888
0.000382729
0.00038168
0.00038075
0.000379947
0.000379283
0.000378769
0.000378417
0.00037824
0.000378252
0.000378467
0.000378899
0.000379562
0.00038047
0.000381635
0.000383069
0.000384781
0.000386777
0.000389061
0.000391632
0.000394484
0.000397606
0.000400977
0.000404571
0.00040835
0.000412265
0.000416253
0.000420237
0.00042412
0.000427784
0.000431083
0.000433843
0.000435868
0.000436941
0.000977118
0.000936709
0.000899653
0.000865631
0.000834355
0.000805566
0.000779033
0.000754546
0.000731919
0.000710982
0.000691582
0.000673584
0.000656862
0.000641306
0.000626815
0.000613298
0.000600672
0.000588864
0.000577805
0.000567435
0.000557697
0.000548543
0.000539925
0.000531803
0.000524138
0.000516896
0.000510044
0.000503555
0.000497402
0.00049156
0.000486008
0.000480725
0.000475692
0.000470892
0.00046631
0.000461931
0.000457742
0.00045373
0.000449883
0.000446192
0.000442646
0.000439237
0.000435957
0.000432797
0.000429751
0.000426813
0.000423975
0.000421234
0.000418585
0.000416022
0.000413542
0.000411141
0.000408817
0.000406568
0.00040439
0.000402283
0.000400246
0.000398277
0.000396378
0.00039455
0.000392792
0.000391108
0.0003895
0.000387971
0.000386526
0.00038517
0.000383908
0.000382748
0.000381697
0.000380763
0.000379957
0.000379289
0.000378771
0.000378414
0.000378231
0.000378237
0.000378444
0.000378868
0.000379522
0.00038042
0.000381574
0.000382997
0.000384696
0.00038668
0.000388951
0.000391508
0.000394347
0.000397455
0.000400813
0.000404393
0.00040816
0.000412063
0.000416041
0.000420015
0.00042389
0.000427547
0.00043084
0.000433597
0.00043562
0.000436691
0.000977118
0.000936709
0.000899653
0.000865631
0.000834355
0.000805566
0.000779033
0.000754547
0.00073192
0.000710983
0.000691584
0.000673585
0.000656864
0.000641308
0.000626817
0.0006133
0.000600675
0.000588867
0.000577808
0.000567438
0.000557701
0.000548547
0.00053993
0.000531808
0.000524143
0.000516901
0.00051005
0.000503562
0.000497409
0.000491567
0.000486016
0.000480733
0.000475701
0.000470902
0.00046632
0.000461942
0.000457753
0.000453741
0.000449895
0.000446205
0.00044266
0.000439251
0.000435972
0.000432812
0.000429767
0.000426829
0.000423993
0.000421252
0.000418603
0.000416041
0.000413562
0.000411162
0.000408839
0.00040659
0.000404413
0.000402306
0.000400269
0.000398302
0.000396403
0.000394574
0.000392817
0.000391133
0.000389524
0.000387995
0.000386549
0.000385192
0.000383929
0.000382767
0.000381713
0.000380777
0.000379968
0.000379297
0.000378773
0.000378411
0.000378223
0.000378222
0.000378422
0.000378838
0.000379483
0.000380371
0.000381514
0.000382925
0.000384613
0.000386584
0.000388841
0.000391386
0.00039421
0.000397305
0.000400649
0.000404217
0.00040797
0.000411862
0.000415829
0.000419793
0.00042366
0.00042731
0.000430598
0.000433351
0.000435371
0.000436442
0.000977118
0.000936709
0.000899653
0.000865631
0.000834355
0.000805567
0.000779034
0.000754548
0.000731921
0.000710984
0.000691585
0.000673586
0.000656865
0.00064131
0.000626819
0.000613302
0.000600677
0.000588869
0.000577811
0.000567441
0.000557705
0.000548551
0.000539934
0.000531813
0.000524148
0.000516907
0.000510056
0.000503568
0.000497416
0.000491575
0.000486023
0.000480741
0.000475709
0.000470911
0.00046633
0.000461952
0.000457764
0.000453752
0.000449907
0.000446217
0.000442673
0.000439265
0.000435986
0.000432828
0.000429783
0.000426846
0.00042401
0.00042127
0.000418622
0.000416061
0.000413582
0.000411183
0.000408861
0.000406612
0.000404436
0.00040233
0.000400293
0.000398326
0.000396428
0.000394599
0.000392842
0.000391157
0.000389549
0.000388019
0.000386572
0.000385214
0.00038395
0.000382786
0.00038173
0.000380792
0.00037998
0.000379304
0.000378777
0.000378409
0.000378215
0.000378208
0.000378401
0.000378808
0.000379444
0.000380322
0.000381456
0.000382855
0.000384531
0.000386489
0.000388734
0.000391264
0.000394076
0.000397156
0.000400487
0.000404041
0.000407782
0.000411662
0.000415618
0.000419573
0.000423431
0.000427074
0.000430356
0.000433106
0.000435124
0.000436194
0.000977118
0.000936709
0.000899653
0.000865631
0.000834355
0.000805567
0.000779034
0.000754548
0.000731921
0.000710985
0.000691586
0.000673588
0.000656867
0.000641311
0.000626821
0.000613305
0.00060068
0.000588872
0.000577814
0.000567445
0.000557709
0.000548555
0.000539939
0.000531817
0.000524154
0.000516912
0.000510062
0.000503574
0.000497422
0.000491582
0.000486031
0.000480749
0.000475718
0.00047092
0.00046634
0.000461962
0.000457774
0.000453764
0.000449919
0.00044623
0.000442686
0.000439279
0.000436001
0.000432843
0.000429799
0.000426862
0.000424027
0.000421288
0.000418641
0.00041608
0.000413602
0.000411204
0.000408882
0.000406634
0.000404459
0.000402353
0.000400317
0.00039835
0.000396452
0.000394624
0.000392867
0.000391182
0.000389573
0.000388043
0.000386596
0.000385237