/*--------------------------------*- C++ -*----------------------------------*\
  =========                 |
  \\      /  F ield         | OpenFOAM: The Open Source CFD Toolbox
   \\    /   O peration     | Website:  https://openfoam.org
    \\  /    A nd           | Version:  11
     \\/     M anipulation  |
\*---------------------------------------------------------------------------*/
FoamFile
{
    format      ascii;
    class       volScalarField;
    location    "606";
    object      k;
}
// * * * * * * * * * * * * * * * * * * * * * * * * * * * * * * * * * * * * * //

dimensions      [0 2 -2 0 0 0 0];

internalField   nonuniform List<scalar> 
10000
(
0.000939687
0.000835718
0.00074589
0.000668034
0.000600341
0.0005413
0.000489646
0.000444316
0.000404417
0.000369193
0.000338005
0.000310311
0.000285651
0.000263632
0.000243918
0.000226222
0.000210295
0.000195925
0.000182928
0.000171145
0.000160438
0.000150687
0.000141787
0.000133646
0.000126185
0.000119332
0.000113026
0.000107213
0.000101844
9.68763e-05
9.22721e-05
8.79977e-05
8.4023e-05
8.03213e-05
7.68685e-05
7.36431e-05
7.06259e-05
6.77995e-05
6.51483e-05
6.26581e-05
6.03162e-05
5.81111e-05
5.60323e-05
5.40702e-05
5.22163e-05
5.04626e-05
4.88019e-05
4.72278e-05
4.57341e-05
4.43155e-05
4.29668e-05
4.16833e-05
4.0461e-05
3.92958e-05
3.81841e-05
3.71226e-05
3.61083e-05
3.51382e-05
3.42099e-05
3.33208e-05
3.24687e-05
3.16516e-05
3.08675e-05
3.01147e-05
2.93914e-05
2.86962e-05
2.80277e-05
2.73846e-05
2.67656e-05
2.61696e-05
2.55957e-05
2.50428e-05
2.45101e-05
2.39968e-05
2.35022e-05
2.30256e-05
2.25665e-05
2.21243e-05
2.16985e-05
2.12887e-05
2.08945e-05
2.05156e-05
2.01518e-05
1.98028e-05
1.94685e-05
1.91487e-05
1.88433e-05
1.85524e-05
1.8276e-05
1.80142e-05
1.77673e-05
1.75356e-05
1.73197e-05
1.71204e-05
1.69389e-05
1.67767e-05
1.66362e-05
1.65206e-05
1.64345e-05
1.63844e-05
0.000939687
0.000835718
0.00074589
0.000668034
0.000600341
0.0005413
0.000489646
0.000444316
0.000404417
0.000369193
0.000338005
0.000310311
0.000285651
0.000263632
0.000243918
0.000226222
0.000210295
0.000195925
0.000182928
0.000171146
0.000160439
0.000150687
0.000141787
0.000133646
0.000126185
0.000119332
0.000113026
0.000107213
0.000101844
9.68764e-05
9.22722e-05
8.79978e-05
8.40232e-05
8.03214e-05
7.68686e-05
7.36433e-05
7.06261e-05
6.77997e-05
6.51485e-05
6.26583e-05
6.03164e-05
5.81113e-05
5.60325e-05
5.40704e-05
5.22165e-05
5.04628e-05
4.88022e-05
4.7228e-05
4.57344e-05
4.43157e-05
4.2967e-05
4.16836e-05
4.04612e-05
3.9296e-05
3.81843e-05
3.71229e-05
3.61085e-05
3.51385e-05
3.42101e-05
3.33211e-05
3.2469e-05
3.16519e-05
3.08678e-05
3.0115e-05
2.93917e-05
2.86966e-05
2.80281e-05
2.73849e-05
2.67659e-05
2.617e-05
2.5596e-05
2.50431e-05
2.45104e-05
2.39972e-05
2.35026e-05
2.3026e-05
2.25669e-05
2.21247e-05
2.16989e-05
2.1289e-05
2.08949e-05
2.0516e-05
2.01522e-05
1.98032e-05
1.94689e-05
1.91491e-05
1.88437e-05
1.85528e-05
1.82764e-05
1.80145e-05
1.77676e-05
1.75359e-05
1.732e-05
1.71207e-05
1.69392e-05
1.6777e-05
1.66365e-05
1.65209e-05
1.64347e-05
1.63847e-05
0.000939687
0.000835718
0.00074589
0.000668034
0.000600341
0.0005413
0.000489646
0.000444317
0.000404417
0.000369193
0.000338005
0.000310311
0.000285651
0.000263632
0.000243918
0.000226222
0.000210295
0.000195925
0.000182929
0.000171146
0.000160439
0.000150688
0.000141787
0.000133646
0.000126185
0.000119332
0.000113027
0.000107213
0.000101844
9.68767e-05
9.22725e-05
8.79981e-05
8.40235e-05
8.03217e-05
7.68689e-05
7.36436e-05
7.06264e-05
6.78e-05
6.51488e-05
6.26586e-05
6.03168e-05
5.81117e-05
5.60328e-05
5.40708e-05
5.22169e-05
5.04632e-05
4.88026e-05
4.72284e-05
4.57348e-05
4.43161e-05
4.29674e-05
4.1684e-05
4.04617e-05
3.92965e-05
3.81848e-05
3.71234e-05
3.6109e-05
3.5139e-05
3.42107e-05
3.33216e-05
3.24696e-05
3.16525e-05
3.08684e-05
3.01156e-05
2.93923e-05
2.86972e-05
2.80287e-05
2.73855e-05
2.67666e-05
2.61706e-05
2.55967e-05
2.50438e-05
2.45111e-05
2.39979e-05
2.35033e-05
2.30267e-05
2.25676e-05
2.21254e-05
2.16996e-05
2.12898e-05
2.08956e-05
2.05167e-05
2.01529e-05
1.98039e-05
1.94696e-05
1.91497e-05
1.88444e-05
1.85534e-05
1.8277e-05
1.80152e-05
1.77682e-05
1.75365e-05
1.73206e-05
1.71212e-05
1.69397e-05
1.67775e-05
1.66369e-05
1.65213e-05
1.64351e-05
1.63851e-05
0.000939687
0.000835718
0.00074589
0.000668034
0.000600341
0.0005413
0.000489646
0.000444317
0.000404417
0.000369193
0.000338005
0.000310311
0.000285652
0.000263633
0.000243919
0.000226222
0.000210295
0.000195925
0.000182929
0.000171146
0.000160439
0.000150688
0.000141788
0.000133647
0.000126185
0.000119333
0.000113027
0.000107214
0.000101845
9.68771e-05
9.22729e-05
8.79985e-05
8.40239e-05
8.03222e-05
7.68694e-05
7.36441e-05
7.06269e-05
6.78005e-05
6.51493e-05
6.26592e-05
6.03173e-05
5.81122e-05
5.60334e-05
5.40713e-05
5.22174e-05
5.04638e-05
4.88032e-05
4.7229e-05
4.57354e-05
4.43168e-05
4.29681e-05
4.16847e-05
4.04624e-05
3.92972e-05
3.81855e-05
3.71241e-05
3.61098e-05
3.51398e-05
3.42115e-05
3.33224e-05
3.24704e-05
3.16533e-05
3.08692e-05
3.01164e-05
2.93932e-05
2.86981e-05
2.80296e-05
2.73865e-05
2.67675e-05
2.61716e-05
2.55976e-05
2.50448e-05
2.45121e-05
2.39988e-05
2.35043e-05
2.30277e-05
2.25686e-05
2.21264e-05
2.17006e-05
2.12908e-05
2.08966e-05
2.05177e-05
2.01539e-05
1.98049e-05
1.94705e-05
1.91507e-05
1.88453e-05
1.85544e-05
1.82779e-05
1.8016e-05
1.77691e-05
1.75373e-05
1.73213e-05
1.7122e-05
1.69404e-05
1.67781e-05
1.66376e-05
1.65219e-05
1.64357e-05
1.63856e-05
0.000939687
0.000835718
0.00074589
0.000668034
0.000600341
0.0005413
0.000489646
0.000444317
0.000404418
0.000369193
0.000338005
0.000310312
0.000285652
0.000263633
0.000243919
0.000226222
0.000210296
0.000195926
0.000182929
0.000171146
0.000160439
0.000150688
0.000141788
0.000133647
0.000126186
0.000119333
0.000113027
0.000107214
0.000101845
9.68776e-05
9.22734e-05
8.79991e-05
8.40244e-05
8.03227e-05
7.687e-05
7.36447e-05
7.06275e-05
6.78012e-05
6.515e-05
6.26598e-05
6.0318e-05
5.81129e-05
5.60341e-05
5.40721e-05
5.22182e-05
5.04645e-05
4.8804e-05
4.72299e-05
4.57362e-05
4.43176e-05
4.2969e-05
4.16856e-05
4.04633e-05
3.92981e-05
3.81865e-05
3.71251e-05
3.61108e-05
3.51408e-05
3.42125e-05
3.33235e-05
3.24714e-05
3.16544e-05
3.08703e-05
3.01175e-05
2.93943e-05
2.86992e-05
2.80308e-05
2.73877e-05
2.67687e-05
2.61728e-05
2.55989e-05
2.5046e-05
2.45134e-05
2.40001e-05
2.35056e-05
2.3029e-05
2.25699e-05
2.21277e-05
2.17019e-05
2.12921e-05
2.08979e-05
2.05191e-05
2.01552e-05
1.98062e-05
1.94718e-05
1.9152e-05
1.88465e-05
1.85556e-05
1.82791e-05
1.80172e-05
1.77701e-05
1.75384e-05
1.73224e-05
1.71229e-05
1.69413e-05
1.6779e-05
1.66384e-05
1.65227e-05
1.64365e-05
1.63864e-05
0.000939687
0.000835718
0.00074589
0.000668034
0.000600341
0.0005413
0.000489647
0.000444317
0.000404418
0.000369193
0.000338005
0.000310312
0.000285652
0.000263633
0.000243919
0.000226223
0.000210296
0.000195926
0.00018293
0.000171147
0.00016044
0.000150689
0.000141789
0.000133648
0.000126186
0.000119334
0.000113028
0.000107215
0.000101846
9.68782e-05
9.22741e-05
8.79997e-05
8.40251e-05
8.03234e-05
7.68707e-05
7.36454e-05
7.06283e-05
6.78019e-05
6.51508e-05
6.26606e-05
6.03188e-05
5.81138e-05
5.6035e-05
5.4073e-05
5.22191e-05
5.04655e-05
4.88049e-05
4.72308e-05
4.57373e-05
4.43187e-05
4.297e-05
4.16867e-05
4.04644e-05
3.92992e-05
3.81876e-05
3.71262e-05
3.6112e-05
3.5142e-05
3.42137e-05
3.33247e-05
3.24728e-05
3.16557e-05
3.08717e-05
3.01189e-05
2.93958e-05
2.87007e-05
2.80322e-05
2.73892e-05
2.67702e-05
2.61743e-05
2.56004e-05
2.50476e-05
2.4515e-05
2.40017e-05
2.35072e-05
2.30307e-05
2.25716e-05
2.21294e-05
2.17036e-05
2.12937e-05
2.08996e-05
2.05207e-05
2.01568e-05
1.98078e-05
1.94734e-05
1.91535e-05
1.88481e-05
1.8557e-05
1.82805e-05
1.80186e-05
1.77715e-05
1.75396e-05
1.73236e-05
1.71241e-05
1.69424e-05
1.67801e-05
1.66394e-05
1.65237e-05
1.64374e-05
1.63873e-05
0.000939687
0.000835718
0.000745891
0.000668034
0.000600341
0.0005413
0.000489647
0.000444317
0.000404418
0.000369194
0.000338006
0.000310312
0.000285653
0.000263634
0.00024392
0.000226223
0.000210296
0.000195927
0.00018293
0.000171147
0.00016044
0.000150689
0.000141789
0.000133648
0.000126187
0.000119334
0.000113029
0.000107216
0.000101847
9.68789e-05
9.22748e-05
8.80005e-05
8.40259e-05
8.03243e-05
7.68716e-05
7.36463e-05
7.06292e-05
6.78029e-05
6.51517e-05
6.26616e-05
6.03198e-05
5.81148e-05
5.6036e-05
5.4074e-05
5.22202e-05
5.04666e-05
4.88061e-05
4.7232e-05
4.57385e-05
4.43199e-05
4.29713e-05
4.16879e-05
4.04657e-05
3.93006e-05
3.8189e-05
3.71276e-05
3.61134e-05
3.51435e-05
3.42152e-05
3.33262e-05
3.24743e-05
3.16573e-05
3.08733e-05
3.01206e-05
2.93974e-05
2.87024e-05
2.80339e-05
2.73909e-05
2.6772e-05
2.61761e-05
2.56023e-05
2.50494e-05
2.45168e-05
2.40036e-05
2.35091e-05
2.30326e-05
2.25735e-05
2.21313e-05
2.17055e-05
2.12957e-05
2.09015e-05
2.05226e-05
2.01587e-05
1.98097e-05
1.94752e-05
1.91553e-05
1.88498e-05
1.85588e-05
1.82822e-05
1.80202e-05
1.7773e-05
1.75411e-05
1.7325e-05
1.71255e-05
1.69437e-05
1.67813e-05
1.66406e-05
1.65248e-05
1.64384e-05
1.63883e-05
0.000939687
0.000835718
0.000745891
0.000668034
0.000600341
0.000541301
0.000489647
0.000444318
0.000404418
0.000369194
0.000338006
0.000310313
0.000285653
0.000263634
0.00024392
0.000226224
0.000210297
0.000195927
0.000182931
0.000171148
0.000160441
0.00015069
0.00014179
0.000133649
0.000126188
0.000119335
0.000113029
0.000107216
0.000101847
9.68798e-05
9.22757e-05
8.80014e-05
8.40268e-05
8.03252e-05
7.68725e-05
7.36473e-05
7.06302e-05
6.78039e-05
6.51528e-05
6.26627e-05
6.03209e-05
5.81159e-05
5.60372e-05
5.40752e-05
5.22214e-05
5.04679e-05
4.88074e-05
4.72333e-05
4.57398e-05
4.43213e-05
4.29727e-05
4.16894e-05
4.04672e-05
3.93021e-05
3.81906e-05
3.71292e-05
3.6115e-05
3.51451e-05
3.42169e-05
3.3328e-05
3.24761e-05
3.16591e-05
3.08751e-05
3.01224e-05
2.93993e-05
2.87043e-05
2.80359e-05
2.73929e-05
2.6774e-05
2.61782e-05
2.56043e-05
2.50515e-05
2.4519e-05
2.40058e-05
2.35112e-05
2.30347e-05
2.25757e-05
2.21335e-05
2.17077e-05
2.12979e-05
2.09037e-05
2.05247e-05
2.01609e-05
1.98118e-05
1.94773e-05
1.91574e-05
1.88518e-05
1.85607e-05
1.82841e-05
1.8022e-05
1.77748e-05
1.75428e-05
1.73266e-05
1.7127e-05
1.69451e-05
1.67826e-05
1.66419e-05
1.6526e-05
1.64396e-05
1.63894e-05
0.000939687
0.000835718
0.000745891
0.000668034
0.000600341
0.000541301
0.000489647
0.000444318
0.000404419
0.000369194
0.000338006
0.000310313
0.000285653
0.000263635
0.000243921
0.000226224
0.000210298
0.000195928
0.000182931
0.000171149
0.000160442
0.000150691
0.00014179
0.00013365
0.000126188
0.000119336
0.00011303
0.000107217
0.000101848
9.68807e-05
9.22766e-05
8.80024e-05
8.40278e-05
8.03262e-05
7.68736e-05
7.36484e-05
7.06313e-05
6.7805e-05
6.51539e-05
6.26639e-05
6.03222e-05
5.81172e-05
5.60385e-05
5.40766e-05
5.22228e-05
5.04693e-05
4.88088e-05
4.72348e-05
4.57413e-05
4.43228e-05
4.29743e-05
4.1691e-05
4.04688e-05
3.93038e-05
3.81923e-05
3.7131e-05
3.61168e-05
3.5147e-05
3.42188e-05
3.33299e-05
3.2478e-05
3.16611e-05
3.08772e-05
3.01245e-05
2.94014e-05
2.87064e-05
2.80381e-05
2.73951e-05
2.67763e-05
2.61804e-05
2.56066e-05
2.50539e-05
2.45213e-05
2.40082e-05
2.35137e-05
2.30372e-05
2.25781e-05
2.21359e-05
2.17101e-05
2.13003e-05
2.09061e-05
2.05272e-05
2.01632e-05
1.98141e-05
1.94796e-05
1.91596e-05
1.8854e-05
1.85629e-05
1.82862e-05
1.8024e-05
1.77767e-05
1.75447e-05
1.73284e-05
1.71287e-05
1.69467e-05
1.67842e-05
1.66433e-05
1.65274e-05
1.64409e-05
1.63907e-05
0.000939687
0.000835718
0.000745891
0.000668035
0.000600342
0.000541301
0.000489647
0.000444318
0.000404419
0.000369195
0.000338007
0.000310314
0.000285654
0.000263635
0.000243921
0.000226225
0.000210298
0.000195928
0.000182932
0.000171149
0.000160443
0.000150691
0.000141791
0.000133651
0.000126189
0.000119337
0.000113031
0.000107218
0.000101849
9.68817e-05
9.22777e-05
8.80034e-05
8.40289e-05
8.03274e-05
7.68748e-05
7.36496e-05
7.06325e-05
6.78063e-05
6.51552e-05
6.26652e-05
6.03235e-05
5.81186e-05
5.60399e-05
5.40781e-05
5.22243e-05
5.04708e-05
4.88104e-05
4.72364e-05
4.5743e-05
4.43245e-05
4.2976e-05
4.16928e-05
4.04707e-05
3.93057e-05
3.81942e-05
3.71329e-05
3.61188e-05
3.5149e-05
3.42209e-05
3.3332e-05
3.24802e-05
3.16633e-05
3.08794e-05
3.01268e-05
2.94037e-05
2.87088e-05
2.80405e-05
2.73975e-05
2.67787e-05
2.6183e-05
2.56092e-05
2.50564e-05
2.45239e-05
2.40108e-05
2.35163e-05
2.30398e-05
2.25807e-05
2.21386e-05
2.17128e-05
2.13029e-05
2.09087e-05
2.05298e-05
2.01659e-05
1.98167e-05
1.94822e-05
1.91621e-05
1.88565e-05
1.85652e-05
1.82884e-05
1.80262e-05
1.77789e-05
1.75467e-05
1.73303e-05
1.71305e-05
1.69485e-05
1.67858e-05
1.66448e-05
1.65288e-05
1.64423e-05
1.63921e-05
0.000939687
0.000835718
0.000745891
0.000668035
0.000600342
0.000541301
0.000489648
0.000444318
0.000404419
0.000369195
0.000338007
0.000310314
0.000285654
0.000263636
0.000243922
0.000226225
0.000210299
0.000195929
0.000182933
0.00017115
0.000160443
0.000150692
0.000141792
0.000133651
0.00012619
0.000119338
0.000113032
0.000107219
0.00010185
9.68828e-05
9.22788e-05
8.80046e-05
8.40301e-05
8.03286e-05
7.6876e-05
7.36509e-05
7.06339e-05
6.78077e-05
6.51566e-05
6.26667e-05
6.0325e-05
5.81201e-05
5.60415e-05
5.40797e-05
5.22259e-05
5.04725e-05
4.88121e-05
4.72382e-05
4.57448e-05
4.43264e-05
4.29779e-05
4.16947e-05
4.04726e-05
3.93077e-05
3.81962e-05
3.7135e-05
3.61209e-05
3.51512e-05
3.42231e-05
3.33343e-05
3.24825e-05
3.16656e-05
3.08818e-05
3.01292e-05
2.94062e-05
2.87113e-05
2.80431e-05
2.74002e-05
2.67814e-05
2.61857e-05
2.56119e-05
2.50592e-05
2.45267e-05
2.40136e-05
2.35191e-05
2.30427e-05
2.25836e-05
2.21414e-05
2.17156e-05
2.13058e-05
2.09116e-05
2.05326e-05
2.01687e-05
1.98195e-05
1.94849e-05
1.91648e-05
1.88591e-05
1.85678e-05
1.82909e-05
1.80286e-05
1.77811e-05
1.75489e-05
1.73324e-05
1.71325e-05
1.69503e-05
1.67875e-05
1.66465e-05
1.65304e-05
1.64438e-05
1.63935e-05
0.000939687
0.000835718
0.000745891
0.000668035
0.000600342
0.000541301
0.000489648
0.000444319
0.00040442
0.000369195
0.000338008
0.000310314
0.000285655
0.000263636
0.000243922
0.000226226
0.000210299
0.00019593
0.000182933
0.000171151
0.000160444
0.000150693
0.000141793
0.000133652
0.000126191
0.000119339
0.000113033
0.00010722
0.000101851
9.68839e-05
9.228e-05
8.80058e-05
8.40314e-05
8.03299e-05
7.68773e-05
7.36522e-05
7.06353e-05
6.78091e-05
6.51581e-05
6.26682e-05
6.03266e-05
5.81217e-05
5.60431e-05
5.40813e-05
5.22277e-05
5.04743e-05
4.88139e-05
4.72401e-05
4.57467e-05
4.43283e-05
4.29799e-05
4.16968e-05
4.04747e-05
3.93098e-05
3.81984e-05
3.71373e-05
3.61232e-05
3.51535e-05
3.42255e-05
3.33367e-05
3.2485e-05
3.16682e-05
3.08844e-05
3.01319e-05
2.94089e-05
2.8714e-05
2.80458e-05
2.7403e-05
2.67842e-05
2.61885e-05
2.56148e-05
2.50622e-05
2.45297e-05
2.40166e-05
2.35222e-05
2.30457e-05
2.25867e-05
2.21445e-05
2.17187e-05
2.13089e-05
2.09146e-05
2.05356e-05
2.01716e-05
1.98224e-05
1.94878e-05
1.91676e-05
1.88618e-05
1.85705e-05
1.82935e-05
1.80311e-05
1.77835e-05
1.75512e-05
1.73346e-05
1.71345e-05
1.69522e-05
1.67894e-05
1.66482e-05
1.6532e-05
1.64454e-05
1.6395e-05
0.000939687
0.000835718
0.000745891
0.000668035
0.000600342
0.000541301
0.000489648
0.000444319
0.00040442
0.000369196
0.000338008
0.000310315
0.000285655
0.000263637
0.000243923
0.000226227
0.0002103
0.000195931
0.000182934
0.000171152
0.000160445
0.000150694
0.000141794
0.000133653
0.000126192
0.00011934
0.000113034
0.000107221
0.000101853
9.68851e-05
9.22812e-05
8.80071e-05
8.40327e-05
8.03313e-05
7.68787e-05
7.36537e-05
7.06368e-05
6.78107e-05
6.51597e-05
6.26698e-05
6.03282e-05
5.81234e-05
5.60449e-05
5.40831e-05
5.22295e-05
5.04761e-05
4.88158e-05
4.7242e-05
4.57487e-05
4.43304e-05
4.2982e-05
4.16989e-05
4.04769e-05
3.93121e-05
3.82007e-05
3.71396e-05
3.61257e-05
3.5156e-05
3.4228e-05
3.33393e-05
3.24876e-05
3.16708e-05
3.08871e-05
3.01346e-05
2.94117e-05
2.87169e-05
2.80488e-05
2.74059e-05
2.67872e-05
2.61916e-05
2.56179e-05
2.50653e-05
2.45328e-05
2.40198e-05
2.35254e-05
2.30489e-05
2.25899e-05
2.21477e-05
2.1722e-05
2.13121e-05
2.09178e-05
2.05388e-05
2.01748e-05
1.98255e-05
1.94908e-05
1.91706e-05
1.88648e-05
1.85733e-05
1.82962e-05
1.80337e-05
1.77861e-05
1.75536e-05
1.73368e-05
1.71367e-05
1.69543e-05
1.67913e-05
1.665e-05
1.65337e-05
1.6447e-05
1.63966e-05
0.000939687
0.000835719
0.000745891
0.000668035
0.000600342
0.000541302
0.000489648
0.000444319
0.00040442
0.000369196
0.000338008
0.000310315
0.000285656
0.000263637
0.000243924
0.000226227
0.000210301
0.000195931
0.000182935
0.000171152
0.000160446
0.000150695
0.000141795
0.000133654
0.000126193
0.000119341
0.000113035
0.000107223
0.000101854
9.68864e-05
9.22825e-05
8.80084e-05
8.40341e-05
8.03327e-05
7.68802e-05
7.36552e-05
7.06383e-05
6.78122e-05
6.51613e-05
6.26715e-05
6.033e-05
5.81252e-05
5.60467e-05
5.4085e-05
5.22314e-05
5.04781e-05
4.88178e-05
4.72441e-05
4.57508e-05
4.43325e-05
4.29842e-05
4.17012e-05
4.04792e-05
3.93144e-05
3.82032e-05
3.71421e-05
3.61282e-05
3.51586e-05
3.42306e-05
3.3342e-05
3.24903e-05
3.16736e-05
3.089e-05
3.01375e-05
2.94147e-05
2.87199e-05
2.80518e-05
2.7409e-05
2.67904e-05
2.61948e-05
2.56212e-05
2.50686e-05
2.45362e-05
2.40231e-05
2.35287e-05
2.30523e-05
2.25933e-05
2.21511e-05
2.17253e-05
2.13155e-05
2.09212e-05
2.05422e-05
2.01781e-05
1.98288e-05
1.9494e-05
1.91737e-05
1.88678e-05
1.85762e-05
1.82991e-05
1.80365e-05
1.77887e-05
1.75561e-05
1.73392e-05
1.71389e-05
1.69564e-05
1.67932e-05
1.66518e-05
1.65355e-05
1.64487e-05
1.63983e-05
0.000939687
0.000835719
0.000745891
0.000668035
0.000600342
0.000541302
0.000489648
0.000444319
0.00040442
0.000369196
0.000338009
0.000310316
0.000285656
0.000263638
0.000243924
0.000226228
0.000210302
0.000195932
0.000182936
0.000171153
0.000160447
0.000150696
0.000141796
0.000133655
0.000126194
0.000119342
0.000113037
0.000107224
0.000101855
9.68877e-05
9.22839e-05
8.80098e-05
8.40355e-05
8.03342e-05
7.68817e-05
7.36568e-05
7.06399e-05
6.78139e-05
6.5163e-05
6.26733e-05
6.03318e-05
5.8127e-05
5.60486e-05
5.40869e-05
5.22334e-05
5.04801e-05
4.88199e-05
4.72462e-05
4.5753e-05
4.43348e-05
4.29865e-05
4.17036e-05
4.04817e-05
3.93169e-05
3.82057e-05
3.71447e-05
3.61308e-05
3.51613e-05
3.42334e-05
3.33448e-05
3.24932e-05
3.16766e-05
3.08929e-05
3.01406e-05
2.94178e-05
2.87231e-05
2.8055e-05
2.74123e-05
2.67937e-05
2.61981e-05
2.56245e-05
2.5072e-05
2.45396e-05
2.40266e-05
2.35322e-05
2.30558e-05
2.25968e-05
2.21547e-05
2.17289e-05
2.1319e-05
2.09247e-05
2.05456e-05
2.01815e-05
1.98322e-05
1.94973e-05
1.9177e-05
1.8871e-05
1.85793e-05
1.83021e-05
1.80393e-05
1.77914e-05
1.75587e-05
1.73417e-05
1.71412e-05
1.69586e-05
1.67953e-05
1.66538e-05
1.65373e-05
1.64504e-05
1.63999e-05
0.000939687
0.000835719
0.000745891
0.000668035
0.000600342
0.000541302
0.000489649
0.00044432
0.000404421
0.000369197
0.000338009
0.000310316
0.000285657
0.000263638
0.000243925
0.000226229
0.000210302
0.000195933
0.000182937
0.000171154
0.000160448
0.000150697
0.000141797
0.000133656
0.000126195
0.000119343
0.000113038
0.000107225
0.000101856
9.6889e-05
9.22852e-05
8.80112e-05
8.4037e-05
8.03357e-05
7.68833e-05
7.36584e-05
7.06416e-05
6.78156e-05
6.51648e-05
6.26751e-05
6.03336e-05
5.81289e-05
5.60506e-05
5.40889e-05
5.22355e-05
5.04823e-05
4.88221e-05
4.72484e-05
4.57553e-05
4.43371e-05
4.29889e-05
4.1706e-05
4.04841e-05
3.93194e-05
3.82083e-05
3.71473e-05
3.61335e-05
3.5164e-05
3.42362e-05
3.33477e-05
3.24962e-05
3.16796e-05
3.0896e-05
3.01437e-05
2.9421e-05
2.87263e-05
2.80583e-05
2.74156e-05
2.67971e-05
2.62015e-05
2.5628e-05
2.50755e-05
2.45431e-05
2.40302e-05
2.35358e-05
2.30594e-05
2.26005e-05
2.21583e-05
2.17325e-05
2.13226e-05
2.09283e-05
2.05492e-05
2.0185e-05
1.98356e-05
1.95008e-05
1.91803e-05
1.88742e-05
1.85825e-05
1.83051e-05
1.80423e-05
1.77942e-05
1.75613e-05
1.73442e-05
1.71436e-05
1.69608e-05
1.67974e-05
1.66557e-05
1.65391e-05
1.64522e-05
1.64017e-05
0.000939687
0.000835719
0.000745891
0.000668035
0.000600342
0.000541302
0.000489649
0.00044432
0.000404421
0.000369197
0.00033801
0.000310317
0.000285657
0.000263639
0.000243925
0.000226229
0.000210303
0.000195934
0.000182937
0.000171155
0.000160449
0.000150698
0.000141798
0.000133658
0.000126196
0.000119344
0.000113039
0.000107226
0.000101858
9.68904e-05
9.22867e-05
8.80127e-05
8.40385e-05
8.03372e-05
7.68849e-05
7.366e-05
7.06433e-05
6.78174e-05
6.51666e-05
6.26769e-05
6.03355e-05
5.81309e-05
5.60526e-05
5.4091e-05
5.22376e-05
5.04844e-05
4.88243e-05
4.72507e-05
4.57576e-05
4.43395e-05
4.29913e-05
4.17085e-05
4.04867e-05
3.93221e-05
3.8211e-05
3.71501e-05
3.61363e-05
3.51669e-05
3.42391e-05
3.33507e-05
3.24992e-05
3.16827e-05
3.08992e-05
3.01469e-05
2.94242e-05
2.87296e-05
2.80617e-05
2.7419e-05
2.68005e-05
2.62051e-05
2.56316e-05
2.50791e-05
2.45468e-05
2.40338e-05
2.35395e-05
2.30632e-05
2.26042e-05
2.2162e-05
2.17362e-05
2.13263e-05
2.0932e-05
2.05528e-05
2.01887e-05
1.98392e-05
1.95042e-05
1.91837e-05
1.88775e-05
1.85857e-05
1.83082e-05
1.80452e-05
1.77971e-05
1.7564e-05
1.73467e-05
1.7146e-05
1.6963e-05
1.67995e-05
1.66577e-05
1.6541e-05
1.64539e-05
1.64034e-05
0.000939687
0.000835719
0.000745891
0.000668035
0.000600343
0.000541302
0.000489649
0.00044432
0.000404421
0.000369198
0.00033801
0.000310317
0.000285658
0.000263639
0.000243926
0.00022623
0.000210304
0.000195934
0.000182938
0.000171156
0.000160449
0.000150699
0.000141799
0.000133659
0.000126198
0.000119345
0.00011304
0.000107228
0.000101859
9.68918e-05
9.22881e-05
8.80142e-05
8.404e-05
8.03388e-05
7.68865e-05
7.36617e-05
7.0645e-05
6.78191e-05
6.51684e-05
6.26788e-05
6.03374e-05
5.81329e-05
5.60546e-05
5.40931e-05
5.22397e-05
5.04866e-05
4.88266e-05
4.7253e-05
4.576e-05
4.43419e-05
4.29938e-05
4.1711e-05
4.04893e-05
3.93247e-05
3.82137e-05
3.71529e-05
3.61392e-05
3.51698e-05
3.42421e-05
3.33537e-05
3.25023e-05
3.16858e-05
3.09024e-05
3.01502e-05
2.94276e-05
2.8733e-05
2.80651e-05
2.74225e-05
2.68041e-05
2.62087e-05
2.56352e-05
2.50828e-05
2.45505e-05
2.40376e-05
2.35433e-05
2.3067e-05
2.2608e-05
2.21658e-05
2.174e-05
2.13301e-05
2.09357e-05
2.05566e-05
2.01923e-05
1.98428e-05
1.95078e-05
1.91872e-05
1.88809e-05
1.8589e-05
1.83114e-05
1.80483e-05
1.78e-05
1.75668e-05
1.73493e-05
1.71485e-05
1.69653e-05
1.68016e-05
1.66597e-05
1.65429e-05
1.64557e-05
1.64051e-05
0.000939687
0.000835719
0.000745891
0.000668035
0.000600343
0.000541302
0.000489649
0.00044432
0.000404422
0.000369198
0.00033801
0.000310318
0.000285658
0.00026364
0.000243927
0.000226231
0.000210304
0.000195935
0.000182939
0.000171157
0.00016045
0.0001507
0.0001418
0.00013366
0.000126199
0.000119347
0.000113042
0.000107229
0.00010186
9.68931e-05
9.22895e-05
8.80157e-05
8.40416e-05
8.03404e-05
7.68882e-05
7.36634e-05
7.06468e-05
6.78209e-05
6.51703e-05
6.26807e-05
6.03394e-05
5.81349e-05
5.60567e-05
5.40952e-05
5.22419e-05
5.04889e-05
4.88289e-05
4.72554e-05
4.57624e-05
4.43444e-05
4.29963e-05
4.17136e-05
4.0492e-05
3.93274e-05
3.82165e-05
3.71557e-05
3.61421e-05
3.51728e-05
3.42451e-05
3.33568e-05
3.25054e-05
3.1689e-05
3.09057e-05
3.01535e-05
2.9431e-05
2.87365e-05
2.80686e-05
2.74261e-05
2.68077e-05
2.62123e-05
2.56389e-05
2.50865e-05
2.45543e-05
2.40414e-05
2.35471e-05
2.30708e-05
2.26118e-05
2.21697e-05
2.17439e-05
2.1334e-05
2.09396e-05
2.05604e-05
2.01961e-05
1.98465e-05
1.95114e-05
1.91907e-05
1.88844e-05
1.85923e-05
1.83146e-05
1.80514e-05
1.78029e-05
1.75696e-05
1.7352e-05
1.71509e-05
1.69676e-05
1.68038e-05
1.66617e-05
1.65448e-05
1.64575e-05
1.64069e-05
0.000939687
0.000835719
0.000745891
0.000668035
0.000600343
0.000541303
0.000489649
0.000444321
0.000404422
0.000369198
0.000338011
0.000310318
0.000285659
0.000263641
0.000243927
0.000226231
0.000210305
0.000195936
0.00018294
0.000171158
0.000160451
0.000150701
0.000141801
0.000133661
0.0001262
0.000119348
0.000113043
0.00010723
0.000101862
9.68945e-05
9.2291e-05
8.80172e-05
8.40431e-05
8.0342e-05
7.68898e-05
7.36651e-05
7.06485e-05
6.78228e-05
6.51722e-05
6.26826e-05
6.03414e-05
5.81369e-05
5.60588e-05
5.40974e-05
5.22441e-05
5.04911e-05
4.88312e-05
4.72578e-05
4.57648e-05
4.43469e-05
4.29989e-05
4.17162e-05
4.04946e-05
3.93302e-05
3.82193e-05
3.71586e-05
3.6145e-05
3.51758e-05
3.42482e-05
3.33599e-05
3.25086e-05
3.16923e-05
3.0909e-05
3.01569e-05
2.94344e-05
2.87399e-05
2.80722e-05
2.74297e-05
2.68114e-05
2.6216e-05
2.56426e-05
2.50903e-05
2.45581e-05
2.40452e-05
2.3551e-05
2.30747e-05
2.26157e-05
2.21736e-05
2.17478e-05
2.13378e-05
2.09434e-05
2.05642e-05
2.01999e-05
1.98502e-05
1.95151e-05
1.91943e-05
1.88878e-05
1.85956e-05
1.83178e-05
1.80545e-05
1.78058e-05
1.75724e-05
1.73546e-05
1.71534e-05
1.697e-05
1.6806e-05
1.66637e-05
1.65467e-05
1.64594e-05
1.64086e-05
0.000939687
0.000835719
0.000745891
0.000668035
0.000600343
0.000541303
0.00048965
0.000444321
0.000404422
0.000369199
0.000338011
0.000310318
0.000285659
0.000263641
0.000243928
0.000226232
0.000210306
0.000195937
0.000182941
0.000171159
0.000160452
0.000150702
0.000141802
0.000133662
0.000126201
0.000119349
0.000113044
0.000107231
0.000101863
9.68959e-05
9.22924e-05
8.80187e-05
8.40447e-05
8.03436e-05
7.68915e-05
7.36668e-05
7.06503e-05
6.78246e-05
6.5174e-05
6.26845e-05
6.03434e-05
5.8139e-05
5.60609e-05
5.40995e-05
5.22463e-05
5.04934e-05
4.88335e-05
4.72602e-05
4.57673e-05
4.43494e-05
4.30015e-05
4.17189e-05
4.04973e-05
3.93329e-05
3.82221e-05
3.71615e-05
3.6148e-05
3.51788e-05
3.42513e-05
3.3363e-05
3.25118e-05
3.16955e-05
3.09123e-05
3.01603e-05
2.94378e-05
2.87435e-05
2.80757e-05
2.74333e-05
2.6815e-05
2.62197e-05
2.56464e-05
2.50941e-05
2.45619e-05
2.40491e-05
2.35549e-05
2.30786e-05
2.26197e-05
2.21775e-05
2.17517e-05
2.13418e-05
2.09473e-05
2.0568e-05
2.02036e-05
1.98539e-05
1.95187e-05
1.91979e-05
1.88913e-05
1.8599e-05
1.8321e-05
1.80576e-05
1.78088e-05
1.75752e-05
1.73573e-05
1.71559e-05
1.69723e-05
1.68081e-05
1.66658e-05
1.65486e-05
1.64611e-05
1.64104e-05
0.000939687
0.000835719
0.000745891
0.000668036
0.000600343
0.000541303
0.00048965
0.000444321
0.000404422
0.000369199
0.000338012
0.000310319
0.00028566
0.000263642
0.000243928
0.000226232
0.000210306
0.000195937
0.000182941
0.000171159
0.000160453
0.000150703
0.000141803
0.000133663
0.000126202
0.00011935
0.000113045
0.000107233
0.000101864
9.68973e-05
9.22938e-05
8.80202e-05
8.40462e-05
8.03452e-05
7.68931e-05
7.36685e-05
7.06521e-05
6.78264e-05
6.51759e-05
6.26865e-05
6.03454e-05
5.8141e-05
5.6063e-05
5.41017e-05
5.22485e-05
5.04957e-05
4.88359e-05
4.72625e-05
4.57697e-05
4.43519e-05
4.30041e-05
4.17215e-05
4.05e-05
3.93357e-05
3.82249e-05
3.71644e-05
3.61509e-05
3.51818e-05
3.42544e-05
3.33662e-05
3.2515e-05
3.16988e-05
3.09156e-05
3.01637e-05
2.94413e-05
2.8747e-05
2.80793e-05
2.74369e-05
2.68187e-05
2.62235e-05
2.56502e-05
2.50979e-05
2.45658e-05
2.4053e-05
2.35588e-05
2.30825e-05
2.26236e-05
2.21815e-05
2.17556e-05
2.13457e-05
2.09512e-05
2.05719e-05
2.02074e-05
1.98577e-05
1.95224e-05
1.92014e-05
1.88948e-05
1.86024e-05
1.83243e-05
1.80607e-05
1.78118e-05
1.7578e-05
1.73599e-05
1.71584e-05
1.69746e-05
1.68103e-05
1.66678e-05
1.65504e-05
1.64629e-05
1.64121e-05
0.000939687
0.000835719
0.000745891
0.000668036
0.000600343
0.000541303
0.00048965
0.000444321
0.000404423
0.000369199
0.000338012
0.000310319
0.00028566
0.000263642
0.000243929
0.000226233
0.000210307
0.000195938
0.000182942
0.00017116
0.000160454
0.000150704
0.000141804
0.000133664
0.000126203
0.000119351
0.000113046
0.000107234
0.000101866
9.68987e-05
9.22953e-05
8.80216e-05
8.40478e-05
8.03468e-05
7.68948e-05
7.36702e-05
7.06538e-05
6.78282e-05
6.51778e-05
6.26884e-05
6.03473e-05
5.8143e-05
5.6065e-05
5.41038e-05
5.22508e-05
5.04979e-05
4.88382e-05
4.72649e-05
4.57722e-05
4.43544e-05
4.30066e-05
4.17242e-05
4.05027e-05
3.93385e-05
3.82278e-05
3.71672e-05
3.61539e-05
3.51848e-05
3.42574e-05
3.33693e-05
3.25183e-05
3.17021e-05
3.0919e-05
3.01671e-05
2.94448e-05
2.87505e-05
2.80829e-05
2.74406e-05
2.68224e-05
2.62272e-05
2.5654e-05
2.51017e-05
2.45696e-05
2.40569e-05
2.35627e-05
2.30865e-05
2.26275e-05
2.21854e-05
2.17596e-05
2.13496e-05
2.09551e-05
2.05757e-05
2.02112e-05
1.98614e-05
1.9526e-05
1.9205e-05
1.88982e-05
1.86057e-05
1.83275e-05
1.80638e-05
1.78147e-05
1.75808e-05
1.73625e-05
1.71608e-05
1.69769e-05
1.68124e-05
1.66698e-05
1.65523e-05
1.64647e-05
1.64138e-05
0.000939687
0.000835719
0.000745891
0.000668036
0.000600343
0.000541303
0.00048965
0.000444322
0.000404423
0.000369199
0.000338012
0.00031032
0.000285661
0.000263643
0.00024393
0.000226234
0.000210308
0.000195939
0.000182943
0.000171161
0.000160455
0.000150704
0.000141805
0.000133665
0.000126204
0.000119352
0.000113048
0.000107235
0.000101867
9.69001e-05
9.22967e-05
8.80231e-05
8.40493e-05
8.03484e-05
7.68964e-05
7.36719e-05
7.06556e-05
6.783e-05
6.51796e-05
6.26903e-05
6.03493e-05
5.81451e-05
5.60671e-05
5.4106e-05
5.2253e-05
5.05002e-05
4.88405e-05
4.72673e-05
4.57746e-05
4.43569e-05
4.30092e-05
4.17268e-05
4.05054e-05
3.93412e-05
3.82306e-05
3.71701e-05
3.61568e-05
3.51878e-05
3.42605e-05
3.33725e-05
3.25214e-05
3.17054e-05
3.09223e-05
3.01705e-05
2.94482e-05
2.8754e-05
2.80864e-05
2.74442e-05
2.68261e-05
2.62309e-05
2.56577e-05
2.51055e-05
2.45735e-05
2.40607e-05
2.35666e-05
2.30904e-05
2.26314e-05
2.21893e-05
2.17635e-05
2.13535e-05
2.09589e-05
2.05795e-05
2.0215e-05
1.98651e-05
1.95297e-05
1.92086e-05
1.89017e-05
1.86091e-05
1.83307e-05
1.80668e-05
1.78176e-05
1.75835e-05
1.73651e-05
1.71633e-05
1.69792e-05
1.68145e-05
1.66717e-05
1.65541e-05
1.64664e-05
1.64155e-05
0.000939687
0.000835719
0.000745892
0.000668036
0.000600343
0.000541303
0.00048965
0.000444322
0.000404423
0.0003692
0.000338013
0.00031032
0.000285661
0.000263643
0.00024393
0.000226234
0.000210308
0.000195939
0.000182944
0.000171162
0.000160456
0.000150705
0.000141806
0.000133666
0.000126205
0.000119354
0.000113049
0.000107236
0.000101868
9.69014e-05
9.22981e-05
8.80246e-05
8.40508e-05
8.03499e-05
7.6898e-05
7.36736e-05
7.06573e-05
6.78318e-05
6.51815e-05
6.26922e-05
6.03513e-05
5.81471e-05
5.60692e-05
5.41081e-05
5.22551e-05
5.05024e-05
4.88428e-05
4.72697e-05
4.5777e-05
4.43594e-05
4.30117e-05
4.17294e-05
4.05081e-05
3.9344e-05
3.82334e-05
3.7173e-05
3.61597e-05
3.51908e-05
3.42636e-05
3.33756e-05
3.25246e-05
3.17086e-05
3.09256e-05
3.01738e-05
2.94516e-05
2.87575e-05