/*--------------------------------*- C++ -*----------------------------------*\
  =========                 |
  \\      /  F ield         | OpenFOAM: The Open Source CFD Toolbox
   \\    /   O peration     | Website:  https://openfoam.org
    \\  /    A nd           | Version:  11
     \\/     M anipulation  |
\*---------------------------------------------------------------------------*/
FoamFile
{
    format      ascii;
    class       volScalarField;
    location    "606";
    object      p;
}
// * * * * * * * * * * * * * * * * * * * * * * * * * * * * * * * * * * * * * //

dimensions      [0 2 -2 0 0 0 0];

internalField   nonuniform List<scalar> 
10000
(
2.75507e-09
2.68712e-09
2.79827e-09
3.02498e-09
3.28619e-09
3.56354e-09
3.8562e-09
4.16423e-09
4.4878e-09
4.82758e-09
5.18453e-09
5.55972e-09
5.95426e-09
6.36933e-09
6.80613e-09
7.26588e-09
7.74982e-09
8.25924e-09
8.79542e-09
9.3597e-09
9.95342e-09
1.05779e-08
1.12347e-08
1.1925e-08
1.26505e-08
1.34125e-08
1.42125e-08
1.50521e-08
1.59328e-08
1.68562e-08
1.78238e-08
1.88373e-08
1.98982e-08
2.10081e-08
2.21687e-08
2.33816e-08
2.46483e-08
2.59706e-08
2.73498e-08
2.87878e-08
3.02858e-08
3.18455e-08
3.34682e-08
3.51553e-08
3.69082e-08
3.8728e-08
4.06158e-08
4.25727e-08
4.45995e-08
4.66969e-08
4.88654e-08
5.11055e-08
5.34173e-08
5.58006e-08
5.82551e-08
6.078e-08
6.33744e-08
6.60369e-08
6.87656e-08
7.15582e-08
7.4412e-08
7.73234e-08
8.02885e-08
8.33026e-08
8.636e-08
8.94545e-08
9.25786e-08
9.5724e-08
9.88809e-08
1.02039e-07
1.05185e-07
1.08306e-07
1.11385e-07
1.14406e-07
1.17348e-07
1.2019e-07
1.22906e-07
1.2547e-07
1.2785e-07
1.30013e-07
1.31919e-07
1.33527e-07
1.3479e-07
1.35655e-07
1.36064e-07
1.35952e-07
1.35247e-07
1.33867e-07
1.31723e-07
1.2871e-07
1.24712e-07
1.1959e-07
1.13184e-07
1.05279e-07
9.55594e-08
8.36887e-08
7.03126e-08
5.40616e-08
2.99041e-08
1.30077e-09
4.96547e-09
4.6621e-09
4.4833e-09
4.56571e-09
4.76333e-09
5.01794e-09
5.3148e-09
5.64646e-09
6.00807e-09
6.39716e-09
6.81273e-09
7.2546e-09
7.72308e-09
8.21881e-09
8.74265e-09
9.29562e-09
9.87886e-09
1.04936e-08
1.11412e-08
1.1823e-08
1.25404e-08
1.32949e-08
1.4088e-08
1.49214e-08
1.57965e-08
1.67151e-08
1.76788e-08
1.86893e-08
1.97482e-08
2.08574e-08
2.20186e-08
2.32336e-08
2.45041e-08
2.58319e-08
2.72188e-08
2.86665e-08
3.01768e-08
3.17514e-08
3.33921e-08
3.51004e-08
3.6878e-08
3.87264e-08
4.06471e-08
4.26415e-08
4.47108e-08
4.68563e-08
4.90789e-08
5.13795e-08
5.37588e-08
5.62174e-08
5.87555e-08
6.13731e-08
6.407e-08
6.68456e-08
6.9699e-08
7.26288e-08
7.56335e-08
7.87106e-08
8.18575e-08
8.50709e-08
8.83466e-08
9.16801e-08
9.50657e-08
9.8497e-08
1.01967e-07
1.05466e-07
1.08986e-07
1.12515e-07
1.16041e-07
1.1955e-07
1.23026e-07
1.26451e-07
1.29805e-07
1.33066e-07
1.36209e-07
1.39207e-07
1.42027e-07
1.44636e-07
1.46994e-07
1.4906e-07
1.50785e-07
1.52117e-07
1.52996e-07
1.53358e-07
1.53129e-07
1.5223e-07
1.5057e-07
1.48049e-07
1.44553e-07
1.39955e-07
1.34108e-07
1.26845e-07
1.17967e-07
1.07224e-07
9.42976e-08
7.89722e-08
6.14523e-08
3.83949e-08
3.94588e-09
-2.41042e-08
5.81961e-09
5.36462e-09
4.97734e-09
4.87066e-09
4.90941e-09
5.02884e-09
5.2079e-09
5.43434e-09
5.69947e-09
5.99788e-09
6.32637e-09
6.68307e-09
7.06696e-09
7.47763e-09
7.91508e-09
8.3796e-09
8.87168e-09
9.39201e-09
9.94138e-09
1.05207e-08
1.11309e-08
1.17731e-08
1.24484e-08
1.3158e-08
1.3903e-08
1.46846e-08
1.55042e-08
1.63631e-08
1.72624e-08
1.82037e-08
1.91882e-08
2.02173e-08
2.12922e-08
2.24145e-08
2.35854e-08
2.48062e-08
2.60782e-08
2.74028e-08
2.87811e-08
3.02144e-08
3.17037e-08
3.32503e-08
3.4855e-08
3.65188e-08
3.82425e-08
4.00268e-08
4.18723e-08
4.37793e-08
4.57481e-08
4.77789e-08
4.98713e-08
5.20251e-08
5.42396e-08
5.65138e-08
5.88465e-08
6.1236e-08
6.36803e-08
6.61769e-08
6.87228e-08
7.13145e-08
7.39479e-08
7.66183e-08
7.932e-08
8.20468e-08
8.47915e-08
8.75458e-08
9.03005e-08
9.30451e-08
9.57677e-08
9.84551e-08
1.01092e-07
1.03663e-07
1.06148e-07
1.08527e-07
1.10776e-07
1.12871e-07
1.14781e-07
1.16475e-07
1.17919e-07
1.19071e-07
1.1989e-07
1.20327e-07
1.20327e-07
1.19834e-07
1.1878e-07
1.17094e-07
1.14694e-07
1.11493e-07
1.07389e-07
1.02272e-07
9.60146e-08
8.8474e-08
7.94849e-08
6.88471e-08
5.63326e-08
4.18259e-08
2.53049e-08
4.03363e-09
-2.82393e-08
-4.56666e-08
6.485e-09
5.98904e-09
5.55685e-09
5.37335e-09
5.33169e-09
5.37828e-09
5.49335e-09
5.66374e-09
5.87944e-09
6.13372e-09
6.42215e-09
6.74185e-09
7.09098e-09
7.46842e-09
7.8736e-09
8.30632e-09
8.76668e-09
9.25501e-09
9.77178e-09
1.03176e-08
1.08932e-08
1.14995e-08
1.21372e-08
1.28074e-08
1.3511e-08
1.4249e-08
1.50226e-08
1.58328e-08
1.66808e-08
1.75676e-08
1.84944e-08
1.94624e-08
2.04726e-08
2.15263e-08
2.26246e-08
2.37685e-08
2.49591e-08
2.61975e-08
2.74847e-08
2.88216e-08
3.02091e-08
3.16481e-08
3.31391e-08
3.4683e-08
3.62802e-08
3.79312e-08
3.96361e-08
4.13951e-08
4.32082e-08
4.5075e-08
4.69952e-08
4.89679e-08
5.09922e-08
5.30668e-08
5.519e-08
5.73599e-08
5.95741e-08
6.18297e-08
6.41233e-08
6.64511e-08
6.88086e-08
7.11905e-08
7.35911e-08
7.60035e-08
7.84201e-08
8.08324e-08
8.32306e-08
8.5604e-08
8.79402e-08
9.02255e-08
9.24449e-08
9.4581e-08
9.66151e-08
9.8526e-08
1.0029e-07
1.01882e-07
1.03271e-07
1.04427e-07
1.05314e-07
1.05892e-07
1.06119e-07
1.05946e-07
1.05321e-07
1.04186e-07
1.02476e-07
1.00121e-07
9.70447e-08
9.31597e-08
8.83719e-08
8.25764e-08
7.56566e-08
6.74829e-08
5.79086e-08
4.67608e-08
3.38567e-08
1.91438e-08
2.57707e-09
-1.86055e-08
-5.08486e-08
-6.15365e-08
7.00038e-09
6.51534e-09
6.08933e-09
5.87616e-09
5.79194e-09
5.79547e-09
5.87051e-09
6.00479e-09
6.18845e-09
6.4144e-09
6.67773e-09
6.97499e-09
7.30384e-09
7.6627e-09
8.0506e-09
8.467e-09
8.91168e-09
9.38471e-09
9.88632e-09
1.04169e-08
1.09771e-08
1.15674e-08
1.21886e-08
1.28415e-08
1.35269e-08
1.42457e-08
1.49988e-08
1.57873e-08
1.66119e-08
1.74738e-08
1.83739e-08
1.93132e-08
2.02928e-08
2.13135e-08
2.23764e-08
2.34824e-08
2.46323e-08
2.58272e-08
2.70677e-08
2.83546e-08
2.96886e-08
3.10704e-08
3.25004e-08
3.39791e-08
3.55067e-08
3.70834e-08
3.87093e-08
4.03842e-08
4.21077e-08
4.38793e-08
4.56983e-08
4.75635e-08
4.94738e-08
5.14274e-08
5.34225e-08
5.54566e-08
5.75269e-08
5.96304e-08
6.17631e-08
6.39208e-08
6.60986e-08
6.82908e-08
7.04911e-08
7.26923e-08
7.48863e-08
7.70639e-08
7.92149e-08
8.13279e-08
8.33902e-08
8.53873e-08
8.73036e-08
8.91213e-08
9.08208e-08
9.23803e-08
9.37757e-08
9.49803e-08
9.59645e-08
9.66958e-08
9.71381e-08
9.72517e-08
9.6993e-08
9.6314e-08
9.51619e-08
9.3479e-08
9.12018e-08
8.82611e-08
8.45809e-08
8.00785e-08
7.46631e-08
6.82358e-08
6.06885e-08
5.19034e-08
4.17504e-08
3.00795e-08
1.67439e-08
1.75282e-09
-1.49113e-08
-3.62176e-08
-6.86454e-08
-7.48977e-08
7.36707e-09
6.91068e-09
6.5025e-09
6.27657e-09
6.16578e-09
6.13853e-09
6.18211e-09
6.28591e-09
6.44086e-09
6.64012e-09
6.87871e-09
7.15295e-09
7.4602e-09
7.79859e-09
8.16685e-09
8.56418e-09
8.9901e-09
9.44445e-09
9.92726e-09
1.04388e-08
1.09793e-08
1.15493e-08
1.21493e-08
1.27801e-08
1.34422e-08
1.41364e-08
1.48635e-08
1.56243e-08
1.64195e-08
1.72502e-08
1.8117e-08
1.90208e-08
1.99625e-08
2.09429e-08
2.19627e-08
2.30228e-08
2.41239e-08
2.52666e-08
2.64516e-08
2.76795e-08
2.89506e-08
3.02656e-08
3.16245e-08
3.30278e-08
3.44753e-08
3.5967e-08
3.75028e-08
3.90822e-08
4.07045e-08
4.23691e-08
4.40749e-08
4.58204e-08
4.76042e-08
4.94243e-08
5.12785e-08
5.31639e-08
5.50777e-08
5.70161e-08
5.8975e-08
6.09499e-08
6.29354e-08
6.49255e-08
6.69135e-08
6.88918e-08
7.08518e-08
7.27842e-08
7.46781e-08
7.65218e-08
7.83021e-08
8.00044e-08
8.16123e-08
8.31078e-08
8.4471e-08
8.56796e-08
8.67094e-08
8.75332e-08
8.81215e-08
8.84413e-08
8.84568e-08
8.81284e-08
8.74128e-08
8.62624e-08
8.46255e-08
8.24454e-08
7.96606e-08
7.62042e-08
7.20036e-08
6.69802e-08
6.10494e-08
5.41199e-08
4.60943e-08
3.6869e-08
2.63323e-08
1.43593e-08
8.39728e-10
-1.41609e-08
-3.06268e-08
-5.16675e-08
-8.3373e-08
-8.63759e-08
7.63214e-09
7.20685e-09
6.82048e-09
6.59184e-09
6.46547e-09
6.41678e-09
6.4362e-09
6.51489e-09
6.64489e-09
6.8199e-09
7.03512e-09
7.2869e-09
7.57249e-09
7.88984e-09
8.23749e-09
8.61445e-09
9.02005e-09
9.45392e-09
9.91593e-09
1.04061e-08
1.09247e-08
1.14719e-08
1.20481e-08
1.2654e-08
1.32899e-08
1.39565e-08
1.46544e-08
1.53843e-08
1.61468e-08
1.69427e-08
1.77726e-08
1.86372e-08
1.95372e-08
2.04733e-08
2.1446e-08
2.24561e-08
2.35039e-08
2.45902e-08
2.57152e-08
2.68794e-08
2.80831e-08
2.93265e-08
3.06096e-08
3.19325e-08
3.3295e-08
3.46967e-08
3.61374e-08
3.76162e-08
3.91324e-08
4.06849e-08
4.22724e-08
4.38933e-08
4.55458e-08
4.72276e-08
4.89361e-08
5.06685e-08
5.24213e-08
5.41906e-08
5.5972e-08
5.77606e-08
5.95507e-08
6.13361e-08
6.31096e-08
6.48635e-08
6.65888e-08
6.82757e-08
6.99133e-08
7.14896e-08
7.29909e-08
7.44024e-08
7.57076e-08
7.68882e-08
7.79241e-08
7.8793e-08
7.94705e-08
7.99297e-08
8.01409e-08
8.00716e-08
7.96863e-08
7.89459e-08
7.78081e-08
7.62264e-08
7.41504e-08
7.15257e-08
6.82931e-08
6.43889e-08
5.97447e-08
5.42875e-08
4.79395e-08
4.06182e-08
3.22377e-08
2.2709e-08
1.19396e-08
-1.71046e-10
-1.36988e-08
-2.853e-08
-4.4615e-08
-6.51261e-08
-9.5587e-08
-9.59228e-08
7.82574e-09
7.42982e-09
7.0661e-09
6.8408e-09
6.70651e-09
6.6437e-09
6.64526e-09
6.70404e-09
6.81319e-09
6.9671e-09
7.16132e-09
7.39234e-09
7.65743e-09
7.9545e-09
8.28198e-09
8.63875e-09
9.024e-09
9.43721e-09
9.8781e-09
1.03466e-08
1.08426e-08
1.13665e-08
1.19183e-08
1.24986e-08
1.31076e-08
1.37459e-08
1.44139e-08
1.51121e-08
1.58411e-08
1.66015e-08
1.73937e-08
1.82184e-08
1.9076e-08
1.99671e-08
2.08921e-08
2.18515e-08
2.28457e-08
2.3875e-08
2.49396e-08
2.60398e-08
2.71757e-08
2.83473e-08
2.95545e-08
3.07971e-08
3.20747e-08
3.33869e-08
3.47328e-08
3.61118e-08
3.75227e-08
3.89641e-08
4.04347e-08
4.19325e-08
4.34554e-08
4.50009e-08
4.65663e-08
4.81484e-08
4.97433e-08
5.13471e-08
5.29551e-08
5.4562e-08
5.61619e-08
5.77483e-08
5.93138e-08
6.08503e-08
6.23488e-08
6.37991e-08
6.51902e-08
6.65097e-08
6.77439e-08
6.88779e-08
6.98949e-08
7.07767e-08
7.1503e-08
7.20519e-08
7.23988e-08
7.25171e-08
7.23775e-08
7.19482e-08
7.1194e-08
7.00772e-08
6.85561e-08
6.65862e-08
6.41188e-08
6.11017e-08
5.74789e-08
5.31904e-08
4.81725e-08
4.23578e-08
3.56758e-08
2.80532e-08
1.94153e-08
9.68707e-09
-1.20634e-09
-1.3344e-08
-2.6773e-08
-4.13429e-08
-5.69874e-08
-7.69615e-08
-1.06291e-07
-1.04381e-07
7.96327e-09
7.59417e-09
7.25211e-09
7.03331e-09
6.89598e-09
6.82413e-09
6.8126e-09
6.85563e-09
6.94741e-09
7.08301e-09
7.25841e-09
7.47034e-09
7.71617e-09
7.99383e-09
8.30173e-09
8.63864e-09
9.00369e-09
9.39623e-09
9.81587e-09
1.02624e-08
1.07357e-08
1.12357e-08
1.17628e-08
1.2317e-08
1.28987e-08
1.35081e-08
1.41456e-08
1.48117e-08
1.55067e-08
1.6231e-08
1.69851e-08
1.77693e-08
1.85841e-08
1.94298e-08
2.03067e-08
2.12151e-08
2.21553e-08
2.31274e-08
2.41316e-08
2.51677e-08
2.62359e-08
2.73359e-08
2.84675e-08
2.96302e-08
3.08235e-08
3.20466e-08
3.32988e-08
3.45789e-08
3.58857e-08
3.72176e-08
3.85729e-08
3.99495e-08
4.13451e-08
4.2757e-08
4.41821e-08
4.56171e-08
4.7058e-08
4.85004e-08
4.99394e-08
5.13697e-08
5.2785e-08
5.41786e-08
5.5543e-08
5.68699e-08
5.815e-08
5.9373e-08
6.05277e-08
6.16017e-08
6.25812e-08
6.34511e-08
6.41948e-08
6.47941e-08
6.52289e-08
6.54773e-08
6.55151e-08
6.53163e-08
6.4852e-08
6.4091e-08
6.29993e-08
6.154e-08
5.96733e-08
5.7356e-08
5.4542e-08
5.11815e-08
4.72218e-08
4.2607e-08
3.72781e-08
3.11738e-08
2.42306e-08
1.63841e-08
7.57008e-09
-2.27332e-09
-1.32057e-08
-2.5288e-08
-3.8545e-08
-5.27977e-08
-6.79769e-08
-8.74741e-08
-1.1603e-07
-1.1214e-07
8.05443e-09
7.70948e-09
7.38757e-09
7.17671e-09
7.03932e-09
6.96194e-09
6.9408e-09
6.97127e-09
7.04847e-09
7.1681e-09
7.32657e-09
7.52089e-09
7.74859e-09
8.00767e-09
8.29654e-09
8.61395e-09
8.95896e-09
9.33086e-09
9.72914e-09
1.01535e-08
1.06037e-08
1.10797e-08
1.15815e-08
1.21092e-08
1.2663e-08
1.32431e-08
1.38497e-08
1.44831e-08
1.51436e-08
1.58314e-08
1.65468e-08
1.72901e-08
1.80616e-08
1.88615e-08
1.96899e-08
2.05471e-08
2.1433e-08
2.23477e-08
2.32912e-08
2.42633e-08
2.52638e-08
2.62924e-08
2.73485e-08
2.84317e-08
2.95411e-08
3.0676e-08
3.18352e-08
3.30175e-08
3.42213e-08
3.54451e-08
3.66868e-08
3.79441e-08
3.92146e-08
4.04954e-08
4.17831e-08
4.30742e-08
4.43645e-08
4.56496e-08
4.69242e-08
4.81828e-08
4.94191e-08
5.06261e-08
5.17962e-08
5.29208e-08
5.39907e-08
5.49955e-08
5.59239e-08
5.67633e-08
5.75001e-08
5.81192e-08
5.86042e-08
5.89368e-08
5.90974e-08
5.90644e-08
5.88141e-08
5.83208e-08
5.75566e-08
5.64912e-08
5.50916e-08
5.33223e-08
5.11451e-08
4.85189e-08
4.53997e-08
4.17409e-08
3.7493e-08
3.26042e-08
2.70204e-08
2.06861e-08
1.35447e-08
5.53993e-09
-3.38255e-09
-1.32731e-08
-2.41778e-08
-3.61423e-08
-4.91723e-08
-6.30588e-08
-7.771e-08
-9.6668e-08
-1.24863e-07
-1.18684e-07
8.10613e-09
7.78291e-09
7.47958e-09
7.27731e-09
7.14173e-09
7.06121e-09
7.03301e-09
7.05341e-09
7.11828e-09
7.22389e-09
7.36708e-09
7.54513e-09
7.75575e-09
7.99704e-09
8.26746e-09
8.56577e-09
8.89097e-09
9.24232e-09
9.61924e-09
1.00213e-08
1.04483e-08
1.08999e-08
1.13762e-08
1.18772e-08
1.24028e-08
1.29531e-08
1.35284e-08
1.41287e-08
1.47542e-08
1.54052e-08
1.60816e-08
1.67837e-08
1.75116e-08
1.82654e-08
1.90452e-08
1.98509e-08
2.06824e-08
2.15397e-08
2.24226e-08
2.33308e-08
2.42638e-08
2.52212e-08
2.62024e-08
2.72067e-08
2.8233e-08
2.92805e-08
3.03477e-08
3.14334e-08
3.25358e-08
3.36531e-08
3.47831e-08
3.59234e-08
3.70712e-08
3.82235e-08
3.9377e-08
4.05276e-08
4.16713e-08
4.28032e-08
4.39181e-08
4.50103e-08
4.60733e-08
4.71001e-08
4.80828e-08
4.9013e-08
4.98812e-08
5.0677e-08
5.13891e-08
5.20051e-08
5.25113e-08
5.28928e-08
5.31334e-08
5.32152e-08
5.31188e-08
5.2823e-08
5.23048e-08
5.15393e-08
5.04993e-08
4.91555e-08
4.74763e-08
4.54277e-08
4.29731e-08
4.00736e-08
3.66878e-08
3.27718e-08
2.82798e-08
2.31638e-08
1.73745e-08
1.08619e-08
3.57584e-09
-4.53247e-09
-1.35087e-08
-2.33933e-08
-3.42206e-08
-4.60235e-08
-5.87915e-08
-7.22829e-08
-8.63609e-08
-1.0472e-07
-1.329e-07
-1.24175e-07
8.12355e-09
7.82007e-09
7.53392e-09
7.3404e-09
7.20777e-09
7.12578e-09
7.09241e-09
7.10465e-09
7.15899e-09
7.25222e-09
7.38155e-09
7.54451e-09
7.73902e-09
7.96329e-09
8.21585e-09
8.49547e-09
8.80116e-09
9.13213e-09
9.48776e-09
9.86756e-09
1.02712e-08
1.06984e-08
1.1149e-08
1.16229e-08
1.21201e-08
1.26405e-08
1.31842e-08
1.37512e-08
1.43416e-08
1.49553e-08
1.55926e-08
1.62533e-08
1.69375e-08
1.76451e-08
1.83762e-08
1.91304e-08
1.99077e-08
2.07078e-08
2.15303e-08
2.23748e-08
2.32408e-08
2.41277e-08
2.50346e-08
2.59607e-08
2.69049e-08
2.78661e-08
2.88427e-08
2.98332e-08
3.08359e-08
3.18486e-08
3.2869e-08
3.38946e-08
3.49225e-08
3.59495e-08
3.69719e-08
3.79859e-08
3.8987e-08
3.99703e-08
4.09306e-08
4.18618e-08
4.27576e-08
4.36107e-08
4.44134e-08
4.51569e-08
4.5832e-08
4.64282e-08
4.69343e-08
4.7338e-08
4.76258e-08
4.77829e-08
4.77934e-08
4.76399e-08
4.73033e-08
4.6763e-08
4.59968e-08
4.49803e-08
4.36876e-08
4.20904e-08
4.01584e-08
3.78592e-08
3.51582e-08
3.20185e-08
2.84013e-08
2.42656e-08
1.95689e-08
1.42672e-08
8.31556e-09
1.66902e-09
-5.71669e-09
-1.38838e-08
-2.28707e-08
-3.27091e-08
-4.34243e-08
-5.50395e-08
-6.75326e-08
-8.06343e-08
-9.41693e-08
-1.12013e-07
-1.40432e-07
-1.29492e-07
8.11078e-09
7.82536e-09
7.55519e-09
7.37038e-09
7.2414e-09
7.15907e-09
7.12192e-09
7.12749e-09
7.17276e-09
7.25496e-09
7.37162e-09
7.52055e-09
7.69983e-09
7.90781e-09
8.14308e-09
8.40446e-09
8.69096e-09
9.00177e-09
9.33624e-09
9.69385e-09
1.00742e-08
1.04769e-08
1.09017e-08
1.13485e-08
1.18171e-08
1.23074e-08
1.28194e-08
1.3353e-08
1.39081e-08
1.44846e-08
1.50826e-08
1.57019e-08
1.63424e-08
1.70039e-08
1.76863e-08
1.83893e-08
1.91126e-08
1.98557e-08
2.06183e-08
2.13997e-08
2.21993e-08
2.30163e-08
2.38498e-08
2.46987e-08
2.5562e-08
2.64381e-08
2.73256e-08
2.82227e-08
2.91275e-08
3.00377e-08
3.0951e-08
3.18646e-08
3.27754e-08
3.36803e-08
3.45753e-08
3.54565e-08
3.63193e-08
3.71588e-08
3.79696e-08
3.87456e-08
3.94803e-08
4.01665e-08
4.07964e-08
4.13613e-08
4.1852e-08
4.22581e-08
4.25685e-08
4.27709e-08
4.28523e-08
4.2798e-08
4.25926e-08
4.22189e-08
4.16585e-08
4.08914e-08
3.98961e-08
3.86492e-08
3.71257e-08
3.52986e-08
3.31391e-08
3.06162e-08
2.76974e-08
2.43479e-08
2.05313e-08
1.62097e-08
1.13434e-08
5.8924e-09
-1.84269e-10
-6.92699e-09
-1.43749e-08
-2.25646e-08
-3.15283e-08
-4.1291e-08
-5.18712e-08
-6.32852e-08
-7.55042e-08
-8.82383e-08
-1.01285e-07
-1.18723e-07
-1.47584e-07
-1.34857e-07
8.07117e-09
7.80249e-09
7.54727e-09
7.37098e-09
7.24607e-09
7.1642e-09
7.1243e-09
7.12432e-09
7.16168e-09
7.23397e-09
7.339e-09
7.47481e-09
7.63965e-09
7.83201e-09
8.05055e-09
8.29413e-09
8.5618e-09
8.85272e-09
9.16623e-09
9.50176e-09
9.85884e-09
1.02371e-08
1.06362e-08
1.10558e-08
1.14959e-08
1.19561e-08
1.24363e-08
1.29364e-08
1.34562e-08
1.39956e-08
1.45544e-08
1.51323e-08
1.57292e-08
1.63449e-08
1.69789e-08
1.76309e-08
1.83005e-08
1.89872e-08
1.96903e-08
2.04093e-08
2.11432e-08
2.18913e-08
2.26524e-08
2.34254e-08
2.42089e-08
2.50015e-08
2.58015e-08
2.66071e-08
2.7416e-08
2.82261e-08
2.90348e-08
2.98391e-08
3.06361e-08
3.14222e-08
3.21935e-08
3.2946e-08
3.36751e-08
3.43756e-08
3.50422e-08
3.56687e-08
3.62487e-08
3.67748e-08
3.72394e-08
3.76338e-08
3.79487e-08
3.8174e-08
3.82988e-08
3.83111e-08
3.81978e-08
3.7945e-08
3.75373e-08
3.69582e-08
3.61898e-08
3.5213e-08
3.40069e-08
3.2549e-08
3.08156e-08
2.87807e-08
2.64171e-08
2.36956e-08
2.05853e-08
1.70537e-08
1.30667e-08
8.58913e-09
3.58452e-09
-1.98409e-09
-8.15374e-09
-1.49608e-08
-2.244e-08
-3.06233e-08
-3.95377e-08
-4.92032e-08
-5.96331e-08
-7.08399e-08
-8.27906e-08
-9.51803e-08
-1.07785e-07
-1.24881e-07
-1.54227e-07
-1.39937e-07
8.00764e-09
7.75459e-09
7.51342e-09
7.34545e-09
7.22483e-09
7.14396e-09
7.10206e-09
7.09743e-09
7.12781e-09
7.19111e-09
7.28538e-09
7.40887e-09
7.56e-09
7.73736e-09
7.9397e-09
8.16594e-09
8.41514e-09
8.68648e-09
8.97927e-09
9.29291e-09
9.62689e-09
9.98078e-09
1.03542e-08
1.07468e-08
1.11583e-08
1.15885e-08
1.20371e-08
1.25038e-08
1.29884e-08
1.34907e-08
1.40105e-08
1.45473e-08
1.51009e-08
1.56709e-08
1.62569e-08
1.68584e-08
1.74749e-08
1.81057e-08
1.87502e-08
1.94075e-08
2.00767e-08
2.07568e-08
2.14467e-08
2.2145e-08
2.28503e-08
2.3561e-08
2.42754e-08
2.49913e-08
2.57067e-08
2.64191e-08
2.71259e-08
2.7824e-08
2.85102e-08
2.91811e-08
2.98327e-08
3.04607e-08
3.10606e-08
3.16271e-08
3.21549e-08
3.26379e-08
3.30694e-08
3.34424e-08
3.3749e-08
3.39808e-08
3.41287e-08
3.41826e-08
3.41318e-08
3.39646e-08
3.36684e-08
3.32293e-08
3.26327e-08
3.18625e-08
3.09014e-08
2.97311e-08
2.83314e-08
2.66811e-08
2.47572e-08
2.25354e-08
1.99896e-08
1.70923e-08
1.38146e-08
1.0126e-08
5.99469e-09
1.38798e-09
-3.72773e-09
-9.38635e-09
-1.56216e-08
-2.24663e-08
-2.99515e-08
-3.8105e-08
-4.69501e-08
-5.65027e-08
-6.67726e-08
-7.77699e-08
-8.94599e-08
-1.01525e-07
-1.13724e-07
-1.30511e-07
-1.6031e-07
-1.44611e-07
7.92276e-09
7.68442e-09
7.45657e-09
7.29664e-09
7.18042e-09
7.10093e-09
7.0576e-09
7.04899e-09
7.07315e-09
7.12822e-09
7.21248e-09
7.32436e-09
7.46241e-09
7.62535e-09
7.81201e-09
8.02135e-09
8.25246e-09
8.50454e-09
8.77689e-09
9.06888e-09
9.37998e-09
9.7097e-09
1.00576e-08
1.04233e-08
1.08065e-08
1.12068e-08
1.16238e-08
1.20573e-08
1.2507e-08
1.29725e-08
1.34534e-08
1.39494e-08
1.44601e-08
1.49849e-08
1.55234e-08
1.6075e-08
1.66389e-08
1.72146e-08
1.78012e-08
1.83978e-08
1.90033e-08
1.96167e-08
2.02366e-08
2.08617e-08
2.14904e-08
2.2121e-08
2.27517e-08
2.33802e-08
2.40044e-08
2.46217e-08
2.52293e-08
2.58242e-08
2.64032e-08
2.69625e-08
2.74983e-08
2.80062e-08
2.84815e-08
2.89192e-08
2.93136e-08
2.96589e-08
2.99484e-08
3.0175e-08
3.03311e-08
3.04083e-08
3.03977e-08
3.02894e-08
3.00729e-08
2.97368e-08
2.92688e-08
2.86555e-08
2.78828e-08
2.69352e-08
2.5796e-08
2.44476e-08
2.28708e-08
2.10453e-08
1.89493e-08
1.65597e-08
1.38519e-08
1.08001e-08
7.37685e-09
3.55384e-09
-6.98531e-10
-5.41069e-09
-1.06136e-08
-1.63385e-08
-2.26161e-08
-2.94761e-08
-3.69464e-08
-4.50518e-08
-5.38121e-08
-6.32406e-08
-7.33443e-08
-8.41322e-08
-9.55688e-08
-1.07326e-07
-1.19146e-07
-1.35644e-07
-1.65838e-07
-1.48861e-07
7.81885e-09
7.59443e-09
7.37923e-09
7.22711e-09
7.11533e-09
7.03747e-09
6.99312e-09
6.98108e-09
6.99962e-09
7.0471e-09
7.12199e-09
7.22287e-09
7.34844e-09
7.49749e-09
7.66895e-09
7.86183e-09
8.07526e-09
8.30843e-09
8.56065e-09
8.83128e-09
9.11975e-09
9.42554e-09
9.74817e-09
1.00872e-08
1.04422e-08
1.08128e-08
1.11986e-08
1.15992e-08
1.20142e-08
1.24432e-08
1.28858e-08
1.33414e-08
1.38095e-08
1.42897e-08
1.47813e-08
1.52835e-08
1.57958e-08
1.63172e-08
1.68468e-08
1.73837e-08
1.79267e-08
1.84746e-08
1.9026e-08
1.95795e-08
2.01333e-08
2.06857e-08
2.12347e-08
2.17781e-08
2.23136e-08
2.28384e-08
2.33499e-08
2.38449e-08
2.43199e-08
2.47715e-08
2.51955e-08
2.55876e-08
2.59431e-08
2.6257e-08
2.65237e-08
2.67371e-08
2.6891e-08
2.69781e-08
2.6991e-08
2.69215e-08
2.67607e-08
2.64991e-08
2.61265e-08
2.56317e-08
2.50029e-08
2.42271e-08
2.32906e-08
2.21786e-08
2.08752e-08
1.93633e-08
1.76249e-08
1.56405e-08
1.33894e-08
1.08499e-08
7.99862e-09
4.81134e-09
1.26248e-09
-2.67457e-09
-7.02736e-09
-1.18241e-08
-1.70935e-08
-2.28642e-08
-2.91644e-08
-3.60213e-08
-4.34599e-08
-5.15024e-08
-6.01663e-08
-6.94625e-08
-7.93963e-08
-8.99761e-08
-1.01166e-07
-1.12629e-07
-1.24092e-07
-1.40313e-07
-1.70832e-07
-1.52697e-07
7.69807e-09
7.48689e-09
7.28377e-09
7.13919e-09
7.03183e-09
6.95576e-09
6.91072e-09
6.89567e-09
6.90909e-09
6.94951e-09
7.01558e-09
7.10601e-09
7.21962e-09
7.3553e-09
7.51203e-09
7.68889e-09
7.88503e-09
8.09967e-09
8.33211e-09
8.5817e-09
8.84784e-09
9.13e-09
9.42764e-09
9.74029e-09
1.00675e-08
1.04087e-08
1.07636e-08
1.11316e-08
1.15123e-08
1.19052e-08
1.23098e-08
1.27255e-08
1.31518e-08
1.35879e-08
1.40333e-08
1.4487e-08
1.49484e-08
1.54165e-08
1.58902e-08
1.63686e-08
1.68503e-08
1.73341e-08
1.78186e-08
1.83021e-08
1.87828e-08
1.9259e-08
1.97286e-08
2.01892e-08
2.06385e-08
2.10738e-08
2.14921e-08
2.18903e-08
2.22651e-08
2.26126e-08
2.2929e-08
2.32098e-08
2.34503e-08
2.36455e-08
2.37898e-08
2.38774e-08
2.39019e-08
2.38563e-08
2.37332e-08
2.35246e-08
2.3222e-08
2.28159e-08
2.22964e-08
2.16529e-08
2.08737e-08
1.99465e-08
1.88581e-08
1.75942e-08
1.61396e-08
1.44781e-08
1.25925e-08
1.04643e-08
8.07397e-09
5.40085e-09
2.42313e-09
-8.82079e-10
-4.53872e-09
-8.57166e-09
-1.30066e-08
-1.78697e-08
-2.31875e-08
-2.89866e-08
-3.5293e-08
-4.21313e-08
-4.95246e-08
-5.74928e-08
-6.60514e-08
-7.52097e-08
-8.49716e-08
-9.53452e-08
-1.06295e-07
-1.17474e-07
-1.28599e-07
-1.44549e-07
-1.75322e-07
-1.56135e-07
7.56239e-09
7.36386e-09
7.1723e-09
7.03502e-09
6.93203e-09
6.85786e-09
6.81236e-09
6.79464e-09
6.80335e-09
6.83717e-09
6.8949e-09
6.97537e-09
7.07751e-09
7.20028e-09
7.34274e-09
7.50401e-09
7.68327e-09
7.87977e-09
8.0928e-09
8.32171e-09
8.56588e-09
8.82474e-09
9.09774e-09
9.38435e-09
9.68404e-09
9.99632e-09
1.03207e-08
1.06565e-08
1.10034e-08
1.13607e-08
1.17279e-08
1.21044e-08
1.24893e-08
1.28822e-08
1.32821e-08
1.36882e-08
1.40997e-08
1.45154e-08
1.49345e-08
1.53556e-08
1.57774e-08
1.61987e-08
1.66177e-08
1.7033e-08
1.74427e-08
1.78448e-08
1.82371e-08
1.86174e-08
1.89832e-08
1.93317e-08
1.966e-08
1.99649e-08
2.02429e-08
2.04903e-08
2.07032e-08
2.08771e-08
2.10073e-08
2.10889e-08
2.11164e-08
2.1084e-08
2.09853e-08
2.08136e-08
2.05617e-08
2.02216e-08
1.9785e-08
1.9243e-08
1.85857e-08
1.7803e-08
1.68835e-08
1.58156e-08
1.45864e-08
1.31824e-08
1.1589e-08
9.79094e-09
7.77164e-09
5.5137e-09
2.99867e-09
2.07045e-10
-2.88169e-09
-6.28904e-09
-1.00374e-08
-1.41501e-08
-1.8651e-08
-2.35645e-08
-2.89154e-08
-3.47281e-08
-4.10267e-08
-4.7834e-08
-5.5171e-08
-6.30559e-08
-7.15028e-08
-8.05194e-08
-9.01088e-08
-1.00279e-07
-1.10994e-07
-1.21901e-07
-1.32702e-07
-1.48385e-07
-1.79341e-07
-1.592e-07
7.41369e-09
7.22728e-09
7.04682e-09
6.91659e-09
6.8179e-09
6.74568e-09
6.69991e-09
6.67979e-09
6.68412e-09
6.71174e-09
6.76155e-09
6.83251e-09
6.92362e-09
7.03393e-09
7.16256e-09
7.30867e-09
7.47147e-09
7.65023e-09
7.84425e-09
8.05287e-09
8.27546e-09
8.51142e-09
8.76017e-09
9.02114e-09
9.29377e-09
9.57751e-09
9.87178e-09
1.0176e-08
1.04896e-08
1.08119e-08
1.11423e-08
1.14802e-08
1.18246e-08
1.21749e-08
1.25303e-08
1.28898e-08
1.32523e-08
1.3617e-08
1.39825e-08
1.43476e-08
1.47111e-08
1.50713e-08
1.54268e-08
1.57757e-08
1.61163e-08
1.64464e-08
1.67639e-08
1.70665e-08
1.73514e-08
1.76161e-08
1.78575e-08
1.80724e-08
1.82573e-08
1.84085e-08
1.8522e-08
1.85935e-08
1.86183e-08
1.85914e-08
1.85074e-08
1.83607e-08
1.8145e-08
1.78538e-08
1.74798e-08
1.70156e-08
1.6453e-08
1.57831e-08
1.49968e-08
1.40839e-08
1.30339e-08
1.18354e-08
1.04761e-08
8.94311e-09
7.22263e-09
5.29997e-09
3.15957e-09
7.8492e-10
-1.84141e-09
-4.73779e-09
-7.92352e-09
-1.14188e-08
-1.52446e-08
-1.94227e-08
-2.39754e-08
-2.89256e-08
-3.42962e-08
-4.01101e-08
-4.63894e-08
-5.31554e-08
-6.04275e-08
-6.82224e-08
-7.6553e-08
-8.54258e-08
-9.48432e-08
-1.04813e-07
-1.15299e-07
-1.25942e-07
-1.36434e-07
-1.51856e-07
-1.82928e-07
-1.61921e-07
7.25375e-09
7.07897e-09
6.90915e-09
6.78576e-09
6.69127e-09
6.62105e-09
6.57512e-09
6.55282e-09
6.55308e-09
6.57483e-09
6.61711e-09
6.67895e-09
6.75945e-09
6.85773e-09
6.97295e-09
7.10433e-09
7.2511e-09
7.41255e-09
7.58797e-09
7.77672e-09
7.97815e-09
8.19164e-09
8.41659e-09
8.65238e-09
8.89843e-09
9.15413e-09
9.41887e-09
9.69201e-09
9.97291e-09
1.02609e-08
1.05552e-08
1.08552e-08
1.11599e-08
1.14687e-08
1.17804e-08
1.20942e-08
1.2409e-08
1.27237e-08
1.3037e-08
1.33477e-08
1.36542e-08
1.39552e-08
1.42488e-08
1.45333e-08
1.48069e-08
1.50673e-08
1.53124e-08
1.55397e-08
1.57467e-08
1.59306e-08
1.60882e-08
1.62166e-08
1.6312e-08
1.63709e-08
1.63892e-08
1.63627e-08
1.62867e-08
1.61563e-08
1.59663e-08
1.5711e-08
1.53843e-08
1.49798e-08
1.44907e-08
1.39094e-08
1.32282e-08
1.24385e-08
1.15314e-08
1.04973e-08
9.32591e-09
8.00635e-09
6.52702e-09
4.87555e-09
3.03881e-09
1.00289e-09
-1.24696e-09
-3.72634e-09
-6.45169e-09
-9.44031e-09
-1.27104e-08
-1.62808e-08
-2.01713e-08
-2.44022e-08
-2.89945e-08
-3.39694e-08
-3.93485e-08
-4.51529e-08
-5.14036e-08
-5.81201e-08
-6.53207e-08
-7.30207e-08
-8.12319e-08
-8.99601e-08
-9.92071e-08
-1.08981e-07
-1.19244e-07
-1.29633e-07
-1.39829e-07
-1.54994e-07
-1.86122e-07
-1.64327e-07
7.08426e-09
6.92064e-09
6.76108e-09
6.64427e-09
6.5539e-09
6.48566e-09
6.43969e-09
6.41539e-09
6.41181e-09
6.42801e-09
6.46309e-09
6.51619e-09
6.58648e-09
6.67313e-09
6.77537e-09
6.89244e-09
7.02361e-09
7.16818e-09
7.32546e-09
7.49478e-09
7.67551e-09
7.867e-09
8.06863e-09
8.27975e-09
8.49975e-09
8.72797e-09
8.96376e-09
9.20644e-09
9.45532e-09
9.70966e-09
9.96869e-09
1.02316e-08
1.04975e-08
1.07656e-08
1.10348e-08
1.1304e-08
1.15723e-08
1.18383e-08
1.21009e-08
1.23585e-08
1.26098e-08
1.28531e-08
1.30867e-08
1.33089e-08
1.35175e-08
1.37105e-08
1.38857e-08
1.40405e-08
1.41723e-08
1.42783e-08
1.43555e-08
1.44007e-08
1.44103e-08
1.43808e-08
1.43081e-08
1.41879e-08
1.40158e-08
1.37869e-08
1.3496e-08
1.31377e-08
1.27059e-08
1.21945e-08
1.15967e-08
1.09053e-08
1.01127e-08
9.21078e-09
8.19093e-09
7.04388e-09
5.75986e-09
4.32843e-09
2.73852e-09
9.78389e-10
-9.64433e-10
-3.10314e-09
-5.45168e-09
-8.02478e-09
-1.08379e-08
-1.39075e-08
-1.72504e-08
-2.08846e-08
-2.48285e-08
-2.91012e-08
-3.37223e-08
-3.87118e-08
-4.40898e-08
-4.98762e-08
-5.60905e-08
-6.27512e-08
-6.98752e-08
-7.7477e-08
-8.55673e-08
-9.41513e-08
-1.0323e-07
-1.12812e-07
-1.22859e-07
-1.33002e-07
-1.42917e-07
-1.57831e-07
-1.88961e-07
-1.66449e-07
6.9068e-09
6.75392e-09
6.60422e-09
6.49379e-09
6.40741e-09
6.34116e-09
6.29521e-09
6.26907e-09
6.26187e-09
6.27278e-09
6.30098e-09
6.34569e-09
6.40614e-09
6.48157e-09
6.57124e-09
6.67442e-09
6.79043e-09
6.91857e-09
7.05816e-09
7.20854e-09
7.36905e-09
7.53905e-09
7.71788e-09
7.90488e-09
8.09939e-09
8.30074e-09
8.50823e-09
8.72113e-09
8.93871e-09
9.16019e-09
9.38474e-09
9.6115e-09
9.83957e-09
1.0068e-08
1.02957e-08
1.05216e-08
1.07445e-08
1.09633e-08
1.11764e-08
1.13826e-08
1.15803e-08
1.17678e-08
1.19434e-08
1.21052e-08
1.22512e-08
1.23791e-08
1.24868e-08
1.25717e-08
1.26312e-08
1.26624e-08
1.26623e-08
1.26278e-08
1.25553e-08
1.24412e-08
1.22816e-08
1.20722e-08
1.18086e-08
1.1486e-08
1.10995e-08
1.06435e-08
1.01124e-08
9.49999e-09
8.79981e-09
8.00493e-09
7.108e-09
6.10119e-09
4.9762e-09
3.72419e-09
2.3358e-09
8.01083e-10
-8.90496e-10
-2.7501e-09
-4.78956e-09
-7.02135e-09
-9.45867e-09
-1.21154e-08
-1.50062e-08
-1.81464e-08
-2.1552e-08
-2.52398e-08
-2.92271e-08
-3.3532e-08
-3.81727e-08
-4.31682e-08
-4.85371e-08
-5.42984e-08
-6.04703e-08
-6.70703e-08
-7.41141e-08
-8.16156e-08
-8.95847e-08
-9.8026e-08
-1.0694e-07
-1.16335e-07
-1.26173e-07
-1.3608e-07
-1.45726e-07
-1.60398e-07
-1.9148e-07
-1.68317e-07
6.72293e-09
6.58037e-09
6.44017e-09
6.33589e-09
6.25339e-09
6.18909e-09
6.14322e-09
6.11536e-09
6.10474e-09
6.1106e-09
6.13221e-09
6.16886e-09
6.21983e-09
6.28442e-09
6.36192e-09
6.45166e-09
6.55295e-09
6.66512e-09
6.7875e-09
6.91943e-09
7.06025e-09
7.20929e-09
7.36589e-09
7.52936e-09
7.69901e-09
7.87414e-09
8.05401e-09
8.23787e-09
8.42493e-09
8.61437e-09
8.80532e-09
8.99688e-09
9.18808e-09
9.37792e-09
9.5653e-09
9.74908e-09
9.92805e-09
1.01009e-08
1.02662e-08
1.04226e-08
1.05684e-08
1.0702e-08
1.08214e-08
1.0925e-08
1.10105e-08
1.10758e-08
1.11185e-08
1.11362e-08
1.11262e-08
1.10857e-08
1.10117e-08
1.09008e-08
1.07498e-08
1.0555e-08
1.03125e-08
1.00181e-08
9.6676e-09
9.2562e-09
8.77898e-09
8.2307e-09
7.60577e-09
6.89825e-09
6.10185e-09
5.2099e-09
4.2153e-09
3.11056e-09
1.88769e-09
5.38255e-10
-9.46685e-10
-2.5766e-09
-4.36152e-09
-6.31203e-09
-8.43935e-09
-1.07553e-08
-1.32723e-08
-1.60035e-08
-1.89627e-08
-2.21643e-08
-2.56234e-08
-2.93559e-08
-3.3378e-08
-3.77066e-08
-4.23591e-08
-4.73531e-08
-5.27065e-08
-5.84369e-08
-6.45617e-08
-7.10974e-08
-7.80589e-08
-8.54593e-08
-9.33079e-08
-1.01609e-07
-1.10362e-07
-1.19575e-07
-1.29212e-07
-1.38893e-07
-1.48285e-07
-1.62721e-07
-1.93715e-07
-1.69957e-07
6.53409e-09
6.40146e-09
6.27039e-09
6.17205e-09
6.09331e-09
6.03093e-09
5.98517e-09
5.9557e-09
5.94182e-09
5.94287e-09
5.95817e-09
5.98707e-09
6.02891e-09
6.08304e-09
6.14879e-09
6.2255e-09
6.31253e-09
6.40921e-09
6.51488e-09
6.62888e-09
6.75055e-09
6.8792e-09
7.01416e-09
7.15472e-09
7.30017e-09
7.44978e-09
7.60277e-09
7.75837e-09
7.91574e-09
8.07402e-09
8.23231e-09
8.38966e-09
8.54507e-09
8.69746e-09
8.84573e-09
8.98868e-09
9.12504e-09
9.25347e-09