/*--------------------------------*- C++ -*----------------------------------*\
  =========                 |
  \\      /  F ield         | OpenFOAM: The Open Source CFD Toolbox
   \\    /   O peration     | Website:  https://openfoam.org
    \\  /    A nd           | Version:  11
     \\/     M anipulation  |
\*---------------------------------------------------------------------------*/
FoamFile
{
    format      ascii;
    class       volScalarField;
    location    "284";
    object      k;
}
// * * * * * * * * * * * * * * * * * * * * * * * * * * * * * * * * * * * * * //

dimensions      [0 2 -2 0 0 0 0];

internalField   nonuniform List<scalar> 
10000
(
0.00093968
0.000835692
0.00074584
0.000667955
0.00060023
0.000541153
0.00048946
0.000444089
0.000404145
0.000368874
0.000337636
0.000309892
0.000285179
0.000263106
0.000243337
0.000225583
0.000209598
0.000195169
0.000182112
0.000170268
0.000159499
0.000149685
0.000140722
0.000132518
0.000124994
0.000118078
0.000111711
0.000105836
0.000100407
9.53816e-05
9.07219e-05
8.63948e-05
8.23713e-05
7.86252e-05
7.51335e-05
7.18757e-05
6.88336e-05
6.59911e-05
6.3334e-05
6.08496e-05
5.85266e-05
5.63553e-05
5.43269e-05
5.24335e-05
5.06685e-05
4.90256e-05
4.74993e-05
4.60847e-05
4.47772e-05
4.35725e-05
4.24665e-05
4.14551e-05
4.05344e-05
3.97004e-05
3.89489e-05
3.82758e-05
3.76768e-05
3.71473e-05
3.66829e-05
3.62793e-05
3.59322e-05
3.56372e-05
3.539e-05
3.51865e-05
3.50224e-05
3.48936e-05
3.47963e-05
3.4727e-05
3.46824e-05
3.46595e-05
3.46558e-05
3.46677e-05
3.46943e-05
3.47329e-05
3.47816e-05
3.48386e-05
3.49023e-05
3.49713e-05
3.50444e-05
3.51202e-05
3.51978e-05
3.52763e-05
3.53547e-05
3.54324e-05
3.55087e-05
3.55829e-05
3.56545e-05
3.5723e-05
3.57879e-05
3.58489e-05
3.59055e-05
3.59573e-05
3.60041e-05
3.60455e-05
3.60813e-05
3.61112e-05
3.61351e-05
3.61528e-05
3.61642e-05
3.61693e-05
0.00093968
0.000835692
0.000745841
0.000667956
0.000600231
0.000541154
0.000489461
0.00044409
0.000404146
0.000368875
0.000337638
0.000309893
0.000285181
0.000263107
0.000243338
0.000225584
0.000209599
0.00019517
0.000182113
0.000170269
0.0001595
0.000149686
0.000140723
0.000132519
0.000124995
0.00011808
0.000111712
0.000105838
0.000100409
9.53831e-05
9.07233e-05
8.63964e-05
8.23729e-05
7.86269e-05
7.51352e-05
7.18775e-05
6.88355e-05
6.59931e-05
6.33361e-05
6.08517e-05
5.85289e-05
5.63576e-05
5.43293e-05
5.2436e-05
5.06711e-05
4.90282e-05
4.7502e-05
4.60875e-05
4.478e-05
4.35753e-05
4.24693e-05
4.14579e-05
4.05372e-05
3.97031e-05
3.89516e-05
3.82784e-05
3.76793e-05
3.71499e-05
3.66856e-05
3.62822e-05
3.59351e-05
3.56401e-05
3.53928e-05
3.5189e-05
3.50245e-05
3.48953e-05
3.47977e-05
3.47281e-05
3.46833e-05
3.46604e-05
3.46565e-05
3.46684e-05
3.46949e-05
3.47334e-05
3.47821e-05
3.4839e-05
3.49027e-05
3.49717e-05
3.50447e-05
3.51205e-05
3.5198e-05
3.52765e-05
3.53549e-05
3.54326e-05
3.55088e-05
3.5583e-05
3.56546e-05
3.57231e-05
3.5788e-05
3.5849e-05
3.59055e-05
3.59574e-05
3.60041e-05
3.60456e-05
3.60814e-05
3.61113e-05
3.61352e-05
3.61529e-05
3.61643e-05
3.61694e-05
0.00093968
0.000835693
0.000745842
0.000667958
0.000600233
0.000541156
0.000489464
0.000444092
0.000404148
0.000368877
0.00033764
0.000309895
0.000285183
0.00026311
0.00024334
0.000225586
0.000209601
0.000195172
0.000182115
0.000170271
0.000159502
0.000149689
0.000140726
0.000132522
0.000124997
0.000118082
0.000111714
0.00010584
0.000100411
9.53854e-05
9.07257e-05
8.63988e-05
8.23754e-05
7.86294e-05
7.51379e-05
7.18802e-05
6.88383e-05
6.59959e-05
6.3339e-05
6.08547e-05
5.85319e-05
5.63607e-05
5.43324e-05
5.24392e-05
5.06742e-05
4.90314e-05
4.75052e-05
4.60906e-05
4.47831e-05
4.35783e-05
4.24722e-05
4.14607e-05
4.05399e-05
3.97056e-05
3.89539e-05
3.82806e-05
3.76813e-05
3.71517e-05
3.66874e-05
3.62838e-05
3.59367e-05
3.56415e-05
3.5394e-05
3.51899e-05
3.50251e-05
3.48956e-05
3.47978e-05
3.4728e-05
3.46831e-05
3.466e-05
3.46561e-05
3.46678e-05
3.46943e-05
3.47328e-05
3.47814e-05
3.48384e-05
3.4902e-05
3.4971e-05
3.5044e-05
3.51198e-05
3.51974e-05
3.52759e-05
3.53543e-05
3.54321e-05
3.55083e-05
3.55826e-05
3.56542e-05
3.57227e-05
3.57877e-05
3.58487e-05
3.59053e-05
3.59572e-05
3.6004e-05
3.60455e-05
3.60813e-05
3.61113e-05
3.61353e-05
3.6153e-05
3.61645e-05
3.61695e-05
0.00093968
0.000835694
0.000745843
0.00066796
0.000600235
0.000541159
0.000489466
0.000444095
0.000404152
0.00036888
0.000337643
0.000309899
0.000285186
0.000263113
0.000243343
0.000225589
0.000209604
0.000195175
0.000182118
0.000170274
0.000159505
0.000149692
0.000140729
0.000132525
0.000125
0.000118085
0.000111717
0.000105843
0.000100414
9.53888e-05
9.07292e-05
8.64023e-05
8.2379e-05
7.86331e-05
7.51416e-05
7.1884e-05
6.88421e-05
6.59999e-05
6.3343e-05
6.08587e-05
5.8536e-05
5.63649e-05
5.43366e-05
5.24434e-05
5.06784e-05
4.90355e-05
4.75092e-05
4.60946e-05
4.47869e-05
4.3582e-05
4.24757e-05
4.14639e-05
4.05428e-05
3.97083e-05
3.89564e-05
3.82827e-05
3.76832e-05
3.71533e-05
3.66887e-05
3.62849e-05
3.59375e-05
3.56421e-05
3.53943e-05
3.51899e-05
3.50248e-05
3.4895e-05
3.4797e-05
3.4727e-05
3.46819e-05
3.46587e-05
3.46547e-05
3.46663e-05
3.46928e-05
3.47312e-05
3.47798e-05
3.48368e-05
3.49005e-05
3.49695e-05
3.50425e-05
3.51184e-05
3.5196e-05
3.52746e-05
3.53531e-05
3.54309e-05
3.55073e-05
3.55816e-05
3.56533e-05
3.57219e-05
3.5787e-05
3.5848e-05
3.59048e-05
3.59567e-05
3.60037e-05
3.60453e-05
3.60812e-05
3.61113e-05
3.61353e-05
3.61532e-05
3.61647e-05
3.61698e-05
0.000939681
0.000835695
0.000745845
0.000667962
0.000600238
0.000541162
0.00048947
0.000444099
0.000404155
0.000368884
0.000337647
0.000309903
0.00028519
0.000263117
0.000243347
0.000225594
0.000209609
0.000195179
0.000182122
0.000170278
0.00015951
0.000149696
0.000140733
0.000132529
0.000125005
0.000118089
0.000111722
0.000105847
0.000100419
9.53932e-05
9.07337e-05
8.64069e-05
8.23836e-05
7.86378e-05
7.51464e-05
7.18889e-05
6.88471e-05
6.6005e-05
6.33482e-05
6.0864e-05
5.85413e-05
5.63702e-05
5.43419e-05
5.24487e-05
5.06837e-05
4.90407e-05
4.75143e-05
4.60995e-05
4.47917e-05
4.35865e-05
4.24799e-05
4.14679e-05
4.05464e-05
3.97116e-05
3.89592e-05
3.82851e-05
3.76852e-05
3.71549e-05
3.66899e-05
3.62858e-05
3.5938e-05
3.56422e-05
3.5394e-05
3.51893e-05
3.50238e-05
3.48938e-05
3.47954e-05
3.47252e-05
3.468e-05
3.46566e-05
3.46525e-05
3.46641e-05
3.46904e-05
3.47289e-05
3.47775e-05
3.48345e-05
3.48982e-05
3.49673e-05
3.50403e-05
3.51163e-05
3.51941e-05
3.52727e-05
3.53513e-05
3.54292e-05
3.55057e-05
3.55802e-05
3.5652e-05
3.57208e-05
3.5786e-05
3.58472e-05
3.5904e-05
3.59562e-05
3.60032e-05
3.60449e-05
3.6081e-05
3.61113e-05
3.61354e-05
3.61533e-05
3.61649e-05
3.617e-05
0.000939681
0.000835695
0.000745846
0.000667964
0.00060024
0.000541165
0.000489473
0.000444103
0.00040416
0.000368889
0.000337652
0.000309908
0.000285195
0.000263122
0.000243352
0.000225598
0.000209613
0.000195184
0.000182127
0.000170283
0.000159515
0.000149701
0.000140738
0.000132534
0.00012501
0.000118094
0.000111727
0.000105853
0.000100424
9.53987e-05
9.07392e-05
8.64126e-05
8.23894e-05
7.86437e-05
7.51524e-05
7.1895e-05
6.88534e-05
6.60113e-05
6.33546e-05
6.08705e-05
5.85479e-05
5.63768e-05
5.43485e-05
5.24553e-05
5.06902e-05
4.90471e-05
4.75206e-05
4.61055e-05
4.47974e-05
4.3592e-05
4.2485e-05
4.14726e-05
4.05507e-05
3.97153e-05
3.89624e-05
3.82879e-05
3.76874e-05
3.71566e-05
3.66911e-05
3.62864e-05
3.59382e-05
3.56419e-05
3.53933e-05
3.51881e-05
3.50223e-05
3.48919e-05
3.47932e-05
3.47228e-05
3.46773e-05
3.46538e-05
3.46495e-05
3.4661e-05
3.46874e-05
3.47258e-05
3.47744e-05
3.48314e-05
3.48952e-05
3.49643e-05
3.50375e-05
3.51136e-05
3.51915e-05
3.52702e-05
3.5349e-05
3.54271e-05
3.55037e-05
3.55783e-05
3.56504e-05
3.57193e-05
3.57847e-05
3.58461e-05
3.59031e-05
3.59554e-05
3.60027e-05
3.60445e-05
3.60808e-05
3.61112e-05
3.61355e-05
3.61535e-05
3.61651e-05
3.61702e-05
0.000939681
0.000835696
0.000745847
0.000667966
0.000600243
0.000541168
0.000489477
0.000444107
0.000404164
0.000368893
0.000337657
0.000309913
0.0002852
0.000263127
0.000243358
0.000225604
0.000209619
0.00019519
0.000182133
0.000170289
0.00015952
0.000149707
0.000140744
0.00013254
0.000125016
0.000118101
0.000111733
0.000105859
0.00010043
9.54051e-05
9.07458e-05
8.64193e-05
8.23962e-05
7.86507e-05
7.51595e-05
7.19022e-05
6.88607e-05
6.60188e-05
6.33621e-05
6.08781e-05
5.85556e-05
5.63845e-05
5.43563e-05
5.2463e-05
5.06978e-05
4.90546e-05
4.75278e-05
4.61126e-05
4.48041e-05
4.35983e-05
4.24909e-05
4.1478e-05
4.05555e-05
3.97196e-05
3.89661e-05
3.82909e-05
3.76898e-05
3.71583e-05
3.66922e-05
3.62869e-05
3.59381e-05
3.56413e-05
3.53922e-05
3.51865e-05
3.50202e-05
3.48894e-05
3.47904e-05
3.47197e-05
3.46739e-05
3.46502e-05
3.46459e-05
3.46573e-05
3.46835e-05
3.4722e-05
3.47706e-05
3.48276e-05
3.48915e-05
3.49607e-05
3.50341e-05
3.51103e-05
3.51883e-05
3.52672e-05
3.53462e-05
3.54244e-05
3.55013e-05
3.55761e-05
3.56483e-05
3.57175e-05
3.57831e-05
3.58447e-05
3.59019e-05
3.59545e-05
3.60019e-05
3.6044e-05
3.60805e-05
3.6111e-05
3.61355e-05
3.61536e-05
3.61653e-05
3.61704e-05
0.000939681
0.000835697
0.000745849
0.000667968
0.000600245
0.000541171
0.000489481
0.000444111
0.000404169
0.000368898
0.000337662
0.000309918
0.000285206
0.000263133
0.000243364
0.00022561
0.000209625
0.000195196
0.000182139
0.000170295
0.000159527
0.000149713
0.00014075
0.000132547
0.000125022
0.000118107
0.00011174
0.000105866
0.000100438
9.54125e-05
9.07533e-05
8.6427e-05
8.24041e-05
7.86587e-05
7.51677e-05
7.19106e-05
6.88692e-05
6.60274e-05
6.33708e-05
6.08869e-05
5.85644e-05
5.63934e-05
5.43651e-05
5.24718e-05
5.07065e-05
4.90631e-05
4.75361e-05
4.61206e-05
4.48118e-05
4.36055e-05
4.24976e-05
4.14841e-05
4.0561e-05
3.97244e-05
3.89702e-05
3.82942e-05
3.76923e-05
3.71602e-05
3.66933e-05
3.62873e-05
3.59378e-05
3.56404e-05
3.53906e-05
3.51844e-05
3.50176e-05
3.48864e-05
3.4787e-05
3.47159e-05
3.46699e-05
3.4646e-05
3.46415e-05
3.46528e-05
3.4679e-05
3.47174e-05
3.47661e-05
3.48232e-05
3.48871e-05
3.49565e-05
3.50299e-05
3.51063e-05
3.51845e-05
3.52637e-05
3.53428e-05
3.54213e-05
3.54984e-05
3.55734e-05
3.56459e-05
3.57153e-05
3.57812e-05
3.5843e-05
3.59006e-05
3.59533e-05
3.60011e-05
3.60434e-05
3.60801e-05
3.61108e-05
3.61354e-05
3.61537e-05
3.61654e-05
3.61705e-05
0.000939681
0.000835697
0.00074585
0.000667969
0.000600248
0.000541175
0.000489484
0.000444115
0.000404173
0.000368903
0.000337667
0.000309924
0.000285212
0.000263139
0.00024337
0.000225616
0.000209632
0.000195203
0.000182146
0.000170302
0.000159534
0.00014972
0.000140758
0.000132554
0.00012503
0.000118115
0.000111748
0.000105874
0.000100446
9.54208e-05
9.07618e-05
8.64356e-05
8.24129e-05
7.86677e-05
7.51769e-05
7.19199e-05
6.88787e-05
6.6037e-05
6.33807e-05
6.08969e-05
5.85744e-05
5.64034e-05
5.43751e-05
5.24817e-05
5.07163e-05
4.90727e-05
4.75454e-05
4.61295e-05
4.48203e-05
4.36135e-05
4.2505e-05
4.14909e-05
4.05671e-05
3.97297e-05
3.89747e-05
3.82979e-05
3.76952e-05
3.71621e-05
3.66944e-05
3.62877e-05
3.59374e-05
3.56392e-05
3.53888e-05
3.51819e-05
3.50146e-05
3.48828e-05
3.4783e-05
3.47116e-05
3.46653e-05
3.46412e-05
3.46364e-05
3.46476e-05
3.46738e-05
3.47122e-05
3.47609e-05
3.4818e-05
3.48821e-05
3.49516e-05
3.50252e-05
3.51018e-05
3.51802e-05
3.52595e-05
3.5339e-05
3.54177e-05
3.54951e-05
3.55704e-05
3.56431e-05
3.57128e-05
3.5779e-05
3.58411e-05
3.5899e-05
3.5952e-05
3.6e-05
3.60426e-05
3.60795e-05
3.61105e-05
3.61352e-05
3.61536e-05
3.61655e-05
3.61705e-05
0.000939682
0.000835698
0.000745851
0.000667971
0.00060025
0.000541177
0.000489488
0.000444119
0.000404178
0.000368908
0.000337673
0.00030993
0.000285218
0.000263146
0.000243376
0.000225623
0.000209639
0.00019521
0.000182153
0.00017031
0.000159541
0.000149728
0.000140765
0.000132562
0.000125038
0.000118123
0.000111756
0.000105883
0.000100455
9.54299e-05
9.07711e-05
8.64451e-05
8.24227e-05
7.86777e-05
7.5187e-05
7.19303e-05
6.88893e-05
6.60478e-05
6.33915e-05
6.09078e-05
5.85855e-05
5.64145e-05
5.43862e-05
5.24927e-05
5.07271e-05
4.90833e-05
4.75557e-05
4.61394e-05
4.48297e-05
4.36223e-05
4.25132e-05
4.14983e-05
4.05737e-05
3.97355e-05
3.89796e-05
3.83019e-05
3.76982e-05
3.71642e-05
3.66956e-05
3.6288e-05
3.59368e-05
3.56378e-05
3.53866e-05
3.51791e-05
3.50111e-05
3.48788e-05
3.47785e-05
3.47067e-05
3.46601e-05
3.46357e-05
3.46307e-05
3.46418e-05
3.46679e-05
3.47063e-05
3.4755e-05
3.48123e-05
3.48764e-05
3.49461e-05
3.50199e-05
3.50966e-05
3.51753e-05
3.52549e-05
3.53346e-05
3.54136e-05
3.54913e-05
3.55669e-05
3.564e-05
3.571e-05
3.57765e-05
3.5839e-05
3.58971e-05
3.59505e-05
3.59988e-05
3.60417e-05
3.60788e-05
3.611e-05
3.6135e-05
3.61535e-05
3.61654e-05
3.61705e-05
0.000939682
0.000835699
0.000745852
0.000667973
0.000600252
0.00054118
0.000489491
0.000444123
0.000404182
0.000368913
0.000337678
0.000309935
0.000285224
0.000263152
0.000243383
0.00022563
0.000209646
0.000195217
0.000182161
0.000170318
0.000159549
0.000149736
0.000140774
0.000132571
0.000125047
0.000118132
0.000111766
0.000105892
0.000100464
9.54398e-05
9.07813e-05
8.64555e-05
8.24333e-05
7.86885e-05
7.51981e-05
7.19416e-05
6.89008e-05
6.60595e-05
6.34034e-05
6.09198e-05
5.85975e-05
5.64266e-05
5.43982e-05
5.25046e-05
5.07388e-05
4.90948e-05
4.75669e-05
4.61501e-05
4.48399e-05
4.36319e-05
4.2522e-05
4.15064e-05
4.05809e-05
3.97417e-05
3.89849e-05
3.83062e-05
3.77015e-05
3.71665e-05
3.66968e-05
3.62882e-05
3.59361e-05
3.56362e-05
3.53842e-05
3.5176e-05
3.50073e-05
3.48744e-05
3.47736e-05
3.47013e-05
3.46543e-05
3.46297e-05
3.46244e-05
3.46354e-05
3.46614e-05
3.46998e-05
3.47486e-05
3.48059e-05
3.48702e-05
3.494e-05
3.5014e-05
3.5091e-05
3.51699e-05
3.52498e-05
3.53298e-05
3.54091e-05
3.54871e-05
3.55631e-05
3.56365e-05
3.57069e-05
3.57737e-05
3.58366e-05
3.5895e-05
3.59488e-05
3.59974e-05
3.60406e-05
3.6078e-05
3.61094e-05
3.61346e-05
3.61533e-05
3.61653e-05
3.61703e-05
0.000939682
0.000835699
0.000745853
0.000667974
0.000600254
0.000541183
0.000489495
0.000444127
0.000404187
0.000368918
0.000337684
0.000309941
0.00028523
0.000263159
0.00024339
0.000225637
0.000209653
0.000195225
0.000182169
0.000170326
0.000159558
0.000149745
0.000140783
0.00013258
0.000125056
0.000118142
0.000111775
0.000105902
0.000100475
9.54504e-05
9.07921e-05
8.64667e-05
8.24447e-05
7.87002e-05
7.52101e-05
7.19538e-05
6.89132e-05
6.60721e-05
6.34162e-05
6.09327e-05
5.86105e-05
5.64396e-05
5.44112e-05
5.25175e-05
5.07515e-05
4.91072e-05
4.75789e-05
4.61616e-05
4.48508e-05
4.36422e-05
4.25315e-05
4.1515e-05
4.05886e-05
3.97485e-05
3.89905e-05
3.83107e-05
3.77049e-05
3.71689e-05
3.66981e-05
3.62884e-05
3.59354e-05
3.56345e-05
3.53816e-05
3.51725e-05
3.50031e-05
3.48696e-05
3.47682e-05
3.46955e-05
3.46481e-05
3.46231e-05
3.46177e-05
3.46285e-05
3.46544e-05
3.46928e-05
3.47416e-05
3.4799e-05
3.48634e-05
3.49334e-05
3.50076e-05
3.50848e-05
3.5164e-05
3.52442e-05
3.53245e-05
3.54042e-05
3.54825e-05
3.55589e-05
3.56327e-05
3.57035e-05
3.57707e-05
3.58339e-05
3.58927e-05
3.59468e-05
3.59958e-05
3.60393e-05
3.6077e-05
3.61087e-05
3.61341e-05
3.61529e-05
3.6165e-05
3.61701e-05
0.000939682
0.000835699
0.000745854
0.000667976
0.000600256
0.000541185
0.000489498
0.000444131
0.000404191
0.000368923
0.000337689
0.000309947
0.000285236
0.000263165
0.000243397
0.000225645
0.000209661
0.000195233
0.000182177
0.000170334
0.000159566
0.000149754
0.000140792
0.000132589
0.000125066
0.000118152
0.000111786
0.000105913
0.000100486
9.54617e-05
9.08037e-05
8.64785e-05
8.24569e-05
7.87127e-05
7.52228e-05
7.19668e-05
6.89264e-05
6.60856e-05
6.34298e-05
6.09465e-05
5.86244e-05
5.64535e-05
5.4425e-05
5.25312e-05
5.0765e-05
4.91203e-05
4.75916e-05
4.61739e-05
4.48625e-05
4.36531e-05
4.25417e-05
4.15242e-05
4.05969e-05
3.97556e-05
3.89966e-05
3.83156e-05
3.77086e-05
3.71714e-05
3.66995e-05
3.62887e-05
3.59345e-05
3.56327e-05
3.53788e-05
3.51689e-05
3.49987e-05
3.48645e-05
3.47625e-05
3.46892e-05
3.46414e-05
3.46161e-05
3.46104e-05
3.4621e-05
3.46469e-05
3.46852e-05
3.4734e-05
3.47915e-05
3.48561e-05
3.49263e-05
3.50007e-05
3.50782e-05
3.51577e-05
3.52382e-05
3.53189e-05
3.53989e-05
3.54776e-05
3.55543e-05
3.56285e-05
3.56997e-05
3.57673e-05
3.58309e-05
3.58902e-05
3.59447e-05
3.5994e-05
3.60378e-05
3.60759e-05
3.61078e-05
3.61334e-05
3.61524e-05
3.61646e-05
3.61697e-05
0.000939682
0.0008357
0.000745855
0.000667977
0.000600258
0.000541188
0.0004895
0.000444134
0.000404195
0.000368927
0.000337694
0.000309952
0.000285242
0.000263171
0.000243404
0.000225652
0.000209668
0.000195241
0.000182185
0.000170343
0.000159575
0.000149763
0.000140801
0.000132599
0.000125076
0.000118163
0.000111797
0.000105924
0.000100497
9.54735e-05
9.08159e-05
8.6491e-05
8.24697e-05
7.87258e-05
7.52363e-05
7.19805e-05
6.89404e-05
6.60998e-05
6.34442e-05
6.09611e-05
5.8639e-05
5.64682e-05
5.44397e-05
5.25457e-05
5.07793e-05
4.91343e-05
4.76051e-05
4.61869e-05
4.48748e-05
4.36646e-05
4.25524e-05
4.15339e-05
4.06055e-05
3.97632e-05
3.90029e-05
3.83208e-05
3.77126e-05
3.71741e-05
3.6701e-05
3.6289e-05
3.59337e-05
3.56307e-05
3.53759e-05
3.5165e-05
3.4994e-05
3.4859e-05
3.47564e-05
3.46826e-05
3.46344e-05
3.46087e-05
3.46027e-05
3.46132e-05
3.46389e-05
3.46772e-05
3.4726e-05
3.47836e-05
3.48483e-05
3.49187e-05
3.49934e-05
3.50711e-05
3.51509e-05
3.52317e-05
3.53128e-05
3.53932e-05
3.54723e-05
3.55494e-05
3.56241e-05
3.56957e-05
3.57637e-05
3.58277e-05
3.58874e-05
3.59423e-05
3.5992e-05
3.60362e-05
3.60745e-05
3.61067e-05
3.61326e-05
3.61517e-05
3.6164e-05
3.61692e-05
0.000939682
0.0008357
0.000745855
0.000667978
0.00060026
0.00054119
0.000489503
0.000444138
0.000404199
0.000368932
0.000337699
0.000309958
0.000285248
0.000263178
0.000243411
0.000225659
0.000209676
0.000195249
0.000182194
0.000170351
0.000159584
0.000149773
0.000140811
0.000132609
0.000125087
0.000118173
0.000111808
0.000105936
0.000100509
9.54859e-05
9.08286e-05
8.65041e-05
8.24831e-05
7.87396e-05
7.52503e-05
7.19949e-05
6.89551e-05
6.61147e-05
6.34593e-05
6.09763e-05
5.86544e-05
5.64835e-05
5.4455e-05
5.25608e-05
5.07942e-05
4.91489e-05
4.76193e-05
4.62004e-05
4.48877e-05
4.36767e-05
4.25635e-05
4.15441e-05
4.06146e-05
3.97711e-05
3.90096e-05
3.83262e-05
3.77167e-05
3.71769e-05
3.67025e-05
3.62893e-05
3.59328e-05
3.56287e-05
3.53728e-05
3.5161e-05
3.49891e-05
3.48534e-05
3.475e-05
3.46757e-05
3.4627e-05
3.46009e-05
3.45947e-05
3.46049e-05
3.46305e-05
3.46688e-05
3.47176e-05
3.47753e-05
3.48401e-05
3.49107e-05
3.49856e-05
3.50636e-05
3.51437e-05
3.52249e-05
3.53063e-05
3.53871e-05
3.54667e-05
3.55442e-05
3.56193e-05
3.56913e-05
3.57598e-05
3.58243e-05
3.58844e-05
3.59396e-05
3.59897e-05
3.60343e-05
3.6073e-05
3.61055e-05
3.61315e-05
3.61509e-05
3.61633e-05
3.61685e-05
0.000939682
0.000835701
0.000745856
0.000667979
0.000600261
0.000541192
0.000489506
0.000444141
0.000404202
0.000368936
0.000337703
0.000309963
0.000285254
0.000263184
0.000243417
0.000225666
0.000209684
0.000195257
0.000182202
0.00017036
0.000159594
0.000149782
0.000140821
0.00013262
0.000125098
0.000118185
0.000111819
0.000105948
0.000100522
9.54987e-05
9.08417e-05
8.65177e-05
8.2497e-05
7.87539e-05
7.5265e-05
7.20099e-05
6.89704e-05
6.61302e-05
6.34751e-05
6.09922e-05
5.86704e-05
5.64995e-05
5.44709e-05
5.25766e-05
5.08097e-05
4.9164e-05
4.7634e-05
4.62145e-05
4.49011e-05
4.36893e-05
4.25752e-05
4.15547e-05
4.06241e-05
3.97793e-05
3.90166e-05
3.83319e-05
3.7721e-05
3.71799e-05
3.67042e-05
3.62896e-05
3.59319e-05
3.56266e-05
3.53697e-05
3.51568e-05
3.4984e-05
3.48475e-05
3.47435e-05
3.46685e-05
3.46193e-05
3.45928e-05
3.45863e-05
3.45963e-05
3.46218e-05
3.46599e-05
3.47088e-05
3.47666e-05
3.48316e-05
3.49023e-05
3.49774e-05
3.50558e-05
3.51362e-05
3.52178e-05
3.52995e-05
3.53808e-05
3.54607e-05
3.55387e-05
3.56142e-05
3.56867e-05
3.57556e-05
3.58206e-05
3.58811e-05
3.59368e-05
3.59873e-05
3.60322e-05
3.60712e-05
3.6104e-05
3.61303e-05
3.61499e-05
3.61624e-05
3.61677e-05
0.000939682
0.000835701
0.000745857
0.00066798
0.000600263
0.000541194
0.000489508
0.000444144
0.000404206
0.00036894
0.000337708
0.000309968
0.00028526
0.00026319
0.000243424
0.000225673
0.000209691
0.000195265
0.000182211
0.000170369
0.000159603
0.000149792
0.000140832
0.00013263
0.000125109
0.000118196
0.000111831
0.00010596
0.000100534
9.55118e-05
9.08553e-05
8.65316e-05
8.25114e-05
7.87686e-05
7.52801e-05
7.20254e-05
6.89861e-05
6.61462e-05
6.34913e-05
6.10086e-05
5.86869e-05
5.65161e-05
5.44874e-05
5.25929e-05
5.08258e-05
4.91797e-05
4.76492e-05
4.62291e-05
4.49149e-05
4.37023e-05
4.25872e-05
4.15657e-05
4.06339e-05
3.97879e-05
3.90238e-05
3.83377e-05
3.77255e-05
3.7183e-05
3.67059e-05
3.629e-05
3.5931e-05
3.56245e-05
3.53664e-05
3.51525e-05
3.49788e-05
3.48414e-05
3.47367e-05
3.46611e-05
3.46114e-05
3.45845e-05
3.45776e-05
3.45874e-05
3.46127e-05
3.46508e-05
3.46997e-05
3.47575e-05
3.48226e-05
3.48936e-05
3.4969e-05
3.50476e-05
3.51284e-05
3.52103e-05
3.52924e-05
3.53741e-05
3.54545e-05
3.55329e-05
3.56089e-05
3.56818e-05
3.57512e-05
3.58166e-05
3.58776e-05
3.59337e-05
3.59846e-05
3.60299e-05
3.60693e-05
3.61024e-05
3.61289e-05
3.61487e-05
3.61614e-05
3.61667e-05
0.000939683
0.000835701
0.000745857
0.000667981
0.000600264
0.000541196
0.00048951
0.000444146
0.000404209
0.000368944
0.000337712
0.000309973
0.000285265
0.000263196
0.00024343
0.00022568
0.000209699
0.000195273
0.000182219
0.000170378
0.000159612
0.000149802
0.000140842
0.000132641
0.00012512
0.000118208
0.000111843
0.000105973
0.000100547
9.55253e-05
9.08692e-05
8.65459e-05
8.25261e-05
7.87838e-05
7.52956e-05
7.20412e-05
6.90023e-05
6.61627e-05
6.3508e-05
6.10255e-05
5.87038e-05
5.65331e-05
5.45043e-05
5.26097e-05
5.08423e-05
4.91958e-05
4.76648e-05
4.62441e-05
4.49292e-05
4.37157e-05
4.25996e-05
4.1577e-05
4.06439e-05
3.97967e-05
3.90313e-05
3.83438e-05
3.77301e-05
3.71862e-05
3.67077e-05
3.62905e-05
3.59301e-05
3.56224e-05
3.53632e-05
3.51482e-05
3.49735e-05
3.48352e-05
3.47297e-05
3.46535e-05
3.46032e-05
3.45759e-05
3.45686e-05
3.45782e-05
3.46033e-05
3.46414e-05
3.46903e-05
3.47482e-05
3.48134e-05
3.48846e-05
3.49602e-05
3.50391e-05
3.51202e-05
3.52025e-05
3.52851e-05
3.53671e-05
3.5448e-05
3.55269e-05
3.56033e-05
3.56767e-05
3.57466e-05
3.58125e-05
3.58739e-05
3.59305e-05
3.59818e-05
3.60274e-05
3.60671e-05
3.61005e-05
3.61273e-05
3.61473e-05
3.61601e-05
3.61655e-05
0.000939683
0.000835702
0.000745858
0.000667982
0.000600265
0.000541197
0.000489513
0.000444149
0.000404212
0.000368948
0.000337717
0.000309978
0.000285271
0.000263202
0.000243437
0.000225687
0.000209706
0.000195281
0.000182227
0.000170387
0.000159622
0.000149812
0.000140852
0.000132652
0.000125131
0.00011822
0.000111856
0.000105985
0.00010056
9.55389e-05
9.08833e-05
8.65605e-05
8.25412e-05
7.87992e-05
7.53115e-05
7.20574e-05
6.90189e-05
6.61795e-05
6.35251e-05
6.10427e-05
5.87212e-05
5.65504e-05
5.45216e-05
5.26268e-05
5.08591e-05
4.92123e-05
4.76807e-05
4.62594e-05
4.49437e-05
4.37293e-05
4.26122e-05
4.15885e-05
4.06542e-05
3.98057e-05
3.90389e-05
3.835e-05
3.77349e-05
3.71895e-05
3.67096e-05
3.6291e-05
3.59293e-05
3.56203e-05
3.53599e-05
3.51438e-05
3.49681e-05
3.48289e-05
3.47226e-05
3.46457e-05
3.45949e-05
3.45671e-05
3.45595e-05
3.45688e-05
3.45938e-05
3.46317e-05
3.46806e-05
3.47386e-05
3.4804e-05
3.48753e-05
3.49512e-05
3.50304e-05
3.51118e-05
3.51945e-05
3.52775e-05
3.53599e-05
3.54412e-05
3.55206e-05
3.55975e-05
3.56714e-05
3.57418e-05
3.58081e-05
3.587e-05
3.5927e-05
3.59787e-05
3.60248e-05
3.60648e-05
3.60985e-05
3.61256e-05
3.61457e-05
3.61587e-05
3.61641e-05
0.000939683
0.000835702
0.000745858
0.000667983
0.000600266
0.000541199
0.000489515
0.000444152
0.000404215
0.000368951
0.000337721
0.000309983
0.000285276
0.000263208
0.000243443
0.000225694
0.000209713
0.000195289
0.000182236
0.000170396
0.000159631
0.000149822
0.000140863
0.000132663
0.000125143
0.000118231
0.000111868
0.000105998
0.000100574
9.55528e-05
9.08977e-05
8.65753e-05
8.25564e-05
7.88149e-05
7.53275e-05
7.20739e-05
6.90357e-05
6.61966e-05
6.35424e-05
6.10602e-05
5.87388e-05
5.65681e-05
5.45392e-05
5.26443e-05
5.08763e-05
4.9229e-05
4.7697e-05
4.6275e-05
4.49585e-05
4.37432e-05
4.26251e-05
4.16002e-05
4.06648e-05
3.98149e-05
3.90467e-05
3.83564e-05
3.77398e-05
3.7193e-05
3.67116e-05
3.62915e-05
3.59285e-05
3.56182e-05
3.53566e-05
3.51394e-05
3.49627e-05
3.48226e-05
3.47155e-05
3.46379e-05
3.45865e-05
3.45582e-05
3.45502e-05
3.45593e-05
3.4584e-05
3.46219e-05
3.46707e-05
3.47288e-05
3.47943e-05
3.48658e-05
3.49419e-05
3.50214e-05
3.51032e-05
3.51862e-05
3.52696e-05
3.53525e-05
3.54343e-05
3.55141e-05
3.55915e-05
3.56659e-05
3.57367e-05
3.58035e-05
3.58659e-05
3.59233e-05
3.59754e-05
3.60219e-05
3.60623e-05
3.60963e-05
3.61236e-05
3.61439e-05
3.6157e-05
3.61625e-05
0.000939683
0.000835702
0.000745859
0.000667983
0.000600268
0.0005412
0.000489517
0.000444154
0.000404218
0.000368955
0.000337725
0.000309987
0.000285281
0.000263213
0.000243449
0.000225701
0.000209721
0.000195296
0.000182244
0.000170405
0.00015964
0.000149831
0.000140873
0.000132674
0.000125154
0.000118243
0.000111881
0.000106011
0.000100587
9.55667e-05
9.09121e-05
8.65902e-05
8.25718e-05
7.88307e-05
7.53438e-05
7.20905e-05
6.90527e-05
6.62139e-05
6.35599e-05
6.1078e-05
5.87566e-05
5.65859e-05
5.4557e-05
5.26619e-05
5.08936e-05
4.9246e-05
4.77134e-05
4.62907e-05
4.49735e-05
4.37573e-05
4.26382e-05
4.16121e-05
4.06754e-05
3.98242e-05
3.90547e-05
3.83629e-05
3.77448e-05
3.71965e-05
3.67137e-05
3.62922e-05
3.59277e-05
3.56162e-05
3.53533e-05
3.51349e-05
3.49572e-05
3.48162e-05
3.47083e-05
3.46299e-05
3.45779e-05
3.45492e-05
3.45408e-05
3.45496e-05
3.45742e-05
3.46119e-05
3.46607e-05
3.47188e-05
3.47845e-05
3.48562e-05
3.49325e-05
3.50123e-05
3.50944e-05
3.51778e-05
3.52616e-05
3.5345e-05
3.54271e-05
3.55075e-05
3.55853e-05
3.56602e-05
3.57315e-05
3.57988e-05
3.58616e-05
3.59194e-05
3.5972e-05
3.60188e-05
3.60596e-05
3.60939e-05
3.61214e-05
3.6142e-05
3.61552e-05
3.61607e-05
0.000939683
0.000835702
0.000745859
0.000667984
0.000600269
0.000541202
0.000489518
0.000444156
0.000404221
0.000368958
0.000337729
0.000309991
0.000285286
0.000263219
0.000243455
0.000225707
0.000209728
0.000195304
0.000182252
0.000170413
0.00015965
0.000149841
0.000140883
0.000132685
0.000125165
0.000118255
0.000111893
0.000106024
0.000100601
9.55807e-05
9.09266e-05
8.66052e-05
8.25873e-05
7.88466e-05
7.53601e-05
7.21073e-05
6.90697e-05
6.62313e-05
6.35776e-05
6.10958e-05
5.87746e-05
5.66039e-05
5.45749e-05
5.26796e-05
5.09111e-05
4.9263e-05
4.77299e-05
4.63066e-05
4.49886e-05
4.37715e-05
4.26513e-05
4.16241e-05
4.06862e-05
3.98336e-05
3.90627e-05
3.83694e-05
3.77499e-05
3.72001e-05
3.67158e-05
3.62929e-05
3.5927e-05
3.56142e-05
3.535e-05
3.51305e-05
3.49517e-05
3.48098e-05
3.4701e-05
3.4622e-05
3.45694e-05
3.45401e-05
3.45314e-05
3.45399e-05
3.45642e-05
3.46018e-05
3.46506e-05
3.47088e-05
3.47745e-05
3.48464e-05
3.4923e-05
3.50031e-05
3.50855e-05
3.51693e-05
3.52535e-05
3.53372e-05
3.54199e-05
3.55007e-05
3.5579e-05
3.56543e-05
3.57261e-05
3.57938e-05
3.58571e-05
3.59154e-05
3.59684e-05
3.60156e-05
3.60567e-05
3.60913e-05
3.61191e-05
3.61398e-05
3.61532e-05
3.61588e-05
0.000939683
0.000835703
0.00074586
0.000667985
0.00060027
0.000541203
0.00048952
0.000444159
0.000404224
0.000368961
0.000337732
0.000309996
0.00028529
0.000263224
0.000243461
0.000225714
0.000209735
0.000195311
0.00018226
0.000170422
0.000159659
0.000149851
0.000140893
0.000132695
0.000125177
0.000118267
0.000111905
0.000106037
0.000100614
9.55947e-05
9.09411e-05
8.66202e-05
8.26027e-05
7.88626e-05
7.53765e-05
7.2124e-05
6.90869e-05
6.62488e-05
6.35953e-05
6.11137e-05
5.87926e-05
5.66219e-05
5.45928e-05
5.26974e-05
5.09286e-05
4.92801e-05
4.77465e-05
4.63225e-05
4.50037e-05
4.37857e-05
4.26645e-05
4.16362e-05
4.0697e-05
3.98431e-05
3.90708e-05
3.83761e-05
3.77551e-05
3.72038e-05
3.6718e-05
3.62936e-05
3.59264e-05
3.56122e-05
3.53468e-05
3.51262e-05
3.49463e-05
3.48034e-05
3.46938e-05
3.4614e-05
3.45608e-05
3.4531e-05
3.45219e-05
3.45301e-05
3.45542e-05
3.45917e-05
3.46405e-05
3.46986e-05
3.47645e-05
3.48365e-05
3.49134e-05
3.49937e-05
3.50765e-05
3.51606e-05
3.52452e-05
3.53294e-05
3.54125e-05
3.54937e-05
3.55725e-05
3.56483e-05
3.57206e-05
3.57888e-05
3.58525e-05
3.59112e-05
3.59646e-05
3.60122e-05
3.60536e-05
3.60885e-05
3.61166e-05
3.61375e-05
3.6151e-05
3.61567e-05
0.000939683
0.000835703
0.00074586
0.000667986
0.000600271
0.000541204
0.000489522
0.000444161
0.000404226
0.000368964
0.000337736
0.00031
0.000285295
0.000263229
0.000243467
0.00022572
0.000209741
0.000195319
0.000182268
0.00017043
0.000159668
0.00014986
0.000140903
0.000132706
0.000125188
0.000118279
0.000111918
0.00010605
0.000100628
9.56086e-05
9.09555e-05
8.66351e-05
8.26181e-05
7.88784e-05
7.53928e-05
7.21408e-05
6.9104e-05
6.62662e-05
6.3613e-05
6.11315e-05
5.88105e-05
5.66399e-05
5.46108e-05
5.27151e-05
5.0946e-05
4.92972e-05
4.7763e-05
4.63385e-05
4.50189e-05
4.37999e-05
4.26777e-05
4.16483e-05
4.07078e-05
3.98526e-05
3.90789e-05
3.83827e-05
3.77603e-05
3.72075e-05
3.67202e-05
3.62944e-05
3.59258e-05
3.56103e-05
3.53436e-05
3.51218e-05
3.49409e-05
3.47971e-05
3.46866e-05
3.46061e-05
3.45523e-05
3.4522e-05
3.45124e-05
3.45203e-05
3.45442e-05
3.45815e-05
3.46303e-05
3.46885e-05
3.47544e-05
3.48266e-05
3.49037e-05
3.49843e-05
3.50674e-05
3.51519e-05
3.52368e-05
3.53214e-05
3.54049e-05
3.54867e-05
3.55659e-05
3.56422e-05
3.57149e-05
3.57836e-05
3.58478e-05
3.59069e-05
3.59607e-05
3.60087e-05
3.60504e-05
3.60856e-05
3.61139e-05
3.61351e-05
3.61487e-05
3.61544e-05
0.000939683
0.000835703
0.000745861
0.000667986
0.000600272
0.000541206
0.000489524
0.000444163
0.000404229
0.000368967
0.000337739
0.000310003
0.000285299
0.000263234
0.000243472
0.000225726
0.000209748
0.000195326
0.000182276
0.000170439
0.000159676
0.00014987
0.000140913
0.000132716
0.000125199
0.00011829
0.00011193
0.000106062
0.000100641
9.56223e-05
9.09698e-05
8.66499e-05
8.26335e-05
7.88942e-05
7.54091e-05
7.21574e-05
6.91209e-05
6.62835e-05
6.36305e-05
6.11493e-05
5.88284e-05
5.66578e-05
5.46286e-05
5.27328e-05
5.09634e-05
4.93142e-05
4.77795e-05
4.63543e-05
4.50339e-05
4.38141e-05
4.26909e-05
4.16603e-05
4.07186e-05
3.98621e-05
3.9087e-05
3.83894e-05
3.77655e-05
3.72112e-05
3.67225e-05
3.62952e-05
3.59253e-05
3.56084e-05
3.53405e-05
3.51176e-05
3.49356e-05
3.47908e-05