/*--------------------------------*- C++ -*----------------------------------*\
  =========                 |
  \\      /  F ield         | OpenFOAM: The Open Source CFD Toolbox
   \\    /   O peration     | Website:  https://openfoam.org
    \\  /    A nd           | Version:  11
     \\/     M anipulation  |
\*---------------------------------------------------------------------------*/
FoamFile
{
    format      ascii;
    class       volVectorField;
    location    "1656";
    object      U;
}
// * * * * * * * * * * * * * * * * * * * * * * * * * * * * * * * * * * * * * //

dimensions      [0 1 -1 0 0 0 0];

internalField   nonuniform List<vector> 
10000
(
(0.005 -3.0065e-13 0)
(0.005 -8.3611e-13 0)
(0.005 -1.35121e-12 0)
(0.005 -1.86885e-12 0)
(0.005 -2.40004e-12 0)
(0.005 -2.95171e-12 0)
(0.005 -3.52928e-12 0)
(0.005 -4.13732e-12 0)
(0.005 -4.77992e-12 0)
(0.005 -5.46088e-12 0)
(0.005 -6.18386e-12 0)
(0.005 -6.95245e-12 0)
(0.005 -7.77023e-12 0)
(0.005 -8.6408e-12 0)
(0.005 -9.56784e-12 0)
(0.005 -1.05551e-11 0)
(0.005 -1.16063e-11 0)
(0.005 -1.27255e-11 0)
(0.005 -1.39168e-11 0)
(0.005 -1.51842e-11 0)
(0.005 -1.65322e-11 0)
(0.005 -1.79652e-11 0)
(0.005 -1.94879e-11 0)
(0.005 -2.11049e-11 0)
(0.005 -2.28213e-11 0)
(0.005 -2.46423e-11 0)
(0.005 -2.65729e-11 0)
(0.005 -2.86188e-11 0)
(0.005 -3.07856e-11 0)
(0.005 -3.3079e-11 0)
(0.005 -3.55052e-11 0)
(0.005 -3.80701e-11 0)
(0.005 -4.07802e-11 0)
(0.005 -4.36421e-11 0)
(0.005 -4.66624e-11 0)
(0.005 -4.9848e-11 0)
(0.005 -5.3206e-11 0)
(0.005 -5.67435e-11 0)
(0.005 -6.0468e-11 0)
(0.005 -6.4387e-11 0)
(0.005 -6.85082e-11 0)
(0.005 -7.28393e-11 0)
(0.005 -7.73884e-11 0)
(0.005 -8.21635e-11 0)
(0.005 -8.71728e-11 0)
(0.005 -9.24245e-11 0)
(0.005 -9.79269e-11 0)
(0.005 -1.03688e-10 0)
(0.005 -1.09717e-10 0)
(0.005 -1.16022e-10 0)
(0.005 -1.22611e-10 0)
(0.005 -1.29493e-10 0)
(0.005 -1.36676e-10 0)
(0.005 -1.44168e-10 0)
(0.005 -1.51977e-10 0)
(0.005 -1.60111e-10 0)
(0.005 -1.68577e-10 0)
(0.005 -1.77383e-10 0)
(0.005 -1.86536e-10 0)
(0.005 -1.96042e-10 0)
(0.005 -2.05908e-10 0)
(0.005 -2.16138e-10 0)
(0.005 -2.26739e-10 0)
(0.005 -2.37713e-10 0)
(0.005 -2.49066e-10 0)
(0.005 -2.60798e-10 0)
(0.005 -2.72913e-10 0)
(0.005 -2.8541e-10 0)
(0.005 -2.98288e-10 0)
(0.005 -3.11546e-10 0)
(0.005 -3.25179e-10 0)
(0.005 -3.39182e-10 0)
(0.005 -3.53547e-10 0)
(0.005 -3.68265e-10 0)
(0.005 -3.83323e-10 0)
(0.005 -3.98706e-10 0)
(0.005 -4.14396e-10 0)
(0.005 -4.30371e-10 0)
(0.005 -4.46606e-10 0)
(0.005 -4.63069e-10 0)
(0.005 -4.79727e-10 0)
(0.005 -4.96537e-10 0)
(0.005 -5.13453e-10 0)
(0.005 -5.3042e-10 0)
(0.005 -5.47374e-10 0)
(0.005 -5.64242e-10 0)
(0.005 -5.8094e-10 0)
(0.005 -5.97371e-10 0)
(0.005 -6.13424e-10 0)
(0.005 -6.28971e-10 0)
(0.005 -6.43865e-10 0)
(0.005 -6.57939e-10 0)
(0.005 -6.71003e-10 0)
(0.005 -6.82842e-10 0)
(0.005 -6.9322e-10 0)
(0.005 -7.01887e-10 0)
(0.005 -7.08593e-10 0)
(0.005 -7.13107e-10 0)
(0.005 -7.15287e-10 0)
(0.005 -7.15658e-10 0)
(0.005 -2.58381e-13 0)
(0.005 -7.54401e-13 0)
(0.005 -1.24428e-12 0)
(0.005 -1.73952e-12 0)
(0.005 -2.24849e-12 0)
(0.005 -2.77728e-12 0)
(0.005 -3.33087e-12 0)
(0.005 -3.91356e-12 0)
(0.005 -4.52926e-12 0)
(0.005 -5.18159e-12 0)
(0.005 -5.87408e-12 0)
(0.005 -6.61016e-12 0)
(0.005 -7.39329e-12 0)
(0.005 -8.22692e-12 0)
(0.005 -9.11457e-12 0)
(0.005 -1.00598e-11 0)
(0.005 -1.10664e-11 0)
(0.005 -1.2138e-11 0)
(0.005 -1.32787e-11 0)
(0.005 -1.44923e-11 0)
(0.005 -1.57831e-11 0)
(0.005 -1.71554e-11 0)
(0.005 -1.86136e-11 0)
(0.005 -2.01623e-11 0)
(0.005 -2.18063e-11 0)
(0.005 -2.35504e-11 0)
(0.005 -2.53999e-11 0)
(0.005 -2.73599e-11 0)
(0.005 -2.94359e-11 0)
(0.005 -3.16334e-11 0)
(0.005 -3.39582e-11 0)
(0.005 -3.64163e-11 0)
(0.005 -3.90138e-11 0)
(0.005 -4.1757e-11 0)
(0.005 -4.46523e-11 0)
(0.005 -4.77065e-11 0)
(0.005 -5.09262e-11 0)
(0.005 -5.43185e-11 0)
(0.005 -5.78905e-11 0)
(0.005 -6.16495e-11 0)
(0.005 -6.56029e-11 0)
(0.005 -6.97582e-11 0)
(0.005 -7.41232e-11 0)
(0.005 -7.87057e-11 0)
(0.005 -8.35135e-11 0)
(0.005 -8.85548e-11 0)
(0.005 -9.38375e-11 0)
(0.005 -9.93698e-11 0)
(0.005 -1.0516e-10 0)
(0.005 -1.11216e-10 0)
(0.005 -1.17546e-10 0)
(0.005 -1.24159e-10 0)
(0.005 -1.31062e-10 0)
(0.005 -1.38264e-10 0)
(0.005 -1.45772e-10 0)
(0.005 -1.53595e-10 0)
(0.005 -1.61739e-10 0)
(0.005 -1.70212e-10 0)
(0.005 -1.79021e-10 0)
(0.005 -1.88172e-10 0)
(0.005 -1.97673e-10 0)
(0.005 -2.07528e-10 0)
(0.005 -2.17743e-10 0)
(0.005 -2.28323e-10 0)
(0.005 -2.39271e-10 0)
(0.005 -2.50591e-10 0)
(0.005 -2.62285e-10 0)
(0.005 -2.74354e-10 0)
(0.005 -2.86799e-10 0)
(0.005 -2.99618e-10 0)
(0.005 -3.12808e-10 0)
(0.005 -3.26366e-10 0)
(0.005 -3.40286e-10 0)
(0.005 -3.5456e-10 0)
(0.005 -3.69178e-10 0)
(0.005 -3.84127e-10 0)
(0.005 -3.99392e-10 0)
(0.005 -4.14955e-10 0)
(0.005 -4.30793e-10 0)
(0.005 -4.46882e-10 0)
(0.005 -4.6319e-10 0)
(0.005 -4.79682e-10 0)
(0.005 -4.96317e-10 0)
(0.005 -5.13046e-10 0)
(0.005 -5.29815e-10 0)
(0.005 -5.46558e-10 0)
(0.005 -5.63202e-10 0)
(0.005 -5.79661e-10 0)
(0.005 -5.95835e-10 0)
(0.005 -6.11611e-10 0)
(0.005 -6.26858e-10 0)
(0.005 -6.41425e-10 0)
(0.005 -6.55142e-10 0)
(0.005 -6.67818e-10 0)
(0.005 -6.79242e-10 0)
(0.005 -6.89187e-10 0)
(0.005 -6.97408e-10 0)
(0.005 -7.03636e-10 0)
(0.005 -7.07759e-10 0)
(0.005 -7.10258e-10 0)
(0.005 -2.24375e-13 0)
(0.005 -6.7915e-13 0)
(0.005 -1.14071e-12 0)
(0.005 -1.61224e-12 0)
(0.005 -2.09867e-12 0)
(0.005 -2.60473e-12 0)
(0.005 -3.13472e-12 0)
(0.005 -3.69258e-12 0)
(0.005 -4.28196e-12 0)
(0.005 -4.90633e-12 0)
(0.005 -5.56905e-12 0)
(0.005 -6.27341e-12 0)
(0.005 -7.02273e-12 0)
(0.005 -7.82033e-12 0)
(0.005 -8.66959e-12 0)
(0.005 -9.57396e-12 0)
(0.005 -1.0537e-11 0)
(0.005 -1.15623e-11 0)
(0.005 -1.26536e-11 0)
(0.005 -1.38149e-11 0)
(0.005 -1.50501e-11 0)
(0.005 -1.63633e-11 0)
(0.005 -1.77588e-11 0)
(0.005 -1.92411e-11 0)
(0.005 -2.08147e-11 0)
(0.005 -2.24843e-11 0)
(0.005 -2.42549e-11 0)
(0.005 -2.61315e-11 0)
(0.005 -2.81193e-11 0)
(0.005 -3.02237e-11 0)
(0.005 -3.24503e-11 0)
(0.005 -3.48048e-11 0)
(0.005 -3.72931e-11 0)
(0.005 -3.99212e-11 0)
(0.005 -4.26955e-11 0)
(0.005 -4.56222e-11 0)
(0.005 -4.8708e-11 0)
(0.005 -5.19597e-11 0)
(0.005 -5.5384e-11 0)
(0.005 -5.8988e-11 0)
(0.005 -6.2779e-11 0)
(0.005 -6.67642e-11 0)
(0.005 -7.0951e-11 0)
(0.005 -7.53472e-11 0)
(0.005 -7.99602e-11 0)
(0.005 -8.4798e-11 0)
(0.005 -8.98683e-11 0)
(0.005 -9.51791e-11 0)
(0.005 -1.00738e-10 0)
(0.005 -1.06554e-10 0)
(0.005 -1.12634e-10 0)
(0.005 -1.18987e-10 0)
(0.005 -1.2562e-10 0)
(0.005 -1.32542e-10 0)
(0.005 -1.3976e-10 0)
(0.005 -1.47281e-10 0)
(0.005 -1.55114e-10 0)
(0.005 -1.63266e-10 0)
(0.005 -1.71743e-10 0)
(0.005 -1.80552e-10 0)
(0.005 -1.89701e-10 0)
(0.005 -1.99194e-10 0)
(0.005 -2.09038e-10 0)
(0.005 -2.19237e-10 0)
(0.005 -2.29796e-10 0)
(0.005 -2.40718e-10 0)
(0.005 -2.52006e-10 0)
(0.005 -2.63663e-10 0)
(0.005 -2.7569e-10 0)
(0.005 -2.88086e-10 0)
(0.005 -3.0085e-10 0)
(0.005 -3.13979e-10 0)
(0.005 -3.2747e-10 0)
(0.005 -3.41316e-10 0)
(0.005 -3.5551e-10 0)
(0.005 -3.70041e-10 0)
(0.005 -3.84897e-10 0)
(0.005 -4.00062e-10 0)
(0.005 -4.1552e-10 0)
(0.005 -4.31247e-10 0)
(0.005 -4.47217e-10 0)
(0.005 -4.63402e-10 0)
(0.005 -4.79764e-10 0)
(0.005 -4.96263e-10 0)
(0.005 -5.1285e-10 0)
(0.005 -5.2947e-10 0)
(0.005 -5.46057e-10 0)
(0.005 -5.62536e-10 0)
(0.005 -5.78818e-10 0)
(0.005 -5.94804e-10 0)
(0.005 -6.10374e-10 0)
(0.005 -6.25395e-10 0)
(0.005 -6.39712e-10 0)
(0.005 -6.53149e-10 0)
(0.005 -6.65509e-10 0)
(0.005 -6.76574e-10 0)
(0.005 -6.861e-10 0)
(0.005 -6.93834e-10 0)
(0.005 -6.99624e-10 0)
(0.005 -7.03575e-10 0)
(0.005 -2.01172e-13 0)
(0.005 -6.19145e-13 0)
(0.005 -1.05202e-12 0)
(0.005 -1.49951e-12 0)
(0.005 -1.96389e-12 0)
(0.005 -2.44839e-12 0)
(0.005 -2.95644e-12 0)
(0.005 -3.49149e-12 0)
(0.005 -4.05685e-12 0)
(0.005 -4.65577e-12 0)
(0.005 -5.29143e-12 0)
(0.005 -5.967e-12 0)
(0.005 -6.68564e-12 0)
(0.005 -7.45054e-12 0)
(0.005 -8.26496e-12 0)
(0.005 -9.13222e-12 0)
(0.005 -1.00557e-11 0)
(0.005 -1.1039e-11 0)
(0.005 -1.20856e-11 0)
(0.005 -1.31993e-11 0)
(0.005 -1.4384e-11 0)
(0.005 -1.56435e-11 0)
(0.005 -1.69822e-11 0)
(0.005 -1.84041e-11 0)
(0.005 -1.99138e-11 0)
(0.005 -2.15157e-11 0)
(0.005 -2.32146e-11 0)
(0.005 -2.50154e-11 0)
(0.005 -2.69232e-11 0)
(0.005 -2.8943e-11 0)
(0.005 -3.10803e-11 0)
(0.005 -3.33407e-11 0)
(0.005 -3.57297e-11 0)
(0.005 -3.82533e-11 0)
(0.005 -4.09175e-11 0)
(0.005 -4.37285e-11 0)
(0.005 -4.66927e-11 0)
(0.005 -4.98165e-11 0)
(0.005 -5.31066e-11 0)
(0.005 -5.65698e-11 0)
(0.005 -6.02131e-11 0)
(0.005 -6.40437e-11 0)
(0.005 -6.80686e-11 0)
(0.005 -7.22953e-11 0)
(0.005 -7.67313e-11 0)
(0.005 -8.13841e-11 0)
(0.005 -8.62613e-11 0)
(0.005 -9.13707e-11 0)
(0.005 -9.67201e-11 0)
(0.005 -1.02317e-10 0)
(0.005 -1.0817e-10 0)
(0.005 -1.14286e-10 0)
(0.005 -1.20674e-10 0)
(0.005 -1.27341e-10 0)
(0.005 -1.34295e-10 0)
(0.005 -1.41543e-10 0)
(0.005 -1.49093e-10 0)
(0.005 -1.56952e-10 0)
(0.005 -1.65127e-10 0)
(0.005 -1.73626e-10 0)
(0.005 -1.82454e-10 0)
(0.005 -1.91618e-10 0)
(0.005 -2.01124e-10 0)
(0.005 -2.10976e-10 0)
(0.005 -2.21181e-10 0)
(0.005 -2.31741e-10 0)
(0.005 -2.4266e-10 0)
(0.005 -2.53942e-10 0)
(0.005 -2.65588e-10 0)
(0.005 -2.77598e-10 0)
(0.005 -2.89974e-10 0)
(0.005 -3.02713e-10 0)
(0.005 -3.15812e-10 0)
(0.005 -3.29268e-10 0)
(0.005 -3.43075e-10 0)
(0.005 -3.57224e-10 0)
(0.005 -3.71706e-10 0)
(0.005 -3.86508e-10 0)
(0.005 -4.01616e-10 0)
(0.005 -4.17011e-10 0)
(0.005 -4.32671e-10 0)
(0.005 -4.4857e-10 0)
(0.005 -4.64679e-10 0)
(0.005 -4.80962e-10 0)
(0.005 -4.97376e-10 0)
(0.005 -5.13873e-10 0)
(0.005 -5.30396e-10 0)
(0.005 -5.46877e-10 0)
(0.005 -5.63239e-10 0)
(0.005 -5.7939e-10 0)
(0.005 -5.95224e-10 0)
(0.005 -6.10616e-10 0)
(0.005 -6.25423e-10 0)
(0.005 -6.39477e-10 0)
(0.005 -6.52585e-10 0)
(0.005 -6.64521e-10 0)
(0.005 -6.75024e-10 0)
(0.005 -6.83785e-10 0)
(0.005 -6.90487e-10 0)
(0.005 -6.95131e-10 0)
(0.005 -1.82334e-13 0)
(0.005 -5.66721e-13 0)
(0.005 -9.70661e-13 0)
(0.005 -1.39288e-12 0)
(0.005 -1.83407e-12 0)
(0.005 -2.29621e-12 0)
(0.005 -2.78188e-12 0)
(0.005 -3.29394e-12 0)
(0.005 -3.83531e-12 0)
(0.005 -4.40896e-12 0)
(0.005 -5.01786e-12 0)
(0.005 -5.66499e-12 0)
(0.005 -6.35337e-12 0)
(0.005 -7.08606e-12 0)
(0.005 -7.86617e-12 0)
(0.005 -8.69689e-12 0)
(0.005 -9.5815e-12 0)
(0.005 -1.05234e-11 0)
(0.005 -1.15259e-11 0)
(0.005 -1.25928e-11 0)
(0.005 -1.37277e-11 0)
(0.005 -1.49345e-11 0)
(0.005 -1.62171e-11 0)
(0.005 -1.75796e-11 0)
(0.005 -1.90263e-11 0)
(0.005 -2.05615e-11 0)
(0.005 -2.21899e-11 0)
(0.005 -2.3916e-11 0)
(0.005 -2.57449e-11 0)
(0.005 -2.76814e-11 0)
(0.005 -2.97308e-11 0)
(0.005 -3.18983e-11 0)
(0.005 -3.41896e-11 0)
(0.005 -3.66102e-11 0)
(0.005 -3.91659e-11 0)
(0.005 -4.18628e-11 0)
(0.005 -4.4707e-11 0)
(0.005 -4.77048e-11 0)
(0.005 -5.08626e-11 0)
(0.005 -5.4187e-11 0)
(0.005 -5.76848e-11 0)
(0.005 -6.13629e-11 0)
(0.005 -6.52282e-11 0)
(0.005 -6.92879e-11 0)
(0.005 -7.35493e-11 0)
(0.005 -7.80196e-11 0)
(0.005 -8.27064e-11 0)
(0.005 -8.76173e-11 0)
(0.005 -9.27597e-11 0)
(0.005 -9.81413e-11 0)
(0.005 -1.0377e-10 0)
(0.005 -1.09653e-10 0)
(0.005 -1.15799e-10 0)
(0.005 -1.22214e-10 0)
(0.005 -1.28907e-10 0)
(0.005 -1.35885e-10 0)
(0.005 -1.43156e-10 0)
(0.005 -1.50727e-10 0)
(0.005 -1.58605e-10 0)
(0.005 -1.66796e-10 0)
(0.005 -1.75308e-10 0)
(0.005 -1.84147e-10 0)
(0.005 -1.93319e-10 0)
(0.005 -2.0283e-10 0)
(0.005 -2.12684e-10 0)
(0.005 -2.22887e-10 0)
(0.005 -2.33442e-10 0)
(0.005 -2.44353e-10 0)
(0.005 -2.55622e-10 0)
(0.005 -2.67252e-10 0)
(0.005 -2.79244e-10 0)
(0.005 -2.91596e-10 0)
(0.005 -3.04308e-10 0)
(0.005 -3.17378e-10 0)
(0.005 -3.30801e-10 0)
(0.005 -3.44571e-10 0)
(0.005 -3.58682e-10 0)
(0.005 -3.73123e-10 0)
(0.005 -3.87882e-10 0)
(0.005 -4.02944e-10 0)
(0.005 -4.18293e-10 0)
(0.005 -4.33906e-10 0)
(0.005 -4.49757e-10 0)
(0.005 -4.65818e-10 0)
(0.005 -4.8205e-10 0)
(0.005 -4.98414e-10 0)
(0.005 -5.14857e-10 0)
(0.005 -5.31322e-10 0)
(0.005 -5.47738e-10 0)
(0.005 -5.64023e-10 0)
(0.005 -5.80079e-10 0)
(0.005 -5.9579e-10 0)
(0.005 -6.11018e-10 0)
(0.005 -6.25599e-10 0)
(0.005 -6.39338e-10 0)
(0.005 -6.51997e-10 0)
(0.005 -6.63284e-10 0)
(0.005 -6.72827e-10 0)
(0.005 -6.80178e-10 0)
(0.005 -6.84889e-10 0)
(0.005 -1.66e-13 0)
(0.005 -5.19512e-13 0)
(0.005 -8.95146e-13 0)
(0.005 -1.29158e-12 0)
(0.005 -1.70872e-12 0)
(0.005 -2.14767e-12 0)
(0.005 -2.6103e-12 0)
(0.005 -3.09889e-12 0)
(0.005 -3.61597e-12 0)
(0.005 -4.16418e-12 0)
(0.005 -4.74627e-12 0)
(0.005 -5.365e-12 0)
(0.005 -6.02323e-12 0)
(0.005 -6.72385e-12 0)
(0.005 -7.46984e-12 0)
(0.005 -8.26425e-12 0)
(0.005 -9.11021e-12 0)
(0.005 -1.00109e-11 0)
(0.005 -1.09698e-11 0)
(0.005 -1.19902e-11 0)
(0.005 -1.30757e-11 0)
(0.005 -1.42301e-11 0)
(0.005 -1.5457e-11 0)
(0.005 -1.67605e-11 0)
(0.005 -1.81447e-11 0)
(0.005 -1.96138e-11 0)
(0.005 -2.11721e-11 0)
(0.005 -2.28241e-11 0)
(0.005 -2.45746e-11 0)
(0.005 -2.64284e-11 0)
(0.005 -2.83905e-11 0)
(0.005 -3.04659e-11 0)
(0.005 -3.26601e-11 0)
(0.005 -3.49784e-11 0)
(0.005 -3.74265e-11 0)
(0.005 -4.00101e-11 0)
(0.005 -4.27352e-11 0)
(0.005 -4.56078e-11 0)
(0.005 -4.86342e-11 0)
(0.005 -5.18208e-11 0)
(0.005 -5.51741e-11 0)
(0.005 -5.87007e-11 0)
(0.005 -6.24075e-11 0)
(0.005 -6.63014e-11 0)
(0.005 -7.03893e-11 0)
(0.005 -7.46786e-11 0)
(0.005 -7.91763e-11 0)
(0.005 -8.38898e-11 0)
(0.005 -8.88267e-11 0)
(0.005 -9.39942e-11 0)
(0.005 -9.94e-11 0)
(0.005 -1.05052e-10 0)
(0.005 -1.10956e-10 0)
(0.005 -1.17122e-10 0)
(0.005 -1.23557e-10 0)
(0.005 -1.30267e-10 0)
(0.005 -1.3726e-10 0)
(0.005 -1.44544e-10 0)
(0.005 -1.52126e-10 0)
(0.005 -1.60013e-10 0)
(0.005 -1.68211e-10 0)
(0.005 -1.76727e-10 0)
(0.005 -1.85567e-10 0)
(0.005 -1.94738e-10 0)
(0.005 -2.04244e-10 0)
(0.005 -2.14091e-10 0)
(0.005 -2.24284e-10 0)
(0.005 -2.34826e-10 0)
(0.005 -2.45721e-10 0)
(0.005 -2.56972e-10 0)
(0.005 -2.6858e-10 0)
(0.005 -2.80548e-10 0)
(0.005 -2.92874e-10 0)
(0.005 -3.05558e-10 0)
(0.005 -3.18598e-10 0)
(0.005 -3.3199e-10 0)
(0.005 -3.45729e-10 0)
(0.005 -3.59807e-10 0)
(0.005 -3.74216e-10 0)
(0.005 -3.88944e-10 0)
(0.005 -4.03977e-10 0)
(0.005 -4.19298e-10 0)
(0.005 -4.34885e-10 0)
(0.005 -4.50714e-10 0)
(0.005 -4.66755e-10 0)
(0.005 -4.8297e-10 0)
(0.005 -4.99316e-10 0)
(0.005 -5.15742e-10 0)
(0.005 -5.32184e-10 0)
(0.005 -5.48567e-10 0)
(0.005 -5.64801e-10 0)
(0.005 -5.80774e-10 0)
(0.005 -5.96354e-10 0)
(0.005 -6.11375e-10 0)
(0.005 -6.25635e-10 0)
(0.005 -6.3888e-10 0)
(0.005 -6.50785e-10 0)
(0.005 -6.60918e-10 0)
(0.005 -6.68734e-10 0)
(0.005 -6.73253e-10 0)
(0.005 -1.51588e-13 0)
(0.005 -4.76723e-13 0)
(0.005 -8.25247e-13 0)
(0.005 -1.19614e-12 0)
(0.005 -1.58897e-12 0)
(0.005 -2.00432e-12 0)
(0.005 -2.44349e-12 0)
(0.005 -2.90831e-12 0)
(0.005 -3.40092e-12 0)
(0.005 -3.92366e-12 0)
(0.005 -4.47899e-12 0)
(0.005 -5.06949e-12 0)
(0.005 -5.69781e-12 0)
(0.005 -6.36669e-12 0)
(0.005 -7.07895e-12 0)
(0.005 -7.83749e-12 0)
(0.005 -8.64531e-12 0)
(0.005 -9.50549e-12 0)
(0.005 -1.04212e-11 0)
(0.005 -1.13958e-11 0)
(0.005 -1.24326e-11 0)
(0.005 -1.35353e-11 0)
(0.005 -1.47074e-11 0)
(0.005 -1.59528e-11 0)
(0.005 -1.72754e-11 0)
(0.005 -1.86791e-11 0)
(0.005 -2.01684e-11 0)
(0.005 -2.17474e-11 0)
(0.005 -2.34207e-11 0)
(0.005 -2.5193e-11 0)
(0.005 -2.7069e-11 0)
(0.005 -2.90536e-11 0)
(0.005 -3.11521e-11 0)
(0.005 -3.33695e-11 0)
(0.005 -3.57115e-11 0)
(0.005 -3.81834e-11 0)
(0.005 -4.07911e-11 0)
(0.005 -4.35404e-11 0)
(0.005 -4.64373e-11 0)
(0.005 -4.9488e-11 0)
(0.005 -5.26988e-11 0)
(0.005 -5.60762e-11 0)
(0.005 -5.96266e-11 0)
(0.005 -6.3357e-11 0)
(0.005 -6.7274e-11 0)
(0.005 -7.13846e-11 0)
(0.005 -7.56958e-11 0)
(0.005 -8.02149e-11 0)
(0.005 -8.4949e-11 0)
(0.005 -8.99054e-11 0)
(0.005 -9.50915e-11 0)
(0.005 -1.00515e-10 0)
(0.005 -1.06182e-10 0)
(0.005 -1.12102e-10 0)
(0.005 -1.18281e-10 0)
(0.005 -1.24727e-10 0)
(0.005 -1.31447e-10 0)
(0.005 -1.38448e-10 0)
(0.005 -1.45738e-10 0)
(0.005 -1.53323e-10 0)
(0.005 -1.61211e-10 0)
(0.005 -1.69409e-10 0)
(0.005 -1.77922e-10 0)
(0.005 -1.86756e-10 0)
(0.005 -1.95919e-10 0)
(0.005 -2.05415e-10 0)
(0.005 -2.1525e-10 0)
(0.005 -2.25427e-10 0)
(0.005 -2.35952e-10 0)
(0.005 -2.46828e-10 0)
(0.005 -2.58058e-10 0)
(0.005 -2.69645e-10 0)
(0.005 -2.81588e-10 0)
(0.005 -2.9389e-10 0)
(0.005 -3.0655e-10 0)
(0.005 -3.19565e-10 0)
(0.005 -3.32934e-10 0)
(0.005 -3.4665e-10 0)
(0.005 -3.60709e-10 0)
(0.005 -3.75101e-10 0)
(0.005 -3.89816e-10 0)
(0.005 -4.0484e-10 0)
(0.005 -4.20157e-10 0)
(0.005 -4.35746e-10 0)
(0.005 -4.51582e-10 0)
(0.005 -4.67633e-10 0)
(0.005 -4.83862e-10 0)
(0.005 -5.00223e-10 0)
(0.005 -5.16659e-10 0)
(0.005 -5.33101e-10 0)
(0.005 -5.49462e-10 0)
(0.005 -5.65636e-10 0)
(0.005 -5.8149e-10 0)
(0.005 -5.96858e-10 0)
(0.005 -6.11527e-10 0)
(0.005 -6.25225e-10 0)
(0.005 -6.37595e-10 0)
(0.005 -6.48151e-10 0)
(0.005 -6.56258e-10 0)
(0.005 -6.60686e-10 0)
(0.005 -1.38658e-13 0)
(0.005 -4.37639e-13 0)
(0.005 -7.60435e-13 0)
(0.005 -1.10643e-12 0)
(0.005 -1.47512e-12 0)
(0.005 -1.86677e-12 0)
(0.005 -2.28233e-12 0)
(0.005 -2.72324e-12 0)
(0.005 -3.19132e-12 0)
(0.005 -3.68859e-12 0)
(0.005 -4.21729e-12 0)
(0.005 -4.77976e-12 0)
(0.005 -5.37848e-12 0)
(0.005 -6.016e-12 0)
(0.005 -6.69499e-12 0)
(0.005 -7.41819e-12 0)
(0.005 -8.18844e-12 0)
(0.005 -9.00871e-12 0)
(0.005 -9.88202e-12 0)
(0.005 -1.08115e-11 0)
(0.005 -1.18005e-11 0)
(0.005 -1.28524e-11 0)
(0.005 -1.39706e-11 0)
(0.005 -1.51589e-11 0)
(0.005 -1.64209e-11 0)
(0.005 -1.77606e-11 0)
(0.005 -1.9182e-11 0)
(0.005 -2.06892e-11 0)
(0.005 -2.22867e-11 0)
(0.005 -2.39789e-11 0)
(0.005 -2.57703e-11 0)
(0.005 -2.76657e-11 0)
(0.005 -2.96701e-11 0)
(0.005 -3.17885e-11 0)
(0.005 -3.40262e-11 0)
(0.005 -3.63884e-11 0)
(0.005 -3.88807e-11 0)
(0.005 -4.15087e-11 0)
(0.005 -4.42784e-11 0)
(0.005 -4.71955e-11 0)
(0.005 -5.02663e-11 0)
(0.005 -5.3497e-11 0)
(0.005 -5.68938e-11 0)
(0.005 -6.04634e-11 0)
(0.005 -6.42124e-11 0)
(0.005 -6.81474e-11 0)
(0.005 -7.22754e-11 0)
(0.005 -7.66033e-11 0)
(0.005 -8.11381e-11 0)
(0.005 -8.58869e-11 0)
(0.005 -9.0857e-11 0)
(0.005 -9.60556e-11 0)
(0.005 -1.0149e-10 0)
(0.005 -1.07168e-10 0)
(0.005 -1.13095e-10 0)
(0.005 -1.19281e-10 0)
(0.005 -1.25732e-10 0)
(0.005 -1.32455e-10 0)
(0.005 -1.39458e-10 0)
(0.005 -1.46747e-10 0)
(0.005 -1.5433e-10 0)
(0.005 -1.62214e-10 0)
(0.005 -1.70404e-10 0)
(0.005 -1.78909e-10 0)
(0.005 -1.87733e-10 0)
(0.005 -1.96883e-10 0)
(0.005 -2.06365e-10 0)
(0.005 -2.16183e-10 0)
(0.005 -2.26343e-10 0)
(0.005 -2.36849e-10 0)
(0.005 -2.47706e-10 0)
(0.005 -2.58915e-10 0)
(0.005 -2.70481e-10 0)
(0.005 -2.82405e-10 0)
(0.005 -2.94687e-10 0)
(0.005 -3.07329e-10 0)
(0.005 -3.20329e-10 0)
(0.005 -3.33685e-10 0)
(0.005 -3.47393e-10 0)
(0.005 -3.61448e-10 0)
(0.005 -3.75842e-10 0)
(0.005 -3.90565e-10 0)
(0.005 -4.05604e-10 0)
(0.005 -4.20943e-10 0)
(0.005 -4.3656e-10 0)
(0.005 -4.52431e-10 0)
(0.005 -4.68521e-10 0)
(0.005 -4.84789e-10 0)
(0.005 -5.01184e-10 0)
(0.005 -5.17641e-10 0)
(0.005 -5.34077e-10 0)
(0.005 -5.50388e-10 0)
(0.005 -5.66441e-10 0)
(0.005 -5.82065e-10 0)
(0.005 -5.97037e-10 0)
(0.005 -6.11068e-10 0)
(0.005 -6.23771e-10 0)
(0.005 -6.34619e-10 0)
(0.005 -6.429e-10 0)
(0.005 -6.47383e-10 0)
(0.005 -1.26879e-13 0)
(0.005 -4.01643e-13 0)
(0.005 -7.00113e-13 0)
(0.005 -1.02207e-12 0)
(0.005 -1.36707e-12 0)
(0.005 -1.73521e-12 0)
(0.005 -2.12721e-12 0)
(0.005 -2.54423e-12 0)
(0.005 -2.98781e-12 0)
(0.005 -3.45972e-12 0)
(0.005 -3.96195e-12 0)
(0.005 -4.49665e-12 0)
(0.005 -5.06608e-12 0)
(0.005 -5.67265e-12 0)
(0.005 -6.31884e-12 0)
(0.005 -7.00724e-12 0)
(0.005 -7.74057e-12 0)
(0.005 -8.5216e-12 0)
(0.005 -9.35326e-12 0)
(0.005 -1.02385e-11 0)
(0.005 -1.11806e-11 0)
(0.005 -1.21826e-11 0)
(0.005 -1.3248e-11 0)
(0.005 -1.43802e-11 0)
(0.005 -1.55828e-11 0)
(0.005 -1.68596e-11 0)
(0.005 -1.82144e-11 0)
(0.005 -1.96513e-11 0)
(0.005 -2.11744e-11 0)
(0.005 -2.2788e-11 0)
(0.005 -2.44965e-11 0)
(0.005 -2.63044e-11 0)
(0.005 -2.82166e-11 0)
(0.005 -3.02378e-11 0)
(0.005 -3.23732e-11 0)
(0.005 -3.46277e-11 0)
(0.005 -3.70069e-11 0)
(0.005 -3.95161e-11 0)
(0.005 -4.21608e-11 0)
(0.005 -4.4947e-11 0)
(0.005 -4.78804e-11 0)
(0.005 -5.09671e-11 0)
(0.005 -5.42133e-11 0)
(0.005 -5.76252e-11 0)
(0.005 -6.12093e-11 0)
(0.005 -6.49721e-11 0)
(0.005 -6.89202e-11 0)
(0.005 -7.30604e-11 0)
(0.005 -7.73997e-11 0)
(0.005 -8.19448e-11 0)
(0.005 -8.6703e-11 0)
(0.005 -9.16811e-11 0)
(0.005 -9.68865e-11 0)
(0.005 -1.02326e-10 0)
(0.005 -1.08008e-10 0)
(0.005 -1.13938e-10 0)
(0.005 -1.20125e-10 0)
(0.005 -1.26575e-10 0)
(0.005 -1.33296e-10 0)
(0.005 -1.40294e-10 0)
(0.005 -1.47577e-10 0)
(0.005 -1.55152e-10 0)
(0.005 -1.63026e-10 0)
(0.005 -1.71206e-10 0)
(0.005 -1.79697e-10 0)
(0.005 -1.88507e-10 0)
(0.005 -1.97641e-10 0)
(0.005 -2.07106e-10 0)
(0.005 -2.16907e-10 0)
(0.005 -2.27048e-10 0)
(0.005 -2.37536e-10 0)
(0.005 -2.48374e-10 0)
(0.005 -2.59566e-10 0)
(0.005 -2.71115e-10 0)
(0.005 -2.83025e-10 0)
(0.005 -2.95296e-10 0)
(0.005 -3.0793e-10 0)
(0.005 -3.20926e-10 0)
(0.005 -3.34283e-10 0)
(0.005 -3.47999e-10 0)
(0.005 -3.62068e-10 0)
(0.005 -3.76484e-10 0)
(0.005 -3.91238e-10 0)
(0.005 -4.06316e-10 0)
(0.005 -4.21701e-10 0)
(0.005 -4.37372e-10 0)
(0.005 -4.53299e-10 0)
(0.005 -4.69446e-10 0)
(0.005 -4.85765e-10 0)
(0.005 -5.02194e-10 0)
(0.005 -5.18652e-10 0)
(0.005 -5.35038e-10 0)
(0.005 -5.51215e-10 0)
(0.005 -5.67009e-10 0)
(0.005 -5.82187e-10 0)
(0.005 -5.96444e-10 0)
(0.005 -6.09372e-10 0)
(0.005 -6.20409e-10 0)
(0.005 -6.28788e-10 0)
(0.005 -6.33451e-10 0)
(0.005 -1.16038e-13 0)
(0.005 -3.68279e-13 0)
(0.005 -6.43786e-13 0)
(0.005 -9.42681e-13 0)
(0.005 -1.26463e-12 0)
(0.005 -1.60966e-12 0)
(0.005 -1.97836e-12 0)
(0.005 -2.37167e-12 0)
(0.005 -2.79092e-12 0)
(0.005 -3.23766e-12 0)
(0.005 -3.71367e-12 0)
(0.005 -4.22089e-12 0)
(0.005 -4.76142e-12 0)
(0.005 -5.33747e-12 0)
(0.005 -5.95138e-12 0)
(0.005 -6.60558e-12 0)
(0.005 -7.30263e-12 0)
(0.005 -8.04517e-12 0)
(0.005 -8.83597e-12 0)
(0.005 -9.67788e-12 0)
(0.005 -1.05739e-11 0)
(0.005 -1.15271e-11 0)
(0.005 -1.25407e-11 0)
(0.005 -1.3618e-11 0)
(0.005 -1.47625e-11 0)
(0.005 -1.59777e-11 0)
(0.005 -1.72674e-11 0)
(0.005 -1.86354e-11 0)
(0.005 -2.00857e-11 0)
(0.005 -2.16223e-11 0)
(0.005 -2.32496e-11 0)
(0.005 -2.4972e-11 0)
(0.005 -2.67938e-11 0)
(0.005 -2.872e-11 0)
(0.005 -3.07551e-11 0)
(0.005 -3.29043e-11 0)
(0.005 -3.51727e-11 0)
(0.005 -3.75655e-11 0)
(0.005 -4.0088e-11 0)
(0.005 -4.27459e-11 0)
(0.005 -4.55448e-11 0)
(0.005 -4.84906e-11 0)
(0.005 -5.15892e-11 0)
(0.005 -5.48467e-11 0)
(0.005 -5.82693e-11 0)
(0.005 -6.18634e-11 0)
(0.005 -6.56353e-11 0)
(0.005 -6.95918e-11 0)
(0.005 -7.37395e-11 0)
(0.005 -7.80851e-11 0)
(0.005 -8.26355e-11 0)
(0.005 -8.73978e-11 0)
(0.005 -9.23788e-11 0)
(0.005 -9.75857e-11 0)
(0.005 -1.03026e-10 0)
(0.005 -1.08706e-10 0)
(0.005 -1.14633e-10 0)
(0.005 -1.20816e-10 0)
(0.005 -1.2726e-10 0)
(0.005 -1.33973e-10 0)
(0.005 -1.40962e-10 0)
(0.005 -1.48235e-10 0)
(0.005 -1.55798e-10 0)
(0.005 -1.63658e-10 0)
(0.005 -1.71823e-10 0)
(0.005 -1.80298e-10 0)
(0.005 -1.89091e-10 0)
(0.005 -1.98208e-10 0)
(0.005 -2.07655e-10 0)
(0.005 -2.17438e-10 0)
(0.005 -2.27562e-10 0)
(0.005 -2.38034e-10 0)
(0.005 -2.48857e-10 0)
(0.005 -2.60036e-10 0)
(0.005 -2.71575e-10 0)
(0.005 -2.83479e-10 0)
(0.005 -2.95748e-10 0)
(0.005 -3.08386e-10 0)
(0.005 -3.21392e-10 0)
(0.005 -3.34767e-10 0)
(0.005 -3.48508e-10 0)
(0.005 -3.62611e-10 0)
(0.005 -3.7707e-10 0)
(0.005 -3.91876e-10 0)
(0.005 -4.07014e-10 0)
(0.005 -4.22466e-10 0)
(0.005 -4.38207e-10 0)
(0.005 -4.54203e-10 0)
(0.005 -4.7041e-10 0)
(0.005 -4.86767e-10 0)
(0.005 -5.03197e-10 0)
(0.005 -5.19597e-10 0)
(0.005 -5.3583e-10 0)
(0.005 -5.51714e-10 0)
(0.005 -5.67012e-10 0)
(0.005 -5.81405e-10 0)
(0.005 -5.94468e-10 0)
(0.005 -6.05628e-10 0)
(0.005 -6.14116e-10 0)
(0.005 -6.19021e-10 0)
(0.005 -1.0599e-13 0)
(0.005 -3.37213e-13 0)
(0.005 -5.91054e-13 0)
(0.005 -8.67917e-13 0)
(0.005 -1.16758e-12 0)
(0.005 -1.49008e-12 0)
(0.005 -1.83588e-12 0)
(0.005 -2.20583e-12 0)
(0.005 -2.60105e-12 0)
(0.005 -3.02291e-12 0)
(0.005 -3.47303e-12 0)
(0.005 -3.95315e-12 0)
(0.005 -4.46521e-12 0)
(0.005 -5.01124e-12 0)
(0.005 -5.59343e-12 0)
(0.005 -6.21407e-12 0)
(0.005 -6.87555e-12 0)
(0.005 -7.58038e-12 0)
(0.005 -8.33117e-12 0)
(0.005 -9.13064e-12 0)
(0.005 -9.98163e-12 0)
(0.005 -1.08871e-11 0)
(0.005 -1.185e-11 0)
(0.005 -1.28737e-11 0)
(0.005 -1.39614e-11 0)
(0.005 -1.51165e-11 0)
(0.005 -1.63425e-11 0)
(0.005 -1.76432e-11 0)
(0.005 -1.90223e-11 0)
(0.005 -2.04838e-11 0)
(0.005 -2.20318e-11 0)
(0.005 -2.36704e-11 0)
(0.005 -2.54041e-11 0)
(0.005 -2.72372e-11 0)
(0.005 -2.91746e-11 0)
(0.005 -3.12208e-11 0)
(0.005 -3.33809e-11 0)
(0.005 -3.56599e-11 0)
(0.005 -3.8063e-11 0)
(0.005 -4.05956e-11 0)
(0.005 -4.32631e-11 0)
(0.005 -4.60711e-11 0)
(0.005 -4.90254e-11 0)
(0.005 -5.2132e-11 0)
(0.005 -5.53967e-11 0)
(0.005 -5.88259e-11 0)
(0.005 -6.24256e-11 0)
(0.005 -6.62025e-11 0)
(0.005 -7.01628e-11 0)
(0.005 -7.43133e-11 0)
(0.005 -7.86606e-11 0)
(0.005 -8.32116e-11 0)
(0.005 -8.79731e-11 0)
(0.005 -9.29522e-11 0)
(0.005 -9.81558e-11 0)
(0.005 -1.03591e-10 0)
(0.005 -1.09265e-10 0)
(0.005 -1.15185e-10 0)
(0.005 -1.21358e-10 0)
(0.005 -1.27792e-10 0)
(0.005 -1.34493e-10 0)
(0.005 -1.4147e-10 0)
(0.005 -1.48728e-10 0)
(0.005 -1.56276e-10 0)
(0.005 -1.6412e-10 0)
(0.005 -1.72267e-10 0)
(0.005 -1.80725e-10 0)
(0.005 -1.89501e-10 0)
(0.005 -1.986e-10 0)
(0.005 -2.0803e-10 0)
(0.005 -2.17796e-10 0)
(0.005 -2.27906e-10 0)
(0.005 -2.38365e-10 0)
(0.005 -2.49179e-10 0)
(0.005 -2.60352e-10 0)
(0.005 -2.7189e-10 0)
(0.005 -2.83798e-10 0)
(0.005 -2.96077e-10 0)
(0.005 -3.08732e-10 0)
(0.005 -3.21764e-10 0)
(0.005 -3.35173e-10 0)
(0.005 -3.48957e-10 0)
(0.005 -3.63114e-10 0)
(0.005 -3.77635e-10 0)
(0.005 -3.9251e-10 0)
(0.005 -4.07725e-10 0)
(0.005 -4.23255e-10 0)
(0.005 -4.39072e-10 0)
(0.005 -4.55131e-10 0)
(0.005 -4.71376e-10 0)
(0.005 -4.87729e-10 0)
(0.005 -5.04086e-10 0)
(0.005 -5.2031e-10 0)
(0.005 -5.36215e-10 0)
(0.005 -5.51557e-10 0)
(0.005 -5.66009e-10 0)
(0.005 -5.79137e-10 0)
(0.005 -5.90363e-10 0)
(0.005 -5.98938e-10 0)
(0.005 -6.0398e-10 0)
(0.005 -9.66339e-14 0)
(0.005 -3.08194e-13 0)
(0.005 -5.41596e-13 0)
(0.005 -7.97467e-13 0)
(0.005 -1.07569e-12 0)
(0.005 -1.37633e-12 0)
(0.005 -1.69981e-12 0)
(0.005 -2.04685e-12 0)
(0.005 -2.41846e-12 0)
(0.005 -2.81587e-12 0)
(0.005 -3.24051e-12 0)
(0.005 -3.69399e-12 0)
(0.005 -4.17807e-12 0)
(0.005 -4.69464e-12 0)
(0.005 -5.24574e-12 0)
(0.005 -5.83349e-12 0)
(0.005 -6.46015e-12 0)
(0.005 -7.12809e-12 0)
(0.005 -7.83977e-12 0)
(0.005 -8.59778e-12 0)
(0.005 -9.4048e-12 0)
(0.005 -1.02636e-11 0)
(0.005 -1.11772e-11 0)
(0.005 -1.21485e-11 0)
(0.005 -1.31807e-11 0)
(0.005 -1.42771e-11 0)
(0.005 -1.54411e-11 0)
(0.005 -1.66761e-11 0)
(0.005 -1.79858e-11 0)
(0.005 -1.9374e-11 0)
(0.005 -2.08446e-11 0)
(0.005 -2.24017e-11 0)
(0.005 -2.40493e-11 0)
(0.005 -2.57918e-11 0)
(0.005 -2.76337e-11 0)
(0.005 -2.95795e-11 0)
(0.005 -3.16341e-11 0)
(0.005 -3.38021e-11 0)
(0.005 -3.60887e-11 0)
(0.005 -3.8499e-11 0)
(0.005 -4.10382e-11 0)
(0.005 -4.37118e-11 0)
(0.005 -4.65255e-11 0)
(0.005 -4.94847e-11 0)
(0.005 -5.25955e-11 0)
(0.005 -5.58636e-11 0)
(0.005 -5.92953e-11 0)
(0.005 -6.28968e-11 0)
(0.005 -6.66742e-11 0)
(0.005 -7.06342e-11 0)
(0.005 -7.47832e-11 0)
(0.005 -7.9128e-11 0)
(0.005 -8.36752e-11 0)
(0.005 -8.84316e-11 0)
(0.005 -9.34044e-11 0)
(0.005 -9.86004e-11 0)
(0.005 -1.04027e-10 0)
(0.005 -1.0969e-10 0)
(0.005 -1.15599e-10 0)
(0.005 -1.21759e-10 0)
(0.005 -1.28179e-10 0)
(0.005 -1.34865e-10 0)
(0.005 -1.41826e-10 0)
(0.005 -1.49067e-10 0)
(0.005 -1.56597e-10 0)
(0.005 -1.64423e-10 0)
(0.005 -1.72553e-10 0)
(0.005 -1.80993e-10 0)
(0.005 -1.8975e-10 0)
(0.005 -1.98833e-10 0)
(0.005 -2.08248e-10 0)
(0.005 -2.18002e-10 0)
(0.005 -2.28102e-10 0)
(0.005 -2.38554e-10 0)
(0.005 -2.49366e-10 0)
(0.005 -2.60542e-10 0)
(0.005 -2.72089e-10 0)
(0.005 -2.84012e-10 0)
(0.005 -2.96315e-10 0)
(0.005 -3.09001e-10 0)
(0.005 -3.22074e-10 0)
(0.005 -3.35533e-10 0)
(0.005 -3.49378e-10 0)
(0.005 -3.63603e-10 0)
(0.005 -3.78201e-10 0)
(0.005 -3.93159e-10 0)
(0.005 -4.08456e-10 0)
(0.005 -4.24064e-10 0)
(0.005 -4.39942e-10 0)
(0.005 -4.56035e-10 0)
(0.005 -4.72265e-10 0)
(0.005 -4.88529e-10 0)
(0.005 -5.04686e-10 0)
(0.005 -5.2055e-10 0)
(0.005 -5.3587e-10 0)
(0.005 -5.50316e-10 0)
(0.005 -5.6345e-10 0)
(0.005 -5.74694e-10 0)
(0.005 -5.83307e-10 0)
(0.005 -5.88402e-10 0)
(0.005 -8.78971e-14 0)
(0.005 -2.81028e-13 0)
(0.005 -4.95151e-13 0)
(0.005 -7.31064e-13 0)
(0.005 -9.88747e-13 0)
(0.005 -1.26829e-12 0)
(0.005 -1.57009e-12 0)
(0.005 -1.8948e-12 0)
(0.005 -2.24333e-12 0)
(0.005 -2.61679e-12 0)
(0.005 -3.01646e-12 0)
(0.005 -3.44383e-12 0)
(0.005 -3.90051e-12 0)
(0.005 -4.38824e-12 0)
(0.005 -4.90891e-12 0)
(0.005 -5.46451e-12 0)
(0.005 -6.05717e-12 0)
(0.005 -6.68909e-12 0)
(0.005 -7.36261e-12 0)
(0.005 -8.08018e-12 0)
(0.005 -8.84434e-12 0)
(0.005 -9.65774e-12 0)
(0.005 -1.05232e-11 0)
(0.005 -1.14435e-11 0)
(0.005 -1.24217e-11 0)
(0.005 -1.34609e-11 0)
(0.005 -1.45644e-11 0)
(0.005 -1.57355e-11 0)
(0.005 -1.69777e-11 0)
(0.005 -1.82945e-11 0)
(0.005 -1.96898e-11 0)
(0.005 -2.11674e-11 0)
(0.005 -2.27313e-11 0)
(0.005 -2.43856e-11 0)
(0.005 -2.61345e-11 0)
(0.005 -2.79826e-11 0)
(0.005 -2.99343e-11 0)
(0.005 -3.19943e-11 0)
(0.005 -3.41674e-11 0)
(0.005 -3.64586e-11 0)
(0.005 -3.8873e-11 0)
(0.005 -4.14157e-11 0)
(0.005 -4.40922e-11 0)
(0.005 -4.6908e-11 0)
(0.005 -4.98687e-11 0)
(0.005 -5.29801e-11 0)
(0.005 -5.6248e-11 0)
(0.005 -5.96785e-11 0)
(0.005 -6.32778e-11 0)
(0.005 -6.70521e-11 0)
(0.005 -7.10078e-11 0)
(0.005 -7.51515e-11 0)
(0.005 -7.94897e-11 0)
(0.005 -8.40291e-11 0)
(0.005 -8.87766e-11 0)
(0.005 -9.37392e-11 0)
(0.005 -9.89238e-11 0)
(0.005 -1.04337e-10 0)
(0.005 -1.09988e-10 0)
(0.005 -1.15881e-10 0)
(0.005 -1.22026e-10 0)
(0.005 -1.28429e-10 0)
(0.005 -1.35097e-10 0)
(0.005 -1.42039e-10 0)
(0.005 -1.49262e-10 0)
(0.005 -1.56773e-10 0)
(0.005 -1.64581e-10 0)
(0.005 -1.72692e-10 0)
(0.005 -1.81115e-10 0)
(0.005 -1.89857e-10 0)
(0.005 -1.98926e-10 0)
(0.005 -2.0833e-10 0)
(0.005 -2.18076e-10 0)
(0.005 -2.28171e-10 0)
(0.005 -2.38624e-10 0)
(0.005 -2.49442e-10 0)
(0.005 -2.60631e-10 0)
(0.005 -2.72197e-10 0)
(0.005 -2.84148e-10 0)
(0.005 -2.96487e-10 0)
(0.005 -3.0922e-10 0)