/*--------------------------------*- C++ -*----------------------------------*\
  =========                 |
  \\      /  F ield         | OpenFOAM: The Open Source CFD Toolbox
   \\    /   O peration     | Website:  https://openfoam.org
    \\  /    A nd           | Version:  11
     \\/     M anipulation  |
\*---------------------------------------------------------------------------*/
FoamFile
{
    format      ascii;
    class       volScalarField;
    location    "582";
    object      nut;
}
// * * * * * * * * * * * * * * * * * * * * * * * * * * * * * * * * * * * * * //

dimensions      [0 2 -1 0 0 0 0];

internalField   nonuniform List<scalar> 
10000
(
0.000977118
0.000936709
0.000899654
0.000865633
0.000834358
0.000805571
0.000779039
0.000754556
0.000731931
0.000710997
0.000691602
0.000673608
0.000656891
0.000641341
0.000626857
0.000613347
0.000600729
0.00058893
0.000577881
0.000567521
0.000557796
0.000548654
0.00054005
0.000531943
0.000524293
0.000517068
0.000510234
0.000503764
0.000497631
0.000491811
0.000486282
0.000481023
0.000476015
0.000471242
0.000466688
0.000462338
0.000458179
0.000454198
0.000450384
0.000446727
0.000443216
0.000439842
0.000436597
0.000433474
0.000430464
0.000427562
0.00042476
0.000422054
0.000419438
0.000416906
0.000414454
0.000412078
0.000409774
0.000407539
0.000405368
0.00040326
0.000401211
0.000399219
0.000397282
0.000395398
0.000393566
0.000391784
0.000390053
0.00038837
0.000386737
0.000385153
0.000383619
0.000382136
0.000380707
0.000379332
0.000378014
0.000376757
0.000375564
0.000374439
0.000373388
0.000372414
0.000371526
0.000370728
0.000370029
0.000369437
0.000368959
0.000368604
0.000368381
0.000368299
0.000368368
0.000368595
0.000368988
0.000369552
0.000370292
0.000371209
0.000372297
0.000373549
0.000374946
0.000376461
0.000378052
0.000379661
0.000381207
0.000382577
0.000383626
0.000384187
0.000977118
0.000936709
0.000899654
0.000865633
0.000834358
0.000805571
0.00077904
0.000754556
0.000731931
0.000710997
0.000691602
0.000673608
0.000656891
0.000641341
0.000626857
0.000613347
0.00060073
0.00058893
0.000577881
0.000567522
0.000557796
0.000548654
0.00054005
0.000531943
0.000524294
0.000517068
0.000510235
0.000503765
0.000497632
0.000491812
0.000486282
0.000481023
0.000476016
0.000471243
0.000466689
0.000462339
0.00045818
0.000454199
0.000450385
0.000446727
0.000443216
0.000439843
0.000436598
0.000433475
0.000430465
0.000427563
0.000424761
0.000422055
0.000419439
0.000416907
0.000414455
0.000412079
0.000409776
0.00040754
0.00040537
0.000403262
0.000401213
0.000399221
0.000397284
0.0003954
0.000393568
0.000391786
0.000390054
0.000388372
0.000386739
0.000385155
0.000383621
0.000382138
0.000380709
0.000379334
0.000378016
0.000376759
0.000375566
0.000374441
0.000373389
0.000372416
0.000371527
0.00037073
0.000370031
0.000369438
0.000368959
0.000368604
0.000368381
0.000368299
0.000368368
0.000368594
0.000368986
0.000369551
0.00037029
0.000371206
0.000372294
0.000373545
0.000374941
0.000376455
0.000378046
0.000379655
0.0003812
0.00038257
0.000383619
0.00038418
0.000977118
0.000936709
0.000899654
0.000865633
0.000834358
0.000805571
0.00077904
0.000754556
0.000731931
0.000710997
0.000691602
0.000673608
0.000656892
0.000641342
0.000626857
0.000613347
0.00060073
0.00058893
0.000577881
0.000567522
0.000557797
0.000548655
0.000540051
0.000531943
0.000524294
0.000517069
0.000510236
0.000503766
0.000497633
0.000491813
0.000486283
0.000481024
0.000476017
0.000471244
0.00046669
0.00046234
0.000458181
0.0004542
0.000450386
0.000446729
0.000443218
0.000439844
0.0004366
0.000433476
0.000430467
0.000427565
0.000424763
0.000422057
0.000419441
0.000416909
0.000414458
0.000412082
0.000409778
0.000407543
0.000405373
0.000403264
0.000401215
0.000399224
0.000397287
0.000395403
0.000393571
0.000391789
0.000390058
0.000388375
0.000386742
0.000385158
0.000383624
0.000382142
0.000380712
0.000379337
0.00037802
0.000376762
0.000375569
0.000374444
0.000373392
0.000372419
0.00037153
0.000370732
0.000370033
0.000369439
0.00036896
0.000368605
0.000368381
0.000368298
0.000368366
0.000368591
0.000368983
0.000369546
0.000370284
0.000371199
0.000372286
0.000373536
0.000374931
0.000376445
0.000378035
0.000379643
0.000381187
0.000382556
0.000383605
0.000384165
0.000977118
0.00093671
0.000899655
0.000865633
0.000834358
0.000805571
0.00077904
0.000754556
0.000731932
0.000710998
0.000691602
0.000673608
0.000656892
0.000641342
0.000626858
0.000613348
0.00060073
0.000588931
0.000577882
0.000567523
0.000557797
0.000548656
0.000540052
0.000531944
0.000524295
0.00051707
0.000510237
0.000503767
0.000497634
0.000491814
0.000486285
0.000481026
0.000476018
0.000471246
0.000466692
0.000462342
0.000458183
0.000454202
0.000450388
0.000446731
0.00044322
0.000439847
0.000436602
0.000433479
0.00043047
0.000427568
0.000424766
0.00042206
0.000419444
0.000416912
0.000414461
0.000412085
0.000409782
0.000407547
0.000405377
0.000403268
0.00040122
0.000399228
0.000397291
0.000395408
0.000393576
0.000391794
0.000390063
0.00038838
0.000386747
0.000385163
0.00038363
0.000382147
0.000380717
0.000379342
0.000378025
0.000376768
0.000375574
0.000374449
0.000373397
0.000372423
0.000371534
0.000370735
0.000370035
0.000369441
0.000368962
0.000368605
0.00036838
0.000368297
0.000368363
0.000368587
0.000368977
0.000369539
0.000370276
0.000371189
0.000372274
0.000373522
0.000374916
0.000376428
0.000378017
0.000379624
0.000381167
0.000382535
0.000383583
0.000384144
0.000977118
0.00093671
0.000899655
0.000865633
0.000834358
0.000805571
0.00077904
0.000754556
0.000731932
0.000710998
0.000691603
0.000673609
0.000656893
0.000641343
0.000626858
0.000613349
0.000600731
0.000588932
0.000577883
0.000567524
0.000557798
0.000548657
0.000540053
0.000531946
0.000524297
0.000517071
0.000510238
0.000503768
0.000497636
0.000491816
0.000486286
0.000481028
0.00047602
0.000471248
0.000466694
0.000462344
0.000458185
0.000454205
0.000450391
0.000446734
0.000443223
0.00043985
0.000436606
0.000433483
0.000430473
0.000427571
0.00042477
0.000422064
0.000419448
0.000416917
0.000414466
0.00041209
0.000409787
0.000407552
0.000405382
0.000403274
0.000401225
0.000399234
0.000397297
0.000395414
0.000393582
0.000391801
0.000390069
0.000388387
0.000386754
0.00038517
0.000383637
0.000382154
0.000380724
0.000379349
0.000378032
0.000376774
0.000375581
0.000374455
0.000373403
0.000372429
0.000371539
0.00037074
0.000370039
0.000369444
0.000368963
0.000368606
0.00036838
0.000368295
0.000368359
0.000368582
0.00036897
0.00036953
0.000370265
0.000371176
0.000372259
0.000373505
0.000374897
0.000376407
0.000377994
0.000379599
0.000381141
0.000382508
0.000383555
0.000384115
0.000977118
0.00093671
0.000899655
0.000865633
0.000834358
0.000805571
0.00077904
0.000754557
0.000731932
0.000710999
0.000691603
0.000673609
0.000656893
0.000641343
0.000626859
0.000613349
0.000600732
0.000588933
0.000577884
0.000567525
0.0005578
0.000548658
0.000540054
0.000531947
0.000524298
0.000517073
0.00051024
0.00050377
0.000497638
0.000491818
0.000486289
0.00048103
0.000476023
0.00047125
0.000466697
0.000462347
0.000458188
0.000454208
0.000450395
0.000446738
0.000443227
0.000439854
0.00043661
0.000433487
0.000430478
0.000427576
0.000424775
0.000422069
0.000419453
0.000416922
0.000414471
0.000412096
0.000409793
0.000407558
0.000405388
0.000403281
0.000401232
0.000399241
0.000397304
0.000395421
0.00039359
0.000391809
0.000390077
0.000388395
0.000386762
0.000385179
0.000383645
0.000382163
0.000380733
0.000379358
0.00037804
0.000376782
0.000375589
0.000374463
0.00037341
0.000372435
0.000371545
0.000370745
0.000370043
0.000369447
0.000368966
0.000368607
0.000368379
0.000368292
0.000368355
0.000368576
0.000368962
0.000369519
0.000370252
0.00037116
0.000372241
0.000373484
0.000374873
0.000376381
0.000377965
0.000379568
0.000381108
0.000382474
0.000383521
0.00038408
0.000977118
0.00093671
0.000899655
0.000865634
0.000834359
0.000805572
0.000779041
0.000754557
0.000731933
0.000710999
0.000691604
0.00067361
0.000656894
0.000641344
0.00062686
0.00061335
0.000600733
0.000588934
0.000577885
0.000567526
0.000557801
0.00054866
0.000540056
0.000531949
0.0005243
0.000517075
0.000510242
0.000503773
0.00049764
0.00049182
0.000486291
0.000481033
0.000476026
0.000471254
0.0004667
0.000462351
0.000458192
0.000454212
0.000450399
0.000446742
0.000443231
0.000439858
0.000436615
0.000433492
0.000430483
0.000427581
0.000424781
0.000422075
0.00041946
0.000416929
0.000414478
0.000412103
0.0004098
0.000407565
0.000405396
0.000403288
0.00040124
0.000399249
0.000397313
0.00039543
0.000393599
0.000391818
0.000390087
0.000388405
0.000386772
0.000385189
0.000383655
0.000382173
0.000380743
0.000379368
0.00037805
0.000376792
0.000375598
0.000374472
0.000373419
0.000372443
0.000371552
0.000370752
0.000370049
0.000369452
0.000368968
0.000368608
0.000368379
0.00036829
0.00036835
0.000368569
0.000368952
0.000369507
0.000370236
0.000371141
0.000372219
0.000373459
0.000374846
0.00037635
0.000377932
0.000379533
0.000381071
0.000382435
0.00038348
0.000384039
0.000977118
0.00093671
0.000899655
0.000865634
0.000834359
0.000805572
0.000779041
0.000754557
0.000731933
0.000711
0.000691605
0.000673611
0.000656895
0.000641345
0.000626861
0.000613351
0.000600734
0.000588935
0.000577887
0.000567528
0.000557803
0.000548661
0.000540058
0.000531951
0.000524302
0.000517077
0.000510245
0.000503775
0.000497643
0.000491823
0.000486295
0.000481036
0.000476029
0.000471257
0.000466704
0.000462355
0.000458196
0.000454216
0.000450403
0.000446747
0.000443236
0.000439864
0.00043662
0.000433498
0.000430489
0.000427588
0.000424787
0.000422082
0.000419467
0.000416936
0.000414486
0.000412111
0.000409808
0.000407574
0.000405405
0.000403298
0.00040125
0.000399259
0.000397323
0.00039544
0.000393609
0.000391829
0.000390098
0.000388416
0.000386784
0.0003852
0.000383667
0.000382185
0.000380755
0.00037938
0.000378062
0.000376804
0.000375609
0.000374483
0.000373429
0.000372453
0.000371561
0.000370759
0.000370055
0.000369457
0.000368972
0.000368609
0.000368378
0.000368287
0.000368345
0.000368561
0.000368941
0.000369492
0.000370219
0.000371121
0.000372195
0.000373431
0.000374814
0.000376315
0.000377894
0.000379492
0.000381028
0.00038239
0.000383434
0.000383991
0.000977118
0.00093671
0.000899655
0.000865634
0.000834359
0.000805572
0.000779041
0.000754558
0.000731934
0.000711
0.000691605
0.000673612
0.000656896
0.000641346
0.000626862
0.000613353
0.000600736
0.000588937
0.000577888
0.000567529
0.000557805
0.000548663
0.00054006
0.000531953
0.000524305
0.00051708
0.000510247
0.000503778
0.000497646
0.000491827
0.000486298
0.00048104
0.000476033
0.000471261
0.000466708
0.000462359
0.000458201
0.000454221
0.000450409
0.000446752
0.000443242
0.00043987
0.000436626
0.000433504
0.000430496
0.000427595
0.000424795
0.00042209
0.000419475
0.000416944
0.000414494
0.00041212
0.000409818
0.000407584
0.000405415
0.000403308
0.00040126
0.00039927
0.000397334
0.000395452
0.000393621
0.000391841
0.00039011
0.000388429
0.000386796
0.000385213
0.00038368
0.000382198
0.000380768
0.000379393
0.000378075
0.000376817
0.000375622
0.000374495
0.00037344
0.000372464
0.00037157
0.000370768
0.000370063
0.000369462
0.000368976
0.000368611
0.000368378
0.000368284
0.00036834
0.000368552
0.000368929
0.000369477
0.0003702
0.000371098
0.000372168
0.000373401
0.000374779
0.000376277
0.000377852
0.000379447
0.000380979
0.000382339
0.000383382
0.000383939
0.000977118
0.00093671
0.000899655
0.000865634
0.000834359
0.000805573
0.000779042
0.000754558
0.000731934
0.000711001
0.000691606
0.000673612
0.000656897
0.000641347
0.000626863
0.000613354
0.000600737
0.000588938
0.00057789
0.000567531
0.000557807
0.000548666
0.000540062
0.000531956
0.000524307
0.000517083
0.00051025
0.000503781
0.000497649
0.00049183
0.000486302
0.000481044
0.000476037
0.000471266
0.000466713
0.000462364
0.000458206
0.000454227
0.000450414
0.000446758
0.000443248
0.000439876
0.000436633
0.000433511
0.000430503
0.000427603
0.000424803
0.000422098
0.000419483
0.000416953
0.000414504
0.00041213
0.000409828
0.000407594
0.000405426
0.000403319
0.000401272
0.000399282
0.000397347
0.000395465
0.000393634
0.000391854
0.000390124
0.000388443
0.000386811
0.000385228
0.000383695
0.000382213
0.000380783
0.000379408
0.000378089
0.000376831
0.000375636
0.000374508
0.000373453
0.000372475
0.000371581
0.000370777
0.000370071
0.000369469
0.000368981
0.000368614
0.000368378
0.000368281
0.000368334
0.000368543
0.000368916
0.00036946
0.000370179
0.000371073
0.000372138
0.000373367
0.000374741
0.000376235
0.000377806
0.000379397
0.000380927
0.000382284
0.000383325
0.000383881
0.000977118
0.00093671
0.000899655
0.000865634
0.000834359
0.000805573
0.000779042
0.000754559
0.000731935
0.000711002
0.000691607
0.000673613
0.000656898
0.000641348
0.000626864
0.000613355
0.000600739
0.00058894
0.000577892
0.000567533
0.000557809
0.000548668
0.000540065
0.000531958
0.00052431
0.000517086
0.000510254
0.000503785
0.000497653
0.000491834
0.000486306
0.000481048
0.000476042
0.000471271
0.000466718
0.000462369
0.000458212
0.000454233
0.00045042
0.000446765
0.000443255
0.000439883
0.000436641
0.000433519
0.000430511
0.000427611
0.000424812
0.000422107
0.000419493
0.000416963
0.000414514
0.00041214
0.000409839
0.000407606
0.000405438
0.000403331
0.000401285
0.000399295
0.00039736
0.000395479
0.000393649
0.000391869
0.000390139
0.000388458
0.000386826
0.000385243
0.000383711
0.000382229
0.000380799
0.000379424
0.000378105
0.000376846
0.000375651
0.000374523
0.000373467
0.000372489
0.000371593
0.000370788
0.00037008
0.000369477
0.000368986
0.000368617
0.000368378
0.000368279
0.000368328
0.000368533
0.000368903
0.000369443
0.000370157
0.000371046
0.000372107
0.000373331
0.000374701
0.000376189
0.000377756
0.000379343
0.00038087
0.000382224
0.000383263
0.000383818
0.000977118
0.00093671
0.000899655
0.000865634
0.00083436
0.000805573
0.000779042
0.000754559
0.000731935
0.000711002
0.000691607
0.000673614
0.000656899
0.000641349
0.000626866
0.000613357
0.00060074
0.000588942
0.000577894
0.000567535
0.000557811
0.00054867
0.000540068
0.000531961
0.000524313
0.000517089
0.000510257
0.000503788
0.000497657
0.000491838
0.00048631
0.000481053
0.000476047
0.000471276
0.000466723
0.000462375
0.000458218
0.000454239
0.000450427
0.000446772
0.000443263
0.000439891
0.000436649
0.000433527
0.00043052
0.00042762
0.000424821
0.000422117
0.000419503
0.000416974
0.000414525
0.000412152
0.000409851
0.000407618
0.00040545
0.000403345
0.000401298
0.000399309
0.000397375
0.000395494
0.000393664
0.000391885
0.000390155
0.000388475
0.000386843
0.00038526
0.000383728
0.000382246
0.000380816
0.000379441
0.000378122
0.000376863
0.000375667
0.000374539
0.000373482
0.000372503
0.000371607
0.0003708
0.00037009
0.000369485
0.000368992
0.00036862
0.000368379
0.000368276
0.000368322
0.000368523
0.000368889
0.000369424
0.000370134
0.000371018
0.000372074
0.000373293
0.000374657
0.000376141
0.000377704
0.000379286
0.000380809
0.000382161
0.000383197
0.000383751
0.000977118
0.00093671
0.000899655
0.000865635
0.00083436
0.000805573
0.000779043
0.00075456
0.000731936
0.000711003
0.000691608
0.000673615
0.0006569
0.000641351
0.000626867
0.000613358
0.000600742
0.000588943
0.000577896
0.000567537
0.000557813
0.000548673
0.00054007
0.000531964
0.000524316
0.000517092
0.000510261
0.000503792
0.000497661
0.000491843
0.000486315
0.000481058
0.000476052
0.000471281
0.000466729
0.000462381
0.000458224
0.000454246
0.000450434
0.000446779
0.00044327
0.000439899
0.000436657
0.000433536
0.000430529
0.00042763
0.000424831
0.000422128
0.000419514
0.000416985
0.000414537
0.000412164
0.000409864
0.000407631
0.000405464
0.000403359
0.000401313
0.000399324
0.00039739
0.00039551
0.00039368
0.000391902
0.000390172
0.000388492
0.000386861
0.000385279
0.000383746
0.000382264
0.000380835
0.000379459
0.000378141
0.000376881
0.000375685
0.000374556
0.000373499
0.000372518
0.000371621
0.000370813
0.000370101
0.000369494
0.000368999
0.000368624
0.00036838
0.000368274
0.000368316
0.000368513
0.000368875
0.000369405
0.00037011
0.000370989
0.000372039
0.000373253
0.000374612
0.00037609
0.000377648
0.000379226
0.000380745
0.000382093
0.000383128
0.000383681
0.000977118
0.00093671
0.000899655
0.000865635
0.00083436
0.000805574
0.000779043
0.00075456
0.000731937
0.000711004
0.000691609
0.000673616
0.000656901
0.000641352
0.000626868
0.00061336
0.000600744
0.000588945
0.000577898
0.00056754
0.000557816
0.000548675
0.000540073
0.000531967
0.00052432
0.000517096
0.000510264
0.000503796
0.000497665
0.000491847
0.00048632
0.000481063
0.000476058
0.000471287
0.000466735
0.000462388
0.000458231
0.000454253
0.000450441
0.000446787
0.000443278
0.000439908
0.000436666
0.000433546
0.000430539
0.00042764
0.000424842
0.000422139
0.000419526
0.000416997
0.000414549
0.000412177
0.000409877
0.000407645
0.000405478
0.000403374
0.000401328
0.00039934
0.000397407
0.000395526
0.000393698
0.000391919
0.00039019
0.000388511
0.00038688
0.000385298
0.000383765
0.000382284
0.000380854
0.000379479
0.00037816
0.000376901
0.000375704
0.000374574
0.000373516
0.000372535
0.000371636
0.000370826
0.000370113
0.000369504
0.000369006
0.000368629
0.000368381
0.000368272
0.00036831
0.000368503
0.00036886
0.000369386
0.000370085
0.000370958
0.000372003
0.000373211
0.000374564
0.000376037
0.00037759
0.000379163
0.000380677
0.000382023
0.000383055
0.000383607
0.000977118
0.00093671
0.000899656
0.000865635
0.00083436
0.000805574
0.000779044
0.000754561
0.000731937
0.000711004
0.00069161
0.000673617
0.000656902
0.000641353
0.00062687
0.000613361
0.000600745
0.000588947
0.0005779
0.000567542
0.000557818
0.000548678
0.000540076
0.00053197
0.000524323
0.0005171
0.000510268
0.000503801
0.00049767
0.000491852
0.000486325
0.000481068
0.000476063
0.000471293
0.000466741
0.000462394
0.000458238
0.00045426
0.000450449
0.000446795
0.000443287
0.000439917
0.000436675
0.000433555
0.000430549
0.000427651
0.000424853
0.00042215
0.000419538
0.00041701
0.000414562
0.000412191
0.000409891
0.00040766
0.000405493
0.000403389
0.000401345
0.000399357
0.000397424
0.000395544
0.000393716
0.000391938
0.00039021
0.00038853
0.0003869
0.000385318
0.000383786
0.000382304
0.000380875
0.0003795
0.000378181
0.000376921
0.000375724
0.000374593
0.000373534
0.000372552
0.000371652
0.000370841
0.000370126
0.000369514
0.000369014
0.000368634
0.000368383
0.00036827
0.000368304
0.000368493
0.000368845
0.000369366
0.000370059
0.000370927
0.000371966
0.000373168
0.000374515
0.000375982
0.000377529
0.000379097
0.000380608
0.000381949
0.000382979
0.00038353
0.000977118
0.00093671
0.000899656
0.000865635
0.000834361
0.000805574
0.000779044
0.000754561
0.000731938
0.000711005
0.000691611
0.000673618
0.000656903
0.000641354
0.000626871
0.000613363
0.000600747
0.000588949
0.000577902
0.000567544
0.000557821
0.000548681
0.000540079
0.000531974
0.000524327
0.000517103
0.000510272
0.000503805
0.000497674
0.000491857
0.00048633
0.000481074
0.000476069
0.000471299
0.000466748
0.000462401
0.000458245
0.000454268
0.000450457
0.000446803
0.000443296
0.000439926
0.000436685
0.000433565
0.00043056
0.000427662
0.000424864
0.000422162
0.00041955
0.000417023
0.000414576
0.000412205
0.000409906
0.000407675
0.000405509
0.000403406
0.000401361
0.000399374
0.000397442
0.000395563
0.000393735
0.000391957
0.000390229
0.00038855
0.00038692
0.000385339
0.000383807
0.000382326
0.000380897
0.000379521
0.000378202
0.000376942
0.000375744
0.000374613
0.000373554
0.00037257
0.000371669
0.000370856
0.000370139
0.000369525
0.000369023
0.00036864
0.000368386
0.000368269
0.000368299
0.000368483
0.00036883
0.000369345
0.000370033
0.000370895
0.000371928
0.000373123
0.000374465
0.000375926
0.000377467
0.00037903
0.000380535
0.000381873
0.000382901
0.00038345
0.000977118
0.00093671
0.000899656
0.000865635
0.000834361
0.000805575
0.000779044
0.000754561
0.000731938
0.000711006
0.000691612
0.000673619
0.000656904
0.000641356
0.000626873
0.000613365
0.000600749
0.000588951
0.000577904
0.000567547
0.000557823
0.000548684
0.000540082
0.000531977
0.00052433
0.000517107
0.000510277
0.000503809
0.000497679
0.000491862
0.000486335
0.000481079
0.000476075
0.000471305
0.000466755
0.000462408
0.000458253
0.000454276
0.000450465
0.000446812
0.000443305
0.000439935
0.000436695
0.000433576
0.000430571
0.000427673
0.000424876
0.000422175
0.000419563
0.000417036
0.00041459
0.000412219
0.000409921
0.000407691
0.000405525
0.000403422
0.000401379
0.000399392
0.00039746
0.000395582
0.000393754
0.000391977
0.00039025
0.000388571
0.000386942
0.000385361
0.000383829
0.000382348
0.000380919
0.000379544
0.000378224
0.000376964
0.000375766
0.000374634
0.000373574
0.000372589
0.000371687
0.000370872
0.000370153
0.000369537
0.000369032
0.000368646
0.000368388
0.000368268
0.000368293
0.000368473
0.000368815
0.000369325
0.000370007
0.000370863
0.000371889
0.000373078
0.000374413
0.000375868
0.000377403
0.000378961
0.000380461
0.000381795
0.00038282
0.000383368
0.000977118
0.00093671
0.000899656
0.000865635
0.000834361
0.000805575
0.000779045
0.000754562
0.000731939
0.000711006
0.000691612
0.00067362
0.000656905
0.000641357
0.000626874
0.000613366
0.000600751
0.000588953
0.000577906
0.000567549
0.000557826
0.000548687
0.000540085
0.00053198
0.000524334
0.000517111
0.000510281
0.000503814
0.000497684
0.000491867
0.000486341
0.000481085
0.000476081
0.000471312
0.000466762
0.000462415
0.00045826
0.000454284
0.000450474
0.000446821
0.000443314
0.000439945
0.000436705
0.000433587
0.000430582
0.000427685
0.000424888
0.000422188
0.000419576
0.00041705
0.000414604
0.000412234
0.000409936
0.000407707
0.000405542
0.00040344
0.000401397
0.000399411
0.000397479
0.000395601
0.000393775
0.000391998
0.000390271
0.000388593
0.000386964
0.000385383
0.000383852
0.000382371
0.000380942
0.000379567
0.000378247
0.000376987
0.000375788
0.000374656
0.000373594
0.000372609
0.000371705
0.000370889
0.000370168
0.00036955
0.000369042
0.000368653
0.000368392
0.000368267
0.000368288
0.000368463
0.0003688
0.000369304
0.00036998
0.00037083
0.00037185
0.000373033
0.000374361
0.000375809
0.000377338
0.00037889
0.000380386
0.000381716
0.000382738
0.000383285
0.000977118
0.00093671
0.000899656
0.000865635
0.000834361
0.000805575
0.000779045
0.000754562
0.000731939
0.000711007
0.000691613
0.000673621
0.000656906
0.000641358
0.000626876
0.000613368
0.000600752
0.000588955
0.000577909
0.000567552
0.000557829
0.00054869
0.000540089
0.000531984
0.000524338
0.000517115
0.000510285
0.000503818
0.000497689
0.000491872
0.000486346
0.000481091
0.000476087
0.000471319
0.000466769
0.000462423
0.000458268
0.000454292
0.000450482
0.00044683
0.000443324
0.000439955
0.000436716
0.000433597
0.000430593
0.000427697
0.000424901
0.000422201
0.00041959
0.000417064
0.000414619
0.000412249
0.000409952
0.000407723
0.000405559
0.000403457
0.000401415
0.000399429
0.000397499
0.000395621
0.000393795
0.000392019
0.000390293
0.000388615
0.000386986
0.000385406
0.000383875
0.000382395
0.000380966
0.00037959
0.000378271
0.00037701
0.000375811
0.000374678
0.000373616
0.000372629
0.000371724
0.000370906
0.000370183
0.000369563
0.000369052
0.00036866
0.000368395
0.000368267
0.000368284
0.000368454
0.000368785
0.000369284
0.000369954
0.000370797
0.000371811
0.000372986
0.000374308
0.00037575
0.000377272
0.000378818
0.000380309
0.000381635
0.000382654
0.0003832
0.000977118
0.00093671
0.000899656
0.000865636
0.000834361
0.000805575
0.000779045
0.000754563
0.00073194
0.000711008
0.000691614
0.000673622
0.000656907
0.000641359
0.000626877
0.000613369
0.000600754
0.000588957
0.000577911
0.000567554
0.000557831
0.000548693
0.000540092
0.000531987
0.000524341
0.000517119
0.000510289
0.000503823
0.000497694
0.000491877
0.000486352
0.000481097
0.000476094
0.000471325
0.000466776
0.00046243
0.000458276
0.0004543
0.000450491
0.000446839
0.000443333
0.000439965
0.000436726
0.000433608
0.000430605
0.000427709
0.000424914
0.000422214
0.000419604
0.000417079
0.000414634
0.000412265
0.000409968
0.00040774
0.000405577
0.000403475
0.000401434
0.000399449
0.000397519
0.000395642
0.000393816
0.000392041
0.000390315
0.000388638
0.000387009
0.00038543
0.000383899
0.000382419
0.00038099
0.000379614
0.000378295
0.000377034
0.000375834
0.000374701
0.000373638
0.00037265
0.000371743
0.000370924
0.000370199
0.000369576
0.000369063
0.000368668
0.000368399
0.000368267
0.000368279
0.000368445
0.00036877
0.000369263
0.000369927
0.000370764
0.000371771
0.00037294
0.000374255
0.00037569
0.000377205
0.000378746
0.000380231
0.000381553
0.000382569
0.000383114
0.000977118
0.00093671
0.000899656
0.000865636
0.000834362
0.000805576
0.000779046
0.000754563
0.00073194
0.000711008
0.000691615
0.000673623
0.000656908
0.000641361
0.000626878
0.000613371
0.000600756
0.000588959
0.000577913
0.000567556
0.000557834
0.000548695
0.000540095
0.000531991
0.000524345
0.000517123
0.000510294
0.000503828
0.000497699
0.000491883
0.000486358
0.000481103
0.0004761
0.000471332
0.000466783
0.000462438
0.000458284
0.000454308
0.0004505
0.000446848
0.000443343
0.000439975
0.000436737
0.00043362
0.000430617
0.000427721
0.000424926
0.000422227
0.000419618
0.000417093
0.000414649
0.000412281
0.000409985
0.000407757
0.000405594
0.000403494
0.000401452
0.000399468
0.000397539
0.000395662
0.000393837
0.000392063
0.000390337
0.000388661
0.000387033
0.000385453
0.000383923
0.000382443
0.000381014
0.000379639
0.000378319
0.000377058
0.000375858
0.000374724
0.00037366
0.000372671
0.000371763
0.000370942
0.000370215
0.00036959
0.000369074
0.000368676
0.000368404
0.000368267
0.000368275
0.000368436
0.000368756
0.000369243
0.000369901
0.000370731
0.000371732
0.000372893
0.000374201
0.000375629
0.000377139
0.000378673
0.000380153
0.000381471
0.000382484
0.000383027
0.000977118
0.00093671
0.000899656
0.000865636
0.000834362
0.000805576
0.000779046
0.000754564
0.000731941
0.000711009
0.000691615
0.000673623
0.000656909
0.000641362
0.00062688
0.000613372
0.000600758
0.000588961
0.000577915
0.000567559
0.000557837
0.000548698
0.000540098
0.000531994
0.000524349
0.000517127
0.000510298
0.000503832
0.000497704
0.000491888
0.000486363
0.000481109
0.000476106
0.000471339
0.00046679
0.000462445
0.000458292
0.000454317
0.000450509
0.000446857
0.000443353
0.000439986
0.000436748
0.000433631
0.000430628
0.000427733
0.000424939
0.000422241
0.000419632
0.000417108
0.000414664
0.000412297
0.000410001
0.000407774
0.000405612
0.000403512
0.000401471
0.000399488
0.000397559
0.000395683
0.000393859
0.000392085
0.00039036
0.000388684
0.000387056
0.000385477
0.000383948
0.000382468
0.000381039
0.000379664
0.000378344
0.000377082
0.000375882
0.000374748
0.000373683
0.000372693
0.000371783
0.000370961
0.000370232
0.000369604
0.000369085
0.000368684
0.000368409
0.000368268
0.000368272
0.000368427
0.000368742
0.000369223
0.000369875
0.000370699
0.000371692
0.000372847
0.000374148
0.000375569
0.000377072
0.0003786
0.000380075
0.000381388
0.000382399
0.00038294
0.000977118
0.00093671
0.000899656
0.000865636
0.000834362
0.000805576
0.000779046
0.000754564
0.000731941
0.00071101
0.000691616
0.000673624
0.00065691
0.000641363
0.000626881
0.000613374
0.00060076
0.000588963
0.000577917
0.000567561
0.000557839
0.000548701
0.000540101
0.000531998
0.000524352
0.000517131
0.000510302
0.000503837
0.000497709
0.000491893
0.000486369
0.000481115
0.000476113
0.000471345
0.000466797
0.000462453
0.0004583
0.000454325
0.000450518
0.000446867
0.000443362
0.000439996
0.000436758
0.000433642
0.00043064
0.000427746
0.000424952
0.000422254
0.000419646
0.000417122
0.000414679
0.000412312
0.000410018
0.000407791
0.00040563
0.00040353
0.000401491
0.000399508
0.000397579
0.000395704
0.000393881
0.000392107
0.000390383
0.000388707
0.00038708
0.000385502
0.000383972
0.000382493
0.000381064
0.000379689
0.000378369
0.000377107
0.000375907
0.000374771
0.000373706
0.000372715
0.000371804
0.00037098
0.000370249
0.000369619
0.000369097
0.000368693
0.000368414
0.000368269
0.000368268
0.000368419
0.000368728
0.000369204
0.000369849
0.000370667
0.000371653
0.000372801
0.000374095
0.000375509
0.000377005
0.000378527
0.000379997
0.000381306
0.000382313
0.000382853
0.000977118
0.00093671
0.000899656
0.000865636
0.000834362
0.000805576
0.000779047
0.000754564
0.000731942
0.00071101
0.000691617
0.000673625
0.000656911
0.000641364
0.000626882
0.000613376
0.000600761
0.000588965
0.000577919
0.000567564
0.000557842
0.000548704
0.000540104
0.000532001
0.000524356
0.000517135
0.000510306
0.000503841
0.000497713
0.000491898
0.000486374
0.000481121
0.000476119
0.000471352
0.000466804
0.00046246
0.000458308
0.000454333
0.000450526
0.000446876
0.000443372
0.000440006
0.000436769
0.000433653
0.000430652
0.000427758
0.000424965
0.000422267
0.00041966
0.000417137
0.000414695
0.000412328
0.000410034
0.000407808
0.000405647
0.000403549
0.00040151
0.000399527
0.0003976
0.000395725
0.000393902
0.000392129
0.000390406
0.000388731
0.000387104
0.000385526
0.000383997
0.000382517
0.000381089
0.000379714
0.000378394
0.000377132
0.000375931
0.000374795
0.000373729
0.000372737
0.000371825
0.000370999
0.000370266
0.000369634
0.000369109
0.000368702
0.000368419
0.000368271
0.000368265
0.000368411
0.000368715
0.000369185
0.000369824
0.000370635
0.000371614
0.000372755
0.000374042
0.000375449
0.000376939
0.000378455
0.000379919
0.000381224
0.000382228
0.000382767
0.000977119
0.00093671
0.000899656
0.000865636
0.000834362
0.000805577
0.000779047
0.000754565
0.000731942
0.000711011
0.000691618
0.000673626
0.000656912
0.000641365
0.000626884
0.000613377
0.000600763
0.000588967
0.000577922
0.000567566
0.000557844
0.000548707
0.000540107
0.000532004
0.00052436
0.000517139
0.000510311
0.000503846
0.000497718
0.000491904
0.00048638
0.000481127
0.000476125
0.000471359
0.000466811
0.000462468
0.000458315
0.000454342
0.000450535
0.000446885
0.000443382
0.000440016
0.00043678
0.000433665
0.000430664
0.00042777
0.000424978
0.000422281
0.000419674
0.000417152
0.00041471
0.000412344
0.000410051
0.000407825
0.000405665
0.000403567
0.000401529
0.000399547
0.00039762
0.000395746
0.000393924
0.000392152
0.000390428
0.000388754
0.000387128
0.00038555
0.000384021
0.000382542