/*--------------------------------*- C++ -*----------------------------------*\
  =========                 |
  \\      /  F ield         | OpenFOAM: The Open Source CFD Toolbox
   \\    /   O peration     | Website:  https://openfoam.org
    \\  /    A nd           | Version:  11
     \\/     M anipulation  |
\*---------------------------------------------------------------------------*/
FoamFile
{
    format      ascii;
    class       volScalarField;
    location    "96";
    object      p;
}
// * * * * * * * * * * * * * * * * * * * * * * * * * * * * * * * * * * * * * //

dimensions      [0 2 -2 0 0 0 0];

internalField   nonuniform List<scalar> 
10000
(
9.99709e-07
9.7711e-07
1.01081e-06
1.08172e-06
1.16296e-06
1.24812e-06
1.33641e-06
1.42732e-06
1.52038e-06
1.61523e-06
1.71154e-06
1.80898e-06
1.90713e-06
2.00555e-06
2.1037e-06
2.201e-06
2.2968e-06
2.39044e-06
2.48126e-06
2.56861e-06
2.6519e-06
2.73063e-06
2.8044e-06
2.8729e-06
2.93593e-06
2.99332e-06
3.04492e-06
3.09041e-06
3.12892e-06
3.15729e-06
3.17244e-06
3.20459e-06
3.25007e-06
3.28099e-06
3.30107e-06
3.31629e-06
3.31985e-06
3.32178e-06
3.33114e-06
3.33076e-06
3.3155e-06
3.31007e-06
3.31478e-06
3.30923e-06
3.29586e-06
3.27722e-06
3.25415e-06
3.22707e-06
3.19629e-06
3.16205e-06
3.12455e-06
3.08398e-06
3.0405e-06
2.99429e-06
2.94552e-06
2.89436e-06
2.84099e-06
2.78557e-06
2.72827e-06
2.66928e-06
2.60876e-06
2.54688e-06
2.4838e-06
2.41968e-06
2.35467e-06
2.28893e-06
2.22259e-06
2.15578e-06
2.08864e-06
2.02128e-06
1.95382e-06
1.88634e-06
1.81895e-06
1.75173e-06
1.68474e-06
1.61806e-06
1.55173e-06
1.48581e-06
1.42032e-06
1.3553e-06
1.29076e-06
1.22671e-06
1.16313e-06
1.10001e-06
1.03732e-06
9.75022e-07
9.13046e-07
8.51317e-07
7.89734e-07
7.28169e-07
6.66456e-07
6.04385e-07
5.41677e-07
4.77952e-07
4.127e-07
3.45344e-07
2.7485e-07
1.96928e-07
1.03396e-07
6.20325e-09
1.93474e-06
1.83688e-06
1.77524e-06
1.79776e-06
1.85676e-06
1.93276e-06
2.02035e-06
2.1165e-06
2.21899e-06
2.32634e-06
2.43746e-06
2.55144e-06
2.66742e-06
2.78455e-06
2.90193e-06
3.01862e-06
3.13363e-06
3.24593e-06
3.35453e-06
3.45846e-06
3.5569e-06
3.64913e-06
3.73465e-06
3.8131e-06
3.88434e-06
3.94835e-06
4.00523e-06
4.05511e-06
4.09782e-06
4.13243e-06
4.16208e-06
4.2072e-06
4.24066e-06
4.24192e-06
4.2327e-06
4.23274e-06
4.2484e-06
4.27629e-06
4.30743e-06
4.32312e-06
4.31041e-06
4.2919e-06
4.28366e-06
4.27138e-06
4.25312e-06
4.22962e-06
4.20125e-06
4.16822e-06
4.13075e-06
4.08902e-06
4.04321e-06
3.99352e-06
3.9401e-06
3.88314e-06
3.82283e-06
3.75936e-06
3.69292e-06
3.62372e-06
3.55196e-06
3.47784e-06
3.40157e-06
3.32335e-06
3.24338e-06
3.16187e-06
3.079e-06
2.99495e-06
2.90991e-06
2.82405e-06
2.73752e-06
2.65048e-06
2.56307e-06
2.47542e-06
2.38765e-06
2.29986e-06
2.21216e-06
2.12461e-06
2.03731e-06
1.9503e-06
1.86363e-06
1.77733e-06
1.69142e-06
1.6059e-06
1.52077e-06
1.43599e-06
1.35153e-06
1.2673e-06
1.18322e-06
1.09916e-06
1.01499e-06
9.3049e-07
8.45415e-07
7.59436e-07
6.72113e-07
5.82828e-07
4.90779e-07
3.9517e-07
2.94314e-07
1.79202e-07
3.49635e-08
-7.30141e-08
2.43663e-06
2.29211e-06
2.16503e-06
2.12749e-06
2.13639e-06
2.17045e-06
2.22246e-06
2.28798e-06
2.3637e-06
2.44727e-06
2.537e-06
2.6315e-06
2.72956e-06
2.83e-06
2.93166e-06
3.03334e-06
3.13379e-06
3.23176e-06
3.32601e-06
3.41538e-06
3.49887e-06
3.57564e-06
3.64512e-06
3.70698e-06
3.76117e-06
3.80788e-06
3.84753e-06
3.88072e-06
3.90817e-06
3.9307e-06
3.95185e-06
3.98053e-06
4.01271e-06
4.03332e-06
4.04564e-06
4.05165e-06
4.04975e-06
4.04241e-06
4.03151e-06
4.01263e-06
3.98465e-06
3.96021e-06
3.94141e-06
3.92218e-06
3.90033e-06
3.87539e-06
3.84716e-06
3.81553e-06
3.78049e-06
3.74208e-06
3.70034e-06
3.65535e-06
3.60721e-06
3.55603e-06
3.50192e-06
3.44501e-06
3.38545e-06
3.32337e-06
3.25893e-06
3.1923e-06
3.12364e-06
3.0531e-06
2.98086e-06
2.90707e-06
2.83191e-06
2.75553e-06
2.67807e-06
2.59969e-06
2.52053e-06
2.44072e-06
2.36037e-06
2.27962e-06
2.19856e-06
2.11728e-06
2.03587e-06
1.95441e-06
1.87296e-06
1.79156e-06
1.71026e-06
1.62907e-06
1.54802e-06
1.4671e-06
1.38629e-06
1.30556e-06
1.22486e-06
1.1441e-06
1.0632e-06
9.82024e-07
9.00408e-07
8.18146e-07
7.3497e-07
6.50541e-07
5.64408e-07
4.75944e-07
3.84393e-07
2.89262e-07
1.89192e-07
7.28753e-08
-7.89381e-08
-1.50668e-07
2.88158e-06
2.72275e-06
2.58202e-06
2.52059e-06
2.50443e-06
2.51609e-06
2.54891e-06
2.59823e-06
2.66037e-06
2.7326e-06
2.81284e-06
2.89937e-06
2.99068e-06
3.08533e-06
3.18191e-06
3.27897e-06
3.37506e-06
3.46869e-06
3.55843e-06
3.64295e-06
3.72106e-06
3.79182e-06
3.85457e-06
3.90897e-06
3.955e-06
3.99293e-06
4.02333e-06
4.04701e-06
4.06496e-06
4.07829e-06
4.08924e-06
4.10142e-06
4.11442e-06
4.12252e-06
4.12517e-06
4.12219e-06
4.1127e-06
4.09797e-06
4.07952e-06
4.05664e-06
4.02996e-06
4.00423e-06
3.98013e-06
3.9556e-06
3.92941e-06
3.90098e-06
3.87e-06
3.83625e-06
3.79962e-06
3.76006e-06
3.71754e-06
3.67208e-06
3.62371e-06
3.57249e-06
3.5185e-06
3.46182e-06
3.40256e-06
3.34084e-06
3.27678e-06
3.21052e-06
3.14221e-06
3.07197e-06
2.99997e-06
2.92636e-06
2.85127e-06
2.77486e-06
2.69726e-06
2.61862e-06
2.53908e-06
2.45874e-06
2.37774e-06
2.29617e-06
2.21415e-06
2.13177e-06
2.0491e-06
1.96621e-06
1.88316e-06
1.80001e-06
1.71678e-06
1.63349e-06
1.55016e-06
1.46678e-06
1.38333e-06
1.29976e-06
1.21602e-06
1.13202e-06
1.04767e-06
9.6281e-07
8.77284e-07
7.90868e-07
7.03291e-07
6.1421e-07
5.23182e-07
4.29605e-07
3.32821e-07
2.32686e-07
1.28327e-07
6.94439e-09
-1.53954e-07
-2.05679e-07
3.27831e-06
3.12144e-06
2.98263e-06
2.91197e-06
2.88257e-06
2.88105e-06
2.90188e-06
2.94077e-06
2.99408e-06
3.05898e-06
3.1332e-06
3.21485e-06
3.3022e-06
3.39362e-06
3.48751e-06
3.58224e-06
3.67617e-06
3.76768e-06
3.85517e-06
3.93716e-06
4.01236e-06
4.07973e-06
4.13855e-06
4.18842e-06
4.22933e-06
4.26159e-06
4.28582e-06
4.30288e-06
4.31381e-06
4.31977e-06
4.32235e-06
4.32337e-06
4.32274e-06
4.31854e-06
4.31045e-06
4.29854e-06
4.28278e-06
4.2637e-06
4.24178e-06
4.2169e-06
4.18953e-06
4.1615e-06
4.13344e-06
4.10466e-06
4.07447e-06
4.04242e-06
4.0082e-06
3.97156e-06
3.93236e-06
3.89048e-06
3.84586e-06
3.79845e-06
3.74827e-06
3.69532e-06
3.63965e-06
3.58132e-06
3.52042e-06
3.45703e-06
3.39126e-06
3.32323e-06
3.25307e-06
3.18091e-06
3.10689e-06
3.03114e-06
2.95381e-06
2.87503e-06
2.79494e-06
2.71369e-06
2.63139e-06
2.54816e-06
2.46414e-06
2.37941e-06
2.29409e-06
2.20826e-06
2.12201e-06
2.03539e-06
1.94848e-06
1.86131e-06
1.77392e-06
1.68633e-06
1.59855e-06
1.51056e-06
1.42234e-06
1.33385e-06
1.24503e-06
1.15577e-06
1.06599e-06
9.75528e-07
8.84214e-07
7.91828e-07
6.98102e-07
6.02706e-07
5.05222e-07
4.05096e-07
3.0178e-07
1.95445e-07
8.55799e-08
-4.20976e-08
-2.13263e-07
-2.53167e-07
3.62707e-06
3.4781e-06
3.34451e-06
3.26974e-06
3.23208e-06
3.22119e-06
3.23273e-06
3.26291e-06
3.30839e-06
3.3664e-06
3.43465e-06
3.51114e-06
3.59403e-06
3.68158e-06
3.77203e-06
3.86365e-06
3.95467e-06
4.04334e-06
4.12794e-06
4.20692e-06
4.27887e-06
4.34269e-06
4.39759e-06
4.44313e-06
4.47928e-06
4.50634e-06
4.52494e-06
4.53595e-06
4.54043e-06
4.53954e-06
4.5346e-06
4.52683e-06
4.51651e-06
4.50313e-06
4.48667e-06
4.46733e-06
4.44527e-06
4.42081e-06
4.39421e-06
4.36552e-06
4.33508e-06
4.30375e-06
4.27191e-06
4.23927e-06
4.20543e-06
4.17e-06
4.13271e-06
4.0933e-06
4.0516e-06
4.00746e-06
3.96078e-06
3.91148e-06
3.85953e-06
3.80492e-06
3.74765e-06
3.68777e-06
3.62533e-06
3.5604e-06
3.49307e-06
3.42344e-06
3.35161e-06
3.27772e-06
3.20188e-06
3.12423e-06
3.04489e-06
2.964e-06
2.88169e-06
2.79809e-06
2.71332e-06
2.62751e-06
2.54076e-06
2.45319e-06
2.36488e-06
2.27594e-06
2.18644e-06
2.09644e-06
2.006e-06
1.91517e-06
1.82399e-06
1.73246e-06
1.64059e-06
1.54838e-06
1.4558e-06
1.36279e-06
1.2693e-06
1.17524e-06
1.0805e-06
9.84932e-07
8.88369e-07
7.906e-07
6.91369e-07
5.90373e-07
4.87236e-07
3.81464e-07
2.72618e-07
1.61151e-07
4.68165e-08
-8.61731e-08
-2.66585e-07
-2.95977e-07
3.94252e-06
3.80248e-06
3.67525e-06
3.59945e-06
3.55696e-06
3.53964e-06
3.54414e-06
3.56729e-06
3.60606e-06
3.65788e-06
3.72052e-06
3.79195e-06
3.8703e-06
3.95374e-06
4.04044e-06
4.12858e-06
4.2163e-06
4.30177e-06
4.38321e-06
4.45896e-06
4.52756e-06
4.58784e-06
4.63895e-06
4.68042e-06
4.71217e-06
4.73447e-06
4.74795e-06
4.75345e-06
4.75204e-06
4.74484e-06
4.73307e-06
4.7178e-06
4.69957e-06
4.67852e-06
4.65486e-06
4.62884e-06
4.60072e-06
4.57075e-06
4.53919e-06
4.50618e-06
4.47197e-06
4.43698e-06
4.4014e-06
4.36507e-06
4.32769e-06
4.28897e-06
4.24865e-06
4.20648e-06
4.16225e-06
4.1158e-06
4.06701e-06
4.01576e-06
3.962e-06
3.90567e-06
3.84678e-06
3.78532e-06
3.72133e-06
3.65487e-06
3.58599e-06
3.51479e-06
3.44136e-06
3.3658e-06
3.28824e-06
3.20878e-06
3.12755e-06
3.04468e-06
2.96029e-06
2.8745e-06
2.78744e-06
2.69922e-06
2.60994e-06
2.51973e-06
2.42866e-06
2.33682e-06
2.2443e-06
2.15116e-06
2.05746e-06
1.96324e-06
1.86853e-06
1.77334e-06
1.67769e-06
1.58157e-06
1.48494e-06
1.38776e-06
1.28997e-06
1.19147e-06
1.09218e-06
9.91938e-07
8.90594e-07
7.87949e-07
6.83772e-07
5.77789e-07
4.69672e-07
3.58987e-07
2.45399e-07
1.29599e-07
1.15463e-08
-1.25966e-07
-3.1452e-07
-3.34285e-07
4.23412e-06
4.10261e-06
3.98196e-06
3.90701e-06
3.86208e-06
3.84059e-06
3.84001e-06
3.85768e-06
3.89096e-06
3.93748e-06
3.9951e-06
4.06187e-06
4.1359e-06
4.21532e-06
4.29828e-06
4.3829e-06
4.46727e-06
4.54949e-06
4.62774e-06
4.70031e-06
4.76567e-06
4.82261e-06
4.87021e-06
4.90798e-06
4.93576e-06
4.95383e-06
4.96275e-06
4.96336e-06
4.95669e-06
4.94386e-06
4.92604e-06
4.90424e-06
4.87922e-06
4.85146e-06
4.82135e-06
4.78925e-06
4.75547e-06
4.72029e-06
4.68395e-06
4.64662e-06
4.60847e-06
4.56972e-06
4.53042e-06
4.49047e-06
4.44964e-06
4.40767e-06
4.36431e-06
4.31933e-06
4.27251e-06
4.22366e-06
4.17263e-06
4.11931e-06
4.06359e-06
4.00542e-06
3.94476e-06
3.88159e-06
3.81593e-06
3.74781e-06
3.67728e-06
3.6044e-06
3.52927e-06
3.45197e-06
3.3726e-06
3.29128e-06
3.20811e-06
3.12322e-06
3.03672e-06
2.94874e-06
2.85938e-06
2.76875e-06
2.67697e-06
2.58414e-06
2.49034e-06
2.39567e-06
2.3002e-06
2.20399e-06
2.1071e-06
2.00957e-06
1.91144e-06
1.81272e-06
1.71341e-06
1.61351e-06
1.513e-06
1.41182e-06
1.30991e-06
1.2072e-06
1.10359e-06
9.98941e-07
8.93111e-07
7.8592e-07
6.7716e-07
5.66594e-07
4.53938e-07
3.38815e-07
2.20977e-07
1.0132e-07
-2.0041e-08
-1.61646e-07
-3.5768e-07
-3.68921e-07
4.50666e-06
4.38289e-06
4.2685e-06
4.19535e-06
4.14948e-06
4.12541e-06
4.1212e-06
4.13466e-06
4.16345e-06
4.20545e-06
4.25865e-06
4.32117e-06
4.39114e-06
4.46671e-06
4.54602e-06
4.62716e-06
4.70819e-06
4.7872e-06
4.86231e-06
4.93176e-06
4.99402e-06
5.04781e-06
5.09218e-06
5.12656e-06
5.15079e-06
5.16507e-06
5.16993e-06
5.16621e-06
5.15488e-06
5.13707e-06
5.1139e-06
5.08643e-06
5.05552e-06
5.02184e-06
4.98596e-06
4.94832e-06
4.9093e-06
4.86921e-06
4.82828e-06
4.78669e-06
4.74457e-06
4.70202e-06
4.65905e-06
4.61555e-06
4.57131e-06
4.52613e-06
4.47974e-06
4.43192e-06
4.38245e-06
4.33113e-06
4.27778e-06
4.22228e-06
4.1645e-06
4.10436e-06
4.04181e-06
3.97682e-06
3.90937e-06
3.83948e-06
3.76719e-06
3.69255e-06
3.61563e-06
3.53651e-06
3.45527e-06
3.37203e-06
3.28688e-06
3.19993e-06
3.1113e-06
3.02109e-06
2.92943e-06
2.83641e-06
2.74214e-06
2.64671e-06
2.55022e-06
2.45275e-06
2.35438e-06
2.25516e-06
2.15516e-06
2.05442e-06
1.95296e-06
1.85081e-06
1.74797e-06
1.64444e-06
1.54018e-06
1.43516e-06
1.32933e-06
1.22261e-06
1.1149e-06
1.00609e-06
8.96039e-07
7.84597e-07
6.71577e-07
5.56777e-07
4.39954e-07
3.20779e-07
1.99079e-07
7.59209e-08
-4.84617e-08
-1.93866e-07
-3.9691e-07
-4.006e-07
4.76302e-06
4.64614e-06
4.53748e-06
4.46656e-06
4.42067e-06
4.39509e-06
4.38831e-06
4.39851e-06
4.42365e-06
4.46179e-06
4.51109e-06
4.56974e-06
4.63593e-06
4.70785e-06
4.78364e-06
4.86138e-06
4.93915e-06
5.01499e-06
5.08703e-06
5.15348e-06
5.21277e-06
5.26359e-06
5.30494e-06
5.33623e-06
5.35724e-06
5.36812e-06
5.36938e-06
5.36179e-06
5.34634e-06
5.32411e-06
5.29623e-06
5.26379e-06
5.22772e-06
5.18882e-06
5.14775e-06
5.10506e-06
5.06118e-06
5.01646e-06
4.97113e-06
4.92539e-06
4.87934e-06
4.83303e-06
4.78643e-06
4.73944e-06
4.69186e-06
4.64349e-06
4.59409e-06
4.54342e-06
4.49126e-06
4.43741e-06
4.38169e-06
4.32393e-06
4.264e-06
4.20181e-06
4.13729e-06
4.07037e-06
4.00105e-06
3.92931e-06
3.85519e-06
3.77871e-06
3.69993e-06
3.61893e-06
3.53578e-06
3.45058e-06
3.36341e-06
3.27439e-06
3.18361e-06
3.09119e-06
2.99723e-06
2.90183e-06
2.80509e-06
2.70711e-06
2.60798e-06
2.50777e-06
2.40656e-06
2.30442e-06
2.20139e-06
2.09753e-06
1.99286e-06
1.8874e-06
1.78116e-06
1.67414e-06
1.5663e-06
1.45763e-06
1.34805e-06
1.23752e-06
1.12594e-06
1.01321e-06
8.99207e-07
7.83796e-07
6.66819e-07
5.48102e-07
4.27442e-07
3.04549e-07
1.79313e-07
5.29421e-08
-7.42373e-08
-2.23209e-07
-4.32869e-07
-4.29799e-07
5.00518e-06
4.89439e-06
4.79095e-06
4.72243e-06
4.67707e-06
4.6507e-06
4.64212e-06
4.64979e-06
4.67193e-06
4.70679e-06
4.75265e-06
4.8078e-06
4.8705e-06
4.93897e-06
5.01139e-06
5.08587e-06
5.16046e-06
5.23324e-06
5.3023e-06
5.36587e-06
5.42233e-06
5.47035e-06
5.50891e-06
5.53736e-06
5.55545e-06
5.56327e-06
5.56131e-06
5.55029e-06
5.53117e-06
5.50503e-06
5.47299e-06
5.43616e-06
5.39553e-06
5.35197e-06
5.30624e-06
5.25894e-06
5.21056e-06
5.16148e-06
5.11197e-06
5.06222e-06
5.01233e-06
4.96234e-06
4.91218e-06
4.86176e-06
4.81089e-06
4.75937e-06
4.70698e-06
4.65346e-06
4.59861e-06
4.5422e-06
4.48404e-06
4.42396e-06
4.36183e-06
4.29752e-06
4.23094e-06
4.16204e-06
4.09077e-06
4.01712e-06
3.94109e-06
3.86271e-06
3.78203e-06
3.69911e-06
3.61401e-06
3.52681e-06
3.43761e-06
3.3465e-06
3.25357e-06
3.15894e-06
3.0627e-06
2.96494e-06
2.86578e-06
2.76529e-06
2.66356e-06
2.56068e-06
2.45671e-06
2.35172e-06
2.24577e-06
2.13889e-06
2.03111e-06
1.92247e-06
1.81297e-06
1.7026e-06
1.59134e-06
1.47918e-06
1.36605e-06
1.25191e-06
1.13667e-06
1.02025e-06
9.02546e-07
7.83429e-07
6.62768e-07
5.4042e-07
4.16211e-07
2.89887e-07
1.61384e-07
3.20369e-08
-9.77603e-08
-2.50109e-07
-4.66038e-07
-4.56872e-07
5.23455e-06
5.1292e-06
5.03049e-06
4.96439e-06
4.91989e-06
4.89321e-06
4.88339e-06
4.88911e-06
4.90879e-06
4.94083e-06
4.98365e-06
5.03563e-06
5.09511e-06
5.16036e-06
5.22959e-06
5.30094e-06
5.37249e-06
5.44232e-06
5.50853e-06
5.56933e-06
5.62311e-06
5.66851e-06
5.70448e-06
5.73032e-06
5.74575e-06
5.75083e-06
5.74598e-06
5.73191e-06
5.70953e-06
5.67992e-06
5.6442e-06
5.60348e-06
5.55879e-06
5.51107e-06
5.46111e-06
5.4096e-06
5.35705e-06
5.3039e-06
5.25042e-06
5.19683e-06
5.14323e-06
5.08965e-06
5.03602e-06
4.98225e-06
4.92815e-06
4.87353e-06
4.81816e-06
4.76181e-06
4.70425e-06
4.64526e-06
4.58464e-06
4.52221e-06
4.45782e-06
4.39134e-06
4.32266e-06
4.2517e-06
4.17843e-06
4.10281e-06
4.02483e-06
3.94451e-06
3.86188e-06
3.777e-06
3.68992e-06
3.60071e-06
3.50946e-06
3.41625e-06
3.32119e-06
3.22435e-06
3.12585e-06
3.02577e-06
2.92421e-06
2.82126e-06
2.717e-06
2.6115e-06
2.50485e-06
2.3971e-06
2.28831e-06
2.17851e-06
2.06775e-06
1.95605e-06
1.84341e-06
1.72984e-06
1.61532e-06
1.49984e-06
1.38334e-06
1.26578e-06
1.14709e-06
1.0272e-06
9.06017e-07
7.83432e-07
6.59336e-07
5.33608e-07
4.06103e-07
2.76594e-07
1.45054e-07
1.29249e-08
-1.19343e-07
-2.74905e-07
-4.96795e-07
-4.82091e-07
5.45221e-06
5.35172e-06
5.25734e-06
5.19361e-06
5.15015e-06
5.12349e-06
5.11284e-06
5.11704e-06
5.13467e-06
5.1643e-06
5.20443e-06
5.25354e-06
5.31006e-06
5.3723e-06
5.43853e-06
5.50691e-06
5.57556e-06
5.64256e-06
5.70605e-06
5.76423e-06
5.81547e-06
5.85841e-06
5.89197e-06
5.91543e-06
5.92844e-06
5.93104e-06
5.92361e-06
5.90681e-06
5.88155e-06
5.84886e-06
5.80986e-06
5.76567e-06
5.71736e-06
5.66589e-06
5.61211e-06
5.55674e-06
5.50034e-06
5.44337e-06
5.38616e-06
5.32891e-06
5.27174e-06
5.21468e-06
5.15768e-06
5.10063e-06
5.04338e-06
4.98571e-06
4.92741e-06
4.86825e-06
4.80799e-06
4.74642e-06
4.68332e-06
4.61851e-06
4.55182e-06
4.48313e-06
4.4123e-06
4.33926e-06
4.26394e-06
4.1863e-06
4.10633e-06
4.02403e-06
3.93943e-06
3.85256e-06
3.76348e-06
3.67225e-06
3.57894e-06
3.48365e-06
3.38645e-06
3.28743e-06
3.18669e-06
3.08432e-06
2.98041e-06
2.87504e-06
2.7683e-06
2.66027e-06
2.55101e-06
2.44058e-06
2.32904e-06
2.21643e-06
2.1028e-06
1.98815e-06
1.87251e-06
1.75589e-06
1.63826e-06
1.51961e-06
1.39992e-06
1.27912e-06
1.15718e-06
1.03402e-06
9.09573e-07
7.83741e-07
6.56433e-07
5.27552e-07
3.96974e-07
2.64493e-07
1.30112e-07
-4.63147e-09
-1.39243e-07
-2.97873e-07
-5.25442e-07
-5.05677e-07
5.659e-06
5.56292e-06
5.47249e-06
5.41106e-06
5.36874e-06
5.34232e-06
5.33112e-06
5.33413e-06
5.35006e-06
5.37759e-06
5.41533e-06
5.46186e-06
5.51565e-06
5.57509e-06
5.63849e-06
5.70407e-06
5.76996e-06
5.83428e-06
5.89518e-06
5.95086e-06
5.99972e-06
6.04036e-06
6.07168e-06
6.09294e-06
6.10376e-06
6.10413e-06
6.09438e-06
6.07516e-06
6.04732e-06
6.01188e-06
5.96997e-06
5.92269e-06
5.87113e-06
5.81628e-06
5.75903e-06
5.70012e-06
5.64016e-06
5.57963e-06
5.51889e-06
5.45816e-06
5.39757e-06
5.33717e-06
5.27691e-06
5.21668e-06
5.15634e-06
5.09568e-06
5.0345e-06
4.97256e-06
4.90962e-06
4.84547e-06
4.77989e-06
4.71269e-06
4.64369e-06
4.57275e-06
4.49975e-06
4.42459e-06
4.3472e-06
4.26752e-06
4.18553e-06
4.10123e-06
4.01463e-06
3.92576e-06
3.83467e-06
3.74141e-06
3.64605e-06
3.54867e-06
3.44935e-06
3.34817e-06
3.24523e-06
3.14061e-06
3.03439e-06
2.92666e-06
2.81751e-06
2.707e-06
2.5952e-06
2.48218e-06
2.36799e-06
2.25268e-06
2.13628e-06
2.01881e-06
1.9003e-06
1.78075e-06
1.66016e-06
1.53852e-06
1.41579e-06
1.29194e-06
1.16692e-06
1.04069e-06
9.13167e-07
7.84289e-07
6.53975e-07
5.22144e-07
3.88691e-07
2.53427e-07
1.16379e-07
-2.08328e-08
-1.57676e-07
-3.1924e-07
-5.52223e-07
-5.27806e-07
5.85561e-06
5.76355e-06
5.67678e-06
5.61754e-06
5.5764e-06
5.55036e-06
5.53883e-06
5.54091e-06
5.55541e-06
5.58111e-06
5.61672e-06
5.6609e-06
5.71218e-06
5.76902e-06
5.82977e-06
5.8927e-06
5.95598e-06
6.01776e-06
6.0762e-06
6.12953e-06
6.17614e-06
6.21463e-06
6.24388e-06
6.26312e-06
6.27193e-06
6.27028e-06
6.25846e-06
6.23707e-06
6.20693e-06
6.16906e-06
6.12454e-06
6.0745e-06
6.02002e-06
5.96212e-06
5.9017e-06
5.83954e-06
5.77629e-06
5.71244e-06
5.64838e-06
5.58435e-06
5.5205e-06
5.45689e-06
5.39348e-06
5.33017e-06
5.26683e-06
5.20326e-06
5.13924e-06
5.07455e-06
5.00897e-06
4.94225e-06
4.8742e-06
4.8046e-06
4.73329e-06
4.66011e-06
4.58492e-06
4.50762e-06
4.42813e-06
4.34639e-06
4.26237e-06
4.17605e-06
4.08744e-06
3.99657e-06
3.90346e-06
3.80818e-06
3.71077e-06
3.61133e-06
3.50991e-06
3.4066e-06
3.30148e-06
3.19464e-06
3.08617e-06
2.97614e-06
2.86463e-06
2.75171e-06
2.63746e-06
2.52194e-06
2.40519e-06
2.28727e-06
2.16822e-06
2.04805e-06
1.9268e-06
1.80447e-06
1.68106e-06
1.55656e-06
1.43095e-06
1.30421e-06
1.17629e-06
1.04716e-06
9.16757e-07
7.85019e-07
6.51885e-07
5.17287e-07
3.81138e-07
2.4326e-07
1.037e-07
-3.58483e-08
-1.74819e-07
-3.39191e-07
-5.77341e-07
-5.48629e-07
6.04264e-06
5.95428e-06
5.87089e-06
5.81373e-06
5.7738e-06
5.74823e-06
5.73652e-06
5.73786e-06
5.75114e-06
5.77524e-06
5.80895e-06
5.85098e-06
5.89995e-06
5.95437e-06
6.01265e-06
6.07308e-06
6.1339e-06
6.19327e-06
6.24939e-06
6.30051e-06
6.345e-06
6.38147e-06
6.4088e-06
6.42618e-06
6.43317e-06
6.4297e-06
6.41601e-06
6.39268e-06
6.3605e-06
6.32045e-06
6.2736e-06
6.22108e-06
6.16397e-06
6.1033e-06
6.04e-06
5.97487e-06
5.90856e-06
5.84162e-06
5.77444e-06
5.70729e-06
5.64034e-06
5.57365e-06
5.50721e-06
5.44093e-06
5.37467e-06
5.30825e-06
5.24146e-06
5.17408e-06
5.10588e-06
5.03663e-06
4.96612e-06
4.89415e-06
4.82052e-06
4.74509e-06
4.6677e-06
4.58826e-06
4.50667e-06
4.42286e-06
4.3368e-06
4.24846e-06
4.15784e-06
4.06496e-06
3.96985e-06
3.87255e-06
3.77311e-06
3.67162e-06
3.56812e-06
3.46271e-06
3.35547e-06
3.24646e-06
3.13578e-06
3.0235e-06
2.9097e-06
2.79446e-06
2.67783e-06
2.55989e-06
2.44068e-06
2.32026e-06
2.19865e-06
2.0759e-06
1.95203e-06
1.82704e-06
1.70095e-06
1.57374e-06
1.44541e-06
1.31594e-06
1.18529e-06
1.05342e-06
9.20303e-07
7.85877e-07
6.50093e-07
5.12898e-07
3.74215e-07
2.33875e-07
9.1943e-08
-4.98206e-08
-1.90822e-07
-3.57881e-07
-6.00965e-07
-5.68267e-07
6.2206e-06
6.13566e-06
6.05543e-06
6.00025e-06
5.96149e-06
5.93646e-06
5.92469e-06
5.92543e-06
5.93768e-06
5.96036e-06
5.99235e-06
6.03243e-06
6.07927e-06
6.13144e-06
6.1874e-06
6.24549e-06
6.30398e-06
6.36109e-06
6.41501e-06
6.46403e-06
6.50654e-06
6.54113e-06
6.56668e-06
6.58235e-06
6.58768e-06
6.58255e-06
6.56718e-06
6.54211e-06
6.5081e-06
6.46611e-06
6.41718e-06
6.36243e-06
6.30295e-06
6.23978e-06
6.17384e-06
6.10597e-06
6.03684e-06
5.96701e-06
5.8969e-06
5.82681e-06
5.75691e-06
5.68728e-06
5.61793e-06
5.54878e-06
5.4797e-06
5.41051e-06
5.34102e-06
5.271e-06
5.20023e-06
5.12849e-06
5.05555e-06
4.98121e-06
4.90528e-06
4.82761e-06
4.74804e-06
4.66645e-06
4.58276e-06
4.49689e-06
4.40879e-06
4.31843e-06
4.22581e-06
4.13093e-06
4.03382e-06
3.93452e-06
3.83308e-06
3.72956e-06
3.62402e-06
3.51655e-06
3.40721e-06
3.29608e-06
3.18325e-06
3.06879e-06
2.95277e-06
2.83527e-06
2.71635e-06
2.59607e-06
2.47449e-06
2.35166e-06
2.22762e-06
2.1024e-06
1.97602e-06
1.84851e-06
1.71986e-06
1.59009e-06
1.45918e-06
1.32712e-06
1.19389e-06
1.05945e-06
9.23771e-07
7.86816e-07
6.4854e-07
5.08901e-07
3.67832e-07
2.25172e-07
8.09968e-08
-6.28703e-08
-2.05811e-07
-3.75442e-07
-6.23236e-07
-5.86827e-07
6.38995e-06
6.30819e-06
6.2309e-06
6.1776e-06
6.14001e-06
6.11554e-06
6.10379e-06
6.10406e-06
6.11541e-06
6.13683e-06
6.16727e-06
6.20556e-06
6.25043e-06
6.30051e-06
6.35429e-06
6.41018e-06
6.46649e-06
6.52145e-06
6.57331e-06
6.62035e-06
6.661e-06
6.69383e-06
6.71772e-06
6.73181e-06
6.73562e-06
6.72899e-06
6.71212e-06
6.6855e-06
6.64985e-06
6.60612e-06
6.55533e-06
6.49858e-06
6.43696e-06
6.3715e-06
6.30316e-06
6.23276e-06
6.16102e-06
6.08851e-06
6.01565e-06
5.94278e-06
5.87008e-06
5.79765e-06
5.72551e-06
5.6536e-06
5.58179e-06
5.50992e-06
5.43779e-06
5.3652e-06
5.29191e-06
5.21771e-06
5.14238e-06
5.06571e-06
4.9875e-06
4.90761e-06
4.82586e-06
4.74215e-06
4.65637e-06
4.56844e-06
4.47831e-06
4.38595e-06
4.29133e-06
4.19447e-06
4.09539e-06
3.99411e-06
3.89069e-06
3.78517e-06
3.67763e-06
3.56813e-06
3.45675e-06
3.34355e-06
3.22862e-06
3.11204e-06
2.99386e-06
2.87418e-06
2.75304e-06
2.63052e-06
2.50667e-06
2.38153e-06
2.25515e-06
2.12757e-06
1.99881e-06
1.86889e-06
1.73782e-06
1.60561e-06
1.47226e-06
1.33776e-06
1.20208e-06
1.06521e-06
9.2713e-07
7.87793e-07
6.47172e-07
5.05233e-07
3.61915e-07
2.17064e-07
7.07657e-08
-7.50996e-08
-2.19891e-07
-3.91982e-07
-6.44274e-07
-6.04395e-07
6.55111e-06
6.47232e-06
6.39779e-06
6.34626e-06
6.3098e-06
6.28591e-06
6.27424e-06
6.27413e-06
6.28469e-06
6.30499e-06
6.33402e-06
6.37067e-06
6.41372e-06
6.46184e-06
6.5136e-06
6.56742e-06
6.62166e-06
6.6746e-06
6.72451e-06
6.7697e-06
6.80859e-06
6.83979e-06
6.86213e-06
6.87478e-06
6.87719e-06
6.8692e-06
6.85097e-06
6.82295e-06
6.78584e-06
6.74055e-06
6.68809e-06
6.62954e-06
6.56598e-06
6.49845e-06
6.42791e-06
6.3552e-06
6.28104e-06
6.20601e-06
6.13059e-06
6.05509e-06
5.97974e-06
5.90465e-06
5.82984e-06
5.75527e-06
5.68083e-06
5.60636e-06
5.53168e-06
5.45658e-06
5.38083e-06
5.30423e-06
5.22654e-06
5.14757e-06
5.06712e-06
4.98502e-06
4.90113e-06
4.81531e-06
4.72746e-06
4.63749e-06
4.54535e-06
4.451e-06
4.35441e-06
4.25559e-06
4.15455e-06
4.05133e-06
3.94595e-06
3.83848e-06
3.72897e-06
3.61749e-06
3.50411e-06
3.3889e-06
3.27193e-06
3.15329e-06
3.03303e-06
2.91123e-06
2.78796e-06
2.66328e-06
2.53724e-06
2.40989e-06
2.28128e-06
2.15145e-06
2.02041e-06
1.8882e-06
1.75484e-06
1.62032e-06
1.48466e-06
1.34784e-06
1.20987e-06
1.07071e-06
9.30354e-07
7.88775e-07
6.45945e-07
5.01837e-07
3.56399e-07
2.09478e-07
6.11686e-08
-8.6595e-08
-2.33152e-07
-4.07595e-07
-6.6418e-07
-6.21049e-07
6.70445e-06
6.62843e-06
6.55648e-06
6.50665e-06
6.47127e-06
6.44797e-06
6.43642e-06
6.436e-06
6.44588e-06
6.46517e-06
6.49291e-06
6.52804e-06
6.5694e-06
6.61571e-06
6.66556e-06
6.71745e-06
6.76975e-06
6.82078e-06
6.86885e-06
6.91229e-06
6.94954e-06
6.9792e-06
7.00011e-06
7.01141e-06
7.01255e-06
7.00333e-06
6.98387e-06
6.9546e-06
6.91618e-06
6.8695e-06
6.81553e-06
6.75536e-06
6.69005e-06
6.62063e-06
6.54808e-06
6.47323e-06
6.39682e-06
6.31947e-06
6.24163e-06
6.16367e-06
6.08581e-06
6.00818e-06
5.93082e-06
5.85371e-06
5.77673e-06
5.69976e-06
5.6226e-06
5.54505e-06
5.46691e-06
5.38795e-06
5.30796e-06
5.22673e-06
5.14408e-06
5.05982e-06
4.9738e-06
4.8859e-06
4.796e-06
4.70402e-06
4.60989e-06
4.51358e-06
4.41505e-06
4.3143e-06
4.21134e-06
4.1062e-06
3.99891e-06
3.88952e-06
3.77808e-06
3.66467e-06
3.54934e-06
3.43217e-06
3.31322e-06
3.19258e-06
3.07031e-06
2.94648e-06
2.82115e-06
2.6944e-06
2.56626e-06
2.4368e-06
2.30605e-06
2.17407e-06
2.04087e-06
1.90649e-06
1.77094e-06
1.63424e-06
1.49639e-06
1.35739e-06
1.21723e-06
1.07592e-06
9.33424e-07
7.89731e-07
6.44819e-07
4.98668e-07
3.51228e-07
2.02351e-07
5.21369e-08
-9.74298e-08
-2.4567e-07
-4.22358e-07
-6.83041e-07
-6.36853e-07
6.8503e-06
6.77688e-06
6.70737e-06
6.65914e-06
6.6248e-06
6.60209e-06
6.59069e-06
6.59002e-06
6.5993e-06
6.61767e-06
6.64423e-06
6.67797e-06
6.71776e-06
6.76237e-06
6.81044e-06
6.8605e-06
6.91097e-06
6.96021e-06
7.00655e-06
7.04834e-06
7.08405e-06
7.11227e-06
7.13185e-06
7.14191e-06
7.14188e-06
7.13153e-06
7.11096e-06
7.08056e-06
7.04097e-06
6.99303e-06
6.93772e-06
6.87609e-06
6.80919e-06
6.73806e-06
6.66365e-06
6.58684e-06
6.50836e-06
6.42883e-06
6.34873e-06
6.26845e-06
6.18821e-06
6.10817e-06
6.02839e-06
5.94884e-06
5.86943e-06
5.79003e-06
5.71048e-06
5.63057e-06
5.55009e-06
5.46884e-06
5.3866e-06
5.30316e-06
5.21834e-06
5.13195e-06
5.04385e-06
4.9539e-06
4.86199e-06
4.76803e-06
4.67195e-06
4.5737e-06
4.47326e-06
4.37061e-06
4.26576e-06
4.15874e-06
4.04957e-06
3.93831e-06
3.82499e-06
3.70969e-06
3.59247e-06
3.4734e-06
3.35254e-06
3.22997e-06
3.10575e-06
2.97996e-06
2.85266e-06
2.72391e-06
2.59377e-06
2.46228e-06
2.3295e-06
2.19547e-06
2.06021e-06
1.92377e-06
1.78615e-06
1.64737e-06
1.50745e-06
1.36639e-06
1.22419e-06
1.08083e-06
9.36323e-07
7.90638e-07
6.43764e-07
4.95685e-07
3.46357e-07
1.9563e-07
4.36125e-08
-1.07666e-07
-2.57509e-07
-4.3634e-07
-7.00932e-07
-6.51863e-07
6.98898e-06
6.91801e-06
6.85078e-06
6.80407e-06
6.77073e-06
6.7486e-06
6.73737e-06
6.7365e-06
6.74524e-06
6.76279e-06
6.78826e-06
6.82071e-06
6.85904e-06
6.90206e-06
6.94846e-06
6.9968e-06
7.04555e-06
7.0931e-06
7.13781e-06
7.17805e-06
7.2123e-06
7.23918e-06
7.25751e-06
7.26642e-06
7.26532e-06
7.25395e-06
7.23238e-06
7.20096e-06
7.16032e-06
7.11126e-06
7.05474e-06
6.99178e-06
6.92344e-06
6.85075e-06
6.77465e-06
6.69603e-06
6.61562e-06
6.53406e-06
6.45186e-06
6.36938e-06
6.28691e-06
6.20458e-06
6.12248e-06
6.0406e-06
5.95886e-06
5.87713e-06
5.79526e-06
5.71306e-06
5.63033e-06
5.54685e-06
5.46241e-06
5.37682e-06
5.28988e-06
5.20141e-06
5.11127e-06
5.01931e-06
4.92543e-06
4.82952e-06
4.73152e-06
4.63137e-06
4.52905e-06
4.42454e-06
4.31785e-06
4.20899e-06
4.09799e-06
3.98489e-06
3.86975e-06
3.75262e-06
3.63356e-06
3.51264e-06
3.38993e-06
3.26549e-06
3.1394e-06
3.01173e-06
2.88253e-06
2.75187e-06
2.61981e-06
2.48639e-06
2.35167e-06
2.21568e-06
2.07847e-06
1.94007e-06
1.80048e-06
1.65975e-06
1.51787e-06
1.37486e-06
1.23072e-06
1.08545e-06
9.39038e-07
7.91476e-07
6.42753e-07
4.92857e-07
3.41746e-07
1.89271e-07
3.55464e-08
-1.17356e-07
-2.68724e-07
-4.49598e-07
-7.17916e-07
-6.66128e-07
7.12078e-06
7.05211e-06
6.98703e-06
6.94175e-06
6.90938e-06
6.88781e-06
6.87676e-06
6.87573e-06
6.88399e-06
6.90078e-06
6.92527e-06
6.95651e-06
6.99348e-06
7.03502e-06
7.07985e-06
7.12658e-06
7.17371e-06
7.21966e-06
7.26283e-06
7.30161e-06
7.33449e-06
7.36011e-06
7.37729e-06
7.38513e-06
7.38304e-06
7.37073e-06
7.34825e-06
7.31592e-06
7.27433e-06
7.22427e-06
7.16666e-06
7.10251e-06
7.03287e-06
6.95874e-06
6.8811e-06
6.8008e-06
6.71861e-06
6.63517e-06
6.55099e-06
6.46646e-06
6.38186e-06
6.29737e-06
6.21307e-06
6.12896e-06
6.04498e-06
5.96102e-06
5.87692e-06
5.79251e-06
5.70759e-06
5.62194e-06
5.53538e-06
5.44768e-06
5.35868e-06
5.26818e-06
5.17604e-06
5.08212e-06
4.9863e-06
4.88849e-06
4.78861e-06
4.68661e-06
4.58245e-06
4.47612e-06
4.36762e-06
4.25697e-06
4.14418e-06
4.02931e-06
3.91239e-06
3.79348e-06
3.67264e-06
3.54994e-06
3.42544e-06
3.29921e-06
3.17131e-06
3.04183e-06
2.91081e-06
2.77832e-06
2.64442e-06
2.50916e-06
2.37259e-06
2.23475e-06
2.09568e-06
1.95542e-06
1.81398e-06
1.67139e-06
1.52766e-06
1.38281e-06
1.23685e-06
1.08976e-06
9.41561e-07
7.92231e-07
6.41765e-07
4.90156e-07
3.37363e-07
1.83238e-07
2.78978e-08
-1.26544e-07
-2.7936e-07
-4.62179e-07
-7.34048e-07
-6.79687e-07
7.24597e-06
7.17946e-06
7.11641e-06
7.07249e-06
7.04103e-06
7.02001e-06
7.00916e-06
7.00799e-06
7.01582e-06
7.03192e-06
7.05548e-06
7.08561e-06
7.12131e-06
7.16146e-06
7.20482e-06
7.25003e-06
7.29563e-06
7.34009e-06
7.3818e-06
7.41921e-06
7.45081e-06
7.47524e-06
7.49133e-06
7.49818e-06
7.49518e-06
7.48202e-06
7.45871e-06
7.42556e-06
7.38312e-06
7.33215e-06
7.27356e-06
7.20834e-06
7.13751e-06
7.06209e-06
6.98302e-06
6.90119e-06
6.81734e-06
6.73214e-06
6.64611e-06
6.55965e-06
6.47305e-06
6.38651e-06
6.30012e-06
6.21389e-06
6.12777e-06
6.04167e-06
5.95543e-06
5.86889e-06
5.78185e-06
5.69411e-06
5.60548e-06
5.51574e-06
5.42473e-06
5.33226e-06
5.23817e-06
5.14234e-06
5.04463e-06
4.94496e-06
4.84324e-06
4.73943e-06
4.63348e-06
4.52538e-06
4.41513e-06
4.30272e-06
4.1882e-06
4.0716e-06
3.95295e-06
3.83232e-06
3.70976e-06
3.58534e-06
3.45911e-06
3.33116e-06
3.20153e-06
3.07031e-06
2.93755e-06
2.80331e-06
2.66766e-06
2.53064e-06
2.39231e-06
2.25271e-06
2.11188e-06
1.96985e-06
1.82665e-06
1.68231e-06
1.53684e-06
1.39026e-06
1.24257e-06
1.09378e-06
9.43887e-07
7.92891e-07
6.40785e-07
4.87561e-07
3.33182e-07
1.77499e-07
2.06324e-08
-1.35266e-07
-2.89456e-07
-4.74125e-07
-7.49374e-07
-6.92578e-07
7.36478e-06
7.30031e-06
7.23917e-06
7.19654e-06
7.16596e-06
7.14546e-06
7.13481e-06
7.13353e-06
7.14097e-06
7.15644e-06
7.17915e-06
7.20824e-06
7.24275e-06
7.2816e-06
7.32358e-06
7.36737e-06
7.41153e-06
7.45456e-06
7.49491e-06
7.53102e-06
7.56141e-06
7.58473e-06
7.59981e-06
7.60574e-06
7.6019e-06
7.58795e-06
7.5639e-06
7.53e-06
7.4868e-06
7.43502e-06
7.37554e-06
7.30935e-06
7.23744e-06
7.16083e-06
7.08046e-06
6.99721e-06
6.91183e-06
6.825e-06
6.73724e-06
6.64896e-06
6.56049e-06
6.472e-06
6.38362e-06
6.29537e-06
6.20721e-06
6.11906e-06
6.03076e-06
5.94217e-06
5.85309e-06
5.76333e-06
5.6727e-06
5.581e-06
5.48803e-06
5.39364e-06
5.29767e-06
5.19996e-06
5.10042e-06
4.99894e-06
4.89544e-06