/*--------------------------------*- C++ -*----------------------------------*\
  =========                 |
  \\      /  F ield         | OpenFOAM: The Open Source CFD Toolbox
   \\    /   O peration     | Website:  https://openfoam.org
    \\  /    A nd           | Version:  11
     \\/     M anipulation  |
\*---------------------------------------------------------------------------*/
FoamFile
{
    format      ascii;
    class       volVectorField;
    location    "804";
    object      U;
}
// * * * * * * * * * * * * * * * * * * * * * * * * * * * * * * * * * * * * * //

dimensions      [0 1 -1 0 0 0 0];

internalField   nonuniform List<vector> 
10000
(
(0.005 -7.35729e-09 0)
(0.005 -1.92158e-08 0)
(0.00499999 -2.98586e-08 0)
(0.00499999 -4.02471e-08 0)
(0.00499999 -5.07932e-08 0)
(0.00499998 -6.17255e-08 0)
(0.00499997 -7.32259e-08 0)
(0.00499997 -8.54506e-08 0)
(0.00499996 -9.85414e-08 0)
(0.00499995 -1.12634e-07 0)
(0.00499994 -1.27861e-07 0)
(0.00499993 -1.44355e-07 0)
(0.00499992 -1.62253e-07 0)
(0.00499991 -1.81693e-07 0)
(0.0049999 -2.02821e-07 0)
(0.00499988 -2.25786e-07 0)
(0.00499986 -2.50747e-07 0)
(0.00499985 -2.77868e-07 0)
(0.00499983 -3.07323e-07 0)
(0.0049998 -3.39296e-07 0)
(0.00499978 -3.73978e-07 0)
(0.00499976 -4.11572e-07 0)
(0.00499973 -4.52293e-07 0)
(0.0049997 -4.96365e-07 0)
(0.00499967 -5.44027e-07 0)
(0.00499963 -5.95528e-07 0)
(0.0049996 -6.51131e-07 0)
(0.00499956 -7.11114e-07 0)
(0.00499951 -7.75767e-07 0)
(0.00499947 -8.45397e-07 0)
(0.00499942 -9.20324e-07 0)
(0.00499937 -1.00089e-06 0)
(0.00499931 -1.08743e-06 0)
(0.00499925 -1.18034e-06 0)
(0.00499919 -1.27999e-06 0)
(0.00499912 -1.38679e-06 0)
(0.00499904 -1.50116e-06 0)
(0.00499896 -1.62355e-06 0)
(0.00499888 -1.75441e-06 0)
(0.00499879 -1.89422e-06 0)
(0.00499869 -2.04348e-06 0)
(0.00499859 -2.20271e-06 0)
(0.00499848 -2.37244e-06 0)
(0.00499837 -2.55324e-06 0)
(0.00499824 -2.74569e-06 0)
(0.00499811 -2.95038e-06 0)
(0.00499798 -3.16793e-06 0)
(0.00499783 -3.39899e-06 0)
(0.00499768 -3.6442e-06 0)
(0.00499751 -3.90426e-06 0)
(0.00499734 -4.17985e-06 0)
(0.00499716 -4.47171e-06 0)
(0.00499696 -4.78056e-06 0)
(0.00499676 -5.10715e-06 0)
(0.00499654 -5.45226e-06 0)
(0.00499632 -5.81667e-06 0)
(0.00499608 -6.20119e-06 0)
(0.00499583 -6.60662e-06 0)
(0.00499556 -7.03379e-06 0)
(0.00499528 -7.48353e-06 0)
(0.00499499 -7.95668e-06 0)
(0.00499468 -8.45409e-06 0)
(0.00499436 -8.97659e-06 0)
(0.00499403 -9.52504e-06 0)
(0.00499367 -1.01003e-05 0)
(0.0049933 -1.07031e-05 0)
(0.00499292 -1.13343e-05 0)
(0.00499251 -1.19947e-05 0)
(0.00499209 -1.26851e-05 0)
(0.00499166 -1.34061e-05 0)
(0.0049912 -1.41584e-05 0)
(0.00499072 -1.49427e-05 0)
(0.00499023 -1.57595e-05 0)
(0.00498972 -1.66092e-05 0)
(0.00498919 -1.74922e-05 0)
(0.00498864 -1.84087e-05 0)
(0.00498807 -1.93588e-05 0)
(0.00498749 -2.03425e-05 0)
(0.00498689 -2.13593e-05 0)
(0.00498627 -2.24088e-05 0)
(0.00498563 -2.34901e-05 0)
(0.00498498 -2.46021e-05 0)
(0.00498432 -2.57429e-05 0)
(0.00498364 -2.69106e-05 0)
(0.00498295 -2.81023e-05 0)
(0.00498225 -2.93146e-05 0)
(0.00498155 -3.05429e-05 0)
(0.00498084 -3.17819e-05 0)
(0.00498014 -3.30247e-05 0)
(0.00497944 -3.4263e-05 0)
(0.00497875 -3.54867e-05 0)
(0.00497807 -3.66833e-05 0)
(0.00497741 -3.7838e-05 0)
(0.00497678 -3.89326e-05 0)
(0.00497619 -3.99459e-05 0)
(0.00497564 -4.08525e-05 0)
(0.00497515 -4.16232e-05 0)
(0.00497473 -4.22244e-05 0)
(0.0049744 -4.26256e-05 0)
(0.00497413 -4.28273e-05 0)
(0.005 -5.89758e-09 0)
(0.005 -1.63539e-08 0)
(0.00499999 -2.61018e-08 0)
(0.00499999 -3.57125e-08 0)
(0.00499999 -4.54849e-08 0)
(0.00499998 -5.56188e-08 0)
(0.00499998 -6.62806e-08 0)
(0.00499997 -7.76169e-08 0)
(0.00499996 -8.97625e-08 0)
(0.00499995 -1.02847e-07 0)
(0.00499994 -1.16996e-07 0)
(0.00499993 -1.32339e-07 0)
(0.00499992 -1.49005e-07 0)
(0.00499991 -1.67128e-07 0)
(0.0049999 -1.86845e-07 0)
(0.00499988 -2.08303e-07 0)
(0.00499986 -2.31651e-07 0)
(0.00499985 -2.57049e-07 0)
(0.00499983 -2.84663e-07 0)
(0.00499981 -3.1467e-07 0)
(0.00499978 -3.47254e-07 0)
(0.00499976 -3.82612e-07 0)
(0.00499973 -4.20948e-07 0)
(0.0049997 -4.62481e-07 0)
(0.00499967 -5.07439e-07 0)
(0.00499964 -5.56063e-07 0)
(0.0049996 -6.08609e-07 0)
(0.00499956 -6.65342e-07 0)
(0.00499952 -7.26546e-07 0)
(0.00499947 -7.92515e-07 0)
(0.00499942 -8.63561e-07 0)
(0.00499937 -9.4001e-07 0)
(0.00499931 -1.0222e-06 0)
(0.00499925 -1.1105e-06 0)
(0.00499919 -1.20528e-06 0)
(0.00499912 -1.30693e-06 0)
(0.00499905 -1.41586e-06 0)
(0.00499897 -1.5325e-06 0)
(0.00499888 -1.6573e-06 0)
(0.00499879 -1.79073e-06 0)
(0.0049987 -1.93327e-06 0)
(0.0049986 -2.08542e-06 0)
(0.00499849 -2.24772e-06 0)
(0.00499837 -2.4207e-06 0)
(0.00499825 -2.60493e-06 0)
(0.00499812 -2.801e-06 0)
(0.00499799 -3.00952e-06 0)
(0.00499784 -3.2311e-06 0)
(0.00499769 -3.4664e-06 0)
(0.00499752 -3.71609e-06 0)
(0.00499735 -3.98084e-06 0)
(0.00499717 -4.26138e-06 0)
(0.00499698 -4.55841e-06 0)
(0.00499677 -4.87269e-06 0)
(0.00499656 -5.20498e-06 0)
(0.00499633 -5.55605e-06 0)
(0.00499609 -5.92671e-06 0)
(0.00499584 -6.31774e-06 0)
(0.00499558 -6.72999e-06 0)
(0.0049953 -7.16427e-06 0)
(0.00499501 -7.62143e-06 0)
(0.0049947 -8.10231e-06 0)
(0.00499438 -8.60777e-06 0)
(0.00499405 -9.13866e-06 0)
(0.0049937 -9.69583e-06 0)
(0.00499333 -1.02801e-05 0)
(0.00499294 -1.08924e-05 0)
(0.00499254 -1.15334e-05 0)
(0.00499212 -1.22039e-05 0)
(0.00499169 -1.29048e-05 0)
(0.00499123 -1.36367e-05 0)
(0.00499076 -1.44003e-05 0)
(0.00499027 -1.51963e-05 0)
(0.00498976 -1.60251e-05 0)
(0.00498923 -1.68872e-05 0)
(0.00498868 -1.7783e-05 0)
(0.00498812 -1.87126e-05 0)
(0.00498753 -1.96762e-05 0)
(0.00498693 -2.06735e-05 0)
(0.00498631 -2.17043e-05 0)
(0.00498568 -2.27679e-05 0)
(0.00498503 -2.38633e-05 0)
(0.00498437 -2.49892e-05 0)
(0.00498369 -2.61438e-05 0)
(0.004983 -2.73246e-05 0)
(0.00498231 -2.85285e-05 0)
(0.00498161 -2.97516e-05 0)
(0.0049809 -3.09889e-05 0)
(0.0049802 -3.22342e-05 0)
(0.0049795 -3.348e-05 0)
(0.0049788 -3.47166e-05 0)
(0.00497813 -3.59327e-05 0)
(0.00497747 -3.71142e-05 0)
(0.00497683 -3.82442e-05 0)
(0.00497624 -3.93025e-05 0)
(0.00497568 -4.02654e-05 0)
(0.00497518 -4.11052e-05 0)
(0.00497474 -4.17896e-05 0)
(0.00497435 -4.22851e-05 0)
(0.00497401 -4.25707e-05 0)
(0.005 -4.70874e-09 0)
(0.005 -1.37271e-08 0)
(0.005 -2.24917e-08 0)
(0.00499999 -3.12778e-08 0)
(0.00499999 -4.02663e-08 0)
(0.00499998 -4.96086e-08 0)
(0.00499998 -5.94472e-08 0)
(0.00499997 -6.99151e-08 0)
(0.00499996 -8.11386e-08 0)
(0.00499995 -9.32398e-08 0)
(0.00499994 -1.0634e-07 0)
(0.00499993 -1.20561e-07 0)
(0.00499992 -1.36027e-07 0)
(0.00499991 -1.52866e-07 0)
(0.0049999 -1.71211e-07 0)
(0.00499988 -1.91201e-07 0)
(0.00499987 -2.1298e-07 0)
(0.00499985 -2.36702e-07 0)
(0.00499983 -2.62526e-07 0)
(0.00499981 -2.90621e-07 0)
(0.00499979 -3.21167e-07 0)
(0.00499976 -3.5435e-07 0)
(0.00499973 -3.90371e-07 0)
(0.0049997 -4.29437e-07 0)
(0.00499967 -4.7177e-07 0)
(0.00499964 -5.17603e-07 0)
(0.0049996 -5.67181e-07 0)
(0.00499956 -6.20762e-07 0)
(0.00499952 -6.7862e-07 0)
(0.00499948 -7.4104e-07 0)
(0.00499943 -8.08323e-07 0)
(0.00499938 -8.80786e-07 0)
(0.00499932 -9.58759e-07 0)
(0.00499926 -1.04259e-06 0)
(0.0049992 -1.13265e-06 0)
(0.00499913 -1.2293e-06 0)
(0.00499905 -1.33297e-06 0)
(0.00499898 -1.44405e-06 0)
(0.00499889 -1.56299e-06 0)
(0.0049988 -1.69024e-06 0)
(0.00499871 -1.82627e-06 0)
(0.00499861 -1.97158e-06 0)
(0.0049985 -2.12668e-06 0)
(0.00499839 -2.2921e-06 0)
(0.00499827 -2.46839e-06 0)
(0.00499814 -2.65613e-06 0)
(0.004998 -2.8559e-06 0)
(0.00499786 -3.06834e-06 0)
(0.00499771 -3.29406e-06 0)
(0.00499754 -3.53372e-06 0)
(0.00499737 -3.788e-06 0)
(0.00499719 -4.0576e-06 0)
(0.004997 -4.34323e-06 0)
(0.0049968 -4.64562e-06 0)
(0.00499659 -4.96553e-06 0)
(0.00499636 -5.30372e-06 0)
(0.00499612 -5.66099e-06 0)
(0.00499588 -6.03813e-06 0)
(0.00499561 -6.43597e-06 0)
(0.00499534 -6.85533e-06 0)
(0.00499505 -7.29706e-06 0)
(0.00499475 -7.76201e-06 0)
(0.00499443 -8.25103e-06 0)
(0.00499409 -8.76499e-06 0)
(0.00499374 -9.30474e-06 0)
(0.00499338 -9.87116e-06 0)
(0.004993 -1.04651e-05 0)
(0.0049926 -1.10874e-05 0)
(0.00499218 -1.17389e-05 0)
(0.00499175 -1.24203e-05 0)
(0.00499129 -1.31325e-05 0)
(0.00499082 -1.38762e-05 0)
(0.00499034 -1.46521e-05 0)
(0.00498983 -1.54608e-05 0)
(0.0049893 -1.63028e-05 0)
(0.00498876 -1.71785e-05 0)
(0.0049882 -1.80884e-05 0)
(0.00498762 -1.90326e-05 0)
(0.00498702 -2.00112e-05 0)
(0.0049864 -2.10239e-05 0)
(0.00498577 -2.20703e-05 0)
(0.00498513 -2.31497e-05 0)
(0.00498447 -2.42611e-05 0)
(0.00498379 -2.54029e-05 0)
(0.00498311 -2.65729e-05 0)
(0.00498241 -2.77686e-05 0)
(0.00498171 -2.89864e-05 0)
(0.00498101 -3.02217e-05 0)
(0.00498031 -3.14691e-05 0)
(0.0049796 -3.27213e-05 0)
(0.00497891 -3.39696e-05 0)
(0.00497823 -3.52033e-05 0)
(0.00497756 -3.64091e-05 0)
(0.00497692 -3.7571e-05 0)
(0.00497631 -3.86696e-05 0)
(0.00497574 -3.96818e-05 0)
(0.00497521 -4.058e-05 0)
(0.00497474 -4.13311e-05 0)
(0.00497429 -4.18989e-05 0)
(0.00497387 -4.225e-05 0)
(0.005 -3.90837e-09 0)
(0.005 -1.16402e-08 0)
(0.005 -1.94048e-08 0)
(0.00499999 -2.73562e-08 0)
(0.00499999 -3.55799e-08 0)
(0.00499998 -4.41739e-08 0)
(0.00499998 -5.32502e-08 0)
(0.00499997 -6.29234e-08 0)
(0.00499996 -7.33081e-08 0)
(0.00499996 -8.45182e-08 0)
(0.00499995 -9.66683e-08 0)
(0.00499994 -1.09874e-07 0)
(0.00499993 -1.24255e-07 0)
(0.00499991 -1.39933e-07 0)
(0.0049999 -1.57037e-07 0)
(0.00499988 -1.75698e-07 0)
(0.00499987 -1.96058e-07 0)
(0.00499985 -2.18262e-07 0)
(0.00499983 -2.42465e-07 0)
(0.00499981 -2.6883e-07 0)
(0.00499979 -2.97529e-07 0)
(0.00499976 -3.28744e-07 0)
(0.00499974 -3.62666e-07 0)
(0.00499971 -3.99497e-07 0)
(0.00499968 -4.39451e-07 0)
(0.00499964 -4.82754e-07 0)
(0.00499961 -5.29642e-07 0)
(0.00499957 -5.80366e-07 0)
(0.00499953 -6.3519e-07 0)
(0.00499948 -6.94392e-07 0)
(0.00499944 -7.58263e-07 0)
(0.00499938 -8.27109e-07 0)
(0.00499933 -9.01254e-07 0)
(0.00499927 -9.81035e-07 0)
(0.00499921 -1.06681e-06 0)
(0.00499914 -1.15894e-06 0)
(0.00499907 -1.25782e-06 0)
(0.00499899 -1.36386e-06 0)
(0.00499891 -1.47748e-06 0)
(0.00499882 -1.59912e-06 0)
(0.00499873 -1.72925e-06 0)
(0.00499863 -1.86834e-06 0)
(0.00499852 -2.01691e-06 0)
(0.00499841 -2.17546e-06 0)
(0.00499829 -2.34453e-06 0)
(0.00499816 -2.5247e-06 0)
(0.00499803 -2.71655e-06 0)
(0.00499788 -2.92066e-06 0)
(0.00499773 -3.13768e-06 0)
(0.00499757 -3.36824e-06 0)
(0.0049974 -3.61301e-06 0)
(0.00499722 -3.87267e-06 0)
(0.00499703 -4.14793e-06 0)
(0.00499683 -4.43951e-06 0)
(0.00499662 -4.74817e-06 0)
(0.0049964 -5.07465e-06 0)
(0.00499617 -5.41975e-06 0)
(0.00499592 -5.78426e-06 0)
(0.00499566 -6.169e-06 0)
(0.00499539 -6.57479e-06 0)
(0.0049951 -7.00248e-06 0)
(0.0049948 -7.45292e-06 0)
(0.00499449 -7.92699e-06 0)
(0.00499416 -8.42553e-06 0)
(0.00499381 -8.94944e-06 0)
(0.00499345 -9.49959e-06 0)
(0.00499307 -1.00769e-05 0)
(0.00499267 -1.06821e-05 0)
(0.00499226 -1.13162e-05 0)
(0.00499183 -1.19799e-05 0)
(0.00499138 -1.26742e-05 0)
(0.00499092 -1.33997e-05 0)
(0.00499043 -1.41573e-05 0)
(0.00498993 -1.49475e-05 0)
(0.00498941 -1.57711e-05 0)
(0.00498887 -1.66286e-05 0)
(0.00498831 -1.75204e-05 0)
(0.00498774 -1.84468e-05 0)
(0.00498714 -1.94081e-05 0)
(0.00498653 -2.04041e-05 0)
(0.00498591 -2.14347e-05 0)
(0.00498526 -2.24993e-05 0)
(0.00498461 -2.35971e-05 0)
(0.00498394 -2.47268e-05 0)
(0.00498325 -2.58867e-05 0)
(0.00498256 -2.70743e-05 0)
(0.00498187 -2.82865e-05 0)
(0.00498116 -2.95192e-05 0)
(0.00498046 -3.07673e-05 0)
(0.00497976 -3.20241e-05 0)
(0.00497906 -3.32814e-05 0)
(0.00497837 -3.4529e-05 0)
(0.0049777 -3.57542e-05 0)
(0.00497705 -3.69413e-05 0)
(0.00497642 -3.80714e-05 0)
(0.00497583 -3.91212e-05 0)
(0.00497527 -4.0062e-05 0)
(0.00497476 -4.08588e-05 0)
(0.00497425 -4.14699e-05 0)
(0.00497374 -4.18591e-05 0)
(0.005 -3.25286e-09 0)
(0.005 -9.81339e-09 0)
(0.005 -1.65736e-08 0)
(0.00499999 -2.36497e-08 0)
(0.00499999 -3.10715e-08 0)
(0.00499998 -3.88926e-08 0)
(0.00499998 -4.71943e-08 0)
(0.00499997 -5.60705e-08 0)
(0.00499997 -6.56213e-08 0)
(0.00499996 -7.59505e-08 0)
(0.00499995 -8.71645e-08 0)
(0.00499994 -9.93726e-08 0)
(0.00499993 -1.12688e-07 0)
(0.00499992 -1.27227e-07 0)
(0.0049999 -1.43112e-07 0)
(0.00499989 -1.60471e-07 0)
(0.00499987 -1.79438e-07 0)
(0.00499985 -2.00153e-07 0)
(0.00499984 -2.22766e-07 0)
(0.00499981 -2.47433e-07 0)
(0.00499979 -2.74321e-07 0)
(0.00499977 -3.03603e-07 0)
(0.00499974 -3.35464e-07 0)
(0.00499971 -3.70101e-07 0)
(0.00499968 -4.07719e-07 0)
(0.00499965 -4.48536e-07 0)
(0.00499962 -4.92782e-07 0)
(0.00499958 -5.40699e-07 0)
(0.00499954 -5.92542e-07 0)
(0.00499949 -6.48581e-07 0)
(0.00499944 -7.09097e-07 0)
(0.00499939 -7.7439e-07 0)
(0.00499934 -8.4477e-07 0)
(0.00499928 -9.20567e-07 0)
(0.00499922 -1.00213e-06 0)
(0.00499915 -1.08981e-06 0)
(0.00499908 -1.18398e-06 0)
(0.004999 -1.28506e-06 0)
(0.00499892 -1.39344e-06 0)
(0.00499884 -1.50957e-06 0)
(0.00499874 -1.63388e-06 0)
(0.00499865 -1.76686e-06 0)
(0.00499854 -1.90899e-06 0)
(0.00499843 -2.06078e-06 0)
(0.00499831 -2.22275e-06 0)
(0.00499819 -2.39547e-06 0)
(0.00499806 -2.5795e-06 0)
(0.00499791 -2.77542e-06 0)
(0.00499777 -2.98386e-06 0)
(0.00499761 -3.20545e-06 0)
(0.00499744 -3.44084e-06 0)
(0.00499726 -3.69071e-06 0)
(0.00499708 -3.95575e-06 0)
(0.00499688 -4.23668e-06 0)
(0.00499667 -4.53423e-06 0)
(0.00499645 -4.84917e-06 0)
(0.00499622 -5.18227e-06 0)
(0.00499598 -5.53431e-06 0)
(0.00499572 -5.90612e-06 0)
(0.00499545 -6.29853e-06 0)
(0.00499517 -6.71236e-06 0)
(0.00499487 -7.14849e-06 0)
(0.00499456 -7.60778e-06 0)
(0.00499423 -8.0911e-06 0)
(0.00499389 -8.59936e-06 0)
(0.00499354 -9.13343e-06 0)
(0.00499316 -9.69421e-06 0)
(0.00499277 -1.02826e-05 0)
(0.00499236 -1.08995e-05 0)
(0.00499194 -1.15457e-05 0)
(0.00499149 -1.22222e-05 0)
(0.00499103 -1.29297e-05 0)
(0.00499055 -1.36691e-05 0)
(0.00499006 -1.44411e-05 0)
(0.00498954 -1.52464e-05 0)
(0.00498901 -1.60857e-05 0)
(0.00498846 -1.69595e-05 0)
(0.00498788 -1.78682e-05 0)
(0.0049873 -1.88121e-05 0)
(0.00498669 -1.97914e-05 0)
(0.00498607 -2.08061e-05 0)
(0.00498543 -2.18557e-05 0)
(0.00498478 -2.29397e-05 0)
(0.00498412 -2.4057e-05 0)
(0.00498344 -2.52062e-05 0)
(0.00498275 -2.63851e-05 0)
(0.00498205 -2.75909e-05 0)
(0.00498135 -2.882e-05 0)
(0.00498065 -3.00674e-05 0)
(0.00497995 -3.13272e-05 0)
(0.00497924 -3.25914e-05 0)
(0.00497855 -3.38502e-05 0)
(0.00497787 -3.50913e-05 0)
(0.00497721 -3.62994e-05 0)
(0.00497657 -3.74552e-05 0)
(0.00497595 -3.8535e-05 0)
(0.00497536 -3.9509e-05 0)
(0.0049748 -4.03394e-05 0)
(0.00497424 -4.09797e-05 0)
(0.00497365 -4.13905e-05 0)
(0.005 -2.68322e-09 0)
(0.005 -8.17508e-09 0)
(0.005 -1.39567e-08 0)
(0.00499999 -2.01433e-08 0)
(0.00499999 -2.67368e-08 0)
(0.00499999 -3.37599e-08 0)
(0.00499998 -4.12678e-08 0)
(0.00499997 -4.93346e-08 0)
(0.00499997 -5.80457e-08 0)
(0.00499996 -6.74932e-08 0)
(0.00499995 -7.77744e-08 0)
(0.00499994 -8.89912e-08 0)
(0.00499993 -1.0125e-07 0)
(0.00499992 -1.14661e-07 0)
(0.0049999 -1.29341e-07 0)
(0.00499989 -1.45411e-07 0)
(0.00499987 -1.63001e-07 0)
(0.00499986 -1.82245e-07 0)
(0.00499984 -2.03286e-07 0)
(0.00499982 -2.26274e-07 0)
(0.0049998 -2.5137e-07 0)
(0.00499977 -2.78741e-07 0)
(0.00499975 -3.08565e-07 0)
(0.00499972 -3.41032e-07 0)
(0.00499969 -3.76339e-07 0)
(0.00499966 -4.14698e-07 0)
(0.00499962 -4.56329e-07 0)
(0.00499959 -5.01468e-07 0)
(0.00499955 -5.50361e-07 0)
(0.0049995 -6.03268e-07 0)
(0.00499946 -6.60464e-07 0)
(0.00499941 -7.22237e-07 0)
(0.00499935 -7.8889e-07 0)
(0.0049993 -8.60742e-07 0)
(0.00499923 -9.38127e-07 0)
(0.00499917 -1.0214e-06 0)
(0.0049991 -1.11092e-06 0)
(0.00499902 -1.20707e-06 0)
(0.00499894 -1.31027e-06 0)
(0.00499886 -1.42093e-06 0)
(0.00499877 -1.53948e-06 0)
(0.00499867 -1.66639e-06 0)
(0.00499857 -1.80214e-06 0)
(0.00499846 -1.94722e-06 0)
(0.00499834 -2.10216e-06 0)
(0.00499822 -2.26748e-06 0)
(0.00499809 -2.44375e-06 0)
(0.00499795 -2.63156e-06 0)
(0.0049978 -2.83149e-06 0)
(0.00499765 -3.04418e-06 0)
(0.00499749 -3.27026e-06 0)
(0.00499731 -3.5104e-06 0)
(0.00499713 -3.7653e-06 0)
(0.00499693 -4.03565e-06 0)
(0.00499673 -4.32218e-06 0)
(0.00499651 -4.62565e-06 0)
(0.00499629 -4.94682e-06 0)
(0.00499605 -5.28649e-06 0)
(0.00499579 -5.64545e-06 0)
(0.00499553 -6.02454e-06 0)
(0.00499525 -6.42461e-06 0)
(0.00499496 -6.8465e-06 0)
(0.00499465 -7.29109e-06 0)
(0.00499433 -7.75927e-06 0)
(0.00499399 -8.25195e-06 0)
(0.00499364 -8.77001e-06 0)
(0.00499327 -9.31439e-06 0)
(0.00499289 -9.88598e-06 0)
(0.00499248 -1.04857e-05 0)
(0.00499206 -1.11145e-05 0)
(0.00499163 -1.17732e-05 0)
(0.00499117 -1.24628e-05 0)
(0.0049907 -1.3184e-05 0)
(0.00499021 -1.39377e-05 0)
(0.0049897 -1.47247e-05 0)
(0.00498917 -1.55457e-05 0)
(0.00498863 -1.64014e-05 0)
(0.00498806 -1.72923e-05 0)
(0.00498748 -1.82188e-05 0)
(0.00498688 -1.91812e-05 0)
(0.00498627 -2.01796e-05 0)
(0.00498563 -2.12139e-05 0)
(0.00498499 -2.22836e-05 0)
(0.00498433 -2.3388e-05 0)
(0.00498365 -2.45258e-05 0)
(0.00498297 -2.56952e-05 0)
(0.00498228 -2.68937e-05 0)
(0.00498158 -2.81178e-05 0)
(0.00498087 -2.93633e-05 0)
(0.00498017 -3.06241e-05 0)
(0.00497946 -3.18929e-05 0)
(0.00497877 -3.31601e-05 0)
(0.00497808 -3.44136e-05 0)
(0.0049774 -3.5638e-05 0)
(0.00497674 -3.68141e-05 0)
(0.00497609 -3.79174e-05 0)
(0.00497547 -3.89168e-05 0)
(0.00497487 -3.97721e-05 0)
(0.00497427 -4.0433e-05 0)
(0.00497359 -4.08475e-05 0)
(0.005 -2.1817e-09 0)
(0.005 -6.69512e-09 0)
(0.005 -1.15445e-08 0)
(0.00499999 -1.68548e-08 0)
(0.00499999 -2.26156e-08 0)
(0.00499999 -2.88305e-08 0)
(0.00499998 -3.55354e-08 0)
(0.00499998 -4.27876e-08 0)
(0.00499997 -5.06582e-08 0)
(0.00499996 -5.9228e-08 0)
(0.00499995 -6.85848e-08 0)
(0.00499994 -7.88223e-08 0)
(0.00499993 -9.00395e-08 0)
(0.00499992 -1.02341e-07 0)
(0.00499991 -1.15836e-07 0)
(0.00499989 -1.30642e-07 0)
(0.00499988 -1.4688e-07 0)
(0.00499986 -1.6468e-07 0)
(0.00499984 -1.84179e-07 0)
(0.00499982 -2.05521e-07 0)
(0.0049998 -2.28859e-07 0)
(0.00499978 -2.54355e-07 0)
(0.00499975 -2.82181e-07 0)
(0.00499973 -3.12518e-07 0)
(0.0049997 -3.45558e-07 0)
(0.00499967 -3.81503e-07 0)
(0.00499963 -4.20568e-07 0)
(0.0049996 -4.62979e-07 0)
(0.00499956 -5.08975e-07 0)
(0.00499951 -5.58808e-07 0)
(0.00499947 -6.12743e-07 0)
(0.00499942 -6.71058e-07 0)
(0.00499937 -7.3405e-07 0)
(0.00499931 -8.02025e-07 0)
(0.00499925 -8.75309e-07 0)
(0.00499919 -9.54242e-07 0)
(0.00499912 -1.03918e-06 0)
(0.00499905 -1.1305e-06 0)
(0.00499897 -1.2286e-06 0)
(0.00499888 -1.33387e-06 0)
(0.0049988 -1.44676e-06 0)
(0.0049987 -1.56771e-06 0)
(0.0049986 -1.69718e-06 0)
(0.00499849 -1.83566e-06 0)
(0.00499838 -1.98366e-06 0)
(0.00499826 -2.14171e-06 0)
(0.00499813 -2.31035e-06 0)
(0.00499799 -2.49015e-06 0)
(0.00499785 -2.6817e-06 0)
(0.0049977 -2.88562e-06 0)
(0.00499754 -3.10253e-06 0)
(0.00499737 -3.33309e-06 0)
(0.00499719 -3.57799e-06 0)
(0.004997 -3.83791e-06 0)
(0.00499679 -4.11358e-06 0)
(0.00499658 -4.40574e-06 0)
(0.00499636 -4.71515e-06 0)
(0.00499612 -5.04259e-06 0)
(0.00499588 -5.38888e-06 0)
(0.00499562 -5.75484e-06 0)
(0.00499534 -6.1413e-06 0)
(0.00499505 -6.54913e-06 0)
(0.00499475 -6.9792e-06 0)
(0.00499444 -7.43242e-06 0)
(0.0049941 -7.90969e-06 0)
(0.00499376 -8.41193e-06 0)
(0.0049934 -8.94006e-06 0)
(0.00499302 -9.49503e-06 0)
(0.00499262 -1.00778e-05 0)
(0.00499221 -1.06892e-05 0)
(0.00499178 -1.13303e-05 0)
(0.00499133 -1.2002e-05 0)
(0.00499086 -1.27052e-05 0)
(0.00499038 -1.34408e-05 0)
(0.00498988 -1.42095e-05 0)
(0.00498936 -1.50123e-05 0)
(0.00498882 -1.58499e-05 0)
(0.00498826 -1.67229e-05 0)
(0.00498769 -1.76318e-05 0)
(0.0049871 -1.85772e-05 0)
(0.00498649 -1.95591e-05 0)
(0.00498586 -2.05778e-05 0)
(0.00498522 -2.16328e-05 0)
(0.00498457 -2.27237e-05 0)
(0.0049839 -2.38494e-05 0)
(0.00498322 -2.50084e-05 0)
(0.00498253 -2.61984e-05 0)
(0.00498183 -2.74163e-05 0)
(0.00498113 -2.86579e-05 0)
(0.00498042 -2.99178e-05 0)
(0.00497971 -3.11886e-05 0)
(0.00497901 -3.2461e-05 0)
(0.00497831 -3.37231e-05 0)
(0.00497761 -3.49594e-05 0)
(0.00497693 -3.61503e-05 0)
(0.00497626 -3.72706e-05 0)
(0.00497561 -3.82882e-05 0)
(0.00497497 -3.91612e-05 0)
(0.00497432 -3.98362e-05 0)
(0.00497359 -4.02414e-05 0)
(0.005 -1.7341e-09 0)
(0.005 -5.34891e-09 0)
(0.005 -9.31983e-09 0)
(0.00499999 -1.37818e-08 0)
(0.00499999 -1.87211e-08 0)
(0.00499999 -2.41303e-08 0)
(0.00499998 -3.00322e-08 0)
(0.00499998 -3.64705e-08 0)
(0.00499997 -4.35043e-08 0)
(0.00499996 -5.12037e-08 0)
(0.00499995 -5.9647e-08 0)
(0.00499994 -6.89198e-08 0)
(0.00499993 -7.91138e-08 0)
(0.00499992 -9.03266e-08 0)
(0.00499991 -1.02662e-07 0)
(0.0049999 -1.1623e-07 0)
(0.00499988 -1.31146e-07 0)
(0.00499987 -1.47535e-07 0)
(0.00499985 -1.65526e-07 0)
(0.00499983 -1.85259e-07 0)
(0.00499981 -2.0688e-07 0)
(0.00499979 -2.30544e-07 0)
(0.00499976 -2.56417e-07 0)
(0.00499974 -2.84673e-07 0)
(0.00499971 -3.15496e-07 0)
(0.00499968 -3.49082e-07 0)
(0.00499964 -3.85638e-07 0)
(0.00499961 -4.25382e-07 0)
(0.00499957 -4.68545e-07 0)
(0.00499953 -5.15369e-07 0)
(0.00499948 -5.66113e-07 0)
(0.00499944 -6.21045e-07 0)
(0.00499938 -6.80452e-07 0)
(0.00499933 -7.44632e-07 0)
(0.00499927 -8.139e-07 0)
(0.00499921 -8.88587e-07 0)
(0.00499914 -9.69041e-07 0)
(0.00499907 -1.05562e-06 0)
(0.00499899 -1.14872e-06 0)
(0.00499891 -1.24872e-06 0)
(0.00499882 -1.35606e-06 0)
(0.00499873 -1.47115e-06 0)
(0.00499863 -1.59447e-06 0)
(0.00499853 -1.72648e-06 0)
(0.00499842 -1.86768e-06 0)
(0.0049983 -2.01859e-06 0)
(0.00499818 -2.17973e-06 0)
(0.00499804 -2.35168e-06 0)
(0.0049979 -2.535e-06 0)
(0.00499775 -2.73031e-06 0)
(0.00499759 -2.93821e-06 0)
(0.00499743 -3.15937e-06 0)
(0.00499725 -3.39443e-06 0)
(0.00499706 -3.6441e-06 0)
(0.00499687 -3.90909e-06 0)
(0.00499666 -4.19013e-06 0)
(0.00499644 -4.48797e-06 0)
(0.00499621 -4.8034e-06 0)
(0.00499597 -5.13721e-06 0)
(0.00499571 -5.49023e-06 0)
(0.00499544 -5.86329e-06 0)
(0.00499516 -6.25727e-06 0)
(0.00499487 -6.67304e-06 0)
(0.00499456 -7.11151e-06 0)
(0.00499423 -7.57358e-06 0)
(0.00499389 -8.06019e-06 0)
(0.00499353 -8.57229e-06 0)
(0.00499316 -9.11083e-06 0)
(0.00499277 -9.67678e-06 0)
(0.00499237 -1.02711e-05 0)
(0.00499194 -1.08948e-05 0)
(0.0049915 -1.15488e-05 0)
(0.00499105 -1.2234e-05 0)
(0.00499057 -1.29515e-05 0)
(0.00499008 -1.37021e-05 0)
(0.00498956 -1.44868e-05 0)
(0.00498903 -1.53062e-05 0)
(0.00498848 -1.61613e-05 0)
(0.00498792 -1.70526e-05 0)
(0.00498733 -1.79806e-05 0)
(0.00498673 -1.89459e-05 0)
(0.00498612 -1.99485e-05 0)
(0.00498548 -2.09884e-05 0)
(0.00498483 -2.20652e-05 0)
(0.00498417 -2.3178e-05 0)
(0.0049835 -2.43256e-05 0)
(0.00498281 -2.55059e-05 0)
(0.00498211 -2.6716e-05 0)
(0.00498141 -2.7952e-05 0)
(0.0049807 -2.92086e-05 0)
(0.00497999 -3.04788e-05 0)
(0.00497928 -3.17532e-05 0)
(0.00497856 -3.302e-05 0)
(0.00497786 -3.42637e-05 0)
(0.00497716 -3.54641e-05 0)
(0.00497646 -3.65957e-05 0)
(0.00497578 -3.76252e-05 0)
(0.00497511 -3.85095e-05 0)
(0.0049744 -3.91932e-05 0)
(0.00497362 -3.95899e-05 0)
(0.005 -1.32962e-09 0)
(0.005 -4.11567e-09 0)
(0.005 -7.26324e-09 0)
(0.005 -1.09134e-08 0)
(0.00499999 -1.50527e-08 0)
(0.00499999 -1.96687e-08 0)
(0.00499998 -2.47756e-08 0)
(0.00499998 -3.04072e-08 0)
(0.00499997 -3.66125e-08 0)
(0.00499996 -4.34519e-08 0)
(0.00499996 -5.09952e-08 0)
(0.00499995 -5.93198e-08 0)
(0.00499994 -6.85103e-08 0)
(0.00499993 -7.86575e-08 0)
(0.00499991 -8.98587e-08 0)
(0.0049999 -1.02217e-07 0)
(0.00499989 -1.15844e-07 0)
(0.00499987 -1.30856e-07 0)
(0.00499985 -1.47378e-07 0)
(0.00499984 -1.65542e-07 0)
(0.00499982 -1.85489e-07 0)
(0.00499979 -2.07368e-07 0)
(0.00499977 -2.31337e-07 0)
(0.00499974 -2.57564e-07 0)
(0.00499972 -2.86226e-07 0)
(0.00499969 -3.17512e-07 0)
(0.00499965 -3.5162e-07 0)
(0.00499962 -3.88763e-07 0)
(0.00499958 -4.29161e-07 0)
(0.00499954 -4.7305e-07 0)
(0.0049995 -5.20679e-07 0)
(0.00499945 -5.72309e-07 0)
(0.0049994 -6.28215e-07 0)
(0.00499935 -6.88688e-07 0)
(0.00499929 -7.54034e-07 0)
(0.00499923 -8.24572e-07 0)
(0.00499917 -9.00641e-07 0)
(0.0049991 -9.82593e-07 0)
(0.00499902 -1.0708e-06 0)
(0.00499894 -1.16565e-06 0)
(0.00499886 -1.26755e-06 0)
(0.00499877 -1.37692e-06 0)
(0.00499867 -1.49422e-06 0)
(0.00499857 -1.61989e-06 0)
(0.00499846 -1.75443e-06 0)
(0.00499835 -1.89835e-06 0)
(0.00499822 -2.05215e-06 0)
(0.00499809 -2.21641e-06 0)
(0.00499796 -2.39167e-06 0)
(0.00499781 -2.57853e-06 0)
(0.00499766 -2.77761e-06 0)
(0.00499749 -2.98953e-06 0)
(0.00499732 -3.21495e-06 0)
(0.00499714 -3.45457e-06 0)
(0.00499695 -3.70907e-06 0)
(0.00499674 -3.97918e-06 0)
(0.00499653 -4.26567e-06 0)
(0.0049963 -4.56928e-06 0)
(0.00499607 -4.89083e-06 0)
(0.00499582 -5.23114e-06 0)
(0.00499556 -5.59103e-06 0)
(0.00499528 -5.97138e-06 0)
(0.00499499 -6.37307e-06 0)
(0.00499469 -6.797e-06 0)
(0.00499437 -7.2441e-06 0)
(0.00499403 -7.7153e-06 0)
(0.00499369 -8.21158e-06 0)
(0.00499332 -8.7339e-06 0)
(0.00499294 -9.28325e-06 0)
(0.00499254 -9.86063e-06 0)
(0.00499213 -1.0467e-05 0)
(0.00499169 -1.11035e-05 0)
(0.00499124 -1.1771e-05 0)
(0.00499078 -1.24705e-05 0)
(0.00499029 -1.3203e-05 0)
(0.00498979 -1.39695e-05 0)
(0.00498927 -1.47709e-05 0)
(0.00498873 -1.56079e-05 0)
(0.00498817 -1.64814e-05 0)
(0.00498759 -1.7392e-05 0)
(0.004987 -1.83402e-05 0)
(0.00498639 -1.93264e-05 0)
(0.00498576 -2.03506e-05 0)
(0.00498512 -2.14126e-05 0)
(0.00498446 -2.25117e-05 0)
(0.00498379 -2.36468e-05 0)
(0.00498311 -2.48161e-05 0)
(0.00498242 -2.60169e-05 0)
(0.00498171 -2.72454e-05 0)
(0.004981 -2.84965e-05 0)
(0.00498028 -2.97633e-05 0)
(0.00497956 -3.10366e-05 0)
(0.00497884 -3.23044e-05 0)
(0.00497812 -3.35511e-05 0)
(0.0049774 -3.47563e-05 0)
(0.00497668 -3.58939e-05 0)
(0.00497598 -3.69298e-05 0)
(0.00497527 -3.78199e-05 0)
(0.00497452 -3.85083e-05 0)
(0.0049737 -3.89024e-05 0)
(0.005 -9.58779e-10 0)
(0.005 -2.98122e-09 0)
(0.005 -5.35994e-09 0)
(0.005 -8.23857e-09 0)
(0.00499999 -1.16064e-08 0)
(0.00499999 -1.54496e-08 0)
(0.00499998 -1.97771e-08 0)
(0.00499998 -2.46154e-08 0)
(0.00499997 -3.00054e-08 0)
(0.00499997 -3.59994e-08 0)
(0.00499996 -4.26594e-08 0)
(0.00499995 -5.00553e-08 0)
(0.00499994 -5.82645e-08 0)
(0.00499993 -6.73713e-08 0)
(0.00499992 -7.74664e-08 0)
(0.00499991 -8.86474e-08 0)
(0.00499989 -1.01019e-07 0)
(0.00499988 -1.14691e-07 0)
(0.00499986 -1.29784e-07 0)
(0.00499984 -1.46423e-07 0)
(0.00499982 -1.64743e-07 0)
(0.0049998 -1.84886e-07 0)
(0.00499978 -2.07004e-07 0)
(0.00499975 -2.31258e-07 0)
(0.00499973 -2.57819e-07 0)
(0.0049997 -2.86867e-07 0)
(0.00499967 -3.18595e-07 0)
(0.00499963 -3.53206e-07 0)
(0.0049996 -3.90914e-07 0)
(0.00499956 -4.31946e-07 0)
(0.00499952 -4.76543e-07 0)
(0.00499947 -5.24956e-07 0)
(0.00499942 -5.77453e-07 0)
(0.00499937 -6.34315e-07 0)
(0.00499931 -6.95838e-07 0)
(0.00499926 -7.62332e-07 0)
(0.00499919 -8.34126e-07 0)
(0.00499912 -9.11562e-07 0)
(0.00499905 -9.95001e-07 0)
(0.00499898 -1.08482e-06 0)
(0.00499889 -1.18142e-06 0)
(0.00499881 -1.2852e-06 0)
(0.00499871 -1.39661e-06 0)
(0.00499861 -1.5161e-06 0)
(0.00499851 -1.64414e-06 0)
(0.0049984 -1.78122e-06 0)
(0.00499828 -1.92785e-06 0)
(0.00499815 -2.08458e-06 0)
(0.00499802 -2.25195e-06 0)
(0.00499788 -2.43056e-06 0)
(0.00499772 -2.62099e-06 0)
(0.00499757 -2.82388e-06 0)
(0.0049974 -3.03986e-06 0)
(0.00499722 -3.26962e-06 0)
(0.00499703 -3.51385e-06 0)
(0.00499684 -3.77326e-06 0)
(0.00499663 -4.0486e-06 0)
(0.00499641 -4.34063e-06 0)
(0.00499618 -4.65015e-06 0)
(0.00499593 -4.97796e-06 0)
(0.00499568 -5.32492e-06 0)
(0.00499541 -5.69187e-06 0)
(0.00499512 -6.07971e-06 0)
(0.00499483 -6.48934e-06 0)
(0.00499451 -6.9217e-06 0)
(0.00499419 -7.37773e-06 0)
(0.00499385 -7.85841e-06 0)
(0.00499349 -8.36472e-06 0)
(0.00499312 -8.89768e-06 0)
(0.00499273 -9.4583e-06 0)
(0.00499232 -1.00476e-05 0)
(0.0049919 -1.06667e-05 0)
(0.00499146 -1.13165e-05 0)
(0.004991 -1.19982e-05 0)
(0.00499052 -1.27127e-05 0)
(0.00499003 -1.34611e-05 0)
(0.00498951 -1.42443e-05 0)
(0.00498898 -1.50632e-05 0)
(0.00498843 -1.59187e-05 0)
(0.00498787 -1.68116e-05 0)
(0.00498728 -1.77425e-05 0)
(0.00498668 -1.87118e-05 0)
(0.00498606 -1.97197e-05 0)
(0.00498542 -2.07662e-05 0)
(0.00498477 -2.18507e-05 0)
(0.00498411 -2.29722e-05 0)
(0.00498343 -2.41291e-05 0)
(0.00498274 -2.53189e-05 0)
(0.00498203 -2.6538e-05 0)
(0.00498132 -2.77813e-05 0)
(0.0049806 -2.90421e-05 0)
(0.00497987 -3.03112e-05 0)
(0.00497914 -3.15765e-05 0)
(0.00497841 -3.28224e-05 0)
(0.00497767 -3.40281e-05 0)
(0.00497693 -3.51671e-05 0)
(0.0049762 -3.62047e-05 0)
(0.00497546 -3.70962e-05 0)
(0.00497467 -3.77853e-05 0)
(0.00497381 -3.81781e-05 0)
(0.005 -6.04937e-10 0)
(0.005 -1.93729e-09 0)
(0.005 -3.60025e-09 0)
(0.005 -5.74805e-09 0)
(0.00499999 -8.37697e-09 0)
(0.00499999 -1.14736e-08 0)
(0.00499999 -1.50435e-08 0)
(0.00499998 -1.91078e-08 0)
(0.00499997 -2.37012e-08 0)
(0.00499997 -2.88689e-08 0)
(0.00499996 -3.4666e-08 0)
(0.00499995 -4.11556e-08 0)
(0.00499994 -4.84085e-08 0)
(0.00499993 -5.65026e-08 0)
(0.00499992 -6.55224e-08 0)
(0.00499991 -7.55593e-08 0)
(0.0049999 -8.67118e-08 0)
(0.00499988 -9.9085e-08 0)
(0.00499987 -1.12792e-07 0)
(0.00499985 -1.27952e-07 0)
(0.00499983 -1.44694e-07 0)
(0.00499981 -1.63154e-07 0)
(0.00499979 -1.83477e-07 0)
(0.00499976 -2.05819e-07 0)
(0.00499974 -2.30342e-07 0)
(0.00499971 -2.5722e-07 0)
(0.00499968 -2.86639e-07 0)
(0.00499965 -3.18793e-07 0)
(0.00499961 -3.5389e-07 0)
(0.00499957 -3.92149e-07 0)
(0.00499953 -4.33801e-07 0)
(0.00499949 -4.7909e-07 0)
(0.00499944 -5.28275e-07 0)
(0.00499939 -5.81627e-07 0)
(0.00499934 -6.39433e-07 0)
(0.00499928 -7.01995e-07 0)
(0.00499922 -7.6963e-07 0)
(0.00499916 -8.42672e-07 0)
(0.00499909 -9.2147e-07 0)
(0.00499901 -1.00639e-06 0)
(0.00499893 -1.09782e-06 0)
(0.00499885 -1.19617e-06 0)
(0.00499876 -1.30185e-06 0)
(0.00499866 -1.4153e-06 0)
(0.00499856 -1.537e-06 0)
(0.00499845 -1.66741e-06 0)
(0.00499833 -1.80705e-06 0)
(0.00499821 -1.95643e-06 0)
(0.00499808 -2.11611e-06 0)
(0.00499794 -2.28664e-06 0)
(0.0049978 -2.46863e-06 0)
(0.00499764 -2.66269e-06 0)
(0.00499748 -2.86945e-06 0)
(0.00499731 -3.08957e-06 0)
(0.00499712 -3.32374e-06 0)
(0.00499693 -3.57267e-06 0)
(0.00499673 -3.8371e-06 0)
(0.00499651 -4.11778e-06 0)
(0.00499629 -4.41551e-06 0)
(0.00499605 -4.73108e-06 0)
(0.0049958 -5.06533e-06 0)