/*--------------------------------*- C++ -*----------------------------------*\
  =========                 |
  \\      /  F ield         | OpenFOAM: The Open Source CFD Toolbox
   \\    /   O peration     | Website:  https://openfoam.org
    \\  /    A nd           | Version:  11
     \\/     M anipulation  |
\*---------------------------------------------------------------------------*/
FoamFile
{
    format      ascii;
    class       volScalarField;
    location    "94";
    object      nut;
}
// * * * * * * * * * * * * * * * * * * * * * * * * * * * * * * * * * * * * * //

dimensions      [0 2 -1 0 0 0 0];

internalField   nonuniform List<scalar> 
10000
(
0.000977067
0.000936534
0.000899338
0.000865172
0.000833768
0.000804894
0.000778353
0.000753982
0.000731649
0.000711255
0.000692731
0.000676035
0.000661154
0.0006481
0.000636904
0.000627614
0.000620287
0.000614982
0.00061175
0.000610626
0.000611621
0.000614715
0.00061985
0.000626928
0.000635816
0.000646342
0.000658309
0.000671498
0.000685676
0.000700607
0.00071606
0.000731811
0.000747655
0.000763408
0.000778909
0.000794016
0.000808614
0.000822608
0.000835925
0.00084851
0.000860327
0.000871358
0.000881597
0.000891052
0.000899739
0.000907681
0.000914909
0.000921455
0.000927358
0.000932656
0.000937392
0.000941604
0.000945335
0.000948624
0.00095151
0.000954028
0.000956216
0.000958104
0.000959726
0.000961108
0.000962279
0.000963262
0.000964079
0.000964752
0.000965298
0.000965734
0.000966075
0.000966334
0.000966523
0.000966653
0.000966732
0.000966768
0.00096677
0.000966742
0.000966691
0.00096662
0.000966534
0.000966437
0.00096633
0.000966218
0.000966101
0.000965982
0.000965863
0.000965744
0.000965627
0.000965512
0.000965402
0.000965295
0.000965194
0.000965099
0.000965011
0.000964929
0.000964855
0.000964789
0.000964731
0.000964683
0.000964644
0.000964614
0.000964595
0.000964585
0.000977067
0.000936536
0.000899343
0.000865178
0.000833776
0.000804903
0.000778363
0.000753994
0.000731662
0.00071127
0.000692746
0.000676051
0.000661171
0.000648117
0.00063692
0.00062763
0.000620301
0.000614994
0.000611758
0.00061063
0.00061162
0.000614708
0.000619836
0.000626907
0.000635787
0.000646306
0.000658267
0.000671449
0.000685622
0.000700549
0.000715999
0.000731749
0.000747595
0.00076335
0.000778853
0.000793962
0.000808561
0.000822556
0.000835873
0.000848459
0.000860278
0.000871312
0.000881556
0.000891015
0.000899706
0.000907652
0.000914883
0.000921433
0.000927339
0.000932641
0.000937379
0.000941595
0.000945328
0.000948619
0.000951506
0.000954027
0.000956216
0.000958106
0.000959728
0.000961112
0.000962283
0.000963267
0.000964085
0.000964758
0.000965304
0.000965741
0.000966082
0.000966341
0.00096653
0.000966659
0.000966738
0.000966775
0.000966776
0.000966748
0.000966696
0.000966625
0.000966539
0.000966442
0.000966335
0.000966223
0.000966106
0.000965987
0.000965867
0.000965748
0.00096563
0.000965516
0.000965405
0.000965298
0.000965197
0.000965102
0.000965013
0.000964931
0.000964857
0.000964791
0.000964733
0.000964685
0.000964645
0.000964616
0.000964596
0.000964587
0.000977069
0.000936541
0.000899351
0.00086519
0.00083379
0.00080492
0.000778383
0.000754016
0.000731687
0.000711296
0.000692774
0.00067608
0.0006612
0.000648146
0.000636948
0.000627655
0.000620322
0.000615008
0.000611764
0.000610626
0.000611605
0.000614679
0.000619793
0.000626849
0.000635714
0.000646218
0.000658164
0.000671334
0.000685495
0.000700413
0.000715856
0.000731601
0.000747445
0.0007632
0.000778704
0.000793815
0.000808418
0.000822416
0.000835738
0.00084833
0.000860156
0.000871197
0.000881448
0.000890916
0.000899615
0.000907569
0.000914808
0.000921365
0.000927279
0.000932587
0.000937332
0.000941553
0.000945292
0.000948588
0.00095148
0.000954005
0.000956197
0.000958091
0.000959716
0.000961102
0.000962276
0.000963261
0.000964081
0.000964756
0.000965304
0.000965741
0.000966083
0.000966343
0.000966533
0.000966663
0.000966742
0.000966779
0.00096678
0.000966752
0.000966701
0.00096663
0.000966544
0.000966446
0.00096634
0.000966227
0.00096611
0.000965991
0.000965871
0.000965752
0.000965634
0.00096552
0.000965409
0.000965302
0.000965201
0.000965106
0.000965017
0.000964935
0.00096486
0.000964794
0.000964736
0.000964688
0.000964648
0.000964619
0.000964599
0.000964589
0.00097707
0.000936547
0.000899361
0.000865205
0.00083381
0.000804945
0.000778412
0.000754048
0.000731722
0.000711335
0.000692815
0.000676123
0.000661243
0.000648188
0.000636988
0.00062769
0.00062035
0.000615027
0.000611772
0.000610619
0.000611581
0.000614636
0.000619728
0.000626762
0.000635604
0.000646086
0.000658011
0.000671161
0.000685306
0.00070021
0.000715641
0.000731379
0.000747218
0.000762971
0.000778476
0.00079359
0.000808197
0.000822202
0.000835531
0.000848132
0.000859968
0.00087102
0.000881283
0.000890762
0.000899473
0.000907439
0.00091469
0.000921258
0.000927182
0.000932501
0.000937255
0.000941485
0.000945232
0.000948535
0.000951434
0.000953965
0.000956163
0.000958061
0.000959691
0.000961082
0.000962259
0.000963248
0.00096407
0.000964747
0.000965297
0.000965737
0.00096608
0.000966341
0.000966532
0.000966663
0.000966743
0.000966781
0.000966783
0.000966756
0.000966705
0.000966634
0.000966548
0.000966451
0.000966345
0.000966232
0.000966115
0.000965996
0.000965876
0.000965757
0.000965639
0.000965525
0.000965414
0.000965307
0.000965206
0.00096511
0.000965021
0.000964939
0.000964865
0.000964798
0.000964741
0.000964692
0.000964652
0.000964623
0.000964603
0.000964593
0.000977072
0.000936554
0.000899374
0.000865224
0.000833834
0.000804975
0.000778447
0.000754089
0.000731768
0.000711384
0.000692868
0.000676177
0.000661299
0.000648243
0.00063704
0.000627736
0.000620388
0.000615054
0.000611783
0.000610612
0.000611552
0.000614582
0.000619648
0.000626653
0.000635466
0.00064592
0.000657817
0.000670942
0.000685065
0.00069995
0.000715366
0.000731094
0.000746925
0.000762675
0.00077818
0.000793297
0.00080791
0.000821923
0.000835262
0.000847874
0.000859723
0.00087079
0.000881067
0.000890562
0.000899288
0.000907269
0.000914534
0.000921116
0.000927054
0.000932385
0.000937151
0.000941393
0.00094515
0.000948463
0.000951371
0.00095391
0.000956115
0.00095802
0.000959656
0.000961052
0.000962234
0.000963227
0.000964053
0.000964734
0.000965286
0.000965728
0.000966074
0.000966337
0.00096653
0.000966662
0.000966743
0.000966782
0.000966785
0.000966758
0.000966708
0.000966638
0.000966552
0.000966455
0.000966349
0.000966237
0.00096612
0.000966001
0.000965881
0.000965762
0.000965645
0.00096553
0.000965419
0.000965312
0.000965211
0.000965115
0.000965026
0.000964944
0.00096487
0.000964804
0.000964746
0.000964697
0.000964657
0.000964628
0.000964608
0.000964598
0.000977074
0.000936561
0.000899387
0.000865244
0.000833862
0.000805009
0.000778488
0.000754136
0.000731821
0.000711443
0.00069293
0.000676243
0.000661366
0.000648309
0.000637103
0.000627793
0.000620435
0.000615087
0.000611798
0.000610605
0.000611519
0.000614521
0.000619554
0.000626526
0.000635304
0.000645723
0.000657588
0.000670683
0.000684778
0.000699641
0.000715039
0.000730752
0.000746575
0.00076232
0.000777824
0.000792944
0.000807563
0.000821586
0.000834937
0.000847563
0.000859427
0.00087051
0.000880805
0.000890317
0.000899061
0.00090706
0.000914343
0.000920942
0.000926896
0.000932243
0.000937023
0.000941278
0.000945048
0.000948373
0.000951291
0.00095384
0.000956054
0.000957967
0.00095961
0.000961013
0.000962201
0.000963199
0.00096403
0.000964714
0.00096527
0.000965715
0.000966064
0.000966329
0.000966524
0.000966658
0.000966741
0.000966781
0.000966785
0.000966759
0.000966709
0.00096664
0.000966556
0.000966459
0.000966353
0.000966241
0.000966125
0.000966006
0.000965886
0.000965767
0.00096565
0.000965535
0.000965425
0.000965318
0.000965217
0.000965121
0.000965032
0.00096495
0.000964876
0.000964809
0.000964752
0.000964703
0.000964663
0.000964633
0.000964614
0.000964604
0.000977077
0.000936569
0.000899402
0.000865265
0.000833891
0.000805046
0.000778534
0.000754189
0.000731881
0.000711509
0.000693002
0.000676319
0.000661444
0.000648386
0.000637176
0.000627859
0.000620491
0.000615127
0.000611818
0.0006106
0.000611485
0.000614453
0.00061945
0.000626383
0.000635122
0.000645502
0.000657329
0.000670389
0.000684453
0.000699289
0.000714665
0.000730362
0.000746173
0.000761912
0.000777415
0.000792538
0.000807164
0.000821197
0.000834561
0.000847202
0.000859084
0.000870186
0.000880501
0.000890033
0.000898797
0.000906816
0.000914119
0.000920737
0.00092671
0.000932074
0.000936871
0.000941142
0.000944926
0.000948265
0.000951195
0.000953755
0.00095598
0.000957903
0.000959554
0.000960964
0.000962159
0.000963163
0.000964
0.000964689
0.000965249
0.000965698
0.00096605
0.000966318
0.000966515
0.000966651
0.000966736
0.000966778
0.000966783
0.000966759
0.00096671
0.000966642
0.000966558
0.000966462
0.000966356
0.000966245
0.000966129
0.00096601
0.000965891
0.000965772
0.000965655
0.000965541
0.00096543
0.000965324
0.000965222
0.000965127
0.000965038
0.000964956
0.000964882
0.000964816
0.000964758
0.000964709
0.00096467
0.00096464
0.00096462
0.000964611
0.000977079
0.000936577
0.000899416
0.000865288
0.000833922
0.000805086
0.000778582
0.000754246
0.000731947
0.000711582
0.000693081
0.000676402
0.00066153
0.000648472
0.000637259
0.000627934
0.000620554
0.000615173
0.000611843
0.000610597
0.00061145
0.000614381
0.000619338
0.000626228
0.000634923
0.00064526
0.000657045
0.000670066
0.000684095
0.000698901
0.000714252
0.00072993
0.000745728
0.00076146
0.00077696
0.000792086
0.000806719
0.000820762
0.00083414
0.000846798
0.000858699
0.000869821
0.000880157
0.000889712
0.000898499
0.00090654
0.000913865
0.000920505
0.000926498
0.000931882
0.000936697
0.000940985
0.000944786
0.00094814
0.000951084
0.000953657
0.000955893
0.000957827
0.000959488
0.000960907
0.000962109
0.00096312
0.000963963
0.000964658
0.000965223
0.000965676
0.000966032
0.000966303
0.000966503
0.000966642
0.000966729
0.000966772
0.000966779
0.000966756
0.000966709
0.000966641
0.000966558
0.000966463
0.000966359
0.000966247
0.000966132
0.000966014
0.000965895
0.000965777
0.00096566
0.000965546
0.000965435
0.000965329
0.000965228
0.000965133
0.000965044
0.000964962
0.000964888
0.000964822
0.000964764
0.000964716
0.000964676
0.000964647
0.000964627
0.000964617
0.000977081
0.000936584
0.000899431
0.00086531
0.000833953
0.000805127
0.000778633
0.000754307
0.000732016
0.00071166
0.000693166
0.000676492
0.000661623
0.000648565
0.000637349
0.000628017
0.000620624
0.000615225
0.000611871
0.000610597
0.000611415
0.000614307
0.00061922
0.000626064
0.000634712
0.000645001
0.000656741
0.000669719
0.00068371
0.000698482
0.000713806
0.000729462
0.000745245
0.000760968
0.000776465
0.000791593
0.000806233
0.000820287
0.00083368
0.000846355
0.000858276
0.00086942
0.00087978
0.000889358
0.000898169
0.000906235
0.000913583
0.000920247
0.000926262
0.000931667
0.000936503
0.00094081
0.000944629
0.000947999
0.000950959
0.000953546
0.000955795
0.00095774
0.000959412
0.00096084
0.000962051
0.00096307
0.00096392
0.00096462
0.000965191
0.000965649
0.000966009
0.000966284
0.000966487
0.000966629
0.000966718
0.000966764
0.000966773
0.000966751
0.000966705
0.000966639
0.000966557
0.000966463
0.000966359
0.000966249
0.000966134
0.000966016
0.000965898
0.00096578
0.000965664
0.00096555
0.00096544
0.000965334
0.000965233
0.000965138
0.00096505
0.000964968
0.000964894
0.000964828
0.000964771
0.000964722
0.000964683
0.000964653
0.000964634
0.000964624
0.000977083
0.000936592
0.000899445
0.000865333
0.000833985
0.000805168
0.000778684
0.000754369
0.000732088
0.000711741
0.000693255
0.000676588
0.000661722
0.000648665
0.000637445
0.000628105
0.000620699
0.000615282
0.000611904
0.000610599
0.00061138
0.000614231
0.000619098
0.000625894
0.000634491
0.00064473
0.000656421
0.000669353
0.000683303
0.000698038
0.000713332
0.000728965
0.000744731
0.000760443
0.000775935
0.000791065
0.000805711
0.000819777
0.000833185
0.000845879
0.000857821
0.000868988
0.000879372
0.000888975
0.000897812
0.000905903
0.000913277
0.000919965
0.000926004
0.000931432
0.00093629
0.000940618
0.000944455
0.000947843
0.00095082
0.000953422
0.000955685
0.000957643
0.000959326
0.000960765
0.000961985
0.000963013
0.00096387
0.000964577
0.000965154
0.000965617
0.000965981
0.000966261
0.000966468
0.000966612
0.000966704
0.000966752
0.000966763
0.000966744
0.000966699
0.000966635
0.000966554
0.000966461
0.000966358
0.000966248
0.000966134
0.000966018
0.0009659
0.000965782
0.000965666
0.000965553
0.000965443
0.000965338
0.000965238
0.000965143
0.000965055
0.000964974
0.0009649
0.000964834
0.000964777
0.000964729
0.00096469
0.00096466
0.000964641
0.000964631
0.000977085
0.000936599
0.000899459
0.000865355
0.000834017
0.00080521
0.000778737
0.000754432
0.000732161
0.000711824
0.000693347
0.000676686
0.000661825
0.000648769
0.000637546
0.000628199
0.00062078
0.000615344
0.00061194
0.000610603
0.000611347
0.000614154
0.000618973
0.000625718
0.000634262
0.000644448
0.000656088
0.000668972
0.000682877
0.000697575
0.000712836
0.000728443
0.00074419
0.00075989
0.000775377
0.000790508
0.00080516
0.000819237
0.00083266
0.000845373
0.000857336
0.000868527
0.000878936
0.000888566
0.00089743
0.000905548
0.000912948
0.000919662
0.000925727
0.000931179
0.00093606
0.000940409
0.000944267
0.000947674
0.000950668
0.000953287
0.000955565
0.000957536
0.000959232
0.000960681
0.000961912
0.000962948
0.000963813
0.000964528
0.000965111
0.00096558
0.000965949
0.000966233
0.000966444
0.000966592
0.000966687
0.000966738
0.000966751
0.000966734
0.000966691
0.000966628
0.000966548
0.000966456
0.000966355
0.000966246
0.000966133
0.000966017
0.0009659
0.000965783
0.000965668
0.000965555
0.000965446
0.000965341
0.000965241
0.000965147
0.000965059
0.000964979
0.000964905
0.00096484
0.000964783
0.000964735
0.000964696
0.000964667
0.000964647
0.000964637
0.000977087
0.000936607
0.000899473
0.000865377
0.000834048
0.000805251
0.000778789
0.000754495
0.000732236
0.000711909
0.000693441
0.000676788
0.000661931
0.000648877
0.000637651
0.000628297
0.000620865
0.000615409
0.00061198
0.00061061
0.000611315
0.000614077
0.000618847
0.000625539
0.000634029
0.00064416
0.000655746
0.000668579
0.000682438
0.000697095
0.000712322
0.000727901
0.000743628
0.000759315
0.000774795
0.000789926
0.000804584
0.000818671
0.00083211
0.000844841
0.000856827
0.000868042
0.000878477
0.000888134
0.000897025
0.000905171
0.000912599
0.000919341
0.000925431
0.000930909
0.000935814
0.000940186
0.000944065
0.000947492
0.000950505
0.00095314
0.000955434
0.00095742
0.000959129
0.00096059
0.000961831
0.000962877
0.000963751
0.000964473
0.000965063
0.000965538
0.000965913
0.000966202
0.000966416
0.000966568
0.000966667
0.00096672
0.000966736
0.000966721
0.00096668
0.000966618
0.000966541
0.00096645
0.00096635
0.000966242
0.00096613
0.000966015
0.000965899
0.000965783
0.000965668
0.000965556
0.000965448
0.000965343
0.000965244
0.00096515
0.000965063
0.000964983
0.00096491
0.000964845
0.000964788
0.000964741
0.000964702
0.000964673
0.000964653
0.000964644
0.000977089
0.000936614
0.000899487
0.000865398
0.000834078
0.000805292
0.000778841
0.000754558
0.00073231
0.000711994
0.000693536
0.00067689
0.000662039
0.000648987
0.000637759
0.000628397
0.000620952
0.000615477
0.000612022
0.00061062
0.000611285
0.000614001
0.000618721
0.000625359
0.000633792
0.000643866
0.000655397
0.000668178
0.000681989
0.000696603
0.000711794
0.000727345
0.00074305
0.000758722
0.000774195
0.000789324
0.000803987
0.000818085
0.000831538
0.000844289
0.000856296
0.000867536
0.000877997
0.000887682
0.000896602
0.000904776
0.000912233
0.000919002
0.00092512
0.000930624
0.000935553
0.000939949
0.000943851
0.000947299
0.00095033
0.000952984
0.000955294
0.000957295
0.000959017
0.000960491
0.000961744
0.0009628
0.000963683
0.000964413
0.00096501
0.000965492
0.000965872
0.000966166
0.000966385
0.000966541
0.000966643
0.000966699
0.000966718
0.000966705
0.000966666
0.000966607
0.000966531
0.000966441
0.000966342
0.000966236
0.000966125
0.000966011
0.000965896
0.000965781
0.000965667
0.000965556
0.000965448
0.000965344
0.000965245
0.000965153
0.000965066
0.000964986
0.000964914
0.000964849
0.000964793
0.000964746
0.000964707
0.000964678
0.000964659
0.000964649
0.000977091
0.00093662
0.0008995
0.000865419
0.000834108
0.000805332
0.000778891
0.00075462
0.000732384
0.000712079
0.00069363
0.000676993
0.000662147
0.000649097
0.000637868
0.000628499
0.000621042
0.000615548
0.000612066
0.000610631
0.000611256
0.000613927
0.000618595
0.000625178
0.000633554
0.00064357
0.000655045
0.000667772
0.000681534
0.000696104
0.000711257
0.000726777
0.000742458
0.000758115
0.000773579
0.000788706
0.000803374
0.000817481
0.000830949
0.000843718
0.000855748
0.000867012
0.0008775
0.000887213
0.000896162
0.000904366
0.000911851
0.000918649
0.000924794
0.000930325
0.00093528
0.000939701
0.000943625
0.000947094
0.000950146
0.000952818
0.000955145
0.000957162
0.000958899
0.000960385
0.00096165
0.000962716
0.000963609
0.000964348
0.000964952
0.00096544
0.000965827
0.000966126
0.00096635
0.00096651
0.000966615
0.000966675
0.000966697
0.000966686
0.00096665
0.000966592
0.000966518
0.000966431
0.000966333
0.000966228
0.000966118
0.000966005
0.000965891
0.000965777
0.000965664
0.000965554
0.000965446
0.000965344
0.000965246
0.000965153
0.000965068
0.000964988
0.000964917
0.000964853
0.000964797
0.00096475
0.000964712
0.000964683
0.000964664
0.000964654
0.000977093
0.000936627
0.000899512
0.000865439
0.000834137
0.000805371
0.000778941
0.000754681
0.000732457
0.000712162
0.000693724
0.000677095
0.000662256
0.000649209
0.000637978
0.000628602
0.000621132
0.000615619
0.000612112
0.000610643
0.000611229
0.000613853
0.000618471
0.000624998
0.000633316
0.000643274
0.000654691
0.000667363
0.000681074
0.000695599
0.000710714
0.000726202
0.000741859
0.000757498
0.000772953
0.000788077
0.000802748
0.000816864
0.000830346
0.000843134
0.000855185
0.000866474
0.000876989
0.00088673
0.000895708
0.000903941
0.000911456
0.000918283
0.000924457
0.000930015
0.000934996
0.000939441
0.00094339
0.000946881
0.000949953
0.000952644
0.000954989
0.000957021
0.000958773
0.000960273
0.000961549
0.000962627
0.000963529
0.000964277
0.00096489
0.000965385
0.000965778
0.000966082
0.000966311
0.000966475
0.000966585
0.000966648
0.000966672
0.000966665
0.000966631
0.000966576
0.000966503
0.000966417
0.000966321
0.000966218
0.000966109
0.000965998
0.000965885
0.000965771
0.000965659
0.00096555
0.000965444
0.000965342
0.000965245
0.000965153
0.000965068
0.000964989
0.000964918
0.000964855
0.0009648
0.000964753
0.000964715
0.000964687
0.000964668
0.000964658
0.000977094
0.000936633
0.000899525
0.000865459
0.000834165
0.000805409
0.00077899
0.000754741
0.000732528
0.000712245
0.000693817
0.000677197
0.000662363
0.000649319
0.000638087
0.000628705
0.000621223
0.000615692
0.000612158
0.000610657
0.000611203
0.000613782
0.000618348
0.000624819
0.000633079
0.000642978
0.000654337
0.000666954
0.000680613
0.000695092
0.000710167
0.000725622
0.000741254
0.000756875
0.000772319
0.00078744
0.000802113
0.000816238
0.000829734
0.000842539
0.000854612
0.000865925
0.000876466
0.000886235
0.000895242
0.000903505
0.00091105
0.000917906
0.000924108
0.000929694
0.000934703
0.000939173
0.000943145
0.000946659
0.000949752
0.000952462
0.000954825
0.000956874
0.000958641
0.000960155
0.000961443
0.000962532
0.000963445
0.000964202
0.000964823
0.000965325
0.000965724
0.000966034
0.000966269
0.000966437
0.000966551
0.000966618
0.000966645
0.000966641
0.000966609
0.000966556
0.000966486
0.000966402
0.000966308
0.000966206
0.000966098
0.000965988
0.000965876
0.000965764
0.000965653
0.000965545
0.000965439
0.000965338
0.000965242
0.000965152
0.000965067
0.000964989
0.000964919
0.000964856
0.000964801
0.000964755
0.000964718
0.00096469
0.000964671
0.000964661
0.000977096
0.000936639
0.000899536
0.000865478
0.000834192
0.000805445
0.000779037
0.000754799
0.000732597
0.000712325
0.000693908
0.000677296
0.000662469
0.000649428
0.000638195
0.000628807
0.000621313
0.000615764
0.000612205
0.000610672
0.000611179
0.000613712
0.000618227
0.000624643
0.000632845
0.000642685
0.000653985
0.000666546
0.000680154
0.000694586
0.00070962
0.000725042
0.000740647
0.00075625
0.000771682
0.000786798
0.000801473
0.000815605
0.000829114
0.000841937
0.00085403
0.000865368
0.000875935
0.000885732
0.000894768
0.000903061
0.000910635
0.00091752
0.000923752
0.000929366
0.000934401
0.000938896
0.000942893
0.000946429
0.000949544
0.000952274
0.000954655
0.000956721
0.000958503
0.000960031
0.000961332
0.000962433
0.000963356
0.000964122
0.000964751
0.000965261
0.000965667
0.000965983
0.000966223
0.000966396
0.000966514
0.000966584
0.000966615
0.000966614
0.000966585
0.000966534
0.000966466
0.000966384
0.000966291
0.000966191
0.000966085
0.000965976
0.000965866
0.000965755
0.000965645
0.000965538
0.000965434
0.000965333
0.000965238
0.000965148
0.000965065
0.000964988
0.000964918
0.000964856
0.000964802
0.000964756
0.000964719
0.000964692
0.000964673
0.000964663
0.000977098
0.000936645
0.000899548
0.000865496
0.000834218
0.00080548
0.000779082
0.000754855
0.000732665
0.000712404
0.000693996
0.000677393
0.000662573
0.000649535
0.000638301
0.000628908
0.000621403
0.000615836
0.000612253
0.000610688
0.000611156
0.000613644
0.000618108
0.00062447
0.000632614
0.000642395
0.000653637
0.000666142
0.000679698
0.000694082
0.000709076
0.000724463
0.000740041
0.000755624
0.000771043
0.000786154
0.00080083
0.000814969
0.00082849
0.00084133
0.000853444
0.000864804
0.000875398
0.000885223
0.000894287
0.000902609
0.000910213
0.000917128
0.000923388
0.00092903
0.000934092
0.000938614
0.000942634
0.000946194
0.00094933
0.00095208
0.00095448
0.000956562
0.00095836
0.000959902
0.000961217
0.000962329
0.000963262
0.000964038
0.000964676
0.000965193
0.000965606
0.000965929
0.000966173
0.000966352
0.000966474
0.000966548
0.000966583
0.000966584
0.000966558
0.00096651
0.000966444
0.000966364
0.000966273
0.000966175
0.00096607
0.000965963
0.000965853
0.000965744
0.000965635
0.000965529
0.000965426
0.000965327
0.000965233
0.000965144
0.000965061
0.000964985
0.000964916
0.000964855
0.000964801
0.000964756
0.00096472
0.000964692
0.000964674
0.000964664
0.000977099
0.000936651
0.000899558
0.000865513
0.000834243
0.000805514
0.000779126
0.00075491
0.00073273
0.00071248
0.000694082
0.000677488
0.000662674
0.000649639
0.000638405
0.000629007
0.000621491
0.000615907
0.0006123
0.000610704
0.000611135
0.000613578
0.000617993
0.0006243
0.000632387
0.00064211
0.000653294
0.000665743
0.000679246
0.000693584
0.000708535
0.000723888
0.000739438
0.000755001
0.000770407
0.000785511
0.000800188
0.000814333
0.000827865
0.000840721
0.000852854
0.000864238
0.000874857
0.000884709
0.000893802
0.000902153
0.000909786
0.00091673
0.000923019
0.000928689
0.000933778
0.000938325
0.000942371
0.000945953
0.000949111
0.000951881
0.000954299
0.000956399
0.000958212
0.000959769
0.000961097
0.000962221
0.000963165
0.00096395
0.000964597
0.000965122
0.000965542
0.000965871
0.000966121
0.000966305
0.000966431
0.000966509
0.000966547
0.000966552
0.000966529
0.000966483
0.000966419
0.000966341
0.000966253
0.000966156
0.000966053
0.000965947
0.000965839
0.000965731
0.000965624
0.000965519
0.000965417
0.000965319
0.000965226
0.000965138
0.000965056
0.000964981
0.000964913
0.000964852
0.0009648
0.000964755
0.000964719
0.000964692
0.000964674
0.000964664
0.000977101
0.000936656
0.000899569
0.000865529
0.000834267
0.000805547
0.000779168
0.000754962
0.000732793
0.000712553
0.000694165
0.00067758
0.000662772
0.000649741
0.000638507
0.000629104
0.000621577
0.000615976
0.000612346
0.000610721
0.000611114
0.000613515
0.00061788
0.000624134
0.000632165
0.00064183
0.000652957
0.000665351
0.000678802
0.000693092
0.000708002
0.000723319
0.000738841
0.000754383
0.000769775
0.000784872
0.000799548
0.000813699
0.000827242
0.000840112
0.000852265
0.000863671
0.000874315
0.000884193
0.000893314
0.000901694
0.000909356
0.00091633
0.000922647
0.000928344
0.00093346
0.000938033
0.000942103
0.000945708
0.000948888
0.000951678
0.000954115
0.000956232
0.000958061
0.000959632
0.000960973
0.000962109
0.000963064
0.00096386
0.000964515
0.000965048
0.000965475
0.00096581
0.000966066
0.000966255
0.000966386
0.000966468
0.00096651
0.000966517
0.000966497
0.000966454
0.000966393
0.000966317
0.00096623
0.000966135
0.000966034
0.00096593
0.000965823
0.000965717
0.000965611
0.000965507
0.000965406
0.00096531
0.000965217
0.000965131
0.00096505
0.000964976
0.000964908
0.000964849
0.000964797
0.000964753
0.000964717
0.00096469
0.000964672
0.000964663
0.000977102
0.000936661
0.000899579
0.000865545
0.00083429
0.000805578
0.000779208
0.000755013
0.000732853
0.000712624
0.000694246
0.000677668
0.000662867
0.00064984
0.000638605
0.000629197
0.000621661
0.000616045
0.000612392
0.000610737
0.000611095
0.000613453
0.000617771
0.000623972
0.000631949
0.000641557
0.000652627
0.000664966
0.000678365
0.000692608
0.000707476
0.000722758
0.000738252
0.000753772
0.00076915
0.00078424
0.000798914
0.00081307
0.000826622
0.000839507
0.000851678
0.000863106
0.000873773
0.000883678
0.000892826
0.000901235
0.000908925
0.000915927
0.000922273
0.000927998
0.00093314
0.000937738
0.000941832
0.000945461
0.000948662
0.000951472
0.000953928
0.000956062
0.000957907
0.000959493
0.000960847
0.000961995
0.000962961
0.000963766
0.00096443
0.000964971
0.000965405
0.000965747
0.000966009
0.000966202
0.000966338
0.000966424
0.00096647
0.000966481
0.000966463
0.000966423
0.000966364
0.000966291
0.000966206
0.000966113
0.000966014
0.000965911
0.000965806
0.0009657
0.000965596
0.000965494
0.000965394
0.000965299
0.000965208
0.000965122
0.000965042
0.000964969
0.000964903
0.000964844
0.000964792
0.000964749
0.000964714
0.000964688
0.00096467
0.000964661
0.000977103
0.000936666
0.000899588
0.00086556
0.000834312
0.000805608
0.000779247
0.000755061
0.000732912
0.000712692
0.000694323
0.000677754
0.000662958
0.000649935
0.0006387
0.000629288
0.000621743
0.000616111
0.000612437
0.000610754
0.000611076
0.000613393
0.000617665
0.000623815
0.000631737
0.00064129
0.000652305
0.00066459
0.000677938
0.000692134
0.000706961
0.000722208
0.000737673
0.000753171
0.000768534
0.000783615
0.000798288
0.000812447
0.000826009
0.000838907
0.000851096
0.000862544
0.000873235
0.000883165
0.00089234
0.000900776
0.000908495
0.000915524
0.000921898
0.00092765
0.000932818
0.000937442
0.00094156
0.000945211
0.000948433
0.000951264
0.000953738
0.000955889
0.00095775
0.000959351
0.000960718
0.000961878
0.000962855
0.00096367
0.000964343
0.000964892
0.000965333
0.000965681
0.000965949
0.000966148
0.000966288
0.000966379
0.000966428
0.000966442
0.000966428
0.00096639
0.000966333
0.000966262
0.00096618
0.000966088
0.000965991
0.00096589
0.000965787
0.000965683
0.00096558
0.000965479
0.000965381
0.000965286
0.000965197
0.000965112
0.000965033
0.000964961
0.000964896
0.000964837
0.000964787
0.000964744
0.00096471
0.000964684
0.000964667
0.000964658
0.000977105
0.000936671
0.000899597
0.000865575
0.000834333
0.000805637
0.000779284
0.000755107
0.000732967
0.000712757
0.000694397
0.000677836
0.000663047
0.000650026
0.000638792
0.000629376
0.000621822
0.000616175
0.00061248
0.00061077
0.000611058
0.000613336
0.000617562
0.000623663
0.000631533
0.000641031
0.000651991
0.000664223
0.000677521
0.000691671
0.000706457
0.000721668
0.000737105
0.000752581
0.000767929
0.000783001
0.000797671
0.000811834
0.000825403
0.000838315
0.00085052
0.000861988
0.000872702
0.000882656
0.000891857
0.00090032
0.000908066
0.000915123
0.000921524
0.000927303
0.000932497
0.000937146
0.000941287
0.000944961
0.000948204
0.000951054
0.000953547
0.000955715
0.000957592
0.000959207
0.000960587
0.000961759
0.000962747
0.000963572
0.000964254
0.000964811
0.000965259
0.000965614
0.000965887
0.000966091
0.000966236
0.000966331
0.000966384
0.000966401
0.00096639
0.000966355
0.000966301
0.000966232
0.000966152
0.000966062
0.000965967
0.000965868
0.000965766
0.000965664
0.000965562
0.000965462
0.000965366
0.000965273
0.000965184
0.000965101
0.000965023
0.000964952
0.000964887
0.00096483
0.00096478
0.000964738
0.000964705
0.000964679
0.000964662
0.000964653
0.000977106
0.000936675
0.000899606
0.000865589
0.000834353
0.000805664
0.000779319
0.000755151
0.000733021
0.000712819
0.000694468
0.000677914
0.000663131
0.000650114
0.00063888
0.000629461
0.000621897
0.000616237
0.000612522
0.000610785
0.000611041
0.00061328
0.000617463
0.000623516
0.000631334
0.000640779
0.000651686
0.000663866
0.000677115
0.00069122
0.000705965
0.000721142
0.00073655
0.000752004
0.000767336
0.000782399
0.000797066
0.000811231
0.000824808
0.000837731
0.000849953
0.00086144
0.000872175
0.000882153
0.00089138
0.000899868
0.000907641
0.000914725
0.000921152
0.000926957
0.000932177
0.00093685
0.000941015
0.00094471
0.000947975
0.000950844
0.000953355
0.000955541
0.000957433
0.000959062
0.000960455
0.000961639
0.000962638
0.000963472
0.000964163
0.000964728
0.000965184
0.000965545
0.000965824
0.000966033
0.000966183
0.000966282
0.000966338
0.000966359
0.000966351
0.000966319
0.000966268
0.000966201
0.000966123
0.000966035
0.000965942
0.000965844
0.000965744
0.000965643
0.000965543
0.000965445
0.000965349
0.000965258
0.00096517
0.000965088
0.000965012
0.000964942
0.000964878
0.000964822
0.000964773
0.000964732
0.000964698
0.000964673
0.000964656
0.000964648
0.000977107
0.000936679
0.000899614
0.000865602
0.000834372
0.00080569
0.000779353
0.000755193
0.000733071
0.000712879
0.000694536
0.00067799
0.000663212
0.000650199
0.000638965
0.000629542
0.00062197
0.000616296
0.000612562
0.0006108
0.000611025
0.000613227
0.000617367
0.000623374
0.000631142
0.000640536
0.000651391
0.000663521
0.000676721
0.000690781
0.000705487
0.000720629
0.000736009
0.000751441
0.000766757
0.000781811
0.000796474
0.00081064
0.000824224
0.000837159
0.000849395
0.000860901
0.000871657
0.000881658
0.000890908
0.000899423
0.000907221
0.000914332
0.000920785
0.000926615
0.000931859
0.000936556
0.000940744
0.000944461
0.000947746
0.000950635
0.000953163
0.000955365
0.000957273
0.000958916
0.000960322
0.000961518
0.000962527
0.000963372
0.000964071
0.000964644
0.000965107