/*--------------------------------*- C++ -*----------------------------------*\
  =========                 |
  \\      /  F ield         | OpenFOAM: The Open Source CFD Toolbox
   \\    /   O peration     | Website:  https://openfoam.org
    \\  /    A nd           | Version:  11
     \\/     M anipulation  |
\*---------------------------------------------------------------------------*/
FoamFile
{
    format      ascii;
    class       volScalarField;
    location    "94";
    object      omega;
}
// * * * * * * * * * * * * * * * * * * * * * * * * * * * * * * * * * * * * * //

dimensions      [0 0 -1 0 0 0 0];

internalField   nonuniform List<scalar> 
10000
(
0.961696
0.892167
0.82901
0.771552
0.719196
0.671408
0.627711
0.58768
0.550931
0.517126
0.485957
0.457153
0.43047
0.405693
0.382635
0.361133
0.341047
0.322262
0.304683
0.288235
0.27286
0.258513
0.245156
0.232759
0.221291
0.210722
0.201018
0.192141
0.184049
0.176696
0.170034
0.164014
0.158587
0.153704
0.149319
0.145388
0.141868
0.138722
0.135912
0.133406
0.131172
0.129182
0.127412
0.12584
0.124444
0.123206
0.12211
0.12114
0.120283
0.119527
0.11886
0.118273
0.117756
0.117303
0.116905
0.116556
0.11625
0.115983
0.115749
0.115545
0.115366
0.11521
0.115074
0.114955
0.114851
0.114761
0.114681
0.114611
0.11455
0.114496
0.114448
0.114406
0.114368
0.114335
0.114305
0.114278
0.114253
0.114231
0.114211
0.114192
0.114175
0.114159
0.114144
0.11413
0.114117
0.114105
0.114093
0.114082
0.114072
0.114062
0.114053
0.114044
0.114036
0.114028
0.114021
0.114015
0.114009
0.114005
0.114001
0.113999
0.961696
0.892169
0.829013
0.771556
0.719201
0.671414
0.627718
0.587687
0.55094
0.517135
0.485968
0.457164
0.430483
0.405708
0.382652
0.361151
0.341067
0.322284
0.304707
0.288262
0.272889
0.258543
0.245188
0.232792
0.221325
0.210756
0.201052
0.192174
0.184081
0.176726
0.170063
0.164042
0.158614
0.15373
0.149344
0.145412
0.141891
0.138743
0.135931
0.133423
0.131187
0.129196
0.127425
0.125852
0.124455
0.123216
0.122119
0.121148
0.120291
0.119534
0.118866
0.118279
0.117762
0.117308
0.116909
0.11656
0.116254
0.115986
0.115752
0.115548
0.115369
0.115213
0.115077
0.114957
0.114853
0.114762
0.114683
0.114613
0.114551
0.114497
0.114449
0.114407
0.114369
0.114336
0.114306
0.114278
0.114254
0.114232
0.114211
0.114193
0.114175
0.114159
0.114145
0.114131
0.114118
0.114105
0.114094
0.114083
0.114072
0.114062
0.114053
0.114044
0.114036
0.114028
0.114021
0.114015
0.114009
0.114005
0.114002
0.114
0.961697
0.892171
0.829017
0.771563
0.71921
0.671425
0.627731
0.587701
0.550956
0.517153
0.485987
0.457186
0.430506
0.405734
0.382681
0.361183
0.341103
0.322323
0.30475
0.288308
0.272938
0.258595
0.245242
0.232848
0.221382
0.210813
0.201109
0.19223
0.184135
0.176778
0.170113
0.16409
0.158659
0.153772
0.149384
0.145449
0.141926
0.138775
0.135961
0.13345
0.131211
0.129218
0.127445
0.12587
0.124471
0.123231
0.122133
0.121161
0.120302
0.119544
0.118875
0.118287
0.117769
0.117314
0.116915
0.116565
0.116259
0.115991
0.115756
0.115551
0.115372
0.115216
0.115079
0.11496
0.114856
0.114764
0.114685
0.114614
0.114553
0.114499
0.114451
0.114408
0.11437
0.114337
0.114307
0.114279
0.114255
0.114232
0.114212
0.114193
0.114176
0.11416
0.114145
0.114131
0.114118
0.114106
0.114094
0.114083
0.114073
0.114063
0.114053
0.114044
0.114036
0.114028
0.114021
0.114015
0.11401
0.114005
0.114002
0.114
0.961697
0.892173
0.829022
0.77157
0.71922
0.671438
0.627746
0.587719
0.550976
0.517176
0.486013
0.457215
0.430538
0.40577
0.382721
0.361228
0.341152
0.322377
0.304809
0.288372
0.273007
0.258668
0.245318
0.232926
0.221461
0.210893
0.201187
0.192307
0.18421
0.17685
0.170182
0.164155
0.15872
0.15383
0.149438
0.1455
0.141973
0.138818
0.136
0.133486
0.131244
0.129248
0.127473
0.125895
0.124494
0.123252
0.122151
0.121177
0.120317
0.119557
0.118888
0.118298
0.117779
0.117323
0.116923
0.116572
0.116265
0.115996
0.115761
0.115556
0.115376
0.115219
0.115082
0.114963
0.114858
0.114767
0.114687
0.114616
0.114555
0.1145
0.114452
0.11441
0.114372
0.114338
0.114308
0.11428
0.114256
0.114233
0.114213
0.114194
0.114177
0.114161
0.114146
0.114132
0.114119
0.114107
0.114095
0.114084
0.114073
0.114063
0.114054
0.114045
0.114037
0.114029
0.114022
0.114016
0.11401
0.114006
0.114002
0.114
0.961697
0.892174
0.829025
0.771577
0.71923
0.671451
0.627763
0.58774
0.551
0.517203
0.486044
0.45725
0.430578
0.405815
0.382771
0.361283
0.341214
0.322445
0.304883
0.288452
0.273093
0.258758
0.245413
0.233023
0.22156
0.210992
0.201286
0.192403
0.184303
0.176941
0.170268
0.164237
0.158798
0.153903
0.149506
0.145563
0.142031
0.138872
0.13605
0.133531
0.131286
0.129286
0.127507
0.125926
0.124522
0.123277
0.122174
0.121198
0.120335
0.119574
0.118902
0.118311
0.117791
0.117334
0.116933
0.116581
0.116273
0.116003
0.115767
0.115561
0.115381
0.115224
0.115086
0.114966
0.114861
0.114769
0.114689
0.114619
0.114557
0.114502
0.114454
0.114411
0.114373
0.114339
0.114309
0.114281
0.114257
0.114234
0.114214
0.114195
0.114178
0.114162
0.114147
0.114133
0.11412
0.114107
0.114096
0.114084
0.114074
0.114064
0.114055
0.114046
0.114037
0.114029
0.114022
0.114016
0.114011
0.114006
0.114003
0.114001
0.961696
0.892175
0.829028
0.771583
0.719239
0.671464
0.62778
0.587761
0.551026
0.517234
0.486079
0.45729
0.430624
0.405866
0.382829
0.361348
0.341286
0.322525
0.30497
0.288547
0.273194
0.258865
0.245524
0.233137
0.221676
0.211109
0.201401
0.192517
0.184414
0.177047
0.170369
0.164333
0.158888
0.153988
0.149585
0.145636
0.142099
0.138935
0.136108
0.133584
0.131334
0.12933
0.127547
0.125962
0.124555
0.123307
0.122201
0.121222
0.120357
0.119593
0.11892
0.118327
0.117805
0.117346
0.116944
0.116591
0.116281
0.116011
0.115774
0.115567
0.115386
0.115228
0.11509
0.11497
0.114865
0.114772
0.114692
0.114621
0.114559
0.114504
0.114456
0.114413
0.114375
0.114341
0.11431
0.114283
0.114258
0.114235
0.114215
0.114196
0.114179
0.114162
0.114148
0.114133
0.11412
0.114108
0.114096
0.114085
0.114075
0.114065
0.114055
0.114046
0.114038
0.11403
0.114023
0.114017
0.114011
0.114007
0.114003
0.114001
0.961696
0.892175
0.829029
0.771587
0.719247
0.671476
0.627796
0.587782
0.551052
0.517265
0.486116
0.457333
0.430674
0.405923
0.382893
0.361421
0.341367
0.322615
0.305069
0.288653
0.273307
0.258985
0.245649
0.233266
0.221807
0.21124
0.201532
0.192645
0.184538
0.177167
0.170484
0.164441
0.158991
0.154084
0.149675
0.14572
0.142176
0.139006
0.136173
0.133644
0.131389
0.12938
0.127592
0.126003
0.124592
0.12334
0.122231
0.12125
0.120382
0.119615
0.11894
0.118344
0.11782
0.11736
0.116956
0.116602
0.116291
0.116019
0.115782
0.115574
0.115392
0.115234
0.115095
0.114974
0.114868
0.114776
0.114695
0.114623
0.114561
0.114506
0.114457
0.114414
0.114376
0.114342
0.114311
0.114284
0.114259
0.114236
0.114216
0.114197
0.114179
0.114163
0.114148
0.114134
0.114121
0.114109
0.114097
0.114086
0.114075
0.114065
0.114056
0.114047
0.114039
0.114031
0.114024
0.114017
0.114012
0.114008
0.114004
0.114002
0.961696
0.892174
0.82903
0.77159
0.719254
0.671486
0.627811
0.587802
0.551078
0.517297
0.486154
0.457378
0.430726
0.405984
0.382963
0.361499
0.341455
0.322712
0.305175
0.288769
0.273431
0.259117
0.245786
0.233407
0.221951
0.211384
0.201675
0.192785
0.184674
0.177298
0.170609
0.164561
0.159103
0.15419
0.149774
0.145811
0.142261
0.139084
0.136245
0.13371
0.131449
0.129435
0.127642
0.126049
0.124633
0.123377
0.122265
0.12128
0.120409
0.11964
0.118961
0.118364
0.117838
0.117375
0.11697
0.116614
0.116302
0.116029
0.11579
0.115581
0.115399
0.115239
0.1151
0.114978
0.114872
0.114779
0.114698
0.114626
0.114563
0.114508
0.114459
0.114416
0.114377
0.114343
0.114313
0.114285
0.11426
0.114237
0.114217
0.114198
0.11418
0.114164
0.114149
0.114135
0.114122
0.114109
0.114098
0.114087
0.114076
0.114066
0.114057
0.114048
0.114039
0.114032
0.114024
0.114018
0.114013
0.114008
0.114005
0.114003
0.961695
0.892174
0.829031
0.771592
0.719259
0.671495
0.627825
0.587821
0.551102
0.517328
0.486192
0.457424
0.43078
0.406047
0.383035
0.361582
0.341547
0.322815
0.305289
0.288892
0.273564
0.259257
0.245932
0.233558
0.222104
0.211538
0.201828
0.192936
0.184821
0.177439
0.170744
0.164689
0.159224
0.154303
0.14988
0.14591
0.142353
0.139169
0.136323
0.133781
0.131514
0.129494
0.127696
0.126098
0.124677
0.123417
0.122301
0.121312
0.120438
0.119666
0.118985
0.118384
0.117856
0.117392
0.116984
0.116627
0.116313
0.116039
0.115799
0.115589
0.115406
0.115245
0.115105
0.114983
0.114876
0.114783
0.114701
0.114629
0.114566
0.11451
0.114461
0.114418
0.114379
0.114344
0.114314
0.114286
0.114261
0.114238
0.114217
0.114198
0.114181
0.114165
0.11415
0.114136
0.114122
0.11411
0.114098
0.114087
0.114077
0.114067
0.114057
0.114048
0.11404
0.114032
0.114025
0.114019
0.114013
0.114009
0.114006
0.114004
0.961695
0.892173
0.82903
0.771593
0.719263
0.671503
0.627837
0.587838
0.551126
0.517358
0.48623
0.45747
0.430835
0.406111
0.383109
0.361667
0.341643
0.322922
0.305407
0.289021
0.273702
0.259404
0.246086
0.233717
0.222265
0.211701
0.201989
0.193094
0.184975
0.177588
0.170887
0.164825
0.159352
0.154424
0.149992
0.146015
0.14245
0.139258
0.136405
0.133857
0.131583
0.129557
0.127754
0.12615
0.124725
0.12346
0.122339
0.121346
0.120469
0.119693
0.119009
0.118406
0.117876
0.117409
0.117
0.11664
0.116325
0.116049
0.115808
0.115597
0.115413
0.115251
0.115111
0.114988
0.11488
0.114786
0.114704
0.114631
0.114568
0.114512
0.114463
0.114419
0.11438
0.114346
0.114315
0.114287
0.114262
0.114239
0.114218
0.114199
0.114182
0.114165
0.11415
0.114136
0.114123
0.114111
0.114099
0.114088
0.114077
0.114067
0.114058
0.114049
0.114041
0.114033
0.114026
0.11402
0.114014
0.11401
0.114006
0.114004
0.961694
0.892172
0.829029
0.771594
0.719265
0.671509
0.627848
0.587854
0.551148
0.517387
0.486266
0.457515
0.430889
0.406175
0.383184
0.361753
0.341742
0.323032
0.305529
0.289154
0.273845
0.259555
0.246245
0.233881
0.222433
0.211869
0.202157
0.193259
0.185136
0.177744
0.171036
0.164966
0.159486
0.154549
0.15011
0.146124
0.142551
0.139352
0.136491
0.133936
0.131656
0.129623
0.127814
0.126204
0.124774
0.123505
0.122379
0.121383
0.120501
0.119722
0.119035
0.118429
0.117896
0.117427
0.117016
0.116654
0.116338
0.11606
0.115818
0.115605
0.11542
0.115258
0.115116
0.114992
0.114884
0.11479
0.114707
0.114634
0.11457
0.114514
0.114464
0.11442
0.114381
0.114347
0.114316
0.114288
0.114262
0.11424
0.114219
0.1142
0.114182
0.114166
0.114151
0.114137
0.114124
0.114111
0.114099
0.114088
0.114078
0.114068
0.114058
0.11405
0.114041
0.114034
0.114027
0.11402
0.114015
0.114011
0.114007
0.114005
0.961694
0.89217
0.829028
0.771594
0.719267
0.671514
0.627857
0.587868
0.551168
0.517414
0.486302
0.457558
0.430942
0.406239
0.383259
0.36184
0.341841
0.323144
0.305653
0.289289
0.273991
0.259711
0.246408
0.234049
0.222605
0.212042
0.20233
0.193429
0.185302
0.177904
0.17119
0.165112
0.159625
0.154679
0.150232
0.146238
0.142656
0.139449
0.136581
0.134018
0.131731
0.129692
0.127876
0.126261
0.124825
0.123551
0.122421
0.12142
0.120535
0.119752
0.119062
0.118453
0.117917
0.117446
0.117032
0.116669
0.11635
0.116071
0.115827
0.115614
0.115427
0.115264
0.115122
0.114997
0.114888
0.114793
0.11471
0.114637
0.114572
0.114516
0.114466
0.114422
0.114383
0.114348
0.114316
0.114288
0.114263
0.11424
0.114219
0.1142
0.114182
0.114166
0.114151
0.114137
0.114124
0.114111
0.1141
0.114089
0.114078
0.114068
0.114059
0.11405
0.114042
0.114034
0.114027
0.114021
0.114016
0.114011
0.114008
0.114006
0.961693
0.892169
0.829027
0.771593
0.719269
0.671518
0.627865
0.587881
0.551187
0.51744
0.486335
0.457601
0.430995
0.406302
0.383333
0.361926
0.341939
0.323255
0.305777
0.289425
0.274139
0.259868
0.246573
0.23422
0.222779
0.212219
0.202505
0.193603
0.185471
0.178067
0.171347
0.165262
0.159766
0.154813
0.150356
0.146354
0.142764
0.139549
0.136672
0.134102
0.131808
0.129762
0.12794
0.126319
0.124878
0.123599
0.122464
0.121459
0.120569
0.119783
0.11909
0.118478
0.117939
0.117465
0.117049
0.116684
0.116363
0.116083
0.115837
0.115622
0.115435
0.115271
0.115127
0.115002
0.114892
0.114796
0.114712
0.114639
0.114574
0.114517
0.114467
0.114423
0.114383
0.114348
0.114317
0.114289
0.114263
0.11424
0.114219
0.1142
0.114183
0.114166
0.114151
0.114137
0.114124
0.114112
0.1141
0.114089
0.114079
0.114069
0.114059
0.114051
0.114042
0.114035
0.114028
0.114022
0.114016
0.114012
0.114009
0.114007
0.961692
0.892168
0.829025
0.771593
0.71927
0.671522
0.627872
0.587893
0.551204
0.517464
0.486367
0.457642
0.431045
0.406363
0.383406
0.362011
0.342038
0.323367
0.305901
0.289562
0.274286
0.260025
0.246738
0.234392
0.222955
0.212396
0.202683
0.193778
0.185642
0.178233
0.171506
0.165414
0.15991
0.154948
0.150483
0.146472
0.142874
0.139651
0.136766
0.134188
0.131887
0.129835
0.128006
0.126379
0.124932
0.123648
0.122508
0.121498
0.120605
0.119815
0.119118
0.118503
0.117961
0.117485
0.117066
0.116699
0.116377
0.116094
0.115847
0.115631
0.115442
0.115277
0.115133
0.115006
0.114896
0.1148
0.114715
0.114641
0.114576
0.114519
0.114468
0.114424
0.114384
0.114349
0.114317
0.114289
0.114264
0.11424
0.114219
0.1142
0.114183
0.114166
0.114151
0.114137
0.114124
0.114112
0.1141
0.114089
0.114079
0.114069
0.11406
0.114051
0.114043
0.114035
0.114028
0.114022
0.114017
0.114012
0.114009
0.114007
0.961692
0.892166
0.829024
0.771591
0.71927
0.671525
0.627878
0.587904
0.55122
0.517486
0.486397
0.457681
0.431094
0.406422
0.383478
0.362095
0.342134
0.323476
0.306024
0.289697
0.274433
0.260182
0.246904
0.234564
0.223131
0.212575
0.202861
0.193954
0.185815
0.1784
0.171667
0.165567
0.160055
0.155085
0.150612
0.146592
0.142985
0.139754
0.136861
0.134276
0.131967
0.129908
0.128073
0.126439
0.124987
0.123697
0.122553
0.121539
0.120641
0.119847
0.119146
0.118528
0.117984
0.117505
0.117084
0.116714
0.11639
0.116106
0.115857
0.11564
0.11545
0.115283
0.115138
0.115011
0.1149
0.114803
0.114718
0.114643
0.114578
0.11452
0.114469
0.114424
0.114385
0.114349
0.114318
0.114289
0.114264
0.11424
0.114219
0.1142
0.114183
0.114166
0.114151
0.114137
0.114124
0.114112
0.1141
0.114089
0.114079
0.114069
0.11406
0.114051
0.114043
0.114036
0.114029
0.114023
0.114017
0.114013
0.11401
0.114008
0.961691
0.892165
0.829022
0.77159
0.71927
0.671527
0.627883
0.587913
0.551235
0.517508
0.486426
0.457718
0.431141
0.40648
0.383547
0.362177
0.342229
0.323584
0.306145
0.28983
0.274578
0.260338
0.247068
0.234735
0.223307
0.212752
0.203038
0.19413
0.185987
0.178568
0.171828
0.165721
0.160201
0.155223
0.150741
0.146713
0.143098
0.139858
0.136957
0.134364
0.132048
0.129982
0.12814
0.126501
0.125042
0.123747
0.122598
0.121579
0.120677
0.11988
0.119175
0.118554
0.118007
0.117525
0.117101
0.11673
0.116403
0.116118
0.115867
0.115648
0.115457
0.11529
0.115143
0.115015
0.114904
0.114806
0.11472
0.114645
0.114579
0.114521
0.11447
0.114425
0.114385
0.114349
0.114318
0.114289
0.114263
0.11424
0.114219
0.1142
0.114182
0.114166
0.114151
0.114137
0.114124
0.114111
0.1141
0.114089
0.114079
0.114069
0.11406
0.114051
0.114043
0.114036
0.114029
0.114023
0.114018
0.114013
0.11401
0.114008
0.961691
0.892164
0.82902
0.771589
0.71927
0.671528
0.627888
0.587922
0.551249
0.517527
0.486453
0.457753
0.431186
0.406536
0.383614
0.362256
0.342321
0.32369
0.306263
0.289962
0.274721
0.260491
0.24723
0.234904
0.22348
0.212928
0.203215
0.194304
0.186158
0.178734
0.171988
0.165874
0.160347
0.15536
0.15087
0.146833
0.14321
0.139962
0.137053
0.134452
0.132129
0.130056
0.128208
0.126562
0.125098
0.123797
0.122643
0.12162
0.120714
0.119912
0.119204
0.11858
0.118029
0.117545
0.117119
0.116745
0.116417
0.116129
0.115877
0.115657
0.115464
0.115296
0.115148
0.11502
0.114907
0.114809
0.114722
0.114647
0.114581
0.114522
0.114471
0.114425
0.114385
0.114349
0.114317
0.114289
0.114263
0.11424
0.114219
0.114199
0.114182
0.114165
0.11415
0.114136
0.114123
0.114111
0.1141
0.114089
0.114079
0.114069
0.11406
0.114051
0.114043
0.114036
0.114029
0.114023
0.114018
0.114014
0.11401
0.114008
0.96169
0.892162
0.829019
0.771587
0.719269
0.67153
0.627892
0.58793
0.551261
0.517546
0.486479
0.457787
0.431229
0.406589
0.383679
0.362333
0.342411
0.323792
0.306379
0.29009
0.274861
0.260641
0.247389
0.23507
0.223651
0.213102
0.203389
0.194477
0.186328
0.178899
0.172147
0.166027
0.160492
0.155497
0.150999
0.146954
0.143322
0.140065
0.137149
0.134541
0.13221
0.13013
0.128275
0.126623
0.125154
0.123848
0.122688
0.121661
0.12075
0.119945
0.119233
0.118605
0.118052
0.117565
0.117136
0.11676
0.11643
0.116141
0.115887
0.115665
0.115471
0.115302
0.115153
0.115024
0.11491
0.114811
0.114724
0.114648
0.114582
0.114523
0.114471
0.114426
0.114385
0.114349
0.114317
0.114288
0.114262
0.114239
0.114218
0.114199
0.114181
0.114165
0.11415
0.114136
0.114123
0.114111
0.114099
0.114088
0.114078
0.114069
0.11406
0.114051
0.114043
0.114036
0.114029
0.114023
0.114018
0.114014
0.114011
0.114009
0.96169
0.892161
0.829017
0.771586
0.719269
0.671531
0.627896
0.587937
0.551273
0.517564
0.486503
0.457819
0.43127
0.40664
0.383741
0.362407
0.342497
0.323892
0.306491
0.290215
0.274998
0.260789
0.247545
0.235233
0.223819
0.213272
0.20356
0.194648
0.186495
0.179062
0.172304
0.166177
0.160635
0.155633
0.151126
0.147073
0.143433
0.140169
0.137245
0.134629
0.132291
0.130204
0.128342
0.126685
0.125209
0.123898
0.122734
0.121701
0.120786
0.119977
0.119262
0.118631
0.118075
0.117585
0.117154
0.116775
0.116443
0.116152
0.115897
0.115673
0.115478
0.115307
0.115158
0.115028
0.114913
0.114814
0.114726
0.11465
0.114583
0.114524
0.114471
0.114426
0.114385
0.114349
0.114316
0.114288
0.114262
0.114238
0.114217
0.114198
0.11418
0.114164
0.114149
0.114135
0.114122
0.11411
0.114099
0.114088
0.114078
0.114068
0.114059
0.114051
0.114043
0.114036
0.114029
0.114023
0.114018
0.114014
0.114011
0.114009
0.961689
0.89216
0.829015
0.771584
0.719268
0.671532
0.627899
0.587944
0.551284
0.51758
0.486526
0.45785
0.43131
0.406689
0.383801
0.362479
0.342581
0.323988
0.3066
0.290336
0.275131
0.260932
0.247697
0.235392
0.223983
0.21344
0.203729
0.194815
0.186659
0.179222
0.172459
0.166326
0.160777
0.155767
0.151252
0.147191
0.143543
0.140271
0.137339
0.134716
0.132371
0.130277
0.128409
0.126745
0.125264
0.123948
0.122778
0.121741
0.120822
0.120009
0.119291
0.118656
0.118097
0.117604
0.117171
0.11679
0.116456
0.116163
0.115906
0.115681
0.115485
0.115313
0.115163
0.115031
0.114916
0.114816
0.114728
0.114651
0.114583
0.114524
0.114472
0.114425
0.114384
0.114348
0.114316
0.114287
0.114261
0.114237
0.114216
0.114197
0.114179
0.114163
0.114148
0.114134
0.114121
0.114109
0.114098
0.114087
0.114077
0.114068
0.114059
0.114051
0.114043
0.114036
0.114029
0.114023
0.114018
0.114014
0.114011
0.114009
0.961689
0.892158
0.829014
0.771583
0.719267
0.671533
0.627902
0.58795
0.551295
0.517596
0.486548
0.457879
0.431347
0.406736
0.383858
0.362547
0.342662
0.324081
0.306705
0.290453
0.275259
0.261071
0.247845
0.235547
0.224143
0.213603
0.203893
0.194978
0.18682
0.179379
0.172611
0.166471
0.160915
0.155898
0.151376
0.147307
0.143651
0.140371
0.137432
0.134801
0.13245
0.130349
0.128475
0.126805
0.125319
0.123997
0.122823
0.121781
0.120858
0.120041
0.119319
0.118681
0.118119
0.117624
0.117188
0.116805
0.116469
0.116174
0.115915
0.115689
0.115491
0.115318
0.115167
0.115035
0.114919
0.114818
0.114729
0.114652
0.114584
0.114524
0.114471
0.114425
0.114384
0.114347
0.114315
0.114286
0.11426
0.114236
0.114215
0.114196
0.114178
0.114162
0.114147
0.114133
0.11412
0.114108
0.114097
0.114086
0.114077
0.114067
0.114058
0.11405
0.114043
0.114035
0.114029
0.114023
0.114018
0.114014
0.114011
0.114009
0.961688
0.892157
0.829012
0.771582
0.719267
0.671533
0.627905
0.587956
0.551304
0.51761
0.486568
0.457907
0.431383
0.406781
0.383913
0.362613
0.342739
0.32417
0.306807
0.290567
0.275384
0.261205
0.247988
0.235697
0.224298
0.213761
0.204052
0.195137
0.186977
0.179532
0.172759
0.166614
0.161052
0.156027
0.151498
0.147421
0.143758
0.14047
0.137524
0.134886
0.132527
0.13042
0.12854
0.126864
0.125372
0.124045
0.122866
0.12182
0.120893
0.120072
0.119347
0.118706
0.118141
0.117643
0.117204
0.116819
0.116481
0.116184
0.115924
0.115697
0.115498
0.115323
0.115171
0.115038
0.114922
0.11482
0.114731
0.114653
0.114584
0.114524
0.114471
0.114424
0.114383
0.114346
0.114314
0.114285
0.114259
0.114235
0.114214
0.114194
0.114177
0.114161
0.114146
0.114132
0.114119
0.114107
0.114096
0.114086
0.114076
0.114067
0.114058
0.11405
0.114042
0.114035
0.114029
0.114023
0.114018
0.114014
0.114011
0.114009
0.961688
0.892156
0.829011
0.77158
0.719266
0.671534
0.627908
0.587961
0.551314
0.517624
0.486588
0.457933
0.431417
0.406824
0.383965
0.362676
0.342813
0.324256
0.306904
0.290676
0.275504
0.261335
0.248127
0.235842
0.224449
0.213915
0.204208
0.195292
0.18713
0.179682
0.172904
0.166753
0.161184
0.156153
0.151617
0.147533
0.143862
0.140567
0.137614
0.134969
0.132603
0.13049
0.128604
0.126922
0.125425
0.124093
0.122909
0.121859
0.120928
0.120103
0.119374
0.11873
0.118162
0.117661
0.117221
0.116833
0.116493
0.116195
0.115933
0.115704
0.115504
0.115328
0.115175
0.115041
0.114924
0.114822
0.114732
0.114653
0.114584
0.114524
0.114471
0.114424
0.114382
0.114345
0.114313
0.114283
0.114257
0.114234
0.114212
0.114193
0.114175
0.114159
0.114144
0.114131
0.114118
0.114106
0.114095
0.114085
0.114075
0.114066
0.114057
0.114049
0.114041
0.114034
0.114028
0.114022
0.114017
0.114013
0.11401
0.114008
0.961687
0.892155
0.829009
0.771579
0.719265
0.671534
0.62791
0.587966
0.551322
0.517637
0.486606
0.457958
0.431449
0.406864
0.384015
0.362736
0.342884
0.324338
0.306998
0.29078
0.275619
0.26146
0.24826
0.235982
0.224594
0.214064
0.204358
0.195442
0.187278
0.179827
0.173045
0.166889
0.161314
0.156276
0.151733
0.147642
0.143964
0.140662
0.137701
0.13505
0.132678
0.130558
0.128666
0.126979
0.125477
0.12414
0.122951
0.121897
0.120962
0.120133
0.119401
0.118754
0.118183
0.117679
0.117236
0.116847
0.116505
0.116205
0.115942
0.115711
0.11551
0.115333
0.115179
0.115044
0.114926
0.114823
0.114733
0.114654
0.114584
0.114524
0.11447
0.114423
0.114381
0.114344
0.114311
0.114282
0.114256
0.114232
0.114211
0.114191
0.114174
0.114158
0.114143
0.114129
0.114117
0.114105
0.114094
0.114083
0.114074
0.114065
0.114056
0.114048
0.114041
0.114034
0.114028
0.114022
0.114017
0.114013
0.11401
0.114008
0.961687
0.892154
0.829008
0.771577
0.719264
0.671535
0.627912
0.587971
0.55133
0.517649
0.486624
0.457981
0.431479
0.406903
0.384063
0.362793
0.342952
0.324417
0.307087
0.290881
0.27573
0.26158
0.248388
0.236117
0.224734
0.214207
0.204503
0.195587
0.187422
0.179967
0.173181
0.16702
0.161439
0.156395
0.151845
0.147748
0.144063
0.140754
0.137787
0.135129
0.132751
0.130625
0.128727
0.127035
0.125527
0.124185
0.122993
0.121934
0.120994
0.120163
0.119427
0.118777
0.118203
0.117697
0.117252
0.11686
0.116516
0.116214
0.11595
0.115718
0.115515
0.115338
0.115182
0.115047
0.114928
0.114824
0.114734
0.114654
0.114584
0.114523
0.114469
0.114422
0.11438
0.114343
0.11431
0.11428
0.114254
0.11423
0.114209
0.11419
0.114172
0.114156
0.114141
0.114128
0.114115
0.114103
0.114092
0.114082
0.114073
0.114064
0.114055
0.114047
0.11404
0.114033
0.114027
0.114021
0.114017
0.114013
0.11401
0.114008
0.961686
0.892153
0.829007
0.771576
0.719263
0.671535
0.627914
0.587975
0.551338
0.517661
0.48664
0.458003
0.431508
0.40694
0.384108
0.362848
0.343016
0.324492
0.307173
0.290977
0.275835
0.261695
0.248511
0.236247
0.224869
0.214345
0.204643
0.195727
0.18756
0.180103
0.173313
0.167147
0.161561
0.156511
0.151954
0.14785
0.144159
0.140844
0.13787
0.135206
0.132821
0.13069
0.128787
0.127089
0.125576
0.12423
0.123033
0.121969
0.121027
0.120191
0.119452
0.118799
0.118223
0.117714
0.117267
0.116873
0.116527
0.116224
0.115958
0.115725
0.11552
0.115342
0.115186
0.115049
0.11493
0.114825
0.114734
0.114654
0.114584
0.114523
0.114468
0.114421
0.114379
0.114341
0.114308
0.114279
0.114252
0.114229
0.114207
0.114188
0.11417
0.114154
0.11414
0.114126
0.114114
0.114102
0.114091
0.114081
0.114071
0.114063
0.114054
0.114046
0.114039
0.114032
0.114026
0.114021
0.114016
0.114012
0.114009
0.114007
0.961686
0.892152
0.829005
0.771575
0.719263
0.671535
0.627916
0.587979
0.551345
0.517672
0.486656
0.458024
0.431536
0.406974
0.384151
0.3629
0.343078
0.324563
0.307255
0.291068
0.275937
0.261805
0.248629
0.236371
0.224998
0.214478
0.204777
0.195861
0.187693
0.180233
0.17344
0.167269
0.161678
0.156623
0.15206
0.14795
0.144252
0.14093
0.13795
0.13528
0.13289
0.130753
0.128844
0.127141
0.125624
0.124273
0.123071
0.122004
0.121058
0.120219
0.119477
0.118821
0.118242
0.117731
0.117281
0.116886
0.116538
0.116233
0.115965
0.115731
0.115526
0.115346
0.115189
0.115052
0.114931
0.114826
0.114735
0.114654
0.114584
0.114522
0.114467
0.11442
0.114377
0.11434
0.114307
0.114277
0.114251
0.114227
0.114205
0.114186
0.114169
0.114153
0.114138
0.114124
0.114112
0.1141
0.11409
0.11408
0.11407
0.114061
0.114053
0.114045
0.114038
0.114032
0.114025
0.11402
0.114015
0.114011
0.114008
0.114007
0.961686
0.892151
0.829004
0.771574
0.719262
0.671535
0.627917
0.587983
0.551351
0.517682
0.48667
0.458044
0.431562
0.407007
0.384192
0.362949
0.343136
0.324631
0.307332
0.291155
0.276033
0.26191
0.248741
0.23649
0.225122
0.214604
0.204905
0.19599
0.187821
0.180359
0.173562
0.167387
0.161791
0.15673
0.152162
0.148045
0.144342
0.141014
0.138028
0.135352
0.132956
0.130814
0.1289
0.127192
0.12567
0.124314
0.123109
0.122038
0.121088
0.120246
0.119501
0.118842
0.11826
0.117747
0.117295
0.116898
0.116548
0.116241
0.115972
0.115737
0.11553
0.11535
0.115192
0.115054
0.114933
0.114827
0.114735
0.114654
0.114583
0.114521
0.114466
0.114418
0.114376
0.114338
0.114305
0.114275
0.114249
0.114225
0.114204
0.114184
0.114167
0.114151
0.114136
0.114123
0.11411
0.114099
0.114088
0.114078
0.114069
0.11406
0.114052
0.114044
0.114037
0.114031
0.114025
0.114019
0.114015
0.114011
0.114008
0.114006
0.961685
0.89215
0.829003
0.771573
0.719261
0.671535
0.627919
0.587987
0.551357
0.517691
0.486684
0.458063
0.431586
0.407038
0.38423
0.362995
0.343191
0.324695
0.307406
0.291238
0.276125
0.26201
0.248848
0.236603
0.22524
0.214726
0.205028
0.196113
0.187943
0.180479
0.173679
0.1675
0.1619
0.156833
0.15226
0.148138
0.144428
0.141095
0.138103
0.135421
0.13302
0.130872
0.128953
0.127241
0.125714
0.124355
0.123145
0.122071
0.121117
0.120272
0.119524
0.118862
0.118278
0.117763
0.117309
0.116909
0.116558
0.11625
0.115979
0.115742
0.115535
0.115353
0.115195
0.115056
0.114934
0.114828
0.114735
0.114654
0.114583
0.11452
0.114465
0.114417
0.114374
0.114337
0.114303
0.114273
0.114247
0.114223
0.114202
0.114182
0.114165
0.114149
0.114134
0.114121
0.114109
0.114097
0.114087
0.114077
0.114067
0.114059
0.114051
0.114043
0.114036
0.11403
0.114024
0.114018
0.114014
0.11401
0.114007
0.114005
0.961685
0.89215
0.829002
0.771572
0.719261
0.671536
0.62792
0.58799
0.551363
0.5177
0.486697
0.45808
0.431609
0.407068
0.384266
0.363039
0.343243
0.324756
0.307475
0.291317
0.276212
0.262104
0.24895
0.236711
0.225352
0.214841
0.205146
0.196231
0.18806
0.180594
0.173791
0.167608
0.162003
0.156932
0.152354
0.148226
0.144511
0.141172
0.138175
0.135488
0.133081
0.130929
0.129005
0.127288
0.125757
0.124393
0.12318
0.122102
0.121145
0.120297
0.119546
0.118882
0.118295
0.117777
0.117321
0.11692
0.116567
0.116258
0.115986
0.115748
0.115539
0.115357
0.115197
0.115057
0.114935
0.114829
0.114735
0.114654
0.114582
0.114519
0.114464
0.114415
0.114373
0.114335
0.114301
0.114271
0.114245
0.114221
0.1142
0.11418
0.114163
0.114147
0.114132
0.114119
0.114107
0.114095
0.114085
0.114075
0.114066
0.114057
0.114049
0.114042
0.114035
0.114029
0.114023
0.114018
0.114013
0.114009
0.114006
0.114005
0.961685
0.892149
0.829001
0.771571
0.71926
0.671536
0.627922
0.587993
0.551369
0.517709
0.486709
0.458097
0.431631
0.407095
0.384301
0.363081
0.343293
0.324814
0.307541
0.291391
0.276294
0.262194
0.249047
0.236813
0.225458
0.21495
0.205257
0.196343
0.188171
0.180703
0.173898
0.167712
0.162102
0.157027
0.152443
0.148311
0.14459
0.141246
0.138244
0.135552
0.13314
0.130983
0.129055
0.127333
0.125798
0.12443
0.123214
0.122132
0.121172
0.120321
0.119567
0.1189
0.118311
0.117792
0.117334
0.116931
0.116576
0.116265
0.115992
0.115753
0.115543
0.11536
0.115199
0.115059
0.114936
0.114829
0.114735
0.114653
0.114581
0.114518
0.114463
0.114414
0.114371
0.114333
0.114299
0.114269
0.114243
0.114219
0.114198
0.114178
0.114161
0.114145
0.114131
0.114117
0.114105
0.114094
0.114083
0.114074
0.114065
0.114056
0.114048
0.114041
0.114034
0.114028
0.114022
0.114017
0.114012
0.114008
0.114006
0.114004
0.961685
0.892148
0.829
0.77157
0.719259
0.671536
0.627923
0.587996
0.551374
0.517717
0.48672
0.458113
0.431651
0.407121
0.384333
0.36312
0.343339
0.324868
0.307603
0.291461
0.276371
0.262279
0.249138
0.236909
0.225559
0.215054
0.205362
0.196449
0.188277
0.180807
0.173999
0.16781
0.162197
0.157117
0.152529
0.148391
0.144666
0.141317
0.13831
0.135613
0.133196
0.131034
0.129102
0.127376
0.125837
0.124466
0.123246
0.122161
0.121198
0.120344
0.119587
0.118918
0.118327
0.117805
0.117346
0.116941
0.116585
0.116272
0.115998
0.115758
0.115547
0.115363
0.115202
0.115061
0.114937
0.11483
0.114735
0.114653
0.11458
0.114517
0.114461
0.114412
0.114369
0.114331
0.114298
0.114268
0.114241
0.114217
0.114196
0.114176
0.114159
0.114143
0.114129
0.114115
0.114103
0.114092
0.114082
0.114072
0.114063
0.114055
0.114047
0.11404
0.114033
0.114027
0.114021
0.114016
0.114011
0.114008
0.114005
0.114003
0.961684
0.892147
0.828999
0.771569
0.719259
0.671536
0.627924
0.587999
0.551379
0.517724
0.486731
0.458127
0.43167
0.407146
0.384363
0.363157
0.343383
0.324919
0.307662
0.291527
0.276445
0.262359
0.249224
0.237
0.225654
0.215152
0.205462
0.196549
0.188377
0.180906
0.174095
0.167903
0.162286
0.157202
0.15261
0.148468
0.144738
0.141384
0.138372
0.135671
0.13325
0.131084
0.129147
0.127417
0.125875
0.1245
0.123276
0.122188
0.121222
0.120366
0.119607
0.118935
0.118342
0.117818
0.117357
0.11695
0.116593
0.116279
0.116004
0.115762
0.115551
0.115366
0.115204
0.115062
0.114938
0.11483
0.114735
0.114652
0.11458
0.114516
0.11446
0.114411
0.114368
0.114329
0.114296
0.114266
0.114239
0.114215
0.114194
0.114174
0.114157
0.114141
0.114127
0.114114
0.114102
0.11409
0.11408
0.114071
0.114062
0.114053
0.114046
0.114038
0.114032
0.114025
0.11402
0.114015
0.11401
0.114007
0.114004
0.114002
0.961684