/*--------------------------------*- C++ -*----------------------------------*\
  =========                 |
  \\      /  F ield         | OpenFOAM: The Open Source CFD Toolbox
   \\    /   O peration     | Website:  https://openfoam.org
    \\  /    A nd           | Version:  11
     \\/     M anipulation  |
\*---------------------------------------------------------------------------*/
FoamFile
{
    format      ascii;
    class       surfaceScalarField;
    location    "1496";
    object      phi;
}
// * * * * * * * * * * * * * * * * * * * * * * * * * * * * * * * * * * * * * //

dimensions      [0 3 -1 0 0 0 0];

internalField   nonuniform List<scalar> 
19800
(
2e-05
-8.82797e-15
2e-05
-2.56533e-14
2e-05
-4.2228e-14
2e-05
-5.90089e-14
2e-05
-7.62704e-14
2e-05
-9.41898e-14
2e-05
-1.12908e-13
2e-05
-1.32546e-13
2e-05
-1.53209e-13
2e-05
-1.74998e-13
2e-05
-1.98005e-13
2e-05
-2.22323e-13
2e-05
-2.48042e-13
2e-05
-2.7525e-13
2e-05
-3.04039e-13
2e-05
-3.34497e-13
2e-05
-3.66718e-13
2e-05
-4.00792e-13
2e-05
-4.36816e-13
2e-05
-4.74885e-13
2e-05
-5.15097e-13
2e-05
-5.57552e-13
2e-05
-6.02351e-13
2e-05
-6.49599e-13
2e-05
-6.994e-13
2e-05
-7.51863e-13
2e-05
-8.07098e-13
2e-05
-8.65215e-13
2e-05
-9.26328e-13
2e-05
-9.90552e-13
2e-05
-1.058e-12
2e-05
-1.1288e-12
2e-05
-1.20306e-12
2e-05
-1.2809e-12
2e-05
-1.36244e-12
2e-05
-1.44782e-12
2e-05
-1.53714e-12
2e-05
-1.63053e-12
2e-05
-1.72811e-12
2e-05
-1.83e-12
2e-05
-1.93632e-12
2e-05
-2.0472e-12
2e-05
-2.16275e-12
2e-05
-2.28307e-12
2e-05
-2.4083e-12
2e-05
-2.53853e-12
2e-05
-2.67387e-12
2e-05
-2.81443e-12
2e-05
-2.96029e-12
2e-05
-3.11156e-12
2e-05
-3.26831e-12
2e-05
-3.43062e-12
2e-05
-3.59857e-12
2e-05
-3.77222e-12
2e-05
-3.95161e-12
2e-05
-4.1368e-12
2e-05
-4.3278e-12
2e-05
-4.52464e-12
2e-05
-4.72733e-12
2e-05
-4.93584e-12
2e-05
-5.15016e-12
2e-05
-5.37023e-12
2e-05
-5.596e-12
2e-05
-5.82737e-12
2e-05
-6.06424e-12
2e-05
-6.30647e-12
2e-05
-6.5539e-12
2e-05
-6.80634e-12
2e-05
-7.06357e-12
2e-05
-7.32534e-12
2e-05
-7.59133e-12
2e-05
-7.86123e-12
2e-05
-8.13465e-12
2e-05
-8.41116e-12
2e-05
-8.69027e-12
2e-05
-8.97146e-12
2e-05
-9.25411e-12
2e-05
-9.53756e-12
2e-05
-9.82107e-12
2e-05
-1.01038e-11
2e-05
-1.03848e-11
2e-05
-1.06632e-11
2e-05
-1.09377e-11
2e-05
-1.12072e-11
2e-05
-1.14702e-11
2e-05
-1.17254e-11
2e-05
-1.19711e-11
2e-05
-1.22055e-11
2e-05
-1.24267e-11
2e-05
-1.26327e-11
2e-05
-1.28214e-11
2e-05
-1.29906e-11
2e-05
-1.31376e-11
2e-05
-1.32593e-11
2e-05
-1.33515e-11
2e-05
-1.34131e-11
2e-05
-1.34465e-11
2e-05
-1.34548e-11
2e-05
-1.34427e-11
-1.34323e-11
2e-05
-7.86593e-15
2e-05
-2.36333e-14
2e-05
-3.95283e-14
2e-05
-5.57278e-14
2e-05
-7.2422e-14
2e-05
-8.97622e-14
2e-05
-1.07877e-13
2e-05
-1.26877e-13
2e-05
-1.46866e-13
2e-05
-1.67939e-13
2e-05
-1.90185e-13
2e-05
-2.13693e-13
2e-05
-2.38549e-13
2e-05
-2.6484e-13
2e-05
-2.92653e-13
2e-05
-3.22074e-13
2e-05
-3.53192e-13
2e-05
-3.86096e-13
2e-05
-4.20877e-13
2e-05
-4.57627e-13
2e-05
-4.96441e-13
2e-05
-5.37414e-13
2e-05
-5.80645e-13
2e-05
-6.26233e-13
2e-05
-6.7428e-13
2e-05
-7.24888e-13
2e-05
-7.78164e-13
2e-05
-8.34215e-13
2e-05
-8.93147e-13
2e-05
-9.55073e-13
2e-05
-1.0201e-12
2e-05
-1.08835e-12
2e-05
-1.15993e-12
2e-05
-1.23496e-12
2e-05
-1.31354e-12
2e-05
-1.39581e-12
2e-05
-1.48187e-12
2e-05
-1.57184e-12
2e-05
-1.66584e-12
2e-05
-1.76399e-12
2e-05
-1.86639e-12
2e-05
-1.97317e-12
2e-05
-2.08443e-12
2e-05
-2.20028e-12
2e-05
-2.32084e-12
2e-05
-2.44621e-12
2e-05
-2.57648e-12
2e-05
-2.71176e-12
2e-05
-2.85214e-12
2e-05
-2.9977e-12
2e-05
-3.14853e-12
2e-05
-3.30471e-12
2e-05
-3.46629e-12
2e-05
-3.63334e-12
2e-05
-3.80591e-12
2e-05
-3.98405e-12
2e-05
-4.16778e-12
2e-05
-4.35712e-12
2e-05
-4.55207e-12
2e-05
-4.75263e-12
2e-05
-4.95878e-12
2e-05
-5.17048e-12
2e-05
-5.38767e-12
2e-05
-5.61026e-12
2e-05
-5.83817e-12
2e-05
-6.07128e-12
2e-05
-6.30944e-12
2e-05
-6.55247e-12
2e-05
-6.80019e-12
2e-05
-7.05235e-12
2e-05
-7.3087e-12
2e-05
-7.56892e-12
2e-05
-7.83269e-12
2e-05
-8.09962e-12
2e-05
-8.36927e-12
2e-05
-8.64117e-12
2e-05
-8.91478e-12
2e-05
-9.18951e-12
2e-05
-9.46469e-12
2e-05
-9.73959e-12
2e-05
-1.00134e-11
2e-05
-1.02853e-11
2e-05
-1.05541e-11
2e-05
-1.0819e-11
2e-05
-1.10786e-11
2e-05
-1.13317e-11
2e-05
-1.15769e-11
2e-05
-1.18126e-11
2e-05
-1.20372e-11
2e-05
-1.22489e-11
2e-05
-1.24458e-11
2e-05
-1.26257e-11
2e-05
-1.27861e-11
2e-05
-1.29241e-11
2e-05
-1.30381e-11
2e-05
-1.31276e-11
2e-05
-1.31939e-11
2e-05
-1.32391e-11
2e-05
-1.32674e-11
-1.32944e-11
2e-05
-7.14268e-15
2e-05
-2.18432e-14
2e-05
-3.69594e-14
2e-05
-5.25152e-14
2e-05
-6.86109e-14
2e-05
-8.53576e-14
2e-05
-1.02863e-13
2e-05
-1.21226e-13
2e-05
-1.40543e-13
2e-05
-1.60903e-13
2e-05
-1.82392e-13
2e-05
-2.05095e-13
2e-05
-2.29095e-13
2e-05
-2.54476e-13
2e-05
-2.81319e-13
2e-05
-3.0971e-13
2e-05
-3.39732e-13
2e-05
-3.71473e-13
2e-05
-4.05018e-13
2e-05
-4.40458e-13
2e-05
-4.77882e-13
2e-05
-5.17384e-13
2e-05
-5.59055e-13
2e-05
-6.02994e-13
2e-05
-6.49296e-13
2e-05
-6.98061e-13
2e-05
-7.4939e-13
2e-05
-8.03386e-13
2e-05
-8.60152e-13
2e-05
-9.19794e-13
2e-05
-9.82419e-13
2e-05
-1.04813e-12
2e-05
-1.11705e-12
2e-05
-1.18927e-12
2e-05
-1.26492e-12
2e-05
-1.3441e-12
2e-05
-1.42692e-12
2e-05
-1.5135e-12
2e-05
-1.60394e-12
2e-05
-1.69836e-12
2e-05
-1.79686e-12
2e-05
-1.89956e-12
2e-05
-2.00657e-12
2e-05
-2.11798e-12
2e-05
-2.2339e-12
2e-05
-2.35443e-12
2e-05
-2.47966e-12
2e-05
-2.6097e-12
2e-05
-2.74462e-12
2e-05
-2.88452e-12
2e-05
-3.02947e-12
2e-05
-3.17953e-12
2e-05
-3.33479e-12
2e-05
-3.49529e-12
2e-05
-3.66108e-12
2e-05
-3.83221e-12
2e-05
-4.00871e-12
2e-05
-4.19059e-12
2e-05
-4.37786e-12
2e-05
-4.57053e-12
2e-05
-4.76856e-12
2e-05
-4.97193e-12
2e-05
-5.18059e-12
2e-05
-5.39446e-12
2e-05
-5.61347e-12
2e-05
-5.83751e-12
2e-05
-6.06645e-12
2e-05
-6.30013e-12
2e-05
-6.53839e-12
2e-05
-6.781e-12
2e-05
-7.02775e-12
2e-05
-7.27836e-12
2e-05
-7.53253e-12
2e-05
-7.78992e-12
2e-05
-8.05016e-12
2e-05
-8.31281e-12
2e-05
-8.57741e-12
2e-05
-8.84343e-12
2e-05
-9.11031e-12
2e-05
-9.37739e-12
2e-05
-9.64397e-12
2e-05
-9.90928e-12
2e-05
-1.01725e-11
2e-05
-1.04326e-11
2e-05
-1.06887e-11
2e-05
-1.09395e-11
2e-05
-1.1184e-11
2e-05
-1.14207e-11
2e-05
-1.16482e-11
2e-05
-1.18649e-11
2e-05
-1.20692e-11
2e-05
-1.22591e-11
2e-05
-1.24325e-11
2e-05
-1.25872e-11
2e-05
-1.27221e-11
2e-05
-1.28366e-11
2e-05
-1.2931e-11
2e-05
-1.30054e-11
2e-05
-1.30608e-11
-1.31038e-11
2e-05
-6.55562e-15
2e-05
-2.02692e-14
2e-05
-3.45709e-14
2e-05
-4.94311e-14
2e-05
-6.48896e-14
2e-05
-8.10183e-14
2e-05
-9.79e-14
2e-05
-1.1562e-13
2e-05
-1.34263e-13
2e-05
-1.53912e-13
2e-05
-1.74648e-13
2e-05
-1.96551e-13
2e-05
-2.197e-13
2e-05
-2.44176e-13
2e-05
-2.70058e-13
2e-05
-2.97427e-13
2e-05
-3.26363e-13
2e-05
-3.5695e-13
2e-05
-3.8927e-13
2e-05
-4.23411e-13
2e-05
-4.59457e-13
2e-05
-4.97499e-13
2e-05
-5.37625e-13
2e-05
-5.79927e-13
2e-05
-6.245e-13
2e-05
-6.71437e-13
2e-05
-7.20835e-13
2e-05
-7.72794e-13
2e-05
-8.27411e-13
2e-05
-8.84788e-13
2e-05
-9.45027e-13
2e-05
-1.00823e-12
2e-05
-1.07451e-12
2e-05
-1.14395e-12
2e-05
-1.21668e-12
2e-05
-1.2928e-12
2e-05
-1.37241e-12
2e-05
-1.45562e-12
2e-05
-1.54253e-12
2e-05
-1.63326e-12
2e-05
-1.7279e-12
2e-05
-1.82656e-12
2e-05
-1.92934e-12
2e-05
-2.03634e-12
2e-05
-2.14766e-12
2e-05
-2.2634e-12
2e-05
-2.38364e-12
2e-05
-2.50848e-12
2e-05
-2.638e-12
2e-05
-2.77228e-12
2e-05
-2.91139e-12
2e-05
-3.05541e-12
2e-05
-3.2044e-12
2e-05
-3.3584e-12
2e-05
-3.51748e-12
2e-05
-3.68167e-12
2e-05
-3.85099e-12
2e-05
-4.02548e-12
2e-05
-4.20515e-12
2e-05
-4.38998e-12
2e-05
-4.57997e-12
2e-05
-4.77509e-12
2e-05
-4.97529e-12
2e-05
-5.18053e-12
2e-05
-5.39072e-12
2e-05
-5.60577e-12
2e-05
-5.82556e-12
2e-05
-6.04998e-12
2e-05
-6.27885e-12
2e-05
-6.51201e-12
2e-05
-6.74924e-12
2e-05
-6.9903e-12
2e-05
-7.23495e-12
2e-05
-7.48288e-12
2e-05
-7.73376e-12
2e-05
-7.98722e-12
2e-05
-8.24286e-12
2e-05
-8.50022e-12
2e-05
-8.75881e-12
2e-05
-9.01807e-12
2e-05
-9.27741e-12
2e-05
-9.53615e-12
2e-05
-9.79358e-12
2e-05
-1.00489e-11
2e-05
-1.03012e-11
2e-05
-1.05496e-11
2e-05
-1.0793e-11
2e-05
-1.10302e-11
2e-05
-1.12601e-11
2e-05
-1.14813e-11
2e-05
-1.16923e-11
2e-05
-1.18914e-11
2e-05
-1.20768e-11
2e-05
-1.22469e-11
2e-05
-1.24004e-11
2e-05
-1.25363e-11
2e-05
-1.26537e-11
2e-05
-1.27508e-11
2e-05
-1.2825e-11
-1.28707e-11
2e-05
-6.06007e-15
2e-05
-1.88675e-14
2e-05
-3.23627e-14
2e-05
-4.65029e-14
2e-05
-6.12954e-14
2e-05
-7.67818e-14
2e-05
-9.30232e-14
2e-05
-1.10089e-13
2e-05
-1.28053e-13
2e-05
-1.46989e-13
2e-05
-1.66974e-13
2e-05
-1.88081e-13
2e-05
-2.10386e-13
2e-05
-2.33965e-13
2e-05
-2.58894e-13
2e-05
-2.8525e-13
2e-05
-3.1311e-13
2e-05
-3.42555e-13
2e-05
-3.73663e-13
2e-05
-4.06517e-13
2e-05
-4.412e-13
2e-05
-4.77797e-13
2e-05
-5.16393e-13
2e-05
-5.57077e-13
2e-05
-5.99938e-13
2e-05
-6.45066e-13
2e-05
-6.92554e-13
2e-05
-7.42496e-13
2e-05
-7.94988e-13
2e-05
-8.50124e-13
2e-05
-9.08003e-13
2e-05
-9.68723e-13
2e-05
-1.03238e-12
2e-05
-1.09909e-12
2e-05
-1.16893e-12
2e-05
-1.24202e-12
2e-05
-1.31845e-12
2e-05
-1.39833e-12
2e-05
-1.48175e-12
2e-05
-1.56882e-12
2e-05
-1.65964e-12
2e-05
-1.75431e-12
2e-05
-1.85291e-12
2e-05
-1.95556e-12
2e-05
-2.06233e-12
2e-05
-2.17333e-12
2e-05
-2.28863e-12
2e-05
-2.40833e-12
2e-05
-2.53251e-12
2e-05
-2.66123e-12
2e-05
-2.79458e-12
2e-05
-2.93262e-12
2e-05
-3.0754e-12
2e-05
-3.22299e-12
2e-05
-3.37542e-12
2e-05
-3.53275e-12
2e-05
-3.69499e-12
2e-05
-3.86218e-12
2e-05
-4.03432e-12
2e-05
-4.21141e-12
2e-05
-4.39345e-12
2e-05
-4.58041e-12
2e-05
-4.77226e-12
2e-05
-4.96896e-12
2e-05
-5.17042e-12
2e-05
-5.37659e-12
2e-05
-5.58735e-12
2e-05
-5.8026e-12
2e-05
-6.0222e-12
2e-05
-6.246e-12
2e-05
-6.47381e-12
2e-05
-6.70544e-12
2e-05
-6.94066e-12
2e-05
-7.17922e-12
2e-05
-7.42083e-12
2e-05
-7.66518e-12
2e-05
-7.91192e-12
2e-05
-8.16067e-12
2e-05
-8.41101e-12
2e-05
-8.66247e-12
2e-05
-8.91454e-12
2e-05
-9.16667e-12
2e-05
-9.41824e-12
2e-05
-9.66859e-12
2e-05
-9.91698e-12
2e-05
-1.01626e-11
2e-05
-1.04046e-11
2e-05
-1.0642e-11
2e-05
-1.08737e-11
2e-05
-1.10986e-11
2e-05
-1.13153e-11
2e-05
-1.15225e-11
2e-05
-1.17186e-11
2e-05
-1.1902e-11
2e-05
-1.20714e-11
2e-05
-1.2225e-11
2e-05
-1.23609e-11
2e-05
-1.24752e-11
2e-05
-1.25624e-11
-1.26077e-11
2e-05
-5.62946e-15
2e-05
-1.76039e-14
2e-05
-3.03195e-14
2e-05
-4.37369e-14
2e-05
-5.7848e-14
2e-05
-7.26751e-14
2e-05
-8.82614e-14
2e-05
-1.04663e-13
2e-05
-1.21941e-13
2e-05
-1.40162e-13
2e-05
-1.59396e-13
2e-05
-1.7971e-13
2e-05
-2.01177e-13
2e-05
-2.23866e-13
2e-05
-2.47851e-13
2e-05
-2.73205e-13
2e-05
-3.00001e-13
2e-05
-3.28316e-13
2e-05
-3.58226e-13
2e-05
-3.89809e-13
2e-05
-4.23145e-13
2e-05
-4.58314e-13
2e-05
-4.954e-13
2e-05
-5.34485e-13
2e-05
-5.75655e-13
2e-05
-6.18997e-13
2e-05
-6.64599e-13
2e-05
-7.12551e-13
2e-05
-7.62943e-13
2e-05
-8.15867e-13
2e-05
-8.71416e-13
2e-05
-9.29684e-13
2e-05
-9.90766e-13
2e-05
-1.05476e-12
2e-05
-1.12175e-12
2e-05
-1.19185e-12
2e-05
-1.26515e-12
2e-05
-1.34174e-12
2e-05
-1.42172e-12
2e-05
-1.50518e-12
2e-05
-1.59223e-12
2e-05
-1.68295e-12
2e-05
-1.77744e-12
2e-05
-1.87578e-12
2e-05
-1.97807e-12
2e-05
-2.08439e-12
2e-05
-2.19483e-12
2e-05
-2.30946e-12
2e-05
-2.42836e-12
2e-05
-2.55161e-12
2e-05
-2.67927e-12
2e-05
-2.8114e-12
2e-05
-2.94807e-12
2e-05
-3.08933e-12
2e-05
-3.23521e-12
2e-05
-3.38577e-12
2e-05
-3.54103e-12
2e-05
-3.70101e-12
2e-05
-3.86573e-12
2e-05
-4.0352e-12
2e-05
-4.2094e-12
2e-05
-4.38832e-12
2e-05
-4.57194e-12
2e-05
-4.76021e-12
2e-05
-4.95308e-12
2e-05
-5.15048e-12
2e-05
-5.35234e-12
2e-05
-5.55855e-12
2e-05
-5.769e-12
2e-05
-5.98356e-12
2e-05
-6.20208e-12
2e-05
-6.42439e-12
2e-05
-6.6503e-12
2e-05
-6.8796e-12
2e-05
-7.11204e-12
2e-05
-7.34737e-12
2e-05
-7.58529e-12
2e-05
-7.82549e-12
2e-05
-8.06762e-12
2e-05
-8.31129e-12
2e-05
-8.55609e-12
2e-05
-8.80155e-12
2e-05
-9.04717e-12
2e-05
-9.2924e-12
2e-05
-9.53664e-12
2e-05
-9.77921e-12
2e-05
-1.00194e-11
2e-05
-1.02564e-11
2e-05
-1.04893e-11
2e-05
-1.0717e-11
2e-05
-1.09386e-11
2e-05
-1.11526e-11
2e-05
-1.13576e-11
2e-05
-1.15522e-11
2e-05
-1.17345e-11
2e-05
-1.19024e-11
2e-05
-1.20526e-11
2e-05
-1.218e-11
2e-05
-1.22761e-11
-1.2325e-11
2e-05
-5.24581e-15
2e-05
-1.64524e-14
2e-05
-2.8423e-14
2e-05
-4.11285e-14
2e-05
-5.45554e-14
2e-05
-6.87144e-14
2e-05
-8.3636e-14
2e-05
-9.93643e-14
2e-05
-1.15952e-13
2e-05
-1.33456e-13
2e-05
-1.51939e-13
2e-05
-1.71464e-13
2e-05
-1.92097e-13
2e-05
-2.13904e-13
2e-05
-2.36955e-13
2e-05
-2.61317e-13
2e-05
-2.87062e-13
2e-05
-3.14262e-13
2e-05
-3.42989e-13
2e-05
-3.73318e-13
2e-05
-4.05325e-13
2e-05
-4.39086e-13
2e-05
-4.74682e-13
2e-05
-5.12191e-13
2e-05
-5.51695e-13
2e-05
-5.93276e-13
2e-05
-6.37019e-13
2e-05
-6.83009e-13
2e-05
-7.31333e-13
2e-05
-7.82077e-13
2e-05
-8.3533e-13
2e-05
-8.91182e-13
2e-05
-9.49723e-13
2e-05
-1.01104e-12
2e-05
-1.07523e-12
2e-05
-1.14239e-12
2e-05
-1.21259e-12
2e-05
-1.28595e-12
2e-05
-1.36254e-12
2e-05
-1.44245e-12
2e-05
-1.52578e-12
2e-05
-1.61262e-12
2e-05
-1.70305e-12
2e-05
-1.79716e-12
2e-05
-1.89504e-12
2e-05
-1.99675e-12
2e-05
-2.1024e-12
2e-05
-2.21204e-12
2e-05
-2.32575e-12
2e-05
-2.44361e-12
2e-05
-2.56567e-12
2e-05
-2.692e-12
2e-05
-2.82265e-12
2e-05
-2.95768e-12
2e-05
-3.09713e-12
2e-05
-3.24103e-12
2e-05
-3.38941e-12
2e-05
-3.54231e-12
2e-05
-3.69973e-12
2e-05
-3.86169e-12
2e-05
-4.02818e-12
2e-05
-4.19919e-12
2e-05
-4.37471e-12
2e-05
-4.55469e-12
2e-05
-4.73911e-12
2e-05
-4.92789e-12
2e-05
-5.12098e-12
2e-05
-5.3183e-12
2e-05
-5.51974e-12
2e-05
-5.72521e-12
2e-05
-5.93458e-12
2e-05
-6.14771e-12
2e-05
-6.36444e-12
2e-05
-6.5846e-12
2e-05
-6.80799e-12
2e-05
-7.0344e-12
2e-05
-7.26359e-12
2e-05
-7.49532e-12
2e-05
-7.72928e-12
2e-05
-7.96518e-12
2e-05
-8.20269e-12
2e-05
-8.44142e-12
2e-05
-8.68098e-12
2e-05
-8.92092e-12
2e-05
-9.16076e-12
2e-05
-9.39996e-12
2e-05
-9.63791e-12
2e-05
-9.87393e-12
2e-05
-1.01073e-11
2e-05
-1.0337e-11
2e-05
-1.05622e-11
2e-05
-1.07817e-11
2e-05
-1.0994e-11
2e-05
-1.11974e-11
2e-05
-1.139e-11
2e-05
-1.15689e-11
2e-05
-1.17301e-11
2e-05
-1.18672e-11
2e-05
-1.19706e-11
-1.20271e-11
2e-05
-4.89763e-15
2e-05
-1.53927e-14
2e-05
-2.66555e-14
2e-05
-3.86683e-14
2e-05
-5.14176e-14
2e-05
-6.49077e-14
2e-05
-7.91609e-14
2e-05
-9.42123e-14
2e-05
-1.10106e-13
2e-05
-1.26892e-13
2e-05
-1.44626e-13
2e-05
-1.63365e-13
2e-05
-1.8317e-13
2e-05
-2.04104e-13
2e-05
-2.26229e-13
2e-05
-2.49612e-13
2e-05
-2.74319e-13
2e-05
-3.00419e-13
2e-05
-3.2798e-13
2e-05
-3.57073e-13
2e-05
-3.87771e-13
2e-05
-4.20147e-13
2e-05
-4.54276e-13
2e-05
-4.90233e-13
2e-05
-5.28097e-13
2e-05
-5.67947e-13
2e-05
-6.09861e-13
2e-05
-6.53921e-13
2e-05
-7.0021e-13
2e-05
-7.4881e-13
2e-05
-7.99806e-13
2e-05
-8.53282e-13
2e-05
-9.09324e-13
2e-05
-9.68019e-13
2e-05
-1.02945e-12
2e-05
-1.09371e-12
2e-05
-1.16088e-12
2e-05
-1.23105e-12
2e-05
-1.30431e-12
2e-05
-1.38073e-12
2e-05
-1.46042e-12
2e-05
-1.54344e-12
2e-05
-1.62989e-12
2e-05
-1.71984e-12
2e-05
-1.81337e-12
2e-05
-1.91057e-12
2e-05
-2.0115e-12
2e-05
-2.11624e-12
2e-05
-2.22486e-12
2e-05
-2.33742e-12
2e-05
-2.45399e-12
2e-05
-2.57462e-12
2e-05
-2.69937e-12
2e-05
-2.82828e-12
2e-05
-2.9614e-12
2e-05
-3.09876e-12
2e-05
-3.24041e-12
2e-05
-3.38635e-12
2e-05
-3.53661e-12
2e-05
-3.6912e-12
2e-05
-3.85012e-12
2e-05
-4.01337e-12
2e-05
-4.18094e-12
2e-05
-4.35279e-12
2e-05
-4.5289e-12
2e-05
-4.70922e-12
2e-05
-4.8937e-12
2e-05
-5.08228e-12
2e-05
-5.27489e-12
2e-05
-5.47142e-12
2e-05
-5.67179e-12
2e-05
-5.87589e-12
2e-05
-6.08359e-12
2e-05
-6.29475e-12
2e-05
-6.50921e-12
2e-05
-6.72682e-12
2e-05
-6.94738e-12
2e-05
-7.1707e-12
2e-05
-7.39655e-12
2e-05
-7.62471e-12
2e-05
-7.8549e-12
2e-05
-8.08684e-12
2e-05
-8.32022e-12
2e-05
-8.55469e-12
2e-05
-8.78988e-12
2e-05
-9.02534e-12
2e-05
-9.26059e-12
2e-05
-9.49507e-12
2e-05
-9.72812e-12
2e-05
-9.95897e-12
2e-05
-1.01867e-11
2e-05
-1.04101e-11
2e-05
-1.06279e-11
2e-05
-1.08382e-11
2e-05
-1.10386e-11
2e-05
-1.12259e-11
2e-05
-1.13953e-11
2e-05
-1.15398e-11
2e-05
-1.16495e-11
-1.17132e-11
2e-05
-4.57751e-15
2e-05
-1.441e-14
2e-05
-2.50016e-14
2e-05
-3.63455e-14
2e-05
-4.84301e-14
2e-05
-6.12574e-14
2e-05
-7.48443e-14
2e-05
-8.92191e-14
2e-05
-1.04419e-13
2e-05
-1.20489e-13
2e-05
-1.37476e-13
2e-05
-1.55435e-13
2e-05
-1.74419e-13
2e-05
-1.94487e-13
2e-05
-2.15698e-13
2e-05
-2.38114e-13
2e-05
-2.61798e-13
2e-05
-2.86813e-13
2e-05
-3.13226e-13
2e-05
-3.41103e-13
2e-05
-3.70514e-13
2e-05
-4.01527e-13
2e-05
-4.34214e-13
2e-05
-4.68647e-13
2e-05
-5.049e-13
2e-05
-5.43048e-13
2e-05
-5.83166e-13
2e-05
-6.25331e-13
2e-05
-6.69622e-13
2e-05
-7.16117e-13
2e-05
-7.64897e-13
2e-05
-8.16041e-13
2e-05
-8.69631e-13
2e-05
-9.25749e-13
2e-05
-9.84476e-13
2e-05
-1.04589e-12
2e-05
-1.11009e-12
2e-05
-1.17714e-12
2e-05
-1.24712e-12
2e-05
-1.32013e-12
2e-05
-1.39623e-12
2e-05
-1.47551e-12
2e-05
-1.55805e-12
2e-05
-1.64393e-12
2e-05
-1.73321e-12
2e-05
-1.82597e-12
2e-05
-1.92229e-12
2e-05
-2.02223e-12
2e-05
-2.12585e-12
2e-05
-2.23323e-12
2e-05
-2.34441e-12
2e-05
-2.45945e-12
2e-05
-2.57841e-12
2e-05
-2.70134e-12
2e-05
-2.82826e-12
2e-05
-2.95922e-12
2e-05
-3.09426e-12
2e-05
-3.23339e-12
2e-05
-3.37663e-12
2e-05
-3.52401e-12
2e-05
-3.67552e-12
2e-05
-3.83117e-12
2e-05
-3.99094e-12
2e-05
-4.15482e-12
2e-05
-4.3228e-12
2e-05
-4.49483e-12
2e-05
-4.67088e-12
2e-05
-4.8509e-12
2e-05
-5.03483e-12
2e-05
-5.2226e-12
2e-05
-5.41414e-12
2e-05
-5.60937e-12
2e-05
-5.8082e-12
2e-05
-6.0105e-12
2e-05
-6.21618e-12
2e-05
-6.42511e-12
2e-05
-6.63714e-12
2e-05
-6.85214e-12
2e-05
-7.06994e-12
2e-05
-7.29036e-12
2e-05
-7.51322e-12
2e-05
-7.73831e-12
2e-05
-7.96539e-12
2e-05
-8.1942e-12
2e-05
-8.42446e-12
2e-05
-8.65583e-12
2e-05
-8.88791e-12
2e-05
-9.12024e-12
2e-05
-9.35225e-12
2e-05
-9.58324e-12
2e-05
-9.81234e-12
2e-05
-1.00384e-11
2e-05
-1.026e-11
2e-05
-1.04752e-11
2e-05
-1.06813e-11
2e-05
-1.08747e-11
2e-05
-1.10502e-11
2e-05
-1.12003e-11
2e-05
-1.13152e-11
-1.13835e-11
2e-05
-4.28047e-15
2e-05
-1.3493e-14
2e-05
-2.34486e-14
2e-05
-3.41492e-14
2e-05
-4.55868e-14
2e-05
-5.77624e-14
2e-05
-7.06898e-14
2e-05
-8.43928e-14
2e-05
-9.89034e-14
2e-05
-1.1426e-13
2e-05
-1.30507e-13
2e-05
-1.4769e-13
2e-05
-1.65862e-13
2e-05
-1.85074e-13
2e-05
-2.05383e-13
2e-05
-2.26845e-13
2e-05
-2.49521e-13
2e-05
-2.73469e-13
2e-05
-2.98753e-13
2e-05
-3.25435e-13
2e-05
-3.53581e-13
2e-05
-3.83256e-13
2e-05
-4.14528e-13
2e-05
-4.47465e-13
2e-05
-4.82138e-13
2e-05
-5.18616e-13
2e-05
-5.56973e-13
2e-05
-5.97281e-13
2e-05
-6.39614e-13
2e-05
-6.84046e-13
2e-05
-7.30654e-13
2e-05
-7.79513e-13
2e-05
-8.30701e-13
2e-05
-8.84294e-13
2e-05
-9.40371e-13
2e-05
-9.99008e-13
2e-05
-1.06028e-12
2e-05
-1.12428e-12
2e-05
-1.19106e-12
2e-05
-1.26071e-12
2e-05
-1.33332e-12
2e-05
-1.40894e-12
2e-05
-1.48765e-12
2e-05
-1.56953e-12
2e-05
-1.65466e-12
2e-05
-1.74308e-12
2e-05
-1.83488e-12
2e-05
-1.93012e-12
2e-05
-2.02887e-12
2e-05
-2.13117e-12
2e-05
-2.23708e-12
2e-05
-2.34667e-12
2e-05
-2.45997e-12
2e-05
-2.57703e-12
2e-05
-2.6979e-12
2e-05
-2.8226e-12
2e-05
-2.95117e-12
2e-05
-3.08365e-12
2e-05
-3.22003e-12
2e-05
-3.36036e-12
2e-05
-3.50462e-12
2e-05
-3.65284e-12
2e-05
-3.805e-12
2e-05
-3.96109e-12
2e-05
-4.12111e-12
2e-05
-4.28504e-12
2e-05
-4.45283e-12
2e-05
-4.62447e-12
2e-05
-4.79991e-12
2e-05
-4.97911e-12
2e-05
-5.16201e-12
2e-05
-5.34854e-12
2e-05
-5.53866e-12
2e-05
-5.73227e-12
2e-05
-5.92931e-12
2e-05
-6.12968e-12
2e-05
-6.3333e-12
2e-05
-6.54006e-12
2e-05
-6.74986e-12
2e-05
-6.96259e-12
2e-05
-7.1781e-12
2e-05
-7.39627e-12
2e-05
-7.61693e-12
2e-05
-7.83989e-12
2e-05
-8.06496e-12
2e-05
-8.29187e-12
2e-05
-8.52031e-12
2e-05
-8.74989e-12
2e-05
-8.98012e-12
2e-05
-9.21035e-12
2e-05
-9.43974e-12
2e-05
-9.66716e-12
2e-05
-9.89109e-12
2e-05
-1.01095e-11
2e-05
-1.03194e-11
2e-05
-1.05171e-11
2e-05
-1.06968e-11
2e-05
-1.08511e-11
2e-05
-1.09697e-11
-1.10406e-11
2e-05
-4.00306e-15
2e-05
-1.26334e-14
2e-05
-2.19859e-14
2e-05
-3.20699e-14
2e-05
-4.28805e-14
2e-05
-5.44193e-14
2e-05
-6.66982e-14
2e-05
-7.97377e-14
2e-05
-9.3566e-14
2e-05
-1.08217e-13
2e-05
-1.2373e-13
2e-05
-1.40147e-13
2e-05
-1.57515e-13
2e-05
-1.75883e-13
2e-05
-1.95302e-13
2e-05
-2.15826e-13
2e-05
-2.37509e-13
2e-05
-2.60409e-13
2e-05
-2.84584e-13
2e-05
-3.10093e-13
2e-05
-3.36998e-13
2e-05
-3.65361e-13
2e-05
-3.95246e-13
2e-05
-4.26718e-13
2e-05
-4.59842e-13
2e-05
-4.94686e-13
2e-05
-5.31319e-13
2e-05
-5.69808e-13
2e-05
-6.10224e-13
2e-05
-6.52638e-13
2e-05
-6.97121e-13
2e-05
-7.43746e-13
2e-05
-7.92584e-13
2e-05
-8.43709e-13
2e-05
-8.97193e-13
2e-05
-9.53111e-13
2e-05
-1.01154e-12
2e-05
-1.07254e-12
2e-05
-1.1362e-12
2e-05
-1.20258e-12
2e-05
-1.27175e-12
2e-05
-1.3438e-12
2e-05
-1.41878e-12
2e-05
-1.49676e-12
2e-05
-1.57782e-12
2e-05
-1.66201e-12
2e-05
-1.7494e-12
2e-05
-1.84006e-12
2e-05
-1.93403e-12
2e-05
-2.03138e-12
2e-05
-2.13215e-12
2e-05
-2.2364e-12
2e-05
-2.34418e-12
2e-05
-2.45553e-12
2e-05
-2.57048e-12
2e-05
-2.68908e-12
2e-05
-2.81135e-12
2e-05
-2.93733e-12
2e-05
-3.06702e-12
2e-05
-3.20047e-12
2e-05
-3.33766e-12
2e-05
-3.47862e-12
2e-05
-3.62335e-12
2e-05
-3.77185e-12
2e-05
-3.92411e-12
2e-05
-4.08011e-12
2e-05
-4.23986e-12
2e-05
-4.40331e-12
2e-05
-4.57046e-12
2e-05
-4.74127e-12
2e-05
-4.9157e-12
2e-05
-5.09373e-12
2e-05
-5.27531e-12
2e-05
-5.4604e-12
2e-05
-5.64895e-12
2e-05
-5.84091e-12
2e-05
-6.03623e-12
2e-05
-6.23486e-12
2e-05
-6.43673e-12
2e-05
-6.64178e-12
2e-05
-6.84993e-12
2e-05
-7.06112e-12
2e-05
-7.27524e-12
2e-05
-7.49217e-12
2e-05
-7.71178e-12
2e-05
-7.93388e-12
2e-05
-8.15822e-12
2e-05
-8.38448e-12
2e-05
-8.61221e-12
2e-05
-8.84082e-12
2e-05
-9.06948e-12
2e-05
-9.29705e-12
2e-05
-9.52195e-12
2e-05
-9.74201e-12
2e-05
-9.95423e-12
2e-05
-1.01545e-11
2e-05
-1.0337e-11
2e-05
-1.0494e-11
2e-05
-1.0615e-11
-1.06874e-11
2e-05
-3.7428e-15
2e-05
-1.18247e-14
2e-05
-2.0605e-14
2e-05
-3.00989e-14
2e-05
-4.03044e-14
2e-05
-5.12238e-14
2e-05
-6.28681e-14
2e-05
-7.5256e-14
2e-05
-8.84121e-14
2e-05
-1.02367e-13
2e-05
-1.17156e-13
2e-05
-1.32817e-13
2e-05
-1.49393e-13
2e-05
-1.66929e-13
2e-05
-1.85473e-13
2e-05
-2.05073e-13
2e-05
-2.25782e-13
2e-05
-2.47653e-13
2e-05
-2.7074e-13
2e-05
-2.95099e-13
2e-05
-3.20788e-13
2e-05
-3.47867e-13
2e-05
-3.76394e-13
2e-05
-4.06432e-13
2e-05
-4.38042e-13
2e-05
-4.71288e-13
2e-05
-5.06235e-13
2e-05
-5.42947e-13
2e-05
-5.81491e-13
2e-05
-6.21932e-13
2e-05
-6.6434e-13
2e-05
-7.08782e-13
2e-05
-7.55326e-13
2e-05
-8.0404e-13
2e-05
-8.54995e-13
2e-05
-9.08259e-13
2e-05
-9.639e-13
2e-05
-1.02199e-12
2e-05
-1.08259e-12
2e-05
-1.14578e-12
2e-05
-1.21162e-12
2e-05
-1.28017e-12
2e-05
-1.35151e-12
2e-05
-1.42569e-12
2e-05
-1.50279e-12
2e-05
-1.58285e-12
2e-05
-1.66595e-12
2e-05
-1.75213e-12
2e-05
-1.84145e-12
2e-05
-1.93397e-12
2e-05
-2.02974e-12
2e-05
-2.1288e-12
2e-05
-2.2312e-12
2e-05
-2.33698e-12
2e-05
-2.44617e-12
2e-05
-2.55882e-12
2e-05
-2.67496e-12
2e-05
-2.7946e-12
2e-05
-2.91778e-12
2e-05
-3.04452e-12
2e-05
-3.17483e-12
2e-05
-3.30873e-12
2e-05
-3.44622e-12
2e-05
-3.58731e-12
2e-05
-3.73201e-12
2e-05
-3.8803e-12
2e-05
-4.03219e-12
2e-05
-4.18767e-12
2e-05
-4.34673e-12
2e-05
-4.50935e-12
2e-05
-4.67552e-12
2e-05
-4.84523e-12
2e-05
-5.01846e-12
2e-05
-5.1952e-12
2e-05
-5.37542e-12
2e-05
-5.55911e-12
2e-05
-5.74626e-12
2e-05
-5.93685e-12
2e-05
-6.13086e-12
2e-05
-6.32827e-12
2e-05
-6.52906e-12
2e-05
-6.73321e-12
2e-05
-6.94068e-12
2e-05
-7.1514e-12
2e-05
-7.3653e-12
2e-05
-7.58225e-12
2e-05
-7.80205e-12
2e-05
-8.02444e-12
2e-05
-8.24902e-12
2e-05
-8.4752e-12
2e-05
-8.70219e-12
2e-05
-8.92882e-12
2e-05
-9.15347e-12
2e-05
-9.3739e-12
2e-05
-9.58698e-12
2e-05
-9.78841e-12
2e-05
-9.97234e-12
2e-05
-1.01308e-11
2e-05
-1.02532e-11
-1.03265e-11
2e-05
-3.49782e-15
2e-05
-1.1062e-14
2e-05
-1.92992e-14
2e-05
-2.82289e-14
2e-05
-3.78517e-14
2e-05
-4.81709e-14
2e-05
-5.91972e-14
2e-05
-7.09476e-14
2e-05
-8.34444e-14
2e-05
-9.67153e-14
2e-05
-1.10792e-13
2e-05
-1.2571e-13
2e-05
-1.41507e-13
2e-05
-1.58226e-13
2e-05
-1.75909e-13
2e-05
-1.94603e-13
2e-05
-2.14356e-13
2e-05
-2.35218e-13
2e-05
-2.57239e-13
2e-05
-2.80473e-13
2e-05
-3.04973e-13
2e-05
-3.30795e-13
2e-05
-3.57996e-13
2e-05
-3.86632e-13
2e-05
-4.16763e-13
2e-05
-4.48449e-13
2e-05
-4.8175e-13
2e-05
-5.16728e-13
2e-05
-5.53444e-13
2e-05
-5.91962e-13
2e-05
-6.32346e-13
2e-05
-6.74659e-13
2e-05
-7.18966e-13
2e-05
-7.65331e-13
2e-05
-8.1382e-13
2e-05
-8.64497e-13
2e-05
-9.17428e-13
2e-05
-9.72676e-13
2e-05
-1.03031e-12
2e-05
-1.09038e-12
2e-05
-1.15297e-12
2e-05
-1.21813e-12
2e-05
-1.28592e-12
2e-05
-1.3564e-12
2e-05
-1.42964e-12
2e-05
-1.50569e-12
2e-05
-1.5846e-12
2e-05
-1.66643e-12
2e-05
-1.75123e-12
2e-05
-1.83906e-12
2e-05
-1.92995e-12
2e-05
-2.02396e-12
2e-05
-2.12113e-12
2e-05
-2.22149e-12
2e-05
-2.32509e-12
2e-05
-2.43196e-12
2e-05
-2.54212e-12
2e-05
-2.65562e-12
2e-05
-2.77246e-12
2e-05
-2.89269e-12
2e-05
-3.0163e-12
2e-05
-3.14333e-12
2e-05
-3.27379e-12
2e-05
-3.40768e-12
2e-05
-3.54502e-12
2e-05
-3.6858e-12
2e-05
-3.83005e-12
2e-05
-3.97776e-12
2e-05
-4.12894e-12
2e-05
-4.28358e-12
2e-05
-4.44169e-12
2e-05
-4.60328e-12
2e-05
-4.76836e-12
2e-05
-4.93692e-12
2e-05
-5.10898e-12
2e-05
-5.28456e-12
2e-05
-5.46367e-12
2e-05
-5.64632e-12
2e-05
-5.83254e-12
2e-05
-6.02236e-12
2e-05
-6.2158e-12
2e-05
-6.41287e-12
2e-05
-6.61358e-12
2e-05
-6.81793e-12
2e-05
-7.02589e-12
2e-05
-7.23736e-12
2e-05
-7.45222e-12
2e-05
-7.67023e-12
2e-05
-7.89103e-12
2e-05
-8.11405e-12
2e-05
-8.33851e-12
2e-05
-8.56322e-12
2e-05
-8.78655e-12
2e-05
-9.00617e-12
2e-05
-9.21888e-12
2e-05
-9.4203e-12
2e-05
-9.60448e-12
2e-05
-9.76336e-12
2e-05
-9.88634e-12
-9.95989e-12
2e-05
-3.2667e-15
2e-05
-1.03414e-14
2e-05
-1.80627e-14
2e-05
-2.64535e-14
2e-05
-3.55165e-14
2e-05
-4.52559e-14
2e-05
-5.56822e-14
2e-05
-6.68113e-14
2e-05
-7.86638e-14
2e-05
-9.12649e-14
2e-05
-1.04643e-13
2e-05
-1.18832e-13
2e-05
-1.33865e-13
2e-05
-1.49782e-13
2e-05
-1.66622e-13
2e-05
-1.84428e-13
2e-05
-2.03246e-13
2e-05
-2.2312e-13
2e-05
-2.44099e-13
2e-05
-2.66233e-13
2e-05
-2.89571e-13
2e-05
-3.14166e-13
2e-05
-3.40071e-13
2e-05
-3.6734e-13
2e-05
-3.96029e-13
2e-05
-4.26193e-13
2e-05
-4.5789e-13
2e-05
-4.91177e-13
2e-05
-5.26113e-13
2e-05
-5.62758e-13
2e-05
-6.0117e-13
2e-05
-6.41411e-13
2e-05
-6.8354e-13
2e-05
-7.27619e-13
2e-05
-7.73708e-13
2e-05
-8.21869e-13
2e-05
-8.72162e-13
2e-05
-9.24648e-13
2e-05
-9.79387e-13
2e-05
-1.03644e-12
2e-05
-1.09586e-12
2e-05
-1.15772e-12
2e-05
-1.22206e-12
2e-05
-1.28895e-12
2e-05
-1.35844e-12
2e-05
-1.43058e-12
2e-05
-1.50543e-12
2e-05
-1.58304e-12
2e-05
-1.66345e-12
2e-05
-1.74672e-12
2e-05
-1.83288e-12
2e-05
-1.92199e-12
2e-05
-2.01408e-12
2e-05
-2.10918e-12
2e-05
-2.20735e-12
2e-05
-2.3086e-12
2e-05
-2.41297e-12
2e-05
-2.5205e-12
2e-05
-2.6312e-12
2e-05
-2.74509e-12
2e-05
-2.86222e-12
2e-05
-2.98258e-12
2e-05
-3.1062e-12
2e-05
-3.2331e-12
2e-05
-3.36329e-12
2e-05
-3.49679e-12
2e-05
-3.63361e-12
2e-05
-3.77377e-12
2e-05
-3.91728e-12
2e-05
-4.06415e-12
2e-05
-4.21442e-12
2e-05
-4.3681e-12
2e-05
-4.52521e-12
2e-05
-4.68579e-12
2e-05
-4.84986e-12
2e-05
-5.01748e-12
2e-05
-5.18868e-12
2e-05
-5.36352e-12
2e-05
-5.54204e-12
2e-05
-5.72432e-12
2e-05
-5.91041e-12
2e-05
-6.10036e-12
2e-05
-6.29424e-12
2e-05
-6.49207e-12
2e-05
-6.69386e-12
2e-05
-6.89958e-12
2e-05
-7.10912e-12
2e-05
-7.32228e-12
2e-05
-7.53873e-12
2e-05
-7.75794e-12
2e-05
-7.97909e-12
2e-05
-8.20102e-12
2e-05
-8.42206e-12
2e-05
-8.63984e-12
2e-05
-8.85113e-12
2e-05
-9.05148e-12
2e-05
-9.23489e-12
2e-05
-9.3933e-12
2e-05
-9.51607e-12
-9.58946e-12
2e-05
-3.04833e-15
2e-05
-9.65968e-15
2e-05
-1.68909e-14
2e-05
-2.47674e-14
2e-05
-3.32934e-14
2e-05
-4.24739e-14
2e-05
-5.23194e-14
2e-05
-6.2845e-14
2e-05
-7.40699e-14
2e-05
-8.60172e-14
2e-05
-9.87134e-14
2e-05
-1.12188e-13
2e-05
-1.26474e-13
2e-05
-1.41606e-13
2e-05
-1.57621e-13
2e-05
-1.74559e-13
2e-05
-1.92462e-13
2e-05
-2.11371e-13
2e-05
-2.31333e-13
2e-05
-2.52392e-13
2e-05
-2.74597e-13
2e-05
-2.97995e-13
2e-05
-3.22638e-13
2e-05
-3.48575e-13
2e-05
-3.75858e-13
2e-05
-4.04541e-13
2e-05
-4.34676e-13
2e-05
-4.66318e-13
2e-05
-4.99522e-13
2e-05
-5.34344e-13
2e-05
-5.7084e-13
2e-05
-6.09065e-13
2e-05
-6.49078e-13
2e-05
-6.90934e-13
2e-05
-7.34692e-13
2e-05
-7.80408e-13
2e-05
-8.28139e-13
2e-05
-8.77942e-13
2e-05
-9.29873e-13
2e-05
-9.8399e-13
2e-05
-1.04035e-12
2e-05
-1.099e-12
2e-05
-1.16e-12
2e-05
-1.2234e-12
2e-05
-1.28925e-12
2e-05
-1.35761e-12
2e-05
-1.42851e-12
2e-05
-1.50202e-12
2e-05
-1.57818e-12
2e-05
-1.65702e-12
2e-05
-1.7386e-12
2e-05
-1.82295e-12
2e-05
-1.91012e-12
2e-05
-2.00013e-12
2e-05
-2.09303e-12
2e-05
-2.18884e-12
2e-05
-2.2876e-12
2e-05
-2.38934e-12
2e-05
-2.49408e-12
2e-05
-2.60186e-12
2e-05
-2.71268e-12
2e-05
-2.82658e-12
2e-05
-2.94358e-12
2e-05
-3.0637e-12
2e-05
-3.18697e-12
2e-05
-3.3134e-12
2e-05
-3.44301e-12
2e-05
-3.57584e-12
2e-05
-3.7119e-12
2e-05
-3.85123e-12
2e-05
-3.99387e-12
2e-05
-4.13984e-12
2e-05
-4.28919e-12
2e-05
-4.44197e-12
2e-05
-4.59824e-12
2e-05
-4.75806e-12
2e-05
-4.9215e-12
2e-05
-5.08864e-12
2e-05
-5.25956e-12
2e-05
-5.43435e-12
2e-05
-5.61311e-12
2e-05
-5.79594e-12
2e-05
-5.9829e-12
2e-05
-6.17409e-12
2e-05
-6.36953e-12
2e-05
-6.56923e-12
2e-05
-6.77312e-12
2e-05
-6.98102e-12
2e-05
-7.19262e-12
2e-05
-7.4074e-12
2e-05
-7.62457e-12
2e-05
-7.84294e-12
2e-05
-8.06085e-12
2e-05
-8.27591e-12
2e-05
-8.48485e-12
2e-05
-8.68321e-12
2e-05
-8.86498e-12
2e-05
-9.02214e-12
2e-05
-9.14409e-12
-9.21695e-12
2e-05
-2.8418e-15
2e-05
-9.0143e-15
2e-05
-1.57799e-14
2e-05
-2.31657e-14
2e-05
-3.11773e-14
2e-05
-3.98203e-14
2e-05
-4.9105e-14
2e-05
-5.9046e-14
2e-05
-6.96613e-14
2e-05
-8.09723e-14
2e-05
-9.30034e-14
2e-05
-1.05782e-13
2e-05
-1.19338e-13
2e-05
-1.33704e-13
2e-05
-1.48914e-13
2e-05
-1.65004e-13
2e-05
-1.82014e-13
2e-05
-1.99982e-13
2e-05
-2.18952e-13
2e-05
-2.38964e-13
2e-05
-2.60064e-13
2e-05
-2.82298e-13
2e-05
-3.05711e-13
2e-05
-3.30351e-13
2e-05
-3.56268e-13
2e-05
-3.83509e-13
2e-05
-4.12127e-13
2e-05
-4.4217e-13
2e-05
-4.73692e-13
2e-05
-5.06743e-13
2e-05
-5.41377e-13
2e-05
-5.77646e-13
2e-05
-6.15604e-13
2e-05
-6.55304e-13
2e-05
-6.96799e-13
2e-05
-7.40143e-13
2e-05
-7.85389e-13
2e-05
-8.32591e-13
2e-05
-8.818e-13
2e-05
-9.3307e-13
2e-05
-9.86452e-13
2e-05
-1.042e-12
2e-05
-1.09975e-12
2e-05
-1.15977e-12
2e-05
-1.22211e-12
2e-05
-1.2868e-12
2e-05
-1.35389e-12
2e-05
-1.42343e-12
2e-05
-1.49546e-12
2e-05
-1.57003e-12
2e-05
-1.64717e-12
2e-05
-1.72692e-12
2e-05
-1.80932e-12
2e-05
-1.89441e-12
2e-05
-1.98221e-12
2e-05
-2.07276e-12
2e-05
-2.1661e-12
2e-05
-2.26224e-12
2e-05
-2.36122e-12