/*--------------------------------*- C++ -*----------------------------------*\
  =========                 |
  \\      /  F ield         | OpenFOAM: The Open Source CFD Toolbox
   \\    /   O peration     | Website:  https://openfoam.org
    \\  /    A nd           | Version:  11
     \\/     M anipulation  |
\*---------------------------------------------------------------------------*/
FoamFile
{
    format      ascii;
    class       volVectorField;
    location    "1496";
    object      U;
}
// * * * * * * * * * * * * * * * * * * * * * * * * * * * * * * * * * * * * * //

dimensions      [0 1 -1 0 0 0 0];

internalField   nonuniform List<vector> 
10000
(
(0.005 -2.40036e-12 0)
(0.005 -6.76811e-12 0)
(0.005 -1.10196e-11 0)
(0.005 -1.53137e-11 0)
(0.005 -1.97269e-11 0)
(0.005 -2.43071e-11 0)
(0.005 -2.90917e-11 0)
(0.005 -3.41118e-11 0)
(0.005 -3.93951e-11 0)
(0.005 -4.49669e-11 0)
(0.005 -5.08513e-11 0)
(0.005 -5.7072e-11 0)
(0.005 -6.36518e-11 0)
(0.005 -7.06138e-11 0)
(0.005 -7.79811e-11 0)
(0.005 -8.57767e-11 0)
(0.005 -9.40242e-11 0)
(0.005 -1.02747e-10 0)
(0.005 -1.11971e-10 0)
(0.005 -1.21718e-10 0)
(0.005 -1.32016e-10 0)
(0.005 -1.42888e-10 0)
(0.005 -1.54363e-10 0)
(0.005 -1.66465e-10 0)
(0.005 -1.79223e-10 0)
(0.005 -1.92664e-10 0)
(0.005 -2.06815e-10 0)
(0.005 -2.21707e-10 0)
(0.005 -2.37368e-10 0)
(0.005 -2.53826e-10 0)
(0.005 -2.71114e-10 0)
(0.005 -2.8926e-10 0)
(0.005 -3.08295e-10 0)
(0.005 -3.2825e-10 0)
(0.005 -3.49156e-10 0)
(0.005 -3.71045e-10 0)
(0.005 -3.93948e-10 0)
(0.005 -4.17896e-10 0)
(0.005 -4.4292e-10 0)
(0.005 -4.69053e-10 0)
(0.005 -4.96324e-10 0)
(0.005 -5.24764e-10 0)
(0.005 -5.54404e-10 0)
(0.005 -5.85274e-10 0)
(0.005 -6.17401e-10 0)
(0.005 -6.50816e-10 0)
(0.005 -6.85544e-10 0)
(0.005 -7.21612e-10 0)
(0.005 -7.59044e-10 0)
(0.005 -7.97866e-10 0)
(0.005 -8.38097e-10 0)
(0.005 -8.79759e-10 0)
(0.005 -9.22869e-10 0)
(0.005 -9.67443e-10 0)
(0.005 -1.0135e-09 0)
(0.005 -1.06103e-09 0)
(0.005 -1.11007e-09 0)
(0.005 -1.1606e-09 0)
(0.005 -1.21264e-09 0)
(0.005 -1.26617e-09 0)
(0.005 -1.32119e-09 0)
(0.005 -1.37769e-09 0)
(0.005 -1.43565e-09 0)
(0.005 -1.49504e-09 0)
(0.005 -1.55584e-09 0)
(0.005 -1.61801e-09 0)
(0.005 -1.68151e-09 0)
(0.005 -1.74629e-09 0)
(0.005 -1.81228e-09 0)
(0.005 -1.87942e-09 0)
(0.005 -1.94763e-09 0)
(0.005 -2.01681e-09 0)
(0.005 -2.08687e-09 0)
(0.005 -2.1577e-09 0)
(0.005 -2.22915e-09 0)
(0.005 -2.3011e-09 0)
(0.005 -2.37336e-09 0)
(0.005 -2.44577e-09 0)
(0.005 -2.51812e-09 0)
(0.005 -2.59019e-09 0)
(0.005 -2.66173e-09 0)
(0.005 -2.73247e-09 0)
(0.005 -2.80209e-09 0)
(0.005 -2.87028e-09 0)
(0.005 -2.93666e-09 0)
(0.005 -3.00082e-09 0)
(0.005 -3.06232e-09 0)
(0.005 -3.12068e-09 0)
(0.005 -3.17536e-09 0)
(0.005 -3.2258e-09 0)
(0.005 -3.27139e-09 0)
(0.005 -3.31153e-09 0)
(0.005 -3.34573e-09 0)
(0.005 -3.37361e-09 0)
(0.005 -3.39396e-09 0)
(0.005 -3.40551e-09 0)
(0.005 -3.40761e-09 0)
(0.005 -3.40097e-09 0)
(0.005 -3.38794e-09 0)
(0.005 -3.37591e-09 0)
(0.005 -2.10481e-12 0)
(0.005 -6.19676e-12 0)
(0.005 -1.02719e-11 0)
(0.005 -1.44093e-11 0)
(0.005 -1.86671e-11 0)
(0.005 -2.30874e-11 0)
(0.005 -2.77044e-11 0)
(0.005 -3.25476e-11 0)
(0.005 -3.76433e-11 0)
(0.005 -4.30158e-11 0)
(0.005 -4.86883e-11 0)
(0.005 -5.46833e-11 0)
(0.005 -6.10229e-11 0)
(0.005 -6.77293e-11 0)
(0.005 -7.48246e-11 0)
(0.005 -8.23309e-11 0)
(0.005 -9.02708e-11 0)
(0.005 -9.86672e-11 0)
(0.005 -1.07543e-10 0)
(0.005 -1.16923e-10 0)
(0.005 -1.26829e-10 0)
(0.005 -1.37288e-10 0)
(0.005 -1.48324e-10 0)
(0.005 -1.59962e-10 0)
(0.005 -1.72229e-10 0)
(0.005 -1.85151e-10 0)
(0.005 -1.98754e-10 0)
(0.005 -2.13067e-10 0)
(0.005 -2.28117e-10 0)
(0.005 -2.43933e-10 0)
(0.005 -2.60542e-10 0)
(0.005 -2.77974e-10 0)
(0.005 -2.96258e-10 0)
(0.005 -3.15423e-10 0)
(0.005 -3.355e-10 0)
(0.005 -3.56517e-10 0)
(0.005 -3.78506e-10 0)
(0.005 -4.01495e-10 0)
(0.005 -4.25515e-10 0)
(0.005 -4.50595e-10 0)
(0.005 -4.76765e-10 0)
(0.005 -5.04054e-10 0)
(0.005 -5.32491e-10 0)
(0.005 -5.62104e-10 0)
(0.005 -5.92921e-10 0)
(0.005 -6.24968e-10 0)
(0.005 -6.58272e-10 0)
(0.005 -6.92857e-10 0)
(0.005 -7.28747e-10 0)
(0.005 -7.65965e-10 0)
(0.005 -8.04531e-10 0)
(0.005 -8.44465e-10 0)
(0.005 -8.85784e-10 0)
(0.005 -9.28503e-10 0)
(0.005 -9.72635e-10 0)
(0.005 -1.01819e-09 0)
(0.005 -1.06518e-09 0)
(0.005 -1.1136e-09 0)
(0.005 -1.16346e-09 0)
(0.005 -1.21475e-09 0)
(0.005 -1.26747e-09 0)
(0.005 -1.32161e-09 0)
(0.005 -1.37715e-09 0)
(0.005 -1.43407e-09 0)
(0.005 -1.49235e-09 0)
(0.005 -1.55195e-09 0)
(0.005 -1.61283e-09 0)
(0.005 -1.67495e-09 0)
(0.005 -1.73826e-09 0)
(0.005 -1.80269e-09 0)
(0.005 -1.86817e-09 0)
(0.005 -1.93463e-09 0)
(0.005 -2.00197e-09 0)
(0.005 -2.07009e-09 0)
(0.005 -2.13887e-09 0)
(0.005 -2.20819e-09 0)
(0.005 -2.2779e-09 0)
(0.005 -2.34785e-09 0)
(0.005 -2.41785e-09 0)
(0.005 -2.48771e-09 0)
(0.005 -2.55721e-09 0)
(0.005 -2.62611e-09 0)
(0.005 -2.69415e-09 0)
(0.005 -2.76103e-09 0)
(0.005 -2.82644e-09 0)
(0.005 -2.89002e-09 0)
(0.005 -2.9514e-09 0)
(0.005 -3.01015e-09 0)
(0.005 -3.06582e-09 0)
(0.005 -3.11793e-09 0)
(0.005 -3.16598e-09 0)
(0.005 -3.20941e-09 0)
(0.005 -3.24753e-09 0)
(0.005 -3.27937e-09 0)
(0.005 -3.30425e-09 0)
(0.005 -3.32225e-09 0)
(0.005 -3.33431e-09 0)
(0.005 -3.3411e-09 0)
(0.005 -3.34333e-09 0)
(0.005 -3.34549e-09 0)
(0.005 -1.86715e-12 0)
(0.005 -5.6703e-12 0)
(0.005 -9.5473e-12 0)
(0.005 -1.35188e-11 0)
(0.005 -1.76188e-11 0)
(0.005 -2.188e-11 0)
(0.005 -2.6332e-11 0)
(0.005 -3.10018e-11 0)
(0.005 -3.59139e-11 0)
(0.005 -4.10915e-11 0)
(0.005 -4.65569e-11 0)
(0.005 -5.23315e-11 0)
(0.005 -5.84366e-11 0)
(0.005 -6.48935e-11 0)
(0.005 -7.17234e-11 0)
(0.005 -7.89475e-11 0)
(0.005 -8.65876e-11 0)
(0.005 -9.46655e-11 0)
(0.005 -1.03203e-10 0)
(0.005 -1.12224e-10 0)
(0.005 -1.21751e-10 0)
(0.005 -1.31807e-10 0)
(0.005 -1.42416e-10 0)
(0.005 -1.53603e-10 0)
(0.005 -1.65393e-10 0)
(0.005 -1.7781e-10 0)
(0.005 -1.90881e-10 0)
(0.005 -2.04632e-10 0)
(0.005 -2.19089e-10 0)
(0.005 -2.3428e-10 0)
(0.005 -2.50231e-10 0)
(0.005 -2.66971e-10 0)
(0.005 -2.84526e-10 0)
(0.005 -3.02926e-10 0)
(0.005 -3.22198e-10 0)
(0.005 -3.42371e-10 0)
(0.005 -3.63474e-10 0)
(0.005 -3.85534e-10 0)
(0.005 -4.08581e-10 0)
(0.005 -4.32643e-10 0)
(0.005 -4.57747e-10 0)
(0.005 -4.83922e-10 0)
(0.005 -5.11194e-10 0)
(0.005 -5.39592e-10 0)
(0.005 -5.69141e-10 0)
(0.005 -5.99866e-10 0)
(0.005 -6.31792e-10 0)
(0.005 -6.64944e-10 0)
(0.005 -6.99344e-10 0)
(0.005 -7.35012e-10 0)
(0.005 -7.7197e-10 0)
(0.005 -8.10235e-10 0)
(0.005 -8.49825e-10 0)
(0.005 -8.90753e-10 0)
(0.005 -9.33032e-10 0)
(0.005 -9.76673e-10 0)
(0.005 -1.02168e-09 0)
(0.005 -1.06807e-09 0)
(0.005 -1.11583e-09 0)
(0.005 -1.16496e-09 0)
(0.005 -1.21546e-09 0)
(0.005 -1.26733e-09 0)
(0.005 -1.32053e-09 0)
(0.005 -1.37507e-09 0)
(0.005 -1.43091e-09 0)
(0.005 -1.48804e-09 0)
(0.005 -1.5464e-09 0)
(0.005 -1.60597e-09 0)
(0.005 -1.66669e-09 0)
(0.005 -1.72851e-09 0)
(0.005 -1.79137e-09 0)
(0.005 -1.85521e-09 0)
(0.005 -1.91992e-09 0)
(0.005 -1.98544e-09 0)
(0.005 -2.05165e-09 0)
(0.005 -2.11845e-09 0)
(0.005 -2.18571e-09 0)
(0.005 -2.25328e-09 0)
(0.005 -2.32102e-09 0)
(0.005 -2.38875e-09 0)
(0.005 -2.45628e-09 0)
(0.005 -2.52342e-09 0)
(0.005 -2.58992e-09 0)
(0.005 -2.65554e-09 0)
(0.005 -2.72e-09 0)
(0.005 -2.783e-09 0)
(0.005 -2.84422e-09 0)
(0.005 -2.9033e-09 0)
(0.005 -2.95985e-09 0)
(0.005 -3.01345e-09 0)
(0.005 -3.06366e-09 0)
(0.005 -3.10997e-09 0)
(0.005 -3.15178e-09 0)
(0.005 -3.18853e-09 0)
(0.005 -3.21988e-09 0)
(0.005 -3.24572e-09 0)
(0.005 -3.26618e-09 0)
(0.005 -3.28153e-09 0)
(0.005 -3.29248e-09 0)
(0.005 -3.3026e-09 0)
(0.005 -1.70489e-12 0)
(0.005 -5.25035e-12 0)
(0.005 -8.92637e-12 0)
(0.005 -1.27294e-11 0)
(0.005 -1.66748e-11 0)
(0.005 -2.07849e-11 0)
(0.005 -2.50833e-11 0)
(0.005 -2.95934e-11 0)
(0.005 -3.43377e-11 0)
(0.005 -3.93377e-11 0)
(0.005 -4.46145e-11 0)
(0.005 -5.01888e-11 0)
(0.005 -5.60808e-11 0)
(0.005 -6.2311e-11 0)
(0.005 -6.88997e-11 0)
(0.005 -7.58675e-11 0)
(0.005 -8.32351e-11 0)
(0.005 -9.10236e-11 0)
(0.005 -9.92544e-11 0)
(0.005 -1.07949e-10 0)
(0.005 -1.1713e-10 0)
(0.005 -1.2682e-10 0)
(0.005 -1.37041e-10 0)
(0.005 -1.47818e-10 0)
(0.005 -1.59174e-10 0)
(0.005 -1.71133e-10 0)
(0.005 -1.8372e-10 0)
(0.005 -1.9696e-10 0)
(0.005 -2.10878e-10 0)
(0.005 -2.25501e-10 0)
(0.005 -2.40854e-10 0)
(0.005 -2.56964e-10 0)
(0.005 -2.73857e-10 0)
(0.005 -2.91561e-10 0)
(0.005 -3.10102e-10 0)
(0.005 -3.29507e-10 0)
(0.005 -3.49804e-10 0)
(0.005 -3.7102e-10 0)
(0.005 -3.93182e-10 0)
(0.005 -4.16318e-10 0)
(0.005 -4.40453e-10 0)
(0.005 -4.65614e-10 0)
(0.005 -4.91829e-10 0)
(0.005 -5.19121e-10 0)
(0.005 -5.47517e-10 0)
(0.005 -5.7704e-10 0)
(0.005 -6.07715e-10 0)
(0.005 -6.39563e-10 0)
(0.005 -6.72608e-10 0)
(0.005 -7.06868e-10 0)
(0.005 -7.42363e-10 0)
(0.005 -7.79111e-10 0)
(0.005 -8.17128e-10 0)
(0.005 -8.56428e-10 0)
(0.005 -8.97023e-10 0)
(0.005 -9.38923e-10 0)
(0.005 -9.82136e-10 0)
(0.005 -1.02667e-09 0)
(0.005 -1.07252e-09 0)
(0.005 -1.11969e-09 0)
(0.005 -1.16817e-09 0)
(0.005 -1.21797e-09 0)
(0.005 -1.26906e-09 0)
(0.005 -1.32143e-09 0)
(0.005 -1.37506e-09 0)
(0.005 -1.42993e-09 0)
(0.005 -1.486e-09 0)
(0.005 -1.54324e-09 0)
(0.005 -1.60162e-09 0)
(0.005 -1.66107e-09 0)
(0.005 -1.72155e-09 0)
(0.005 -1.78299e-09 0)
(0.005 -1.84532e-09 0)
(0.005 -1.90847e-09 0)
(0.005 -1.97234e-09 0)
(0.005 -2.03683e-09 0)
(0.005 -2.10185e-09 0)
(0.005 -2.16726e-09 0)
(0.005 -2.23292e-09 0)
(0.005 -2.29871e-09 0)
(0.005 -2.36444e-09 0)
(0.005 -2.42994e-09 0)
(0.005 -2.49501e-09 0)
(0.005 -2.55944e-09 0)
(0.005 -2.623e-09 0)
(0.005 -2.68541e-09 0)
(0.005 -2.74641e-09 0)
(0.005 -2.80569e-09 0)
(0.005 -2.86291e-09 0)
(0.005 -2.9177e-09 0)
(0.005 -2.96967e-09 0)
(0.005 -3.01837e-09 0)
(0.005 -3.06332e-09 0)
(0.005 -3.10406e-09 0)
(0.005 -3.14031e-09 0)
(0.005 -3.1719e-09 0)
(0.005 -3.19872e-09 0)
(0.005 -3.22056e-09 0)
(0.005 -3.2372e-09 0)
(0.005 -3.24893e-09 0)
(0.005 -1.57303e-12 0)
(0.005 -4.88313e-12 0)
(0.005 -8.35625e-12 0)
(0.005 -1.19818e-11 0)
(0.005 -1.57644e-11 0)
(0.005 -1.97176e-11 0)
(0.005 -2.38589e-11 0)
(0.005 -2.82078e-11 0)
(0.005 -3.27841e-11 0)
(0.005 -3.76074e-11 0)
(0.005 -4.26973e-11 0)
(0.005 -4.80733e-11 0)
(0.005 -5.37549e-11 0)
(0.005 -5.97613e-11 0)
(0.005 -6.61121e-11 0)
(0.005 -7.2827e-11 0)
(0.005 -7.99259e-11 0)
(0.005 -8.74291e-11 0)
(0.005 -9.53569e-11 0)
(0.005 -1.0373e-10 0)
(0.005 -1.12571e-10 0)
(0.005 -1.21899e-10 0)
(0.005 -1.31738e-10 0)
(0.005 -1.42111e-10 0)
(0.005 -1.53039e-10 0)
(0.005 -1.64545e-10 0)
(0.005 -1.76655e-10 0)
(0.005 -1.89391e-10 0)
(0.005 -2.02778e-10 0)
(0.005 -2.16841e-10 0)
(0.005 -2.31604e-10 0)
(0.005 -2.47093e-10 0)
(0.005 -2.63333e-10 0)
(0.005 -2.8035e-10 0)
(0.005 -2.98169e-10 0)
(0.005 -3.16817e-10 0)
(0.005 -3.3632e-10 0)
(0.005 -3.56703e-10 0)
(0.005 -3.77993e-10 0)
(0.005 -4.00215e-10 0)
(0.005 -4.23394e-10 0)
(0.005 -4.47557e-10 0)
(0.005 -4.72727e-10 0)
(0.005 -4.9893e-10 0)
(0.005 -5.26189e-10 0)
(0.005 -5.54527e-10 0)
(0.005 -5.83967e-10 0)
(0.005 -6.1453e-10 0)
(0.005 -6.46238e-10 0)
(0.005 -6.79109e-10 0)
(0.005 -7.13162e-10 0)
(0.005 -7.48414e-10 0)
(0.005 -7.8488e-10 0)
(0.005 -8.22574e-10 0)
(0.005 -8.61508e-10 0)
(0.005 -9.01692e-10 0)
(0.005 -9.43133e-10 0)
(0.005 -9.85837e-10 0)
(0.005 -1.02981e-09 0)
(0.005 -1.07504e-09 0)
(0.005 -1.12154e-09 0)
(0.005 -1.16929e-09 0)
(0.005 -1.21829e-09 0)
(0.005 -1.26853e-09 0)
(0.005 -1.31998e-09 0)
(0.005 -1.37262e-09 0)
(0.005 -1.42644e-09 0)
(0.005 -1.48139e-09 0)
(0.005 -1.53744e-09 0)
(0.005 -1.59455e-09 0)
(0.005 -1.65267e-09 0)
(0.005 -1.71175e-09 0)
(0.005 -1.77173e-09 0)
(0.005 -1.83254e-09 0)
(0.005 -1.89409e-09 0)
(0.005 -1.95631e-09 0)
(0.005 -2.01911e-09 0)
(0.005 -2.08237e-09 0)
(0.005 -2.14598e-09 0)
(0.005 -2.20982e-09 0)
(0.005 -2.27375e-09 0)
(0.005 -2.33761e-09 0)
(0.005 -2.40124e-09 0)
(0.005 -2.46446e-09 0)
(0.005 -2.52706e-09 0)
(0.005 -2.58883e-09 0)
(0.005 -2.64952e-09 0)
(0.005 -2.70888e-09 0)
(0.005 -2.76663e-09 0)
(0.005 -2.82243e-09 0)
(0.005 -2.87596e-09 0)
(0.005 -2.92681e-09 0)
(0.005 -2.9746e-09 0)
(0.005 -3.01892e-09 0)
(0.005 -3.05944e-09 0)
(0.005 -3.09586e-09 0)
(0.005 -3.12778e-09 0)
(0.005 -3.15452e-09 0)
(0.005 -3.1751e-09 0)
(0.005 -3.18625e-09 0)
(0.005 -1.45849e-12 0)
(0.005 -4.55193e-12 0)
(0.005 -7.82622e-12 0)
(0.005 -1.12705e-11 0)
(0.005 -1.48839e-11 0)
(0.005 -1.86739e-11 0)
(0.005 -2.26532e-11 0)
(0.005 -2.68372e-11 0)
(0.005 -3.12429e-11 0)
(0.005 -3.58879e-11 0)
(0.005 -4.07901e-11 0)
(0.005 -4.59677e-11 0)
(0.005 -5.14389e-11 0)
(0.005 -5.72221e-11 0)
(0.005 -6.33359e-11 0)
(0.005 -6.9799e-11 0)
(0.005 -7.66305e-11 0)
(0.005 -8.38497e-11 0)
(0.005 -9.14762e-11 0)
(0.005 -9.95299e-11 0)
(0.005 -1.08031e-10 0)
(0.005 -1.17001e-10 0)
(0.005 -1.2646e-10 0)
(0.005 -1.3643e-10 0)
(0.005 -1.46933e-10 0)
(0.005 -1.5799e-10 0)
(0.005 -1.69625e-10 0)
(0.005 -1.8186e-10 0)
(0.005 -1.94719e-10 0)
(0.005 -2.08225e-10 0)
(0.005 -2.22402e-10 0)
(0.005 -2.37273e-10 0)
(0.005 -2.52864e-10 0)
(0.005 -2.69199e-10 0)
(0.005 -2.86302e-10 0)
(0.005 -3.04198e-10 0)
(0.005 -3.22911e-10 0)
(0.005 -3.42467e-10 0)
(0.005 -3.6289e-10 0)
(0.005 -3.84204e-10 0)
(0.005 -4.06434e-10 0)
(0.005 -4.29604e-10 0)
(0.005 -4.53737e-10 0)
(0.005 -4.78857e-10 0)
(0.005 -5.04987e-10 0)
(0.005 -5.32148e-10 0)
(0.005 -5.60361e-10 0)
(0.005 -5.89649e-10 0)
(0.005 -6.20029e-10 0)
(0.005 -6.51521e-10 0)
(0.005 -6.84142e-10 0)
(0.005 -7.17908e-10 0)
(0.005 -7.52835e-10 0)
(0.005 -7.88935e-10 0)
(0.005 -8.26219e-10 0)
(0.005 -8.64699e-10 0)
(0.005 -9.04381e-10 0)
(0.005 -9.45271e-10 0)
(0.005 -9.87372e-10 0)
(0.005 -1.03068e-09 0)
(0.005 -1.07521e-09 0)
(0.005 -1.12094e-09 0)
(0.005 -1.16786e-09 0)
(0.005 -1.21598e-09 0)
(0.005 -1.26526e-09 0)
(0.005 -1.3157e-09 0)
(0.005 -1.36727e-09 0)
(0.005 -1.41994e-09 0)
(0.005 -1.47369e-09 0)
(0.005 -1.52848e-09 0)
(0.005 -1.58427e-09 0)
(0.005 -1.641e-09 0)
(0.005 -1.69864e-09 0)
(0.005 -1.75711e-09 0)
(0.005 -1.81636e-09 0)
(0.005 -1.87632e-09 0)
(0.005 -1.93689e-09 0)
(0.005 -1.99801e-09 0)
(0.005 -2.05957e-09 0)
(0.005 -2.12146e-09 0)
(0.005 -2.18357e-09 0)
(0.005 -2.24577e-09 0)
(0.005 -2.30793e-09 0)
(0.005 -2.36988e-09 0)
(0.005 -2.43148e-09 0)
(0.005 -2.49252e-09 0)
(0.005 -2.55282e-09 0)
(0.005 -2.61215e-09 0)
(0.005 -2.67027e-09 0)
(0.005 -2.7269e-09 0)
(0.005 -2.78175e-09 0)
(0.005 -2.83448e-09 0)
(0.005 -2.88473e-09 0)
(0.005 -2.93212e-09 0)
(0.005 -2.97625e-09 0)
(0.005 -3.01664e-09 0)
(0.005 -3.05262e-09 0)
(0.005 -3.08306e-09 0)
(0.005 -3.1062e-09 0)
(0.005 -3.11747e-09 0)
(0.005 -1.35725e-12 0)
(0.005 -4.25115e-12 0)
(0.005 -7.33458e-12 0)
(0.005 -1.05989e-11 0)
(0.005 -1.40409e-11 0)
(0.005 -1.76644e-11 0)
(0.005 -2.14783e-11 0)
(0.005 -2.54948e-11 0)
(0.005 -2.97283e-11 0)
(0.005 -3.41941e-11 0)
(0.005 -3.89086e-11 0)
(0.005 -4.38884e-11 0)
(0.005 -4.91504e-11 0)
(0.005 -5.47121e-11 0)
(0.005 -6.05909e-11 0)
(0.005 -6.68047e-11 0)
(0.005 -7.33716e-11 0)
(0.005 -8.031e-11 0)
(0.005 -8.76386e-11 0)
(0.005 -9.53766e-11 0)
(0.005 -1.03543e-10 0)
(0.005 -1.12158e-10 0)
(0.005 -1.21242e-10 0)
(0.005 -1.30815e-10 0)
(0.005 -1.40898e-10 0)
(0.005 -1.51511e-10 0)
(0.005 -1.62678e-10 0)
(0.005 -1.74419e-10 0)
(0.005 -1.86756e-10 0)
(0.005 -1.99712e-10 0)
(0.005 -2.1331e-10 0)
(0.005 -2.27573e-10 0)
(0.005 -2.42523e-10 0)
(0.005 -2.58185e-10 0)
(0.005 -2.7458e-10 0)
(0.005 -2.91734e-10 0)
(0.005 -3.09668e-10 0)
(0.005 -3.28408e-10 0)
(0.005 -3.47976e-10 0)
(0.005 -3.68395e-10 0)
(0.005 -3.89688e-10 0)
(0.005 -4.11879e-10 0)
(0.005 -4.3499e-10 0)
(0.005 -4.59042e-10 0)
(0.005 -4.84058e-10 0)
(0.005 -5.10058e-10 0)
(0.005 -5.37062e-10 0)
(0.005 -5.65091e-10 0)
(0.005 -5.94163e-10 0)
(0.005 -6.24295e-10 0)
(0.005 -6.55504e-10 0)
(0.005 -6.87806e-10 0)
(0.005 -7.21215e-10 0)
(0.005 -7.55744e-10 0)
(0.005 -7.91403e-10 0)
(0.005 -8.28203e-10 0)
(0.005 -8.66152e-10 0)
(0.005 -9.05254e-10 0)
(0.005 -9.45514e-10 0)
(0.005 -9.86933e-10 0)
(0.005 -1.02951e-09 0)
(0.005 -1.07324e-09 0)
(0.005 -1.11813e-09 0)
(0.005 -1.16415e-09 0)
(0.005 -1.2113e-09 0)
(0.005 -1.25957e-09 0)
(0.005 -1.30892e-09 0)
(0.005 -1.35936e-09 0)
(0.005 -1.41083e-09 0)
(0.005 -1.46333e-09 0)
(0.005 -1.51681e-09 0)
(0.005 -1.57123e-09 0)
(0.005 -1.62655e-09 0)
(0.005 -1.68272e-09 0)
(0.005 -1.73969e-09 0)
(0.005 -1.7974e-09 0)
(0.005 -1.85579e-09 0)
(0.005 -1.91477e-09 0)
(0.005 -1.97428e-09 0)
(0.005 -2.03423e-09 0)
(0.005 -2.09452e-09 0)
(0.005 -2.15504e-09 0)
(0.005 -2.2157e-09 0)
(0.005 -2.27636e-09 0)
(0.005 -2.33688e-09 0)
(0.005 -2.39712e-09 0)
(0.005 -2.45692e-09 0)
(0.005 -2.51608e-09 0)
(0.005 -2.5744e-09 0)
(0.005 -2.63165e-09 0)
(0.005 -2.68756e-09 0)
(0.005 -2.74183e-09 0)
(0.005 -2.79411e-09 0)
(0.005 -2.844e-09 0)
(0.005 -2.89102e-09 0)
(0.005 -2.93455e-09 0)
(0.005 -2.97366e-09 0)
(0.005 -3.00686e-09 0)
(0.005 -3.03177e-09 0)
(0.005 -3.04482e-09 0)
(0.005 -1.26619e-12 0)
(0.005 -3.97566e-12 0)
(0.005 -6.87749e-12 0)
(0.005 -9.96586e-12 0)
(0.005 -1.32372e-11 0)
(0.005 -1.66931e-11 0)
(0.005 -2.03399e-11 0)
(0.005 -2.41875e-11 0)
(0.005 -2.82477e-11 0)
(0.005 -3.2534e-11 0)
(0.005 -3.70609e-11 0)
(0.005 -4.18437e-11 0)
(0.005 -4.68981e-11 0)
(0.005 -5.22402e-11 0)
(0.005 -5.78865e-11 0)
(0.005 -6.38539e-11 0)
(0.005 -7.01595e-11 0)
(0.005 -7.68209e-11 0)
(0.005 -8.38558e-11 0)
(0.005 -9.12825e-11 0)
(0.005 -9.91193e-11 0)
(0.005 -1.07385e-10 0)
(0.005 -1.16099e-10 0)
(0.005 -1.25281e-10 0)
(0.005 -1.3495e-10 0)
(0.005 -1.45127e-10 0)
(0.005 -1.55832e-10 0)
(0.005 -1.67086e-10 0)
(0.005 -1.78911e-10 0)
(0.005 -1.91326e-10 0)
(0.005 -2.04355e-10 0)
(0.005 -2.18018e-10 0)
(0.005 -2.32339e-10 0)
(0.005 -2.47337e-10 0)
(0.005 -2.63037e-10 0)
(0.005 -2.79461e-10 0)
(0.005 -2.96629e-10 0)
(0.005 -3.14566e-10 0)
(0.005 -3.33293e-10 0)
(0.005 -3.52831e-10 0)
(0.005 -3.73204e-10 0)
(0.005 -3.94432e-10 0)
(0.005 -4.16537e-10 0)
(0.005 -4.3954e-10 0)
(0.005 -4.63461e-10 0)
(0.005 -4.8832e-10 0)
(0.005 -5.14136e-10 0)
(0.005 -5.40928e-10 0)
(0.005 -5.68714e-10 0)
(0.005 -5.9751e-10 0)
(0.005 -6.27332e-10 0)
(0.005 -6.58195e-10 0)
(0.005 -6.90113e-10 0)
(0.005 -7.23098e-10 0)
(0.005 -7.5716e-10 0)
(0.005 -7.9231e-10 0)
(0.005 -8.28556e-10 0)
(0.005 -8.65902e-10 0)
(0.005 -9.04354e-10 0)
(0.005 -9.43913e-10 0)
(0.005 -9.84581e-10 0)
(0.005 -1.02635e-09 0)
(0.005 -1.06923e-09 0)
(0.005 -1.1132e-09 0)
(0.005 -1.15825e-09 0)
(0.005 -1.20438e-09 0)
(0.005 -1.25157e-09 0)
(0.005 -1.29979e-09 0)
(0.005 -1.34904e-09 0)
(0.005 -1.39928e-09 0)
(0.005 -1.45049e-09 0)
(0.005 -1.50263e-09 0)
(0.005 -1.55567e-09 0)
(0.005 -1.60958e-09 0)
(0.005 -1.6643e-09 0)
(0.005 -1.7198e-09 0)
(0.005 -1.77601e-09 0)
(0.005 -1.83289e-09 0)
(0.005 -1.89036e-09 0)
(0.005 -1.94837e-09 0)
(0.005 -2.00683e-09 0)
(0.005 -2.06567e-09 0)
(0.005 -2.12479e-09 0)
(0.005 -2.18411e-09 0)
(0.005 -2.2435e-09 0)
(0.005 -2.30285e-09 0)
(0.005 -2.36203e-09 0)
(0.005 -2.42088e-09 0)
(0.005 -2.47923e-09 0)
(0.005 -2.53686e-09 0)
(0.005 -2.59355e-09 0)
(0.005 -2.649e-09 0)
(0.005 -2.70286e-09 0)
(0.005 -2.7547e-09 0)
(0.005 -2.80397e-09 0)
(0.005 -2.84989e-09 0)
(0.005 -2.89136e-09 0)
(0.005 -2.92669e-09 0)
(0.005 -2.9534e-09 0)
(0.005 -2.96871e-09 0)
(0.005 -1.18296e-12 0)
(0.005 -3.7211e-12 0)
(0.005 -6.45065e-12 0)
(0.005 -9.36864e-12 0)
(0.005 -1.24719e-11 0)
(0.005 -1.5761e-11 0)
(0.005 -1.92407e-11 0)
(0.005 -2.29187e-11 0)
(0.005 -2.68053e-11 0)
(0.005 -3.09121e-11 0)
(0.005 -3.5252e-11 0)
(0.005 -3.98389e-11 0)
(0.005 -4.46871e-11 0)
(0.005 -4.98117e-11 0)
(0.005 -5.52281e-11 0)
(0.005 -6.09522e-11 0)
(0.005 -6.70001e-11 0)
(0.005 -7.33883e-11 0)
(0.005 -8.01339e-11 0)
(0.005 -8.7254e-11 0)
(0.005 -9.47662e-11 0)
(0.005 -1.02688e-10 0)
(0.005 -1.11039e-10 0)
(0.005 -1.19836e-10 0)
(0.005 -1.29099e-10 0)
(0.005 -1.38846e-10 0)
(0.005 -1.49098e-10 0)
(0.005 -1.59874e-10 0)
(0.005 -1.71194e-10 0)
(0.005 -1.83079e-10 0)
(0.005 -1.95548e-10 0)
(0.005 -2.08623e-10 0)
(0.005 -2.22324e-10 0)
(0.005 -2.36672e-10 0)
(0.005 -2.51689e-10 0)
(0.005 -2.67395e-10 0)
(0.005 -2.83811e-10 0)
(0.005 -3.0096e-10 0)
(0.005 -3.18861e-10 0)
(0.005 -3.37535e-10 0)
(0.005 -3.57004e-10 0)
(0.005 -3.77288e-10 0)
(0.005 -3.98406e-10 0)
(0.005 -4.20379e-10 0)
(0.005 -4.43225e-10 0)
(0.005 -4.66964e-10 0)
(0.005 -4.91615e-10 0)
(0.005 -5.17193e-10 0)
(0.005 -5.43717e-10 0)
(0.005 -5.71202e-10 0)
(0.005 -5.99664e-10 0)
(0.005 -6.29116e-10 0)
(0.005 -6.59572e-10 0)
(0.005 -6.91043e-10 0)
(0.005 -7.2354e-10 0)
(0.005 -7.57072e-10 0)
(0.005 -7.91647e-10 0)
(0.005 -8.27272e-10 0)
(0.005 -8.63951e-10 0)
(0.005 -9.01687e-10 0)
(0.005 -9.40481e-10 0)
(0.005 -9.80333e-10 0)
(0.005 -1.02124e-09 0)
(0.005 -1.0632e-09 0)
(0.005 -1.1062e-09 0)
(0.005 -1.15023e-09 0)
(0.005 -1.19528e-09 0)
(0.005 -1.24135e-09 0)
(0.005 -1.2884e-09 0)
(0.005 -1.33643e-09 0)
(0.005 -1.38541e-09 0)
(0.005 -1.43531e-09 0)
(0.005 -1.48612e-09 0)
(0.005 -1.53779e-09 0)
(0.005 -1.5903e-09 0)
(0.005 -1.64361e-09 0)
(0.005 -1.69768e-09 0)
(0.005 -1.75246e-09 0)
(0.005 -1.80791e-09 0)
(0.005 -1.86399e-09 0)
(0.005 -1.92062e-09 0)
(0.005 -1.97775e-09 0)
(0.005 -2.03532e-09 0)
(0.005 -2.09324e-09 0)
(0.005 -2.15144e-09 0)
(0.005 -2.20981e-09 0)
(0.005 -2.26826e-09 0)
(0.005 -2.32665e-09 0)
(0.005 -2.38482e-09 0)
(0.005 -2.44261e-09 0)
(0.005 -2.49978e-09 0)
(0.005 -2.55605e-09 0)
(0.005 -2.61107e-09 0)
(0.005 -2.66437e-09 0)
(0.005 -2.71531e-09 0)
(0.005 -2.76302e-09 0)
(0.005 -2.80625e-09 0)
(0.005 -2.84319e-09 0)
(0.005 -2.87137e-09 0)
(0.005 -2.88802e-09 0)
(0.005 -1.10603e-12 0)
(0.005 -3.48419e-12 0)
(0.005 -6.05047e-12 0)
(0.005 -8.80437e-12 0)
(0.005 -1.17434e-11 0)
(0.005 -1.4868e-11 0)
(0.005 -1.81816e-11 0)
(0.005 -2.16909e-11 0)
(0.005 -2.54044e-11 0)
(0.005 -2.93324e-11 0)
(0.005 -3.34862e-11 0)
(0.005 -3.78785e-11 0)
(0.005 -4.25224e-11 0)
(0.005 -4.74318e-11 0)
(0.005 -5.26211e-11 0)
(0.005 -5.8105e-11 0)
(0.005 -6.38989e-11 0)
(0.005 -7.00182e-11 0)
(0.005 -7.6479e-11 0)
(0.005 -8.32977e-11 0)
(0.005 -9.04907e-11 0)
(0.005 -9.80752e-11 0)
(0.005 -1.06068e-10 0)
(0.005 -1.14488e-10 0)
(0.005 -1.23352e-10 0)
(0.005 -1.32678e-10 0)
(0.005 -1.42485e-10 0)
(0.005 -1.52792e-10 0)
(0.005 -1.63617e-10 0)
(0.005 -1.7498e-10 0)
(0.005 -1.86901e-10 0)
(0.005 -1.99398e-10 0)
(0.005 -2.12492e-10 0)
(0.005 -2.26203e-10 0)
(0.005 -2.4055e-10 0)
(0.005 -2.55553e-10 0)
(0.005 -2.71232e-10 0)
(0.005 -2.87608e-10 0)
(0.005 -3.047e-10 0)
(0.005 -3.22528e-10 0)
(0.005 -3.41111e-10 0)
(0.005 -3.60469e-10 0)
(0.005 -3.8062e-10 0)
(0.005 -4.01584e-10 0)
(0.005 -4.23379e-10 0)
(0.005 -4.46022e-10 0)
(0.005 -4.6953e-10 0)
(0.005 -4.93921e-10 0)
(0.005 -5.19209e-10 0)
(0.005 -5.45411e-10 0)
(0.005 -5.72541e-10 0)
(0.005 -6.00612e-10 0)
(0.005 -6.29636e-10 0)
(0.005 -6.59625e-10 0)
(0.005 -6.9059e-10 0)
(0.005 -7.22539e-10 0)
(0.005 -7.55481e-10 0)
(0.005 -7.89421e-10 0)
(0.005 -8.24366e-10 0)
(0.005 -8.60317e-10 0)
(0.005 -8.97279e-10 0)
(0.005 -9.3525e-10 0)
(0.005 -9.74231e-10 0)
(0.005 -1.01422e-09 0)
(0.005 -1.0552e-09 0)
(0.005 -1.09719e-09 0)
(0.005 -1.14016e-09 0)
(0.005 -1.1841e-09 0)
(0.005 -1.22901e-09 0)
(0.005 -1.27487e-09 0)
(0.005 -1.32166e-09 0)
(0.005 -1.36937e-09 0)
(0.005 -1.41798e-09 0)
(0.005 -1.46746e-09 0)
(0.005 -1.51779e-09 0)
(0.005 -1.56894e-09 0)
(0.005 -1.62089e-09 0)
(0.005 -1.67361e-09 0)
(0.005 -1.72705e-09 0)
(0.005 -1.78119e-09 0)
(0.005 -1.83599e-09 0)
(0.005 -1.8914e-09 0)
(0.005 -1.94738e-09 0)
(0.005 -2.00386e-09 0)
(0.005 -2.06079e-09 0)
(0.005 -2.1181e-09 0)
(0.005 -2.1757e-09 0)
(0.005 -2.23347e-09 0)
(0.005 -2.2913e-09 0)
(0.005 -2.349e-09 0)
(0.005 -2.40638e-09 0)
(0.005 -2.46314e-09 0)
(0.005 -2.51892e-09 0)
(0.005 -2.57322e-09 0)
(0.005 -2.62533e-09 0)
(0.005 -2.67432e-09 0)
(0.005 -2.71883e-09 0)
(0.005 -2.75698e-09 0)
(0.005 -2.78625e-09 0)
(0.005 -2.80371e-09 0)
(0.005 -1.03438e-12 0)
(0.005 -3.26254e-12 0)
(0.005 -5.67406e-12 0)
(0.005 -8.27047e-12 0)
(0.005 -1.10502e-11 0)
(0.005 -1.40134e-11 0)
(0.005 -1.71634e-11 0)
(0.005 -2.05056e-11 0)
(0.005 -2.40474e-11 0)
(0.005 -2.77978e-11 0)
(0.005 -3.17672e-11 0)
(0.005 -3.59667e-11 0)
(0.005 -4.04085e-11 0)
(0.005 -4.51053e-11 0)
(0.005 -5.00705e-11 0)
(0.005 -5.53178e-11 0)
(0.005 -6.08615e-11 0)
(0.005 -6.67164e-11 0)
(0.005 -7.28974e-11 0)
(0.005 -7.94199e-11 0)
(0.005 -8.62997e-11 0)
(0.005 -9.35528e-11 0)
(0.005 -1.01196e-10 0)
(0.005 -1.09245e-10 0)
(0.005 -1.17717e-10 0)
(0.005 -1.26631e-10 0)
(0.005 -1.36002e-10 0)
(0.005 -1.45849e-10 0)
(0.005 -1.5619e-10 0)
(0.005 -1.67043e-10 0)
(0.005 -1.78426e-10 0)
(0.005 -1.90359e-10 0)
(0.005 -2.02858e-10 0)
(0.005 -2.15945e-10 0)
(0.005 -2.29636e-10 0)
(0.005 -2.43951e-10 0)
(0.005 -2.5891e-10 0)
(0.005 -2.7453e-10 0)
(0.005 -2.9083e-10 0)
(0.005 -3.0783e-10 0)
(0.005 -3.25547e-10 0)
(0.005 -3.44e-10 0)
(0.005 -3.63206e-10 0)
(0.005 -3.83183e-10 0)
(0.005 -4.03949e-10 0)
(0.005 -4.2552e-10 0)
(0.005 -4.47913e-10 0)
(0.005 -4.71142e-10 0)
(0.005 -4.95224e-10 0)
(0.005 -5.20172e-10 0)
(0.005 -5.46e-10 0)
(0.005 -5.72722e-10 0)
(0.005 -6.00348e-10 0)
(0.005 -6.2889e-10 0)
(0.005 -6.58358e-10 0)
(0.005 -6.88761e-10 0)
(0.005 -7.20107e-10 0)
(0.005 -7.52402e-10 0)
(0.005 -7.85652e-10 0)
(0.005 -8.19862e-10 0)
(0.005 -8.55033e-10 0)
(0.005 -8.91169e-10 0)
(0.005 -9.28268e-10 0)
(0.005 -9.6633e-10 0)
(0.005 -1.00535e-09 0)
(0.005 -1.04533e-09 0)
(0.005 -1.08626e-09 0)
(0.005 -1.12814e-09 0)
(0.005 -1.17095e-09 0)
(0.005 -1.21469e-09 0)
(0.005 -1.25934e-09 0)
(0.005 -1.3049e-09 0)
(0.005 -1.35135e-09 0)
(0.005 -1.39868e-09 0)
(0.005 -1.44686e-09 0)
(0.005 -1.4959e-09 0)
(0.005 -1.54576e-09 0)
(0.005 -1.59642e-09 0)
(0.005 -1.64788e-09 0)
(0.005 -1.7001e-09 0)
(0.005 -1.75306e-09 0)
(0.005 -1.80673e-09 0)
(0.005 -1.86108e-09 0)
(0.005 -1.91608e-09 0)
(0.005 -1.97168e-09 0)
(0.005 -2.02783e-09 0)
(0.005 -2.08446e-09 0)
(0.005 -2.14147e-09 0)
(0.005 -2.19876e-09 0)
(0.005 -2.25617e-09 0)
(0.005 -2.31348e-09 0)
(0.005 -2.37043e-09 0)
(0.005 -2.42661e-09 0)
(0.005 -2.4815e-09 0)
(0.005 -2.53437e-09 0)
(0.005 -2.5842e-09 0)
(0.005 -2.62957e-09 0)
(0.005 -2.66856e-09 0)
(0.005 -2.69859e-09 0)
(0.005 -2.71655e-09 0)
(0.005 -9.67283e-13 0)
(0.005 -3.05433e-12 0)
(0.005 -5.31907e-12 0)
(0.005 -7.76466e-12 0)
(0.005 -1.03903e-11 0)
(0.005 -1.31964e-11 0)
(0.005 -1.61858e-11 0)
(0.005 -1.93634e-11 0)
(0.005 -2.27357e-11 0)
(0.005 -2.63108e-11 0)
(0.005 -3.00978e-11 0)
(0.005 -3.41069e-11 0)
(0.005 -3.83492e-11 0)
(0.005 -4.28364e-11 0)
(0.005 -4.75808e-11 0)
(0.005 -5.25952e-11 0)
(0.005 -5.78931e-11 0)
(0.005 -6.34882e-11 0)
(0.005 -6.93945e-11 0)
(0.005 -7.56266e-11 0)
(0.005 -8.21993e-11 0)
(0.005 -8.91277e-11 0)
(0.005 -9.64274e-11 0)
(0.005 -1.04114e-10 0)
(0.005 -1.12204e-10 0)
(0.005 -1.20713e-10 0)
(0.005 -1.29658e-10 0)
(0.005 -1.39055e-10 0)
(0.005 -1.48922e-10 0)
(0.005 -1.59276e-10 0)
(0.005 -1.70135e-10 0)
(0.005 -1.81515e-10 0)
(0.005 -1.93434e-10 0)
(0.005 -2.0591e-10 0)
(0.005 -2.18961e-10 0)
(0.005 -2.32605e-10 0)
(0.005 -2.46858e-10 0)
(0.005 -2.6174e-10 0)
(0.005 -2.77268e-10 0)
(0.005 -2.93459e-10 0)
(0.005 -3.1033e-10 0)
(0.005 -3.279e-10 0)
(0.005 -3.46183e-10 0)
(0.005 -3.65198e-10 0)
(0.005 -3.84961e-10 0)
(0.005 -4.05486e-10 0)
(0.005 -4.2679e-10 0)
(0.005 -4.48886e-10 0)
(0.005 -4.71791e-10 0)
(0.005 -4.95516e-10 0)
(0.005 -5.20075e-10 0)
(0.005 -5.45481e-10 0)
(0.005 -5.71744e-10 0)
(0.005 -5.98875e-10 0)
(0.005 -6.26884e-10 0)
(0.005 -6.5578e-10 0)
(0.005 -6.8557e-10 0)
(0.005 -7.16262e-10 0)
(0.005 -7.47861e-10 0)
(0.005 -7.80372e-10 0)
(0.005 -8.13798e-10 0)
(0.005 -8.48144e-10 0)
(0.005 -8.83409e-10 0)
(0.005 -9.19595e-10 0)
(0.005 -9.56701e-10 0)
(0.005 -9.94726e-10 0)
(0.005 -1.03367e-09 0)
(0.005 -1.07352e-09 0)
(0.005 -1.11428e-09 0)
(0.005 -1.15595e-09 0)
(0.005 -1.19851e-09 0)
(0.005 -1.24197e-09 0)
(0.005 -1.28631e-09 0)
(0.005 -1.33152e-09 0)
(0.005 -1.37761e-09 0)
(0.005 -1.42456e-09 0)
(0.005 -1.47236e-09 0)
(0.005 -1.521e-09 0)
(0.005 -1.57048e-09 0)
(0.005 -1.62079e-09 0)
(0.005 -1.67191e-09 0)
(0.005 -1.72383e-09 0)
(0.005 -1.77653e-09 0)
(0.005 -1.83e-09 0)
(0.005 -1.8842e-09 0)
(0.005 -1.9391e-09 0)
(0.005 -1.99465e-09 0)
(0.005 -2.05076e-09 0)
(0.005 -2.10734e-09 0)
(0.005 -2.16424e-09 0)
(0.005 -2.22125e-09 0)
(0.005 -2.27809e-09 0)
(0.005 -2.33435e-09 0)
(0.005 -2.38949e-09 0)
(0.005 -2.44274e-09 0)
(0.005 -2.49303e-09 0)
(0.005 -2.53891e-09 0)
(0.005 -2.57841e-09 0)
(0.005 -2.60891e-09 0)
(0.005 -2.62716e-09 0)
(0.005 -9.04218e-13 0)
(0.005 -2.85817e-12 0)
(0.005 -4.9836e-12 0)
(0.005 -7.28494e-12 0)
(0.005 -9.76206e-12 0)
(0.005 -1.24156e-11 0)
(0.005 -1.52484e-11 0)
(0.005 -1.82647e-11 0)
(0.005 -2.14704e-11 0)
(0.005 -2.48728e-11 0)
(0.005 -2.84802e-11 0)
(0.005 -3.23017e-11 0)
(0.005 -3.63475e-11 0)
(0.005 -4.06284e-11 0)
(0.005 -4.51558e-11 0)
(0.005 -4.99415e-11 0)
(0.005 -5.49981e-11 0)
(0.005 -6.03383e-11 0)
(0.005 -6.59754e-11 0)
(0.005 -7.19229e-11 0)
(0.005 -7.8195e-11 0)
(0.005 -8.48057e-11 0)
(0.005 -9.17697e-11 0)
(0.005 -9.91019e-11 0)
(0.005 -1.06817e-10 0)
(0.005 -1.14931e-10 0)
(0.005 -1.2346e-10 0)
(0.005 -1.32418e-10 0)
(0.005 -1.41823e-10 0)
(0.005 -1.5169e-10 0)
(0.005 -1.62036e-10 0)
(0.005 -1.72877e-10 0)
(0.005 -1.84229e-10 0)
(0.005 -1.9611e-10 0)
(0.005 -2.08537e-10 0)
(0.005 -2.21525e-10 0)
(0.005 -2.35092e-10 0)
(0.005 -2.49254e-10 0)
(0.005 -2.64029e-10 0)
(0.005 -2.79431e-10 0)
(0.005 -2.95479e-10 0)
(0.005 -3.12187e-10 0)
(0.005 -3.29572e-10 0)
(0.005 -3.47649e-10 0)
(0.005 -3.66434e-10 0)
(0.005 -3.8594e-10 0)
(0.005 -4.06184e-10 0)
(0.005 -4.27178e-10 0)
(0.005 -4.48936e-10 0)
(0.005 -4.71471e-10 0)
(0.005 -4.94795e-10 0)
(0.005 -5.18919e-10 0)
(0.005 -5.43855e-10 0)
(0.005 -5.69613e-10 0)
(0.005 -5.96202e-10 0)
(0.005 -6.23631e-10 0)
(0.005 -6.51908e-10 0)
(0.005 -6.81039e-10 0)
(0.005 -7.11032e-10 0)
(0.005 -7.4189e-10 0)
(0.005 -7.73619e-10 0)
(0.005 -8.06222e-10 0)
(0.005 -8.39703e-10 0)
(0.005 -8.74063e-10 0)
(0.005 -9.09304e-10 0)
(0.005 -9.45426e-10 0)
(0.005 -9.82429e-10 0)
(0.005 -1.02031e-09 0)
(0.005 -1.05908e-09 0)
(0.005 -1.09872e-09 0)
(0.005 -1.13925e-09 0)
(0.005 -1.18065e-09 0)
(0.005 -1.22292e-09 0)
(0.005 -1.26607e-09 0)
(0.005 -1.3101e-09 0)
(0.005 -1.355e-09 0)
(0.005 -1.40077e-09 0)
(0.005 -1.44742e-09 0)
(0.005 -1.49494e-09 0)
(0.005 -1.54334e-09 0)
(0.005 -1.59262e-09 0)
(0.005 -1.64278e-09 0)