/*--------------------------------*- C++ -*----------------------------------*\
  =========                 |
  \\      /  F ield         | OpenFOAM: The Open Source CFD Toolbox
   \\    /   O peration     | Website:  https://openfoam.org
    \\  /    A nd           | Version:  11
     \\/     M anipulation  |
\*---------------------------------------------------------------------------*/
FoamFile
{
    format      ascii;
    class       volScalarField;
    location    "640";
    object      omega;
}
// * * * * * * * * * * * * * * * * * * * * * * * * * * * * * * * * * * * * * //

dimensions      [0 0 -1 0 0 0 0];

internalField   nonuniform List<scalar> 
10000
(
0.961692
0.892185
0.829085
0.771728
0.719523
0.671944
0.628523
0.588843
0.552532
0.519257
0.488724
0.460666
0.434849
0.411059
0.389108
0.368826
0.35006
0.332674
0.316544
0.30156
0.287623
0.274642
0.262537
0.251234
0.240668
0.230778
0.22151
0.212816
0.204649
0.19697
0.189742
0.18293
0.176505
0.170437
0.164702
0.159276
0.154137
0.149265
0.144643
0.140253
0.136081
0.132112
0.128333
0.124732
0.121298
0.11802
0.11489
0.111898
0.109036
0.106297
0.103673
0.101158
0.0987456
0.0964303
0.0942067
0.0920697
0.0900149
0.0880377
0.0861341
0.0843003
0.0825328
0.080828
0.0791829
0.0775945
0.07606
0.0745766
0.073142
0.0717537
0.0704096
0.0691074
0.0678451
0.066621
0.0654331
0.0642797
0.0631591
0.0620699
0.0610105
0.0599795
0.0589756
0.0579974
0.0570439
0.0561138
0.0552061
0.05432
0.0534546
0.0526092
0.0517835
0.0509772
0.0501904
0.0494238
0.0486786
0.0479568
0.0472616
0.0465976
0.0459718
0.0453939
0.0448775
0.0444417
0.0441129
0.0439266
0.961692
0.892185
0.829085
0.771728
0.719523
0.671944
0.628523
0.588843
0.552532
0.519257
0.488724
0.460666
0.434849
0.411059
0.389108
0.368826
0.35006
0.332674
0.316544
0.30156
0.287623
0.274642
0.262537
0.251234
0.240668
0.230778
0.22151
0.212816
0.204649
0.19697
0.189742
0.18293
0.176505
0.170437
0.164702
0.159276
0.154137
0.149265
0.144643
0.140253
0.136081
0.132112
0.128333
0.124732
0.121298
0.11802
0.11489
0.111898
0.109036
0.106297
0.103673
0.101158
0.0987458
0.0964305
0.0942069
0.09207
0.0900151
0.088038
0.0861344
0.0843006
0.0825331
0.0808283
0.0791832
0.0775948
0.0760603
0.074577
0.0731424
0.0717541
0.07041
0.0691078
0.0678456
0.0666214
0.0654335
0.0642802
0.0631596
0.0620704
0.0610111
0.0599801
0.0589762
0.0579981
0.0570445
0.0561144
0.0552068
0.0543207
0.0534553
0.05261
0.0517843
0.050978
0.0501912
0.0494247
0.0486795
0.0479577
0.0472624
0.0465985
0.0459727
0.0453948
0.0448784
0.0444426
0.0441138
0.0439275
0.961692
0.892185
0.829085
0.771728
0.719523
0.671944
0.628523
0.588843
0.552532
0.519257
0.488724
0.460666
0.434849
0.411059
0.389108
0.368826
0.35006
0.332674
0.316544
0.30156
0.287623
0.274642
0.262537
0.251234
0.240668
0.230778
0.22151
0.212816
0.204649
0.19697
0.189742
0.18293
0.176505
0.170438
0.164703
0.159276
0.154137
0.149265
0.144643
0.140254
0.136081
0.132112
0.128333
0.124732
0.121298
0.118021
0.11489
0.111899
0.109037
0.106297
0.103674
0.101159
0.0987463
0.096431
0.0942074
0.0920705
0.0900156
0.0880385
0.0861349
0.0843012
0.0825337
0.0808289
0.0791839
0.0775955
0.076061
0.0745777
0.0731431
0.0717549
0.0704108
0.0691086
0.0678464
0.0666223
0.0654344
0.0642811
0.0631606
0.0620715
0.0610121
0.0599812
0.0589773
0.0579992
0.0570457
0.0561157
0.0552081
0.054322
0.0534567
0.0526114
0.0517857
0.0509795
0.0501928
0.0494263
0.0486811
0.0479593
0.0472641
0.0466002
0.0459744
0.0453965
0.0448801
0.0444443
0.0441155
0.0439292
0.961692
0.892185
0.829085
0.771728
0.719523
0.671944
0.628523
0.588843
0.552532
0.519257
0.488724
0.460667
0.434849
0.411059
0.389109
0.368826
0.35006
0.332674
0.316544
0.30156
0.287623
0.274642
0.262537
0.251234
0.240668
0.230778
0.221511
0.212816
0.204649
0.196971
0.189742
0.182931
0.176505
0.170438
0.164703
0.159276
0.154137
0.149266
0.144644
0.140254
0.136082
0.132112
0.128333
0.124732
0.121298
0.118021
0.114891
0.111899
0.109037
0.106298
0.103674
0.101159
0.0987469
0.0964317
0.0942081
0.0920712
0.0900164
0.0880393
0.0861358
0.084302
0.0825345
0.0808298
0.0791848
0.0775965
0.076062
0.0745788
0.0731442
0.071756
0.0704119
0.0691098
0.0678477
0.0666236
0.0654358
0.0642825
0.0631621
0.0620729
0.0610137
0.0599828
0.058979
0.0580009
0.0570475
0.0561175
0.05521
0.054324
0.0534587
0.0526135
0.0517879
0.0509817
0.0501951
0.0494286
0.0486835
0.0479618
0.0472666
0.0466028
0.045977
0.0453991
0.0448827
0.0444469
0.0441181
0.0439318
0.961692
0.892185
0.829085
0.771728
0.719523
0.671944
0.628523
0.588843
0.552532
0.519257
0.488724
0.460667
0.434849
0.41106
0.389109
0.368826
0.35006
0.332674
0.316544
0.30156
0.287623
0.274642
0.262537
0.251235
0.240668
0.230779
0.221511
0.212816
0.20465
0.196971
0.189743
0.182931
0.176506
0.170438
0.164703
0.159277
0.154138
0.149266
0.144644
0.140254
0.136082
0.132113
0.128334
0.124733
0.121299
0.118022
0.114892
0.1119
0.109038
0.106299
0.103675
0.10116
0.0987478
0.0964325
0.094209
0.0920722
0.0900174
0.0880403
0.0861368
0.0843032
0.0825357
0.080831
0.0791861
0.0775978
0.0760633
0.0745801
0.0731456
0.0717575
0.0704134
0.0691114
0.0678493
0.0666253
0.0654375
0.0642843
0.0631639
0.0620749
0.0610157
0.0599849
0.0589811
0.0580032
0.0570498
0.0561199
0.0552125
0.0543266
0.0534614
0.0526163
0.0517907
0.0509846
0.0501981
0.0494317
0.0486867
0.047965
0.0472699
0.046606
0.0459803
0.0454024
0.044886
0.0444502
0.0441214
0.043935
0.961692
0.892185
0.829085
0.771728
0.719523
0.671944
0.628523
0.588843
0.552532
0.519257
0.488724
0.460667
0.434849
0.41106
0.389109
0.368826
0.350061
0.332674
0.316544
0.301561
0.287623
0.274643
0.262537
0.251235
0.240669
0.230779
0.221511
0.212816
0.20465
0.196971
0.189743
0.182931
0.176506
0.170439
0.164704
0.159277
0.154138
0.149267
0.144645
0.140255
0.136083
0.132114
0.128335
0.124734
0.1213
0.118023
0.114892
0.111901
0.109039
0.1063
0.103676
0.101161
0.0987488
0.0964336
0.0942101
0.0920733
0.0900186
0.0880416
0.0861381
0.0843045
0.0825371
0.0808325
0.0791876
0.0775993
0.0760649
0.0745818
0.0731474
0.0717593
0.0704153
0.0691133
0.0678513
0.0666274
0.0654397
0.0642865
0.0631662
0.0620773
0.0610181
0.0599874
0.0589838
0.0580059
0.0570526
0.0561229
0.0552155
0.0543297
0.0534646
0.0526196
0.0517942
0.0509882
0.0502017
0.0494354
0.0486905
0.0479689
0.0472738
0.04661
0.0459843
0.0454064
0.0448901
0.0444543
0.0441254
0.0439391
0.961692
0.892185
0.829085
0.771728
0.719523
0.671944
0.628523
0.588843
0.552532
0.519257
0.488724
0.460667
0.434849
0.41106
0.389109
0.368827
0.350061
0.332674
0.316545
0.301561
0.287623
0.274643
0.262538
0.251235
0.240669
0.230779
0.221512
0.212817
0.20465
0.196972
0.189743
0.182932
0.176507
0.170439
0.164704
0.159278
0.154139
0.149267
0.144645
0.140256
0.136083
0.132114
0.128335
0.124735
0.121301
0.118023
0.114893
0.111902
0.10904
0.106301
0.103677
0.101162
0.09875
0.0964349
0.0942114
0.0920747
0.09002
0.088043
0.0861397
0.0843061
0.0825387
0.0808342
0.0791893
0.0776011
0.0760668
0.0745838
0.0731494
0.0717614
0.0704175
0.0691156
0.0678536
0.0666298
0.0654422
0.0642891
0.0631689
0.06208
0.061021
0.0599904
0.0589868
0.0580091
0.057056
0.0561263
0.0552191
0.0543334
0.0534684
0.0526235
0.0517982
0.0509923
0.050206
0.0494398
0.0486949
0.0479734
0.0472785
0.0466147
0.0459891
0.0454112
0.0448948
0.044459
0.0441301
0.0439438
0.961692
0.892185
0.829085
0.771728
0.719523
0.671944
0.628523
0.588843
0.552532
0.519257
0.488724
0.460667
0.434849
0.41106
0.389109
0.368827
0.350061
0.332675
0.316545
0.301561
0.287624
0.274643
0.262538
0.251235
0.240669
0.230779
0.221512
0.212817
0.204651
0.196972
0.189744
0.182932
0.176507
0.17044
0.164705
0.159279
0.15414
0.149268
0.144646
0.140256
0.136084
0.132115
0.128336
0.124736
0.121302
0.118025
0.114894
0.111903
0.109041
0.106302
0.103678
0.101163
0.0987514
0.0964363
0.0942129
0.0920762
0.0900216
0.0880447
0.0861414
0.0843079
0.0825406
0.0808361
0.0791913
0.0776032
0.076069
0.074586
0.0731517
0.0717638
0.0704199
0.0691181
0.0678563
0.0666325
0.065445
0.064292
0.0631719
0.0620832
0.0610243
0.0599938
0.0589903
0.0580127
0.0570597
0.0561302
0.0552231
0.0543375
0.0534727
0.0526279
0.0518027
0.050997
0.0502108
0.0494447
0.0487
0.0479786
0.0472837
0.04662
0.0459944
0.0454166
0.0449002
0.0444644
0.0441355
0.0439491
0.961692
0.892185
0.829085
0.771728
0.719523
0.671944
0.628523
0.588843
0.552532
0.519258
0.488724
0.460667
0.434849
0.41106
0.389109
0.368827
0.350061
0.332675
0.316545
0.301561
0.287624
0.274643
0.262538
0.251236
0.24067
0.23078
0.221512
0.212818
0.204651
0.196973
0.189744
0.182933
0.176508
0.17044
0.164705
0.159279
0.15414
0.149269
0.144647
0.140257
0.136085
0.132116
0.128337
0.124737
0.121303
0.118026
0.114896
0.111904
0.109042
0.106303
0.10368
0.101165
0.0987529
0.0964379
0.0942146
0.092078
0.0900234
0.0880465
0.0861433
0.0843099
0.0825426
0.0808382
0.0791935
0.0776055
0.0760714
0.0745884
0.0731542
0.0717664
0.0704227
0.0691209
0.0678592
0.0666355
0.0654481
0.0642953
0.0631753
0.0620867
0.0610279
0.0599975
0.0589942
0.0580167
0.0570638
0.0561344
0.0552275
0.0543421
0.0534774
0.0526328
0.0518078
0.0510022
0.0502161
0.0494502
0.0487056
0.0479843
0.0472895
0.0466259
0.0460003
0.0454225
0.0449062
0.0444703
0.0441415
0.043955
0.961692
0.892185
0.829085
0.771728
0.719523
0.671944
0.628523
0.588843
0.552532
0.519258
0.488724
0.460667
0.43485
0.41106
0.389109
0.368827
0.350061
0.332675
0.316545
0.301562
0.287624
0.274644
0.262539
0.251236
0.24067
0.23078
0.221513
0.212818
0.204652
0.196973
0.189745
0.182934
0.176508
0.170441
0.164706
0.15928
0.154141
0.14927
0.144648
0.140258
0.136086
0.132117
0.128338
0.124738
0.121304
0.118027
0.114897
0.111905
0.109044
0.106305
0.103681
0.101167
0.0987546
0.0964396
0.0942164
0.0920798
0.0900253
0.0880485
0.0861454
0.084312
0.0825449
0.0808406
0.0791959
0.077608
0.0760739
0.0745911
0.073157
0.0717693
0.0704256
0.069124
0.0678624
0.0666389
0.0654516
0.0642988
0.063179
0.0620905
0.0610318
0.0600016
0.0589984
0.0580211
0.0570684
0.0561391
0.0552323
0.0543471
0.0534826
0.0526381
0.0518133
0.0510078
0.0502219
0.0494561
0.0487116
0.0479905
0.0472958
0.0466323
0.0460068
0.045429
0.0449127
0.0444769
0.044148
0.0439615
0.961692
0.892185
0.829085
0.771728
0.719523
0.671944
0.628523
0.588843
0.552532
0.519258
0.488724
0.460667
0.43485
0.41106
0.389109
0.368827
0.350061
0.332675
0.316545
0.301562
0.287624
0.274644
0.262539
0.251236
0.24067
0.230781
0.221513
0.212819
0.204652
0.196974
0.189745
0.182934
0.176509
0.170442
0.164707
0.159281
0.154142
0.149271
0.144649
0.140259
0.136087
0.132118
0.12834
0.124739
0.121305
0.118028
0.114898
0.111907
0.109045
0.106306
0.103683
0.101168
0.0987563
0.0964415
0.0942183
0.0920818
0.0900274
0.0880507
0.0861476
0.0843143
0.0825473
0.0808431
0.0791985
0.0776107
0.0760767
0.074594
0.07316
0.0717724
0.0704288
0.0691273
0.0678658
0.0666424
0.0654552
0.0643026
0.0631829
0.0620945
0.061036
0.0600059
0.0590029
0.0580258
0.0570732
0.0561441
0.0552375
0.0543524
0.0534881
0.0526438
0.0518191
0.0510139
0.0502281
0.0494625
0.0487182
0.0479971
0.0473026
0.0466392
0.0460137
0.045436
0.0449197
0.0444839
0.0441549
0.0439685
0.961692
0.892185
0.829085
0.771728
0.719523
0.671944
0.628523
0.588843
0.552532
0.519258
0.488724
0.460667
0.43485
0.41106
0.389109
0.368827
0.350062
0.332675
0.316546
0.301562
0.287625
0.274644
0.262539
0.251237
0.240671
0.230781
0.221514
0.212819
0.204653
0.196974
0.189746
0.182935
0.17651
0.170443
0.164708
0.159282
0.154143
0.149272
0.14465
0.14026
0.136088
0.13212
0.128341
0.12474
0.121307
0.11803
0.1149
0.111908
0.109047
0.106308
0.103685
0.10117
0.0987582
0.0964434
0.0942203
0.0920839
0.0900296
0.088053
0.08615
0.0843168
0.0825498
0.0808457
0.0792013
0.0776135
0.0760797
0.074597
0.0731631
0.0717756
0.0704322
0.0691308
0.0678695
0.0666462
0.0654591
0.0643067
0.0631871
0.0620989
0.0610405
0.0600106
0.0590077
0.0580307
0.0570783
0.0561494
0.055243
0.0543581
0.0534939
0.0526499
0.0518254
0.0510203
0.0502347
0.0494693
0.0487251
0.0480042
0.0473098
0.0466465
0.0460211
0.0454434
0.0449271
0.0444913
0.0441624
0.0439759
0.961692
0.892185
0.829085
0.771728
0.719523
0.671944
0.628523
0.588843
0.552532
0.519258
0.488724
0.460667
0.43485
0.41106
0.38911
0.368828
0.350062
0.332676
0.316546
0.301562
0.287625
0.274644
0.26254
0.251237
0.240671
0.230782
0.221514
0.21282
0.204653
0.196975
0.189747
0.182936
0.17651
0.170443
0.164709
0.159283
0.154144
0.149273
0.144651
0.140261
0.136089
0.132121
0.128342
0.124742
0.121308
0.118031
0.114901
0.11191
0.109049
0.10631
0.103686
0.101172
0.0987602
0.0964455
0.0942225
0.0920861
0.0900319
0.0880554
0.0861525
0.0843194
0.0825525
0.0808485
0.0792041
0.0776165
0.0760828
0.0746002
0.0731665
0.0717791
0.0704358
0.0691345
0.0678733
0.0666501
0.0654632
0.0643109
0.0631915
0.0621034
0.0610452
0.0600154
0.0590128
0.0580359
0.0570837
0.056155
0.0552488
0.0543641
0.0535001
0.0526562
0.0518319
0.051027
0.0502416
0.0494764
0.0487324
0.0480116
0.0473173
0.0466541
0.0460288
0.0454512
0.044935
0.0444992
0.0441702
0.0439837
0.961692
0.892185
0.829085
0.771728
0.719523
0.671944
0.628523
0.588843
0.552532
0.519258
0.488724
0.460667
0.43485
0.411061
0.38911
0.368828
0.350062
0.332676
0.316546
0.301563
0.287625
0.274645
0.26254
0.251238
0.240672
0.230782
0.221515
0.21282
0.204654
0.196975
0.189747
0.182936
0.176511
0.170444
0.164709
0.159283
0.154145
0.149274
0.144652
0.140263
0.136091
0.132122
0.128343
0.124743
0.121309
0.118033
0.114903
0.111912
0.10905
0.106312
0.103688
0.101174
0.0987623
0.0964476
0.0942247
0.0920885
0.0900343
0.0880579
0.0861551
0.0843221
0.0825553
0.0808514
0.0792071
0.0776196
0.076086
0.0746036
0.0731699
0.0717826
0.0704395
0.0691384
0.0678772
0.0666542
0.0654675
0.0643153
0.063196
0.0621081
0.0610501
0.0600205
0.059018
0.0580413
0.0570893
0.0561608
0.0552547
0.0543702
0.0535065
0.0526628
0.0518387
0.051034
0.0502488
0.0494837
0.0487399
0.0480193
0.0473252
0.0466621
0.0460369
0.0454594
0.0449431
0.0445073
0.0441784
0.0439918
0.961692
0.892185
0.829085
0.771728
0.719523
0.671944
0.628523
0.588843
0.552532
0.519258
0.488724
0.460667
0.43485
0.411061
0.38911
0.368828
0.350062
0.332676
0.316546
0.301563
0.287626
0.274645
0.26254
0.251238
0.240672
0.230782
0.221515
0.212821
0.204655
0.196976
0.189748
0.182937
0.176512
0.170445
0.16471
0.159284
0.154146
0.149275
0.144653
0.140264
0.136092
0.132123
0.128345
0.124744
0.121311
0.118034
0.114905
0.111913
0.109052
0.106313
0.10369
0.101176
0.0987644
0.0964498
0.094227
0.0920908
0.0900368
0.0880604
0.0861577
0.0843248
0.0825582
0.0808544
0.0792102
0.0776228
0.0760893
0.074607
0.0731735
0.0717863
0.0704433
0.0691423
0.0678813
0.0666585
0.0654719
0.0643198
0.0632007
0.062113
0.0610551
0.0600257
0.0590234
0.0580469
0.0570951
0.0561668
0.0552609
0.0543766
0.0535131
0.0526696
0.0518457
0.0510412
0.0502563
0.0494914
0.0487477
0.0480273
0.0473333
0.0466703
0.0460453
0.0454678
0.0449516
0.0445158
0.0441868
0.0440002
0.961692
0.892185
0.829085
0.771728
0.719523
0.671944
0.628523
0.588843
0.552532
0.519258
0.488724
0.460667
0.43485
0.411061
0.38911
0.368828
0.350062
0.332676
0.316547
0.301563
0.287626
0.274645
0.262541
0.251238
0.240672
0.230783
0.221516
0.212821
0.204655
0.196977
0.189749
0.182938
0.176513
0.170446
0.164711
0.159285
0.154147
0.149276
0.144654
0.140265
0.136093
0.132125
0.128346
0.124746
0.121312
0.118036
0.114906
0.111915
0.109054
0.106315
0.103692
0.101178
0.0987665
0.0964521
0.0942293
0.0920933
0.0900393
0.0880631
0.0861605
0.0843277
0.0825611
0.0808574
0.0792134
0.0776261
0.0760927
0.0746105
0.0731771
0.0717901
0.0704472
0.0691464
0.0678855
0.0666628
0.0654764
0.0643245
0.0632056
0.062118
0.0610603
0.060031
0.0590289
0.0580526
0.057101
0.0561729
0.0552673
0.0543832
0.0535198
0.0526766
0.0518529
0.0510487
0.0502639
0.0494992
0.0487557
0.0480355
0.0473416
0.0466788
0.0460539
0.0454765
0.0449603
0.0445245
0.0441955
0.0440089
0.961692
0.892185
0.829085
0.771728
0.719523
0.671944
0.628523
0.588843
0.552532
0.519258
0.488724
0.460667
0.43485
0.411061
0.38911
0.368828
0.350062
0.332676
0.316547
0.301563
0.287626
0.274646
0.262541
0.251239
0.240673
0.230783
0.221516
0.212822
0.204656
0.196977
0.18975
0.182939
0.176514
0.170447
0.164712
0.159286
0.154148
0.149277
0.144655
0.140266
0.136094
0.132126
0.128348
0.124747
0.121314
0.118037
0.114908
0.111917
0.109056
0.106317
0.103694
0.10118
0.0987688
0.0964544
0.0942317
0.0920958
0.0900419
0.0880658
0.0861633
0.0843306
0.0825641
0.0808605
0.0792166
0.0776295
0.0760962
0.0746141
0.0731809
0.071794
0.0704512
0.0691505
0.0678898
0.0666672
0.065481
0.0643292
0.0632105
0.0621231
0.0610655
0.0600365
0.0590346
0.0580585
0.0571071
0.0561791
0.0552737
0.0543899
0.0535267
0.0526837
0.0518603
0.0510562
0.0502717
0.0495072
0.0487639
0.0480439
0.0473502
0.0466875
0.0460626
0.0454853
0.0449692
0.0445334
0.0442044
0.0440178
0.961692
0.892185
0.829085
0.771728
0.719523
0.671944
0.628523
0.588843
0.552532
0.519258
0.488724
0.460667
0.43485
0.411061
0.38911
0.368828
0.350063
0.332676
0.316547
0.301564
0.287626
0.274646
0.262541
0.251239
0.240673
0.230784
0.221517
0.212822
0.204656
0.196978
0.18975
0.182939
0.176514
0.170448
0.164713
0.159287
0.154149
0.149278
0.144656
0.140267
0.136096
0.132127
0.128349
0.124749
0.121316
0.118039
0.11491
0.111919
0.109058
0.106319
0.103696
0.101182
0.098771
0.0964567
0.0942341
0.0920983
0.0900445
0.0880685
0.0861661
0.0843335
0.0825672
0.0808637
0.0792199
0.0776329
0.0760997
0.0746178
0.0731846
0.0717979
0.0704553
0.0691547
0.0678942
0.0666717
0.0654856
0.0643341
0.0632155
0.0621282
0.0610709
0.060042
0.0590403
0.0580644
0.0571132
0.0561855
0.0552803
0.0543966
0.0535337
0.0526909
0.0518677
0.0510639
0.0502796
0.0495153
0.0487722
0.0480524
0.0473588
0.0466963
0.0460715
0.0454943
0.0449783
0.0445425
0.0442135
0.0440268
0.961692
0.892185
0.829085
0.771728
0.719523
0.671944
0.628523
0.588843
0.552532
0.519258
0.488725
0.460667
0.43485
0.411061
0.38911
0.368828
0.350063
0.332677
0.316547
0.301564
0.287627
0.274646
0.262542
0.25124
0.240674
0.230784
0.221517
0.212823
0.204657
0.196979
0.189751
0.18294
0.176515
0.170448
0.164714
0.159288
0.15415
0.149279
0.144658
0.140269
0.136097
0.132129
0.128351
0.12475
0.121317
0.118041
0.114911
0.11192
0.10906
0.106321
0.103698
0.101184
0.0987733
0.0964591
0.0942366
0.0921009
0.0900472
0.0880712
0.086169
0.0843365
0.0825703
0.0808669
0.0792232
0.0776363
0.0761032
0.0746215
0.0731885
0.0718018
0.0704594
0.0691589
0.0678985
0.0666763
0.0654903
0.0643389
0.0632205
0.0621334
0.0610763
0.0600476
0.0590461
0.0580704
0.0571194
0.0561919
0.0552869
0.0544035
0.0535408
0.0526982
0.0518752
0.0510716
0.0502875
0.0495235
0.0487806
0.0480609
0.0473676
0.0467052
0.0460806
0.0455034
0.0449874
0.0445517
0.0442227
0.044036
0.961692
0.892185
0.829084
0.771728
0.719523
0.671944
0.628523
0.588843
0.552532
0.519258
0.488725
0.460668
0.43485
0.411061
0.38911
0.368828
0.350063
0.332677
0.316547
0.301564
0.287627
0.274647
0.262542
0.25124
0.240674
0.230785
0.221518
0.212824
0.204658
0.196979
0.189752
0.182941
0.176516
0.170449
0.164715
0.159289
0.154151
0.14928
0.144659
0.14027
0.136098
0.13213
0.128352
0.124752
0.121319
0.118042
0.114913
0.111922
0.109062
0.106323
0.103701
0.101187
0.0987755
0.0964614
0.0942391
0.0921034
0.0900498
0.088074
0.0861718
0.0843395
0.0825733
0.0808701
0.0792265
0.0776397
0.0761068
0.0746252
0.0731923
0.0718058
0.0704635
0.0691632
0.067903
0.0666808
0.065495
0.0643438
0.0632255
0.0621387
0.0610817
0.0600532
0.0590519
0.0580764
0.0571256
0.0561983
0.0552935
0.0544103
0.0535479
0.0527055
0.0518828
0.0510794
0.0502956
0.0495317
0.0487891
0.0480696
0.0473764
0.0467141
0.0460896
0.0455126
0.0449967
0.0445609
0.0442319
0.0440452
0.961692
0.892185
0.829084
0.771728
0.719523
0.671944
0.628523
0.588843
0.552532
0.519258
0.488725
0.460668
0.43485
0.411061
0.38911
0.368829
0.350063
0.332677
0.316548
0.301564
0.287627
0.274647
0.262542
0.25124
0.240675
0.230785
0.221518
0.212824
0.204658
0.19698
0.189752
0.182942
0.176517
0.17045
0.164716
0.15929
0.154152
0.149281
0.14466
0.140271
0.1361
0.132131
0.128353
0.124753
0.12132
0.118044
0.114915
0.111924
0.109063
0.106325
0.103703
0.101189
0.0987778
0.0964638
0.0942415
0.092106
0.0900525
0.0880768
0.0861747
0.0843424
0.0825764
0.0808733
0.0792299
0.0776432
0.0761104
0.0746289
0.0731961
0.0718098
0.0704676
0.0691675
0.0679074
0.0666854
0.0654997
0.0643487
0.0632306
0.0621439
0.0610871
0.0600588
0.0590577
0.0580824
0.0571318
0.0562047
0.0553002
0.0544172
0.053555
0.0527129
0.0518904
0.0510872
0.0503036
0.0495399
0.0487975
0.0480782
0.0473852
0.0467231
0.0460988
0.0455218
0.0450059
0.0445702
0.0442412
0.0440544
0.961692
0.892185
0.829084
0.771728
0.719523
0.671944
0.628523
0.588843
0.552532
0.519258
0.488725
0.460668
0.43485
0.411061
0.389111
0.368829
0.350063
0.332677
0.316548
0.301564
0.287628
0.274647
0.262543
0.251241
0.240675
0.230786
0.221519
0.212825
0.204659
0.196981
0.189753
0.182942
0.176518
0.170451
0.164717
0.159291
0.154153
0.149282
0.144661
0.140272
0.136101
0.132133
0.128355
0.124755
0.121322
0.118046
0.114917
0.111926
0.109065
0.106327
0.103705
0.101191
0.0987801
0.0964662
0.094244
0.0921085
0.0900552
0.0880795
0.0861775
0.0843454
0.0825795
0.0808765
0.0792332
0.0776466
0.0761139
0.0746326
0.0731999
0.0718137
0.0704717
0.0691717
0.0679117
0.0666899
0.0655044
0.0643536
0.0632356
0.0621491
0.0610925
0.0600644
0.0590634
0.0580884
0.057138
0.0562111
0.0553068
0.0544241
0.0535621
0.0527202
0.0518979
0.051095
0.0503116
0.0495482
0.0488059
0.0480869
0.047394
0.0467321
0.0461078
0.045531
0.0450152
0.0445795
0.0442505
0.0440637
0.961692
0.892184
0.829084
0.771728
0.719523
0.671944
0.628523
0.588843
0.552532
0.519258
0.488725
0.460668
0.43485
0.411061
0.389111
0.368829
0.350063
0.332677
0.316548
0.301565
0.287628
0.274648
0.262543
0.251241
0.240675
0.230786
0.221519
0.212825
0.204659
0.196981
0.189754
0.182943
0.176518
0.170452
0.164718
0.159292
0.154154
0.149283
0.144662
0.140274
0.136102
0.132134
0.128356
0.124756
0.121324
0.118047
0.114918
0.111928
0.109067
0.106329
0.103707
0.101193
0.0987823
0.0964685
0.0942464
0.092111
0.0900578
0.0880823
0.0861804
0.0843484
0.0825826
0.0808797
0.0792365
0.07765
0.0761175
0.0746362
0.0732037
0.0718176
0.0704757
0.0691759
0.0679161
0.0666944
0.0655091
0.0643584
0.0632406
0.0621543
0.0610979
0.0600699
0.0590692
0.0580943
0.0571441
0.0562175
0.0553134
0.0544308
0.0535691
0.0527274
0.0519054
0.0511027
0.0503195
0.0495563
0.0488143
0.0480954
0.0474028
0.046741
0.0461169
0.0455401
0.0450244
0.0445887
0.0442597
0.0440729
0.961692
0.892184
0.829084
0.771727
0.719523
0.671944
0.628523
0.588843
0.552532
0.519258
0.488725
0.460668
0.43485
0.411061
0.389111
0.368829
0.350063
0.332677
0.316548
0.301565
0.287628
0.274648
0.262543
0.251241
0.240676
0.230787
0.22152
0.212826
0.20466
0.196982
0.189754
0.182944
0.176519
0.170453
0.164719
0.159293
0.154155
0.149285
0.144663
0.140275
0.136104
0.132136
0.128358
0.124758
0.121325
0.118049
0.11492
0.11193
0.109069
0.106331
0.103709
0.101195
0.0987845
0.0964708
0.0942488
0.0921135
0.0900604
0.088085
0.0861832
0.0843513
0.0825856
0.0808828
0.0792397
0.0776534
0.076121
0.0746398
0.0732075
0.0718215
0.0704798
0.0691801
0.0679204
0.0666989
0.0655137
0.0643632
0.0632456
0.0621594
0.0611032
0.0600754
0.0590748
0.0581002
0.0571502
0.0562238
0.0553199
0.0544376
0.053576
0.0527346
0.0519128
0.0511103
0.0503274
0.0495644
0.0488226
0.0481039
0.0474115
0.0467499
0.0461259
0.0455492
0.0450335
0.0445979
0.0442688
0.044082
0.961692
0.892184
0.829084
0.771727
0.719523
0.671944
0.628523
0.588843
0.552532
0.519258
0.488725
0.460668
0.43485
0.411061
0.389111
0.368829
0.350064
0.332678
0.316548
0.301565
0.287628
0.274648
0.262544
0.251242
0.240676
0.230787
0.22152
0.212826
0.204661
0.196983
0.189755
0.182945
0.17652
0.170454
0.164719
0.159294
0.154156
0.149286
0.144664
0.140276
0.136105
0.132137
0.128359
0.124759
0.121327
0.118051
0.114922
0.111931
0.109071
0.106333
0.103711
0.101197
0.0987867
0.0964731
0.0942512
0.092116
0.0900629
0.0880876
0.086186
0.0843541
0.0825886
0.0808859
0.0792429
0.0776567
0.0761244
0.0746434
0.0732112
0.0718253
0.0704837
0.0691841
0.0679246
0.0667033
0.0655183
0.0643679
0.0632504
0.0621644
0.0611084
0.0600808
0.0590804
0.058106
0.0571562
0.05623
0.0553263
0.0544442
0.0535829
0.0527417
0.0519201
0.0511179
0.0503351
0.0495724
0.0488308
0.0481123
0.04742
0.0467586
0.0461347
0.0455582
0.0450425
0.0446069
0.0442779
0.044091
0.961692
0.892184
0.829084
0.771727
0.719523
0.671944
0.628523
0.588843
0.552532
0.519258
0.488725
0.460668
0.43485
0.411061
0.389111
0.368829
0.350064
0.332678
0.316549
0.301565
0.287629
0.274648
0.262544
0.251242
0.240677
0.230787
0.221521
0.212827
0.204661
0.196983
0.189756
0.182945
0.176521
0.170454
0.16472
0.159295
0.154157
0.149287
0.144666
0.140277
0.136106
0.132138
0.12836
0.124761
0.121328
0.118052
0.114923
0.111933
0.109073
0.106335
0.103713
0.101199
0.0987889
0.0964753
0.0942535
0.0921184
0.0900655
0.0880902
0.0861887
0.0843569
0.0825915
0.0808889
0.0792461
0.07766
0.0761278
0.0746469
0.0732148
0.0718291
0.0704876
0.0691882
0.0679288
0.0667076
0.0655227
0.0643725
0.0632552
0.0621694
0.0611135
0.0600861
0.0590859
0.0581116
0.057162
0.056236
0.0553326
0.0544507
0.0535896
0.0527486
0.0519273
0.0511253
0.0503428
0.0495803
0.0488389
0.0481206
0.0474285
0.0467672
0.0461434
0.045567
0.0450514
0.0446159
0.0442868
0.0440999
0.961692
0.892184
0.829084
0.771727
0.719523
0.671944
0.628523
0.588843
0.552532
0.519258
0.488725
0.460668
0.434851
0.411061
0.389111
0.368829
0.350064
0.332678
0.316549
0.301565
0.287629
0.274649
0.262544
0.251242
0.240677
0.230788
0.221521
0.212827
0.204662
0.196984
0.189756
0.182946
0.176521
0.170455
0.164721
0.159296
0.154158
0.149288
0.144667
0.140278
0.136107
0.132139
0.128362
0.124762
0.12133
0.118054
0.114925
0.111935
0.109075
0.106337
0.103715
0.101201
0.0987909
0.0964775
0.0942558
0.0921208
0.0900679
0.0880928
0.0861913
0.0843597
0.0825943
0.0808919
0.0792491
0.0776631
0.0761311
0.0746503
0.0732183
0.0718328
0.0704914
0.0691921
0.0679329
0.0667118
0.0655271
0.064377
0.0632599
0.0621742
0.0611185
0.0600913
0.0590913
0.0581172
0.0571678
0.056242
0.0553387
0.0544571
0.0535962
0.0527554
0.0519343
0.0511325
0.0503502
0.0495879
0.0488468
0.0481287
0.0474367
0.0467756
0.046152
0.0455756
0.0450601
0.0446246
0.0442956
0.0441087
0.961692
0.892184
0.829084
0.771727
0.719523
0.671944
0.628523
0.588843
0.552532
0.519258
0.488725
0.460668
0.434851
0.411061
0.389111
0.368829
0.350064
0.332678
0.316549
0.301566
0.287629
0.274649
0.262545
0.251243
0.240677
0.230788
0.221521
0.212828
0.204662
0.196984
0.189757
0.182947
0.176522
0.170456
0.164722
0.159297
0.154159
0.149289
0.144668
0.140279
0.136108
0.132141
0.128363
0.124764
0.121331
0.118055
0.114927
0.111936
0.109076
0.106339
0.103717
0.101203
0.098793
0.0964796
0.094258
0.0921231
0.0900703
0.0880953
0.0861939
0.0843624
0.0825971
0.0808948
0.0792521
0.0776662
0.0761343
0.0746536
0.0732218
0.0718363
0.0704951
0.0691959
0.0679368
0.0667159
0.0655313
0.0643814
0.0632645
0.062179
0.0611234
0.0600964
0.0590965
0.0581226
0.0571734
0.0562478
0.0553447
0.0544633
0.0536026
0.0527621
0.0519412
0.0511396
0.0503575
0.0495955
0.0488545
0.0481366
0.0474448
0.0467838
0.0461604
0.0455841
0.0450687
0.0446332
0.0443041
0.0441172
0.961692
0.892184
0.829084
0.771727
0.719523
0.671944
0.628523
0.588843
0.552532
0.519258
0.488725
0.460668
0.434851
0.411062
0.389111
0.368829
0.350064
0.332678
0.316549
0.301566
0.287629
0.274649
0.262545
0.251243
0.240678
0.230789
0.221522
0.212828
0.204663
0.196985
0.189758
0.182947
0.176523
0.170457
0.164723
0.159298
0.15416
0.14929
0.144669
0.14028
0.13611
0.132142
0.128364
0.124765
0.121332
0.118057
0.114928
0.111938
0.109078
0.10634
0.103718
0.101205
0.098795
0.0964817
0.0942601
0.0921253
0.0900726
0.0880977
0.0861964
0.084365
0.0825998
0.0808976
0.079255
0.0776693
0.0761374
0.0746569
0.0732251
0.0718398
0.0704987
0.0691997
0.0679407
0.0667199
0.0655355
0.0643857
0.0632689
0.0621835
0.0611281
0.0601013
0.0591016
0.0581279
0.0571789
0.0562535
0.0553506
0.0544693
0.0536089
0.0527686
0.0519478
0.0511465
0.0503646
0.0496028
0.048862
0.0481443
0.0474527
0.0467919
0.0461685
0.0455923
0.045077
0.0446415
0.0443125
0.0441255
0.961692
0.892184
0.829084
0.771727
0.719523
0.671944
0.628523
0.588843
0.552532
0.519258
0.488725
0.460668
0.434851
0.411062
0.389111
0.368829
0.350064
0.332678
0.316549
0.301566
0.287629
0.274649
0.262545
0.251243
0.240678
0.230789
0.221522
0.212829
0.204663
0.196985
0.189758
0.182948
0.176524
0.170457
0.164723
0.159298
0.154161
0.14929
0.14467
0.140281
0.136111
0.132143
0.128365
0.124766
0.121334
0.118058
0.11493
0.11194
0.10908
0.106342
0.10372
0.101207
0.0987969
0.0964837
0.0942622
0.0921275
0.0900749
0.0881
0.0861988
0.0843675
0.0826025
0.0809003
0.0792579
0.0776722
0.0761405
0.07466
0.0732284
0.0718432
0.0705022
0.0692033
0.0679444
0.0667238
0.0655395
0.0643898
0.0632732
0.062188
0.0611327
0.0601061
0.0591066
0.058133
0.0571842
0.0562589
0.0553563
0.0544752
0.053615
0.0527748
0.0519543
0.0511532
0.0503715
0.0496099
0.0488693
0.0481518
0.0474603
0.0467997
0.0461764
0.0456004
0.0450851
0.0446496
0.0443206
0.0441336
0.961692
0.892184
0.829084
0.771727
0.719523
0.671944
0.628523
0.588843
0.552532
0.519258
0.488725
0.460668
0.434851
0.411062
0.389111
0.368829
0.350064
0.332678
0.316549
0.301566
0.28763
0.27465
0.262545
0.251244
0.240678
0.230789
0.221523
0.212829
0.204664
0.196986
0.189759
0.182948
0.176524
0.170458
0.164724
0.159299
0.154162
0.149291
0.144671
0.140282
0.136112
0.132144
0.128367
0.124767
0.121335
0.118059
0.114931
0.111941
0.109081
0.106344
0.103722
0.101209
0.0987987
0.0964856
0.0942642
0.0921296
0.0900771
0.0881023
0.0862012
0.08437
0.082605
0.0809029
0.0792606
0.077675
0.0761434
0.0746631
0.0732315
0.0718464
0.0705056
0.0692068
0.0679481
0.0667275
0.0655434
0.0643938
0.0632773
0.0621923
0.0611372
0.0601107
0.0591113
0.0581379
0.0571893
0.0562642
0.0553617
0.0544809
0.0536208
0.0527809
0.0519606
0.0511597
0.0503782
0.0496167
0.0488763
0.048159
0.0474677
0.0468072
0.0461841
0.0456081
0.0450929
0.0446575
0.0443284
0.0441415
0.961692
0.892184
0.829084
0.771727
0.719522
0.671944
0.628523
0.588843
0.552532
0.519258
0.488725
0.460668
0.434851
0.411062
0.389111
0.36883
0.350064
0.332678
0.316549
0.301566
0.28763
0.27465
0.262546
0.251244
0.240679
0.23079