/*--------------------------------*- C++ -*----------------------------------*\
  =========                 |
  \\      /  F ield         | OpenFOAM: The Open Source CFD Toolbox
   \\    /   O peration     | Website:  https://openfoam.org
    \\  /    A nd           | Version:  11
     \\/     M anipulation  |
\*---------------------------------------------------------------------------*/
FoamFile
{
    format      ascii;
    class       volScalarField;
    location    "784";
    object      omega;
}
// * * * * * * * * * * * * * * * * * * * * * * * * * * * * * * * * * * * * * //

dimensions      [0 0 -1 0 0 0 0];

internalField   nonuniform List<scalar> 
10000
(
0.961692
0.892185
0.829084
0.771728
0.719523
0.671944
0.628523
0.588843
0.552532
0.519258
0.488725
0.460668
0.434851
0.411062
0.389112
0.36883
0.350065
0.332679
0.31655
0.301567
0.287631
0.274651
0.262547
0.251245
0.24068
0.230791
0.221525
0.212832
0.204667
0.196989
0.189763
0.182953
0.176529
0.170464
0.164731
0.159306
0.154169
0.1493
0.14468
0.140293
0.136123
0.132157
0.128381
0.124783
0.121352
0.118078
0.114951
0.111963
0.109104
0.106369
0.103749
0.101239
0.0988308
0.0965202
0.0943015
0.0921697
0.0901203
0.0881488
0.0862512
0.0844237
0.0826627
0.0809648
0.079327
0.0777463
0.0762198
0.074745
0.0733193
0.0719405
0.0706064
0.0693148
0.0680638
0.0668516
0.0656763
0.0645363
0.06343
0.0623559
0.0613125
0.0602985
0.0593126
0.0583535
0.0574201
0.0565113
0.0556261
0.0547634
0.0539226
0.0531028
0.0523034
0.0515241
0.0507647
0.0500255
0.0493072
0.0486113
0.0479403
0.0472983
0.0466913
0.0461282
0.0456223
0.0451923
0.0448651
0.0446781
0.961692
0.892185
0.829084
0.771728
0.719523
0.671944
0.628523
0.588843
0.552532
0.519258
0.488725
0.460668
0.434851
0.411062
0.389112
0.36883
0.350065
0.332679
0.31655
0.301567
0.287631
0.274651
0.262547
0.251245
0.24068
0.230791
0.221525
0.212832
0.204667
0.196989
0.189763
0.182953
0.176529
0.170464
0.164731
0.159306
0.154169
0.1493
0.14468
0.140293
0.136123
0.132157
0.128381
0.124783
0.121352
0.118078
0.114951
0.111963
0.109105
0.106369
0.103749
0.101239
0.0988309
0.0965203
0.0943016
0.0921699
0.0901204
0.0881489
0.0862513
0.0844238
0.0826628
0.080965
0.0793272
0.0777464
0.07622
0.0747451
0.0733195
0.0719407
0.0706066
0.069315
0.0680641
0.0668518
0.0656765
0.0645365
0.0634302
0.0623561
0.0613127
0.0602988
0.0593128
0.0583538
0.0574204
0.0565116
0.0556264
0.0547638
0.0539229
0.0531031
0.0523038
0.0515245
0.0507651
0.0500259
0.0493076
0.0486117
0.0479408
0.0472987
0.0466917
0.0461286
0.0456227
0.0451928
0.0448655
0.0446785
0.961692
0.892185
0.829084
0.771728
0.719523
0.671944
0.628523
0.588843
0.552532
0.519258
0.488725
0.460668
0.434851
0.411062
0.389112
0.36883
0.350065
0.332679
0.31655
0.301567
0.287631
0.274651
0.262547
0.251245
0.24068
0.230792
0.221525
0.212832
0.204667
0.196989
0.189763
0.182953
0.176529
0.170464
0.164731
0.159306
0.154169
0.1493
0.14468
0.140293
0.136123
0.132157
0.128381
0.124783
0.121352
0.118078
0.114951
0.111963
0.109105
0.106369
0.10375
0.101239
0.0988311
0.0965205
0.0943018
0.0921701
0.0901206
0.0881492
0.0862516
0.0844241
0.0826631
0.0809653
0.0793275
0.0777467
0.0762203
0.0747455
0.0733199
0.0719411
0.070607
0.0693154
0.0680645
0.0668522
0.065677
0.064537
0.0634307
0.0623566
0.0613133
0.0602993
0.0593134
0.0583543
0.057421
0.0565122
0.055627
0.0547644
0.0539236
0.0531038
0.0523045
0.0515252
0.0507659
0.0500267
0.0493084
0.0486125
0.0479416
0.0472996
0.0466926
0.0461295
0.0456236
0.0451936
0.0448664
0.0446794
0.961692
0.892185
0.829084
0.771728
0.719523
0.671944
0.628523
0.588843
0.552532
0.519258
0.488725
0.460668
0.434851
0.411062
0.389112
0.36883
0.350065
0.332679
0.31655
0.301567
0.287631
0.274651
0.262547
0.251245
0.24068
0.230792
0.221525
0.212832
0.204667
0.19699
0.189763
0.182953
0.176529
0.170464
0.164731
0.159306
0.15417
0.1493
0.14468
0.140293
0.136124
0.132157
0.128381
0.124783
0.121352
0.118078
0.114951
0.111963
0.109105
0.10637
0.10375
0.101239
0.0988314
0.0965208
0.0943021
0.0921704
0.090121
0.0881495
0.086252
0.0844245
0.0826635
0.0809657
0.0793279
0.0777472
0.0762208
0.074746
0.0733204
0.0719416
0.0706075
0.069316
0.0680651
0.0668529
0.0656776
0.0645377
0.0634314
0.0623574
0.061314
0.0603001
0.0593142
0.0583552
0.0574219
0.0565131
0.055628
0.0547654
0.0539246
0.0531049
0.0523056
0.0515263
0.050767
0.0500278
0.0493096
0.0486138
0.0479429
0.0473009
0.0466938
0.0461308
0.0456249
0.0451949
0.0448677
0.0446807
0.961692
0.892185
0.829084
0.771728
0.719523
0.671944
0.628523
0.588843
0.552532
0.519258
0.488725
0.460668
0.434851
0.411062
0.389112
0.36883
0.350065
0.332679
0.31655
0.301567
0.287631
0.274651
0.262547
0.251245
0.24068
0.230792
0.221525
0.212832
0.204667
0.19699
0.189763
0.182953
0.17653
0.170464
0.164731
0.159307
0.15417
0.1493
0.144681
0.140293
0.136124
0.132157
0.128381
0.124783
0.121352
0.118078
0.114952
0.111963
0.109105
0.10637
0.10375
0.101239
0.0988317
0.0965212
0.0943026
0.0921708
0.0901214
0.08815
0.0862524
0.084425
0.082664
0.0809663
0.0793285
0.0777478
0.0762214
0.0747466
0.0733211
0.0719424
0.0706083
0.0693168
0.0680659
0.0668537
0.0656785
0.0645386
0.0634324
0.0623583
0.061315
0.0603011
0.0593153
0.0583563
0.057423
0.0565143
0.0556292
0.0547667
0.0539259
0.0531062
0.052307
0.0515278
0.0507685
0.0500294
0.0493112
0.0486154
0.0479445
0.0473025
0.0466955
0.0461325
0.0456266
0.0451967
0.0448694
0.0446824
0.961692
0.892185
0.829084
0.771728
0.719523
0.671944
0.628523
0.588843
0.552532
0.519258
0.488725
0.460668
0.434851
0.411062
0.389112
0.36883
0.350065
0.332679
0.31655
0.301567
0.287631
0.274651
0.262547
0.251245
0.24068
0.230792
0.221525
0.212832
0.204667
0.19699
0.189763
0.182953
0.17653
0.170464
0.164731
0.159307
0.15417
0.149301
0.144681
0.140294
0.136124
0.132158
0.128381
0.124784
0.121353
0.118079
0.114952
0.111964
0.109106
0.10637
0.103751
0.10124
0.0988322
0.0965217
0.0943031
0.0921714
0.090122
0.0881506
0.0862531
0.0844256
0.0826647
0.080967
0.0793292
0.0777486
0.0762222
0.0747475
0.0733219
0.0719432
0.0706092
0.0693177
0.0680669
0.0668547
0.0656796
0.0645397
0.0634335
0.0623595
0.0613163
0.0603024
0.0593166
0.0583577
0.0574244
0.0565158
0.0556307
0.0547682
0.0539276
0.0531079
0.0523087
0.0515295
0.0507703
0.0500312
0.0493131
0.0486173
0.0479465
0.0473045
0.0466976
0.0461346
0.0456287
0.0451988
0.0448715
0.0446845
0.961692
0.892184
0.829084
0.771728
0.719523
0.671944
0.628523
0.588843
0.552532
0.519258
0.488725
0.460668
0.434851
0.411062
0.389112
0.36883
0.350065
0.332679
0.31655
0.301567
0.287631
0.274651
0.262547
0.251245
0.24068
0.230792
0.221525
0.212832
0.204667
0.19699
0.189763
0.182953
0.17653
0.170464
0.164731
0.159307
0.15417
0.149301
0.144681
0.140294
0.136124
0.132158
0.128382
0.124784
0.121353
0.118079
0.114952
0.111964
0.109106
0.106371
0.103751
0.10124
0.0988327
0.0965222
0.0943036
0.092172
0.0901227
0.0881513
0.0862538
0.0844264
0.0826655
0.0809678
0.0793301
0.0777494
0.0762231
0.0747484
0.0733229
0.0719443
0.0706103
0.0693188
0.068068
0.0668559
0.0656808
0.064541
0.0634348
0.0623609
0.0613177
0.0603039
0.0593182
0.0583593
0.0574261
0.0565175
0.0556325
0.0547701
0.0539294
0.0531099
0.0523107
0.0515316
0.0507724
0.0500334
0.0493153
0.0486196
0.0479488
0.0473069
0.0467
0.046137
0.0456312
0.0452012
0.044874
0.044687
0.961692
0.892184
0.829084
0.771728
0.719523
0.671944
0.628523
0.588843
0.552532
0.519258
0.488725
0.460668
0.434851
0.411062
0.389112
0.36883
0.350065
0.332679
0.31655
0.301567
0.287631
0.274651
0.262547
0.251245
0.24068
0.230792
0.221526
0.212832
0.204667
0.19699
0.189763
0.182954
0.17653
0.170464
0.164731
0.159307
0.15417
0.149301
0.144681
0.140294
0.136125
0.132158
0.128382
0.124784
0.121353
0.118079
0.114953
0.111965
0.109107
0.106371
0.103752
0.101241
0.0988333
0.0965229
0.0943043
0.0921727
0.0901234
0.088152
0.0862546
0.0844272
0.0826664
0.0809687
0.079331
0.0777504
0.0762241
0.0747495
0.073324
0.0719454
0.0706115
0.0693201
0.0680693
0.0668573
0.0656822
0.0645424
0.0634364
0.0623625
0.0613193
0.0603056
0.0593199
0.0583611
0.057428
0.0565194
0.0556345
0.0547722
0.0539316
0.0531121
0.052313
0.051534
0.0507749
0.0500359
0.0493179
0.0486222
0.0479515
0.0473097
0.0467028
0.0461398
0.045634
0.0452041
0.0448769
0.0446899
0.961692
0.892184
0.829084
0.771728
0.719523
0.671944
0.628523
0.588843
0.552532
0.519258
0.488725
0.460668
0.434851
0.411062
0.389112
0.36883
0.350065
0.332679
0.31655
0.301567
0.287631
0.274651
0.262547
0.251246
0.24068
0.230792
0.221526
0.212832
0.204667
0.19699
0.189763
0.182954
0.17653
0.170465
0.164732
0.159307
0.154171
0.149301
0.144682
0.140295
0.136125
0.132159
0.128383
0.124785
0.121354
0.11808
0.114953
0.111965
0.109107
0.106372
0.103752
0.101242
0.098834
0.0965236
0.0943051
0.0921735
0.0901242
0.0881529
0.0862555
0.0844281
0.0826673
0.0809697
0.0793321
0.0777516
0.0762253
0.0747507
0.0733253
0.0719467
0.0706128
0.0693215
0.0680708
0.0668588
0.0656838
0.0645441
0.0634381
0.0623642
0.0613212
0.0603075
0.0593219
0.0583631
0.0574301
0.0565216
0.0556367
0.0547745
0.053934
0.0531146
0.0523156
0.0515366
0.0507776
0.0500387
0.0493207
0.0486252
0.0479545
0.0473127
0.0467058
0.046143
0.0456371
0.0452072
0.04488
0.044693
0.961692
0.892184
0.829084
0.771727
0.719523
0.671944
0.628523
0.588843
0.552532
0.519258
0.488725
0.460668
0.434851
0.411062
0.389112
0.36883
0.350065
0.332679
0.31655
0.301567
0.287631
0.274651
0.262547
0.251246
0.240681
0.230792
0.221526
0.212832
0.204668
0.19699
0.189764
0.182954
0.17653
0.170465
0.164732
0.159308
0.154171
0.149302
0.144682
0.140295
0.136125
0.132159
0.128383
0.124785
0.121354
0.11808
0.114954
0.111966
0.109108
0.106373
0.103753
0.101242
0.0988348
0.0965244
0.0943059
0.0921743
0.0901251
0.0881538
0.0862565
0.0844292
0.0826684
0.0809708
0.0793333
0.0777528
0.0762266
0.074752
0.0733267
0.0719482
0.0706143
0.0693231
0.0680724
0.0668605
0.0656855
0.0645459
0.0634399
0.0623662
0.0613232
0.0603095
0.059324
0.0583653
0.0574324
0.056524
0.0556392
0.054777
0.0539366
0.0531173
0.0523183
0.0515395
0.0507805
0.0500417
0.0493239
0.0486283
0.0479577
0.047316
0.0467092
0.0461464
0.0456406
0.0452107
0.0448835
0.0446965
0.961692
0.892184
0.829084
0.771727
0.719523
0.671944
0.628523
0.588843
0.552532
0.519258
0.488725
0.460668
0.434851
0.411062
0.389112
0.36883
0.350065
0.332679
0.31655
0.301567
0.287631
0.274651
0.262547
0.251246
0.240681
0.230792
0.221526
0.212833
0.204668
0.19699
0.189764
0.182954
0.176531
0.170465
0.164732
0.159308
0.154171
0.149302
0.144682
0.140295
0.136126
0.132159
0.128383
0.124786
0.121355
0.118081
0.114954
0.111966
0.109108
0.106373
0.103754
0.101243
0.0988356
0.0965252
0.0943068
0.0921753
0.0901261
0.0881548
0.0862575
0.0844303
0.0826696
0.080972
0.0793345
0.0777541
0.0762279
0.0747534
0.0733281
0.0719497
0.0706159
0.0693247
0.0680741
0.0668623
0.0656874
0.0645478
0.0634419
0.0623682
0.0613253
0.0603118
0.0593263
0.0583677
0.0574348
0.0565265
0.0556418
0.0547798
0.0539394
0.0531202
0.0523214
0.0515426
0.0507837
0.050045
0.0493272
0.0486318
0.0479613
0.0473196
0.0467129
0.0461501
0.0456443
0.0452145
0.0448873
0.0447002
0.961692
0.892184
0.829084
0.771727
0.719523
0.671944
0.628523
0.588843
0.552532
0.519258
0.488725
0.460668
0.434851
0.411062
0.389112
0.36883
0.350065
0.332679
0.31655
0.301567
0.287631
0.274651
0.262547
0.251246
0.240681
0.230792
0.221526
0.212833
0.204668
0.196991
0.189764
0.182954
0.176531
0.170465
0.164732
0.159308
0.154171
0.149302
0.144683
0.140296
0.136126
0.13216
0.128384
0.124786
0.121355
0.118082
0.114955
0.111967
0.109109
0.106374
0.103754
0.101244
0.0988364
0.0965261
0.0943077
0.0921762
0.0901271
0.0881559
0.0862586
0.0844314
0.0826708
0.0809733
0.0793358
0.0777555
0.0762294
0.0747549
0.0733297
0.0719513
0.0706176
0.0693265
0.0680759
0.0668642
0.0656894
0.0645498
0.063444
0.0623704
0.0613276
0.0603141
0.0593288
0.0583703
0.0574375
0.0565293
0.0556446
0.0547827
0.0539424
0.0531233
0.0523246
0.0515459
0.0507871
0.0500485
0.0493308
0.0486355
0.047965
0.0473234
0.0467167
0.046154
0.0456483
0.0452185
0.0448913
0.0447042
0.961692
0.892184
0.829084
0.771727
0.719523
0.671944
0.628523
0.588843
0.552532
0.519258
0.488725
0.460668
0.434851
0.411062
0.389112
0.36883
0.350065
0.332679
0.31655
0.301567
0.287631
0.274651
0.262547
0.251246
0.240681
0.230792
0.221526
0.212833
0.204668
0.196991
0.189764
0.182955
0.176531
0.170466
0.164733
0.159309
0.154172
0.149303
0.144683
0.140296
0.136127
0.13216
0.128384
0.124787
0.121356
0.118082
0.114956
0.111968
0.10911
0.106375
0.103755
0.101245
0.0988373
0.096527
0.0943087
0.0921773
0.0901282
0.088157
0.0862598
0.0844327
0.0826721
0.0809746
0.0793372
0.0777569
0.0762309
0.0747565
0.0733313
0.071953
0.0706194
0.0693283
0.0680779
0.0668662
0.0656914
0.064552
0.0634463
0.0623727
0.06133
0.0603166
0.0593313
0.0583729
0.0574402
0.0565321
0.0556476
0.0547857
0.0539456
0.0531265
0.0523279
0.0515494
0.0507907
0.0500522
0.0493346
0.0486393
0.047969
0.0473274
0.0467208
0.0461581
0.0456525
0.0452227
0.0448955
0.0447085
0.961692
0.892184
0.829084
0.771727
0.719523
0.671944
0.628523
0.588843
0.552532
0.519258
0.488725
0.460668
0.434851
0.411062
0.389112
0.36883
0.350065
0.332679
0.31655
0.301567
0.287631
0.274651
0.262547
0.251246
0.240681
0.230792
0.221526
0.212833
0.204668
0.196991
0.189764
0.182955
0.176531
0.170466
0.164733
0.159309
0.154172
0.149303
0.144683
0.140296
0.136127
0.132161
0.128385
0.124787
0.121357
0.118083
0.114956
0.111968
0.109111
0.106375
0.103756
0.101246
0.0988382
0.096528
0.0943097
0.0921783
0.0901293
0.0881582
0.086261
0.084434
0.0826734
0.080976
0.0793387
0.0777584
0.0762325
0.0747582
0.0733331
0.0719548
0.0706213
0.0693303
0.0680799
0.0668682
0.0656936
0.0645542
0.0634486
0.0623752
0.0613325
0.0603192
0.059334
0.0583757
0.0574431
0.0565351
0.0556507
0.0547889
0.0539489
0.05313
0.0523314
0.051553
0.0507944
0.050056
0.0493385
0.0486434
0.0479731
0.0473317
0.0467251
0.0461625
0.0456569
0.0452271
0.0448999
0.0447129
0.961692
0.892184
0.829084
0.771727
0.719523
0.671944
0.628523
0.588843
0.552532
0.519258
0.488725
0.460668
0.434851
0.411062
0.389112
0.36883
0.350065
0.332679
0.31655
0.301567
0.287631
0.274651
0.262547
0.251246
0.240681
0.230793
0.221526
0.212833
0.204668
0.196991
0.189765
0.182955
0.176532
0.170466
0.164733
0.159309
0.154173
0.149303
0.144684
0.140297
0.136127
0.132161
0.128385
0.124788
0.121357
0.118083
0.114957
0.111969
0.109111
0.106376
0.103757
0.101247
0.0988392
0.096529
0.0943108
0.0921794
0.0901305
0.0881594
0.0862623
0.0844353
0.0826748
0.0809775
0.0793402
0.07776
0.0762341
0.0747599
0.0733349
0.0719567
0.0706232
0.0693323
0.068082
0.0668704
0.0656958
0.0645566
0.063451
0.0623777
0.0613351
0.0603219
0.0593368
0.0583786
0.0574461
0.0565382
0.0556539
0.0547922
0.0539523
0.0531335
0.0523351
0.0515567
0.0507983
0.05006
0.0493426
0.0486476
0.0479774
0.047336
0.0467296
0.046167
0.0456615
0.0452317
0.0449046
0.0447175
0.961692
0.892184
0.829084
0.771727
0.719523
0.671944
0.628523
0.588843
0.552532
0.519258
0.488725
0.460668
0.434851
0.411062
0.389112
0.36883
0.350065
0.332679
0.31655
0.301567
0.287631
0.274651
0.262547
0.251246
0.240681
0.230793
0.221526
0.212833
0.204668
0.196991
0.189765
0.182955
0.176532
0.170466
0.164734
0.15931
0.154173
0.149304
0.144684
0.140297
0.136128
0.132162
0.128386
0.124788
0.121358
0.118084
0.114958
0.11197
0.109112
0.106377
0.103758
0.101248
0.0988402
0.09653
0.0943118
0.0921806
0.0901316
0.0881607
0.0862636
0.0844367
0.0826762
0.080979
0.0793418
0.0777616
0.0762358
0.0747616
0.0733367
0.0719586
0.0706252
0.0693343
0.0680841
0.0668726
0.0656981
0.064559
0.0634535
0.0623803
0.0613378
0.0603247
0.0593397
0.0583816
0.0574492
0.0565414
0.0556572
0.0547956
0.0539559
0.0531371
0.0523389
0.0515606
0.0508023
0.0500641
0.0493468
0.0486519
0.0479818
0.0473406
0.0467342
0.0461717
0.0456662
0.0452365
0.0449093
0.0447223
0.961692
0.892184
0.829084
0.771727
0.719523
0.671944
0.628523
0.588843
0.552532
0.519258
0.488725
0.460668
0.434851
0.411062
0.389112
0.36883
0.350065
0.332679
0.31655
0.301568
0.287631
0.274651
0.262548
0.251246
0.240681
0.230793
0.221527
0.212833
0.204669
0.196991
0.189765
0.182955
0.176532
0.170467
0.164734
0.15931
0.154173
0.149304
0.144685
0.140298
0.136128
0.132162
0.128387
0.124789
0.121358
0.118085
0.114958
0.111971
0.109113
0.106378
0.103759
0.101248
0.0988412
0.0965311
0.0943129
0.0921817
0.0901329
0.088162
0.0862649
0.084438
0.0826777
0.0809805
0.0793434
0.0777633
0.0762375
0.0747634
0.0733386
0.0719605
0.0706272
0.0693364
0.0680863
0.0668749
0.0657005
0.0645614
0.0634561
0.0623829
0.0613405
0.0603275
0.0593426
0.0583846
0.0574523
0.0565447
0.0556606
0.0547991
0.0539595
0.0531409
0.0523427
0.0515646
0.0508064
0.0500683
0.0493511
0.0486563
0.0479863
0.0473452
0.0467389
0.0461765
0.045671
0.0452413
0.0449142
0.0447272
0.961692
0.892184
0.829084
0.771727
0.719522
0.671944
0.628523
0.588843
0.552532
0.519258
0.488725
0.460668
0.434851
0.411062
0.389112
0.36883
0.350065
0.332679
0.31655
0.301568
0.287631
0.274652
0.262548
0.251246
0.240681
0.230793
0.221527
0.212834
0.204669
0.196992
0.189765
0.182956
0.176532
0.170467
0.164734
0.15931
0.154174
0.149305
0.144685
0.140298
0.136129
0.132163
0.128387
0.12479
0.121359
0.118085
0.114959
0.111971
0.109114
0.106379
0.10376
0.101249
0.0988422
0.0965322
0.0943141
0.0921829
0.0901341
0.0881632
0.0862663
0.0844395
0.0826792
0.0809821
0.079345
0.077765
0.0762393
0.0747653
0.0733405
0.0719625
0.0706293
0.0693386
0.0680885
0.0668772
0.0657029
0.0645639
0.0634586
0.0623856
0.0613433
0.0603304
0.0593456
0.0583877
0.0574555
0.056548
0.055664
0.0548027
0.0539631
0.0531447
0.0523466
0.0515686
0.0508105
0.0500726
0.0493555
0.0486608
0.047991
0.0473499
0.0467437
0.0461814
0.0456759
0.0452463
0.0449192
0.0447321
0.961692
0.892184
0.829084
0.771727
0.719522
0.671944
0.628523
0.588843
0.552532
0.519258
0.488725
0.460668
0.434851
0.411062
0.389112
0.36883
0.350065
0.332679
0.31655
0.301568
0.287631
0.274652
0.262548
0.251246
0.240681
0.230793
0.221527
0.212834
0.204669
0.196992
0.189765
0.182956
0.176533
0.170467
0.164734
0.159311
0.154174
0.149305
0.144685
0.140299
0.136129
0.132163
0.128388
0.12479
0.12136
0.118086
0.11496
0.111972
0.109115
0.10638
0.103761
0.10125
0.0988432
0.0965332
0.0943152
0.0921841
0.0901354
0.0881646
0.0862677
0.0844409
0.0826807
0.0809836
0.0793466
0.0777667
0.0762411
0.0747671
0.0733424
0.0719645
0.0706313
0.0693407
0.0680908
0.0668796
0.0657053
0.0645664
0.0634613
0.0623883
0.0613461
0.0603333
0.0593486
0.0583909
0.0574588
0.0565513
0.0556675
0.0548063
0.0539669
0.0531485
0.0523506
0.0515727
0.0508148
0.0500769
0.04936
0.0486654
0.0479956
0.0473547
0.0467486
0.0461863
0.045681
0.0452514
0.0449243
0.0447372
0.961692
0.892184
0.829084
0.771727
0.719522
0.671944
0.628523
0.588843
0.552532
0.519258
0.488725
0.460668
0.434851
0.411062
0.389112
0.36883
0.350065
0.332679
0.31655
0.301568
0.287631
0.274652
0.262548
0.251246
0.240681
0.230793
0.221527
0.212834
0.204669
0.196992
0.189766
0.182956
0.176533
0.170468
0.164735
0.159311
0.154174
0.149305
0.144686
0.140299
0.13613
0.132164
0.128388
0.124791
0.12136
0.118087
0.114961
0.111973
0.109115
0.106381
0.103761
0.101251
0.0988442
0.0965343
0.0943164
0.0921853
0.0901366
0.0881659
0.0862691
0.0844423
0.0826822
0.0809852
0.0793483
0.0777684
0.0762429
0.074769
0.0733443
0.0719665
0.0706334
0.0693429
0.068093
0.0668819
0.0657078
0.064569
0.0634639
0.062391
0.0613489
0.0603362
0.0593517
0.058394
0.0574621
0.0565547
0.055671
0.0548099
0.0539706
0.0531524
0.0523546
0.0515768
0.050819
0.0500813
0.0493645
0.04867
0.0480004
0.0473595
0.0467535
0.0461913
0.045686
0.0452565
0.0449294
0.0447423
0.961692
0.892184
0.829084
0.771727
0.719522
0.671944
0.628523
0.588843
0.552532
0.519258
0.488725
0.460668
0.434851
0.411062
0.389112
0.36883
0.350065
0.332679
0.31655
0.301568
0.287631
0.274652
0.262548
0.251246
0.240682
0.230793
0.221527
0.212834
0.204669
0.196992
0.189766
0.182956
0.176533
0.170468
0.164735
0.159311
0.154175
0.149306
0.144686
0.1403
0.13613
0.132165
0.128389
0.124791
0.121361
0.118088
0.114961
0.111974
0.109116
0.106382
0.103762
0.101252
0.0988453
0.0965354
0.0943175
0.0921865
0.0901379
0.0881672
0.0862704
0.0844438
0.0826837
0.0809868
0.0793499
0.0777701
0.0762446
0.0747709
0.0733463
0.0719686
0.0706355
0.0693451
0.0680953
0.0668843
0.0657102
0.0645715
0.0634665
0.0623938
0.0613518
0.0603392
0.0593547
0.0583972
0.0574653
0.0565581
0.0556745
0.0548135
0.0539744
0.0531562
0.0523586
0.051581
0.0508233
0.0500857
0.049369
0.0486747
0.0480051
0.0473644
0.0467585
0.0461963
0.0456911
0.0452616
0.0449346
0.0447475
0.961692
0.892184
0.829084
0.771727
0.719522
0.671944
0.628523
0.588843
0.552532
0.519258
0.488725
0.460668
0.434851
0.411062
0.389112
0.36883
0.350065
0.332679
0.31655
0.301568
0.287631
0.274652
0.262548
0.251246
0.240682
0.230793
0.221527
0.212834
0.204669
0.196992
0.189766
0.182957
0.176533
0.170468
0.164735
0.159312
0.154175
0.149306
0.144687
0.1403
0.136131
0.132165
0.128389
0.124792
0.121362
0.118088
0.114962
0.111974
0.109117
0.106382
0.103763
0.101253
0.0988463
0.0965365
0.0943186
0.0921877
0.0901391
0.0881685
0.0862718
0.0844452
0.0826852
0.0809884
0.0793516
0.0777718
0.0762464
0.0747727
0.0733482
0.0719706
0.0706376
0.0693473
0.0680976
0.0668866
0.0657127
0.0645741
0.0634692
0.0623965
0.0613546
0.0603421
0.0593578
0.0584003
0.0574686
0.0565615
0.055678
0.0548172
0.0539781
0.0531601
0.0523626
0.0515851
0.0508275
0.0500901
0.0493735
0.0486793
0.0480099
0.0473692
0.0467634
0.0462014
0.0456962
0.0452667
0.0449397
0.0447526
0.961692
0.892184
0.829084
0.771727
0.719522
0.671944
0.628523
0.588843
0.552532
0.519258
0.488725
0.460668
0.434851
0.411062
0.389112
0.36883
0.350065
0.332679
0.31655
0.301568
0.287631
0.274652
0.262548
0.251247
0.240682
0.230793
0.221527
0.212834
0.20467
0.196993
0.189766
0.182957
0.176534
0.170468
0.164736
0.159312
0.154175
0.149307
0.144687
0.140301
0.136131
0.132166
0.12839
0.124793
0.121362
0.118089
0.114963
0.111975
0.109118
0.106383
0.103764
0.101254
0.0988473
0.0965376
0.0943198
0.0921889
0.0901404
0.0881698
0.0862732
0.0844467
0.0826867
0.0809899
0.0793532
0.0777735
0.0762482
0.0747746
0.0733501
0.0719726
0.0706397
0.0693495
0.0680998
0.066889
0.0657151
0.0645766
0.0634718
0.0623992
0.0613574
0.0603451
0.0593608
0.0584035
0.0574719
0.0565649
0.0556815
0.0548208
0.0539818
0.053164
0.0523666
0.0515892
0.0508318
0.0500945
0.049378
0.0486839
0.0480146
0.0473741
0.0467683
0.0462064
0.0457013
0.0452719
0.0449449
0.0447578
0.961692
0.892184
0.829084
0.771727
0.719522
0.671944
0.628523
0.588843
0.552532
0.519258
0.488725
0.460668
0.434851
0.411062
0.389112
0.36883
0.350065
0.332679
0.31655
0.301568
0.287631
0.274652
0.262548
0.251247
0.240682
0.230793
0.221527
0.212834
0.20467
0.196993
0.189766
0.182957
0.176534
0.170469
0.164736
0.159312
0.154176
0.149307
0.144688
0.140301
0.136132
0.132166
0.128391
0.124793
0.121363
0.11809
0.114964
0.111976
0.109119
0.106384
0.103765
0.101255
0.0988483
0.0965387
0.0943209
0.0921901
0.0901416
0.0881711
0.0862746
0.0844481
0.0826882
0.0809915
0.0793548
0.0777752
0.07625
0.0747764
0.073352
0.0719746
0.0706418
0.0693516
0.0681021
0.0668913
0.0657175
0.0645791
0.0634744
0.0624019
0.0613602
0.060348
0.0593638
0.0584066
0.0574751
0.0565682
0.0556849
0.0548243
0.0539855
0.0531678
0.0523705
0.0515933
0.050836
0.0500988
0.0493825
0.0486885
0.0480193
0.0473789
0.0467732
0.0462114
0.0457063
0.045277
0.04495
0.0447629
0.961692
0.892184
0.829084
0.771727
0.719522
0.671944
0.628523
0.588843
0.552532
0.519258
0.488725
0.460668
0.434851
0.411062
0.389111
0.36883
0.350065
0.332679
0.31655
0.301568
0.287631
0.274652
0.262548
0.251247
0.240682
0.230794
0.221527
0.212834
0.20467
0.196993
0.189767
0.182957
0.176534
0.170469
0.164736
0.159313
0.154176
0.149307
0.144688
0.140301
0.136132
0.132167
0.128391
0.124794
0.121364
0.11809
0.114964
0.111977
0.10912
0.106385
0.103766
0.101256
0.0988493
0.0965397
0.094322
0.0921913
0.0901428
0.0881724
0.0862759
0.0844495
0.0826896
0.080993
0.0793564
0.0777769
0.0762517
0.0747782
0.0733539
0.0719765
0.0706438
0.0693537
0.0681043
0.0668936
0.0657199
0.0645816
0.0634769
0.0624046
0.061363
0.0603508
0.0593668
0.0584097
0.0574783
0.0565715
0.0556884
0.0548279
0.0539892
0.0531716
0.0523744
0.0515973
0.0508401
0.0501031
0.0493869
0.048693
0.048024
0.0473836
0.0467781
0.0462163
0.0457113
0.045282
0.0449551
0.044768
0.961692
0.892184
0.829084
0.771727
0.719522
0.671944
0.628523
0.588843
0.552532
0.519258
0.488725
0.460668
0.434851
0.411062
0.389111
0.36883
0.350065
0.332679
0.31655
0.301568
0.287631
0.274652
0.262548
0.251247
0.240682
0.230794
0.221528
0.212835
0.20467
0.196993
0.189767
0.182957
0.176534
0.170469
0.164737
0.159313
0.154176
0.149308
0.144688
0.140302
0.136133
0.132167
0.128392
0.124794
0.121364
0.118091
0.114965
0.111977
0.10912
0.106386
0.103767
0.101257
0.0988503
0.0965407
0.0943231
0.0921924
0.090144
0.0881737
0.0862772
0.0844509
0.0826911
0.0809945
0.079358
0.0777785
0.0762534
0.07478
0.0733558
0.0719785
0.0706458
0.0693558
0.0681064
0.0668958
0.0657222
0.064584
0.0634795
0.0624072
0.0613657
0.0603536
0.0593697
0.0584127
0.0574814
0.0565747
0.0556917
0.0548313
0.0539928
0.0531753
0.0523783
0.0516013
0.0508442
0.0501073
0.0493912
0.0486975
0.0480285
0.0473883
0.0467829
0.0462212
0.0457163
0.045287
0.0449601
0.0447729
0.961692
0.892184
0.829084
0.771727
0.719522
0.671944
0.628523
0.588843
0.552532
0.519258
0.488725
0.460668
0.434851
0.411062
0.389111
0.36883
0.350065
0.332679
0.31655
0.301568
0.287631
0.274652
0.262548
0.251247
0.240682
0.230794
0.221528
0.212835
0.20467
0.196993
0.189767
0.182958
0.176534
0.170469
0.164737
0.159313
0.154177
0.149308
0.144689
0.140302
0.136133
0.132168
0.128392
0.124795
0.121365
0.118092
0.114966
0.111978
0.109121
0.106387
0.103768
0.101258
0.0988513
0.0965418
0.0943242
0.0921935
0.0901452
0.0881749
0.0862785
0.0844522
0.0826925
0.080996
0.0793595
0.0777801
0.0762551
0.0747817
0.0733576
0.0719804
0.0706478
0.0693579
0.0681086
0.066898
0.0657245
0.0645864
0.0634819
0.0624097
0.0613683
0.0603564
0.0593726
0.0584156
0.0574845
0.0565779
0.055695
0.0548347
0.0539963
0.0531789
0.052382
0.0516052
0.0508483
0.0501115
0.0493955
0.0487019
0.048033
0.0473929
0.0467876
0.0462259
0.0457211
0.0452919
0.044965
0.0447779
0.961692
0.892184
0.829084
0.771727
0.719522
0.671944
0.628523
0.588843
0.552532
0.519258
0.488724
0.460668
0.434851
0.411062
0.389111
0.36883
0.350065
0.332679
0.31655
0.301568
0.287631
0.274652
0.262548
0.251247
0.240682
0.230794
0.221528
0.212835
0.20467
0.196993
0.189767
0.182958
0.176535
0.17047
0.164737
0.159313
0.154177
0.149308
0.144689
0.140303
0.136134
0.132168
0.128393
0.124796
0.121365
0.118092
0.114966
0.111979
0.109122
0.106387
0.103769
0.101259
0.0988522
0.0965427
0.0943252
0.0921946
0.0901464
0.0881761
0.0862798
0.0844535
0.0826939
0.0809974
0.079361
0.0777817
0.0762567
0.0747834
0.0733594
0.0719822
0.0706497
0.0693599
0.0681106
0.0669002
0.0657268
0.0645887
0.0634843
0.0624122
0.0613709
0.0603591
0.0593753
0.0584185
0.0574875
0.056581
0.0556982
0.0548381
0.0539998
0.0531825
0.0523857
0.051609
0.0508522
0.0501155
0.0493997
0.0487062
0.0480374
0.0473974
0.0467922
0.0462306
0.0457259
0.0452967
0.0449698
0.0447827
0.961692
0.892184
0.829084
0.771727
0.719522
0.671944
0.628523
0.588843
0.552532
0.519258
0.488724
0.460668
0.434851
0.411062
0.389111
0.36883
0.350065
0.332679
0.31655
0.301568
0.287631
0.274652
0.262548
0.251247
0.240682
0.230794
0.221528
0.212835
0.20467
0.196993
0.189767
0.182958
0.176535
0.17047
0.164737
0.159314
0.154177
0.149309
0.14469
0.140303
0.136134
0.132169
0.128393
0.124796
0.121366
0.118093
0.114967
0.11198
0.109123
0.106388
0.103769
0.10126
0.0988531
0.0965437
0.0943262
0.0921957
0.0901475
0.0881773
0.086281
0.0844548
0.0826952
0.0809988
0.0793625
0.0777832
0.0762583
0.0747851
0.0733611
0.071984
0.0706516
0.0693618
0.0681127
0.0669023
0.065729
0.0645909
0.0634867
0.0624147
0.0613735
0.0603617
0.0593781
0.0584213
0.0574904
0.056584
0.0557013
0.0548413
0.0540031
0.053186
0.0523893
0.0516127
0.050856
0.0501195
0.0494037
0.0487103
0.0480417
0.0474018
0.0467967
0.0462352
0.0457305
0.0453013
0.0449745
0.0447874
0.961692
0.892184
0.829084
0.771727
0.719522
0.671944
0.628523
0.588843
0.552532
0.519258
0.488724
0.460668
0.434851
0.411062
0.389111
0.36883
0.350065
0.332679
0.31655
0.301568
0.287631
0.274652
0.262548
0.251247
0.240682
0.230794
0.221528
0.212835
0.20467
0.196994
0.189767
0.182958
0.176535
0.17047
0.164738
0.159314
0.154178
0.149309
0.14469
0.140304
0.136135
0.132169
0.128394
0.124797
0.121367
0.118093
0.114968
0.11198
0.109123
0.106389
0.10377
0.101261
0.098854
0.0965446
0.0943272
0.0921967
0.0901485
0.0881784
0.0862822
0.0844561
0.0826965
0.0810002
0.0793639
0.0777847
0.0762599
0.0747867
0.0733628
0.0719857
0.0706534
0.0693637
0.0681146
0.0669043
0.0657311
0.0645931
0.063489
0.062417
0.0613759
0.0603642
0.0593807
0.0584241
0.0574932
0.056587
0.0557044
0.0548445
0.0540064
0.0531893
0.0523928
0.0516163
0.0508597
0.0501233
0.0494077
0.0487144
0.0480459
0.0474061
0.046801
0.0462396
0.045735
0.0453059
0.044979
0.0447919
0.961692
0.892184
0.829084
0.771727
0.719522
0.671944
0.628523
0.588843
0.552532
0.519258
0.488724
0.460668
0.434851
0.411062
0.389111
0.36883
0.350065
0.332679
0.31655
0.301568
0.287631
0.274652
0.262548
0.251247
0.240682
0.230794
0.221528
0.212835
0.204671
0.196994
0.189768
0.182958
0.176535
0.17047
0.164738
0.159314
0.154178
0.149309
0.14469
0.140304
0.136135
0.132169
0.128394
0.124797
0.121367
0.118094
0.114968
0.111981
0.109124
0.10639
0.103771
0.101261
0.0988549
0.0965455
0.0943281
0.0921977
0.0901496
0.0881795
0.0862833
0.0844573
0.0826978
0.0810015
0.0793653
0.0777861
0.0762613
0.0747882
0.0733644
0.0719874
0.0706552
0.0693655
0.0681165
0.0669063
0.0657331
0.0645953
0.0634912
0.0624193
0.0613783
0.0603667
0.0593832
0.0584267
0.0574959
0.0565898
0.0557073
0.0548475
0.0540095
0.0531926
0.0523962
0.0516198
0.0508633
0.050127
0.0494115
0.0487183
0.0480499
0.0474102
0.0468052
0.0462439
0.0457393
0.0453103
0.0449835
0.0447963
0.961692
0.892184
0.829084
0.771727
0.719522
0.671944
0.628523
0.588843
0.552532
0.519258
0.488724
0.460668
0.434851
0.411062
0.389111
0.36883
0.350065
0.332679
0.31655
0.301568
0.287631
0.274652
0.262548
0.251247
0.240682
0.230794
0.221528
0.212835
0.204671