/*--------------------------------*- C++ -*----------------------------------*\
  =========                 |
  \\      /  F ield         | OpenFOAM: The Open Source CFD Toolbox
   \\    /   O peration     | Website:  https://openfoam.org
    \\  /    A nd           | Version:  11
     \\/     M anipulation  |
\*---------------------------------------------------------------------------*/
FoamFile
{
    format      ascii;
    class       volScalarField;
    location    "134";
    object      omega;
}
// * * * * * * * * * * * * * * * * * * * * * * * * * * * * * * * * * * * * * //

dimensions      [0 0 -1 0 0 0 0];

internalField   nonuniform List<scalar> 
10000
(
0.961705
0.89221
0.829109
0.771735
0.719495
0.671861
0.628362
0.588581
0.55214
0.518707
0.487981
0.459694
0.433605
0.409499
0.38718
0.366475
0.347225
0.32929
0.312542
0.296868
0.282168
0.268352
0.255344
0.243079
0.231499
0.220561
0.210229
0.200473
0.191273
0.182613
0.174477
0.166856
0.159737
0.153108
0.146954
0.141258
0.136001
0.131163
0.12672
0.12265
0.118929
0.115532
0.112437
0.109621
0.10706
0.104733
0.102621
0.100706
0.0989689
0.0973952
0.09597
0.0946802
0.0935133
0.0924584
0.091505
0.090644
0.0898667
0.0891656
0.0885334
0.0879637
0.0874508
0.0869891
0.0865739
0.0862007
0.0858655
0.0855645
0.0852945
0.0850523
0.0848351
0.0846405
0.0844661
0.0843099
0.0841699
0.0840445
0.0839321
0.0838314
0.083741
0.0836598
0.0835868
0.0835212
0.083462
0.0834087
0.0833604
0.0833167
0.0832771
0.083241
0.0832082
0.0831783
0.083151
0.083126
0.0831033
0.0830825
0.0830637
0.0830469
0.0830319
0.0830188
0.0830078
0.082999
0.0829927
0.082989
0.961705
0.892211
0.829111
0.771737
0.719498
0.671864
0.628366
0.588585
0.552145
0.518712
0.487986
0.459699
0.433611
0.409505
0.387187
0.366482
0.347233
0.329298
0.312551
0.296878
0.282179
0.268365
0.255358
0.243094
0.231516
0.22058
0.210248
0.200494
0.191296
0.182636
0.174502
0.166881
0.159762
0.153133
0.146978
0.141282
0.136025
0.131186
0.126743
0.122672
0.11895
0.115553
0.112457
0.109639
0.107077
0.104749
0.102636
0.100719
0.0989809
0.0974063
0.0959803
0.0946897
0.0935221
0.0924665
0.0915125
0.0906509
0.0898731
0.0891715
0.0885388
0.0879688
0.0874554
0.0869934
0.0865779
0.0862044
0.0858689
0.0855676
0.0852973
0.0850549
0.0848375
0.0846427
0.0844681
0.0843117
0.0841716
0.0840461
0.0839336
0.0838327
0.0837422
0.0836609
0.0835879
0.0835221
0.0834629
0.0834094
0.0833611
0.0833174
0.0832776
0.0832416
0.0832087
0.0831787
0.0831514
0.0831264
0.0831036
0.0830828
0.083064
0.0830471
0.0830321
0.083019
0.083008
0.0829992
0.0829929
0.0829892
0.961705
0.892212
0.829113
0.771741
0.719502
0.67187
0.628373
0.588592
0.552152
0.51872
0.487995
0.459709
0.433621
0.409516
0.387198
0.366494
0.347246
0.329313
0.312567
0.296895
0.282198
0.268386
0.255381
0.243119
0.231544
0.22061
0.210281
0.200529
0.191333
0.182675
0.174542
0.166922
0.159804
0.153174
0.14702
0.141322
0.136064
0.131224
0.12678
0.122708
0.118985
0.115586
0.112488
0.109668
0.107103
0.104774
0.102659
0.10074
0.0990004
0.0974243
0.0959969
0.0947049
0.0935361
0.0924794
0.0915243
0.0906617
0.0898831
0.0891806
0.0885472
0.0879764
0.0874624
0.0869998
0.0865837
0.0862097
0.0858737
0.085572
0.0853013
0.0850585
0.0848408
0.0846456
0.0844708
0.0843142
0.0841738
0.0840481
0.0839354
0.0838343
0.0837436
0.0836622
0.0835891
0.0835232
0.0834639
0.0834103
0.0833619
0.0833181
0.0832783
0.0832422
0.0832093
0.0831793
0.0831519
0.0831268
0.083104
0.0830832
0.0830644
0.0830475
0.0830324
0.0830194
0.0830084
0.0829996
0.0829932
0.0829895
0.961705
0.892213
0.829116
0.771745
0.719508
0.671877
0.628381
0.588601
0.552163
0.518731
0.488007
0.459722
0.433635
0.409531
0.387215
0.366512
0.347265
0.329333
0.312589
0.29692
0.282225
0.268415
0.255414
0.243155
0.231583
0.220652
0.210326
0.200578
0.191384
0.182728
0.174597
0.166978
0.159861
0.153232
0.147076
0.141378
0.136119
0.131277
0.126831
0.122757
0.119031
0.11563
0.112529
0.109707
0.10714
0.104807
0.10269
0.100769
0.0990272
0.0974489
0.0960195
0.0947257
0.0935553
0.0924969
0.0915404
0.0906764
0.0898965
0.0891928
0.0885583
0.0879865
0.0874716
0.0870082
0.0865913
0.0862166
0.0858799
0.0855776
0.0853064
0.0850631
0.0848449
0.0846494
0.0844742
0.0843172
0.0841765
0.0840505
0.0839376
0.0838363
0.0837454
0.0836638
0.0835905
0.0835245
0.083465
0.0834114
0.0833629
0.0833189
0.0832791
0.0832429
0.0832099
0.0831799
0.0831524
0.0831274
0.0831045
0.0830837
0.0830649
0.083048
0.0830329
0.0830199
0.0830089
0.0830001
0.0829937
0.08299
0.961705
0.892214
0.829118
0.771749
0.719513
0.671884
0.62839
0.588612
0.552175
0.518744
0.488022
0.459738
0.433652
0.409549
0.387235
0.366533
0.347288
0.329359
0.312617
0.296951
0.282259
0.268452
0.255455
0.2432
0.231632
0.220705
0.210384
0.200639
0.191448
0.182795
0.174666
0.16705
0.159933
0.153304
0.147148
0.141448
0.136187
0.131343
0.126894
0.122818
0.119089
0.115685
0.112581
0.109755
0.107185
0.10485
0.102729
0.100805
0.0990607
0.0974798
0.096048
0.0947519
0.0935792
0.0925189
0.0915605
0.0906948
0.0899133
0.0892081
0.0885723
0.0879992
0.0874831
0.0870186
0.0866008
0.0862251
0.0858877
0.0855846
0.0853127
0.0850687
0.08485
0.084654
0.0844783
0.0843209
0.0841798
0.0840534
0.0839402
0.0838386
0.0837475
0.0836657
0.0835921
0.083526
0.0834664
0.0834126
0.083364
0.0833199
0.08328
0.0832437
0.0832107
0.0831806
0.0831531
0.083128
0.0831052
0.0830844
0.0830655
0.0830486
0.0830335
0.0830205
0.0830095
0.0830007
0.0829944
0.0829906
0.961705
0.892215
0.829119
0.771752
0.719518
0.671891
0.628399
0.588622
0.552187
0.518759
0.488037
0.459755
0.433672
0.40957
0.387258
0.366559
0.347316
0.329389
0.312651
0.296987
0.282299
0.268497
0.255504
0.243253
0.23169
0.220769
0.210452
0.200711
0.191525
0.182875
0.174749
0.167134
0.160018
0.153389
0.147232
0.141531
0.136268
0.131421
0.12697
0.122889
0.119157
0.11575
0.112642
0.109813
0.107239
0.104899
0.102775
0.100848
0.0991002
0.0975163
0.0960816
0.0947828
0.0936076
0.0925449
0.0915843
0.0907166
0.0899331
0.0892262
0.0885887
0.0880142
0.0874967
0.0870309
0.0866119
0.0862352
0.0858967
0.0855928
0.08532
0.0850754
0.0848559
0.0846593
0.084483
0.0843251
0.0841836
0.0840568
0.0839432
0.0838413
0.0837499
0.0836678
0.083594
0.0835277
0.0834679
0.0834139
0.0833652
0.083321
0.083281
0.0832446
0.0832116
0.0831814
0.0831539
0.0831288
0.0831059
0.0830851
0.0830662
0.0830493
0.0830342
0.0830212
0.0830102
0.0830015
0.0829951
0.0829914
0.961705
0.892215
0.82912
0.771754
0.719523
0.671897
0.628407
0.588633
0.552199
0.518773
0.488054
0.459774
0.433692
0.409594
0.387283
0.366587
0.347347
0.329423
0.312688
0.297029
0.282345
0.268548
0.25556
0.243315
0.231757
0.220841
0.210529
0.200794
0.191611
0.182966
0.174842
0.167229
0.160114
0.153485
0.147328
0.141625
0.136359
0.13151
0.127055
0.122971
0.119235
0.115823
0.112711
0.109877
0.107299
0.104956
0.102828
0.100897
0.0991451
0.0975577
0.0961198
0.0948179
0.0936399
0.0925744
0.0916114
0.0907413
0.0899557
0.0892468
0.0886074
0.0880312
0.0875121
0.0870449
0.0866245
0.0862466
0.085907
0.0856021
0.0853283
0.0850828
0.0848626
0.0846652
0.0844883
0.0843298
0.0841878
0.0840605
0.0839465
0.0838442
0.0837525
0.0836701
0.0835961
0.0835295
0.0834695
0.0834154
0.0833665
0.0833222
0.0832821
0.0832456
0.0832125
0.0831823
0.0831547
0.0831296
0.0831067
0.0830858
0.083067
0.08305
0.083035
0.083022
0.083011
0.0830023
0.0829959
0.0829922
0.961705
0.892214
0.829121
0.771756
0.719526
0.671902
0.628414
0.588642
0.552211
0.518787
0.488071
0.459793
0.433714
0.409618
0.38731
0.366617
0.347381
0.329461
0.31273
0.297075
0.282396
0.268604
0.255621
0.243382
0.231831
0.22092
0.210615
0.200885
0.191707
0.183066
0.174945
0.167334
0.160221
0.153592
0.147433
0.141729
0.13646
0.131608
0.127149
0.123061
0.11932
0.115904
0.112787
0.109949
0.107366
0.105018
0.102886
0.10095
0.0991948
0.0976036
0.096162
0.0948568
0.0936755
0.0926072
0.0916413
0.0907687
0.0899807
0.0892695
0.0886281
0.08805
0.0875292
0.0870603
0.0866385
0.0862592
0.0859183
0.0856122
0.0853375
0.085091
0.0848699
0.0846717
0.0844941
0.084335
0.0841924
0.0840646
0.08395
0.0838474
0.0837552
0.0836725
0.0835982
0.0835314
0.0834712
0.0834169
0.0833678
0.0833234
0.0832832
0.0832466
0.0832134
0.0831831
0.0831556
0.0831304
0.0831075
0.0830866
0.0830678
0.0830509
0.0830359
0.0830229
0.0830119
0.0830032
0.0829969
0.0829931
0.961704
0.892214
0.829121
0.771757
0.719528
0.671907
0.628421
0.588651
0.552223
0.518801
0.488087
0.459812
0.433736
0.409643
0.387339
0.366649
0.347416
0.3295
0.312774
0.297124
0.282451
0.268664
0.255688
0.243455
0.23191
0.221007
0.210707
0.200983
0.191811
0.183174
0.175057
0.167448
0.160335
0.153707
0.147547
0.141841
0.136569
0.131713
0.12725
0.123158
0.119413
0.115991
0.11287
0.110026
0.107438
0.105085
0.102948
0.101008
0.0992486
0.0976533
0.0962078
0.0948989
0.0937143
0.0926427
0.0916738
0.0907984
0.0900078
0.0892942
0.0886506
0.0880704
0.0875477
0.087077
0.0866536
0.0862728
0.0859306
0.0856232
0.0853473
0.0850997
0.0848777
0.0846787
0.0845003
0.0843405
0.0841972
0.0840689
0.0839538
0.0838507
0.0837582
0.0836751
0.0836005
0.0835334
0.0834729
0.0834184
0.0833692
0.0833247
0.0832843
0.0832477
0.0832144
0.083184
0.0831564
0.0831312
0.0831083
0.0830875
0.0830686
0.0830517
0.0830368
0.0830238
0.0830128
0.0830041
0.0829978
0.0829941
0.961704
0.892214
0.829121
0.771758
0.71953
0.67191
0.628426
0.588659
0.552233
0.518814
0.488103
0.459831
0.433758
0.409668
0.387367
0.366681
0.347453
0.329542
0.312821
0.297176
0.282509
0.268729
0.255759
0.243533
0.231995
0.221098
0.210806
0.201087
0.191921
0.183288
0.175175
0.167569
0.160457
0.153829
0.147668
0.14196
0.136685
0.131826
0.127358
0.123261
0.119511
0.116084
0.112957
0.110108
0.107515
0.105157
0.103015
0.10107
0.099306
0.0977063
0.0962568
0.0949439
0.0937556
0.0926806
0.0917085
0.0908301
0.0900368
0.0893206
0.0886746
0.0880921
0.0875674
0.0870949
0.0866697
0.0862873
0.0859436
0.0856349
0.0853577
0.0851091
0.084886
0.0846861
0.0845068
0.0843462
0.0842023
0.0840734
0.0839578
0.0838541
0.0837612
0.0836778
0.0836028
0.0835354
0.0834747
0.08342
0.0833706
0.0833259
0.0832854
0.0832487
0.0832153
0.0831849
0.0831573
0.0831321
0.0831091
0.0830883
0.0830695
0.0830526
0.0830377
0.0830247
0.0830138
0.0830051
0.0829988
0.082995
0.961704
0.892213
0.82912
0.771758
0.719531
0.671913
0.628431
0.588665
0.552242
0.518826
0.488118
0.459849
0.433779
0.409693
0.387396
0.366714
0.347491
0.329584
0.312869
0.29723
0.282569
0.268795
0.255833
0.243614
0.232084
0.221194
0.210909
0.201197
0.192036
0.183408
0.175299
0.167695
0.160585
0.153957
0.147795
0.142084
0.136807
0.131943
0.127472
0.12337
0.119614
0.116182
0.113049
0.110195
0.107596
0.105233
0.103085
0.101136
0.0993665
0.0977622
0.0963083
0.0949914
0.0937993
0.0927206
0.0917452
0.0908636
0.0900673
0.0893484
0.0886999
0.0881151
0.0875882
0.0871136
0.0866866
0.0863025
0.0859573
0.0856472
0.0853687
0.0851188
0.0848947
0.0846938
0.0845137
0.0843523
0.0842076
0.084078
0.0839618
0.0838577
0.0837643
0.0836805
0.0836051
0.0835374
0.0834765
0.0834215
0.083372
0.0833271
0.0832865
0.0832497
0.0832162
0.0831858
0.0831581
0.0831329
0.08311
0.0830891
0.0830703
0.0830535
0.0830386
0.0830256
0.0830147
0.0830061
0.0829997
0.082996
0.961703
0.892212
0.82912
0.771757
0.719532
0.671915
0.628434
0.588671
0.55225
0.518837
0.488132
0.459866
0.4338
0.409718
0.387425
0.366748
0.347529
0.329628
0.312918
0.297285
0.282631
0.268864
0.255909
0.243698
0.232175
0.221294
0.211015
0.20131
0.192156
0.183533
0.175427
0.167826
0.160718
0.154089
0.147927
0.142214
0.136934
0.132066
0.12759
0.123482
0.119721
0.116283
0.113145
0.110285
0.107681
0.105312
0.103159
0.101204
0.0994296
0.0978206
0.0963622
0.095041
0.0938448
0.0927624
0.0917835
0.0908986
0.0900992
0.0893775
0.0887263
0.0881391
0.0876099
0.0871332
0.0867043
0.0863184
0.0859715
0.0856599
0.0853801
0.085129
0.0849037
0.0847018
0.0845207
0.0843585
0.0842131
0.0840828
0.083966
0.0838613
0.0837674
0.0836832
0.0836075
0.0835395
0.0834782
0.0834231
0.0833733
0.0833283
0.0832876
0.0832507
0.0832171
0.0831867
0.0831589
0.0831337
0.0831108
0.08309
0.0830712
0.0830543
0.0830394
0.0830265
0.0830157
0.083007
0.0830007
0.082997
0.961703
0.892212
0.829119
0.771757
0.719532
0.671916
0.628437
0.588676
0.552258
0.518847
0.488145
0.459882
0.43382
0.409742
0.387453
0.366781
0.347567
0.329671
0.312967
0.297341
0.282693
0.268935
0.255987
0.243784
0.232269
0.221395
0.211125
0.201427
0.192278
0.183661
0.175559
0.167961
0.160854
0.154226
0.148062
0.142347
0.137064
0.132192
0.127711
0.123599
0.119832
0.116388
0.113244
0.110378
0.107768
0.105393
0.103235
0.101274
0.0994949
0.0978809
0.0964179
0.0950923
0.093892
0.0928057
0.0918231
0.0909348
0.0901323
0.0894076
0.0887536
0.0881639
0.0876323
0.0871535
0.0867225
0.0863348
0.0859863
0.0856731
0.0853918
0.0851394
0.084913
0.0847099
0.0845279
0.0843648
0.0842186
0.0840876
0.0839702
0.083865
0.0837706
0.0836859
0.0836098
0.0835415
0.08348
0.0834246
0.0833746
0.0833294
0.0832886
0.0832516
0.083218
0.0831874
0.0831597
0.0831344
0.0831115
0.0830907
0.083072
0.0830551
0.0830403
0.0830274
0.0830166
0.0830079
0.0830016
0.0829979
0.961703
0.892211
0.829118
0.771756
0.719532
0.671917
0.62844
0.588681
0.552264
0.518856
0.488157
0.459898
0.433839
0.409765
0.387481
0.366813
0.347605
0.329715
0.313017
0.297398
0.282757
0.269006
0.256066
0.243871
0.232364
0.221499
0.211236
0.201545
0.192403
0.183791
0.175694
0.168098
0.160993
0.154365
0.1482
0.142483
0.137197
0.132321
0.127835
0.123717
0.119945
0.116496
0.113346
0.110473
0.107857
0.105477
0.103312
0.101347
0.0995619
0.0979429
0.0964751
0.095145
0.0939404
0.0928501
0.0918638
0.090972
0.0901662
0.0894385
0.0887817
0.0881893
0.0876553
0.0871743
0.0867413
0.0863516
0.0860013
0.0856866
0.0854039
0.0851501
0.0849224
0.0847183
0.0845353
0.0843712
0.0842242
0.0840925
0.0839744
0.0838686
0.0837737
0.0836886
0.0836121
0.0835434
0.0834817
0.083426
0.0833758
0.0833305
0.0832895
0.0832524
0.0832187
0.0831882
0.0831604
0.0831351
0.0831122
0.0830914
0.0830727
0.0830559
0.0830411
0.0830282
0.0830174
0.0830088
0.0830025
0.0829988
0.961702
0.89221
0.829117
0.771755
0.719532
0.671918
0.628442
0.588684
0.55227
0.518865
0.488168
0.459913
0.433858
0.409787
0.387508
0.366845
0.347642
0.329758
0.313066
0.297454
0.28282
0.269077
0.256145
0.243959
0.23246
0.221603
0.211348
0.201665
0.192529
0.183923
0.17583
0.168238
0.161134
0.154506
0.14834
0.142621
0.137331
0.132452
0.127961
0.123838
0.12006
0.116605
0.113449
0.11057
0.107948
0.105562
0.103392
0.10142
0.0996303
0.0980062
0.0965335
0.0951988
0.0939899
0.0928955
0.0919054
0.09101
0.0902009
0.0894701
0.0888104
0.0882153
0.0876789
0.0871955
0.0867604
0.0863688
0.0860167
0.0857003
0.0854161
0.0851609
0.084932
0.0847267
0.0845427
0.0843777
0.0842298
0.0840974
0.0839786
0.0838722
0.0837768
0.0836912
0.0836144
0.0835453
0.0834833
0.0834274
0.083377
0.0833315
0.0832904
0.0832532
0.0832194
0.0831888
0.083161
0.0831357
0.0831128
0.0830921
0.0830733
0.0830566
0.0830418
0.083029
0.0830182
0.0830096
0.0830033
0.0829996
0.961702
0.892209
0.829116
0.771754
0.719531
0.671918
0.628443
0.588687
0.552275
0.518872
0.488179
0.459926
0.433875
0.409809
0.387534
0.366876
0.347678
0.3298
0.313115
0.29751
0.282884
0.269148
0.256224
0.244046
0.232557
0.221708
0.211461
0.201785
0.192656
0.184055
0.175966
0.168377
0.161276
0.154648
0.148482
0.142761
0.137468
0.132584
0.128089
0.12396
0.120177
0.116715
0.113553
0.110669
0.10804
0.105648
0.103472
0.101495
0.0996996
0.0980703
0.0965927
0.0952534
0.0940401
0.0929416
0.0919476
0.0910487
0.0902361
0.0895022
0.0888396
0.0882418
0.0877028
0.0872171
0.0867798
0.0863862
0.0860323
0.0857141
0.0854284
0.0851719
0.0849417
0.0847352
0.0845501
0.0843842
0.0842355
0.0841022
0.0839828
0.0838758
0.0837799
0.0836938
0.0836166
0.0835472
0.0834848
0.0834286
0.083378
0.0833324
0.0832912
0.0832538
0.08322
0.0831894
0.0831615
0.0831363
0.0831134
0.0830926
0.0830739
0.0830572
0.0830425
0.0830297
0.0830189
0.0830103
0.0830041
0.0830004
0.961702
0.892208
0.829115
0.771753
0.719531
0.671918
0.628444
0.58869
0.55228
0.518879
0.488188
0.459939
0.433892
0.409829
0.387559
0.366906
0.347714
0.329841
0.313163
0.297565
0.282946
0.269218
0.256303
0.244134
0.232652
0.221812
0.211573
0.201905
0.192782
0.184187
0.176103
0.168517
0.161417
0.154791
0.148623
0.1429
0.137604
0.132716
0.128217
0.124083
0.120294
0.116827
0.113658
0.110768
0.108133
0.105735
0.103553
0.10157
0.0997696
0.0981351
0.0966526
0.0953086
0.0940909
0.0929882
0.0919903
0.0910877
0.0902717
0.0895346
0.088869
0.0882684
0.0877269
0.0872388
0.0867993
0.0864037
0.0860479
0.0857281
0.0854408
0.0851829
0.0849514
0.0847437
0.0845575
0.0843907
0.0842411
0.0841071
0.083987
0.0838793
0.0837828
0.0836963
0.0836186
0.0835489
0.0834862
0.0834298
0.083379
0.0833332
0.0832918
0.0832544
0.0832205
0.0831898
0.083162
0.0831367
0.0831138
0.0830931
0.0830744
0.0830578
0.083043
0.0830303
0.0830196
0.083011
0.0830048
0.083001
0.961702
0.892208
0.829114
0.771752
0.71953
0.671918
0.628445
0.588692
0.552284
0.518886
0.488198
0.459952
0.433907
0.409849
0.387583
0.366935
0.347748
0.329882
0.31321
0.297619
0.283008
0.269288
0.256381
0.24422
0.232747
0.221915
0.211684
0.202024
0.192908
0.184319
0.176239
0.168657
0.161559
0.154933
0.148765
0.14304
0.137741
0.132849
0.128345
0.124206
0.120411
0.116938
0.113764
0.110867
0.108226
0.105822
0.103635
0.101646
0.0998399
0.0982003
0.0967128
0.0953641
0.0941419
0.0930351
0.0920332
0.0911269
0.0903075
0.0895672
0.0888986
0.0882953
0.0877511
0.0872607
0.086819
0.0864213
0.0860637
0.0857421
0.0854532
0.0851938
0.084961
0.0847522
0.0845649
0.0843971
0.0842466
0.0841118
0.083991
0.0838828
0.0837857
0.0836987
0.0836207
0.0835506
0.0834876
0.0834309
0.0833799
0.0833339
0.0832924
0.0832549
0.0832209
0.0831902
0.0831623
0.083137
0.0831142
0.0830935
0.0830748
0.0830582
0.0830435
0.0830308
0.0830201
0.0830116
0.0830053
0.0830016
0.961701
0.892207
0.829112
0.771751
0.719529
0.671918
0.628446
0.588694
0.552288
0.518892
0.488206
0.459963
0.433922
0.409868
0.387606
0.366963
0.347782
0.329922
0.313256
0.297672
0.283068
0.269356
0.256457
0.244305
0.232841
0.222017
0.211795
0.202141
0.193033
0.184449
0.176375
0.168795
0.161699
0.155074
0.148905
0.143178
0.137877
0.132981
0.128472
0.124329
0.120528
0.117049
0.113869
0.110966
0.10832
0.105909
0.103716
0.101722
0.0999103
0.0982655
0.096773
0.0954196
0.0941931
0.093082
0.0920763
0.0911663
0.0903434
0.0895998
0.0889283
0.0883221
0.0877754
0.0872826
0.0868386
0.0864389
0.0860794
0.0857561
0.0854657
0.0852048
0.0849707
0.0847606
0.0845723
0.0844034
0.0842521
0.0841165
0.083995
0.0838861
0.0837885
0.083701
0.0836226
0.0835521
0.0834888
0.0834319
0.0833807
0.0833345
0.0832929
0.0832553
0.0832212
0.0831905
0.0831626
0.0831373
0.0831144
0.0830937
0.0830751
0.0830585
0.0830439
0.0830312
0.0830206
0.083012
0.0830058
0.0830021
0.961701
0.892206
0.829111
0.77175
0.719528
0.671917
0.628446
0.588696
0.552291
0.518897
0.488214
0.459974
0.433936
0.409886
0.387629
0.36699
0.347814
0.32996
0.313301
0.297723
0.283127
0.269423
0.256533
0.244388
0.232933
0.222118
0.211903
0.202258
0.193156
0.184578
0.176508
0.168932
0.161838
0.155213
0.149044
0.143316
0.138011
0.133112
0.128599
0.12445
0.120645
0.11716
0.113974
0.111065
0.108412
0.105996
0.103797
0.101797
0.0999805
0.0983305
0.0968331
0.0954751
0.0942441
0.0931289
0.0921192
0.0912055
0.0903792
0.0896324
0.0889579
0.0883489
0.0877996
0.0873044
0.0868582
0.0864565
0.086095
0.08577
0.085478
0.0852157
0.0849802
0.084769
0.0845795
0.0844097
0.0842575
0.0841211
0.0839989
0.0838894
0.0837912
0.0837033
0.0836244
0.0835535
0.0834899
0.0834328
0.0833813
0.083335
0.0832932
0.0832555
0.0832214
0.0831906
0.0831627
0.0831374
0.0831145
0.0830939
0.0830753
0.0830588
0.0830442
0.0830315
0.0830209
0.0830124
0.0830062
0.0830025
0.961701
0.892205
0.82911
0.771749
0.719527
0.671917
0.628447
0.588698
0.552294
0.518902
0.488221
0.459984
0.43395
0.409903
0.38765
0.367017
0.347846
0.329997
0.313344
0.297773
0.283184
0.269488
0.256606
0.24447
0.233023
0.222216
0.21201
0.202371
0.193276
0.184704
0.176639
0.169067
0.161975
0.155351
0.149182
0.143452
0.138145
0.133242
0.128724
0.124571
0.12076
0.117269
0.114078
0.111163
0.108504
0.106082
0.103878
0.101872
0.10005
0.0983951
0.0968928
0.0955302
0.0942948
0.0931755
0.0921619
0.0912446
0.0904148
0.0896648
0.0889873
0.0883756
0.0878237
0.087326
0.0868776
0.0864739
0.0861106
0.0857838
0.0854902
0.0852264
0.0849896
0.0847772
0.0845867
0.0844159
0.0842628
0.0841256
0.0840027
0.0838925
0.0837938
0.0837054
0.083626
0.0835549
0.083491
0.0834335
0.0833819
0.0833354
0.0832935
0.0832557
0.0832215
0.0831906
0.0831627
0.0831374
0.0831146
0.083094
0.0830754
0.0830589
0.0830443
0.0830317
0.0830211
0.0830127
0.0830065
0.0830028
0.9617
0.892205
0.829109
0.771748
0.719526
0.671916
0.628447
0.588699
0.552297
0.518907
0.488228
0.459994
0.433963
0.40992
0.387671
0.367042
0.347876
0.330033
0.313386
0.297822
0.28324
0.269551
0.256677
0.24455
0.233111
0.222312
0.212114
0.202483
0.193395
0.184828
0.176768
0.169199
0.162109
0.155486
0.149317
0.143585
0.138276
0.13337
0.128848
0.12469
0.120874
0.117378
0.11418
0.11126
0.108595
0.106168
0.103957
0.101947
0.100119
0.098459
0.096952
0.0955848
0.0943451
0.0932216
0.0922042
0.0912833
0.0904501
0.089697
0.0890164
0.088402
0.0878475
0.0873475
0.0868969
0.0864911
0.0861259
0.0857975
0.0855022
0.085237
0.0849989
0.0847853
0.0845937
0.0844219
0.0842679
0.0841299
0.0840063
0.0838955
0.0837963
0.0837074
0.0836276
0.0835561
0.0834919
0.0834342
0.0833824
0.0833357
0.0832937
0.0832557
0.0832215
0.0831906
0.0831626
0.0831373
0.0831145
0.0830939
0.0830754
0.0830589
0.0830444
0.0830318
0.0830213
0.0830129
0.0830067
0.083003
0.9617
0.892204
0.829108
0.771747
0.719525
0.671915
0.628447
0.5887
0.5523
0.518911
0.488235
0.460003
0.433975
0.409935
0.38769
0.367066
0.347905
0.330067
0.313426
0.297869
0.283294
0.269613
0.256747
0.244627
0.233196
0.222406
0.212215
0.202592
0.19351
0.184949
0.176893
0.169328
0.162241
0.155619
0.149449
0.143716
0.138404
0.133495
0.128969
0.124807
0.120985
0.117484
0.114281
0.111355
0.108685
0.106252
0.104036
0.10202
0.100187
0.0985222
0.0970104
0.0956387
0.0943947
0.0932672
0.092246
0.0913215
0.090485
0.0897287
0.0890452
0.088428
0.087871
0.0873687
0.0869159
0.0865081
0.086141
0.0858109
0.0855141
0.0852474
0.085008
0.0847932
0.0846005
0.0844277
0.0842729
0.0841341
0.0840098
0.0838984
0.0837987
0.0837092
0.0836291
0.0835572
0.0834927
0.0834348
0.0833827
0.0833359
0.0832937
0.0832557
0.0832214
0.0831904
0.0831625
0.0831372
0.0831143
0.0830938
0.0830753
0.0830589
0.0830444
0.0830319
0.0830213
0.0830129
0.0830068
0.0830031
0.9617
0.892203
0.829107
0.771745
0.719524
0.671915
0.628447
0.588701
0.552302
0.518915
0.488241
0.460012
0.433986
0.40995
0.387709
0.367089
0.347933
0.330101
0.313465
0.297914
0.283347
0.269673
0.256814
0.244702
0.233279
0.222497
0.212314
0.202697
0.193622
0.185067
0.177016
0.169454
0.162369
0.155748
0.149578
0.143844
0.13853
0.133618
0.129088
0.124921
0.121095
0.117589
0.11438
0.111448
0.108773
0.106334
0.104113
0.102092
0.100254
0.0985843
0.0970679
0.0956917
0.0944436
0.0933122
0.0922872
0.0913591
0.0905194
0.0897599
0.0890736
0.0884537
0.0878942
0.0873895
0.0869346
0.0865248
0.0861559
0.085824
0.0855257
0.0852576
0.085017
0.0848009
0.0846072
0.0844334
0.0842777
0.0841382
0.0840132
0.0839012
0.0838009
0.083711
0.0836304
0.0835582
0.0834934
0.0834352
0.0833829
0.0833359
0.0832937
0.0832555
0.0832212
0.0831902
0.0831622
0.0831369
0.0831141
0.0830936
0.0830751
0.0830587
0.0830443
0.0830318
0.0830213
0.0830129
0.0830068
0.0830031
0.9617
0.892203
0.829106
0.771744
0.719523
0.671914
0.628447
0.588702
0.552304
0.518919
0.488247
0.46002
0.433997
0.409964
0.387727
0.367111
0.34796
0.330132
0.313503
0.297958
0.283397
0.26973
0.256879
0.244775
0.23336
0.222585
0.212409
0.2028
0.193731
0.185182
0.177135
0.169577
0.162494
0.155875
0.149704
0.143969
0.138653
0.133738
0.129204
0.125033
0.121202
0.117691
0.114477
0.11154
0.108859
0.106415
0.104189
0.102163
0.10032
0.0986453
0.0971243
0.0957438
0.0944916
0.0933562
0.0923276
0.0913961
0.0905531
0.0897906
0.0891014
0.0884789
0.0879169
0.0874099
0.0869529
0.0865412
0.0861705
0.0858369
0.0855371
0.0852676
0.0850257
0.0848085
0.0846137
0.084439
0.0842824
0.0841421
0.0840164
0.0839038
0.083803
0.0837126
0.0836316
0.0835591
0.083494
0.0834356
0.0833831
0.0833359
0.0832935
0.0832553
0.0832209
0.0831898
0.0831618
0.0831366
0.0831138
0.0830932
0.0830748
0.0830585
0.0830441
0.0830316
0.0830211
0.0830128
0.0830067
0.083003
0.961699
0.892202
0.829106
0.771743
0.719522
0.671914
0.628447
0.588703
0.552306
0.518922
0.488252
0.460027
0.434008
0.409978
0.387744
0.367132
0.347985
0.330163
0.313539
0.298
0.283445
0.269785
0.256941
0.244844
0.233437
0.22267
0.212501
0.202899
0.193837
0.185293
0.177251
0.169696
0.162615
0.155997
0.149827
0.144091
0.138772
0.133854
0.129318
0.125142
0.121307
0.11779
0.114572
0.11163
0.108944
0.106494
0.104263
0.102232
0.100384
0.0987049
0.0971795
0.0957948
0.0945385
0.0933994
0.0923671
0.0914323
0.0905861
0.0898206
0.0891287
0.0885036
0.0879392
0.0874299
0.0869708
0.0865571
0.0861847
0.0858495
0.0855482
0.0852773
0.0850341
0.0848158
0.08462
0.0844443
0.0842869
0.0841459
0.0840195
0.0839063
0.0838049
0.0837141
0.0836328
0.0835598
0.0834945
0.0834358
0.0833831
0.0833358
0.0832933
0.083255
0.0832205
0.0831894
0.0831614
0.0831361
0.0831133
0.0830928
0.0830745
0.0830581
0.0830438
0.0830313
0.0830209
0.0830126
0.0830065
0.0830028
0.961699
0.892201
0.829105
0.771742
0.719521
0.671913
0.628447
0.588704
0.552308
0.518926
0.488257
0.460035
0.434018
0.409991
0.38776
0.367152
0.34801
0.330192
0.313574
0.29804
0.283492
0.269838
0.257001
0.244912
0.233512
0.222751
0.21259
0.202995
0.193938
0.1854
0.177362
0.169811
0.162733
0.156115
0.149945
0.144208
0.138888
0.133968
0.129427
0.125248
0.121408
0.117887
0.114664
0.111717
0.109026
0.106571
0.104335
0.102299
0.100447
0.0987631
0.0972334
0.0958445
0.0945843
0.0934415
0.0924058
0.0914676
0.0906183
0.08985
0.0891553
0.0885276
0.0879609
0.0874495
0.0869883
0.0865727
0.0861985
0.0858618
0.0855589
0.0852868
0.0850423
0.0848229
0.084626
0.0844495
0.0842913
0.0841495
0.0840225
0.0839087
0.0838068
0.0837155
0.0836338
0.0835605
0.0834949
0.083436
0.0833831
0.0833356
0.083293
0.0832546
0.0832201
0.0831889
0.0831609
0.0831356
0.0831128
0.0830924
0.083074
0.0830577
0.0830434
0.083031
0.0830206
0.0830123
0.0830062
0.0830026
0.961699
0.892201
0.829104
0.771741
0.71952
0.671912
0.628447
0.588704
0.55231
0.518929
0.488262
0.460042
0.434027
0.410003
0.387776
0.367171
0.348033
0.33022
0.313607
0.298079
0.283536
0.269889
0.257059
0.244976
0.233583
0.22283
0.212676
0.203087
0.194036
0.185503
0.17747
0.169922
0.162846
0.15623
0.15006
0.144322
0.139
0.134077
0.129534
0.125351
0.121507
0.117981
0.114753
0.111801
0.109105
0.106646
0.104405
0.102365
0.100508
0.0988196
0.0972858
0.0958929
0.0946289
0.0934825
0.0924433
0.091502
0.0906497
0.0898785
0.0891812
0.088551
0.087982
0.0874684
0.0870053
0.0865879
0.086212
0.0858737
0.0855694
0.0852959
0.0850503
0.0848297
0.0846319
0.0844545
0.0842954
0.0841529
0.0840253
0.0839109
0.0838085
0.0837168
0.0836347
0.0835611
0.0834952
0.083436
0.083383
0.0833354
0.0832926
0.0832541
0.0832195
0.0831884
0.0831603
0.083135
0.0831123
0.0830918
0.0830735
0.0830572
0.0830429
0.0830306
0.0830202
0.083012
0.0830059
0.0830022
0.961699
0.8922
0.829103
0.771741
0.719519
0.671912
0.628447
0.588705
0.552311
0.518932
0.488267
0.460048
0.434036
0.410015
0.38779
0.367189
0.348055
0.330247
0.313638
0.298116
0.283579
0.269938
0.257114
0.245038
0.233652
0.222905
0.212758
0.203175
0.19413
0.185602
0.177573
0.170028
0.162955
0.15634
0.15017
0.144432
0.139108
0.134183
0.129637
0.12545
0.121602
0.118072
0.11484
0.111883
0.109183
0.106719
0.104473
0.102428
0.100567
0.0988745
0.0973365
0.0959398
0.0946722
0.0935222
0.0924798
0.0915353
0.0906801
0.0899062
0.0892063
0.0885737
0.0880024
0.0874868
0.0870217
0.0866026
0.086225
0.0858852
0.0855795
0.0853047
0.0850579
0.0848363
0.0846375
0.0844592
0.0842994
0.0841562
0.0840279
0.083913
0.0838101
0.083718
0.0836355
0.0835616
0.0834954
0.083436
0.0833828
0.083335
0.0832921
0.0832536
0.0832189
0.0831877
0.0831596
0.0831344
0.0831116
0.0830912
0.0830729
0.0830567
0.0830424
0.0830301
0.0830198
0.0830116
0.0830055
0.0830018
0.961699
0.8922
0.829102
0.77174
0.719519
0.671911
0.628447
0.588705
0.552313
0.518935
0.488271
0.460054
0.434044
0.410025
0.387804
0.367207
0.348076
0.330272
0.313668
0.298151
0.283619
0.269984
0.257166
0.245097
0.233717
0.222977
0.212836
0.203259
0.19422
0.185697
0.177672
0.17013
0.163059
0.156446
0.150276
0.144537
0.139212
0.134285
0.129735
0.125545
0.121694
0.11816
0.114923
0.111962
0.109257
0.106789
0.104539
0.102489
0.100624
0.0989274
0.0973856
0.0959852
0.094714
0.0935607
0.092515
0.0915675
0.0907095
0.0899329
0.0892305
0.0885957
0.0880222
0.0875046
0.0870376
0.0866167
0.0862376
0.0858963
0.0855892
0.0853132
0.0850653
0.0848427
0.0846429
0.0844638
0.0843032
0.0841593
0.0840304
0.083915
0.0838116
0.0837191
0.0836362
0.083562
0.0834955
0.0834359
0.0833825
0.0833346
0.0832916
0.083253
0.0832183
0.083187
0.0831589
0.0831337
0.0831109
0.0830905
0.0830723
0.0830561
0.0830419
0.0830296
0.0830193
0.0830111
0.0830051
0.0830014
0.961698
0.892199
0.829102
0.771739
0.719518
0.671911
0.628447
0.588706
0.552314
0.518937
0.488275
0.46006
0.434052
0.410036
0.387817
0.367223
0.348096
0.330296
0.313696
0.298184
0.283658
0.270028
0.257216
0.245153
0.23378
0.223046
0.212911
0.20334
0.194306
0.185787
0.177766
0.170228
0.163159
0.156547
0.150378
0.144638
0.139312
0.134382
0.12983
0.125637
0.121782
0.118244
0.115003
0.112038
0.109329
0.106856
0.104602
0.102548
0.100679
0.0989785
0.0974329
0.0960289
0.0947542
0.0935977
0.092549
0.0915986
0.0907378
0.0899587
0.0892539
0.0886168
0.0880413
0.0875217
0.0870529
0.0866304
0.0862497
0.0859069
0.0855986
0.0853214
0.0850724
0.0848487
0.0846481
0.0844681
0.0843068
0.0841622
0.0840327
0.0839168
0.083813
0.08372
0.0836368
0.0835623
0.0834956
0.0834358
0.0833822
0.0833342
0.0832911
0.0832524
0.0832176
0.0831863
0.0831582
0.0831329
0.0831102
0.0830898
0.0830716
0.0830554
0.0830412
0.083029
0.0830187
0.0830106
0.0830045
0.0830009
0.961698
0.892199
0.829101
0.771738
0.719517
0.67191
0.628446
0.588706
0.552316
0.51894
0.488279
0.460066
0.43406
0.410046
0.38783
0.367238
0.348115
0.330319