/*--------------------------------*- C++ -*----------------------------------*\
  =========                 |
  \\      /  F ield         | OpenFOAM: The Open Source CFD Toolbox
   \\    /   O peration     | Website:  https://openfoam.org
    \\  /    A nd           | Version:  11
     \\/     M anipulation  |
\*---------------------------------------------------------------------------*/
FoamFile
{
    format      ascii;
    class       volScalarField;
    location    "720";
    object      k;
}
// * * * * * * * * * * * * * * * * * * * * * * * * * * * * * * * * * * * * * //

dimensions      [0 2 -2 0 0 0 0];

internalField   nonuniform List<scalar> 
10000
(
0.000939687
0.000835719
0.000745891
0.000668036
0.000600343
0.000541303
0.00048965
0.000444322
0.000404424
0.0003692
0.000338013
0.000310321
0.000285663
0.000263645
0.000243932
0.000226237
0.000210312
0.000195943
0.000182948
0.000171167
0.000160461
0.000150712
0.000141813
0.000133674
0.000126214
0.000119363
0.000113059
0.000107248
0.000101881
9.6915e-05
9.23127e-05
8.80404e-05
8.40678e-05
8.03681e-05
7.69175e-05
7.36944e-05
7.06794e-05
6.78554e-05
6.52065e-05
6.27188e-05
6.03794e-05
5.81768e-05
5.61005e-05
5.41411e-05
5.22899e-05
5.05389e-05
4.88811e-05
4.73098e-05
4.58191e-05
4.44033e-05
4.30576e-05
4.17771e-05
4.05578e-05
3.93956e-05
3.8287e-05
3.72286e-05
3.62172e-05
3.52502e-05
3.43248e-05
3.34386e-05
3.25894e-05
3.1775e-05
3.09935e-05
3.02431e-05
2.95221e-05
2.8829e-05
2.81623e-05
2.75206e-05
2.69028e-05
2.63076e-05
2.5734e-05
2.51809e-05
2.46475e-05
2.41329e-05
2.36362e-05
2.31568e-05
2.2694e-05
2.22471e-05
2.18156e-05
2.1399e-05
2.09968e-05
2.06086e-05
2.02341e-05
1.98729e-05
1.95249e-05
1.91897e-05
1.88674e-05
1.85579e-05
1.82613e-05
1.79777e-05
1.77075e-05
1.74513e-05
1.721e-05
1.69846e-05
1.6777e-05
1.65896e-05
1.64256e-05
1.62897e-05
1.61883e-05
1.61304e-05
0.000939687
0.000835719
0.000745891
0.000668036
0.000600343
0.000541303
0.00048965
0.000444322
0.000404424
0.0003692
0.000338013
0.000310321
0.000285663
0.000263645
0.000243932
0.000226237
0.000210312
0.000195943
0.000182948
0.000171167
0.000160461
0.000150712
0.000141813
0.000133674
0.000126214
0.000119363
0.000113059
0.000107248
0.000101881
9.6915e-05
9.23128e-05
8.80404e-05
8.40679e-05
8.03682e-05
7.69176e-05
7.36945e-05
7.06796e-05
6.78555e-05
6.52066e-05
6.27189e-05
6.03795e-05
5.81769e-05
5.61007e-05
5.41412e-05
5.229e-05
5.05391e-05
4.88813e-05
4.731e-05
4.58192e-05
4.44035e-05
4.30577e-05
4.17773e-05
4.0558e-05
3.93958e-05
3.82872e-05
3.72287e-05
3.62174e-05
3.52504e-05
3.4325e-05
3.34388e-05
3.25896e-05
3.17752e-05
3.09937e-05
3.02433e-05
2.95223e-05
2.88292e-05
2.81625e-05
2.75208e-05
2.6903e-05
2.63078e-05
2.57342e-05
2.51812e-05
2.46477e-05
2.41331e-05
2.36365e-05
2.31571e-05
2.26942e-05
2.22473e-05
2.18159e-05
2.13992e-05
2.09971e-05
2.06089e-05
2.02344e-05
1.98732e-05
1.95251e-05
1.919e-05
1.88677e-05
1.85582e-05
1.82615e-05
1.79779e-05
1.77078e-05
1.74516e-05
1.72102e-05
1.69849e-05
1.67773e-05
1.65898e-05
1.64258e-05
1.62899e-05
1.61885e-05
1.61306e-05
0.000939687
0.000835719
0.000745891
0.000668036
0.000600343
0.000541303
0.00048965
0.000444322
0.000404424
0.0003692
0.000338014
0.000310321
0.000285663
0.000263645
0.000243932
0.000226237
0.000210312
0.000195943
0.000182948
0.000171167
0.000160462
0.000150712
0.000141813
0.000133674
0.000126214
0.000119363
0.00011306
0.000107248
0.000101881
9.69152e-05
9.2313e-05
8.80406e-05
8.4068e-05
8.03684e-05
7.69178e-05
7.36947e-05
7.06798e-05
6.78557e-05
6.52068e-05
6.27191e-05
6.03797e-05
5.81771e-05
5.61009e-05
5.41415e-05
5.22903e-05
5.05394e-05
4.88815e-05
4.73103e-05
4.58195e-05
4.44038e-05
4.3058e-05
4.17776e-05
4.05583e-05
3.93961e-05
3.82875e-05
3.72291e-05
3.62178e-05
3.52508e-05
3.43254e-05
3.34392e-05
3.259e-05
3.17756e-05
3.09941e-05
3.02437e-05
2.95228e-05
2.88296e-05
2.81629e-05
2.75213e-05
2.69035e-05
2.63083e-05
2.57347e-05
2.51817e-05
2.46482e-05
2.41336e-05
2.3637e-05
2.31576e-05
2.26947e-05
2.22479e-05
2.18164e-05
2.13998e-05
2.09976e-05
2.06094e-05
2.02349e-05
1.98737e-05
1.95257e-05
1.91905e-05
1.88682e-05
1.85587e-05
1.8262e-05
1.79784e-05
1.77083e-05
1.74521e-05
1.72107e-05
1.69853e-05
1.67777e-05
1.65903e-05
1.64263e-05
1.62904e-05
1.6189e-05
1.6131e-05
0.000939687
0.000835719
0.000745892
0.000668036
0.000600343
0.000541303
0.000489651
0.000444322
0.000404424
0.000369201
0.000338014
0.000310321
0.000285663
0.000263645
0.000243933
0.000226237
0.000210312
0.000195944
0.000182948
0.000171167
0.000160462
0.000150712
0.000141813
0.000133674
0.000126214
0.000119364
0.00011306
0.000107248
0.000101881
9.69155e-05
9.23133e-05
8.80409e-05
8.40683e-05
8.03687e-05
7.69181e-05
7.3695e-05
7.06801e-05
6.7856e-05
6.52072e-05
6.27195e-05
6.03801e-05
5.81775e-05
5.61013e-05
5.41419e-05
5.22907e-05
5.05398e-05
4.8882e-05
4.73107e-05
4.582e-05
4.44042e-05
4.30585e-05
4.17781e-05
4.05588e-05
3.93966e-05
3.8288e-05
3.72296e-05
3.62183e-05
3.52513e-05
3.4326e-05
3.34398e-05
3.25906e-05
3.17762e-05
3.09947e-05
3.02444e-05
2.95234e-05
2.88303e-05
2.81636e-05
2.7522e-05
2.69042e-05
2.6309e-05
2.57354e-05
2.51824e-05
2.4649e-05
2.41344e-05
2.36377e-05
2.31583e-05
2.26955e-05
2.22487e-05
2.18172e-05
2.14006e-05
2.09984e-05
2.06102e-05
2.02357e-05
1.98745e-05
1.95265e-05
1.91913e-05
1.8869e-05
1.85595e-05
1.82628e-05
1.79792e-05
1.7709e-05
1.74528e-05
1.72114e-05
1.6986e-05
1.67784e-05
1.65909e-05
1.64269e-05
1.6291e-05
1.61896e-05
1.61315e-05
0.000939687
0.000835719
0.000745892
0.000668036
0.000600343
0.000541303
0.000489651
0.000444322
0.000404424
0.000369201
0.000338014
0.000310321
0.000285663
0.000263645
0.000243933
0.000226237
0.000210312
0.000195944
0.000182949
0.000171167
0.000160462
0.000150712
0.000141814
0.000133675
0.000126215
0.000119364
0.00011306
0.000107249
0.000101882
9.69158e-05
9.23136e-05
8.80413e-05
8.40687e-05
8.03691e-05
7.69185e-05
7.36954e-05
7.06805e-05
6.78565e-05
6.52076e-05
6.27199e-05
6.03805e-05
5.8178e-05
5.61018e-05
5.41424e-05
5.22912e-05
5.05403e-05
4.88825e-05
4.73113e-05
4.58205e-05
4.44048e-05
4.30591e-05
4.17787e-05
4.05594e-05
3.93973e-05
3.82887e-05
3.72303e-05
3.6219e-05
3.52521e-05
3.43267e-05
3.34406e-05
3.25914e-05
3.1777e-05
3.09955e-05
3.02452e-05
2.95242e-05
2.88312e-05
2.81645e-05
2.75229e-05
2.69051e-05
2.63099e-05
2.57364e-05
2.51833e-05
2.465e-05
2.41354e-05
2.36387e-05
2.31594e-05
2.26966e-05
2.22497e-05
2.18182e-05
2.14016e-05
2.09995e-05
2.06113e-05
2.02368e-05
1.98756e-05
1.95275e-05
1.91924e-05
1.88701e-05
1.85605e-05
1.82638e-05
1.79802e-05
1.771e-05
1.74538e-05
1.72123e-05
1.69869e-05
1.67793e-05
1.65918e-05
1.64277e-05
1.62918e-05
1.61903e-05
1.61323e-05
0.000939687
0.000835719
0.000745892
0.000668036
0.000600343
0.000541304
0.000489651
0.000444322
0.000404424
0.000369201
0.000338014
0.000310322
0.000285663
0.000263645
0.000243933
0.000226238
0.000210312
0.000195944
0.000182949
0.000171168
0.000160462
0.000150713
0.000141814
0.000133675
0.000126215
0.000119364
0.00011306
0.000107249
0.000101882
9.69162e-05
9.2314e-05
8.80417e-05
8.40691e-05
8.03696e-05
7.6919e-05
7.36959e-05
7.0681e-05
6.7857e-05
6.52082e-05
6.27205e-05
6.03811e-05
5.81786e-05
5.61024e-05
5.4143e-05
5.22919e-05
5.0541e-05
4.88832e-05
4.7312e-05
4.58213e-05
4.44056e-05
4.30599e-05
4.17795e-05
4.05602e-05
3.93981e-05
3.82895e-05
3.72312e-05
3.62199e-05
3.52529e-05
3.43276e-05
3.34415e-05
3.25923e-05
3.1778e-05
3.09965e-05
3.02462e-05
2.95253e-05
2.88322e-05
2.81656e-05
2.7524e-05
2.69062e-05
2.63111e-05
2.57375e-05
2.51845e-05
2.46512e-05
2.41366e-05
2.364e-05
2.31606e-05
2.26978e-05
2.2251e-05
2.18195e-05
2.14029e-05
2.10008e-05
2.06126e-05
2.02381e-05
1.98769e-05
1.95288e-05
1.91937e-05
1.88713e-05
1.85618e-05
1.82651e-05
1.79814e-05
1.77112e-05
1.74549e-05
1.72135e-05
1.69881e-05
1.67804e-05
1.65928e-05
1.64287e-05
1.62928e-05
1.61913e-05
1.61333e-05
0.000939687
0.000835719
0.000745892
0.000668036
0.000600343
0.000541304
0.000489651
0.000444322
0.000404424
0.000369201
0.000338014
0.000310322
0.000285663
0.000263646
0.000243933
0.000226238
0.000210313
0.000195944
0.000182949
0.000171168
0.000160463
0.000150713
0.000141814
0.000133675
0.000126215
0.000119365
0.000113061
0.00010725
0.000101882
9.69167e-05
9.23145e-05
8.80422e-05
8.40697e-05
8.03701e-05
7.69195e-05
7.36965e-05
7.06816e-05
6.78576e-05
6.52088e-05
6.27211e-05
6.03818e-05
5.81793e-05
5.61031e-05
5.41438e-05
5.22926e-05
5.05418e-05
4.8884e-05
4.73128e-05
4.58221e-05
4.44064e-05
4.30608e-05
4.17804e-05
4.05612e-05
3.93991e-05
3.82905e-05
3.72322e-05
3.6221e-05
3.5254e-05
3.43287e-05
3.34426e-05
3.25934e-05
3.17791e-05
3.09977e-05
3.02474e-05
2.95265e-05
2.88335e-05
2.81668e-05
2.75253e-05
2.69075e-05
2.63124e-05
2.57389e-05
2.51859e-05
2.46526e-05
2.4138e-05
2.36414e-05
2.31621e-05
2.26993e-05
2.22525e-05
2.1821e-05
2.14044e-05
2.10023e-05
2.06141e-05
2.02396e-05
1.98784e-05
1.95304e-05
1.91952e-05
1.88728e-05
1.85633e-05
1.82666e-05
1.79829e-05
1.77126e-05
1.74563e-05
1.72148e-05
1.69894e-05
1.67816e-05
1.6594e-05
1.64299e-05
1.62939e-05
1.61924e-05
1.61344e-05
0.000939687
0.000835719
0.000745892
0.000668036
0.000600344
0.000541304
0.000489651
0.000444323
0.000404424
0.000369201
0.000338014
0.000310322
0.000285664
0.000263646
0.000243933
0.000226238
0.000210313
0.000195945
0.000182949
0.000171168
0.000160463
0.000150713
0.000141815
0.000133676
0.000126216
0.000119365
0.000113061
0.00010725
0.000101883
9.69172e-05
9.23151e-05
8.80428e-05
8.40703e-05
8.03707e-05
7.69202e-05
7.36971e-05
7.06823e-05
6.78583e-05
6.52095e-05
6.27219e-05
6.03826e-05
5.81801e-05
5.61039e-05
5.41446e-05
5.22935e-05
5.05426e-05
4.88849e-05
4.73137e-05
4.58231e-05
4.44074e-05
4.30618e-05
4.17815e-05
4.05622e-05
3.94002e-05
3.82916e-05
3.72333e-05
3.62221e-05
3.52552e-05
3.43299e-05
3.34439e-05
3.25947e-05
3.17804e-05
3.09991e-05
3.02488e-05
2.95279e-05
2.88349e-05
2.81683e-05
2.75268e-05
2.6909e-05
2.6314e-05
2.57404e-05
2.51875e-05
2.46542e-05
2.41396e-05
2.36431e-05
2.31637e-05
2.2701e-05
2.22542e-05
2.18227e-05
2.14062e-05
2.1004e-05
2.06159e-05
2.02413e-05
1.98802e-05
1.95321e-05
1.91969e-05
1.88746e-05
1.8565e-05
1.82682e-05
1.79845e-05
1.77142e-05
1.74579e-05
1.72164e-05
1.69909e-05
1.67831e-05
1.65955e-05
1.64313e-05
1.62952e-05
1.61937e-05
1.61357e-05
0.000939687
0.000835719
0.000745892
0.000668036
0.000600344
0.000541304
0.000489651
0.000444323
0.000404424
0.000369201
0.000338014
0.000310322
0.000285664
0.000263646
0.000243934
0.000226238
0.000210313
0.000195945
0.00018295
0.000171169
0.000160463
0.000150714
0.000141815
0.000133676
0.000126216
0.000119366
0.000113062
0.000107251
0.000101883
9.69178e-05
9.23157e-05
8.80434e-05
8.40709e-05
8.03714e-05
7.69209e-05
7.36979e-05
7.06831e-05
6.78591e-05
6.52104e-05
6.27227e-05
6.03834e-05
5.8181e-05
5.61049e-05
5.41456e-05
5.22945e-05
5.05436e-05
4.88859e-05
4.73148e-05
4.58241e-05
4.44085e-05
4.30629e-05
4.17826e-05
4.05634e-05
3.94014e-05
3.82929e-05
3.72346e-05
3.62234e-05
3.52566e-05
3.43313e-05
3.34453e-05
3.25962e-05
3.17819e-05
3.10006e-05
3.02503e-05
2.95295e-05
2.88365e-05
2.81699e-05
2.75284e-05
2.69107e-05
2.63157e-05
2.57422e-05
2.51893e-05
2.4656e-05
2.41415e-05
2.36449e-05
2.31656e-05
2.27029e-05
2.22561e-05
2.18247e-05
2.14081e-05
2.1006e-05
2.06178e-05
2.02433e-05
1.98821e-05
1.9534e-05
1.91989e-05
1.88765e-05
1.85669e-05
1.82701e-05
1.79864e-05
1.7716e-05
1.74596e-05
1.72181e-05
1.69925e-05
1.67847e-05
1.6597e-05
1.64328e-05
1.62967e-05
1.61952e-05
1.61371e-05
0.000939687
0.000835719
0.000745892
0.000668036
0.000600344
0.000541304
0.000489651
0.000444323
0.000404424
0.000369201
0.000338015
0.000310322
0.000285664
0.000263646
0.000243934
0.000226239
0.000210313
0.000195945
0.00018295
0.000171169
0.000160464
0.000150714
0.000141816
0.000133677
0.000126217
0.000119366
0.000113062
0.000107251
0.000101884
9.69185e-05
9.23164e-05
8.80441e-05
8.40717e-05
8.03722e-05
7.69217e-05
7.36987e-05
7.06839e-05
6.786e-05
6.52113e-05
6.27236e-05
6.03844e-05
5.8182e-05
5.61059e-05
5.41466e-05
5.22955e-05
5.05447e-05
4.88871e-05
4.73159e-05
4.58253e-05
4.44098e-05
4.30642e-05
4.17839e-05
4.05648e-05
3.94027e-05
3.82943e-05
3.7236e-05
3.62249e-05
3.5258e-05
3.43328e-05
3.34468e-05
3.25977e-05
3.17835e-05
3.10022e-05
3.0252e-05
2.95312e-05
2.88383e-05
2.81717e-05
2.75302e-05
2.69126e-05
2.63176e-05
2.57441e-05
2.51912e-05
2.4658e-05
2.41435e-05
2.36469e-05
2.31677e-05
2.27049e-05
2.22582e-05
2.18268e-05
2.14102e-05
2.10081e-05
2.06199e-05
2.02454e-05
1.98843e-05
1.95362e-05
1.9201e-05
1.88786e-05
1.85689e-05
1.82721e-05
1.79884e-05
1.7718e-05
1.74616e-05
1.72199e-05
1.69943e-05
1.67865e-05
1.65987e-05
1.64345e-05
1.62983e-05
1.61967e-05
1.61386e-05
0.000939687
0.000835719
0.000745892
0.000668036
0.000600344
0.000541304
0.000489651
0.000444323
0.000404425
0.000369202
0.000338015
0.000310323
0.000285664
0.000263647
0.000243934
0.000226239
0.000210314
0.000195946
0.000182951
0.000171169
0.000160464
0.000150715
0.000141816
0.000133677
0.000126218
0.000119367
0.000113063
0.000107252
0.000101885
9.69192e-05
9.23171e-05
8.80449e-05
8.40725e-05
8.0373e-05
7.69225e-05
7.36996e-05
7.06848e-05
6.78609e-05
6.52122e-05
6.27246e-05
6.03854e-05
5.8183e-05
5.61069e-05
5.41477e-05
5.22967e-05
5.05459e-05
4.88883e-05
4.73172e-05
4.58266e-05
4.44111e-05
4.30655e-05
4.17853e-05
4.05662e-05
3.94042e-05
3.82958e-05
3.72375e-05
3.62264e-05
3.52596e-05
3.43345e-05
3.34485e-05
3.25995e-05
3.17853e-05
3.1004e-05
3.02538e-05
2.95331e-05
2.88401e-05
2.81736e-05
2.75322e-05
2.69146e-05
2.63196e-05
2.57462e-05
2.51933e-05
2.46601e-05
2.41456e-05
2.36491e-05
2.31699e-05
2.27072e-05
2.22604e-05
2.1829e-05
2.14125e-05
2.10104e-05
2.06223e-05
2.02477e-05
1.98866e-05
1.95385e-05
1.92033e-05
1.88808e-05
1.85712e-05
1.82743e-05
1.79905e-05
1.77201e-05
1.74636e-05
1.7222e-05
1.69963e-05
1.67884e-05
1.66006e-05
1.64363e-05
1.63001e-05
1.61985e-05
1.61403e-05
0.000939687
0.000835719
0.000745892
0.000668036
0.000600344
0.000541304
0.000489651
0.000444323
0.000404425
0.000369202
0.000338015
0.000310323
0.000285664
0.000263647
0.000243935
0.000226239
0.000210314
0.000195946
0.000182951
0.00017117
0.000160465
0.000150715
0.000141817
0.000133678
0.000126218
0.000119367
0.000113064
0.000107253
0.000101886
9.69199e-05
9.23179e-05
8.80457e-05
8.40733e-05
8.03739e-05
7.69234e-05
7.37005e-05
7.06858e-05
6.78619e-05
6.52132e-05
6.27257e-05
6.03865e-05
5.81841e-05
5.61081e-05
5.41489e-05
5.22979e-05
5.05472e-05
4.88896e-05
4.73185e-05
4.5828e-05
4.44125e-05
4.3067e-05
4.17868e-05
4.05677e-05
3.94058e-05
3.82974e-05
3.72392e-05
3.62281e-05
3.52613e-05
3.43362e-05
3.34503e-05
3.26013e-05
3.17871e-05
3.10059e-05
3.02558e-05
2.9535e-05
2.88422e-05
2.81757e-05
2.75343e-05
2.69167e-05
2.63218e-05
2.57484e-05
2.51956e-05
2.46624e-05
2.41479e-05
2.36515e-05
2.31723e-05
2.27096e-05
2.22628e-05
2.18315e-05
2.1415e-05
2.10129e-05
2.06247e-05
2.02502e-05
1.9889e-05
1.95409e-05
1.92057e-05
1.88833e-05
1.85736e-05
1.82767e-05
1.79929e-05
1.77224e-05
1.74659e-05
1.72241e-05
1.69984e-05
1.67904e-05
1.66025e-05
1.64382e-05
1.63019e-05
1.62003e-05
1.61421e-05
0.000939687
0.000835719
0.000745892
0.000668036
0.000600344
0.000541304
0.000489651
0.000444323
0.000404425
0.000369202
0.000338015
0.000310323
0.000285665
0.000263647
0.000243935
0.00022624
0.000210315
0.000195946
0.000182951
0.00017117
0.000160465
0.000150716
0.000141817
0.000133678
0.000126219
0.000119368
0.000113064
0.000107253
0.000101886
9.69207e-05
9.23187e-05
8.80466e-05
8.40742e-05
8.03748e-05
7.69244e-05
7.37015e-05
7.06868e-05
6.7863e-05
6.52143e-05
6.27268e-05
6.03877e-05
5.81853e-05
5.61093e-05
5.41502e-05
5.22992e-05
5.05485e-05
4.88909e-05
4.73199e-05
4.58294e-05
4.4414e-05
4.30685e-05
4.17883e-05
4.05693e-05
3.94074e-05
3.8299e-05
3.72409e-05
3.62299e-05
3.52631e-05
3.43381e-05
3.34522e-05
3.26032e-05
3.17891e-05
3.10079e-05
3.02578e-05
2.95371e-05
2.88443e-05
2.81779e-05
2.75365e-05
2.6919e-05
2.63241e-05
2.57507e-05
2.5198e-05
2.46648e-05
2.41504e-05
2.3654e-05
2.31748e-05
2.27121e-05
2.22654e-05
2.18341e-05
2.14176e-05
2.10155e-05
2.06273e-05
2.02528e-05
1.98916e-05
1.95435e-05
1.92083e-05
1.88858e-05
1.85761e-05
1.82792e-05
1.79953e-05
1.77248e-05
1.74682e-05
1.72264e-05
1.70006e-05
1.67926e-05
1.66046e-05
1.64402e-05
1.63039e-05
1.62022e-05
1.6144e-05
0.000939687
0.000835719
0.000745892
0.000668036
0.000600344
0.000541304
0.000489651
0.000444323
0.000404425
0.000369202
0.000338015
0.000310323
0.000285665
0.000263648
0.000243935
0.00022624
0.000210315
0.000195947
0.000182952
0.000171171
0.000160466
0.000150716
0.000141818
0.000133679
0.000126219
0.000119369
0.000113065
0.000107254
0.000101887
9.69215e-05
9.23196e-05
8.80475e-05
8.40751e-05
8.03758e-05
7.69254e-05
7.37025e-05
7.06879e-05
6.78641e-05
6.52155e-05
6.2728e-05
6.03889e-05
5.81866e-05
5.61106e-05
5.41515e-05
5.23006e-05
5.05499e-05
4.88924e-05
4.73214e-05
4.58309e-05
4.44155e-05
4.30701e-05
4.179e-05
4.0571e-05
3.94091e-05
3.83008e-05
3.72427e-05
3.62317e-05
3.5265e-05
3.434e-05
3.34542e-05
3.26053e-05
3.17912e-05
3.10101e-05
3.026e-05
2.95394e-05
2.88466e-05
2.81802e-05
2.75389e-05
2.69214e-05
2.63265e-05
2.57532e-05
2.52005e-05
2.46673e-05
2.4153e-05
2.36566e-05
2.31774e-05
2.27148e-05
2.22681e-05
2.18368e-05
2.14203e-05
2.10182e-05
2.06301e-05
2.02556e-05
1.98944e-05
1.95462e-05
1.9211e-05
1.88885e-05
1.85787e-05
1.82818e-05
1.79979e-05
1.77273e-05
1.74707e-05
1.72288e-05
1.70029e-05
1.67948e-05
1.66068e-05
1.64423e-05
1.6306e-05
1.62042e-05
1.6146e-05
0.000939687
0.000835719
0.000745892
0.000668036
0.000600344
0.000541304
0.000489652
0.000444323
0.000404425
0.000369202
0.000338016
0.000310324
0.000285665
0.000263648
0.000243936
0.000226241
0.000210315
0.000195947
0.000182952
0.000171171
0.000160466
0.000150717
0.000141819
0.00013368
0.00012622
0.000119369
0.000113066
0.000107255
0.000101888
9.69224e-05
9.23205e-05
8.80484e-05
8.40761e-05
8.03768e-05
7.69264e-05
7.37036e-05
7.0689e-05
6.78652e-05
6.52167e-05
6.27292e-05
6.03901e-05
5.81879e-05
5.6112e-05
5.41529e-05
5.2302e-05
5.05514e-05
4.88939e-05
4.73229e-05
4.58325e-05
4.44171e-05
4.30717e-05
4.17917e-05
4.05727e-05
3.94109e-05
3.83027e-05
3.72446e-05
3.62337e-05
3.5267e-05
3.4342e-05
3.34562e-05
3.26074e-05
3.17934e-05
3.10123e-05
3.02622e-05
2.95417e-05
2.88489e-05
2.81826e-05
2.75413e-05
2.69239e-05
2.6329e-05
2.57558e-05
2.52031e-05
2.467e-05
2.41556e-05
2.36593e-05
2.31801e-05
2.27175e-05
2.22709e-05
2.18396e-05
2.14231e-05
2.1021e-05
2.06329e-05
2.02584e-05
1.98972e-05
1.95491e-05
1.92138e-05
1.88913e-05
1.85815e-05
1.82845e-05
1.80005e-05
1.77299e-05
1.74732e-05
1.72313e-05
1.70054e-05
1.67971e-05
1.66091e-05
1.64445e-05
1.63081e-05
1.62063e-05
1.61481e-05
0.000939687
0.000835719
0.000745892
0.000668036
0.000600344
0.000541304
0.000489652
0.000444324
0.000404425
0.000369202
0.000338016
0.000310324
0.000285666
0.000263648
0.000243936
0.000226241
0.000210316
0.000195948
0.000182953
0.000171172
0.000160467
0.000150718
0.000141819
0.00013368
0.000126221
0.00011937
0.000113067
0.000107256
0.000101889
9.69233e-05
9.23214e-05
8.80493e-05
8.40771e-05
8.03778e-05
7.69275e-05
7.37047e-05
7.06901e-05
6.78664e-05
6.52179e-05
6.27305e-05
6.03914e-05
5.81892e-05
5.61133e-05
5.41543e-05
5.23034e-05
5.05529e-05
4.88954e-05
4.73245e-05
4.58342e-05
4.44188e-05
4.30735e-05
4.17935e-05
4.05745e-05
3.94128e-05
3.83046e-05
3.72466e-05
3.62357e-05
3.52691e-05
3.43441e-05
3.34584e-05
3.26096e-05
3.17956e-05
3.10145e-05
3.02646e-05
2.9544e-05
2.88513e-05
2.81851e-05
2.75438e-05
2.69264e-05
2.63316e-05
2.57584e-05
2.52057e-05
2.46727e-05
2.41584e-05
2.36621e-05
2.3183e-05
2.27204e-05
2.22738e-05
2.18425e-05
2.1426e-05
2.1024e-05
2.06359e-05
2.02613e-05
1.99001e-05
1.9552e-05
1.92167e-05
1.88942e-05
1.85843e-05
1.82873e-05
1.80033e-05
1.77326e-05
1.74758e-05
1.72338e-05
1.70078e-05
1.67996e-05
1.66114e-05
1.64468e-05
1.63103e-05
1.62084e-05
1.61502e-05
0.000939687
0.000835719
0.000745892
0.000668036
0.000600344
0.000541304
0.000489652
0.000444324
0.000404426
0.000369203
0.000338016
0.000310324
0.000285666
0.000263649
0.000243936
0.000226241
0.000210316
0.000195948
0.000182953
0.000171172
0.000160467
0.000150718
0.00014182
0.000133681
0.000126222
0.000119371
0.000113067
0.000107256
0.00010189
9.69242e-05
9.23223e-05
8.80503e-05
8.40781e-05
8.03788e-05
7.69286e-05
7.37058e-05
7.06913e-05
6.78676e-05
6.52191e-05
6.27318e-05
6.03928e-05
5.81906e-05
5.61148e-05
5.41558e-05
5.23049e-05
5.05544e-05
4.8897e-05
4.73262e-05
4.58358e-05
4.44205e-05
4.30752e-05
4.17953e-05
4.05764e-05
3.94147e-05
3.83065e-05
3.72486e-05
3.62377e-05
3.52712e-05
3.43463e-05
3.34606e-05
3.26118e-05
3.17979e-05
3.10169e-05
3.0267e-05
2.95465e-05
2.88538e-05
2.81876e-05
2.75464e-05
2.69291e-05
2.63343e-05
2.57611e-05
2.52085e-05
2.46755e-05
2.41613e-05
2.3665e-05
2.31859e-05
2.27234e-05
2.22767e-05
2.18455e-05
2.1429e-05
2.1027e-05
2.06389e-05
2.02644e-05
1.99032e-05
1.9555e-05
1.92197e-05
1.88971e-05
1.85873e-05
1.82902e-05
1.80061e-05
1.77354e-05
1.74785e-05
1.72365e-05
1.70104e-05
1.6802e-05
1.66138e-05
1.64491e-05
1.63126e-05
1.62107e-05
1.61524e-05
0.000939687
0.000835719
0.000745892
0.000668036
0.000600344
0.000541304
0.000489652
0.000444324
0.000404426
0.000369203
0.000338016
0.000310324
0.000285666
0.000263649
0.000243937
0.000226242
0.000210317
0.000195949
0.000182954
0.000171173
0.000160468
0.000150719
0.00014182
0.000133682
0.000126222
0.000119372
0.000113068
0.000107257
0.00010189
9.69251e-05
9.23233e-05
8.80513e-05
8.40791e-05
8.03799e-05
7.69297e-05
7.3707e-05
7.06925e-05
6.78688e-05
6.52204e-05
6.27331e-05
6.03941e-05
5.8192e-05
5.61162e-05
5.41572e-05
5.23065e-05
5.0556e-05
4.88986e-05
4.73278e-05
4.58376e-05
4.44223e-05
4.3077e-05
4.17971e-05
4.05783e-05
3.94166e-05
3.83085e-05
3.72506e-05
3.62398e-05
3.52733e-05
3.43485e-05
3.34628e-05
3.26141e-05
3.18003e-05
3.10193e-05
3.02694e-05
2.9549e-05
2.88564e-05
2.81902e-05
2.75491e-05
2.69318e-05
2.63371e-05
2.57639e-05
2.52113e-05
2.46784e-05
2.41642e-05
2.36679e-05
2.31889e-05
2.27264e-05
2.22798e-05
2.18485e-05
2.14321e-05
2.10301e-05
2.0642e-05
2.02675e-05
1.99062e-05
1.9558e-05
1.92227e-05
1.89001e-05
1.85902e-05
1.82931e-05
1.8009e-05
1.77382e-05
1.74813e-05
1.72392e-05
1.7013e-05
1.68046e-05
1.66163e-05
1.64515e-05
1.63149e-05
1.62129e-05
1.61546e-05
0.000939687
0.000835719
0.000745892
0.000668036
0.000600344
0.000541305
0.000489652
0.000444324
0.000404426
0.000369203
0.000338016
0.000310325
0.000285666
0.000263649
0.000243937
0.000226242
0.000210317
0.000195949
0.000182954
0.000171174
0.000160469
0.000150719
0.000141821
0.000133682
0.000126223
0.000119372
0.000113069
0.000107258
0.000101891
9.6926e-05
9.23242e-05
8.80523e-05
8.40802e-05
8.0381e-05
7.69308e-05
7.37082e-05
7.06937e-05
6.78701e-05
6.52217e-05
6.27344e-05
6.03955e-05
5.81934e-05
5.61177e-05
5.41588e-05
5.2308e-05
5.05576e-05
4.89003e-05
4.73295e-05
4.58393e-05
4.44241e-05
4.30789e-05
4.1799e-05
4.05802e-05
3.94186e-05
3.83106e-05
3.72527e-05
3.6242e-05
3.52755e-05
3.43507e-05
3.34651e-05
3.26164e-05
3.18026e-05
3.10217e-05
3.02719e-05
2.95515e-05
2.8859e-05
2.81929e-05
2.75518e-05
2.69345e-05
2.63399e-05
2.57668e-05
2.52142e-05
2.46813e-05
2.41671e-05
2.36709e-05
2.31919e-05
2.27294e-05
2.22829e-05
2.18516e-05
2.14352e-05
2.10332e-05
2.06451e-05
2.02706e-05
1.99094e-05
1.95612e-05
1.92258e-05
1.89032e-05
1.85933e-05
1.82961e-05
1.80119e-05
1.77411e-05
1.74841e-05
1.72419e-05
1.70156e-05
1.68071e-05
1.66187e-05
1.64539e-05
1.63172e-05
1.62152e-05
1.61568e-05
0.000939687
0.000835719
0.000745892
0.000668036
0.000600344
0.000541305
0.000489652
0.000444324
0.000404426
0.000369203
0.000338017
0.000310325
0.000285667
0.000263649
0.000243937
0.000226242
0.000210318
0.00019595
0.000182955
0.000171174
0.000160469
0.00015072
0.000141822
0.000133683
0.000126224
0.000119373
0.00011307
0.000107259
0.000101892
9.69269e-05
9.23252e-05
8.80533e-05
8.40812e-05
8.03821e-05
7.6932e-05
7.37093e-05
7.06949e-05
6.78713e-05
6.5223e-05
6.27358e-05
6.03969e-05
5.81949e-05
5.61192e-05
5.41603e-05
5.23096e-05
5.05592e-05
4.8902e-05
4.73312e-05
4.58411e-05
4.44259e-05
4.30807e-05
4.18009e-05
4.05822e-05
3.94206e-05
3.83126e-05
3.72548e-05
3.62441e-05
3.52777e-05
3.4353e-05
3.34674e-05
3.26188e-05
3.18051e-05
3.10242e-05
3.02745e-05
2.95541e-05
2.88616e-05
2.81955e-05
2.75545e-05
2.69373e-05
2.63427e-05
2.57696e-05
2.52171e-05
2.46843e-05
2.41701e-05
2.36739e-05
2.3195e-05
2.27325e-05
2.2286e-05
2.18548e-05
2.14384e-05
2.10364e-05
2.06483e-05
2.02738e-05
1.99125e-05
1.95643e-05
1.92289e-05
1.89063e-05
1.85963e-05
1.82991e-05
1.80149e-05
1.7744e-05
1.74869e-05
1.72446e-05
1.70183e-05
1.68097e-05
1.66212e-05
1.64563e-05
1.63196e-05
1.62175e-05
1.61591e-05
0.000939687
0.000835719
0.000745892
0.000668036
0.000600344
0.000541305
0.000489652
0.000444324
0.000404426
0.000369203
0.000338017
0.000310325
0.000285667
0.00026365
0.000243938
0.000226243
0.000210318
0.00019595
0.000182955
0.000171175
0.00016047
0.000150721
0.000141822
0.000133684
0.000126224
0.000119374
0.000113071
0.00010726
0.000101893
9.69279e-05
9.23262e-05
8.80543e-05
8.40823e-05
8.03832e-05
7.69331e-05
7.37105e-05
7.06961e-05
6.78726e-05
6.52243e-05
6.27371e-05
6.03983e-05
5.81963e-05
5.61206e-05
5.41618e-05
5.23112e-05
5.05609e-05
4.89036e-05
4.7333e-05
4.58428e-05
4.44277e-05
4.30826e-05
4.18029e-05
4.05842e-05
3.94227e-05
3.83147e-05
3.72569e-05
3.62463e-05
3.528e-05
3.43553e-05
3.34698e-05
3.26212e-05
3.18075e-05
3.10267e-05
3.0277e-05
2.95567e-05
2.88643e-05
2.81982e-05
2.75573e-05
2.69401e-05
2.63455e-05
2.57725e-05
2.52201e-05
2.46872e-05
2.41731e-05
2.3677e-05
2.3198e-05
2.27356e-05
2.22891e-05
2.18579e-05
2.14416e-05
2.10396e-05
2.06515e-05
2.0277e-05
1.99157e-05
1.95675e-05
1.92321e-05
1.89094e-05
1.85994e-05
1.83022e-05
1.80179e-05
1.77469e-05
1.74898e-05
1.72474e-05
1.7021e-05
1.68123e-05
1.66238e-05
1.64588e-05
1.63219e-05
1.62198e-05
1.61614e-05
0.000939687
0.000835719
0.000745892
0.000668037
0.000600344
0.000541305
0.000489652
0.000444324
0.000404426
0.000369204
0.000338017
0.000310325
0.000285667
0.00026365
0.000243938
0.000226243
0.000210318
0.000195951
0.000182956
0.000171175
0.00016047
0.000150721
0.000141823
0.000133684
0.000126225
0.000119375
0.000113071
0.000107261
0.000101894
9.69288e-05
9.23271e-05
8.80553e-05
8.40833e-05
8.03843e-05
7.69342e-05
7.37117e-05
7.06974e-05
6.78739e-05
6.52256e-05
6.27385e-05
6.03997e-05
5.81978e-05
5.61221e-05
5.41634e-05
5.23128e-05
5.05625e-05
4.89053e-05
4.73347e-05
4.58446e-05
4.44296e-05
4.30845e-05
4.18048e-05
4.05862e-05
3.94247e-05
3.83168e-05
3.72591e-05
3.62485e-05
3.52822e-05
3.43575e-05
3.34721e-05
3.26236e-05
3.181e-05
3.10292e-05
3.02796e-05
2.95593e-05
2.88669e-05
2.82009e-05
2.756e-05
2.69429e-05
2.63484e-05
2.57754e-05
2.5223e-05
2.46902e-05
2.41762e-05
2.36801e-05
2.32011e-05
2.27388e-05
2.22923e-05
2.18611e-05
2.14448e-05
2.10428e-05
2.06547e-05
2.02802e-05
1.99189e-05
1.95707e-05
1.92353e-05
1.89125e-05
1.86025e-05
1.83052e-05
1.80208e-05
1.77498e-05
1.74926e-05
1.72502e-05
1.70237e-05
1.68149e-05
1.66263e-05
1.64612e-05
1.63243e-05
1.62222e-05
1.61637e-05
0.000939687
0.000835719
0.000745892
0.000668037
0.000600344
0.000541305
0.000489652
0.000444324
0.000404426
0.000369204
0.000338017
0.000310326
0.000285667
0.00026365
0.000243938
0.000226244
0.000210319
0.000195951
0.000182956
0.000171176
0.000160471
0.000150722
0.000141824
0.000133685
0.000126226
0.000119376
0.000113072
0.000107261
0.000101895
9.69297e-05
9.23281e-05
8.80563e-05
8.40844e-05
8.03854e-05
7.69354e-05
7.37129e-05
7.06986e-05
6.78752e-05
6.52269e-05
6.27398e-05
6.04011e-05
5.81992e-05
5.61236e-05
5.41649e-05
5.23144e-05
5.05641e-05
4.8907e-05
4.73364e-05
4.58464e-05
4.44314e-05
4.30864e-05
4.18067e-05
4.05881e-05
3.94267e-05
3.83189e-05
3.72612e-05
3.62507e-05
3.52844e-05
3.43598e-05
3.34744e-05
3.2626e-05
3.18124e-05
3.10317e-05
3.02821e-05
2.95619e-05
2.88696e-05
2.82037e-05
2.75628e-05
2.69457e-05
2.63512e-05
2.57783e-05
2.5226e-05
2.46932e-05
2.41792e-05
2.36831e-05
2.32042e-05
2.27419e-05
2.22954e-05
2.18643e-05
2.1448e-05
2.1046e-05
2.06579e-05
2.02834e-05
1.99221e-05
1.95739e-05
1.92384e-05
1.89157e-05
1.86056e-05
1.83082e-05
1.80238e-05
1.77527e-05
1.74955e-05
1.7253e-05
1.70264e-05
1.68175e-05
1.66288e-05
1.64637e-05
1.63267e-05
1.62245e-05
1.6166e-05
0.000939687
0.000835719
0.000745892
0.000668037
0.000600345
0.000541305
0.000489652
0.000444325
0.000404427
0.000369204
0.000338018
0.000310326
0.000285668
0.000263651
0.000243939
0.000226244
0.000210319
0.000195951
0.000182957
0.000171176
0.000160471
0.000150722
0.000141824
0.000133686
0.000126227
0.000119376
0.000113073
0.000107262
0.000101896
9.69306e-05
9.23291e-05
8.80573e-05
8.40854e-05
8.03865e-05
7.69365e-05
7.3714e-05
7.06998e-05
6.78764e-05
6.52282e-05
6.27412e-05
6.04025e-05
5.82006e-05
5.61251e-05
5.41664e-05
5.23159e-05
5.05658e-05
4.89087e-05
4.73382e-05
4.58482e-05
4.44332e-05
4.30883e-05
4.18086e-05
4.05901e-05
3.94287e-05
3.83209e-05
3.72633e-05
3.62529e-05
3.52867e-05
3.43621e-05
3.34768e-05
3.26284e-05
3.18148e-05
3.10342e-05
3.02847e-05
2.95645e-05
2.88722e-05
2.82064e-05
2.75655e-05
2.69485e-05
2.63541e-05
2.57812e-05
2.52289e-05
2.46962e-05
2.41822e-05
2.36862e-05
2.32073e-05
2.2745e-05
2.22986e-05
2.18674e-05
2.14511e-05
2.10491e-05
2.06611e-05
2.02866e-05
1.99253e-05
1.9577e-05
1.92416e-05
1.89188e-05
1.86086e-05
1.83113e-05
1.80268e-05
1.77556e-05
1.74983e-05
1.72557e-05
1.70291e-05
1.68201e-05
1.66313e-05
1.64661e-05
1.63291e-05
1.62268e-05
1.61683e-05
0.000939687
0.000835719
0.000745892
0.000668037
0.000600345
0.000541305
0.000489653
0.000444325
0.000404427
0.000369204
0.000338018
0.000310326
0.000285668
0.000263651
0.000243939
0.000226244
0.00021032
0.000195952
0.000182957
0.000171177
0.000160472
0.000150723
0.000141825
0.000133686
0.000126227
0.000119377
0.000113074
0.000107263
0.000101897
9.69315e-05
9.233e-05
8.80583e-05
8.40864e-05
8.03875e-05
7.69376e-05
7.37152e-05
7.0701e-05
6.78777e-05
6.52295e-05
6.27425e-05
6.04039e-05
5.82021e-05
5.61266e-05
5.4168e-05
5.23175e-05
5.05674e-05
4.89103e-05
4.73399e-05
4.58499e-05
4.4435e-05
4.30901e-05
4.18105e-05
4.05921e-05
3.94308e-05
3.8323e-05
3.72654e-05
3.6255e-05
3.52889e-05
3.43644e-05
3.34791e-05
3.26308e-05
3.18173e-05
3.10367e-05