/*--------------------------------*- C++ -*----------------------------------*\
  =========                 |
  \\      /  F ield         | OpenFOAM: The Open Source CFD Toolbox
   \\    /   O peration     | Website:  https://openfoam.org
    \\  /    A nd           | Version:  11
     \\/     M anipulation  |
\*---------------------------------------------------------------------------*/
FoamFile
{
    format      ascii;
    class       volScalarField;
    location    "720";
    object      omega;
}
// * * * * * * * * * * * * * * * * * * * * * * * * * * * * * * * * * * * * * //

dimensions      [0 0 -1 0 0 0 0];

internalField   nonuniform List<scalar> 
10000
(
0.961692
0.892185
0.829085
0.771728
0.719523
0.671944
0.628523
0.588843
0.552532
0.519258
0.488725
0.460668
0.43485
0.411061
0.389111
0.368829
0.350064
0.332678
0.316548
0.301565
0.287628
0.274648
0.262544
0.251242
0.240677
0.230788
0.221521
0.212827
0.204662
0.196984
0.189757
0.182947
0.176523
0.170457
0.164723
0.159298
0.15416
0.14929
0.14467
0.140282
0.136112
0.132144
0.128367
0.124769
0.121337
0.118062
0.114934
0.111945
0.109086
0.106349
0.103728
0.101216
0.0988073
0.0964954
0.0942754
0.0921422
0.0900912
0.0881182
0.0862189
0.0843897
0.0826269
0.0809272
0.0792874
0.0777045
0.0761759
0.0746987
0.0732707
0.0718893
0.0705525
0.0692581
0.0680042
0.0667887
0.0656101
0.0644666
0.0633566
0.0622785
0.061231
0.0602125
0.059222
0.0582579
0.0573194
0.0564051
0.0555141
0.0546454
0.0537982
0.0529718
0.0521656
0.0513793
0.0506128
0.0498664
0.049141
0.0484382
0.0477607
0.0471127
0.0465005
0.0459333
0.0454243
0.0449926
0.0446648
0.0444784
0.961692
0.892185
0.829085
0.771728
0.719523
0.671944
0.628523
0.588843
0.552532
0.519258
0.488725
0.460668
0.43485
0.411061
0.389111
0.368829
0.350064
0.332678
0.316548
0.301565
0.287628
0.274648
0.262544
0.251242
0.240677
0.230788
0.221521
0.212827
0.204662
0.196984
0.189757
0.182947
0.176523
0.170457
0.164723
0.159298
0.15416
0.149291
0.14467
0.140282
0.136112
0.132145
0.128368
0.124769
0.121337
0.118062
0.114934
0.111945
0.109086
0.106349
0.103728
0.101216
0.0988074
0.0964956
0.0942755
0.0921423
0.0900914
0.0881183
0.0862191
0.0843899
0.0826271
0.0809274
0.0792876
0.0777047
0.0761761
0.074699
0.0732709
0.0718896
0.0705528
0.0692584
0.0680044
0.066789
0.0656104
0.0644669
0.0633569
0.0622788
0.0612313
0.0602129
0.0592223
0.0582583
0.0573198
0.0564055
0.0555145
0.0546458
0.0537987
0.0529723
0.0521661
0.0513798
0.0506133
0.0498669
0.0491415
0.0484387
0.0477613
0.0471133
0.0465011
0.0459339
0.0454249
0.0449931
0.0446654
0.0444789
0.961692
0.892185
0.829085
0.771728
0.719523
0.671944
0.628523
0.588843
0.552532
0.519258
0.488725
0.460668
0.43485
0.411061
0.389111
0.368829
0.350064
0.332678
0.316548
0.301565
0.287629
0.274648
0.262544
0.251242
0.240677
0.230788
0.221521
0.212827
0.204662
0.196984
0.189757
0.182947
0.176523
0.170457
0.164723
0.159298
0.154161
0.149291
0.14467
0.140282
0.136112
0.132145
0.128368
0.124769
0.121337
0.118062
0.114934
0.111945
0.109086
0.10635
0.103729
0.101217
0.0988077
0.0964958
0.0942758
0.0921427
0.0900917
0.0881187
0.0862195
0.0843902
0.0826275
0.0809278
0.079288
0.0777052
0.0761765
0.0746994
0.0732714
0.0718901
0.0705533
0.0692589
0.068005
0.0667896
0.065611
0.0644675
0.0633575
0.0622795
0.061232
0.0602136
0.0592231
0.0582591
0.0573205
0.0564063
0.0555153
0.0546467
0.0537995
0.0529732
0.052167
0.0513807
0.0506143
0.0498679
0.0491425
0.0484398
0.0477624
0.0471144
0.0465022
0.045935
0.045426
0.0449942
0.0446665
0.0444801
0.961692
0.892185
0.829085
0.771728
0.719523
0.671944
0.628523
0.588843
0.552532
0.519258
0.488725
0.460668
0.43485
0.411061
0.389111
0.368829
0.350064
0.332678
0.316548
0.301565
0.287629
0.274649
0.262544
0.251242
0.240677
0.230788
0.221521
0.212828
0.204662
0.196984
0.189757
0.182947
0.176523
0.170457
0.164723
0.159298
0.154161
0.149291
0.14467
0.140283
0.136112
0.132145
0.128368
0.124769
0.121337
0.118062
0.114935
0.111945
0.109086
0.10635
0.103729
0.101217
0.0988081
0.0964963
0.0942763
0.0921431
0.0900922
0.0881192
0.08622
0.0843908
0.082628
0.0809283
0.0792886
0.0777058
0.0761772
0.0747001
0.0732721
0.0718908
0.0705541
0.0692597
0.0680058
0.0667905
0.0656119
0.0644684
0.0633585
0.0622805
0.061233
0.0602146
0.0592241
0.0582602
0.0573217
0.0564075
0.0555165
0.054648
0.0538009
0.0529745
0.0521684
0.0513822
0.0506157
0.0498694
0.0491441
0.0484414
0.047764
0.047116
0.0465038
0.0459366
0.0454276
0.0449959
0.0446681
0.0444817
0.961692
0.892185
0.829085
0.771728
0.719523
0.671944
0.628523
0.588843
0.552532
0.519258
0.488725
0.460668
0.434851
0.411061
0.389111
0.368829
0.350064
0.332678
0.316549
0.301565
0.287629
0.274649
0.262544
0.251242
0.240677
0.230788
0.221521
0.212828
0.204662
0.196985
0.189757
0.182947
0.176523
0.170457
0.164723
0.159299
0.154161
0.149291
0.144671
0.140283
0.136112
0.132145
0.128368
0.12477
0.121338
0.118063
0.114935
0.111946
0.109087
0.10635
0.10373
0.101218
0.0988087
0.0964968
0.0942768
0.0921437
0.0900928
0.0881198
0.0862207
0.0843915
0.0826288
0.0809291
0.0792894
0.0777066
0.0761781
0.074701
0.073273
0.0718918
0.0705551
0.0692607
0.0680069
0.0667916
0.0656131
0.0644696
0.0633597
0.0622817
0.0612343
0.060216
0.0592255
0.0582617
0.0573232
0.056409
0.0555182
0.0546496
0.0538026
0.0529763
0.0521702
0.051384
0.0506176
0.0498714
0.0491461
0.0484434
0.047766
0.0471181
0.046506
0.0459388
0.0454298
0.044998
0.0446703
0.0444838
0.961692
0.892185
0.829085
0.771728
0.719523
0.671944
0.628523
0.588843
0.552532
0.519258
0.488725
0.460668
0.434851
0.411061
0.389111
0.368829
0.350064
0.332678
0.316549
0.301565
0.287629
0.274649
0.262544
0.251243
0.240677
0.230788
0.221522
0.212828
0.204662
0.196985
0.189758
0.182947
0.176523
0.170457
0.164724
0.159299
0.154161
0.149291
0.144671
0.140283
0.136113
0.132146
0.128369
0.12477
0.121338
0.118063
0.114936
0.111946
0.109087
0.106351
0.10373
0.101218
0.0988093
0.0964975
0.0942775
0.0921445
0.0900936
0.0881206
0.0862215
0.0843924
0.0826297
0.0809301
0.0792904
0.0777077
0.0761791
0.0747021
0.0732742
0.071893
0.0705563
0.069262
0.0680082
0.0667929
0.0656145
0.0644711
0.0633612
0.0622833
0.0612359
0.0602177
0.0592273
0.0582634
0.057325
0.0564109
0.0555201
0.0546516
0.0538047
0.0529785
0.0521725
0.0513863
0.05062
0.0498738
0.0491486
0.0484459
0.0477686
0.0471207
0.0465086
0.0459414
0.0454324
0.0450007
0.0446729
0.0444865
0.961692
0.892185
0.829084
0.771728
0.719523
0.671944
0.628523
0.588843
0.552532
0.519258
0.488725
0.460668
0.434851
0.411061
0.389111
0.368829
0.350064
0.332678
0.316549
0.301566
0.287629
0.274649
0.262544
0.251243
0.240677
0.230788
0.221522
0.212828
0.204663
0.196985
0.189758
0.182948
0.176524
0.170458
0.164724
0.159299
0.154162
0.149292
0.144671
0.140284
0.136113
0.132146
0.128369
0.12477
0.121339
0.118064
0.114936
0.111947
0.109088
0.106352
0.103731
0.101219
0.0988101
0.0964983
0.0942784
0.0921453
0.0900945
0.0881216
0.0862225
0.0843934
0.0826307
0.0809312
0.0792915
0.0777088
0.0761803
0.0747034
0.0732755
0.0718943
0.0705577
0.0692635
0.0680097
0.0667945
0.0656161
0.0644728
0.063363
0.0622851
0.0612378
0.0602196
0.0592293
0.0582655
0.0573272
0.0564132
0.0555224
0.054654
0.0538071
0.052981
0.0521751
0.051389
0.0506227
0.0498766
0.0491514
0.0484489
0.0477716
0.0471238
0.0465117
0.0459445
0.0454356
0.0450038
0.044676
0.0444896
0.961692
0.892185
0.829084
0.771728
0.719523
0.671944
0.628523
0.588843
0.552532
0.519258
0.488725
0.460668
0.434851
0.411061
0.389111
0.368829
0.350064
0.332678
0.316549
0.301566
0.287629
0.274649
0.262545
0.251243
0.240677
0.230789
0.221522
0.212828
0.204663
0.196985
0.189758
0.182948
0.176524
0.170458
0.164724
0.159299
0.154162
0.149292
0.144672
0.140284
0.136114
0.132147
0.12837
0.124771
0.121339
0.118064
0.114937
0.111948
0.109089
0.106352
0.103732
0.10122
0.0988109
0.0964992
0.0942793
0.0921463
0.0900955
0.0881226
0.0862236
0.0843945
0.0826319
0.0809324
0.0792928
0.0777102
0.0761817
0.0747048
0.073277
0.0718959
0.0705593
0.0692652
0.0680115
0.0667963
0.065618
0.0644747
0.063365
0.0622872
0.06124
0.0602219
0.0592316
0.0582679
0.0573297
0.0564157
0.055525
0.0546567
0.0538099
0.0529839
0.052178
0.051392
0.0506259
0.0498798
0.0491547
0.0484522
0.047775
0.0471272
0.0465152
0.045948
0.0454391
0.0450074
0.0446796
0.0444931
0.961692
0.892185
0.829084
0.771728
0.719523
0.671944
0.628523
0.588843
0.552532
0.519258
0.488725
0.460668
0.434851
0.411062
0.389111
0.368829
0.350064
0.332678
0.316549
0.301566
0.287629
0.274649
0.262545
0.251243
0.240678
0.230789
0.221522
0.212828
0.204663
0.196985
0.189758
0.182948
0.176524
0.170458
0.164725
0.1593
0.154162
0.149293
0.144672
0.140284
0.136114
0.132147
0.12837
0.124772
0.12134
0.118065
0.114938
0.111948
0.10909
0.106353
0.103732
0.101221
0.0988119
0.0965002
0.0942804
0.0921474
0.0900967
0.0881238
0.0862248
0.0843958
0.0826333
0.0809338
0.0792943
0.0777117
0.0761833
0.0747065
0.0732787
0.0718976
0.0705611
0.069267
0.0680134
0.0667983
0.06562
0.0644769
0.0633672
0.0622895
0.0612423
0.0602243
0.0592341
0.0582705
0.0573324
0.0564185
0.055528
0.0546597
0.053813
0.052987
0.0521813
0.0513954
0.0506293
0.0498834
0.0491584
0.0484559
0.0477788
0.0471311
0.0465191
0.045952
0.045443
0.0450113
0.0446835
0.0444971
0.961692
0.892185
0.829084
0.771728
0.719523
0.671944
0.628523
0.588843
0.552532
0.519258
0.488725
0.460668
0.434851
0.411062
0.389111
0.368829
0.350064
0.332678
0.316549
0.301566
0.287629
0.274649
0.262545
0.251243
0.240678
0.230789
0.221522
0.212829
0.204663
0.196986
0.189759
0.182948
0.176524
0.170459
0.164725
0.1593
0.154163
0.149293
0.144673
0.140285
0.136115
0.132148
0.128371
0.124772
0.121341
0.118066
0.114938
0.111949
0.10909
0.106354
0.103733
0.101222
0.0988129
0.0965013
0.0942815
0.0921486
0.0900979
0.0881251
0.0862262
0.0843972
0.0826347
0.0809353
0.0792958
0.0777133
0.076185
0.0747082
0.0732805
0.0718995
0.0705631
0.0692691
0.0680155
0.0668005
0.0656223
0.0644792
0.0633696
0.062292
0.0612449
0.060227
0.0592369
0.0582734
0.0573354
0.0564216
0.0555311
0.054663
0.0538164
0.0529905
0.0521849
0.0513991
0.0506331
0.0498873
0.0491623
0.04846
0.0477829
0.0471353
0.0465233
0.0459562
0.0454474
0.0450156
0.0446879
0.0445014
0.961692
0.892184
0.829084
0.771728
0.719523
0.671944
0.628523
0.588843
0.552532
0.519258
0.488725
0.460668
0.434851
0.411062
0.389111
0.368829
0.350064
0.332678
0.316549
0.301566
0.287629
0.274649
0.262545
0.251243
0.240678
0.230789
0.221523
0.212829
0.204664
0.196986
0.189759
0.182949
0.176525
0.170459
0.164725
0.159301
0.154163
0.149294
0.144673
0.140286
0.136115
0.132148
0.128372
0.124773
0.121341
0.118067
0.114939
0.11195
0.109091
0.106355
0.103734
0.101223
0.0988141
0.0965025
0.0942827
0.0921499
0.0900992
0.0881265
0.0862276
0.0843987
0.0826363
0.0809369
0.0792975
0.0777151
0.0761868
0.0747101
0.0732825
0.0719016
0.0705652
0.0692713
0.0680178
0.0668029
0.0656247
0.0644817
0.0633722
0.0622947
0.0612477
0.0602299
0.0592399
0.0582765
0.0573385
0.0564249
0.0555345
0.0546665
0.05382
0.0529943
0.0521887
0.0514031
0.0506372
0.0498914
0.0491666
0.0484644
0.0477874
0.0471398
0.0465279
0.0459609
0.045452
0.0450203
0.0446925
0.044506
0.961692
0.892184
0.829084
0.771728
0.719523
0.671944
0.628523
0.588843
0.552532
0.519258
0.488725
0.460668
0.434851
0.411062
0.389111
0.368829
0.350064
0.332678
0.316549
0.301566
0.287629
0.274649
0.262545
0.251243
0.240678
0.230789
0.221523
0.212829
0.204664
0.196986
0.189759
0.182949
0.176525
0.170459
0.164726
0.159301
0.154164
0.149294
0.144674
0.140286
0.136116
0.132149
0.128372
0.124774
0.121342
0.118068
0.11494
0.111951
0.109092
0.106356
0.103736
0.101224
0.0988152
0.0965037
0.094284
0.0921512
0.0901006
0.088128
0.0862291
0.0844003
0.0826379
0.0809387
0.0792993
0.0777169
0.0761888
0.0747121
0.0732846
0.0719037
0.0705674
0.0692736
0.0680202
0.0668054
0.0656273
0.0644844
0.063375
0.0622976
0.0612507
0.060233
0.0592431
0.0582798
0.0573419
0.0564284
0.0555382
0.0546703
0.0538239
0.0529982
0.0521928
0.0514073
0.0506415
0.0498959
0.0491712
0.048469
0.0477921
0.0471446
0.0465328
0.0459658
0.045457
0.0450253
0.0446975
0.044511
0.961692
0.892184
0.829084
0.771727
0.719523
0.671944
0.628523
0.588843
0.552532
0.519258
0.488725
0.460668
0.434851
0.411062
0.389111
0.368829
0.350064
0.332678
0.316549
0.301566
0.287629
0.27465
0.262545
0.251244
0.240678
0.23079
0.221523
0.212829
0.204664
0.196987
0.18976
0.18295
0.176526
0.17046
0.164726
0.159302
0.154164
0.149295
0.144674
0.140287
0.136117
0.13215
0.128373
0.124775
0.121343
0.118068
0.114941
0.111952
0.109093
0.106357
0.103737
0.101225
0.0988165
0.096505
0.0942854
0.0921526
0.0901021
0.0881295
0.0862308
0.084402
0.0826397
0.0809405
0.0793012
0.0777189
0.0761908
0.0747142
0.0732868
0.071906
0.0705698
0.069276
0.0680227
0.066808
0.06563
0.0644872
0.0633779
0.0623006
0.0612538
0.0602362
0.0592464
0.0582833
0.0573455
0.0564321
0.055542
0.0546742
0.0538279
0.0530024
0.0521972
0.0514117
0.0506461
0.0499005
0.049176
0.0484739
0.0477971
0.0471497
0.0465379
0.045971
0.0454622
0.0450306
0.0447028
0.0445162
0.961692
0.892184
0.829084
0.771727
0.719523
0.671944
0.628523
0.588843
0.552532
0.519258
0.488725
0.460668
0.434851
0.411062
0.389111
0.368829
0.350064
0.332678
0.316549
0.301566
0.28763
0.27465
0.262545
0.251244
0.240679
0.23079
0.221523
0.21283
0.204664
0.196987
0.18976
0.18295
0.176526
0.17046
0.164727
0.159302
0.154165
0.149295
0.144675
0.140288
0.136117
0.132151
0.128374
0.124775
0.121344
0.118069
0.114942
0.111953
0.109094
0.106358
0.103738
0.101226
0.0988178
0.0965064
0.0942868
0.0921541
0.0901037
0.0881311
0.0862324
0.0844037
0.0826415
0.0809424
0.0793032
0.0777209
0.0761929
0.0747164
0.073289
0.0719084
0.0705723
0.0692786
0.0680254
0.0668107
0.0656329
0.0644902
0.063381
0.0623038
0.0612571
0.0602396
0.0592499
0.0582869
0.0573492
0.0564359
0.0555459
0.0546783
0.0538322
0.0530068
0.0522016
0.0514164
0.0506508
0.0499054
0.0491809
0.048479
0.0478023
0.047155
0.0465433
0.0459764
0.0454677
0.0450361
0.0447083
0.0445217
0.961692
0.892184
0.829084
0.771727
0.719523
0.671944
0.628523
0.588843
0.552532
0.519258
0.488725
0.460668
0.434851
0.411062
0.389111
0.36883
0.350064
0.332678
0.316549
0.301566
0.28763
0.27465
0.262546
0.251244
0.240679
0.23079
0.221523
0.21283
0.204665
0.196987
0.18976
0.18295
0.176526
0.170461
0.164727
0.159303
0.154166
0.149296
0.144676
0.140288
0.136118
0.132151
0.128375
0.124776
0.121345
0.11807
0.114943
0.111954
0.109096
0.10636
0.103739
0.101228
0.0988191
0.0965078
0.0942883
0.0921557
0.0901053
0.0881328
0.0862342
0.0844056
0.0826434
0.0809443
0.0793052
0.0777231
0.0761951
0.0747187
0.0732914
0.0719108
0.0705748
0.0692812
0.0680281
0.0668135
0.0656358
0.0644932
0.0633841
0.062307
0.0612604
0.060243
0.0592535
0.0582906
0.0573531
0.0564399
0.05555
0.0546825
0.0538365
0.0530113
0.0522063
0.0514211
0.0506558
0.0499105
0.0491861
0.0484843
0.0478077
0.0471605
0.0465489
0.0459821
0.0454734
0.0450418
0.044714
0.0445274
0.961692
0.892184
0.829084
0.771727
0.719523
0.671944
0.628523
0.588843
0.552532
0.519258
0.488725
0.460668
0.434851
0.411062
0.389111
0.36883
0.350064
0.332679
0.316549
0.301566
0.28763
0.27465
0.262546
0.251244
0.240679
0.23079
0.221524
0.21283
0.204665
0.196988
0.189761
0.182951
0.176527
0.170461
0.164728
0.159303
0.154166
0.149297
0.144676
0.140289
0.136119
0.132152
0.128376
0.124777
0.121346
0.118071
0.114944
0.111955
0.109097
0.106361
0.10374
0.101229
0.0988205
0.0965092
0.0942898
0.0921572
0.0901069
0.0881345
0.0862359
0.0844074
0.0826453
0.0809463
0.0793073
0.0777252
0.0761974
0.0747211
0.0732938
0.0719134
0.0705774
0.0692839
0.0680309
0.0668165
0.0656388
0.0644963
0.0633873
0.0623103
0.0612639
0.0602466
0.0592572
0.0582944
0.057357
0.056444
0.0555543
0.0546869
0.053841
0.0530159
0.0522111
0.0514261
0.0506608
0.0499157
0.0491914
0.0484898
0.0478133
0.0471662
0.0465546
0.0459879
0.0454792
0.0450477
0.0447199
0.0445333
0.961692
0.892184
0.829084
0.771727
0.719523
0.671944
0.628523
0.588843
0.552532
0.519258
0.488725
0.460668
0.434851
0.411062
0.389111
0.36883
0.350064
0.332679
0.31655
0.301566
0.28763
0.27465
0.262546
0.251244
0.240679
0.23079
0.221524
0.212831
0.204665
0.196988
0.189761
0.182951
0.176527
0.170462
0.164728
0.159304
0.154167
0.149297
0.144677
0.14029
0.13612
0.132153
0.128376
0.124778
0.121347
0.118072
0.114945
0.111956
0.109098
0.106362
0.103742
0.10123
0.0988219
0.0965107
0.0942913
0.0921588
0.0901086
0.0881363
0.0862378
0.0844093
0.0826473
0.0809484
0.0793094
0.0777274
0.0761997
0.0747234
0.0732963
0.0719159
0.0705801
0.0692867
0.0680338
0.0668194
0.0656419
0.0644995
0.0633906
0.0623138
0.0612674
0.0602503
0.059261
0.0582983
0.0573611
0.0564482
0.0555586
0.0546913
0.0538456
0.0530207
0.052216
0.0514311
0.050666
0.049921
0.0491969
0.0484953
0.047819
0.0471719
0.0465605
0.0459939
0.0454853
0.0450537
0.0447259
0.0445393
0.961692
0.892184
0.829084
0.771727
0.719523
0.671944
0.628523
0.588843
0.552532
0.519258
0.488725
0.460668
0.434851
0.411062
0.389111
0.36883
0.350064
0.332679
0.31655
0.301567
0.28763
0.27465
0.262546
0.251245
0.240679
0.230791
0.221524
0.212831
0.204666
0.196988
0.189761
0.182952
0.176528
0.170462
0.164729
0.159304
0.154167
0.149298
0.144678
0.14029
0.13612
0.132154
0.128377
0.124779
0.121348
0.118073
0.114946
0.111957
0.109099
0.106363
0.103743
0.101232
0.0988234
0.0965122
0.0942929
0.0921605
0.0901103
0.088138
0.0862396
0.0844112
0.0826493
0.0809505
0.0793116
0.0777297
0.076202
0.0747259
0.0732988
0.0719185
0.0705828
0.0692895
0.0680367
0.0668224
0.065645
0.0645027
0.063394
0.0623172
0.061271
0.060254
0.0592648
0.0583023
0.0573652
0.0564524
0.055563
0.0546959
0.0538503
0.0530255
0.0522209
0.0514362
0.0506712
0.0499264
0.0492024
0.048501
0.0478248
0.0471778
0.0465665
0.0459999
0.0454914
0.0450598
0.0447321
0.0445455
0.961692
0.892184
0.829084
0.771727
0.719523
0.671944
0.628523
0.588843
0.552532
0.519258
0.488725
0.460668
0.434851
0.411062
0.389111
0.36883
0.350064
0.332679
0.31655
0.301567
0.28763
0.27465
0.262546
0.251245
0.24068
0.230791
0.221524
0.212831
0.204666
0.196989
0.189762
0.182952
0.176528
0.170463
0.164729
0.159305
0.154168
0.149298
0.144678
0.140291
0.136121
0.132155
0.128378
0.12478
0.121349
0.118074
0.114947
0.111959
0.1091
0.106364
0.103744
0.101233
0.0988248
0.0965137
0.0942945
0.0921621
0.090112
0.0881398
0.0862415
0.0844132
0.0826513
0.0809526
0.0793138
0.077732
0.0762044
0.0747283
0.0733014
0.0719212
0.0705855
0.0692923
0.0680396
0.0668255
0.0656482
0.064506
0.0633974
0.0623207
0.0612746
0.0602577
0.0592687
0.0583063
0.0573693
0.0564567
0.0555674
0.0547004
0.053855
0.0530304
0.0522259
0.0514414
0.0506766
0.0499318
0.049208
0.0485067
0.0478306
0.0471838
0.0465726
0.0460061
0.0454976
0.0450661
0.0447383
0.0445517
0.961692
0.892184
0.829084
0.771727
0.719523
0.671944
0.628523
0.588843
0.552532
0.519258
0.488725
0.460668
0.434851
0.411062
0.389111
0.36883
0.350064
0.332679
0.31655
0.301567
0.28763
0.27465
0.262546
0.251245
0.24068
0.230791
0.221525
0.212831
0.204666
0.196989
0.189762
0.182952
0.176529
0.170463
0.16473
0.159305
0.154168
0.149299
0.144679
0.140292
0.136122
0.132155
0.128379
0.124781
0.12135
0.118075
0.114948
0.11196
0.109101
0.106366
0.103746
0.101234
0.0988262
0.0965152
0.094296
0.0921638
0.0901137
0.0881416
0.0862434
0.0844151
0.0826534
0.0809547
0.079316
0.0777343
0.0762067
0.0747308
0.0733039
0.0719238
0.0705883
0.0692952
0.0680426
0.0668285
0.0656514
0.0645093
0.0634008
0.0623242
0.0612783
0.0602615
0.0592726
0.0583103
0.0573735
0.056461
0.0555718
0.054705
0.0538598
0.0530353
0.052231
0.0514466
0.0506819
0.0499373
0.0492137
0.0485125
0.0478365
0.0471898
0.0465787
0.0460123
0.0455038
0.0450724
0.0447446
0.044558
0.961692
0.892184
0.829084
0.771727
0.719522
0.671944
0.628523
0.588843
0.552532
0.519258
0.488725
0.460668
0.434851
0.411062
0.389111
0.36883
0.350064
0.332679
0.31655
0.301567
0.28763
0.274651
0.262547
0.251245
0.24068
0.230791
0.221525
0.212832
0.204667
0.196989
0.189763
0.182953
0.176529
0.170464
0.16473
0.159306
0.154169
0.1493
0.14468
0.140293
0.136123
0.132156
0.12838
0.124782
0.121351
0.118076
0.114949
0.111961
0.109103
0.106367
0.103747
0.101236
0.0988277
0.0965167
0.0942976
0.0921654
0.0901155
0.0881434
0.0862452
0.0844171
0.0826554
0.0809568
0.0793182
0.0777365
0.0762091
0.0747333
0.0733065
0.0719265
0.070591
0.069298
0.0680455
0.0668316
0.0656545
0.0645126
0.0634042
0.0623278
0.0612819
0.0602653
0.0592765
0.0583144
0.0573777
0.0564653
0.0555763
0.0547096
0.0538645
0.0530402
0.052236
0.0514518
0.0506873
0.0499429
0.0492193
0.0485183
0.0478425
0.0471959
0.0465848
0.0460185
0.0455101
0.0450787
0.044751
0.0445643
0.961692
0.892184
0.829084
0.771727
0.719522
0.671944
0.628523
0.588843
0.552532
0.519258
0.488725
0.460668
0.434851
0.411062
0.389111
0.36883
0.350065
0.332679
0.31655
0.301567
0.28763
0.274651
0.262547
0.251245
0.24068
0.230792
0.221525
0.212832
0.204667
0.19699
0.189763
0.182953
0.17653
0.170464
0.164731
0.159307
0.15417
0.1493
0.14468
0.140293
0.136123
0.132157
0.128381
0.124783
0.121352
0.118077
0.114951
0.111962
0.109104
0.106368
0.103748
0.101237
0.0988291
0.0965182
0.0942992
0.0921671
0.0901172
0.0881452
0.0862471
0.084419
0.0826574
0.0809589
0.0793204
0.0777388
0.0762115
0.0747357
0.073309
0.0719291
0.0705938
0.0693009
0.0680485
0.0668347
0.0656577
0.0645159
0.0634076
0.0623313
0.0612856
0.060269
0.0592804
0.0583184
0.0573818
0.0564696
0.0555807
0.0547142
0.0538693
0.0530451
0.0522411
0.051457
0.0506926
0.0499484
0.049225
0.0485241
0.0478484
0.0472019
0.046591
0.0460247
0.0455164
0.045085
0.0447573
0.0445706
0.961692
0.892184
0.829084
0.771727
0.719522
0.671944
0.628523
0.588843
0.552532
0.519258
0.488725
0.460668
0.434851
0.411062
0.389111
0.36883
0.350065
0.332679
0.31655
0.301567
0.287631
0.274651
0.262547
0.251245
0.24068
0.230792
0.221525
0.212832
0.204667
0.19699
0.189763
0.182954
0.17653
0.170464
0.164731
0.159307
0.15417
0.149301
0.144681
0.140294
0.136124
0.132158
0.128382
0.124784
0.121353
0.118078
0.114952
0.111963
0.109105
0.106369
0.10375
0.101239
0.0988306
0.0965197
0.0943008
0.0921687
0.0901189
0.088147
0.086249
0.084421
0.0826594
0.080961
0.0793226
0.0777411
0.0762138
0.0747382
0.0733116
0.0719318
0.0705965
0.0693037
0.0680514
0.0668377
0.0656608
0.0645191
0.0634109
0.0623348
0.0612892
0.0602728
0.0592843
0.0583224
0.057386
0.0564739
0.0555852
0.0547188
0.053874
0.0530499
0.0522461
0.0514622
0.050698
0.0499538
0.0492306
0.0485299
0.0478543
0.0472079
0.0465971
0.0460309
0.0455227
0.0450913
0.0447636
0.0445769
0.961692
0.892184
0.829084
0.771727
0.719522
0.671944
0.628523
0.588843
0.552532
0.519258
0.488725
0.460668
0.434851
0.411062
0.389111
0.36883
0.350065
0.332679
0.31655
0.301567
0.287631
0.274651
0.262547
0.251245
0.24068
0.230792
0.221526
0.212832
0.204668
0.19699
0.189764
0.182954
0.17653
0.170465
0.164732
0.159308
0.154171
0.149302
0.144682
0.140295
0.136125
0.132159
0.128382
0.124784
0.121354
0.118079
0.114953
0.111964
0.109106
0.106371
0.103751
0.10124
0.098832
0.0965212
0.0943023
0.0921703
0.0901206
0.0881488
0.0862508
0.0844229
0.0826614
0.0809631
0.0793247
0.0777433
0.0762162
0.0747406
0.0733141
0.0719344
0.0705992
0.0693065
0.0680543
0.0668407
0.065664
0.0645223
0.0634143
0.0623382
0.0612928
0.0602765
0.0592881
0.0583263
0.0573901
0.0564781
0.0555895
0.0547233
0.0538786
0.0530548
0.0522511
0.0514673
0.0507032
0.0499593
0.0492362
0.0485356
0.0478601
0.0472139
0.0466032
0.0460371
0.0455289
0.0450976
0.0447699
0.0445832
0.961692
0.892184
0.829084
0.771727
0.719522
0.671944
0.628523
0.588843
0.552532
0.519258
0.488725
0.460668
0.434851
0.411062
0.389111
0.36883
0.350065
0.332679
0.31655
0.301567
0.287631
0.274651
0.262547
0.251246
0.240681
0.230792
0.221526
0.212833
0.204668
0.196991
0.189764
0.182954
0.176531
0.170465
0.164732
0.159308
0.154171
0.149302
0.144682
0.140295
0.136126
0.132159
0.128383
0.124785
0.121354
0.11808
0.114954
0.111965
0.109107
0.106372
0.103752
0.101241
0.0988334
0.0965227
0.0943038
0.0921719
0.0901223
0.0881505
0.0862526
0.0844248
0.0826634
0.0809651
0.0793268
0.0777455
0.0762185
0.074743
0.0733166
0.0719369
0.0706019
0.0693093
0.0680572
0.0668437
0.065667
0.0645255
0.0634176
0.0623416
0.0612963
0.0602801
0.0592919
0.0583302
0.0573941
0.0564823
0.0555939
0.0547278
0.0538832
0.0530595
0.052256
0.0514723
0.0507085
0.0499646
0.0492417
0.0485413
0.0478659
0.0472198
0.0466092
0.0460432
0.0455351
0.0451038
0.0447761
0.0445894
0.961692
0.892184
0.829084
0.771727
0.719522
0.671944
0.628523
0.588843
0.552532
0.519258
0.488725
0.460668
0.434851
0.411062
0.389111
0.36883
0.350065
0.332679
0.31655
0.301567
0.287631
0.274651
0.262547
0.251246
0.240681
0.230792
0.221526
0.212833
0.204668
0.196991
0.189764
0.182955
0.176531
0.170466
0.164733
0.159309
0.154172
0.149303
0.144683
0.140296
0.136126
0.13216
0.128384
0.124786
0.121355
0.118081
0.114955
0.111966
0.109108
0.106373
0.103753
0.101243
0.0988347
0.0965241
0.0943053
0.0921735
0.0901239
0.0881522
0.0862544
0.0844266
0.0826653
0.0809671
0.0793289
0.0777477
0.0762207
0.0747453
0.073319
0.0719395
0.0706045
0.069312
0.06806
0.0668466
0.06567
0.0645286
0.0634208
0.062345
0.0612998
0.0602837
0.0592956
0.0583341
0.0573981
0.0564864
0.0555981
0.0547322
0.0538878
0.0530642
0.0522608
0.0514773
0.0507136
0.0499699
0.0492471
0.0485468
0.0478716
0.0472256
0.0466151
0.0460492
0.0455411
0.0451099
0.0447822
0.0445955
0.961692
0.892184
0.829084
0.771727
0.719522
0.671944
0.628523
0.588843
0.552532
0.519258
0.488725
0.460668
0.434851
0.411062
0.389111
0.36883
0.350065
0.332679
0.31655
0.301567
0.287631
0.274651
0.262547
0.251246
0.240681
0.230793
0.221526
0.212833
0.204668
0.196991
0.189765
0.182955
0.176532
0.170466
0.164733
0.159309
0.154172
0.149303
0.144684
0.140297
0.136127
0.132161
0.128385
0.124787
0.121356
0.118082
0.114956
0.111967
0.10911
0.106374
0.103755
0.101244
0.0988361
0.0965255
0.0943068
0.092175
0.0901255
0.0881539
0.0862561
0.0844284
0.0826672
0.0809691
0.079331
0.0777498
0.0762229
0.0747476
0.0733214
0.0719419
0.0706071
0.0693146
0.0680627
0.0668494
0.065673
0.0645317
0.063424
0.0623483
0.0613031
0.0602872
0.0592992
0.0583378
0.057402
0.0564904
0.0556023
0.0547365
0.0538922
0.0530688
0.0522656
0.0514822
0.0507186
0.0499751
0.0492525
0.0485523
0.0478772
0.0472313
0.0466209
0.0460551
0.0455471
0.0451159
0.0447882
0.0446015
0.961692
0.892184
0.829084
0.771727
0.719522
0.671944
0.628523
0.588843
0.552532
0.519258
0.488725
0.460668
0.434851
0.411062
0.389111
0.36883
0.350065
0.332679
0.31655
0.301567
0.287631
0.274651
0.262547
0.251246
0.240681
0.230793
0.221527
0.212833
0.204669
0.196991
0.189765
0.182955
0.176532
0.170467
0.164734
0.15931
0.154173
0.149304
0.144684
0.140297
0.136128
0.132162
0.128386
0.124788
0.121357
0.118083
0.114957
0.111969
0.109111
0.106375
0.103756
0.101245
0.0988374
0.0965269
0.0943082
0.0921765
0.0901271
0.0881555
0.0862578
0.0844302
0.0826691
0.080971
0.079333
0.0777519
0.0762251
0.0747498
0.0733237
0.0719443
0.0706096
0.0693172
0.0680654
0.0668522
0.0656759
0.0645347
0.0634271
0.0623515
0.0613065
0.0602907
0.0593028
0.0583415
0.0574058
0.0564944
0.0556063
0.0547407
0.0538966
0.0530733
0.0522702
0.051487
0.0507235
0.0499802
0.0492577
0.0485576
0.0478827
0.0472369
0.0466266
0.0460608
0.0455529
0.0451217
0.0447941
0.0446074
0.961692
0.892184
0.829084
0.771727
0.719522
0.671944
0.628523
0.588843
0.552532
0.519258
0.488725
0.460668
0.434851
0.411062
0.389111
0.36883
0.350065
0.332679
0.31655
0.301567
0.287631
0.274651
0.262548
0.251246
0.240681
0.230793
0.221527
0.212834
0.204669
0.196992
0.189765
0.182956
0.176532
0.170467
0.164734
0.15931
0.154173
0.149304
0.144685
0.140298
0.136128
0.132162
0.128386
0.124789
0.121358
0.118084
0.114958
0.111969
0.109112
0.106376
0.103757
0.101246
0.0988387
0.0965282
0.0943096
0.092178
0.0901286
0.0881571
0.0862595
0.0844319
0.0826709
0.0809729
0.0793349
0.0777539
0.0762272
0.074752
0.073326
0.0719467
0.070612
0.0693198
0.068068
0.0668549
0.0656787
0.0645376
0.0634301
0.0623546
0.0613097
0.060294
0.0593062
0.0583451
0.0574094
0.0564982
0.0556103
0.0547448
0.0539008
0.0530776
0.0522747
0.0514916
0.0507283
0.0499851
0.0492627
0.0485628
0.047888
0.0472424
0.0466321
0.0460665
0.0455586
0.0451275
0.0447999
0.0446131
0.961692
0.892184
0.829084
0.771727
0.719522
0.671944
0.628523
0.588843
0.552532
0.519258
0.488725
0.460668
0.434851
0.411062
0.389111
0.36883
0.350065
0.332679
0.31655
0.301567
0.287631
0.274652
0.262548
0.251246
0.240681
0.230793
0.221527
0.212834
0.204669
0.196992
0.189765
0.182956
0.176533
0.170467
0.164735
0.159311
0.154174
0.149305
0.144685
0.140299
0.136129
0.132163
0.128387
0.124789
0.121359
0.118085
0.114959
0.11197
0.109113
0.106378
0.103758
0.101247
0.0988399
0.0965295
0.094311
0.0921794
0.09013
0.0881586
0.0862611
0.0844336
0.0826726
0.0809747
0.0793368
0.0777559
0.0762292
0.0747541
0.0733282
0.071949
0.0706143
0.0693222
0.0680706
0.0668576
0.0656814
0.0645404
0.063433
0.0623576
0.0613128
0.0602972
0.0593096
0.0583485
0.057413
0.0565019
0.0556141
0.0547487
0.0539049
0.0530818
0.0522791
0.0514961
0.050733
0.0499899
0.0492676
0.0485679
0.0478932
0.0472476
0.0466375
0.0460719
0.0455641
0.045133
0.0448054
0.0446187
0.961692
0.892184
0.829084
0.771727
0.719522
0.671944
0.628523
0.588843
0.552532
0.519258
0.488725
0.460668
0.434851
0.411062
0.389111
0.36883
0.350065
0.332679
0.31655
0.301568
0.287631
0.274652
0.262548
0.251246
0.240682
0.230793
0.221527
0.212834
0.204669
0.196992
0.189766
0.182956
0.176533
0.170468
0.164735
0.159311
0.154174
0.149305
0.144686
0.140299
0.13613
0.132164
0.128388
0.12479
0.12136
0.118086
0.114959
0.111971
0.109114
0.106379
0.103759
0.101249
0.0988411
0.0965307
0.0943123
0.0921807
0.0901315
0.0881601
0.0862626
0.0844352
0.0826743
0.0809764
0.0793386
0.0777578
0.0762312
0.0747562
0.0733303
0.0719512
0.0706166
0.0693246
0.068073
0.0668601
0.065684
0.0645431
0.0634358
0.0623605
0.0613158
0.0603003
0.0593128
0.0583519
0.0574165
0.0565055
0.0556178
0.0547525
0.0539088
0.0530859
0.0522833
0.0515005
0.0507375
0.0499945
0.0492724
0.0485727
0.0478982
0.0472528
0.0466427
0.0460772
0.0455695
0.0451384
0.0448108
0.0446241
0.961692
0.892184
0.829084
0.771727
0.719522
0.671944
0.628523
0.588843
0.552532
0.519258
0.488725
0.460668
0.434851
0.411062
0.389111
0.36883
0.350065
0.332679
0.31655
0.301568
0.287631
0.274652
0.262548
0.251247
0.240682
0.230793
0.221527
0.212834