/*--------------------------------*- C++ -*----------------------------------*\
  =========                 |
  \\      /  F ield         | OpenFOAM: The Open Source CFD Toolbox
   \\    /   O peration     | Website:  https://openfoam.org
    \\  /    A nd           | Version:  11
     \\/     M anipulation  |
\*---------------------------------------------------------------------------*/
FoamFile
{
    format      ascii;
    class       volScalarField;
    location    "488";
    object      omega;
}
// * * * * * * * * * * * * * * * * * * * * * * * * * * * * * * * * * * * * * //

dimensions      [0 0 -1 0 0 0 0];

internalField   nonuniform List<scalar> 
10000
(
0.961692
0.892185
0.829085
0.771728
0.719523
0.671944
0.628522
0.588841
0.552528
0.519252
0.488716
0.460657
0.434837
0.411044
0.38909
0.368804
0.350035
0.332644
0.31651
0.301521
0.287579
0.274592
0.262482
0.251173
0.2406
0.230703
0.221428
0.212726
0.204551
0.196864
0.189627
0.182806
0.176371
0.170293
0.164547
0.15911
0.153959
0.149075
0.144439
0.140036
0.135849
0.131865
0.12807
0.124452
0.121001
0.117705
0.114555
0.111543
0.10866
0.105898
0.10325
0.100709
0.0982696
0.0959255
0.0936713
0.0915018
0.0894122
0.0873979
0.0854548
0.0835786
0.0817657
0.0800124
0.0783152
0.076671
0.0750766
0.073529
0.0720256
0.0705636
0.0691407
0.0677543
0.0664023
0.0650827
0.0637936
0.0625331
0.0612999
0.0600926
0.05891
0.0577512
0.0566156
0.0555028
0.0544126
0.0533452
0.0523011
0.051281
0.050286
0.0493173
0.0483766
0.047466
0.0465878
0.0457448
0.0449402
0.0441777
0.0434616
0.0427972
0.0421907
0.04165
0.0411849
0.0408078
0.0405345
0.0403853
0.961692
0.892185
0.829085
0.771728
0.719523
0.671944
0.628522
0.588841
0.552528
0.519252
0.488716
0.460657
0.434837
0.411044
0.38909
0.368804
0.350035
0.332644
0.31651
0.301521
0.287579
0.274593
0.262482
0.251173
0.2406
0.230703
0.221429
0.212726
0.204552
0.196864
0.189627
0.182806
0.176371
0.170293
0.164547
0.15911
0.153959
0.149075
0.14444
0.140036
0.13585
0.131865
0.12807
0.124453
0.121001
0.117706
0.114556
0.111544
0.10866
0.105898
0.10325
0.10071
0.0982702
0.0959261
0.093672
0.0915025
0.0894129
0.0873987
0.0854556
0.0835795
0.0817666
0.0800134
0.0783163
0.0766721
0.0750777
0.0735303
0.0720269
0.070565
0.0691421
0.0677559
0.066404
0.0650845
0.0637954
0.0625351
0.061302
0.0600948
0.0589123
0.0577536
0.0566181
0.0555054
0.0544153
0.053348
0.052304
0.051284
0.0502889
0.0493203
0.0483797
0.0474691
0.046591
0.045748
0.0449433
0.0441807
0.0434645
0.0427999
0.0421933
0.0416526
0.0411874
0.0408102
0.0405368
0.0403875
0.961692
0.892185
0.829086
0.771729
0.719523
0.671944
0.628522
0.588841
0.552528
0.519252
0.488717
0.460657
0.434837
0.411045
0.38909
0.368805
0.350035
0.332644
0.31651
0.301522
0.287579
0.274593
0.262482
0.251173
0.240601
0.230704
0.221429
0.212727
0.204552
0.196865
0.189628
0.182807
0.176372
0.170294
0.164548
0.15911
0.153959
0.149075
0.14444
0.140037
0.13585
0.131866
0.128071
0.124454
0.121002
0.117706
0.114557
0.111545
0.108661
0.105899
0.103251
0.100711
0.0982713
0.0959273
0.0936732
0.0915038
0.0894143
0.0874001
0.0854571
0.0835811
0.0817683
0.0800151
0.0783181
0.076674
0.0750798
0.0735324
0.0720292
0.0705674
0.0691447
0.0677585
0.0664068
0.0650875
0.0637986
0.0625385
0.0613056
0.0600985
0.0589162
0.0577577
0.0566224
0.0555099
0.05442
0.0533529
0.052309
0.0512891
0.0502942
0.0493256
0.0483851
0.0474746
0.0465964
0.0457534
0.0449487
0.044186
0.0434697
0.042805
0.0421983
0.0416574
0.0411921
0.0408148
0.0405413
0.040392
0.961692
0.892185
0.829086
0.771729
0.719523
0.671944
0.628522
0.588841
0.552528
0.519252
0.488717
0.460657
0.434837
0.411045
0.389091
0.368805
0.350035
0.332645
0.316511
0.301522
0.28758
0.274593
0.262483
0.251174
0.240601
0.230704
0.22143
0.212727
0.204553
0.196865
0.189628
0.182808
0.176372
0.170295
0.164549
0.159111
0.15396
0.149076
0.144441
0.140038
0.135851
0.131867
0.128072
0.124455
0.121003
0.117708
0.114558
0.111546
0.108663
0.105901
0.103253
0.100712
0.0982729
0.095929
0.093675
0.0915056
0.0894162
0.0874022
0.0854592
0.0835833
0.0817706
0.0800176
0.0783207
0.0766767
0.0750826
0.0735355
0.0720324
0.0705708
0.0691483
0.0677623
0.0664108
0.0650917
0.0638031
0.0625432
0.0613106
0.0601038
0.0589218
0.0577636
0.0566285
0.0555162
0.0544266
0.0533597
0.052316
0.0512963
0.0503016
0.0493332
0.0483928
0.0474823
0.0466042
0.0457612
0.0449564
0.0441936
0.0434772
0.0428123
0.0422054
0.0416643
0.0411988
0.0408214
0.0405478
0.0403984
0.961692
0.892185
0.829086
0.771729
0.719524
0.671944
0.628523
0.588841
0.552529
0.519253
0.488717
0.460658
0.434838
0.411045
0.389091
0.368806
0.350036
0.332645
0.316511
0.301523
0.28758
0.274594
0.262483
0.251175
0.240602
0.230705
0.22143
0.212728
0.204554
0.196866
0.189629
0.182808
0.176373
0.170296
0.16455
0.159112
0.153961
0.149078
0.144442
0.140039
0.135853
0.131868
0.128074
0.124456
0.121005
0.117709
0.11456
0.111548
0.108664
0.105902
0.103255
0.100714
0.0982751
0.0959312
0.0936773
0.091508
0.0894187
0.0874048
0.085462
0.0835862
0.0817737
0.0800208
0.078324
0.0766803
0.0750864
0.0735394
0.0720366
0.0705752
0.0691529
0.0677672
0.066416
0.0650972
0.0638089
0.0625494
0.061317
0.0601106
0.0589289
0.0577711
0.0566364
0.0555244
0.0544351
0.0533685
0.0523251
0.0513057
0.0503111
0.0493429
0.0484026
0.0474923
0.0466142
0.0457711
0.0449663
0.0442034
0.0434868
0.0428217
0.0422146
0.0416733
0.0412076
0.04083
0.0405562
0.0404067
0.961692
0.892185
0.829086
0.771729
0.719524
0.671944
0.628523
0.588842
0.552529
0.519253
0.488718
0.460658
0.434838
0.411046
0.389092
0.368806
0.350036
0.332646
0.316512
0.301523
0.287581
0.274595
0.262484
0.251175
0.240603
0.230706
0.221431
0.212729
0.204555
0.196867
0.18963
0.18281
0.176374
0.170297
0.164551
0.159114
0.153963
0.149079
0.144444
0.140041
0.135854
0.13187
0.128075
0.124458
0.121007
0.117711
0.114562
0.11155
0.108667
0.105905
0.103257
0.100717
0.0982776
0.0959339
0.0936801
0.091511
0.0894218
0.087408
0.0854653
0.0835897
0.0817774
0.0800246
0.0783281
0.0766846
0.0750909
0.0735442
0.0720416
0.0705806
0.0691585
0.0677732
0.0664223
0.0651039
0.0638159
0.0625568
0.0613249
0.0601188
0.0589376
0.0577801
0.0566458
0.0555343
0.0544453
0.0533791
0.0523361
0.0513169
0.0503226
0.0493546
0.0484145
0.0475042
0.0466262
0.0457831
0.0449782
0.0442151
0.0434983
0.0428331
0.0422257
0.0416841
0.0412182
0.0408403
0.0405664
0.0404168
0.961692
0.892185
0.829086
0.771729
0.719524
0.671945
0.628523
0.588842
0.552529
0.519253
0.488718
0.460659
0.434839
0.411046
0.389092
0.368807
0.350037
0.332647
0.316513
0.301524
0.287582
0.274596
0.262485
0.251176
0.240604
0.230707
0.221432
0.21273
0.204556
0.196869
0.189632
0.182811
0.176376
0.170298
0.164553
0.159115
0.153964
0.149081
0.144446
0.140042
0.135856
0.131872
0.128077
0.12446
0.121009
0.117713
0.114564
0.111552
0.108669
0.105907
0.10326
0.10072
0.0982806
0.095937
0.0936833
0.0915144
0.0894254
0.0874118
0.0854693
0.0835938
0.0817817
0.0800292
0.0783329
0.0766896
0.0750962
0.0735498
0.0720475
0.0705868
0.0691651
0.0677801
0.0664296
0.0651116
0.0638241
0.0625654
0.0613339
0.0601284
0.0589476
0.0577906
0.0566568
0.0555457
0.0544572
0.0533914
0.0523487
0.0513299
0.0503359
0.0493681
0.0484282
0.047518
0.04664
0.0457969
0.0449919
0.0442287
0.0435117
0.0428462
0.0422386
0.0416967
0.0412305
0.0408524
0.0405782
0.0404284
0.961692
0.892185
0.829086
0.771729
0.719524
0.671945
0.628523
0.588842
0.55253
0.519254
0.488718
0.460659
0.434839
0.411047
0.389093
0.368807
0.350038
0.332647
0.316513
0.301525
0.287583
0.274597
0.262486
0.251177
0.240605
0.230708
0.221434
0.212731
0.204557
0.19687
0.189633
0.182812
0.176377
0.1703
0.164554
0.159117
0.153966
0.149082
0.144447
0.140044
0.135858
0.131874
0.12808
0.124462
0.121011
0.117716
0.114567
0.111555
0.108672
0.10591
0.103263
0.100723
0.098284
0.0959406
0.0936871
0.0915183
0.0894294
0.087416
0.0854737
0.0835985
0.0817866
0.0800343
0.0783383
0.0766953
0.0751022
0.0735561
0.0720541
0.0705938
0.0691725
0.0677879
0.0664379
0.0651203
0.0638333
0.0625751
0.0613441
0.0601391
0.0589588
0.0578024
0.0566691
0.0555585
0.0544705
0.0534052
0.052363
0.0513445
0.0503508
0.0493833
0.0484435
0.0475335
0.0466556
0.0458125
0.0450074
0.044244
0.0435268
0.042861
0.0422531
0.0417109
0.0412444
0.0408659
0.0405915
0.0404416
0.961692
0.892185
0.829086
0.771729
0.719524
0.671945
0.628523
0.588842
0.55253
0.519254
0.488719
0.46066
0.43484
0.411048
0.389094
0.368808
0.350039
0.332648
0.316514
0.301526
0.287584
0.274598
0.262487
0.251178
0.240606
0.230709
0.221435
0.212733
0.204558
0.196871
0.189634
0.182814
0.176379
0.170302
0.164556
0.159119
0.153968
0.149084
0.14445
0.140047
0.13586
0.131877
0.128082
0.124465
0.121014
0.117719
0.11457
0.111558
0.108675
0.105914
0.103266
0.100726
0.0982878
0.0959445
0.0936912
0.0915226
0.0894339
0.0874207
0.0854786
0.0836037
0.081792
0.08004
0.0783443
0.0767016
0.0751088
0.073563
0.0720615
0.0706015
0.0691807
0.0677966
0.066447
0.0651299
0.0638434
0.0625858
0.0613554
0.0601509
0.0589712
0.0578154
0.0566827
0.0555727
0.0544852
0.0534204
0.0523786
0.0513605
0.0503672
0.0494
0.0484605
0.0475506
0.0466727
0.0458296
0.0450244
0.0442608
0.0435434
0.0428773
0.042269
0.0417265
0.0412596
0.0408809
0.0406062
0.0404561
0.961692
0.892185
0.829086
0.771729
0.719524
0.671945
0.628524
0.588843
0.55253
0.519254
0.488719
0.46066
0.43484
0.411048
0.389094
0.368809
0.350039
0.332649
0.316515
0.301527
0.287585
0.274599
0.262488
0.25118
0.240607
0.230711
0.221436
0.212734
0.20456
0.196873
0.189636
0.182816
0.176381
0.170303
0.164558
0.159121
0.15397
0.149087
0.144452
0.140049
0.135863
0.131879
0.128085
0.124468
0.121017
0.117722
0.114573
0.111561
0.108679
0.105917
0.10327
0.10073
0.0982919
0.0959488
0.0936956
0.0915272
0.0894388
0.0874258
0.085484
0.0836093
0.0817979
0.0800462
0.0783508
0.0767084
0.075116
0.0735706
0.0720695
0.07061
0.0691896
0.067806
0.0664569
0.0651404
0.0638544
0.0625973
0.0613676
0.0601637
0.0589847
0.0578295
0.0566974
0.055588
0.0545011
0.0534368
0.0523955
0.0513779
0.050385
0.049418
0.0484787
0.047569
0.0466912
0.045848
0.0450427
0.044279
0.0435613
0.0428949
0.0422863
0.0417434
0.0412762
0.0408971
0.0406222
0.0404719
0.961692
0.892185
0.829086
0.771729
0.719524
0.671945
0.628524
0.588843
0.55253
0.519255
0.48872
0.46066
0.434841
0.411049
0.389095
0.368809
0.35004
0.33265
0.316516
0.301528
0.287586
0.2746
0.262489
0.251181
0.240608
0.230712
0.221438
0.212736
0.204562
0.196875
0.189638
0.182817
0.176383
0.170305
0.16456
0.159123
0.153973
0.149089
0.144454
0.140052
0.135866
0.131882
0.128088
0.124471
0.12102
0.117725
0.114576
0.111565
0.108682
0.105921
0.103274
0.100735
0.0982963
0.0959534
0.0937004
0.0915323
0.0894441
0.0874313
0.0854898
0.0836153
0.0818042
0.0800529
0.0783578
0.0767158
0.0751237
0.0735788
0.0720781
0.070619
0.0691991
0.067816
0.0664675
0.0651516
0.0638662
0.0626097
0.0613806
0.0601774
0.058999
0.0578445
0.056713
0.0556043
0.054518
0.0534543
0.0524135
0.0513964
0.0504039
0.0494373
0.0484982
0.0475887
0.0467109
0.0458678
0.0450623
0.0442984
0.0435805
0.0429138
0.0423048
0.0417615
0.0412939
0.0409145
0.0406393
0.0404888
0.961692
0.892185
0.829086
0.771729
0.719524
0.671945
0.628524
0.588843
0.552531
0.519255
0.48872
0.460661
0.434841
0.411049
0.389095
0.36881
0.350041
0.332651
0.316517
0.301529
0.287587
0.274601
0.26249
0.251182
0.24061
0.230714
0.221439
0.212737
0.204563
0.196876
0.18964
0.182819
0.176385
0.170308
0.164562
0.159125
0.153975
0.149092
0.144457
0.140054
0.135868
0.131885
0.128091
0.124474
0.121023
0.117729
0.11458
0.111569
0.108686
0.105925
0.103278
0.100739
0.098301
0.0959583
0.0937055
0.0915376
0.0894496
0.0874372
0.0854959
0.0836217
0.0818109
0.0800599
0.0783652
0.0767236
0.0751319
0.0735874
0.0720872
0.0706286
0.0692092
0.0678267
0.0664787
0.0651634
0.0638787
0.0626229
0.0613944
0.0601919
0.0590142
0.0578603
0.0567296
0.0556215
0.0545359
0.0534727
0.0524325
0.0514159
0.0504238
0.0494576
0.0485188
0.0476094
0.0467317
0.0458886
0.045083
0.0443189
0.0436007
0.0429337
0.0423243
0.0417807
0.0413127
0.0409329
0.0406574
0.0405067
0.961692
0.892185
0.829086
0.771729
0.719524
0.671945
0.628524
0.588843
0.552531
0.519255
0.48872
0.460661
0.434842
0.41105
0.389096
0.368811
0.350042
0.332652
0.316518
0.30153
0.287588
0.274602
0.262492
0.251183
0.240611
0.230715
0.221441
0.212739
0.204565
0.196878
0.189642
0.182821
0.176387
0.17031
0.164565
0.159128
0.153977
0.149094
0.14446
0.140057
0.135871
0.131888
0.128094
0.124477
0.121027
0.117732
0.114584
0.111573
0.10869
0.10593
0.103283
0.100744
0.0983059
0.0959634
0.0937109
0.0915432
0.0894555
0.0874433
0.0855023
0.0836285
0.081818
0.0800673
0.078373
0.0767318
0.0751406
0.0735965
0.0720967
0.0706387
0.0692198
0.0678378
0.0664905
0.0651758
0.0638917
0.0626366
0.0614088
0.060207
0.0590301
0.0578769
0.0567469
0.0556395
0.0545545
0.053492
0.0524524
0.0514363
0.0504447
0.0494788
0.0485403
0.0476311
0.0467535
0.0459103
0.0451047
0.0443404
0.0436219
0.0429545
0.0423448
0.0418007
0.0413323
0.0409521
0.0406763
0.0405254
0.961692
0.892185
0.829086
0.771729
0.719524
0.671945
0.628524
0.588843
0.552531
0.519255
0.48872
0.460662
0.434842
0.41105
0.389097
0.368811
0.350042
0.332652
0.316519
0.301531
0.287589
0.274603
0.262493
0.251185
0.240612
0.230716
0.221442
0.21274
0.204567
0.19688
0.189643
0.182823
0.176389
0.170312
0.164567
0.15913
0.15398
0.149097
0.144462
0.14006
0.135874
0.131891
0.128097
0.124481
0.121031
0.117736
0.114588
0.111577
0.108695
0.105934
0.103288
0.100749
0.098311
0.0959687
0.0937164
0.091549
0.0894616
0.0874497
0.085509
0.0836355
0.0818254
0.080075
0.0783811
0.0767403
0.0751495
0.0736059
0.0721066
0.0706491
0.0692308
0.0678495
0.0665027
0.0651887
0.0639053
0.0626509
0.0614238
0.0602228
0.0590465
0.0578941
0.0567648
0.0556582
0.0545739
0.0535121
0.052473
0.0514575
0.0504663
0.0495008
0.0485625
0.0476535
0.0467761
0.0459328
0.0451271
0.0443626
0.0436438
0.0429761
0.042366
0.0418215
0.0413527
0.0409722
0.040696
0.0405449
0.961692
0.892185
0.829086
0.771729
0.719524
0.671945
0.628524
0.588843
0.552531
0.519256
0.488721
0.460662
0.434842
0.411051
0.389097
0.368812
0.350043
0.332653
0.316519
0.301532
0.28759
0.274604
0.262494
0.251186
0.240614
0.230718
0.221444
0.212742
0.204568
0.196882
0.189645
0.182825
0.176391
0.170314
0.164569
0.159133
0.153983
0.1491
0.144465
0.140063
0.135878
0.131894
0.128101
0.124484
0.121034
0.11774
0.114592
0.111581
0.108699
0.105939
0.103292
0.100754
0.0983162
0.0959742
0.0937222
0.091555
0.0894679
0.0874563
0.0855159
0.0836427
0.081833
0.080083
0.0783895
0.0767491
0.0751588
0.0736157
0.0721169
0.0706599
0.0692422
0.0678614
0.0665154
0.065202
0.0639193
0.0626656
0.0614393
0.060239
0.0590635
0.0579119
0.0567833
0.0556774
0.0545938
0.0535326
0.0524942
0.0514792
0.0504885
0.0495234
0.0485855
0.0476767
0.0467993
0.0459561
0.0451502
0.0443856
0.0436665
0.0429985
0.042388
0.041843
0.0413738
0.0409928
0.0407164
0.0405651
0.961692
0.892185
0.829086
0.771729
0.719524
0.671945
0.628524
0.588843
0.552531
0.519256
0.488721
0.460662
0.434843
0.411051
0.389098
0.368813
0.350044
0.332654
0.31652
0.301532
0.287591
0.274605
0.262495
0.251187
0.240615
0.230719
0.221445
0.212744
0.20457
0.196884
0.189647
0.182828
0.176393
0.170317
0.164572
0.159135
0.153985
0.149102
0.144468
0.140066
0.135881
0.131898
0.128104
0.124488
0.121038
0.117744
0.114596
0.111585
0.108704
0.105943
0.103297
0.100759
0.0983217
0.0959799
0.0937281
0.0915612
0.0894744
0.0874631
0.085523
0.0836502
0.0818408
0.0800912
0.0783981
0.0767582
0.0751683
0.0736257
0.0721275
0.070671
0.0692539
0.0678738
0.0665283
0.0652156
0.0639336
0.0626806
0.0614551
0.0602556
0.0590809
0.05793
0.0568022
0.055697
0.0546142
0.0535537
0.0525159
0.0515015
0.0505113
0.0495466
0.0486089
0.0477003
0.0468231
0.0459799
0.0451739
0.044409
0.0436897
0.0430213
0.0424104
0.0418651
0.0413954
0.041014
0.0407372
0.0405857
0.961692
0.892185
0.829086
0.771729
0.719524
0.671945
0.628524
0.588843
0.552531
0.519256
0.488721
0.460662
0.434843
0.411051
0.389098
0.368813
0.350044
0.332655
0.316521
0.301533
0.287592
0.274606
0.262496
0.251189
0.240617
0.230721
0.221447
0.212746
0.204572
0.196886
0.189649
0.18283
0.176396
0.170319
0.164574
0.159138
0.153988
0.149105
0.144471
0.140069
0.135884
0.131901
0.128108
0.124492
0.121042
0.117748
0.1146
0.11159
0.108708
0.105948
0.103302
0.100764
0.0983272
0.0959857
0.0937342
0.0915676
0.089481
0.08747
0.0855303
0.0836578
0.0818488
0.0800996
0.0784069
0.0767674
0.075178
0.0736359
0.0721382
0.0706824
0.0692658
0.0678863
0.0665415
0.0652295
0.0639482
0.062696
0.0614712
0.0602725
0.0590986
0.0579485
0.0568215
0.0557171
0.054635
0.0535752
0.052538
0.0515241
0.0505344
0.0495701
0.0486328
0.0477244
0.0468473
0.0460041
0.045198
0.044433
0.0437134
0.0430446
0.0424333
0.0418875
0.0414174
0.0410357
0.0407585
0.0406068
0.961692
0.892185
0.829086
0.771729
0.719524
0.671945
0.628524
0.588843
0.552531
0.519256
0.488721
0.460663
0.434843
0.411052
0.389099
0.368814
0.350045
0.332655
0.316522
0.301534
0.287593
0.274608
0.262498
0.25119
0.240618
0.230722
0.221448
0.212747
0.204574
0.196888
0.189651
0.182832
0.176398
0.170321
0.164577
0.15914
0.153991
0.149108
0.144474
0.140072
0.135887
0.131905
0.128112
0.124496
0.121046
0.117752
0.114605
0.111594
0.108713
0.105953
0.103308
0.10077
0.0983328
0.0959916
0.0937403
0.091574
0.0894877
0.087477
0.0855376
0.0836655
0.0818569
0.0801081
0.0784158
0.0767768
0.0751879
0.0736463
0.0721491
0.0706939
0.0692779
0.067899
0.0665549
0.0652436
0.0639631
0.0627116
0.0614876
0.0602896
0.0591165
0.0579672
0.056841
0.0557374
0.054656
0.0535969
0.0525604
0.0515471
0.0505579
0.049594
0.048657
0.0477488
0.0468718
0.0460286
0.0452225
0.0444572
0.0437374
0.0430683
0.0424566
0.0419103
0.0414398
0.0410576
0.0407801
0.0406282
0.961692
0.892185
0.829086
0.771729
0.719524
0.671945
0.628524
0.588843
0.552531
0.519256
0.488722
0.460663
0.434844
0.411052
0.389099
0.368814
0.350046
0.332656
0.316523
0.301535
0.287594
0.274609
0.262499
0.251191
0.240619
0.230724
0.22145
0.212749
0.204576
0.196889
0.189653
0.182834
0.1764
0.170324
0.164579
0.159143
0.153994
0.149111
0.144477
0.140076
0.135891
0.131908
0.128115
0.124499
0.12105
0.117756
0.114609
0.111599
0.108718
0.105958
0.103313
0.100775
0.0983385
0.0959975
0.0937465
0.0915805
0.0894945
0.0874842
0.0855451
0.0836734
0.0818651
0.0801167
0.0784249
0.0767863
0.0751979
0.0736568
0.0721602
0.0707055
0.0692902
0.0679119
0.0665685
0.0652578
0.063978
0.0627273
0.0615041
0.0603069
0.0591346
0.0579861
0.0568607
0.0557578
0.0546772
0.0536188
0.0525829
0.0515702
0.0505815
0.049618
0.0486814
0.0477735
0.0468965
0.0460534
0.0452472
0.0444817
0.0437616
0.0430922
0.04248
0.0419334
0.0414623
0.0410798
0.0408019
0.0406498
0.961692
0.892185
0.829085
0.771729
0.719524
0.671945
0.628524
0.588844
0.552532
0.519256
0.488722
0.460663
0.434844
0.411053
0.389099
0.368815
0.350046
0.332657
0.316523
0.301536
0.287595
0.27461
0.2625
0.251192
0.240621
0.230725
0.221452
0.212751
0.204577
0.196891
0.189655
0.182836
0.176402
0.170326
0.164582
0.159146
0.153996
0.149114
0.14448
0.140079
0.135894
0.131912
0.128119
0.124503
0.121054
0.11776
0.114613
0.111603
0.108723
0.105963
0.103318
0.10078
0.0983442
0.0960035
0.0937528
0.091587
0.0895014
0.0874913
0.0855526
0.0836812
0.0818734
0.0801254
0.078434
0.0767959
0.0752079
0.0736673
0.0721713
0.0707172
0.0693025
0.0679248
0.0665821
0.0652721
0.0639931
0.0627431
0.0615206
0.0603242
0.0591527
0.058005
0.0568804
0.0557783
0.0546984
0.0536407
0.0526055
0.0515934
0.0506052
0.0496422
0.0487059
0.0477982
0.0469214
0.0460782
0.045272
0.0445064
0.0437859
0.0431162
0.0425036
0.0419565
0.0414851
0.0411021
0.0408239
0.0406715
0.961692
0.892185
0.829085
0.771729
0.719524
0.671945
0.628524
0.588844
0.552532
0.519256
0.488722
0.460663
0.434844
0.411053
0.3891
0.368815
0.350047
0.332657
0.316524
0.301537
0.287596
0.274611
0.262501
0.251193
0.240622
0.230727
0.221453
0.212752
0.204579
0.196893
0.189657
0.182838
0.176404
0.170328
0.164584
0.159148
0.153999
0.149117
0.144483
0.140082
0.135897
0.131915
0.128122
0.124507
0.121058
0.117765
0.114618
0.111608
0.108727
0.105968
0.103323
0.100786
0.0983499
0.0960095
0.0937591
0.0915936
0.0895083
0.0874985
0.0855602
0.0836891
0.0818816
0.0801341
0.0784431
0.0768054
0.075218
0.0736779
0.0721824
0.0707289
0.0693148
0.0679378
0.0665957
0.0652865
0.0640081
0.0627589
0.0615372
0.0603416
0.0591709
0.058024
0.0569002
0.0557988
0.0547197
0.0536627
0.0526282
0.0516166
0.0506289
0.0496663
0.0487304
0.0478229
0.0469462
0.0461031
0.0452968
0.044531
0.0438103
0.0431402
0.0425273
0.0419798
0.0415078
0.0411244
0.0408459
0.0406933
0.961692
0.892185
0.829085
0.771729
0.719524
0.671945
0.628524
0.588844
0.552532
0.519257
0.488722
0.460664
0.434844
0.411053
0.3891
0.368816
0.350047
0.332658
0.316525
0.301538
0.287596
0.274612
0.262502
0.251195
0.240623
0.230728
0.221455
0.212754
0.204581
0.196895
0.189659
0.18284
0.176407
0.170331
0.164587
0.159151
0.154002
0.14912
0.144486
0.140085
0.135901
0.131919
0.128126
0.124511
0.121062
0.117769
0.114622
0.111613
0.108732
0.105973
0.103328
0.100791
0.0983557
0.0960155
0.0937653
0.0916001
0.0895151
0.0875057
0.0855677
0.083697
0.0818899
0.0801428
0.0784522
0.076815
0.0752281
0.0736885
0.0721935
0.0707405
0.0693271
0.0679507
0.0666093
0.0653007
0.0640231
0.0627746
0.0615537
0.0603589
0.059189
0.0580429
0.0569198
0.0558193
0.0547409
0.0536846
0.0526507
0.0516397
0.0506526
0.0496904
0.0487548
0.0478475
0.046971
0.0461279
0.0453215
0.0445556
0.0438346
0.0431642
0.0425509
0.0420029
0.0415306
0.0411467
0.0408679
0.0407151
0.961692
0.892185
0.829085
0.771729
0.719524
0.671945
0.628524
0.588844
0.552532
0.519257
0.488722
0.460664
0.434845
0.411054
0.389101
0.368816
0.350048
0.332658
0.316526
0.301538
0.287597
0.274613
0.262503
0.251196
0.240625
0.230729
0.221456
0.212755
0.204582
0.196897
0.189661
0.182842
0.176409
0.170333
0.164589
0.159153
0.154004
0.149122
0.144489
0.140088
0.135904
0.131922
0.12813
0.124515
0.121066
0.117773
0.114626
0.111617
0.108737
0.105978
0.103334
0.100797
0.0983613
0.0960214
0.0937715
0.0916067
0.0895219
0.0875129
0.0855752
0.0837049
0.0818981
0.0801514
0.0784613
0.0768245
0.0752381
0.073699
0.0722046
0.0707522
0.0693393
0.0679636
0.0666228
0.0653149
0.064038
0.0627903
0.0615701
0.0603761
0.0592069
0.0580616
0.0569394
0.0558396
0.0547619
0.0537063
0.0526731
0.0516627
0.050676
0.0497143
0.048779
0.047872
0.0469956
0.0461526
0.0453461
0.04458
0.0438588
0.0431881
0.0425744
0.042026
0.0415532
0.0411689
0.0408897
0.0407367
0.961692
0.892185
0.829085
0.771729
0.719524
0.671945
0.628524
0.588844
0.552532
0.519257
0.488722
0.460664
0.434845
0.411054
0.389101
0.368817
0.350048
0.332659
0.316526
0.301539
0.287598
0.274613
0.262504
0.251197
0.240626
0.230731
0.221457
0.212757
0.204584
0.196899
0.189663
0.182844
0.176411
0.170335
0.164591
0.159156
0.154007
0.149125
0.144492
0.140091
0.135907
0.131926
0.128133
0.124519
0.12107
0.117777
0.114631
0.111622
0.108742
0.105983
0.103339
0.100802
0.098367
0.0960273
0.0937777
0.0916131
0.0895287
0.0875199
0.0855826
0.0837127
0.0819063
0.08016
0.0784703
0.076834
0.075248
0.0737094
0.0722155
0.0707637
0.0693514
0.0679763
0.0666362
0.065329
0.0640528
0.0628058
0.0615864
0.0603931
0.0592247
0.0580802
0.0569587
0.0558596
0.0547827
0.0537278
0.0526952
0.0516854
0.0506992
0.0497379
0.048803
0.0478962
0.04702
0.046177
0.0453705
0.0446042
0.0438828
0.0432117
0.0425976
0.0420488
0.0415756
0.0411909
0.0409114
0.0407581
0.961692
0.892185
0.829085
0.771729
0.719524
0.671945
0.628524
0.588844
0.552532
0.519257
0.488722
0.460664
0.434845
0.411054
0.389101
0.368817
0.350049
0.33266
0.316527
0.30154
0.287599
0.274614
0.262505
0.251198
0.240627
0.230732
0.221459
0.212758
0.204586
0.1969
0.189665
0.182846
0.176413
0.170337
0.164594
0.159158
0.15401
0.149128
0.144495
0.140094
0.13591
0.131929
0.128137
0.124522
0.121074
0.117781
0.114635
0.111626
0.108746
0.105988
0.103344
0.100808
0.0983725
0.0960331
0.0937838
0.0916195
0.0895354
0.0875269
0.0855899
0.0837203
0.0819144
0.0801684
0.0784791
0.0768433
0.0752578
0.0737197
0.0722263
0.070775
0.0693633
0.0679888
0.0666494
0.0653428
0.0640673
0.0628211
0.0616024
0.0604099
0.0592422
0.0580985
0.0569777
0.0558794
0.0548032
0.053749
0.052717
0.0517078
0.0507221
0.0497613
0.0488266
0.0479201
0.0470441
0.0462011
0.0453945
0.0446281
0.0439065
0.0432351
0.0426206
0.0420714
0.0415977
0.0412127
0.0409328
0.0407793
0.961692
0.892185
0.829085
0.771729
0.719524
0.671945
0.628524
0.588844
0.552532
0.519257
0.488723
0.460664
0.434845
0.411054
0.389102
0.368817
0.350049
0.33266
0.316527
0.30154
0.2876
0.274615
0.262506
0.251199
0.240628
0.230733
0.22146
0.21276
0.204587
0.196902
0.189667
0.182848
0.176415
0.17034
0.164596
0.159161
0.154012
0.149131
0.144498
0.140097
0.135914
0.131932
0.12814
0.124526
0.121078
0.117785
0.114639
0.11163
0.108751
0.105993
0.103349
0.100813
0.098378
0.0960389
0.0937898
0.0916258
0.089542
0.0875338
0.0855971
0.0837279
0.0819223
0.0801768
0.0784879
0.0768524
0.0752674
0.0737298
0.072237
0.0707862
0.0693751
0.0680012
0.0666623
0.0653565
0.0640817
0.0628361
0.0616181
0.0604263
0.0592595
0.0581165
0.0569965
0.0558989
0.0548233
0.0537698
0.0527384
0.0517298
0.0507446
0.0497842
0.0488499
0.0479436
0.0470677
0.0462248
0.0454182
0.0446516
0.0439297
0.043258
0.0426432
0.0420936
0.0416195
0.0412341
0.0409538
0.0408002
0.961692
0.892185
0.829085
0.771729
0.719524
0.671945
0.628524
0.588844
0.552532
0.519257
0.488723
0.460664
0.434846
0.411055
0.389102
0.368818
0.35005
0.332661
0.316528
0.301541
0.2876
0.274616
0.262507
0.2512
0.240629
0.230734
0.221461
0.212761
0.204589
0.196904
0.189668
0.18285
0.176417
0.170342
0.164598
0.159163
0.154015
0.149133
0.144501
0.1401
0.135917
0.131935
0.128144
0.124529
0.121081
0.117789
0.114643
0.111635
0.108755
0.105997
0.103354
0.100818
0.0983834
0.0960445
0.0937957
0.0916319
0.0895484
0.0875406
0.0856042
0.0837353
0.0819301
0.0801849
0.0784965
0.0768614
0.0752768
0.0737397
0.0722474
0.0707972
0.0693866
0.0680133
0.0666751
0.0653698
0.0640957
0.0628508
0.0616335
0.0604425
0.0592764
0.0581341
0.0570148
0.0559179
0.0548431
0.0537902
0.0527595
0.0517513
0.0507667
0.0498067
0.0488727
0.0479667
0.0470909
0.0462481
0.0454414
0.0446747
0.0439526
0.0432806
0.0426654
0.0421154
0.0416409
0.0412551
0.0409745
0.0408206
0.961692
0.892185
0.829085
0.771729
0.719524
0.671945
0.628524
0.588844
0.552532
0.519257
0.488723
0.460664
0.434846
0.411055
0.389102
0.368818
0.35005
0.332661
0.316529
0.301542
0.287601
0.274617
0.262508
0.251201
0.24063
0.230736
0.221463
0.212763
0.20459
0.196905
0.18967
0.182852
0.176419
0.170344
0.1646
0.159165
0.154017
0.149136
0.144503
0.140103
0.13592
0.131939
0.128147
0.124533
0.121085
0.117793
0.114647
0.111639
0.10876
0.106002
0.103359
0.100823
0.0983886
0.09605
0.0938014
0.091638
0.0895547
0.0875472
0.0856112
0.0837426
0.0819377
0.0801929
0.0785048
0.0768702
0.0752861
0.0737494
0.0722576
0.0708079
0.0693978
0.0680251
0.0666875
0.0653829
0.0641094
0.0628652
0.0616486
0.0604583
0.0592928
0.0581513
0.0570327
0.0559365
0.0548624
0.0538101
0.05278
0.0517724
0.0507882
0.0498286
0.048895
0.0479892
0.0471136
0.0462708
0.0454641
0.0446973
0.043975
0.0433027
0.0426872
0.0421368
0.0416619
0.0412757
0.0409948
0.0408406
0.961692
0.892185
0.829085
0.771729
0.719524
0.671945
0.628524
0.588844
0.552532
0.519257
0.488723
0.460665
0.434846
0.411055
0.389102
0.368818
0.35005
0.332662
0.316529
0.301542
0.287602
0.274618
0.262509
0.251202
0.240631
0.230737
0.221464
0.212764
0.204592
0.196907
0.189672
0.182853
0.176421
0.170346
0.164602
0.159168
0.154019
0.149138
0.144506
0.140106
0.135922
0.131942
0.12815
0.124536
0.121088
0.117797
0.114651
0.111643
0.108764
0.106006
0.103363
0.100828
0.0983938
0.0960553
0.0938071
0.0916438
0.0895609
0.0875536
0.0856179
0.0837497
0.0819451
0.0802007
0.078513
0.0768788
0.0752951
0.0737589
0.0722675
0.0708183
0.0694088
0.0680366
0.0666996
0.0653956
0.0641227
0.0628792
0.0616633
0.0604736
0.0593089
0.058168
0.0570502
0.0559547
0.0548811
0.0538295
0.0527999
0.0517929
0.0508092
0.04985
0.0489167
0.0480112
0.0471357
0.046293
0.0454862
0.0447193
0.0439968
0.0433242
0.0427084
0.0421576
0.0416823
0.0412957
0.0410145
0.0408602
0.961692
0.892185
0.829085
0.771729
0.719524
0.671945
0.628524
0.588844
0.552532
0.519257
0.488723
0.460665
0.434846
0.411055
0.389103
0.368819
0.350051
0.332662
0.31653
0.301543
0.287602
0.274618
0.262509
0.251203
0.240632
0.230738
0.221465
0.212765
0.204593
0.196908
0.189673
0.182855
0.176423
0.170348
0.164604
0.15917
0.154022
0.149141
0.144509
0.140109
0.135925
0.131945
0.128153
0.124539
0.121092
0.1178
0.114655
0.111647
0.108768
0.106011
0.103368
0.100833
0.0983987
0.0960605
0.0938125
0.0916495
0.0895668
0.0875599
0.0856245
0.0837565
0.0819523
0.0802083
0.0785209
0.0768871
0.0753038
0.0737681
0.0722772
0.0708284
0.0694195
0.0680478
0.0667114
0.065408
0.0641357
0.0628928
0.0616775
0.0604885
0.0593245
0.0581843
0.0570671
0.0559722
0.0548993
0.0538483
0.0528193
0.0518128
0.0508296
0.0498707
0.0489377
0.0480325
0.0471571
0.0463145
0.0455077
0.0447406
0.0440179
0.0433451
0.042729
0.0421778
0.0417022
0.0413152
0.0410337
0.0408792
0.961692
0.892185
0.829085
0.771729
0.719524
0.671945
0.628524
0.588844
0.552532
0.519257
0.488723
0.460665
0.434846
0.411055
0.389103
0.368819
0.350051
0.332662
0.31653
0.301543
0.287603
0.274619
0.26251
0.251204
0.240633
0.230739
0.221466
0.212766
0.204594
0.196909
0.189675
0.182857
0.176424
0.170349
0.164606
0.159172
0.154024
0.149143
0.144511
0.140111
0.135928
0.131947
0.128156
0.124543
0.121095
0.117804
0.114658
0.111651
0.108772
0.106015
0.103372
0.100837
0.0984035
0.0960656
0.0938178
0.091655
0.0895726
0.0875659
0.0856308
0.0837632
0.0819593
0.0802156
0.0785286
0.0768952
0.0753123
0.073777
0.0722865
0.0708382
0.0694298
0.0680587
0.0667227
0.0654199
0.0641482
0.0629059
0.0616913
0.0605029
0.0593395
0.0582
0.0570834
0.0559892
0.054917
0.0538665
0.0528381
0.0518321
0.0508493
0.0498908
0.0489581
0.0480531
0.0471779
0.0463353
0.0455285
0.0447613
0.0440384
0.0433654
0.0427489
0.0421974
0.0417214
0.0413341
0.0410523
0.0408975
0.961692
0.892185
0.829085
0.771729
0.719524
0.671945
0.628524
0.588844
0.552532
0.519257
0.488723
0.460665
0.434846
0.411056
0.389103
0.368819
0.350051
0.332663
0.316531
0.301544
0.287604
0.27462
0.262511
0.251204
0.240634
0.23074
0.221467
0.212767
0.204596
0.196911