/*--------------------------------*- C++ -*----------------------------------*\
  =========                 |
  \\      /  F ield         | OpenFOAM: The Open Source CFD Toolbox
   \\    /   O peration     | Website:  https://openfoam.org
    \\  /    A nd           | Version:  11
     \\/     M anipulation  |
\*---------------------------------------------------------------------------*/
FoamFile
{
    format      ascii;
    class       surfaceScalarField;
    location    "1254";
    object      phi;
}
// * * * * * * * * * * * * * * * * * * * * * * * * * * * * * * * * * * * * * //

dimensions      [0 3 -1 0 0 0 0];

internalField   nonuniform List<scalar> 
19800
(
2e-05
-1.61181e-13
2e-05
-4.7012e-13
2e-05
-7.73686e-13
2e-05
-1.07697e-12
2e-05
-1.38433e-12
2e-05
-1.69883e-12
2e-05
-2.02269e-12
2e-05
-2.35768e-12
2e-05
-2.70527e-12
2e-05
-3.06671e-12
2e-05
-3.44313e-12
2e-05
-3.83557e-12
2e-05
-4.24501e-12
2e-05
-4.67238e-12
2e-05
-5.11859e-12
2e-05
-5.5845e-12
2e-05
-6.07098e-12
2e-05
-6.57889e-12
2e-05
-7.10905e-12
2e-05
-7.66233e-12
2e-05
-8.23954e-12
2e-05
-8.84152e-12
2e-05
-9.46912e-12
2e-05
-1.01232e-11
2e-05
-1.08045e-11
2e-05
-1.1514e-11
2e-05
-1.22524e-11
2e-05
-1.30207e-11
2e-05
-1.38197e-11
2e-05
-1.46502e-11
2e-05
-1.55132e-11
2e-05
-1.64095e-11
2e-05
-1.73399e-11
2e-05
-1.83055e-11
2e-05
-1.9307e-11
2e-05
-2.03455e-11
2e-05
-2.14218e-11
2e-05
-2.25368e-11
2e-05
-2.36915e-11
2e-05
-2.48869e-11
2e-05
-2.61239e-11
2e-05
-2.74036e-11
2e-05
-2.87269e-11
2e-05
-3.00949e-11
2e-05
-3.15086e-11
2e-05
-3.29692e-11
2e-05
-3.44776e-11
2e-05
-3.60352e-11
2e-05
-3.7643e-11
2e-05
-3.93024e-11
2e-05
-4.10144e-11
2e-05
-4.27806e-11
2e-05
-4.46022e-11
2e-05
-4.64806e-11
2e-05
-4.84174e-11
2e-05
-5.0414e-11
1.99999e-05
-5.24722e-11
1.99999e-05
-5.45935e-11
1.99999e-05
-5.67797e-11
1.99999e-05
-5.90328e-11
1.99999e-05
-6.13545e-11
1.99999e-05
-6.3747e-11
1.99999e-05
-6.62122e-11
1.99999e-05
-6.87523e-11
1.99999e-05
-7.13696e-11
1.99999e-05
-7.40664e-11
1.99999e-05
-7.6845e-11
1.99999e-05
-7.97078e-11
1.99999e-05
-8.26572e-11
1.99999e-05
-8.56956e-11
1.99999e-05
-8.88252e-11
1.99999e-05
-9.20484e-11
1.99999e-05
-9.53672e-11
1.99999e-05
-9.87834e-11
1.99999e-05
-1.02298e-10
1.99999e-05
-1.05913e-10
1.99999e-05
-1.09629e-10
1.99998e-05
-1.13444e-10
1.99998e-05
-1.17359e-10
1.99998e-05
-1.21369e-10
1.99998e-05
-1.25472e-10
1.99998e-05
-1.29661e-10
1.99998e-05
-1.33928e-10
1.99998e-05
-1.38262e-10
1.99998e-05
-1.4265e-10
1.99998e-05
-1.47071e-10
1.99998e-05
-1.51504e-10
1.99998e-05
-1.55919e-10
1.99998e-05
-1.60281e-10
1.99998e-05
-1.64548e-10
1.99998e-05
-1.68669e-10
1.99997e-05
-1.72584e-10
1.99997e-05
-1.76226e-10
1.99997e-05
-1.7952e-10
1.99997e-05
-1.82381e-10
1.99997e-05
-1.84698e-10
1.99997e-05
-1.86357e-10
1.99997e-05
-1.8732e-10
1.99997e-05
-1.87721e-10
-1.87929e-10
2e-05
-1.43635e-13
2e-05
-4.34036e-13
2e-05
-7.25454e-13
2e-05
-1.01822e-12
2e-05
-1.31538e-12
2e-05
-1.61949e-12
2e-05
-1.93254e-12
2e-05
-2.25617e-12
2e-05
-2.59173e-12
2e-05
-2.94041e-12
2e-05
-3.30328e-12
2e-05
-3.68133e-12
2e-05
-4.07546e-12
2e-05
-4.48656e-12
2e-05
-4.91547e-12
2e-05
-5.363e-12
2e-05
-5.82997e-12
2e-05
-6.31715e-12
2e-05
-6.82533e-12
2e-05
-7.35529e-12
2e-05
-7.90778e-12
2e-05
-8.48358e-12
2e-05
-9.08345e-12
2e-05
-9.70815e-12
2e-05
-1.03584e-11
2e-05
-1.10351e-11
2e-05
-1.17389e-11
2e-05
-1.24706e-11
2e-05
-1.32309e-11
2e-05
-1.40207e-11
2e-05
-1.48408e-11
2e-05
-1.56918e-11
2e-05
-1.65746e-11
2e-05
-1.749e-11
2e-05
-1.84388e-11
2e-05
-1.94218e-11
2e-05
-2.04398e-11
2e-05
-2.14937e-11
2e-05
-2.25842e-11
2e-05
-2.37123e-11
2e-05
-2.48787e-11
2e-05
-2.60844e-11
2e-05
-2.73303e-11
2e-05
-2.86172e-11
2e-05
-2.99463e-11
2e-05
-3.13183e-11
2e-05
-3.27343e-11
2e-05
-3.41954e-11
2e-05
-3.57026e-11
2e-05
-3.72571e-11
2e-05
-3.886e-11
2e-05
-4.05126e-11
2e-05
-4.22161e-11
2e-05
-4.39718e-11
2e-05
-4.57813e-11
2e-05
-4.7646e-11
1.99999e-05
-4.95674e-11
1.99999e-05
-5.15473e-11
1.99999e-05
-5.35874e-11
1.99999e-05
-5.56895e-11
1.99999e-05
-5.78557e-11
1.99999e-05
-6.0088e-11
1.99999e-05
-6.23885e-11
1.99999e-05
-6.47596e-11
1.99999e-05
-6.72037e-11
1.99999e-05
-6.97233e-11
1.99999e-05
-7.2321e-11
1.99999e-05
-7.49996e-11
1.99999e-05
-7.77618e-11
1.99999e-05
-8.06106e-11
1.99999e-05
-8.35487e-11
1.99999e-05
-8.65791e-11
1.99999e-05
-8.97046e-11
1.99999e-05
-9.29278e-11
1.99999e-05
-9.62513e-11
1.99999e-05
-9.96773e-11
1.99999e-05
-1.03207e-10
1.99998e-05
-1.06843e-10
1.99998e-05
-1.10584e-10
1.99998e-05
-1.14431e-10
1.99998e-05
-1.1838e-10
1.99998e-05
-1.2243e-10
1.99998e-05
-1.26574e-10
1.99998e-05
-1.30804e-10
1.99998e-05
-1.3511e-10
1.99998e-05
-1.39477e-10
1.99998e-05
-1.43886e-10
1.99998e-05
-1.48314e-10
1.99998e-05
-1.52729e-10
1.99998e-05
-1.57097e-10
1.99998e-05
-1.61371e-10
1.99997e-05
-1.655e-10
1.99997e-05
-1.69422e-10
1.99997e-05
-1.73065e-10
1.99997e-05
-1.76345e-10
1.99997e-05
-1.79163e-10
1.99997e-05
-1.8144e-10
1.99997e-05
-1.83149e-10
1.99997e-05
-1.84328e-10
-1.85141e-10
2e-05
-1.30468e-13
2e-05
-4.02002e-13
2e-05
-6.79461e-13
2e-05
-9.60657e-13
2e-05
-1.24706e-12
2e-05
-1.54053e-12
2e-05
-1.84268e-12
2e-05
-2.15492e-12
2e-05
-2.47849e-12
2e-05
-2.81449e-12
2e-05
-3.1639e-12
2e-05
-3.52764e-12
2e-05
-3.90657e-12
2e-05
-4.30151e-12
2e-05
-4.71324e-12
2e-05
-5.14253e-12
2e-05
-5.59011e-12
2e-05
-6.05672e-12
2e-05
-6.54307e-12
2e-05
-7.04987e-12
2e-05
-7.57782e-12
2e-05
-8.12761e-12
2e-05
-8.69995e-12
2e-05
-9.29552e-12
2e-05
-9.91501e-12
2e-05
-1.05591e-11
2e-05
-1.12285e-11
2e-05
-1.19238e-11
2e-05
-1.26458e-11
2e-05
-1.33952e-11
2e-05
-1.41726e-11
2e-05
-1.49787e-11
2e-05
-1.58142e-11
2e-05
-1.66799e-11
2e-05
-1.75764e-11
2e-05
-1.85043e-11
2e-05
-1.94645e-11
2e-05
-2.04577e-11
2e-05
-2.14845e-11
2e-05
-2.25457e-11
2e-05
-2.36421e-11
2e-05
-2.47745e-11
2e-05
-2.59435e-11
2e-05
-2.71501e-11
2e-05
-2.83951e-11
2e-05
-2.96793e-11
2e-05
-3.10037e-11
2e-05
-3.23691e-11
2e-05
-3.37765e-11
2e-05
-3.52271e-11
2e-05
-3.67217e-11
2e-05
-3.82616e-11
2e-05
-3.98481e-11
2e-05
-4.14822e-11
2e-05
-4.31655e-11
2e-05
-4.48993e-11
1.99999e-05
-4.66853e-11
1.99999e-05
-4.85249e-11
1.99999e-05
-5.04201e-11
1.99999e-05
-5.23726e-11
1.99999e-05
-5.43846e-11
1.99999e-05
-5.6458e-11
1.99999e-05
-5.85953e-11
1.99999e-05
-6.07988e-11
1.99999e-05
-6.30712e-11
1.99999e-05
-6.54151e-11
1.99999e-05
-6.78335e-11
1.99999e-05
-7.03294e-11
1.99999e-05
-7.29061e-11
1.99999e-05
-7.55667e-11
1.99999e-05
-7.83149e-11
1.99999e-05
-8.1154e-11
1.99999e-05
-8.40877e-11
1.99999e-05
-8.71194e-11
1.99999e-05
-9.02526e-11
1.99999e-05
-9.34907e-11
1.99999e-05
-9.68367e-11
1.99999e-05
-1.00293e-10
1.99998e-05
-1.03862e-10
1.99998e-05
-1.07545e-10
1.99998e-05
-1.11342e-10
1.99998e-05
-1.15252e-10
1.99998e-05
-1.19272e-10
1.99998e-05
-1.23397e-10
1.99998e-05
-1.27619e-10
1.99998e-05
-1.31929e-10
1.99998e-05
-1.3631e-10
1.99998e-05
-1.40744e-10
1.99998e-05
-1.45205e-10
1.99998e-05
-1.49663e-10
1.99998e-05
-1.54077e-10
1.99997e-05
-1.58402e-10
1.99997e-05
-1.6258e-10
1.99997e-05
-1.66544e-10
1.99997e-05
-1.70215e-10
1.99997e-05
-1.73505e-10
1.99997e-05
-1.76336e-10
1.99997e-05
-1.78641e-10
1.99997e-05
-1.8036e-10
-1.8138e-10
2e-05
-1.19954e-13
2e-05
-3.73729e-13
2e-05
-6.36594e-13
2e-05
-9.05313e-13
2e-05
-1.18029e-12
2e-05
-1.46268e-12
2e-05
-1.75367e-12
2e-05
-2.05442e-12
2e-05
-2.36597e-12
2e-05
-2.68929e-12
2e-05
-3.0253e-12
2e-05
-3.37483e-12
2e-05
-3.73868e-12
2e-05
-4.11759e-12
2e-05
-4.5123e-12
2e-05
-4.9235e-12
2e-05
-5.35188e-12
2e-05
-5.7981e-12
2e-05
-6.26283e-12
2e-05
-6.74669e-12
2e-05
-7.25033e-12
2e-05
-7.77438e-12
2e-05
-8.31946e-12
2e-05
-8.88618e-12
2e-05
-9.47517e-12
2e-05
-1.0087e-11
2e-05
-1.07223e-11
2e-05
-1.13817e-11
2e-05
-1.20658e-11
2e-05
-1.27751e-11
2e-05
-1.35104e-11
2e-05
-1.4272e-11
2e-05
-1.50608e-11
2e-05
-1.58772e-11
2e-05
-1.67219e-11
2e-05
-1.75954e-11
2e-05
-1.84985e-11
2e-05
-1.94316e-11
2e-05
-2.03954e-11
2e-05
-2.13906e-11
2e-05
-2.24177e-11
2e-05
-2.34776e-11
2e-05
-2.45707e-11
2e-05
-2.56979e-11
2e-05
-2.68598e-11
2e-05
-2.80573e-11
2e-05
-2.9291e-11
2e-05
-3.05619e-11
2e-05
-3.18708e-11
2e-05
-3.32186e-11
2e-05
-3.46063e-11
2e-05
-3.6035e-11
2e-05
-3.75058e-11
2e-05
-3.90198e-11
2e-05
-4.05785e-11
2e-05
-4.21831e-11
2e-05
-4.38352e-11
1.99999e-05
-4.55364e-11
1.99999e-05
-4.72885e-11
1.99999e-05
-4.90933e-11
1.99999e-05
-5.0953e-11
1.99999e-05
-5.28696e-11
1.99999e-05
-5.48457e-11
1.99999e-05
-5.68838e-11
1.99999e-05
-5.89865e-11
1.99999e-05
-6.1157e-11
1.99999e-05
-6.33983e-11
1.99999e-05
-6.57139e-11
1.99999e-05
-6.81072e-11
1.99999e-05
-7.05821e-11
1.99999e-05
-7.31426e-11
1.99999e-05
-7.57927e-11
1.99999e-05
-7.85367e-11
1.99999e-05
-8.1379e-11
1.99999e-05
-8.4324e-11
1.99999e-05
-8.73761e-11
1.99999e-05
-9.05396e-11
1.99999e-05
-9.38184e-11
1.99998e-05
-9.72163e-11
1.99998e-05
-1.00736e-10
1.99998e-05
-1.0438e-10
1.99998e-05
-1.0815e-10
1.99998e-05
-1.12045e-10
1.99998e-05
-1.16063e-10
1.99998e-05
-1.202e-10
1.99998e-05
-1.24447e-10
1.99998e-05
-1.28795e-10
1.99998e-05
-1.33228e-10
1.99998e-05
-1.37725e-10
1.99998e-05
-1.42259e-10
1.99998e-05
-1.46797e-10
1.99998e-05
-1.51295e-10
1.99997e-05
-1.55701e-10
1.99997e-05
-1.59951e-10
1.99997e-05
-1.6397e-10
1.99997e-05
-1.6767e-10
1.99997e-05
-1.70959e-10
1.99997e-05
-1.73725e-10
1.99997e-05
-1.75814e-10
-1.76939e-10
2e-05
-1.11116e-13
2e-05
-3.48549e-13
2e-05
-5.96908e-13
2e-05
-8.52698e-13
2e-05
-1.11572e-12
2e-05
-1.3866e-12
2e-05
-1.66614e-12
2e-05
-1.95519e-12
2e-05
-2.25462e-12
2e-05
-2.56527e-12
2e-05
-2.88791e-12
2e-05
-3.22331e-12
2e-05
-3.57218e-12
2e-05
-3.9352e-12
2e-05
-4.31305e-12
2e-05
-4.70636e-12
2e-05
-5.11574e-12
2e-05
-5.54182e-12
2e-05
-5.98516e-12
2e-05
-6.44637e-12
2e-05
-6.926e-12
2e-05
-7.42461e-12
2e-05
-7.94277e-12
2e-05
-8.48101e-12
2e-05
-9.03987e-12
2e-05
-9.61989e-12
2e-05
-1.02216e-11
2e-05
-1.08455e-11
2e-05
-1.14921e-11
2e-05
-1.2162e-11
2e-05
-1.28556e-11
2e-05
-1.35734e-11
2e-05
-1.4316e-11
2e-05
-1.50839e-11
2e-05
-1.58775e-11
2e-05
-1.66974e-11
2e-05
-1.75441e-11
2e-05
-1.8418e-11
2e-05
-1.93198e-11
2e-05
-2.02499e-11
2e-05
-2.12088e-11
2e-05
-2.21972e-11
2e-05
-2.32156e-11
2e-05
-2.42645e-11
2e-05
-2.53447e-11
2e-05
-2.64567e-11
2e-05
-2.76012e-11
2e-05
-2.8779e-11
2e-05
-2.99909e-11
2e-05
-3.12376e-11
2e-05
-3.252e-11
2e-05
-3.38392e-11
2e-05
-3.51962e-11
2e-05
-3.65921e-11
2e-05
-3.80281e-11
2e-05
-3.95056e-11
2e-05
-4.10261e-11
1.99999e-05
-4.25911e-11
1.99999e-05
-4.42024e-11
1.99999e-05
-4.5862e-11
1.99999e-05
-4.75719e-11
1.99999e-05
-4.93343e-11
1.99999e-05
-5.11519e-11
1.99999e-05
-5.30272e-11
1.99999e-05
-5.49632e-11
1.99999e-05
-5.6963e-11
1.99999e-05
-5.90302e-11
1.99999e-05
-6.11682e-11
1.99999e-05
-6.33812e-11
1.99999e-05
-6.56733e-11
1.99999e-05
-6.8049e-11
1.99999e-05
-7.05129e-11
1.99999e-05
-7.30702e-11
1.99999e-05
-7.57258e-11
1.99999e-05
-7.84852e-11
1.99999e-05
-8.13537e-11
1.99999e-05
-8.43369e-11
1.99999e-05
-8.744e-11
1.99998e-05
-9.06682e-11
1.99998e-05
-9.40263e-11
1.99998e-05
-9.75185e-11
1.99998e-05
-1.01148e-10
1.99998e-05
-1.04917e-10
1.99998e-05
-1.08826e-10
1.99998e-05
-1.12873e-10
1.99998e-05
-1.17054e-10
1.99998e-05
-1.21362e-10
1.99998e-05
-1.25784e-10
1.99998e-05
-1.30305e-10
1.99998e-05
-1.34901e-10
1.99998e-05
-1.39541e-10
1.99998e-05
-1.44187e-10
1.99997e-05
-1.48789e-10
1.99997e-05
-1.53285e-10
1.99997e-05
-1.57598e-10
1.99997e-05
-1.61636e-10
1.99997e-05
-1.65287e-10
1.99997e-05
-1.684e-10
1.99997e-05
-1.70763e-10
-1.72071e-10
2e-05
-1.03434e-13
2e-05
-3.25843e-13
2e-05
-5.60146e-13
2e-05
-8.02933e-13
2e-05
-1.05372e-12
2e-05
-1.31278e-12
2e-05
-1.58058e-12
2e-05
-1.85776e-12
2e-05
-2.14496e-12
2e-05
-2.44288e-12
2e-05
-2.75217e-12
2e-05
-3.07351e-12
2e-05
-3.40751e-12
2e-05
-3.7548e-12
2e-05
-4.11597e-12
2e-05
-4.49159e-12
2e-05
-4.88221e-12
2e-05
-5.28839e-12
2e-05
-5.71066e-12
2e-05
-6.14951e-12
2e-05
-6.60547e-12
2e-05
-7.07902e-12
2e-05
-7.57066e-12
2e-05
-8.08084e-12
2e-05
-8.61004e-12
2e-05
-9.15872e-12
2e-05
-9.72733e-12
2e-05
-1.03163e-11
2e-05
-1.09261e-11
2e-05
-1.15571e-11
2e-05
-1.22098e-11
2e-05
-1.28845e-11
2e-05
-1.35817e-11
2e-05
-1.43019e-11
2e-05
-1.50453e-11
2e-05
-1.58125e-11
2e-05
-1.66038e-11
2e-05
-1.74196e-11
2e-05
-1.82603e-11
2e-05
-1.91265e-11
2e-05
-2.00184e-11
2e-05
-2.09367e-11
2e-05
-2.18816e-11
2e-05
-2.28537e-11
2e-05
-2.38536e-11
2e-05
-2.48818e-11
2e-05
-2.59388e-11
2e-05
-2.70253e-11
2e-05
-2.81419e-11
2e-05
-2.92895e-11
2e-05
-3.04687e-11
2e-05
-3.16806e-11
2e-05
-3.2926e-11
2e-05
-3.4206e-11
2e-05
-3.55218e-11
2e-05
-3.68747e-11
2e-05
-3.82661e-11
1.99999e-05
-3.96976e-11
1.99999e-05
-4.11711e-11
1.99999e-05
-4.26882e-11
1.99999e-05
-4.42514e-11
1.99999e-05
-4.58627e-11
1.99999e-05
-4.75249e-11
1.99999e-05
-4.92408e-11
1.99999e-05
-5.10133e-11
1.99999e-05
-5.2846e-11
1.99999e-05
-5.47424e-11
1.99999e-05
-5.67066e-11
1.99999e-05
-5.87427e-11
1.99999e-05
-6.08555e-11
1.99999e-05
-6.305e-11
1.99999e-05
-6.53313e-11
1.99999e-05
-6.77051e-11
1.99999e-05
-7.01774e-11
1.99999e-05
-7.27542e-11
1.99999e-05
-7.54421e-11
1.99999e-05
-7.82476e-11
1.99999e-05
-8.11772e-11
1.99999e-05
-8.42377e-11
1.99998e-05
-8.74352e-11
1.99998e-05
-9.07759e-11
1.99998e-05
-9.42648e-11
1.99998e-05
-9.79064e-11
1.99998e-05
-1.01704e-10
1.99998e-05
-1.05657e-10
1.99998e-05
-1.09766e-10
1.99998e-05
-1.14026e-10
1.99998e-05
-1.18428e-10
1.99998e-05
-1.22959e-10
1.99998e-05
-1.27599e-10
1.99998e-05
-1.3232e-10
1.99998e-05
-1.37087e-10
1.99998e-05
-1.4185e-10
1.99997e-05
-1.46548e-10
1.99997e-05
-1.51101e-10
1.99997e-05
-1.55408e-10
1.99997e-05
-1.59338e-10
1.99997e-05
-1.62715e-10
1.99997e-05
-1.65297e-10
-1.66807e-10
2e-05
-9.65789e-14
2e-05
-3.05131e-13
2e-05
-5.25979e-13
2e-05
-7.5594e-13
2e-05
-9.94428e-13
2e-05
-1.24149e-12
2e-05
-1.4974e-12
2e-05
-1.76255e-12
2e-05
-2.03743e-12
2e-05
-2.32258e-12
2e-05
-2.61854e-12
2e-05
-2.92588e-12
2e-05
-3.24513e-12
2e-05
-3.57683e-12
2e-05
-3.92151e-12
2e-05
-4.27967e-12
2e-05
-4.6518e-12
2e-05
-5.03838e-12
2e-05
-5.43988e-12
2e-05
-5.85674e-12
2e-05
-6.28941e-12
2e-05
-6.73832e-12
2e-05
-7.20388e-12
2e-05
-7.68649e-12
2e-05
-8.18656e-12
2e-05
-8.70446e-12
2e-05
-9.24058e-12
2e-05
-9.79527e-12
2e-05
-1.03689e-11
2e-05
-1.09618e-11
2e-05
-1.15743e-11
2e-05
-1.22068e-11
2e-05
-1.28595e-11
2e-05
-1.35329e-11
2e-05
-1.42271e-11
2e-05
-1.49426e-11
2e-05
-1.56796e-11
2e-05
-1.64385e-11
2e-05
-1.72195e-11
2e-05
-1.80231e-11
2e-05
-1.88494e-11
2e-05
-1.9699e-11
2e-05
-2.05721e-11
2e-05
-2.14691e-11
2e-05
-2.23904e-11
2e-05
-2.33366e-11
2e-05
-2.4308e-11
2e-05
-2.53052e-11
2e-05
-2.63288e-11
2e-05
-2.73794e-11
2e-05
-2.84578e-11
2e-05
-2.95647e-11
2e-05
-3.0701e-11
2e-05
-3.18679e-11
2e-05
-3.30662e-11
2e-05
-3.42974e-11
2e-05
-3.55629e-11
1.99999e-05
-3.68641e-11
1.99999e-05
-3.82028e-11
1.99999e-05
-3.9581e-11
1.99999e-05
-4.10008e-11
1.99999e-05
-4.24646e-11
1.99999e-05
-4.39752e-11
1.99999e-05
-4.55353e-11
1.99999e-05
-4.71483e-11
1.99999e-05
-4.88177e-11
1.99999e-05
-5.05474e-11
1.99999e-05
-5.23416e-11
1.99999e-05
-5.4205e-11
1.99999e-05
-5.61427e-11
1.99999e-05
-5.81599e-11
1.99999e-05
-6.02626e-11
1.99999e-05
-6.24569e-11
1.99999e-05
-6.47496e-11
1.99999e-05
-6.71475e-11
1.99999e-05
-6.96581e-11
1.99999e-05
-7.22888e-11
1.99999e-05
-7.50477e-11
1.99999e-05
-7.79424e-11
1.99998e-05
-8.09809e-11
1.99998e-05
-8.41708e-11
1.99998e-05
-8.75191e-11
1.99998e-05
-9.10321e-11
1.99998e-05
-9.4715e-11
1.99998e-05
-9.85712e-11
1.99998e-05
-1.02602e-10
1.99998e-05
-1.06805e-10
1.99998e-05
-1.11176e-10
1.99998e-05
-1.15702e-10
1.99998e-05
-1.20367e-10
1.99998e-05
-1.25147e-10
1.99998e-05
-1.30005e-10
1.99998e-05
-1.34894e-10
1.99997e-05
-1.39751e-10
1.99997e-05
-1.44492e-10
1.99997e-05
-1.49007e-10
1.99997e-05
-1.53152e-10
1.99997e-05
-1.56732e-10
1.99997e-05
-1.59491e-10
-1.6114e-10
2e-05
-9.03453e-14
2e-05
-2.86046e-13
2e-05
-4.9409e-13
2e-05
-7.11552e-13
2e-05
-9.37844e-13
2e-05
-1.1729e-12
2e-05
-1.41683e-12
2e-05
-1.66988e-12
2e-05
-1.93239e-12
2e-05
-2.20477e-12
2e-05
-2.48743e-12
2e-05
-2.78085e-12
2e-05
-3.08547e-12
2e-05
-3.40175e-12
2e-05
-3.73015e-12
2e-05
-4.07108e-12
2e-05
-4.425e-12
2e-05
-4.79229e-12
2e-05
-5.17338e-12
2e-05
-5.56864e-12
2e-05
-5.97845e-12
2e-05
-6.40318e-12
2e-05
-6.84316e-12
2e-05
-7.29875e-12
2e-05
-7.77026e-12
2e-05
-8.25802e-12
2e-05
-8.76231e-12
2e-05
-9.28343e-12
2e-05
-9.82166e-12
2e-05
-1.03773e-11
2e-05
-1.09505e-11
2e-05
-1.15416e-11
2e-05
-1.21509e-11
2e-05
-1.27785e-11
2e-05
-1.34246e-11
2e-05
-1.40896e-11
2e-05
-1.47737e-11
2e-05
-1.54769e-11
2e-05
-1.61997e-11
2e-05
-1.69421e-11
2e-05
-1.77044e-11
2e-05
-1.8487e-11
2e-05
-1.929e-11
2e-05
-2.01137e-11
2e-05
-2.09585e-11
2e-05
-2.18247e-11
2e-05
-2.27127e-11
2e-05
-2.36228e-11
2e-05
-2.45558e-11
2e-05
-2.5512e-11
2e-05
-2.64921e-11
2e-05
-2.74968e-11
2e-05
-2.8527e-11
2e-05
-2.95836e-11
2e-05
-3.06677e-11
2e-05
-3.17805e-11
2e-05
-3.29232e-11
2e-05
-3.40976e-11
1.99999e-05
-3.53053e-11
1.99999e-05
-3.65482e-11
1.99999e-05
-3.78286e-11
1.99999e-05
-3.91489e-11
1.99999e-05
-4.05119e-11
1.99999e-05
-4.19206e-11
1.99999e-05
-4.33783e-11
1.99999e-05
-4.48888e-11
1.99999e-05
-4.64563e-11
1.99999e-05
-4.80851e-11
1.99999e-05
-4.97803e-11
1.99999e-05
-5.15473e-11
1.99999e-05
-5.33919e-11
1.99999e-05
-5.53203e-11
1.99999e-05
-5.73395e-11
1.99999e-05
-5.94568e-11
1.99999e-05
-6.16798e-11
1.99999e-05
-6.40167e-11
1.99999e-05
-6.64762e-11
1.99999e-05
-6.90671e-11
1.99999e-05
-7.17985e-11
1.99999e-05
-7.46796e-11
1.99998e-05
-7.77195e-11
1.99998e-05
-8.0927e-11
1.99998e-05
-8.43102e-11
1.99998e-05
-8.78761e-11
1.99998e-05
-9.16303e-11
1.99998e-05
-9.55762e-11
1.99998e-05
-9.97142e-11
1.99998e-05
-1.04041e-10
1.99998e-05
-1.08548e-10
1.99998e-05
-1.1322e-10
1.99998e-05
-1.18034e-10
1.99998e-05
-1.22955e-10
1.99998e-05
-1.27936e-10
1.99998e-05
-1.32911e-10
1.99997e-05
-1.37793e-10
1.99997e-05
-1.42464e-10
1.99997e-05
-1.46771e-10
1.99997e-05
-1.50504e-10
1.99997e-05
-1.53396e-10
-1.55134e-10
2e-05
-8.46018e-14
2e-05
-2.68315e-13
2e-05
-4.64199e-13
2e-05
-6.69575e-13
2e-05
-8.83896e-13
2e-05
-1.10705e-12
2e-05
-1.33904e-12
2e-05
-1.58e-12
2e-05
-1.83015e-12
2e-05
-2.08977e-12
2e-05
-2.35921e-12
2e-05
-2.63881e-12
2e-05
-2.92894e-12
2e-05
-3.22999e-12
2e-05
-3.54232e-12
2e-05
-3.8663e-12
2e-05
-4.20229e-12
2e-05
-4.55065e-12
2e-05
-4.9117e-12
2e-05
-5.28578e-12
2e-05
-5.67319e-12
2e-05
-6.07423e-12
2e-05
-6.4892e-12
2e-05
-6.91834e-12
2e-05
-7.36194e-12
2e-05
-7.82022e-12
2e-05
-8.29343e-12
2e-05
-8.78176e-12
2e-05
-9.28544e-12
2e-05
-9.80465e-12
2e-05
-1.03396e-11
2e-05
-1.08904e-11
2e-05
-1.14572e-11
2e-05
-1.20402e-11
2e-05
-1.26396e-11
2e-05
-1.32554e-11
2e-05
-1.38878e-11
2e-05
-1.45369e-11
2e-05
-1.52029e-11
2e-05
-1.58858e-11
2e-05
-1.65859e-11
2e-05
-1.73033e-11
2e-05
-1.80381e-11
2e-05
-1.87906e-11
2e-05
-1.9561e-11
2e-05
-2.03495e-11
2e-05
-2.11564e-11
2e-05
-2.19821e-11
2e-05
-2.28269e-11
2e-05
-2.36914e-11
2e-05
-2.45762e-11
2e-05
-2.54818e-11
2e-05
-2.6409e-11
2e-05
-2.73587e-11
2e-05
-2.83319e-11
2e-05
-2.93297e-11
2e-05
-3.03536e-11
2e-05
-3.14049e-11
1.99999e-05
-3.24855e-11
1.99999e-05
-3.35973e-11
1.99999e-05
-3.47426e-11
1.99999e-05
-3.59238e-11
1.99999e-05
-3.71437e-11
1.99999e-05
-3.84055e-11
1.99999e-05
-3.97127e-11
1.99999e-05
-4.10691e-11
1.99999e-05
-4.24792e-11
1.99999e-05
-4.39476e-11
1.99999e-05
-4.54795e-11
1.99999e-05
-4.70808e-11
1.99999e-05
-4.87576e-11
1.99999e-05
-5.05167e-11
1.99999e-05
-5.23655e-11
1.99999e-05
-5.43119e-11
1.99999e-05
-5.63643e-11
1.99999e-05
-5.85317e-11
1.99999e-05
-6.08235e-11
1.99999e-05
-6.32497e-11
1.99999e-05
-6.58203e-11
1.99999e-05
-6.85459e-11
1.99998e-05
-7.14369e-11
1.99998e-05
-7.45035e-11
1.99998e-05
-7.77555e-11
1.99998e-05
-8.12016e-11
1.99998e-05
-8.48493e-11
1.99998e-05
-8.87038e-11
1.99998e-05
-9.27675e-11
1.99998e-05
-9.7039e-11
1.99998e-05
-1.01512e-10
1.99998e-05
-1.06172e-10
1.99998e-05
-1.10997e-10
1.99998e-05
-1.15954e-10
1.99998e-05
-1.20994e-10
1.99998e-05
-1.26051e-10
1.99998e-05
-1.31031e-10
1.99997e-05
-1.35814e-10
1.99997e-05
-1.40236e-10
1.99997e-05
-1.4408e-10
1.99997e-05
-1.47068e-10
-1.48865e-10
2e-05
-7.92606e-14
2e-05
-2.51735e-13
2e-05
-4.36076e-13
2e-05
-6.29818e-13
2e-05
-8.32474e-13
2e-05
-1.04391e-12
2e-05
-1.26408e-12
2e-05
-1.49303e-12
2e-05
-1.7309e-12
2e-05
-1.97787e-12
2e-05
-2.23417e-12
2e-05
-2.50009e-12
2e-05
-2.7759e-12
2e-05
-3.06192e-12
2e-05
-3.35843e-12
2e-05
-3.66574e-12
2e-05
-3.98414e-12
2e-05
-4.31392e-12
2e-05
-4.65535e-12
2e-05
-5.0087e-12
2e-05
-5.3742e-12
2e-05
-5.7521e-12
2e-05
-6.14262e-12
2e-05
-6.54597e-12
2e-05
-6.96233e-12
2e-05
-7.39188e-12
2e-05
-7.83478e-12
2e-05
-8.29118e-12
2e-05
-8.76122e-12
2e-05
-9.245e-12
2e-05
-9.74263e-12
2e-05
-1.02542e-11
2e-05
-1.07798e-11
2e-05
-1.13195e-11
2e-05
-1.18733e-11
2e-05
-1.24413e-11
2e-05
-1.30236e-11
2e-05
-1.36202e-11
2e-05
-1.42311e-11
2e-05
-1.48563e-11
2e-05
-1.5496e-11
2e-05
-1.61502e-11
2e-05
-1.6819e-11
2e-05
-1.75025e-11
2e-05
-1.82007e-11
2e-05
-1.8914e-11
2e-05
-1.96424e-11
2e-05
-2.03862e-11
2e-05
-2.11459e-11
2e-05
-2.19217e-11
2e-05
-2.27142e-11
2e-05
-2.35239e-11
2e-05
-2.43515e-11
2e-05
-2.51978e-11
2e-05
-2.60638e-11
2e-05
-2.69506e-11
2e-05
-2.78595e-11
2e-05
-2.8792e-11
2e-05
-2.97498e-11
1.99999e-05
-3.0735e-11
1.99999e-05
-3.17496e-11
1.99999e-05
-3.27964e-11
1.99999e-05
-3.38781e-11
1.99999e-05
-3.4998e-11
1.99999e-05
-3.61597e-11
1.99999e-05
-3.73672e-11
1.99999e-05
-3.86251e-11
1.99999e-05
-3.99383e-11
1.99999e-05
-4.13124e-11
1.99999e-05
-4.27533e-11
1.99999e-05
-4.42676e-11
1.99999e-05
-4.58626e-11
1.99999e-05
-4.75462e-11
1.99999e-05
-4.93266e-11
1.99999e-05
-5.12131e-11
1.99999e-05
-5.32152e-11
1.99999e-05
-5.53433e-11
1.99999e-05
-5.76082e-11
1.99999e-05
-6.00209e-11
1.99999e-05
-6.2593e-11
1.99999e-05
-6.53363e-11
1.99998e-05
-6.82621e-11
1.99998e-05
-7.13817e-11
1.99998e-05
-7.47053e-11
1.99998e-05
-7.8242e-11
1.99998e-05
-8.19986e-11
1.99998e-05
-8.59792e-11
1.99998e-05
-9.01839e-11
1.99998e-05
-9.46075e-11
1.99998e-05
-9.92378e-11
1.99998e-05
-1.04053e-10
1.99998e-05
-1.0902e-10
1.99998e-05
-1.14089e-10
1.99998e-05
-1.19193e-10
1.99998e-05
-1.24235e-10
1.99998e-05
-1.2909e-10
1.99997e-05
-1.33588e-10
1.99997e-05
-1.37507e-10
1.99997e-05
-1.4056e-10
-1.42396e-10
2e-05
-7.42606e-14
2e-05
-2.36159e-13
2e-05
-4.09536e-13
2e-05
-5.9211e-13
2e-05
-7.83453e-13
2e-05
-9.83437e-13
2e-05
-1.19199e-12
2e-05
-1.40909e-12
2e-05
-1.6348e-12
2e-05
-1.86925e-12
2e-05
-2.11258e-12
2e-05
-2.36498e-12
2e-05
-2.62668e-12
2e-05
-2.89789e-12
2e-05
-3.17886e-12
2e-05
-3.46981e-12
2e-05
-3.77097e-12
2e-05
-4.08256e-12
2e-05
-4.4048e-12
2e-05
-4.73789e-12
2e-05
-5.08202e-12
2e-05
-5.43735e-12
2e-05
-5.80405e-12
2e-05
-6.18227e-12
2e-05
-6.57212e-12
2e-05
-6.97372e-12
2e-05
-7.38716e-12
2e-05
-7.81253e-12
2e-05
-8.24988e-12
2e-05
-8.69927e-12
2e-05
-9.16071e-12
2e-05
-9.63424e-12
2e-05
-1.01198e-11
2e-05
-1.06175e-11
2e-05
-1.11273e-11
2e-05
-1.1649e-11
2e-05
-1.21828e-11
2e-05
-1.27284e-11
2e-05
-1.3286e-11
2e-05
-1.38555e-11
2e-05
-1.44368e-11
2e-05
-1.503e-11
2e-05
-1.56349e-11
2e-05
-1.62517e-11
2e-05
-1.68803e-11
2e-05
-1.75209e-11
2e-05
-1.81736e-11
2e-05
-1.88385e-11
2e-05
-1.9516e-11
2e-05
-2.02062e-11
2e-05
-2.09097e-11
2e-05
-2.1627e-11
2e-05
-2.23586e-11
2e-05
-2.31053e-11
2e-05
-2.38681e-11
2e-05
-2.46479e-11
2e-05
-2.54461e-11
2e-05
-2.62642e-11
2e-05
-2.71038e-11
1.99999e-05
-2.7967e-11
1.99999e-05
-2.88559e-11
1.99999e-05
-2.97733e-11
1.99999e-05
-3.07219e-11
1.99999e-05
-3.17052e-11
1.99999e-05
-3.27268e-11
1.99999e-05
-3.37909e-11
1.99999e-05
-3.49022e-11
1.99999e-05
-3.60659e-11
1.99999e-05
-3.72876e-11
1.99999e-05
-3.85738e-11
1.99999e-05
-3.99313e-11
1.99999e-05
-4.13677e-11
1.99999e-05
-4.28913e-11
1.99999e-05
-4.45111e-11
1.99999e-05
-4.62366e-11
1.99999e-05
-4.80781e-11
1.99999e-05
-5.00467e-11
1.99999e-05
-5.21539e-11
1.99999e-05
-5.44117e-11
1.99999e-05
-5.68327e-11
1.99999e-05
-5.94296e-11
1.99999e-05
-6.22149e-11
1.99998e-05
-6.52011e-11
1.99998e-05
-6.83997e-11
1.99998e-05
-7.18212e-11
1.99998e-05
-7.54737e-11
1.99998e-05
-7.93626e-11
1.99998e-05
-8.34896e-11
1.99998e-05
-8.78503e-11
1.99998e-05
-9.24336e-11
1.99998e-05
-9.72183e-11
1.99998e-05
-1.02171e-10
1.99998e-05
-1.07243e-10
1.99998e-05
-1.12363e-10
1.99998e-05
-1.17434e-10
1.99998e-05
-1.22327e-10
1.99998e-05
-1.26869e-10
1.99997e-05
-1.30832e-10
1.99997e-05
-1.33924e-10
-1.35782e-10
2e-05
-6.95582e-14
2e-05
-2.21472e-13
2e-05
-3.84428e-13
2e-05
-5.563e-13
2e-05
-7.36715e-13
2e-05
-9.25558e-13
2e-05
-1.12274e-12
2e-05
-1.3282e-12
2e-05
-1.54196e-12
2e-05
-1.76407e-12
2e-05
-1.99461e-12
2e-05
-2.23372e-12
2e-05
-2.48153e-12
2e-05
-2.73821e-12
2e-05
-3.00393e-12
2e-05
-3.27885e-12
2e-05
-3.56314e-12
2e-05
-3.85697e-12
2e-05
-4.16049e-12
2e-05
-4.47383e-12
2e-05
-4.79713e-12
2e-05
-5.1305e-12
2e-05
-5.47404e-12
2e-05
-5.82783e-12
2e-05
-6.19194e-12
2e-05
-6.56642e-12
2e-05
-6.95129e-12
2e-05
-7.34657e-12
2e-05
-7.75226e-12
2e-05
-8.16834e-12
2e-05
-8.59476e-12
2e-05
-9.03147e-12
2e-05
-9.47841e-12
2e-05
-9.9355e-12
2e-05
-1.04026e-11
2e-05
-1.08797e-11
2e-05
-1.13666e-11
2e-05
-1.18632e-11
2e-05
-1.23694e-11
2e-05
-1.28851e-11
2e-05
-1.34101e-11
2e-05
-1.39444e-11
2e-05
-1.44878e-11
2e-05
-1.50404e-11
2e-05
-1.5602e-11
2e-05
-1.61727e-11
2e-05
-1.67526e-11
2e-05
-1.73416e-11
2e-05
-1.794e-11
2e-05
-1.85481e-11
2e-05
-1.91661e-11
2e-05
-1.97946e-11
2e-05
-2.0434e-11
2e-05
-2.10851e-11
2e-05
-2.17488e-11
2e-05
-2.2426e-11
2e-05
-2.3118e-11
2e-05
-2.38263e-11
2e-05
-2.45525e-11
2e-05
-2.52986e-11
1.99999e-05
-2.6067e-11
1.99999e-05
-2.68602e-11
1.99999e-05
-2.76812e-11
1.99999e-05
-2.85334e-11
1.99999e-05
-2.94205e-11
1.99999e-05
-3.0347e-11
1.99999e-05
-3.13176e-11
1.99999e-05
-3.23376e-11
1.99999e-05
-3.3413e-11
1.99999e-05
-3.45503e-11
1.99999e-05
-3.57569e-11
1.99999e-05
-3.70405e-11
1.99999e-05
-3.84099e-11
1.99999e-05
-3.98744e-11
1.99999e-05
-4.14441e-11
1.99999e-05
-4.31299e-11
1.99999e-05
-4.49435e-11
1.99999e-05
-4.68969e-11
1.99999e-05
-4.90032e-11
1.99999e-05
-5.12755e-11
1.99999e-05
-5.37275e-11
1.99999e-05
-5.63729e-11
1.99999e-05
-5.92249e-11
1.99998e-05
-6.22964e-11
1.99998e-05
-6.55987e-11
1.99998e-05
-6.91413e-11
1.99998e-05
-7.29308e-11
1.99998e-05
-7.69695e-11
1.99998e-05
-8.12544e-11
1.99998e-05
-8.57749e-11
1.99998e-05
-9.05104e-11
1.99998e-05
-9.54276e-11
1.99998e-05
-1.00476e-10
1.99998e-05
-1.05586e-10
1.99998e-05
-1.10658e-10
1.99998e-05
-1.15559e-10
1.99998e-05
-1.20116e-10
1.99998e-05
-1.24097e-10
1.99997e-05
-1.27207e-10
-1.29075e-10
2e-05
-6.51216e-14
2e-05
-2.07587e-13
2e-05
-3.60632e-13
2e-05
-5.22259e-13
2e-05
-6.92146e-13
2e-05
-8.70192e-13
2e-05
-1.0563e-12
2e-05
-1.25039e-12
2e-05
-1.45244e-12
2e-05
-1.66244e-12
2e-05
-1.88043e-12
2e-05
-2.10649e-12
2e-05
-2.34069e-12
2e-05
-2.58313e-12
2e-05
-2.83393e-12
2e-05
-3.09318e-12
2e-05
-3.36101e-12
2e-05
-3.63752e-12
2e-05
-3.92279e-12
2e-05
-4.21692e-12
2e-05
-4.51998e-12
2e-05
-4.83202e-12
2e-05
-5.15308e-12
2e-05
-5.4832e-12
2e-05
-5.82237e-12
2e-05
-6.17058e-12
2e-05
-6.52781e-12
2e-05
-6.894e-12
2e-05
-7.2691e-12
2e-05
-7.653e-12
2e-05
-8.04562e-12
2e-05
-8.44682e-12
2e-05
-8.85647e-12
2e-05
-9.27443e-12
2e-05
-9.70051e-12
2e-05
-1.01346e-11
2e-05
-1.05764e-11
2e-05
-1.10258e-11
2e-05
-1.14825e-11
2e-05
-1.19465e-11
2e-05
-1.24175e-11
2e-05
-1.28952e-11
2e-05
-1.33797e-11
2e-05
-1.38706e-11
2e-05
-1.4368e-11
2e-05
-1.48717e-11
2e-05
-1.53816e-11
2e-05
-1.5898e-11
2e-05
-1.64207e-11
2e-05
-1.695e-11
2e-05
-1.74863e-11
2e-05
-1.80298e-11
2e-05
-1.8581e-11
2e-05
-1.91406e-11
2e-05
-1.97095e-11
2e-05
-2.02886e-11
2e-05
-2.0879e-11
2e-05
-2.14824e-11
2e-05
-2.21002e-11
2e-05
-2.27345e-11
1.99999e-05
-2.33876e-11
1.99999e-05
-2.40622e-11
1.99999e-05
-2.47612e-11
1.99999e-05
-2.5488e-11
1.99999e-05
-2.62466e-11
1.99999e-05
-2.70414e-11
1.99999e-05
-2.78773e-11
1.99999e-05
-2.87598e-11
1.99999e-05
-2.9695e-11
1.99999e-05
-3.06897e-11
1.99999e-05
-3.17514e-11
1.99999e-05
-3.28883e-11
1.99999e-05
-3.41094e-11
1.99999e-05
-3.54243e-11
1.99999e-05
-3.68438e-11
1.99999e-05
-3.8379e-11
1.99999e-05
-4.00421e-11
1.99999e-05
-4.18461e-11
1.99999e-05
-4.38042e-11
1.99999e-05
-4.59307e-11
1.99999e-05
-4.82397e-11
1.99999e-05
-5.07459e-11
1.99999e-05
-5.34634e-11
1.99999e-05
-5.64059e-11
1.99998e-05
-5.95856e-11
1.99998e-05
-6.30131e-11
1.99998e-05
-6.66958e-11
1.99998e-05
-7.06369e-11
1.99998e-05
-7.4834e-11
1.99998e-05
-7.92773e-11
1.99998e-05
-8.39464e-11
1.99998e-05
-8.88083e-11
1.99998e-05
-9.38127e-11
1.99998e-05
-9.88878e-11
1.99998e-05
-1.03934e-10
1.99998e-05
-1.08819e-10
1.99998e-05
-1.13365e-10
1.99998e-05
-1.17342e-10
1.99998e-05
-1.20453e-10
-1.2232e-10
2e-05
-6.09264e-14
2e-05
-1.94436e-13
2e-05
-3.38049e-13
2e-05
-4.89879e-13
2e-05
-6.49644e-13
2e-05
-8.17257e-13
2e-05
-9.92618e-13
2e-05
-1.17564e-12
2e-05
-1.36625e-12
2e-05
-1.56443e-12
2e-05
-1.77015e-12
2e-05
-1.98344e-12
2e-05
-2.20433e-12
2e-05
-2.43286e-12
2e-05
-2.66909e-12
2e-05
-2.91308e-12
2e-05
-3.16487e-12
2e-05
-3.42452e-12
2e-05
-3.69207e-12
2e-05
-3.96754e-12
2e-05
-4.25096e-12
2e-05
-4.54233e-12
2e-05
-4.84164e-12
2e-05
-5.14885e-12
2e-05
-5.46391e-12
2e-05
-5.78676e-12
2e-05
-6.1173e-12
2e-05
-6.45544e-12
2e-05
-6.80105e-12
2e-05
-7.15396e-12
2e-05
-7.51403e-12
2e-05
-7.88107e-12
2e-05
-8.25488e-12
2e-05
-8.63523e-12
2e-05
-9.02189e-12
2e-05
-9.41463e-12
2e-05
-9.81319e-12
2e-05
-1.02173e-11
2e-05
-1.06267e-11
2e-05
-1.10411e-11
2e-05
-1.14603e-11
2e-05
-1.1884e-11
2e-05
-1.2312e-11
2e-05
-1.2744e-11
2e-05
-1.31799e-11
2e-05
-1.36196e-11
2e-05
-1.40628e-11
2e-05
-1.45097e-11
2e-05
-1.49602e-11
2e-05
-1.54145e-11
2e-05
-1.58727e-11
2e-05
-1.63351e-11
2e-05
-1.68023e-11
2e-05
-1.72748e-11
2e-05
-1.77533e-11
2e-05
-1.82389e-11
2e-05
-1.87327e-11
2e-05
-1.92361e-11
2e-05
-1.97507e-11
2e-05
-2.02786e-11
2e-05
-2.0822e-11
1.99999e-05
-2.13835e-11
1.99999e-05
-2.19663e-11
1.99999e-05
-2.25738e-11
1.99999e-05
-2.321e-11
1.99999e-05
-2.38793e-11
1.99999e-05
-2.45868e-11
1.99999e-05
-2.53381e-11
1.99999e-05
-2.61395e-11
1.99999e-05
-2.6998e-11
1.99999e-05
-2.79212e-11
1.99999e-05
-2.89176e-11
1.99999e-05
-2.99964e-11
1.99999e-05
-3.11678e-11
1.99999e-05
-3.24425e-11
1.99999e-05
-3.38325e-11
1.99999e-05
-3.53502e-11
1.99999e-05
-3.70089e-11
1.99999e-05
-3.88228e-11
1.99999e-05
-4.08064e-11
1.99999e-05