/*--------------------------------*- C++ -*----------------------------------*\
  =========                 |
  \\      /  F ield         | OpenFOAM: The Open Source CFD Toolbox
   \\    /   O peration     | Website:  https://openfoam.org
    \\  /    A nd           | Version:  11
     \\/     M anipulation  |
\*---------------------------------------------------------------------------*/
FoamFile
{
    format      ascii;
    class       volScalarField;
    location    "22";
    object      nut;
}
// * * * * * * * * * * * * * * * * * * * * * * * * * * * * * * * * * * * * * //

dimensions      [0 2 -1 0 0 0 0];

internalField   nonuniform List<scalar> 
10000
(
0.000980997
0.000950988
0.000927616
0.000910812
0.000900313
0.000895626
0.000896046
0.000900697
0.000908604
0.00091877
0.000930257
0.000942239
0.000954046
0.000965181
0.000975309
0.000984245
0.00099192
0.000998361
0.00100366
0.00100794
0.00101133
0.00101395
0.00101596
0.00101746
0.00101855
0.00101933
0.00101987
0.00102021
0.00102042
0.00102053
0.00102056
0.00102054
0.00102049
0.00102041
0.00102031
0.00102021
0.00102011
0.00102
0.0010199
0.0010198
0.00101971
0.00101962
0.00101954
0.00101946
0.00101939
0.00101933
0.00101926
0.00101921
0.00101916
0.00101911
0.00101906
0.00101902
0.00101899
0.00101895
0.00101892
0.00101889
0.00101886
0.00101884
0.00101881
0.00101879
0.00101877
0.00101875
0.00101874
0.00101872
0.00101871
0.00101869
0.00101868
0.00101867
0.00101866
0.00101865
0.00101864
0.00101863
0.00101862
0.00101861
0.0010186
0.0010186
0.00101859
0.00101858
0.00101858
0.00101857
0.00101857
0.00101856
0.00101856
0.00101855
0.00101855
0.00101854
0.00101854
0.00101854
0.00101853
0.00101853
0.00101853
0.00101852
0.00101852
0.00101852
0.00101851
0.00101851
0.00101851
0.00101851
0.00101851
0.00101851
0.000980984
0.000950969
0.000927593
0.000910784
0.000900279
0.000895586
0.000896001
0.000900648
0.000908552
0.000918717
0.000930203
0.000942187
0.000953998
0.000965137
0.000975271
0.000984214
0.000991899
0.000998351
0.00100366
0.00100794
0.00101132
0.00101395
0.00101596
0.00101746
0.00101856
0.00101934
0.00101988
0.00102023
0.00102044
0.00102054
0.00102058
0.00102056
0.0010205
0.00102042
0.00102033
0.00102023
0.00102012
0.00102002
0.00101991
0.00101981
0.00101972
0.00101963
0.00101955
0.00101947
0.0010194
0.00101933
0.00101927
0.00101922
0.00101916
0.00101912
0.00101907
0.00101903
0.00101899
0.00101896
0.00101892
0.00101889
0.00101887
0.00101884
0.00101882
0.0010188
0.00101878
0.00101876
0.00101874
0.00101872
0.00101871
0.00101869
0.00101868
0.00101867
0.00101866
0.00101865
0.00101864
0.00101863
0.00101862
0.00101861
0.00101861
0.0010186
0.00101859
0.00101859
0.00101858
0.00101857
0.00101857
0.00101856
0.00101856
0.00101855
0.00101855
0.00101855
0.00101854
0.00101854
0.00101853
0.00101853
0.00101853
0.00101852
0.00101852
0.00101852
0.00101851
0.00101851
0.00101851
0.00101851
0.00101851
0.00101851
0.000980967
0.000950937
0.000927549
0.000910729
0.000900211
0.000895504
0.000895906
0.000900541
0.000908434
0.000918591
0.000930073
0.000942056
0.00095387
0.000965015
0.000975158
0.000984112
0.000991809
0.000998275
0.00100359
0.00100788
0.00101128
0.00101392
0.00101593
0.00101744
0.00101855
0.00101933
0.00101987
0.00102023
0.00102044
0.00102055
0.00102059
0.00102057
0.00102051
0.00102043
0.00102034
0.00102024
0.00102013
0.00102003
0.00101993
0.00101983
0.00101973
0.00101965
0.00101956
0.00101948
0.00101941
0.00101935
0.00101928
0.00101923
0.00101917
0.00101912
0.00101908
0.00101904
0.001019
0.00101896
0.00101893
0.0010189
0.00101887
0.00101885
0.00101882
0.0010188
0.00101878
0.00101876
0.00101874
0.00101873
0.00101871
0.0010187
0.00101869
0.00101867
0.00101866
0.00101865
0.00101864
0.00101863
0.00101862
0.00101862
0.00101861
0.0010186
0.00101859
0.00101859
0.00101858
0.00101858
0.00101857
0.00101857
0.00101856
0.00101856
0.00101855
0.00101855
0.00101854
0.00101854
0.00101853
0.00101853
0.00101853
0.00101852
0.00101852
0.00101852
0.00101851
0.00101851
0.00101851
0.00101851
0.00101851
0.00101851
0.000980949
0.000950898
0.000927492
0.000910654
0.000900117
0.000895391
0.000895772
0.000900388
0.000908265
0.00091841
0.000929884
0.000941864
0.00095368
0.000964832
0.000974986
0.000983953
0.000991666
0.000998149
0.00100348
0.00100779
0.0010112
0.00101385
0.00101588
0.0010174
0.00101852
0.00101931
0.00101986
0.00102022
0.00102044
0.00102055
0.00102059
0.00102058
0.00102052
0.00102045
0.00102035
0.00102025
0.00102015
0.00102004
0.00101994
0.00101984
0.00101975
0.00101966
0.00101958
0.0010195
0.00101943
0.00101936
0.0010193
0.00101924
0.00101919
0.00101914
0.00101909
0.00101905
0.00101901
0.00101897
0.00101894
0.00101891
0.00101888
0.00101886
0.00101883
0.00101881
0.00101879
0.00101877
0.00101875
0.00101873
0.00101872
0.0010187
0.00101869
0.00101868
0.00101867
0.00101866
0.00101865
0.00101864
0.00101863
0.00101862
0.00101861
0.0010186
0.0010186
0.00101859
0.00101859
0.00101858
0.00101857
0.00101857
0.00101856
0.00101856
0.00101855
0.00101855
0.00101855
0.00101854
0.00101854
0.00101853
0.00101853
0.00101853
0.00101852
0.00101852
0.00101852
0.00101851
0.00101851
0.00101851
0.00101851
0.00101851
0.000980931
0.000950854
0.000927426
0.000910565
0.000900004
0.000895253
0.00089561
0.000900202
0.000908058
0.000918186
0.000929648
0.000941623
0.000953441
0.0009646
0.000974766
0.000983749
0.000991481
0.000997984
0.00100334
0.00100766
0.00101109
0.00101377
0.00101581
0.00101734
0.00101847
0.00101928
0.00101983
0.0010202
0.00102043
0.00102055
0.00102059
0.00102058
0.00102053
0.00102046
0.00102037
0.00102027
0.00102016
0.00102006
0.00101996
0.00101986
0.00101977
0.00101968
0.00101959
0.00101952
0.00101944
0.00101938
0.00101931
0.00101926
0.0010192
0.00101915
0.00101911
0.00101906
0.00101902
0.00101899
0.00101895
0.00101892
0.00101889
0.00101887
0.00101884
0.00101882
0.0010188
0.00101878
0.00101876
0.00101874
0.00101873
0.00101871
0.0010187
0.00101868
0.00101867
0.00101866
0.00101865
0.00101864
0.00101863
0.00101862
0.00101862
0.00101861
0.0010186
0.00101859
0.00101859
0.00101858
0.00101858
0.00101857
0.00101857
0.00101856
0.00101856
0.00101855
0.00101855
0.00101854
0.00101854
0.00101853
0.00101853
0.00101853
0.00101852
0.00101852
0.00101852
0.00101851
0.00101851
0.00101851
0.00101851
0.00101851
0.000980914
0.000950808
0.000927353
0.000910466
0.000899878
0.000895099
0.000895426
0.00089999
0.000907821
0.000917928
0.000929376
0.000941344
0.000953161
0.000964327
0.000974506
0.000983507
0.00099126
0.000997785
0.00100316
0.00100751
0.00101096
0.00101366
0.00101572
0.00101727
0.00101841
0.00101923
0.0010198
0.00102018
0.00102041
0.00102054
0.00102059
0.00102058
0.00102054
0.00102046
0.00102038
0.00102028
0.00102018
0.00102008
0.00101998
0.00101988
0.00101978
0.0010197
0.00101961
0.00101953
0.00101946
0.00101939
0.00101933
0.00101927
0.00101922
0.00101917
0.00101912
0.00101908
0.00101904
0.001019
0.00101897
0.00101893
0.0010189
0.00101888
0.00101885
0.00101883
0.00101881
0.00101879
0.00101877
0.00101875
0.00101873
0.00101872
0.0010187
0.00101869
0.00101868
0.00101867
0.00101866
0.00101865
0.00101864
0.00101863
0.00101862
0.00101861
0.00101861
0.0010186
0.00101859
0.00101859
0.00101858
0.00101857
0.00101857
0.00101856
0.00101856
0.00101855
0.00101855
0.00101855
0.00101854
0.00101854
0.00101853
0.00101853
0.00101853
0.00101852
0.00101852
0.00101852
0.00101851
0.00101851
0.00101851
0.00101851
0.000980898
0.000950761
0.000927277
0.000910361
0.000899743
0.000894932
0.000895227
0.00089976
0.000907561
0.000917645
0.000929076
0.000941034
0.00095285
0.000964022
0.000974213
0.000983232
0.000991008
0.000997558
0.00100296
0.00100733
0.00101081
0.00101353
0.00101561
0.00101718
0.00101834
0.00101917
0.00101975
0.00102014
0.00102039
0.00102052
0.00102058
0.00102058
0.00102054
0.00102047
0.00102038
0.00102029
0.00102019
0.00102009
0.00101999
0.00101989
0.0010198
0.00101971
0.00101963
0.00101955
0.00101948
0.00101941
0.00101935
0.00101929
0.00101923
0.00101918
0.00101913
0.00101909
0.00101905
0.00101901
0.00101898
0.00101894
0.00101891
0.00101889
0.00101886
0.00101884
0.00101882
0.00101879
0.00101878
0.00101876
0.00101874
0.00101872
0.00101871
0.0010187
0.00101868
0.00101867
0.00101866
0.00101865
0.00101864
0.00101863
0.00101862
0.00101862
0.00101861
0.0010186
0.0010186
0.00101859
0.00101858
0.00101858
0.00101857
0.00101857
0.00101856
0.00101856
0.00101855
0.00101855
0.00101854
0.00101854
0.00101853
0.00101853
0.00101853
0.00101852
0.00101852
0.00101852
0.00101852
0.00101851
0.00101851
0.00101851
0.000980883
0.000950715
0.0009272
0.000910253
0.000899602
0.000894757
0.000895018
0.000899516
0.000907287
0.000917343
0.000928755
0.000940701
0.000952514
0.000963691
0.000973895
0.000982933
0.000990731
0.000997306
0.00100274
0.00100714
0.00101064
0.00101338
0.00101549
0.00101708
0.00101825
0.0010191
0.0010197
0.0010201
0.00102035
0.0010205
0.00102056
0.00102057
0.00102053
0.00102047
0.00102039
0.0010203
0.0010202
0.0010201
0.00102
0.00101991
0.00101981
0.00101973
0.00101964
0.00101957
0.00101949
0.00101942
0.00101936
0.0010193
0.00101925
0.0010192
0.00101915
0.0010191
0.00101906
0.00101902
0.00101899
0.00101896
0.00101893
0.0010189
0.00101887
0.00101885
0.00101882
0.0010188
0.00101878
0.00101876
0.00101875
0.00101873
0.00101872
0.0010187
0.00101869
0.00101868
0.00101867
0.00101866
0.00101865
0.00101864
0.00101863
0.00101862
0.00101861
0.00101861
0.0010186
0.00101859
0.00101859
0.00101858
0.00101858
0.00101857
0.00101856
0.00101856
0.00101855
0.00101855
0.00101855
0.00101854
0.00101854
0.00101853
0.00101853
0.00101853
0.00101852
0.00101852
0.00101852
0.00101851
0.00101851
0.00101851
0.000980868
0.000950671
0.000927125
0.000910145
0.00089946
0.00089458
0.000894804
0.000899266
0.000907002
0.000917031
0.00092842
0.000940352
0.000952161
0.000963342
0.000973558
0.000982614
0.000990435
0.000997036
0.00100249
0.00100692
0.00101045
0.00101322
0.00101535
0.00101696
0.00101815
0.00101902
0.00101963
0.00102005
0.00102031
0.00102047
0.00102054
0.00102055
0.00102052
0.00102046
0.00102039
0.0010203
0.0010202
0.00102011
0.00102001
0.00101992
0.00101983
0.00101974
0.00101966
0.00101958
0.00101951
0.00101944
0.00101937
0.00101931
0.00101926
0.00101921
0.00101916
0.00101912
0.00101907
0.00101904
0.001019
0.00101897
0.00101894
0.00101891
0.00101888
0.00101886
0.00101883
0.00101881
0.00101879
0.00101877
0.00101875
0.00101874
0.00101872
0.00101871
0.0010187
0.00101868
0.00101867
0.00101866
0.00101865
0.00101864
0.00101863
0.00101863
0.00101862
0.00101861
0.0010186
0.0010186
0.00101859
0.00101858
0.00101858
0.00101857
0.00101857
0.00101856
0.00101856
0.00101855
0.00101855
0.00101854
0.00101854
0.00101853
0.00101853
0.00101853
0.00101852
0.00101852
0.00101852
0.00101852
0.00101851
0.00101851
0.000980855
0.000950629
0.000927051
0.000910039
0.000899319
0.000894402
0.000894588
0.000899013
0.000906714
0.000916712
0.000928078
0.000939995
0.000951797
0.000962981
0.000973208
0.000982281
0.000990125
0.000996752
0.00100224
0.00100669
0.00101025
0.00101304
0.0010152
0.00101683
0.00101805
0.00101893
0.00101956
0.00101999
0.00102026
0.00102043
0.00102051
0.00102053
0.0010205
0.00102045
0.00102038
0.0010203
0.0010202
0.00102011
0.00102002
0.00101992
0.00101983
0.00101975
0.00101967
0.00101959
0.00101952
0.00101945
0.00101939
0.00101933
0.00101927
0.00101922
0.00101917
0.00101913
0.00101908
0.00101905
0.00101901
0.00101898
0.00101895
0.00101892
0.00101889
0.00101886
0.00101884
0.00101882
0.0010188
0.00101878
0.00101876
0.00101874
0.00101873
0.00101871
0.0010187
0.00101869
0.00101868
0.00101867
0.00101866
0.00101865
0.00101864
0.00101863
0.00101862
0.00101861
0.00101861
0.0010186
0.00101859
0.00101859
0.00101858
0.00101858
0.00101857
0.00101856
0.00101856
0.00101855
0.00101855
0.00101855
0.00101854
0.00101854
0.00101853
0.00101853
0.00101853
0.00101852
0.00101852
0.00101852
0.00101852
0.00101852
0.000980843
0.000950588
0.000926981
0.000909936
0.000899181
0.000894227
0.000894375
0.000898761
0.000906427
0.000916393
0.000927734
0.000939634
0.000951429
0.000962614
0.00097285
0.00098194
0.000989805
0.000996458
0.00100197
0.00100646
0.00101004
0.00101286
0.00101504
0.00101669
0.00101793
0.00101883
0.00101948
0.00101992
0.00102021
0.00102038
0.00102047
0.0010205
0.00102048
0.00102044
0.00102037
0.00102029
0.0010202
0.00102011
0.00102002
0.00101993
0.00101984
0.00101975
0.00101967
0.0010196
0.00101953
0.00101946
0.00101939
0.00101934
0.00101928
0.00101923
0.00101918
0.00101914
0.00101909
0.00101905
0.00101902
0.00101898
0.00101895
0.00101892
0.0010189
0.00101887
0.00101885
0.00101882
0.0010188
0.00101878
0.00101877
0.00101875
0.00101873
0.00101872
0.00101871
0.00101869
0.00101868
0.00101867
0.00101866
0.00101865
0.00101864
0.00101863
0.00101862
0.00101862
0.00101861
0.0010186
0.0010186
0.00101859
0.00101858
0.00101858
0.00101857
0.00101857
0.00101856
0.00101856
0.00101855
0.00101855
0.00101854
0.00101854
0.00101853
0.00101853
0.00101853
0.00101852
0.00101852
0.00101852
0.00101852
0.00101852
0.000980831
0.000950551
0.000926914
0.000909837
0.000899048
0.000894057
0.000894167
0.000898515
0.000906144
0.000916078
0.000927393
0.000939275
0.00095106
0.000962246
0.00097249
0.000981595
0.000989481
0.000996158
0.0010017
0.00100621
0.00100982
0.00101267
0.00101487
0.00101655
0.00101781
0.00101873
0.00101939
0.00101984
0.00102014
0.00102033
0.00102043
0.00102046
0.00102045
0.00102041
0.00102035
0.00102028
0.00102019
0.0010201
0.00102001
0.00101993
0.00101984
0.00101976
0.00101968
0.0010196
0.00101953
0.00101946
0.0010194
0.00101934
0.00101929
0.00101924
0.00101919
0.00101914
0.0010191
0.00101906
0.00101903
0.00101899
0.00101896
0.00101893
0.0010189
0.00101888
0.00101885
0.00101883
0.00101881
0.00101879
0.00101877
0.00101875
0.00101874
0.00101872
0.00101871
0.0010187
0.00101868
0.00101867
0.00101866
0.00101865
0.00101864
0.00101863
0.00101863
0.00101862
0.00101861
0.0010186
0.0010186
0.00101859
0.00101858
0.00101858
0.00101857
0.00101857
0.00101856
0.00101856
0.00101855
0.00101855
0.00101854
0.00101854
0.00101853
0.00101853
0.00101853
0.00101852
0.00101852
0.00101852
0.00101852
0.00101852
0.000980821
0.000950515
0.000926851
0.000909744
0.000898921
0.000893894
0.000893966
0.000898275
0.000905868
0.000915769
0.000927058
0.000938922
0.000950697
0.000961881
0.000972132
0.000981251
0.000989156
0.000995857
0.00100142
0.00100596
0.0010096
0.00101247
0.0010147
0.0010164
0.00101768
0.00101862
0.00101929
0.00101976
0.00102008
0.00102027
0.00102038
0.00102042
0.00102042
0.00102039
0.00102033
0.00102026
0.00102018
0.00102009
0.00102001
0.00101992
0.00101984
0.00101976
0.00101968
0.0010196
0.00101953
0.00101947
0.00101941
0.00101935
0.00101929
0.00101924
0.00101919
0.00101915
0.00101911
0.00101907
0.00101903
0.001019
0.00101897
0.00101894
0.00101891
0.00101888
0.00101886
0.00101884
0.00101881
0.00101879
0.00101878
0.00101876
0.00101874
0.00101873
0.00101871
0.0010187
0.00101869
0.00101868
0.00101867
0.00101866
0.00101865
0.00101864
0.00101863
0.00101862
0.00101861
0.00101861
0.0010186
0.00101859
0.00101859
0.00101858
0.00101857
0.00101857
0.00101856
0.00101856
0.00101855
0.00101855
0.00101854
0.00101854
0.00101854
0.00101853
0.00101853
0.00101852
0.00101852
0.00101852
0.00101852
0.00101852
0.000980811
0.000950483
0.000926792
0.000909655
0.000898801
0.000893739
0.000893773
0.000898045
0.000905602
0.000915471
0.000926733
0.000938577
0.000950341
0.000961523
0.000971779
0.000980911
0.000988834
0.000995557
0.00100115
0.00100571
0.00100937
0.00101227
0.00101452
0.00101624
0.00101754
0.0010185
0.00101919
0.00101968
0.00102
0.00102021
0.00102033
0.00102038
0.00102038
0.00102036
0.00102031
0.00102024
0.00102016
0.00102008
0.00102
0.00101991
0.00101983
0.00101975
0.00101968
0.0010196
0.00101953
0.00101947
0.00101941
0.00101935
0.0010193
0.00101924
0.0010192
0.00101915
0.00101911
0.00101907
0.00101904
0.001019
0.00101897
0.00101894
0.00101891
0.00101889
0.00101886
0.00101884
0.00101882
0.0010188
0.00101878
0.00101876
0.00101875
0.00101873
0.00101872
0.0010187
0.00101869
0.00101868
0.00101867
0.00101866
0.00101865
0.00101864
0.00101863
0.00101862
0.00101861
0.00101861
0.0010186
0.00101859
0.00101859
0.00101858
0.00101858
0.00101857
0.00101856
0.00101856
0.00101855
0.00101855
0.00101854
0.00101854
0.00101854
0.00101853
0.00101853
0.00101853
0.00101852
0.00101852
0.00101852
0.00101852
0.000980802
0.000950452
0.000926737
0.000909573
0.000898687
0.000893591
0.00089359
0.000897826
0.000905348
0.000915185
0.00092642
0.000938245
0.000949997
0.000961175
0.000971435
0.000980578
0.000988518
0.00099526
0.00100087
0.00100546
0.00100915
0.00101207
0.00101434
0.00101609
0.0010174
0.00101838
0.00101909
0.00101959
0.00101993
0.00102014
0.00102027
0.00102033
0.00102034
0.00102032
0.00102028
0.00102021
0.00102014
0.00102006
0.00101998
0.0010199
0.00101982
0.00101975
0.00101967
0.0010196
0.00101953
0.00101947
0.00101941
0.00101935
0.0010193
0.00101925
0.0010192
0.00101915
0.00101911
0.00101907
0.00101904
0.001019
0.00101897
0.00101894
0.00101891
0.00101889
0.00101886
0.00101884
0.00101882
0.0010188
0.00101878
0.00101876
0.00101875
0.00101873
0.00101872
0.0010187
0.00101869
0.00101868
0.00101867
0.00101866
0.00101865
0.00101864
0.00101863
0.00101862
0.00101861
0.00101861
0.0010186
0.00101859
0.00101859
0.00101858
0.00101858
0.00101857
0.00101856
0.00101856
0.00101855
0.00101855
0.00101854
0.00101854
0.00101854
0.00101853
0.00101853
0.00101853
0.00101852
0.00101852
0.00101852
0.00101852
0.000980794
0.000950424
0.000926686
0.000909495
0.00089858
0.000893453
0.000893417
0.000897618
0.000905106
0.000914912
0.00092612
0.000937925
0.000949665
0.000960838
0.000971102
0.000980254
0.000988209
0.000994971
0.00100061
0.00100522
0.00100893
0.00101187
0.00101417
0.00101593
0.00101727
0.00101826
0.00101898
0.00101949
0.00101985
0.00102007
0.00102021
0.00102028
0.0010203
0.00102028
0.00102024
0.00102019
0.00102012
0.00102004
0.00101997
0.00101989
0.00101981
0.00101974
0.00101966
0.00101959
0.00101953
0.00101946
0.0010194
0.00101935
0.0010193
0.00101925
0.0010192
0.00101915
0.00101911
0.00101907
0.00101904
0.001019
0.00101897
0.00101894
0.00101892
0.00101889
0.00101887
0.00101884
0.00101882
0.0010188
0.00101878
0.00101876
0.00101875
0.00101873
0.00101872
0.0010187
0.00101869
0.00101868
0.00101867
0.00101866
0.00101865
0.00101864
0.00101863
0.00101862
0.00101861
0.00101861
0.0010186
0.00101859
0.00101859
0.00101858
0.00101858
0.00101857
0.00101856
0.00101856
0.00101855
0.00101855
0.00101854
0.00101854
0.00101854
0.00101853
0.00101853
0.00101853
0.00101852
0.00101852
0.00101852
0.00101852
0.000980786
0.000950398
0.000926638
0.000909423
0.000898481
0.000893322
0.000893255
0.000897422
0.000904877
0.000914653
0.000925836
0.000937621
0.000949348
0.000960516
0.000970782
0.000979942
0.000987911
0.00099469
0.00100034
0.00100498
0.00100871
0.00101167
0.00101399
0.00101578
0.00101713
0.00101814
0.00101887
0.0010194
0.00101976
0.00102
0.00102015
0.00102023
0.00102025
0.00102024
0.00102021
0.00102016
0.00102009
0.00102002
0.00101995
0.00101987
0.0010198
0.00101972
0.00101965
0.00101959
0.00101952
0.00101946
0.0010194
0.00101934
0.00101929
0.00101924
0.0010192
0.00101915
0.00101911
0.00101907
0.00101904
0.001019
0.00101897
0.00101894
0.00101892
0.00101889
0.00101887
0.00101884
0.00101882
0.0010188
0.00101878
0.00101876
0.00101875
0.00101873
0.00101872
0.0010187
0.00101869
0.00101868
0.00101867
0.00101866
0.00101865
0.00101864
0.00101863
0.00101862
0.00101861
0.00101861
0.0010186
0.00101859
0.00101859
0.00101858
0.00101857
0.00101857
0.00101856
0.00101856
0.00101855
0.00101855
0.00101854
0.00101854
0.00101854
0.00101853
0.00101853
0.00101853
0.00101852
0.00101852
0.00101852
0.00101852
0.000980779
0.000950374
0.000926594
0.000909356
0.000898388
0.000893201
0.000893102
0.000897238
0.000904662
0.000914408
0.000925567
0.000937332
0.000949047
0.000960209
0.000970476
0.000979643
0.000987623
0.000994419
0.00100009
0.00100474
0.0010085
0.00101148
0.00101382
0.00101562
0.00101699
0.00101802
0.00101877
0.00101931
0.00101968
0.00101993
0.00102009
0.00102017
0.0010202
0.0010202
0.00102017
0.00102012
0.00102006
0.00102
0.00101993
0.00101985
0.00101978
0.00101971
0.00101964
0.00101958
0.00101951
0.00101945
0.00101939
0.00101934
0.00101929
0.00101924
0.00101919
0.00101915
0.00101911
0.00101907
0.00101904
0.001019
0.00101897
0.00101894
0.00101892
0.00101889
0.00101886
0.00101884
0.00101882
0.0010188
0.00101878
0.00101876
0.00101875
0.00101873
0.00101872
0.0010187
0.00101869
0.00101868
0.00101867
0.00101866
0.00101865
0.00101864
0.00101863
0.00101862
0.00101861
0.00101861
0.0010186
0.00101859
0.00101859
0.00101858
0.00101857
0.00101857
0.00101856
0.00101856
0.00101855
0.00101855
0.00101854
0.00101854
0.00101854
0.00101853
0.00101853
0.00101853
0.00101852
0.00101852
0.00101852
0.00101852
0.000980772
0.000950352
0.000926553
0.000909294
0.000898301
0.000893088
0.00089296
0.000897066
0.00090446
0.000914179
0.000925313
0.00093706
0.000948762
0.000959918
0.000970184
0.000979358
0.000987349
0.000994159
0.000999849
0.00100452
0.00100829
0.0010113
0.00101365
0.00101547
0.00101686
0.0010179
0.00101866
0.00101921
0.0010196
0.00101986
0.00102002
0.00102011
0.00102015
0.00102016
0.00102013
0.00102009
0.00102003
0.00101997
0.0010199
0.00101983
0.00101976
0.0010197
0.00101963
0.00101956
0.0010195
0.00101944
0.00101939
0.00101933
0.00101928
0.00101923
0.00101919
0.00101915
0.00101911
0.00101907
0.00101903
0.001019
0.00101897
0.00101894
0.00101891
0.00101889
0.00101886
0.00101884
0.00101882
0.0010188
0.00101878
0.00101876
0.00101875
0.00101873
0.00101872
0.0010187
0.00101869
0.00101868
0.00101867
0.00101866
0.00101865
0.00101864
0.00101863
0.00101862
0.00101861
0.0010186
0.0010186
0.00101859
0.00101858
0.00101858
0.00101857
0.00101857
0.00101856
0.00101856
0.00101855
0.00101855
0.00101854
0.00101854
0.00101853
0.00101853
0.00101853
0.00101852
0.00101852
0.00101852
0.00101852
0.00101852
0.000980766
0.000950331
0.000926516
0.000909237
0.000898221
0.000892983
0.000892828
0.000896906
0.000904272
0.000913964
0.000925075
0.000936804
0.000948493
0.000959643
0.000969909
0.000979087
0.000987088
0.00099391
0.000999616
0.00100431
0.0010081
0.00101112
0.00101349
0.00101533
0.00101673
0.00101778
0.00101856
0.00101912
0.00101952
0.00101978
0.00101996
0.00102006
0.0010201
0.00102011
0.00102009
0.00102005
0.00102
0.00101994
0.00101988
0.00101981
0.00101975
0.00101968
0.00101961
0.00101955
0.00101949
0.00101943
0.00101938
0.00101932
0.00101928
0.00101923
0.00101918
0.00101914
0.0010191
0.00101907
0.00101903
0.001019
0.00101897
0.00101894
0.00101891
0.00101889
0.00101886
0.00101884
0.00101882
0.0010188
0.00101878
0.00101876
0.00101875
0.00101873
0.00101872
0.0010187
0.00101869
0.00101868
0.00101867
0.00101865
0.00101865
0.00101864
0.00101863
0.00101862
0.00101861
0.0010186
0.0010186
0.00101859
0.00101858
0.00101858
0.00101857
0.00101857
0.00101856
0.00101856
0.00101855
0.00101855
0.00101854
0.00101854
0.00101853
0.00101853
0.00101853
0.00101852
0.00101852
0.00101852
0.00101852
0.00101852
0.000980761
0.000950312
0.000926481
0.000909183
0.000898147
0.000892885
0.000892705
0.000896756
0.000904096
0.000913764
0.000924853
0.000936564
0.000948241
0.000959384
0.000969649
0.000978831
0.00098684
0.000993675
0.000999395
0.0010041
0.00100791
0.00101094
0.00101333
0.00101519
0.0010166
0.00101767
0.00101846
0.00101903
0.00101944
0.00101971
0.00101989
0.00102
0.00102005
0.00102007
0.00102005
0.00102002
0.00101997
0.00101992
0.00101985
0.00101979
0.00101973
0.00101966
0.0010196
0.00101954
0.00101948
0.00101942
0.00101937
0.00101932
0.00101927
0.00101922
0.00101918
0.00101914
0.0010191
0.00101906
0.00101903
0.00101899
0.00101896
0.00101894
0.00101891
0.00101888
0.00101886
0.00101884
0.00101882
0.0010188
0.00101878
0.00101876
0.00101874
0.00101873
0.00101871
0.0010187
0.00101869
0.00101867
0.00101866
0.00101865
0.00101864
0.00101863
0.00101862
0.00101862
0.00101861
0.0010186
0.00101859
0.00101859
0.00101858
0.00101858
0.00101857
0.00101856
0.00101856
0.00101855
0.00101855
0.00101854
0.00101854
0.00101854
0.00101853
0.00101853
0.00101853
0.00101852
0.00101852
0.00101852
0.00101852
0.00101852
0.000980756
0.000950295
0.000926449
0.000909134
0.000898078
0.000892795
0.000892591
0.000896618
0.000903932
0.000913577
0.000924646
0.00093634
0.000948005
0.000959141
0.000969404
0.00097859
0.000986606
0.000993451
0.000999185
0.0010039
0.00100773
0.00101078
0.00101318
0.00101505
0.00101648
0.00101756
0.00101836
0.00101894
0.00101936
0.00101964
0.00101983
0.00101994
0.00102
0.00102002
0.00102001
0.00101998
0.00101994
0.00101989
0.00101983
0.00101977
0.0010197
0.00101964
0.00101958
0.00101952
0.00101946
0.00101941
0.00101936
0.00101931
0.00101926
0.00101921
0.00101917
0.00101913
0.00101909
0.00101906
0.00101902
0.00101899
0.00101896
0.00101893
0.0010189
0.00101888
0.00101886
0.00101883
0.00101881
0.00101879
0.00101877
0.00101876
0.00101874
0.00101873
0.00101871
0.0010187
0.00101868
0.00101867
0.00101866
0.00101865
0.00101864
0.00101863
0.00101862
0.00101861
0.00101861
0.0010186
0.00101859
0.00101859
0.00101858
0.00101857
0.00101857
0.00101856
0.00101856
0.00101855
0.00101855
0.00101854
0.00101854
0.00101853
0.00101853
0.00101853
0.00101852
0.00101852
0.00101852
0.00101852
0.00101852
0.00101851
0.000980751
0.000950279
0.000926419
0.000909088
0.000898015
0.000892711
0.000892485
0.000896489
0.000903781
0.000913404
0.000924453
0.000936132
0.000947785
0.000958914
0.000969175
0.000978363
0.000986386
0.000993241
0.000998986
0.00100372
0.00100756
0.00101062
0.00101304
0.00101492
0.00101636
0.00101745
0.00101826
0.00101886
0.00101928
0.00101957
0.00101977
0.00101989
0.00101995
0.00101998
0.00101997
0.00101995
0.00101991
0.00101986
0.0010198
0.00101974
0.00101968
0.00101962
0.00101956
0.00101951
0.00101945
0.0010194
0.00101935
0.0010193
0.00101925
0.00101921
0.00101916
0.00101912
0.00101909
0.00101905
0.00101902
0.00101898
0.00101896
0.00101893
0.0010189
0.00101888
0.00101885
0.00101883
0.00101881
0.00101879
0.00101877
0.00101875
0.00101874
0.00101872
0.00101871
0.00101869
0.00101868
0.00101867
0.00101866
0.00101865
0.00101864
0.00101863
0.00101862
0.00101861
0.0010186
0.0010186
0.00101859
0.00101858
0.00101858
0.00101857
0.00101857
0.00101856
0.00101855
0.00101855
0.00101855
0.00101854
0.00101854
0.00101853
0.00101853
0.00101853
0.00101852
0.00101852
0.00101852
0.00101852
0.00101851
0.00101851
0.000980747
0.000950264
0.000926392
0.000909046
0.000897956
0.000892633
0.000892388
0.00089637
0.00090364
0.000913243
0.000924274
0.000935937
0.000947579
0.000958702
0.000968961
0.000978151
0.00098618
0.000993043
0.000998799
0.00100354
0.00100739
0.00101047
0.0010129
0.0010148
0.00101625
0.00101735
0.00101817
0.00101877
0.0010192
0.00101951
0.00101971
0.00101983
0.0010199
0.00101993
0.00101993
0.00101991
0.00101987
0.00101983
0.00101978
0.00101972
0.00101966
0.0010196
0.00101955
0.00101949
0.00101944
0.00101938
0.00101933
0.00101929
0.00101924
0.0010192
0.00101915
0.00101912
0.00101908
0.00101904
0.00101901
0.00101898
0.00101895
0.00101892
0.0010189
0.00101887
0.00101885
0.00101883
0.00101881
0.00101879
0.00101877
0.00101875
0.00101873
0.00101872
0.00101871
0.00101869
0.00101868
0.00101867
0.00101866
0.00101865
0.00101864
0.00101863
0.00101862
0.00101861
0.0010186
0.00101859
0.00101859
0.00101858
0.00101857
0.00101857
0.00101856
0.00101856
0.00101855
0.00101855
0.00101854
0.00101854
0.00101853
0.00101853
0.00101853
0.00101852
0.00101852
0.00101852
0.00101852
0.00101851
0.00101851
0.00101851
0.000980743
0.00095025
0.000926366
0.000909007
0.000897902
0.000892562
0.000892297
0.00089626
0.00090351
0.000913093
0.000924107
0.000935757
0.000947388
0.000958505
0.000968762
0.000977953
0.000985986
0.000992857
0.000998623
0.00100338
0.00100724
0.00101033
0.00101277
0.00101468
0.00101614
0.00101725
0.00101808
0.00101869
0.00101913
0.00101944
0.00101965
0.00101978
0.00101986
0.00101989
0.00101989
0.00101987
0.00101984
0.0010198
0.00101975
0.0010197
0.00101964
0.00101958
0.00101953
0.00101947
0.00101942
0.00101937
0.00101932
0.00101927
0.00101923
0.00101919
0.00101915
0.00101911
0.00101907
0.00101904
0.001019
0.00101897
0.00101894
0.00101892
0.00101889
0.00101887
0.00101884
0.00101882
0.0010188
0.00101878
0.00101876
0.00101875
0.00101873
0.00101872
0.0010187
0.00101869
0.00101868
0.00101866
0.00101865
0.00101864
0.00101863
0.00101862
0.00101861
0.00101861
0.0010186
0.00101859
0.00101858
0.00101858
0.00101857
0.00101857
0.00101856
0.00101856
0.00101855
0.00101855
0.00101854
0.00101854
0.00101853
0.00101853
0.00101853
0.00101852
0.00101852
0.00101852
0.00101851
0.00101851
0.00101851
0.00101851
0.000980739
0.000950237
0.000926343
0.000908971
0.000897851
0.000892495
0.000892213
0.000896158
0.00090339
0.000912955
0.000923953
0.00093559
0.000947211
0.000958321
0.000968576
0.000977768
0.000985806
0.000992684
0.000998458
0.00100322
0.0010071
0.0010102
0.00101265
0.00101457
0.00101604
0.00101716
0.001018
0.00101862
0.00101906
0.00101938
0.00101959
0.00101973
0.00101981
0.00101985
0.00101985
0.00101984
0.00101981
0.00101977
0.00101972
0.00101967
0.00101962
0.00101957
0.00101951
0.00101946
0.00101941
0.00101936
0.00101931
0.00101926
0.00101922
0.00101918
0.00101914
0.0010191
0.00101906
0.00101903
0.001019
0.00101897
0.00101894
0.00101891
0.00101889
0.00101886
0.00101884
0.00101882
0.0010188
0.00101878
0.00101876
0.00101874
0.00101873
0.00101871
0.0010187
0.00101869
0.00101867
0.00101866
0.00101865
0.00101864
0.00101863
0.00101862
0.00101861
0.0010186
0.0010186
0.00101859
0.00101858
0.00101858
0.00101857
0.00101856
0.00101856
0.00101855
0.00101855
0.00101854
0.00101854
0.00101853
0.00101853
0.00101853
0.00101852
0.00101852
0.00101852
0.00101852
0.00101851
0.00101851
0.00101851
0.00101851
0.000980736
0.000950226
0.000926321
0.000908938
0.000897805
0.000892434
0.000892136
0.000896063
0.000903278
0.000912828
0.000923811
0.000935435
0.000947047
0.000958151
0.000968403
0.000977596
0.000985638
0.000992522
0.000998304
0.00100308
0.00100696
0.00101007
0.00101254
0.00101446
0.00101594
0.00101707
0.00101792
0.00101855
0.001019
0.00101932
0.00101954
0.00101968
0.00101976
0.00101981
0.00101982
0.00101981
0.00101978
0.00101974
0.0010197
0.00101965
0.0010196
0.00101955
0.00101949
0.00101944
0.00101939
0.00101934