/*--------------------------------*- C++ -*----------------------------------*\
  =========                 |
  \\      /  F ield         | OpenFOAM: The Open Source CFD Toolbox
   \\    /   O peration     | Website:  https://openfoam.org
    \\  /    A nd           | Version:  11
     \\/     M anipulation  |
\*---------------------------------------------------------------------------*/
FoamFile
{
    format      ascii;
    class       volScalarField;
    location    "22";
    object      omega;
}
// * * * * * * * * * * * * * * * * * * * * * * * * * * * * * * * * * * * * * //

dimensions      [0 0 -1 0 0 0 0];

internalField   nonuniform List<scalar> 
10000
(
0.95967
0.88572
0.818007
0.756181
0.700028
0.649419
0.604241
0.564339
0.529485
0.49937
0.473621
0.451817
0.433522
0.418298
0.40573
0.39543
0.387045
0.380267
0.374824
0.370482
0.367036
0.364313
0.362174
0.360499
0.359193
0.358179
0.357393
0.356784
0.356314
0.35595
0.355668
0.355449
0.355278
0.355144
0.355038
0.354954
0.354886
0.35483
0.354785
0.354747
0.354714
0.354687
0.354663
0.354643
0.354625
0.354608
0.354594
0.354581
0.354569
0.354559
0.354549
0.35454
0.354532
0.354525
0.354518
0.354512
0.354506
0.3545
0.354496
0.354491
0.354487
0.354483
0.354479
0.354476
0.354473
0.35447
0.354467
0.354465
0.354462
0.35446
0.354458
0.354456
0.354455
0.354453
0.354451
0.35445
0.354449
0.354447
0.354446
0.354445
0.354443
0.354442
0.354441
0.35444
0.354439
0.354438
0.354436
0.354435
0.354434
0.354433
0.354431
0.35443
0.354429
0.354428
0.354426
0.354425
0.354424
0.354423
0.354423
0.354422
0.959669
0.885733
0.818033
0.756214
0.700066
0.649462
0.604288
0.564388
0.529536
0.499422
0.473672
0.451867
0.433569
0.418343
0.405771
0.395468
0.387083
0.380303
0.374858
0.370511
0.36706
0.364334
0.362192
0.360515
0.359207
0.358191
0.357404
0.356794
0.356323
0.355958
0.355675
0.355456
0.355284
0.35515
0.355043
0.354959
0.35489
0.354835
0.354789
0.35475
0.354718
0.35469
0.354666
0.354646
0.354627
0.354611
0.354596
0.354583
0.354571
0.354561
0.354551
0.354542
0.354534
0.354526
0.354519
0.354513
0.354507
0.354502
0.354497
0.354492
0.354488
0.354484
0.35448
0.354477
0.354474
0.354471
0.354468
0.354465
0.354463
0.354461
0.354459
0.354457
0.354455
0.354453
0.354452
0.35445
0.354449
0.354448
0.354446
0.354445
0.354444
0.354443
0.354441
0.35444
0.354439
0.354438
0.354437
0.354435
0.354434
0.354433
0.354432
0.35443
0.354429
0.354428
0.354427
0.354425
0.354424
0.354424
0.354423
0.354422
0.959671
0.885755
0.818072
0.756267
0.700129
0.649532
0.604363
0.564468
0.529617
0.499502
0.473751
0.451942
0.43364
0.418409
0.405832
0.395524
0.387133
0.380349
0.374899
0.370547
0.367091
0.36436
0.362214
0.360534
0.359224
0.358205
0.357416
0.356805
0.356332
0.355966
0.355683
0.355463
0.355291
0.355156
0.355049
0.354964
0.354896
0.35484
0.354794
0.354755
0.354723
0.354695
0.354671
0.35465
0.354631
0.354615
0.3546
0.354587
0.354575
0.354564
0.354554
0.354545
0.354536
0.354529
0.354522
0.354515
0.354509
0.354504
0.354499
0.354494
0.354489
0.354485
0.354482
0.354478
0.354475
0.354472
0.354469
0.354467
0.354464
0.354462
0.35446
0.354458
0.354456
0.354454
0.354453
0.354451
0.35445
0.354448
0.354447
0.354446
0.354444
0.354443
0.354442
0.354441
0.35444
0.354438
0.354437
0.354436
0.354435
0.354433
0.354432
0.354431
0.354429
0.354428
0.354427
0.354426
0.354425
0.354424
0.354423
0.354423
0.959676
0.88578
0.818118
0.75633
0.700207
0.649622
0.604462
0.564572
0.529724
0.49961
0.473856
0.452043
0.433735
0.418496
0.405912
0.395595
0.387197
0.380406
0.374949
0.37059
0.367127
0.364392
0.36224
0.360556
0.359243
0.358222
0.35743
0.356817
0.356343
0.355976
0.355692
0.355471
0.355298
0.355163
0.355056
0.354971
0.354902
0.354846
0.354799
0.354761
0.354728
0.3547
0.354676
0.354654
0.354636
0.354619
0.354604
0.354591
0.354578
0.354567
0.354557
0.354548
0.354539
0.354532
0.354524
0.354518
0.354512
0.354506
0.354501
0.354496
0.354492
0.354487
0.354484
0.35448
0.354477
0.354474
0.354471
0.354468
0.354466
0.354463
0.354461
0.354459
0.354457
0.354455
0.354454
0.354452
0.354451
0.354449
0.354448
0.354446
0.354445
0.354444
0.354443
0.354441
0.35444
0.354439
0.354438
0.354436
0.354435
0.354434
0.354432
0.354431
0.35443
0.354428
0.354427
0.354426
0.354425
0.354424
0.354423
0.354423
0.959682
0.885806
0.818165
0.756398
0.700294
0.649725
0.604577
0.564696
0.529852
0.499739
0.473982
0.452165
0.433849
0.418602
0.406008
0.395682
0.387275
0.380474
0.375008
0.370641
0.367171
0.364428
0.362271
0.360582
0.359264
0.35824
0.357445
0.35683
0.356354
0.355986
0.355701
0.355479
0.355306
0.35517
0.355063
0.354977
0.354908
0.354852
0.354805
0.354766
0.354733
0.354705
0.354681
0.354659
0.354641
0.354624
0.354609
0.354595
0.354583
0.354571
0.354561
0.354552
0.354543
0.354535
0.354528
0.354521
0.354515
0.354509
0.354504
0.354499
0.354494
0.35449
0.354486
0.354482
0.354479
0.354475
0.354472
0.35447
0.354467
0.354465
0.354462
0.35446
0.354458
0.354457
0.354455
0.354453
0.354452
0.35445
0.354449
0.354447
0.354446
0.354445
0.354443
0.354442
0.354441
0.35444
0.354438
0.354437
0.354436
0.354434
0.354433
0.354432
0.35443
0.354429
0.354428
0.354426
0.354425
0.354424
0.354424
0.354423
0.959688
0.88583
0.81821
0.756465
0.700383
0.649833
0.604701
0.564831
0.529994
0.499883
0.474125
0.452302
0.433979
0.418723
0.406118
0.395781
0.387362
0.380551
0.375074
0.370697
0.367219
0.364468
0.362305
0.36061
0.359288
0.358259
0.357462
0.356844
0.356366
0.355997
0.35571
0.355488
0.355314
0.355178
0.35507
0.354984
0.354914
0.354858
0.354811
0.354772
0.354739
0.354711
0.354686
0.354665
0.354646
0.354629
0.354613
0.3546
0.354587
0.354576
0.354565
0.354556
0.354547
0.354539
0.354531
0.354524
0.354518
0.354512
0.354506
0.354501
0.354496
0.354492
0.354488
0.354484
0.354481
0.354477
0.354474
0.354471
0.354469
0.354466
0.354464
0.354462
0.35446
0.354458
0.354456
0.354454
0.354453
0.354451
0.35445
0.354448
0.354447
0.354446
0.354444
0.354443
0.354442
0.35444
0.354439
0.354438
0.354436
0.354435
0.354434
0.354432
0.354431
0.354429
0.354428
0.354427
0.354426
0.354425
0.354424
0.354424
0.959695
0.885853
0.818254
0.756532
0.700472
0.649943
0.604829
0.564973
0.530144
0.500037
0.474278
0.452451
0.43412
0.418853
0.406238
0.395889
0.387457
0.380634
0.375146
0.370758
0.36727
0.364511
0.36234
0.360639
0.359312
0.358279
0.357478
0.356858
0.356378
0.356007
0.355719
0.355495
0.355321
0.355184
0.355076
0.35499
0.35492
0.354864
0.354817
0.354778
0.354744
0.354716
0.354691
0.35467
0.35465
0.354633
0.354618
0.354604
0.354591
0.35458
0.354569
0.354559
0.35455
0.354542
0.354534
0.354527
0.354521
0.354515
0.354509
0.354504
0.354499
0.354494
0.35449
0.354486
0.354483
0.354479
0.354476
0.354473
0.35447
0.354468
0.354466
0.354463
0.354461
0.354459
0.354457
0.354456
0.354454
0.354452
0.354451
0.354449
0.354448
0.354447
0.354445
0.354444
0.354442
0.354441
0.35444
0.354438
0.354437
0.354436
0.354434
0.354433
0.354431
0.35443
0.354429
0.354427
0.354426
0.354425
0.354424
0.354424
0.959701
0.885875
0.818295
0.756596
0.700559
0.650052
0.604957
0.565116
0.530298
0.500196
0.474437
0.452605
0.434267
0.418991
0.406364
0.396002
0.387558
0.380721
0.375221
0.370822
0.367324
0.364556
0.362377
0.360669
0.359336
0.358299
0.357494
0.356871
0.356389
0.356016
0.355727
0.355502
0.355327
0.35519
0.355081
0.354995
0.354925
0.354869
0.354822
0.354782
0.354749
0.354721
0.354696
0.354674
0.354655
0.354638
0.354622
0.354608
0.354595
0.354584
0.354573
0.354563
0.354554
0.354545
0.354538
0.35453
0.354524
0.354517
0.354512
0.354506
0.354501
0.354497
0.354492
0.354488
0.354485
0.354481
0.354478
0.354475
0.354472
0.354469
0.354467
0.354465
0.354462
0.35446
0.354459
0.354457
0.354455
0.354453
0.354452
0.35445
0.354449
0.354447
0.354446
0.354445
0.354443
0.354442
0.35444
0.354439
0.354438
0.354436
0.354435
0.354433
0.354432
0.35443
0.354429
0.354428
0.354427
0.354426
0.354425
0.354424
0.959707
0.885896
0.818335
0.756657
0.700643
0.650158
0.605084
0.565258
0.530452
0.500356
0.474598
0.452763
0.434418
0.419132
0.406493
0.396118
0.387661
0.380811
0.375298
0.370888
0.367378
0.364601
0.362414
0.360699
0.359361
0.358319
0.35751
0.356884
0.356399
0.356024
0.355734
0.355508
0.355332
0.355195
0.355086
0.354999
0.354929
0.354873
0.354826
0.354786
0.354753
0.354725
0.3547
0.354678
0.354659
0.354641
0.354626
0.354612
0.354599
0.354587
0.354576
0.354566
0.354557
0.354548
0.35454
0.354533
0.354526
0.35452
0.354514
0.354509
0.354504
0.354499
0.354494
0.35449
0.354486
0.354483
0.35448
0.354476
0.354474
0.354471
0.354468
0.354466
0.354464
0.354462
0.35446
0.354458
0.354456
0.354454
0.354453
0.354451
0.35445
0.354448
0.354447
0.354445
0.354444
0.354442
0.354441
0.35444
0.354438
0.354437
0.354435
0.354434
0.354432
0.354431
0.354429
0.354428
0.354427
0.354426
0.354425
0.354425
0.959713
0.885916
0.818372
0.756715
0.700723
0.650261
0.605206
0.565398
0.530603
0.500514
0.474759
0.452921
0.43457
0.419274
0.406624
0.396236
0.387765
0.380902
0.375376
0.370953
0.367433
0.364646
0.362451
0.360729
0.359384
0.358337
0.357524
0.356895
0.356408
0.356031
0.355739
0.355513
0.355337
0.355198
0.355089
0.355002
0.354933
0.354876
0.354829
0.35479
0.354756
0.354728
0.354703
0.354681
0.354662
0.354645
0.354629
0.354615
0.354602
0.35459
0.354579
0.354569
0.35456
0.354551
0.354543
0.354536
0.354529
0.354522
0.354516
0.354511
0.354506
0.354501
0.354496
0.354492
0.354488
0.354484
0.354481
0.354478
0.354475
0.354472
0.35447
0.354467
0.354465
0.354463
0.354461
0.354459
0.354457
0.354455
0.354453
0.354452
0.35445
0.354449
0.354447
0.354446
0.354445
0.354443
0.354442
0.35444
0.354439
0.354437
0.354436
0.354434
0.354433
0.354431
0.35443
0.354429
0.354427
0.354426
0.354426
0.354425
0.959719
0.885935
0.818407
0.756769
0.700799
0.650358
0.605324
0.565532
0.53075
0.500669
0.474916
0.453077
0.43472
0.419415
0.406753
0.396353
0.387869
0.380993
0.375454
0.371019
0.367488
0.364691
0.362487
0.360758
0.359406
0.358354
0.357538
0.356905
0.356415
0.356037
0.355744
0.355516
0.355339
0.355201
0.355091
0.355004
0.354934
0.354878
0.354831
0.354792
0.354759
0.35473
0.354705
0.354684
0.354664
0.354647
0.354632
0.354617
0.354604
0.354592
0.354581
0.354571
0.354562
0.354553
0.354545
0.354538
0.354531
0.354524
0.354518
0.354513
0.354507
0.354502
0.354498
0.354494
0.35449
0.354486
0.354482
0.354479
0.354476
0.354473
0.354471
0.354468
0.354466
0.354464
0.354461
0.354459
0.354458
0.354456
0.354454
0.354453
0.354451
0.354449
0.354448
0.354446
0.354445
0.354444
0.354442
0.354441
0.354439
0.354438
0.354436
0.354435
0.354433
0.354432
0.35443
0.354429
0.354428
0.354427
0.354426
0.354425
0.959724
0.885952
0.81844
0.756821
0.700871
0.650451
0.605436
0.565661
0.530892
0.500819
0.475069
0.453229
0.434866
0.419553
0.406881
0.396469
0.387971
0.381082
0.37553
0.371083
0.367541
0.364735
0.362522
0.360785
0.359428
0.358371
0.35755
0.356914
0.356422
0.356041
0.355747
0.355518
0.355341
0.355202
0.355092
0.355005
0.354935
0.354879
0.354832
0.354793
0.35476
0.354732
0.354707
0.354685
0.354666
0.354649
0.354633
0.354619
0.354606
0.354594
0.354583
0.354573
0.354564
0.354555
0.354547
0.354539
0.354532
0.354526
0.35452
0.354514
0.354509
0.354504
0.354499
0.354495
0.354491
0.354487
0.354483
0.35448
0.354477
0.354474
0.354471
0.354469
0.354467
0.354464
0.354462
0.35446
0.354458
0.354456
0.354455
0.354453
0.354451
0.35445
0.354448
0.354447
0.354445
0.354444
0.354442
0.354441
0.354439
0.354438
0.354436
0.354435
0.354433
0.354432
0.35443
0.354429
0.354428
0.354427
0.354426
0.354426
0.959729
0.885968
0.818471
0.756868
0.700938
0.650538
0.605542
0.565783
0.531027
0.500962
0.475216
0.453375
0.435008
0.419688
0.407005
0.396581
0.388071
0.381169
0.375605
0.371146
0.367593
0.364777
0.362555
0.360811
0.359448
0.358386
0.357561
0.356921
0.356427
0.356044
0.355749
0.355519
0.355341
0.355202
0.355092
0.355005
0.354935
0.354878
0.354832
0.354793
0.35476
0.354732
0.354708
0.354686
0.354667
0.35465
0.354635
0.354621
0.354608
0.354596
0.354585
0.354575
0.354565
0.354556
0.354548
0.354541
0.354534
0.354527
0.354521
0.354515
0.35451
0.354505
0.3545
0.354496
0.354492
0.354488
0.354484
0.354481
0.354478
0.354475
0.354472
0.35447
0.354467
0.354465
0.354463
0.354461
0.354459
0.354457
0.354455
0.354453
0.354452
0.35445
0.354449
0.354447
0.354446
0.354444
0.354443
0.354441
0.35444
0.354438
0.354437
0.354435
0.354434
0.354432
0.354431
0.354429
0.354428
0.354427
0.354426
0.354426
0.959733
0.885983
0.818499
0.756913
0.701001
0.65062
0.605642
0.565899
0.531155
0.501098
0.475356
0.453515
0.435144
0.419817
0.407125
0.39669
0.388168
0.381253
0.375677
0.371207
0.367643
0.364817
0.362587
0.360836
0.359466
0.358399
0.35757
0.356928
0.356431
0.356047
0.355749
0.355519
0.35534
0.3552
0.355091
0.355004
0.354934
0.354877
0.354831
0.354792
0.35476
0.354732
0.354708
0.354686
0.354668
0.354651
0.354635
0.354621
0.354608
0.354597
0.354586
0.354576
0.354566
0.354557
0.354549
0.354542
0.354535
0.354528
0.354522
0.354516
0.354511
0.354506
0.354501
0.354496
0.354492
0.354489
0.354485
0.354482
0.354478
0.354475
0.354473
0.35447
0.354468
0.354465
0.354463
0.354461
0.354459
0.354457
0.354455
0.354454
0.354452
0.35445
0.354449
0.354447
0.354446
0.354444
0.354443
0.354441
0.35444
0.354438
0.354437
0.354435
0.354434
0.354432
0.354431
0.354429
0.354428
0.354427
0.354426
0.354426
0.959737
0.885997
0.818526
0.756955
0.70106
0.650696
0.605735
0.566007
0.531275
0.501227
0.475489
0.453648
0.435274
0.41994
0.407239
0.396794
0.38826
0.381334
0.375746
0.371265
0.367691
0.364856
0.362618
0.360859
0.359484
0.358412
0.357579
0.356933
0.356434
0.356048
0.355749
0.355518
0.355338
0.355198
0.355088
0.355001
0.354932
0.354876
0.354829
0.354791
0.354759
0.354731
0.354707
0.354686
0.354667
0.35465
0.354635
0.354621
0.354609
0.354597
0.354586
0.354576
0.354567
0.354558
0.35455
0.354542
0.354535
0.354529
0.354522
0.354517
0.354511
0.354506
0.354501
0.354497
0.354493
0.354489
0.354485
0.354482
0.354479
0.354476
0.354473
0.35447
0.354468
0.354465
0.354463
0.354461
0.354459
0.354457
0.354456
0.354454
0.354452
0.354451
0.354449
0.354447
0.354446
0.354444
0.354443
0.354441
0.35444
0.354438
0.354437
0.354435
0.354434
0.354432
0.354431
0.35443
0.354428
0.354427
0.354426
0.354426
0.959741
0.88601
0.81855
0.756993
0.701114
0.650767
0.605822
0.566109
0.531388
0.501348
0.475615
0.453774
0.435397
0.420057
0.407348
0.396893
0.388349
0.381411
0.375813
0.371321
0.367737
0.364892
0.362647
0.360881
0.3595
0.358423
0.357586
0.356937
0.356436
0.356048
0.355748
0.355516
0.355336
0.355196
0.355085
0.354998
0.354929
0.354873
0.354827
0.354789
0.354757
0.354729
0.354706
0.354685
0.354666
0.35465
0.354635
0.354621
0.354608
0.354597
0.354586
0.354576
0.354567
0.354558
0.35455
0.354542
0.354535
0.354529
0.354523
0.354517
0.354511
0.354506
0.354502
0.354497
0.354493
0.354489
0.354485
0.354482
0.354479
0.354476
0.354473
0.35447
0.354468
0.354465
0.354463
0.354461
0.354459
0.354457
0.354456
0.354454
0.354452
0.354451
0.354449
0.354447
0.354446
0.354444
0.354443
0.354441
0.35444
0.354438
0.354437
0.354435
0.354434
0.354432
0.354431
0.35443
0.354428
0.354427
0.354427
0.354426
0.959744
0.886022
0.818573
0.757029
0.701164
0.650833
0.605903
0.566203
0.531494
0.501461
0.475732
0.453892
0.435512
0.420167
0.407451
0.396987
0.388433
0.381485
0.375876
0.371373
0.36778
0.364927
0.362674
0.360902
0.359515
0.358433
0.357592
0.356941
0.356437
0.356047
0.355746
0.355513
0.355333
0.355192
0.355082
0.354995
0.354925
0.35487
0.354824
0.354786
0.354754
0.354727
0.354704
0.354683
0.354665
0.354648
0.354634
0.35462
0.354608
0.354596
0.354585
0.354576
0.354566
0.354558
0.35455
0.354542
0.354535
0.354529
0.354523
0.354517
0.354511
0.354506
0.354502
0.354497
0.354493
0.354489
0.354485
0.354482
0.354479
0.354476
0.354473
0.35447
0.354468
0.354465
0.354463
0.354461
0.354459
0.354457
0.354455
0.354454
0.354452
0.35445
0.354449
0.354447
0.354446
0.354444
0.354443
0.354441
0.35444
0.354438
0.354437
0.354435
0.354434
0.354432
0.354431
0.354429
0.354428
0.354427
0.354426
0.354426
0.959748
0.886033
0.818594
0.757062
0.701211
0.650894
0.605978
0.566291
0.531592
0.501567
0.475842
0.454003
0.435621
0.420271
0.407548
0.397075
0.388512
0.381554
0.375935
0.371423
0.367821
0.36496
0.362699
0.360921
0.359528
0.358442
0.357598
0.356943
0.356437
0.356046
0.355743
0.35551
0.355329
0.355188
0.355078
0.354991
0.354921
0.354866
0.35482
0.354783
0.354751
0.354725
0.354701
0.354681
0.354663
0.354647
0.354632
0.354619
0.354606
0.354595
0.354585
0.354575
0.354566
0.354557
0.354549
0.354542
0.354535
0.354528
0.354522
0.354517
0.354511
0.354506
0.354501
0.354497
0.354493
0.354489
0.354485
0.354482
0.354479
0.354476
0.354473
0.35447
0.354468
0.354465
0.354463
0.354461
0.354459
0.354457
0.354455
0.354453
0.354452
0.35445
0.354449
0.354447
0.354445
0.354444
0.354442
0.354441
0.354439
0.354438
0.354436
0.354435
0.354433
0.354432
0.354431
0.354429
0.354428
0.354427
0.354426
0.354426
0.959751
0.886043
0.818614
0.757093
0.701254
0.65095
0.606047
0.566372
0.531682
0.501665
0.475944
0.454106
0.435722
0.420368
0.407639
0.397158
0.388587
0.38162
0.375991
0.37147
0.367859
0.364991
0.362723
0.360939
0.359541
0.358451
0.357603
0.356945
0.356437
0.356044
0.35574
0.355506
0.355324
0.355183
0.355073
0.354986
0.354917
0.354862
0.354816
0.354779
0.354748
0.354721
0.354699
0.354679
0.354661
0.354645
0.35463
0.354617
0.354605
0.354594
0.354584
0.354574
0.354565
0.354557
0.354549
0.354541
0.354534
0.354528
0.354522
0.354516
0.354511
0.354506
0.354501
0.354497
0.354493
0.354489
0.354485
0.354482
0.354478
0.354475
0.354472
0.35447
0.354467
0.354465
0.354463
0.354461
0.354459
0.354457
0.354455
0.354453
0.354451
0.35445
0.354448
0.354447
0.354445
0.354444
0.354442
0.354441
0.354439
0.354438
0.354436
0.354435
0.354433
0.354432
0.35443
0.354429
0.354428
0.354427
0.354426
0.354426
0.959754
0.886053
0.818632
0.757121
0.701293
0.651002
0.606111
0.566446
0.531766
0.501755
0.476038
0.454202
0.435817
0.420459
0.407724
0.397236
0.388656
0.381681
0.376044
0.371515
0.367896
0.36502
0.362745
0.360955
0.359553
0.358458
0.357607
0.356947
0.356436
0.356041
0.355737
0.355502
0.35532
0.355178
0.355068
0.354981
0.354912
0.354857
0.354812
0.354775
0.354744
0.354718
0.354696
0.354676
0.354658
0.354643
0.354628
0.354615
0.354603
0.354592
0.354582
0.354573
0.354564
0.354555
0.354548
0.35454
0.354534
0.354527
0.354521
0.354516
0.35451
0.354505
0.354501
0.354496
0.354492
0.354488
0.354484
0.354481
0.354478
0.354475
0.354472
0.354469
0.354467
0.354464
0.354462
0.35446
0.354458
0.354456
0.354454
0.354453
0.354451
0.354449
0.354448
0.354446
0.354445
0.354443
0.354442
0.35444
0.354439
0.354437
0.354436
0.354434
0.354433
0.354432
0.35443
0.354429
0.354428
0.354427
0.354426
0.354426
0.959756
0.886062
0.818648
0.757147
0.70133
0.651049
0.606169
0.566515
0.531843
0.501839
0.476126
0.45429
0.435904
0.420543
0.407803
0.397309
0.388722
0.381738
0.376093
0.371556
0.36793
0.365047
0.362766
0.36097
0.359563
0.358465
0.35761
0.356947
0.356435
0.356039
0.355733
0.355497
0.355315
0.355173
0.355063
0.354976
0.354907
0.354852
0.354808
0.354771
0.35474
0.354715
0.354692
0.354673
0.354655
0.35464
0.354626
0.354613
0.354602
0.354591
0.354581
0.354571
0.354562
0.354554
0.354547
0.354539
0.354533
0.354526
0.35452
0.354515
0.354509
0.354505
0.3545
0.354495
0.354491
0.354488
0.354484
0.35448
0.354477
0.354474
0.354471
0.354469
0.354466
0.354464
0.354462
0.35446
0.354458
0.354456
0.354454
0.354452
0.35445
0.354449
0.354447
0.354446
0.354444
0.354443
0.354441
0.35444
0.354438
0.354437
0.354436
0.354434
0.354433
0.354431
0.35443
0.354429
0.354428
0.354427
0.354426
0.354425
0.959759
0.88607
0.818664
0.75717
0.701363
0.651093
0.606223
0.566578
0.531914
0.501916
0.476206
0.454373
0.435986
0.420622
0.407877
0.397377
0.388783
0.381792
0.376139
0.371595
0.367961
0.365072
0.362785
0.360985
0.359573
0.358471
0.357613
0.356948
0.356433
0.356036
0.355729
0.355493
0.35531
0.355168
0.355057
0.354971
0.354902
0.354847
0.354803
0.354767
0.354736
0.354711
0.354689
0.354669
0.354653
0.354637
0.354624
0.354611
0.354599
0.354589
0.354579
0.35457
0.354561
0.354553
0.354545
0.354538
0.354532
0.354525
0.354519
0.354514
0.354509
0.354504
0.354499
0.354495
0.354491
0.354487
0.354483
0.35448
0.354477
0.354474
0.354471
0.354468
0.354466
0.354463
0.354461
0.354459
0.354457
0.354455
0.354453
0.354452
0.35445
0.354448
0.354447
0.354445
0.354444
0.354442
0.354441
0.354439
0.354438
0.354437
0.354435
0.354434
0.354432
0.354431
0.35443
0.354428
0.354427
0.354426
0.354426
0.354425
0.959761
0.886078
0.818678
0.757192
0.701393
0.651132
0.606272
0.566636
0.531979
0.501986
0.476281
0.454448
0.436061
0.420694
0.407945
0.39744
0.388839
0.381842
0.376182
0.371631
0.367991
0.365095
0.362803
0.360998
0.359582
0.358476
0.357616
0.356948
0.356432
0.356033
0.355725
0.355488
0.355304
0.355162
0.355052
0.354965
0.354897
0.354842
0.354798
0.354762
0.354732
0.354707
0.354685
0.354666
0.354649
0.354634
0.354621
0.354609
0.354597
0.354587
0.354577
0.354568
0.354559
0.354551
0.354544
0.354537
0.35453
0.354524
0.354518
0.354513
0.354508
0.354503
0.354498
0.354494
0.35449
0.354486
0.354482
0.354479
0.354476
0.354473
0.35447
0.354467
0.354465
0.354463
0.35446
0.354458
0.354456
0.354454
0.354453
0.354451
0.354449
0.354448
0.354446
0.354445
0.354443
0.354442
0.35444
0.354439
0.354438
0.354436
0.354435
0.354433
0.354432
0.354431
0.354429
0.354428
0.354427
0.354426
0.354425
0.354425
0.959763
0.886084
0.81869
0.757212
0.701421
0.651169
0.606317
0.566689
0.532039
0.502051
0.476349
0.454518
0.43613
0.420761
0.408008
0.397498
0.388892
0.381888
0.376222
0.371665
0.368019
0.365117
0.36282
0.36101
0.35959
0.358481
0.357618
0.356948
0.35643
0.35603
0.355721
0.355483
0.355299
0.355157
0.355046
0.35496
0.354892
0.354837
0.354793
0.354758
0.354728
0.354703
0.354681
0.354663
0.354646
0.354632
0.354618
0.354606
0.354595
0.354585
0.354575
0.354566
0.354558
0.35455
0.354543
0.354536
0.354529
0.354523
0.354517
0.354512
0.354507
0.354502
0.354497
0.354493
0.354489
0.354485
0.354482
0.354478
0.354475
0.354472
0.354469
0.354467
0.354464
0.354462
0.35446
0.354458
0.354456
0.354454
0.354452
0.35445
0.354449
0.354447
0.354446
0.354444
0.354443
0.354441
0.35444
0.354438
0.354437
0.354436
0.354434
0.354433
0.354432
0.35443
0.354429
0.354428
0.354427
0.354426
0.354425
0.354425
0.959765
0.886091
0.818702
0.75723
0.701447
0.651202
0.606358
0.566737
0.532094
0.502111
0.476412
0.454582
0.436194
0.420823
0.408067
0.397552
0.388941
0.381931
0.376259
0.371696
0.368044
0.365138
0.362836
0.361021
0.359598
0.358486
0.35762
0.356948
0.356428
0.356027
0.355717
0.355478
0.355294
0.355152
0.355041
0.354954
0.354886
0.354832
0.354789
0.354753
0.354724
0.354699
0.354678
0.354659
0.354643
0.354629
0.354616
0.354604
0.354593
0.354583
0.354573
0.354564
0.354556
0.354548
0.354541
0.354534
0.354528
0.354522
0.354516
0.354511
0.354506
0.354501
0.354496
0.354492
0.354488
0.354484
0.354481
0.354477
0.354474
0.354471
0.354469
0.354466
0.354463
0.354461
0.354459
0.354457
0.354455
0.354453
0.354451
0.35445
0.354448
0.354446
0.354445
0.354443
0.354442
0.354441
0.354439
0.354438
0.354436
0.354435
0.354434
0.354432
0.354431
0.35443
0.354429
0.354427
0.354426
0.354426
0.354425
0.354424
0.959766
0.886097
0.818713
0.757247
0.70147
0.651232
0.606395
0.566781
0.532144
0.502165
0.476469
0.454641
0.436252
0.42088
0.408121
0.397602
0.388986
0.381971
0.376294
0.371725
0.368068
0.365157
0.36285
0.361032
0.359605
0.35849
0.357621
0.356948
0.356426
0.356024
0.355713
0.355474
0.355289
0.355146
0.355036
0.354949
0.354881
0.354827
0.354784
0.354749
0.354719
0.354695
0.354674
0.354656
0.35464
0.354626
0.354613
0.354601
0.35459
0.35458
0.354571
0.354562
0.354554
0.354547
0.35454
0.354533
0.354526
0.35452
0.354515
0.354509
0.354504
0.3545
0.354495
0.354491
0.354487
0.354483
0.35448
0.354477
0.354473
0.354471
0.354468
0.354465
0.354463
0.35446
0.354458
0.354456
0.354454
0.354452
0.354451
0.354449
0.354447
0.354446
0.354444
0.354443
0.354441
0.35444
0.354439
0.354437
0.354436
0.354435
0.354433
0.354432
0.354431
0.354429
0.354428
0.354427
0.354426
0.354425
0.354425
0.354424
0.959768
0.886102
0.818723
0.757262
0.701491
0.65126
0.60643
0.566821
0.532189
0.502215
0.476522
0.454695
0.436306
0.420932
0.40817
0.397648
0.389028
0.382008
0.376326
0.371752
0.36809
0.365174
0.362864
0.361042
0.359611
0.358493
0.357623
0.356947
0.356424
0.35602
0.355709
0.355469
0.355284
0.355141
0.35503
0.354944
0.354876
0.354822
0.354779
0.354744
0.354715
0.354691
0.35467
0.354652
0.354637
0.354623
0.35461
0.354599
0.354588
0.354578
0.354569
0.35456
0.354553
0.354545
0.354538
0.354531
0.354525
0.354519
0.354514
0.354508
0.354503
0.354499
0.354494
0.35449
0.354486
0.354482
0.354479
0.354476
0.354473
0.35447
0.354467
0.354464
0.354462
0.35446
0.354457
0.354455
0.354453
0.354452
0.35445
0.354448
0.354447
0.354445
0.354444
0.354442
0.354441
0.354439
0.354438
0.354437
0.354435
0.354434
0.354433
0.354431
0.35443
0.354429
0.354428
0.354427
0.354426
0.354425
0.354424
0.354424
0.95977
0.886107
0.818732
0.757276
0.701511
0.651285
0.606461
0.566858
0.532231
0.502261
0.47657
0.454745
0.436356
0.42098
0.408216
0.397691
0.389066
0.382042
0.376355
0.371777
0.368111
0.36519
0.362876
0.361051
0.359617
0.358497
0.357624
0.356946
0.356422
0.356017
0.355705
0.355465
0.35528
0.355136
0.355025
0.354939
0.354871
0.354818
0.354775
0.35474
0.354711
0.354687
0.354667
0.354649
0.354634
0.35462
0.354607
0.354596
0.354586
0.354576
0.354567
0.354559
0.354551
0.354543
0.354536
0.35453
0.354524
0.354518
0.354512
0.354507
0.354502
0.354498
0.354493
0.354489
0.354485
0.354481
0.354478
0.354475
0.354472
0.354469
0.354466
0.354463
0.354461
0.354459
0.354457
0.354455
0.354453
0.354451
0.354449
0.354447
0.354446
0.354444
0.354443
0.354441
0.35444
0.354439
0.354437
0.354436
0.354435
0.354433
0.354432
0.354431
0.35443
0.354429
0.354427
0.354426
0.354425
0.354425
0.354424
0.354423
0.959771
0.886111
0.81874
0.757289
0.701529
0.651309
0.606489
0.566892
0.532269
0.502303
0.476614
0.45479
0.436401
0.421024
0.408258
0.39773
0.389102
0.382074
0.376383
0.3718
0.36813
0.365205
0.362887
0.361059
0.359623
0.3585
0.357625
0.356946
0.35642
0.356014
0.355702
0.355461
0.355275
0.355132
0.355021
0.354934
0.354867
0.354813
0.35477
0.354736
0.354707
0.354684
0.354663
0.354646
0.354631
0.354617
0.354605
0.354594
0.354583
0.354574
0.354565
0.354557
0.354549
0.354542
0.354535
0.354528
0.354522
0.354516
0.354511
0.354506
0.354501
0.354496
0.354492
0.354488
0.354484
0.354481
0.354477
0.354474
0.354471
0.354468
0.354465
0.354463
0.35446
0.354458
0.354456
0.354454
0.354452
0.35445
0.354448
0.354447
0.354445
0.354444
0.354442
0.354441
0.354439
0.354438
0.354437
0.354435
0.354434
0.354433
0.354432
0.35443
0.354429
0.354428
0.354427
0.354426
0.354425
0.354424
0.354424
0.354423
0.959772
0.886116
0.818748
0.7573
0.701545
0.65133
0.606515
0.566922
0.532304
0.502341
0.476655
0.454831
0.436442
0.421065
0.408297
0.397766
0.389134
0.382103
0.376408
0.371821
0.368147
0.365219
0.362898
0.361066
0.359628
0.358503
0.357626
0.356945
0.356418
0.356012
0.355698
0.355457
0.355271
0.355127
0.355016
0.35493
0.354862
0.354809
0.354766
0.354732
0.354704
0.35468
0.35466
0.354643
0.354628
0.354614
0.354602
0.354591
0.354581
0.354572
0.354563
0.354555
0.354547
0.35454
0.354533
0.354527
0.354521
0.354515
0.35451
0.354505
0.3545
0.354495
0.354491
0.354487
0.354483
0.35448
0.354476
0.354473
0.35447
0.354467
0.354464
0.354462
0.354459
0.354457
0.354455
0.354453
0.354451
0.354449
0.354448
0.354446
0.354444
0.354443
0.354441
0.35444
0.354439
0.354437
0.354436
0.354435
0.354434
0.354432
0.354431
0.35443
0.354429
0.354428
0.354427
0.354426
0.354425
0.354424
0.354423
0.354423
0.959773
0.886119
0.818755
0.757311
0.701559
0.651349
0.606539
0.56695
0.532336
0.502375
0.476691
0.454869
0.43648
0.421102
0.408332
0.397799
0.389164
0.38213
0.376431
0.371841
0.368163
0.365232
0.362908
0.361074
0.359632
0.358505
0.357627
0.356945
0.356417
0.356009
0.355695
0.355453
0.355266
0.355123
0.355012
0.354925
0.354858
0.354805
0.354762
0.354728
0.3547
0.354677
0.354657
0.35464
0.354625
0.354612
0.3546
0.354589
0.354579
0.35457
0.354561
0.354553
0.354546
0.354538
0.354532
0.354525
0.35452
0.354514
0.354509
0.354504
0.354499
0.354494
0.35449
0.354486
0.354482
0.354479
0.354475
0.354472
0.354469
0.354466
0.354463
0.354461
0.354459
0.354456
0.354454
0.354452
0.35445
0.354449
0.354447
0.354445
0.354444
0.354442
0.354441
0.354439
0.354438
0.354437
0.354435
0.354434
0.354433
0.354432
0.354431
0.354429
0.354428
0.354427
0.354426
0.354425
0.354424
0.354424
0.354423
0.354422
0.959774
0.886123
0.818761
0.757321
0.701573
0.651366
0.60656
0.566976
0.532364
0.502407
0.476725
0.454904
0.436515
0.421136
0.408365
0.397829
0.389192
0.382154
0.376452
0.371859
0.368178
0.365244
0.362917
0.36108
0.359637
0.358507
0.357627
0.356944
0.356415
0.356006
0.355692
0.355449
0.355262
0.355119
0.355007
0.354921
0.354854
0.354801
0.354758
0.354724
0.354696
0.354673
0.354654
0.354637
0.354622
0.354609
0.354597
0.354587
0.354577
0.354568
0.354559
0.354551
0.354544
0.354537
0.35453
0.354524
0.354518
0.354513
0.354507
0.354502
0.354498
0.354493
0.354489
0.354485
0.354481
0.354478
0.354474
0.354471
0.354468
0.354465
0.354463
0.35446
0.354458
0.354456
0.354453
0.354451
0.35445
0.354448
0.354446
0.354444
0.354443
0.354441
0.35444
0.354439
0.354437
0.354436
0.354435
0.354434
0.354432
0.354431
0.35443
0.354429
0.354428
0.354427
0.354426
0.354425
0.354424
0.354423
0.354423
0.354422
0.959775
0.886126
0.818767
0.757329
0.701585
0.651382
0.60658
0.566999
0.53239
0.502435
0.476755
0.454935
0.436547
0.421167
0.408394
0.397857
0.389217
0.382177
0.376472
0.371876
0.368192
0.365255
0.362925
0.361086
0.359641
0.358509
0.357628
0.356943
0.356413
0.356004
0.355689
0.355446
0.355259
0.355115
0.355003
0.354917
0.35485
0.354797
0.354755
0.354721
0.354693
0.35467
0.354651
0.354634
0.354619
0.354607
0.354595
0.354584
0.354575
0.354566
0.354557
0.35455
0.354542
0.354535
0.354529
0.354523
0.354517
0.354511
0.354506
0.354501
0.354497
0.354492
0.354488
0.354484
0.35448
0.354477
0.354473
0.35447
0.354467
0.354465
0.354462
0.354459
0.354457
0.354455
0.354453
0.354451
0.354449
0.354447
0.354445
0.354444
0.354442
0.354441
0.354439
0.354438
0.354437
0.354436
0.354434
0.354433
0.354432
0.354431
0.35443
0.354428
0.354427