/*--------------------------------*- C++ -*----------------------------------*\
  =========                 |
  \\      /  F ield         | OpenFOAM: The Open Source CFD Toolbox
   \\    /   O peration     | Website:  https://openfoam.org
    \\  /    A nd           | Version:  11
     \\/     M anipulation  |
\*---------------------------------------------------------------------------*/
FoamFile
{
    format      ascii;
    class       surfaceScalarField;
    location    "22";
    object      phi;
}
// * * * * * * * * * * * * * * * * * * * * * * * * * * * * * * * * * * * * * //

dimensions      [0 3 -1 0 0 0 0];

internalField   nonuniform List<scalar> 
19800
(
1.97974e-05
-1.10821e-06
1.9512e-05
-3.06549e-06
1.91962e-05
-4.90449e-06
1.88426e-05
-6.70205e-06
1.84484e-05
-8.44079e-06
1.80137e-05
-1.00954e-05
1.75432e-05
-1.16423e-05
1.70438e-05
-1.30633e-05
1.65225e-05
-1.43463e-05
1.59859e-05
-1.54845e-05
1.54398e-05
-1.6476e-05
1.4889e-05
-1.73224e-05
1.4338e-05
-1.80278e-05
1.37914e-05
-1.85986e-05
1.32502e-05
-1.90414e-05
1.27031e-05
-1.93621e-05
1.21421e-05
-1.95708e-05
1.15896e-05
-1.96816e-05
1.10685e-05
-1.97037e-05
1.05776e-05
-1.96389e-05
1.01035e-05
-1.94961e-05
9.64163e-06
-1.92891e-05
9.19408e-06
-1.90279e-05
8.76238e-06
-1.872e-05
8.34736e-06
-1.8373e-05
7.9495e-06
-1.79941e-05
7.56904e-06
-1.75898e-05
7.20603e-06
-1.7166e-05
6.86033e-06
-1.6728e-05
6.53166e-06
-1.62805e-05
6.21964e-06
-1.58273e-05
5.92381e-06
-1.5372e-05
5.64362e-06
-1.49174e-05
5.3785e-06
-1.44658e-05
5.12781e-06
-1.40192e-05
4.89091e-06
-1.35793e-05
4.66715e-06
-1.31472e-05
4.45586e-06
-1.27238e-05
4.25638e-06
-1.231e-05
4.06809e-06
-1.19061e-05
3.89034e-06
-1.15126e-05
3.72254e-06
-1.11297e-05
3.5641e-06
-1.07574e-05
3.41447e-06
-1.03957e-05
3.27311e-06
-1.00445e-05
3.13953e-06
-9.70365e-06
3.01324e-06
-9.37303e-06
2.8938e-06
-9.05237e-06
2.7808e-06
-8.74142e-06
2.67383e-06
-8.43991e-06
2.57253e-06
-8.14756e-06
2.47656e-06
-7.86407e-06
2.38558e-06
-7.58915e-06
2.29931e-06
-7.32251e-06
2.21746e-06
-7.06384e-06
2.13978e-06
-6.81286e-06
2.06602e-06
-6.56929e-06
1.99596e-06
-6.33283e-06
1.9294e-06
-6.10323e-06
1.86613e-06
-5.8802e-06
1.80598e-06
-5.66349e-06
1.74878e-06
-5.45285e-06
1.69439e-06
-5.24804e-06
1.64264e-06
-5.04882e-06
1.59342e-06
-4.85497e-06
1.5466e-06
-4.66627e-06
1.50206e-06
-4.4825e-06
1.4597e-06
-4.30348e-06
1.41942e-06
-4.12901e-06
1.38112e-06
-3.95892e-06
1.34472e-06
-3.79302e-06
1.31014e-06
-3.63117e-06
1.2773e-06
-3.47322e-06
1.24613e-06
-3.31904e-06
1.21658e-06
-3.1685e-06
1.18857e-06
-3.02151e-06
1.16205e-06
-2.87799e-06
1.13697e-06
-2.73786e-06
1.11328e-06
-2.6011e-06
1.09093e-06
-2.46768e-06
1.06987e-06
-2.33761e-06
1.05007e-06
-2.21093e-06
1.03148e-06
-2.08773e-06
1.01407e-06
-1.9681e-06
9.97801e-07
-1.8522e-06
9.8264e-07
-1.74022e-06
9.68556e-07
-1.63239e-06
9.5552e-07
-1.52898e-06
9.43504e-07
-1.43032e-06
9.32483e-07
-1.33678e-06
9.22433e-07
-1.24876e-06
9.13333e-07
-1.16673e-06
9.05166e-07
-1.09119e-06
8.97922e-07
-1.02267e-06
8.91595e-07
-9.61782e-07
8.86183e-07
-9.09145e-07
8.8169e-07
-8.65452e-07
8.78125e-07
-8.31465e-07
8.75385e-07
-8.08157e-07
-7.95959e-07
1.98457e-05
-9.53862e-07
1.95789e-05
-2.79873e-06
1.92658e-05
-4.59135e-06
1.89087e-05
-6.34502e-06
1.8509e-05
-8.04104e-06
1.80694e-05
-9.65579e-06
1.75954e-05
-1.11683e-05
1.70936e-05
-1.25615e-05
1.65707e-05
-1.38234e-05
1.60326e-05
-1.49465e-05
1.54848e-05
-1.59282e-05
1.49316e-05
-1.67692e-05
1.43767e-05
-1.74728e-05
1.38224e-05
-1.80444e-05
1.327e-05
-1.8489e-05
1.2722e-05
-1.88141e-05
1.21821e-05
-1.90309e-05
1.16532e-05
-1.91527e-05
1.1136e-05
-1.91865e-05
1.06348e-05
-1.91377e-05
1.01518e-05
-1.9013e-05
9.68596e-06
-1.88232e-05
9.23659e-06
-1.85785e-05
8.80393e-06
-1.82873e-05
8.38838e-06
-1.79575e-05
7.9902e-06
-1.75959e-05
7.60953e-06
-1.72091e-05
7.24633e-06
-1.68028e-05
6.90042e-06
-1.63821e-05
6.57151e-06
-1.59516e-05
6.25921e-06
-1.5515e-05
5.96304e-06
-1.50758e-05
5.68246e-06
-1.46368e-05
5.41688e-06
-1.42002e-05
5.16568e-06
-1.3768e-05
4.92822e-06
-1.33418e-05
4.70386e-06
-1.29228e-05
4.49192e-06
-1.25119e-05
4.29176e-06
-1.21098e-05
4.10275e-06
-1.17171e-05
3.92427e-06
-1.13342e-05
3.75571e-06
-1.09611e-05
3.5965e-06
-1.05982e-05
3.44608e-06
-1.02452e-05
3.30394e-06
-9.90232e-06
3.16957e-06
-9.56928e-06
3.0425e-06
-9.24596e-06
2.92228e-06
-8.93215e-06
2.8085e-06
-8.62764e-06
2.70078e-06
-8.33218e-06
2.59873e-06
-8.04551e-06
2.50202e-06
-7.76736e-06
2.41033e-06
-7.49746e-06
2.32335e-06
-7.23553e-06
2.24082e-06
-6.98131e-06
2.16248e-06
-6.73452e-06
2.08807e-06
-6.49488e-06
2.01739e-06
-6.26215e-06
1.95022e-06
-6.03605e-06
1.88636e-06
-5.81634e-06
1.82565e-06
-5.60278e-06
1.76791e-06
-5.39511e-06
1.71298e-06
-5.19312e-06
1.66073e-06
-4.99657e-06
1.61103e-06
-4.80526e-06
1.56374e-06
-4.61898e-06
1.51875e-06
-4.43752e-06
1.47596e-06
-4.26069e-06
1.43526e-06
-4.08832e-06
1.39657e-06
-3.92022e-06
1.35979e-06
-3.75624e-06
1.32485e-06
-3.59623e-06
1.29166e-06
-3.44004e-06
1.26017e-06
-3.28754e-06
1.2303e-06
-3.13863e-06
1.202e-06
-2.99321e-06
1.1752e-06
-2.85119e-06
1.14985e-06
-2.71252e-06
1.12591e-06
-2.57715e-06
1.10332e-06
-2.44508e-06
1.08204e-06
-2.31633e-06
1.06202e-06
-2.19092e-06
1.04324e-06
-2.06894e-06
1.02564e-06
-1.9505e-06
1.00919e-06
-1.83576e-06
9.9387e-07
-1.7249e-06
9.79633e-07
-1.61815e-06
9.66455e-07
-1.5158e-06
9.54305e-07
-1.41817e-06
9.43157e-07
-1.32563e-06
9.32986e-07
-1.23859e-06
9.23769e-07
-1.15751e-06
9.15486e-07
-1.0829e-06
9.08121e-07
-1.01531e-06
9.0166e-07
-9.55321e-07
8.96089e-07
-9.03574e-07
8.91387e-07
-8.60749e-07
8.87496e-07
-8.27574e-07
8.84155e-07
-8.04816e-07
-7.93086e-07
1.98842e-05
-8.38018e-07
1.96562e-05
-2.57076e-06
1.93589e-05
-4.29404e-06
1.90054e-05
-5.99155e-06
1.86042e-05
-7.63978e-06
1.81621e-05
-9.21374e-06
1.76862e-05
-1.06924e-05
1.7183e-05
-1.20584e-05
1.6659e-05
-1.32993e-05
1.61197e-05
-1.44072e-05
1.55702e-05
-1.53787e-05
1.50147e-05
-1.62137e-05
1.44569e-05
-1.6915e-05
1.38995e-05
-1.7487e-05
1.33459e-05
-1.79354e-05
1.27999e-05
-1.8268e-05
1.22637e-05
-1.84947e-05
1.17375e-05
-1.86265e-05
1.12224e-05
-1.86715e-05
1.07209e-05
-1.86361e-05
1.02354e-05
-1.85275e-05
9.76687e-06
-1.83547e-05
9.31557e-06
-1.81272e-05
8.88163e-06
-1.78534e-05
8.46519e-06
-1.7541e-05
8.06637e-06
-1.71971e-05
7.68517e-06
-1.68279e-05
7.32147e-06
-1.64391e-05
6.97506e-06
-1.60357e-05
6.64561e-06
-1.56221e-05
6.33269e-06
-1.52021e-05
6.03582e-06
-1.4779e-05
5.75446e-06
-1.43554e-05
5.48801e-06
-1.39338e-05
5.23586e-06
-1.35159e-05
4.99737e-06
-1.31033e-05
4.77189e-06
-1.26973e-05
4.55877e-06
-1.22988e-05
4.35738e-06
-1.19084e-05
4.16709e-06
-1.15268e-05
3.98727e-06
-1.11544e-05
3.81735e-06
-1.07912e-05
3.65675e-06
-1.04376e-05
3.50493e-06
-1.00934e-05
3.36137e-06
-9.75876e-06
3.22558e-06
-9.43349e-06
3.0971e-06
-9.11747e-06
2.97548e-06
-8.81053e-06
2.86031e-06
-8.51247e-06
2.7512e-06
-8.22308e-06
2.6478e-06
-7.94211e-06
2.54976e-06
-7.66932e-06
2.45677e-06
-7.40446e-06
2.36852e-06
-7.14729e-06
2.28475e-06
-6.89754e-06
2.20519e-06
-6.65496e-06
2.12961e-06
-6.4193e-06
2.05778e-06
-6.19032e-06
1.9895e-06
-5.96777e-06
1.92457e-06
-5.75142e-06
1.86281e-06
-5.54102e-06
1.80407e-06
-5.33637e-06
1.74818e-06
-5.13723e-06
1.695e-06
-4.94339e-06
1.64439e-06
-4.75466e-06
1.59624e-06
-4.57082e-06
1.55042e-06
-4.3917e-06
1.50683e-06
-4.2171e-06
1.46537e-06
-4.04685e-06
1.42594e-06
-3.88079e-06
1.38846e-06
-3.71876e-06
1.35284e-06
-3.56061e-06
1.31902e-06
-3.40621e-06
1.28691e-06
-3.25544e-06
1.25646e-06
-3.10818e-06
1.2276e-06
-2.96435e-06
1.20028e-06
-2.82386e-06
1.17443e-06
-2.68667e-06
1.15001e-06
-2.55274e-06
1.12698e-06
-2.42205e-06
1.10527e-06
-2.29462e-06
1.08486e-06
-2.17051e-06
1.0657e-06
-2.04978e-06
1.04775e-06
-1.93256e-06
1.03098e-06
-1.81899e-06
1.01535e-06
-1.70927e-06
1.00082e-06
-1.60363e-06
9.87373e-07
-1.50235e-06
9.74966e-07
-1.40577e-06
9.63574e-07
-1.31424e-06
9.53167e-07
-1.22818e-06
9.43718e-07
-1.14806e-06
9.352e-07
-1.07439e-06
9.27584e-07
-1.00769e-06
9.20839e-07
-9.48576e-07
9.14925e-07
-8.9766e-07
9.09779e-07
-8.55603e-07
9.05285e-07
-8.23081e-07
9.01239e-07
-8.00769e-07
-7.89353e-07
1.99157e-05
-7.53742e-07
1.97171e-05
-2.3721e-06
1.94401e-05
-4.01703e-06
1.90996e-05
-5.65108e-06
1.87062e-05
-7.24644e-06
1.82694e-05
-8.77685e-06
1.7797e-05
-1.022e-05
1.72964e-05
-1.15578e-05
1.6774e-05
-1.27769e-05
1.62356e-05
-1.38688e-05
1.56863e-05
-1.48294e-05
1.51305e-05
-1.56579e-05
1.4572e-05
-1.63565e-05
1.40144e-05
-1.69294e-05
1.3461e-05
-1.73821e-05
1.29151e-05
-1.77221e-05
1.23791e-05
-1.79587e-05
1.18536e-05
-1.8101e-05
1.13394e-05
-1.81573e-05
1.08381e-05
-1.81349e-05
1.0352e-05
-1.80414e-05
9.88231e-06
-1.78851e-05
9.4298e-06
-1.76747e-05
8.99477e-06
-1.74184e-05
8.57739e-06
-1.71236e-05
8.17771e-06
-1.67974e-05
7.79568e-06
-1.64459e-05
7.43114e-06
-1.60746e-05
7.08383e-06
-1.56884e-05
6.75339e-06
-1.52917e-05
6.43939e-06
-1.48881e-05
6.14133e-06
-1.44809e-05
5.85867e-06
-1.40728e-05
5.59081e-06
-1.36659e-05
5.33714e-06
-1.32622e-05
5.09702e-06
-1.28632e-05
4.86983e-06
-1.24701e-05
4.65493e-06
-1.20839e-05
4.45168e-06
-1.17052e-05
4.25946e-06
-1.13346e-05
4.07769e-06
-1.09726e-05
3.90577e-06
-1.06193e-05
3.74314e-06
-1.02749e-05
3.58929e-06
-9.93956e-06
3.44368e-06
-9.61316e-06
3.30585e-06
-9.29566e-06
3.17534e-06
-8.98695e-06
3.0517e-06
-8.6869e-06
2.93454e-06
-8.39531e-06
2.82347e-06
-8.11201e-06
2.71814e-06
-7.83677e-06
2.61821e-06
-7.56938e-06
2.52336e-06
-7.30961e-06
2.4333e-06
-7.05723e-06
2.34776e-06
-6.812e-06
2.26648e-06
-6.57368e-06
2.18922e-06
-6.34205e-06
2.11577e-06
-6.11687e-06
2.04592e-06
-5.89791e-06
1.97946e-06
-5.68496e-06
1.91623e-06
-5.47779e-06
1.85606e-06
-5.2762e-06
1.7988e-06
-5.07996e-06
1.74429e-06
-4.88888e-06
1.6924e-06
-4.70277e-06
1.64302e-06
-4.52144e-06
1.59602e-06
-4.3447e-06
1.55129e-06
-4.17237e-06
1.50874e-06
-4.0043e-06
1.46827e-06
-3.84032e-06
1.42979e-06
-3.68028e-06
1.39321e-06
-3.52404e-06
1.35847e-06
-3.37147e-06
1.3255e-06
-3.22246e-06
1.29421e-06
-3.0769e-06
1.26456e-06
-2.9347e-06
1.23649e-06
-2.79578e-06
1.20993e-06
-2.66011e-06
1.18483e-06
-2.52764e-06
1.16115e-06
-2.39837e-06
1.13884e-06
-2.27231e-06
1.11786e-06
-2.14953e-06
1.09817e-06
-2.03008e-06
1.07971e-06
-1.9141e-06
1.06247e-06
-1.80174e-06
1.04639e-06
-1.69319e-06
1.03145e-06
-1.58869e-06
1.0176e-06
-1.48851e-06
1.00482e-06
-1.39299e-06
9.93075e-07
-1.30249e-06
9.82322e-07
-1.21743e-06
9.72531e-07
-1.13827e-06
9.63665e-07
-1.06552e-06
9.55683e-07
-9.99712e-07
9.48536e-07
-9.41429e-07
9.4216e-07
-8.91284e-07
9.36465e-07
-8.49909e-07
9.31325e-07
-8.17941e-07
9.26574e-07
-7.96018e-07
-7.84828e-07
1.99341e-05
-6.87864e-07
1.97612e-05
-2.19919e-06
1.95069e-05
-3.76278e-06
1.91849e-05
-5.32901e-06
1.8806e-05
-6.86757e-06
1.83803e-05
-8.35119e-06
1.79167e-05
-9.75634e-06
1.74228e-05
-1.10639e-05
1.69055e-05
-1.22596e-05
1.6371e-05
-1.33343e-05
1.58245e-05
-1.42829e-05
1.52707e-05
-1.51042e-05
1.47138e-05
-1.57996e-05
1.41575e-05
-1.63731e-05
1.36053e-05
-1.68298e-05
1.30602e-05
-1.7177e-05
1.25243e-05
-1.74228e-05
1.19988e-05
-1.75756e-05
1.1485e-05
-1.76434e-05
1.09842e-05
-1.76341e-05
1.04982e-05
-1.75553e-05
1.00282e-05
-1.74151e-05
9.57501e-06
-1.72215e-05
9.13919e-06
-1.69825e-05
8.72093e-06
-1.67054e-05
8.32031e-06
-1.63968e-05
7.93726e-06
-1.60628e-05
7.5716e-06
-1.57089e-05
7.22306e-06
-1.53399e-05
6.89126e-06
-1.49599e-05
6.57577e-06
-1.45726e-05
6.27607e-06
-1.41812e-05
5.99163e-06
-1.37883e-05
5.72186e-06
-1.33961e-05
5.46616e-06
-1.30065e-05
5.22391e-06
-1.2621e-05
4.99447e-06
-1.22407e-05
4.77723e-06
-1.18666e-05
4.57157e-06
-1.14995e-05
4.37688e-06
-1.11399e-05
4.19258e-06
-1.07883e-05
4.01811e-06
-1.04448e-05
3.85291e-06
-1.01097e-05
3.69646e-06
-9.78311e-06
3.54826e-06
-9.46496e-06
3.40785e-06
-9.15524e-06
3.27476e-06
-8.85387e-06
3.14858e-06
-8.56072e-06
3.02891e-06
-8.27564e-06
2.91537e-06
-7.99847e-06
2.8076e-06
-7.72901e-06
2.70528e-06
-7.46706e-06
2.6081e-06
-7.21243e-06
2.51576e-06
-6.96489e-06
2.428e-06
-6.72423e-06
2.34455e-06
-6.49024e-06
2.26519e-06
-6.26269e-06
2.1897e-06
-6.04137e-06
2.11786e-06
-5.82607e-06
2.04948e-06
-5.61659e-06
1.98439e-06
-5.41271e-06
1.92243e-06
-5.21423e-06
1.86343e-06
-5.02096e-06
1.80724e-06
-4.8327e-06
1.75375e-06
-4.64928e-06
1.70281e-06
-4.4705e-06
1.65432e-06
-4.2962e-06
1.60815e-06
-4.12621e-06
1.56422e-06
-3.96037e-06
1.52243e-06
-3.79853e-06
1.48268e-06
-3.64053e-06
1.4449e-06
-3.48626e-06
1.409e-06
-3.33558e-06
1.37492e-06
-3.18838e-06
1.34258e-06
-3.04456e-06
1.31193e-06
-2.90404e-06
1.28289e-06
-2.76675e-06
1.25543e-06
-2.63264e-06
1.22947e-06
-2.50169e-06
1.20498e-06
-2.37388e-06
1.18191e-06
-2.24924e-06
1.1602e-06
-2.12782e-06
1.13982e-06
-2.0097e-06
1.12072e-06
-1.89501e-06
1.10287e-06
-1.78389e-06
1.08623e-06
-1.67654e-06
1.07075e-06
-1.57321e-06
1.05639e-06
-1.47416e-06
1.04313e-06
-1.37973e-06
1.03092e-06
-1.29028e-06
1.01972e-06
-1.20623e-06
1.00949e-06
-1.12804e-06
1.00018e-06
-1.05621e-06
9.91742e-07
-9.9127e-07
9.84104e-07
-9.33791e-07
9.7719e-07
-8.84369e-07
9.70898e-07
-8.43617e-07
9.65102e-07
-8.12144e-07
9.59649e-07
-7.90565e-07
-7.79556e-07
1.99459e-05
-6.33808e-07
1.97948e-05
-2.04809e-06
1.95628e-05
-3.53071e-06
1.9261e-05
-5.02722e-06
1.88999e-05
-6.50645e-06
1.84893e-05
-7.94062e-06
1.80383e-05
-9.30529e-06
1.75548e-05
-1.05804e-05
1.7046e-05
-1.17509e-05
1.65183e-05
-1.28066e-05
1.59773e-05
-1.37419e-05
1.5428e-05
-1.45548e-05
1.48747e-05
-1.52464e-05
1.43214e-05
-1.58197e-05
1.37715e-05
-1.628e-05
1.32281e-05
-1.66335e-05
1.26932e-05
-1.68879e-05
1.21685e-05
-1.70509e-05
1.16554e-05
-1.71304e-05
1.11554e-05
-1.71341e-05
1.06698e-05
-1.70697e-05
1.01999e-05
-1.69451e-05
9.74645e-06
-1.67681e-05
9.3101e-06
-1.65462e-05
8.8911e-06
-1.62864e-05
8.48955e-06
-1.59952e-05
8.10539e-06
-1.56787e-05
7.73845e-06
-1.5342e-05
7.38844e-06
-1.49898e-05
7.055e-06
-1.46264e-05
6.73769e-06
-1.42553e-05
6.43601e-06
-1.38795e-05
6.14943e-06
-1.35017e-05
5.87736e-06
-1.31241e-05
5.61921e-06
-1.27484e-05
5.37439e-06
-1.23761e-05
5.14227e-06
-1.20086e-05
4.92225e-06
-1.16466e-05
4.71372e-06
-1.1291e-05
4.51611e-06
-1.09423e-05
4.32884e-06
-1.0601e-05
4.15135e-06
-1.02673e-05
3.98311e-06
-9.9415e-06
3.82361e-06
-9.62362e-06
3.67236e-06
-9.31372e-06
3.52891e-06
-9.01179e-06
3.39281e-06
-8.71777e-06
3.26365e-06
-8.43156e-06
3.14103e-06
-8.15302e-06
3.02458e-06
-7.88202e-06
2.91397e-06
-7.61839e-06
2.80885e-06
-7.36195e-06
2.70893e-06
-7.11251e-06
2.61391e-06
-6.86988e-06
2.52354e-06
-6.63386e-06
2.43755e-06
-6.40425e-06
2.35572e-06
-6.18085e-06
2.27782e-06
-5.96347e-06
2.20365e-06
-5.7519e-06
2.13302e-06
-5.54595e-06
2.06574e-06
-5.34543e-06
2.00166e-06
-5.15015e-06
1.94061e-06
-4.95991e-06
1.88246e-06
-4.77455e-06
1.82706e-06
-4.59388e-06
1.77429e-06
-4.41773e-06
1.72403e-06
-4.24595e-06
1.67618e-06
-4.07836e-06
1.63062e-06
-3.91481e-06
1.58726e-06
-3.75517e-06
1.54602e-06
-3.59929e-06
1.5068e-06
-3.44704e-06
1.46953e-06
-3.29831e-06
1.43414e-06
-3.15298e-06
1.40056e-06
-3.01097e-06
1.36871e-06
-2.8722e-06
1.33855e-06
-2.73659e-06
1.31e-06
-2.6041e-06
1.28303e-06
-2.47471e-06
1.25757e-06
-2.34842e-06
1.23358e-06
-2.22525e-06
1.21101e-06
-2.10525e-06
1.18981e-06
-1.98851e-06
1.16995e-06
-1.87514e-06
1.15137e-06
-1.76531e-06
1.13405e-06
-1.65922e-06
1.11792e-06
-1.55708e-06
1.10296e-06
-1.4592e-06
1.08913e-06
-1.36589e-06
1.07636e-06
-1.27752e-06
1.06463e-06
-1.1945e-06
1.05388e-06
-1.11729e-06
1.04404e-06
-1.04638e-06
1.03507e-06
-9.82294e-07
1.02687e-06
-9.25598e-07
1.01937e-06
-8.76869e-07
1.01246e-06
-8.36701e-07
1.006e-06
-8.05685e-07
9.99852e-07
-7.84419e-07
-7.7357e-07
1.99548e-05
-5.88603e-07
1.98216e-05
-1.9149e-06
1.96097e-05
-3.3188e-06
1.93281e-05
-4.74565e-06
1.89862e-05
-6.16448e-06
1.8593e-05
-7.54746e-06
1.81573e-05
-8.86962e-06
1.76872e-05
-1.01102e-05
1.71898e-05
-1.12535e-05
1.66717e-05
-1.22885e-05
1.61388e-05
-1.3209e-05
1.55963e-05
-1.40123e-05
1.50487e-05
-1.46987e-05
1.45e-05
-1.52711e-05
1.39539e-05
-1.57339e-05
1.34133e-05
-1.60929e-05
1.28805e-05
-1.63551e-05
1.23576e-05
-1.65279e-05
1.18459e-05
-1.66187e-05
1.13471e-05
-1.66352e-05
1.08623e-05
-1.6585e-05
1.03929e-05
-1.64757e-05
9.93962e-06
-1.63148e-05
9.50302e-06
-1.61096e-05
9.08345e-06
-1.58668e-05
8.68105e-06
-1.55928e-05
8.29577e-06
-1.52934e-05
7.92746e-06
-1.49737e-05
7.57585e-06
-1.46382e-05
7.24059e-06
-1.42912e-05
6.92124e-06
-1.3936e-05
6.61732e-06
-1.35756e-05
6.3283e-06
-1.32127e-05
6.05363e-06
-1.28494e-05
5.79272e-06
-1.24875e-05
5.545e-06
-1.21284e-05
5.30985e-06
-1.17734e-05
5.0867e-06
-1.14234e-05
4.87496e-06
-1.10793e-05
4.67406e-06
-1.07414e-05
4.48344e-06
-1.04104e-05
4.30257e-06
-1.00865e-05
4.13092e-06
-9.76985e-06
3.96801e-06
-9.4607e-06
3.81335e-06
-9.15906e-06
3.6665e-06
-8.86494e-06
3.52702e-06
-8.57829e-06
3.39452e-06
-8.29905e-06
3.2686e-06
-8.0271e-06
3.1489e-06
-7.76233e-06
3.03508e-06
-7.50458e-06
2.92683e-06
-7.25369e-06
2.82384e-06
-7.00951e-06
2.72582e-06
-6.77186e-06
2.63252e-06
-6.54055e-06
2.54367e-06
-6.31541e-06
2.45906e-06
-6.09624e-06
2.37846e-06
-5.88287e-06
2.30166e-06
-5.67511e-06
2.22848e-06
-5.47278e-06
2.15875e-06
-5.27569e-06
2.09228e-06
-5.08368e-06
2.02893e-06
-4.89656e-06
1.96855e-06
-4.71417e-06
1.911e-06
-4.53633e-06
1.85617e-06
-4.3629e-06
1.80391e-06
-4.1937e-06
1.75414e-06
-4.02858e-06
1.70674e-06
-3.86741e-06
1.66162e-06
-3.71004e-06
1.61868e-06
-3.55635e-06
1.57783e-06
-3.4062e-06
1.53901e-06
-3.25949e-06
1.50213e-06
-3.11611e-06
1.46713e-06
-2.97597e-06
1.43393e-06
-2.839e-06
1.40248e-06
-2.70513e-06
1.37271e-06
-2.57433e-06
1.34458e-06
-2.44658e-06
1.31802e-06
-2.32186e-06
1.29298e-06
-2.20021e-06
1.26943e-06
-2.08169e-06
1.2473e-06
-1.96638e-06
1.22656e-06
-1.8544e-06
1.20716e-06
-1.74591e-06
1.18905e-06
-1.64111e-06
1.17219e-06
-1.54022e-06
1.15654e-06
-1.44354e-06
1.14204e-06
-1.35139e-06
1.12864e-06
-1.26412e-06
1.1163e-06
-1.18216e-06
1.10495e-06
-1.10594e-06
1.09453e-06
-1.03596e-06
1.08496e-06
-9.72729e-07
1.07617e-06
-9.16803e-07
1.06805e-06
-8.68748e-07
1.06049e-06
-8.29142e-07
1.05336e-06
-7.98562e-07
1.04654e-06
-7.77594e-07
-7.66892e-07
1.99617e-05
-5.5035e-07
1.98433e-05
-1.79642e-06
1.96493e-05
-3.12485e-06
1.93871e-05
-4.4834e-06
1.90645e-05
-5.84189e-06
1.86898e-05
-7.17283e-06
1.82713e-05
-8.45107e-06
1.78166e-05
-9.65549e-06
1.73329e-05
-1.07698e-05
1.68267e-05
-1.17824e-05
1.63042e-05
-1.26865e-05
1.57705e-05
-1.34786e-05
1.52305e-05
-1.41587e-05
1.46882e-05
-1.47288e-05
1.41473e-05
-1.5193e-05
1.36109e-05
-1.55565e-05
1.30815e-05
-1.58258e-05
1.25613e-05
-1.60076e-05
1.20518e-05
-1.61093e-05
1.15548e-05
-1.61382e-05
1.10715e-05
-1.61017e-05
1.0603e-05
-1.60072e-05
1.01502e-05
-1.5862e-05
9.71364e-06
-1.5673e-05
9.29373e-06
-1.54469e-05
8.89061e-06
-1.51897e-05
8.50428e-06
-1.49071e-05
8.13461e-06
-1.4604e-05
7.78135e-06
-1.4285e-05
7.44416e-06
-1.3954e-05
7.12263e-06
-1.36144e-05
6.81631e-06
-1.32693e-05
6.52467e-06
-1.29211e-05
6.24718e-06
-1.25719e-05
5.98329e-06
-1.22236e-05
5.73242e-06
-1.18775e-05
5.494e-06
-1.1535e-05
5.26746e-06
-1.11969e-05
5.05224e-06
-1.0864e-05
4.84777e-06
-1.0537e-05
4.65353e-06
-1.02161e-05
4.469e-06
-9.90192e-06
4.29367e-06
-9.59452e-06
4.12705e-06
-9.29409e-06
3.9687e-06
-9.00071e-06
3.81816e-06
-8.7144e-06
3.67502e-06
-8.43516e-06
3.53889e-06
-8.16292e-06
3.40939e-06
-7.8976e-06
3.28617e-06
-7.6391e-06
3.16888e-06
-7.38729e-06
3.05722e-06
-7.14203e-06
2.95089e-06
-6.90318e-06
2.84961e-06
-6.67058e-06
2.75311e-06
-6.44405e-06
2.66116e-06
-6.22345e-06
2.57351e-06
-6.0086e-06
2.48996e-06
-5.79932e-06
2.41031e-06
-5.59545e-06
2.33435e-06
-5.39682e-06
2.26192e-06
-5.20326e-06
2.19285e-06
-5.01461e-06
2.12698e-06
-4.83069e-06
2.06416e-06
-4.65135e-06
2.00426e-06
-4.47644e-06
1.94715e-06
-4.30579e-06
1.89272e-06
-4.13926e-06
1.84084e-06
-3.97671e-06
1.79142e-06
-3.81799e-06
1.74435e-06
-3.66298e-06
1.69955e-06
-3.51154e-06
1.65692e-06
-3.36357e-06
1.61639e-06
-3.21895e-06
1.57787e-06
-3.07759e-06
1.5413e-06
-2.9394e-06
1.50662e-06
-2.80431e-06
1.47374e-06
-2.67226e-06
1.44263e-06
-2.54322e-06
1.41321e-06
-2.41716e-06
1.38543e-06
-2.29408e-06
1.35925e-06
-2.17403e-06
1.3346e-06
-2.05705e-06
1.31145e-06
-1.94323e-06
1.28973e-06
-1.83269e-06
1.26942e-06
-1.72559e-06
1.25044e-06
-1.62213e-06
1.23277e-06
-1.52255e-06
1.21634e-06
-1.42711e-06
1.2011e-06
-1.33615e-06
1.18701e-06
-1.25002e-06
1.17399e-06
-1.16914e-06
1.16199e-06
-1.09394e-06
1.15093e-06
-1.0249e-06
1.14073e-06
-9.62529e-07
1.1313e-06
-9.07374e-07
1.12253e-06
-8.59986e-07
1.11432e-06
-8.20932e-07
1.10654e-06
-7.90777e-07
1.09904e-06
-7.70098e-07
-7.5954e-07
1.99672e-05
-5.17555e-07
1.98609e-05
-1.69008e-06
1.96828e-05
-2.94675e-06
1.94386e-05
-4.2392e-06
1.9135e-05
-5.5383e-06
1.87793e-05
-6.81709e-06
1.83788e-05
-8.05059e-06
1.79408e-05
-9.21757e-06
1.74724e-05
-1.03014e-05
1.69801e-05
-1.12901e-05
1.64697e-05
-1.21761e-05
1.59467e-05
-1.29556e-05
1.54159e-05
-1.36279e-05
1.48815e-05
-1.41944e-05
1.43473e-05
-1.46588e-05
1.38165e-05
-1.50257e-05
1.32917e-05
-1.5301e-05
1.27752e-05
-1.54911e-05
1.22689e-05
-1.5603e-05
1.17744e-05
-1.56437e-05
1.1293e-05
-1.56204e-05
1.0826e-05
-1.55402e-05
1.0374e-05
-1.54101e-05
9.93789e-06
-1.52369e-05
9.5179e-06
-1.50269e-05
9.11426e-06
-1.47861e-05
8.72701e-06
-1.45198e-05
8.35606e-06
-1.4233e-05
8.00117e-06
-1.39301e-05
7.66205e-06
-1.36149e-05
7.3383e-06
-1.32907e-05
7.02948e-06
-1.29605e-05
6.73512e-06
-1.26267e-05
6.4547e-06
-1.22915e-05
6.18768e-06
-1.19566e-05
5.93351e-06
-1.16234e-05
5.69165e-06
-1.12931e-05
5.46155e-06
-1.09668e-05
5.24265e-06
-1.06451e-05
5.03444e-06
-1.03287e-05
4.83639e-06
-1.00181e-05
4.64799e-06
-9.71353e-06
4.46877e-06
-9.4153e-06
4.29825e-06
-9.12357e-06
4.13599e-06
-8.83845e-06
3.98156e-06
-8.55997e-06
3.83456e-06
-8.28815e-06
3.69459e-06
-8.02295e-06
3.5613e-06
-7.76431e-06
3.43434e-06
-7.51214e-06
3.31337e-06
-7.26633e-06
3.19809e-06
-7.02676e-06
3.08822e-06
-6.7933e-06
2.98347e-06
-6.56582e-06
2.88358e-06
-6.34417e-06
2.78832e-06
-6.12819e-06
2.69745e-06
-5.91773e-06
2.61076e-06
-5.71263e-06
2.52805e-06
-5.51274e-06
2.44913e-06
-5.3179e-06
2.37382e-06
-5.12796e-06
2.30197e-06
-4.94275e-06
2.2334e-06
-4.76212e-06
2.16797e-06
-4.58593e-06
2.10556e-06
-4.41402e-06
2.04602e-06
-4.24625e-06
1.98924e-06
-4.08248e-06
1.93511e-06
-3.92257e-06
1.88352e-06
-3.7664e-06
1.83436e-06
-3.61382e-06
1.78755e-06
-3.46473e-06
1.74301e-06
-3.31902e-06
1.70063e-06
-3.17658e-06
1.66036e-06
-3.03732e-06
1.62211e-06
-2.90115e-06
1.58582e-06
-2.76802e-06
1.55141e-06
-2.63786e-06
1.51884e-06
-2.51064e-06
1.48804e-06
-2.38635e-06
1.45895e-06
-2.26499e-06
1.43152e-06
-2.1466e-06
1.40569e-06
-2.03122e-06
1.38143e-06
-1.91896e-06
1.35866e-06
-1.80992e-06
1.33735e-06
-1.70428e-06
1.31744e-06
-1.60222e-06
1.29887e-06
-1.50399e-06
1.28161e-06
-1.40985e-06
1.26558e-06
-1.32012e-06
1.25072e-06
-1.23517e-06
1.23698e-06
-1.1554e-06
1.22428e-06
-1.08123e-06
1.21254e-06
-1.01315e-06
1.20167e-06
-9.51663e-07
1.19158e-06
-8.97285e-07
1.18216e-06
-8.50567e-07
1.1733e-06
-8.12065e-07
1.16485e-06
-7.82334e-07
1.1567e-06
-7.61941e-07
-7.51527e-07
1.99713e-05
-4.88847e-07
1.9875e-05
-1.59382e-06
1.9711e-05
-2.78274e-06
1.94836e-05
-4.01176e-06
1.91982e-05
-5.25296e-06
1.88612e-05
-6.48006e-06
1.84791e-05
-7.66852e-06
1.80588e-05
-8.79721e-06
1.76067e-05
-9.84935e-06
1.71294e-05
-1.08127e-05
1.66325e-05
-1.16792e-05
1.61216e-05
-1.24447e-05
1.56015e-05
-1.31077e-05
1.50764e-05
-1.36694e-05
1.45502e-05
-1.41326e-05
1.40261e-05
-1.45017e-05
1.35071e-05
-1.47819e-05
1.29954e-05
-1.49794e-05
1.24931e-05
-1.51007e-05
1.20018e-05
-1.51524e-05
1.15231e-05
-1.51416e-05
1.1058e-05
-1.5075e-05
1.06074e-05
-1.49595e-05
1.0172e-05
-1.48015e-05
9.75222e-06
-1.46071e-05
9.34831e-06
-1.43822e-05
8.96034e-06
-1.41318e-05
8.58824e-06
-1.38609e-05
8.23183e-06
-1.35737e-05
7.89083e-06
-1.32738e-05
7.56488e-06
-1.29647e-05
7.25358e-06
-1.26492e-05
6.95647e-06
-1.23296e-05
6.67306e-06
-1.20081e-05
6.40285e-06
-1.16863e-05
6.14532e-06
-1.13658e-05
5.89993e-06
-1.10478e-05
5.66616e-06
-1.0733e-05
5.4435e-06
-1.04225e-05
5.23142e-06
-1.01167e-05
5.02943e-06
-9.81611e-06
4.83705e-06
-9.52115e-06
4.65381e-06
-9.23205e-06
4.47925e-06
-8.94901e-06
4.31295e-06
-8.67214e-06
4.15449e-06
-8.40151e-06
4.00348e-06
-8.13714e-06
3.85954e-06
-7.87901e-06
3.72231e-06
-7.62708e-06
3.59146e-06
-7.38129e-06
3.46666e-06
-7.14153e-06
3.34763e-06
-6.90772e-06
3.23406e-06
-6.67973e-06
3.12568e-06
-6.45745e-06
3.02226e-06
-6.24074e-06
2.92354e-06
-6.02947e-06
2.8293e-06
-5.82349e-06
2.73932e-06
-5.62266e-06
2.65342e-06
-5.42684e-06
2.57139e-06
-5.23588e-06
2.49307e-06
-5.04964e-06
2.41829e-06
-4.86797e-06
2.34689e-06
-4.69072e-06
2.27873e-06
-4.51777e-06
2.21366e-06
-4.34896e-06
2.15157e-06
-4.18416e-06
2.09232e-06
-4.02324e-06
2.03581e-06
-3.86606e-06
1.98193e-06
-3.71251e-06
1.93058e-06
-3.56247e-06
1.88166e-06
-3.41581e-06
1.83508e-06
-3.27244e-06
1.79076e-06
-3.13226e-06
1.74862e-06
-2.99518e-06
1.7086e-06
-2.86112e-06
1.6706e-06
-2.73003e-06
1.63458e-06
-2.60184e-06
1.60047e-06
-2.47653e-06
1.56819e-06
-2.35408e-06
1.53771e-06
-2.23451e-06
1.50896e-06
-2.11785e-06
1.48188e-06
-2.00415e-06
1.45643e-06
-1.8935e-06
1.43255e-06
-1.78604e-06
1.41018e-06
-1.68191e-06
1.38927e-06
-1.58131e-06
1.36976e-06
-1.48448e-06
1.3516e-06
-1.39169e-06
1.33473e-06
-1.30325e-06
1.31907e-06
-1.21952e-06
1.30456e-06
-1.14089e-06
1.29112e-06
-1.0678e-06
1.27867e-06
-1.0007e-06
1.26712e-06
-9.40105e-07
1.25635e-06
-8.86519e-07
1.24626e-06
-8.40482e-07
1.23674e-06
-8.02538e-07
1.22764e-06
-7.73235e-07
1.21883e-06
-7.53133e-07
-7.42863e-07
1.99742e-05
-4.63072e-07
1.98864e-05
-1.50596e-06
1.97349e-05
-2.63126e-06
1.95229e-05
-3.79978e-06
1.92548e-05
-4.98489e-06
1.8936e-05
-6.1612e-06
1.85722e-05
-7.30473e-06
1.81697e-05
-8.39468e-06
1.77346e-05
-9.41429e-06
1.72731e-05
-1.03511e-05
1.67908e-05
-1.11969e-05
1.6293e-05
-1.19469e-05
1.57846e-05
-1.25993e-05
1.527e-05
-1.31547e-05
1.47529e-05
-1.36155e-05
1.42367e-05
-1.39855e-05
1.37244e-05
-1.42696e-05
1.32185e-05
-1.44735e-05
1.2721e-05
-1.46032e-05
1.22337e-05
-1.46652e-05
1.17581e-05
-1.4666e-05
1.12955e-05
-1.46124e-05
1.08467e-05
-1.45107e-05
1.04125e-05
-1.43673e-05
9.99329e-06
-1.41879e-05
9.5894e-06
-1.39783e-05
9.20095e-06
-1.37434e-05
8.8279e-06
-1.34879e-05
8.47012e-06
-1.32159e-05
8.12736e-06
-1.29311e-05
7.7993e-06
-1.26367e-05
7.48558e-06
-1.23354e-05
7.18577e-06
-1.20298e-05
6.89941e-06
-1.17217e-05
6.62602e-06
-1.1413e-05
6.36511e-06
-1.11049e-05
6.11618e-06
-1.07988e-05
5.87872e-06
-1.04956e-05
5.65225e-06
-1.0196e-05
5.43627e-06
-9.90069e-06
5.2303e-06
-9.61014e-06
5.03388e-06
-9.32473e-06
4.84655e-06
-9.04473e-06
4.66789e-06
-8.77035e-06
4.49747e-06
-8.50173e-06
4.3349e-06
-8.23894e-06
4.1798e-06
-7.98203e-06
4.03179e-06
-7.73101e-06
3.89054e-06
-7.48583e-06
3.75571e-06
-7.24646e-06
3.627e-06
-7.01282e-06
3.5041e-06
-6.78482e-06
3.38674e-06
-6.56237e-06
3.27465e-06
-6.34536e-06
3.16758e-06
-6.13368e-06
3.0653e-06
-5.92719e-06
2.96759e-06
-5.72577e-06
2.87423e-06
-5.5293e-06
2.78502e-06
-5.33763e-06
2.69979e-06
-5.15065e-06
2.61835e-06
-4.9682e-06
2.54055e-06
-4.79016e-06
2.46622e-06
-4.61639e-06
2.39522e-06
-4.44676e-06
2.32741e-06
-4.28115e-06
2.26266e-06
-4.11941e-06
2.20086e-06
-3.96143e-06
2.14188e-06
-3.80708e-06
2.08562e-06
-3.65625e-06
2.03197e-06
-3.50882e-06
1.98085e-06
-3.36469e-06
1.93216e-06
-3.22375e-06
1.88582e-06
-3.08592e-06
1.84174e-06
-2.95111e-06
1.79986e-06
-2.81924e-06
1.76009e-06
-2.69026e-06
1.72238e-06
-2.56412e-06
1.68665e-06
-2.4408e-06
1.65284e-06
-2.32028e-06
1.6209e-06
-2.20257e-06
1.59077e-06
-2.08771e-06
1.56238e-06
-1.97576e-06
1.53569e-06
-1.86681e-06
1.51063e-06
-1.76098e-06
1.48715e-06
-1.65843e-06
1.4652e-06
-1.55936e-06
1.4447e-06
-1.46399e-06
1.42561e-06
-1.37259e-06
1.40785e-06
-1.28549e-06
1.39136e-06
-1.20302e-06
1.37605e-06
-1.12558e-06
1.36185e-06
-1.05359e-06
1.34866e-06
-9.87518e-07
1.33639e-06
-9.27838e-07
1.32494e-06
-8.75064e-07
1.31418e-06
-8.29724e-07
1.304e-06
-7.92352e-07
1.29425e-06
-7.63487e-07
1.2848e-06
-7.43681e-07
-7.33561e-07
1.99764e-05
-4.39425e-07
1.98955e-05
-1.42515e-06
1.97552e-05
-2.49092e-06
1.95574e-05
-3.60195e-06
1.93055e-05
-4.73303e-06
1.9004e-05
-5.85972e-06
1.86581e-05
-6.95878e-06
1.82733e-05
-8.00985e-06
1.78553e-05
-8.99636e-06
1.741e-05
-9.90585e-06
1.69429e-05
-1.07298e-05
1.6459e-05
-1.14631e-05
1.59633e-05
-1.21036e-05
1.54599e-05
-1.26513e-05
1.49528e-05
-1.31084e-05
1.44455e-05
-1.34782e-05
1.39408e-05
-1.3765e-05
1.34414e-05
-1.39741e-05
1.29495e-05
-1.41112e-05
1.24669e-05
-1.41826e-05
1.19951e-05
-1.41943e-05
1.15355e-05
-1.41528e-05
1.1089e-05
-1.40642e-05
1.06563e-05
-1.39346e-05
1.0238e-05
-1.37697e-05
9.83449e-06
-1.35747e-05
9.44583e-06
-1.33547e-05
9.07208e-06
-1.31141e-05
8.71313e-06
-1.28569e-05
8.36879e-06
-1.25868e-05
8.03878e-06
-1.23067e-05
7.72277e-06
-1.20194e-05
7.42036e-06
-1.17274e-05
7.13113e-06
-1.14325e-05
6.85463e-06
-1.11365e-05
6.59041e-06
-1.08407e-05
6.33798e-06
-1.05464e-05
6.09687e-06
-1.02545e-05
5.86662e-06
-9.96574e-06
5.64675e-06
-9.68082e-06
5.4368e-06
-9.4002e-06
5.23634e-06
-9.12426e-06
5.04493e-06
-8.85332e-06
4.86215e-06
-8.58757e-06
4.6876e-06
-8.32718e-06
4.5209e-06
-8.07224e-06
4.36167e-06
-7.82281e-06
4.20957e-06
-7.5789e-06
4.06425e-06
-7.34051e-06
3.9254e-06
-7.10761e-06
3.79272e-06
-6.88013e-06
3.66591e-06
-6.65801e-06
3.54471e-06
-6.44117e-06
3.42885e-06
-6.2295e-06
3.31808e-06
-6.02291e-06
3.21219e-06
-5.82129e-06
3.11094e-06
-5.62452e-06
3.01413e-06
-5.43249e-06
2.92156e-06
-5.24507e-06
2.83306e-06
-5.06214e-06
2.74844e-06
-4.88358e-06
2.66754e-06
-4.70926e-06
2.59021e-06
-4.53906e-06
2.51631e-06
-4.37286e-06
2.44569e-06
-4.21053e-06
2.37822e-06
-4.05195e-06
2.31379e-06
-3.897e-06
2.25228e-06
-3.74557e-06
2.19357e-06
-3.59755e-06
2.13758e-06
-3.45283e-06
2.08419e-06
-3.31131e-06
2.03333e-06
-3.17289e-06
1.9849e-06
-3.03749e-06
1.93883e-06
-2.90503e-06
1.89503e-06
-2.77544e-06
1.85343e-06
-2.64867e-06
1.81397e-06
-2.52466e-06
1.77658e-06
-2.40341e-06
1.74119e-06
-2.28489e-06
1.70775e-06
-2.16913e-06
1.67618e-06
-2.05615e-06
1.64644e-06
-1.94602e-06
1.61846e-06
-1.83883e-06
1.59219e-06
-1.73471e-06
1.56756e-06
-1.63381e-06
1.54452e-06
-1.53632e-06
1.52301e-06
-1.44247e-06
1.50295e-06
-1.35253e-06
1.48427e-06
-1.26681e-06
1.46691e-06