/*--------------------------------*- C++ -*----------------------------------*\
  =========                 |
  \\      /  F ield         | OpenFOAM: The Open Source CFD Toolbox
   \\    /   O peration     | Website:  https://openfoam.org
    \\  /    A nd           | Version:  11
     \\/     M anipulation  |
\*---------------------------------------------------------------------------*/
FoamFile
{
    format      ascii;
    class       volScalarField;
    location    "406";
    object      nut;
}
// * * * * * * * * * * * * * * * * * * * * * * * * * * * * * * * * * * * * * //

dimensions      [0 2 -1 0 0 0 0];

internalField   nonuniform List<scalar> 
10000
(
0.000977116
0.0009367
0.000899637
0.000865605
0.000834317
0.000805516
0.000778968
0.000754464
0.000731818
0.000710859
0.000691436
0.000673412
0.000656662
0.000641075
0.00062655
0.000612997
0.000600332
0.000588481
0.000577377
0.000566958
0.00055717
0.00054796
0.000539284
0.0005311
0.00052337
0.000516058
0.000509134
0.000502569
0.000496336
0.000490411
0.000484772
0.000479398
0.000474273
0.000469378
0.000464698
0.000460219
0.000455929
0.000451816
0.00044787
0.000444081
0.000440442
0.000436944
0.000433583
0.000430352
0.000427248
0.000424267
0.000421409
0.000418671
0.000416055
0.000413561
0.000411193
0.000408955
0.000406853
0.000404894
0.000403087
0.000401441
0.000399969
0.000398684
0.000397602
0.000396739
0.000396114
0.000395746
0.000395656
0.000395866
0.000396397
0.000397273
0.000398515
0.000400144
0.00040218
0.00040464
0.00040754
0.00041089
0.000414699
0.000418968
0.000423697
0.000428878
0.0004345
0.000440544
0.000446986
0.000453798
0.000460944
0.000468384
0.000476073
0.000483962
0.000492
0.000500132
0.000508298
0.000516438
0.000524485
0.000532371
0.000540022
0.000547355
0.000554304
0.000560778
0.000566684
0.000571918
0.000576368
0.000579909
0.000582408
0.000583712
0.000977116
0.0009367
0.000899637
0.000865605
0.000834318
0.000805516
0.000778968
0.000754465
0.000731818
0.00071086
0.000691437
0.000673412
0.000656662
0.000641075
0.000626551
0.000612997
0.000600332
0.000588482
0.000577378
0.000566959
0.00055717
0.000547961
0.000539285
0.000531101
0.000523371
0.000516059
0.000509135
0.00050257
0.000496337
0.000490412
0.000484773
0.0004794
0.000474274
0.000469379
0.000464699
0.000460221
0.000455931
0.000451818
0.000447872
0.000444083
0.000440444
0.000436946
0.000433585
0.000430354
0.00042725
0.00042427
0.000421411
0.000418673
0.000416057
0.000413564
0.000411196
0.000408958
0.000406856
0.000404897
0.000403089
0.000401443
0.000399971
0.000398686
0.000397604
0.00039674
0.000396115
0.000395746
0.000395656
0.000395864
0.000396395
0.000397269
0.00039851
0.000400138
0.000402172
0.000404631
0.000407528
0.000410877
0.000414683
0.000418951
0.000423678
0.000428858
0.000434478
0.00044052
0.00044696
0.00045377
0.000460913
0.00046835
0.000476036
0.000483923
0.00049196
0.000500091
0.000508257
0.000516396
0.000524444
0.00053233
0.000539982
0.000547316
0.000554265
0.000560741
0.000566647
0.000571882
0.000576333
0.000579876
0.000582375
0.000583679
0.000977116
0.0009367
0.000899637
0.000865605
0.000834318
0.000805516
0.000778968
0.000754465
0.000731819
0.00071086
0.000691438
0.000673413
0.000656663
0.000641076
0.000626552
0.000612998
0.000600333
0.000588483
0.000577379
0.00056696
0.000557172
0.000547962
0.000539287
0.000531102
0.000523372
0.000516061
0.000509137
0.000502572
0.000496339
0.000490414
0.000484775
0.000479402
0.000474276
0.000469381
0.000464702
0.000460223
0.000455934
0.000451821
0.000447875
0.000444086
0.000440447
0.00043695
0.000433588
0.000430358
0.000427254
0.000424274
0.000421415
0.000418677
0.000416061
0.000413568
0.0004112
0.000408962
0.00040686
0.0004049
0.000403092
0.000401446
0.000399973
0.000398687
0.000397604
0.000396739
0.000396112
0.000395742
0.00039565
0.000395856
0.000396385
0.000397256
0.000398494
0.000400118
0.000402149
0.000404604
0.000407498
0.000410842
0.000414644
0.000418908
0.000423631
0.000428806
0.000434422
0.00044046
0.000446896
0.0004537
0.000460839
0.000468272
0.000475955
0.000483841
0.000491876
0.000500005
0.000508171
0.00051631
0.000524358
0.000532246
0.000539899
0.000547235
0.000554187
0.000560665
0.000566574
0.000571811
0.000576264
0.000579808
0.000582309
0.000583614
0.000977116
0.000936701
0.000899637
0.000865606
0.000834319
0.000805517
0.000778969
0.000754466
0.00073182
0.000710862
0.000691439
0.000673414
0.000656665
0.000641078
0.000626553
0.000613
0.000600335
0.000588484
0.000577381
0.000566962
0.000557174
0.000547964
0.000539289
0.000531105
0.000523375
0.000516063
0.00050914
0.000502575
0.000496342
0.000490417
0.000484778
0.000479405
0.00047428
0.000469385
0.000464706
0.000460227
0.000455938
0.000451825
0.000447879
0.000444091
0.000440452
0.000436955
0.000433593
0.000430363
0.000427259
0.000424279
0.00042142
0.000418683
0.000416066
0.000413573
0.000411205
0.000408967
0.000406864
0.000404904
0.000403096
0.000401448
0.000399975
0.000398688
0.000397603
0.000396737
0.000396107
0.000395735
0.00039564
0.000395843
0.000396368
0.000397236
0.000398469
0.000400088
0.000402114
0.000404563
0.00040745
0.000410788
0.000414584
0.000418841
0.000423557
0.000428726
0.000434336
0.000440367
0.000446797
0.000453595
0.000460728
0.000468157
0.000475836
0.000483718
0.000491751
0.000499879
0.000508044
0.000516184
0.000524233
0.000532122
0.000539777
0.000547116
0.000554071
0.000560552
0.000566465
0.000571706
0.000576162
0.000579709
0.000582211
0.000583517
0.000977116
0.000936701
0.000899638
0.000865607
0.000834319
0.000805518
0.00077897
0.000754467
0.000731821
0.000710863
0.00069144
0.000673416
0.000656666
0.00064108
0.000626555
0.000613002
0.000600337
0.000588487
0.000577383
0.000566965
0.000557176
0.000547967
0.000539292
0.000531108
0.000523378
0.000516067
0.000509143
0.000502578
0.000496345
0.000490421
0.000484782
0.00047941
0.000474284
0.00046939
0.000464711
0.000460233
0.000455943
0.000451831
0.000447885
0.000444097
0.000440458
0.000436961
0.0004336
0.00043037
0.000427266
0.000424286
0.000421428
0.00041869
0.000416074
0.00041358
0.000411212
0.000408973
0.00040687
0.00040491
0.0004031
0.000401452
0.000399977
0.000398688
0.000397601
0.000396733
0.000396101
0.000395725
0.000395627
0.000395826
0.000396346
0.000397208
0.000398436
0.000400049
0.000402067
0.000404509
0.000407389
0.000410719
0.000414506
0.000418754
0.000423462
0.000428622
0.000434222
0.000440245
0.000446667
0.000453458
0.000460584
0.000468007
0.000475681
0.000483559
0.000491589
0.000499715
0.00050788
0.000516019
0.00052407
0.000531961
0.000539619
0.000546961
0.000553921
0.000560406
0.000566323
0.000571568
0.000576028
0.000579579
0.000582084
0.000583391
0.000977116
0.000936701
0.000899638
0.000865607
0.00083432
0.000805519
0.000778971
0.000754469
0.000731823
0.000710865
0.000691442
0.000673418
0.000656668
0.000641082
0.000626557
0.000613004
0.00060034
0.00058849
0.000577386
0.000566968
0.000557179
0.000547971
0.000539295
0.000531112
0.000523382
0.000516071
0.000509147
0.000502583
0.00049635
0.000490426
0.000484787
0.000479415
0.00047429
0.000469396
0.000464717
0.000460239
0.00045595
0.000451838
0.000447893
0.000444105
0.000440466
0.000436969
0.000433608
0.000430378
0.000427275
0.000424295
0.000421437
0.000418699
0.000416083
0.000413589
0.000411221
0.000408982
0.000406878
0.000404917
0.000403106
0.000401457
0.00039998
0.000398689
0.0003976
0.000396729
0.000396094
0.000395714
0.000395611
0.000395805
0.000396319
0.000397176
0.000398396
0.000400001
0.000402011
0.000404444
0.000407314
0.000410634
0.000414411
0.000418649
0.000423346
0.000428495
0.000434085
0.000440098
0.000446509
0.000453292
0.00046041
0.000467825
0.000475493
0.000483366
0.000491393
0.000499517
0.00050768
0.00051582
0.000523871
0.000531765
0.000539426
0.000546773
0.000553737
0.000560228
0.00056615
0.0005714
0.000575865
0.00057942
0.000581928
0.000583236
0.000977116
0.000936701
0.000899639
0.000865608
0.000834321
0.00080552
0.000778973
0.00075447
0.000731824
0.000710866
0.000691444
0.00067342
0.000656671
0.000641084
0.00062656
0.000613007
0.000600343
0.000588493
0.000577389
0.000566971
0.000557183
0.000547974
0.000539299
0.000531116
0.000523386
0.000516076
0.000509153
0.000502588
0.000496356
0.000490432
0.000484793
0.000479421
0.000474297
0.000469403
0.000464724
0.000460247
0.000455958
0.000451846
0.000447901
0.000444114
0.000440475
0.000436979
0.000433618
0.000430389
0.000427285
0.000424306
0.000421448
0.00041871
0.000416094
0.0004136
0.000411231
0.000408992
0.000406887
0.000404925
0.000403113
0.000401462
0.000399984
0.000398691
0.000397599
0.000396725
0.000396086
0.000395702
0.000395593
0.000395782
0.000396289
0.000397138
0.00039835
0.000399946
0.000401947
0.000404369
0.000407228
0.000410536
0.000414301
0.000418526
0.000423211
0.000428348
0.000433925
0.000439926
0.000446327
0.000453098
0.000460207
0.000467614
0.000475275
0.000483142
0.000491164
0.000499286
0.000507448
0.000515588
0.000523641
0.000531537
0.000539202
0.000546553
0.000553522
0.000560019
0.000565947
0.000571203
0.000575674
0.000579233
0.000581744
0.000583054
0.000977116
0.000936701
0.000899639
0.000865608
0.000834322
0.000805521
0.000778974
0.000754472
0.000731826
0.000710868
0.000691446
0.000673423
0.000656673
0.000641087
0.000626563
0.00061301
0.000600346
0.000588496
0.000577393
0.000566975
0.000557187
0.000547979
0.000539304
0.000531121
0.000523391
0.000516081
0.000509158
0.000502594
0.000496362
0.000490438
0.0004848
0.000479429
0.000474304
0.000469411
0.000464732
0.000460255
0.000455967
0.000451856
0.000447911
0.000444124
0.000440486
0.00043699
0.00043363
0.0004304
0.000427298
0.000424318
0.00042146
0.000418723
0.000416106
0.000413612
0.000411243
0.000409003
0.000406898
0.000404935
0.000403122
0.00040147
0.000399989
0.000398694
0.000397599
0.000396721
0.000396077
0.000395688
0.000395574
0.000395756
0.000396256
0.000397096
0.000398299
0.000399885
0.000401875
0.000404285
0.000407132
0.000410427
0.000414178
0.000418389
0.000423059
0.000428182
0.000433746
0.000439733
0.000446121
0.000452881
0.000459979
0.000467376
0.000475029
0.00048289
0.000490907
0.000499025
0.000507186
0.000515326
0.00052338
0.000531279
0.000538948
0.000546304
0.000553279
0.000559782
0.000565717
0.000570979
0.000575455
0.00057902
0.000581534
0.000582845
0.000977116
0.000936702
0.000899639
0.000865609
0.000834323
0.000805522
0.000778975
0.000754473
0.000731828
0.000710871
0.000691449
0.000673425
0.000656676
0.00064109
0.000626567
0.000613014
0.00060035
0.0005885
0.000577397
0.00056698
0.000557192
0.000547984
0.000539309
0.000531126
0.000523397
0.000516087
0.000509165
0.000502601
0.000496369
0.000490446
0.000484808
0.000479437
0.000474313
0.00046942
0.000464742
0.000460265
0.000455978
0.000451867
0.000447923
0.000444136
0.000440498
0.000437003
0.000433643
0.000430414
0.000427311
0.000424332
0.000421474
0.000418737
0.000416121
0.000413626
0.000411257
0.000409017
0.000406911
0.000404947
0.000403132
0.000401478
0.000399995
0.000398697
0.000397599
0.000396717
0.000396069
0.000395674
0.000395554
0.000395728
0.00039622
0.000397051
0.000398244
0.000399819
0.000401796
0.000404194
0.000407026
0.000410307
0.000414043
0.000418239
0.000422893
0.000428001
0.000433549
0.000439522
0.000445895
0.000452642
0.000459728
0.000467115
0.000474759
0.000482612
0.000490624
0.000498738
0.000506896
0.000515036
0.000523091
0.000530993
0.000538666
0.000546028
0.000553009
0.000559519
0.000565461
0.00057073
0.000575212
0.000578782
0.0005813
0.000582613
0.000977116
0.000936702
0.00089964
0.00086561
0.000834324
0.000805523
0.000778977
0.000754475
0.00073183
0.000710873
0.000691451
0.000673428
0.000656679
0.000641094
0.00062657
0.000613018
0.000600354
0.000588505
0.000577402
0.000566985
0.000557197
0.000547989
0.000539315
0.000531133
0.000523404
0.000516094
0.000509172
0.000502608
0.000496377
0.000490454
0.000484817
0.000479446
0.000474323
0.00046943
0.000464753
0.000460276
0.000455989
0.000451879
0.000447935
0.000444149
0.000440512
0.000437017
0.000433658
0.000430429
0.000427327
0.000424348
0.000421491
0.000418753
0.000416137
0.000413643
0.000411273
0.000409032
0.000406926
0.00040496
0.000403144
0.000401488
0.000400003
0.000398702
0.0003976
0.000396713
0.00039606
0.00039566
0.000395532
0.000395699
0.000396182
0.000397003
0.000398185
0.000399748
0.000401712
0.000404095
0.000406913
0.000410178
0.000413897
0.000418076
0.000422714
0.000427805
0.000433336
0.000439293
0.000445651
0.000452384
0.000459457
0.000466832
0.000474466
0.000482312
0.000490317
0.000498427
0.000506582
0.000514721
0.000522778
0.000530683
0.00053836
0.000545727
0.000552715
0.000559231
0.00056518
0.000570457
0.000574946
0.000578521
0.000581043
0.000582357
0.000977116
0.000936702
0.00089964
0.00086561
0.000834325
0.000805525
0.000778978
0.000754477
0.000731832
0.000710875
0.000691454
0.000673431
0.000656682
0.000641097
0.000626574
0.000613022
0.000600358
0.000588509
0.000577407
0.00056699
0.000557203
0.000547995
0.000539321
0.000531139
0.000523411
0.000516101
0.00050918
0.000502617
0.000496386
0.000490463
0.000484827
0.000479456
0.000474333
0.000469441
0.000464764
0.000460289
0.000456002
0.000451892
0.000447949
0.000444163
0.000440527
0.000437032
0.000433674
0.000430446
0.000427344
0.000424365
0.000421508
0.000418771
0.000416155
0.00041366
0.00041129
0.000409049
0.000406942
0.000404975
0.000403158
0.000401499
0.000400011
0.000398707
0.000397601
0.00039671
0.000396052
0.000395645
0.00039551
0.000395669
0.000396142
0.000396953
0.000398123
0.000399673
0.000401623
0.000403991
0.000406793
0.000410041
0.000413743
0.000417904
0.000422524
0.000427596
0.00043311
0.000439049
0.000445392
0.000452109
0.000459168
0.00046653
0.000474154
0.00048199
0.000489989
0.000498094
0.000506246
0.000514384
0.000522442
0.000530349
0.000538031
0.000545403
0.000552398
0.000558921
0.000564878
0.000570162
0.000574658
0.000578238
0.000580764
0.000582081
0.000977116
0.000936702
0.000899641
0.000865611
0.000834325
0.000805526
0.00077898
0.000754478
0.000731834
0.000710877
0.000691456
0.000673434
0.000656685
0.0006411
0.000626578
0.000613026
0.000600363
0.000588514
0.000577412
0.000566995
0.000557209
0.000548002
0.000539328
0.000531146
0.000523418
0.000516109
0.000509188
0.000502625
0.000496395
0.000490473
0.000484837
0.000479467
0.000474344
0.000469453
0.000464777
0.000460302
0.000456015
0.000451906
0.000447964
0.000444179
0.000440543
0.000437049
0.000433691
0.000430463
0.000427362
0.000424384
0.000421527
0.000418791
0.000416174
0.00041368
0.00041131
0.000409068
0.000406959
0.000404992
0.000403172
0.000401512
0.000400021
0.000398714
0.000397604
0.000396708
0.000396044
0.000395631
0.000395488
0.000395638
0.000396101
0.000396901
0.000398058
0.000399595
0.00040153
0.000403882
0.000406667
0.000409897
0.000413581
0.000417723
0.000422324
0.000427377
0.000432872
0.000438793
0.000445118
0.000451819
0.000458863
0.000466212
0.000473824
0.000481651
0.000489642
0.000497741
0.000505891
0.000514027
0.000522086
0.000529996
0.000537681
0.000545059
0.00055206
0.000558591
0.000564556
0.000569847
0.00057435
0.000577936
0.000580467
0.000581785
0.000977116
0.000936703
0.000899641
0.000865611
0.000834326
0.000805527
0.000778981
0.00075448
0.000731836
0.00071088
0.000691459
0.000673436
0.000656689
0.000641104
0.000626582
0.00061303
0.000600368
0.000588519
0.000577417
0.000567001
0.000557215
0.000548008
0.000539335
0.000531153
0.000523426
0.000516117
0.000509197
0.000502634
0.000496405
0.000490483
0.000484848
0.000479478
0.000474356
0.000469465
0.00046479
0.000460316
0.00045603
0.000451922
0.00044798
0.000444196
0.00044056
0.000437067
0.00043371
0.000430483
0.000427382
0.000424405
0.000421548
0.000418812
0.000416195
0.000413701
0.00041133
0.000409088
0.000406979
0.00040501
0.000403189
0.000401526
0.000400033
0.000398722
0.000397608
0.000396707
0.000396037
0.000395617
0.000395466
0.000395606
0.00039606
0.000396847
0.000397992
0.000399514
0.000401434
0.00040377
0.000406537
0.000409749
0.000413413
0.000417535
0.000422116
0.000427149
0.000432624
0.000438526
0.000444832
0.000451516
0.000458544
0.000465879
0.000473479
0.000481295
0.000489278
0.000497372
0.000505517
0.000513653
0.000521712
0.000529624
0.000537313
0.000544697
0.000551704
0.000558243
0.000564215
0.000569514
0.000574024
0.000577617
0.000580152
0.000581473
0.000977116
0.000936703
0.000899641
0.000865612
0.000834327
0.000805528
0.000778982
0.000754482
0.000731838
0.000710882
0.000691461
0.000673439
0.000656692
0.000641108
0.000626586
0.000613035
0.000600372
0.000588524
0.000577423
0.000567007
0.000557221
0.000548015
0.000539342
0.000531161
0.000523434
0.000516126
0.000509206
0.000502644
0.000496415
0.000490494
0.000484859
0.00047949
0.000474369
0.000469479
0.000464804
0.00046033
0.000456046
0.000451938
0.000447997
0.000444213
0.000440579
0.000437086
0.00043373
0.000430503
0.000427403
0.000424426
0.00042157
0.000418834
0.000416218
0.000413723
0.000411353
0.00040911
0.000406999
0.000405029
0.000403207
0.000401542
0.000400045
0.000398731
0.000397613
0.000396707
0.00039603
0.000395603
0.000395444
0.000395575
0.000396017
0.000396793
0.000397924
0.000399432
0.000401336
0.000403654
0.000406403
0.000409595
0.00041324
0.000417342
0.000421901
0.000426913
0.000432368
0.000438249
0.000444537
0.000451202
0.000458214
0.000465534
0.000473121
0.000480927
0.000488901
0.000496988
0.000505129
0.000513263
0.000521322
0.000529236
0.000536929
0.000544318
0.000551332
0.000557878
0.000563858
0.000569165
0.000573682
0.000577281
0.000579821
0.000581144
0.000977116
0.000936703
0.000899642
0.000865613
0.000834328
0.000805529
0.000778984
0.000754483
0.00073184
0.000710884
0.000691464
0.000673442
0.000656695
0.000641111
0.00062659
0.000613039
0.000600377
0.00058853
0.000577429
0.000567013
0.000557228
0.000548022
0.00053935
0.000531169
0.000523443
0.000516135
0.000509215
0.000502654
0.000496426
0.000490505
0.000484871
0.000479503
0.000474383
0.000469493
0.000464819
0.000460346
0.000456062
0.000451955
0.000448015
0.000444232
0.000440598
0.000437107
0.000433751
0.000430525
0.000427426
0.000424449
0.000421594
0.000418858
0.000416242
0.000413747
0.000411376
0.000409133
0.000407022
0.00040505
0.000403226
0.000401559
0.000400059
0.000398741
0.000397619
0.000396707
0.000396025
0.00039559
0.000395422
0.000395544
0.000395975
0.000396738
0.000397856
0.000399348
0.000401236
0.000403536
0.000406266
0.000409439
0.000413063
0.000417143
0.000421681
0.000426671
0.000432105
0.000437966
0.000444233
0.00045088
0.000457874
0.000465179
0.000472752
0.000480546
0.000488511
0.000496591
0.000504728
0.000512859
0.000520918
0.000528834
0.000536531
0.000543925
0.000550946
0.000557499
0.000563487
0.000568801
0.000573326
0.000576931
0.000579475
0.000580801
0.000977116
0.000936703
0.000899642
0.000865613
0.000834328
0.00080553
0.000778985
0.000754485
0.000731841
0.000710886
0.000691466
0.000673445
0.000656699
0.000641115
0.000626594
0.000613043
0.000600382
0.000588535
0.000577434
0.00056702
0.000557235
0.000548029
0.000539357
0.000531177
0.000523451
0.000516145
0.000509225
0.000502665
0.000496437
0.000490517
0.000484884
0.000479516
0.000474396
0.000469508
0.000464834
0.000460362
0.000456079
0.000451973
0.000448033
0.000444252
0.000440619
0.000437128
0.000433773
0.000430548
0.000427449
0.000424473
0.000421618
0.000418883
0.000416267
0.000413772
0.000411401
0.000409157
0.000407045
0.000405072
0.000403246
0.000401577
0.000400075
0.000398753
0.000397626
0.000396709
0.00039602
0.000395578
0.000395401
0.000395513
0.000395933
0.000396683
0.000397787
0.000399264
0.000401134
0.000403417
0.000406128
0.00040928
0.000412882
0.000416941
0.000421457
0.000426425
0.000431836
0.000437676
0.000443923
0.00045055
0.000457527
0.000464815
0.000472374
0.000480157
0.000488112
0.000496185
0.000504317
0.000512445
0.000520503
0.000528421
0.000536121
0.00054352
0.000550547
0.000557107
0.000563103
0.000568425
0.000572957
0.000576569
0.000579118
0.000580446
0.000977116
0.000936703
0.000899642
0.000865614
0.000834329
0.000805531
0.000778986
0.000754486
0.000731843
0.000710888
0.000691469
0.000673448
0.000656702
0.000641119
0.000626598
0.000613048
0.000600387
0.00058854
0.00057744
0.000567026
0.000557241
0.000548036
0.000539365
0.000531186
0.00052346
0.000516154
0.000509236
0.000502676
0.000496448
0.000490529
0.000484896
0.00047953
0.000474411
0.000469523
0.00046485
0.000460379
0.000456097
0.000451991
0.000448053
0.000444272
0.00044064
0.00043715
0.000433795
0.000430571
0.000427473
0.000424498
0.000421644
0.000418909
0.000416293
0.000413799
0.000411427
0.000409183
0.00040707
0.000405096
0.000403268
0.000401596
0.000400091
0.000398766
0.000397634
0.000396712
0.000396016
0.000395566
0.000395381
0.000395482
0.000395891
0.000396629
0.000397718
0.000399179
0.000401032
0.000403297
0.000405988
0.000409119
0.0004127
0.000416737
0.00042123
0.000426175
0.000431564
0.000437382
0.000443607
0.000450215
0.000457173
0.000464446
0.00047199
0.00047976
0.000487705
0.00049577
0.000503896
0.000512021
0.000520079
0.000527998
0.000535701
0.000543105
0.000550138
0.000556705
0.000562708
0.000568038
0.000572577
0.000576195
0.000578749
0.000580081
0.000977117
0.000936703
0.000899643
0.000865614
0.00083433
0.000805532
0.000778987
0.000754487
0.000731845
0.00071089
0.000691471
0.000673451
0.000656705
0.000641122
0.000626602
0.000613052
0.000600392
0.000588546
0.000577446
0.000567032
0.000557248
0.000548044
0.000539373
0.000531194
0.000523469
0.000516164
0.000509246
0.000502687
0.00049646
0.000490542
0.00048491
0.000479544
0.000474426
0.000469538
0.000464867
0.000460396
0.000456115
0.00045201
0.000448073
0.000444293
0.000440662
0.000437173
0.000433819
0.000430596
0.000427499
0.000424524
0.00042167
0.000418936
0.000416321
0.000413826
0.000411455
0.00040921
0.000407096
0.000405121
0.000403291
0.000401617
0.000400109
0.00039878
0.000397643
0.000396715
0.000396013
0.000395556
0.000395362
0.000395453
0.00039585
0.000396574
0.000397649
0.000399094
0.00040093
0.000403176
0.000405847
0.000408957
0.000412517
0.000416531
0.000421001
0.000425923
0.00043129
0.000437085
0.000443289
0.000449876
0.000456816
0.000464071
0.0004716
0.000479357
0.000487292
0.000495348
0.000503469
0.000511591
0.000519647
0.000527567
0.000535273
0.000542681
0.00054972
0.000556294
0.000562304
0.000567642
0.000572188
0.000575813
0.000578372
0.000579706
0.000977117
0.000936704
0.000899643
0.000865614
0.00083433
0.000805532
0.000778988
0.000754489
0.000731847
0.000710892
0.000691474
0.000673454
0.000656708
0.000641126
0.000626606
0.000613057
0.000600397
0.000588551
0.000577452
0.000567039
0.000557255
0.000548051
0.000539381
0.000531203
0.000523479
0.000516174
0.000509256
0.000502698
0.000496472
0.000490554
0.000484923
0.000479558
0.000474441
0.000469554
0.000464883
0.000460414
0.000456134
0.00045203
0.000448094
0.000444314
0.000440684
0.000437196
0.000433844
0.000430621
0.000427525
0.000424551
0.000421698
0.000418964
0.000416349
0.000413855
0.000411483
0.000409237
0.000407123
0.000405146
0.000403315
0.000401638
0.000400127
0.000398794
0.000397654
0.00039672
0.000396012
0.000395546
0.000395343
0.000395424
0.000395809
0.000396521
0.000397581
0.00039901
0.000400829
0.000403055
0.000405707
0.000408796
0.000412333
0.000416324
0.000420771
0.00042567
0.000431013
0.000436786
0.000442969
0.000449535
0.000456456
0.000463694
0.000471207
0.000478951
0.000486874
0.000494923
0.000503037
0.000511155
0.00051921
0.00052713
0.000534839
0.000542251
0.000549295
0.000555876
0.000561894
0.000567239
0.000571792
0.000575423
0.000577987
0.000579323
0.000977117
0.000936704
0.000899643
0.000865615
0.000834331
0.000805533
0.000778989
0.00075449
0.000731848
0.000710894
0.000691476
0.000673456
0.000656711
0.000641129
0.00062661
0.000613061
0.000600402
0.000588556
0.000577458
0.000567045
0.000557262
0.000548059
0.000539389
0.000531212
0.000523488
0.000516184
0.000509267
0.000502709
0.000496484
0.000490567
0.000484937
0.000479573
0.000474456
0.000469571
0.000464901
0.000460432
0.000456153
0.00045205
0.000448115
0.000444336
0.000440707
0.00043722
0.000433869
0.000430647
0.000427552
0.000424579
0.000421726
0.000418993
0.000416378
0.000413884
0.000411512
0.000409266
0.000407151
0.000405173
0.00040334
0.000401661
0.000400147
0.00039881
0.000397665
0.000396726
0.000396011
0.000395538
0.000395326
0.000395396
0.00039577
0.000396468
0.000397514
0.000398927
0.000400728
0.000402936
0.000405567
0.000408635
0.00041215
0.000416118
0.000420542
0.000425417
0.000430737
0.000436487
0.000442648
0.000449194
0.000456095
0.000463315
0.000470813
0.000478543
0.000486455
0.000494494
0.000502602
0.000510716
0.000518768
0.000526689
0.0005344
0.000541816
0.000548866
0.000555453
0.000561478
0.00056683
0.00057139
0.000575027
0.000577596
0.000578935
0.000977117
0.000936704
0.000899643
0.000865615
0.000834332
0.000805534
0.00077899
0.000754491
0.00073185
0.000710896
0.000691478
0.000673459
0.000656714
0.000641133
0.000626613
0.000613065
0.000600406
0.000588562
0.000577464
0.000567051
0.000557269
0.000548066
0.000539397
0.00053122
0.000523497
0.000516194
0.000509278
0.000502721
0.000496496
0.00049058
0.000484951
0.000479587
0.000474472
0.000469587
0.000464918
0.000460451
0.000456172
0.000452071
0.000448136
0.000444359
0.000440731
0.000437245
0.000433894
0.000430673
0.000427579
0.000424607
0.000421755
0.000419022
0.000416408
0.000413914
0.000411542
0.000409295
0.00040718
0.0004052
0.000403366
0.000401684
0.000400168
0.000398827
0.000397677
0.000396733
0.000396011
0.00039553
0.000395309
0.000395369
0.000395731
0.000396417
0.000397447
0.000398845
0.000400628
0.000402817
0.000405428
0.000408475
0.000411968
0.000415913
0.000420313
0.000425166
0.000430462
0.000436189
0.000442327
0.000448852
0.000455733
0.000462936
0.000470418
0.000478134
0.000486034
0.000494064
0.000502165
0.000510275
0.000518325
0.000526246
0.000533959
0.000541379
0.000548433
0.000555026
0.000561058
0.000566417
0.000570984
0.000574627
0.000577201
0.000578543
0.000977117
0.000936704
0.000899644
0.000865616
0.000834332
0.000805535
0.000778991
0.000754493
0.000731851
0.000710898
0.00069148
0.000673461
0.000656717
0.000641136
0.000626617
0.00061307
0.000600411
0.000588567
0.000577469
0.000567058
0.000557276
0.000548074
0.000539405
0.000531229
0.000523507
0.000516204
0.000509289
0.000502733
0.000496509
0.000490594
0.000484965
0.000479602
0.000474488
0.000469604
0.000464936
0.000460469
0.000456192
0.000452091
0.000448158
0.000444382
0.000440755
0.000437269
0.00043392
0.0004307
0.000427606
0.000424635
0.000421784
0.000419052
0.000416438
0.000413944
0.000411572
0.000409325
0.000407209
0.000405228
0.000403392
0.000401709
0.000400189
0.000398845
0.00039769
0.00039674
0.000396012
0.000395523
0.000395294
0.000395344
0.000395694
0.000396367
0.000397383
0.000398764
0.00040053
0.0004027
0.000405291
0.000408317
0.000411787
0.00041571
0.000420087
0.000424916
0.000430188
0.000435892
0.000442009
0.000448512
0.000455374
0.000462558
0.000470024
0.000477726
0.000485615
0.000493635
0.000501729
0.000509834
0.000517882
0.000525802
0.000533517
0.00054094
0.000547999
0.000554598
0.000560636
0.000566002
0.000570576
0.000574225
0.000576803
0.000578147
0.000977117
0.000936704
0.000899644
0.000865616
0.000834333
0.000805535
0.000778992
0.000754494
0.000731853
0.0007109
0.000691482
0.000673464
0.00065672
0.000641139
0.000626621
0.000613074
0.000600416
0.000588572
0.000577475
0.000567064
0.000557283
0.000548081
0.000539413
0.000531238
0.000523516
0.000516214
0.0005093
0.000502744
0.000496521
0.000490607
0.000484979
0.000479617
0.000474503
0.000469621
0.000464953
0.000460488
0.000456211
0.000452112
0.00044818
0.000444405
0.000440779
0.000437295
0.000433946
0.000430727
0.000427634
0.000424664
0.000421813
0.000419082
0.000416469
0.000413975
0.000411603
0.000409356
0.000407239
0.000405257
0.000403419
0.000401733
0.000400211
0.000398863
0.000397704
0.000396749
0.000396014
0.000395518
0.000395279
0.000395319
0.000395658
0.000396318
0.00039732
0.000398685
0.000400434
0.000402586
0.000405156
0.000408161
0.000411609
0.000415509
0.000419863
0.000424668
0.000429918
0.000435599
0.000441693
0.000448176
0.000455017
0.000462183
0.000469633
0.000477321
0.000485197
0.000493208
0.000501295
0.000509394
0.00051744
0.000525359
0.000533075
0.000540501
0.000547565
0.000554169
0.000560214
0.000565586
0.000570167
0.000573822
0.000576404
0.000577751
0.000977117
0.000936704
0.000899644
0.000865616
0.000834333
0.000805536
0.000778993
0.000754495
0.000731854
0.000710901
0.000691484
0.000673466
0.000656723
0.000641142
0.000626624
0.000613078
0.00060042
0.000588577
0.000577481
0.00056707
0.000557289
0.000548088
0.000539421
0.000531246
0.000523525
0.000516224
0.00050931
0.000502756
0.000496533
0.00049062
0.000484993
0.000479632
0.000474519
0.000469637
0.000464971
0.000460507
0.000456231
0.000452133
0.000448201
0.000444428
0.000440803
0.00043732
0.000433972
0.000430754
0.000427663
0.000424693
0.000421843
0.000419112
0.000416499
0.000414006
0.000411634
0.000409387
0.000407269
0.000405286
0.000403446
0.000401759
0.000400233
0.000398882
0.000397718
0.000396758
0.000396017
0.000395513
0.000395266
0.000395296
0.000395624
0.00039627
0.000397258
0.000398608
0.00040034
0.000402473
0.000405024
0.000408008
0.000411434
0.000415312
0.000419642
0.000424424
0.000429651
0.000435309
0.000441381
0.000447843
0.000454665
0.000461812
0.000469246
0.000476919
0.000484784
0.000492785
0.000500864
0.000508958
0.000517
0.000524919
0.000532636
0.000540065
0.000547132
0.000553742
0.000559792
0.000565172
0.000569758
0.000573419
0.000576005
0.000577355
0.000977117
0.000936704
0.000899644
0.000865617
0.000834334
0.000805537
0.000778994
0.000754496
0.000731855
0.000710903
0.000691486
0.000673468
0.000656725
0.000641145
0.000626628
0.000613082
0.000600425
0.000588582
0.000577486
0.000567076
0.000557296
0.000548096
0.000539429
0.000531255
0.000523535
0.000516234
0.000509321
0.000502767
0.000496546
0.000490633
0.000485007
0.000479647
0.000474535
0.000469654
0.000464989
0.000460526
0.000456251
0.000452154
0.000448223
0.000444451
0.000440827
0.000437345
0.000433998
0.000430782
0.000427691
0.000424722
0.000421873
0.000419143
0.00041653
0.000414037
0.000411665
0.000409418
0.000407299
0.000405315
0.000403474
0.000401784
0.000400256
0.000398901
0.000397734
0.000396768
0.000396021
0.00039551
0.000395254
0.000395274
0.00039559
0.000396225