/*--------------------------------*- C++ -*----------------------------------*\
  =========                 |
  \\      /  F ield         | OpenFOAM: The Open Source CFD Toolbox
   \\    /   O peration     | Website:  https://openfoam.org
    \\  /    A nd           | Version:  11
     \\/     M anipulation  |
\*---------------------------------------------------------------------------*/
FoamFile
{
    format      ascii;
    class       volScalarField;
    location    "406";
    object      omega;
}
// * * * * * * * * * * * * * * * * * * * * * * * * * * * * * * * * * * * * * //

dimensions      [0 0 -1 0 0 0 0];

internalField   nonuniform List<scalar> 
10000
(
0.961693
0.892186
0.829087
0.77173
0.719524
0.671944
0.62852
0.588837
0.552522
0.519243
0.488704
0.460641
0.434816
0.411019
0.38906
0.368768
0.349992
0.332594
0.316453
0.301456
0.287505
0.274509
0.262389
0.25107
0.240486
0.230577
0.22129
0.212575
0.204387
0.196685
0.189432
0.182595
0.176143
0.170047
0.164282
0.158824
0.153652
0.148745
0.144085
0.139656
0.135442
0.131428
0.127602
0.123951
0.120463
0.117129
0.113938
0.11088
0.107949
0.105134
0.10243
0.0998278
0.0973222
0.0949066
0.0925751
0.0903221
0.0881425
0.0860314
0.0839842
0.0819968
0.0800651
0.0781857
0.0763553
0.074571
0.0728303
0.0711311
0.0694717
0.0678508
0.0662674
0.0647212
0.0632119
0.0617399
0.0603057
0.0589101
0.057554
0.0562388
0.0549656
0.0537359
0.0525509
0.0514117
0.0503194
0.0492746
0.0482778
0.0473294
0.0464297
0.0455788
0.0447766
0.044023
0.0433181
0.0426617
0.0420538
0.0414949
0.0409855
0.0405265
0.0401197
0.0397674
0.0394727
0.0392403
0.0390763
0.0389888
0.961693
0.892186
0.829087
0.77173
0.719524
0.671944
0.628521
0.588838
0.552522
0.519243
0.488705
0.460641
0.434817
0.411019
0.38906
0.368768
0.349992
0.332595
0.316453
0.301456
0.287505
0.27451
0.262389
0.25107
0.240486
0.230578
0.221291
0.212575
0.204387
0.196685
0.189433
0.182596
0.176143
0.170048
0.164282
0.158825
0.153652
0.148745
0.144086
0.139657
0.135443
0.131429
0.127603
0.123952
0.120464
0.11713
0.113939
0.110881
0.10795
0.105135
0.102431
0.0998291
0.0973236
0.0949081
0.0925767
0.0903238
0.0881444
0.0860334
0.0839864
0.0819992
0.0800677
0.0781885
0.0763583
0.0745742
0.0728337
0.0711347
0.0694755
0.0678548
0.0662716
0.0647255
0.0632164
0.0617446
0.0603105
0.058915
0.0575592
0.0562441
0.054971
0.0537414
0.0525564
0.0514172
0.0503246
0.0492796
0.0482826
0.047334
0.0464341
0.0455829
0.0447805
0.0440268
0.0433216
0.042665
0.042057
0.0414979
0.0409882
0.0405292
0.0401222
0.0397697
0.039475
0.0392425
0.0390784
0.0389909
0.961693
0.892187
0.829087
0.77173
0.719524
0.671944
0.628521
0.588838
0.552523
0.519244
0.488705
0.460642
0.434817
0.41102
0.389061
0.368769
0.349993
0.332595
0.316454
0.301457
0.287506
0.27451
0.26239
0.251071
0.240487
0.230579
0.221291
0.212576
0.204388
0.196686
0.189433
0.182596
0.176144
0.170048
0.164283
0.158826
0.153653
0.148746
0.144087
0.139658
0.135444
0.13143
0.127604
0.123953
0.120466
0.117131
0.11394
0.110883
0.107951
0.105137
0.102433
0.0998312
0.0973259
0.0949105
0.0925793
0.0903266
0.0881474
0.0860367
0.0839899
0.0820029
0.0800718
0.0781929
0.076363
0.0745792
0.0728391
0.0711404
0.0694816
0.0678612
0.0662784
0.0647327
0.0632239
0.0617523
0.0603185
0.0589233
0.0575676
0.0562527
0.0549798
0.0537503
0.0525653
0.051426
0.0503333
0.0492881
0.0482908
0.0473419
0.0464417
0.0455903
0.0447875
0.0440335
0.043328
0.0426711
0.0420627
0.0415033
0.0409934
0.0405341
0.0401269
0.0397742
0.0394793
0.0392466
0.0390825
0.0389949
0.961693
0.892187
0.829087
0.77173
0.719525
0.671945
0.628522
0.588838
0.552523
0.519245
0.488706
0.460642
0.434818
0.411021
0.389061
0.36877
0.349994
0.332596
0.316454
0.301458
0.287507
0.274511
0.262391
0.251072
0.240488
0.23058
0.221292
0.212577
0.204389
0.196687
0.189435
0.182598
0.176145
0.17005
0.164285
0.158827
0.153655
0.148748
0.144088
0.139659
0.135445
0.131432
0.127606
0.123955
0.120468
0.117133
0.113942
0.110885
0.107954
0.10514
0.102435
0.0998341
0.097329
0.0949139
0.0925829
0.0903305
0.0881516
0.0860412
0.0839948
0.0820081
0.0800774
0.0781989
0.0763695
0.0745862
0.0728465
0.0711484
0.06949
0.0678701
0.0662878
0.0647426
0.0632342
0.0617631
0.0603296
0.0589347
0.0575793
0.0562647
0.054992
0.0537625
0.0525776
0.0514382
0.0503454
0.0492999
0.0483023
0.0473531
0.0464525
0.0456007
0.0447975
0.044043
0.0433371
0.0426798
0.042071
0.0415112
0.0410009
0.0405412
0.0401337
0.0397807
0.0394855
0.0392527
0.0390884
0.0390008
0.961693
0.892187
0.829087
0.771731
0.719525
0.671945
0.628522
0.588839
0.552524
0.519245
0.488707
0.460643
0.434819
0.411022
0.389062
0.368771
0.349995
0.332597
0.316455
0.301459
0.287508
0.274512
0.262392
0.251073
0.240489
0.230581
0.221294
0.212578
0.20439
0.196688
0.189436
0.182599
0.176147
0.170051
0.164286
0.158829
0.153656
0.14875
0.14409
0.139661
0.135448
0.131434
0.127608
0.123957
0.12047
0.117136
0.113945
0.110888
0.107957
0.105143
0.102439
0.099838
0.0973331
0.0949183
0.0925876
0.0903356
0.088157
0.086047
0.084001
0.0820149
0.0800846
0.0782067
0.0763778
0.0745951
0.0728561
0.0711585
0.0695008
0.0678816
0.0662999
0.0647552
0.0632474
0.0617768
0.0603438
0.0589493
0.0575943
0.0562799
0.0550074
0.0537781
0.0525931
0.0514536
0.0503606
0.0493148
0.0483169
0.0473673
0.0464663
0.045614
0.0448103
0.0440553
0.0433489
0.0426909
0.0420817
0.0415213
0.0410106
0.0405504
0.0401425
0.0397891
0.0394937
0.0392606
0.0390961
0.0390084
0.961693
0.892187
0.829087
0.771731
0.719525
0.671945
0.628523
0.58884
0.552525
0.519246
0.488707
0.460644
0.43482
0.411023
0.389063
0.368772
0.349996
0.332598
0.316457
0.30146
0.287509
0.274514
0.262393
0.251074
0.240491
0.230582
0.221295
0.21258
0.204392
0.19669
0.189438
0.182601
0.176149
0.170053
0.164288
0.158831
0.153658
0.148752
0.144093
0.139664
0.13545
0.131437
0.127611
0.12396
0.120473
0.117139
0.113949
0.110892
0.107961
0.105147
0.102443
0.0998426
0.0973381
0.0949236
0.0925933
0.0903417
0.0881635
0.086054
0.0840086
0.082023
0.0800933
0.078216
0.0763878
0.0746058
0.0728675
0.0711708
0.0695138
0.0678953
0.0663143
0.0647704
0.0632633
0.0617933
0.0603608
0.0589668
0.0576122
0.0562981
0.0550258
0.0537966
0.0526116
0.0514721
0.0503788
0.0493328
0.0483345
0.0473844
0.0464829
0.04563
0.0448257
0.0440701
0.043363
0.0427044
0.0420945
0.0415336
0.0410223
0.0405616
0.0401532
0.0397994
0.0395036
0.0392702
0.0391055
0.0390176
0.961693
0.892187
0.829088
0.771731
0.719526
0.671946
0.628523
0.58884
0.552525
0.519247
0.488708
0.460645
0.434821
0.411024
0.389064
0.368773
0.349997
0.3326
0.316458
0.301462
0.287511
0.274515
0.262395
0.251076
0.240492
0.230584
0.221297
0.212582
0.204394
0.196692
0.18944
0.182603
0.176151
0.170055
0.164291
0.158833
0.153661
0.148755
0.144095
0.139667
0.135453
0.13144
0.127614
0.123964
0.120477
0.117143
0.113953
0.110896
0.107965
0.105152
0.102449
0.099848
0.0973439
0.0949298
0.0925999
0.0903488
0.0881711
0.0860622
0.0840174
0.0820324
0.0801035
0.0782269
0.0763995
0.0746183
0.0728808
0.0711849
0.0695288
0.0679111
0.066331
0.0647878
0.0632815
0.0618122
0.0603804
0.0589869
0.0576328
0.056319
0.055047
0.0538179
0.0526329
0.0514932
0.0503998
0.0493533
0.0483546
0.0474041
0.0465019
0.0456484
0.0448435
0.0440871
0.0433793
0.0427201
0.0421095
0.0415478
0.0410359
0.0405746
0.0401656
0.0398114
0.0395151
0.0392814
0.0391164
0.0390284
0.961693
0.892187
0.829088
0.771731
0.719526
0.671946
0.628523
0.588841
0.552526
0.519248
0.488709
0.460646
0.434822
0.411025
0.389066
0.368774
0.349998
0.332601
0.31646
0.301463
0.287512
0.274517
0.262397
0.251078
0.240494
0.230586
0.221299
0.212584
0.204396
0.196694
0.189442
0.182605
0.176153
0.170058
0.164293
0.158836
0.153664
0.148757
0.144098
0.13967
0.135456
0.131444
0.127618
0.123968
0.120481
0.117147
0.113957
0.110901
0.10797
0.105157
0.102454
0.0998542
0.0973505
0.0949368
0.0926075
0.0903568
0.0881798
0.0860715
0.0840273
0.0820431
0.0801149
0.0782392
0.0764126
0.0746323
0.0728957
0.0712007
0.0695456
0.0679289
0.0663497
0.0648074
0.0633019
0.0618334
0.0604023
0.0590095
0.0576558
0.0563424
0.0550707
0.0538417
0.0526567
0.0515169
0.0504232
0.0493764
0.0483772
0.047426
0.0465233
0.045669
0.0448634
0.0441063
0.0433977
0.0427376
0.0421263
0.0415639
0.0410512
0.0405892
0.0401797
0.0398248
0.0395281
0.039294
0.0391288
0.0390405
0.961693
0.892187
0.829088
0.771731
0.719526
0.671946
0.628524
0.588841
0.552527
0.519248
0.48871
0.460647
0.434823
0.411026
0.389067
0.368776
0.35
0.332603
0.316461
0.301465
0.287514
0.274519
0.262398
0.25108
0.240496
0.230588
0.221301
0.212586
0.204398
0.196697
0.189444
0.182608
0.176156
0.170061
0.164296
0.158839
0.153667
0.148761
0.144102
0.139674
0.13546
0.131447
0.127622
0.123972
0.120486
0.117152
0.113962
0.110906
0.107976
0.105163
0.102461
0.0998611
0.0973578
0.0949446
0.0926158
0.0903658
0.0881894
0.0860817
0.0840383
0.0820549
0.0801276
0.0782527
0.0764271
0.0746477
0.0729122
0.0712182
0.0695641
0.0679484
0.0663702
0.0648289
0.0633244
0.0618567
0.0604263
0.0590341
0.057681
0.0563681
0.0550966
0.0538677
0.0526828
0.0515428
0.0504488
0.0494016
0.0484019
0.0474502
0.0465467
0.0456917
0.0448853
0.0441273
0.0434179
0.042757
0.0421448
0.0415816
0.0410681
0.0406054
0.0401952
0.0398397
0.0395425
0.039308
0.0391424
0.039054
0.961693
0.892187
0.829088
0.771731
0.719526
0.671946
0.628524
0.588842
0.552527
0.519249
0.488711
0.460648
0.434824
0.411027
0.389068
0.368777
0.350001
0.332604
0.316463
0.301466
0.287516
0.274521
0.2624
0.251082
0.240498
0.23059
0.221303
0.212588
0.204401
0.196699
0.189447
0.182611
0.176159
0.170064
0.164299
0.158842
0.15367
0.148764
0.144106
0.139677
0.135464
0.131452
0.127627
0.123977
0.120491
0.117158
0.113968
0.110912
0.107982
0.10517
0.102468
0.0998686
0.0973658
0.0949532
0.0926249
0.0903755
0.0881998
0.0860929
0.0840503
0.0820677
0.0801413
0.0782674
0.0764428
0.0746645
0.07293
0.0712371
0.0695841
0.0679695
0.0663924
0.0648522
0.0633486
0.0618818
0.0604522
0.0590607
0.0577082
0.0563957
0.0551245
0.0538958
0.0527108
0.0515707
0.0504764
0.0494288
0.0484285
0.0474762
0.046572
0.0457162
0.0449089
0.0441501
0.0434397
0.0427779
0.0421648
0.0416008
0.0410864
0.040623
0.040212
0.0398559
0.0395581
0.0393232
0.0391573
0.0390686
0.961693
0.892187
0.829088
0.771731
0.719526
0.671947
0.628524
0.588842
0.552528
0.51925
0.488711
0.460649
0.434825
0.411028
0.389069
0.368778
0.350003
0.332606
0.316464
0.301468
0.287518
0.274523
0.262402
0.251084
0.2405
0.230593
0.221306
0.212591
0.204403
0.196702
0.18945
0.182614
0.176162
0.170067
0.164303
0.158846
0.153674
0.148768
0.14411
0.139682
0.135469
0.131456
0.127631
0.123982
0.120496
0.117163
0.113974
0.110919
0.107989
0.105177
0.102475
0.0998767
0.0973744
0.0949624
0.0926348
0.0903861
0.0882111
0.086105
0.0840632
0.0820815
0.080156
0.0782831
0.0764596
0.0746824
0.072949
0.0712573
0.0696055
0.067992
0.0664161
0.0648769
0.0633743
0.0619085
0.0604798
0.0590891
0.0577371
0.0564251
0.0551542
0.0539256
0.0527406
0.0516004
0.0505058
0.0494577
0.0484569
0.0475039
0.0465989
0.0457423
0.0449341
0.0441744
0.0434631
0.0428003
0.0421863
0.0416213
0.0411061
0.0406418
0.04023
0.0398733
0.0395749
0.0393395
0.0391732
0.0390843
0.961693
0.892187
0.829088
0.771731
0.719526
0.671947
0.628525
0.588842
0.552528
0.51925
0.488712
0.46065
0.434826
0.411029
0.389071
0.36878
0.350004
0.332607
0.316466
0.30147
0.287519
0.274525
0.262404
0.251086
0.240503
0.230595
0.221308
0.212594
0.204406
0.196705
0.189453
0.182617
0.176165
0.17007
0.164306
0.158849
0.153678
0.148772
0.144114
0.139686
0.135473
0.131461
0.127637
0.123987
0.120502
0.117169
0.11398
0.110925
0.107996
0.105185
0.102484
0.0998853
0.0973836
0.0949722
0.0926452
0.0903972
0.088223
0.0861177
0.0840769
0.0820961
0.0801717
0.0782998
0.0764774
0.0747013
0.0729692
0.0712787
0.069628
0.0680158
0.066441
0.064903
0.0634015
0.0619367
0.0605089
0.0591189
0.0577675
0.056456
0.0551854
0.053957
0.0527721
0.0516316
0.0505367
0.0494882
0.0484868
0.0475331
0.0466273
0.0457698
0.0449607
0.0442
0.0434877
0.042824
0.0422089
0.041643
0.0411268
0.0406617
0.0402491
0.0398917
0.0395927
0.0393567
0.0391901
0.039101
0.961693
0.892187
0.829088
0.771731
0.719526
0.671947
0.628525
0.588843
0.552528
0.519251
0.488713
0.46065
0.434827
0.41103
0.389072
0.368781
0.350005
0.332609
0.316468
0.301472
0.287521
0.274527
0.262407
0.251088
0.240505
0.230597
0.221311
0.212596
0.204409
0.196708
0.189456
0.18262
0.176169
0.170074
0.16431
0.158853
0.153682
0.148776
0.144118
0.139691
0.135478
0.131466
0.127642
0.123993
0.120508
0.117176
0.113987
0.110933
0.108004
0.105193
0.102492
0.0998944
0.0973933
0.0949825
0.0926563
0.090409
0.0882356
0.0861312
0.0840912
0.0821115
0.0801881
0.0783173
0.076496
0.0747212
0.0729903
0.071301
0.0696516
0.0680407
0.0664671
0.0649303
0.0634299
0.0619661
0.0605392
0.05915
0.0577993
0.0564883
0.055218
0.0539898
0.0528048
0.0516642
0.050569
0.04952
0.048518
0.0475635
0.046657
0.0457986
0.0449885
0.0442268
0.0435135
0.0428487
0.0422326
0.0416657
0.0411486
0.0406825
0.0402692
0.039911
0.0396113
0.0393749
0.0392078
0.0391185
0.961693
0.892187
0.829088
0.771731
0.719526
0.671947
0.628525
0.588843
0.552529
0.519251
0.488713
0.460651
0.434828
0.411031
0.389073
0.368782
0.350007
0.33261
0.316469
0.301473
0.287523
0.274528
0.262409
0.25109
0.240507
0.2306
0.221313
0.212599
0.204412
0.196711
0.189459
0.182623
0.176172
0.170077
0.164314
0.158857
0.153686
0.148781
0.144123
0.139696
0.135483
0.131472
0.127648
0.123999
0.120514
0.117182
0.113994
0.11094
0.108012
0.105201
0.102501
0.0999039
0.0974034
0.0949933
0.0926678
0.0904213
0.0882488
0.0861452
0.0841062
0.0821275
0.0802052
0.0783356
0.0765155
0.0747419
0.0730122
0.0713242
0.0696762
0.0680665
0.0664942
0.0649585
0.0634593
0.0619965
0.0605706
0.0591822
0.0578322
0.0565217
0.0552518
0.0540237
0.0528387
0.0516979
0.0506024
0.0495529
0.0485503
0.0475951
0.0466877
0.0458284
0.0450174
0.0442546
0.0435403
0.0428744
0.0422573
0.0416893
0.0411713
0.0407043
0.04029
0.039931
0.0396307
0.0393937
0.0392263
0.0391368
0.961693
0.892187
0.829088
0.771731
0.719526
0.671947
0.628525
0.588843
0.552529
0.519251
0.488714
0.460652
0.434828
0.411032
0.389074
0.368783
0.350008
0.332612
0.316471
0.301475
0.287525
0.27453
0.262411
0.251093
0.24051
0.230602
0.221316
0.212602
0.204415
0.196714
0.189462
0.182627
0.176176
0.170081
0.164318
0.158861
0.15369
0.148785
0.144128
0.139701
0.135489
0.131477
0.127654
0.124005
0.120521
0.117189
0.114001
0.110948
0.10802
0.10521
0.10251
0.0999138
0.097414
0.0950046
0.0926798
0.0904341
0.0882624
0.0861598
0.0841218
0.0821441
0.0802229
0.0783544
0.0765355
0.0747632
0.0730348
0.0713482
0.0697014
0.0680931
0.066522
0.0649876
0.0634896
0.0620279
0.0606029
0.0592153
0.057866
0.056556
0.0552865
0.0540586
0.0528736
0.0517327
0.0506368
0.0495868
0.0485836
0.0476276
0.0467194
0.0458592
0.0450471
0.0442833
0.0435679
0.0429009
0.0422827
0.0417137
0.0411946
0.0407267
0.0403116
0.0399518
0.0396508
0.0394132
0.0392454
0.0391556
0.961693
0.892187
0.829087
0.771731
0.719526
0.671947
0.628525
0.588843
0.552529
0.519252
0.488714
0.460652
0.434829
0.411033
0.389075
0.368784
0.350009
0.332613
0.316472
0.301477
0.287527
0.274532
0.262413
0.251095
0.240512
0.230605
0.221319
0.212605
0.204418
0.196717
0.189466
0.18263
0.176179
0.170085
0.164322
0.158865
0.153695
0.14879
0.144133
0.139706
0.135494
0.131483
0.12766
0.124012
0.120527
0.117196
0.114009
0.110956
0.108029
0.105219
0.10252
0.099924
0.0974248
0.0950161
0.0926921
0.0904473
0.0882764
0.0861748
0.0841378
0.0821612
0.0802411
0.0783738
0.0765561
0.0747851
0.073058
0.0713727
0.0697273
0.0681203
0.0665506
0.0650174
0.0635205
0.0620599
0.060636
0.0592492
0.0579006
0.0565911
0.0553219
0.0540943
0.0529093
0.0517681
0.0506719
0.0496215
0.0486176
0.0476609
0.0467518
0.0458906
0.0450775
0.0443127
0.0435962
0.0429281
0.0423088
0.0417387
0.0412186
0.0407497
0.0403337
0.0399731
0.0396714
0.0394333
0.039265
0.039175
0.961693
0.892187
0.829087
0.771731
0.719526
0.671947
0.628525
0.588843
0.55253
0.519252
0.488715
0.460653
0.43483
0.411034
0.389076
0.368785
0.35001
0.332614
0.316474
0.301478
0.287528
0.274534
0.262415
0.251097
0.240514
0.230607
0.221321
0.212607
0.20442
0.19672
0.189469
0.182634
0.176183
0.170089
0.164326
0.15887
0.153699
0.148795
0.144138
0.139711
0.1355
0.131489
0.127666
0.124018
0.120534
0.117204
0.114017
0.110964
0.108037
0.105228
0.10253
0.0999345
0.097436
0.095028
0.0927048
0.0904608
0.0882908
0.0861901
0.0841541
0.0821786
0.0802597
0.0783936
0.0765772
0.0748074
0.0730817
0.0713977
0.0697537
0.068148
0.0665796
0.0650477
0.0635521
0.0620926
0.0606696
0.0592837
0.0579358
0.0566268
0.055358
0.0541305
0.0529455
0.0518042
0.0507077
0.0496568
0.0486523
0.0476948
0.0467848
0.0459227
0.0451086
0.0443426
0.043625
0.0429559
0.0423355
0.0417643
0.0412431
0.0407732
0.0403563
0.0399949
0.0396924
0.0394537
0.039285
0.0391948
0.961693
0.892186
0.829087
0.771731
0.719526
0.671947
0.628525
0.588843
0.55253
0.519252
0.488715
0.460653
0.43483
0.411034
0.389076
0.368786
0.350012
0.332615
0.316475
0.30148
0.28753
0.274536
0.262417
0.251099
0.240517
0.23061
0.221324
0.21261
0.204423
0.196723
0.189472
0.182637
0.176187
0.170093
0.16433
0.158874
0.153704
0.1488
0.144143
0.139716
0.135505
0.131495
0.127672
0.124025
0.120541
0.117211
0.114025
0.110973
0.108046
0.105238
0.10254
0.0999452
0.0974474
0.0950401
0.0927177
0.0904745
0.0883055
0.0862058
0.0841708
0.0821964
0.0802786
0.0784137
0.0765986
0.0748301
0.0731057
0.0714231
0.0697804
0.0681761
0.066609
0.0650784
0.063584
0.0621256
0.0607036
0.0593185
0.0579713
0.0566629
0.0553945
0.0541672
0.0529822
0.0518408
0.0507439
0.0496925
0.0486873
0.0477291
0.0468183
0.0459552
0.04514
0.044373
0.0436543
0.042984
0.0423625
0.0417902
0.041268
0.0407971
0.0403792
0.040017
0.0397138
0.0394745
0.0393054
0.0392149
0.961693
0.892186
0.829087
0.771731
0.719526
0.671947
0.628525
0.588844
0.55253
0.519253
0.488715
0.460654
0.434831
0.411035
0.389077
0.368787
0.350013
0.332617
0.316476
0.301481
0.287532
0.274538
0.262419
0.251101
0.240519
0.230612
0.221327
0.212613
0.204426
0.196726
0.189476
0.182641
0.17619
0.170097
0.164334
0.158878
0.153709
0.148805
0.144148
0.139722
0.135511
0.131501
0.127679
0.124032
0.120549
0.117219
0.114033
0.110981
0.108055
0.105247
0.10255
0.0999561
0.0974589
0.0950524
0.0927308
0.0904884
0.0883203
0.0862216
0.0841877
0.0822143
0.0802977
0.0784341
0.0766202
0.074853
0.07313
0.0714488
0.0698074
0.0682045
0.0666387
0.0651094
0.0636161
0.0621588
0.0607378
0.0593537
0.0580072
0.0566993
0.0554313
0.0542042
0.0530192
0.0518776
0.0507804
0.0497285
0.0487227
0.0477637
0.046852
0.0459879
0.0451718
0.0444037
0.0436838
0.0430124
0.0423898
0.0418164
0.0412931
0.0408212
0.0404024
0.0400393
0.0397354
0.0394955
0.0393259
0.0392352
0.961693
0.892186
0.829087
0.771731
0.719526
0.671947
0.628525
0.588844
0.55253
0.519253
0.488716
0.460654
0.434831
0.411036
0.389078
0.368788
0.350014
0.332618
0.316478
0.301483
0.287533
0.27454
0.262421
0.251103
0.240521
0.230615
0.221329
0.212616
0.204429
0.196729
0.189479
0.182644
0.176194
0.170101
0.164338
0.158883
0.153713
0.148809
0.144153
0.139727
0.135517
0.131507
0.127685
0.124039
0.120556
0.117227
0.114041
0.11099
0.108064
0.105257
0.10256
0.099967
0.0974706
0.0950648
0.092744
0.0905025
0.0883353
0.0862376
0.0842047
0.0822325
0.080317
0.0784546
0.0766419
0.0748761
0.0731544
0.0714745
0.0698346
0.068233
0.0666685
0.0651405
0.0636484
0.0621922
0.0607722
0.0593889
0.0580432
0.0567359
0.0554682
0.0542413
0.0530564
0.0519146
0.050817
0.0497646
0.0487582
0.0477985
0.0468859
0.0460209
0.0452037
0.0444345
0.0437136
0.043041
0.0424173
0.0418428
0.0413184
0.0408455
0.0404258
0.0400618
0.0397572
0.0395167
0.0393467
0.0392557
0.961693
0.892186
0.829087
0.771731
0.719526
0.671947
0.628525
0.588844
0.55253
0.519253
0.488716
0.460654
0.434832
0.411036
0.389079
0.368789
0.350015
0.332619
0.316479
0.301484
0.287535
0.274541
0.262423
0.251105
0.240523
0.230617
0.221332
0.212618
0.204432
0.196733
0.189482
0.182648
0.176198
0.170105
0.164342
0.158887
0.153718
0.148814
0.144158
0.139733
0.135523
0.131513
0.127692
0.124045
0.120563
0.117234
0.114049
0.110998
0.108074
0.105267
0.102571
0.0999781
0.0974823
0.0950773
0.0927573
0.0905167
0.0883504
0.0862536
0.0842218
0.0822506
0.0803363
0.0784751
0.0766637
0.0748992
0.0731788
0.0715003
0.0698617
0.0682615
0.0666983
0.0651716
0.0636807
0.0622256
0.0608066
0.0594242
0.0580791
0.0567724
0.0555051
0.0542784
0.0530935
0.0519516
0.0508537
0.0498008
0.0487938
0.0478333
0.0469199
0.0460539
0.0452357
0.0444654
0.0437433
0.0430697
0.0424448
0.0418692
0.0413438
0.0408699
0.0404492
0.0400844
0.039779
0.0395379
0.0393674
0.0392762
0.961693
0.892186
0.829087
0.771731
0.719526
0.671947
0.628525
0.588844
0.55253
0.519253
0.488716
0.460655
0.434832
0.411037
0.389079
0.36879
0.350015
0.33262
0.31648
0.301485
0.287536
0.274543
0.262424
0.251107
0.240525
0.230619
0.221334
0.212621
0.204435
0.196736
0.189486
0.182651
0.176201
0.170109
0.164346
0.158892
0.153723
0.148819
0.144164
0.139738
0.135529
0.13152
0.127698
0.124052
0.12057
0.117242
0.114057
0.111007
0.108083
0.105277
0.102581
0.0999891
0.0974941
0.0950898
0.0927706
0.0905308
0.0883655
0.0862697
0.0842388
0.0822688
0.0803556
0.0784956
0.0766855
0.0749223
0.0732032
0.071526
0.0698888
0.0682899
0.0667281
0.0652026
0.0637129
0.0622589
0.0608409
0.0594593
0.0581149
0.0568088
0.0555418
0.0543153
0.0531305
0.0519884
0.0508902
0.0498369
0.0488292
0.047868
0.0469537
0.0460868
0.0452676
0.0444962
0.0437731
0.0430983
0.0424723
0.0418956
0.0413692
0.0408942
0.0404726
0.040107
0.0398008
0.0395591
0.0393882
0.0392967
0.961693
0.892186
0.829087
0.771731
0.719526
0.671947
0.628525
0.588844
0.55253
0.519253
0.488716
0.460655
0.434833
0.411037
0.38908
0.36879
0.350016
0.332621
0.316481
0.301487
0.287538
0.274545
0.262426
0.251109
0.240528
0.230622
0.221337
0.212624
0.204438
0.196739
0.189489
0.182654
0.176205
0.170112
0.164351
0.158896
0.153727
0.148824
0.144169
0.139744
0.135534
0.131526
0.127705
0.124059
0.120578
0.11725
0.114066
0.111016
0.108092
0.105287
0.102592
0.1
0.0975058
0.0951023
0.0927839
0.090545
0.0883805
0.0862857
0.0842559
0.0822869
0.0803749
0.0785161
0.0767072
0.0749452
0.0732275
0.0715516
0.0699157
0.0683181
0.0667576
0.0652333
0.0637448
0.0622919
0.0608749
0.0594942
0.0581505
0.0568449
0.0555783
0.054352
0.0531672
0.052025
0.0509265
0.0498727
0.0488644
0.0479025
0.0469874
0.0461195
0.0452993
0.0445269
0.0438026
0.0431268
0.0424997
0.0419219
0.0413944
0.0409184
0.0404959
0.0401294
0.0398226
0.0395802
0.0394089
0.0393171
0.961693
0.892186
0.829087
0.771731
0.719526
0.671947
0.628525
0.588844
0.55253
0.519253
0.488717
0.460655
0.434833
0.411038
0.389081
0.368791
0.350017
0.332622
0.316482
0.301488
0.287539
0.274546
0.262428
0.251111
0.24053
0.230624
0.221339
0.212626
0.204441
0.196742
0.189492
0.182658
0.176209
0.170116
0.164355
0.1589
0.153732
0.148829
0.144174
0.139749
0.13554
0.131532
0.127711
0.124066
0.120585
0.117257
0.114074
0.111024
0.108101
0.105296
0.102602
0.100011
0.0975175
0.0951147
0.0927971
0.090559
0.0883955
0.0863016
0.0842728
0.0823049
0.0803939
0.0785363
0.0767286
0.0749679
0.0732515
0.0715769
0.0699423
0.068346
0.0667868
0.0652638
0.0637764
0.0623246
0.0609085
0.0595286
0.0581857
0.0568806
0.0556144
0.0543883
0.0532035
0.0520612
0.0509624
0.0499081
0.0488993
0.0479366
0.0470207
0.0461519
0.0453307
0.0445573
0.043832
0.043155
0.0425268
0.041948
0.0414194
0.0409425
0.040519
0.0401517
0.0398441
0.0396012
0.0394294
0.0393373
0.961693
0.892186
0.829087
0.771731
0.719526
0.671947
0.628525
0.588844
0.552531
0.519254
0.488717
0.460656
0.434833
0.411038
0.389081
0.368792
0.350018
0.332623
0.316483
0.301489
0.28754
0.274548
0.262429
0.251113
0.240532
0.230626
0.221341
0.212629
0.204443
0.196744
0.189495
0.182661
0.176212
0.17012
0.164359
0.158905
0.153736
0.148834
0.144179
0.139755
0.135546
0.131538
0.127718
0.124073
0.120592
0.117265
0.114082
0.111033
0.10811
0.105306
0.102612
0.100022
0.0975291
0.095127
0.0928101
0.0905729
0.0884102
0.0863173
0.0842895
0.0823227
0.0804128
0.0785563
0.0767499
0.0749904
0.0732752
0.0716019
0.0699686
0.0683736
0.0668156
0.0652938
0.0638076
0.0623568
0.0609417
0.0595626
0.0582204
0.0569158
0.05565
0.0544241
0.0532394
0.0520969
0.0509978
0.0499431
0.0489337
0.0479704
0.0470536
0.0461839
0.0453617
0.0445873
0.0438609
0.0431829
0.0425536
0.0419738
0.0414442
0.0409663
0.0405419
0.0401737
0.0398654
0.0396219
0.0394496
0.0393573
0.961693
0.892186
0.829087
0.771731
0.719526
0.671947
0.628525
0.588844
0.552531
0.519254
0.488717
0.460656
0.434834
0.411039
0.389082
0.368792
0.350019
0.332624
0.316484
0.30149
0.287542
0.274549
0.262431
0.251114
0.240533
0.230628
0.221344
0.212631
0.204446
0.196747
0.189498
0.182664
0.176216
0.170124
0.164363
0.158909
0.153741
0.148839
0.144184
0.13976
0.135552
0.131544
0.127724
0.12408
0.120599
0.117273
0.11409
0.111042
0.108119
0.105315
0.102622
0.100033
0.0975405
0.0951392
0.092823
0.0905866
0.0884248
0.0863328
0.084306
0.0823402
0.0804314
0.078576
0.0767708
0.0750125
0.0732985
0.0716265
0.0699945
0.0684007
0.066844
0.0653233
0.0638382
0.0623885
0.0609743
0.059596
0.0582545
0.0569504
0.055685
0.0544593
0.0532746
0.052132
0.0510327
0.0499776
0.0489676
0.0480035
0.047086
0.0462155
0.0453923
0.0446169
0.0438895
0.0432104
0.0425801
0.0419992
0.0414686
0.0409897
0.0405644
0.0401954
0.0398864
0.0396423
0.0394696
0.039377
0.961693
0.892186
0.829087
0.771731
0.719526
0.671947
0.628525
0.588844
0.552531
0.519254
0.488717
0.460656
0.434834
0.411039
0.389082
0.368793
0.350019
0.332624
0.316485
0.301491
0.287543
0.27455
0.262432
0.251116
0.240535
0.23063
0.221346
0.212633
0.204448
0.19675
0.189501
0.182668
0.176219
0.170127
0.164366
0.158913
0.153745
0.148843
0.144189
0.139765
0.135557
0.13155
0.12773
0.124086
0.120606
0.11728
0.114098
0.11105
0.108128
0.105325
0.102632
0.100043
0.0975517
0.0951511
0.0928357
0.0906001
0.0884392
0.086348
0.0843222
0.0823574
0.0804497
0.0785954
0.0767913
0.0750342
0.0733214
0.0716507
0.0700199
0.0684273
0.0668717
0.0653522
0.0638682
0.0624195
0.0610062
0.0596288
0.0582879
0.0569843
0.0557193
0.0544938
0.0533092
0.0521665
0.0510668
0.0500113
0.0490008
0.0480361
0.0471178
0.0462464
0.0454223
0.0446459
0.0439175
0.0432374
0.042606
0.0420241
0.0414925
0.0410127
0.0405865
0.0402168
0.039907
0.0396623
0.0394892
0.0393964
0.961693
0.892186
0.829087
0.771731
0.719526
0.671947
0.628525
0.588844
0.552531
0.519254
0.488717
0.460656
0.434834
0.41104
0.389083
0.368794
0.35002
0.332625
0.316486
0.301492
0.287544
0.274552
0.262434
0.251118
0.240537
0.230632
0.221348
0.212636
0.204451
0.196753
0.189504
0.182671
0.176222
0.170131
0.16437
0.158917
0.153749
0.148848
0.144194
0.13977
0.135562
0.131555
0.127736
0.124093
0.120613
0.117287
0.114105
0.111058
0.108137
0.105334
0.102642
0.100054
0.0975627
0.0951628
0.0928482
0.0906133
0.0884532
0.0863629
0.084338
0.0823742
0.0804675
0.0786143
0.0768113
0.0750554
0.0733438
0.0716742
0.0700446
0.0684533
0.0668989
0.0653805
0.0638976
0.0624498
0.0610374
0.0596608
0.0583205
0.0570175
0.0557528
0.0545275
0.0533429
0.0522001
0.0511002
0.0500443
0.0490333
0.0480679
0.0471489
0.0462766
0.0454517
0.0446743
0.0439449
0.0432638
0.0426314
0.0420485
0.041516
0.0410352
0.0406082
0.0402376
0.0399272
0.0396819
0.0395084
0.0394153
0.961693
0.892186
0.829087
0.771731
0.719526
0.671947
0.628525
0.588844
0.552531
0.519254
0.488717
0.460657
0.434835
0.41104
0.389083
0.368794
0.350021
0.332626
0.316487
0.301493
0.287545
0.274553
0.262435
0.251119
0.240539
0.230634
0.22135
0.212638
0.204453
0.196755
0.189507
0.182674
0.176225
0.170134
0.164374
0.158921
0.153753
0.148852
0.144198
0.139775
0.135568
0.131561
0.127742
0.124099
0.12062
0.117294
0.114113
0.111066
0.108145
0.105343
0.102652
0.100064
0.0975735
0.0951742
0.0928603
0.0906262
0.0884669
0.0863775
0.0843535
0.0823906
0.0804849
0.0786328
0.0768309
0.075076
0.0733656
0.0716972
0.0700688
0.0684786
0.0669253
0.065408
0.0639261
0.0624793
0.0610678
0.0596919
0.0583523
0.0570498
0.0557854
0.0545604
0.0533758
0.0522329
0.0511328
0.0500765
0.0490649
0.048099
0.0471792
0.0463061
0.0454803
0.044702
0.0439717
0.0432896
0.0426562
0.0420723
0.0415389
0.0410572
0.0406294
0.040258
0.0399469
0.0397011
0.0395271
0.0394338
0.961693
0.892186
0.829087
0.771731
0.719526
0.671947
0.628525
0.588844
0.552531
0.519254
0.488718
0.460657
0.434835
0.41104
0.389083
0.368795
0.350021
0.332627
0.316488
0.301494
0.287546
0.274554
0.262437
0.251121
0.24054
0.230635
0.221352
0.21264
0.204456
0.196758
0.189509
0.182676
0.176229
0.170137
0.164377
0.158924
0.153757
0.148856
0.144203
0.13978
0.135573
0.131567
0.127748
0.124105
0.120626
0.117301
0.11412
0.111074
0.108154
0.105352
0.102661
0.100074
0.097584
0.0951854
0.0928721
0.0906388
0.0884802
0.0863917
0.0843685
0.0824066
0.0805019
0.0786507
0.0768498
0.0750961
0.0733868
0.0717195
0.0700922
0.0685031
0.0669509
0.0654347
0.0639538
0.062508
0.0610973
0.0597221
0.0583831
0.0570811
0.0558171
0.0545922
0.0534077
0.0522647
0.0511644
0.0501077
0.0490957
0.0481291
0.0472086
0.0463348
0.0455081
0.044729
0.0439977
0.0433146
0.0426803
0.0420955
0.0415611
0.0410786
0.0406499
0.0402779
0.0399661
0.0397197
0.0395453
0.0394518
0.961693
0.892186
0.829087
0.771731
0.719526
0.671947
0.628525
0.588844
0.552531
0.519254
0.488718
0.460657
0.434835
0.411041
0.389084
0.368795
0.350022
0.332627
0.316489
0.301495
0.287547
0.274555
0.262438
0.251122
0.240542
0.230637
0.221354
0.212642
0.204458
0.19676
0.189512
0.182679
0.176232
0.170141
0.164381
0.158928
0.153761
0.14886
0.144207
0.139785
0.135578
0.131572
0.127754
0.124111
0.120633
0.117308
0.114127
0.111081
0.108162
0.10536
0.10267
0.100083
0.0975941
0.0951961
0.0928836
0.0906509
0.0884932
0.0864054
0.0843831
0.082422
0.0805182
0.0786681
0.0768682
0.0751155
0.0734073
0.0717411
0.0701148
0.0685268
0.0669757
0.0654605
0.0639806
0.0625356
0.0611258
0.0597513
0.0584129
0.0571113
0.0558477
0.0546231
0.0534386
0.0522955
0.0511949
0.0501379
0.0491254
0.0481583
0.0472371
0.0463626
0.0455351
0.044755
0.0440228
0.0433389
0.0427037
0.042118
0.0415827
0.0410993
0.0406699
0.0402971
0.0399847
0.0397377
0.039563
0.0394692
0.961693
0.892186
0.829087
0.77173
0.719526
0.671947
0.628525
0.588844
0.552531
0.519254
0.488718
0.460657
0.434835
0.411041
0.389084
0.368796
0.350022
0.332628
0.316489
0.301496
0.287548
0.274556
0.262439
0.251124
0.240543
0.230639