/*--------------------------------*- C++ -*----------------------------------*\
  =========                 |
  \\      /  F ield         | OpenFOAM: The Open Source CFD Toolbox
   \\    /   O peration     | Website:  https://openfoam.org
    \\  /    A nd           | Version:  11
     \\/     M anipulation  |
\*---------------------------------------------------------------------------*/
FoamFile
{
    format      ascii;
    class       volScalarField;
    location    "722";
    object      omega;
}
// * * * * * * * * * * * * * * * * * * * * * * * * * * * * * * * * * * * * * //

dimensions      [0 0 -1 0 0 0 0];

internalField   nonuniform List<scalar> 
10000
(
0.961692
0.892185
0.829084
0.771728
0.719523
0.671944
0.628523
0.588843
0.552532
0.519258
0.488725
0.460668
0.43485
0.411061
0.389111
0.368829
0.350064
0.332678
0.316548
0.301565
0.287629
0.274648
0.262544
0.251242
0.240677
0.230788
0.221521
0.212828
0.204662
0.196984
0.189757
0.182947
0.176523
0.170457
0.164723
0.159298
0.154161
0.149291
0.14467
0.140282
0.136112
0.132145
0.128368
0.124769
0.121337
0.118062
0.114935
0.111945
0.109086
0.10635
0.103729
0.101217
0.0988081
0.0964962
0.0942762
0.0921431
0.0900922
0.0881192
0.08622
0.0843908
0.0826281
0.0809284
0.0792887
0.0777059
0.0761773
0.0747003
0.0732723
0.0718911
0.0705543
0.06926
0.0680062
0.0667909
0.0656124
0.064469
0.0633591
0.0622811
0.0612337
0.0602155
0.059225
0.0582612
0.0573228
0.0564087
0.0555179
0.0546494
0.0538025
0.0529763
0.0521703
0.0513843
0.050618
0.0498719
0.0491467
0.0484442
0.0477669
0.0471192
0.0465071
0.04594
0.0454311
0.0449994
0.0446717
0.0444852
0.961692
0.892185
0.829085
0.771728
0.719523
0.671944
0.628523
0.588843
0.552532
0.519258
0.488725
0.460668
0.43485
0.411061
0.389111
0.368829
0.350064
0.332678
0.316548
0.301565
0.287629
0.274648
0.262544
0.251242
0.240677
0.230788
0.221521
0.212828
0.204662
0.196984
0.189757
0.182947
0.176523
0.170457
0.164723
0.159298
0.154161
0.149291
0.14467
0.140283
0.136112
0.132145
0.128368
0.124769
0.121337
0.118062
0.114935
0.111945
0.109086
0.10635
0.103729
0.101217
0.0988082
0.0964964
0.0942764
0.0921433
0.0900924
0.0881194
0.0862202
0.084391
0.0826283
0.0809286
0.0792889
0.0777061
0.0761776
0.0747005
0.0732726
0.0718913
0.0705546
0.0692603
0.0680064
0.0667912
0.0656127
0.0644693
0.0633594
0.0622815
0.0612341
0.0602158
0.0592254
0.0582616
0.0573232
0.0564091
0.0555183
0.0546499
0.0538029
0.0529768
0.0521708
0.0513848
0.0506185
0.0498724
0.0491472
0.0484447
0.0477675
0.0471197
0.0465077
0.0459406
0.0454317
0.045
0.0446722
0.0444858
0.961692
0.892185
0.829085
0.771728
0.719523
0.671944
0.628523
0.588843
0.552532
0.519258
0.488725
0.460668
0.43485
0.411061
0.389111
0.368829
0.350064
0.332678
0.316548
0.301565
0.287629
0.274649
0.262544
0.251242
0.240677
0.230788
0.221521
0.212828
0.204662
0.196984
0.189757
0.182947
0.176523
0.170457
0.164723
0.159298
0.154161
0.149291
0.14467
0.140283
0.136112
0.132145
0.128368
0.124769
0.121338
0.118063
0.114935
0.111946
0.109087
0.10635
0.103729
0.101217
0.0988085
0.0964967
0.0942767
0.0921436
0.0900927
0.0881197
0.0862205
0.0843914
0.0826287
0.080929
0.0792893
0.0777066
0.076178
0.074701
0.073273
0.0718918
0.0705551
0.0692608
0.068007
0.0667917
0.0656133
0.0644699
0.06336
0.0622821
0.0612348
0.0602165
0.0592261
0.0582623
0.057324
0.0564099
0.0555191
0.0546507
0.0538038
0.0529777
0.0521718
0.0513857
0.0506195
0.0498734
0.0491483
0.0484458
0.0477686
0.0471208
0.0465088
0.0459417
0.0454328
0.0450011
0.0446733
0.0444869
0.961692
0.892185
0.829085
0.771728
0.719523
0.671944
0.628523
0.588843
0.552532
0.519258
0.488725
0.460668
0.43485
0.411061
0.389111
0.368829
0.350064
0.332678
0.316549
0.301565
0.287629
0.274649
0.262544
0.251242
0.240677
0.230788
0.221521
0.212828
0.204662
0.196985
0.189757
0.182947
0.176523
0.170457
0.164723
0.159299
0.154161
0.149291
0.144671
0.140283
0.136112
0.132145
0.128368
0.12477
0.121338
0.118063
0.114935
0.111946
0.109087
0.106351
0.10373
0.101218
0.0988089
0.0964971
0.0942771
0.092144
0.0900932
0.0881202
0.086221
0.0843919
0.0826292
0.0809296
0.0792899
0.0777072
0.0761787
0.0747017
0.0732737
0.0718925
0.0705559
0.0692616
0.0680078
0.0667926
0.0656141
0.0644708
0.063361
0.0622831
0.0612357
0.0602176
0.0592272
0.0582634
0.0573251
0.0564111
0.0555204
0.054652
0.0538051
0.052979
0.0521731
0.0513871
0.0506209
0.0498749
0.0491498
0.0484473
0.0477701
0.0471224
0.0465104
0.0459433
0.0454344
0.0450027
0.044675
0.0444885
0.961692
0.892185
0.829085
0.771728
0.719523
0.671944
0.628523
0.588843
0.552532
0.519258
0.488725
0.460668
0.434851
0.411061
0.389111
0.368829
0.350064
0.332678
0.316549
0.301565
0.287629
0.274649
0.262544
0.251243
0.240677
0.230788
0.221522
0.212828
0.204662
0.196985
0.189758
0.182947
0.176523
0.170457
0.164724
0.159299
0.154161
0.149291
0.144671
0.140283
0.136113
0.132146
0.128369
0.12477
0.121338
0.118063
0.114936
0.111946
0.109087
0.106351
0.10373
0.101218
0.0988094
0.0964976
0.0942777
0.0921446
0.0900938
0.0881208
0.0862217
0.0843926
0.0826299
0.0809304
0.0792907
0.077708
0.0761795
0.0747025
0.0732747
0.0718935
0.0705569
0.0692626
0.0680089
0.0667937
0.0656153
0.064472
0.0633622
0.0622844
0.0612371
0.0602189
0.0592286
0.0582649
0.0573266
0.0564126
0.055522
0.0546536
0.0538068
0.0529808
0.0521749
0.051389
0.0506229
0.0498768
0.0491518
0.0484494
0.0477722
0.0471245
0.0465125
0.0459454
0.0454366
0.0450049
0.0446771
0.0444906
0.961692
0.892185
0.829084
0.771728
0.719523
0.671944
0.628523
0.588843
0.552532
0.519258
0.488725
0.460668
0.434851
0.411061
0.389111
0.368829
0.350064
0.332678
0.316549
0.301565
0.287629
0.274649
0.262544
0.251243
0.240677
0.230788
0.221522
0.212828
0.204663
0.196985
0.189758
0.182948
0.176523
0.170457
0.164724
0.159299
0.154162
0.149292
0.144671
0.140283
0.136113
0.132146
0.128369
0.12477
0.121339
0.118064
0.114936
0.111947
0.109088
0.106352
0.103731
0.101219
0.0988101
0.0964983
0.0942784
0.0921454
0.0900946
0.0881216
0.0862226
0.0843935
0.0826308
0.0809313
0.0792917
0.077709
0.0761806
0.0747036
0.0732758
0.0718947
0.0705581
0.0692639
0.0680102
0.066795
0.0656167
0.0644734
0.0633637
0.0622859
0.0612387
0.0602206
0.0592303
0.0582667
0.0573284
0.0564145
0.0555239
0.0546556
0.0538089
0.0529829
0.0521772
0.0513913
0.0506252
0.0498792
0.0491542
0.0484519
0.0477747
0.0471271
0.0465151
0.0459481
0.0454392
0.0450075
0.0446797
0.0444933
0.961692
0.892185
0.829084
0.771728
0.719523
0.671944
0.628523
0.588843
0.552532
0.519258
0.488725
0.460668
0.434851
0.411061
0.389111
0.368829
0.350064
0.332678
0.316549
0.301566
0.287629
0.274649
0.262545
0.251243
0.240677
0.230788
0.221522
0.212828
0.204663
0.196985
0.189758
0.182948
0.176524
0.170458
0.164724
0.159299
0.154162
0.149292
0.144672
0.140284
0.136114
0.132146
0.12837
0.124771
0.121339
0.118064
0.114937
0.111948
0.109089
0.106352
0.103731
0.10122
0.0988108
0.0964991
0.0942792
0.0921462
0.0900954
0.0881226
0.0862235
0.0843945
0.0826319
0.0809324
0.0792928
0.0777102
0.0761818
0.0747049
0.0732771
0.071896
0.0705595
0.0692654
0.0680117
0.0667966
0.0656183
0.0644751
0.0633654
0.0622877
0.0612405
0.0602225
0.0592323
0.0582687
0.0573306
0.0564167
0.0555262
0.054658
0.0538113
0.0529854
0.0521797
0.0513939
0.0506279
0.049882
0.0491571
0.0484548
0.0477777
0.0471301
0.0465182
0.0459511
0.0454423
0.0450106
0.0446828
0.0444963
0.961692
0.892185
0.829084
0.771728
0.719523
0.671944
0.628523
0.588843
0.552532
0.519258
0.488725
0.460668
0.434851
0.411062
0.389111
0.368829
0.350064
0.332678
0.316549
0.301566
0.287629
0.274649
0.262545
0.251243
0.240678
0.230789
0.221522
0.212828
0.204663
0.196985
0.189758
0.182948
0.176524
0.170458
0.164724
0.1593
0.154162
0.149292
0.144672
0.140284
0.136114
0.132147
0.12837
0.124771
0.12134
0.118065
0.114937
0.111948
0.109089
0.106353
0.103732
0.101221
0.0988117
0.0965
0.0942802
0.0921472
0.0900965
0.0881236
0.0862246
0.0843956
0.0826331
0.0809336
0.0792941
0.0777115
0.0761832
0.0747063
0.0732786
0.0718976
0.0705611
0.069267
0.0680134
0.0667984
0.0656201
0.064477
0.0633674
0.0622898
0.0612427
0.0602247
0.0592346
0.0582711
0.057333
0.0564193
0.0555288
0.0546607
0.0538141
0.0529883
0.0521827
0.0513969
0.050631
0.0498852
0.0491604
0.0484581
0.0477811
0.0471335
0.0465216
0.0459546
0.0454458
0.0450141
0.0446863
0.0444999
0.961692
0.892185
0.829084
0.771728
0.719523
0.671944
0.628523
0.588843
0.552532
0.519258
0.488725
0.460668
0.434851
0.411062
0.389111
0.368829
0.350064
0.332678
0.316549
0.301566
0.287629
0.274649
0.262545
0.251243
0.240678
0.230789
0.221522
0.212829
0.204663
0.196986
0.189758
0.182948
0.176524
0.170458
0.164725
0.1593
0.154163
0.149293
0.144672
0.140285
0.136115
0.132148
0.128371
0.124772
0.12134
0.118066
0.114938
0.111949
0.10909
0.106354
0.103733
0.101221
0.0988126
0.096501
0.0942812
0.0921483
0.0900976
0.0881248
0.0862258
0.0843969
0.0826344
0.080935
0.0792955
0.077713
0.0761847
0.0747079
0.0732803
0.0718993
0.0705629
0.0692689
0.0680153
0.0668004
0.0656222
0.0644792
0.0633696
0.0622921
0.061245
0.0602272
0.0592371
0.0582737
0.0573357
0.0564221
0.0555317
0.0546637
0.0538172
0.0529914
0.0521859
0.0514003
0.0506345
0.0498887
0.049164
0.0484618
0.0477849
0.0471373
0.0465255
0.0459585
0.0454497
0.045018
0.0446903
0.0445038
0.961692
0.892185
0.829084
0.771728
0.719523
0.671944
0.628523
0.588843
0.552532
0.519258
0.488725
0.460668
0.434851
0.411062
0.389111
0.368829
0.350064
0.332678
0.316549
0.301566
0.287629
0.274649
0.262545
0.251243
0.240678
0.230789
0.221522
0.212829
0.204663
0.196986
0.189759
0.182949
0.176525
0.170459
0.164725
0.159301
0.154163
0.149293
0.144673
0.140285
0.136115
0.132148
0.128371
0.124773
0.121341
0.118066
0.114939
0.11195
0.109091
0.106355
0.103734
0.101222
0.0988137
0.0965021
0.0942823
0.0921494
0.0900988
0.0881261
0.0862272
0.0843983
0.0826358
0.0809365
0.0792971
0.0777146
0.0761864
0.0747097
0.0732821
0.0719012
0.0705648
0.0692709
0.0680174
0.0668025
0.0656245
0.0644815
0.063372
0.0622945
0.0612476
0.0602298
0.0592399
0.0582766
0.0573387
0.0564251
0.0555348
0.0546669
0.0538205
0.0529949
0.0521895
0.051404
0.0506382
0.0498926
0.0491679
0.0484658
0.047789
0.0471415
0.0465297
0.0459628
0.045454
0.0450223
0.0446946
0.044508
0.961692
0.892184
0.829084
0.771728
0.719523
0.671944
0.628523
0.588843
0.552532
0.519258
0.488725
0.460668
0.434851
0.411062
0.389111
0.368829
0.350064
0.332678
0.316549
0.301566
0.287629
0.274649
0.262545
0.251243
0.240678
0.230789
0.221523
0.212829
0.204664
0.196986
0.189759
0.182949
0.176525
0.170459
0.164726
0.159301
0.154164
0.149294
0.144674
0.140286
0.136116
0.132149
0.128372
0.124773
0.121342
0.118067
0.11494
0.111951
0.109092
0.106356
0.103735
0.101224
0.0988148
0.0965032
0.0942835
0.0921507
0.0901001
0.0881275
0.0862286
0.0843998
0.0826374
0.0809381
0.0792988
0.0777164
0.0761882
0.0747116
0.073284
0.0719032
0.0705669
0.0692731
0.0680197
0.0668049
0.0656269
0.064484
0.0633746
0.0622972
0.0612504
0.0602327
0.0592429
0.0582796
0.0573418
0.0564284
0.0555382
0.0546704
0.0538241
0.0529986
0.0521933
0.0514079
0.0506423
0.0498967
0.0491722
0.0484702
0.0477934
0.047146
0.0465343
0.0459674
0.0454586
0.045027
0.0446992
0.0445127
0.961692
0.892184
0.829084
0.771728
0.719523
0.671944
0.628523
0.588843
0.552532
0.519258
0.488725
0.460668
0.434851
0.411062
0.389111
0.368829
0.350064
0.332678
0.316549
0.301566
0.287629
0.274649
0.262545
0.251244
0.240678
0.230789
0.221523
0.212829
0.204664
0.196986
0.189759
0.182949
0.176525
0.17046
0.164726
0.159301
0.154164
0.149294
0.144674
0.140287
0.136116
0.132149
0.128373
0.124774
0.121343
0.118068
0.114941
0.111952
0.109093
0.106357
0.103736
0.101225
0.098816
0.0965045
0.0942848
0.0921521
0.0901015
0.0881289
0.0862301
0.0844014
0.082639
0.0809398
0.0793005
0.0777182
0.0761901
0.0747136
0.0732861
0.0719054
0.0705691
0.0692754
0.0680221
0.0668074
0.0656294
0.0644866
0.0633774
0.0623001
0.0612533
0.0602357
0.059246
0.0582829
0.0573452
0.0564319
0.0555418
0.0546741
0.053828
0.0530026
0.0521974
0.0514121
0.0506466
0.0499012
0.0491767
0.0484748
0.0477981
0.0471508
0.0465391
0.0459723
0.0454636
0.0450319
0.0447042
0.0445176
0.961692
0.892184
0.829084
0.771727
0.719523
0.671944
0.628523
0.588843
0.552532
0.519258
0.488725
0.460668
0.434851
0.411062
0.389111
0.368829
0.350064
0.332678
0.316549
0.301566
0.28763
0.27465
0.262545
0.251244
0.240678
0.23079
0.221523
0.21283
0.204664
0.196987
0.18976
0.18295
0.176526
0.17046
0.164727
0.159302
0.154165
0.149295
0.144675
0.140287
0.136117
0.13215
0.128373
0.124775
0.121344
0.118069
0.114942
0.111953
0.109094
0.106358
0.103737
0.101226
0.0988172
0.0965058
0.0942862
0.0921535
0.090103
0.0881305
0.0862317
0.084403
0.0826408
0.0809416
0.0793024
0.0777202
0.0761921
0.0747157
0.0732883
0.0719076
0.0705715
0.0692778
0.0680246
0.06681
0.0656321
0.0644894
0.0633803
0.0623031
0.0612564
0.060239
0.0592493
0.0582863
0.0573488
0.0564355
0.0555456
0.054678
0.053832
0.0530067
0.0522017
0.0514165
0.0506511
0.0499058
0.0491814
0.0484796
0.0478031
0.0471558
0.0465442
0.0459775
0.0454688
0.0450372
0.0447094
0.0445228
0.961692
0.892184
0.829084
0.771727
0.719523
0.671944
0.628523
0.588843
0.552532
0.519258
0.488725
0.460668
0.434851
0.411062
0.389111
0.36883
0.350064
0.332678
0.316549
0.301566
0.28763
0.27465
0.262546
0.251244
0.240679
0.23079
0.221523
0.21283
0.204665
0.196987
0.18976
0.18295
0.176526
0.17046
0.164727
0.159302
0.154165
0.149296
0.144675
0.140288
0.136118
0.132151
0.128374
0.124776
0.121344
0.11807
0.114943
0.111954
0.109095
0.106359
0.103738
0.101227
0.0988185
0.0965071
0.0942876
0.0921549
0.0901045
0.0881321
0.0862334
0.0844048
0.0826426
0.0809435
0.0793044
0.0777222
0.0761942
0.0747178
0.0732905
0.07191
0.0705739
0.0692803
0.0680272
0.0668127
0.0656349
0.0644924
0.0633833
0.0623062
0.0612597
0.0602423
0.0592528
0.0582899
0.0573525
0.0564393
0.0555495
0.0546821
0.0538362
0.053011
0.0522061
0.0514211
0.0506558
0.0499106
0.0491864
0.0484847
0.0478082
0.0471611
0.0465496
0.0459829
0.0454742
0.0450426
0.0447148
0.0445283
0.961692
0.892184
0.829084
0.771727
0.719523
0.671944
0.628523
0.588843
0.552532
0.519258
0.488725
0.460668
0.434851
0.411062
0.389111
0.36883
0.350064
0.332678
0.316549
0.301566
0.28763
0.27465
0.262546
0.251244
0.240679
0.23079
0.221524
0.21283
0.204665
0.196987
0.18976
0.18295
0.176527
0.170461
0.164727
0.159303
0.154166
0.149296
0.144676
0.140289
0.136118
0.132152
0.128375
0.124777
0.121345
0.118071
0.114944
0.111955
0.109096
0.10636
0.10374
0.101228
0.0988198
0.0965085
0.094289
0.0921565
0.0901061
0.0881337
0.0862351
0.0844066
0.0826445
0.0809454
0.0793064
0.0777243
0.0761964
0.0747201
0.0732929
0.0719124
0.0705764
0.069283
0.0680299
0.0668155
0.0656379
0.0644954
0.0633864
0.0623094
0.061263
0.0602457
0.0592564
0.0582936
0.0573563
0.0564433
0.0555536
0.0546863
0.0538405
0.0530155
0.0522107
0.0514258
0.0506607
0.0499157
0.0491915
0.04849
0.0478136
0.0471666
0.0465551
0.0459885
0.0454799
0.0450483
0.0447205
0.0445339
0.961692
0.892184
0.829084
0.771727
0.719523
0.671944
0.628523
0.588843
0.552532
0.519258
0.488725
0.460668
0.434851
0.411062
0.389111
0.36883
0.350064
0.332679
0.316549
0.301566
0.28763
0.27465
0.262546
0.251244
0.240679
0.23079
0.221524
0.21283
0.204665
0.196988
0.189761
0.182951
0.176527
0.170461
0.164728
0.159303
0.154166
0.149297
0.144677
0.140289
0.136119
0.132152
0.128376
0.124778
0.121346
0.118072
0.114945
0.111956
0.109097
0.106361
0.103741
0.10123
0.0988212
0.0965099
0.0942905
0.092158
0.0901078
0.0881354
0.0862369
0.0844084
0.0826464
0.0809474
0.0793085
0.0777265
0.0761987
0.0747224
0.0732953
0.0719149
0.070579
0.0692856
0.0680327
0.0668184
0.0656408
0.0644985
0.0633896
0.0623127
0.0612664
0.0602493
0.05926
0.0582974
0.0573602
0.0564474
0.0555578
0.0546906
0.053845
0.0530201
0.0522155
0.0514307
0.0506657
0.0499208
0.0491968
0.0484954
0.0478191
0.0471722
0.0465608
0.0459942
0.0454857
0.0450541
0.0447264
0.0445398
0.961692
0.892184
0.829084
0.771727
0.719523
0.671944
0.628523
0.588843
0.552532
0.519258
0.488725
0.460668
0.434851
0.411062
0.389111
0.36883
0.350064
0.332679
0.31655
0.301567
0.28763
0.27465
0.262546
0.251244
0.240679
0.230791
0.221524
0.212831
0.204666
0.196988
0.189761
0.182951
0.176527
0.170462
0.164728
0.159304
0.154167
0.149297
0.144677
0.14029
0.13612
0.132153
0.128377
0.124778
0.121347
0.118073
0.114946
0.111957
0.109098
0.106362
0.103742
0.101231
0.0988226
0.0965114
0.094292
0.0921596
0.0901094
0.0881371
0.0862387
0.0844103
0.0826483
0.0809495
0.0793106
0.0777287
0.0762009
0.0747248
0.0732977
0.0719174
0.0705817
0.0692884
0.0680356
0.0668213
0.0656439
0.0645016
0.0633929
0.0623161
0.0612699
0.0602529
0.0592638
0.0583013
0.0573642
0.0564515
0.0555621
0.0546951
0.0538496
0.0530248
0.0522203
0.0514357
0.0506709
0.0499261
0.0492022
0.0485009
0.0478248
0.0471779
0.0465667
0.0460002
0.0454917
0.0450601
0.0447324
0.0445458
0.961692
0.892184
0.829084
0.771727
0.719523
0.671944
0.628523
0.588843
0.552532
0.519258
0.488725
0.460668
0.434851
0.411062
0.389111
0.36883
0.350064
0.332679
0.31655
0.301567
0.28763
0.27465
0.262546
0.251245
0.240679
0.230791
0.221524
0.212831
0.204666
0.196988
0.189762
0.182952
0.176528
0.170462
0.164729
0.159305
0.154168
0.149298
0.144678
0.140291
0.136121
0.132154
0.128378
0.124779
0.121348
0.118074
0.114947
0.111958
0.1091
0.106364
0.103744
0.101232
0.098824
0.0965129
0.0942936
0.0921612
0.0901111
0.0881389
0.0862405
0.0844122
0.0826503
0.0809515
0.0793127
0.0777309
0.0762033
0.0747272
0.0733002
0.07192
0.0705844
0.0692912
0.0680384
0.0668243
0.065647
0.0645048
0.0633962
0.0623196
0.0612735
0.0602566
0.0592676
0.0583052
0.0573683
0.0564557
0.0555664
0.0546996
0.0538542
0.0530296
0.0522253
0.0514408
0.0506761
0.0499315
0.0492077
0.0485065
0.0478305
0.0471838
0.0465726
0.0460062
0.0454977
0.0450662
0.0447385
0.0445519
0.961692
0.892184
0.829084
0.771727
0.719523
0.671944
0.628523
0.588843
0.552532
0.519258
0.488725
0.460668
0.434851
0.411062
0.389111
0.36883
0.350064
0.332679
0.31655
0.301567
0.28763
0.27465
0.262546
0.251245
0.24068
0.230791
0.221525
0.212831
0.204666
0.196989
0.189762
0.182952
0.176528
0.170463
0.164729
0.159305
0.154168
0.149299
0.144679
0.140291
0.136121
0.132155
0.128378
0.12478
0.121349
0.118075
0.114948
0.111959
0.109101
0.106365
0.103745
0.101234
0.0988254
0.0965144
0.0942952
0.0921629
0.0901128
0.0881407
0.0862424
0.0844141
0.0826523
0.0809536
0.0793149
0.0777331
0.0762056
0.0747296
0.0733028
0.0719227
0.0705871
0.069294
0.0680414
0.0668273
0.0656501
0.0645081
0.0633996
0.062323
0.0612771
0.0602603
0.0592714
0.0583092
0.0573724
0.05646
0.0555708
0.0547041
0.0538589
0.0530345
0.0522303
0.0514459
0.0506814
0.0499369
0.0492133
0.0485122
0.0478363
0.0471897
0.0465787
0.0460123
0.0455039
0.0450724
0.0447447
0.044558
0.961692
0.892184
0.829084
0.771727
0.719523
0.671944
0.628523
0.588843
0.552532
0.519258
0.488725
0.460668
0.434851
0.411062
0.389111
0.36883
0.350064
0.332679
0.31655
0.301567
0.28763
0.27465
0.262546
0.251245
0.24068
0.230791
0.221525
0.212831
0.204666
0.196989
0.189762
0.182952
0.176529
0.170463
0.16473
0.159306
0.154169
0.149299
0.144679
0.140292
0.136122
0.132156
0.128379
0.124781
0.12135
0.118076
0.114949
0.11196
0.109102
0.106366
0.103746
0.101235
0.0988269
0.0965159
0.0942967
0.0921645
0.0901145
0.0881425
0.0862442
0.0844161
0.0826543
0.0809557
0.0793171
0.0777354
0.076208
0.0747321
0.0733053
0.0719253
0.0705898
0.0692968
0.0680443
0.0668304
0.0656533
0.0645113
0.0634029
0.0623265
0.0612807
0.0602641
0.0592753
0.0583132
0.0573765
0.0564642
0.0555753
0.0547087
0.0538636
0.0530393
0.0522353
0.0514511
0.0506867
0.0499423
0.0492189
0.048518
0.0478422
0.0471957
0.0465847
0.0460184
0.0455101
0.0450787
0.044751
0.0445643
0.961692
0.892184
0.829084
0.771727
0.719522
0.671944
0.628523
0.588843
0.552532
0.519258
0.488725
0.460668
0.434851
0.411062
0.389111
0.36883
0.350064
0.332679
0.31655
0.301567
0.28763
0.274651
0.262547
0.251245
0.24068
0.230791
0.221525
0.212832
0.204667
0.196989
0.189763
0.182953
0.176529
0.170464
0.164731
0.159306
0.154169
0.1493
0.14468
0.140293
0.136123
0.132156
0.12838
0.124782
0.121351
0.118077
0.11495
0.111961
0.109103
0.106367
0.103747
0.101236
0.0988283
0.0965174
0.0942983
0.0921661
0.0901162
0.0881442
0.0862461
0.084418
0.0826564
0.0809578
0.0793193
0.0777377
0.0762103
0.0747345
0.0733079
0.0719279
0.0705926
0.0692997
0.0680472
0.0668334
0.0656564
0.0645146
0.0634063
0.06233
0.0612843
0.0602678
0.0592792
0.0583172
0.0573807
0.0564685
0.0555797
0.0547132
0.0538683
0.0530442
0.0522403
0.0514563
0.050692
0.0499478
0.0492245
0.0485238
0.0478481
0.0472017
0.0465908
0.0460246
0.0455164
0.045085
0.0447573
0.0445706
0.961692
0.892184
0.829084
0.771727
0.719522
0.671944
0.628523
0.588843
0.552532
0.519258
0.488725
0.460668
0.434851
0.411062
0.389111
0.36883
0.350065
0.332679
0.31655
0.301567
0.28763
0.274651
0.262547
0.251245
0.24068
0.230792
0.221525
0.212832
0.204667
0.19699
0.189763
0.182953
0.17653
0.170464
0.164731
0.159307
0.15417
0.149301
0.144681
0.140293
0.136124
0.132157
0.128381
0.124783
0.121352
0.118078
0.114951
0.111962
0.109104
0.106369
0.103749
0.101238
0.0988297
0.0965189
0.0942999
0.0921678
0.0901179
0.088146
0.086248
0.0844199
0.0826584
0.0809599
0.0793214
0.07774
0.0762127
0.074737
0.0733104
0.0719306
0.0705953
0.0693025
0.0680502
0.0668365
0.0656596
0.0645179
0.0634097
0.0623335
0.0612879
0.0602716
0.0592831
0.0583212
0.0573848
0.0564728
0.0555841
0.0547178
0.053873
0.0530491
0.0522453
0.0514614
0.0506973
0.0499533
0.0492302
0.0485295
0.047854
0.0472077
0.046597
0.0460308
0.0455226
0.0450913
0.0447636
0.0445769
0.961692
0.892184
0.829084
0.771727
0.719522
0.671944
0.628523
0.588843
0.552532
0.519258
0.488725
0.460668
0.434851
0.411062
0.389111
0.36883
0.350065
0.332679
0.31655
0.301567
0.287631
0.274651
0.262547
0.251245
0.24068
0.230792
0.221526
0.212832
0.204667
0.19699
0.189763
0.182954
0.17653
0.170465
0.164731
0.159307
0.15417
0.149301
0.144681
0.140294
0.136124
0.132158
0.128382
0.124784
0.121353
0.118079
0.114952
0.111964
0.109105
0.10637
0.10375
0.101239
0.0988311
0.0965203
0.0943014
0.0921694
0.0901196
0.0881478
0.0862498
0.0844218
0.0826604
0.080962
0.0793236
0.0777422
0.076215
0.0747394
0.0733129
0.0719332
0.070598
0.0693053
0.0680531
0.0668395
0.0656627
0.0645211
0.063413
0.062337
0.0612915
0.0602753
0.0592869
0.0583252
0.0573889
0.0564771
0.0555885
0.0547223
0.0538777
0.0530539
0.0522503
0.0514666
0.0507026
0.0499587
0.0492357
0.0485352
0.0478599
0.0472137
0.046603
0.046037
0.0455288
0.0450975
0.0447698
0.0445831
0.961692
0.892184
0.829084
0.771727
0.719522
0.671944
0.628523
0.588843
0.552532
0.519258
0.488725
0.460668
0.434851
0.411062
0.389111
0.36883
0.350065
0.332679
0.31655
0.301567
0.287631
0.274651
0.262547
0.251246
0.24068
0.230792
0.221526
0.212832
0.204668
0.19699
0.189764
0.182954
0.17653
0.170465
0.164732
0.159308
0.154171
0.149302
0.144682
0.140295
0.136125
0.132159
0.128383
0.124785
0.121354
0.11808
0.114953
0.111965
0.109107
0.106371
0.103751
0.10124
0.0988325
0.0965218
0.094303
0.092171
0.0901213
0.0881495
0.0862516
0.0844237
0.0826623
0.0809641
0.0793257
0.0777444
0.0762173
0.0747418
0.0733154
0.0719358
0.0706007
0.0693081
0.068056
0.0668425
0.0656658
0.0645243
0.0634163
0.0623404
0.0612951
0.060279
0.0592907
0.0583291
0.057393
0.0564813
0.0555928
0.0547268
0.0538824
0.0530587
0.0522552
0.0514717
0.0507079
0.0499641
0.0492413
0.0485409
0.0478657
0.0472196
0.0466091
0.0460431
0.045535
0.0451038
0.0447761
0.0445893
0.961692
0.892184
0.829084
0.771727
0.719522
0.671944
0.628523
0.588843
0.552532
0.519258
0.488725
0.460668
0.434851
0.411062
0.389111
0.36883
0.350065
0.332679
0.31655
0.301567
0.287631
0.274651
0.262547
0.251246
0.240681
0.230792
0.221526
0.212833
0.204668
0.196991
0.189764
0.182954
0.176531
0.170465
0.164732
0.159308
0.154172
0.149302
0.144683
0.140296
0.136126
0.13216
0.128384
0.124786
0.121355
0.118081
0.114954
0.111966
0.109108
0.106372
0.103753
0.101242
0.0988339
0.0965233
0.0943045
0.0921726
0.090123
0.0881513
0.0862534
0.0844256
0.0826643
0.0809661
0.0793279
0.0777466
0.0762196
0.0747442
0.0733179
0.0719383
0.0706033
0.0693108
0.0680588
0.0668454
0.0656688
0.0645275
0.0634196
0.0623438
0.0612986
0.0602826
0.0592945
0.058333
0.057397
0.0564854
0.0555971
0.0547313
0.0538869
0.0530634
0.0522601
0.0514767
0.050713
0.0499695
0.0492468
0.0485465
0.0478714
0.0472255
0.046615
0.0460492
0.0455411
0.0451099
0.0447822
0.0445955
0.961692
0.892184
0.829084
0.771727
0.719522
0.671944
0.628523
0.588843
0.552532
0.519258
0.488725
0.460668
0.434851
0.411062
0.389111
0.36883
0.350065
0.332679
0.31655
0.301567
0.287631
0.274651
0.262547
0.251246
0.240681
0.230792
0.221526
0.212833
0.204668
0.196991
0.189764
0.182955
0.176531
0.170466
0.164733
0.159309
0.154172
0.149303
0.144683
0.140296
0.136127
0.13216
0.128384
0.124786
0.121356
0.118082
0.114955
0.111967
0.109109
0.106374
0.103754
0.101243
0.0988353
0.0965247
0.094306
0.0921741
0.0901246
0.088153
0.0862552
0.0844275
0.0826662
0.0809681
0.0793299
0.0777488
0.0762218
0.0747465
0.0733203
0.0719408
0.0706059
0.0693135
0.0680616
0.0668483
0.0656718
0.0645306
0.0634228
0.0623471
0.061302
0.0602861
0.0592981
0.0583368
0.057401
0.0564895
0.0556014
0.0547356
0.0538914
0.0530681
0.0522649
0.0514816
0.0507181
0.0499747
0.0492521
0.0485521
0.0478771
0.0472313
0.0466209
0.0460551
0.0455472
0.045116
0.0447883
0.0446016
0.961692
0.892184
0.829084
0.771727
0.719522
0.671944
0.628523
0.588843
0.552532
0.519258
0.488725
0.460668
0.434851
0.411062
0.389111
0.36883
0.350065
0.332679
0.31655
0.301567
0.287631
0.274651
0.262547
0.251246
0.240681
0.230793
0.221526
0.212833
0.204668
0.196991
0.189765
0.182955
0.176532
0.170466
0.164733
0.159309
0.154173
0.149303
0.144684
0.140297
0.136127
0.132161
0.128385
0.124787
0.121357
0.118083
0.114956
0.111968
0.10911
0.106375
0.103755
0.101244
0.0988366
0.0965261
0.0943074
0.0921757
0.0901262
0.0881546
0.0862569
0.0844293
0.0826681
0.08097
0.079332
0.0777509
0.076224
0.0747488
0.0733226
0.0719433
0.0706085
0.0693161
0.0680643
0.0668511
0.0656748
0.0645336
0.063426
0.0623504
0.0613054
0.0602896
0.0593018
0.0583405
0.0574048
0.0564935
0.0556055
0.0547399
0.0538958
0.0530726
0.0522696
0.0514865
0.0507231
0.0499798
0.0492574
0.0485575
0.0478826
0.0472369
0.0466267
0.046061
0.0455531
0.0451219
0.0447943
0.0446075
0.961692
0.892184
0.829084
0.771727
0.719522
0.671944
0.628523
0.588843
0.552532
0.519258
0.488725
0.460668
0.434851
0.411062
0.389111
0.36883
0.350065
0.332679
0.31655
0.301567
0.287631
0.274651
0.262547
0.251246
0.240681
0.230793
0.221527
0.212833
0.204669
0.196991
0.189765
0.182955
0.176532
0.170467
0.164734
0.15931
0.154173
0.149304
0.144684
0.140297
0.136128
0.132162
0.128386
0.124788
0.121357
0.118084
0.114957
0.111969
0.109111
0.106376
0.103756
0.101246
0.0988379
0.0965274
0.0943088
0.0921771
0.0901277
0.0881562
0.0862586
0.084431
0.0826699
0.0809719
0.0793339
0.0777529
0.0762262
0.074751
0.0733249
0.0719457
0.0706109
0.0693187
0.068067
0.0668539
0.0656776
0.0645366
0.063429
0.0623536
0.0613087
0.060293
0.0593053
0.0583442
0.0574086
0.0564974
0.0556095
0.0547441
0.0539001
0.0530771
0.0522742
0.0514912
0.050728
0.0499849
0.0492626
0.0485628
0.047888
0.0472425
0.0466323
0.0460667
0.0455589
0.0451278
0.0448002
0.0446134
0.961692
0.892184
0.829084
0.771727
0.719522
0.671944
0.628523
0.588843
0.552532
0.519258
0.488725
0.460668
0.434851
0.411062
0.389111
0.36883
0.350065
0.332679
0.31655
0.301567
0.287631
0.274651
0.262548
0.251246
0.240681
0.230793
0.221527
0.212834
0.204669
0.196992
0.189765
0.182956
0.176532
0.170467
0.164734
0.15931
0.154174
0.149305
0.144685
0.140298
0.136129
0.132163
0.128387
0.124789
0.121358
0.118084
0.114958
0.11197
0.109112
0.106377
0.103757
0.101247
0.0988392
0.0965287
0.0943102
0.0921786
0.0901292
0.0881578
0.0862602
0.0844327
0.0826717
0.0809738
0.0793359
0.0777549
0.0762283
0.0747532
0.0733272
0.071948
0.0706134
0.0693212
0.0680696
0.0668566
0.0656804
0.0645394
0.063432
0.0623567
0.0613119
0.0602963
0.0593087
0.0583477
0.0574123
0.0565012
0.0556134
0.0547481
0.0539043
0.0530814
0.0522787
0.0514958
0.0507328
0.0499898
0.0492676
0.048568
0.0478933
0.0472479
0.0466378
0.0460723
0.0455645
0.0451335
0.0448059
0.0446191
0.961692
0.892184
0.829084
0.771727
0.719522
0.671944
0.628523
0.588843
0.552532
0.519258
0.488725
0.460668
0.434851
0.411062
0.389111
0.36883
0.350065
0.332679
0.31655
0.301567
0.287631
0.274652
0.262548
0.251246
0.240681
0.230793
0.221527
0.212834
0.204669
0.196992
0.189766
0.182956
0.176533
0.170467
0.164735
0.159311
0.154174
0.149305
0.144685
0.140299
0.136129
0.132163
0.128387
0.12479
0.121359
0.118085
0.114959
0.111971
0.109113
0.106378
0.103758
0.101248
0.0988404
0.09653
0.0943115
0.09218
0.0901307
0.0881593
0.0862618
0.0844344
0.0826734
0.0809756
0.0793377
0.0777569
0.0762303
0.0747552
0.0733294
0.0719502
0.0706157
0.0693236
0.0680721
0.0668592
0.0656831
0.0645422
0.0634349
0.0623597
0.061315
0.0602996
0.059312
0.0583512
0.0574158
0.0565049
0.0556172
0.054752
0.0539084
0.0530856
0.052283
0.0515003
0.0507374
0.0499945
0.0492725
0.048573
0.0478985
0.0472531
0.0466432
0.0460777
0.04557
0.045139
0.0448114
0.0446246
0.961692
0.892184
0.829084
0.771727
0.719522
0.671944
0.628523
0.588843
0.552532
0.519258
0.488725
0.460668
0.434851
0.411062
0.389111
0.36883
0.350065
0.332679
0.31655
0.301568
0.287631
0.274652
0.262548
0.251246
0.240682
0.230793
0.221527
0.212834
0.204669
0.196992
0.189766
0.182956
0.176533
0.170468
0.164735
0.159311
0.154175
0.149306
0.144686
0.140299
0.13613
0.132164
0.128388
0.12479
0.12136
0.118086
0.11496
0.111972
0.109114
0.106379
0.103759
0.101249
0.0988416
0.0965313
0.0943128
0.0921813
0.0901321
0.0881608
0.0862634
0.084436
0.0826751
0.0809773
0.0793395
0.0777588
0.0762322
0.0747573
0.0733314
0.0719524
0.070618
0.069326
0.0680745
0.0668617
0.0656857
0.0645449
0.0634377
0.0623626
0.061318
0.0603027
0.0593152
0.0583545
0.0574193
0.0565084
0.0556209
0.0547559
0.0539123
0.0530897
0.0522872
0.0515046
0.0507419
0.0499991
0.0492772
0.0485778
0.0479034
0.0472582
0.0466484
0.046083
0.0455754
0.0451444
0.0448168
0.04463
0.961692
0.892184
0.829084
0.771727
0.719522
0.671944
0.628523
0.588843
0.552532
0.519258
0.488725
0.460668
0.434851
0.411062
0.389111
0.36883
0.350065
0.332679
0.31655
0.301568
0.287631
0.274652
0.262548
0.251247
0.240682
0.230793
0.221527
0.212834