/*--------------------------------*- C++ -*----------------------------------*\
  =========                 |
  \\      /  F ield         | OpenFOAM: The Open Source CFD Toolbox
   \\    /   O peration     | Website:  https://openfoam.org
    \\  /    A nd           | Version:  11
     \\/     M anipulation  |
\*---------------------------------------------------------------------------*/
FoamFile
{
    format      ascii;
    class       volScalarField;
    location    "782";
    object      p;
}
// * * * * * * * * * * * * * * * * * * * * * * * * * * * * * * * * * * * * * //

dimensions      [0 2 -2 0 0 0 0];

internalField   nonuniform List<scalar> 
10000
(
2.85813e-10
2.78198e-10
2.91383e-10
3.17187e-10
3.46588e-10
3.77661e-10
4.10417e-10
4.44924e-10
4.81244e-10
5.19485e-10
5.5978e-10
6.02276e-10
6.47123e-10
6.9448e-10
7.44509e-10
7.9738e-10
8.53266e-10
9.12345e-10
9.748e-10
1.04082e-09
1.1106e-09
1.18434e-09
1.26225e-09
1.34453e-09
1.4314e-09
1.52309e-09
1.61983e-09
1.72184e-09
1.82938e-09
1.94269e-09
2.06202e-09
2.18763e-09
2.31978e-09
2.45874e-09
2.60478e-09
2.75818e-09
2.91922e-09
3.08817e-09
3.26533e-09
3.45097e-09
3.64539e-09
3.84886e-09
4.06167e-09
4.2841e-09
4.51641e-09
4.75888e-09
5.01177e-09
5.27531e-09
5.54975e-09
5.83531e-09
6.13218e-09
6.44054e-09
6.76056e-09
7.09236e-09
7.43602e-09
7.79162e-09
8.15916e-09
8.53861e-09
8.92989e-09
9.33285e-09
9.74726e-09
1.01728e-08
1.06092e-08
1.10559e-08
1.15123e-08
1.19778e-08
1.24515e-08
1.29323e-08
1.34192e-08
1.39108e-08
1.44056e-08
1.49017e-08
1.53971e-08
1.58894e-08
1.6376e-08
1.68539e-08
1.73195e-08
1.7769e-08
1.81978e-08
1.8601e-08
1.89728e-08
1.93069e-08
1.95959e-08
1.98316e-08
2.00046e-08
2.01045e-08
2.01191e-08
2.0035e-08
1.98365e-08
1.95058e-08
1.90225e-08
1.83626e-08
1.74978e-08
1.63937e-08
1.50073e-08
1.3287e-08
1.1158e-08
8.42471e-09
4.77558e-09
3.05638e-10
4.89906e-10
4.53594e-10
4.35117e-10
4.4546e-10
4.68132e-10
4.96936e-10
5.30399e-10
5.67771e-10
6.08569e-10
6.52557e-10
6.9966e-10
7.49886e-10
8.03304e-10
8.60017e-10
9.20158e-10
9.83876e-10
1.05134e-09
1.12274e-09
1.19825e-09
1.27808e-09
1.36245e-09
1.45157e-09
1.54567e-09
1.64499e-09
1.74977e-09
1.86026e-09
1.97672e-09
2.09942e-09
2.22862e-09
2.3646e-09
2.50766e-09
2.65807e-09
2.81613e-09
2.98214e-09
3.15641e-09
3.33925e-09
3.53095e-09
3.73183e-09
3.9422e-09
4.16238e-09
4.39267e-09
4.63337e-09
4.8848e-09
5.14723e-09
5.42097e-09
5.70628e-09
6.00342e-09
6.31265e-09
6.63419e-09
6.96825e-09
7.31501e-09
7.67463e-09
8.04721e-09
8.43285e-09
8.83157e-09
9.24338e-09
9.66821e-09
1.01059e-08
1.05563e-08
1.10191e-08
1.1494e-08
1.19804e-08
1.24779e-08
1.29857e-08
1.35029e-08
1.40287e-08
1.45618e-08
1.51009e-08
1.56445e-08
1.61908e-08
1.67377e-08
1.72828e-08
1.78235e-08
1.83569e-08
1.88793e-08
1.93869e-08
1.98754e-08
2.03396e-08
2.07741e-08
2.11724e-08
2.15274e-08
2.1831e-08
2.20741e-08
2.22464e-08
2.23364e-08
2.23308e-08
2.22148e-08
2.19715e-08
2.15817e-08
2.10232e-08
2.02707e-08
1.92945e-08
1.80595e-08
1.65228e-08
1.46325e-08
1.23348e-08
9.55919e-09
5.99929e-09
9.59123e-10
-3.55611e-09
5.39998e-10
4.84564e-10
4.42579e-10
4.31983e-10
4.37121e-10
4.51081e-10
4.71648e-10
4.97514e-10
5.27754e-10
5.61798e-10
5.99315e-10
6.40119e-10
6.84126e-10
7.31317e-10
7.8172e-10
8.35399e-10
8.92445e-10
9.52966e-10
1.01709e-09
1.08496e-09
1.15672e-09
1.23254e-09
1.31258e-09
1.39703e-09
1.48608e-09
1.57991e-09
1.67872e-09
1.78272e-09
1.89213e-09
2.00715e-09
2.12801e-09
2.25493e-09
2.38813e-09
2.52786e-09
2.67434e-09
2.8278e-09
2.98848e-09
3.15662e-09
3.33244e-09
3.51618e-09
3.70807e-09
3.90832e-09
4.11715e-09
4.33478e-09
4.56139e-09
4.79717e-09
5.0423e-09
5.29693e-09
5.56119e-09
5.83521e-09
6.11906e-09
6.41281e-09
6.71649e-09
7.03009e-09
7.35355e-09
7.68677e-09
8.02961e-09
8.38185e-09
8.74323e-09
9.11338e-09
9.49188e-09
9.87821e-09
1.02717e-08
1.06717e-08
1.10773e-08
1.14875e-08
1.19012e-08
1.23169e-08
1.27332e-08
1.31484e-08
1.35605e-08
1.39671e-08
1.43659e-08
1.4754e-08
1.5128e-08
1.54844e-08
1.58191e-08
1.61275e-08
1.64044e-08
1.6644e-08
1.68398e-08
1.69844e-08
1.70697e-08
1.70863e-08
1.70239e-08
1.68708e-08
1.66137e-08
1.62377e-08
1.57259e-08
1.50588e-08
1.42145e-08
1.31675e-08
1.18879e-08
1.034e-08
8.48262e-09
6.28461e-09
3.70536e-09
3.79014e-10
-4.53211e-09
-7.1658e-09
5.65513e-10
5.07747e-10
4.60505e-10
4.41103e-10
4.37291e-10
4.43244e-10
4.56828e-10
4.76614e-10
5.01515e-10
5.30798e-10
5.6399e-10
6.00788e-10
6.41007e-10
6.84548e-10
7.31373e-10
7.81489e-10
8.34938e-10
8.91786e-10
9.52123e-10
1.01605e-09
1.0837e-09
1.15518e-09
1.23065e-09
1.31026e-09
1.39416e-09
1.48251e-09
1.5755e-09
1.67329e-09
1.77607e-09
1.88402e-09
1.99733e-09
2.1162e-09
2.24081e-09
2.37138e-09
2.50809e-09
2.65114e-09
2.80074e-09
2.95707e-09
3.12033e-09
3.29071e-09
3.46839e-09
3.65355e-09
3.84637e-09
4.04699e-09
4.25557e-09
4.47225e-09
4.69713e-09
4.93033e-09
5.17192e-09
5.42196e-09
5.68046e-09
5.94744e-09
6.22286e-09
6.50663e-09
6.79865e-09
7.09873e-09
7.40666e-09
7.72216e-09
8.04487e-09
8.37437e-09
8.71014e-09
9.05159e-09
9.39802e-09
9.7486e-09
1.01024e-08
1.04583e-08
1.08151e-08
1.11713e-08
1.15254e-08
1.18756e-08
1.22197e-08
1.25556e-08
1.28805e-08
1.31915e-08
1.34854e-08
1.37585e-08
1.40066e-08
1.42251e-08
1.44089e-08
1.45521e-08
1.46484e-08
1.46903e-08
1.467e-08
1.45782e-08
1.4405e-08
1.41388e-08
1.3767e-08
1.32753e-08
1.26475e-08
1.18656e-08
1.0909e-08
9.7546e-09
8.37574e-09
6.74112e-09
4.81738e-09
2.58848e-09
3.05248e-11
-3.26868e-09
-8.18258e-09
-9.81877e-09
5.74452e-10
5.20627e-10
4.74049e-10
4.5119e-10
4.42662e-10
4.439e-10
4.5313e-10
4.69014e-10
4.90468e-10
5.16715e-10
5.47215e-10
5.81601e-10
6.19626e-10
6.61138e-10
7.06051e-10
7.54331e-10
8.05984e-10
8.61046e-10
9.19576e-10
9.81654e-10
1.04737e-09
1.11685e-09
1.19019e-09
1.26753e-09
1.34901e-09
1.43478e-09
1.52497e-09
1.61976e-09
1.7193e-09
1.82375e-09
1.93329e-09
2.04808e-09
2.1683e-09
2.29412e-09
2.42571e-09
2.56324e-09
2.7069e-09
2.85683e-09
3.01321e-09
3.1762e-09
3.34594e-09
3.52258e-09
3.70626e-09
3.8971e-09
4.0952e-09
4.30067e-09
4.51357e-09
4.73397e-09
4.96189e-09
5.19735e-09
5.44031e-09
5.69074e-09
5.94852e-09
6.21354e-09
6.48561e-09
6.76449e-09
7.04991e-09
7.3415e-09
7.63886e-09
7.94147e-09
8.24876e-09
8.56004e-09
8.87453e-09
9.19131e-09
9.50937e-09
9.82752e-09
1.01444e-08
1.04586e-08
1.07683e-08
1.10716e-08
1.13664e-08
1.16502e-08
1.19204e-08
1.21739e-08
1.24073e-08
1.26168e-08
1.27983e-08
1.29469e-08
1.30576e-08
1.31243e-08
1.31406e-08
1.30993e-08
1.29923e-08
1.28105e-08
1.25441e-08
1.21818e-08
1.17112e-08
1.11186e-08
1.03886e-08
9.50392e-09
8.44563e-09
7.19256e-09
5.72106e-09
4.00396e-09
2.0144e-09
-2.52642e-10
-2.81168e-09
-6.10405e-09
-1.0941e-08
-1.20278e-08
5.68174e-10
5.18772e-10
4.74482e-10
4.50312e-10
4.38937e-10
4.36856e-10
4.42693e-10
4.55288e-10
4.73641e-10
4.96996e-10
5.24802e-10
5.56662e-10
5.92294e-10
6.31511e-10
6.74191e-10
7.20269e-10
7.69718e-10
8.22548e-10
8.78791e-10
9.38504e-10
1.00176e-09
1.06864e-09
1.13924e-09
1.21368e-09
1.29207e-09
1.37454e-09
1.4612e-09
1.55221e-09
1.6477e-09
1.74782e-09
1.8527e-09
1.96249e-09
2.07735e-09
2.19743e-09
2.32286e-09
2.4538e-09
2.59039e-09
2.73276e-09
2.88105e-09
3.03539e-09
3.1959e-09
3.36269e-09
3.53585e-09
3.71547e-09
3.90163e-09
4.09437e-09
4.29373e-09
4.49973e-09
4.71235e-09
4.93155e-09
5.15726e-09
5.38937e-09
5.62775e-09
5.8722e-09
6.12249e-09
6.37832e-09
6.63936e-09
6.90518e-09
7.1753e-09
7.44917e-09
7.72611e-09
8.0054e-09
8.28616e-09
8.56742e-09
8.84808e-09
9.12689e-09
9.40243e-09
9.67313e-09
9.9372e-09
1.01926e-08
1.04373e-08
1.06685e-08
1.08837e-08
1.10797e-08
1.1253e-08
1.13999e-08
1.15161e-08
1.15968e-08
1.16369e-08
1.16305e-08
1.15712e-08
1.14517e-08
1.12643e-08
1.10002e-08
1.06496e-08
1.02019e-08
9.64526e-09
8.96658e-09
8.15151e-09
7.18429e-09
6.04768e-09
4.723e-09
3.18988e-09
1.4256e-09
-5.90368e-10
-2.85357e-09
-5.37095e-09
-8.60184e-09
-1.32731e-08
-1.39529e-08
5.51212e-10
5.05947e-10
4.64492e-10
4.40249e-10
4.27299e-10
4.22966e-10
4.26234e-10
4.36138e-10
4.51794e-10
4.72505e-10
4.97739e-10
5.27099e-10
5.60291e-10
5.97104e-10
6.37395e-10
6.81075e-10
7.28094e-10
7.78435e-10
8.32111e-10
8.89154e-10
9.49614e-10
1.01356e-09
1.08106e-09
1.15221e-09
1.22711e-09
1.30586e-09
1.38857e-09
1.47534e-09
1.56631e-09
1.6616e-09
1.76132e-09
1.86559e-09
1.97456e-09
2.08833e-09
2.20703e-09
2.33078e-09
2.45969e-09
2.59388e-09
2.73345e-09
2.8785e-09
3.0291e-09
3.18535e-09
3.3473e-09
3.515e-09
3.68849e-09
3.86779e-09
4.05288e-09
4.24374e-09
4.44031e-09
4.64252e-09
4.85024e-09
5.06332e-09
5.28157e-09
5.50475e-09
5.73257e-09
5.96469e-09
6.20071e-09
6.44016e-09
6.6825e-09
6.92711e-09
7.17328e-09
7.42019e-09
7.66693e-09
7.91247e-09
8.15565e-09
8.39514e-09
8.62949e-09
8.85706e-09
9.07601e-09
9.28431e-09
9.47967e-09
9.65958e-09
9.82124e-09
9.96152e-09
1.0077e-08
1.01638e-08
1.02177e-08
1.02341e-08
1.02078e-08
1.0133e-08
1.00035e-08
9.81237e-09
9.55189e-09
9.21367e-09
8.78848e-09
8.26616e-09
7.63562e-09
6.88473e-09
6.00032e-09
4.96815e-09
3.77297e-09
2.39865e-09
8.28121e-10
-9.5716e-10
-2.97202e-09
-5.20347e-09
-7.6513e-09
-1.07984e-08
-1.53468e-08
-1.55982e-08
5.26577e-10
4.85169e-10
4.46667e-10
4.23052e-10
4.09397e-10
4.03634e-10
4.05038e-10
4.12826e-10
4.26232e-10
4.44633e-10
4.67535e-10
4.94557e-10
5.25408e-10
5.59869e-10
5.97785e-10
6.39049e-10
6.83594e-10
7.31385e-10
7.82414e-10
8.36696e-10
8.94261e-10
9.55155e-10
1.01944e-09
1.08718e-09
1.15846e-09
1.23335e-09
1.31196e-09
1.39436e-09
1.48067e-09
1.57099e-09
1.6654e-09
1.76402e-09
1.86695e-09
1.97428e-09
2.08612e-09
2.20255e-09
2.32367e-09
2.44957e-09
2.5803e-09
2.71595e-09
2.85657e-09
3.00221e-09
3.15289e-09
3.30864e-09
3.46944e-09
3.63529e-09
3.80614e-09
3.98191e-09
4.16253e-09
4.34785e-09
4.53773e-09
4.73197e-09
4.93032e-09
5.13251e-09
5.3382e-09
5.547e-09
5.75847e-09
5.97208e-09
6.18725e-09
6.40329e-09
6.61946e-09
6.8349e-09
7.04863e-09
7.25957e-09
7.46652e-09
7.66811e-09
7.86283e-09
8.04902e-09
8.22479e-09
8.38808e-09
8.53659e-09
8.66779e-09
8.77884e-09
8.86666e-09
8.9278e-09
8.95849e-09
8.95455e-09
8.9114e-09
8.82397e-09
8.68671e-09
8.49353e-09
8.23774e-09
7.91202e-09
7.50837e-09
7.01804e-09
6.43155e-09
5.73859e-09
4.92805e-09
3.98798e-09
2.9057e-09
1.6679e-09
2.60893e-10
-1.32937e-09
-3.11779e-09
-5.11437e-09
-7.29776e-09
-9.65829e-09
-1.27117e-08
-1.72498e-08
-1.69827e-08
4.95863e-10
4.58124e-10
4.22488e-10
3.99848e-10
3.86025e-10
3.79394e-10
3.79457e-10
3.85581e-10
3.97111e-10
4.13496e-10
4.34291e-10
4.59139e-10
4.8776e-10
5.19938e-10
5.55513e-10
5.94367e-10
6.3642e-10
6.81624e-10
7.29955e-10
7.81409e-10
8.36003e-10
8.93765e-10
9.54737e-10
1.01897e-09
1.08652e-09
1.15746e-09
1.23186e-09
1.30979e-09
1.39133e-09
1.47656e-09
1.56557e-09
1.65842e-09
1.75521e-09
1.85601e-09
1.9609e-09
2.06993e-09
2.18318e-09
2.30071e-09
2.42256e-09
2.54877e-09
2.67937e-09
2.81437e-09
2.95378e-09
3.09759e-09
3.24575e-09
3.39821e-09
3.55489e-09
3.7157e-09
3.8805e-09
4.04913e-09
4.22138e-09
4.39703e-09
4.5758e-09
4.75736e-09
4.94133e-09
5.12729e-09
5.31474e-09
5.50312e-09
5.6918e-09
5.88007e-09
6.06711e-09
6.25204e-09
6.43384e-09
6.61139e-09
6.78345e-09
6.94863e-09
7.10538e-09
7.252e-09
7.3866e-09
7.50711e-09
7.61121e-09
7.69637e-09
7.75979e-09
7.79839e-09
7.8088e-09
7.78728e-09
7.72978e-09
7.6318e-09
7.48845e-09
7.29438e-09
7.04372e-09
6.7301e-09
6.34657e-09
5.88559e-09
5.33897e-09
4.69791e-09
3.95293e-09
3.09393e-09
2.11021e-09
9.90568e-10
-2.76504e-10
-1.7025e-09
-3.29887e-09
-5.07755e-09
-7.0448e-09
-9.17157e-09
-1.14378e-08
-1.43996e-08
-1.9015e-08
-1.82154e-08
4.60316e-10
4.26026e-10
3.93046e-10
3.71504e-10
3.57825e-10
3.50703e-10
3.498e-10
3.54603e-10
3.64551e-10
3.79165e-10
3.98044e-10
4.20864e-10
4.47359e-10
4.77323e-10
5.10592e-10
5.47046e-10
5.86596e-10
6.29183e-10
6.74769e-10
7.2334e-10
7.74894e-10
8.29447e-10
8.87023e-10
9.47658e-10
1.01139e-09
1.07828e-09
1.14837e-09
1.22172e-09
1.29839e-09
1.37844e-09
1.46194e-09
1.54893e-09
1.63949e-09
1.73366e-09
1.8315e-09
1.93306e-09
2.03837e-09
2.14746e-09
2.26037e-09
2.3771e-09
2.49765e-09
2.62201e-09
2.75015e-09
2.88203e-09
3.01759e-09
3.15673e-09
3.29934e-09
3.4453e-09
3.59443e-09
3.74654e-09
3.90139e-09
4.05872e-09
4.2182e-09
4.37949e-09
4.54215e-09
4.70574e-09
4.86971e-09
5.03346e-09
5.19634e-09
5.35759e-09
5.51637e-09
5.67175e-09
5.82269e-09
5.96805e-09
6.10654e-09
6.23675e-09
6.35714e-09
6.46598e-09
6.56138e-09
6.64126e-09
6.70333e-09
6.74506e-09
6.76372e-09
6.75626e-09
6.71937e-09
6.64943e-09
6.54249e-09
6.3942e-09
6.19987e-09
5.95435e-09
5.65208e-09
5.28701e-09
4.85259e-09
4.34176e-09
3.74695e-09
3.06003e-09
2.27236e-09
1.37483e-09
3.57909e-10
-7.88226e-10
-2.07347e-09
-3.50745e-09
-5.09948e-09
-6.85935e-09
-8.79074e-09
-1.08585e-08
-1.30345e-08
-1.59212e-08
-2.06664e-08
-1.94193e-08
4.2124e-10
3.89752e-10
3.59107e-10
3.38708e-10
3.2538e-10
3.18029e-10
3.1644e-10
3.20188e-10
3.28796e-10
3.41842e-10
3.58975e-10
3.79897e-10
4.04365e-10
4.32181e-10
4.63187e-10
4.9726e-10
5.34306e-10
5.74257e-10
6.17069e-10
6.62712e-10
7.11174e-10
7.62456e-10
8.1657e-10
8.73534e-10
9.33376e-10
9.96129e-10
1.06183e-09
1.13052e-09
1.20224e-09
1.27703e-09
1.35493e-09
1.43599e-09
1.52024e-09
1.60772e-09
1.69846e-09
1.79248e-09
1.88981e-09
1.99044e-09
2.09437e-09
2.2016e-09
2.31211e-09
2.42584e-09
2.54275e-09
2.66277e-09
2.78579e-09
2.91171e-09
3.04038e-09
3.17164e-09
3.30529e-09
3.44111e-09
3.57882e-09
3.71812e-09
3.85868e-09
4.00008e-09
4.14189e-09
4.28361e-09
4.42468e-09
4.56447e-09
4.70227e-09
4.83731e-09
4.96873e-09
5.09556e-09
5.21675e-09
5.33113e-09
5.4374e-09
5.53415e-09
5.61981e-09
5.69266e-09
5.75083e-09
5.79225e-09
5.81465e-09
5.81556e-09
5.79228e-09
5.74184e-09
5.66103e-09
5.54635e-09
5.39395e-09
5.19971e-09
4.9591e-09
4.66726e-09
4.3189e-09
3.90834e-09
3.42945e-09
2.87569e-09
2.24006e-09
1.51513e-09
6.93069e-10
-2.34294e-10
-1.27541e-09
-2.43885e-09
-3.73313e-09
-5.1663e-09
-6.74604e-09
-8.48059e-09
-1.03721e-08
-1.2381e-08
-1.44728e-08
-1.72987e-08
-2.22015e-08
-2.05883e-08
3.79283e-10
3.49542e-10
3.21112e-10
3.01952e-10
2.89155e-10
2.81795e-10
2.79744e-10
2.82655e-10
2.90119e-10
3.01773e-10
3.17305e-10
3.36449e-10
3.58982e-10
3.84718e-10
4.13505e-10
4.45221e-10
4.79771e-10
5.17082e-10
5.57099e-10
5.99785e-10
6.45118e-10
6.93084e-10
7.43684e-10
7.96923e-10
8.52814e-10
9.11374e-10
9.72624e-10
1.03659e-09
1.10329e-09
1.17276e-09
1.24502e-09
1.32009e-09
1.398e-09
1.47874e-09
1.56234e-09
1.64881e-09
1.73812e-09
1.83028e-09
1.92525e-09
2.02301e-09
2.1235e-09
2.22666e-09
2.3324e-09
2.44064e-09
2.55125e-09
2.66408e-09
2.77897e-09
2.89573e-09
3.01413e-09
3.13391e-09
3.25479e-09
3.37642e-09
3.49843e-09
3.6204e-09
3.74186e-09
3.86227e-09
3.98106e-09
4.09756e-09
4.21106e-09
4.32075e-09
4.42574e-09
4.52506e-09
4.61764e-09
4.7023e-09
4.77774e-09
4.84253e-09
4.89512e-09
4.9338e-09
4.95672e-09
4.96183e-09
4.94692e-09
4.90956e-09
4.84712e-09
4.75673e-09
4.63528e-09
4.47939e-09
4.2854e-09
4.04935e-09
3.76696e-09
3.43361e-09
3.04434e-09
2.59385e-09
2.07643e-09
1.48604e-09
8.16259e-10
6.03352e-11
-7.88791e-10
-1.73842e-09
-2.79602e-09
-3.96907e-09
-5.26486e-09
-6.69017e-09
-8.25138e-09
-9.95568e-09
-1.18043e-08
-1.37541e-08
-1.57654e-08
-1.85347e-08
-2.35909e-08
-2.16597e-08
3.33298e-10
3.05874e-10
2.79653e-10
2.61756e-10
2.49609e-10
2.42414e-10
2.40079e-10
2.42324e-10
2.48806e-10
2.59212e-10
2.73269e-10
2.9074e-10
3.11421e-10
3.35141e-10
3.61756e-10
3.91145e-10
4.23215e-10
4.57886e-10
4.95101e-10
5.34813e-10
5.7699e-10
6.2161e-10
6.6866e-10
7.18134e-10
7.70031e-10
8.24354e-10
8.81111e-10
9.4031e-10
1.00196e-09
1.06607e-09
1.13265e-09
1.2017e-09
1.27323e-09
1.34722e-09
1.42368e-09
1.50257e-09
1.58389e-09
1.6676e-09
1.75364e-09
1.84197e-09
1.93251e-09
2.02517e-09
2.11985e-09
2.21643e-09
2.31476e-09
2.41468e-09
2.516e-09
2.61848e-09
2.72189e-09
2.82594e-09
2.93031e-09
3.03465e-09
3.13854e-09
3.24156e-09
3.34319e-09
3.4429e-09
3.54006e-09
3.63401e-09
3.72399e-09
3.80921e-09
3.88875e-09
3.96163e-09
4.02676e-09
4.08298e-09
4.12897e-09
4.16332e-09
4.1845e-09
4.19082e-09
4.18044e-09
4.15138e-09
4.10146e-09
4.02833e-09
3.92945e-09
3.80204e-09
3.64311e-09
3.44944e-09
3.21752e-09
2.9436e-09
2.62364e-09
2.25331e-09
1.82796e-09
1.34265e-09
7.9213e-10
1.70827e-10
-5.27109e-10
-1.3078e-09
-2.17757e-09
-3.14294e-09
-4.21047e-09
-5.38667e-09
-6.67781e-09
-8.08957e-09
-9.62728e-09
-1.12973e-08
-1.31003e-08
-1.49899e-08
-1.69214e-08
-1.96312e-08
-2.48192e-08
-2.2606e-08
2.84167e-10
2.59545e-10
2.35316e-10
2.18647e-10
2.07227e-10
2.00307e-10
1.97811e-10
1.99519e-10
2.05145e-10
2.14421e-10
2.27109e-10
2.42997e-10
2.61903e-10
2.83667e-10
3.08154e-10
3.3525e-10
3.64858e-10
3.969e-10
4.31313e-10
4.68043e-10
5.07051e-10
5.48306e-10
5.91784e-10
6.37467e-10
6.85343e-10
7.35402e-10
7.87638e-10
8.42044e-10
8.98617e-10
9.57348e-10
1.01823e-09
1.08125e-09
1.14639e-09
1.21364e-09
1.28295e-09
1.35431e-09
1.42767e-09
1.50296e-09
1.58013e-09
1.6591e-09
1.73978e-09
1.82205e-09
1.9058e-09
1.99087e-09
2.0771e-09
2.1643e-09
2.25226e-09
2.34073e-09
2.42944e-09
2.51808e-09
2.60632e-09
2.69377e-09
2.78001e-09
2.86458e-09
2.94695e-09
3.02656e-09
3.10278e-09
3.17492e-09
3.24223e-09
3.30387e-09
3.35894e-09
3.40646e-09
3.44533e-09
3.47437e-09
3.49231e-09
3.49775e-09
3.48916e-09
3.46489e-09
3.42315e-09
3.362e-09
3.27934e-09
3.17288e-09
3.04018e-09
2.87857e-09
2.68519e-09
2.45697e-09
2.19061e-09
1.88254e-09
1.52898e-09
1.12587e-09
6.68893e-10
1.53475e-10
-4.25222e-10
-1.07229e-09
-1.79304e-09
-2.593e-09
-3.47785e-09
-4.45334e-09
-5.52527e-09
-6.69928e-09
-7.98073e-09
-9.37438e-09
-1.08846e-08
-1.25171e-08
-1.42718e-08
-1.60994e-08
-1.79497e-08
-2.05919e-08
-2.58768e-08
-2.34103e-08
2.33632e-10
2.11025e-10
1.88614e-10
1.73147e-10
1.62474e-10
1.55876e-10
1.53296e-10
1.54558e-10
1.59424e-10
1.67664e-10
1.7907e-10
1.93454e-10
2.10651e-10
2.30516e-10
2.52921e-10
2.77756e-10
3.04928e-10
3.34357e-10
3.65975e-10
3.99726e-10
4.35562e-10
4.73444e-10
5.13339e-10
5.55219e-10
5.9906e-10
6.44842e-10
6.92544e-10
7.42148e-10
7.93635e-10
8.46982e-10
9.02168e-10
9.59164e-10
1.01794e-09
1.07846e-09
1.14067e-09
1.20453e-09
1.26997e-09
1.33692e-09
1.4053e-09
1.475e-09
1.54593e-09
1.61794e-09
1.6909e-09
1.76464e-09
1.83897e-09
1.91368e-09
1.98853e-09
2.06327e-09
2.1376e-09
2.21119e-09
2.28369e-09
2.35469e-09
2.42376e-09
2.4904e-09
2.5541e-09
2.61425e-09
2.67024e-09
2.72134e-09
2.76681e-09
2.8058e-09
2.8374e-09
2.86064e-09
2.87442e-09
2.87758e-09
2.86886e-09
2.84688e-09
2.81014e-09
2.75704e-09
2.68583e-09
2.59463e-09
2.48141e-09
2.34397e-09
2.17997e-09
1.98686e-09
1.76193e-09
1.50225e-09
1.20471e-09
8.65981e-10
4.82504e-10
5.05076e-11
-4.34004e-10
-9.7525e-10
-1.57766e-09
-2.24588e-09
-2.98473e-09
-3.79916e-09
-4.69424e-09
-5.6751e-09
-6.74679e-09
-7.91422e-09
-9.18196e-09
-1.0554e-08
-1.20337e-08
-1.36263e-08
-1.53305e-08
-1.70943e-08
-1.8861e-08
-2.14224e-08
-2.67533e-08
-2.40557e-08
1.81558e-10
1.60624e-10
1.39944e-10
1.25647e-10
1.15711e-10
1.09462e-10
1.0685e-10
1.07737e-10
1.11919e-10
1.19199e-10
1.29397e-10
1.42345e-10
1.57894e-10
1.75911e-10
1.96278e-10
2.18889e-10
2.43653e-10
2.7049e-10
2.99329e-10
3.30111e-10
3.62781e-10
3.97293e-10
4.33606e-10
4.71683e-10
5.1149e-10
5.52994e-10
5.96165e-10
6.40971e-10
6.8738e-10
7.35357e-10
7.84866e-10
8.35863e-10
8.88303e-10
9.42132e-10
9.9729e-10
1.05371e-09
1.11131e-09
1.17e-09
1.22969e-09
1.29025e-09
1.35156e-09
1.41347e-09
1.47581e-09
1.53841e-09
1.60105e-09
1.66352e-09
1.72555e-09
1.78687e-09
1.84715e-09
1.90607e-09
1.96324e-09
2.01825e-09
2.07065e-09
2.11993e-09
2.16555e-09
2.20691e-09
2.24337e-09
2.27423e-09
2.2987e-09
2.31596e-09
2.3251e-09
2.32514e-09
2.31502e-09
2.29357e-09
2.25956e-09
2.21164e-09
2.14835e-09
2.06813e-09
1.96929e-09
1.85001e-09
1.70834e-09
1.54219e-09
1.3493e-09
1.12726e-09
8.73505e-10
5.85277e-10
2.59645e-10
-1.06506e-10
-5.16483e-10
-9.73782e-10
-1.48209e-09
-2.04529e-09
-2.66741e-09
-3.35268e-09
-4.10545e-09
-4.93017e-09
-5.83137e-09
-6.81355e-09
-7.88118e-09
-9.0385e-09
-1.02894e-08
-1.16371e-08
-1.30845e-08
-1.46356e-08
-1.62888e-08
-1.79886e-08
-1.96723e-08
-2.21431e-08
-2.74668e-08
-2.4582e-08
1.27723e-10
1.08548e-10
8.95861e-11
7.6438e-11
6.72389e-11
6.13606e-11
5.87631e-11
5.93303e-11
6.28918e-11
6.92779e-11
7.83305e-11
8.99027e-11
1.0386e-10
1.20079e-10
1.38451e-10
1.58875e-10
1.81263e-10
2.05534e-10
2.31616e-10
2.59446e-10
2.88965e-10
3.20121e-10
3.52864e-10
3.87149e-10
4.22933e-10
4.60173e-10
4.98829e-10
5.38856e-10
5.8021e-10
6.22845e-10
6.6671e-10
7.1175e-10
7.57903e-10
8.05103e-10
8.53274e-10
9.02332e-10
9.52184e-10
1.00272e-09
1.05384e-09
1.10539e-09
1.15723e-09
1.20921e-09
1.26114e-09
1.31281e-09
1.36402e-09
1.41451e-09
1.46401e-09
1.51223e-09
1.55884e-09
1.60348e-09
1.64576e-09
1.68525e-09
1.72149e-09
1.75397e-09
1.78214e-09
1.80538e-09
1.82305e-09
1.83445e-09
1.83879e-09
1.83525e-09
1.82293e-09
1.80086e-09
1.76799e-09
1.72319e-09
1.66524e-09
1.59282e-09
1.50454e-09
1.39886e-09
1.27417e-09
1.12872e-09
9.60643e-10
7.67933e-10
5.48456e-10
2.99932e-10
1.99329e-11
-2.94125e-10
-6.44981e-10
-1.03554e-09
-1.46887e-09
-1.94819e-09
-2.47691e-09
-3.05855e-09
-3.69681e-09
-4.3955e-09
-5.15855e-09
-5.98995e-09
-6.89373e-09
-7.87388e-09
-8.93432e-09
-1.00787e-08
-1.13105e-08
-1.26321e-08
-1.4046e-08
-1.55558e-08
-1.7159e-08
-1.87986e-08
-2.04083e-08
-2.2803e-08
-2.81027e-08
-2.50808e-08
7.24332e-11
5.50729e-11
3.78201e-11
2.58012e-11
1.73373e-11
1.18503e-11
9.30381e-12
9.6005e-12
1.25956e-11
1.81441e-11
2.61086e-11
3.63595e-11
4.87756e-11
6.32452e-11
7.96654e-11
9.79417e-11
1.17988e-10
1.39724e-10
1.63077e-10
1.87981e-10
2.14372e-10
2.42193e-10
2.71388e-10
3.01903e-10
3.33688e-10
3.6669e-10
4.00857e-10
4.36137e-10
4.72474e-10
5.09809e-10
5.4808e-10
5.87218e-10
6.27149e-10
6.67794e-10
7.09062e-10
7.50857e-10
7.93069e-10
8.35579e-10
8.78256e-10
9.20952e-10
9.63507e-10
1.00574e-09
1.04747e-09
1.08846e-09
1.12848e-09
1.16728e-09
1.20457e-09
1.24003e-09
1.27334e-09
1.30412e-09
1.33196e-09
1.35643e-09
1.37705e-09
1.39331e-09
1.40465e-09
1.41045e-09
1.41007e-09
1.4028e-09
1.38787e-09
1.36446e-09
1.33167e-09
1.28856e-09
1.2341e-09
1.16718e-09
1.08661e-09
9.91118e-10
8.79347e-10
7.49833e-10
6.01014e-10
4.31219e-10
2.38668e-10
2.14605e-11
-2.22424e-10
-4.95136e-10
-7.98955e-10
-1.1363e-09
-1.50971e-09
-1.9219e-09
-2.37569e-09
-2.87405e-09
-3.4201e-09
-4.01705e-09
-4.66826e-09
-5.37718e-09
-6.14734e-09
-6.98232e-09
-7.8857e-09
-8.86103e-09
-9.91176e-09
-1.10411e-08
-1.2252e-08
-1.35465e-08
-1.49266e-08
-1.63956e-08
-1.7951e-08
-1.95346e-08
-2.10795e-08
-2.34158e-08
-2.87099e-08
-2.55613e-08
1.60594e-11
4.82338e-13
-1.50843e-11
-2.59824e-11
-3.37124e-11
-3.87955e-11
-4.12629e-11
-4.11975e-11
-3.87227e-11
-3.39623e-11
-2.70352e-11
-1.80555e-11
-7.13164e-12
5.63423e-12
2.01464e-11
3.63154e-11
5.40575e-11
7.32942e-11
9.39519e-11
1.15961e-10
1.39255e-10
1.63772e-10
1.89449e-10
2.16227e-10
2.44046e-10
2.72846e-10
3.02567e-10
3.33145e-10
3.64514e-10
3.96605e-10
4.29344e-10
4.62651e-10
4.9644e-10
5.30618e-10
5.65084e-10
5.99726e-10
6.34423e-10
6.69043e-10
7.03439e-10
7.37451e-10
7.70905e-10
8.0361e-10
8.35356e-10
8.65914e-10
8.95035e-10
9.22446e-10
9.47851e-10
9.70928e-10
9.91325e-10
1.00866e-09
1.02253e-09
1.03248e-09
1.03803e-09
1.03866e-09
1.0338e-09
1.02286e-09
1.00516e-09
9.80021e-10
9.46673e-10
9.04304e-10
8.52041e-10
7.88948e-10
7.14021e-10
6.26184e-10
5.24286e-10
4.07097e-10
2.73304e-10
1.21505e-10
-4.97941e-11
-2.42184e-10
-4.57357e-10
-6.97108e-10
-9.63345e-10
-1.25808e-09
-1.58346e-09
-1.94172e-09
-2.33523e-09
-2.76649e-09
-3.23811e-09
-3.7528e-09
-4.31341e-09
-4.92287e-09
-5.58422e-09
-6.30057e-09
-7.07509e-09
-7.91099e-09
-8.81147e-09
-9.77969e-09
-1.08187e-08
-1.19313e-08
-1.31201e-08
-1.43868e-08
-1.57332e-08
-1.71624e-08
-1.86717e-08
-2.02027e-08
-2.16879e-08
-2.39708e-08
-2.92529e-08
-2.5973e-08
-4.10744e-11
-5.49417e-11
-6.88457e-11
-7.86386e-11
-8.56397e-11
-9.0311e-11
-9.26787e-11
-9.28135e-11
-9.08204e-11
-8.6805e-11
-8.08698e-11
-7.31149e-11
-6.36374e-11
-5.25301e-11
-3.98822e-11
-2.57783e-11
-1.02993e-11
6.47744e-12
2.44777e-11
4.36302e-11
6.38655e-11
8.51161e-11
1.07315e-10
1.30397e-10
1.54295e-10
1.78941e-10
2.04266e-10
2.30198e-10
2.56661e-10
2.83576e-10
3.10859e-10
3.38419e-10
3.66159e-10
3.93975e-10
4.21752e-10
4.49369e-10
4.76691e-10
5.03573e-10
5.29858e-10
5.55373e-10
5.79931e-10
6.03328e-10
6.25343e-10
6.45735e-10
6.64243e-10
6.80584e-10
6.94451e-10
7.05511e-10
7.13405e-10
7.17745e-10
7.18112e-10
7.14053e-10
7.05082e-10
6.90675e-10
6.70268e-10
6.43257e-10
6.0899e-10
5.66772e-10
5.15855e-10
4.55439e-10
3.84668e-10
3.02629e-10
2.08344e-10
1.0077e-10
-2.12049e-11
-1.58764e-10
-3.13169e-10
-4.8576e-10
-6.7796e-10
-8.91279e-10
-1.12732e-09
-1.38777e-09
-1.67442e-09
-1.98917e-09
-2.33399e-09
-2.71097e-09
-3.12232e-09
-3.57032e-09
-4.05736e-09
-4.58594e-09
-5.15863e-09
-5.77811e-09
-6.44712e-09
-7.16846e-09
-7.94498e-09
-8.77956e-09
-9.67505e-09
-1.06343e-08
-1.16599e-08
-1.27546e-08
-1.39204e-08
-1.5159e-08
-1.64719e-08
-1.78622e-08
-1.93272e-08
-2.0808e-08
-2.22368e-08
-2.44683e-08
-2.97317e-08
-2.63272e-08
-9.87101e-11
-1.10932e-10
-1.23205e-10
-1.31903e-10
-1.38181e-10
-1.42438e-10
-1.44692e-10
-1.45003e-10
-1.4346e-10
-1.40152e-10
-1.35168e-10
-1.28595e-10
-1.20519e-10
-1.11027e-10
-1.00199e-10
-8.81161e-11
-7.48568e-11
-6.04969e-11
-4.51107e-11
-2.87713e-11
-1.15506e-11
6.48001e-12
2.52492e-11
4.46851e-11
6.47148e-11
8.52638e-11
1.06255e-10
1.27608e-10
1.49239e-10
1.71059e-10
1.92974e-10
2.14883e-10
2.3668e-10
2.58249e-10
2.79466e-10
3.00197e-10
3.20297e-10
3.3961e-10
3.57967e-10
3.75184e-10
3.91064e-10
4.05391e-10
4.17933e-10
4.2844e-10
4.36639e-10
4.4224e-10
4.44924e-10
4.44353e-10
4.40159e-10
4.31949e-10
4.19297e-10
4.01749e-10
3.78815e-10
3.49971e-10
3.14655e-10
2.72266e-10
2.22162e-10
1.63653e-10
9.60061e-11
1.84378e-11
-6.98872e-11
-1.69859e-10
-2.82425e-10
-4.08592e-10
-5.49432e-10
-7.0608e-10
-8.79742e-10
-1.0717e-09
-1.28329e-09
-1.51596e-09
-1.77121e-09
-2.05062e-09
-2.35588e-09
-2.68875e-09
-3.05106e-09
-3.44475e-09
-3.87185e-09
-4.33445e-09
-4.83475e-09
-5.37501e-09
-5.95759e-09
-6.58489e-09
-7.25938e-09
-7.9836e-09
-8.76011e-09
-9.59146e-09
-1.04802e-08
-1.14289e-08
-1.244e-08
-1.35157e-08
-1.4658e-08
-1.58684e-08
-1.71481e-08
-1.85005e-08
-1.99227e-08
-2.13556e-08
-2.2731e-08
-2.49128e-08
-3.01532e-08
-2.66339e-08
-1.56644e-10
-1.67214e-10
-1.77891e-10
-1.85521e-10
-1.91087e-10
-1.9493e-10
-1.97061e-10
-1.97529e-10
-1.96409e-10
-1.93776e-10
-1.89705e-10
-1.84274e-10
-1.77559e-10
-1.69637e-10
-1.60585e-10
-1.50478e-10
-1.39392e-10
-1.27403e-10
-1.14583e-10
-1.01007e-10
-8.67507e-11
-7.18874e-11
-5.64931e-11
-4.06447e-11
-2.44208e-11
-7.90241e-12
8.82645e-12
2.5678e-11
4.25603e-11
5.9376e-11
7.60222e-11
9.23895e-11
1.08361e-10
1.23812e-10
1.38608e-10
1.52606e-10
1.6565e-10
1.77574e-10
1.88199e-10
1.97332e-10
2.04763e-10
2.1027e-10
2.13609e-10
2.14523e-10
2.12729e-10
2.07928e-10
1.99797e-10
1.87989e-10
1.72131e-10
1.51825e-10
1.26643e-10
9.61283e-11
5.97913e-11
1.71097e-11
-3.24745e-11
-8.95565e-11
-1.54771e-10
-2.28793e-10
-3.12344e-10
-4.06186e-10
-5.11134e-10
-6.2805e-10
-7.5785e-10
-9.01504e-10
-1.06004e-09
-1.23454e-09
-1.42617e-09
-1.63612e-09
-1.86568e-09
-2.1162e-09
-2.38909e-09
-2.68585e-09
-3.00802e-09
-3.35726e-09
-3.73526e-09
-4.1438e-09
-4.58475e-09
-5.06002e-09
-5.57162e-09
-6.12161e-09
-6.7121e-09
-7.34528e-09
-8.02338e-09
-8.74867e-09
-9.52343e-09
-1.035e-08
-1.12306e-08
-1.21676e-08
-1.31631e-08
-1.42192e-08
-1.53376e-08
-1.65198e-08
-1.7767e-08
-1.90822e-08
-2.04631e-08
-2.185e-08
-2.31743e-08
-2.5308e-08
-3.05227e-08
-2.68986e-08
-2.1464e-10
-2.23545e-10
-2.32667e-10
-2.39253e-10
-2.4412e-10
-2.47552e-10
-2.49553e-10
-2.50163e-10
-2.49443e-10
-2.47456e-10
-2.44265e-10
-2.39938e-10
-2.34542e-10
-2.28148e-10
-2.20826e-10
-2.12648e-10
-2.03688e-10
-1.94018e-10
-1.83712e-10
-1.72847e-10
-1.61498e-10
-1.49743e-10
-1.37661e-10
-1.25334e-10
-1.12846e-10
-1.00283e-10
-8.77355e-11
-7.52984e-11
-6.3071e-11
-5.11582e-11
-3.96709e-11
-2.8727e-11
-1.8452e-11
-8.97976e-12
-4.53128e-13
6.97486e-12
1.31403e-11
1.78675e-11
2.0968e-11
2.22394e-11
2.14648e-11
1.84113e-11
1.28292e-11
4.45064e-12
-7.01132e-12
-2.1864e-11
-4.04365e-11
-6.30807e-11
-9.01726e-11
-1.22114e-10
-1.59334e-10
-2.0229e-10
-2.51469e-10
-3.07391e-10
-3.70607e-10
-4.41705e-10
-5.21309e-10
-6.1008e-10
-7.08723e-10
-8.17981e-10
-9.38643e-10
-1.07154e-09
-1.21756e-09
-1.37764e-09
-1.55275e-09
-1.74393e-09
-1.95227e-09
-2.17893e-09
-2.4251e-09
-2.69206e-09
-2.98113e-09
-3.2937e-09
-3.63123e-09
-3.99521e-09
-4.38723e-09
-4.80893e-09
-5.26201e-09
-5.74821e-09
-6.26935e-09
-6.82731e-09
-7.42399e-09
-8.06137e-09
-8.74144e-09
-9.46623e-09
-1.02378e-08
-1.10582e-08
-1.19296e-08
-1.28539e-08
-1.38331e-08
-1.48691e-08
-1.59636e-08
-1.71177e-08
-1.83328e-08
-1.96119e-08
-2.09527e-08
-2.22952e-08
-2.35708e-08
-2.56579e-08
-3.08444e-08
-2.71253e-08
-2.7244e-10
-2.79702e-10
-2.87303e-10
-2.92871e-10
-2.97053e-10
-3.00079e-10
-3.01947e-10
-3.02686e-10
-3.02346e-10
-3.00978e-10
-2.98636e-10
-2.95376e-10
-2.91259e-10
-2.86349e-10
-2.80711e-10
-2.74415e-10
-2.67529e-10
-2.60125e-10
-2.52279e-10
-2.44065e-10
-2.35561e-10
-2.26849e-10
-2.18011e-10
-2.09133e-10
-2.00302e-10
-1.91611e-10
-1.83156e-10
-1.75038e-10
-1.67362e-10
-1.60242e-10
-1.53794e-10
-1.48144e-10
-1.43427e-10
-1.39784e-10
-1.37365e-10
-1.36332e-10
-1.36858e-10
-1.39126e-10
-1.43333e-10
-1.49688e-10
-1.58418e-10
-1.69761e-10
-1.83976e-10
-2.01335e-10
-2.22133e-10
-2.46682e-10
-2.75315e-10
-3.08388e-10
-3.46279e-10
-3.89393e-10
-4.38157e-10
-4.93028e-10
-5.5449e-10
-6.23057e-10
-6.99274e-10
-7.83719e-10
-8.77003e-10
-9.79774e-10
-1.09272e-09
-1.21655e-09
-1.35204e-09
-1.5e-09
-1.66126e-09
-1.83672e-09
-2.02733e-09
-2.23406e-09
-2.45795e-09
-2.70008e-09
-2.96159e-09
-3.24366e-09
-3.54754e-09
-3.87451e-09
-4.22592e-09
-4.60316e-09
-5.00769e-09
-5.44099e-09
-5.90463e-09
-6.40019e-09
-6.92932e-09
-7.4937e-09
-8.09506e-09
-8.73516e-09
-9.41579e-09
-1.01388e-08
-1.0906e-08
-1.17192e-08
-1.25804e-08
-1.34912e-08
-1.44537e-08
-1.54693e-08
-1.65398e-08
-1.76662e-08
-1.88496e-08
-2.00935e-08
-2.13953e-08
-2.26951e-08
-2.3924e-08
-2.59658e-08
-3.11221e-08
-2.73171e-08
-3.29803e-10
-3.35469e-10
-3.41588e-10
-3.46161e-10
-3.49671e-10
-3.52298e-10
-3.54029e-10
-3.54888e-10
-3.5491e-10
-3.54136e-10
-3.52611e-10
-3.50384e-10
-3.47507e-10