/*--------------------------------*- C++ -*----------------------------------*\
  =========                 |
  \\      /  F ield         | OpenFOAM: The Open Source CFD Toolbox
   \\    /   O peration     | Website:  https://openfoam.org
    \\  /    A nd           | Version:  11
     \\/     M anipulation  |
\*---------------------------------------------------------------------------*/
FoamFile
{
    format      ascii;
    class       volVectorField;
    location    "782";
    object      U;
}
// * * * * * * * * * * * * * * * * * * * * * * * * * * * * * * * * * * * * * //

dimensions      [0 1 -1 0 0 0 0];

internalField   nonuniform List<vector> 
10000
(
(0.005 -9.58365e-09 0)
(0.005 -2.57547e-08 0)
(0.00499999 -4.08323e-08 0)
(0.00499999 -5.55902e-08 0)
(0.00499998 -7.05218e-08 0)
(0.00499997 -8.59918e-08 0)
(0.00499997 -1.0228e-07 0)
(0.00499996 -1.1962e-07 0)
(0.00499995 -1.3822e-07 0)
(0.00499994 -1.58273e-07 0)
(0.00499992 -1.79967e-07 0)
(0.00499991 -2.0349e-07 0)
(0.0049999 -2.2903e-07 0)
(0.00499988 -2.56783e-07 0)
(0.00499986 -2.86949e-07 0)
(0.00499984 -3.19737e-07 0)
(0.00499982 -3.55364e-07 0)
(0.0049998 -3.9406e-07 0)
(0.00499977 -4.36065e-07 0)
(0.00499974 -4.81629e-07 0)
(0.00499971 -5.31018e-07 0)
(0.00499968 -5.8451e-07 0)
(0.00499964 -6.42398e-07 0)
(0.0049996 -7.04989e-07 0)
(0.00499956 -7.72606e-07 0)
(0.00499952 -8.45591e-07 0)
(0.00499947 -9.24298e-07 0)
(0.00499941 -1.0091e-06 0)
(0.00499936 -1.1004e-06 0)
(0.0049993 -1.1986e-06 0)
(0.00499923 -1.30414e-06 0)
(0.00499916 -1.41746e-06 0)
(0.00499909 -1.53904e-06 0)
(0.00499901 -1.66937e-06 0)
(0.00499892 -1.80896e-06 0)
(0.00499883 -1.95836e-06 0)
(0.00499873 -2.11813e-06 0)
(0.00499863 -2.28884e-06 0)
(0.00499852 -2.4711e-06 0)
(0.0049984 -2.66555e-06 0)
(0.00499827 -2.87283e-06 0)
(0.00499814 -3.09362e-06 0)
(0.00499799 -3.32863e-06 0)
(0.00499784 -3.57859e-06 0)
(0.00499768 -3.84423e-06 0)
(0.00499751 -4.12635e-06 0)
(0.00499733 -4.42573e-06 0)
(0.00499714 -4.74321e-06 0)
(0.00499693 -5.07962e-06 0)
(0.00499672 -5.43584e-06 0)
(0.00499649 -5.81276e-06 0)
(0.00499625 -6.21129e-06 0)
(0.00499599 -6.63237e-06 0)
(0.00499573 -7.07694e-06 0)
(0.00499544 -7.54597e-06 0)
(0.00499514 -8.04045e-06 0)
(0.00499483 -8.56138e-06 0)
(0.0049945 -9.10978e-06 0)
(0.00499415 -9.68664e-06 0)
(0.00499379 -1.0293e-05 0)
(0.00499341 -1.09299e-05 0)
(0.004993 -1.15984e-05 0)
(0.00499258 -1.22994e-05 0)
(0.00499214 -1.30341e-05 0)
(0.00499168 -1.38033e-05 0)
(0.0049912 -1.46081e-05 0)
(0.00499069 -1.54494e-05 0)
(0.00499016 -1.63282e-05 0)
(0.00498962 -1.72452e-05 0)
(0.00498904 -1.82013e-05 0)
(0.00498845 -1.91972e-05 0)
(0.00498783 -2.02335e-05 0)
(0.00498718 -2.13109e-05 0)
(0.00498652 -2.24298e-05 0)
(0.00498583 -2.35903e-05 0)
(0.00498511 -2.47928e-05 0)
(0.00498437 -2.6037e-05 0)
(0.00498361 -2.73227e-05 0)
(0.00498283 -2.86493e-05 0)
(0.00498202 -3.00158e-05 0)
(0.0049812 -3.14211e-05 0)
(0.00498035 -3.28633e-05 0)
(0.00497949 -3.434e-05 0)
(0.00497861 -3.58485e-05 0)
(0.00497771 -3.73848e-05 0)
(0.00497681 -3.89444e-05 0)
(0.0049759 -4.05214e-05 0)
(0.00497498 -4.21087e-05 0)
(0.00497407 -4.36975e-05 0)
(0.00497316 -4.52772e-05 0)
(0.00497226 -4.68349e-05 0)
(0.00497139 -4.83548e-05 0)
(0.00497054 -4.98181e-05 0)
(0.00496972 -5.12021e-05 0)
(0.00496896 -5.24801e-05 0)
(0.00496825 -5.36204e-05 0)
(0.00496762 -5.45865e-05 0)
(0.00496707 -5.53368e-05 0)
(0.00496664 -5.58337e-05 0)
(0.0049663 -5.60813e-05 0)
(0.005 -7.60015e-09 0)
(0.005 -2.20177e-08 0)
(0.00499999 -3.59537e-08 0)
(0.00499999 -4.96652e-08 0)
(0.00499998 -6.35627e-08 0)
(0.00499998 -7.79704e-08 0)
(0.00499997 -9.31461e-08 0)
(0.00499996 -1.09309e-07 0)
(0.00499995 -1.26657e-07 0)
(0.00499994 -1.45375e-07 0)
(0.00499993 -1.65642e-07 0)
(0.00499991 -1.8764e-07 0)
(0.0049999 -2.11548e-07 0)
(0.00499988 -2.37554e-07 0)
(0.00499986 -2.65852e-07 0)
(0.00499984 -2.96641e-07 0)
(0.00499982 -3.30133e-07 0)
(0.0049998 -3.66546e-07 0)
(0.00499977 -4.06112e-07 0)
(0.00499974 -4.49073e-07 0)
(0.00499971 -4.95685e-07 0)
(0.00499968 -5.46216e-07 0)
(0.00499964 -6.00948e-07 0)
(0.0049996 -6.60179e-07 0)
(0.00499956 -7.24222e-07 0)
(0.00499952 -7.93403e-07 0)
(0.00499947 -8.6807e-07 0)
(0.00499942 -9.48584e-07 0)
(0.00499936 -1.03533e-06 0)
(0.0049993 -1.12869e-06 0)
(0.00499924 -1.22911e-06 0)
(0.00499917 -1.337e-06 0)
(0.00499909 -1.45284e-06 0)
(0.00499901 -1.5771e-06 0)
(0.00499893 -1.71027e-06 0)
(0.00499883 -1.85289e-06 0)
(0.00499874 -2.00549e-06 0)
(0.00499863 -2.16865e-06 0)
(0.00499852 -2.34295e-06 0)
(0.0049984 -2.529e-06 0)
(0.00499828 -2.72745e-06 0)
(0.00499814 -2.93895e-06 0)
(0.004998 -3.1642e-06 0)
(0.00499785 -3.40389e-06 0)
(0.00499769 -3.65877e-06 0)
(0.00499752 -3.92959e-06 0)
(0.00499734 -4.21713e-06 0)
(0.00499715 -4.52221e-06 0)
(0.00499694 -4.84565e-06 0)
(0.00499673 -5.18831e-06 0)
(0.0049965 -5.55106e-06 0)
(0.00499626 -5.9348e-06 0)
(0.00499601 -6.34045e-06 0)
(0.00499574 -6.76895e-06 0)
(0.00499546 -7.22125e-06 0)
(0.00499516 -7.69834e-06 0)
(0.00499485 -8.20121e-06 0)
(0.00499452 -8.73085e-06 0)
(0.00499418 -9.28829e-06 0)
(0.00499381 -9.87455e-06 0)
(0.00499343 -1.04907e-05 0)
(0.00499303 -1.11377e-05 0)
(0.00499261 -1.18166e-05 0)
(0.00499217 -1.25284e-05 0)
(0.00499171 -1.32742e-05 0)
(0.00499123 -1.4055e-05 0)
(0.00499073 -1.48717e-05 0)
(0.0049902 -1.57253e-05 0)
(0.00498965 -1.66167e-05 0)
(0.00498908 -1.75467e-05 0)
(0.00498849 -1.85162e-05 0)
(0.00498787 -1.95259e-05 0)
(0.00498723 -2.05764e-05 0)
(0.00498657 -2.16683e-05 0)
(0.00498588 -2.2802e-05 0)
(0.00498516 -2.39777e-05 0)
(0.00498443 -2.51956e-05 0)
(0.00498367 -2.64555e-05 0)
(0.00498289 -2.7757e-05 0)
(0.00498208 -2.90996e-05 0)
(0.00498126 -3.04821e-05 0)
(0.00498041 -3.19032e-05 0)
(0.00497955 -3.33609e-05 0)
(0.00497867 -3.48526e-05 0)
(0.00497778 -3.63752e-05 0)
(0.00497688 -3.79243e-05 0)
(0.00497597 -3.94949e-05 0)
(0.00497505 -4.10804e-05 0)
(0.00497414 -4.2673e-05 0)
(0.00497323 -4.42626e-05 0)
(0.00497233 -4.58375e-05 0)
(0.00497146 -4.73829e-05 0)
(0.0049706 -4.88813e-05 0)
(0.00496978 -5.03114e-05 0)
(0.00496901 -5.16481e-05 0)
(0.00496829 -5.28616e-05 0)
(0.00496764 -5.39174e-05 0)
(0.00496707 -5.47755e-05 0)
(0.00496658 -5.53946e-05 0)
(0.00496613 -5.57501e-05 0)
(0.005 -6.00932e-09 0)
(0.005 -1.85484e-08 0)
(0.00499999 -3.11648e-08 0)
(0.00499999 -4.37735e-08 0)
(0.00499998 -5.66251e-08 0)
(0.00499998 -6.99794e-08 0)
(0.00499997 -8.40617e-08 0)
(0.00499996 -9.90728e-08 0)
(0.00499995 -1.15198e-07 0)
(0.00499994 -1.32612e-07 0)
(0.00499993 -1.51488e-07 0)
(0.00499991 -1.71998e-07 0)
(0.0049999 -1.94316e-07 0)
(0.00499988 -2.18621e-07 0)
(0.00499986 -2.45098e-07 0)
(0.00499984 -2.73943e-07 0)
(0.00499982 -3.05355e-07 0)
(0.0049998 -3.39547e-07 0)
(0.00499977 -3.76742e-07 0)
(0.00499975 -4.17172e-07 0)
(0.00499972 -4.61085e-07 0)
(0.00499968 -5.08739e-07 0)
(0.00499965 -5.60407e-07 0)
(0.00499961 -6.16375e-07 0)
(0.00499957 -6.76946e-07 0)
(0.00499952 -7.42437e-07 0)
(0.00499947 -8.13182e-07 0)
(0.00499942 -8.89533e-07 0)
(0.00499937 -9.71856e-07 0)
(0.00499931 -1.06054e-06 0)
(0.00499924 -1.15599e-06 0)
(0.00499917 -1.25863e-06 0)
(0.0049991 -1.3689e-06 0)
(0.00499902 -1.48727e-06 0)
(0.00499894 -1.61422e-06 0)
(0.00499884 -1.75027e-06 0)
(0.00499875 -1.89594e-06 0)
(0.00499864 -2.05178e-06 0)
(0.00499853 -2.21837e-06 0)
(0.00499842 -2.39631e-06 0)
(0.00499829 -2.58621e-06 0)
(0.00499816 -2.78872e-06 0)
(0.00499802 -3.00452e-06 0)
(0.00499787 -3.23429e-06 0)
(0.00499771 -3.47875e-06 0)
(0.00499754 -3.73865e-06 0)
(0.00499736 -4.01475e-06 0)
(0.00499717 -4.30785e-06 0)
(0.00499697 -4.61875e-06 0)
(0.00499676 -4.9483e-06 0)
(0.00499653 -5.29736e-06 0)
(0.00499629 -5.66681e-06 0)
(0.00499604 -6.05756e-06 0)
(0.00499578 -6.47054e-06 0)
(0.0049955 -6.90669e-06 0)
(0.0049952 -7.36699e-06 0)
(0.00499489 -7.85241e-06 0)
(0.00499456 -8.36396e-06 0)
(0.00499422 -8.90265e-06 0)
(0.00499386 -9.46949e-06 0)
(0.00499348 -1.00655e-05 0)
(0.00499308 -1.06918e-05 0)
(0.00499266 -1.13494e-05 0)
(0.00499223 -1.20393e-05 0)
(0.00499177 -1.27625e-05 0)
(0.00499129 -1.35201e-05 0)
(0.00499079 -1.43131e-05 0)
(0.00499027 -1.51424e-05 0)
(0.00498973 -1.60091e-05 0)
(0.00498916 -1.69141e-05 0)
(0.00498857 -1.78581e-05 0)
(0.00498795 -1.88421e-05 0)
(0.00498732 -1.98667e-05 0)
(0.00498666 -2.09326e-05 0)
(0.00498597 -2.20403e-05 0)
(0.00498526 -2.31902e-05 0)
(0.00498453 -2.43827e-05 0)
(0.00498377 -2.56177e-05 0)
(0.004983 -2.68951e-05 0)
(0.0049822 -2.82145e-05 0)
(0.00498137 -2.9575e-05 0)
(0.00498053 -3.09757e-05 0)
(0.00497968 -3.24149e-05 0)
(0.0049788 -3.38904e-05 0)
(0.00497791 -3.53994e-05 0)
(0.00497701 -3.69382e-05 0)
(0.0049761 -3.85022e-05 0)
(0.00497519 -4.00856e-05 0)
(0.00497427 -4.1681e-05 0)
(0.00497337 -4.32795e-05 0)
(0.00497247 -4.48699e-05 0)
(0.00497158 -4.64385e-05 0)
(0.00497072 -4.79687e-05 0)
(0.00496989 -4.94404e-05 0)
(0.0049691 -5.08295e-05 0)
(0.00496836 -5.2107e-05 0)
(0.00496768 -5.32388e-05 0)
(0.00496707 -5.41836e-05 0)
(0.00496649 -5.4896e-05 0)
(0.00496594 -5.53343e-05 0)
(0.005 -4.9171e-09 0)
(0.005 -1.57731e-08 0)
(0.00499999 -2.70687e-08 0)
(0.00499999 -3.85671e-08 0)
(0.00499998 -5.0401e-08 0)
(0.00499998 -6.27602e-08 0)
(0.00499997 -7.58296e-08 0)
(0.00499996 -8.97856e-08 0)
(0.00499995 -1.04797e-07 0)
(0.00499994 -1.2103e-07 0)
(0.00499993 -1.38645e-07 0)
(0.00499992 -1.57809e-07 0)
(0.0049999 -1.78687e-07 0)
(0.00499988 -2.01453e-07 0)
(0.00499987 -2.26285e-07 0)
(0.00499985 -2.53368e-07 0)
(0.00499983 -2.82898e-07 0)
(0.0049998 -3.1508e-07 0)
(0.00499978 -3.50127e-07 0)
(0.00499975 -3.88265e-07 0)
(0.00499972 -4.29733e-07 0)
(0.00499969 -4.7478e-07 0)
(0.00499965 -5.2367e-07 0)
(0.00499961 -5.76681e-07 0)
(0.00499957 -6.34105e-07 0)
(0.00499953 -6.9625e-07 0)
(0.00499948 -7.6344e-07 0)
(0.00499943 -8.36014e-07 0)
(0.00499937 -9.1433e-07 0)
(0.00499932 -9.98763e-07 0)
(0.00499925 -1.08971e-06 0)
(0.00499918 -1.18757e-06 0)
(0.00499911 -1.2928e-06 0)
(0.00499903 -1.40582e-06 0)
(0.00499895 -1.52713e-06 0)
(0.00499886 -1.65722e-06 0)
(0.00499876 -1.79659e-06 0)
(0.00499866 -1.9458e-06 0)
(0.00499855 -2.10539e-06 0)
(0.00499844 -2.27595e-06 0)
(0.00499831 -2.45809e-06 0)
(0.00499818 -2.65244e-06 0)
(0.00499804 -2.85966e-06 0)
(0.00499789 -3.08041e-06 0)
(0.00499774 -3.31542e-06 0)
(0.00499757 -3.56539e-06 0)
(0.00499739 -3.83109e-06 0)
(0.0049972 -4.1133e-06 0)
(0.004997 -4.41281e-06 0)
(0.00499679 -4.73044e-06 0)
(0.00499657 -5.06705e-06 0)
(0.00499633 -5.42351e-06 0)
(0.00499608 -5.80072e-06 0)
(0.00499582 -6.19959e-06 0)
(0.00499554 -6.62105e-06 0)
(0.00499525 -7.06608e-06 0)
(0.00499494 -7.53564e-06 0)
(0.00499462 -8.03072e-06 0)
(0.00499428 -8.55235e-06 0)
(0.00499392 -9.10154e-06 0)
(0.00499355 -9.67932e-06 0)
(0.00499315 -1.02867e-05 0)
(0.00499274 -1.09249e-05 0)
(0.00499231 -1.15947e-05 0)
(0.00499185 -1.22974e-05 0)
(0.00499138 -1.30339e-05 0)
(0.00499088 -1.38053e-05 0)
(0.00499037 -1.46126e-05 0)
(0.00498983 -1.54567e-05 0)
(0.00498927 -1.63388e-05 0)
(0.00498868 -1.72596e-05 0)
(0.00498807 -1.822e-05 0)
(0.00498744 -1.9221e-05 0)
(0.00498678 -2.02631e-05 0)
(0.0049861 -2.13471e-05 0)
(0.0049854 -2.24735e-05 0)
(0.00498467 -2.36427e-05 0)
(0.00498392 -2.48548e-05 0)
(0.00498315 -2.611e-05 0)
(0.00498236 -2.7408e-05 0)
(0.00498154 -2.87483e-05 0)
(0.0049807 -3.013e-05 0)
(0.00497985 -3.15519e-05 0)
(0.00497898 -3.30121e-05 0)
(0.00497809 -3.45081e-05 0)
(0.0049772 -3.60368e-05 0)
(0.00497629 -3.7594e-05 0)
(0.00497538 -3.91743e-05 0)
(0.00497446 -4.0771e-05 0)
(0.00497355 -4.23758e-05 0)
(0.00497265 -4.39781e-05 0)
(0.00497176 -4.5565e-05 0)
(0.00497089 -4.71206e-05 0)
(0.00497005 -4.86254e-05 0)
(0.00496924 -5.00555e-05 0)
(0.00496847 -5.13819e-05 0)
(0.00496775 -5.25691e-05 0)
(0.00496708 -5.35734e-05 0)
(0.00496643 -5.4343e-05 0)
(0.00496577 -5.48309e-05 0)
(0.005 -4.05317e-09 0)
(0.005 -1.33601e-08 0)
(0.005 -2.33246e-08 0)
(0.00499999 -3.36618e-08 0)
(0.00499999 -4.44311e-08 0)
(0.00499998 -5.57639e-08 0)
(0.00499997 -6.78047e-08 0)
(0.00499996 -8.07027e-08 0)
(0.00499995 -9.46078e-08 0)
(0.00499994 -1.09671e-07 0)
(0.00499993 -1.26045e-07 0)
(0.00499992 -1.43884e-07 0)
(0.0049999 -1.63349e-07 0)
(0.00499989 -1.84604e-07 0)
(0.00499987 -2.0782e-07 0)
(0.00499985 -2.33176e-07 0)
(0.00499983 -2.60859e-07 0)
(0.00499981 -2.91067e-07 0)
(0.00499978 -3.24006e-07 0)
(0.00499975 -3.59894e-07 0)
(0.00499972 -3.9896e-07 0)
(0.00499969 -4.41447e-07 0)
(0.00499966 -4.87609e-07 0)
(0.00499962 -5.37715e-07 0)
(0.00499958 -5.92047e-07 0)
(0.00499954 -6.50903e-07 0)
(0.00499949 -7.14598e-07 0)
(0.00499944 -7.83459e-07 0)
(0.00499939 -8.57835e-07 0)
(0.00499933 -9.38089e-07 0)
(0.00499926 -1.0246e-06 0)
(0.0049992 -1.11778e-06 0)
(0.00499912 -1.21803e-06 0)
(0.00499905 -1.3258e-06 0)
(0.00499896 -1.44156e-06 0)
(0.00499888 -1.56577e-06 0)
(0.00499878 -1.69895e-06 0)
(0.00499868 -1.84162e-06 0)
(0.00499857 -1.99432e-06 0)
(0.00499846 -2.15762e-06 0)
(0.00499834 -2.33212e-06 0)
(0.00499821 -2.51843e-06 0)
(0.00499807 -2.71719e-06 0)
(0.00499792 -2.92906e-06 0)
(0.00499777 -3.15475e-06 0)
(0.0049976 -3.39494e-06 0)
(0.00499743 -3.6504e-06 0)
(0.00499724 -3.92187e-06 0)
(0.00499705 -4.21014e-06 0)
(0.00499684 -4.51603e-06 0)
(0.00499662 -4.84037e-06 0)
(0.00499638 -5.18403e-06 0)
(0.00499614 -5.54787e-06 0)
(0.00499588 -5.93282e-06 0)
(0.00499561 -6.33979e-06 0)
(0.00499532 -6.76975e-06 0)
(0.00499501 -7.22365e-06 0)
(0.00499469 -7.70249e-06 0)
(0.00499436 -8.20727e-06 0)
(0.004994 -8.73902e-06 0)
(0.00499363 -9.29878e-06 0)
(0.00499324 -9.88758e-06 0)
(0.00499283 -1.05065e-05 0)
(0.00499241 -1.11566e-05 0)
(0.00499196 -1.18389e-05 0)
(0.00499149 -1.25546e-05 0)
(0.004991 -1.33046e-05 0)
(0.00499049 -1.409e-05 0)
(0.00498996 -1.49119e-05 0)
(0.0049894 -1.57712e-05 0)
(0.00498882 -1.6669e-05 0)
(0.00498822 -1.76062e-05 0)
(0.00498759 -1.85837e-05 0)
(0.00498694 -1.96023e-05 0)
(0.00498627 -2.06627e-05 0)
(0.00498557 -2.17657e-05 0)
(0.00498485 -2.29116e-05 0)
(0.00498411 -2.4101e-05 0)
(0.00498334 -2.53339e-05 0)
(0.00498256 -2.66105e-05 0)
(0.00498175 -2.79304e-05 0)
(0.00498092 -2.92929e-05 0)
(0.00498007 -3.06971e-05 0)
(0.0049792 -3.21415e-05 0)
(0.00497832 -3.3624e-05 0)
(0.00497743 -3.51418e-05 0)
(0.00497653 -3.6691e-05 0)
(0.00497562 -3.82669e-05 0)
(0.0049747 -3.98632e-05 0)
(0.00497379 -4.14721e-05 0)
(0.00497288 -4.30837e-05 0)
(0.00497198 -4.46855e-05 0)
(0.0049711 -4.6262e-05 0)
(0.00497024 -4.77941e-05 0)
(0.00496941 -4.92578e-05 0)
(0.00496861 -5.06234e-05 0)
(0.00496785 -5.18538e-05 0)
(0.00496713 -5.29019e-05 0)
(0.0049664 -5.37093e-05 0)
(0.00496564 -5.42277e-05 0)
(0.005 -3.31171e-09 0)
(0.005 -1.11919e-08 0)
(0.005 -1.98553e-08 0)
(0.00499999 -2.90122e-08 0)
(0.00499999 -3.86825e-08 0)
(0.00499998 -4.89561e-08 0)
(0.00499997 -5.99434e-08 0)
(0.00499997 -7.1767e-08 0)
(0.00499996 -8.45574e-08 0)
(0.00499995 -9.84502e-08 0)
(0.00499993 -1.13586e-07 0)
(0.00499992 -1.3011e-07 0)
(0.00499991 -1.48172e-07 0)
(0.00499989 -1.67929e-07 0)
(0.00499987 -1.89545e-07 0)
(0.00499985 -2.13192e-07 0)
(0.00499983 -2.39048e-07 0)
(0.00499981 -2.67304e-07 0)
(0.00499979 -2.98157e-07 0)
(0.00499976 -3.31819e-07 0)
(0.00499973 -3.6851e-07 0)
(0.0049997 -4.08464e-07 0)
(0.00499967 -4.51926e-07 0)
(0.00499963 -4.99157e-07 0)
(0.00499959 -5.50428e-07 0)
(0.00499955 -6.0603e-07 0)
(0.0049995 -6.66264e-07 0)
(0.00499945 -7.31449e-07 0)
(0.0049994 -8.01923e-07 0)
(0.00499934 -8.78037e-07 0)
(0.00499928 -9.60161e-07 0)
(0.00499921 -1.04869e-06 0)
(0.00499914 -1.14402e-06 0)
(0.00499907 -1.24658e-06 0)
(0.00499898 -1.35683e-06 0)
(0.0049989 -1.47523e-06 0)
(0.0049988 -1.60226e-06 0)
(0.00499871 -1.73845e-06 0)
(0.0049986 -1.88431e-06 0)
(0.00499849 -2.04042e-06 0)
(0.00499837 -2.20733e-06 0)
(0.00499824 -2.38567e-06 0)
(0.0049981 -2.57604e-06 0)
(0.00499796 -2.77911e-06 0)
(0.00499781 -2.99554e-06 0)
(0.00499764 -3.22603e-06 0)
(0.00499747 -3.47131e-06 0)
(0.00499729 -3.73213e-06 0)
(0.0049971 -4.00925e-06 0)
(0.00499689 -4.30348e-06 0)
(0.00499667 -4.61563e-06 0)
(0.00499645 -4.94656e-06 0)
(0.0049962 -5.29714e-06 0)
(0.00499595 -5.66826e-06 0)
(0.00499568 -6.06083e-06 0)
(0.00499539 -6.47581e-06 0)
(0.00499509 -6.91415e-06 0)
(0.00499478 -7.37684e-06 0)
(0.00499445 -7.86488e-06 0)
(0.0049941 -8.37929e-06 0)
(0.00499373 -8.9211e-06 0)
(0.00499335 -9.49138e-06 0)
(0.00499295 -1.00912e-05 0)
(0.00499253 -1.07216e-05 0)
(0.00499208 -1.13837e-05 0)
(0.00499162 -1.20785e-05 0)
(0.00499114 -1.28073e-05 0)
(0.00499063 -1.35709e-05 0)
(0.00499011 -1.43706e-05 0)
(0.00498956 -1.52073e-05 0)
(0.00498899 -1.60821e-05 0)
(0.00498839 -1.69961e-05 0)
(0.00498777 -1.79501e-05 0)
(0.00498713 -1.89451e-05 0)
(0.00498647 -1.99819e-05 0)
(0.00498578 -2.10613e-05 0)
(0.00498507 -2.21839e-05 0)
(0.00498433 -2.33503e-05 0)
(0.00498357 -2.45609e-05 0)
(0.00498279 -2.58157e-05 0)
(0.00498199 -2.71148e-05 0)
(0.00498117 -2.84577e-05 0)
(0.00498033 -2.98437e-05 0)
(0.00497947 -3.12717e-05 0)
(0.00497859 -3.27397e-05 0)
(0.00497771 -3.42455e-05 0)
(0.00497681 -3.57855e-05 0)
(0.0049759 -3.73554e-05 0)
(0.00497498 -3.89493e-05 0)
(0.00497407 -4.056e-05 0)
(0.00497315 -4.21778e-05 0)
(0.00497225 -4.37908e-05 0)
(0.00497135 -4.53837e-05 0)
(0.00497047 -4.69374e-05 0)
(0.00496962 -4.84276e-05 0)
(0.00496878 -4.9824e-05 0)
(0.00496798 -5.10875e-05 0)
(0.00496721 -5.21682e-05 0)
(0.00496642 -5.30028e-05 0)
(0.00496556 -5.35309e-05 0)
(0.005 -2.66046e-09 0)
(0.005 -9.23769e-09 0)
(0.005 -1.66586e-08 0)
(0.00499999 -2.46502e-08 0)
(0.00499999 -3.32146e-08 0)
(0.00499998 -4.24154e-08 0)
(0.00499998 -5.23368e-08 0)
(0.00499997 -6.30788e-08 0)
(0.00499996 -7.47533e-08 0)
(0.00499995 -8.74806e-08 0)
(0.00499994 -1.01389e-07 0)
(0.00499992 -1.16612e-07 0)
(0.00499991 -1.33291e-07 0)
(0.00499989 -1.51574e-07 0)
(0.00499988 -1.71618e-07 0)
(0.00499986 -1.93584e-07 0)
(0.00499984 -2.17646e-07 0)
(0.00499982 -2.43985e-07 0)
(0.00499979 -2.72792e-07 0)
(0.00499977 -3.04268e-07 0)
(0.00499974 -3.38627e-07 0)
(0.00499971 -3.76094e-07 0)
(0.00499967 -4.16906e-07 0)
(0.00499964 -4.61313e-07 0)
(0.0049996 -5.09579e-07 0)
(0.00499956 -5.61983e-07 0)
(0.00499951 -6.18817e-07 0)
(0.00499946 -6.80391e-07 0)
(0.00499941 -7.4703e-07 0)
(0.00499936 -8.19075e-07 0)
(0.00499929 -8.96886e-07 0)
(0.00499923 -9.80839e-07 0)
(0.00499916 -1.07133e-06 0)
(0.00499909 -1.16877e-06 0)
(0.00499901 -1.27361e-06 0)
(0.00499892 -1.38628e-06 0)
(0.00499883 -1.50727e-06 0)
(0.00499873 -1.63708e-06 0)
(0.00499863 -1.77622e-06 0)
(0.00499852 -1.92523e-06 0)
(0.0049984 -2.08469e-06 0)
(0.00499828 -2.25517e-06 0)
(0.00499814 -2.43728e-06 0)
(0.004998 -2.63167e-06 0)
(0.00499785 -2.83899e-06 0)
(0.00499769 -3.05992e-06 0)
(0.00499752 -3.29518e-06 0)
(0.00499734 -3.54549e-06 0)
(0.00499715 -3.81162e-06 0)
(0.00499695 -4.09435e-06 0)
(0.00499674 -4.39449e-06 0)
(0.00499651 -4.71287e-06 0)
(0.00499628 -5.05036e-06 0)
(0.00499603 -5.40783e-06 0)
(0.00499576 -5.7862e-06 0)
(0.00499548 -6.1864e-06 0)
(0.00499519 -6.60938e-06 0)
(0.00499488 -7.05612e-06 0)
(0.00499455 -7.52762e-06 0)
(0.00499421 -8.0249e-06 0)
(0.00499385 -8.54899e-06 0)
(0.00499347 -9.10096e-06 0)
(0.00499308 -9.68187e-06 0)
(0.00499266 -1.02928e-05 0)
(0.00499223 -1.09349e-05 0)
(0.00499177 -1.16092e-05 0)
(0.0049913 -1.23168e-05 0)
(0.0049908 -1.30589e-05 0)
(0.00499028 -1.38365e-05 0)
(0.00498974 -1.46508e-05 0)
(0.00498918 -1.55028e-05 0)
(0.00498859 -1.63937e-05 0)
(0.00498798 -1.73244e-05 0)
(0.00498735 -1.82959e-05 0)
(0.00498669 -1.93091e-05 0)
(0.00498601 -2.0365e-05 0)
(0.00498531 -2.14643e-05 0)
(0.00498458 -2.26077e-05 0)
(0.00498383 -2.37957e-05 0)
(0.00498306 -2.50286e-05 0)
(0.00498227 -2.63065e-05 0)
(0.00498146 -2.76294e-05 0)
(0.00498062 -2.89967e-05 0)
(0.00497977 -3.04074e-05 0)
(0.0049789 -3.18601e-05 0)
(0.00497802 -3.33527e-05 0)
(0.00497712 -3.4882e-05 0)
(0.00497621 -3.64441e-05 0)
(0.0049753 -3.80336e-05 0)
(0.00497438 -3.96432e-05 0)
(0.00497346 -4.1264e-05 0)
(0.00497255 -4.28841e-05 0)
(0.00497164 -4.44885e-05 0)
(0.00497074 -4.60578e-05 0)
(0.00496986 -4.75676e-05 0)
(0.00496899 -4.89864e-05 0)
(0.00496815 -5.0274e-05 0)
(0.00496732 -5.1378e-05 0)
(0.00496647 -5.22317e-05 0)
(0.00496553 -5.27524e-05 0)
(0.005 -2.07883e-09 0)
(0.005 -7.46447e-09 0)
(0.005 -1.3712e-08 0)
(0.00499999 -2.05732e-08 0)
(0.00499999 -2.80452e-08 0)
(0.00499998 -3.61757e-08 0)
(0.00499998 -4.50305e-08 0)
(0.00499997 -5.46917e-08 0)
(0.00499996 -6.52546e-08 0)
(0.00499995 -7.68255e-08 0)
(0.00499994 -8.95196e-08 0)
(0.00499993 -1.03461e-07 0)
(0.00499991 -1.1878e-07 0)
(0.0049999 -1.35617e-07 0)
(0.00499988 -1.54118e-07 0)
(0.00499986 -1.74439e-07 0)
(0.00499984 -1.96745e-07 0)
(0.00499982 -2.21208e-07 0)
(0.0049998 -2.48012e-07 0)
(0.00499977 -2.77351e-07 0)
(0.00499975 -3.0943e-07 0)
(0.00499972 -3.44464e-07 0)
(0.00499968 -3.82683e-07 0)
(0.00499965 -4.24328e-07 0)
(0.00499961 -4.69654e-07 0)
(0.00499957 -5.18928e-07 0)
(0.00499953 -5.72436e-07 0)
(0.00499948 -6.30474e-07 0)
(0.00499943 -6.93359e-07 0)
(0.00499937 -7.6142e-07 0)
(0.00499931 -8.35005e-07 0)
(0.00499925 -9.1448e-07 0)
(0.00499918 -1.00023e-06 0)
(0.00499911 -1.09265e-06 0)
(0.00499903 -1.19218e-06 0)
(0.00499895 -1.29924e-06 0)
(0.00499886 -1.41431e-06 0)
(0.00499876 -1.53786e-06 0)
(0.00499866 -1.6704e-06 0)
(0.00499856 -1.81246e-06 0)
(0.00499844 -1.96459e-06 0)
(0.00499832 -2.12737e-06 0)
(0.00499819 -2.30138e-06 0)
(0.00499805 -2.48724e-06 0)
(0.0049979 -2.68561e-06 0)
(0.00499775 -2.89716e-06 0)
(0.00499758 -3.12257e-06 0)
(0.0049974 -3.36256e-06 0)
(0.00499722 -3.61789e-06 0)
(0.00499702 -3.88932e-06 0)
(0.00499681 -4.17764e-06 0)
(0.00499659 -4.48369e-06 0)
(0.00499636 -4.8083e-06 0)
(0.00499611 -5.15235e-06 0)
(0.00499585 -5.51674e-06 0)
(0.00499558 -5.90239e-06 0)
(0.00499529 -6.31025e-06 0)
(0.00499499 -6.74129e-06 0)
(0.00499467 -7.1965e-06 0)
(0.00499433 -7.6769e-06 0)
(0.00499398 -8.18353e-06 0)
(0.00499361 -8.71744e-06 0)
(0.00499322 -9.27972e-06 0)
(0.00499281 -9.87145e-06 0)
(0.00499239 -1.04937e-05 0)
(0.00499194 -1.11477e-05 0)
(0.00499147 -1.18345e-05 0)
(0.00499098 -1.25553e-05 0)
(0.00499047 -1.33111e-05 0)
(0.00498994 -1.41032e-05 0)
(0.00498939 -1.49326e-05 0)
(0.00498881 -1.58006e-05 0)
(0.00498821 -1.67081e-05 0)
(0.00498759 -1.76562e-05 0)
(0.00498694 -1.8646e-05 0)
(0.00498627 -1.96785e-05 0)
(0.00498558 -2.07544e-05 0)
(0.00498486 -2.18747e-05 0)
(0.00498412 -2.30399e-05 0)
(0.00498336 -2.42507e-05 0)
(0.00498258 -2.55072e-05 0)
(0.00498177 -2.68095e-05 0)
(0.00498095 -2.81574e-05 0)
(0.0049801 -2.95501e-05 0)
(0.00497924 -3.09864e-05 0)
(0.00497836 -3.24645e-05 0)
(0.00497747 -3.39816e-05 0)
(0.00497656 -3.5534e-05 0)
(0.00497565 -3.71165e-05 0)
(0.00497473 -3.87223e-05 0)
(0.0049738 -4.03426e-05 0)
(0.00497288 -4.19657e-05 0)
(0.00497195 -4.35766e-05 0)
(0.00497103 -4.51558e-05 0)
(0.00497013 -4.66783e-05 0)
(0.00496923 -4.81122e-05 0)
(0.00496834 -4.94158e-05 0)
(0.00496747 -5.05352e-05 0)
(0.00496657 -5.14012e-05 0)
(0.00496555 -5.19092e-05 0)
(0.005 -1.55242e-09 0)
(0.005 -5.84416e-09 0)
(0.005 -1.09895e-08 0)
(0.00499999 -1.67662e-08 0)
(0.00499999 -2.3173e-08 0)
(0.00499998 -3.0249e-08 0)
(0.00499998 -3.80475e-08 0)
(0.00499997 -4.66367e-08 0)
(0.00499996 -5.60983e-08 0)
(0.00499995 -6.65259e-08 0)
(0.00499994 -7.80232e-08 0)
(0.00499993 -9.07032e-08 0)
(0.00499992 -1.04688e-07 0)
(0.0049999 -1.20107e-07 0)
(0.00499989 -1.37099e-07 0)
(0.00499987 -1.55812e-07 0)
(0.00499985 -1.76402e-07 0)
(0.00499983 -1.99034e-07 0)
(0.00499981 -2.23884e-07 0)
(0.00499978 -2.51137e-07 0)
(0.00499975 -2.8099e-07 0)
(0.00499973 -3.13651e-07 0)
(0.00499969 -3.4934e-07 0)
(0.00499966 -3.88289e-07 0)
(0.00499962 -4.30744e-07 0)
(0.00499958 -4.76964e-07 0)
(0.00499954 -5.27223e-07 0)
(0.00499949 -5.81809e-07 0)
(0.00499944 -6.41026e-07 0)
(0.00499939 -7.05195e-07 0)
(0.00499933 -7.74651e-07 0)
(0.00499927 -8.4975e-07 0)
(0.00499921 -9.30863e-07 0)
(0.00499913 -1.01838e-06 0)
(0.00499906 -1.11271e-06 0)
(0.00499898 -1.21429e-06 0)
(0.00499889 -1.32356e-06 0)
(0.0049988 -1.44099e-06 0)
(0.0049987 -1.56707e-06 0)
(0.00499859 -1.70233e-06 0)
(0.00499848 -1.84729e-06 0)
(0.00499836 -2.00251e-06 0)
(0.00499824 -2.16857e-06 0)
(0.0049981 -2.34609e-06 0)
(0.00499796 -2.53569e-06 0)
(0.0049978 -2.73803e-06 0)
(0.00499764 -2.95378e-06 0)
(0.00499747 -3.18366e-06 0)
(0.00499729 -3.42839e-06 0)
(0.0049971 -3.68873e-06 0)
(0.00499689 -3.96546e-06 0)
(0.00499668 -4.25939e-06 0)
(0.00499645 -4.57136e-06 0)
(0.00499621 -4.90223e-06 0)
(0.00499596 -5.25289e-06 0)
(0.00499569 -5.62424e-06 0)
(0.00499541 -6.01723e-06 0)
(0.00499511 -6.43283e-06 0)
(0.0049948 -6.87201e-06 0)
(0.00499447 -7.33581e-06 0)
(0.00499412 -7.82524e-06 0)
(0.00499376 -8.34137e-06 0)
(0.00499338 -8.88528e-06 0)
(0.00499298 -9.45808e-06 0)
(0.00499256 -1.00609e-05 0)
(0.00499212 -1.06948e-05 0)
(0.00499166 -1.1361e-05 0)
(0.00499118 -1.20607e-05 0)
(0.00499068 -1.2795e-05 0)
(0.00499016 -1.35651e-05 0)
(0.00498962 -1.43721e-05 0)
(0.00498905 -1.52173e-05 0)
(0.00498846 -1.61018e-05 0)
(0.00498785 -1.70267e-05 0)
(0.00498721 -1.79932e-05 0)
(0.00498655 -1.90022e-05 0)
(0.00498587 -2.00548e-05 0)
(0.00498516 -2.11518e-05 0)
(0.00498443 -2.22942e-05 0)
(0.00498368 -2.34824e-05 0)
(0.00498291 -2.47171e-05 0)
(0.00498211 -2.59983e-05 0)
(0.00498129 -2.73261e-05 0)
(0.00498046 -2.86999e-05 0)
(0.0049796 -3.01187e-05 0)
(0.00497873 -3.1581e-05 0)
(0.00497784 -3.30842e-05 0)
(0.00497694 -3.46247e-05 0)
(0.00497602 -3.61979e-05 0)
(0.0049751 -3.7797e-05 0)
(0.00497417 -3.94133e-05 0)
(0.00497323 -4.10352e-05 0)
(0.00497229 -4.26478e-05 0)
(0.00497136 -4.42314e-05 0)
(0.00497042 -4.57606e-05 0)
(0.00496949 -4.72027e-05 0)
(0.00496857 -4.85154e-05 0)
(0.00496766 -4.96434e-05 0)
(0.0049667 -5.05164e-05 0)
(0.00496563 -5.10186e-05 0)
(0.005 -1.07156e-09 0)
(0.005 -4.35629e-09 0)
(0.005 -8.46889e-09 0)
(0.00499999 -1.32134e-08 0)
(0.00499999 -1.85924e-08 0)
(0.00499999 -2.46404e-08 0)
(0.00499998 -3.14026e-08 0)
(0.00499997 -3.8937e-08 0)
(0.00499996 -4.73144e-08 0)
(0.00499996 -5.66172e-08 0)
(0.00499994 -6.69388e-08 0)
(0.00499993 -7.83823e-08 0)
(0.00499992 -9.10602e-08 0)
(0.00499991 -1.05094e-07 0)
(0.00499989 -1.20613e-07 0)
(0.00499987 -1.37757e-07 0)
(0.00499986 -1.56675e-07 0)
(0.00499984 -1.77523e-07 0)
(0.00499981 -2.0047e-07 0)
(0.00499979 -2.25693e-07 0)
(0.00499976 -2.5338e-07 0)
(0.00499974 -2.8373e-07 0)
(0.0049997 -3.16956e-07 0)
(0.00499967 -3.53281e-07 0)
(0.00499964 -3.92941e-07 0)
(0.0049996 -4.36186e-07 0)
(0.00499956 -4.83281e-07 0)
(0.00499951 -5.34503e-07 0)
(0.00499946 -5.90147e-07 0)
(0.00499941 -6.50521e-07 0)
(0.00499935 -7.15952e-07 0)
(0.00499929 -7.86783e-07 0)
(0.00499923 -8.63374e-07 0)
(0.00499916 -9.46104e-07 0)
(0.00499909 -1.03537e-06 0)
(0.00499901 -1.13159e-06 0)
(0.00499893 -1.2352e-06 0)
(0.00499884 -1.34665e-06 0)
(0.00499874 -1.46643e-06 0)
(0.00499864 -1.59503e-06 0)
(0.00499853 -1.73298e-06 0)
(0.00499841 -1.88082e-06 0)
(0.00499829 -2.03913e-06 0)
(0.00499816 -2.20848e-06 0)
(0.00499802 -2.3895e-06 0)
(0.00499787 -2.58283e-06 0)
(0.00499771 -2.78913e-06 0)
(0.00499754 -3.0091e-06 0)
(0.00499737 -3.24345e-06 0)
(0.00499718 -3.49293e-06 0)
(0.00499698 -3.7583e-06 0)
(0.00499677 -4.04036e-06 0)
(0.00499655 -4.33993e-06 0)
(0.00499631 -4.65787e-06 0)
(0.00499606 -4.99505e-06 0)
(0.0049958 -5.35237e-06 0)
(0.00499553 -5.73077e-06 0)
(0.00499524 -6.1312e-06 0)
(0.00499493 -6.55464e-06 0)
(0.00499461 -7.0021e-06 0)
(0.00499427 -7.47463e-06 0)
(0.00499392 -7.97327e-06 0)
(0.00499354 -8.49911e-06 0)
(0.00499315 -9.05325e-06 0)
(0.00499274 -9.63684e-06 0)
(0.00499231 -1.0251e-05 0)
(0.00499186 -1.08969e-05 0)
(0.0049914 -1.15758e-05 0)
(0.00499091 -1.22888e-05 0)
(0.00499039 -1.30371e-05 0)
(0.00498986 -1.38219e-05 0)
(0.0049893 -1.46446e-05 0)
(0.00498873 -1.55062e-05 0)
(0.00498812 -1.6408e-05 0)
(0.0049875 -1.73511e-05 0)
(0.00498685 -1.83367e-05 0)
(0.00498618 -1.93659e-05 0)
(0.00498548 -2.04396e-05 0)
(0.00498477 -2.15588e-05 0)
(0.00498402 -2.27243e-05 0)
(0.00498326 -2.39366e-05 0)
(0.00498247 -2.51962e-05 0)
(0.00498167 -2.65031e-05 0)
(0.00498084 -2.7857e-05 0)
(0.00497999 -2.92572e-05 0)
(0.00497912 -3.07022e-05 0)
(0.00497823 -3.21897e-05 0)
(0.00497733 -3.37164e-05 0)
(0.00497642 -3.52777e-05 0)
(0.00497549 -3.68671e-05 0)
(0.00497455 -3.84759e-05 0)
(0.00497361 -4.00929e-05 0)
(0.00497266 -4.17026e-05 0)
(0.0049717 -4.32856e-05 0)
(0.00497075 -4.48159e-05 0)
(0.00496979 -4.62603e-05 0)
(0.00496884 -4.75759e-05 0)
(0.00496788 -4.87068e-05 0)
(0.00496687 -4.95825e-05 0)
(0.00496575 -5.00835e-05 0)
(0.005 -6.32283e-10 0)
(0.005 -2.9844e-09 0)
(0.005 -6.13245e-09 0)
(0.00499999 -9.90065e-09 0)
(0.00499999 -1.42957e-08 0)
(0.00499999 -1.93505e-08 0)
(0.00499998 -2.51049e-08 0)
(0.00499997 -3.16095e-08 0)
(0.00499997 -3.89263e-08 0)
(0.00499996 -4.71286e-08 0)
(0.00499995 -5.63006e-08 0)
(0.00499994 -6.65362e-08 0)
(0.00499992 -7.79392e-08 0)
(0.00499991 -9.06223e-08 0)
(0.0049999 -1.04708e-07 0)
(0.00499988 -1.20326e-07 0)
(0.00499986 -1.37618e-07 0)
(0.00499984 -1.56734e-07 0)
(0.00499982 -1.77832e-07 0)
(0.0049998 -2.01083e-07 0)
(0.00499977 -2.26666e-07 0)
(0.00499975 -2.54774e-07 0)
(0.00499972 -2.85608e-07 0)
(0.00499968 -3.19384e-07 0)
(0.00499965 -3.5633e-07 0)
(0.00499961 -3.96685e-07 0)
(0.00499957 -4.40705e-07 0)
(0.00499953 -4.88658e-07 0)
(0.00499948 -5.40828e-07 0)
(0.00499943 -5.97514e-07 0)
(0.00499938 -6.59031e-07 0)
(0.00499932 -7.2571e-07 0)
(0.00499926 -7.97901e-07 0)
(0.00499919 -8.7597e-07 0)
(0.00499912 -9.60303e-07 0)
(0.00499904 -1.0513e-06 0)
(0.00499896 -1.1494e-06 0)
(0.00499887 -1.25503e-06 0)
(0.00499878 -1.36866e-06 0)
(0.00499868 -1.49078e-06 0)
(0.00499858 -1.62189e-06 0)
(0.00499846 -1.76253e-06 0)
(0.00499834 -1.91326e-06 0)
(0.00499821 -2.07464e-06 0)
(0.00499808 -2.24728e-06 0)
(0.00499793 -2.43181e-06 0)
(0.00499778 -2.62888e-06 0)
(0.00499762 -2.83917e-06 0)
(0.00499745 -3.06337e-06 0)
(0.00499726 -3.30222e-06 0)
(0.00499707 -3.55648e-06 0)
(0.00499687 -3.82692e-06 0)
(0.00499665 -4.11436e-06 0)
(0.00499642 -4.41964e-06 0)
(0.00499618 -4.74362e-06 0)
(0.00499592 -5.08719e-06 0)
(0.00499566 -5.45127e-06 0)
(0.00499537 -5.83682e-06 0)
(0.00499507 -6.24481e-06 0)
(0.00499476 -6.67625e-06 0)