/*--------------------------------*- C++ -*----------------------------------*\
  =========                 |
  \\      /  F ield         | OpenFOAM: The Open Source CFD Toolbox
   \\    /   O peration     | Website:  https://openfoam.org
    \\  /    A nd           | Version:  11
     \\/     M anipulation  |
\*---------------------------------------------------------------------------*/
FoamFile
{
    format      ascii;
    class       volScalarField;
    location    "684";
    object      nut;
}
// * * * * * * * * * * * * * * * * * * * * * * * * * * * * * * * * * * * * * //

dimensions      [0 2 -1 0 0 0 0];

internalField   nonuniform List<scalar> 
10000
(
0.000977118
0.00093671
0.000899656
0.000865636
0.000834362
0.000805577
0.000779047
0.000754565
0.000731943
0.000711012
0.000691619
0.000673629
0.000656916
0.000641369
0.000626889
0.000613384
0.000600771
0.000588977
0.000577934
0.00056758
0.000557861
0.000548726
0.00054013
0.00053203
0.000524389
0.000517173
0.000510349
0.000503889
0.000497766
0.000491957
0.000486439
0.000481192
0.000476197
0.000471437
0.000466897
0.000462561
0.000458417
0.000454452
0.000450655
0.000447014
0.00044352
0.000440165
0.000436939
0.000433834
0.000430844
0.000427962
0.00042518
0.000422495
0.000419899
0.000417387
0.000414956
0.0004126
0.000410316
0.000408099
0.000405946
0.000403853
0.000401818
0.000399838
0.000397909
0.000396031
0.000394199
0.000392414
0.000390672
0.000388972
0.000387313
0.000385695
0.000384115
0.000382574
0.000381072
0.000379608
0.000378182
0.000376796
0.00037545
0.000374145
0.000372883
0.000371666
0.000370496
0.000369377
0.000368311
0.000367302
0.000366355
0.000365474
0.000364664
0.000363931
0.000363282
0.000362722
0.000362258
0.000361898
0.000361648
0.000361514
0.000361503
0.000361616
0.000361854
0.000362212
0.000362679
0.000363231
0.00036383
0.000364416
0.0003649
0.000365164
0.000977118
0.00093671
0.000899656
0.000865636
0.000834362
0.000805577
0.000779047
0.000754565
0.000731943
0.000711012
0.000691619
0.000673629
0.000656916
0.00064137
0.000626889
0.000613384
0.000600771
0.000588977
0.000577934
0.00056758
0.000557862
0.000548727
0.00054013
0.00053203
0.00052439
0.000517173
0.000510349
0.000503889
0.000497766
0.000491957
0.000486439
0.000481192
0.000476197
0.000471438
0.000466897
0.000462562
0.000458418
0.000454453
0.000450655
0.000447015
0.000443521
0.000440165
0.000436939
0.000433835
0.000430845
0.000427963
0.000425181
0.000422496
0.0004199
0.000417388
0.000414957
0.000412601
0.000410317
0.0004081
0.000405947
0.000403854
0.000401819
0.000399839
0.000397911
0.000396032
0.000394201
0.000392415
0.000390673
0.000388974
0.000387315
0.000385697
0.000384117
0.000382576
0.000381074
0.00037961
0.000378184
0.000376798
0.000375452
0.000374147
0.000372885
0.000371668
0.000370499
0.000369379
0.000368313
0.000367305
0.000366357
0.000365476
0.000364666
0.000363933
0.000363284
0.000362724
0.00036226
0.0003619
0.000361649
0.000361516
0.000361503
0.000361616
0.000361854
0.000362213
0.000362679
0.000363231
0.000363829
0.000364415
0.0003649
0.000365164
0.000977118
0.00093671
0.000899656
0.000865636
0.000834362
0.000805577
0.000779047
0.000754565
0.000731943
0.000711012
0.00069162
0.000673629
0.000656916
0.00064137
0.00062689
0.000613384
0.000600772
0.000588977
0.000577934
0.000567581
0.000557862
0.000548727
0.000540131
0.000532031
0.00052439
0.000517173
0.00051035
0.00050389
0.000497767
0.000491958
0.00048644
0.000481193
0.000476198
0.000471439
0.000466898
0.000462563
0.000458419
0.000454454
0.000450656
0.000447016
0.000443522
0.000440167
0.000436941
0.000433837
0.000430847
0.000427964
0.000425183
0.000422497
0.000419902
0.00041739
0.000414959
0.000412603
0.000410319
0.000408102
0.000405949
0.000403857
0.000401822
0.000399842
0.000397914
0.000396035
0.000394204
0.000392418
0.000390677
0.000388977
0.000387319
0.0003857
0.000384121
0.00038258
0.000381078
0.000379614
0.000378189
0.000376802
0.000375456
0.000374151
0.00037289
0.000371673
0.000370503
0.000369384
0.000368318
0.000367309
0.000366362
0.00036548
0.00036467
0.000363937
0.000363287
0.000362727
0.000362263
0.000361903
0.000361652
0.000361518
0.000361505
0.000361618
0.000361855
0.000362213
0.000362679
0.00036323
0.000363828
0.000364414
0.000364898
0.000365162
0.000977118
0.00093671
0.000899656
0.000865636
0.000834362
0.000805577
0.000779047
0.000754566
0.000731944
0.000711012
0.00069162
0.000673629
0.000656916
0.00064137
0.00062689
0.000613385
0.000600772
0.000588978
0.000577935
0.000567581
0.000557862
0.000548728
0.000540131
0.000532032
0.000524391
0.000517174
0.00051035
0.00050389
0.000497768
0.000491959
0.000486441
0.000481194
0.000476199
0.00047144
0.0004669
0.000462565
0.000458421
0.000454456
0.000450658
0.000447018
0.000443524
0.000440169
0.000436943
0.000433839
0.000430849
0.000427967
0.000425186
0.0004225
0.000419904
0.000417393
0.000414962
0.000412607
0.000410323
0.000408106
0.000405953
0.000403861
0.000401826
0.000399846
0.000397918
0.00039604
0.000394209
0.000392423
0.000390682
0.000388982
0.000387324
0.000385706
0.000384127
0.000382586
0.000381084
0.00037962
0.000378195
0.000376809
0.000375463
0.000374158
0.000372896
0.000371679
0.00037051
0.00036939
0.000368324
0.000367316
0.000366368
0.000365487
0.000364676
0.000363943
0.000363293
0.000362732
0.000362268
0.000361907
0.000361656
0.000361521
0.000361508
0.000361619
0.000361856
0.000362213
0.000362679
0.000363229
0.000363827
0.000364412
0.000364896
0.000365159
0.000977119
0.000936711
0.000899656
0.000865636
0.000834362
0.000805577
0.000779048
0.000754566
0.000731944
0.000711013
0.00069162
0.000673629
0.000656917
0.00064137
0.00062689
0.000613385
0.000600773
0.000588978
0.000577935
0.000567582
0.000557863
0.000548729
0.000540132
0.000532033
0.000524392
0.000517175
0.000510352
0.000503892
0.000497769
0.00049196
0.000486443
0.000481196
0.000476201
0.000471442
0.000466902
0.000462567
0.000458423
0.000454458
0.000450661
0.00044702
0.000443527
0.000440172
0.000436946
0.000433842
0.000430852
0.00042797
0.000425189
0.000422504
0.000419908
0.000417397
0.000414967
0.000412611
0.000410327
0.000408111
0.000405958
0.000403866
0.000401831
0.000399852
0.000397924
0.000396046
0.000394215
0.00039243
0.000390688
0.000388989
0.000387331
0.000385713
0.000384134
0.000382594
0.000381092
0.000379628
0.000378203
0.000376817
0.000375471
0.000374166
0.000372905
0.000371688
0.000370519
0.000369399
0.000368333
0.000367324
0.000366377
0.000365495
0.000364684
0.000363951
0.0003633
0.000362739
0.000362274
0.000361912
0.000361661
0.000361525
0.000361511
0.000361622
0.000361858
0.000362214
0.000362679
0.000363228
0.000363825
0.000364409
0.000364893
0.000365156
0.000977119
0.000936711
0.000899656
0.000865636
0.000834363
0.000805577
0.000779048
0.000754566
0.000731944
0.000711013
0.00069162
0.00067363
0.000656917
0.000641371
0.000626891
0.000613386
0.000600773
0.000588979
0.000577936
0.000567583
0.000557864
0.00054873
0.000540133
0.000532034
0.000524393
0.000517177
0.000510353
0.000503893
0.000497771
0.000491962
0.000486444
0.000481198
0.000476203
0.000471444
0.000466904
0.000462569
0.000458425
0.000454461
0.000450664
0.000447023
0.00044353
0.000440175
0.00043695
0.000433846
0.000430856
0.000427974
0.000425194
0.000422509
0.000419913
0.000417402
0.000414972
0.000412617
0.000410333
0.000408116
0.000405964
0.000403872
0.000401838
0.000399858
0.000397931
0.000396053
0.000394222
0.000392438
0.000390696
0.000388998
0.00038734
0.000385722
0.000384143
0.000382603
0.000381101
0.000379638
0.000378213
0.000376827
0.000375481
0.000374177
0.000372915
0.000371699
0.000370529
0.00036941
0.000368344
0.000367335
0.000366387
0.000365505
0.000364694
0.00036396
0.000363309
0.000362748
0.000362282
0.000361919
0.000361667
0.00036153
0.000361515
0.000361625
0.00036186
0.000362215
0.000362678
0.000363227
0.000363823
0.000364406
0.000364889
0.000365152
0.000977119
0.000936711
0.000899657
0.000865636
0.000834363
0.000805577
0.000779048
0.000754566
0.000731944
0.000711013
0.000691621
0.00067363
0.000656917
0.000641371
0.000626891
0.000613386
0.000600774
0.00058898
0.000577937
0.000567584
0.000557865
0.000548731
0.000540135
0.000532035
0.000524395
0.000517178
0.000510355
0.000503895
0.000497773
0.000491964
0.000486447
0.0004812
0.000476206
0.000471447
0.000466907
0.000462572
0.000458429
0.000454464
0.000450667
0.000447027
0.000443534
0.000440179
0.000436954
0.00043385
0.000430861
0.000427979
0.000425199
0.000422514
0.000419919
0.000417408
0.000414978
0.000412623
0.000410339
0.000408123
0.000405971
0.00040388
0.000401846
0.000399867
0.000397939
0.000396062
0.000394231
0.000392447
0.000390706
0.000389007
0.00038735
0.000385732
0.000384154
0.000382614
0.000381113
0.000379649
0.000378225
0.000376839
0.000375494
0.00037419
0.000372928
0.000371711
0.000370542
0.000369423
0.000368357
0.000367347
0.000366399
0.000365517
0.000364706
0.000363972
0.00036332
0.000362758
0.000362291
0.000361928
0.000361674
0.000361537
0.00036152
0.000361629
0.000361862
0.000362216
0.000362678
0.000363225
0.00036382
0.000364403
0.000364885
0.000365147
0.000977119
0.000936711
0.000899657
0.000865636
0.000834363
0.000805577
0.000779048
0.000754566
0.000731944
0.000711013
0.000691621
0.000673631
0.000656918
0.000641372
0.000626892
0.000613387
0.000600775
0.000588981
0.000577938
0.000567585
0.000557866
0.000548732
0.000540136
0.000532037
0.000524396
0.00051718
0.000510357
0.000503897
0.000497775
0.000491967
0.000486449
0.000481203
0.000476209
0.00047145
0.00046691
0.000462576
0.000458432
0.000454468
0.000450671
0.000447031
0.000443539
0.000440184
0.000436959
0.000433856
0.000430866
0.000427985
0.000425205
0.00042252
0.000419925
0.000417415
0.000414985
0.00041263
0.000410347
0.000408131
0.00040598
0.000403888
0.000401855
0.000399876
0.000397949
0.000396072
0.000394242
0.000392458
0.000390717
0.000389019
0.000387362
0.000385744
0.000384166
0.000382627
0.000381126
0.000379663
0.000378238
0.000376853
0.000375508
0.000374204
0.000372943
0.000371726
0.000370557
0.000369437
0.000368371
0.000367362
0.000366414
0.000365531
0.000364719
0.000363985
0.000363332
0.000362769
0.000362302
0.000361937
0.000361682
0.000361544
0.000361526
0.000361633
0.000361865
0.000362217
0.000362678
0.000363224
0.000363817
0.000364398
0.00036488
0.000365142
0.000977119
0.000936711
0.000899657
0.000865637
0.000834363
0.000805578
0.000779048
0.000754567
0.000731945
0.000711014
0.000691622
0.000673631
0.000656919
0.000641373
0.000626893
0.000613388
0.000600776
0.000588982
0.000577939
0.000567586
0.000557868
0.000548733
0.000540138
0.000532038
0.000524398
0.000517182
0.000510359
0.0005039
0.000497778
0.000491969
0.000486452
0.000481206
0.000476212
0.000471453
0.000466914
0.000462579
0.000458436
0.000454472
0.000450676
0.000447036
0.000443544
0.000440189
0.000436964
0.000433861
0.000430873
0.000427991
0.000425212
0.000422527
0.000419932
0.000417423
0.000414993
0.000412639
0.000410356
0.00040814
0.000405989
0.000403898
0.000401865
0.000399886
0.00039796
0.000396083
0.000394253
0.000392469
0.000390729
0.000389032
0.000387375
0.000385758
0.00038418
0.000382641
0.00038114
0.000379678
0.000378254
0.000376869
0.000375524
0.00037422
0.000372959
0.000371742
0.000370573
0.000369454
0.000368387
0.000367378
0.000366429
0.000365547
0.000364735
0.000363999
0.000363346
0.000362782
0.000362314
0.000361948
0.000361692
0.000361552
0.000361532
0.000361638
0.000361868
0.000362218
0.000362677
0.000363222
0.000363813
0.000364393
0.000364874
0.000365136
0.000977119
0.000936711
0.000899657
0.000865637
0.000834363
0.000805578
0.000779049
0.000754567
0.000731945
0.000711014
0.000691622
0.000673632
0.000656919
0.000641373
0.000626894
0.000613389
0.000600777
0.000588983
0.00057794
0.000567588
0.000557869
0.000548735
0.000540139
0.00053204
0.0005244
0.000517184
0.000510361
0.000503902
0.00049778
0.000491972
0.000486455
0.000481209
0.000476215
0.000471457
0.000466918
0.000462584
0.000458441
0.000454477
0.000450681
0.000447041
0.000443549
0.000440195
0.00043697
0.000433868
0.000430879
0.000427998
0.000425219
0.000422535
0.00041994
0.000417431
0.000415002
0.000412648
0.000410365
0.00040815
0.000405999
0.000403909
0.000401876
0.000399898
0.000397972
0.000396095
0.000394266
0.000392483
0.000390743
0.000389046
0.000387389
0.000385773
0.000384196
0.000382657
0.000381157
0.000379694
0.000378271
0.000376886
0.000375541
0.000374238
0.000372977
0.000371761
0.000370591
0.000369472
0.000368405
0.000367396
0.000366447
0.000365564
0.000364751
0.000364015
0.000363361
0.000362796
0.000362327
0.00036196
0.000361702
0.000361561
0.00036154
0.000361643
0.000361871
0.00036222
0.000362677
0.000363219
0.000363809
0.000364388
0.000364868
0.000365129
0.000977119
0.000936711
0.000899657
0.000865637
0.000834363
0.000805578
0.000779049
0.000754567
0.000731945
0.000711015
0.000691623
0.000673632
0.00065692
0.000641374
0.000626894
0.00061339
0.000600778
0.000588984
0.000577942
0.000567589
0.000557871
0.000548737
0.000540141
0.000532042
0.000524402
0.000517187
0.000510364
0.000503905
0.000497783
0.000491975
0.000486459
0.000481213
0.000476219
0.000471461
0.000466922
0.000462588
0.000458446
0.000454482
0.000450686
0.000447047
0.000443555
0.000440201
0.000436977
0.000433875
0.000430886
0.000428006
0.000425227
0.000422543
0.000419949
0.00041744
0.000415011
0.000412657
0.000410375
0.000408161
0.00040601
0.00040392
0.000401888
0.00039991
0.000397984
0.000396108
0.00039428
0.000392497
0.000390758
0.000389061
0.000387405
0.000385789
0.000384212
0.000382674
0.000381174
0.000379712
0.000378289
0.000376905
0.00037556
0.000374257
0.000372996
0.00037178
0.000370611
0.000369492
0.000368425
0.000367415
0.000366466
0.000365582
0.000364769
0.000364032
0.000363378
0.000362812
0.000362341
0.000361973
0.000361714
0.00036157
0.000361547
0.000361649
0.000361875
0.000362222
0.000362676
0.000363217
0.000363805
0.000364382
0.000364861
0.000365122
0.000977119
0.000936711
0.000899657
0.000865637
0.000834363
0.000805578
0.000779049
0.000754567
0.000731946
0.000711015
0.000691623
0.000673633
0.00065692
0.000641375
0.000626895
0.000613391
0.000600779
0.000588985
0.000577943
0.000567591
0.000557872
0.000548739
0.000540143
0.000532045
0.000524405
0.000517189
0.000510367
0.000503908
0.000497787
0.000491979
0.000486462
0.000481217
0.000476223
0.000471465
0.000466927
0.000462593
0.000458451
0.000454487
0.000450692
0.000447053
0.000443561
0.000440208
0.000436984
0.000433882
0.000430894
0.000428014
0.000425235
0.000422552
0.000419958
0.00041745
0.000415021
0.000412668
0.000410386
0.000408172
0.000406022
0.000403933
0.000401901
0.000399924
0.000397998
0.000396123
0.000394295
0.000392512
0.000390774
0.000389077
0.000387422
0.000385807
0.00038423
0.000382693
0.000381193
0.000379732
0.000378309
0.000376925
0.000375581
0.000374278
0.000373017
0.000371801
0.000370632
0.000369513
0.000368446
0.000367436
0.000366487
0.000365603
0.000364789
0.000364051
0.000363395
0.000362828
0.000362356
0.000361987
0.000361726
0.000361581
0.000361556
0.000361655
0.000361879
0.000362223
0.000362676
0.000363214
0.000363801
0.000364376
0.000364853
0.000365114
0.000977119
0.000936711
0.000899657
0.000865637
0.000834363
0.000805578
0.000779049
0.000754568
0.000731946
0.000711015
0.000691624
0.000673633
0.000656921
0.000641376
0.000626896
0.000613392
0.00060078
0.000588987
0.000577944
0.000567592
0.000557874
0.000548741
0.000540145
0.000532047
0.000524407
0.000517192
0.000510369
0.000503911
0.00049779
0.000491982
0.000486466
0.000481221
0.000476228
0.00047147
0.000466932
0.000462598
0.000458456
0.000454493
0.000450698
0.000447059
0.000443568
0.000440215
0.000436992
0.00043389
0.000430902
0.000428023
0.000425244
0.000422561
0.000419968
0.00041746
0.000415032
0.000412679
0.000410398
0.000408184
0.000406035
0.000403946
0.000401914
0.000399938
0.000398013
0.000396138
0.000394311
0.000392529
0.000390791
0.000389095
0.00038744
0.000385825
0.000384249
0.000382712
0.000381213
0.000379752
0.00037833
0.000376946
0.000375602
0.0003743
0.000373039
0.000371824
0.000370655
0.000369535
0.000368469
0.000367458
0.000366509
0.000365624
0.00036481
0.000364071
0.000363414
0.000362846
0.000362373
0.000362002
0.000361739
0.000361592
0.000361565
0.000361662
0.000361884
0.000362225
0.000362675
0.000363212
0.000363796
0.00036437
0.000364846
0.000365105
0.000977119
0.000936711
0.000899657
0.000865637
0.000834364
0.000805578
0.000779049
0.000754568
0.000731947
0.000711016
0.000691624
0.000673634
0.000656922
0.000641377
0.000626897
0.000613393
0.000600781
0.000588988
0.000577946
0.000567594
0.000557876
0.000548743
0.000540147
0.000532049
0.00052441
0.000517195
0.000510372
0.000503914
0.000497793
0.000491986
0.00048647
0.000481225
0.000476232
0.000471475
0.000466937
0.000462604
0.000458462
0.000454499
0.000450704
0.000447066
0.000443575
0.000440223
0.000436999
0.000433898
0.000430911
0.000428032
0.000425254
0.000422571
0.000419979
0.000417471
0.000415043
0.000412691
0.00041041
0.000408197
0.000406048
0.00040396
0.000401929
0.000399953
0.000398029
0.000396154
0.000394327
0.000392546
0.000390808
0.000389113
0.000387459
0.000385845
0.000384269
0.000382733
0.000381234
0.000379774
0.000378352
0.000376969
0.000375625
0.000374323
0.000373063
0.000371847
0.000370679
0.000369559
0.000368492
0.000367482
0.000366532
0.000365647
0.000364831
0.000364092
0.000363434
0.000362865
0.00036239
0.000362017
0.000361753
0.000361604
0.000361575
0.000361669
0.000361888
0.000362228
0.000362675
0.000363209
0.000363791
0.000364363
0.000364837
0.000365096
0.000977119
0.000936711
0.000899657
0.000865637
0.000834364
0.000805579
0.00077905
0.000754568
0.000731947
0.000711016
0.000691625
0.000673635
0.000656923
0.000641377
0.000626898
0.000613394
0.000600782
0.000588989
0.000577947
0.000567595
0.000557878
0.000548745
0.00054015
0.000532052
0.000524412
0.000517198
0.000510376
0.000503917
0.000497797
0.00049199
0.000486474
0.000481229
0.000476237
0.00047148
0.000466942
0.000462609
0.000458468
0.000454505
0.000450711
0.000447073
0.000443583
0.00044023
0.000437008
0.000433906
0.00043092
0.000428041
0.000425264
0.000422582
0.000419989
0.000417482
0.000415055
0.000412703
0.000410423
0.000408211
0.000406062
0.000403974
0.000401944
0.000399968
0.000398045
0.000396171
0.000394345
0.000392564
0.000390827
0.000389132
0.000387479
0.000385865
0.00038429
0.000382754
0.000381256
0.000379796
0.000378375
0.000376992
0.000375649
0.000374347
0.000373088
0.000371872
0.000370703
0.000369584
0.000368517
0.000367506
0.000366556
0.00036567
0.000364854
0.000364114
0.000363455
0.000362885
0.000362408
0.000362034
0.000361767
0.000361616
0.000361585
0.000361677
0.000361893
0.00036223
0.000362675
0.000363206
0.000363786
0.000364355
0.000364829
0.000365087
0.000977119
0.000936711
0.000899657
0.000865637
0.000834364
0.000805579
0.00077905
0.000754569
0.000731947
0.000711017
0.000691625
0.000673635
0.000656923
0.000641378
0.000626899
0.000613395
0.000600784
0.000588991
0.000577949
0.000567597
0.00055788
0.000548747
0.000540152
0.000532054
0.000524415
0.000517201
0.000510379
0.000503921
0.000497801
0.000491994
0.000486478
0.000481234
0.000476242
0.000471485
0.000466947
0.000462615
0.000458474
0.000454512
0.000450718
0.00044708
0.00044359
0.000440238
0.000437016
0.000433915
0.000430929
0.000428051
0.000425274
0.000422592
0.000420001
0.000417494
0.000415067
0.000412716
0.000410436
0.000408224
0.000406077
0.000403989
0.000401959
0.000399985
0.000398062
0.000396188
0.000394363
0.000392583
0.000390846
0.000389152
0.000387499
0.000385886
0.000384312
0.000382777
0.000381279
0.00037982
0.000378399
0.000377017
0.000375674
0.000374372
0.000373113
0.000371898
0.000370729
0.00036961
0.000368543
0.000367532
0.000366581
0.000365695
0.000364878
0.000364137
0.000363477
0.000362905
0.000362427
0.000362051
0.000361783
0.000361629
0.000361595
0.000361685
0.000361899
0.000362232
0.000362674
0.000363203
0.00036378
0.000364348
0.00036482
0.000365078
0.000977119
0.000936711
0.000899657
0.000865637
0.000834364
0.000805579
0.00077905
0.000754569
0.000731948
0.000711017
0.000691626
0.000673636
0.000656924
0.000641379
0.0006269
0.000613396
0.000600785
0.000588992
0.000577951
0.000567599
0.000557882
0.000548749
0.000540154
0.000532057
0.000524418
0.000517204
0.000510382
0.000503924
0.000497804
0.000491998
0.000486483
0.000481238
0.000476247
0.00047149
0.000466953
0.000462621
0.00045848
0.000454519
0.000450725
0.000447088
0.000443598
0.000440247
0.000437025
0.000433925
0.000430939
0.000428061
0.000425284
0.000422603
0.000420012
0.000417506
0.00041508
0.000412729
0.00041045
0.000408239
0.000406091
0.000404005
0.000401976
0.000400001
0.000398079
0.000396206
0.000394381
0.000392602
0.000390866
0.000389173
0.000387521
0.000385908
0.000384335
0.0003828
0.000381303
0.000379844
0.000378424
0.000377042
0.0003757
0.000374399
0.000373139
0.000371924
0.000370756
0.000369637
0.000368569
0.000367558
0.000366607
0.00036572
0.000364903
0.000364161
0.0003635
0.000362926
0.000362447
0.000362069
0.000361798
0.000361642
0.000361606
0.000361693
0.000361904
0.000362235
0.000362674
0.0003632
0.000363775
0.00036434
0.000364811
0.000365068
0.000977119
0.000936711
0.000899657
0.000865637
0.000834364
0.000805579
0.00077905
0.000754569
0.000731948
0.000711018
0.000691626
0.000673636
0.000656925
0.00064138
0.000626901
0.000613397
0.000600786
0.000588994
0.000577952
0.000567601
0.000557884
0.000548751
0.000540157
0.000532059
0.000524421
0.000517207
0.000510385
0.000503928
0.000497808
0.000492002
0.000486487
0.000481243
0.000476252
0.000471496
0.000466959
0.000462627
0.000458487
0.000454526
0.000450732
0.000447095
0.000443606
0.000440255
0.000437034
0.000433934
0.000430949
0.000428071
0.000425295
0.000422615
0.000420024
0.000417518
0.000415093
0.000412743
0.000410464
0.000408253
0.000406107
0.000404021
0.000401992
0.000400018
0.000398097
0.000396225
0.000394401
0.000392622
0.000390887
0.000389194
0.000387542
0.000385931
0.000384358
0.000382824
0.000381327
0.000379869
0.000378449
0.000377068
0.000375726
0.000374425
0.000373167
0.000371952
0.000370783
0.000369664
0.000368597
0.000367585
0.000366634
0.000365746
0.000364928
0.000364185
0.000363523
0.000362948
0.000362467
0.000362087
0.000361815
0.000361656
0.000361617
0.000361702
0.00036191
0.000362238
0.000362674
0.000363197
0.000363769
0.000364333
0.000364801
0.000365058
0.000977119
0.000936711
0.000899657
0.000865637
0.000834364
0.000805579
0.000779051
0.00075457
0.000731948
0.000711018
0.000691627
0.000673637
0.000656926
0.000641381
0.000626902
0.000613398
0.000600788
0.000588995
0.000577954
0.000567603
0.000557886
0.000548753
0.000540159
0.000532062
0.000524424
0.00051721
0.000510389
0.000503932
0.000497812
0.000492006
0.000486492
0.000481248
0.000476257
0.000471501
0.000466965
0.000462633
0.000458493
0.000454532
0.000450739
0.000447103
0.000443614
0.000440264
0.000437043
0.000433943
0.000430959
0.000428082
0.000425306
0.000422626
0.000420036
0.000417531
0.000415106
0.000412757
0.000410479
0.000408268
0.000406122
0.000404037
0.000402009
0.000400036
0.000398115
0.000396244
0.00039442
0.000392642
0.000390908
0.000389216
0.000387565
0.000385954
0.000384381
0.000382848
0.000381352
0.000379895
0.000378475
0.000377095
0.000375753
0.000374453
0.000373194
0.00037198
0.000370812
0.000369692
0.000368625
0.000367613
0.000366661
0.000365773
0.000364954
0.00036421
0.000363547
0.00036297
0.000362488
0.000362106
0.000361831
0.00036167
0.000361629
0.00036171
0.000361916
0.00036224
0.000362674
0.000363194
0.000363763
0.000364325
0.000364792
0.000365048
0.000977119
0.000936711
0.000899657
0.000865637
0.000834364
0.000805579
0.000779051
0.00075457
0.000731949
0.000711019
0.000691627
0.000673638
0.000656926
0.000641382
0.000626903
0.0006134
0.000600789
0.000588997
0.000577955
0.000567604
0.000557888
0.000548755
0.000540162
0.000532065
0.000524427
0.000517213
0.000510392
0.000503935
0.000497816
0.00049201
0.000486496
0.000481253
0.000476262
0.000471507
0.000466971
0.000462639
0.0004585
0.00045454
0.000450747
0.000447111
0.000443623
0.000440272
0.000437052
0.000433953
0.000430969
0.000428092
0.000425317
0.000422638
0.000420048
0.000417544
0.000415119
0.000412771
0.000410493
0.000408284
0.000406138
0.000404053
0.000402026
0.000400054
0.000398134
0.000396263
0.00039444
0.000392663
0.000390929
0.000389238
0.000387587
0.000385977
0.000384405
0.000382872
0.000381378
0.000379921
0.000378502
0.000377121
0.000375781
0.000374481
0.000373222
0.000372008
0.00037084
0.000369721
0.000368653
0.000367641
0.000366689
0.0003658
0.000364981
0.000364236
0.000363571
0.000362993
0.000362509
0.000362125
0.000361848
0.000361685
0.000361641
0.000361719
0.000361922
0.000362243
0.000362674
0.00036319
0.000363757
0.000364317
0.000364782
0.000365037
0.000977119
0.000936711
0.000899657
0.000865638
0.000834364
0.00080558
0.000779051
0.00075457
0.000731949
0.000711019
0.000691628
0.000673638
0.000656927
0.000641383
0.000626904
0.000613401
0.00060079
0.000588998
0.000577957
0.000567606
0.00055789
0.000548758
0.000540164
0.000532067
0.00052443
0.000517216
0.000510396
0.000503939
0.00049782
0.000492015
0.000486501
0.000481258
0.000476267
0.000471512
0.000466977
0.000462646
0.000458507
0.000454547
0.000450754
0.000447119
0.000443631
0.000440281
0.000437061
0.000433963
0.000430979
0.000428103
0.000425329
0.00042265
0.000420061
0.000417557
0.000415133
0.000412785
0.000410508
0.000408299
0.000406154
0.00040407
0.000402044
0.000400072
0.000398152
0.000396282
0.00039446
0.000392683
0.000390951
0.00038926
0.00038761
0.000386001
0.00038443
0.000382897
0.000381403
0.000379947
0.000378528
0.000377149
0.000375809
0.000374509
0.000373251
0.000372037
0.000370869
0.00036975
0.000368682
0.00036767
0.000366717
0.000365828
0.000365008
0.000364262
0.000363596
0.000363016
0.00036253
0.000362144
0.000361865
0.0003617
0.000361653
0.000361729
0.000361928
0.000362246
0.000362673
0.000363187
0.000363752
0.000364309
0.000364773
0.000365027
0.000977119
0.000936711
0.000899657
0.000865638
0.000834364
0.00080558
0.000779051
0.00075457
0.000731949
0.000711019
0.000691628
0.000673639
0.000656928
0.000641383
0.000626905
0.000613402
0.000600791
0.000588999
0.000577959
0.000567608
0.000557892
0.00054876
0.000540166
0.00053207
0.000524432
0.000517219
0.000510399
0.000503943
0.000497824
0.000492019
0.000486505
0.000481263
0.000476273
0.000471518
0.000466982
0.000462652
0.000458513
0.000454554
0.000450762
0.000447127
0.000443639
0.00044029
0.00043707
0.000433973
0.00043099
0.000428114
0.00042534
0.000422662
0.000420073
0.00041757
0.000415146
0.000412799
0.000410523
0.000408315
0.00040617
0.000404087
0.000402061
0.00040009
0.000398171
0.000396302
0.00039448
0.000392704
0.000390972
0.000389282
0.000387633
0.000386024
0.000384454
0.000382923
0.000381429
0.000379973
0.000378555
0.000377176
0.000375837
0.000374537
0.00037328
0.000372066
0.000370898
0.000369779
0.000368711
0.000367699
0.000366745
0.000365856
0.000365035
0.000364288
0.000363621
0.00036304
0.000362552
0.000362164
0.000361883
0.000361715
0.000361665
0.000361738
0.000361934
0.00036225
0.000362674
0.000363184
0.000363746
0.000364301
0.000364763
0.000365017
0.000977119
0.000936711
0.000899657
0.000865638
0.000834365
0.00080558
0.000779051
0.000754571
0.00073195
0.00071102
0.000691629
0.00067364
0.000656929
0.000641384
0.000626906
0.000613403
0.000600793
0.000589001
0.00057796
0.00056761
0.000557894
0.000548762
0.000540169
0.000532073
0.000524435
0.000517222
0.000510402
0.000503946
0.000497828
0.000492023
0.00048651
0.000481268
0.000476278
0.000471523
0.000466988
0.000462658
0.00045852
0.000454561
0.000450769
0.000447135
0.000443648
0.000440299
0.00043708
0.000433983
0.000431
0.000428125
0.000425351
0.000422674
0.000420086
0.000417583
0.00041516
0.000412813
0.000410538
0.00040833
0.000406186
0.000404104
0.000402078
0.000400108
0.00039819
0.000396321
0.000394501
0.000392725
0.000390994
0.000389305
0.000387657
0.000386048
0.000384479
0.000382948
0.000381455
0.00038
0.000378583
0.000377204
0.000375865
0.000374566
0.000373309
0.000372095
0.000370927
0.000369808
0.00036874
0.000367728
0.000366774
0.000365884
0.000365062
0.000364314
0.000363646
0.000363063
0.000362574
0.000362184
0.000361901
0.00036173
0.000361678
0.000361748
0.000361941
0.000362253
0.000362674
0.000363182
0.00036374
0.000364293
0.000364753
0.000365006
0.000977119
0.000936711
0.000899657
0.000865638
0.000834365
0.00080558
0.000779052
0.000754571
0.00073195
0.00071102
0.000691629
0.00067364
0.000656929
0.000641385
0.000626907
0.000613404
0.000600794
0.000589002
0.000577962
0.000567611
0.000557896
0.000548764
0.000540171
0.000532075
0.000524438
0.000517225
0.000510406
0.00050395
0.000497832
0.000492027
0.000486514
0.000481272
0.000476283
0.000471529
0.000466994
0.000462665
0.000458527
0.000454568
0.000450777
0.000447143
0.000443656
0.000440308
0.000437089
0.000433992
0.00043101
0.000428136
0.000425363
0.000422685
0.000420098
0.000417596
0.000415174
0.000412827
0.000410553
0.000408346
0.000406203
0.00040412
0.000402096
0.000400126
0.000398209
0.000396341
0.000394521
0.000392746
0.000391016
0.000389327
0.00038768
0.000386072
0.000384503
0.000382973
0.000381481
0.000380026
0.00037861
0.000377232
0.000375893
0.000374594
0.000373337
0.000372124
0.000370957
0.000369838
0.00036877
0.000367757
0.000366803
0.000365912
0.000365089
0.00036434
0.000363671
0.000363087
0.000362596
0.000362204
0.000361918
0.000361745
0.00036169
0.000361757
0.000361947
0.000362256
0.000362674
0.000363179
0.000363735
0.000364285
0.000364744
0.000364996
0.000977119
0.000936711
0.000899657
0.000865638
0.000834365
0.00080558
0.000779052
0.000754571
0.00073195
0.000711021
0.00069163
0.000673641
0.00065693
0.000641386
0.000626908
0.000613405
0.000600795
0.000589004
0.000577963
0.000567613
0.000557898
0.000548766
0.000540174
0.000532078
0.000524441
0.000517228
0.000510409
0.000503954
0.000497836
0.000492032
0.000486519
0.000481277
0.000476288
0.000471534
0.000467
0.000462671
0.000458533
0.000454575
0.000450784
0.000447151
0.000443665
0.000440317
0.000437098
0.000434002
0.00043102
0.000428146
0.000425374
0.000422697
0.000420111
0.000417609
0.000415187
0.000412842
0.000410567
0.000408361
0.000406219
0.000404137
0.000402113
0.000400144
0.000398228
0.000396361
0.000394541
0.000392767
0.000391037
0.00038935
0.000387703
0.000386096
0.000384528