/*--------------------------------*- C++ -*----------------------------------*\
  =========                 |
  \\      /  F ield         | OpenFOAM: The Open Source CFD Toolbox
   \\    /   O peration     | Website:  https://openfoam.org
    \\  /    A nd           | Version:  11
     \\/     M anipulation  |
\*---------------------------------------------------------------------------*/
FoamFile
{
    format      ascii;
    class       volScalarField;
    location    "684";
    object      omega;
}
// * * * * * * * * * * * * * * * * * * * * * * * * * * * * * * * * * * * * * //

dimensions      [0 0 -1 0 0 0 0];

internalField   nonuniform List<scalar> 
10000
(
0.961692
0.892185
0.829085
0.771728
0.719523
0.671944
0.628523
0.588843
0.552532
0.519258
0.488724
0.460667
0.43485
0.411061
0.38911
0.368828
0.350063
0.332676
0.316547
0.301564
0.287627
0.274646
0.262542
0.25124
0.240674
0.230785
0.221518
0.212824
0.204658
0.19698
0.189752
0.182941
0.176517
0.17045
0.164716
0.159291
0.154153
0.149282
0.144661
0.140273
0.136101
0.132134
0.128356
0.124756
0.121324
0.118048
0.114919
0.111929
0.109069
0.106332
0.10371
0.101197
0.0987867
0.0964737
0.0942524
0.092118
0.0900657
0.0880912
0.0861905
0.0843598
0.0825954
0.080894
0.0792524
0.0776677
0.0761371
0.0746579
0.0732277
0.0718441
0.0705048
0.0692078
0.0679512
0.0667329
0.0655512
0.0644045
0.063291
0.0622093
0.0611579
0.0601354
0.0591405
0.0581719
0.0572285
0.056309
0.0554126
0.0545383
0.0536852
0.0528526
0.05204
0.0512472
0.050474
0.049721
0.048989
0.0482799
0.0475965
0.0469431
0.0463264
0.0457555
0.045244
0.0448109
0.0444829
0.0442963
0.961692
0.892185
0.829085
0.771728
0.719523
0.671944
0.628523
0.588843
0.552532
0.519258
0.488724
0.460667
0.43485
0.411061
0.38911
0.368828
0.350063
0.332676
0.316547
0.301564
0.287627
0.274646
0.262542
0.25124
0.240674
0.230785
0.221518
0.212824
0.204658
0.19698
0.189752
0.182941
0.176517
0.17045
0.164716
0.159291
0.154153
0.149282
0.144661
0.140273
0.136102
0.132134
0.128356
0.124756
0.121324
0.118048
0.11492
0.111929
0.109069
0.106332
0.10371
0.101197
0.0987869
0.0964738
0.0942526
0.0921182
0.0900659
0.0880915
0.0861908
0.08436
0.0825956
0.0808942
0.0792527
0.077668
0.0761374
0.0746582
0.073228
0.0718444
0.0705051
0.0692082
0.0679515
0.0667332
0.0655516
0.0644048
0.0632914
0.0622097
0.0611583
0.0601358
0.0591409
0.0581724
0.0572289
0.0563095
0.0554131
0.0545388
0.0536857
0.0528532
0.0520406
0.0512478
0.0504746
0.0497216
0.0489896
0.0482805
0.0475971
0.0469438
0.046327
0.0457562
0.0452447
0.0448116
0.0444835
0.044297
0.961692
0.892185
0.829085
0.771728
0.719523
0.671944
0.628523
0.588843
0.552532
0.519258
0.488724
0.460667
0.43485
0.411061
0.38911
0.368828
0.350063
0.332677
0.316547
0.301564
0.287627
0.274646
0.262542
0.25124
0.240674
0.230785
0.221518
0.212824
0.204658
0.19698
0.189752
0.182942
0.176517
0.17045
0.164716
0.159291
0.154153
0.149282
0.144661
0.140273
0.136102
0.132134
0.128356
0.124757
0.121324
0.118048
0.11492
0.11193
0.10907
0.106332
0.10371
0.101197
0.0987872
0.0964742
0.0942529
0.0921185
0.0900663
0.0880919
0.0861912
0.0843605
0.0825961
0.0808947
0.0792532
0.0776685
0.0761379
0.0746588
0.0732286
0.071845
0.0705057
0.0692088
0.0679522
0.0667339
0.0655523
0.0644056
0.0632922
0.0622105
0.0611591
0.0601367
0.0591418
0.0581733
0.0572299
0.0563105
0.0554141
0.0545399
0.0536868
0.0528543
0.0520417
0.0512489
0.0504758
0.0497228
0.0489909
0.0482818
0.0475984
0.0469451
0.0463283
0.0457575
0.045246
0.0448129
0.0444849
0.0442983
0.961692
0.892185
0.829085
0.771728
0.719523
0.671944
0.628523
0.588843
0.552532
0.519258
0.488724
0.460667
0.43485
0.411061
0.38911
0.368828
0.350063
0.332677
0.316547
0.301564
0.287627
0.274647
0.262542
0.25124
0.240674
0.230785
0.221518
0.212824
0.204658
0.19698
0.189752
0.182942
0.176517
0.170451
0.164716
0.159291
0.154153
0.149283
0.144661
0.140273
0.136102
0.132134
0.128357
0.124757
0.121325
0.118049
0.11492
0.11193
0.10907
0.106333
0.103711
0.101198
0.0987877
0.0964747
0.0942535
0.0921191
0.0900669
0.0880925
0.0861918
0.0843611
0.0825968
0.0808954
0.0792539
0.0776693
0.0761387
0.0746596
0.0732294
0.0718458
0.0705067
0.0692097
0.0679531
0.0667349
0.0655533
0.0644067
0.0632933
0.0622117
0.0611603
0.0601379
0.0591431
0.0581746
0.0572312
0.0563119
0.0554156
0.0545414
0.0536884
0.0528559
0.0520434
0.0512506
0.0504776
0.0497246
0.0489927
0.0482837
0.0476003
0.046947
0.0463303
0.0457595
0.045248
0.0448149
0.0444868
0.0443003
0.961692
0.892185
0.829085
0.771728
0.719523
0.671944
0.628523
0.588843
0.552532
0.519258
0.488724
0.460667
0.43485
0.411061
0.38911
0.368828
0.350063
0.332677
0.316547
0.301564
0.287627
0.274647
0.262542
0.25124
0.240674
0.230785
0.221518
0.212824
0.204658
0.19698
0.189753
0.182942
0.176517
0.170451
0.164717
0.159291
0.154153
0.149283
0.144662
0.140273
0.136102
0.132135
0.128357
0.124757
0.121325
0.118049
0.114921
0.111931
0.109071
0.106333
0.103711
0.101198
0.0987883
0.0964754
0.0942542
0.0921198
0.0900676
0.0880933
0.0861926
0.084362
0.0825977
0.0808963
0.0792549
0.0776703
0.0761397
0.0746606
0.0732305
0.071847
0.0705078
0.069211
0.0679544
0.0667362
0.0655547
0.0644081
0.0632947
0.0622132
0.0611619
0.0601395
0.0591448
0.0581763
0.057233
0.0563138
0.0554175
0.0545433
0.0536904
0.052858
0.0520456
0.0512529
0.0504798
0.0497269
0.0489951
0.0482861
0.0476028
0.0469496
0.0463328
0.045762
0.0452506
0.0448174
0.0444893
0.0443028
0.961692
0.892185
0.829085
0.771728
0.719523
0.671944
0.628523
0.588843
0.552532
0.519258
0.488725
0.460667
0.43485
0.411061
0.38911
0.368828
0.350063
0.332677
0.316547
0.301564
0.287627
0.274647
0.262542
0.25124
0.240674
0.230785
0.221518
0.212824
0.204658
0.19698
0.189753
0.182942
0.176518
0.170451
0.164717
0.159292
0.154154
0.149283
0.144662
0.140274
0.136103
0.132135
0.128357
0.124758
0.121326
0.11805
0.114921
0.111931
0.109071
0.106334
0.103712
0.101199
0.0987891
0.0964762
0.0942551
0.0921207
0.0900686
0.0880942
0.0861937
0.084363
0.0825987
0.0808975
0.079256
0.0776715
0.076141
0.074662
0.0732319
0.0718484
0.0705093
0.0692125
0.067956
0.0667379
0.0655564
0.0644098
0.0632965
0.062215
0.0611638
0.0601415
0.0591468
0.0581784
0.0572352
0.056316
0.0554199
0.0545458
0.0536929
0.0528605
0.0520482
0.0512556
0.0504826
0.0497298
0.048998
0.0482891
0.0476058
0.0469526
0.0463359
0.0457651
0.0452537
0.0448206
0.0444925
0.0443059
0.961692
0.892185
0.829085
0.771728
0.719523
0.671944
0.628523
0.588843
0.552532
0.519258
0.488725
0.460668
0.43485
0.411061
0.38911
0.368828
0.350063
0.332677
0.316547
0.301564
0.287627
0.274647
0.262542
0.25124
0.240675
0.230785
0.221518
0.212824
0.204659
0.196981
0.189753
0.182942
0.176518
0.170452
0.164717
0.159292
0.154154
0.149284
0.144663
0.140274
0.136103
0.132136
0.128358
0.124759
0.121326
0.11805
0.114922
0.111932
0.109072
0.106335
0.103713
0.1012
0.0987901
0.0964772
0.0942561
0.0921218
0.0900697
0.0880954
0.0861948
0.0843642
0.0826
0.0808988
0.0792574
0.0776729
0.0761425
0.0746635
0.0732335
0.07185
0.070511
0.0692142
0.0679578
0.0667397
0.0655583
0.0644118
0.0632986
0.0622172
0.0611661
0.0601438
0.0591492
0.0581809
0.0572378
0.0563187
0.0554226
0.0545486
0.0536958
0.0528635
0.0520513
0.0512588
0.0504859
0.0497331
0.0490015
0.0482926
0.0476094
0.0469562
0.0463396
0.0457688
0.0452573
0.0448242
0.0444961
0.0443095
0.961692
0.892185
0.829085
0.771728
0.719523
0.671944
0.628523
0.588843
0.552532
0.519258
0.488725
0.460668
0.43485
0.411061
0.38911
0.368829
0.350063
0.332677
0.316548
0.301564
0.287627
0.274647
0.262543
0.25124
0.240675
0.230786
0.221519
0.212825
0.204659
0.196981
0.189753
0.182943
0.176518
0.170452
0.164718
0.159293
0.154155
0.149284
0.144663
0.140275
0.136104
0.132136
0.128359
0.124759
0.121327
0.118051
0.114923
0.111933
0.109073
0.106336
0.103714
0.101201
0.0987911
0.0964783
0.0942572
0.092123
0.0900709
0.0880967
0.0861962
0.0843656
0.0826015
0.0809003
0.079259
0.0776745
0.0761441
0.0746652
0.0732352
0.0718519
0.0705129
0.0692162
0.0679599
0.0667419
0.0655605
0.0644141
0.063301
0.0622196
0.0611686
0.0601465
0.0591519
0.0581837
0.0572407
0.0563217
0.0554257
0.0545518
0.0536991
0.052867
0.0520548
0.0512624
0.0504896
0.0497369
0.0490053
0.0482965
0.0476134
0.0469603
0.0463437
0.0457729
0.0452615
0.0448284
0.0445003
0.0443137
0.961692
0.892185
0.829085
0.771728
0.719523
0.671944
0.628523
0.588843
0.552532
0.519258
0.488725
0.460668
0.43485
0.411061
0.389111
0.368829
0.350063
0.332677
0.316548
0.301564
0.287627
0.274647
0.262543
0.251241
0.240675
0.230786
0.221519
0.212825
0.204659
0.196981
0.189754
0.182943
0.176519
0.170452
0.164718
0.159293
0.154155
0.149285
0.144664
0.140276
0.136105
0.132137
0.128359
0.12476
0.121328
0.118052
0.114924
0.111934
0.109074
0.106337
0.103715
0.101202
0.0987923
0.0964795
0.0942585
0.0921243
0.0900723
0.0880981
0.0861977
0.0843672
0.0826031
0.080902
0.0792607
0.0776763
0.076146
0.0746671
0.0732372
0.071854
0.0705151
0.0692185
0.0679622
0.0667443
0.065563
0.0644167
0.0633036
0.0622224
0.0611714
0.0601494
0.059155
0.0581869
0.0572439
0.056325
0.0554291
0.0545553
0.0537028
0.0528707
0.0520587
0.0512664
0.0504937
0.0497412
0.0490096
0.0483009
0.0476179
0.0469648
0.0463483
0.0457776
0.0452662
0.044833
0.0445049
0.0443183
0.961692
0.892185
0.829085
0.771728
0.719523
0.671944
0.628523
0.588843
0.552532
0.519258
0.488725
0.460668
0.43485
0.411061
0.389111
0.368829
0.350063
0.332677
0.316548
0.301565
0.287628
0.274647
0.262543
0.251241
0.240675
0.230786
0.221519
0.212825
0.20466
0.196982
0.189754
0.182944
0.176519
0.170453
0.164719
0.159294
0.154156
0.149285
0.144665
0.140276
0.136105
0.132138
0.12836
0.124761
0.121329
0.118053
0.114925
0.111935
0.109075
0.106338
0.103716
0.101203
0.0987936
0.0964808
0.0942599
0.0921257
0.0900738
0.0880996
0.0861993
0.0843689
0.0826048
0.0809038
0.0792626
0.0776783
0.076148
0.0746692
0.0732394
0.0718562
0.0705174
0.0692209
0.0679647
0.0667469
0.0655657
0.0644194
0.0633065
0.0622253
0.0611745
0.0601526
0.0591582
0.0581903
0.0572474
0.0563287
0.0554329
0.0545592
0.0537068
0.0528749
0.0520629
0.0512707
0.0504982
0.0497457
0.0490143
0.0483057
0.0476228
0.0469698
0.0463533
0.0457826
0.0452712
0.0448381
0.04451
0.0443233
0.961692
0.892185
0.829085
0.771728
0.719523
0.671944
0.628523
0.588843
0.552532
0.519258
0.488725
0.460668
0.43485
0.411061
0.389111
0.368829
0.350063
0.332677
0.316548
0.301565
0.287628
0.274648
0.262543
0.251241
0.240676
0.230786
0.22152
0.212826
0.20466
0.196982
0.189755
0.182944
0.17652
0.170453
0.164719
0.159294
0.154156
0.149286
0.144665
0.140277
0.136106
0.132139
0.128361
0.124762
0.12133
0.118054
0.114926
0.111936
0.109076
0.106339
0.103717
0.101205
0.0987949
0.0964822
0.0942613
0.0921273
0.0900754
0.0881013
0.086201
0.0843707
0.0826067
0.0809057
0.0792646
0.0776804
0.0761502
0.0746715
0.0732418
0.0718586
0.0705199
0.0692235
0.0679673
0.0667496
0.0655686
0.0644224
0.0633096
0.0622285
0.0611778
0.060156
0.0591618
0.0581939
0.0572512
0.0563326
0.0554369
0.0545634
0.0537111
0.0528793
0.0520675
0.0512754
0.050503
0.0497507
0.0490194
0.0483109
0.047628
0.0469751
0.0463587
0.045788
0.0452767
0.0448436
0.0445154
0.0443288
0.961692
0.892185
0.829085
0.771728
0.719523
0.671944
0.628523
0.588843
0.552532
0.519258
0.488725
0.460668
0.43485
0.411061
0.389111
0.368829
0.350063
0.332677
0.316548
0.301565
0.287628
0.274648
0.262543
0.251241
0.240676
0.230787
0.22152
0.212826
0.20466
0.196982
0.189755
0.182945
0.17652
0.170454
0.16472
0.159295
0.154157
0.149287
0.144666
0.140278
0.136107
0.132139
0.128362
0.124763
0.121331
0.118055
0.114927
0.111937
0.109077
0.10634
0.103719
0.101206
0.0987964
0.0964837
0.0942629
0.0921289
0.0900771
0.0881031
0.0862029
0.0843726
0.0826087
0.0809078
0.0792667
0.0776826
0.0761525
0.0746739
0.0732442
0.0718612
0.0705226
0.0692262
0.0679702
0.0667526
0.0655716
0.0644256
0.0633129
0.0622319
0.0611813
0.0601596
0.0591655
0.0581978
0.0572552
0.0563367
0.0554412
0.0545678
0.0537156
0.052884
0.0520723
0.0512804
0.0505081
0.0497559
0.0490248
0.0483164
0.0476336
0.0469808
0.0463644
0.0457938
0.0452825
0.0448494
0.0445212
0.0443346
0.961692
0.892185
0.829085
0.771728
0.719523
0.671944
0.628523
0.588843
0.552532
0.519258
0.488725
0.460668
0.43485
0.411061
0.389111
0.368829
0.350063
0.332678
0.316548
0.301565
0.287628
0.274648
0.262544
0.251242
0.240676
0.230787
0.22152
0.212826
0.204661
0.196983
0.189756
0.182945
0.176521
0.170455
0.164721
0.159296
0.154158
0.149288
0.144667
0.140279
0.136108
0.13214
0.128363
0.124764
0.121332
0.118056
0.114928
0.111938
0.109079
0.106342
0.10372
0.101208
0.0987979
0.0964853
0.0942646
0.0921306
0.0900789
0.088105
0.0862048
0.0843746
0.0826108
0.0809099
0.079269
0.0776849
0.0761549
0.0746764
0.0732468
0.0718639
0.0705254
0.0692291
0.0679732
0.0667557
0.0655748
0.0644289
0.0633163
0.0622355
0.061185
0.0601634
0.0591695
0.0582019
0.0572594
0.056341
0.0554457
0.0545724
0.0537204
0.0528889
0.0520774
0.0512856
0.0505135
0.0497614
0.0490304
0.0483221
0.0476395
0.0469867
0.0463704
0.0457999
0.0452886
0.0448555
0.0445274
0.0443407
0.961692
0.892185
0.829085
0.771728
0.719523
0.671944
0.628523
0.588843
0.552532
0.519258
0.488725
0.460668
0.434851
0.411061
0.389111
0.368829
0.350064
0.332678
0.316548
0.301565
0.287628
0.274648
0.262544
0.251242
0.240676
0.230787
0.221521
0.212827
0.204661
0.196983
0.189756
0.182946
0.176521
0.170455
0.164721
0.159296
0.154158
0.149288
0.144668
0.140279
0.136109
0.132141
0.128364
0.124765
0.121333
0.118057
0.114929
0.111939
0.10908
0.106343
0.103722
0.101209
0.0987995
0.096487
0.0942663
0.0921324
0.0900807
0.0881069
0.0862068
0.0843767
0.0826129
0.0809122
0.0792713
0.0776874
0.0761575
0.074679
0.0732496
0.0718667
0.0705283
0.0692321
0.0679763
0.0667589
0.0655782
0.0644324
0.0633199
0.0622392
0.0611888
0.0601674
0.0591736
0.0582061
0.0572638
0.0563456
0.0554504
0.0545772
0.0537254
0.052894
0.0520827
0.0512911
0.0505191
0.0497672
0.0490363
0.0483281
0.0476456
0.046993
0.0463767
0.0458063
0.045295
0.044862
0.0445338
0.0443471
0.961692
0.892185
0.829084
0.771728
0.719523
0.671944
0.628523
0.588843
0.552532
0.519258
0.488725
0.460668
0.434851
0.411061
0.389111
0.368829
0.350064
0.332678
0.316548
0.301565
0.287629
0.274648
0.262544
0.251242
0.240677
0.230788
0.221521
0.212827
0.204662
0.196984
0.189756
0.182946
0.176522
0.170456
0.164722
0.159297
0.154159
0.149289
0.144668
0.14028
0.13611
0.132142
0.128365
0.124766
0.121334
0.118059
0.11493
0.111941
0.109081
0.106344
0.103723
0.101211
0.0988011
0.0964887
0.0942681
0.0921343
0.0900827
0.0881089
0.0862089
0.0843789
0.0826152
0.0809145
0.0792738
0.0776899
0.0761601
0.0746817
0.0732524
0.0718696
0.0705313
0.0692353
0.0679796
0.0667623
0.0655817
0.064436
0.0633236
0.062243
0.0611928
0.0601715
0.0591778
0.0582105
0.0572683
0.0563503
0.0554552
0.0545822
0.0537305
0.0528993
0.0520882
0.0512967
0.0505249
0.0497731
0.0490424
0.0483343
0.0476519
0.0469994
0.0463833
0.0458129
0.0453016
0.0448686
0.0445404
0.0443537
0.961692
0.892185
0.829084
0.771728
0.719523
0.671944
0.628523
0.588843
0.552532
0.519258
0.488725
0.460668
0.434851
0.411061
0.389111
0.368829
0.350064
0.332678
0.316549
0.301565
0.287629
0.274649
0.262544
0.251242
0.240677
0.230788
0.221521
0.212828
0.204662
0.196984
0.189757
0.182947
0.176522
0.170456
0.164723
0.159298
0.15416
0.14929
0.144669
0.140281
0.136111
0.132143
0.128366
0.124767
0.121335
0.11806
0.114932
0.111942
0.109083
0.106346
0.103725
0.101212
0.0988028
0.0964904
0.0942699
0.0921362
0.0900846
0.088111
0.086211
0.0843811
0.0826175
0.0809169
0.0792763
0.0776925
0.0761627
0.0746845
0.0732552
0.0718726
0.0705344
0.0692385
0.0679829
0.0667657
0.0655852
0.0644396
0.0633274
0.062247
0.0611969
0.0601757
0.0591822
0.058215
0.057273
0.0563551
0.0554602
0.0545874
0.0537358
0.0529048
0.0520938
0.0513025
0.0505308
0.0497792
0.0490486
0.0483407
0.0476584
0.047006
0.04639
0.0458197
0.0453085
0.0448755
0.0445473
0.0443606
0.961692
0.892184
0.829084
0.771728
0.719523
0.671944
0.628523
0.588843
0.552532
0.519258
0.488725
0.460668
0.434851
0.411062
0.389111
0.368829
0.350064
0.332678
0.316549
0.301566
0.287629
0.274649
0.262544
0.251243
0.240677
0.230788
0.221522
0.212828
0.204662
0.196985
0.189757
0.182947
0.176523
0.170457
0.164723
0.159298
0.154161
0.149291
0.14467
0.140282
0.136112
0.132144
0.128367
0.124768
0.121336
0.118061
0.114933
0.111943
0.109084
0.106347
0.103726
0.101214
0.0988045
0.0964922
0.0942717
0.0921381
0.0900867
0.088113
0.0862132
0.0843833
0.0826199
0.0809194
0.0792788
0.0776951
0.0761655
0.0746873
0.0732582
0.0718757
0.0705375
0.0692417
0.0679863
0.0667692
0.0655888
0.0644434
0.0633313
0.062251
0.061201
0.06018
0.0591866
0.0582196
0.0572777
0.05636
0.0554652
0.0545926
0.0537412
0.0529104
0.0520995
0.0513084
0.0505369
0.0497854
0.049055
0.0483473
0.0476651
0.0470128
0.0463969
0.0458266
0.0453155
0.0448825
0.0445543
0.0443676
0.961692
0.892184
0.829084
0.771727
0.719523
0.671944
0.628523
0.588843
0.552532
0.519258
0.488725
0.460668
0.434851
0.411062
0.389111
0.368829
0.350064
0.332678
0.316549
0.301566
0.287629
0.274649
0.262545
0.251243
0.240678
0.230789
0.221522
0.212828
0.204663
0.196985
0.189758
0.182948
0.176524
0.170458
0.164724
0.159299
0.154161
0.149291
0.144671
0.140283
0.136113
0.132145
0.128368
0.124769
0.121337
0.118062
0.114934
0.111945
0.109086
0.106349
0.103728
0.101216
0.0988062
0.096494
0.0942736
0.0921401
0.0900887
0.0881152
0.0862154
0.0843857
0.0826223
0.0809219
0.0792814
0.0776978
0.0761683
0.0746902
0.0732612
0.0718787
0.0705407
0.0692451
0.0679897
0.0667728
0.0655925
0.0644472
0.0633352
0.0622551
0.0612052
0.0601844
0.0591911
0.0582242
0.0572825
0.0563649
0.0554704
0.0545979
0.0537467
0.052916
0.0521054
0.0513144
0.050543
0.0497918
0.0490615
0.0483539
0.0476719
0.0470197
0.0464038
0.0458337
0.0453226
0.0448896
0.0445615
0.0443747
0.961692
0.892184
0.829084
0.771727
0.719523
0.671944
0.628523
0.588843
0.552532
0.519258
0.488725
0.460668
0.434851
0.411062
0.389111
0.368829
0.350064
0.332678
0.316549
0.301566
0.287629
0.274649
0.262545
0.251243
0.240678
0.230789
0.221522
0.212829
0.204663
0.196986
0.189758
0.182948
0.176524
0.170458
0.164725
0.1593
0.154162
0.149292
0.144672
0.140284
0.136113
0.132146
0.128369
0.12477
0.121339
0.118064
0.114936
0.111946
0.109087
0.10635
0.103729
0.101217
0.098808
0.0964958
0.0942755
0.092142
0.0900908
0.0881173
0.0862177
0.084388
0.0826247
0.0809244
0.079284
0.0777005
0.0761711
0.0746931
0.0732642
0.0718819
0.070544
0.0692484
0.0679932
0.0667764
0.0655962
0.064451
0.0633392
0.0622592
0.0612095
0.0601888
0.0591957
0.0582289
0.0572874
0.05637
0.0554756
0.0546033
0.0537522
0.0529217
0.0521112
0.0513204
0.0505493
0.0497982
0.049068
0.0483606
0.0476787
0.0470267
0.0464109
0.0458408
0.0453298
0.0448969
0.0445687
0.0443819
0.961692
0.892184
0.829084
0.771727
0.719523
0.671944
0.628523
0.588843
0.552532
0.519258
0.488725
0.460668
0.434851
0.411062
0.389111
0.368829
0.350064
0.332678
0.316549
0.301566
0.287629
0.274649
0.262545
0.251243
0.240678
0.230789
0.221523
0.212829
0.204664
0.196986
0.189759
0.182949
0.176525
0.170459
0.164725
0.1593
0.154163
0.149293
0.144673
0.140285
0.136114
0.132147
0.12837
0.124772
0.12134
0.118065
0.114937
0.111948
0.109089
0.106352
0.103731
0.101219
0.0988097
0.0964977
0.0942774
0.092144
0.0900928
0.0881195
0.0862199
0.0843903
0.0826271
0.0809269
0.0792866
0.0777032
0.0761739
0.074696
0.0732672
0.071885
0.0705472
0.0692518
0.0679966
0.06678
0.0656
0.0644549
0.0633432
0.0622633
0.0612138
0.0601932
0.0592002
0.0582337
0.0572923
0.056375
0.0554808
0.0546087
0.0537578
0.0529275
0.0521172
0.0513265
0.0505555
0.0498046
0.0490746
0.0483674
0.0476856
0.0470337
0.0464181
0.045848
0.0453371
0.0449042
0.044576
0.0443892
0.961692
0.892184
0.829084
0.771727
0.719523
0.671944
0.628523
0.588843
0.552532
0.519258
0.488725
0.460668
0.434851
0.411062
0.389111
0.368829
0.350064
0.332678
0.316549
0.301566
0.28763
0.27465
0.262545
0.251244
0.240678
0.23079
0.221523
0.212829
0.204664
0.196986
0.189759
0.182949
0.176525
0.170459
0.164726
0.159301
0.154164
0.149294
0.144673
0.140286
0.136115
0.132148
0.128371
0.124773
0.121341
0.118066
0.114938
0.111949
0.10909
0.106353
0.103733
0.101221
0.0988115
0.0964995
0.0942793
0.092146
0.0900949
0.0881216
0.0862222
0.0843926
0.0826295
0.0809294
0.0792892
0.0777059
0.0761767
0.074699
0.0732702
0.0718881
0.0705505
0.0692551
0.0680001
0.0667836
0.0656037
0.0644588
0.0633472
0.0622674
0.061218
0.0601976
0.0592048
0.0582384
0.0572972
0.0563801
0.055486
0.0546141
0.0537634
0.0529332
0.0521231
0.0513326
0.0505618
0.0498111
0.0490813
0.0483742
0.0476926
0.0470408
0.0464252
0.0458553
0.0453444
0.0449115
0.0445834
0.0443965
0.961692
0.892184
0.829084
0.771727
0.719523
0.671944
0.628523
0.588843
0.552532
0.519258
0.488725
0.460668
0.434851
0.411062
0.389111
0.36883
0.350064
0.332678
0.316549
0.301566
0.28763
0.27465
0.262546
0.251244
0.240679
0.23079
0.221523
0.21283
0.204665
0.196987
0.18976
0.18295
0.176526
0.17046
0.164726
0.159302
0.154164
0.149295
0.144674
0.140287
0.136116
0.132149
0.128372
0.124774
0.121342
0.118067
0.11494
0.11195
0.109091
0.106355
0.103734
0.101222
0.0988132
0.0965013
0.0942813
0.092148
0.090097
0.0881238
0.0862244
0.084395
0.0826319
0.0809319
0.0792918
0.0777086
0.0761795
0.0747019
0.0732733
0.0718913
0.0705537
0.0692585
0.0680036
0.0667872
0.0656074
0.0644626
0.0633512
0.0622716
0.0612223
0.060202
0.0592094
0.0582431
0.0573021
0.0563851
0.0554912
0.0546194
0.0537689
0.0529389
0.052129
0.0513387
0.0505681
0.0498175
0.0490879
0.0483809
0.0476995
0.0470478
0.0464324
0.0458625
0.0453517
0.0449189
0.0445907
0.0444039
0.961692
0.892184
0.829084
0.771727
0.719523
0.671944
0.628523
0.588843
0.552532
0.519258
0.488725
0.460668
0.434851
0.411062
0.389111
0.36883
0.350064
0.332679
0.316549
0.301566
0.28763
0.27465
0.262546
0.251244
0.240679
0.23079
0.221524
0.21283
0.204665
0.196987
0.18976
0.18295
0.176526
0.170461
0.164727
0.159303
0.154165
0.149295
0.144675
0.140288
0.136117
0.13215
0.128374
0.124775
0.121343
0.118069
0.114941
0.111952
0.109093
0.106357
0.103736
0.101224
0.098815
0.0965031
0.0942831
0.09215
0.090099
0.0881259
0.0862266
0.0843973
0.0826343
0.0809344
0.0792944
0.0777113
0.0761823
0.0747048
0.0732762
0.0718944
0.0705569
0.0692618
0.0680071
0.0667907
0.0656111
0.0644665
0.0633551
0.0622757
0.0612266
0.0602064
0.0592139
0.0582478
0.0573069
0.0563901
0.0554964
0.0546248
0.0537744
0.0529446
0.0521349
0.0513448
0.0505743
0.0498239
0.0490944
0.0483877
0.0477064
0.0470548
0.0464395
0.0458698
0.045359
0.0449262
0.044598
0.0444112
0.961692
0.892184
0.829084
0.771727
0.719523
0.671944
0.628523
0.588843
0.552532
0.519258
0.488725
0.460668
0.434851
0.411062
0.389111
0.36883
0.350064
0.332679
0.31655
0.301567
0.28763
0.27465
0.262546
0.251244
0.240679
0.23079
0.221524
0.21283
0.204665
0.196988
0.189761
0.182951
0.176527
0.170461
0.164728
0.159303
0.154166
0.149296
0.144676
0.140288
0.136118
0.132151
0.128375
0.124776
0.121345
0.11807
0.114942
0.111953
0.109094
0.106358
0.103737
0.101226
0.0988167
0.0965049
0.094285
0.0921519
0.0901011
0.088128
0.0862288
0.0843996
0.0826367
0.0809369
0.079297
0.0777139
0.076185
0.0747076
0.0732792
0.0718974
0.0705601
0.0692651
0.0680105
0.0667943
0.0656148
0.0644702
0.0633591
0.0622797
0.0612307
0.0602107
0.0592184
0.0582524
0.0573117
0.0563951
0.0555015
0.0546301
0.0537799
0.0529503
0.0521407
0.0513508
0.0505805
0.0498303
0.049101
0.0483943
0.0477132
0.0470618
0.0464466
0.0458769
0.0453662
0.0449334
0.0446053
0.0444184
0.961692
0.892184
0.829084
0.771727
0.719523
0.671944
0.628523
0.588843
0.552532
0.519258
0.488725
0.460668
0.434851
0.411062
0.389111
0.36883
0.350064
0.332679
0.31655
0.301567
0.28763
0.27465
0.262546
0.251245
0.240679
0.230791
0.221524
0.212831
0.204666
0.196988
0.189761
0.182951
0.176528
0.170462
0.164728
0.159304
0.154167
0.149297
0.144677
0.140289
0.136119
0.132152
0.128376
0.124777
0.121346
0.118071
0.114944
0.111955
0.109096
0.10636
0.103739
0.101227
0.0988184
0.0965067
0.0942869
0.0921539
0.0901031
0.0881301
0.086231
0.0844018
0.0826391
0.0809393
0.0792995
0.0777166
0.0761878
0.0747104
0.0732821
0.0719005
0.0705632
0.0692684
0.0680138
0.0667978
0.0656184
0.064474
0.0633629
0.0622837
0.0612349
0.060215
0.0592228
0.058257
0.0573164
0.0564
0.0555066
0.0546353
0.0537853
0.0529558
0.0521464
0.0513567
0.0505866
0.0498365
0.0491074
0.0484009
0.0477199
0.0470686
0.0464536
0.045884
0.0453733
0.0449406
0.0446125
0.0444256
0.961692
0.892184
0.829084
0.771727
0.719522
0.671944
0.628523
0.588843
0.552532
0.519258
0.488725
0.460668
0.434851
0.411062
0.389111
0.36883
0.350064
0.332679
0.31655
0.301567
0.28763
0.27465
0.262546
0.251245
0.24068
0.230791
0.221525
0.212831
0.204666
0.196989
0.189762
0.182952
0.176528
0.170462
0.164729
0.159305
0.154167
0.149298
0.144678
0.14029
0.13612
0.132153
0.128377
0.124778
0.121347
0.118072
0.114945
0.111956
0.109097
0.106361
0.10374
0.101229
0.09882
0.0965084
0.0942887
0.0921557
0.090105
0.0881322
0.0862331
0.084404
0.0826414
0.0809417
0.079302
0.0777191
0.0761904
0.0747132
0.073285
0.0719034
0.0705663
0.0692716
0.0680171
0.0668012
0.0656219
0.0644776
0.0633667
0.0622876
0.0612389
0.0602192
0.0592271
0.0582615
0.0573211
0.0564048
0.0555115
0.0546404
0.0537906
0.0529613
0.0521521
0.0513625
0.0505926
0.0498427
0.0491137
0.0484074
0.0477265
0.0470754
0.0464604
0.0458909
0.0453804
0.0449477
0.0446195
0.0444326
0.961692
0.892184
0.829084
0.771727
0.719522
0.671944
0.628523
0.588843
0.552532
0.519258
0.488725
0.460668
0.434851
0.411062
0.389111
0.36883
0.350065
0.332679
0.31655
0.301567
0.28763
0.274651
0.262547
0.251245
0.24068
0.230791
0.221525
0.212831
0.204666
0.196989
0.189762
0.182952
0.176529
0.170463
0.16473
0.159305
0.154168
0.149299
0.144678
0.140291
0.136121
0.132154
0.128378
0.124779
0.121348
0.118073
0.114946
0.111957
0.109098
0.106362
0.103742
0.10123
0.0988217
0.0965101
0.0942904
0.0921576
0.0901069
0.0881342
0.0862352
0.0844062
0.0826436
0.0809441
0.0793044
0.0777217
0.076193
0.0747159
0.0732878
0.0719064
0.0705693
0.0692747
0.0680204
0.0668045
0.0656254
0.0644812
0.0633704
0.0622915
0.0612429
0.0602233
0.0592314
0.0582659
0.0573256
0.0564095
0.0555164
0.0546454
0.0537958
0.0529667
0.0521576
0.0513682
0.0505984
0.0498487
0.0491199
0.0484138
0.047733
0.047082
0.0464672
0.0458978
0.0453873
0.0449546
0.0446265
0.0444396
0.961692
0.892184
0.829084
0.771727
0.719522
0.671944
0.628523
0.588843
0.552532
0.519258
0.488725
0.460668
0.434851
0.411062
0.389111
0.36883
0.350065
0.332679
0.31655
0.301567
0.287631
0.274651
0.262547
0.251245
0.24068
0.230792
0.221525
0.212832
0.204667
0.196989
0.189763
0.182953
0.176529
0.170463
0.16473
0.159306
0.154169
0.149299
0.144679
0.140292
0.136122
0.132155
0.128379
0.12478
0.121349
0.118075
0.114947
0.111958
0.1091
0.106364
0.103743
0.101232
0.0988232
0.0965118
0.0942921
0.0921594
0.0901088
0.0881361
0.0862372
0.0844083
0.0826458
0.0809463
0.0793068
0.0777241
0.0761956
0.0747186
0.0732905
0.0719092
0.0705723
0.0692777
0.0680235
0.0668078
0.0656288
0.0644847
0.063374
0.0622952
0.0612468
0.0602273
0.0592355
0.0582702
0.0573301
0.0564141
0.0555211
0.0546503
0.0538008
0.0529719
0.052163
0.0513738
0.0506042
0.0498546
0.049126
0.04842
0.0477394
0.0470885
0.0464738
0.0459045
0.045394
0.0449614
0.0446333
0.0444464
0.961692
0.892184
0.829084
0.771727
0.719522
0.671944
0.628523
0.588843
0.552532
0.519258
0.488725
0.460668
0.434851
0.411062
0.389111
0.36883
0.350065
0.332679
0.31655
0.301567
0.287631
0.274651
0.262547
0.251245
0.24068
0.230792
0.221525
0.212832
0.204667
0.19699
0.189763
0.182953
0.17653
0.170464
0.164731
0.159306
0.154169
0.1493
0.14468
0.140293
0.136123
0.132156
0.12838
0.124781
0.12135
0.118076
0.114948
0.11196
0.109101
0.106365
0.103745
0.101233
0.0988248
0.0965134
0.0942938
0.0921611
0.0901106
0.088138
0.0862392
0.0844104
0.0826479
0.0809486
0.0793091
0.0777265
0.0761981
0.0747211
0.0732932
0.071912
0.0705751
0.0692807
0.0680266
0.066811
0.065632
0.0644881
0.0633776
0.0622989
0.0612505
0.0602312
0.0592396
0.0582744
0.0573344
0.0564185
0.0555257
0.0546551
0.0538058
0.052977
0.0521682
0.0513792
0.0506098
0.0498604
0.0491319
0.048426
0.0477456
0.0470949
0.0464802
0.045911
0.0454006
0.044968
0.0446399
0.044453
0.961692
0.892184
0.829084
0.771727
0.719522
0.671944
0.628523
0.588843
0.552532
0.519258
0.488725
0.460668
0.434851
0.411062
0.389111
0.36883
0.350065
0.332679
0.31655
0.301567
0.287631
0.274651
0.262547
0.251246
0.240681
0.230792
0.221526
0.212832
0.204667
0.19699
0.189763
0.182954
0.17653
0.170464
0.164731
0.159307
0.15417
0.149301
0.144681
0.140293
0.136123
0.132157
0.12838
0.124782
0.121351
0.118077
0.11495
0.111961
0.109102
0.106366
0.103746
0.101235
0.0988263
0.0965149
0.0942954
0.0921628
0.0901124
0.0881399
0.0862411
0.0844123
0.08265
0.0809507
0.0793113
0.0777288
0.0762005
0.0747236
0.0732958
0.0719146
0.0705779
0.0692835
0.0680296
0.066814
0.0656352
0.0644914
0.063381
0.0623024
0.0612542
0.060235
0.0592435
0.0582784
0.0573386
0.0564228
0.0555302
0.0546597
0.0538105
0.0529819
0.0521733
0.0513844
0.0506152
0.0498659
0.0491376
0.0484319
0.0477516
0.047101
0.0464865
0.0459173
0.045407
0.0449745
0.0446464
0.0444594
0.961692
0.892184
0.829084
0.771727
0.719522
0.671944
0.628523
0.588843
0.552532
0.519258
0.488725
0.460668
0.434851
0.411062
0.389111
0.36883
0.350065
0.332679
0.31655
0.301567
0.287631
0.274651
0.262547
0.251246
0.240681
0.230792
0.221526
0.212833
0.204668
0.19699
0.189764
0.182954
0.17653
0.170465
0.164732
0.159308
0.154171
0.149301
0.144681
0.140294
0.136124
0.132158
0.128381
0.124783
0.121352
0.118078
0.114951
0.111962
0.109103
0.106368
0.103747
0.101236
0.0988277
0.0965164
0.094297
0.0921644
0.0901141
0.0881416
0.086243
0.0844143
0.082652
0.0809528
0.0793134
0.077731
0.0762028
0.074726
0.0732983
0.0719172
0.0705806
0.0692863
0.0680324
0.066817
0.0656383
0.0644946
0.0633843
0.0623058
0.0612577
0.0602386
0.0592473
0.0582823
0.0573426
0.056427
0.0555345
0.0546642
0.0538152
0.0529867
0.0521783
0.0513895
0.0506204
0.0498713
0.0491432
0.0484376
0.0477575
0.047107
0.0464925
0.0459235
0.0454132
0.0449807
0.0446526
0.0444657
0.961692
0.892184
0.829084
0.771727
0.719522
0.671944
0.628523
0.588843
0.552532
0.519258
0.488725
0.460668
0.434851
0.411062
0.389112
0.36883
0.350065
0.332679
0.31655
0.301567
0.287631
0.274651
0.262547
0.251246
0.240681
0.230792
0.221526
0.212833
0.204668
0.196991
0.189764