/*--------------------------------*- C++ -*----------------------------------*\
  =========                 |
  \\      /  F ield         | OpenFOAM: The Open Source CFD Toolbox
   \\    /   O peration     | Website:  https://openfoam.org
    \\  /    A nd           | Version:  11
     \\/     M anipulation  |
\*---------------------------------------------------------------------------*/
FoamFile
{
    format      ascii;
    class       volScalarField;
    location    "684";
    object      p;
}
// * * * * * * * * * * * * * * * * * * * * * * * * * * * * * * * * * * * * * //

dimensions      [0 2 -2 0 0 0 0];

internalField   nonuniform List<scalar> 
10000
(
1.05573e-09
1.02151e-09
1.05654e-09
1.14037e-09
1.23922e-09
1.34543e-09
1.45821e-09
1.57731e-09
1.70268e-09
1.83455e-09
1.97329e-09
2.11936e-09
2.27323e-09
2.43541e-09
2.60642e-09
2.78679e-09
2.97706e-09
3.17779e-09
3.38956e-09
3.61293e-09
3.84851e-09
4.09691e-09
4.35874e-09
4.63465e-09
4.92528e-09
5.23131e-09
5.55342e-09
5.89229e-09
6.24864e-09
6.62319e-09
7.01667e-09
7.42983e-09
7.86341e-09
8.31818e-09
8.79491e-09
9.29437e-09
9.81734e-09
1.03646e-08
1.09369e-08
1.15351e-08
1.21599e-08
1.28121e-08
1.34924e-08
1.42015e-08
1.49401e-08
1.5709e-08
1.65087e-08
1.73398e-08
1.82029e-08
1.90986e-08
2.00271e-08
2.09889e-08
2.19843e-08
2.30134e-08
2.40764e-08
2.5173e-08
2.63033e-08
2.74669e-08
2.86631e-08
2.98915e-08
3.1151e-08
3.24405e-08
3.37586e-08
3.51036e-08
3.64735e-08
3.78658e-08
3.92778e-08
4.07063e-08
4.21474e-08
4.35968e-08
4.50496e-08
4.65001e-08
4.79419e-08
4.93676e-08
5.07691e-08
5.2137e-08
5.34606e-08
5.47282e-08
5.59261e-08
5.70394e-08
5.80509e-08
5.89414e-08
5.96894e-08
6.02706e-08
6.06575e-08
6.08192e-08
6.07209e-08
6.0323e-08
5.95807e-08
5.84426e-08
5.68498e-08
5.47338e-08
5.20134e-08
4.85893e-08
4.43379e-08
3.911e-08
3.26858e-08
2.44638e-08
1.35004e-08
5.9946e-10
1.8909e-09
1.76362e-09
1.68206e-09
1.70727e-09
1.78002e-09
1.87666e-09
1.99071e-09
2.11879e-09
2.25882e-09
2.40975e-09
2.57119e-09
2.7431e-09
2.92563e-09
3.11909e-09
3.32388e-09
3.54045e-09
3.76931e-09
4.01102e-09
4.26616e-09
4.53536e-09
4.81924e-09
5.11848e-09
5.43377e-09
5.76582e-09
6.11534e-09
6.4831e-09
6.86984e-09
7.27636e-09
7.70344e-09
8.1519e-09
8.62256e-09
9.11624e-09
9.63379e-09
1.0176e-08
1.07439e-08
1.13381e-08
1.19597e-08
1.26093e-08
1.3288e-08
1.39964e-08
1.47355e-08
1.5506e-08
1.63087e-08
1.71444e-08
1.80138e-08
1.89176e-08
1.98563e-08
2.08306e-08
2.1841e-08
2.28878e-08
2.39715e-08
2.50923e-08
2.62502e-08
2.74455e-08
2.86778e-08
2.99469e-08
3.12524e-08
3.25937e-08
3.39697e-08
3.53795e-08
3.68217e-08
3.82945e-08
3.97959e-08
4.13235e-08
4.28746e-08
4.44459e-08
4.60336e-08
4.76333e-08
4.924e-08
5.08482e-08
5.24512e-08
5.40419e-08
5.56119e-08
5.71518e-08
5.86511e-08
6.00979e-08
6.14788e-08
6.27786e-08
6.39805e-08
6.50654e-08
6.6012e-08
6.67962e-08
6.73912e-08
6.77666e-08
6.78883e-08
6.7718e-08
6.72123e-08
6.63223e-08
6.49923e-08
6.31587e-08
6.07484e-08
5.76763e-08
5.38417e-08
4.9121e-08
4.33641e-08
3.64156e-08
2.80653e-08
1.73642e-08
2.18255e-09
-1.09188e-08
2.20595e-09
2.03152e-09
1.87714e-09
1.83113e-09
1.84285e-09
1.88698e-09
1.95498e-09
2.04175e-09
2.14375e-09
2.25881e-09
2.38566e-09
2.52361e-09
2.67227e-09
2.83154e-09
3.00145e-09
3.18216e-09
3.37393e-09
3.57707e-09
3.79196e-09
4.01902e-09
4.2587e-09
4.51148e-09
4.77787e-09
5.05842e-09
5.35366e-09
5.66419e-09
5.99057e-09
6.33343e-09
6.69336e-09
7.071e-09
7.46698e-09
7.88194e-09
8.31653e-09
8.77139e-09
9.24718e-09
9.74454e-09
1.02641e-08
1.08066e-08
1.13725e-08
1.19625e-08
1.25772e-08
1.32171e-08
1.38829e-08
1.4575e-08
1.52938e-08
1.604e-08
1.68137e-08
1.76154e-08
1.84452e-08
1.93035e-08
2.01903e-08
2.11055e-08
2.20492e-08
2.30211e-08
2.40209e-08
2.5048e-08
2.61018e-08
2.71815e-08
2.8286e-08
2.9414e-08
3.05641e-08
3.17344e-08
3.29228e-08
3.41268e-08
3.53437e-08
3.65702e-08
3.78026e-08
3.90366e-08
4.02674e-08
4.14895e-08
4.26969e-08
4.38826e-08
4.50387e-08
4.61565e-08
4.72262e-08
4.82366e-08
4.91755e-08
5.00288e-08
5.07811e-08
5.14149e-08
5.19109e-08
5.22473e-08
5.23996e-08
5.23406e-08
5.20398e-08
5.14628e-08
5.05712e-08
4.93215e-08
4.76647e-08
4.55453e-08
4.28997e-08
3.9655e-08
3.57261e-08
3.101e-08
2.53892e-08
1.87768e-08
1.10623e-08
1.15697e-09
-1.34959e-08
-2.1291e-08
2.45445e-09
2.26468e-09
2.09625e-09
2.02298e-09
2.00471e-09
2.02104e-09
2.06422e-09
2.12894e-09
2.21126e-09
2.30854e-09
2.41908e-09
2.54177e-09
2.67595e-09
2.82121e-09
2.97738e-09
3.14442e-09
3.32242e-09
3.51156e-09
3.71209e-09
3.92431e-09
4.14857e-09
4.38526e-09
4.6348e-09
4.89762e-09
5.1742e-09
5.46503e-09
5.7706e-09
6.09143e-09
6.42805e-09
6.78099e-09
7.15081e-09
7.53804e-09
7.94325e-09
8.36697e-09
8.80977e-09
9.27218e-09
9.75475e-09
1.0258e-08
1.07824e-08
1.13285e-08
1.18968e-08
1.24877e-08
1.31016e-08
1.37389e-08
1.43999e-08
1.5085e-08
1.57943e-08
1.65281e-08
1.72864e-08
1.80693e-08
1.88767e-08
1.97084e-08
2.05643e-08
2.14438e-08
2.23465e-08
2.32717e-08
2.42185e-08
2.51859e-08
2.61726e-08
2.71772e-08
2.8198e-08
2.92329e-08
3.02797e-08
3.13355e-08
3.23975e-08
3.34622e-08
3.45255e-08
3.55831e-08
3.66299e-08
3.76603e-08
3.86679e-08
3.96456e-08
4.05855e-08
4.14784e-08
4.23146e-08
4.30826e-08
4.37702e-08
4.43634e-08
4.48466e-08
4.52025e-08
4.54118e-08
4.5453e-08
4.53022e-08
4.49326e-08
4.43145e-08
4.34145e-08
4.21956e-08
4.06164e-08
3.86302e-08
3.61849e-08
3.32217e-08
2.96746e-08
2.54678e-08
2.05121e-08
1.47131e-08
8.03194e-09
4.18268e-10
-9.3523e-09
-2.41153e-08
-2.88706e-08
2.64184e-09
2.45334e-09
2.28812e-09
2.20469e-09
2.17081e-09
2.1709e-09
2.19862e-09
2.24918e-09
2.31871e-09
2.40449e-09
2.50464e-09
2.61786e-09
2.74329e-09
2.88036e-09
3.02873e-09
3.18825e-09
3.35887e-09
3.54068e-09
3.73382e-09
3.93852e-09
4.15505e-09
4.38372e-09
4.62488e-09
4.87891e-09
5.14622e-09
5.42723e-09
5.72238e-09
6.03213e-09
6.35694e-09
6.69728e-09
7.05364e-09
7.42649e-09
7.81633e-09
8.22362e-09
8.64886e-09
9.0925e-09
9.555e-09
1.00368e-08
1.05384e-08
1.106e-08
1.16022e-08
1.21653e-08
1.27496e-08
1.33553e-08
1.39827e-08
1.46319e-08
1.53031e-08
1.59964e-08
1.67116e-08
1.74487e-08
1.82075e-08
1.89877e-08
1.97889e-08
2.06104e-08
2.14517e-08
2.23118e-08
2.31897e-08
2.40842e-08
2.49938e-08
2.5917e-08
2.68516e-08
2.77956e-08
2.87463e-08
2.97009e-08
3.0656e-08
3.1608e-08
3.25526e-08
3.34852e-08
3.44004e-08
3.52924e-08
3.61543e-08
3.6979e-08
3.7758e-08
3.84821e-08
3.9141e-08
3.97233e-08
4.02163e-08
4.06057e-08
4.08759e-08
4.10092e-08
4.09864e-08
4.07859e-08
4.03838e-08
3.97535e-08
3.88657e-08
3.76878e-08
3.61837e-08
3.43132e-08
3.20321e-08
2.92911e-08
2.60357e-08
2.22058e-08
1.77343e-08
1.25442e-08
6.55989e-09
-2.24054e-10
-7.83004e-09
-1.76052e-08
-3.23866e-08
-3.52408e-08
2.77064e-09
2.59066e-09
2.432e-09
2.34404e-09
2.30022e-09
2.2885e-09
2.30396e-09
2.34247e-09
2.4005e-09
2.47543e-09
2.56536e-09
2.66891e-09
2.7851e-09
2.91325e-09
3.05291e-09
3.20383e-09
3.36586e-09
3.53899e-09
3.7233e-09
3.91891e-09
4.12604e-09
4.34492e-09
4.57584e-09
4.81911e-09
5.07507e-09
5.34409e-09
5.62654e-09
5.92281e-09
6.23331e-09
6.55844e-09
6.89861e-09
7.25425e-09
7.62576e-09
8.01355e-09
8.41802e-09
8.83956e-09
9.27856e-09
9.73536e-09
1.02103e-08
1.07037e-08
1.12159e-08
1.1747e-08
1.22974e-08
1.28672e-08
1.34564e-08
1.40652e-08
1.46936e-08
1.53415e-08
1.60087e-08
1.6695e-08
1.74e-08
1.81233e-08
1.88644e-08
1.96225e-08
2.03968e-08
2.11863e-08
2.19897e-08
2.28057e-08
2.36327e-08
2.44687e-08
2.53118e-08
2.61594e-08
2.70088e-08
2.78569e-08
2.87003e-08
2.9535e-08
3.03566e-08
3.11602e-08
3.19403e-08
3.26908e-08
3.34048e-08
3.40748e-08
3.46922e-08
3.52478e-08
3.5731e-08
3.61302e-08
3.64328e-08
3.66244e-08
3.66894e-08
3.66104e-08
3.63681e-08
3.59415e-08
3.53069e-08
3.44387e-08
3.33083e-08
3.18845e-08
3.01327e-08
2.80152e-08
2.54905e-08
2.25134e-08
1.90348e-08
1.50017e-08
1.03567e-08
5.0354e-09
-1.01938e-09
-7.78533e-09
-1.52641e-08
-2.48633e-08
-3.91968e-08
-4.06532e-08
2.85725e-09
2.68802e-09
2.5374e-09
2.44843e-09
2.39862e-09
2.37854e-09
2.38443e-09
2.4129e-09
2.46084e-09
2.52584e-09
2.60607e-09
2.70017e-09
2.80709e-09
2.9261e-09
3.05668e-09
3.19848e-09
3.35129e-09
3.51503e-09
3.68969e-09
3.87535e-09
4.07212e-09
4.2802e-09
4.49981e-09
4.73118e-09
4.97461e-09
5.23039e-09
5.49884e-09
5.78029e-09
6.07507e-09
6.38353e-09
6.70601e-09
7.04287e-09
7.39443e-09
7.76105e-09
8.14305e-09
8.54073e-09
8.95441e-09
9.38434e-09
9.8308e-09
1.0294e-08
1.07741e-08
1.12714e-08
1.17858e-08
1.23175e-08
1.28665e-08
1.34327e-08
1.40161e-08
1.46164e-08
1.52334e-08
1.58667e-08
1.65158e-08
1.71801e-08
1.7859e-08
1.85517e-08
1.9257e-08
1.99739e-08
2.0701e-08
2.14368e-08
2.21794e-08
2.2927e-08
2.36771e-08
2.44272e-08
2.51745e-08
2.59157e-08
2.66471e-08
2.73646e-08
2.80637e-08
2.87393e-08
2.93859e-08
2.9997e-08
3.05659e-08
3.10847e-08
3.1545e-08
3.19373e-08
3.22511e-08
3.24749e-08
3.2596e-08
3.26003e-08
3.24723e-08
3.2195e-08
3.17495e-08
3.11153e-08
3.02697e-08
2.91879e-08
2.78427e-08
2.62045e-08
2.42409e-08
2.19168e-08
1.91944e-08
1.60328e-08
1.23888e-08
8.21662e-09
3.46844e-09
-1.90793e-09
-7.95335e-09
-1.46233e-08
-2.19056e-08
-3.12479e-08
-4.50024e-08
-4.53143e-08
2.91364e-09
2.75542e-09
2.61339e-09
2.5257e-09
2.47281e-09
2.44712e-09
2.44585e-09
2.46624e-09
2.50564e-09
2.5619e-09
2.63332e-09
2.71859e-09
2.81669e-09
2.92684e-09
3.04848e-09
3.18121e-09
3.32478e-09
3.47903e-09
3.64389e-09
3.81939e-09
4.00559e-09
4.20261e-09
4.41062e-09
4.6298e-09
4.86038e-09
5.1026e-09
5.35672e-09
5.623e-09
5.90172e-09
6.19317e-09
6.49762e-09
6.81536e-09
7.14666e-09
7.4918e-09
7.85102e-09
8.22456e-09
8.61264e-09
9.01547e-09
9.43322e-09
9.86602e-09
1.0314e-08
1.07772e-08
1.12556e-08
1.17493e-08
1.22581e-08
1.27819e-08
1.33204e-08
1.38735e-08
1.44406e-08
1.50213e-08
1.5615e-08
1.62211e-08
1.68387e-08
1.74667e-08
1.81042e-08
1.87498e-08
1.94021e-08
2.00593e-08
2.07196e-08
2.13807e-08
2.20404e-08
2.26958e-08
2.3344e-08
2.39816e-08
2.46047e-08
2.52092e-08
2.57905e-08
2.63433e-08
2.6862e-08
2.73402e-08
2.77708e-08
2.81462e-08
2.84578e-08
2.86962e-08
2.8851e-08
2.89108e-08
2.88631e-08
2.86939e-08
2.83883e-08
2.79295e-08
2.72995e-08
2.64783e-08
2.54442e-08
2.41737e-08
2.26411e-08
2.08185e-08
1.86761e-08
1.61817e-08
1.33009e-08
9.99767e-09
6.23415e-09
1.97191e-09
-2.82836e-09
-8.20832e-09
-1.41954e-08
-2.07279e-08
-2.77875e-08
-3.6882e-08
-5.01829e-08
-4.94861e-08
2.94645e-09
2.79871e-09
2.66512e-09
2.57998e-09
2.52589e-09
2.4966e-09
2.49001e-09
2.50392e-09
2.53611e-09
2.58468e-09
2.64812e-09
2.72518e-09
2.8149e-09
2.91649e-09
3.02939e-09
3.15316e-09
3.28751e-09
3.43223e-09
3.58721e-09
3.75243e-09
3.92789e-09
4.11367e-09
4.30987e-09
4.51664e-09
4.73413e-09
4.96255e-09
5.20208e-09
5.45295e-09
5.71537e-09
5.98955e-09
6.27574e-09
6.57413e-09
6.88495e-09
7.2084e-09
7.54465e-09
7.89389e-09
8.25625e-09
8.63186e-09
9.02082e-09
9.42318e-09
9.83898e-09
1.02682e-08
1.07107e-08
1.11665e-08
1.16353e-08
1.2117e-08
1.26111e-08
1.31173e-08
1.36351e-08
1.41639e-08
1.4703e-08
1.52517e-08
1.58089e-08
1.63736e-08
1.69446e-08
1.75205e-08
1.80996e-08
1.86801e-08
1.92601e-08
1.98373e-08
2.04091e-08
2.09728e-08
2.15252e-08
2.20627e-08
2.25816e-08
2.30776e-08
2.35459e-08
2.39813e-08
2.4378e-08
2.47296e-08
2.50292e-08
2.5269e-08
2.54405e-08
2.55345e-08
2.55406e-08
2.54477e-08
2.52436e-08
2.49146e-08
2.44463e-08
2.38224e-08
2.30257e-08
2.2037e-08
2.08358e-08
1.93999e-08
1.77051e-08
1.57258e-08
1.34344e-08
1.08017e-08
7.79702e-09
4.38856e-09
5.43948e-10
-3.76885e-09
-8.58144e-09
-1.39265e-08
-1.98202e-08
-2.6184e-08
-3.29867e-08
-4.18108e-08
-5.48877e-08
-5.30346e-08
2.95987e-09
2.82178e-09
2.6962e-09
2.61427e-09
2.56018e-09
2.52865e-09
2.51812e-09
2.52681e-09
2.55285e-09
2.59463e-09
2.65079e-09
2.7202e-09
2.80194e-09
2.89527e-09
2.99961e-09
3.11452e-09
3.23967e-09
3.37484e-09
3.51987e-09
3.67469e-09
3.83927e-09
4.01363e-09
4.19783e-09
4.39197e-09
4.59617e-09
4.81055e-09
5.03526e-09
5.27047e-09
5.51634e-09
5.77304e-09
6.04072e-09
6.31955e-09
6.60967e-09
6.91123e-09
7.22434e-09
7.54911e-09
7.88562e-09
8.23391e-09
8.594e-09
8.96589e-09
9.34952e-09
9.74479e-09
1.01516e-08
1.05696e-08
1.09987e-08
1.14384e-08
1.18885e-08
1.23483e-08
1.28173e-08
1.32949e-08
1.37802e-08
1.42723e-08
1.47702e-08
1.52727e-08
1.57785e-08
1.62861e-08
1.67937e-08
1.72995e-08
1.78013e-08
1.82969e-08
1.87835e-08
1.92583e-08
1.9718e-08
2.01592e-08
2.05778e-08
2.09695e-08
2.13296e-08
2.16527e-08
2.19332e-08
2.21646e-08
2.23401e-08
2.24519e-08
2.24917e-08
2.24503e-08
2.23178e-08
2.20832e-08
2.17345e-08
2.12587e-08
2.06418e-08
1.98684e-08
1.89217e-08
1.77839e-08
1.64354e-08
1.48554e-08
1.30217e-08
1.09105e-08
8.49666e-09
5.75391e-09
2.65503e-09
-8.27707e-10
-4.72183e-09
-9.05364e-09
-1.38481e-08
-1.91303e-08
-2.4907e-08
-3.10819e-08
-3.76005e-08
-4.61269e-08
-5.91963e-08
-5.60197e-08
2.95687e-09
2.8276e-09
2.70953e-09
2.63109e-09
2.57776e-09
2.54496e-09
2.53149e-09
2.53593e-09
2.55671e-09
2.59245e-09
2.64195e-09
2.7042e-09
2.77835e-09
2.8637e-09
2.95968e-09
3.06585e-09
3.18187e-09
3.30749e-09
3.44253e-09
3.58688e-09
3.74047e-09
3.90329e-09
4.07536e-09
4.25671e-09
4.44743e-09
4.6476e-09
4.85731e-09
5.07669e-09
5.30583e-09
5.54486e-09
5.79387e-09
6.05298e-09
6.32227e-09
6.60182e-09
6.89168e-09
7.19191e-09
7.5025e-09
7.82344e-09
8.15469e-09
8.49616e-09
8.84772e-09
9.20919e-09
9.58036e-09
9.96093e-09
1.03506e-08
1.07488e-08
1.11553e-08
1.15693e-08
1.19902e-08
1.24173e-08
1.28496e-08
1.32862e-08
1.37259e-08
1.41675e-08
1.46095e-08
1.50504e-08
1.54883e-08
1.59214e-08
1.63473e-08
1.67636e-08
1.71678e-08
1.75567e-08
1.79272e-08
1.82755e-08
1.85978e-08
1.88897e-08
1.91464e-08
1.93627e-08
1.95327e-08
1.96503e-08
1.97085e-08
1.96999e-08
1.96161e-08
1.94484e-08
1.9187e-08
1.88211e-08
1.83395e-08
1.77294e-08
1.69775e-08
1.60691e-08
1.49884e-08
1.37184e-08
1.22409e-08
1.05367e-08
8.58499e-09
6.3641e-09
3.8513e-09
1.02301e-09
-2.14478e-09
-5.67615e-09
-9.59437e-09
-1.39209e-08
-1.86752e-08
-2.38766e-08
-2.95252e-08
-3.55088e-08
-4.1752e-08
-5.0015e-08
-6.3226e-08
-5.88566e-08
2.93969e-09
2.81846e-09
2.70741e-09
2.63259e-09
2.5805e-09
2.54708e-09
2.53142e-09
2.53236e-09
2.54859e-09
2.57891e-09
2.62229e-09
2.67783e-09
2.74475e-09
2.82239e-09
2.91022e-09
3.00779e-09
3.11477e-09
3.23089e-09
3.35594e-09
3.48979e-09
3.63234e-09
3.78354e-09
3.94337e-09
4.11184e-09
4.28897e-09
4.47481e-09
4.6694e-09
4.87282e-09
5.08513e-09
5.30638e-09
5.53663e-09
5.77593e-09
6.02432e-09
6.28181e-09
6.54841e-09
6.82409e-09
7.1088e-09
7.40246e-09
7.70497e-09
8.01615e-09
8.33583e-09
8.66376e-09
8.99962e-09
9.34308e-09
9.69371e-09
1.0051e-08
1.04144e-08
1.07833e-08
1.11569e-08
1.15343e-08
1.19147e-08
1.22968e-08
1.26796e-08
1.30617e-08
1.34415e-08
1.38175e-08
1.41877e-08
1.45501e-08
1.49024e-08
1.52422e-08
1.55667e-08
1.58729e-08
1.61575e-08
1.64168e-08
1.66469e-08
1.68434e-08
1.70016e-08
1.71162e-08
1.71816e-08
1.71917e-08
1.71395e-08
1.70178e-08
1.68187e-08
1.65333e-08
1.61524e-08
1.56657e-08
1.50621e-08
1.43297e-08
1.34556e-08
1.2426e-08
1.1226e-08
9.83971e-09
8.2502e-09
6.43949e-09
4.38866e-09
2.0779e-09
-5.13337e-10
-3.40608e-09
-6.6215e-09
-1.01804e-08
-1.41026e-08
-1.84055e-08
-2.31044e-08
-2.82147e-08
-3.37319e-08
-3.95326e-08
-4.55255e-08
-5.35791e-08
-6.70431e-08
-6.17058e-08
2.9101e-09
2.79622e-09
2.69173e-09
2.62053e-09
2.56997e-09
2.5364e-09
2.51911e-09
2.51713e-09
2.52936e-09
2.55479e-09
2.59252e-09
2.64174e-09
2.70176e-09
2.77196e-09
2.85184e-09
2.94098e-09
3.03902e-09
3.14571e-09
3.26081e-09
3.38417e-09
3.51566e-09
3.65521e-09
3.80276e-09
3.95828e-09
4.12176e-09
4.2932e-09
4.47262e-09
4.66002e-09
4.85543e-09
5.05886e-09
5.27032e-09
5.4898e-09
5.71728e-09
5.95274e-09
6.19611e-09
6.44732e-09
6.70626e-09
6.97279e-09
7.24672e-09
7.52786e-09
7.81593e-09
8.11063e-09
8.41159e-09
8.71839e-09
9.03053e-09
9.34747e-09
9.66855e-09
9.99305e-09
1.03202e-08
1.0649e-08
1.09784e-08
1.13074e-08
1.16346e-08
1.19587e-08
1.2278e-08
1.25908e-08
1.28953e-08
1.31892e-08
1.34704e-08
1.37363e-08
1.39841e-08
1.42107e-08
1.44129e-08
1.4587e-08
1.47291e-08
1.48347e-08
1.48993e-08
1.49176e-08
1.48841e-08
1.47928e-08
1.4637e-08
1.44096e-08
1.41028e-08
1.37083e-08
1.32171e-08
1.26192e-08
1.19042e-08
1.10608e-08
1.00766e-08
8.93877e-09
7.63324e-09
6.14521e-09
4.45897e-09
2.55796e-09
4.24844e-10
-1.95838e-09
-4.61021e-09
-7.54941e-09
-1.07946e-08
-1.4364e-08
-1.82742e-08
-2.25397e-08
-2.71726e-08
-3.21858e-08
-3.75723e-08
-4.31999e-08
-4.89654e-08
-5.68436e-08
-7.05928e-08
-6.44234e-08
2.86959e-09
2.76242e-09
2.66405e-09
2.59644e-09
2.5476e-09
2.5142e-09
2.49567e-09
2.49121e-09
2.4999e-09
2.52087e-09
2.55334e-09
2.5966e-09
2.65002e-09
2.71304e-09
2.78518e-09
2.86604e-09
2.95528e-09
3.05262e-09
3.15783e-09
3.27074e-09
3.39121e-09
3.51911e-09
3.65438e-09
3.79694e-09
3.94675e-09
4.10378e-09
4.268e-09
4.43938e-09
4.61789e-09
4.80351e-09
4.9962e-09
5.19589e-09
5.40254e-09
5.61604e-09
5.8363e-09
6.06318e-09
6.29652e-09
6.53612e-09
6.78175e-09
7.03313e-09
7.28995e-09
7.55183e-09
7.81835e-09
8.08901e-09
8.36328e-09
8.64052e-09
8.92003e-09
9.20102e-09
9.48262e-09
9.76384e-09
1.00436e-08
1.03207e-08
1.05938e-08
1.08614e-08
1.11219e-08
1.13735e-08
1.16144e-08
1.18422e-08
1.20548e-08
1.22495e-08
1.24235e-08
1.25739e-08
1.26972e-08
1.27898e-08
1.28479e-08
1.28672e-08
1.2843e-08
1.27702e-08
1.26435e-08
1.24569e-08
1.2204e-08
1.18779e-08
1.14712e-08
1.09757e-08
1.03828e-08
9.68321e-09
8.86683e-09
7.92294e-09
6.84004e-09
5.6059e-09
4.20748e-09
2.63102e-09
8.61973e-10
-1.11486e-09
-3.31533e-09
-5.75575e-09
-8.45279e-09
-1.14232e-08
-1.46834e-08
-1.82492e-08
-2.2135e-08
-2.63527e-08
-3.09122e-08
-3.58248e-08
-4.10824e-08
-4.65455e-08
-5.21006e-08
-5.98205e-08
-7.38393e-08
-6.69259e-08
2.81953e-09
2.71838e-09
2.62571e-09
2.56162e-09
2.51461e-09
2.48161e-09
2.46214e-09
2.45556e-09
2.46107e-09
2.47794e-09
2.50549e-09
2.5431e-09
2.5902e-09
2.64627e-09
2.71088e-09
2.78363e-09
2.8642e-09
2.95231e-09
3.04773e-09
3.15026e-09
3.25974e-09
3.37605e-09
3.49906e-09
3.62869e-09
3.76487e-09
3.90751e-09
4.05656e-09
4.21195e-09
4.37362e-09
4.54149e-09
4.71548e-09
4.8955e-09
5.08142e-09
5.27312e-09
5.47044e-09
5.67319e-09
5.88117e-09
6.09412e-09
6.31176e-09
6.53375e-09
6.75973e-09
6.98927e-09
7.22188e-09
7.45702e-09
7.69408e-09
7.93238e-09
8.17116e-09
8.40957e-09
8.64669e-09
8.88148e-09
9.11278e-09
9.33936e-09
9.55982e-09
9.77266e-09
9.9762e-09
1.01686e-08
1.0348e-08
1.05121e-08
1.06585e-08
1.07848e-08
1.08881e-08
1.09654e-08
1.10133e-08
1.10284e-08
1.10066e-08
1.09439e-08
1.08357e-08
1.0677e-08
1.04626e-08
1.01866e-08
9.84304e-09
9.42511e-09
8.92566e-09
8.33699e-09
7.65083e-09
6.8583e-09
5.94991e-09
4.91554e-09
3.7444e-09
2.42504e-09
9.45339e-10
-7.07468e-10
-2.54677e-09
-4.58652e-09
-6.84116e-09
-9.32549e-09
-1.20545e-08
-1.50432e-08
-1.83061e-08
-2.18571e-08
-2.57086e-08
-2.98706e-08
-3.43516e-08
-3.91616e-08
-4.4292e-08
-4.95976e-08
-5.49553e-08
-6.25248e-08
-7.67793e-08
-6.91955e-08
2.76118e-09
2.6652e-09
2.57781e-09
2.5172e-09
2.47211e-09
2.43966e-09
2.41948e-09
2.41105e-09
2.41368e-09
2.42675e-09
2.44969e-09
2.48192e-09
2.52295e-09
2.57231e-09
2.62959e-09
2.69441e-09
2.76646e-09
2.84547e-09
2.9312e-09
3.02345e-09
3.12204e-09
3.22681e-09
3.33764e-09
3.45441e-09
3.57701e-09
3.70534e-09
3.8393e-09
3.9788e-09
4.12371e-09
4.27395e-09
4.42937e-09
4.58984e-09
4.75521e-09
4.9253e-09
5.09991e-09
5.2788e-09
5.46171e-09
5.64835e-09
5.83838e-09
6.03142e-09
6.22705e-09
6.42478e-09
6.62408e-09
6.82436e-09
7.02496e-09
7.22514e-09
7.4241e-09
7.62094e-09
7.81467e-09
8.00422e-09
8.18839e-09
8.3659e-09
8.53531e-09
8.69508e-09
8.8435e-09
8.97875e-09
9.09881e-09
9.20149e-09
9.28445e-09
9.34509e-09
9.38065e-09
9.38811e-09
9.3642e-09
9.3054e-09
9.2079e-09
9.06758e-09
8.88002e-09
8.64043e-09
8.34366e-09
7.98417e-09
7.556e-09
7.05277e-09
6.46761e-09
5.79316e-09
5.02158e-09
4.14447e-09
3.15288e-09
2.0373e-09
7.87636e-10
-6.06783e-10
-2.1572e-09
-3.87541e-09
-5.77374e-09
-7.86495e-09
-1.01622e-08
-1.26789e-08
-1.54286e-08
-1.84246e-08
-2.168e-08
-2.52071e-08
-2.90165e-08
-3.31171e-08
-3.75157e-08
-4.2222e-08
-4.72271e-08
-5.23806e-08
-5.75505e-08
-6.49734e-08
-7.94226e-08
-7.12342e-08
2.69568e-09
2.60372e-09
2.52126e-09
2.46416e-09
2.42106e-09
2.3893e-09
2.3686e-09
2.35853e-09
2.35854e-09
2.36808e-09
2.38665e-09
2.41377e-09
2.44897e-09
2.49183e-09
2.54196e-09
2.59903e-09
2.66273e-09
2.73278e-09
2.80896e-09
2.89104e-09
2.97884e-09
3.07219e-09
3.17094e-09
3.27495e-09
3.38408e-09
3.49821e-09
3.61719e-09
3.74091e-09
3.86922e-09
4.00197e-09
4.139e-09
4.28013e-09
4.42518e-09
4.5739e-09
4.72608e-09
4.88142e-09
5.03962e-09
5.20034e-09
5.3632e-09
5.52777e-09
5.69358e-09
5.8601e-09
6.02676e-09
6.19291e-09
6.35785e-09
6.5208e-09
6.6809e-09
6.83721e-09
6.98871e-09
7.13428e-09
7.27269e-09
7.40262e-09
7.52259e-09
7.63105e-09
7.72627e-09
7.80638e-09
7.86938e-09
7.91307e-09
7.9351e-09
7.93292e-09
7.90375e-09
7.84462e-09
7.75233e-09
7.6234e-09
7.45413e-09
7.24049e-09
6.97817e-09
6.66255e-09
6.28865e-09
5.85114e-09
5.34431e-09
4.76204e-09
4.0978e-09
3.34461e-09
2.49504e-09
1.54116e-09
4.74565e-10
-7.13645e-10
-2.03289e-09
-3.49308e-09
-5.10462e-09
-6.8784e-09
-8.82573e-09
-1.09583e-08
-1.3288e-08
-1.58272e-08
-1.85879e-08
-2.15822e-08
-2.48218e-08
-2.83175e-08
-3.20788e-08
-3.61133e-08
-4.0427e-08
-4.50292e-08
-4.99105e-08
-5.49163e-08
-5.99064e-08
-6.71837e-08
-8.17847e-08
-7.30509e-08
2.62448e-09
2.53414e-09
2.45668e-09
2.40336e-09
2.36237e-09
2.33141e-09
2.31035e-09
2.29884e-09
2.29644e-09
2.30267e-09
2.31711e-09
2.33933e-09
2.36891e-09
2.40547e-09
2.44866e-09
2.49816e-09
2.55367e-09
2.61493e-09
2.68169e-09
2.75375e-09
2.8309e-09
2.91296e-09
2.99976e-09
3.09114e-09
3.18694e-09
3.28701e-09
3.39117e-09
3.49928e-09
3.61116e-09
3.72663e-09
3.84549e-09
3.96753e-09
4.09251e-09
4.22017e-09
4.35024e-09
4.48239e-09
4.61628e-09
4.75153e-09
4.88771e-09
5.02435e-09
5.16094e-09
5.29691e-09
5.43164e-09
5.56444e-09
5.69457e-09
5.82121e-09
5.94347e-09
6.06036e-09
6.17084e-09
6.27373e-09
6.3678e-09
6.45167e-09
6.52387e-09
6.58281e-09
6.62674e-09
6.65381e-09
6.66199e-09
6.64911e-09
6.61281e-09
6.55057e-09
6.45965e-09
6.33715e-09
6.17989e-09
5.98451e-09
5.74736e-09
5.46456e-09
5.13193e-09
4.745e-09
4.29899e-09
3.78879e-09
3.20894e-09
2.5536e-09
1.81659e-09
9.91279e-10
7.06659e-11
-9.52695e-10
-2.08668e-09
-3.3396e-09
-4.72022e-09
-6.23773e-09
-7.90175e-09
-9.72229e-09
-1.17097e-08
-1.38747e-08
-1.62282e-08
-1.87812e-08
-2.15448e-08
-2.45298e-08
-2.77467e-08
-3.12052e-08
-3.49138e-08
-3.88789e-08
-4.31059e-08
-4.76039e-08
-5.23632e-08
-5.72251e-08
-6.2042e-08
-6.9174e-08
-8.38849e-08
-7.46589e-08
2.54995e-09
2.45637e-09
2.385e-09
2.33591e-09
2.29705e-09
2.26694e-09
2.2456e-09
2.23279e-09
2.22814e-09
2.23125e-09
2.24175e-09
2.25927e-09
2.28344e-09
2.31391e-09
2.35034e-09
2.39245e-09
2.43995e-09
2.49258e-09
2.5501e-09
2.61229e-09
2.67895e-09
2.74988e-09
2.82489e-09
2.90381e-09
2.98644e-09
3.07262e-09
3.16216e-09
3.25487e-09
3.35054e-09
3.44896e-09
3.54991e-09
3.65313e-09
3.75836e-09
3.86531e-09
3.97364e-09
4.08302e-09
4.19305e-09
4.30331e-09
4.41335e-09
4.52265e-09
4.63066e-09
4.73677e-09
4.84033e-09
4.94062e-09
5.03685e-09
5.12816e-09
5.21364e-09
5.29226e-09
5.36295e-09
5.42452e-09
5.47568e-09
5.51507e-09
5.54118e-09
5.55241e-09
5.54701e-09
5.52313e-09
5.47874e-09
5.41168e-09
5.31964e-09
5.2001e-09
5.0504e-09
4.86766e-09
4.6488e-09
4.39054e-09
4.08933e-09
3.74142e-09
3.34277e-09
2.8891e-09
2.3758e-09
1.798e-09
1.1505e-09
4.27754e-10
-3.76103e-10
-1.26731e-09
-2.25245e-09
-3.33852e-09
-4.53286e-09
-5.84323e-09
-7.27775e-09
-8.84494e-09
-1.05536e-08
-1.24131e-08
-1.44328e-08
-1.66225e-08
-1.89921e-08
-2.15517e-08
-2.43113e-08
-2.72807e-08
-3.04693e-08
-3.3886e-08
-3.75382e-08
-4.14317e-08
-4.55712e-08
-4.99654e-08
-5.46045e-08
-5.93261e-08
-6.39761e-08
-7.09633e-08
-8.57446e-08
-7.60745e-08
2.46363e-09
2.37504e-09
2.30954e-09
2.26337e-09
2.22619e-09
2.1968e-09
2.17519e-09
2.16116e-09
2.15439e-09
2.15453e-09
2.16128e-09
2.17428e-09
2.19322e-09
2.21778e-09
2.24765e-09
2.28256e-09
2.32222e-09
2.3664e-09
2.41486e-09
2.46736e-09
2.52371e-09
2.58369e-09
2.64709e-09
2.71374e-09
2.78341e-09
2.85592e-09
2.93106e-09
3.0086e-09
3.08832e-09
3.16997e-09
3.25331e-09
3.33804e-09
3.42387e-09
3.51047e-09
3.59749e-09
3.68454e-09
3.7712e-09
3.85702e-09
3.94149e-09
4.02408e-09
4.1042e-09
4.1812e-09
4.2544e-09
4.32304e-09
4.38631e-09
4.44331e-09
4.49311e-09
4.53465e-09
4.56683e-09
4.58844e-09
4.59819e-09
4.59468e-09
4.57641e-09
4.54175e-09
4.48899e-09
4.41625e-09
4.32153e-09
4.2027e-09
4.05747e-09
3.88337e-09
3.67778e-09
3.4379e-09
3.16073e-09
2.84306e-09
2.4815e-09
2.0724e-09
1.61188e-09
1.09583e-09
5.19859e-10
-1.20685e-10
-8.30744e-10
-1.61556e-09
-2.48067e-09
-3.43194e-09
-4.47557e-09
-5.61807e-09
-6.86631e-09
-8.22748e-09
-9.70911e-09
-1.13191e-08
-1.30655e-08
-1.49569e-08
-1.70019e-08
-1.92095e-08
-2.15887e-08
-2.41488e-08
-2.68987e-08
-2.98473e-08
-3.30033e-08
-3.63746e-08
-3.9968e-08
-4.37884e-08
-4.784e-08
-5.21314e-08
-5.66524e-08
-6.12374e-08
-6.57267e-08
-7.25705e-08
-8.7386e-08
-7.73151e-08
2.36456e-09
2.29097e-09
2.23037e-09
2.18615e-09
2.15042e-09
2.12168e-09
2.09983e-09
2.08466e-09
2.07587e-09
2.0732e-09
2.07634e-09
2.085e-09
2.0989e-09
2.11773e-09
2.14122e-09
2.16911e-09
2.20114e-09
2.23706e-09
2.27664e-09
2.31966e-09
2.36589e-09
2.41511e-09
2.46713e-09
2.52172e-09
2.57866e-09
2.63774e-09
2.69872e-09
2.76137e-09
2.82543e-09
2.89063e-09
2.95668e-09
3.02329e-09
3.09011e-09
3.15679e-09
3.22294e-09
3.28816e-09
3.35198e-09
3.41392e-09
3.47346e-09
3.53001e-09
3.58295e-09
3.63163e-09
3.67531e-09
3.71321e-09
3.74449e-09
3.76824e-09
3.78348e-09
3.78916e-09
3.78414e-09
3.7672e-09
3.73703e-09
3.69222e-09
3.63128e-09
3.55259e-09
3.45441e-09
3.33491e-09
3.1921e-09
3.02387e-09
2.82797e-09
2.60199e-09
2.34337e-09
2.04937e-09
1.71708e-09
1.34342e-09
9.25074e-10
4.58556e-10
-5.9852e-11
-6.34091e-10
-1.26834e-09
-1.96702e-09
-2.73481e-09
-3.57667e-09
-4.4978e-09
-5.50372e-09
-6.60022e-09
-7.79338e-09
-9.08957e-09
-1.04955e-08
-1.20181e-08
-1.36646e-08
-1.54426e-08
-1.73597e-08
-1.94241e-08
-2.16437e-08
-2.4027e-08
-2.65823e-08
-2.93178e-08
-3.22416e-08
-3.53615e-08
-3.86848e-08
-4.22175e-08
-4.59642e-08
-4.99284e-08
-5.41184e-08
-5.85239e-08
-6.29763e-08
-6.73113e-08
-7.40137e-08
-8.88314e-08
-7.83982e-08
2.26308e-09
2.20011e-09
2.14538e-09
2.1041e-09
2.07009e-09
2.04213e-09
2.02013e-09
2.00392e-09
1.99325e-09
1.98789e-09
1.98758e-09
1.99207e-09
2.00109e-09
2.01438e-09
2.03169e-09
2.05275e-09
2.07734e-09
2.1052e-09
2.13611e-09
2.16985e-09
2.20618e-09
2.24488e-09
2.28573e-09
2.32851e-09
2.37297e-09
2.41889e-09
2.466e-09
2.51406e-09
2.56277e-09
2.61186e-09
2.661e-09
2.70987e-09
2.7581e-09
2.80532e-09
2.8511e-09
2.89501e-09
2.93656e-09
2.97524e-09
3.01049e-09
3.04171e-09
3.06824e-09
3.0894e-09
3.10444e-09
3.11255e-09
3.11285e-09
3.10443e-09
3.08628e-09
3.05733e-09
3.01643e-09
2.96235e-09
2.89378e-09
2.8093e-09
2.70742e-09
2.58652e-09
2.44489e-09
2.2807e-09
2.092e-09
1.87671e-09
1.63264e-09
1.35741e-09
1.04854e-09
7.03372e-10
3.19086e-10
-1.07306e-10
-5.78974e-10
-1.09928e-09
-1.67176e-09
-2.30019e-09
-2.98854e-09
-3.741e-09
-4.56198e-09
-5.45616e-09
-6.42844e-09
-7.48396e-09
-8.62814e-09
-9.86664e-09
-1.12054e-08
-1.26505e-08
-1.42086e-08
-1.58861e-08
-1.76901e-08
-1.96276e-08
-2.17061e-08
-2.39328e-08
-2.63155e-08
-2.88616e-08
-3.15788e-08
-3.44746e-08
-3.75559e-08
-4.08293e-08
-4.43006e-08
-4.79734e-08
-5.18512e-08
-5.59418e-08
-6.02346e-08
-6.45588e-08
-6.87462e-08
-7.53105e-08
-9.01019e-08
-7.93409e-08
2.15752e-09
2.10633e-09
2.05659e-09
2.01817e-09
1.98597e-09
1.95884e-09
1.93675e-09
1.91959e-09
1.90715e-09
1.89923e-09
1.89562e-09
1.89609e-09
1.90041e-09
1.90835e-09
1.91965e-09
1.93409e-09
1.95144e-09
1.97146e-09
1.99392e-09
2.01859e-09
2.04526e-09
2.07368e-09
2.10362e-09
2.13485e-09
2.16711e-09
2.20015e-09
2.23371e-09
2.2675e-09
2.30123e-09
2.33457e-09
2.3672e-09
2.39876e-09
2.42886e-09
2.4571e-09
2.48303e-09
2.50619e-09
2.52607e-09
2.54213e-09
2.55378e-09
2.5604e-09
2.56132e-09
2.55581e-09
2.54311e-09
2.52239e-09
2.49276e-09
2.45327e-09
2.40291e-09
2.34059e-09
2.26516e-09
2.17537e-09
2.06992e-09
1.94739e-09
1.80628e-09
1.64501e-09
1.46186e-09
1.25504e-09
1.02264e-09
7.62607e-10
4.72789e-10
1.50895e-10
-2.05505e-10
-5.98981e-10
-1.03226e-09
-1.50821e-09
-2.02988e-09
-2.60048e-09
-3.2234e-09
-3.90223e-09
-4.64071e-09
-5.44283e-09
-6.31275e-09
-7.25484e-09
-8.27371e-09
-9.37416e-09
-1.05612e-08
-1.18402e-08
-1.32166e-08
-1.4696e-08
-1.62845e-08
-1.79881e-08
-1.98133e-08
-2.17665e-08
-2.38545e-08
-2.60841e-08
-2.84621e-08
-3.09957e-08
-3.36916e-08
-3.65568e-08
-3.95976e-08
-4.28202e-08
-4.62297e-08
-4.98293e-08
-5.36221e-08
-5.76158e-08
-6.17994e-08
-6.60002e-08
-7.0047e-08
-7.64772e-08
-9.12177e-08
-8.01596e-08
2.05099e-09
2.0105e-09
1.96545e-09
1.9294e-09
1.89883e-09
1.8725e-09
1.85035e-09
1.8323e-09
1.81818e-09
1.80783e-09
1.80106e-09
1.79767e-09
1.79747e-09
1.80022e-09
1.80572e-09
1.81374e-09
1.82406e-09
1.83645e-09
1.85069e-09
1.86654e-09
1.88379e-09
1.90218e-09
1.92149e-09
1.94145e-09
1.96181e-09
1.9823e-09
2.00264e-09
2.02252e-09
2.04163e-09
2.05963e-09
2.07617e-09
2.09087e-09
2.10333e-09
2.1131e-09
2.11974e-09
2.12274e-09
2.12157e-09
2.11568e-09
2.10446e-09
2.08725e-09
2.06336e-09
2.03206e-09
1.99256e-09
1.944e-09
1.88548e-09
1.81605e-09
1.73468e-09
1.64027e-09
1.53166e-09
1.40761e-09
1.2668e-09
1.10784e-09
9.29226e-10
7.2939e-10
5.06655e-10
2.59244e-10
-1.47234e-11
-3.17238e-10
-6.50407e-10
-1.01646e-09
-1.41775e-09
-1.85675e-09
-2.33611e-09
-2.85857e-09
-3.42705e-09
-4.04463e-09
-4.71452e-09
-5.44013e-09
-6.22502e-09
-7.07292e-09
-7.98777e-09
-8.97367e-09
-1.00349e-08
-1.1176e-08
-1.24016e-08
-1.37166e-08
-1.51261e-08
-1.66354e-08
-1.82499e-08
-1.99752e-08
-2.18173e-08
-2.37822e-08
-2.58758e-08
-2.81046e-08
-3.04749e-08
-3.2993e-08
-3.56653e-08
-3.84981e-08
-4.14974e-08
-4.46687e-08
-4.80166e-08
-5.15442e-08
-5.52541e-08
-5.91538e-08
-6.3232e-08
-6.73144e-08
-7.12279e-08
-7.75291e-08
-9.21973e-08
-8.08692e-08
1.94881e-09
1.9109e-09
1.87096e-09
1.83801e-09
1.80919e-09
1.7837e-09
1.76154e-09
1.74267e-09
1.72697e-09
1.71429e-09
1.70449e-09
1.6974e-09
1.69284e-09
1.6906e-09
1.69049e-09
1.69229e-09
1.6958e-09
1.70079e-09
1.70704e-09
1.71433e-09
1.72242e-09
1.73107e-09
1.74002e-09
1.74902e-09
1.7578e-09
1.76608e-09
1.77355e-09
1.77989e-09
1.78479e-09
1.78787e-09
1.78878e-09
1.7871e-09
1.78242e-09