/*--------------------------------*- C++ -*----------------------------------*\
  =========                 |
  \\      /  F ield         | OpenFOAM: The Open Source CFD Toolbox
   \\    /   O peration     | Website:  https://openfoam.org
    \\  /    A nd           | Version:  11
     \\/     M anipulation  |
\*---------------------------------------------------------------------------*/
FoamFile
{
    format      ascii;
    class       surfaceScalarField;
    location    "1440";
    object      phi;
}
// * * * * * * * * * * * * * * * * * * * * * * * * * * * * * * * * * * * * * //

dimensions      [0 3 -1 0 0 0 0];

internalField   nonuniform List<scalar> 
19800
(
2e-05
-1.79322e-14
2e-05
-5.21832e-14
2e-05
-8.59485e-14
2e-05
-1.20115e-13
2e-05
-1.55214e-13
2e-05
-1.91584e-13
2e-05
-2.29493e-13
2e-05
-2.69167e-13
2e-05
-3.10807e-13
2e-05
-3.54595e-13
2e-05
-4.00705e-13
2e-05
-4.49302e-13
2e-05
-5.0055e-13
2e-05
-5.5461e-13
2e-05
-6.11642e-13
2e-05
-6.71805e-13
2e-05
-7.35262e-13
2e-05
-8.02175e-13
2e-05
-8.72708e-13
2e-05
-9.47026e-13
2e-05
-1.0253e-12
2e-05
-1.10769e-12
2e-05
-1.19439e-12
2e-05
-1.28555e-12
2e-05
-1.38136e-12
2e-05
-1.482e-12
2e-05
-1.58765e-12
2e-05
-1.69849e-12
2e-05
-1.8147e-12
2e-05
-1.93647e-12
2e-05
-2.06399e-12
2e-05
-2.19743e-12
2e-05
-2.337e-12
2e-05
-2.48288e-12
2e-05
-2.63525e-12
2e-05
-2.7943e-12
2e-05
-2.96022e-12
2e-05
-3.13319e-12
2e-05
-3.31338e-12
2e-05
-3.50098e-12
2e-05
-3.69615e-12
2e-05
-3.89908e-12
2e-05
-4.10991e-12
2e-05
-4.32882e-12
2e-05
-4.55595e-12
2e-05
-4.79144e-12
2e-05
-5.03543e-12
2e-05
-5.28805e-12
2e-05
-5.5494e-12
2e-05
-5.81961e-12
2e-05
-6.09875e-12
2e-05
-6.3869e-12
2e-05
-6.68412e-12
2e-05
-6.99046e-12
2e-05
-7.30595e-12
2e-05
-7.6306e-12
2e-05
-7.96438e-12
2e-05
-8.30726e-12
2e-05
-8.65919e-12
2e-05
-9.02008e-12
2e-05
-9.3898e-12
2e-05
-9.76821e-12
2e-05
-1.01551e-11
2e-05
-1.05503e-11
2e-05
-1.09536e-11
2e-05
-1.13646e-11
2e-05
-1.17829e-11
2e-05
-1.22083e-11
2e-05
-1.26402e-11
2e-05
-1.30782e-11
2e-05
-1.35216e-11
2e-05
-1.39699e-11
2e-05
-1.44224e-11
2e-05
-1.48781e-11
2e-05
-1.53364e-11
2e-05
-1.57961e-11
2e-05
-1.62562e-11
2e-05
-1.67155e-11
2e-05
-1.71728e-11
2e-05
-1.76264e-11
2e-05
-1.80749e-11
2e-05
-1.85164e-11
2e-05
-1.8949e-11
2e-05
-1.93705e-11
2e-05
-1.97786e-11
2e-05
-2.01708e-11
2e-05
-2.05442e-11
2e-05
-2.08958e-11
2e-05
-2.12227e-11
2e-05
-2.15216e-11
2e-05
-2.17885e-11
2e-05
-2.20183e-11
2e-05
-2.22046e-11
2e-05
-2.23427e-11
2e-05
-2.24318e-11
2e-05
-2.24745e-11
2e-05
-2.24744e-11
2e-05
-2.24305e-11
2e-05
-2.23562e-11
-2.23114e-11
2e-05
-1.60503e-14
2e-05
-4.82312e-14
2e-05
-8.06666e-14
2e-05
-1.13696e-13
2e-05
-1.47685e-13
2e-05
-1.82921e-13
2e-05
-2.19649e-13
2e-05
-2.58079e-13
2e-05
-2.98401e-13
2e-05
-3.40791e-13
2e-05
-3.85414e-13
2e-05
-4.32431e-13
2e-05
-4.81998e-13
2e-05
-5.34271e-13
2e-05
-5.89402e-13
2e-05
-6.47547e-13
2e-05
-7.0886e-13
2e-05
-7.73496e-13
2e-05
-8.41613e-13
2e-05
-9.1337e-13
2e-05
-9.88929e-13
2e-05
-1.06845e-12
2e-05
-1.1521e-12
2e-05
-1.24005e-12
2e-05
-1.33246e-12
2e-05
-1.42951e-12
2e-05
-1.53137e-12
2e-05
-1.63821e-12
2e-05
-1.7502e-12
2e-05
-1.86753e-12
2e-05
-1.99037e-12
2e-05
-2.1189e-12
2e-05
-2.2533e-12
2e-05
-2.39374e-12
2e-05
-2.54041e-12
2e-05
-2.69347e-12
2e-05
-2.8531e-12
2e-05
-3.01948e-12
2e-05
-3.19278e-12
2e-05
-3.37316e-12
2e-05
-3.56079e-12
2e-05
-3.75582e-12
2e-05
-3.95841e-12
2e-05
-4.16872e-12
2e-05
-4.38687e-12
2e-05
-4.61301e-12
2e-05
-4.84725e-12
2e-05
-5.08973e-12
2e-05
-5.34055e-12
2e-05
-5.59979e-12
2e-05
-5.86756e-12
2e-05
-6.14391e-12
2e-05
-6.42891e-12
2e-05
-6.72259e-12
2e-05
-7.02498e-12
2e-05
-7.3361e-12
2e-05
-7.65591e-12
2e-05
-7.98439e-12
2e-05
-8.32149e-12
2e-05
-8.66711e-12
2e-05
-9.02116e-12
2e-05
-9.3835e-12
2e-05
-9.75395e-12
2e-05
-1.01323e-11
2e-05
-1.05184e-11
2e-05
-1.09119e-11
2e-05
-1.13125e-11
2e-05
-1.17198e-11
2e-05
-1.21335e-11
2e-05
-1.2553e-11
2e-05
-1.2978e-11
2e-05
-1.34077e-11
2e-05
-1.38416e-11
2e-05
-1.42791e-11
2e-05
-1.47192e-11
2e-05
-1.51611e-11
2e-05
-1.56039e-11
2e-05
-1.60466e-11
2e-05
-1.64879e-11
2e-05
-1.69266e-11
2e-05
-1.73613e-11
2e-05
-1.77905e-11
2e-05
-1.82124e-11
2e-05
-1.86252e-11
2e-05
-1.90269e-11
2e-05
-1.94153e-11
2e-05
-1.9788e-11
2e-05
-2.01423e-11
2e-05
-2.04757e-11
2e-05
-2.07848e-11
2e-05
-2.10655e-11
2e-05
-2.13135e-11
2e-05
-2.15257e-11
2e-05
-2.16995e-11
2e-05
-2.18334e-11
2e-05
-2.193e-11
2e-05
-2.19918e-11
2e-05
-2.20208e-11
2e-05
-2.20257e-11
-2.20468e-11
2e-05
-1.46354e-14
2e-05
-4.47285e-14
2e-05
-7.56394e-14
2e-05
-1.07409e-13
2e-05
-1.40226e-13
2e-05
-1.74302e-13
2e-05
-2.09838e-13
2e-05
-2.47023e-13
2e-05
-2.86031e-13
2e-05
-3.27029e-13
2e-05
-3.70175e-13
2e-05
-4.15621e-13
2e-05
-4.63518e-13
2e-05
-5.14015e-13
2e-05
-5.67258e-13
2e-05
-6.23397e-13
2e-05
-6.82578e-13
2e-05
-7.44952e-13
2e-05
-8.10668e-13
2e-05
-8.7988e-13
2e-05
-9.52741e-13
2e-05
-1.02941e-12
2e-05
-1.11004e-12
2e-05
-1.19479e-12
2e-05
-1.28382e-12
2e-05
-1.3773e-12
2e-05
-1.47539e-12
2e-05
-1.57825e-12
2e-05
-1.68606e-12
2e-05
-1.79897e-12
2e-05
-1.91717e-12
2e-05
-2.04081e-12
2e-05
-2.17006e-12
2e-05
-2.3051e-12
2e-05
-2.44609e-12
2e-05
-2.5932e-12
2e-05
-2.74659e-12
2e-05
-2.90643e-12
2e-05
-3.07287e-12
2e-05
-3.24608e-12
2e-05
-3.42621e-12
2e-05
-3.6134e-12
2e-05
-3.8078e-12
2e-05
-4.00955e-12
2e-05
-4.21879e-12
2e-05
-4.43563e-12
2e-05
-4.6602e-12
2e-05
-4.8926e-12
2e-05
-5.13294e-12
2e-05
-5.3813e-12
2e-05
-5.63777e-12
2e-05
-5.9024e-12
2e-05
-6.17525e-12
2e-05
-6.45635e-12
2e-05
-6.74574e-12
2e-05
-7.0434e-12
2e-05
-7.34934e-12
2e-05
-7.66352e-12
2e-05
-7.98588e-12
2e-05
-8.31635e-12
2e-05
-8.65483e-12
2e-05
-9.0012e-12
2e-05
-9.3553e-12
2e-05
-9.71695e-12
2e-05
-1.00859e-11
2e-05
-1.0462e-11
2e-05
-1.08449e-11
2e-05
-1.12343e-11
2e-05
-1.16299e-11
2e-05
-1.20312e-11
2e-05
-1.24377e-11
2e-05
-1.2849e-11
2e-05
-1.32646e-11
2e-05
-1.36838e-11
2e-05
-1.41058e-11
2e-05
-1.45301e-11
2e-05
-1.49557e-11
2e-05
-1.53817e-11
2e-05
-1.58072e-11
2e-05
-1.6231e-11
2e-05
-1.66519e-11
2e-05
-1.70686e-11
2e-05
-1.74798e-11
2e-05
-1.78837e-11
2e-05
-1.82787e-11
2e-05
-1.86628e-11
2e-05
-1.90342e-11
2e-05
-1.93904e-11
2e-05
-1.97291e-11
2e-05
-2.00474e-11
2e-05
-2.03419e-11
2e-05
-2.06094e-11
2e-05
-2.08477e-11
2e-05
-2.10551e-11
2e-05
-2.12305e-11
2e-05
-2.1375e-11
2e-05
-2.14897e-11
2e-05
-2.15749e-11
2e-05
-2.16335e-11
-2.16793e-11
2e-05
-1.34865e-14
2e-05
-4.16476e-14
2e-05
-7.09641e-14
2e-05
-1.01371e-13
2e-05
-1.32941e-13
2e-05
-1.65807e-13
2e-05
-2.00123e-13
2e-05
-2.36048e-13
2e-05
-2.73739e-13
2e-05
-3.13348e-13
2e-05
-3.55022e-13
2e-05
-3.98907e-13
2e-05
-4.45145e-13
2e-05
-4.93879e-13
2e-05
-5.45249e-13
2e-05
-5.99397e-13
2e-05
-6.56464e-13
2e-05
-7.16594e-13
2e-05
-7.79929e-13
2e-05
-8.46617e-13
2e-05
-9.16803e-13
2e-05
-9.90636e-13
2e-05
-1.06827e-12
2e-05
-1.14985e-12
2e-05
-1.23553e-12
2e-05
-1.32547e-12
2e-05
-1.41982e-12
2e-05
-1.51874e-12
2e-05
-1.62239e-12
2e-05
-1.73093e-12
2e-05
-1.84452e-12
2e-05
-1.96331e-12
2e-05
-2.08747e-12
2e-05
-2.21716e-12
2e-05
-2.35252e-12
2e-05
-2.49373e-12
2e-05
-2.64093e-12
2e-05
-2.79428e-12
2e-05
-2.95393e-12
2e-05
-3.12003e-12
2e-05
-3.29272e-12
2e-05
-3.47214e-12
2e-05
-3.65842e-12
2e-05
-3.8517e-12
2e-05
-4.0521e-12
2e-05
-4.25973e-12
2e-05
-4.47471e-12
2e-05
-4.69713e-12
2e-05
-4.92709e-12
2e-05
-5.16467e-12
2e-05
-5.40994e-12
2e-05
-5.66296e-12
2e-05
-5.92377e-12
2e-05
-6.19242e-12
2e-05
-6.46892e-12
2e-05
-6.75327e-12
2e-05
-7.04547e-12
2e-05
-7.34547e-12
2e-05
-7.65324e-12
2e-05
-7.9687e-12
2e-05
-8.29177e-12
2e-05
-8.62232e-12
2e-05
-8.96023e-12
2e-05
-9.30532e-12
2e-05
-9.65741e-12
2e-05
-1.00163e-11
2e-05
-1.03817e-11
2e-05
-1.07533e-11
2e-05
-1.11309e-11
2e-05
-1.15141e-11
2e-05
-1.19024e-11
2e-05
-1.22955e-11
2e-05
-1.26928e-11
2e-05
-1.30939e-11
2e-05
-1.34981e-11
2e-05
-1.39048e-11
2e-05
-1.43133e-11
2e-05
-1.47227e-11
2e-05
-1.51324e-11
2e-05
-1.55413e-11
2e-05
-1.59485e-11
2e-05
-1.63527e-11
2e-05
-1.67529e-11
2e-05
-1.71477e-11
2e-05
-1.75357e-11
2e-05
-1.79152e-11
2e-05
-1.82846e-11
2e-05
-1.8642e-11
2e-05
-1.89852e-11
2e-05
-1.93118e-11
2e-05
-1.96194e-11
2e-05
-1.99053e-11
2e-05
-2.01678e-11
2e-05
-2.04055e-11
2e-05
-2.06172e-11
2e-05
-2.08026e-11
2e-05
-2.09609e-11
2e-05
-2.10896e-11
2e-05
-2.11851e-11
-2.12355e-11
2e-05
-1.25163e-14
2e-05
-3.89029e-14
2e-05
-6.66397e-14
2e-05
-9.56365e-14
2e-05
-1.25901e-13
2e-05
-1.57509e-13
2e-05
-1.90572e-13
2e-05
-2.25216e-13
2e-05
-2.61578e-13
2e-05
-2.99794e-13
2e-05
-3.39999e-13
2e-05
-3.8233e-13
2e-05
-4.26921e-13
2e-05
-4.73905e-13
2e-05
-5.23418e-13
2e-05
-5.75593e-13
2e-05
-6.30566e-13
2e-05
-6.88473e-13
2e-05
-7.49452e-13
2e-05
-8.1364e-13
2e-05
-8.81178e-13
2e-05
-9.52207e-13
2e-05
-1.02687e-12
2e-05
-1.10531e-12
2e-05
-1.18768e-12
2e-05
-1.27411e-12
2e-05
-1.36477e-12
2e-05
-1.45979e-12
2e-05
-1.55934e-12
2e-05
-1.66355e-12
2e-05
-1.77257e-12
2e-05
-1.88657e-12
2e-05
-2.00569e-12
2e-05
-2.13007e-12
2e-05
-2.25988e-12
2e-05
-2.39525e-12
2e-05
-2.53633e-12
2e-05
-2.68327e-12
2e-05
-2.8362e-12
2e-05
-2.99527e-12
2e-05
-3.16061e-12
2e-05
-3.33234e-12
2e-05
-3.5106e-12
2e-05
-3.6955e-12
2e-05
-3.88717e-12
2e-05
-4.0857e-12
2e-05
-4.2912e-12
2e-05
-4.50376e-12
2e-05
-4.72346e-12
2e-05
-4.95038e-12
2e-05
-5.18459e-12
2e-05
-5.42614e-12
2e-05
-5.67507e-12
2e-05
-5.93141e-12
2e-05
-6.19518e-12
2e-05
-6.46639e-12
2e-05
-6.74501e-12
2e-05
-7.03102e-12
2e-05
-7.32438e-12
2e-05
-7.62502e-12
2e-05
-7.93286e-12
2e-05
-8.2478e-12
2e-05
-8.56972e-12
2e-05
-8.89846e-12
2e-05
-9.23387e-12
2e-05
-9.57574e-12
2e-05
-9.92386e-12
2e-05
-1.0278e-11
2e-05
-1.06378e-11
2e-05
-1.10031e-11
2e-05
-1.13734e-11
2e-05
-1.17485e-11
2e-05
-1.21278e-11
2e-05
-1.2511e-11
2e-05
-1.28975e-11
2e-05
-1.32868e-11
2e-05
-1.36783e-11
2e-05
-1.40714e-11
2e-05
-1.44653e-11
2e-05
-1.48594e-11
2e-05
-1.52528e-11
2e-05
-1.56445e-11
2e-05
-1.60336e-11
2e-05
-1.6419e-11
2e-05
-1.67996e-11
2e-05
-1.7174e-11
2e-05
-1.75408e-11
2e-05
-1.78985e-11
2e-05
-1.82453e-11
2e-05
-1.85793e-11
2e-05
-1.88984e-11
2e-05
-1.92007e-11
2e-05
-1.94846e-11
2e-05
-1.97485e-11
2e-05
-1.99909e-11
2e-05
-2.02101e-11
2e-05
-2.04034e-11
2e-05
-2.05653e-11
2e-05
-2.06863e-11
-2.07435e-11
2e-05
-1.16727e-14
2e-05
-3.64272e-14
2e-05
-6.26359e-14
2e-05
-9.02159e-14
2e-05
-1.19145e-13
2e-05
-1.49461e-13
2e-05
-1.81239e-13
2e-05
-2.14582e-13
2e-05
-2.49602e-13
2e-05
-2.86419e-13
2e-05
-3.25156e-13
2e-05
-3.65938e-13
2e-05
-4.08891e-13
2e-05
-4.54139e-13
2e-05
-5.01811e-13
2e-05
-5.52033e-13
2e-05
-6.04934e-13
2e-05
-6.60643e-13
2e-05
-7.19291e-13
2e-05
-7.81009e-13
2e-05
-8.45931e-13
2e-05
-9.1419e-13
2e-05
-9.85922e-13
2e-05
-1.06126e-12
2e-05
-1.14035e-12
2e-05
-1.22333e-12
2e-05
-1.31034e-12
2e-05
-1.40151e-12
2e-05
-1.497e-12
2e-05
-1.59693e-12
2e-05
-1.70146e-12
2e-05
-1.81072e-12
2e-05
-1.92486e-12
2e-05
-2.04402e-12
2e-05
-2.16834e-12
2e-05
-2.29795e-12
2e-05
-2.43299e-12
2e-05
-2.5736e-12
2e-05
-2.71991e-12
2e-05
-2.87205e-12
2e-05
-3.03013e-12
2e-05
-3.19429e-12
2e-05
-3.36464e-12
2e-05
-3.54128e-12
2e-05
-3.72433e-12
2e-05
-3.91389e-12
2e-05
-4.11005e-12
2e-05
-4.31288e-12
2e-05
-4.52248e-12
2e-05
-4.7389e-12
2e-05
-4.96221e-12
2e-05
-5.19246e-12
2e-05
-5.42967e-12
2e-05
-5.67389e-12
2e-05
-5.92513e-12
2e-05
-6.18338e-12
2e-05
-6.44863e-12
2e-05
-6.72086e-12
2e-05
-7.00003e-12
2e-05
-7.28607e-12
2e-05
-7.57893e-12
2e-05
-7.87849e-12
2e-05
-8.18466e-12
2e-05
-8.49731e-12
2e-05
-8.81629e-12
2e-05
-9.14142e-12
2e-05
-9.47253e-12
2e-05
-9.80939e-12
2e-05
-1.01518e-11
2e-05
-1.04994e-11
2e-05
-1.0852e-11
2e-05
-1.12093e-11
2e-05
-1.15708e-11
2e-05
-1.19364e-11
2e-05
-1.23054e-11
2e-05
-1.26775e-11
2e-05
-1.30523e-11
2e-05
-1.34291e-11
2e-05
-1.38075e-11
2e-05
-1.41868e-11
2e-05
-1.45663e-11
2e-05
-1.49454e-11
2e-05
-1.53233e-11
2e-05
-1.56991e-11
2e-05
-1.60719e-11
2e-05
-1.64407e-11
2e-05
-1.68043e-11
2e-05
-1.71614e-11
2e-05
-1.75107e-11
2e-05
-1.78506e-11
2e-05
-1.81795e-11
2e-05
-1.84956e-11
2e-05
-1.87975e-11
2e-05
-1.90832e-11
2e-05
-1.93508e-11
2e-05
-1.95973e-11
2e-05
-1.98181e-11
2e-05
-2.00051e-11
2e-05
-2.01451e-11
-2.02178e-11
2e-05
-1.09204e-14
2e-05
-3.4169e-14
2e-05
-5.89165e-14
2e-05
-8.51001e-14
2e-05
-1.12687e-13
2e-05
-1.41692e-13
2e-05
-1.72167e-13
2e-05
-2.04191e-13
2e-05
-2.37858e-13
2e-05
-2.73271e-13
2e-05
-3.1054e-13
2e-05
-3.49778e-13
2e-05
-3.91102e-13
2e-05
-4.34628e-13
2e-05
-4.80476e-13
2e-05
-5.28766e-13
2e-05
-5.79619e-13
2e-05
-6.33157e-13
2e-05
-6.89503e-13
2e-05
-7.48784e-13
2e-05
-8.11123e-13
2e-05
-8.7665e-13
2e-05
-9.45492e-13
2e-05
-1.01778e-12
2e-05
-1.09364e-12
2e-05
-1.17321e-12
2e-05
-1.25662e-12
2e-05
-1.344e-12
2e-05
-1.43548e-12
2e-05
-1.53121e-12
2e-05
-1.6313e-12
2e-05
-1.73591e-12
2e-05
-1.84515e-12
2e-05
-1.95916e-12
2e-05
-2.07807e-12
2e-05
-2.20201e-12
2e-05
-2.33111e-12
2e-05
-2.46549e-12
2e-05
-2.60528e-12
2e-05
-2.75059e-12
2e-05
-2.90154e-12
2e-05
-3.05824e-12
2e-05
-3.2208e-12
2e-05
-3.38933e-12
2e-05
-3.56391e-12
2e-05
-3.74464e-12
2e-05
-3.9316e-12
2e-05
-4.12488e-12
2e-05
-4.32454e-12
2e-05
-4.53064e-12
2e-05
-4.74323e-12
2e-05
-4.96237e-12
2e-05
-5.18808e-12
2e-05
-5.42038e-12
2e-05
-5.6593e-12
2e-05
-5.90482e-12
2e-05
-6.15694e-12
2e-05
-6.41563e-12
2e-05
-6.68086e-12
2e-05
-6.95257e-12
2e-05
-7.2307e-12
2e-05
-7.51517e-12
2e-05
-7.80588e-12
2e-05
-8.10272e-12
2e-05
-8.40556e-12
2e-05
-8.71426e-12
2e-05
-9.02865e-12
2e-05
-9.34856e-12
2e-05
-9.67378e-12
2e-05
-1.00041e-11
2e-05
-1.03393e-11
2e-05
-1.06791e-11
2e-05
-1.10232e-11
2e-05
-1.13713e-11
2e-05
-1.17231e-11
2e-05
-1.20783e-11
2e-05
-1.24365e-11
2e-05
-1.27973e-11
2e-05
-1.31602e-11
2e-05
-1.35248e-11
2e-05
-1.38906e-11
2e-05
-1.4257e-11
2e-05
-1.46235e-11
2e-05
-1.49894e-11
2e-05
-1.5354e-11
2e-05
-1.57166e-11
2e-05
-1.60761e-11
2e-05
-1.64317e-11
2e-05
-1.67823e-11
2e-05
-1.71265e-11
2e-05
-1.7463e-11
2e-05
-1.77903e-11
2e-05
-1.81067e-11
2e-05
-1.84101e-11
2e-05
-1.86978e-11
2e-05
-1.89657e-11
2e-05
-1.92077e-11
2e-05
-1.94141e-11
2e-05
-1.95702e-11
-1.96594e-11
2e-05
-1.0237e-14
2e-05
-3.20889e-14
2e-05
-5.54468e-14
2e-05
-8.02704e-14
2e-05
-1.06527e-13
2e-05
-1.34219e-13
2e-05
-1.63383e-13
2e-05
-1.94079e-13
2e-05
-2.26385e-13
2e-05
-2.60391e-13
2e-05
-2.96193e-13
2e-05
-3.33894e-13
2e-05
-3.73599e-13
2e-05
-4.15418e-13
2e-05
-4.59461e-13
2e-05
-5.0584e-13
2e-05
-5.5467e-13
2e-05
-6.06065e-13
2e-05
-6.60142e-13
2e-05
-7.1702e-13
2e-05
-7.76816e-13
2e-05
-8.39652e-13
2e-05
-9.05648e-13
2e-05
-9.74926e-13
2e-05
-1.04761e-12
2e-05
-1.12383e-12
2e-05
-1.2037e-12
2e-05
-1.28734e-12
2e-05
-1.3749e-12
2e-05
-1.46648e-12
2e-05
-1.56222e-12
2e-05
-1.66224e-12
2e-05
-1.76666e-12
2e-05
-1.87562e-12
2e-05
-1.98922e-12
2e-05
-2.10759e-12
2e-05
-2.23085e-12
2e-05
-2.35911e-12
2e-05
-2.49249e-12
2e-05
-2.6311e-12
2e-05
-2.77505e-12
2e-05
-2.92443e-12
2e-05
-3.07935e-12
2e-05
-3.2399e-12
2e-05
-3.40617e-12
2e-05
-3.57824e-12
2e-05
-3.75619e-12
2e-05
-3.94009e-12
2e-05
-4.13e-12
2e-05
-4.32597e-12
2e-05
-4.52806e-12
2e-05
-4.7363e-12
2e-05
-4.95073e-12
2e-05
-5.17135e-12
2e-05
-5.39819e-12
2e-05
-5.63124e-12
2e-05
-5.87049e-12
2e-05
-6.11591e-12
2e-05
-6.36748e-12
2e-05
-6.62515e-12
2e-05
-6.88886e-12
2e-05
-7.15854e-12
2e-05
-7.4341e-12
2e-05
-7.71545e-12
2e-05
-8.00249e-12
2e-05
-8.29508e-12
2e-05
-8.5931e-12
2e-05
-8.89639e-12
2e-05
-9.2048e-12
2e-05
-9.51814e-12
2e-05
-9.83623e-12
2e-05
-1.01589e-11
2e-05
-1.04858e-11
2e-05
-1.08169e-11
2e-05
-1.11518e-11
2e-05
-1.14903e-11
2e-05
-1.18322e-11
2e-05
-1.2177e-11
2e-05
-1.25246e-11
2e-05
-1.28746e-11
2e-05
-1.32267e-11
2e-05
-1.35804e-11
2e-05
-1.39353e-11
2e-05
-1.4291e-11
2e-05
-1.46471e-11
2e-05
-1.50028e-11
2e-05
-1.53575e-11
2e-05
-1.57106e-11
2e-05
-1.60611e-11
2e-05
-1.64079e-11
2e-05
-1.67499e-11
2e-05
-1.70856e-11
2e-05
-1.74132e-11
2e-05
-1.77303e-11
2e-05
-1.80335e-11
2e-05
-1.83179e-11
2e-05
-1.85763e-11
2e-05
-1.87978e-11
2e-05
-1.89672e-11
-1.9068e-11
2e-05
-9.60789e-15
2e-05
-3.01576e-14
2e-05
-5.21965e-14
2e-05
-7.57052e-14
2e-05
-1.00656e-13
2e-05
-1.27045e-13
2e-05
-1.549e-13
2e-05
-1.84268e-13
2e-05
-2.15213e-13
2e-05
-2.47813e-13
2e-05
-2.82153e-13
2e-05
-3.18325e-13
2e-05
-3.56424e-13
2e-05
-3.96552e-13
2e-05
-4.38809e-13
2e-05
-4.83301e-13
2e-05
-5.30135e-13
2e-05
-5.79418e-13
2e-05
-6.3126e-13
2e-05
-6.85772e-13
2e-05
-7.43066e-13
2e-05
-8.03255e-13
2e-05
-8.66453e-13
2e-05
-9.32776e-13
2e-05
-1.00234e-12
2e-05
-1.07526e-12
2e-05
-1.15165e-12
2e-05
-1.23164e-12
2e-05
-1.31533e-12
2e-05
-1.40285e-12
2e-05
-1.49432e-12
2e-05
-1.58984e-12
2e-05
-1.68954e-12
2e-05
-1.79353e-12
2e-05
-1.90192e-12
2e-05
-2.01483e-12
2e-05
-2.13236e-12
2e-05
-2.25463e-12
2e-05
-2.38173e-12
2e-05
-2.51378e-12
2e-05
-2.65086e-12
2e-05
-2.79307e-12
2e-05
-2.9405e-12
2e-05
-3.09324e-12
2e-05
-3.25137e-12
2e-05
-3.41496e-12
2e-05
-3.58409e-12
2e-05
-3.75881e-12
2e-05
-3.93917e-12
2e-05
-4.12524e-12
2e-05
-4.31705e-12
2e-05
-4.51464e-12
2e-05
-4.71802e-12
2e-05
-4.92723e-12
2e-05
-5.14226e-12
2e-05
-5.36311e-12
2e-05
-5.58977e-12
2e-05
-5.82223e-12
2e-05
-6.06045e-12
2e-05
-6.30439e-12
2e-05
-6.554e-12
2e-05
-6.80922e-12
2e-05
-7.06998e-12
2e-05
-7.3362e-12
2e-05
-7.60778e-12
2e-05
-7.88464e-12
2e-05
-8.16665e-12
2e-05
-8.4537e-12
2e-05
-8.74566e-12
2e-05
-9.0424e-12
2e-05
-9.34377e-12
2e-05
-9.64962e-12
2e-05
-9.95979e-12
2e-05
-1.02741e-11
2e-05
-1.05924e-11
2e-05
-1.09146e-11
2e-05
-1.12403e-11
2e-05
-1.15695e-11
2e-05
-1.1902e-11
2e-05
-1.22375e-11
2e-05
-1.25758e-11
2e-05
-1.29167e-11
2e-05
-1.32599e-11
2e-05
-1.36052e-11
2e-05
-1.39521e-11
2e-05
-1.43004e-11
2e-05
-1.46496e-11
2e-05
-1.4999e-11
2e-05
-1.5348e-11
2e-05
-1.56958e-11
2e-05
-1.60411e-11
2e-05
-1.63826e-11
2e-05
-1.67183e-11
2e-05
-1.70455e-11
2e-05
-1.73602e-11
2e-05
-1.7657e-11
2e-05
-1.79278e-11
2e-05
-1.81609e-11
2e-05
-1.83405e-11
-1.84485e-11
2e-05
-9.02328e-15
2e-05
-2.83529e-14
2e-05
-4.91402e-14
2e-05
-7.13833e-14
2e-05
-9.50608e-14
2e-05
-1.20168e-13
2e-05
-1.46726e-13
2e-05
-1.74774e-13
2e-05
-2.04365e-13
2e-05
-2.35566e-13
2e-05
-2.68453e-13
2e-05
-3.03106e-13
2e-05
-3.39614e-13
2e-05
-3.78067e-13
2e-05
-4.18561e-13
2e-05
-4.61191e-13
2e-05
-5.06057e-13
2e-05
-5.53261e-13
2e-05
-6.02904e-13
2e-05
-6.5509e-13
2e-05
-7.09925e-13
2e-05
-7.67515e-13
2e-05
-8.27967e-13
2e-05
-8.9139e-13
2e-05
-9.57891e-13
2e-05
-1.02758e-12
2e-05
-1.10057e-12
2e-05
-1.17696e-12
2e-05
-1.25687e-12
2e-05
-1.34041e-12
2e-05
-1.42769e-12
2e-05
-1.51881e-12
2e-05
-1.61388e-12
2e-05
-1.71301e-12
2e-05
-1.81631e-12
2e-05
-1.92387e-12
2e-05
-2.0358e-12
2e-05
-2.1522e-12
2e-05
-2.27316e-12
2e-05
-2.39879e-12
2e-05
-2.52915e-12
2e-05
-2.66435e-12
2e-05
-2.80447e-12
2e-05
-2.94958e-12
2e-05
-3.09975e-12
2e-05
-3.25506e-12
2e-05
-3.41556e-12
2e-05
-3.58131e-12
2e-05
-3.75236e-12
2e-05
-3.92876e-12
2e-05
-4.11053e-12
2e-05
-4.29772e-12
2e-05
-4.49033e-12
2e-05
-4.68838e-12
2e-05
-4.89189e-12
2e-05
-5.10084e-12
2e-05
-5.31523e-12
2e-05
-5.53504e-12
2e-05
-5.76023e-12
2e-05
-5.99079e-12
2e-05
-6.22665e-12
2e-05
-6.46778e-12
2e-05
-6.7141e-12
2e-05
-6.96557e-12
2e-05
-7.22209e-12
2e-05
-7.4836e-12
2e-05
-7.75e-12
2e-05
-8.02121e-12
2e-05
-8.29712e-12
2e-05
-8.57766e-12
2e-05
-8.8627e-12
2e-05
-9.15215e-12
2e-05
-9.4459e-12
2e-05
-9.74386e-12
2e-05
-1.00459e-11
2e-05
-1.0352e-11
2e-05
-1.06619e-11
2e-05
-1.09757e-11
2e-05
-1.12932e-11
2e-05
-1.16143e-11
2e-05
-1.19389e-11
2e-05
-1.22669e-11
2e-05
-1.25983e-11
2e-05
-1.29328e-11
2e-05
-1.32702e-11
2e-05
-1.36105e-11
2e-05
-1.39532e-11
2e-05
-1.4298e-11
2e-05
-1.46442e-11
2e-05
-1.49912e-11
2e-05
-1.53378e-11
2e-05
-1.56827e-11
2e-05
-1.60236e-11
2e-05
-1.63576e-11
2e-05
-1.66805e-11
2e-05
-1.69861e-11
2e-05
-1.72658e-11
2e-05
-1.75074e-11
2e-05
-1.76944e-11
-1.7807e-11
2e-05
-8.47639e-15
2e-05
-2.66585e-14
2e-05
-4.62573e-14
2e-05
-6.72855e-14
2e-05
-8.9728e-14
2e-05
-1.13582e-13
2e-05
-1.38863e-13
2e-05
-1.65605e-13
2e-05
-1.93855e-13
2e-05
-2.23669e-13
2e-05
-2.55115e-13
2e-05
-2.88265e-13
2e-05
-3.23199e-13
2e-05
-3.59999e-13
2e-05
-3.98752e-13
2e-05
-4.39548e-13
2e-05
-4.82478e-13
2e-05
-5.27637e-13
2e-05
-5.75119e-13
2e-05
-6.25022e-13
2e-05
-6.77445e-13
2e-05
-7.32486e-13
2e-05
-7.90246e-13
2e-05
-8.50825e-13
2e-05
-9.14327e-13
2e-05
-9.80852e-13
2e-05
-1.0505e-12
2e-05
-1.12338e-12
2e-05
-1.1996e-12
2e-05
-1.27924e-12
2e-05
-1.36242e-12
2e-05
-1.44923e-12
2e-05
-1.53978e-12
2e-05
-1.63417e-12
2e-05
-1.73248e-12
2e-05
-1.83482e-12
2e-05
-1.94129e-12
2e-05
-2.05196e-12
2e-05
-2.16693e-12
2e-05
-2.28628e-12
2e-05
-2.4101e-12
2e-05
-2.53846e-12
2e-05
-2.67143e-12
2e-05
-2.8091e-12
2e-05
-2.95151e-12
2e-05
-3.09874e-12
2e-05
-3.25084e-12
2e-05
-3.40785e-12
2e-05
-3.56982e-12
2e-05
-3.73679e-12
2e-05
-3.90879e-12
2e-05
-4.08584e-12
2e-05
-4.26796e-12
2e-05
-4.45516e-12
2e-05
-4.64745e-12
2e-05
-4.84481e-12
2e-05
-5.04725e-12
2e-05
-5.25475e-12
2e-05
-5.46728e-12
2e-05
-5.6848e-12
2e-05
-5.90729e-12
2e-05
-6.13471e-12
2e-05
-6.36699e-12
2e-05
-6.6041e-12
2e-05
-6.84596e-12
2e-05
-7.09253e-12
2e-05
-7.34375e-12
2e-05
-7.59953e-12
2e-05
-7.85983e-12
2e-05
-8.12458e-12
2e-05
-8.39371e-12
2e-05
-8.66717e-12
2e-05
-8.94491e-12
2e-05
-9.22687e-12
2e-05
-9.51302e-12
2e-05
-9.80334e-12
2e-05
-1.00978e-11
2e-05
-1.03964e-11
2e-05
-1.06991e-11
2e-05
-1.10059e-11
2e-05
-1.13169e-11
2e-05
-1.1632e-11
2e-05
-1.19513e-11
2e-05
-1.22748e-11
2e-05
-1.26023e-11
2e-05
-1.29339e-11
2e-05
-1.32694e-11
2e-05
-1.36085e-11
2e-05
-1.39506e-11
2e-05
-1.42953e-11
2e-05
-1.46413e-11
2e-05
-1.49872e-11
2e-05
-1.53309e-11
2e-05
-1.5669e-11
2e-05
-1.59969e-11
2e-05
-1.63083e-11
2e-05
-1.6594e-11
2e-05
-1.68413e-11
2e-05
-1.70333e-11
-1.7149e-11
2e-05
-7.96233e-15
2e-05
-2.50616e-14
2e-05
-4.35311e-14
2e-05
-6.33947e-14
2e-05
-8.46434e-14
2e-05
-1.07276e-13
2e-05
-1.31307e-13
2e-05
-1.56765e-13
2e-05
-1.83692e-13
2e-05
-2.12137e-13
2e-05
-2.4216e-13
2e-05
-2.73826e-13
2e-05
-3.07207e-13
2e-05
-3.42377e-13
2e-05
-3.79416e-13
2e-05
-4.18407e-13
2e-05
-4.59434e-13
2e-05
-5.02584e-13
2e-05
-5.47946e-13
2e-05
-5.9561e-13
2e-05
-6.45669e-13
2e-05
-6.98213e-13
2e-05
-7.53338e-13
2e-05
-8.11136e-13
2e-05
-8.71704e-13
2e-05
-9.35137e-13
2e-05
-1.00153e-12
2e-05
-1.07098e-12
2e-05
-1.14357e-12
2e-05
-1.21941e-12
2e-05
-1.29859e-12
2e-05
-1.38121e-12
2e-05
-1.46735e-12
2e-05
-1.5571e-12
2e-05
-1.65056e-12
2e-05
-1.7478e-12
2e-05
-1.84893e-12
2e-05
-1.95402e-12
2e-05
-2.06315e-12
2e-05
-2.17639e-12
2e-05
-2.29383e-12
2e-05
-2.41553e-12
2e-05
-2.54155e-12
2e-05
-2.67197e-12
2e-05
-2.80683e-12
2e-05
-2.9462e-12
2e-05
-3.09012e-12
2e-05
-3.23863e-12
2e-05
-3.39177e-12
2e-05
-3.54958e-12
2e-05
-3.71207e-12
2e-05
-3.87927e-12
2e-05
-4.05119e-12
2e-05
-4.22785e-12
2e-05
-4.40923e-12
2e-05
-4.59535e-12
2e-05
-4.78619e-12
2e-05
-4.98173e-12
2e-05
-5.18195e-12
2e-05
-5.38683e-12
2e-05
-5.59634e-12
2e-05
-5.81043e-12
2e-05
-6.02909e-12
2e-05
-6.25226e-12
2e-05
-6.4799e-12
2e-05
-6.71197e-12
2e-05
-6.94842e-12
2e-05
-7.18923e-12
2e-05
-7.43435e-12
2e-05
-7.68375e-12
2e-05
-7.93741e-12
2e-05
-8.19531e-12
2e-05
-8.45744e-12
2e-05
-8.72381e-12
2e-05
-8.99443e-12
2e-05
-9.26935e-12
2e-05
-9.5486e-12
2e-05
-9.83225e-12
2e-05
-1.01204e-11
2e-05
-1.04131e-11
2e-05
-1.07105e-11
2e-05
-1.10127e-11
2e-05
-1.13199e-11
2e-05
-1.1632e-11
2e-05
-1.19493e-11
2e-05
-1.22717e-11
2e-05
-1.25992e-11
2e-05
-1.29315e-11
2e-05
-1.32684e-11
2e-05
-1.36092e-11
2e-05
-1.39529e-11
2e-05
-1.42979e-11
2e-05
-1.46419e-11
2e-05
-1.49816e-11
2e-05
-1.53121e-11
2e-05
-1.56266e-11
2e-05
-1.59157e-11
2e-05
-1.61664e-11
2e-05
-1.63615e-11
-1.64789e-11
2e-05
-7.47744e-15
2e-05
-2.35526e-14
2e-05
-4.09479e-14
2e-05
-5.96965e-14
2e-05
-7.97941e-14
2e-05
-1.01241e-13
2e-05
-1.24052e-13
2e-05
-1.48254e-13
2e-05
-1.73881e-13
2e-05
-2.00979e-13
2e-05
-2.29602e-13
2e-05
-2.59806e-13
2e-05
-2.91658e-13
2e-05
-3.25225e-13
2e-05
-3.60579e-13
2e-05
-3.97797e-13
2e-05
-4.36956e-13
2e-05
-4.78137e-13
2e-05
-5.21421e-13
2e-05
-5.66893e-13
2e-05
-6.14637e-13
2e-05
-6.6474e-13
2e-05
-7.17288e-13
2e-05
-7.7237e-13
2e-05
-8.30073e-13
2e-05
-8.90485e-13
2e-05
-9.53696e-13
2e-05
-1.01979e-12
2e-05
-1.08886e-12
2e-05
-1.161e-12
2e-05
-1.23628e-12
2e-05
-1.3148e-12
2e-05
-1.39664e-12
2e-05
-1.48188e-12
2e-05
-1.57061e-12
2e-05
-1.6629e-12
2e-05
-1.75884e-12
2e-05
-1.85849e-12
2e-05
-1.96194e-12
2e-05
-2.06924e-12
2e-05
-2.18047e-12
2e-05
-2.2957e-12
2e-05
-2.41497e-12
2e-05
-2.53834e-12
2e-05
-2.66588e-12
2e-05
-2.79761e-12
2e-05
-2.93359e-12
2e-05
-3.07384e-12
2e-05
-3.21841e-12
2e-05
-3.36732e-12
2e-05
-3.52059e-12
2e-05
-3.67824e-12
2e-05
-3.84028e-12
2e-05
-4.0067e-12
2e-05
-4.17753e-12
2e-05
-4.35274e-12
2e-05
-4.53233e-12
2e-05
-4.71628e-12
2e-05
-4.90458e-12
2e-05
-5.09721e-12
2e-05
-5.29413e-12
2e-05
-5.49534e-12
2e-05
-5.70078e-12
2e-05
-5.91045e-12
2e-05
-6.1243e-12
2e-05
-6.34232e-12
2e-05
-6.56449e-12
2e-05
-6.79077e-12
2e-05
-7.02118e-12
2e-05
-7.25569e-12
2e-05
-7.49433e-12
2e-05
-7.73711e-12
2e-05
-7.98407e-12
2e-05
-8.23526e-12
2e-05
-8.49074e-12
2e-05
-8.75062e-12
2e-05
-9.015e-12
2e-05
-9.28401e-12
2e-05
-9.55781e-12
2e-05
-9.83658e-12
2e-05
-1.01205e-11
2e-05
-1.04098e-11
2e-05
-1.07047e-11
2e-05
-1.10053e-11
2e-05
-1.13119e-11
2e-05
-1.16246e-11
2e-05
-1.19433e-11
2e-05
-1.22681e-11
2e-05
-1.25986e-11
2e-05
-1.29343e-11
2e-05
-1.3274e-11
2e-05
-1.36163e-11
2e-05
-1.39587e-11
2e-05
-1.42977e-11
2e-05
-1.46284e-11
2e-05
-1.49437e-11
2e-05
-1.5234e-11
2e-05
-1.54862e-11
2e-05
-1.56828e-11
-1.5801e-11
2e-05
-7.01895e-15
2e-05
-2.21236e-14
2e-05
-3.84969e-14
2e-05
-5.61784e-14
2e-05
-7.51681e-14
2e-05
-9.54685e-14
2e-05
-1.17094e-13
2e-05
-1.40068e-13
2e-05
-1.64424e-13
2e-05
-1.90202e-13
2e-05
-2.17449e-13
2e-05
-2.46219e-13
2e-05
-2.76569e-13
2e-05
-3.08562e-13
2e-05
-3.42264e-13
2e-05
-3.77743e-13
2e-05
-4.15072e-13
2e-05
-4.54324e-13
2e-05
-4.95575e-13
2e-05
-5.38903e-13
2e-05
-5.84386e-13
2e-05
-6.32104e-13
2e-05
-6.82137e-13
2e-05
-7.34568e-13
2e-05
-7.89476e-13
2e-05
-8.46945e-13
2e-05
-9.07055e-13
2e-05
-9.69889e-13
2e-05
-1.03553e-12
2e-05
-1.10405e-12
2e-05
-1.17554e-12
2e-05
-1.25008e-12
2e-05
-1.32774e-12
2e-05
-1.40859e-12
2e-05
-1.49272e-12
2e-05
-1.5802e-12
2e-05
-1.67109e-12
2e-05
-1.76547e-12
2e-05
-1.8634e-12
2e-05
-1.96494e-12
2e-05
-2.07015e-12
2e-05
-2.17909e-12
2e-05
-2.2918e-12
2e-05
-2.40835e-12
2e-05
-2.52877e-12
2e-05
-2.6531e-12
2e-05
-2.78139e-12
2e-05
-2.91365e-12
2e-05
-3.04992e-12
2e-05
-3.19021e-12
2e-05
-3.33455e-12
2e-05
-3.48295e-12
2e-05
-3.63542e-12
2e-05
-3.79195e-12
2e-05
-3.95255e-12
2e-05
-4.11721e-12
2e-05
-4.28592e-12
2e-05
-4.45867e-12
2e-05
-4.63544e-12
2e-05
-4.81622e-12
2e-05
-5.00099e-12
2e-05
-5.18972e-12
2e-05
-5.3824e-12
2e-05
-5.57902e-12
2e-05
-5.77954e-12
2e-05
-5.98398e-12
2e-05
-6.19231e-12
2e-05
-6.40455e-12
2e-05
-6.62071e-12
2e-05
-6.84082e-12
2e-05
-7.0649e-12
2e-05
-7.29302e-12
2e-05
-7.52526e-12
2e-05
-7.76169e-12
2e-05
-8.00245e-12
2e-05
-8.24767e-12
2e-05
-8.49752e-12
2e-05
-8.75219e-12
2e-05
-9.0119e-12
2e-05
-9.2769e-12
2e-05
-9.54745e-12
2e-05
-9.82385e-12
2e-05
-1.01064e-11
2e-05
-1.03953e-11
2e-05
-1.06909e-11
2e-05
-1.09934e-11
2e-05
-1.13028e-11
2e-05
-1.16192e-11
2e-05
-1.19423e-11
2e-05
-1.22716e-11
2e-05
-1.2606e-11
2e-05
-1.29439e-11
2e-05
-1.32829e-11
2e-05
-1.36194e-11
2e-05
-1.39483e-11
2e-05
-1.42625e-11
2e-05
-1.45521e-11
2e-05
-1.48041e-11
2e-05
-1.50008e-11
-1.51189e-11
2e-05
-6.58464e-15
2e-05
-2.07686e-14
2e-05
-3.61686e-14
2e-05
-5.28296e-14
2e-05
-7.07546e-14
2e-05
-8.99477e-14
2e-05
-1.10423e-13
2e-05
-1.32204e-13
2e-05
-1.55319e-13
2e-05
-1.79807e-13
2e-05
-2.05709e-13
2e-05
-2.33074e-13
2e-05
-2.61953e-13
2e-05
-2.92404e-13
2e-05
-3.24487e-13
2e-05
-3.58265e-13
2e-05
-3.93803e-13
2e-05
-4.3117e-13
2e-05
-4.70435e-13
2e-05
-5.11669e-13
2e-05
-5.54946e-13
2e-05
-6.00338e-13
2e-05
-6.47919e-13
2e-05
-6.97766e-13
2e-05
-7.49953e-13
2e-05
-8.04556e-13
2e-05
-8.6165e-13
2e-05
-9.2131e-13
2e-05
-9.83612e-13
2e-05
-1.04863e-12
2e-05
-1.11643e-12
2e-05
-1.1871e-12
2e-05
-1.2607e-12
2e-05
-1.3373e-12
2e-05
-1.41697e-12
2e-05
-1.49977e-12
2e-05
-1.58577e-12
2e-05
-1.67503e-12
2e-05
-1.76761e-12
2e-05
-1.86356e-12
2e-05
-1.96294e-12
2e-05
-2.06579e-12
2e-05
-2.17216e-12
2e-05
-2.2821e-12
2e-05
-2.39564e-12
2e-05
-2.51281e-12
2e-05
-2.63365e-12
2e-05
-2.75818e-12
2e-05
-2.88642e-12
2e-05
-3.01839e-12
2e-05
-3.1541e-12
2e-05
-3.29356e-12
2e-05
-3.43678e-12
2e-05
-3.58376e-12
2e-05
-3.73449e-12
2e-05
-3.88896e-12
2e-05
-4.04717e-12
2e-05
-4.20911e-12
2e-05
-4.37476e-12
2e-05
-4.54411e-12
2e-05
-4.71715e-12
2e-05
-4.89385e-12
2e-05
-5.07422e-12
2e-05
-5.25824e-12
2e-05
-5.44591e-12
2e-05
-5.63723e-12
2e-05
-5.83222e-12
2e-05
-6.0309e-12
2e-05
-6.2333e-12
2e-05
-6.43948e-12
2e-05
-6.64949e-12
2e-05
-6.86343e-12
2e-05
-7.08139e-12
2e-05
-7.30352e-12
2e-05
-7.52997e-12
2e-05
-7.76093e-12
2e-05
-7.99661e-12
2e-05
-8.23725e-12
2e-05
-8.48314e-12
2e-05
-8.73458e-12
2e-05
-8.9919e-12
2e-05
-9.25544e-12
2e-05
-9.52557e-12
2e-05
-9.80265e-12
2e-05
-1.0087e-11
2e-05
-1.03789e-11
2e-05
-1.06784e-11
2e-05
-1.09857e-11
2e-05
-1.13006e-11
2e-05
-1.16224e-11
2e-05
-1.19502e-11
2e-05
-1.22823e-11
2e-05
-1.26164e-11
2e-05
-1.29487e-11
2e-05
-1.32741e-11
2e-05
-1.35854e-11
2e-05
-1.38727e-11
2e-05
-1.4123e-11
2e-05
-1.43187e-11
-1.44362e-11
2e-05
-6.17276e-15
2e-05
-1.94823e-14
2e-05
-3.39556e-14
2e-05
-4.96409e-14
2e-05
-6.65439e-14
2e-05
-8.467e-14
2e-05
-1.04033e-13
2e-05
-1.24656e-13
2e-05
-1.46565e-13
2e-05
-1.69795e-13
2e-05
-1.94384e-13
2e-05
-2.20376e-13
2e-05
-2.47818e-13
2e-05
-2.76763e-13
2e-05
-3.07264e-13
2e-05
-3.39379e-13
2e-05
-3.73169e-13
2e-05
-4.08696e-13
2e-05
-4.46023e-13
2e-05
-4.85216e-13
2e-05
-5.26342e-13
2e-05
-5.69468e-13
2e-05
-6.14663e-13
2e-05
-6.61997e-13
2e-05
-7.11537e-13
2e-05
-7.63354e-13
2e-05
-8.17516e-13
2e-05
-8.74094e-13
2e-05
-9.33155e-13
2e-05
-9.94766e-13
2e-05
-1.059e-12
2e-05
-1.12591e-12
2e-05
-1.19557e-12
2e-05
-1.26805e-12
2e-05
-1.34339e-12
2e-05
-1.42167e-12
2e-05
-1.50293e-12
2e-05
-1.58724e-12
2e-05
-1.67464e-12
2e-05
-1.76519e-12
2e-05
-1.85892e-12
2e-05
-1.95589e-12
2e-05
-2.05613e-12
2e-05
-2.15968e-12
2e-05
-2.26657e-12
2e-05
-2.37682e-12
2e-05
-2.49048e-12
2e-05
-2.60754e-12
2e-05
-2.72804e-12
2e-05
-2.85197e-12
2e-05
-2.97936e-12
2e-05
-3.11021e-12
2e-05
-3.24452e-12
2e-05
-3.38228e-12
2e-05
-3.5235e-12
2e-05
-3.66816e-12
2e-05
-3.81626e-12
2e-05