/*--------------------------------*- C++ -*----------------------------------*\
  =========                 |
  \\      /  F ield         | OpenFOAM: The Open Source CFD Toolbox
   \\    /   O peration     | Website:  https://openfoam.org
    \\  /    A nd           | Version:  11
     \\/     M anipulation  |
\*---------------------------------------------------------------------------*/
FoamFile
{
    format      ascii;
    class       volScalarField;
    location    "100";
    object      nut;
}
// * * * * * * * * * * * * * * * * * * * * * * * * * * * * * * * * * * * * * //

dimensions      [0 2 -1 0 0 0 0];

internalField   nonuniform List<scalar> 
10000
(
0.000977063
0.00093652
0.000899307
0.000865112
0.000833661
0.000804716
0.000778071
0.000753551
0.000731013
0.000710342
0.00069145
0.000674279
0.000658797
0.000644995
0.000632887
0.000622508
0.000613905
0.000607134
0.000602256
0.000599321
0.000598371
0.000599422
0.000602463
0.000607449
0.000614299
0.000622898
0.000633094
0.000644712
0.00065755
0.000671396
0.00068603
0.000701234
0.000716796
0.000732518
0.00074822
0.000763743
0.000778946
0.00079371
0.000807936
0.000821544
0.000834475
0.000846685
0.000858147
0.000868849
0.000878792
0.000887983
0.000896439
0.000904185
0.000911248
0.000917661
0.000923459
0.000928679
0.000933358
0.000937536
0.000941249
0.000944534
0.000947429
0.000949966
0.00095218
0.000954101
0.000955759
0.00095718
0.000958391
0.000959414
0.000960271
0.000960982
0.000961565
0.000962035
0.000962407
0.000962695
0.000962909
0.000963062
0.000963161
0.000963214
0.000963231
0.000963215
0.000963174
0.000963111
0.000963032
0.000962939
0.000962837
0.000962727
0.000962612
0.000962494
0.000962376
0.000962258
0.000962141
0.000962029
0.00096192
0.000961817
0.00096172
0.00096163
0.000961548
0.000961475
0.00096141
0.000961356
0.000961312
0.000961279
0.000961257
0.000961247
0.000977064
0.000936523
0.000899311
0.000865117
0.000833668
0.000804724
0.000778081
0.000753562
0.000731025
0.000710355
0.000691464
0.000674295
0.000658813
0.000645011
0.000632904
0.000622524
0.00061392
0.000607148
0.000602267
0.00059933
0.000598375
0.000599421
0.000602456
0.000607435
0.000614279
0.00062287
0.00063306
0.00064467
0.000657503
0.000671344
0.000685973
0.000701174
0.000716735
0.000732458
0.000748162
0.000763687
0.000778891
0.000793656
0.000807882
0.00082149
0.000834422
0.000846633
0.000858099
0.000868805
0.000878751
0.000887946
0.000896407
0.000904156
0.000911223
0.000917639
0.000923441
0.000928664
0.000933346
0.000937526
0.000941241
0.000944529
0.000947425
0.000949964
0.00095218
0.000954102
0.000955761
0.000957183
0.000958395
0.000959418
0.000960276
0.000960987
0.00096157
0.00096204
0.000962413
0.000962701
0.000962915
0.000963067
0.000963166
0.00096322
0.000963236
0.000963221
0.000963179
0.000963116
0.000963037
0.000962944
0.000962841
0.000962731
0.000962616
0.000962498
0.000962379
0.000962261
0.000962145
0.000962032
0.000961923
0.000961819
0.000961722
0.000961632
0.00096155
0.000961477
0.000961412
0.000961358
0.000961314
0.000961281
0.000961259
0.000961249
0.000977065
0.000936527
0.000899318
0.000865128
0.000833681
0.00080474
0.000778099
0.000753583
0.000731048
0.00071038
0.000691491
0.000674323
0.000658842
0.00064504
0.000632932
0.000622551
0.000613944
0.000607168
0.000602281
0.000599336
0.000598372
0.000599406
0.000602428
0.000607394
0.000614223
0.000622799
0.000632974
0.00064457
0.000657389
0.000671219
0.000685839
0.000701033
0.000716588
0.000732308
0.000748012
0.000763537
0.000778743
0.00079351
0.000807739
0.000821352
0.000834288
0.000846506
0.000857978
0.000868692
0.000878646
0.000887849
0.000896318
0.000904075
0.00091115
0.000917573
0.000923382
0.000928611
0.000933299
0.000937485
0.000941205
0.000944498
0.000947399
0.000949942
0.000952161
0.000954086
0.000955748
0.000957173
0.000958386
0.000959412
0.000960272
0.000960984
0.000961568
0.00096204
0.000962413
0.000962702
0.000962917
0.00096307
0.000963169
0.000963223
0.00096324
0.000963224
0.000963183
0.00096312
0.000963041
0.000962948
0.000962845
0.000962735
0.00096262
0.000962502
0.000962383
0.000962265
0.000962149
0.000962035
0.000961926
0.000961823
0.000961726
0.000961636
0.000961553
0.00096148
0.000961415
0.000961361
0.000961317
0.000961284
0.000961262
0.000961251
0.000977067
0.000936533
0.000899328
0.000865142
0.000833699
0.000804762
0.000778125
0.000753613
0.000731081
0.000710416
0.000691529
0.000674363
0.000658883
0.000645082
0.000632973
0.00062259
0.000613978
0.000607195
0.000602299
0.000599343
0.000598365
0.000599383
0.000602386
0.000607331
0.000614138
0.000622693
0.000632845
0.000644421
0.000657221
0.000671033
0.000685639
0.000700821
0.000716368
0.000732082
0.000747783
0.000763307
0.000778515
0.000793286
0.00080752
0.00082114
0.000834084
0.000846312
0.000857794
0.000868519
0.000878485
0.000887699
0.00089618
0.000903948
0.000911034
0.000917468
0.000923287
0.000928526
0.000933223
0.000937417
0.000941145
0.000944445
0.000947352
0.000949901
0.000952126
0.000954056
0.000955722
0.000957151
0.000958368
0.000959397
0.000960259
0.000960975
0.000961561
0.000962034
0.000962409
0.000962699
0.000962916
0.000963069
0.00096317
0.000963224
0.000963241
0.000963227
0.000963186
0.000963123
0.000963044
0.000962952
0.000962849
0.000962739
0.000962624
0.000962507
0.000962388
0.000962269
0.000962153
0.00096204
0.000961931
0.000961827
0.00096173
0.00096164
0.000961558
0.000961484
0.00096142
0.000961365
0.000961321
0.000961288
0.000961266
0.000961256
0.000977069
0.000936539
0.00089934
0.000865159
0.000833722
0.00080479
0.000778157
0.00075365
0.000731123
0.000710462
0.000691579
0.000674415
0.000658937
0.000645137
0.000633027
0.00062264
0.000614023
0.000607232
0.000602324
0.000599353
0.000598358
0.000599354
0.000602334
0.000607253
0.000614032
0.000622558
0.000632683
0.000644231
0.000657006
0.000670796
0.000685382
0.000700548
0.000716084
0.00073179
0.000747486
0.00076301
0.000778219
0.000792994
0.000807235
0.000820864
0.000833819
0.000846058
0.000857554
0.000868293
0.000878274
0.000887503
0.000895998
0.000903781
0.000910881
0.000917329
0.00092316
0.000928412
0.000933121
0.000937325
0.000941064
0.000944373
0.000947289
0.000949846
0.000952077
0.000954014
0.000955686
0.00095712
0.000958342
0.000959375
0.000960241
0.000960959
0.000961548
0.000962024
0.000962401
0.000962693
0.000962911
0.000963066
0.000963168
0.000963224
0.000963242
0.000963228
0.000963188
0.000963126
0.000963047
0.000962955
0.000962853
0.000962743
0.000962628
0.000962511
0.000962392
0.000962274
0.000962158
0.000962045
0.000961936
0.000961832
0.000961735
0.000961645
0.000961563
0.000961489
0.000961425
0.00096137
0.000961326
0.000961293
0.000961271
0.000961261
0.000977071
0.000936546
0.000899352
0.000865177
0.000833747
0.000804821
0.000778195
0.000753694
0.000731172
0.000710516
0.000691638
0.000674478
0.000659003
0.000645203
0.000633092
0.000622701
0.000614078
0.000607277
0.000602356
0.000599368
0.000598351
0.000599323
0.000602274
0.000607162
0.000613908
0.0006224
0.000632491
0.000644007
0.000656751
0.000670514
0.000685077
0.000700224
0.000715744
0.00073144
0.00074713
0.000762651
0.000777862
0.000792642
0.000806891
0.00082053
0.000833498
0.000845752
0.000857264
0.000868019
0.000878017
0.000887264
0.000895776
0.000903577
0.000910693
0.000917158
0.000923005
0.000928271
0.000932994
0.000937211
0.000940962
0.000944282
0.000947208
0.000949775
0.000952015
0.00095396
0.000955639
0.000957079
0.000958307
0.000959345
0.000960215
0.000960938
0.00096153
0.000962009
0.000962389
0.000962684
0.000962904
0.000963061
0.000963164
0.000963221
0.00096324
0.000963227
0.000963188
0.000963127
0.000963049
0.000962958
0.000962856
0.000962747
0.000962632
0.000962515
0.000962397
0.000962279
0.000962163
0.00096205
0.000961941
0.000961838
0.00096174
0.00096165
0.000961568
0.000961495
0.000961431
0.000961376
0.000961332
0.000961299
0.000961277
0.000961267
0.000977073
0.000936553
0.000899365
0.000865197
0.000833774
0.000804856
0.000778237
0.000753742
0.000731228
0.000710578
0.000691706
0.00067455
0.000659078
0.000645279
0.000633167
0.000622773
0.000614142
0.00060733
0.000602395
0.000599387
0.000598345
0.000599289
0.000602208
0.00060706
0.000613769
0.000622222
0.000632275
0.000643753
0.000656463
0.000670194
0.000684729
0.000699853
0.000715356
0.000731039
0.000746721
0.000762239
0.000777452
0.000792237
0.000806495
0.000820145
0.000833127
0.000845397
0.000856926
0.000867701
0.000877718
0.000886985
0.000895517
0.000903337
0.000910473
0.000916956
0.000922821
0.000928104
0.000932843
0.000937076
0.00094084
0.000944174
0.000947112
0.000949689
0.00095194
0.000953894
0.000955581
0.000957029
0.000958263
0.000959307
0.000960183
0.000960911
0.000961507
0.00096199
0.000962373
0.00096267
0.000962893
0.000963052
0.000963157
0.000963217
0.000963237
0.000963225
0.000963187
0.000963127
0.00096305
0.000962959
0.000962858
0.000962749
0.000962635
0.000962519
0.000962401
0.000962283
0.000962167
0.000962054
0.000961946
0.000961843
0.000961746
0.000961656
0.000961574
0.000961501
0.000961437
0.000961383
0.000961339
0.000961306
0.000961284
0.000961273
0.000977075
0.00093656
0.000899378
0.000865217
0.000833802
0.000804892
0.000778281
0.000753795
0.000731289
0.000710646
0.00069178
0.00067463
0.000659161
0.000645365
0.000633252
0.000622853
0.000614215
0.000607392
0.000602439
0.00059941
0.000598342
0.000599254
0.000602137
0.000606951
0.000613618
0.000622028
0.000632038
0.000643475
0.000656145
0.000669841
0.000684346
0.000699444
0.000714926
0.000730594
0.000746267
0.000761781
0.000776994
0.000791784
0.000806051
0.000819714
0.000832711
0.000844998
0.000856547
0.000867342
0.000877381
0.00088667
0.000895224
0.000903066
0.000910223
0.000916727
0.000922612
0.000927914
0.000932671
0.00093692
0.000940701
0.000944048
0.000947
0.00094959
0.000951852
0.000953816
0.000955513
0.000956969
0.000958211
0.000959262
0.000960144
0.000960877
0.000961478
0.000961965
0.000962352
0.000962653
0.000962879
0.000963041
0.000963148
0.000963209
0.000963231
0.000963221
0.000963184
0.000963125
0.000963049
0.000962959
0.000962859
0.000962751
0.000962638
0.000962521
0.000962404
0.000962287
0.000962171
0.000962059
0.000961951
0.000961848
0.000961751
0.000961662
0.00096158
0.000961507
0.000961443
0.000961389
0.000961345
0.000961313
0.000961291
0.00096128
0.000977077
0.000936567
0.000899392
0.000865238
0.000833831
0.000804929
0.000778328
0.000753851
0.000731353
0.000710719
0.00069186
0.000674716
0.000659252
0.000645457
0.000633344
0.000622942
0.000614296
0.00060746
0.000602489
0.000599437
0.000598341
0.000599219
0.000602064
0.000606835
0.000613458
0.000621821
0.000631784
0.000643176
0.000655804
0.000669461
0.000683931
0.000699001
0.00071446
0.000730111
0.000745773
0.000761282
0.000776495
0.00079129
0.000805566
0.000819242
0.000832255
0.000844561
0.00085613
0.000866948
0.000877009
0.000886322
0.0008949
0.000902766
0.000909946
0.000916472
0.000922379
0.000927701
0.000932478
0.000936746
0.000940543
0.000943907
0.000946874
0.000949478
0.000951752
0.000953727
0.000955434
0.0009569
0.000958151
0.000959209
0.000960098
0.000960837
0.000961444
0.000961936
0.000962327
0.000962631
0.00096286
0.000963025
0.000963135
0.000963198
0.000963223
0.000963214
0.000963179
0.000963121
0.000963046
0.000962958
0.000962858
0.000962751
0.000962638
0.000962523
0.000962406
0.000962289
0.000962175
0.000962063
0.000961955
0.000961853
0.000961757
0.000961667
0.000961586
0.000961513
0.00096145
0.000961396
0.000961352
0.00096132
0.000961298
0.000961287
0.000977079
0.000936574
0.000899405
0.000865259
0.000833859
0.000804967
0.000778375
0.000753908
0.00073142
0.000710794
0.000691944
0.000674807
0.000659348
0.000645556
0.000633443
0.000623037
0.000614383
0.000607534
0.000602545
0.000599468
0.000598342
0.000599185
0.00060199
0.000606716
0.00061329
0.000621605
0.000631518
0.000642861
0.000655444
0.000669058
0.000683492
0.00069853
0.000713964
0.000729596
0.000745246
0.000760748
0.000775961
0.00079076
0.000805045
0.000818734
0.000831764
0.000844089
0.00085568
0.000866521
0.000876607
0.000885944
0.000894548
0.000902439
0.000909644
0.000916194
0.000922124
0.000927469
0.000932266
0.000936554
0.00094037
0.000943752
0.000946734
0.000949353
0.00095164
0.000953628
0.000955347
0.000956823
0.000958082
0.000959149
0.000960046
0.000960791
0.000961404
0.000961901
0.000962297
0.000962605
0.000962838
0.000963006
0.000963119
0.000963185
0.000963211
0.000963205
0.000963171
0.000963115
0.000963042
0.000962954
0.000962856
0.00096275
0.000962638
0.000962523
0.000962407
0.000962291
0.000962177
0.000962066
0.000961959
0.000961857
0.000961761
0.000961673
0.000961592
0.000961519
0.000961456
0.000961402
0.000961359
0.000961326
0.000961305
0.000961294
0.000977081
0.000936581
0.000899418
0.000865279
0.000833888
0.000805005
0.000778423
0.000753966
0.000731488
0.000710872
0.000692031
0.000674901
0.000659448
0.00064566
0.000633547
0.000623137
0.000614475
0.000607613
0.000602605
0.000599504
0.000598346
0.000599152
0.000601914
0.000606594
0.000613118
0.000621381
0.000631242
0.000642534
0.000655068
0.000668638
0.000683032
0.000698037
0.000713443
0.000729055
0.00074469
0.000760185
0.000775396
0.0007902
0.000804494
0.000818196
0.000831243
0.000843588
0.000855201
0.000866066
0.000876177
0.000885541
0.000894171
0.000902088
0.000909319
0.000915895
0.000921849
0.000927217
0.000932037
0.000936346
0.000940182
0.000943582
0.000946581
0.000949216
0.000951518
0.000953519
0.00095525
0.000956737
0.000958006
0.000959082
0.000959986
0.000960739
0.000961358
0.000961861
0.000962262
0.000962575
0.000962812
0.000962984
0.000963099
0.000963168
0.000963197
0.000963192
0.000963161
0.000963107
0.000963035
0.000962948
0.000962851
0.000962746
0.000962636
0.000962522
0.000962407
0.000962292
0.000962178
0.000962068
0.000961961
0.00096186
0.000961765
0.000961677
0.000961597
0.000961525
0.000961462
0.000961409
0.000961366
0.000961333
0.000961311
0.000961301
0.000977082
0.000936587
0.000899431
0.000865299
0.000833917
0.000805043
0.000778471
0.000754024
0.000731557
0.000710952
0.00069212
0.000674998
0.000659552
0.000645767
0.000633655
0.000623242
0.000614572
0.000607696
0.000602669
0.000599542
0.000598353
0.000599121
0.000601839
0.00060647
0.000612943
0.000621151
0.000630958
0.000642197
0.00065468
0.000668204
0.000682556
0.000697525
0.000712903
0.000728492
0.000744112
0.000759598
0.000774807
0.000789614
0.000803916
0.000817631
0.000830695
0.000843061
0.000854697
0.000865586
0.000875723
0.000885114
0.000893771
0.000901716
0.000908974
0.000915576
0.000921556
0.000926949
0.000931792
0.000936123
0.00093998
0.000943399
0.000946417
0.000949068
0.000951385
0.000953401
0.000955144
0.000956642
0.000957923
0.000959008
0.000959921
0.000960681
0.000961307
0.000961816
0.000962223
0.000962541
0.000962782
0.000962957
0.000963076
0.000963148
0.000963179
0.000963177
0.000963148
0.000963096
0.000963025
0.000962941
0.000962845
0.000962741
0.000962632
0.000962519
0.000962405
0.000962291
0.000962178
0.000962068
0.000961963
0.000961862
0.000961768
0.000961681
0.000961601
0.000961529
0.000961467
0.000961414
0.000961371
0.000961339
0.000961318
0.000961307
0.000977084
0.000936594
0.000899443
0.000865319
0.000833945
0.000805081
0.000778519
0.000754083
0.000731626
0.000711031
0.000692209
0.000675097
0.000659657
0.000645877
0.000633765
0.00062335
0.000614672
0.000607782
0.000602736
0.000599583
0.000598362
0.000599091
0.000601765
0.000606346
0.000612766
0.000620919
0.00063067
0.000641854
0.000654284
0.000667759
0.000682068
0.000697
0.000712346
0.000727912
0.000743515
0.000758992
0.000774197
0.000789006
0.000803317
0.000817045
0.000830125
0.000842511
0.00085417
0.000865085
0.000875249
0.000884667
0.000893353
0.000901325
0.000908611
0.000915241
0.000921247
0.000926665
0.000931533
0.000935887
0.000939765
0.000943205
0.000946241
0.00094891
0.000951243
0.000953273
0.00095503
0.000956541
0.000957832
0.000958927
0.000959849
0.000960618
0.000961251
0.000961767
0.000962179
0.000962502
0.000962748
0.000962927
0.00096305
0.000963125
0.000963159
0.00096316
0.000963132
0.000963082
0.000963014
0.000962931
0.000962836
0.000962734
0.000962626
0.000962514
0.000962401
0.000962288
0.000962177
0.000962068
0.000961963
0.000961864
0.00096177
0.000961683
0.000961604
0.000961533
0.000961471
0.000961419
0.000961377
0.000961345
0.000961323
0.000961313
0.000977086
0.0009366
0.000899455
0.000865338
0.000833972
0.000805117
0.000778566
0.00075414
0.000731695
0.000711111
0.000692299
0.000675196
0.000659763
0.000645988
0.000633878
0.000623459
0.000614774
0.000607871
0.000602806
0.000599627
0.000598373
0.000599062
0.000601691
0.000606223
0.000612588
0.000620685
0.000630378
0.000641506
0.000653882
0.000667308
0.000681572
0.000696464
0.000711779
0.000727319
0.000742905
0.00075837
0.00077357
0.000788382
0.0008027
0.00081644
0.000829537
0.000841943
0.000853626
0.000864565
0.000874757
0.000884203
0.000892917
0.000900918
0.000908233
0.00091489
0.000920924
0.000926368
0.000931261
0.000935639
0.000939539
0.000942999
0.000946055
0.000948742
0.000951092
0.000953138
0.000954908
0.000956432
0.000957735
0.000958841
0.000959772
0.000960549
0.00096119
0.000961712
0.000962131
0.000962459
0.000962709
0.000962893
0.00096302
0.000963098
0.000963135
0.000963139
0.000963114
0.000963066
0.000963
0.000962918
0.000962826
0.000962725
0.000962618
0.000962508
0.000962396
0.000962284
0.000962174
0.000962066
0.000961962
0.000961863
0.000961771
0.000961685
0.000961606
0.000961536
0.000961475
0.000961423
0.000961381
0.000961349
0.000961328
0.000961318
0.000977087
0.000936606
0.000899466
0.000865356
0.000833999
0.000805153
0.000778612
0.000754197
0.000731763
0.00071119
0.000692388
0.000675294
0.000659869
0.000646099
0.00063399
0.00062357
0.000614877
0.000607962
0.000602877
0.000599672
0.000598385
0.000599036
0.000601619
0.0006061
0.000612411
0.000620451
0.000630086
0.000641156
0.000653478
0.000666852
0.00068107
0.000695922
0.000711203
0.000726718
0.000742283
0.000757737
0.000772932
0.000787744
0.000802069
0.000815821
0.000828935
0.000841361
0.000853066
0.000864031
0.000874249
0.000883724
0.000892467
0.000900497
0.000907841
0.000914527
0.000920588
0.000926059
0.000930977
0.000935379
0.000939303
0.000942785
0.000945861
0.000948566
0.000950933
0.000952994
0.000954779
0.000956316
0.000957631
0.000958748
0.000959689
0.000960475
0.000961124
0.000961653
0.000962078
0.000962412
0.000962667
0.000962856
0.000962986
0.000963068
0.000963109
0.000963115
0.000963093
0.000963047
0.000962983
0.000962904
0.000962813
0.000962714
0.000962609
0.0009625
0.000962389
0.000962278
0.000962169
0.000962062
0.00096196
0.000961862
0.00096177
0.000961685
0.000961607
0.000961538
0.000961477
0.000961426
0.000961385
0.000961353
0.000961332
0.000961322
0.000977089
0.000936611
0.000899478
0.000865374
0.000834024
0.000805188
0.000778657
0.000754253
0.000731829
0.000711268
0.000692477
0.000675392
0.000659975
0.000646209
0.000634103
0.00062368
0.00061498
0.000608053
0.000602949
0.000599719
0.000598399
0.000599011
0.000601549
0.000605979
0.000612235
0.000620217
0.000629794
0.000640807
0.000653073
0.000666394
0.000680565
0.000695376
0.000710623
0.00072611
0.000741656
0.000757096
0.000772285
0.000787097
0.000801428
0.000815192
0.000828321
0.000840767
0.000852494
0.000863485
0.00087373
0.000883233
0.000892005
0.000900065
0.000907438
0.000914152
0.000920241
0.00092574
0.000930684
0.00093511
0.000939057
0.000942561
0.000945658
0.000948382
0.000950767
0.000952844
0.000954644
0.000956195
0.000957522
0.00095865
0.000959601
0.000960396
0.000961053
0.00096159
0.000962021
0.000962361
0.000962622
0.000962815
0.00096295
0.000963035
0.00096308
0.000963089
0.000963069
0.000963026
0.000962964
0.000962887
0.000962798
0.000962701
0.000962597
0.00096249
0.00096238
0.000962271
0.000962163
0.000962058
0.000961956
0.000961859
0.000961768
0.000961684
0.000961607
0.000961539
0.000961479
0.000961428
0.000961387
0.000961356
0.000961335
0.000961325
0.000977091
0.000936617
0.000899488
0.000865391
0.000834049
0.000805222
0.0007787
0.000754307
0.000731894
0.000711344
0.000692563
0.000675488
0.000660078
0.000646319
0.000634215
0.00062379
0.000615084
0.000608144
0.000603022
0.000599766
0.000598415
0.000598987
0.00060148
0.00060586
0.000612062
0.000619986
0.000629505
0.000640459
0.000652669
0.000665938
0.000680061
0.00069483
0.000710041
0.0007255
0.000741024
0.00075645
0.000771632
0.000786444
0.000800781
0.000814555
0.000827699
0.000840164
0.000851914
0.000862929
0.000873201
0.000882732
0.000891533
0.000899623
0.000907025
0.000913768
0.000919886
0.000925411
0.000930382
0.000934834
0.000938804
0.00094233
0.000945448
0.000948191
0.000950594
0.000952688
0.000954503
0.000956067
0.000957407
0.000958547
0.000959508
0.000960312
0.000960978
0.000961522
0.00096196
0.000962306
0.000962573
0.000962771
0.00096291
0.000963
0.000963047
0.00096306
0.000963043
0.000963003
0.000962943
0.000962868
0.000962781
0.000962685
0.000962583
0.000962478
0.00096237
0.000962262
0.000962155
0.000962051
0.000961951
0.000961855
0.000961765
0.000961682
0.000961606
0.000961538
0.000961479
0.000961429
0.000961388
0.000961358
0.000961337
0.000961327
0.000977092
0.000936622
0.000899499
0.000865408
0.000834073
0.000805254
0.000778742
0.000754359
0.000731958
0.000711418
0.000692648
0.000675582
0.00066018
0.000646426
0.000634325
0.000623899
0.000615186
0.000608234
0.000603094
0.000599814
0.000598431
0.000598965
0.000601414
0.000605744
0.000611891
0.000619758
0.000629218
0.000640114
0.000652268
0.000665484
0.000679559
0.000694285
0.000709461
0.00072489
0.000740393
0.000755804
0.000770978
0.000785789
0.000800129
0.000813913
0.000827072
0.000839556
0.000851328
0.000862367
0.000872666
0.000882225
0.000891055
0.000899173
0.000906605
0.000913377
0.000919523
0.000925076
0.000930073
0.00093455
0.000938544
0.000942093
0.000945231
0.000947994
0.000950415
0.000952526
0.000954357
0.000955935
0.000957288
0.000958439
0.000959411
0.000960225
0.000960899
0.000961451
0.000961896
0.000962249
0.000962521
0.000962723
0.000962867
0.000962961
0.000963012
0.000963028
0.000963014
0.000962977
0.000962919
0.000962846
0.000962762
0.000962668
0.000962568
0.000962464
0.000962357
0.000962251
0.000962146
0.000962043
0.000961944
0.000961849
0.00096176
0.000961678
0.000961603
0.000961536
0.000961478
0.000961428
0.000961388
0.000961358
0.000961338
0.000961328
0.000977093
0.000936627
0.000899509
0.000865424
0.000834097
0.000805286
0.000778783
0.00075441
0.000732019
0.00071149
0.00069273
0.000675674
0.00066028
0.000646532
0.000634433
0.000624005
0.000615287
0.000608323
0.000603166
0.000599862
0.000598448
0.000598945
0.000601349
0.00060563
0.000611723
0.000619534
0.000628936
0.000639774
0.000651871
0.000665035
0.000679061
0.000693745
0.000708883
0.000724283
0.000739763
0.000755159
0.000770324
0.000785133
0.000799477
0.00081327
0.000826443
0.000838944
0.000850738
0.000861802
0.000872126
0.000881713
0.000890571
0.000898719
0.000906179
0.000912981
0.000919154
0.000924735
0.000929758
0.000934261
0.000938279
0.00094185
0.00094501
0.000947792
0.000950232
0.00095236
0.000954206
0.000955798
0.000957164
0.000958327
0.00095931
0.000960133
0.000960817
0.000961376
0.000961829
0.000962187
0.000962465
0.000962673
0.000962822
0.00096292
0.000962975
0.000962994
0.000962983
0.000962948
0.000962893
0.000962823
0.00096274
0.000962648
0.00096255
0.000962448
0.000962343
0.000962238
0.000962134
0.000962033
0.000961935
0.000961842
0.000961754
0.000961673
0.000961599
0.000961533
0.000961476
0.000961427
0.000961387
0.000961358
0.000961338
0.000961328
0.000977095
0.000936632
0.000899518
0.000865439
0.000834119
0.000805316
0.000778822
0.000754459
0.000732078
0.00071156
0.00069281
0.000675763
0.000660377
0.000646635
0.000634538
0.00062411
0.000615385
0.000608411
0.000603237
0.000599909
0.000598465
0.000598925
0.000601287
0.000605519
0.00061156
0.000619315
0.000628659
0.000639439
0.000651481
0.000664591
0.00067857
0.00069321
0.000708312
0.000723682
0.000739138
0.000754518
0.000769674
0.000784479
0.000798827
0.000812628
0.000825815
0.000838333
0.000850147
0.000861234
0.000871584
0.000881198
0.000890084
0.000898261
0.00090575
0.00091258
0.000918782
0.00092439
0.000929439
0.000933967
0.000938009
0.000941603
0.000944784
0.000947586
0.000950044
0.000952189
0.000954051
0.000955658
0.000957037
0.000958212
0.000959205
0.000960039
0.000960731
0.000961299
0.000961758
0.000962123
0.000962407
0.00096262
0.000962774
0.000962876
0.000962934
0.000962957
0.00096295
0.000962917
0.000962865
0.000962797
0.000962717
0.000962627
0.000962531
0.00096243
0.000962327
0.000962224
0.000962121
0.000962021
0.000961925
0.000961833
0.000961747
0.000961667
0.000961594
0.000961529
0.000961472
0.000961424
0.000961385
0.000961356
0.000961336
0.000961326
0.000977096
0.000936637
0.000899527
0.000865454
0.00083414
0.000805345
0.00077886
0.000754506
0.000732135
0.000711627
0.000692887
0.000675849
0.000660471
0.000646734
0.000634641
0.000624211
0.000615482
0.000608497
0.000603306
0.000599956
0.000598483
0.000598907
0.000601227
0.000605411
0.0006114
0.0006191
0.000628388
0.000639112
0.000651098
0.000664156
0.000678086
0.000692684
0.000707748
0.000723088
0.000738521
0.000753884
0.00076903
0.000783831
0.000798181
0.00081199
0.000825189
0.000837724
0.000849557
0.000860667
0.000871042
0.000880683
0.000889597
0.000897801
0.000905319
0.000912177
0.000918407
0.000924042
0.000929118
0.000933671
0.000937737
0.000941353
0.000944555
0.000947377
0.000949854
0.000952015
0.000953893
0.000955514
0.000956906
0.000958093
0.000959098
0.000959941
0.000960642
0.000961218
0.000961685
0.000962057
0.000962346
0.000962565
0.000962723
0.000962829
0.000962892
0.000962918
0.000962914
0.000962885
0.000962835
0.00096277
0.000962691
0.000962604
0.000962509
0.000962411
0.00096231
0.000962208
0.000962107
0.000962009
0.000961913
0.000961823
0.000961738
0.000961659
0.000961587
0.000961523
0.000961467
0.00096142
0.000961382
0.000961353
0.000961333
0.000961324
0.000977097
0.000936642
0.000899536
0.000865468
0.00083416
0.000805373
0.000778896
0.000754552
0.00073219
0.000711692
0.000692962
0.000675933
0.000660562
0.000646831
0.00063474
0.00062431
0.000615576
0.000608581
0.000603374
0.000600002
0.0005985
0.00059889
0.000601168
0.000605307
0.000611245
0.000618891
0.000628123
0.000638791
0.000650723
0.000663729
0.000677611
0.000692166
0.000707194
0.000722503
0.000737912
0.000753258
0.000768393
0.000783191
0.000797542
0.000811358
0.000824568
0.000837119
0.000848972
0.000860104
0.000870503
0.000880169
0.00088911
0.000897342
0.000904888
0.000911774
0.000918032
0.000923693
0.000928795
0.000933372
0.000937462
0.000941101
0.000944324
0.000947166
0.00094966
0.000951839
0.000953732
0.000955368
0.000956773
0.000957972
0.000958988
0.000959841
0.000960551
0.000961135
0.000961609
0.000961988
0.000962283
0.000962507
0.00096267
0.000962781
0.000962848
0.000962877
0.000962876
0.00096285
0.000962803
0.00096274
0.000962664
0.000962579
0.000962487
0.00096239
0.00096229
0.00096219
0.000962091
0.000961994
0.000961901
0.000961811
0.000961728
0.00096165
0.000961579
0.000961516
0.000961461
0.000961415
0.000961377
0.000961349
0.00096133
0.00096132
0.000977099
0.000936646
0.000899544
0.000865481
0.00083418
0.0008054
0.000778931
0.000754595
0.000732243
0.000711754
0.000693033
0.000676013
0.00066065
0.000646924
0.000634836
0.000624406
0.000615666
0.000608662
0.00060344
0.000600047
0.000598518
0.000598873
0.000601112
0.000605206
0.000611095
0.000618688
0.000627866
0.000638479
0.000650357
0.000663313
0.000677147
0.00069166
0.000706651
0.000721929
0.000737314
0.000752642
0.000767767
0.000782559
0.000796911
0.000810734
0.000823955
0.00083652
0.000848392
0.000859545
0.000869967
0.000879659
0.000888626
0.000896886
0.000904459
0.000911372
0.000917656
0.000923345
0.000928472
0.000933073
0.000937187
0.000940847
0.000944091
0.000946953
0.000949466
0.000951661
0.00095357
0.00095522
0.000956639
0.00095785
0.000958876
0.000959739
0.000960458
0.000961051
0.000961532
0.000961917
0.000962218
0.000962448
0.000962616
0.000962731
0.000962801
0.000962835
0.000962837
0.000962814
0.00096277
0.000962709
0.000962636
0.000962552
0.000962462
0.000962367
0.00096227
0.000962171
0.000962074
0.000961978
0.000961886
0.000961799
0.000961716
0.00096164
0.00096157
0.000961508
0.000961454
0.000961408
0.000961371
0.000961343
0.000961325
0.000961315
0.0009771
0.00093665
0.000899552
0.000865494
0.000834198
0.000805425
0.000778964
0.000754637
0.000732294
0.000711814
0.000693102
0.00067609
0.000660734
0.000647014
0.000634929
0.000624498
0.000615754
0.000608741
0.000603504
0.00060009
0.000598535
0.000598858
0.000601058
0.000605108
0.000610949
0.000618491
0.000627616
0.000638176
0.000650001
0.000662907
0.000676695
0.000691166
0.00070612
0.000721368
0.000736729
0.000752039
0.000767152
0.000781939
0.000796292
0.000810119
0.00082335
0.00083593
0.000847819
0.000858993
0.000869438
0.000879154
0.000888147
0.000896433
0.000904033
0.000910973
0.000917283
0.000922997
0.000928149
0.000932775
0.000936911
0.000940594
0.000943858
0.000946739
0.00094927
0.000951482
0.000953407
0.000955071
0.000956502
0.000957725
0.000958763
0.000959636
0.000960364
0.000960964
0.000961453
0.000961845
0.000962152
0.000962387
0.000962559
0.000962679
0.000962754
0.000962791
0.000962796
0.000962776
0.000962735
0.000962677
0.000962606
0.000962524
0.000962436
0.000962343
0.000962248
0.000962151
0.000962055
0.000961961
0.000961871
0.000961784
0.000961703
0.000961628
0.00096156
0.000961499
0.000961445
0.0009614
0.000961364
0.000961337
0.000961318
0.000961309
0.000977101
0.000936654
0.00089956
0.000865506
0.000834216
0.000805449
0.000778995
0.000754676
0.000732342
0.000711871
0.000693168
0.000676164
0.000660815
0.0006471
0.000635017
0.000624586
0.000615838
0.000608816
0.000603566
0.000600132
0.000598551
0.000598843
0.000601006
0.000605014
0.000610808
0.000618301
0.000627374
0.000637882
0.000649656
0.000662513
0.000676255
0.000690685
0.000705603
0.000720821
0.000736158
0.00075145
0.000766551
0.000781332
0.000795684
0.000809517
0.000822757
0.00083535
0.000847256
0.000858449
0.000868916
0.000878655
0.000887674
0.000895985
0.000903611
0.000910577
0.000916913
0.000922653
0.000927829
0.000932479
0.000936638
0.000940342
0.000943626
0.000946526
0.000949075
0.000951303
0.000953243
0.000954921
0.000956366
0.0009576
0.000958649
0.000959531