/*--------------------------------*- C++ -*----------------------------------*\
  =========                 |
  \\      /  F ield         | OpenFOAM: The Open Source CFD Toolbox
   \\    /   O peration     | Website:  https://openfoam.org
    \\  /    A nd           | Version:  11
     \\/     M anipulation  |
\*---------------------------------------------------------------------------*/
FoamFile
{
    format      ascii;
    class       volScalarField;
    location    "100";
    object      omega;
}
// * * * * * * * * * * * * * * * * * * * * * * * * * * * * * * * * * * * * * //

dimensions      [0 0 -1 0 0 0 0];

internalField   nonuniform List<scalar> 
10000
(
0.9617
0.892183
0.829044
0.771611
0.719289
0.671544
0.627902
0.587939
0.551273
0.517566
0.486512
0.457839
0.431302
0.406685
0.383796
0.362464
0.342544
0.323911
0.30646
0.290104
0.274777
0.260424
0.247004
0.234484
0.222836
0.212034
0.202053
0.192862
0.18443
0.17672
0.169693
0.163308
0.15752
0.152285
0.147561
0.143305
0.139478
0.13604
0.132957
0.130195
0.127722
0.125511
0.123535
0.12177
0.120197
0.118794
0.117546
0.116435
0.115449
0.114573
0.113797
0.113109
0.112501
0.111963
0.111488
0.11107
0.110701
0.110376
0.110091
0.10984
0.10962
0.109426
0.109257
0.109108
0.108977
0.108863
0.108762
0.108674
0.108596
0.108527
0.108467
0.108413
0.108366
0.108323
0.108286
0.108252
0.108221
0.108194
0.108169
0.108146
0.108126
0.108106
0.108089
0.108072
0.108057
0.108043
0.108029
0.108017
0.108005
0.107993
0.107983
0.107973
0.107964
0.107955
0.107947
0.10794
0.107934
0.107929
0.107926
0.107924
0.9617
0.892185
0.829047
0.771615
0.719294
0.67155
0.627909
0.587946
0.551281
0.517574
0.486521
0.457849
0.431314
0.406698
0.38381
0.36248
0.342562
0.323931
0.306481
0.290128
0.274802
0.260451
0.247033
0.234514
0.222867
0.212066
0.202085
0.192894
0.184462
0.176751
0.169723
0.163336
0.157547
0.152311
0.147586
0.14333
0.139501
0.136062
0.132978
0.130214
0.127739
0.125526
0.123548
0.121783
0.120208
0.118805
0.117555
0.116444
0.115457
0.11458
0.113803
0.113115
0.112506
0.111968
0.111493
0.111074
0.110705
0.11038
0.110094
0.109843
0.109623
0.109429
0.109259
0.10911
0.10898
0.108865
0.108764
0.108675
0.108597
0.108529
0.108468
0.108414
0.108367
0.108324
0.108287
0.108253
0.108222
0.108195
0.10817
0.108147
0.108126
0.108107
0.108089
0.108073
0.108058
0.108043
0.10803
0.108017
0.108005
0.107994
0.107983
0.107973
0.107964
0.107955
0.107947
0.10794
0.107934
0.10793
0.107926
0.107924
0.9617
0.892187
0.829051
0.771621
0.719301
0.671559
0.62792
0.587958
0.551295
0.51759
0.486538
0.457867
0.431334
0.40672
0.383834
0.362507
0.342592
0.323964
0.306518
0.290168
0.274846
0.260497
0.247082
0.234565
0.22292
0.212121
0.20214
0.192948
0.184515
0.176803
0.169773
0.163384
0.157593
0.152355
0.147628
0.143369
0.139538
0.136096
0.133009
0.130243
0.127766
0.12555
0.123571
0.121803
0.120226
0.118821
0.11757
0.116458
0.115469
0.114592
0.113814
0.113125
0.112515
0.111976
0.1115
0.11108
0.110711
0.110385
0.110099
0.109847
0.109627
0.109433
0.109262
0.109113
0.108982
0.108867
0.108766
0.108677
0.108599
0.10853
0.10847
0.108416
0.108368
0.108326
0.108288
0.108254
0.108223
0.108196
0.108171
0.108148
0.108127
0.108108
0.10809
0.108073
0.108058
0.108044
0.10803
0.108017
0.108005
0.107994
0.107984
0.107974
0.107964
0.107956
0.107948
0.107941
0.107935
0.10793
0.107926
0.107924
0.961701
0.892189
0.829055
0.771628
0.71931
0.671571
0.627933
0.587974
0.551313
0.51761
0.486561
0.457893
0.431362
0.406751
0.383869
0.362545
0.342634
0.32401
0.306569
0.290223
0.274906
0.260562
0.24715
0.234637
0.222994
0.212195
0.202215
0.193023
0.184589
0.176875
0.169842
0.163451
0.157656
0.152415
0.147684
0.143422
0.139587
0.136142
0.133052
0.130282
0.127802
0.125583
0.1236
0.12183
0.120251
0.118844
0.117591
0.116476
0.115486
0.114607
0.113827
0.113137
0.112526
0.111986
0.111509
0.111089
0.110718
0.110392
0.110105
0.109853
0.109631
0.109437
0.109266
0.109116
0.108985
0.10887
0.108768
0.108679
0.108601
0.108532
0.108471
0.108417
0.108369
0.108327
0.108289
0.108255
0.108224
0.108197
0.108171
0.108149
0.108128
0.108108
0.108091
0.108074
0.108059
0.108044
0.108031
0.108018
0.108006
0.107995
0.107984
0.107974
0.107965
0.107956
0.107948
0.107941
0.107935
0.10793
0.107927
0.107924
0.961701
0.89219
0.829058
0.771634
0.71932
0.671583
0.627949
0.587992
0.551334
0.517634
0.486588
0.457923
0.431396
0.40679
0.383911
0.362593
0.342687
0.324069
0.306633
0.290293
0.274982
0.260643
0.247236
0.234726
0.223086
0.212289
0.202309
0.193117
0.184681
0.176964
0.169929
0.163534
0.157735
0.15249
0.147754
0.143488
0.139649
0.1362
0.133105
0.13033
0.127846
0.125624
0.123638
0.121864
0.120282
0.118872
0.117616
0.1165
0.115507
0.114626
0.113844
0.113152
0.11254
0.111998
0.11152
0.111098
0.110727
0.1104
0.110112
0.109859
0.109637
0.109442
0.109271
0.10912
0.108989
0.108873
0.108771
0.108682
0.108603
0.108534
0.108473
0.108419
0.108371
0.108328
0.10829
0.108256
0.108225
0.108198
0.108172
0.108149
0.108128
0.108109
0.108091
0.108075
0.108059
0.108045
0.108031
0.108019
0.108007
0.107995
0.107985
0.107975
0.107965
0.107957
0.107949
0.107942
0.107936
0.107931
0.107927
0.107925
0.9617
0.89219
0.82906
0.771639
0.719328
0.671594
0.627964
0.588011
0.551357
0.517661
0.486618
0.457958
0.431435
0.406834
0.383961
0.362649
0.342749
0.324138
0.306709
0.290376
0.275071
0.260739
0.247337
0.234832
0.223195
0.2124
0.202421
0.193228
0.18479
0.17707
0.170031
0.163632
0.157828
0.152578
0.147837
0.143565
0.139721
0.136267
0.133167
0.130388
0.127899
0.125672
0.123682
0.121905
0.120319
0.118905
0.117647
0.116527
0.115531
0.114648
0.113864
0.11317
0.112556
0.112013
0.111533
0.11111
0.110737
0.110409
0.11012
0.109866
0.109643
0.109447
0.109276
0.109125
0.108993
0.108876
0.108774
0.108685
0.108606
0.108536
0.108475
0.108421
0.108373
0.10833
0.108291
0.108257
0.108226
0.108199
0.108173
0.10815
0.108129
0.10811
0.108092
0.108076
0.10806
0.108046
0.108032
0.108019
0.108007
0.107996
0.107985
0.107975
0.107966
0.107957
0.107949
0.107942
0.107936
0.107931
0.107928
0.107926
0.9617
0.89219
0.829062
0.771643
0.719335
0.671605
0.627978
0.58803
0.551379
0.517688
0.486651
0.457995
0.431478
0.406883
0.384016
0.362711
0.342819
0.324215
0.306794
0.290469
0.275172
0.260846
0.247451
0.23495
0.223317
0.212525
0.202546
0.193352
0.184912
0.17719
0.170147
0.163742
0.157933
0.152677
0.147931
0.143653
0.139803
0.136343
0.133237
0.130452
0.127958
0.125727
0.123732
0.12195
0.12036
0.118943
0.117681
0.116557
0.115559
0.114673
0.113887
0.11319
0.112574
0.112029
0.111548
0.111123
0.110749
0.110419
0.110129
0.109874
0.10965
0.109454
0.109281
0.10913
0.108997
0.10888
0.108778
0.108688
0.108609
0.108539
0.108477
0.108423
0.108374
0.108331
0.108293
0.108258
0.108228
0.1082
0.108174
0.108151
0.10813
0.108111
0.108093
0.108076
0.108061
0.108046
0.108033
0.10802
0.108008
0.107997
0.107986
0.107976
0.107967
0.107958
0.10795
0.107943
0.107937
0.107932
0.107929
0.107926
0.9617
0.89219
0.829063
0.771645
0.71934
0.671614
0.627991
0.588047
0.551402
0.517715
0.486684
0.458034
0.431523
0.406934
0.384076
0.362778
0.342894
0.324299
0.306887
0.290571
0.275282
0.260964
0.247575
0.235081
0.223451
0.212661
0.202683
0.193489
0.185047
0.177321
0.170274
0.163864
0.158049
0.152787
0.148034
0.143749
0.139893
0.136426
0.133314
0.130524
0.128024
0.125787
0.123787
0.122
0.120406
0.118984
0.117718
0.116591
0.11559
0.114701
0.113912
0.113213
0.112594
0.112047
0.111564
0.111137
0.110761
0.11043
0.110139
0.109883
0.109658
0.109461
0.109287
0.109135
0.109002
0.108884
0.108781
0.108691
0.108611
0.108541
0.108479
0.108425
0.108376
0.108333
0.108294
0.10826
0.108229
0.108201
0.108175
0.108152
0.108131
0.108112
0.108094
0.108077
0.108062
0.108047
0.108033
0.108021
0.108009
0.107997
0.107987
0.107977
0.107967
0.107959
0.107951
0.107944
0.107938
0.107933
0.107929
0.107927
0.961699
0.892189
0.829063
0.771647
0.719345
0.671622
0.628003
0.588064
0.551423
0.517742
0.486716
0.458073
0.431569
0.406988
0.384138
0.362848
0.342974
0.324388
0.306986
0.290679
0.275399
0.26109
0.247709
0.23522
0.223595
0.212808
0.202831
0.193636
0.185191
0.177462
0.17041
0.163995
0.158174
0.152905
0.148145
0.143853
0.13999
0.136516
0.133397
0.1306
0.128094
0.125851
0.123846
0.122054
0.120455
0.119029
0.117759
0.116628
0.115623
0.11473
0.113939
0.113237
0.112615
0.112066
0.111581
0.111152
0.110775
0.110442
0.11015
0.109892
0.109666
0.109468
0.109294
0.109141
0.109007
0.108889
0.108785
0.108694
0.108614
0.108544
0.108481
0.108426
0.108378
0.108334
0.108295
0.108261
0.10823
0.108202
0.108176
0.108153
0.108132
0.108112
0.108094
0.108078
0.108062
0.108048
0.108034
0.108021
0.108009
0.107998
0.107987
0.107977
0.107968
0.107959
0.107952
0.107945
0.107939
0.107934
0.10793
0.107928
0.961699
0.892188
0.829062
0.771648
0.719348
0.671628
0.628014
0.588079
0.551443
0.517768
0.486749
0.458112
0.431616
0.407043
0.384201
0.362921
0.343056
0.324481
0.307089
0.290793
0.275523
0.261223
0.247849
0.235367
0.223747
0.212962
0.202986
0.193791
0.185344
0.177611
0.170554
0.164133
0.158306
0.15303
0.148263
0.143963
0.140092
0.136612
0.133486
0.130682
0.128169
0.12592
0.123909
0.122112
0.120507
0.119076
0.117802
0.116667
0.115658
0.114762
0.113967
0.113262
0.112638
0.112086
0.111599
0.111169
0.110789
0.110455
0.110161
0.109902
0.109675
0.109476
0.1093
0.109147
0.109012
0.108893
0.108789
0.108698
0.108617
0.108546
0.108484
0.108428
0.108379
0.108336
0.108297
0.108262
0.108231
0.108202
0.108177
0.108154
0.108132
0.108113
0.108095
0.108078
0.108063
0.108048
0.108035
0.108022
0.10801
0.107999
0.107988
0.107978
0.107969
0.10796
0.107952
0.107945
0.107939
0.107934
0.107931
0.107929
0.961698
0.892187
0.829061
0.771649
0.71935
0.671634
0.628023
0.588092
0.551462
0.517793
0.48678
0.458151
0.431662
0.407098
0.384265
0.362995
0.343141
0.324576
0.307195
0.29091
0.27565
0.26136
0.247994
0.235519
0.223904
0.213123
0.203148
0.193952
0.185503
0.177767
0.170705
0.164277
0.158443
0.15316
0.148386
0.144079
0.1402
0.136712
0.133578
0.130767
0.128248
0.125993
0.123975
0.122172
0.120562
0.119126
0.117847
0.116708
0.115695
0.114795
0.113997
0.113289
0.112662
0.112108
0.111618
0.111185
0.110804
0.110468
0.110173
0.109913
0.109684
0.109483
0.109307
0.109153
0.109017
0.108898
0.108793
0.108701
0.10862
0.108549
0.108486
0.10843
0.108381
0.108337
0.108298
0.108263
0.108231
0.108203
0.108178
0.108154
0.108133
0.108113
0.108095
0.108079
0.108063
0.108049
0.108035
0.108022
0.10801
0.107999
0.107988
0.107979
0.107969
0.107961
0.107953
0.107946
0.10794
0.107935
0.107932
0.107929
0.961698
0.892186
0.82906
0.771648
0.719352
0.671638
0.62803
0.588104
0.551479
0.517816
0.48681
0.458188
0.431708
0.407152
0.384329
0.36307
0.343226
0.324673
0.307303
0.29103
0.27578
0.2615
0.248143
0.235675
0.224065
0.213288
0.203315
0.194118
0.185667
0.177927
0.17086
0.164427
0.158586
0.153295
0.148513
0.144198
0.140312
0.136815
0.133675
0.130856
0.12833
0.126068
0.124044
0.122235
0.120619
0.119178
0.117894
0.116751
0.115734
0.11483
0.114028
0.113317
0.112687
0.11213
0.111638
0.111203
0.11082
0.110482
0.110185
0.109923
0.109693
0.109491
0.109314
0.109159
0.109022
0.108902
0.108797
0.108704
0.108623
0.108551
0.108488
0.108432
0.108382
0.108338
0.108299
0.108264
0.108232
0.108204
0.108178
0.108155
0.108133
0.108114
0.108096
0.108079
0.108063
0.108049
0.108035
0.108023
0.108011
0.108
0.107989
0.107979
0.10797
0.107961
0.107954
0.107947
0.107941
0.107936
0.107932
0.10793
0.961697
0.892185
0.829059
0.771648
0.719353
0.671641
0.628037
0.588115
0.551495
0.517838
0.486838
0.458224
0.431752
0.407206
0.384393
0.363144
0.343312
0.32477
0.307412
0.29115
0.275912
0.261642
0.248294
0.235833
0.22423
0.213456
0.203484
0.194288
0.185835
0.178091
0.171019
0.164579
0.158732
0.153434
0.148644
0.144321
0.140426
0.136922
0.133774
0.130948
0.128414
0.126145
0.124114
0.122299
0.120678
0.119232
0.117943
0.116795
0.115773
0.114866
0.11406
0.113346
0.112713
0.112153
0.111658
0.111221
0.110836
0.110496
0.110197
0.109934
0.109703
0.1095
0.109321
0.109165
0.109027
0.108906
0.108801
0.108707
0.108625
0.108553
0.10849
0.108433
0.108383
0.108339
0.1083
0.108264
0.108233
0.108204
0.108178
0.108155
0.108134
0.108114
0.108096
0.108079
0.108064
0.108049
0.108036
0.108023
0.108011
0.108
0.107989
0.10798
0.10797
0.107962
0.107954
0.107947
0.107941
0.107937
0.107933
0.107931
0.961697
0.892184
0.829058
0.771647
0.719354
0.671644
0.628043
0.588125
0.55151
0.517858
0.486865
0.458259
0.431795
0.407258
0.384455
0.363217
0.343396
0.324867
0.307521
0.291271
0.276044
0.261784
0.248446
0.235993
0.224395
0.213625
0.203656
0.194459
0.186004
0.178257
0.17118
0.164735
0.15888
0.153575
0.148777
0.144446
0.140543
0.137031
0.133874
0.131041
0.1285
0.126224
0.124187
0.122365
0.120739
0.119287
0.117992
0.11684
0.115814
0.114902
0.114093
0.113375
0.112739
0.112176
0.111679
0.111239
0.110852
0.11051
0.110209
0.109945
0.109712
0.109508
0.109328
0.109171
0.109032
0.108911
0.108804
0.10871
0.108628
0.108555
0.108491
0.108435
0.108385
0.10834
0.1083
0.108265
0.108233
0.108204
0.108179
0.108155
0.108134
0.108114
0.108096
0.108079
0.108064
0.108049
0.108036
0.108023
0.108011
0.108
0.10799
0.10798
0.107971
0.107962
0.107955
0.107948
0.107942
0.107937
0.107934
0.107931
0.961696
0.892182
0.829056
0.771646
0.719354
0.671646
0.628048
0.588134
0.551523
0.517877
0.486891
0.458292
0.431837
0.407309
0.384516
0.363289
0.34348
0.324962
0.307629
0.29139
0.276176
0.261927
0.248598
0.236153
0.224561
0.213795
0.203828
0.194632
0.186175
0.178424
0.171343
0.164891
0.15903
0.153717
0.148911
0.144572
0.140661
0.137141
0.133977
0.131136
0.128587
0.126304
0.12426
0.122433
0.1208
0.119342
0.118043
0.116885
0.115855
0.114939
0.114126
0.113405
0.112766
0.1122
0.1117
0.111258
0.110868
0.110524
0.110222
0.109956
0.109722
0.109516
0.109335
0.109177
0.109037
0.108915
0.108808
0.108713
0.10863
0.108557
0.108493
0.108436
0.108385
0.108341
0.108301
0.108265
0.108233
0.108204
0.108179
0.108155
0.108133
0.108114
0.108096
0.108079
0.108064
0.108049
0.108036
0.108023
0.108011
0.108
0.10799
0.10798
0.107971
0.107963
0.107955
0.107948
0.107942
0.107938
0.107934
0.107932
0.961696
0.892181
0.829055
0.771645
0.719353
0.671648
0.628052
0.588141
0.551536
0.517895
0.486915
0.458323
0.431876
0.407358
0.384575
0.363359
0.343561
0.325056
0.307735
0.291509
0.276306
0.262068
0.248749
0.236312
0.224727
0.213965
0.204
0.194804
0.186346
0.178592
0.171506
0.165049
0.159181
0.15386
0.149047
0.1447
0.140781
0.137252
0.13408
0.131231
0.128675
0.126385
0.124335
0.122501
0.120862
0.119399
0.118094
0.116931
0.115897
0.114977
0.11416
0.113435
0.112792
0.112224
0.111721
0.111277
0.110884
0.110539
0.110234
0.109967
0.109731
0.109524
0.109342
0.109183
0.109042
0.108919
0.108811
0.108716
0.108633
0.108559
0.108494
0.108437
0.108386
0.108341
0.108301
0.108265
0.108233
0.108204
0.108178
0.108155
0.108133
0.108114
0.108095
0.108079
0.108063
0.108049
0.108036
0.108023
0.108011
0.108
0.10799
0.10798
0.107971
0.107963
0.107955
0.107949
0.107943
0.107938
0.107935
0.107932
0.961695
0.89218
0.829053
0.771643
0.719353
0.671649
0.628056
0.588149
0.551547
0.517912
0.486938
0.458353
0.431915
0.407405
0.384632
0.363427
0.343641
0.325148
0.307839
0.291625
0.276434
0.262207
0.248898
0.236469
0.224891
0.214134
0.204171
0.194976
0.186516
0.178759
0.171668
0.165206
0.159331
0.154003
0.149182
0.144827
0.1409
0.137364
0.134184
0.131327
0.128764
0.126466
0.124409
0.122569
0.120924
0.119455
0.118145
0.116978
0.115939
0.115015
0.114194
0.113465
0.112819
0.112248
0.111742
0.111295
0.110901
0.110553
0.110247
0.109978
0.10974
0.109532
0.109349
0.109188
0.109047
0.108923
0.108815
0.108719
0.108635
0.108561
0.108496
0.108438
0.108387
0.108342
0.108301
0.108265
0.108233
0.108204
0.108178
0.108154
0.108133
0.108113
0.108095
0.108078
0.108063
0.108049
0.108035
0.108023
0.108011
0.108
0.10799
0.10798
0.107971
0.107963
0.107956
0.107949
0.107943
0.107938
0.107935
0.107933
0.961694
0.892179
0.829051
0.771642
0.719352
0.67165
0.628059
0.588155
0.551558
0.517927
0.486959
0.458382
0.431951
0.407451
0.384688
0.363493
0.343719
0.325237
0.307941
0.291739
0.27656
0.262344
0.249044
0.236624
0.225052
0.2143
0.20434
0.195145
0.186684
0.178924
0.17183
0.165361
0.15948
0.154146
0.149317
0.144954
0.141019
0.137475
0.134287
0.131423
0.128852
0.126548
0.124484
0.122637
0.120986
0.119512
0.118197
0.117025
0.115981
0.115052
0.114228
0.113495
0.112846
0.112272
0.111763
0.111314
0.110917
0.110568
0.11026
0.109988
0.10975
0.10954
0.109356
0.109194
0.109052
0.108927
0.108818
0.108721
0.108637
0.108562
0.108497
0.108439
0.108387
0.108342
0.108301
0.108265
0.108233
0.108204
0.108177
0.108154
0.108132
0.108112
0.108094
0.108078
0.108062
0.108048
0.108035
0.108022
0.108011
0.108
0.10799
0.10798
0.107971
0.107963
0.107956
0.107949
0.107943
0.107939
0.107935
0.107933
0.961694
0.892177
0.82905
0.77164
0.719351
0.671651
0.628062
0.588161
0.551567
0.517942
0.48698
0.458409
0.431986
0.407494
0.384741
0.363557
0.343794
0.325324
0.308039
0.29185
0.276683
0.262478
0.249188
0.236776
0.225211
0.214463
0.204506
0.195312
0.18685
0.179088
0.171989
0.165516
0.159629
0.154287
0.149451
0.145081
0.141138
0.137586
0.13439
0.131518
0.12894
0.126629
0.124558
0.122705
0.121049
0.119569
0.118248
0.117071
0.116023
0.11509
0.114261
0.113526
0.112873
0.112296
0.111784
0.111333
0.110934
0.110582
0.110272
0.109999
0.109759
0.109548
0.109362
0.1092
0.109057
0.108931
0.108821
0.108724
0.108639
0.108564
0.108497
0.108439
0.108387
0.108342
0.108301
0.108265
0.108232
0.108203
0.108177
0.108153
0.108131
0.108112
0.108094
0.108077
0.108062
0.108048
0.108034
0.108022
0.10801
0.108
0.107989
0.10798
0.107971
0.107963
0.107956
0.107949
0.107943
0.107939
0.107935
0.107933
0.961694
0.892176
0.829048
0.771639
0.719351
0.671651
0.628064
0.588166
0.551577
0.517955
0.486999
0.458435
0.432019
0.407536
0.384792
0.363618
0.343866
0.325408
0.308135
0.291958
0.276802
0.262608
0.249328
0.236925
0.225366
0.214623
0.20467
0.195476
0.187014
0.179249
0.172146
0.165668
0.159775
0.154427
0.149583
0.145205
0.141255
0.137695
0.134492
0.131613
0.129028
0.126709
0.124632
0.122773
0.12111
0.119625
0.118299
0.117117
0.116064
0.115127
0.114295
0.113556
0.1129
0.112319
0.111805
0.111351
0.11095
0.110596
0.110284
0.11001
0.109768
0.109556
0.109369
0.109205
0.109061
0.108935
0.108824
0.108726
0.10864
0.108565
0.108498
0.108439
0.108388
0.108341
0.108301
0.108264
0.108232
0.108202
0.108176
0.108152
0.108131
0.108111
0.108093
0.108076
0.108061
0.108047
0.108034
0.108021
0.10801
0.107999
0.107989
0.10798
0.107971
0.107963
0.107956
0.107949
0.107943
0.107939
0.107935
0.107933
0.961693
0.892175
0.829047
0.771637
0.71935
0.671651
0.628067
0.588171
0.551585
0.517968
0.487017
0.458459
0.432051
0.407576
0.384841
0.363677
0.343936
0.325489
0.308228
0.292063
0.276918
0.262734
0.249464
0.237069
0.225517
0.21478
0.204829
0.195637
0.187174
0.179407
0.1723
0.165817
0.159918
0.154564
0.149714
0.145328
0.14137
0.137803
0.134592
0.131706
0.129114
0.126789
0.124705
0.12284
0.121171
0.119681
0.11835
0.117163
0.116105
0.115165
0.114328
0.113585
0.112926
0.112343
0.111826
0.111369
0.110966
0.11061
0.110296
0.11002
0.109777
0.109563
0.109375
0.10921
0.109065
0.108938
0.108826
0.108728
0.108642
0.108566
0.108499
0.10844
0.108387
0.108341
0.1083
0.108263
0.108231
0.108201
0.108175
0.108151
0.108129
0.10811
0.108092
0.108075
0.10806
0.108046
0.108033
0.10802
0.108009
0.107998
0.107988
0.107979
0.10797
0.107963
0.107955
0.107949
0.107943
0.107939
0.107935
0.107933
0.961693
0.892174
0.829045
0.771636
0.719349
0.671651
0.628069
0.588176
0.551593
0.51798
0.487034
0.458482
0.432081
0.407614
0.384888
0.363734
0.344003
0.325567
0.308318
0.292163
0.27703
0.262857
0.249597
0.23721
0.225665
0.214932
0.204984
0.195794
0.18733
0.179561
0.172451
0.165964
0.160059
0.154698
0.149841
0.145449
0.141484
0.137909
0.134691
0.131798
0.129199
0.126867
0.124777
0.122906
0.121232
0.119735
0.118399
0.117208
0.116146
0.115201
0.114361
0.113615
0.112952
0.112366
0.111846
0.111387
0.110981
0.110623
0.110308
0.11003
0.109785
0.10957
0.109381
0.109215
0.109069
0.108941
0.108829
0.10873
0.108643
0.108566
0.108499
0.10844
0.108387
0.108341
0.108299
0.108263
0.10823
0.1082
0.108174
0.10815
0.108128
0.108109
0.108091
0.108074
0.108059
0.108045
0.108032
0.10802
0.108008
0.107998
0.107988
0.107979
0.10797
0.107962
0.107955
0.107949
0.107943
0.107939
0.107935
0.107933
0.961692
0.892173
0.829044
0.771634
0.719348
0.671652
0.62807
0.58818
0.5516
0.517992
0.48705
0.458504
0.43211
0.40765
0.384933
0.363788
0.344067
0.325642
0.308404
0.292261
0.277138
0.262975
0.249724
0.237346
0.225807
0.21508
0.205135
0.195946
0.187482
0.179711
0.172598
0.166106
0.160197
0.15483
0.149966
0.145567
0.141595
0.138014
0.134789
0.131888
0.129283
0.126944
0.124848
0.122971
0.121291
0.119789
0.118448
0.117252
0.116186
0.115237
0.114393
0.113643
0.112978
0.112388
0.111866
0.111405
0.110997
0.110637
0.110319
0.11004
0.109794
0.109577
0.109387
0.10922
0.109073
0.108944
0.108831
0.108731
0.108644
0.108567
0.108499
0.10844
0.108387
0.10834
0.108298
0.108262
0.108229
0.108199
0.108173
0.108149
0.108127
0.108107
0.108089
0.108073
0.108058
0.108044
0.108031
0.108019
0.108007
0.107997
0.107987
0.107978
0.107969
0.107962
0.107955
0.107948
0.107943
0.107938
0.107935
0.107933
0.961692
0.892172
0.829042
0.771633
0.719347
0.671652
0.628072
0.588184
0.551607
0.518002
0.487066
0.458525
0.432137
0.407685
0.384976
0.36384
0.344129
0.325714
0.308486
0.292354
0.277242
0.26309
0.249848
0.237477
0.225945
0.215222
0.205281
0.196094
0.18763
0.179857
0.172741
0.166245
0.160331
0.154958
0.150089
0.145683
0.141704
0.138115
0.134884
0.131976
0.129364
0.12702
0.124918
0.123034
0.121349
0.119842
0.118496
0.117296
0.116225
0.115272
0.114425
0.113672
0.113003
0.112411
0.111886
0.111422
0.111012
0.11065
0.11033
0.110049
0.109802
0.109584
0.109393
0.109224
0.109077
0.108947
0.108833
0.108733
0.108645
0.108568
0.108499
0.108439
0.108386
0.108339
0.108297
0.10826
0.108227
0.108198
0.108171
0.108147
0.108126
0.108106
0.108088
0.108071
0.108056
0.108042
0.108029
0.108017
0.108006
0.107996
0.107986
0.107977
0.107969
0.107961
0.107954
0.107948
0.107942
0.107938
0.107935
0.107932
0.961691
0.892171
0.829041
0.771632
0.719346
0.671652
0.628074
0.588187
0.551614
0.518012
0.48708
0.458545
0.432163
0.407718
0.385017
0.36389
0.344188
0.325783
0.308566
0.292444
0.277342
0.263199
0.249966
0.237604
0.226078
0.21536
0.205423
0.196237
0.187773
0.179999
0.17288
0.16638
0.160461
0.155083
0.150207
0.145795
0.14181
0.138215
0.134976
0.132063
0.129444
0.127093
0.124985
0.123096
0.121406
0.119894
0.118543
0.117338
0.116264
0.115307
0.114456
0.113699
0.113028
0.112432
0.111905
0.111438
0.111026
0.110662
0.110341
0.110058
0.109809
0.10959
0.109398
0.109229
0.10908
0.10895
0.108835
0.108734
0.108646
0.108568
0.108499
0.108439
0.108385
0.108338
0.108296
0.108259
0.108226
0.108196
0.10817
0.108146
0.108124
0.108104
0.108086
0.10807
0.108055
0.108041
0.108028
0.108016
0.108005
0.107995
0.107985
0.107976
0.107968
0.10796
0.107953
0.107947
0.107942
0.107937
0.107934
0.107932
0.961691
0.89217
0.82904
0.77163
0.719345
0.671652
0.628075
0.588191
0.55162
0.518022
0.487094
0.458563
0.432187
0.407749
0.385055
0.363937
0.344244
0.325849
0.308641
0.29253
0.277438
0.263304
0.25008
0.237725
0.226206
0.215493
0.205559
0.196374
0.187911
0.180135
0.173014
0.166511
0.160587
0.155204
0.150322
0.145904
0.141912
0.138311
0.135066
0.132146
0.129522
0.127165
0.125051
0.123157
0.121461
0.119944
0.118589
0.11738
0.116301
0.11534
0.114486
0.113726
0.113051
0.112453
0.111924
0.111455
0.11104
0.110674
0.110352
0.110067
0.109817
0.109597
0.109403
0.109233
0.109083
0.108952
0.108837
0.108735
0.108646
0.108568
0.108499
0.108438
0.108385
0.108337
0.108295
0.108258
0.108224
0.108195
0.108168
0.108144
0.108122
0.108103
0.108085
0.108068
0.108053
0.10804
0.108027
0.108015
0.108004
0.107994
0.107984
0.107975
0.107967
0.10796
0.107953
0.107947
0.107941
0.107937
0.107934
0.107932
0.961691
0.892169
0.829038
0.771629
0.719344
0.671651
0.628076
0.588194
0.551625
0.518031
0.487107
0.458581
0.432211
0.407779
0.385092
0.363981
0.344297
0.325911
0.308713
0.292611
0.277529
0.263405
0.250189
0.237842
0.226329
0.215621
0.205689
0.196507
0.188043
0.180267
0.173144
0.166637
0.160709
0.155321
0.150434
0.14601
0.142012
0.138404
0.135153
0.132228
0.129597
0.127235
0.125115
0.123216
0.121515
0.119993
0.118634
0.11742
0.116337
0.115373
0.114515
0.113752
0.113075
0.112474
0.111942
0.11147
0.111054
0.110686
0.110362
0.110076
0.109824
0.109603
0.109408
0.109237
0.109086
0.108954
0.108838
0.108736
0.108647
0.108568
0.108499
0.108438
0.108384
0.108336
0.108294
0.108256
0.108223
0.108193
0.108166
0.108142
0.108121
0.108101
0.108083
0.108067
0.108052
0.108038
0.108025
0.108014
0.108003
0.107993
0.107983
0.107974
0.107966
0.107959
0.107952
0.107946
0.107941
0.107936
0.107933
0.107931
0.96169
0.892168
0.829037
0.771628
0.719343
0.671651
0.628077
0.588197
0.551631
0.518039
0.487119
0.458598
0.432233
0.407807
0.385127
0.364024
0.344348
0.325971
0.308782
0.292689
0.277616
0.263501
0.250294
0.237953
0.226446
0.215743
0.205815
0.196634
0.188171
0.180394
0.173268
0.166758
0.160826
0.155433
0.150541
0.146112
0.142108
0.138495
0.135238
0.132306
0.12967
0.127302
0.125177
0.123273
0.121567
0.120041
0.118677
0.117459
0.116373
0.115405
0.114543
0.113777
0.113097
0.112494
0.111959
0.111486
0.111067
0.110698
0.110372
0.110084
0.109831
0.109608
0.109413
0.10924
0.109089
0.108956
0.10884
0.108737
0.108647
0.108568
0.108498
0.108437
0.108383
0.108335
0.108292
0.108255
0.108221
0.108191
0.108165
0.108141
0.108119
0.108099
0.108081
0.108065
0.10805
0.108037
0.108024
0.108012
0.108001
0.107991
0.107982
0.107973
0.107965
0.107958
0.107951
0.107945
0.10794
0.107936
0.107932
0.10793
0.96169
0.892167
0.829036
0.771627
0.719342
0.671651
0.628078
0.5882
0.551636
0.518047
0.48713
0.458614
0.432253
0.407833
0.38516
0.364064
0.344396
0.326028
0.308847
0.292764
0.277699
0.263593
0.250393
0.238059
0.226558
0.215859
0.205935
0.196756
0.188293
0.180515
0.173388
0.166875
0.160939
0.155541
0.150644
0.14621
0.142201
0.138582
0.135319
0.132382
0.12974
0.127367
0.125237
0.123327
0.121617
0.120087
0.118718
0.117497
0.116407
0.115435
0.114571
0.113802
0.113119
0.112513
0.111976
0.1115
0.11108
0.110709
0.110381
0.110092
0.109838
0.109614
0.109417
0.109244
0.109092
0.108958
0.108841
0.108738
0.108647
0.108568
0.108498
0.108436
0.108382
0.108334
0.108291
0.108253
0.10822
0.10819
0.108163
0.108139
0.108117
0.108097
0.10808
0.108063
0.108049
0.108035
0.108022
0.108011
0.108
0.10799
0.107981
0.107972
0.107964
0.107957
0.10795
0.107944
0.107939
0.107935
0.107932
0.10793
0.96169
0.892167
0.829035
0.771626
0.719342
0.671651
0.628079
0.588202
0.55164
0.518055
0.487141
0.458628
0.432273
0.407858
0.385191
0.364102
0.344442
0.326081
0.308909
0.292834
0.277778
0.263679
0.250487
0.238161
0.226665
0.215971
0.206049
0.196872
0.18841
0.180631
0.173502
0.166986
0.161046
0.155645
0.150743
0.146304
0.142289
0.138665
0.135397
0.132455
0.129808
0.127429
0.125295
0.12338
0.121665
0.120131
0.118759
0.117533
0.116439
0.115465
0.114597
0.113825
0.11314
0.112531
0.111992
0.111515
0.111092
0.110719
0.11039
0.1101
0.109844
0.109619
0.109421
0.109247
0.109094
0.10896
0.108842
0.108739
0.108648
0.108568
0.108497
0.108435
0.108381
0.108332
0.10829
0.108252
0.108218
0.108188
0.108161
0.108137
0.108115
0.108096
0.108078
0.108062
0.108047
0.108033
0.108021
0.108009
0.107999
0.107989
0.107979
0.107971
0.107963
0.107956
0.107949
0.107943
0.107938
0.107934
0.107931
0.107929
0.96169
0.892166
0.829034
0.771625
0.719341
0.671651
0.62808
0.588204
0.551645
0.518062
0.487151
0.458642
0.432291
0.407882
0.385221
0.364138
0.344485
0.326132
0.308968
0.292901
0.277853
0.263762
0.250577
0.238256
0.226766
0.216076
0.206158
0.196982
0.188521
0.180742
0.173611
0.167092
0.161149
0.155744
0.150838
0.146394
0.142374
0.138745
0.135472
0.132524
0.129872
0.127489
0.12535
0.123431
0.121712
0.120173
0.118797
0.117568
0.116471
0.115493
0.114622
0.113848
0.11316
0.112549
0.112008
0.111528
0.111104
0.110729
0.110399
0.110107
0.10985
0.109624
0.109425
0.10925
0.109097
0.108962
0.108843
0.108739
0.108648
0.108567
0.108497
0.108434
0.108379
0.108331
0.108288
0.10825
0.108216
0.108186
0.108159
0.108135
0.108113
0.108094
0.108076
0.10806
0.108045
0.108032
0.108019
0.108008
0.107997
0.107987
0.107978
0.10797
0.107962
0.107955
0.107948
0.107942
0.107937
0.107933
0.10793
0.107928
0.961689
0.892165
0.829033
0.771624
0.71934
0.671651
0.628081
0.588207
0.551649
0.518068
0.487161
0.458655
0.432309
0.407904
0.385249
0.364172
0.344526
0.326179
0.309023
0.292963
0.277923
0.26384
0.250661
0.238347
0.226862
0.216176
0.206261
0.197087
0.188626
0.180847
0.173714
0.167193
0.161248
0.155838
0.150928
0.14648
0.142456
0.138821
0.135544
0.132591
0.129934
0.127547
0.125403
0.12348
0.121756
0.120214
0.118834
0.117601
0.116501
0.11552
0.114647
0.113869
0.113179
0.112566
0.112022
0.111541
0.111115
0.110739
0.110407
0.110114
0.109856
0.109629
0.109429
0.109253
0.109099
0.108963
0.108844
0.10874
0.108648
0.108567
0.108496
0.108433
0.108378
0.108329
0.108286
0.108248
0.108214
0.108184
0.108157
0.108133
0.108111
0.108092
0.108074
0.108058
0.108043
0.10803
0.108018
0.108006
0.107996
0.107986
0.107977
0.107969
0.107961
0.107954
0.107947
0.107942
0.107937
0.107933
0.107929
0.107927
0.961689
0.892165
0.829032
0.771623
0.719339
0.671651
0.628082
0.588209
0.551653
0.518074
0.48717
0.458668
0.432325
0.407925
0.385275
0.364204
0.344564
0.326224
0.309075
0.293023
0.27799
0.263913
0.250741
0.238433
0.226953
0.216271
0.206358
0.197187
0.188726
0.180946
0.173812
0.167289
0.161341
0.155928
0.151014
0.146561
0.142533
0.138894
0.135612
0.132654
0.129993
0.127601
0.125453
0.123526
0.121799
0.120252
0.118869
0.117633
0.11653
0.115546
0.11467
0.11389
0.113197
0.112582
0.112037
0.111553
0.111126
0.110748
0.110415
0.11012
0.109861
0.109633
0.109432
0.109256
0.109101
0.108965
0.108845
0.10874
0.108648
0.108566
0.108495
0.108432
0.108377
0.108328
0.108285
0.108247
0.108213
0.108182
0.108155
0.108131
0.10811
0.10809
0.108072
0.108056
0.108042
0.108028
0.108016
0.108005
0.107994
0.107985
0.107976
0.107967
0.10796
0.107953
0.107946
0.107941
0.107936
0.107932
0.107929
0.107927
0.961689
0.892164
0.829032