/*--------------------------------*- C++ -*----------------------------------*\
  =========                 |
  \\      /  F ield         | OpenFOAM: The Open Source CFD Toolbox
   \\    /   O peration     | Website:  https://openfoam.org
    \\  /    A nd           | Version:  11
     \\/     M anipulation  |
\*---------------------------------------------------------------------------*/
FoamFile
{
    format      ascii;
    class       surfaceScalarField;
    location    "894";
    object      phi;
}
// * * * * * * * * * * * * * * * * * * * * * * * * * * * * * * * * * * * * * //

dimensions      [0 3 -1 0 0 0 0];

internalField   nonuniform List<scalar> 
19800
(
2e-05
-7.52852e-12
2e-05
-2.09728e-11
2e-05
-3.34068e-11
2e-05
-4.52384e-11
2e-05
-5.68744e-11
2e-05
-6.86071e-11
2e-05
-8.06551e-11
2e-05
-9.31959e-11
1.99999e-05
-1.06382e-10
1.99999e-05
-1.20351e-10
1.99999e-05
-1.35235e-10
1.99999e-05
-1.51163e-10
1.99999e-05
-1.68263e-10
1.99999e-05
-1.86668e-10
1.99999e-05
-2.06513e-10
1.99998e-05
-2.2794e-10
1.99998e-05
-2.51098e-10
1.99998e-05
-2.76144e-10
1.99998e-05
-3.03242e-10
1.99997e-05
-3.3257e-10
1.99997e-05
-3.64312e-10
1.99997e-05
-3.98666e-10
1.99996e-05
-4.35843e-10
1.99996e-05
-4.76065e-10
1.99996e-05
-5.1957e-10
1.99995e-05
-5.66609e-10
1.99995e-05
-6.1745e-10
1.99994e-05
-6.72378e-10
1.99994e-05
-7.31694e-10
1.99993e-05
-7.95717e-10
1.99992e-05
-8.64787e-10
1.99992e-05
-9.39263e-10
1.99991e-05
-1.01952e-09
1.9999e-05
-1.10597e-09
1.99989e-05
-1.19903e-09
1.99988e-05
-1.29916e-09
1.99987e-05
-1.40681e-09
1.99986e-05
-1.5225e-09
1.99985e-05
-1.64675e-09
1.99984e-05
-1.7801e-09
1.99983e-05
-1.92315e-09
1.99982e-05
-2.07649e-09
1.9998e-05
-2.24078e-09
1.99979e-05
-2.41669e-09
1.99977e-05
-2.60491e-09
1.99975e-05
-2.80618e-09
1.99974e-05
-3.02127e-09
1.99972e-05
-3.25099e-09
1.9997e-05
-3.49617e-09
1.99968e-05
-3.75769e-09
1.99965e-05
-4.03645e-09
1.99963e-05
-4.3334e-09
1.9996e-05
-4.64953e-09
1.99958e-05
-4.98584e-09
1.99955e-05
-5.3434e-09
1.99952e-05
-5.7233e-09
1.99949e-05
-6.12665e-09
1.99945e-05
-6.55463e-09
1.99942e-05
-7.00842e-09
1.99938e-05
-7.48926e-09
1.99934e-05
-7.99841e-09
1.9993e-05
-8.53716e-09
1.99926e-05
-9.10682e-09
1.99922e-05
-9.70874e-09
1.99917e-05
-1.03443e-08
1.99912e-05
-1.10148e-08
1.99907e-05
-1.17217e-08
1.99902e-05
-1.24664e-08
1.99896e-05
-1.32503e-08
1.9989e-05
-1.40747e-08
1.99884e-05
-1.4941e-08
1.99878e-05
-1.58506e-08
1.99872e-05
-1.68047e-08
1.99865e-05
-1.78044e-08
1.99858e-05
-1.8851e-08
1.9985e-05
-1.99455e-08
1.99843e-05
-2.10885e-08
1.99835e-05
-2.22809e-08
1.99827e-05
-2.3523e-08
1.99819e-05
-2.48149e-08
1.9981e-05
-2.61565e-08
1.99802e-05
-2.75469e-08
1.99793e-05
-2.8985e-08
1.99784e-05
-3.04688e-08
1.99775e-05
-3.19956e-08
1.99766e-05
-3.35615e-08
1.99756e-05
-3.51616e-08
1.99747e-05
-3.67893e-08
1.99738e-05
-3.84363e-08
1.99728e-05
-4.00919e-08
1.99719e-05
-4.17429e-08
1.9971e-05
-4.33729e-08
1.99702e-05
-4.49619e-08
1.99694e-05
-4.64855e-08
1.99686e-05
-4.79142e-08
1.99679e-05
-4.92136e-08
1.99673e-05
-5.03435e-08
1.99668e-05
-5.12583e-08
1.99664e-05
-5.1912e-08
-5.22857e-08
2e-05
-5.99449e-12
2e-05
-1.78199e-11
2e-05
-2.91893e-11
2e-05
-4.00996e-11
2e-05
-5.08416e-11
2e-05
-6.16643e-11
2e-05
-7.27637e-11
2e-05
-8.43034e-11
1.99999e-05
-9.64261e-11
1.99999e-05
-1.09263e-10
1.99999e-05
-1.22938e-10
1.99999e-05
-1.37573e-10
1.99999e-05
-1.53292e-10
1.99999e-05
-1.70219e-10
1.99999e-05
-1.88484e-10
1.99998e-05
-2.08222e-10
1.99998e-05
-2.29574e-10
1.99998e-05
-2.5269e-10
1.99998e-05
-2.77728e-10
1.99997e-05
-3.04855e-10
1.99997e-05
-3.34249e-10
1.99997e-05
-3.661e-10
1.99996e-05
-4.00607e-10
1.99996e-05
-4.37986e-10
1.99996e-05
-4.78463e-10
1.99995e-05
-5.2228e-10
1.99995e-05
-5.69694e-10
1.99994e-05
-6.2098e-10
1.99994e-05
-6.76426e-10
1.99993e-05
-7.36341e-10
1.99992e-05
-8.01053e-10
1.99992e-05
-8.70907e-10
1.99991e-05
-9.4627e-10
1.9999e-05
-1.02753e-09
1.99989e-05
-1.1151e-09
1.99988e-05
-1.20942e-09
1.99988e-05
-1.31093e-09
1.99987e-05
-1.42013e-09
1.99985e-05
-1.53753e-09
1.99984e-05
-1.66366e-09
1.99983e-05
-1.79909e-09
1.99982e-05
-1.94441e-09
1.9998e-05
-2.10025e-09
1.99979e-05
-2.26726e-09
1.99977e-05
-2.44613e-09
1.99976e-05
-2.63757e-09
1.99974e-05
-2.84235e-09
1.99972e-05
-3.06124e-09
1.9997e-05
-3.29508e-09
1.99968e-05
-3.54471e-09
1.99965e-05
-3.81103e-09
1.99963e-05
-4.09497e-09
1.99961e-05
-4.3975e-09
1.99958e-05
-4.71963e-09
1.99955e-05
-5.06238e-09
1.99952e-05
-5.42685e-09
1.99949e-05
-5.81416e-09
1.99946e-05
-6.22544e-09
1.99942e-05
-6.6619e-09
1.99939e-05
-7.12476e-09
1.99935e-05
-7.61527e-09
1.99931e-05
-8.13474e-09
1.99926e-05
-8.68448e-09
1.99922e-05
-9.26585e-09
1.99917e-05
-9.88022e-09
1.99913e-05
-1.0529e-08
1.99907e-05
-1.12136e-08
1.99902e-05
-1.19354e-08
1.99897e-05
-1.26959e-08
1.99891e-05
-1.34965e-08
1.99885e-05
-1.43386e-08
1.99879e-05
-1.52237e-08
1.99872e-05
-1.6153e-08
1.99865e-05
-1.71279e-08
1.99858e-05
-1.81495e-08
1.99851e-05
-1.92191e-08
1.99843e-05
-2.03376e-08
1.99836e-05
-2.15059e-08
1.99828e-05
-2.27245e-08
1.9982e-05
-2.39938e-08
1.99811e-05
-2.53138e-08
1.99802e-05
-2.66841e-08
1.99794e-05
-2.81038e-08
1.99785e-05
-2.95714e-08
1.99776e-05
-3.10845e-08
1.99766e-05
-3.26397e-08
1.99757e-05
-3.42328e-08
1.99748e-05
-3.58576e-08
1.99738e-05
-3.75065e-08
1.99729e-05
-3.91697e-08
1.9972e-05
-4.08349e-08
1.99711e-05
-4.24866e-08
1.99703e-05
-4.41057e-08
1.99695e-05
-4.56689e-08
1.99687e-05
-4.71481e-08
1.9968e-05
-4.851e-08
1.99674e-05
-4.97147e-08
1.99668e-05
-5.07162e-08
1.99664e-05
-5.14654e-08
-5.1928e-08
2e-05
-4.83727e-12
2e-05
-1.50246e-11
2e-05
-2.51755e-11
2e-05
-3.50757e-11
2e-05
-4.48804e-11
2e-05
-5.47748e-11
2e-05
-6.49212e-11
2e-05
-7.54631e-11
1.99999e-05
-8.65304e-11
1.99999e-05
-9.82447e-11
1.99999e-05
-1.10723e-10
1.99999e-05
-1.2408e-10
1.99999e-05
-1.38431e-10
1.99999e-05
-1.53896e-10
1.99999e-05
-1.70598e-10
1.99998e-05
-1.88663e-10
1.99998e-05
-2.08228e-10
1.99998e-05
-2.29434e-10
1.99998e-05
-2.52431e-10
1.99997e-05
-2.77379e-10
1.99997e-05
-3.04448e-10
1.99997e-05
-3.33819e-10
1.99996e-05
-3.65682e-10
1.99996e-05
-4.00244e-10
1.99996e-05
-4.37721e-10
1.99995e-05
-4.78345e-10
1.99995e-05
-5.22364e-10
1.99994e-05
-5.7004e-10
1.99994e-05
-6.21652e-10
1.99993e-05
-6.77496e-10
1.99993e-05
-7.37888e-10
1.99992e-05
-8.0316e-10
1.99991e-05
-8.73669e-10
1.9999e-05
-9.49788e-10
1.99989e-05
-1.03192e-09
1.99989e-05
-1.12047e-09
1.99988e-05
-1.2159e-09
1.99987e-05
-1.31867e-09
1.99986e-05
-1.42928e-09
1.99984e-05
-1.54824e-09
1.99983e-05
-1.67612e-09
1.99982e-05
-1.81348e-09
1.9998e-05
-1.96093e-09
1.99979e-05
-2.11912e-09
1.99977e-05
-2.28872e-09
1.99976e-05
-2.47042e-09
1.99974e-05
-2.66496e-09
1.99972e-05
-2.87311e-09
1.9997e-05
-3.09569e-09
1.99968e-05
-3.33353e-09
1.99966e-05
-3.5875e-09
1.99963e-05
-3.85854e-09
1.99961e-05
-4.14757e-09
1.99958e-05
-4.45561e-09
1.99955e-05
-4.78368e-09
1.99953e-05
-5.13284e-09
1.99949e-05
-5.5042e-09
1.99946e-05
-5.89892e-09
1.99943e-05
-6.31816e-09
1.99939e-05
-6.76316e-09
1.99935e-05
-7.23517e-09
1.99931e-05
-7.73549e-09
1.99927e-05
-8.26544e-09
1.99923e-05
-8.82639e-09
1.99918e-05
-9.41973e-09
1.99913e-05
-1.00469e-08
1.99908e-05
-1.07093e-08
1.99903e-05
-1.14083e-08
1.99897e-05
-1.21456e-08
1.99892e-05
-1.29225e-08
1.99886e-05
-1.37406e-08
1.9988e-05
-1.46012e-08
1.99873e-05
-1.55059e-08
1.99866e-05
-1.64559e-08
1.99859e-05
-1.74528e-08
1.99852e-05
-1.84976e-08
1.99845e-05
-1.95916e-08
1.99837e-05
-2.07357e-08
1.99829e-05
-2.19308e-08
1.99821e-05
-2.31774e-08
1.99813e-05
-2.44757e-08
1.99804e-05
-2.58258e-08
1.99795e-05
-2.72269e-08
1.99786e-05
-2.86779e-08
1.99777e-05
-3.01769e-08
1.99768e-05
-3.1721e-08
1.99759e-05
-3.33062e-08
1.99749e-05
-3.49273e-08
1.9974e-05
-3.65771e-08
1.99731e-05
-3.82466e-08
1.99722e-05
-3.99242e-08
1.99713e-05
-4.15952e-08
1.99704e-05
-4.32414e-08
1.99696e-05
-4.48403e-08
1.99688e-05
-4.63643e-08
1.99681e-05
-4.77803e-08
1.99674e-05
-4.90477e-08
1.99668e-05
-5.01181e-08
1.99663e-05
-5.09367e-08
-5.14581e-08
2e-05
-3.9118e-12
2e-05
-1.2564e-11
2e-05
-2.14456e-11
2e-05
-3.02623e-11
2e-05
-3.90762e-11
2e-05
-4.80101e-11
2e-05
-5.71875e-11
2e-05
-6.67271e-11
1.99999e-05
-7.67426e-11
1.99999e-05
-8.73434e-11
1.99999e-05
-9.86369e-11
1.99999e-05
-1.1073e-10
1.99999e-05
-1.23733e-10
1.99999e-05
-1.37755e-10
1.99999e-05
-1.52915e-10
1.99998e-05
-1.69331e-10
1.99998e-05
-1.87133e-10
1.99998e-05
-2.06454e-10
1.99998e-05
-2.27439e-10
1.99997e-05
-2.50238e-10
1.99997e-05
-2.75013e-10
1.99997e-05
-3.01936e-10
1.99997e-05
-3.31191e-10
1.99996e-05
-3.62972e-10
1.99996e-05
-3.97489e-10
1.99995e-05
-4.34963e-10
1.99995e-05
-4.7563e-10
1.99994e-05
-5.19743e-10
1.99994e-05
-5.67569e-10
1.99993e-05
-6.19393e-10
1.99993e-05
-6.75519e-10
1.99992e-05
-7.36268e-10
1.99991e-05
-8.01981e-10
1.9999e-05
-8.73022e-10
1.9999e-05
-9.49773e-10
1.99989e-05
-1.03264e-09
1.99988e-05
-1.12206e-09
1.99987e-05
-1.21848e-09
1.99986e-05
-1.32237e-09
1.99985e-05
-1.43426e-09
1.99983e-05
-1.55467e-09
1.99982e-05
-1.68416e-09
1.99981e-05
-1.82334e-09
1.99979e-05
-1.97281e-09
1.99978e-05
-2.13323e-09
1.99976e-05
-2.3053e-09
1.99974e-05
-2.48972e-09
1.99972e-05
-2.68726e-09
1.9997e-05
-2.89871e-09
1.99968e-05
-3.12488e-09
1.99966e-05
-3.36665e-09
1.99964e-05
-3.62491e-09
1.99961e-05
-3.9006e-09
1.99959e-05
-4.1947e-09
1.99956e-05
-4.50823e-09
1.99953e-05
-4.84225e-09
1.9995e-05
-5.19784e-09
1.99947e-05
-5.57615e-09
1.99943e-05
-5.97836e-09
1.9994e-05
-6.40568e-09
1.99936e-05
-6.85937e-09
1.99932e-05
-7.34072e-09
1.99928e-05
-7.85108e-09
1.99924e-05
-8.3918e-09
1.99919e-05
-8.96429e-09
1.99914e-05
-9.57e-09
1.99909e-05
-1.02104e-08
1.99904e-05
-1.08869e-08
1.99899e-05
-1.16011e-08
1.99893e-05
-1.23545e-08
1.99887e-05
-1.31487e-08
1.99881e-05
-1.39851e-08
1.99875e-05
-1.48652e-08
1.99868e-05
-1.57906e-08
1.99861e-05
-1.67627e-08
1.99854e-05
-1.77829e-08
1.99846e-05
-1.88524e-08
1.99839e-05
-1.99724e-08
1.99831e-05
-2.11439e-08
1.99823e-05
-2.23677e-08
1.99814e-05
-2.36443e-08
1.99806e-05
-2.49739e-08
1.99797e-05
-2.63561e-08
1.99788e-05
-2.77901e-08
1.99779e-05
-2.92744e-08
1.9977e-05
-3.08066e-08
1.99761e-05
-3.23831e-08
1.99752e-05
-3.39993e-08
1.99742e-05
-3.56486e-08
1.99733e-05
-3.73224e-08
1.99724e-05
-3.901e-08
1.99715e-05
-4.06972e-08
1.99706e-05
-4.23665e-08
1.99698e-05
-4.39958e-08
1.9969e-05
-4.55578e-08
1.99682e-05
-4.70186e-08
1.99675e-05
-4.83363e-08
1.99668e-05
-4.94589e-08
1.99662e-05
-5.03239e-08
-5.0872e-08
2e-05
-3.14141e-12
2e-05
-1.03797e-11
2e-05
-1.80064e-11
2e-05
-2.57076e-11
2e-05
-3.34922e-11
2e-05
-4.14354e-11
2e-05
-4.96248e-11
2e-05
-5.81539e-11
2e-05
-6.71176e-11
1.99999e-05
-7.66117e-11
1.99999e-05
-8.67329e-11
1.99999e-05
-9.75794e-11
1.99999e-05
-1.09252e-10
1.99999e-05
-1.21855e-10
1.99999e-05
-1.35497e-10
1.99998e-05
-1.50292e-10
1.99998e-05
-1.6636e-10
1.99998e-05
-1.8383e-10
1.99998e-05
-2.02835e-10
1.99998e-05
-2.23522e-10
1.99997e-05
-2.46042e-10
1.99997e-05
-2.70559e-10
1.99997e-05
-2.97249e-10
1.99996e-05
-3.26297e-10
1.99996e-05
-3.57902e-10
1.99995e-05
-3.92277e-10
1.99995e-05
-4.29648e-10
1.99994e-05
-4.70256e-10
1.99994e-05
-5.14358e-10
1.99993e-05
-5.62227e-10
1.99993e-05
-6.14156e-10
1.99992e-05
-6.70454e-10
1.99991e-05
-7.31449e-10
1.99991e-05
-7.97492e-10
1.9999e-05
-8.68952e-10
1.99989e-05
-9.46222e-10
1.99988e-05
-1.02972e-09
1.99987e-05
-1.11988e-09
1.99986e-05
-1.21717e-09
1.99985e-05
-1.32209e-09
1.99984e-05
-1.43515e-09
1.99982e-05
-1.5569e-09
1.99981e-05
-1.68791e-09
1.9998e-05
-1.82879e-09
1.99978e-05
-1.98018e-09
1.99976e-05
-2.14275e-09
1.99975e-05
-2.31721e-09
1.99973e-05
-2.50428e-09
1.99971e-05
-2.70476e-09
1.99969e-05
-2.91944e-09
1.99967e-05
-3.14917e-09
1.99964e-05
-3.39484e-09
1.99962e-05
-3.65737e-09
1.99959e-05
-3.93773e-09
1.99957e-05
-4.23692e-09
1.99954e-05
-4.55599e-09
1.99951e-05
-4.89602e-09
1.99948e-05
-5.25814e-09
1.99944e-05
-5.64353e-09
1.99941e-05
-6.0534e-09
1.99937e-05
-6.489e-09
1.99933e-05
-6.95162e-09
1.99929e-05
-7.44261e-09
1.99925e-05
-7.96335e-09
1.9992e-05
-8.51524e-09
1.99916e-05
-9.09975e-09
1.99911e-05
-9.71836e-09
1.99906e-05
-1.03726e-08
1.999e-05
-1.1064e-08
1.99895e-05
-1.17941e-08
1.99889e-05
-1.25645e-08
1.99883e-05
-1.33769e-08
1.99876e-05
-1.42327e-08
1.9987e-05
-1.51336e-08
1.99863e-05
-1.60811e-08
1.99856e-05
-1.70767e-08
1.99849e-05
-1.81219e-08
1.99841e-05
-1.92178e-08
1.99833e-05
-2.03658e-08
1.99825e-05
-2.15667e-08
1.99817e-05
-2.28213e-08
1.99809e-05
-2.41301e-08
1.998e-05
-2.54929e-08
1.99791e-05
-2.69094e-08
1.99782e-05
-2.83783e-08
1.99773e-05
-2.98977e-08
1.99764e-05
-3.14644e-08
1.99755e-05
-3.30742e-08
1.99745e-05
-3.4721e-08
1.99736e-05
-3.6397e-08
1.99727e-05
-3.80916e-08
1.99718e-05
-3.97914e-08
1.99709e-05
-4.14792e-08
1.997e-05
-4.3133e-08
1.99692e-05
-4.47254e-08
1.99684e-05
-4.62216e-08
1.99676e-05
-4.7578e-08
1.99669e-05
-4.87389e-08
1.99662e-05
-4.9635e-08
-5.01806e-08
2e-05
-2.47885e-12
2e-05
-8.42189e-12
2e-05
-1.48398e-11
2e-05
-2.1427e-11
2e-05
-2.81661e-11
2e-05
-3.50998e-11
2e-05
-4.22873e-11
2e-05
-4.97986e-11
2e-05
-5.77107e-11
1.99999e-05
-6.61048e-11
1.99999e-05
-7.50659e-11
1.99999e-05
-8.46824e-11
1.99999e-05
-9.50464e-11
1.99999e-05
-1.06254e-10
1.99999e-05
-1.18407e-10
1.99999e-05
-1.31612e-10
1.99998e-05
-1.45981e-10
1.99998e-05
-1.61636e-10
1.99998e-05
-1.78703e-10
1.99998e-05
-1.97319e-10
1.99997e-05
-2.1763e-10
1.99997e-05
-2.39791e-10
1.99997e-05
-2.63967e-10
1.99996e-05
-2.90337e-10
1.99996e-05
-3.1909e-10
1.99996e-05
-3.50428e-10
1.99995e-05
-3.84568e-10
1.99995e-05
-4.2174e-10
1.99994e-05
-4.62192e-10
1.99993e-05
-5.06185e-10
1.99993e-05
-5.53999e-10
1.99992e-05
-6.05932e-10
1.99992e-05
-6.623e-10
1.99991e-05
-7.2344e-10
1.9999e-05
-7.8971e-10
1.99989e-05
-8.61488e-10
1.99988e-05
-9.39176e-10
1.99987e-05
-1.0232e-09
1.99986e-05
-1.11401e-09
1.99985e-05
-1.21209e-09
1.99984e-05
-1.31793e-09
1.99983e-05
-1.43207e-09
1.99981e-05
-1.55507e-09
1.9998e-05
-1.68752e-09
1.99979e-05
-1.83004e-09
1.99977e-05
-1.98329e-09
1.99975e-05
-2.14795e-09
1.99973e-05
-2.32474e-09
1.99972e-05
-2.51444e-09
1.99969e-05
-2.71782e-09
1.99967e-05
-2.93572e-09
1.99965e-05
-3.16901e-09
1.99963e-05
-3.4186e-09
1.9996e-05
-3.68544e-09
1.99958e-05
-3.97053e-09
1.99955e-05
-4.27489e-09
1.99952e-05
-4.59961e-09
1.99949e-05
-4.94581e-09
1.99945e-05
-5.31464e-09
1.99942e-05
-5.70732e-09
1.99938e-05
-6.12509e-09
1.99934e-05
-6.56927e-09
1.9993e-05
-7.04118e-09
1.99926e-05
-7.54221e-09
1.99922e-05
-8.07379e-09
1.99917e-05
-8.63739e-09
1.99912e-05
-9.23451e-09
1.99907e-05
-9.86671e-09
1.99902e-05
-1.05356e-08
1.99896e-05
-1.12427e-08
1.99891e-05
-1.19897e-08
1.99885e-05
-1.27782e-08
1.99878e-05
-1.36099e-08
1.99872e-05
-1.44865e-08
1.99865e-05
-1.54096e-08
1.99858e-05
-1.63808e-08
1.99851e-05
-1.74016e-08
1.99844e-05
-1.84735e-08
1.99836e-05
-1.95978e-08
1.99828e-05
-2.07757e-08
1.9982e-05
-2.20081e-08
1.99812e-05
-2.32957e-08
1.99803e-05
-2.46388e-08
1.99794e-05
-2.60371e-08
1.99785e-05
-2.74898e-08
1.99776e-05
-2.89953e-08
1.99767e-05
-3.05508e-08
1.99758e-05
-3.21524e-08
1.99749e-05
-3.37947e-08
1.9974e-05
-3.547e-08
1.9973e-05
-3.71685e-08
1.99721e-05
-3.88768e-08
1.99712e-05
-4.0578e-08
1.99703e-05
-4.22502e-08
1.99695e-05
-4.38654e-08
1.99686e-05
-4.53881e-08
1.99678e-05
-4.67727e-08
1.99671e-05
-4.79603e-08
1.99663e-05
-4.88761e-08
-4.94092e-08
2e-05
-1.89376e-12
2e-05
-6.65168e-12
2e-05
-1.19213e-11
2e-05
-1.74188e-11
2e-05
-2.31161e-11
2e-05
-2.9036e-11
2e-05
-3.52165e-11
2e-05
-4.17084e-11
2e-05
-4.8572e-11
1.99999e-05
-5.58746e-11
1.99999e-05
-6.36895e-11
1.99999e-05
-7.20947e-11
1.99999e-05
-8.11733e-11
1.99999e-05
-9.10133e-11
1.99999e-05
-1.01708e-10
1.99999e-05
-1.13357e-10
1.99998e-05
-1.26066e-10
1.99998e-05
-1.39947e-10
1.99998e-05
-1.55121e-10
1.99998e-05
-1.71716e-10
1.99997e-05
-1.8987e-10
1.99997e-05
-2.09729e-10
1.99997e-05
-2.31452e-10
1.99996e-05
-2.55206e-10
1.99996e-05
-2.81173e-10
1.99996e-05
-3.09546e-10
1.99995e-05
-3.4053e-10
1.99995e-05
-3.74347e-10
1.99994e-05
-4.11233e-10
1.99994e-05
-4.51438e-10
1.99993e-05
-4.95231e-10
1.99992e-05
-5.42898e-10
1.99992e-05
-5.94744e-10
1.99991e-05
-6.51092e-10
1.9999e-05
-7.12287e-10
1.99989e-05
-7.78695e-10
1.99989e-05
-8.50704e-10
1.99988e-05
-9.28726e-10
1.99987e-05
-1.0132e-09
1.99986e-05
-1.10458e-09
1.99984e-05
-1.20336e-09
1.99983e-05
-1.31006e-09
1.99982e-05
-1.42521e-09
1.9998e-05
-1.54941e-09
1.99979e-05
-1.68324e-09
1.99977e-05
-1.82736e-09
1.99976e-05
-1.98243e-09
1.99974e-05
-2.14915e-09
1.99972e-05
-2.32828e-09
1.9997e-05
-2.52059e-09
1.99968e-05
-2.72689e-09
1.99966e-05
-2.94805e-09
1.99964e-05
-3.18495e-09
1.99961e-05
-3.43854e-09
1.99958e-05
-3.70979e-09
1.99956e-05
-3.99972e-09
1.99953e-05
-4.30941e-09
1.9995e-05
-4.63997e-09
1.99947e-05
-4.99254e-09
1.99943e-05
-5.36833e-09
1.9994e-05
-5.7686e-09
1.99936e-05
-6.19463e-09
1.99932e-05
-6.64778e-09
1.99928e-05
-7.12943e-09
1.99923e-05
-7.64102e-09
1.99919e-05
-8.18402e-09
1.99914e-05
-8.75998e-09
1.99909e-05
-9.37046e-09
1.99904e-05
-1.00171e-08
1.99899e-05
-1.07014e-08
1.99893e-05
-1.14253e-08
1.99887e-05
-1.21903e-08
1.99881e-05
-1.29981e-08
1.99875e-05
-1.38506e-08
1.99868e-05
-1.47494e-08
1.99861e-05
-1.56963e-08
1.99854e-05
-1.66929e-08
1.99847e-05
-1.77407e-08
1.99839e-05
-1.88413e-08
1.99831e-05
-1.9996e-08
1.99823e-05
-2.1206e-08
1.99815e-05
-2.24721e-08
1.99807e-05
-2.37948e-08
1.99798e-05
-2.51742e-08
1.99789e-05
-2.66097e-08
1.9978e-05
-2.81e-08
1.99771e-05
-2.96428e-08
1.99762e-05
-3.12344e-08
1.99753e-05
-3.28697e-08
1.99744e-05
-3.45416e-08
1.99734e-05
-3.62403e-08
1.99725e-05
-3.79528e-08
1.99716e-05
-3.96623e-08
1.99707e-05
-4.13467e-08
1.99698e-05
-4.29776e-08
1.99689e-05
-4.45184e-08
1.99681e-05
-4.59219e-08
1.99672e-05
-4.71264e-08
1.99664e-05
-4.80533e-08
-4.85799e-08
2e-05
-1.36797e-12
2e-05
-5.03899e-12
2e-05
-9.22619e-12
2e-05
-1.36724e-11
2e-05
-1.83478e-11
2e-05
-2.32633e-11
2e-05
-2.84424e-11
2e-05
-3.39206e-11
2e-05
-3.97442e-11
1.99999e-05
-4.59676e-11
1.99999e-05
-5.26529e-11
1.99999e-05
-5.9868e-11
1.99999e-05
-6.7687e-11
1.99999e-05
-7.61893e-11
1.99999e-05
-8.54604e-11
1.99999e-05
-9.5592e-11
1.99998e-05
-1.06682e-10
1.99998e-05
-1.18836e-10
1.99998e-05
-1.32166e-10
1.99998e-05
-1.46793e-10
1.99997e-05
-1.62847e-10
1.99997e-05
-1.80467e-10
1.99997e-05
-1.99802e-10
1.99997e-05
-2.21011e-10
1.99996e-05
-2.44267e-10
1.99996e-05
-2.69753e-10
1.99995e-05
-2.97666e-10
1.99995e-05
-3.28217e-10
1.99994e-05
-3.6163e-10
1.99994e-05
-3.98146e-10
1.99993e-05
-4.38024e-10
1.99993e-05
-4.81536e-10
1.99992e-05
-5.28976e-10
1.99991e-05
-5.80656e-10
1.99991e-05
-6.36906e-10
1.9999e-05
-6.9808e-10
1.99989e-05
-7.64552e-10
1.99988e-05
-8.36721e-10
1.99987e-05
-9.15009e-10
1.99986e-05
-9.99862e-10
1.99985e-05
-1.09176e-09
1.99984e-05
-1.19119e-09
1.99982e-05
-1.29869e-09
1.99981e-05
-1.41483e-09
1.9998e-05
-1.54019e-09
1.99978e-05
-1.67538e-09
1.99976e-05
-1.82108e-09
1.99975e-05
-1.97797e-09
1.99973e-05
-2.14678e-09
1.99971e-05
-2.32826e-09
1.99969e-05
-2.52323e-09
1.99967e-05
-2.73252e-09
1.99965e-05
-2.95701e-09
1.99962e-05
-3.19763e-09
1.9996e-05
-3.45534e-09
1.99957e-05
-3.73116e-09
1.99954e-05
-4.02613e-09
1.99951e-05
-4.34137e-09
1.99948e-05
-4.67801e-09
1.99945e-05
-5.03725e-09
1.99941e-05
-5.42035e-09
1.99937e-05
-5.82859e-09
1.99934e-05
-6.26332e-09
1.9993e-05
-6.72594e-09
1.99925e-05
-7.21788e-09
1.99921e-05
-7.74065e-09
1.99916e-05
-8.29579e-09
1.99911e-05
-8.88489e-09
1.99906e-05
-9.50958e-09
1.99901e-05
-1.01716e-08
1.99896e-05
-1.08725e-08
1.9989e-05
-1.16143e-08
1.99884e-05
-1.23985e-08
1.99878e-05
-1.32271e-08
1.99871e-05
-1.41019e-08
1.99864e-05
-1.50245e-08
1.99857e-05
-1.59969e-08
1.9985e-05
-1.70207e-08
1.99843e-05
-1.80975e-08
1.99835e-05
-1.92289e-08
1.99827e-05
-2.04161e-08
1.99819e-05
-2.16602e-08
1.99811e-05
-2.29619e-08
1.99802e-05
-2.43216e-08
1.99793e-05
-2.57388e-08
1.99785e-05
-2.72126e-08
1.99776e-05
-2.8741e-08
1.99766e-05
-3.03205e-08
1.99757e-05
-3.19464e-08
1.99748e-05
-3.36117e-08
1.99739e-05
-3.5307e-08
1.99729e-05
-3.70195e-08
1.9972e-05
-3.87322e-08
1.99711e-05
-4.04229e-08
1.99702e-05
-4.20628e-08
1.99693e-05
-4.36143e-08
1.99684e-05
-4.50288e-08
1.99675e-05
-4.62427e-08
1.99666e-05
-4.7174e-08
-4.77003e-08
2e-05
-8.92375e-13
2e-05
-3.56053e-12
2e-05
-6.73226e-12
2e-05
-1.01745e-11
2e-05
-1.38594e-11
2e-05
-1.77918e-11
2e-05
-2.19851e-11
2e-05
-2.64636e-11
2e-05
-3.12619e-11
2e-05
-3.64236e-11
1.99999e-05
-4.2e-11
1.99999e-05
-4.80497e-11
1.99999e-05
-5.46377e-11
1.99999e-05
-6.18352e-11
1.99999e-05
-6.97198e-11
1.99999e-05
-7.83754e-11
1.99998e-05
-8.78924e-11
1.99998e-05
-9.83685e-11
1.99998e-05
-1.09909e-10
1.99998e-05
-1.22627e-10
1.99998e-05
-1.36644e-10
1.99997e-05
-1.52091e-10
1.99997e-05
-1.6911e-10
1.99997e-05
-1.87851e-10
1.99996e-05
-2.08477e-10
1.99996e-05
-2.31163e-10
1.99995e-05
-2.56096e-10
1.99995e-05
-2.83478e-10
1.99995e-05
-3.13522e-10
1.99994e-05
-3.46459e-10
1.99993e-05
-3.82535e-10
1.99993e-05
-4.22014e-10
1.99992e-05
-4.65176e-10
1.99992e-05
-5.12321e-10
1.99991e-05
-5.63768e-10
1.9999e-05
-6.19857e-10
1.99989e-05
-6.8095e-10
1.99988e-05
-7.4743e-10
1.99987e-05
-8.19707e-10
1.99986e-05
-8.98213e-10
1.99985e-05
-9.83407e-10
1.99984e-05
-1.07578e-09
1.99983e-05
-1.17583e-09
1.99982e-05
-1.28413e-09
1.9998e-05
-1.40123e-09
1.99979e-05
-1.52775e-09
1.99977e-05
-1.66432e-09
1.99975e-05
-1.81163e-09
1.99974e-05
-1.97037e-09
1.99972e-05
-2.14131e-09
1.9997e-05
-2.32523e-09
1.99968e-05
-2.52294e-09
1.99966e-05
-2.73533e-09
1.99963e-05
-2.96329e-09
1.99961e-05
-3.20778e-09
1.99958e-05
-3.46981e-09
1.99955e-05
-3.75041e-09
1.99952e-05
-4.05067e-09
1.99949e-05
-4.37173e-09
1.99946e-05
-4.71479e-09
1.99943e-05
-5.08109e-09
1.99939e-05
-5.47191e-09
1.99935e-05
-5.8886e-09
1.99932e-05
-6.33256e-09
1.99927e-05
-6.80524e-09
1.99923e-05
-7.30815e-09
1.99919e-05
-7.84283e-09
1.99914e-05
-8.41092e-09
1.99909e-05
-9.01406e-09
1.99904e-05
-9.65397e-09
1.99898e-05
-1.03324e-08
1.99893e-05
-1.10512e-08
1.99887e-05
-1.18121e-08
1.99881e-05
-1.2617e-08
1.99874e-05
-1.34678e-08
1.99868e-05
-1.43665e-08
1.99861e-05
-1.53147e-08
1.99854e-05
-1.63144e-08
1.99847e-05
-1.73673e-08
1.99839e-05
-1.84751e-08
1.99831e-05
-1.96392e-08
1.99823e-05
-2.08608e-08
1.99815e-05
-2.21409e-08
1.99807e-05
-2.34799e-08
1.99798e-05
-2.48777e-08
1.99789e-05
-2.63336e-08
1.9978e-05
-2.78458e-08
1.99771e-05
-2.94111e-08
1.99762e-05
-3.1025e-08
1.99753e-05
-3.26808e-08
1.99743e-05
-3.43691e-08
1.99734e-05
-3.60772e-08
1.99724e-05
-3.77882e-08
1.99715e-05
-3.94797e-08
1.99706e-05
-4.11224e-08
1.99696e-05
-4.2678e-08
1.99687e-05
-4.40971e-08
1.99678e-05
-4.53146e-08
1.99668e-05
-4.62459e-08
-4.67767e-08
2e-05
-4.62095e-13
2e-05
-2.19834e-12
2e-05
-4.42073e-12
2e-05
-6.91148e-12
2e-05
-9.64571e-12
2e-05
-1.26253e-11
2e-05
-1.58574e-11
2e-05
-1.93581e-11
2e-05
-2.31527e-11
2e-05
-2.72754e-11
1.99999e-05
-3.17684e-11
1.99999e-05
-3.66813e-11
1.99999e-05
-4.20708e-11
1.99999e-05
-4.79999e-11
1.99999e-05
-5.45385e-11
1.99999e-05
-6.17628e-11
1.99999e-05
-6.97559e-11
1.99998e-05
-7.86081e-11
1.99998e-05
-8.8417e-11
1.99998e-05
-9.92882e-11
1.99998e-05
-1.11336e-10
1.99997e-05
-1.24683e-10
1.99997e-05
-1.39463e-10
1.99997e-05
-1.55817e-10
1.99996e-05
-1.73902e-10
1.99996e-05
-1.93881e-10
1.99996e-05
-2.15933e-10
1.99995e-05
-2.40249e-10
1.99995e-05
-2.67035e-10
1.99994e-05
-2.9651e-10
1.99994e-05
-3.28909e-10
1.99993e-05
-3.64485e-10
1.99993e-05
-4.03507e-10
1.99992e-05
-4.46262e-10
1.99991e-05
-4.93058e-10
1.9999e-05
-5.44223e-10
1.9999e-05
-6.00103e-10
1.99989e-05
-6.61072e-10
1.99988e-05
-7.27523e-10
1.99987e-05
-7.99876e-10
1.99986e-05
-8.78574e-10
1.99985e-05
-9.64091e-10
1.99983e-05
-1.05693e-09
1.99982e-05
-1.15761e-09
1.99981e-05
-1.2667e-09
1.99979e-05
-1.38478e-09
1.99978e-05
-1.5125e-09
1.99976e-05
-1.65049e-09
1.99975e-05
-1.79946e-09
1.99973e-05
-1.96014e-09
1.99971e-05
-2.13331e-09
1.99969e-05
-2.31976e-09
1.99967e-05
-2.52037e-09
1.99964e-05
-2.73601e-09
1.99962e-05
-2.96763e-09
1.99959e-05
-3.21621e-09
1.99957e-05
-3.48279e-09
1.99954e-05
-3.76845e-09
1.99951e-05
-4.07432e-09
1.99948e-05
-4.40158e-09
1.99945e-05
-4.75146e-09
1.99941e-05
-5.12526e-09
1.99937e-05
-5.52431e-09
1.99934e-05
-5.95001e-09
1.9993e-05
-6.40383e-09
1.99925e-05
-6.88727e-09
1.99921e-05
-7.4019e-09
1.99916e-05
-7.94934e-09
1.99912e-05
-8.5313e-09
1.99907e-05
-9.14949e-09
1.99901e-05
-9.80571e-09
1.99896e-05
-1.05018e-08
1.9989e-05
-1.12396e-08
1.99884e-05
-1.20211e-08
1.99878e-05
-1.28483e-08
1.99871e-05
-1.37229e-08
1.99865e-05
-1.46471e-08
1.99858e-05
-1.56227e-08
1.99851e-05
-1.66516e-08
1.99843e-05
-1.77355e-08
1.99836e-05
-1.88761e-08
1.99828e-05
-2.00747e-08
1.9982e-05
-2.13323e-08
1.99811e-05
-2.26498e-08
1.99803e-05
-2.40271e-08
1.99794e-05
-2.54636e-08
1.99785e-05
-2.69578e-08
1.99776e-05
-2.85068e-08
1.99767e-05
-3.01061e-08
1.99758e-05
-3.17492e-08
1.99748e-05
-3.3427e-08
1.99739e-05
-3.51267e-08
1.99729e-05
-3.68314e-08
1.9972e-05
-3.85185e-08
1.9971e-05
-4.01584e-08
1.997e-05
-4.17125e-08
1.99691e-05
-4.31305e-08
1.99681e-05
-4.4347e-08
1.99671e-05
-4.52772e-08
-4.58164e-08
2e-05
-6.79093e-14
2e-05
-9.41903e-13
2e-05
-2.27864e-12
2e-05
-3.87209e-12
2e-05
-5.7003e-12
2e-05
-7.7642e-12
2e-05
-1.0067e-11
2e-05
-1.26186e-11
2e-05
-1.54374e-11
2e-05
-1.85497e-11
1.99999e-05
-2.19896e-11
1.99999e-05
-2.57988e-11
1.99999e-05
-3.0026e-11
1.99999e-05
-3.47268e-11
1.99999e-05
-3.99633e-11
1.99999e-05
-4.58047e-11
1.99999e-05
-5.23266e-11
1.99998e-05
-5.96119e-11
1.99998e-05
-6.77511e-11
1.99998e-05
-7.68424e-11
1.99998e-05
-8.69922e-11
1.99997e-05
-9.8316e-11
1.99997e-05
-1.10939e-10
1.99997e-05
-1.24995e-10
1.99997e-05
-1.4063e-10
1.99996e-05
-1.58001e-10
1.99996e-05
-1.77277e-10
1.99995e-05
-1.9864e-10
1.99995e-05
-2.22285e-10
1.99994e-05
-2.48422e-10
1.99994e-05
-2.77276e-10
1.99993e-05
-3.09087e-10
1.99993e-05
-3.44115e-10
1.99992e-05
-3.82635e-10
1.99991e-05
-4.24942e-10
1.99991e-05
-4.71352e-10
1.9999e-05
-5.22201e-10
1.99989e-05
-5.77845e-10
1.99988e-05
-6.38667e-10
1.99987e-05
-7.05072e-10
1.99986e-05
-7.77491e-10
1.99985e-05
-8.56381e-10
1.99984e-05
-9.42227e-10
1.99983e-05
-1.03554e-09
1.99982e-05
-1.13688e-09
1.9998e-05
-1.2468e-09
1.99979e-05
-1.36592e-09
1.99977e-05
-1.4949e-09
1.99976e-05
-1.63439e-09
1.99974e-05
-1.78513e-09
1.99972e-05
-1.94786e-09
1.9997e-05
-2.12339e-09
1.99968e-05
-2.31255e-09
1.99966e-05
-2.51622e-09
1.99963e-05
-2.73533e-09
1.99961e-05
-2.97085e-09
1.99958e-05
-3.22379e-09
1.99956e-05
-3.49524e-09
1.99953e-05
-3.78631e-09
1.9995e-05
-4.09817e-09
1.99946e-05
-4.43205e-09
1.99943e-05
-4.78923e-09
1.9994e-05
-5.17105e-09
1.99936e-05
-5.57892e-09
1.99932e-05
-6.01428e-09
1.99928e-05
-6.47866e-09
1.99924e-05
-6.97364e-09
1.99919e-05
-7.50085e-09
1.99914e-05
-8.06199e-09
1.9991e-05
-8.65883e-09
1.99904e-05
-9.29318e-09
1.99899e-05
-9.96691e-09
1.99893e-05
-1.06819e-08
1.99888e-05
-1.14402e-08
1.99882e-05
-1.22438e-08
1.99875e-05
-1.30947e-08
1.99869e-05
-1.39948e-08
1.99862e-05
-1.49463e-08
1.99855e-05
-1.5951e-08
1.99848e-05
-1.70108e-08
1.9984e-05
-1.81274e-08
1.99833e-05
-1.93024e-08
1.99825e-05
-2.05369e-08
1.99816e-05
-2.18318e-08
1.99808e-05
-2.31873e-08
1.99799e-05
-2.4603e-08
1.99791e-05
-2.60774e-08
1.99782e-05
-2.76079e-08
1.99772e-05
-2.91902e-08
1.99763e-05
-3.08177e-08
1.99754e-05
-3.24815e-08
1.99744e-05
-3.4169e-08
1.99734e-05
-3.58631e-08
1.99725e-05
-3.75411e-08
1.99715e-05
-3.91734e-08
1.99705e-05
-4.0721e-08
1.99695e-05
-4.21334e-08
1.99685e-05
-4.33452e-08
1.99675e-05
-4.42733e-08
-4.48185e-08
2e-05
2.98929e-13
2e-05
2.16319e-13
2e-05
-2.96158e-13
2e-05
-1.04671e-12
2e-05
-2.01672e-12
2e-05
-3.20685e-12
2e-05
-4.61776e-12
2e-05
-6.25525e-12
2e-05
-8.13185e-12
2e-05
-1.02675e-11
1.99999e-05
-1.26894e-11
1.99999e-05
-1.54323e-11
1.99999e-05
-1.85376e-11
1.99999e-05
-2.20538e-11
1.99999e-05
-2.6036e-11
1.99999e-05
-3.05461e-11
1.99999e-05
-3.56528e-11
1.99999e-05
-4.14321e-11
1.99998e-05
-4.79671e-11
1.99998e-05
-5.53488e-11
1.99998e-05
-6.36764e-11
1.99998e-05
-7.30576e-11
1.99997e-05
-8.36096e-11
1.99997e-05
-9.54592e-11
1.99997e-05
-1.08744e-10
1.99996e-05
-1.23611e-10
1.99996e-05
-1.40222e-10
1.99996e-05
-1.58748e-10
1.99995e-05
-1.79377e-10
1.99995e-05
-2.02307e-10
1.99994e-05
-2.27753e-10
1.99994e-05
-2.55946e-10
1.99993e-05
-2.87134e-10
1.99993e-05
-3.2158e-10
1.99992e-05
-3.59569e-10
1.99991e-05
-4.01404e-10
1.9999e-05
-4.47407e-10
1.9999e-05
-4.97925e-10
1.99989e-05
-5.53325e-10
1.99988e-05
-6.13999e-10
1.99987e-05
-6.80364e-10
1.99986e-05
-7.52863e-10
1.99985e-05
-8.31967e-10
1.99984e-05
-9.18177e-10
1.99982e-05
-1.01202e-09
1.99981e-05
-1.11406e-09
1.9998e-05
-1.22489e-09
1.99978e-05
-1.34514e-09
1.99976e-05
-1.47547e-09
1.99975e-05
-1.61658e-09
1.99973e-05
-1.76922e-09
1.99971e-05
-1.93417e-09
1.99969e-05
-2.11224e-09
1.99967e-05
-2.30431e-09
1.99965e-05
-2.51128e-09
1.99962e-05
-2.73412e-09
1.9996e-05
-2.97383e-09
1.99957e-05
-3.23147e-09
1.99954e-05
-3.50815e-09
1.99952e-05
-3.80502e-09
1.99948e-05
-4.12332e-09
1.99945e-05
-4.46432e-09
1.99942e-05
-4.82935e-09
1.99938e-05
-5.21981e-09
1.99934e-05
-5.63715e-09
1.9993e-05
-6.08289e-09
1.99926e-05
-6.55863e-09
1.99922e-05
-7.066e-09
1.99917e-05
-7.60673e-09
1.99913e-05
-8.18258e-09
1.99908e-05
-8.7954e-09
1.99902e-05
-9.44708e-09
1.99897e-05
-1.01396e-08
1.99891e-05
-1.08749e-08
1.99886e-05
-1.16551e-08
1.99879e-05
-1.24822e-08
1.99873e-05
-1.33584e-08
1.99866e-05
-1.42856e-08
1.9986e-05
-1.5266e-08
1.99852e-05
-1.63014e-08
1.99845e-05
-1.73937e-08
1.99838e-05
-1.85445e-08
1.9983e-05
-1.97551e-08
1.99822e-05
-2.10265e-08
1.99813e-05
-2.2359e-08
1.99805e-05
-2.37524e-08
1.99796e-05
-2.52053e-08
1.99787e-05
-2.67152e-08
1.99778e-05
-2.82779e-08
1.99769e-05
-2.98871e-08
1.99759e-05
-3.15337e-08
1.9975e-05
-3.32053e-08
1.9974e-05
-3.48849e-08
1.9973e-05
-3.65497e-08
1.9972e-05
-3.817e-08
1.9971e-05
-3.97068e-08
1.997e-05
-4.11097e-08
1.99689e-05
-4.23141e-08
1.99679e-05
-4.3238e-08
-4.37837e-08
2e-05
6.41899e-13
2e-05
1.28306e-12
2e-05
1.53542e-12
2e-05
1.57329e-12
2e-05
1.41171e-12
2e-05
1.04993e-12
2e-05
4.88829e-13
2e-05
-2.74184e-13
2e-05
-1.24724e-12
2e-05
-2.44494e-12
2e-05
-3.88873e-12
1.99999e-05
-5.60691e-12
1.99999e-05
-7.63461e-12
1.99999e-05
-1.00136e-11
1.99999e-05
-1.27925e-11
1.99999e-05
-1.60265e-11
1.99999e-05