/*--------------------------------*- C++ -*----------------------------------*\
  =========                 |
  \\      /  F ield         | OpenFOAM: The Open Source CFD Toolbox
   \\    /   O peration     | Website:  https://openfoam.org
    \\  /    A nd           | Version:  11
     \\/     M anipulation  |
\*---------------------------------------------------------------------------*/
FoamFile
{
    format      ascii;
    class       volScalarField;
    location    "550";
    object      k;
}
// * * * * * * * * * * * * * * * * * * * * * * * * * * * * * * * * * * * * * //

dimensions      [0 2 -2 0 0 0 0];

internalField   nonuniform List<scalar> 
10000
(
0.000939687
0.000835717
0.000745889
0.000668032
0.000600337
0.000541296
0.000489641
0.00044431
0.000404409
0.000369184
0.000337994
0.000310299
0.000285638
0.000263617
0.000243902
0.000226204
0.000210275
0.000195904
0.000182905
0.000171121
0.000160412
0.000150659
0.000141757
0.000133614
0.00012615
0.000119296
0.000112988
0.000107172
0.000101801
9.68313e-05
9.22248e-05
8.79481e-05
8.3971e-05
8.02669e-05
7.68116e-05
7.35836e-05
7.05638e-05
6.77347e-05
6.50808e-05
6.25878e-05
6.02431e-05
5.80351e-05
5.59533e-05
5.39882e-05
5.21312e-05
5.03744e-05
4.87107e-05
4.71334e-05
4.56365e-05
4.42147e-05
4.28627e-05
4.15761e-05
4.03506e-05
3.91822e-05
3.80675e-05
3.70029e-05
3.59857e-05
3.50128e-05
3.40818e-05
3.31902e-05
3.23358e-05
3.15166e-05
3.07308e-05
2.99765e-05
2.92522e-05
2.85565e-05
2.78879e-05
2.72452e-05
2.66274e-05
2.60333e-05
2.54621e-05
2.49128e-05
2.43848e-05
2.38772e-05
2.33896e-05
2.29213e-05
2.24719e-05
2.20409e-05
2.1628e-05
2.12329e-05
2.08552e-05
2.04948e-05
2.01514e-05
1.98248e-05
1.9515e-05
1.92217e-05
1.89448e-05
1.86842e-05
1.84399e-05
1.82116e-05
1.79994e-05
1.78033e-05
1.76233e-05
1.74597e-05
1.73128e-05
1.71834e-05
1.70727e-05
1.69824e-05
1.69152e-05
1.68761e-05
0.000939687
0.000835717
0.000745889
0.000668032
0.000600337
0.000541296
0.000489641
0.00044431
0.000404409
0.000369184
0.000337994
0.000310299
0.000285638
0.000263618
0.000243902
0.000226204
0.000210275
0.000195904
0.000182905
0.000171121
0.000160412
0.000150659
0.000141757
0.000133614
0.00012615
0.000119296
0.000112988
0.000107173
0.000101801
9.68315e-05
9.2225e-05
8.79483e-05
8.39712e-05
8.0267e-05
7.68118e-05
7.35838e-05
7.0564e-05
6.7735e-05
6.5081e-05
6.2588e-05
6.02433e-05
5.80353e-05
5.59535e-05
5.39884e-05
5.21315e-05
5.03747e-05
4.87109e-05
4.71336e-05
4.56368e-05
4.4215e-05
4.2863e-05
4.15764e-05
4.03509e-05
3.91825e-05
3.80678e-05
3.70033e-05
3.5986e-05
3.50132e-05
3.40821e-05
3.31905e-05
3.23362e-05
3.1517e-05
3.07312e-05
2.99769e-05
2.92526e-05
2.85569e-05
2.78883e-05
2.72457e-05
2.66278e-05
2.60338e-05
2.54625e-05
2.49133e-05
2.43852e-05
2.38777e-05
2.33901e-05
2.29218e-05
2.24724e-05
2.20414e-05
2.16285e-05
2.12334e-05
2.08557e-05
2.04953e-05
2.01518e-05
1.98253e-05
1.95154e-05
1.92221e-05
1.89452e-05
1.86846e-05
1.84403e-05
1.8212e-05
1.79998e-05
1.78037e-05
1.76237e-05
1.746e-05
1.73131e-05
1.71837e-05
1.7073e-05
1.69826e-05
1.69154e-05
1.68763e-05
0.000939687
0.000835717
0.000745889
0.000668032
0.000600338
0.000541296
0.000489641
0.00044431
0.00040441
0.000369184
0.000337995
0.0003103
0.000285638
0.000263618
0.000243902
0.000226204
0.000210276
0.000195904
0.000182906
0.000171121
0.000160412
0.000150659
0.000141757
0.000133614
0.000126151
0.000119296
0.000112988
0.000107173
0.000101802
9.68318e-05
9.22254e-05
8.79486e-05
8.39716e-05
8.02674e-05
7.68121e-05
7.35842e-05
7.05644e-05
6.77354e-05
6.50814e-05
6.25885e-05
6.02437e-05
5.80357e-05
5.5954e-05
5.39889e-05
5.2132e-05
5.03752e-05
4.87114e-05
4.71342e-05
4.56373e-05
4.42155e-05
4.28636e-05
4.1577e-05
4.03515e-05
3.91831e-05
3.80684e-05
3.70039e-05
3.59866e-05
3.50138e-05
3.40828e-05
3.31912e-05
3.23369e-05
3.15177e-05
3.07319e-05
2.99776e-05
2.92534e-05
2.85576e-05
2.78891e-05
2.72464e-05
2.66286e-05
2.60346e-05
2.54633e-05
2.49141e-05
2.43861e-05
2.38785e-05
2.33909e-05
2.29226e-05
2.24732e-05
2.20422e-05
2.16293e-05
2.12342e-05
2.08565e-05
2.04961e-05
2.01526e-05
1.98261e-05
1.95162e-05
1.92228e-05
1.89459e-05
1.86853e-05
1.84409e-05
1.82126e-05
1.80004e-05
1.78042e-05
1.76242e-05
1.74605e-05
1.73136e-05
1.71841e-05
1.70733e-05
1.69829e-05
1.69158e-05
1.68766e-05
0.000939687
0.000835717
0.000745889
0.000668032
0.000600338
0.000541296
0.000489641
0.000444311
0.00040441
0.000369184
0.000337995
0.0003103
0.000285639
0.000263618
0.000243903
0.000226204
0.000210276
0.000195904
0.000182906
0.000171121
0.000160413
0.00015066
0.000141757
0.000133615
0.000126151
0.000119297
0.000112989
0.000107173
0.000101802
9.68323e-05
9.22259e-05
8.79492e-05
8.39722e-05
8.0268e-05
7.68127e-05
7.35848e-05
7.0565e-05
6.7736e-05
6.5082e-05
6.25891e-05
6.02444e-05
5.80364e-05
5.59547e-05
5.39896e-05
5.21327e-05
5.03759e-05
4.87122e-05
4.71349e-05
4.56381e-05
4.42163e-05
4.28644e-05
4.15778e-05
4.03523e-05
3.9184e-05
3.80693e-05
3.70048e-05
3.59876e-05
3.50147e-05
3.40837e-05
3.31922e-05
3.23379e-05
3.15187e-05
3.07329e-05
2.99787e-05
2.92544e-05
2.85587e-05
2.78902e-05
2.72476e-05
2.66298e-05
2.60357e-05
2.54645e-05
2.49153e-05
2.43872e-05
2.38797e-05
2.33921e-05
2.29238e-05
2.24744e-05
2.20434e-05
2.16305e-05
2.12353e-05
2.08576e-05
2.04972e-05
2.01537e-05
1.98271e-05
1.95172e-05
1.92238e-05
1.89469e-05
1.86862e-05
1.84418e-05
1.82134e-05
1.80011e-05
1.78049e-05
1.76248e-05
1.74611e-05
1.73142e-05
1.71847e-05
1.70739e-05
1.69834e-05
1.69162e-05
1.68771e-05
0.000939687
0.000835718
0.000745889
0.000668032
0.000600338
0.000541296
0.000489641
0.000444311
0.00040441
0.000369185
0.000337995
0.0003103
0.000285639
0.000263619
0.000243903
0.000226205
0.000210276
0.000195905
0.000182907
0.000171122
0.000160413
0.00015066
0.000141758
0.000133615
0.000126152
0.000119297
0.000112989
0.000107174
0.000101803
9.6833e-05
9.22266e-05
8.79499e-05
8.39729e-05
8.02687e-05
7.68135e-05
7.35856e-05
7.05658e-05
6.77368e-05
6.50829e-05
6.25899e-05
6.02453e-05
5.80373e-05
5.59556e-05
5.39905e-05
5.21336e-05
5.03769e-05
4.87132e-05
4.71359e-05
4.56392e-05
4.42174e-05
4.28655e-05
4.15789e-05
4.03535e-05
3.91851e-05
3.80704e-05
3.7006e-05
3.59888e-05
3.5016e-05
3.4085e-05
3.31935e-05
3.23392e-05
3.15201e-05
3.07343e-05
2.99801e-05
2.92558e-05
2.85601e-05
2.78916e-05
2.7249e-05
2.66312e-05
2.60372e-05
2.5466e-05
2.49168e-05
2.43888e-05
2.38812e-05
2.33936e-05
2.29253e-05
2.24759e-05
2.20449e-05
2.1632e-05
2.12368e-05
2.08591e-05
2.04986e-05
2.01551e-05
1.98285e-05
1.95185e-05
1.92251e-05
1.89481e-05
1.86874e-05
1.84429e-05
1.82145e-05
1.80021e-05
1.78059e-05
1.76257e-05
1.74619e-05
1.73149e-05
1.71854e-05
1.70745e-05
1.69841e-05
1.69168e-05
1.68776e-05
0.000939687
0.000835718
0.000745889
0.000668032
0.000600338
0.000541296
0.000489642
0.000444311
0.000404411
0.000369185
0.000337996
0.000310301
0.00028564
0.000263619
0.000243904
0.000226205
0.000210277
0.000195906
0.000182907
0.000171123
0.000160414
0.000150661
0.000141759
0.000133616
0.000126153
0.000119298
0.00011299
0.000107175
0.000101804
9.68338e-05
9.22274e-05
8.79507e-05
8.39738e-05
8.02696e-05
7.68144e-05
7.35865e-05
7.05668e-05
6.77378e-05
6.50839e-05
6.2591e-05
6.02463e-05
5.80384e-05
5.59567e-05
5.39917e-05
5.21348e-05
5.03781e-05
4.87144e-05
4.71372e-05
4.56404e-05
4.42186e-05
4.28668e-05
4.15803e-05
4.03548e-05
3.91865e-05
3.80719e-05
3.70074e-05
3.59903e-05
3.50175e-05
3.40865e-05
3.3195e-05
3.23408e-05
3.15217e-05
3.07359e-05
2.99817e-05
2.92576e-05
2.85619e-05
2.78934e-05
2.72508e-05
2.6633e-05
2.6039e-05
2.54678e-05
2.49186e-05
2.43906e-05
2.38831e-05
2.33955e-05
2.29272e-05
2.24778e-05
2.20468e-05
2.16339e-05
2.12386e-05
2.08609e-05
2.05004e-05
2.01568e-05
1.98302e-05
1.95201e-05
1.92267e-05
1.89496e-05
1.86888e-05
1.84442e-05
1.82158e-05
1.80033e-05
1.7807e-05
1.76268e-05
1.74629e-05
1.73158e-05
1.71862e-05
1.70753e-05
1.69848e-05
1.69175e-05
1.68782e-05
0.000939687
0.000835718
0.000745889
0.000668032
0.000600338
0.000541297
0.000489642
0.000444312
0.000404411
0.000369185
0.000337996
0.000310301
0.00028564
0.00026362
0.000243904
0.000226206
0.000210278
0.000195906
0.000182908
0.000171123
0.000160415
0.000150662
0.00014176
0.000133617
0.000126153
0.000119299
0.000112991
0.000107176
0.000101805
9.68348e-05
9.22284e-05
8.79517e-05
8.39748e-05
8.02707e-05
7.68155e-05
7.35877e-05
7.05679e-05
6.77389e-05
6.50851e-05
6.25922e-05
6.02476e-05
5.80396e-05
5.59579e-05
5.3993e-05
5.21361e-05
5.03794e-05
4.87158e-05
4.71386e-05
4.56419e-05
4.42201e-05
4.28683e-05
4.15818e-05
4.03564e-05
3.91882e-05
3.80735e-05
3.70092e-05
3.5992e-05
3.50193e-05
3.40884e-05
3.31969e-05
3.23427e-05
3.15236e-05
3.07379e-05
2.99837e-05
2.92596e-05
2.85639e-05
2.78954e-05
2.72529e-05
2.66352e-05
2.60412e-05
2.547e-05
2.49208e-05
2.43928e-05
2.38853e-05
2.33977e-05
2.29294e-05
2.248e-05
2.2049e-05
2.1636e-05
2.12408e-05
2.0863e-05
2.05024e-05
2.01588e-05
1.98321e-05
1.9522e-05
1.92285e-05
1.89513e-05
1.86905e-05
1.84458e-05
1.82172e-05
1.80047e-05
1.78083e-05
1.7628e-05
1.7464e-05
1.73168e-05
1.71872e-05
1.70761e-05
1.69856e-05
1.69182e-05
1.68789e-05
0.000939687
0.000835718
0.000745889
0.000668032
0.000600339
0.000541297
0.000489642
0.000444312
0.000404411
0.000369186
0.000337997
0.000310302
0.000285641
0.00026362
0.000243905
0.000226207
0.000210278
0.000195907
0.000182909
0.000171124
0.000160416
0.000150663
0.00014176
0.000133618
0.000126154
0.0001193
0.000112992
0.000107177
0.000101806
9.68359e-05
9.22295e-05
8.79529e-05
8.39759e-05
8.02719e-05
7.68167e-05
7.35889e-05
7.05692e-05
6.77403e-05
6.50864e-05
6.25936e-05
6.0249e-05
5.80411e-05
5.59594e-05
5.39945e-05
5.21377e-05
5.0381e-05
4.87174e-05
4.71403e-05
4.56436e-05
4.42219e-05
4.28701e-05
4.15836e-05
4.03583e-05
3.91901e-05
3.80754e-05
3.70111e-05
3.5994e-05
3.50213e-05
3.40904e-05
3.3199e-05
3.23448e-05
3.15258e-05
3.07401e-05
2.9986e-05
2.92619e-05
2.85663e-05
2.78978e-05
2.72553e-05
2.66376e-05
2.60436e-05
2.54725e-05
2.49233e-05
2.43953e-05
2.38878e-05
2.34002e-05
2.29319e-05
2.24825e-05
2.20514e-05
2.16385e-05
2.12432e-05
2.08654e-05
2.05047e-05
2.01611e-05
1.98343e-05
1.95242e-05
1.92305e-05
1.89533e-05
1.86923e-05
1.84476e-05
1.82189e-05
1.80063e-05
1.78097e-05
1.76293e-05
1.74652e-05
1.73179e-05
1.71882e-05
1.70771e-05
1.69864e-05
1.6919e-05
1.68797e-05
0.000939687
0.000835718
0.00074589
0.000668033
0.000600339
0.000541297
0.000489643
0.000444312
0.000404412
0.000369186
0.000337997
0.000310302
0.000285641
0.000263621
0.000243906
0.000226207
0.000210279
0.000195908
0.00018291
0.000171125
0.000160416
0.000150663
0.000141761
0.000133619
0.000126155
0.000119301
0.000112993
0.000107178
0.000101807
9.68371e-05
9.22308e-05
8.79542e-05
8.39772e-05
8.02732e-05
7.68181e-05
7.35903e-05
7.05706e-05
6.77417e-05
6.50879e-05
6.25951e-05
6.02505e-05
5.80427e-05
5.59611e-05
5.39962e-05
5.21394e-05
5.03828e-05
4.87192e-05
4.71421e-05
4.56455e-05
4.42238e-05
4.28721e-05
4.15856e-05
4.03603e-05
3.91922e-05
3.80776e-05
3.70133e-05
3.59962e-05
3.50236e-05
3.40927e-05
3.32014e-05
3.23472e-05
3.15282e-05
3.07426e-05
2.99885e-05
2.92644e-05
2.85689e-05
2.79004e-05
2.7258e-05
2.66403e-05
2.60463e-05
2.54752e-05
2.49261e-05
2.43981e-05
2.38906e-05
2.3403e-05
2.29347e-05
2.24852e-05
2.20542e-05
2.16412e-05
2.12459e-05
2.0868e-05
2.05073e-05
2.01636e-05
1.98367e-05
1.95265e-05
1.92328e-05
1.89555e-05
1.86944e-05
1.84495e-05
1.82207e-05
1.8008e-05
1.78113e-05
1.76307e-05
1.74665e-05
1.73192e-05
1.71893e-05
1.70781e-05
1.69874e-05
1.69199e-05
1.68805e-05
0.000939687
0.000835718
0.00074589
0.000668033
0.000600339
0.000541298
0.000489643
0.000444313
0.000404412
0.000369187
0.000337998
0.000310303
0.000285642
0.000263622
0.000243906
0.000226208
0.00021028
0.000195909
0.00018291
0.000171126
0.000160417
0.000150665
0.000141762
0.00013362
0.000126157
0.000119302
0.000112994
0.000107179
0.000101808
9.68384e-05
9.22321e-05
8.79555e-05
8.39787e-05
8.02747e-05
7.68195e-05
7.35918e-05
7.05722e-05
6.77433e-05
6.50895e-05
6.25968e-05
6.02522e-05
5.80444e-05
5.59629e-05
5.3998e-05
5.21413e-05
5.03847e-05
4.87212e-05
4.71441e-05
4.56475e-05
4.42259e-05
4.28742e-05
4.15878e-05
4.03626e-05
3.91944e-05
3.80799e-05
3.70157e-05
3.59987e-05
3.50261e-05
3.40953e-05
3.32039e-05
3.23498e-05
3.15309e-05
3.07453e-05
2.99913e-05
2.92672e-05
2.85717e-05
2.79033e-05
2.72609e-05
2.66432e-05
2.60493e-05
2.54782e-05
2.49291e-05
2.44011e-05
2.38936e-05
2.3406e-05
2.29377e-05
2.24883e-05
2.20572e-05
2.16442e-05
2.12488e-05
2.08709e-05
2.05101e-05
2.01664e-05
1.98394e-05
1.95291e-05
1.92353e-05
1.89578e-05
1.86966e-05
1.84516e-05
1.82227e-05
1.80098e-05
1.7813e-05
1.76323e-05
1.7468e-05
1.73204e-05
1.71905e-05
1.70792e-05
1.69883e-05
1.69208e-05
1.68813e-05
0.000939687
0.000835718
0.00074589
0.000668033
0.000600339
0.000541298
0.000489643
0.000444313
0.000404413
0.000369187
0.000337998
0.000310304
0.000285643
0.000263622
0.000243907
0.000226209
0.000210281
0.00019591
0.000182911
0.000171127
0.000160419
0.000150666
0.000141764
0.000133621
0.000126158
0.000119303
0.000112996
0.000107181
0.000101809
9.68398e-05
9.22335e-05
8.7957e-05
8.39802e-05
8.02762e-05
7.68211e-05
7.35935e-05
7.05739e-05
6.7745e-05
6.50913e-05
6.25986e-05
6.02541e-05
5.80463e-05
5.59648e-05
5.4e-05
5.21433e-05
5.03868e-05
4.87233e-05
4.71463e-05
4.56497e-05
4.42282e-05
4.28765e-05
4.15902e-05
4.0365e-05
3.91969e-05
3.80824e-05
3.70183e-05
3.60013e-05
3.50287e-05
3.4098e-05
3.32067e-05
3.23527e-05
3.15338e-05
3.07483e-05
2.99943e-05
2.92703e-05
2.85748e-05
2.79065e-05
2.72641e-05
2.66464e-05
2.60526e-05
2.54815e-05
2.49324e-05
2.44044e-05
2.38969e-05
2.34093e-05
2.2941e-05
2.24915e-05
2.20604e-05
2.16474e-05
2.1252e-05
2.0874e-05
2.05132e-05
2.01693e-05
1.98423e-05
1.95318e-05
1.92379e-05
1.89603e-05
1.8699e-05
1.84539e-05
1.82248e-05
1.80117e-05
1.78148e-05
1.76339e-05
1.74695e-05
1.73218e-05
1.71917e-05
1.70802e-05
1.69893e-05
1.69217e-05
1.68822e-05
0.000939687
0.000835718
0.00074589
0.000668033
0.000600339
0.000541298
0.000489644
0.000444314
0.000404413
0.000369188
0.000337999
0.000310304
0.000285643
0.000263623
0.000243908
0.00022621
0.000210282
0.000195911
0.000182912
0.000171128
0.00016042
0.000150667
0.000141765
0.000133622
0.000126159
0.000119305
0.000112997
0.000107182
0.000101811
9.68413e-05
9.22351e-05
8.79586e-05
8.39818e-05
8.02779e-05
7.68228e-05
7.35952e-05
7.05757e-05
6.77469e-05
6.50932e-05
6.26005e-05
6.02561e-05
5.80483e-05
5.59669e-05
5.40021e-05
5.21454e-05
5.0389e-05
4.87256e-05
4.71486e-05
4.56521e-05
4.42306e-05
4.2879e-05
4.15927e-05
4.03676e-05
3.91996e-05
3.80851e-05
3.7021e-05
3.60041e-05
3.50316e-05
3.41009e-05
3.32097e-05
3.23557e-05
3.15369e-05
3.07514e-05
2.99975e-05
2.92735e-05
2.85781e-05
2.79098e-05
2.72674e-05
2.66498e-05
2.6056e-05
2.5485e-05
2.49359e-05
2.44079e-05
2.39005e-05
2.34129e-05
2.29445e-05
2.2495e-05
2.20639e-05
2.16508e-05
2.12553e-05
2.08773e-05
2.05164e-05
2.01725e-05
1.98453e-05
1.95348e-05
1.92407e-05
1.8963e-05
1.87015e-05
1.84562e-05
1.8227e-05
1.80138e-05
1.78166e-05
1.76356e-05
1.7471e-05
1.73232e-05
1.71929e-05
1.70814e-05
1.69903e-05
1.69226e-05
1.68831e-05
0.000939687
0.000835718
0.00074589
0.000668033
0.00060034
0.000541298
0.000489644
0.000444314
0.000404414
0.000369188
0.000337999
0.000310305
0.000285644
0.000263624
0.000243909
0.000226211
0.000210283
0.000195912
0.000182913
0.000171129
0.000160421
0.000150668
0.000141766
0.000133624
0.00012616
0.000119306
0.000112999
0.000107183
0.000101812
9.68428e-05
9.22367e-05
8.79602e-05
8.39835e-05
8.02796e-05
7.68246e-05
7.3597e-05
7.05775e-05
6.77488e-05
6.50951e-05
6.26025e-05
6.02581e-05
5.80505e-05
5.5969e-05
5.40043e-05
5.21477e-05
5.03913e-05
4.87279e-05
4.7151e-05
4.56546e-05
4.42331e-05
4.28816e-05
4.15954e-05
4.03703e-05
3.92024e-05
3.8088e-05
3.70239e-05
3.60071e-05
3.50346e-05
3.4104e-05
3.32129e-05
3.23589e-05
3.15402e-05
3.07547e-05
3.00009e-05
2.9277e-05
2.85816e-05
2.79133e-05
2.7271e-05
2.66535e-05
2.60596e-05
2.54886e-05
2.49395e-05
2.44116e-05
2.39042e-05
2.34166e-05
2.29482e-05
2.24987e-05
2.20675e-05
2.16544e-05
2.12589e-05
2.08808e-05
2.05198e-05
2.01758e-05
1.98485e-05
1.95378e-05
1.92436e-05
1.89658e-05
1.87042e-05
1.84587e-05
1.82293e-05
1.80159e-05
1.78186e-05
1.76374e-05
1.74726e-05
1.73246e-05
1.71942e-05
1.70825e-05
1.69914e-05
1.69236e-05
1.6884e-05
0.000939687
0.000835718
0.00074589
0.000668033
0.00060034
0.000541299
0.000489644
0.000444314
0.000404414
0.000369189
0.000338
0.000310306
0.000285645
0.000263625
0.00024391
0.000226212
0.000210284
0.000195913
0.000182915
0.00017113
0.000160422
0.000150669
0.000141767
0.000133625
0.000126162
0.000119307
0.000113
0.000107185
0.000101814
9.68445e-05
9.22383e-05
8.79619e-05
8.39852e-05
8.02814e-05
7.68265e-05
7.35989e-05
7.05795e-05
6.77508e-05
6.50972e-05
6.26046e-05
6.02603e-05
5.80527e-05
5.59713e-05
5.40067e-05
5.21501e-05
5.03938e-05
4.87304e-05
4.71536e-05
4.56572e-05
4.42358e-05
4.28844e-05
4.15982e-05
4.03732e-05
3.92053e-05
3.8091e-05
3.7027e-05
3.60102e-05
3.50378e-05
3.41073e-05
3.32162e-05
3.23623e-05
3.15436e-05
3.07582e-05
3.00044e-05
2.92806e-05
2.85852e-05
2.7917e-05
2.72747e-05
2.66572e-05
2.60635e-05
2.54925e-05
2.49434e-05
2.44155e-05
2.39081e-05
2.34205e-05
2.29521e-05
2.25026e-05
2.20714e-05
2.16581e-05
2.12626e-05
2.08844e-05
2.05233e-05
2.01792e-05
1.98518e-05
1.9541e-05
1.92467e-05
1.89687e-05
1.87069e-05
1.84613e-05
1.82317e-05
1.80181e-05
1.78206e-05
1.76393e-05
1.74743e-05
1.73261e-05
1.71955e-05
1.70837e-05
1.69924e-05
1.69245e-05
1.68849e-05
0.000939687
0.000835718
0.00074589
0.000668034
0.00060034
0.000541299
0.000489645
0.000444315
0.000404415
0.00036919
0.000338001
0.000310306
0.000285646
0.000263626
0.000243911
0.000226213
0.000210285
0.000195914
0.000182916
0.000171131
0.000160423
0.00015067
0.000141769
0.000133626
0.000126163
0.000119309
0.000113002
0.000107187
0.000101816
9.68461e-05
9.224e-05
8.79637e-05
8.39871e-05
8.02833e-05
7.68284e-05
7.36009e-05
7.05815e-05
6.77529e-05
6.50993e-05
6.26068e-05
6.02626e-05
5.8055e-05
5.59737e-05
5.40091e-05
5.21526e-05
5.03963e-05
4.8733e-05
4.71563e-05
4.56599e-05
4.42386e-05
4.28872e-05
4.16011e-05
4.03761e-05
3.92083e-05
3.80941e-05
3.70302e-05
3.60134e-05
3.50411e-05
3.41107e-05
3.32196e-05
3.23658e-05
3.15472e-05
3.07618e-05
3.00081e-05
2.92843e-05
2.8589e-05
2.79209e-05
2.72786e-05
2.66612e-05
2.60674e-05
2.54965e-05
2.49474e-05
2.44196e-05
2.39121e-05
2.34245e-05
2.29561e-05
2.25066e-05
2.20753e-05
2.16621e-05
2.12664e-05
2.08882e-05
2.0527e-05
2.01828e-05
1.98553e-05
1.95444e-05
1.92499e-05
1.89717e-05
1.87098e-05
1.84639e-05
1.82342e-05
1.80204e-05
1.78227e-05
1.76411e-05
1.74759e-05
1.73276e-05
1.71968e-05
1.70848e-05
1.69934e-05
1.69254e-05
1.68857e-05
0.000939687
0.000835718
0.00074589
0.000668034
0.00060034
0.000541299
0.000489645
0.000444315
0.000404415
0.00036919
0.000338001
0.000310307
0.000285646
0.000263626
0.000243911
0.000226214
0.000210286
0.000195915
0.000182917
0.000171133
0.000160424
0.000150672
0.00014177
0.000133628
0.000126165
0.00011931
0.000113003
0.000107188
0.000101817
9.68478e-05
9.22418e-05
8.79655e-05
8.39889e-05
8.02852e-05
7.68304e-05
7.3603e-05
7.05836e-05
6.7755e-05
6.51016e-05
6.26091e-05
6.02649e-05
5.80574e-05
5.59761e-05
5.40116e-05
5.21551e-05
5.03989e-05
4.87357e-05
4.7159e-05
4.56628e-05
4.42415e-05
4.28902e-05
4.16041e-05
4.03792e-05
3.92115e-05
3.80973e-05
3.70334e-05
3.60168e-05
3.50445e-05
3.41141e-05
3.32232e-05
3.23694e-05
3.15508e-05
3.07656e-05
3.00119e-05
2.92882e-05
2.85929e-05
2.79248e-05
2.72827e-05
2.66652e-05
2.60715e-05
2.55006e-05
2.49516e-05
2.44237e-05
2.39163e-05
2.34287e-05
2.29603e-05
2.25107e-05
2.20794e-05
2.16661e-05
2.12704e-05
2.08921e-05
2.05308e-05
2.01865e-05
1.98588e-05
1.95478e-05
1.92531e-05
1.89748e-05
1.87127e-05
1.84666e-05
1.82367e-05
1.80227e-05
1.78248e-05
1.7643e-05
1.74776e-05
1.73291e-05
1.71981e-05
1.7086e-05
1.69944e-05
1.69263e-05
1.68866e-05
0.000939687
0.000835718
0.00074589
0.000668034
0.00060034
0.000541299
0.000489645
0.000444315
0.000404415
0.00036919
0.000338002
0.000310308
0.000285647
0.000263627
0.000243912
0.000226214
0.000210287
0.000195916
0.000182918
0.000171134
0.000160426
0.000150673
0.000141771
0.000133629
0.000126166
0.000119312
0.000113005
0.00010719
0.000101819
9.68496e-05
9.22436e-05
8.79674e-05
8.39908e-05
8.02872e-05
7.68324e-05
7.3605e-05
7.05858e-05
6.77572e-05
6.51038e-05
6.26114e-05
6.02672e-05
5.80598e-05
5.59786e-05
5.40141e-05
5.21578e-05
5.04016e-05
4.87385e-05
4.71618e-05
4.56656e-05
4.42444e-05
4.28932e-05
4.16072e-05
4.03824e-05
3.92147e-05
3.81006e-05
3.70368e-05
3.60202e-05
3.50481e-05
3.41177e-05
3.32268e-05
3.23731e-05
3.15546e-05
3.07694e-05
3.00158e-05
2.92921e-05
2.8597e-05
2.79289e-05
2.72868e-05
2.66694e-05
2.60757e-05
2.55049e-05
2.49559e-05
2.4428e-05
2.39206e-05
2.34329e-05
2.29646e-05
2.25149e-05
2.20836e-05
2.16702e-05
2.12745e-05
2.08961e-05
2.05347e-05
2.01902e-05
1.98625e-05
1.95513e-05
1.92565e-05
1.8978e-05
1.87156e-05
1.84694e-05
1.82392e-05
1.80251e-05
1.78269e-05
1.76449e-05
1.74793e-05
1.73306e-05
1.71995e-05
1.70871e-05
1.69954e-05
1.69272e-05
1.68874e-05
0.000939687
0.000835718
0.00074589
0.000668034
0.000600341
0.0005413
0.000489645
0.000444316
0.000404416
0.000369191
0.000338002
0.000310308
0.000285648
0.000263628
0.000243913
0.000226215
0.000210288
0.000195917
0.000182919
0.000171135
0.000160427
0.000150674
0.000141773
0.00013363
0.000126167
0.000119313
0.000113006
0.000107191
0.000101821
9.68513e-05
9.22454e-05
8.79693e-05
8.39928e-05
8.02892e-05
7.68345e-05
7.36072e-05
7.05879e-05
6.77595e-05
6.51061e-05
6.26138e-05
6.02697e-05
5.80623e-05
5.59812e-05
5.40168e-05
5.21604e-05
5.04044e-05
4.87413e-05
4.71647e-05
4.56686e-05
4.42475e-05
4.28963e-05
4.16104e-05
4.03856e-05
3.9218e-05
3.8104e-05
3.70402e-05
3.60237e-05
3.50516e-05
3.41214e-05
3.32305e-05
3.23769e-05
3.15585e-05
3.07734e-05
3.00198e-05
2.92962e-05
2.86011e-05
2.79331e-05
2.7291e-05
2.66737e-05
2.60801e-05
2.55092e-05
2.49602e-05
2.44324e-05
2.3925e-05
2.34373e-05
2.29689e-05
2.25193e-05
2.20879e-05
2.16745e-05
2.12786e-05
2.09001e-05
2.05387e-05
2.01941e-05
1.98662e-05
1.95548e-05
1.92598e-05
1.89812e-05
1.87186e-05
1.84722e-05
1.82418e-05
1.80274e-05
1.78291e-05
1.76469e-05
1.74811e-05
1.73321e-05
1.72008e-05
1.70882e-05
1.69964e-05
1.69281e-05
1.68882e-05
0.000939687
0.000835718
0.00074589
0.000668034
0.000600341
0.0005413
0.000489646
0.000444316
0.000404416
0.000369191
0.000338003
0.000310309
0.000285648
0.000263629
0.000243914
0.000226216
0.000210289
0.000195918
0.00018292
0.000171136
0.000160428
0.000150676
0.000141774
0.000133632
0.000126169
0.000119315
0.000113008
0.000107193
0.000101822
9.68531e-05
9.22473e-05
8.79712e-05
8.39947e-05
8.02912e-05
7.68366e-05
7.36093e-05
7.05901e-05
6.77617e-05
6.51084e-05
6.26161e-05
6.02721e-05
5.80648e-05
5.59837e-05
5.40194e-05
5.21632e-05
5.04071e-05
4.87441e-05
4.71676e-05
4.56716e-05
4.42505e-05
4.28994e-05
4.16136e-05
4.03889e-05
3.92214e-05
3.81074e-05
3.70437e-05
3.60273e-05
3.50553e-05
3.41251e-05
3.32343e-05
3.23808e-05
3.15624e-05
3.07774e-05
3.00239e-05
2.93003e-05
2.86053e-05
2.79373e-05
2.72953e-05
2.6678e-05
2.60844e-05
2.55136e-05
2.49647e-05
2.44368e-05
2.39294e-05
2.34418e-05
2.29733e-05
2.25237e-05
2.20923e-05
2.16788e-05
2.12829e-05
2.09042e-05
2.05427e-05
2.0198e-05
1.98699e-05
1.95584e-05
1.92633e-05
1.89844e-05
1.87217e-05
1.84751e-05
1.82445e-05
1.80298e-05
1.78312e-05
1.76488e-05
1.74828e-05
1.73336e-05
1.7202e-05
1.70894e-05
1.69974e-05
1.69289e-05
1.6889e-05
0.000939687
0.000835718
0.00074589
0.000668034
0.000600341
0.0005413
0.000489646
0.000444316
0.000404417
0.000369192
0.000338003
0.000310309
0.000285649
0.000263629
0.000243915
0.000226217
0.000210289
0.000195919
0.000182921
0.000171137
0.000160429
0.000150677
0.000141775
0.000133633
0.00012617
0.000119316
0.000113009
0.000107195
0.000101824
9.68549e-05
9.22491e-05
8.79731e-05
8.39967e-05
8.02932e-05
7.68386e-05
7.36115e-05
7.05924e-05
6.7764e-05
6.51108e-05
6.26186e-05
6.02746e-05
5.80673e-05
5.59863e-05
5.40221e-05
5.21659e-05
5.041e-05
4.8747e-05
4.71706e-05
4.56746e-05
4.42536e-05
4.29026e-05
4.16168e-05
4.03922e-05
3.92247e-05
3.81109e-05
3.70473e-05
3.60309e-05
3.5059e-05
3.41289e-05
3.32382e-05
3.23847e-05
3.15664e-05
3.07814e-05
3.0028e-05
2.93045e-05
2.86095e-05
2.79416e-05
2.72997e-05
2.66824e-05
2.60889e-05
2.55181e-05
2.49691e-05
2.44413e-05
2.39339e-05
2.34463e-05
2.29778e-05
2.25281e-05
2.20966e-05
2.16831e-05
2.12871e-05
2.09084e-05
2.05467e-05
2.02019e-05
1.98737e-05
1.9562e-05
1.92667e-05
1.89877e-05
1.87248e-05
1.84779e-05
1.82471e-05
1.80322e-05
1.78334e-05
1.76507e-05
1.74845e-05
1.73351e-05
1.72033e-05
1.70904e-05
1.69983e-05
1.69297e-05
1.68897e-05
0.000939687
0.000835718
0.000745891
0.000668034
0.000600341
0.0005413
0.000489646
0.000444317
0.000404417
0.000369192
0.000338004
0.00031031
0.00028565
0.00026363
0.000243915
0.000226218
0.00021029
0.00019592
0.000182922
0.000171138
0.00016043
0.000150678
0.000141777
0.000133635
0.000126172
0.000119318
0.000113011
0.000107196
0.000101826
9.68567e-05
9.2251e-05
8.7975e-05
8.39987e-05
8.02953e-05
7.68407e-05
7.36136e-05
7.05946e-05
6.77663e-05
6.51131e-05
6.2621e-05
6.02771e-05
5.80699e-05
5.5989e-05
5.40248e-05
5.21687e-05
5.04128e-05
4.87499e-05
4.71735e-05
4.56776e-05
4.42567e-05
4.29058e-05
4.16201e-05
4.03955e-05
3.92282e-05
3.81144e-05
3.70509e-05
3.60346e-05
3.50627e-05
3.41327e-05
3.3242e-05
3.23886e-05
3.15704e-05
3.07855e-05
3.00321e-05
2.93087e-05
2.86138e-05
2.7946e-05
2.7304e-05
2.66868e-05
2.60933e-05
2.55225e-05
2.49737e-05
2.44458e-05
2.39384e-05
2.34508e-05
2.29823e-05
2.25326e-05
2.21011e-05
2.16875e-05
2.12914e-05
2.09126e-05
2.05508e-05
2.02059e-05
1.98775e-05
1.95657e-05
1.92702e-05
1.89909e-05
1.87278e-05
1.84808e-05
1.82497e-05
1.80346e-05
1.78356e-05
1.76526e-05
1.74861e-05
1.73365e-05
1.72045e-05
1.70915e-05
1.69992e-05
1.69305e-05
1.68905e-05
0.000939687
0.000835718
0.000745891
0.000668034
0.000600341
0.0005413
0.000489646
0.000444317
0.000404417
0.000369193
0.000338004
0.00031031
0.00028565
0.000263631
0.000243916
0.000226219
0.000210291
0.000195921
0.000182923
0.00017114
0.000160432
0.000150679
0.000141778
0.000133636
0.000126173
0.00011932
0.000113013
0.000107198
0.000101828
9.68585e-05
9.22528e-05
8.79769e-05
8.40007e-05
8.02973e-05
7.68428e-05
7.36158e-05
7.05968e-05
6.77686e-05
6.51155e-05
6.26234e-05
6.02796e-05
5.80725e-05
5.59916e-05
5.40275e-05
5.21714e-05
5.04156e-05
4.87528e-05
4.71765e-05
4.56807e-05
4.42599e-05
4.2909e-05
4.16234e-05
4.03989e-05
3.92316e-05
3.81179e-05
3.70544e-05
3.60382e-05
3.50664e-05
3.41365e-05
3.32459e-05
3.23926e-05
3.15745e-05
3.07896e-05
3.00363e-05
2.93129e-05
2.86181e-05
2.79503e-05
2.73084e-05
2.66913e-05
2.60978e-05
2.55271e-05
2.49782e-05
2.44504e-05
2.3943e-05
2.34553e-05
2.29868e-05
2.25371e-05
2.21055e-05
2.16918e-05
2.12957e-05
2.09168e-05
2.05549e-05
2.02098e-05
1.98814e-05
1.95693e-05
1.92737e-05
1.89942e-05
1.87309e-05
1.84836e-05
1.82523e-05
1.8037e-05
1.78377e-05
1.76545e-05
1.74878e-05
1.73379e-05
1.72058e-05
1.70925e-05
1.7e-05
1.69313e-05
1.68911e-05
0.000939687
0.000835718
0.000745891
0.000668034
0.000600341
0.000541301
0.000489647
0.000444317
0.000404418
0.000369193
0.000338005
0.000310311
0.000285651
0.000263631
0.000243917
0.00022622
0.000210292
0.000195922
0.000182924
0.000171141
0.000160433
0.000150681
0.000141779
0.000133637
0.000126175
0.000119321
0.000113014
0.0001072
0.000101829
9.68602e-05
9.22546e-05
8.79788e-05
8.40026e-05
8.02993e-05
7.68449e-05
7.36179e-05
7.0599e-05
6.77709e-05
6.51178e-05
6.26258e-05
6.02821e-05
5.8075e-05
5.59942e-05
5.40302e-05
5.21742e-05
5.04184e-05
4.87557e-05
4.71795e-05
4.56837e-05
4.4263e-05
4.29121e-05
4.16267e-05
4.04022e-05
3.9235e-05
3.81214e-05
3.7058e-05
3.60419e-05
3.50702e-05
3.41403e-05
3.32498e-05
3.23966e-05
3.15785e-05
3.07937e-05
3.00404e-05
2.93172e-05
2.86223e-05
2.79546e-05
2.73128e-05
2.66957e-05
2.61023e-05
2.55316e-05
2.49827e-05
2.44549e-05
2.39475e-05
2.34599e-05
2.29914e-05
2.25415e-05
2.21099e-05
2.16962e-05
2.13e-05
2.0921e-05
2.0559e-05
2.02138e-05
1.98852e-05
1.9573e-05
1.92771e-05
1.89975e-05
1.87339e-05
1.84864e-05
1.82549e-05
1.80394e-05
1.78398e-05
1.76564e-05
1.74894e-05
1.73393e-05
1.72069e-05
1.70935e-05
1.70009e-05
1.6932e-05
1.68918e-05
0.000939687
0.000835718
0.000745891
0.000668034
0.000600341
0.000541301
0.000489647
0.000444318
0.000404418
0.000369194
0.000338005
0.000310312
0.000285651
0.000263632
0.000243918
0.00022622
0.000210293
0.000195923
0.000182925
0.000171142
0.000160434
0.000150682
0.000141781
0.000133639
0.000126176
0.000119323
0.000113016
0.000107201
0.000101831
9.6862e-05
9.22564e-05
8.79807e-05
8.40046e-05
8.03013e-05
7.6847e-05
7.36201e-05
7.06012e-05
6.77731e-05
6.51202e-05
6.26282e-05
6.02845e-05
5.80775e-05
5.59968e-05
5.40328e-05
5.21769e-05
5.04213e-05
4.87586e-05
4.71825e-05
4.56868e-05
4.42661e-05
4.29153e-05
4.16299e-05
4.04056e-05
3.92384e-05
3.81249e-05
3.70616e-05
3.60455e-05
3.50739e-05
3.41441e-05
3.32537e-05
3.24005e-05
3.15825e-05
3.07978e-05
3.00446e-05
2.93214e-05
2.86266e-05
2.7959e-05
2.73172e-05
2.67001e-05
2.61067e-05
2.5536e-05
2.49872e-05
2.44594e-05
2.3952e-05
2.34644e-05
2.29958e-05
2.2546e-05
2.21143e-05
2.17005e-05
2.13042e-05
2.09252e-05
2.0563e-05
2.02177e-05
1.98889e-05
1.95766e-05
1.92806e-05
1.90007e-05
1.8737e-05
1.84892e-05
1.82575e-05
1.80417e-05
1.78419e-05
1.76583e-05
1.7491e-05
1.73407e-05
1.72081e-05
1.70944e-05
1.70016e-05
1.69326e-05
1.68924e-05
0.000939687
0.000835718
0.000745891
0.000668035
0.000600342
0.000541301
0.000489647
0.000444318
0.000404418
0.000369194
0.000338006
0.000310312
0.000285652
0.000263633
0.000243918
0.000226221
0.000210294
0.000195924
0.000182926
0.000171143
0.000160435
0.000150683
0.000141782
0.00013364
0.000126178
0.000119324
0.000113017
0.000107203
0.000101833
9.68637e-05
9.22582e-05
8.79825e-05
8.40065e-05
8.03033e-05
7.6849e-05
7.36222e-05
7.06034e-05
6.77754e-05
6.51225e-05
6.26306e-05
6.0287e-05
5.808e-05
5.59994e-05
5.40355e-05
5.21796e-05
5.0424e-05
4.87615e-05
4.71854e-05
4.56898e-05
4.42692e-05
4.29185e-05
4.16331e-05
4.04089e-05
3.92418e-05
3.81283e-05
3.70651e-05
3.60491e-05
3.50776e-05
3.41478e-05
3.32575e-05
3.24044e-05
3.15865e-05
3.08018e-05
3.00487e-05
2.93255e-05
2.86308e-05