/*--------------------------------*- C++ -*----------------------------------*\
  =========                 |
  \\      /  F ield         | OpenFOAM: The Open Source CFD Toolbox
   \\    /   O peration     | Website:  https://openfoam.org
    \\  /    A nd           | Version:  11
     \\/     M anipulation  |
\*---------------------------------------------------------------------------*/
FoamFile
{
    format      ascii;
    class       volVectorField;
    location    "550";
    object      U;
}
// * * * * * * * * * * * * * * * * * * * * * * * * * * * * * * * * * * * * * //

dimensions      [0 1 -1 0 0 0 0];

internalField   nonuniform List<vector> 
10000
(
(0.00499999 -2.91254e-07 0)
(0.00499994 -8.36028e-07 0)
(0.00499987 -1.3782e-06 0)
(0.00499978 -1.93323e-06 0)
(0.00499968 -2.5102e-06 0)
(0.00499956 -3.11568e-06 0)
(0.00499943 -3.7549e-06 0)
(0.00499927 -4.43236e-06 0)
(0.0049991 -5.15212e-06 0)
(0.00499891 -5.91799e-06 0)
(0.00499869 -6.73368e-06 0)
(0.00499846 -7.60281e-06 0)
(0.0049982 -8.52902e-06 0)
(0.00499791 -9.51597e-06 0)
(0.0049976 -1.05674e-05 0)
(0.00499725 -1.1687e-05 0)
(0.00499688 -1.28786e-05 0)
(0.00499647 -1.41462e-05 0)
(0.00499603 -1.54938e-05 0)
(0.00499555 -1.69255e-05 0)
(0.00499504 -1.84455e-05 0)
(0.00499448 -2.00581e-05 0)
(0.00499387 -2.17677e-05 0)
(0.00499322 -2.3579e-05 0)
(0.00499252 -2.54965e-05 0)
(0.00499177 -2.7525e-05 0)
(0.00499097 -2.96693e-05 0)
(0.0049901 -3.19344e-05 0)
(0.00498918 -3.43255e-05 0)
(0.00498819 -3.68475e-05 0)
(0.00498713 -3.9506e-05 0)
(0.004986 -4.23061e-05 0)
(0.0049848 -4.52534e-05 0)
(0.00498352 -4.83533e-05 0)
(0.00498215 -5.16116e-05 0)
(0.0049807 -5.50337e-05 0)
(0.00497916 -5.86255e-05 0)
(0.00497752 -6.23928e-05 0)
(0.00497579 -6.63411e-05 0)
(0.00497394 -7.04764e-05 0)
(0.00497199 -7.48044e-05 0)
(0.00496993 -7.93309e-05 0)
(0.00496775 -8.40615e-05 0)
(0.00496544 -8.90018e-05 0)
(0.004963 -9.41574e-05 0)
(0.00496043 -9.95336e-05 0)
(0.00495772 -0.000105136 0)
(0.00495486 -0.000110969 0)
(0.00495185 -0.000117037 0)
(0.00494868 -0.000123346 0)
(0.00494535 -0.000129899 0)
(0.00494185 -0.000136699 0)
(0.00493818 -0.000143752 0)
(0.00493432 -0.000151058 0)
(0.00493028 -0.000158621 0)
(0.00492605 -0.000166442 0)
(0.00492162 -0.000174521 0)
(0.00491698 -0.00018286 0)
(0.00491214 -0.000191457 0)
(0.00490708 -0.000200311 0)
(0.0049018 -0.000209418 0)
(0.00489629 -0.000218774 0)
(0.00489056 -0.000228374 0)
(0.00488459 -0.000238211 0)
(0.00487838 -0.000248276 0)
(0.00487193 -0.000258559 0)
(0.00486524 -0.000269048 0)
(0.00485831 -0.000279729 0)
(0.00485113 -0.000290584 0)
(0.0048437 -0.000301596 0)
(0.00483603 -0.000312743 0)
(0.00482812 -0.000324001 0)
(0.00481997 -0.000335343 0)
(0.00481158 -0.00034674 0)
(0.00480297 -0.00035816 0)
(0.00479415 -0.000369566 0)
(0.00478512 -0.00038092 0)
(0.00477589 -0.000392181 0)
(0.0047665 -0.000403304 0)
(0.00475694 -0.000414243 0)
(0.00474725 -0.000424948 0)
(0.00473745 -0.000435367 0)
(0.00472756 -0.000445447 0)
(0.00471763 -0.000455135 0)
(0.00470768 -0.000464374 0)
(0.00469775 -0.000473109 0)
(0.00468789 -0.000481288 0)
(0.00467814 -0.000488856 0)
(0.00466856 -0.000495765 0)
(0.00465921 -0.000501967 0)
(0.00465013 -0.000507418 0)
(0.00464141 -0.000512083 0)
(0.00463313 -0.000515938 0)
(0.00462539 -0.000518985 0)
(0.00461806 -0.00052122 0)
(0.00461114 -0.000522509 0)
(0.00460492 -0.000522841 0)
(0.00459975 -0.000522306 0)
(0.00459577 -0.000521131 0)
(0.00459296 -0.000520014 0)
(0.005 -2.56999e-07 0)
(0.00499995 -7.70885e-07 0)
(0.00499988 -1.29316e-06 0)
(0.00499979 -1.83012e-06 0)
(0.00499969 -2.38918e-06 0)
(0.00499957 -2.97623e-06 0)
(0.00499944 -3.59617e-06 0)
(0.00499928 -4.25327e-06 0)
(0.00499911 -4.95142e-06 0)
(0.00499892 -5.69433e-06 0)
(0.00499871 -6.48558e-06 0)
(0.00499847 -7.32869e-06 0)
(0.00499821 -8.2272e-06 0)
(0.00499792 -9.18466e-06 0)
(0.00499761 -1.02047e-05 0)
(0.00499727 -1.12909e-05 0)
(0.0049969 -1.2447e-05 0)
(0.00499649 -1.36769e-05 0)
(0.00499605 -1.49845e-05 0)
(0.00499557 -1.63737e-05 0)
(0.00499506 -1.78486e-05 0)
(0.0049945 -1.94136e-05 0)
(0.0049939 -2.10727e-05 0)
(0.00499325 -2.28305e-05 0)
(0.00499255 -2.46915e-05 0)
(0.0049918 -2.66603e-05 0)
(0.004991 -2.87416e-05 0)
(0.00499013 -3.09403e-05 0)
(0.00498921 -3.32613e-05 0)
(0.00498822 -3.57095e-05 0)
(0.00498717 -3.82902e-05 0)
(0.00498604 -4.10086e-05 0)
(0.00498484 -4.38699e-05 0)
(0.00498356 -4.68796e-05 0)
(0.0049822 -5.0043e-05 0)
(0.00498075 -5.33657e-05 0)
(0.00497921 -5.68533e-05 0)
(0.00497758 -6.05113e-05 0)
(0.00497585 -6.43453e-05 0)
(0.00497401 -6.8361e-05 0)
(0.00497206 -7.2564e-05 0)
(0.00497 -7.69598e-05 0)
(0.00496782 -8.15541e-05 0)
(0.00496552 -8.63523e-05 0)
(0.00496309 -9.13597e-05 0)
(0.00496052 -9.65816e-05 0)
(0.00495781 -0.000102023 0)
(0.00495496 -0.000107689 0)
(0.00495196 -0.000113584 0)
(0.0049488 -0.000119713 0)
(0.00494547 -0.000126079 0)
(0.00494198 -0.000132687 0)
(0.00493832 -0.00013954 0)
(0.00493447 -0.000146639 0)
(0.00493044 -0.000153989 0)
(0.00492621 -0.00016159 0)
(0.00492179 -0.000169444 0)
(0.00491716 -0.00017755 0)
(0.00491233 -0.000185908 0)
(0.00490728 -0.000194516 0)
(0.00490201 -0.000203372 0)
(0.00489651 -0.000212472 0)
(0.00489079 -0.000221811 0)
(0.00488483 -0.000231383 0)
(0.00487864 -0.000241178 0)
(0.0048722 -0.000251189 0)
(0.00486553 -0.000261403 0)
(0.00485861 -0.000271806 0)
(0.00485144 -0.000282385 0)
(0.00484403 -0.00029312 0)
(0.00483637 -0.000303992 0)
(0.00482847 -0.000314979 0)
(0.00482034 -0.000326055 0)
(0.00481197 -0.000337193 0)
(0.00480338 -0.000348363 0)
(0.00479457 -0.00035953 0)
(0.00478555 -0.00037066 0)
(0.00477634 -0.000381713 0)
(0.00476696 -0.000392648 0)
(0.00475742 -0.000403421 0)
(0.00474774 -0.000413986 0)
(0.00473796 -0.000424296 0)
(0.00472808 -0.0004343 0)
(0.00471816 -0.000443949 0)
(0.00470822 -0.000453192 0)
(0.0046983 -0.000461978 0)
(0.00468844 -0.000470257 0)
(0.00467869 -0.000477982 0)
(0.0046691 -0.000485108 0)
(0.00465973 -0.000491592 0)
(0.00465063 -0.000497398 0)
(0.00464185 -0.000502493 0)
(0.00463347 -0.000506843 0)
(0.00462555 -0.000510402 0)
(0.00461809 -0.000513118 0)
(0.00461128 -0.000515056 0)
(0.00460526 -0.000516343 0)
(0.00460006 -0.000517055 0)
(0.00459552 -0.000517226 0)
(0.00459171 -0.000517223 0)
(0.005 -2.29602e-07 0)
(0.00499996 -7.10597e-07 0)
(0.0049999 -1.21004e-06 0)
(0.00499981 -1.72788e-06 0)
(0.00499971 -2.26877e-06 0)
(0.00499959 -2.8375e-06 0)
(0.00499946 -3.43843e-06 0)
(0.00499931 -4.07553e-06 0)
(0.00499913 -4.75252e-06 0)
(0.00499894 -5.47295e-06 0)
(0.00499873 -6.24029e-06 0)
(0.00499849 -7.05797e-06 0)
(0.00499824 -7.92941e-06 0)
(0.00499795 -8.85805e-06 0)
(0.00499764 -9.84741e-06 0)
(0.0049973 -1.0901e-05 0)
(0.00499693 -1.20226e-05 0)
(0.00499652 -1.32157e-05 0)
(0.00499608 -1.44842e-05 0)
(0.00499561 -1.58321e-05 0)
(0.00499509 -1.72631e-05 0)
(0.00499454 -1.87816e-05 0)
(0.00499394 -2.03916e-05 0)
(0.00499329 -2.20974e-05 0)
(0.0049926 -2.39035e-05 0)
(0.00499185 -2.58142e-05 0)
(0.00499105 -2.78343e-05 0)
(0.00499019 -2.99684e-05 0)
(0.00498927 -3.22213e-05 0)
(0.00498829 -3.45978e-05 0)
(0.00498724 -3.71031e-05 0)
(0.00498612 -3.97421e-05 0)
(0.00498492 -4.252e-05 0)
(0.00498365 -4.54421e-05 0)
(0.00498229 -4.85136e-05 0)
(0.00498085 -5.17399e-05 0)
(0.00497932 -5.51265e-05 0)
(0.00497769 -5.86786e-05 0)
(0.00497596 -6.24019e-05 0)
(0.00497413 -6.63018e-05 0)
(0.00497219 -7.03838e-05 0)
(0.00497014 -7.46532e-05 0)
(0.00496797 -7.91156e-05 0)
(0.00496568 -8.37763e-05 0)
(0.00496325 -8.86404e-05 0)
(0.0049607 -9.37132e-05 0)
(0.004958 -9.89996e-05 0)
(0.00495516 -0.000104504 0)
(0.00495217 -0.000110232 0)
(0.00494902 -0.000116187 0)
(0.00494571 -0.000122374 0)
(0.00494223 -0.000128795 0)
(0.00493858 -0.000135455 0)
(0.00493475 -0.000142355 0)
(0.00493073 -0.000149499 0)
(0.00492652 -0.000156889 0)
(0.00492212 -0.000164524 0)
(0.00491751 -0.000172406 0)
(0.00491269 -0.000180534 0)
(0.00490766 -0.000188907 0)
(0.00490241 -0.000197521 0)
(0.00489694 -0.000206375 0)
(0.00489124 -0.000215463 0)
(0.0048853 -0.000224779 0)
(0.00487913 -0.000234316 0)
(0.00487272 -0.000244064 0)
(0.00486607 -0.000254014 0)
(0.00485917 -0.000264152 0)
(0.00485203 -0.000274464 0)
(0.00484465 -0.000284934 0)
(0.00483702 -0.000295543 0)
(0.00482915 -0.000306269 0)
(0.00482104 -0.000317091 0)
(0.00481271 -0.00032798 0)
(0.00480414 -0.00033891 0)
(0.00479536 -0.000349848 0)
(0.00478638 -0.000360762 0)
(0.0047772 -0.000371615 0)
(0.00476784 -0.000382369 0)
(0.00475833 -0.000392983 0)
(0.00474868 -0.000403413 0)
(0.00473891 -0.000413616 0)
(0.00472906 -0.000423546 0)
(0.00471916 -0.000433155 0)
(0.00470923 -0.000442398 0)
(0.00469931 -0.000451228 0)
(0.00468946 -0.000459599 0)
(0.0046797 -0.000467467 0)
(0.00467009 -0.000474792 0)
(0.00466069 -0.000481534 0)
(0.00465154 -0.000487661 0)
(0.00464269 -0.00049314 0)
(0.00463422 -0.000497941 0)
(0.00462618 -0.000502035 0)
(0.00461864 -0.000505424 0)
(0.0046117 -0.000508146 0)
(0.00460545 -0.000510244 0)
(0.00459987 -0.000511765 0)
(0.00459467 -0.000512774 0)
(0.00458982 -0.000513436 0)
(0.005 -2.10864e-07 0)
(0.00499997 -6.62352e-07 0)
(0.00499991 -1.13877e-06 0)
(0.00499983 -1.63726e-06 0)
(0.00499973 -2.16035e-06 0)
(0.00499962 -2.71166e-06 0)
(0.00499948 -3.29487e-06 0)
(0.00499933 -3.91354e-06 0)
(0.00499916 -4.57115e-06 0)
(0.00499897 -5.27106e-06 0)
(0.00499876 -6.01661e-06 0)
(0.00499852 -6.81112e-06 0)
(0.00499827 -7.65791e-06 0)
(0.00499798 -8.56033e-06 0)
(0.00499767 -9.52179e-06 0)
(0.00499733 -1.05458e-05 0)
(0.00499696 -1.16357e-05 0)
(0.00499656 -1.27954e-05 0)
(0.00499612 -1.40284e-05 0)
(0.00499565 -1.53385e-05 0)
(0.00499514 -1.67296e-05 0)
(0.00499459 -1.82058e-05 0)
(0.00499399 -1.9771e-05 0)
(0.00499335 -2.14294e-05 0)
(0.00499266 -2.31854e-05 0)
(0.00499192 -2.50433e-05 0)
(0.00499112 -2.70075e-05 0)
(0.00499027 -2.90827e-05 0)
(0.00498935 -3.12735e-05 0)
(0.00498837 -3.35847e-05 0)
(0.00498733 -3.60212e-05 0)
(0.00498621 -3.85879e-05 0)
(0.00498503 -4.12898e-05 0)
(0.00498376 -4.4132e-05 0)
(0.00498241 -4.71196e-05 0)
(0.00498098 -5.0258e-05 0)
(0.00497945 -5.35524e-05 0)
(0.00497783 -5.7008e-05 0)
(0.00497612 -6.06303e-05 0)
(0.00497429 -6.44246e-05 0)
(0.00497237 -6.83961e-05 0)
(0.00497033 -7.25503e-05 0)
(0.00496817 -7.68923e-05 0)
(0.00496589 -8.14275e-05 0)
(0.00496348 -8.61609e-05 0)
(0.00496093 -9.10976e-05 0)
(0.00495825 -9.62424e-05 0)
(0.00495543 -0.0001016 0)
(0.00495245 -0.000107175 0)
(0.00494932 -0.000112972 0)
(0.00494603 -0.000118994 0)
(0.00494257 -0.000125245 0)
(0.00493894 -0.000131729 0)
(0.00493513 -0.000138448 0)
(0.00493113 -0.000145404 0)
(0.00492695 -0.0001526 0)
(0.00492256 -0.000160036 0)
(0.00491798 -0.000167713 0)
(0.00491319 -0.000175631 0)
(0.00490818 -0.000183788 0)
(0.00490296 -0.000192183 0)
(0.00489752 -0.000200812 0)
(0.00489185 -0.00020967 0)
(0.00488594 -0.000218753 0)
(0.00487981 -0.000228053 0)
(0.00487343 -0.000237562 0)
(0.00486681 -0.00024727 0)
(0.00485995 -0.000257165 0)
(0.00485285 -0.000267234 0)
(0.0048455 -0.00027746 0)
(0.00483791 -0.000287828 0)
(0.00483008 -0.000298316 0)
(0.00482202 -0.000308904 0)
(0.00481372 -0.000319565 0)
(0.0048052 -0.000330275 0)
(0.00479646 -0.000341003 0)
(0.00478751 -0.000351719 0)
(0.00477838 -0.000362388 0)
(0.00476906 -0.000372974 0)
(0.00475959 -0.000383439 0)
(0.00474997 -0.000393743 0)
(0.00474024 -0.000403845 0)
(0.00473042 -0.000413702 0)
(0.00472054 -0.000423271 0)
(0.00471064 -0.000432507 0)
(0.00470074 -0.000441369 0)
(0.00469088 -0.000449814 0)
(0.00468112 -0.000457802 0)
(0.00467149 -0.000465294 0)
(0.00466205 -0.000472255 0)
(0.00465284 -0.000478652 0)
(0.00464392 -0.000484458 0)
(0.00463534 -0.000489644 0)
(0.00462717 -0.000494192 0)
(0.00461946 -0.000498105 0)
(0.00461229 -0.000501405 0)
(0.00460569 -0.000504118 0)
(0.00459964 -0.000506255 0)
(0.00459374 -0.000507832 0)
(0.00458796 -0.000508908 0)
(0.005 -1.95836e-07 0)
(0.00499997 -6.20268e-07 0)
(0.00499992 -1.0734e-06 0)
(0.00499985 -1.5515e-06 0)
(0.00499975 -2.05584e-06 0)
(0.00499964 -2.58906e-06 0)
(0.00499951 -3.15413e-06 0)
(0.00499936 -3.75418e-06 0)
(0.00499919 -4.39235e-06 0)
(0.004999 -5.0718e-06 0)
(0.00499879 -5.79571e-06 0)
(0.00499856 -6.56725e-06 0)
(0.0049983 -7.38963e-06 0)
(0.00499802 -8.2661e-06 0)
(0.00499771 -9.19996e-06 0)
(0.00499738 -1.01946e-05 0)
(0.00499701 -1.12534e-05 0)
(0.00499661 -1.23799e-05 0)
(0.00499618 -1.35778e-05 0)
(0.00499571 -1.48506e-05 0)
(0.0049952 -1.62023e-05 0)
(0.00499465 -1.76365e-05 0)
(0.00499406 -1.91574e-05 0)
(0.00499342 -2.0769e-05 0)
(0.00499273 -2.24754e-05 0)
(0.00499199 -2.42809e-05 0)
(0.0049912 -2.61899e-05 0)
(0.00499036 -2.82069e-05 0)
(0.00498945 -3.03363e-05 0)
(0.00498848 -3.25828e-05 0)
(0.00498744 -3.49512e-05 0)
(0.00498633 -3.74463e-05 0)
(0.00498515 -4.00729e-05 0)
(0.00498389 -4.2836e-05 0)
(0.00498255 -4.57407e-05 0)
(0.00498113 -4.87921e-05 0)
(0.00497962 -5.19952e-05 0)
(0.00497801 -5.53553e-05 0)
(0.0049763 -5.88775e-05 0)
(0.00497449 -6.25672e-05 0)
(0.00497258 -6.64294e-05 0)
(0.00497055 -7.04694e-05 0)
(0.00496841 -7.46923e-05 0)
(0.00496614 -7.91032e-05 0)
(0.00496375 -8.37072e-05 0)
(0.00496122 -8.85091e-05 0)
(0.00495856 -9.35137e-05 0)
(0.00495575 -9.87256e-05 0)
(0.0049528 -0.000104149 0)
(0.00494969 -0.000109789 0)
(0.00494642 -0.000115648 0)
(0.00494298 -0.000121731 0)
(0.00493938 -0.00012804 0)
(0.00493559 -0.000134579 0)
(0.00493162 -0.00014135 0)
(0.00492746 -0.000148354 0)
(0.00492311 -0.000155593 0)
(0.00491856 -0.000163067 0)
(0.0049138 -0.000170777 0)
(0.00490883 -0.000178721 0)
(0.00490364 -0.000186897 0)
(0.00489823 -0.000195302 0)
(0.0048926 -0.000203934 0)
(0.00488673 -0.000212785 0)
(0.00488064 -0.00022185 0)
(0.0048743 -0.000231122 0)
(0.00486773 -0.00024059 0)
(0.00486091 -0.000250244 0)
(0.00485386 -0.000260071 0)
(0.00484656 -0.000270057 0)
(0.00483902 -0.000280185 0)
(0.00483124 -0.000290437 0)
(0.00482322 -0.000300792 0)
(0.00481497 -0.000311227 0)
(0.0048065 -0.000321718 0)
(0.00479782 -0.000332236 0)
(0.00478893 -0.000342753 0)
(0.00477984 -0.000353237 0)
(0.00477058 -0.000363655 0)
(0.00476115 -0.00037397 0)
(0.00475158 -0.000384146 0)
(0.00474189 -0.000394144 0)
(0.00473211 -0.000403923 0)
(0.00472227 -0.000413445 0)
(0.00471238 -0.000422669 0)
(0.0047025 -0.000431554 0)
(0.00469265 -0.000440062 0)
(0.00468288 -0.000448155 0)
(0.00467323 -0.000455797 0)
(0.00466375 -0.000462956 0)
(0.00465448 -0.000469601 0)
(0.00464547 -0.000475706 0)
(0.00463677 -0.000481247 0)
(0.00462843 -0.000486207 0)
(0.00462051 -0.000490583 0)
(0.00461304 -0.000494378 0)
(0.00460607 -0.000497591 0)
(0.00459953 -0.0005002 0)
(0.00459297 -0.000502171 0)
(0.0045863 -0.00050358 0)
(0.005 -1.82772e-07 0)
(0.00499997 -5.82283e-07 0)
(0.00499993 -1.01255e-06 0)
(0.00499986 -1.46979e-06 0)
(0.00499977 -1.95463e-06 0)
(0.00499966 -2.46902e-06 0)
(0.00499953 -3.01535e-06 0)
(0.00499939 -3.59631e-06 0)
(0.00499922 -4.21471e-06 0)
(0.00499903 -4.87348e-06 0)
(0.00499883 -5.57559e-06 0)
(0.0049986 -6.32406e-06 0)
(0.00499834 -7.12199e-06 0)
(0.00499806 -7.97249e-06 0)
(0.00499776 -8.87877e-06 0)
(0.00499742 -9.84409e-06 0)
(0.00499706 -1.08718e-05 0)
(0.00499666 -1.19653e-05 0)
(0.00499623 -1.3128e-05 0)
(0.00499577 -1.43637e-05 0)
(0.00499526 -1.56759e-05 0)
(0.00499472 -1.70684e-05 0)
(0.00499413 -1.8545e-05 0)
(0.0049935 -2.01098e-05 0)
(0.00499282 -2.17668e-05 0)
(0.00499209 -2.35201e-05 0)
(0.0049913 -2.5374e-05 0)
(0.00499046 -2.73328e-05 0)
(0.00498956 -2.94009e-05 0)
(0.0049886 -3.15828e-05 0)
(0.00498757 -3.38833e-05 0)
(0.00498647 -3.63068e-05 0)
(0.0049853 -3.88583e-05 0)
(0.00498405 -4.15425e-05 0)
(0.00498272 -4.43644e-05 0)
(0.00498131 -4.73289e-05 0)
(0.00497981 -5.04409e-05 0)
(0.00497821 -5.37056e-05 0)
(0.00497652 -5.7128e-05 0)
(0.00497473 -6.07133e-05 0)
(0.00497283 -6.44663e-05 0)
(0.00497082 -6.83923e-05 0)
(0.00496869 -7.24963e-05 0)
(0.00496644 -7.67832e-05 0)
(0.00496407 -8.12579e-05 0)
(0.00496156 -8.59253e-05 0)
(0.00495892 -9.07899e-05 0)
(0.00495614 -9.58564e-05 0)
(0.00495321 -0.000101129 0)
(0.00495012 -0.000106612 0)
(0.00494688 -0.000112309 0)
(0.00494347 -0.000118223 0)
(0.00493989 -0.000124359 0)
(0.00493613 -0.000130718 0)
(0.00493219 -0.000137303 0)
(0.00492807 -0.000144116 0)
(0.00492375 -0.000151158 0)
(0.00491923 -0.000158429 0)
(0.00491451 -0.000165931 0)
(0.00490958 -0.000173662 0)
(0.00490443 -0.00018162 0)
(0.00489907 -0.000189803 0)
(0.00489348 -0.000198207 0)
(0.00488766 -0.000206828 0)
(0.00488161 -0.000215659 0)
(0.00487532 -0.000224693 0)
(0.0048688 -0.000233922 0)
(0.00486204 -0.000243335 0)
(0.00485503 -0.000252921 0)
(0.00484779 -0.000262666 0)
(0.00484031 -0.000272554 0)
(0.00483258 -0.000282569 0)
(0.00482463 -0.000292691 0)
(0.00481644 -0.000302899 0)
(0.00480803 -0.00031317 0)
(0.0047994 -0.000323478 0)
(0.00479057 -0.000333795 0)
(0.00478155 -0.000344093 0)
(0.00477234 -0.000354339 0)
(0.00476297 -0.000364502 0)
(0.00475345 -0.000374545 0)
(0.00474382 -0.000384434 0)
(0.00473408 -0.000394131 0)
(0.00472427 -0.000403599 0)
(0.00471441 -0.0004128 0)
(0.00470455 -0.000421698 0)
(0.00469471 -0.000430256 0)
(0.00468493 -0.00043844 0)
(0.00467525 -0.000446215 0)
(0.00466572 -0.000453551 0)
(0.00465638 -0.00046042 0)
(0.00464726 -0.000466795 0)
(0.00463842 -0.000472655 0)
(0.0046299 -0.00047798 0)
(0.00462174 -0.000482757 0)
(0.00461396 -0.000486972 0)
(0.00460659 -0.000490598 0)
(0.00459956 -0.000493583 0)
(0.00459243 -0.000495842 0)
(0.00458494 -0.00049747 0)
(0.005 -1.71231e-07 0)
(0.00499998 -5.47792e-07 0)
(0.00499993 -9.56069e-07 0)
(0.00499987 -1.39255e-06 0)
(0.00499978 -1.85761e-06 0)
(0.00499968 -2.35275e-06 0)
(0.00499956 -2.87992e-06 0)
(0.00499941 -3.44144e-06 0)
(0.00499925 -4.03983e-06 0)
(0.00499907 -4.67776e-06 0)
(0.00499886 -5.358e-06 0)
(0.00499863 -6.08341e-06 0)
(0.00499838 -6.85693e-06 0)
(0.00499811 -7.68157e-06 0)
(0.00499781 -8.56041e-06 0)
(0.00499748 -9.4966e-06 0)
(0.00499712 -1.04934e-05 0)
(0.00499672 -1.1554e-05 0)
(0.0049963 -1.2682e-05 0)
(0.00499584 -1.38807e-05 0)
(0.00499534 -1.51537e-05 0)
(0.0049948 -1.65048e-05 0)
(0.00499422 -1.79376e-05 0)
(0.00499359 -1.9456e-05 0)
(0.00499291 -2.10639e-05 0)
(0.00499219 -2.27654e-05 0)
(0.00499141 -2.45645e-05 0)
(0.00499058 -2.64656e-05 0)
(0.00498969 -2.84729e-05 0)
(0.00498873 -3.05908e-05 0)
(0.00498771 -3.28238e-05 0)
(0.00498663 -3.51765e-05 0)
(0.00498547 -3.76534e-05 0)
(0.00498423 -4.02593e-05 0)
(0.00498291 -4.2999e-05 0)
(0.00498151 -4.58773e-05 0)
(0.00498003 -4.8899e-05 0)
(0.00497845 -5.2069e-05 0)
(0.00497677 -5.53923e-05 0)
(0.00497499 -5.88739e-05 0)
(0.00497311 -6.25187e-05 0)
(0.00497112 -6.63316e-05 0)
(0.00496901 -7.03175e-05 0)
(0.00496678 -7.44814e-05 0)
(0.00496443 -7.88278e-05 0)
(0.00496195 -8.33617e-05 0)
(0.00495933 -8.80874e-05 0)
(0.00495657 -9.30095e-05 0)
(0.00495366 -9.81322e-05 0)
(0.00495061 -0.000103459 0)
(0.00494739 -0.000108995 0)
(0.00494401 -0.000114743 0)
(0.00494047 -0.000120705 0)
(0.00493674 -0.000126886 0)
(0.00493284 -0.000133287 0)
(0.00492875 -0.00013991 0)
(0.00492447 -0.000146757 0)
(0.00492 -0.000153828 0)
(0.00491532 -0.000161123 0)
(0.00491043 -0.000168642 0)
(0.00490533 -0.000176384 0)
(0.00490001 -0.000184346 0)
(0.00489447 -0.000192525 0)
(0.0048887 -0.000200916 0)
(0.0048827 -0.000209514 0)
(0.00487647 -0.000218313 0)
(0.00487001 -0.000227304 0)
(0.0048633 -0.000236478 0)
(0.00485636 -0.000245824 0)
(0.00484918 -0.000255329 0)
(0.00484176 -0.000264979 0)
(0.0048341 -0.000274758 0)
(0.00482621 -0.000284648 0)
(0.00481809 -0.00029463 0)
(0.00480975 -0.000304681 0)
(0.00480119 -0.000314778 0)
(0.00479242 -0.000324895 0)
(0.00478346 -0.000335004 0)
(0.00477432 -0.000345078 0)
(0.00476501 -0.000355084 0)
(0.00475555 -0.000364992 0)
(0.00474597 -0.000374766 0)
(0.00473628 -0.000384374 0)
(0.0047265 -0.00039378 0)
(0.00471668 -0.00040295 0)
(0.00470684 -0.000411849 0)
(0.004697 -0.000420443 0)
(0.00468721 -0.0004287 0)
(0.00467751 -0.000436587 0)
(0.00466792 -0.000444077 0)
(0.00465849 -0.00045114 0)
(0.00464926 -0.000457752 0)
(0.00464027 -0.000463888 0)
(0.00463156 -0.000469525 0)
(0.00462314 -0.000474641 0)
(0.00461504 -0.000479205 0)
(0.00460729 -0.000483169 0)
(0.00459979 -0.000486454 0)
(0.00459213 -0.000488943 0)
(0.00458391 -0.000490695 0)
(0.005 -1.60847e-07 0)
(0.00499998 -5.16188e-07 0)
(0.00499994 -9.03499e-07 0)
(0.00499988 -1.31966e-06 0)
(0.0049998 -1.76497e-06 0)
(0.0049997 -2.24068e-06 0)
(0.00499958 -2.74847e-06 0)
(0.00499944 -3.29033e-06 0)
(0.00499928 -3.86852e-06 0)
(0.0049991 -4.48549e-06 0)
(0.0049989 -5.1438e-06 0)
(0.00499868 -5.84616e-06 0)
(0.00499843 -6.59535e-06 0)
(0.00499816 -7.39425e-06 0)
(0.00499786 -8.24581e-06 0)
(0.00499753 -9.15308e-06 0)
(0.00499718 -1.01192e-05 0)
(0.00499679 -1.11473e-05 0)
(0.00499637 -1.22407e-05 0)
(0.00499591 -1.34028e-05 0)
(0.00499542 -1.46371e-05 0)
(0.00499488 -1.59471e-05 0)
(0.00499431 -1.73364e-05 0)
(0.00499369 -1.88089e-05 0)
(0.00499302 -2.03682e-05 0)
(0.0049923 -2.20184e-05 0)
(0.00499154 -2.37634e-05 0)
(0.00499071 -2.56074e-05 0)
(0.00498983 -2.75544e-05 0)
(0.00498888 -2.96089e-05 0)
(0.00498788 -3.17752e-05 0)
(0.0049868 -3.40576e-05 0)
(0.00498565 -3.64607e-05 0)
(0.00498443 -3.89891e-05 0)
(0.00498312 -4.16473e-05 0)
(0.00498174 -4.44402e-05 0)
(0.00498026 -4.73724e-05 0)
(0.0049787 -5.04487e-05 0)
(0.00497704 -5.3674e-05 0)
(0.00497528 -5.70529e-05 0)
(0.00497342 -6.05904e-05 0)
(0.00497145 -6.42913e-05 0)
(0.00496936 -6.81604e-05 0)
(0.00496716 -7.22023e-05 0)
(0.00496483 -7.64217e-05 0)
(0.00496237 -8.08233e-05 0)
(0.00495978 -8.54115e-05 0)
(0.00495705 -9.01906e-05 0)
(0.00495417 -9.51648e-05 0)
(0.00495114 -0.000100338 0)
(0.00494796 -0.000105714 0)
(0.00494461 -0.000111296 0)
(0.0049411 -0.000117088 0)
(0.00493742 -0.000123092 0)
(0.00493355 -0.00012931 0)
(0.00492951 -0.000135745 0)
(0.00492527 -0.000142398 0)
(0.00492084 -0.00014927 0)
(0.0049162 -0.000156361 0)
(0.00491136 -0.000163671 0)
(0.00490631 -0.000171198 0)
(0.00490104 -0.000178941 0)
(0.00489556 -0.000186897 0)
(0.00488985 -0.000195061 0)
(0.00488391 -0.000203428 0)
(0.00487774 -0.000211993 0)
(0.00487133 -0.000220749 0)
(0.00486469 -0.000229685 0)
(0.00485781 -0.000238793 0)
(0.0048507 -0.00024806 0)
(0.00484335 -0.000257473 0)
(0.00483576 -0.000267018 0)
(0.00482794 -0.000276677 0)
(0.00481989 -0.000286433 0)
(0.00481162 -0.000296264 0)
(0.00480313 -0.00030615 0)
(0.00479444 -0.000316065 0)
(0.00478555 -0.000325986 0)
(0.00477647 -0.000335884 0)
(0.00476723 -0.000345732 0)
(0.00475784 -0.000355498 0)
(0.00474831 -0.000365153 0)
(0.00473866 -0.000374665 0)
(0.00472893 -0.000384 0)
(0.00471914 -0.000393128 0)
(0.00470932 -0.000402015 0)
(0.00469949 -0.000410629 0)
(0.00468968 -0.00041894 0)
(0.00467994 -0.000426918 0)
(0.0046703 -0.000434535 0)
(0.00466079 -0.000441762 0)
(0.00465144 -0.000448574 0)
(0.00464229 -0.000454943 0)
(0.00463337 -0.000460843 0)
(0.00462469 -0.000466239 0)
(0.00461629 -0.000471089 0)
(0.00460816 -0.000475327 0)
(0.00460023 -0.000478854 0)
(0.0045921 -0.000481533 0)
(0.00458322 -0.000483357 0)
(0.005 -1.51348e-07 0)
(0.00499998 -4.86952e-07 0)
(0.00499994 -8.54336e-07 0)
(0.00499989 -1.25076e-06 0)
(0.00499981 -1.67659e-06 0)
(0.00499971 -2.13292e-06 0)
(0.0049996 -2.62123e-06 0)
(0.00499946 -3.14332e-06 0)
(0.00499931 -3.70121e-06 0)
(0.00499913 -4.29713e-06 0)
(0.00499894 -4.9335e-06 0)
(0.00499872 -5.61283e-06 0)
(0.00499847 -6.33776e-06 0)
(0.00499821 -7.11103e-06 0)
(0.00499791 -7.93548e-06 0)
(0.00499759 -8.81403e-06 0)
(0.00499724 -9.74968e-06 0)
(0.00499686 -1.07455e-05 0)
(0.00499644 -1.18048e-05 0)
(0.00499599 -1.29306e-05 0)
(0.0049955 -1.41265e-05 0)
(0.00499498 -1.53959e-05 0)
(0.00499441 -1.67422e-05 0)
(0.00499379 -1.81691e-05 0)
(0.00499314 -1.96804e-05 0)
(0.00499243 -2.12798e-05 0)
(0.00499167 -2.29712e-05 0)
(0.00499085 -2.47586e-05 0)
(0.00498998 -2.66461e-05 0)
(0.00498905 -2.86378e-05 0)
(0.00498805 -3.0738e-05 0)
(0.00498698 -3.29509e-05 0)
(0.00498585 -3.5281e-05 0)
(0.00498464 -3.77326e-05 0)
(0.00498335 -4.03103e-05 0)
(0.00498198 -4.30187e-05 0)
(0.00498052 -4.58623e-05 0)
(0.00497898 -4.88459e-05 0)
(0.00497734 -5.1974e-05 0)
(0.0049756 -5.52514e-05 0)
(0.00497375 -5.86828e-05 0)
(0.0049718 -6.22728e-05 0)
(0.00496974 -6.60261e-05 0)
(0.00496756 -6.99474e-05 0)
(0.00496526 -7.40411e-05 0)
(0.00496283 -7.83119e-05 0)
(0.00496026 -8.27639e-05 0)
(0.00495756 -8.74015e-05 0)
(0.00495472 -9.22287e-05 0)
(0.00495172 -9.72495e-05 0)
(0.00494857 -0.000102467 0)
(0.00494526 -0.000107886 0)
(0.00494179 -0.000113508 0)
(0.00493815 -0.000119337 0)
(0.00493432 -0.000125375 0)
(0.00493032 -0.000131624 0)
(0.00492613 -0.000138085 0)
(0.00492174 -0.00014476 0)
(0.00491716 -0.000151649 0)
(0.00491237 -0.000158751 0)
(0.00490737 -0.000166066 0)
(0.00490216 -0.000173592 0)
(0.00489673 -0.000181326 0)
(0.00489108 -0.000189265 0)
(0.0048852 -0.000197404 0)
(0.00487909 -0.000205738 0)
(0.00487276 -0.000214259 0)
(0.00486618 -0.00022296 0)
(0.00485938 -0.000231831 0)
(0.00485233 -0.000240862 0)
(0.00484505 -0.00025004 0)
(0.00483754 -0.000259351 0)
(0.0048298 -0.00026878 0)
(0.00482182 -0.00027831 0)
(0.00481363 -0.000287922 0)
(0.00480522 -0.000297596 0)
(0.0047966 -0.00030731 0)
(0.00478778 -0.000317039 0)
(0.00477878 -0.00032676 0)
(0.00476961 -0.000336445 0)
(0.00476027 -0.000346066 0)
(0.0047508 -0.000355595 0)
(0.00474121 -0.000365003 0)
(0.00473152 -0.000374258 0)
(0.00472176 -0.000383331 0)
(0.00471196 -0.000392192 0)
(0.00470213 -0.00040081 0)
(0.00469231 -0.000409157 0)
(0.00468253 -0.000417202 0)
(0.00467283 -0.000424919 0)
(0.00466323 -0.00043228 0)
(0.00465376 -0.000439255 0)
(0.00464445 -0.000445817 0)
(0.00463532 -0.000451931 0)
(0.0046264 -0.000457557 0)
(0.00461769 -0.00046264 0)
(0.00460922 -0.000467101 0)
(0.00460089 -0.000470824 0)
(0.00459233 -0.000473655 0)
(0.00458285 -0.000475471 0)
(0.005 -1.42557e-07 0)
(0.00499998 -4.59699e-07 0)
(0.00499995 -8.08156e-07 0)
(0.00499989 -1.18553e-06 0)
(0.00499982 -1.59226e-06 0)
(0.00499973 -2.02941e-06 0)
(0.00499962 -2.49833e-06 0)
(0.00499949 -3.00064e-06 0)
(0.00499934 -3.53821e-06 0)
(0.00499917 -4.11309e-06 0)
(0.00499897 -4.72751e-06 0)
(0.00499876 -5.38386e-06 0)
(0.00499852 -6.08462e-06 0)
(0.00499826 -6.8324e-06 0)
(0.00499797 -7.62991e-06 0)
(0.00499765 -8.47995e-06 0)
(0.0049973 -9.38541e-06 0)
(0.00499693 -1.03493e-05 0)
(0.00499652 -1.13746e-05 0)
(0.00499607 -1.24646e-05 0)
(0.00499559 -1.36225e-05 0)
(0.00499507 -1.48516e-05 0)
(0.00499451 -1.61554e-05 0)
(0.00499391 -1.75373e-05 0)
(0.00499326 -1.90011e-05 0)
(0.00499256 -2.05502e-05 0)
(0.00499181 -2.21886e-05 0)
(0.004991 -2.39201e-05 0)
(0.00499014 -2.57487e-05 0)
(0.00498922 -2.76783e-05 0)
(0.00498824 -2.97131e-05 0)
(0.00498718 -3.18573e-05 0)
(0.00498606 -3.41151e-05 0)
(0.00498487 -3.64909e-05 0)
(0.00498359 -3.89889e-05 0)
(0.00498224 -4.16137e-05 0)
(0.0049808 -4.43698e-05 0)
(0.00497927 -4.72616e-05 0)
(0.00497765 -5.02937e-05 0)
(0.00497593 -5.34706e-05 0)
(0.00497411 -5.6797e-05 0)
(0.00497219 -6.02774e-05 0)
(0.00497015 -6.39163e-05 0)
(0.00496799 -6.77182e-05 0)
(0.00496572 -7.16876e-05 0)
(0.00496331 -7.58288e-05 0)
(0.00496078 -8.01462e-05 0)
(0.00495811 -8.46438e-05 0)
(0.0049553 -8.93257e-05 0)
(0.00495234 -9.41956e-05 0)
(0.00494923 -9.92572e-05 0)
(0.00494596 -0.000104514 0)
(0.00494252 -0.000109969 0)
(0.00493892 -0.000115625 0)
(0.00493514 -0.000121484 0)
(0.00493118 -0.000127549 0)
(0.00492704 -0.00013382 0)
(0.0049227 -0.0001403 0)
(0.00491817 -0.000146988 0)
(0.00491344 -0.000153885 0)
(0.00490849 -0.00016099 0)
(0.00490334 -0.000168301 0)
(0.00489797 -0.000175816 0)
(0.00489239 -0.000183532 0)
(0.00488657 -0.000191445 0)
(0.00488053 -0.000199549 0)
(0.00487427 -0.000207838 0)
(0.00486776 -0.000216305 0)
(0.00486103 -0.000224942 0)
(0.00485406 -0.000233738 0)
(0.00484686 -0.000242682 0)
(0.00483942 -0.000251761 0)
(0.00483176 -0.000260961 0)
(0.00482387 -0.000270266 0)
(0.00481575 -0.000279659 0)
(0.00480742 -0.00028912 0)
(0.00479888 -0.00029863 0)
(0.00479014 -0.000308167 0)
(0.00478121 -0.000317706 0)
(0.0047721 -0.000327224 0)
(0.00476283 -0.000336695 0)
(0.00475342 -0.000346092 0)
(0.00474388 -0.000355387 0)
(0.00473424 -0.000364552 0)
(0.00472451 -0.00037356 0)
(0.00471472 -0.00038238 0)
(0.0047049 -0.000390985 0)
(0.00469506 -0.000399347 0)
(0.00468525 -0.000407437 0)
(0.00467548 -0.000415228 0)
(0.00466579 -0.00042269 0)
(0.0046562 -0.000429795 0)
(0.00464673 -0.00043651 0)
(0.00463741 -0.000442796 0)
(0.00462824 -0.000448605 0)
(0.00461925 -0.000453875 0)
(0.00461045 -0.000458515 0)
(0.00460175 -0.000462399 0)
(0.00459278 -0.000465353 0)
(0.00458281 -0.000467096 0)
(0.005 -1.34356e-07 0)
(0.00499998 -4.34149e-07 0)
(0.00499995 -7.64614e-07 0)
(0.0049999 -1.12365e-06 0)
(0.00499983 -1.51179e-06 0)
(0.00499974 -1.93007e-06 0)
(0.00499964 -2.37978e-06 0)
(0.00499951 -2.86244e-06 0)
(0.00499936 -3.37975e-06 0)
(0.0049992 -3.93365e-06 0)
(0.00499901 -4.5262e-06 0)
(0.0049988 -5.15966e-06 0)
(0.00499857 -5.83637e-06 0)
(0.00499831 -6.55881e-06 0)
(0.00499802 -7.32956e-06 0)
(0.00499771 -8.15133e-06 0)
(0.00499737 -9.02687e-06 0)
(0.004997 -9.95907e-06 0)
(0.0049966 -1.09509e-05 0)
(0.00499616 -1.20054e-05 0)
(0.00499569 -1.31257e-05 0)
(0.00499518 -1.4315e-05 0)
(0.00499462 -1.55767e-05 0)
(0.00499403 -1.69141e-05 0)
(0.00499339 -1.83308e-05 0)
(0.0049927 -1.98303e-05 0)
(0.00499196 -2.14164e-05 0)
(0.00499116 -2.30926e-05 0)
(0.00499031 -2.48629e-05 0)
(0.0049894 -2.67312e-05 0)
(0.00498843 -2.87014e-05 0)
(0.00498739 -3.07777e-05 0)
(0.00498629 -3.29641e-05 0)
(0.00498511 -3.52648e-05 0)
(0.00498385 -3.76841e-05 0)
(0.00498251 -4.02264e-05 0)
(0.00498109 -4.28958e-05 0)
(0.00497959 -4.56969e-05 0)
(0.00497799 -4.86341e-05 0)
(0.00497629 -5.17118e-05 0)
(0.00497449 -5.49344e-05 0)
(0.00497259 -5.83064e-05 0)
(0.00497057 -6.18322e-05 0)
(0.00496845 -6.55161e-05 0)
(0.0049662 -6.93626e-05 0)
(0.00496383 -7.33759e-05 0)
(0.00496132 -7.75601e-05 0)
(0.00495869 -8.19194e-05 0)
(0.00495591 -8.64575e-05 0)
(0.00495299 -9.11783e-05 0)
(0.00494991 -9.60854e-05 0)
(0.00494668 -0.000101182 0)
(0.00494329 -0.000106471 0)
(0.00493973 -0.000111956 0)
(0.004936 -0.000117639 0)
(0.00493209 -0.000123521 0)
(0.004928 -0.000129605 0)