/*--------------------------------*- C++ -*----------------------------------*\
  =========                 |
  \\      /  F ield         | OpenFOAM: The Open Source CFD Toolbox
   \\    /   O peration     | Website:  https://openfoam.org
    \\  /    A nd           | Version:  11
     \\/     M anipulation  |
\*---------------------------------------------------------------------------*/
FoamFile
{
    format      ascii;
    class       volScalarField;
    location    "876";
    object      k;
}
// * * * * * * * * * * * * * * * * * * * * * * * * * * * * * * * * * * * * * //

dimensions      [0 2 -2 0 0 0 0];

internalField   nonuniform List<scalar> 
10000
(
0.000939687
0.000835719
0.000745892
0.000668036
0.000600344
0.000541304
0.000489651
0.000444323
0.000404424
0.000369201
0.000338015
0.000310322
0.000285664
0.000263647
0.000243934
0.000226239
0.000210314
0.000195946
0.000182951
0.00017117
0.000160464
0.000150715
0.000141816
0.000133677
0.000126218
0.000119367
0.000113064
0.000107252
0.000101885
9.69199e-05
9.2318e-05
8.80458e-05
8.40735e-05
8.03741e-05
7.69238e-05
7.37009e-05
7.06863e-05
6.78625e-05
6.5214e-05
6.27265e-05
6.03875e-05
5.81852e-05
5.61093e-05
5.41502e-05
5.22993e-05
5.05487e-05
4.88913e-05
4.73204e-05
4.583e-05
4.44146e-05
4.30693e-05
4.17892e-05
4.05703e-05
3.94085e-05
3.83003e-05
3.72423e-05
3.62314e-05
3.52648e-05
3.43398e-05
3.3454e-05
3.26052e-05
3.17912e-05
3.10101e-05
3.02601e-05
2.95395e-05
2.88467e-05
2.81803e-05
2.75389e-05
2.69214e-05
2.63264e-05
2.5753e-05
2.52001e-05
2.46668e-05
2.41522e-05
2.36556e-05
2.3176e-05
2.2713e-05
2.22659e-05
2.1834e-05
2.14169e-05
2.10141e-05
2.06252e-05
2.02498e-05
1.98876e-05
1.95383e-05
1.92018e-05
1.8878e-05
1.85667e-05
1.82681e-05
1.79824e-05
1.77099e-05
1.74512e-05
1.72072e-05
1.69792e-05
1.67688e-05
1.65786e-05
1.64121e-05
1.62739e-05
1.61707e-05
1.61117e-05
0.000939687
0.000835719
0.000745892
0.000668036
0.000600344
0.000541304
0.000489651
0.000444323
0.000404424
0.000369201
0.000338015
0.000310322
0.000285664
0.000263647
0.000243934
0.000226239
0.000210314
0.000195946
0.000182951
0.00017117
0.000160464
0.000150715
0.000141817
0.000133678
0.000126218
0.000119367
0.000113064
0.000107252
0.000101886
9.692e-05
9.2318e-05
8.80459e-05
8.40736e-05
8.03742e-05
7.69239e-05
7.3701e-05
7.06864e-05
6.78626e-05
6.52141e-05
6.27266e-05
6.03876e-05
5.81853e-05
5.61094e-05
5.41503e-05
5.22995e-05
5.05489e-05
4.88914e-05
4.73205e-05
4.58301e-05
4.44148e-05
4.30694e-05
4.17894e-05
4.05705e-05
3.94087e-05
3.83005e-05
3.72425e-05
3.62316e-05
3.5265e-05
3.434e-05
3.34542e-05
3.26054e-05
3.17914e-05
3.10103e-05
3.02603e-05
2.95397e-05
2.88469e-05
2.81805e-05
2.75392e-05
2.69216e-05
2.63267e-05
2.57533e-05
2.52004e-05
2.46671e-05
2.41525e-05
2.36558e-05
2.31763e-05
2.27133e-05
2.22661e-05
2.18343e-05
2.14172e-05
2.10144e-05
2.06255e-05
2.02501e-05
1.98879e-05
1.95386e-05
1.92021e-05
1.88782e-05
1.8567e-05
1.82684e-05
1.79826e-05
1.77101e-05
1.74515e-05
1.72075e-05
1.69794e-05
1.6769e-05
1.65788e-05
1.64123e-05
1.62741e-05
1.61709e-05
1.61119e-05
0.000939687
0.000835719
0.000745892
0.000668036
0.000600344
0.000541304
0.000489651
0.000444323
0.000404425
0.000369201
0.000338015
0.000310323
0.000285664
0.000263647
0.000243934
0.000226239
0.000210314
0.000195946
0.000182951
0.00017117
0.000160465
0.000150715
0.000141817
0.000133678
0.000126218
0.000119367
0.000113064
0.000107253
0.000101886
9.69202e-05
9.23182e-05
8.80461e-05
8.40738e-05
8.03744e-05
7.69241e-05
7.37012e-05
7.06866e-05
6.78628e-05
6.52143e-05
6.27269e-05
6.03878e-05
5.81855e-05
5.61096e-05
5.41506e-05
5.22997e-05
5.05491e-05
4.88917e-05
4.73208e-05
4.58304e-05
4.44151e-05
4.30697e-05
4.17897e-05
4.05708e-05
3.9409e-05
3.83008e-05
3.72428e-05
3.62319e-05
3.52653e-05
3.43403e-05
3.34546e-05
3.26057e-05
3.17918e-05
3.10107e-05
3.02607e-05
2.95401e-05
2.88473e-05
2.81809e-05
2.75396e-05
2.6922e-05
2.63271e-05
2.57537e-05
2.52008e-05
2.46675e-05
2.41529e-05
2.36563e-05
2.31768e-05
2.27138e-05
2.22666e-05
2.18348e-05
2.14177e-05
2.10149e-05
2.0626e-05
2.02506e-05
1.98884e-05
1.95391e-05
1.92026e-05
1.88787e-05
1.85675e-05
1.82689e-05
1.79831e-05
1.77106e-05
1.74519e-05
1.72079e-05
1.69798e-05
1.67695e-05
1.65793e-05
1.64127e-05
1.62745e-05
1.61713e-05
1.61123e-05
0.000939687
0.000835719
0.000745892
0.000668036
0.000600344
0.000541304
0.000489651
0.000444323
0.000404425
0.000369201
0.000338015
0.000310323
0.000285664
0.000263647
0.000243934
0.000226239
0.000210314
0.000195946
0.000182951
0.00017117
0.000160465
0.000150715
0.000141817
0.000133678
0.000126218
0.000119368
0.000113064
0.000107253
0.000101886
9.69204e-05
9.23184e-05
8.80463e-05
8.4074e-05
8.03747e-05
7.69243e-05
7.37015e-05
7.06869e-05
6.78631e-05
6.52146e-05
6.27272e-05
6.03881e-05
5.81859e-05
5.611e-05
5.41509e-05
5.23001e-05
5.05495e-05
4.88921e-05
4.73212e-05
4.58308e-05
4.44155e-05
4.30701e-05
4.17901e-05
4.05712e-05
3.94095e-05
3.83013e-05
3.72433e-05
3.62324e-05
3.52658e-05
3.43409e-05
3.34551e-05
3.26063e-05
3.17923e-05
3.10113e-05
3.02613e-05
2.95407e-05
2.88479e-05
2.81816e-05
2.75402e-05
2.69227e-05
2.63278e-05
2.57544e-05
2.52015e-05
2.46682e-05
2.41537e-05
2.3657e-05
2.31775e-05
2.27145e-05
2.22674e-05
2.18355e-05
2.14185e-05
2.10157e-05
2.06268e-05
2.02513e-05
1.98891e-05
1.95399e-05
1.92034e-05
1.88795e-05
1.85682e-05
1.82696e-05
1.79839e-05
1.77113e-05
1.74526e-05
1.72086e-05
1.69805e-05
1.67701e-05
1.65799e-05
1.64133e-05
1.62751e-05
1.61719e-05
1.61129e-05
0.000939687
0.000835719
0.000745892
0.000668036
0.000600344
0.000541304
0.000489651
0.000444323
0.000404425
0.000369202
0.000338015
0.000310323
0.000285664
0.000263647
0.000243935
0.000226239
0.000210314
0.000195946
0.000182951
0.00017117
0.000160465
0.000150715
0.000141817
0.000133678
0.000126218
0.000119368
0.000113064
0.000107253
0.000101886
9.69207e-05
9.23187e-05
8.80467e-05
8.40743e-05
8.0375e-05
7.69247e-05
7.37019e-05
7.06873e-05
6.78635e-05
6.5215e-05
6.27276e-05
6.03886e-05
5.81863e-05
5.61105e-05
5.41514e-05
5.23006e-05
5.055e-05
4.88926e-05
4.73217e-05
4.58314e-05
4.4416e-05
4.30707e-05
4.17907e-05
4.05718e-05
3.94101e-05
3.83019e-05
3.72439e-05
3.62331e-05
3.52665e-05
3.43416e-05
3.34558e-05
3.2607e-05
3.17931e-05
3.1012e-05
3.0262e-05
2.95415e-05
2.88487e-05
2.81824e-05
2.75411e-05
2.69236e-05
2.63286e-05
2.57553e-05
2.52024e-05
2.46691e-05
2.41546e-05
2.36579e-05
2.31785e-05
2.27155e-05
2.22684e-05
2.18365e-05
2.14194e-05
2.10167e-05
2.06278e-05
2.02524e-05
1.98902e-05
1.95409e-05
1.92044e-05
1.88805e-05
1.85692e-05
1.82706e-05
1.79848e-05
1.77123e-05
1.74536e-05
1.72095e-05
1.69814e-05
1.6771e-05
1.65807e-05
1.64141e-05
1.62759e-05
1.61727e-05
1.61137e-05
0.000939687
0.000835719
0.000745892
0.000668036
0.000600344
0.000541304
0.000489651
0.000444323
0.000404425
0.000369202
0.000338015
0.000310323
0.000285665
0.000263647
0.000243935
0.00022624
0.000210314
0.000195946
0.000182951
0.00017117
0.000160465
0.000150716
0.000141817
0.000133678
0.000126219
0.000119368
0.000113065
0.000107253
0.000101887
9.69211e-05
9.23191e-05
8.8047e-05
8.40748e-05
8.03755e-05
7.69251e-05
7.37023e-05
7.06878e-05
6.7864e-05
6.52155e-05
6.27281e-05
6.03891e-05
5.81869e-05
5.6111e-05
5.4152e-05
5.23012e-05
5.05506e-05
4.88932e-05
4.73224e-05
4.5832e-05
4.44167e-05
4.30714e-05
4.17915e-05
4.05726e-05
3.94109e-05
3.83027e-05
3.72447e-05
3.62339e-05
3.52673e-05
3.43424e-05
3.34567e-05
3.26079e-05
3.1794e-05
3.1013e-05
3.0263e-05
2.95424e-05
2.88497e-05
2.81834e-05
2.75421e-05
2.69246e-05
2.63297e-05
2.57564e-05
2.52035e-05
2.46703e-05
2.41557e-05
2.36591e-05
2.31796e-05
2.27167e-05
2.22696e-05
2.18377e-05
2.14207e-05
2.10179e-05
2.0629e-05
2.02536e-05
1.98914e-05
1.95421e-05
1.92056e-05
1.88817e-05
1.85704e-05
1.82718e-05
1.7986e-05
1.77135e-05
1.74547e-05
1.72106e-05
1.69825e-05
1.6772e-05
1.65818e-05
1.64151e-05
1.62769e-05
1.61736e-05
1.61146e-05
0.000939687
0.000835719
0.000745892
0.000668036
0.000600344
0.000541304
0.000489651
0.000444323
0.000404425
0.000369202
0.000338015
0.000310323
0.000285665
0.000263647
0.000243935
0.00022624
0.000210315
0.000195947
0.000182952
0.000171171
0.000160465
0.000150716
0.000141818
0.000133679
0.000126219
0.000119369
0.000113065
0.000107254
0.000101887
9.69215e-05
9.23196e-05
8.80475e-05
8.40752e-05
8.0376e-05
7.69257e-05
7.37029e-05
7.06883e-05
6.78646e-05
6.52161e-05
6.27287e-05
6.03897e-05
5.81875e-05
5.61117e-05
5.41527e-05
5.23019e-05
5.05514e-05
4.8894e-05
4.73231e-05
4.58328e-05
4.44175e-05
4.30722e-05
4.17923e-05
4.05735e-05
3.94118e-05
3.83036e-05
3.72457e-05
3.62349e-05
3.52683e-05
3.43434e-05
3.34577e-05
3.2609e-05
3.17951e-05
3.10141e-05
3.02641e-05
2.95436e-05
2.88509e-05
2.81846e-05
2.75433e-05
2.69259e-05
2.6331e-05
2.57577e-05
2.52048e-05
2.46716e-05
2.41571e-05
2.36605e-05
2.3181e-05
2.27181e-05
2.2271e-05
2.18392e-05
2.14221e-05
2.10193e-05
2.06304e-05
2.02551e-05
1.98928e-05
1.95436e-05
1.92071e-05
1.88832e-05
1.85718e-05
1.82732e-05
1.79874e-05
1.77148e-05
1.74561e-05
1.72119e-05
1.69838e-05
1.67733e-05
1.6583e-05
1.64163e-05
1.6278e-05
1.61748e-05
1.61157e-05
0.000939687
0.000835719
0.000745892
0.000668036
0.000600344
0.000541304
0.000489651
0.000444323
0.000404425
0.000369202
0.000338015
0.000310323
0.000285665
0.000263647
0.000243935
0.00022624
0.000210315
0.000195947
0.000182952
0.000171171
0.000160466
0.000150716
0.000141818
0.000133679
0.00012622
0.000119369
0.000113065
0.000107254
0.000101887
9.6922e-05
9.23201e-05
8.8048e-05
8.40758e-05
8.03765e-05
7.69263e-05
7.37035e-05
7.06889e-05
6.78652e-05
6.52168e-05
6.27294e-05
6.03904e-05
5.81883e-05
5.61124e-05
5.41535e-05
5.23027e-05
5.05522e-05
4.88948e-05
4.7324e-05
4.58337e-05
4.44185e-05
4.30732e-05
4.17933e-05
4.05745e-05
3.94128e-05
3.83047e-05
3.72467e-05
3.6236e-05
3.52694e-05
3.43446e-05
3.34589e-05
3.26102e-05
3.17963e-05
3.10153e-05
3.02654e-05
2.95449e-05
2.88522e-05
2.8186e-05
2.75447e-05
2.69273e-05
2.63324e-05
2.57591e-05
2.52063e-05
2.46731e-05
2.41586e-05
2.3662e-05
2.31826e-05
2.27197e-05
2.22726e-05
2.18408e-05
2.14238e-05
2.1021e-05
2.06321e-05
2.02567e-05
1.98945e-05
1.95452e-05
1.92087e-05
1.88848e-05
1.85735e-05
1.82748e-05
1.7989e-05
1.77164e-05
1.74576e-05
1.72134e-05
1.69852e-05
1.67747e-05
1.65844e-05
1.64176e-05
1.62793e-05
1.6176e-05
1.6117e-05
0.000939687
0.000835719
0.000745892
0.000668036
0.000600344
0.000541304
0.000489651
0.000444323
0.000404425
0.000369202
0.000338015
0.000310323
0.000285665
0.000263648
0.000243935
0.00022624
0.000210315
0.000195947
0.000182952
0.000171171
0.000160466
0.000150717
0.000141818
0.00013368
0.00012622
0.000119369
0.000113066
0.000107255
0.000101888
9.69225e-05
9.23207e-05
8.80486e-05
8.40764e-05
8.03772e-05
7.69269e-05
7.37042e-05
7.06896e-05
6.7866e-05
6.52175e-05
6.27302e-05
6.03912e-05
5.81891e-05
5.61133e-05
5.41543e-05
5.23036e-05
5.05531e-05
4.88958e-05
4.7325e-05
4.58347e-05
4.44195e-05
4.30743e-05
4.17944e-05
4.05756e-05
3.94139e-05
3.83058e-05
3.72479e-05
3.62372e-05
3.52707e-05
3.43459e-05
3.34602e-05
3.26115e-05
3.17977e-05
3.10167e-05
3.02669e-05
2.95464e-05
2.88537e-05
2.81875e-05
2.75463e-05
2.69289e-05
2.63341e-05
2.57608e-05
2.5208e-05
2.46748e-05
2.41603e-05
2.36638e-05
2.31844e-05
2.27215e-05
2.22744e-05
2.18426e-05
2.14256e-05
2.10228e-05
2.0634e-05
2.02586e-05
1.98964e-05
1.95471e-05
1.92106e-05
1.88866e-05
1.85753e-05
1.82766e-05
1.79908e-05
1.77181e-05
1.74593e-05
1.72151e-05
1.69869e-05
1.67763e-05
1.65859e-05
1.64191e-05
1.62808e-05
1.61775e-05
1.61184e-05
0.000939687
0.000835719
0.000745892
0.000668036
0.000600344
0.000541304
0.000489652
0.000444323
0.000404425
0.000369202
0.000338016
0.000310324
0.000285665
0.000263648
0.000243936
0.000226241
0.000210315
0.000195947
0.000182952
0.000171172
0.000160466
0.000150717
0.000141819
0.00013368
0.00012622
0.00011937
0.000113066
0.000107255
0.000101889
9.69231e-05
9.23213e-05
8.80493e-05
8.40771e-05
8.03779e-05
7.69276e-05
7.37049e-05
7.06904e-05
6.78668e-05
6.52184e-05
6.2731e-05
6.03921e-05
5.819e-05
5.61142e-05
5.41553e-05
5.23046e-05
5.05541e-05
4.88968e-05
4.7326e-05
4.58358e-05
4.44206e-05
4.30754e-05
4.17956e-05
4.05768e-05
3.94152e-05
3.83071e-05
3.72493e-05
3.62385e-05
3.52721e-05
3.43473e-05
3.34617e-05
3.2613e-05
3.17992e-05
3.10183e-05
3.02684e-05
2.9548e-05
2.88554e-05
2.81892e-05
2.7548e-05
2.69306e-05
2.63358e-05
2.57626e-05
2.52098e-05
2.46767e-05
2.41622e-05
2.36657e-05
2.31863e-05
2.27234e-05
2.22764e-05
2.18446e-05
2.14276e-05
2.10249e-05
2.0636e-05
2.02606e-05
1.98984e-05
1.95491e-05
1.92126e-05
1.88886e-05
1.85773e-05
1.82786e-05
1.79927e-05
1.772e-05
1.74612e-05
1.72169e-05
1.69886e-05
1.6778e-05
1.65876e-05
1.64208e-05
1.62824e-05
1.6179e-05
1.612e-05
0.000939687
0.000835719
0.000745892
0.000668036
0.000600344
0.000541304
0.000489652
0.000444323
0.000404425
0.000369202
0.000338016
0.000310324
0.000285665
0.000263648
0.000243936
0.000226241
0.000210316
0.000195948
0.000182953
0.000171172
0.000160467
0.000150718
0.000141819
0.00013368
0.000126221
0.00011937
0.000113067
0.000107256
0.000101889
9.69238e-05
9.2322e-05
8.805e-05
8.40778e-05
8.03786e-05
7.69284e-05
7.37057e-05
7.06913e-05
6.78676e-05
6.52192e-05
6.2732e-05
6.03931e-05
5.8191e-05
5.61152e-05
5.41563e-05
5.23056e-05
5.05552e-05
4.88979e-05
4.73272e-05
4.5837e-05
4.44219e-05
4.30767e-05
4.17969e-05
4.05781e-05
3.94165e-05
3.83085e-05
3.72507e-05
3.624e-05
3.52736e-05
3.43488e-05
3.34633e-05
3.26146e-05
3.18009e-05
3.102e-05
3.02702e-05
2.95497e-05
2.88572e-05
2.8191e-05
2.75499e-05
2.69325e-05
2.63378e-05
2.57645e-05
2.52118e-05
2.46787e-05
2.41643e-05
2.36678e-05
2.31884e-05
2.27256e-05
2.22785e-05
2.18468e-05
2.14298e-05
2.10271e-05
2.06382e-05
2.02628e-05
1.99006e-05
1.95513e-05
1.92148e-05
1.88908e-05
1.85794e-05
1.82807e-05
1.79948e-05
1.77221e-05
1.74632e-05
1.72189e-05
1.69906e-05
1.67799e-05
1.65894e-05
1.64226e-05
1.62841e-05
1.61807e-05
1.61217e-05
0.000939687
0.000835719
0.000745892
0.000668036
0.000600344
0.000541304
0.000489652
0.000444324
0.000404425
0.000369202
0.000338016
0.000310324
0.000285666
0.000263648
0.000243936
0.000226241
0.000210316
0.000195948
0.000182953
0.000171172
0.000160467
0.000150718
0.00014182
0.000133681
0.000126222
0.000119371
0.000113068
0.000107257
0.00010189
9.69245e-05
9.23227e-05
8.80507e-05
8.40786e-05
8.03794e-05
7.69293e-05
7.37066e-05
7.06921e-05
6.78686e-05
6.52202e-05
6.2733e-05
6.03941e-05
5.8192e-05
5.61163e-05
5.41575e-05
5.23068e-05
5.05564e-05
4.88992e-05
4.73285e-05
4.58383e-05
4.44232e-05
4.3078e-05
4.17982e-05
4.05795e-05
3.9418e-05
3.831e-05
3.72522e-05
3.62416e-05
3.52752e-05
3.43505e-05
3.34649e-05
3.26164e-05
3.18026e-05
3.10218e-05
3.0272e-05
2.95516e-05
2.88591e-05
2.8193e-05
2.75519e-05
2.69345e-05
2.63398e-05
2.57666e-05
2.5214e-05
2.46809e-05
2.41665e-05
2.367e-05
2.31907e-05
2.27278e-05
2.22808e-05
2.18491e-05
2.14321e-05
2.10294e-05
2.06406e-05
2.02652e-05
1.9903e-05
1.95537e-05
1.92171e-05
1.88932e-05
1.85818e-05
1.8283e-05
1.7997e-05
1.77243e-05
1.74653e-05
1.7221e-05
1.69926e-05
1.67819e-05
1.65914e-05
1.64245e-05
1.6286e-05
1.61826e-05
1.61235e-05
0.000939687
0.000835719
0.000745892
0.000668036
0.000600344
0.000541304
0.000489652
0.000444324
0.000404426
0.000369203
0.000338016
0.000310324
0.000285666
0.000263649
0.000243936
0.000226241
0.000210316
0.000195948
0.000182954
0.000171173
0.000160468
0.000150719
0.00014182
0.000133682
0.000126222
0.000119372
0.000113068
0.000107257
0.00010189
9.69252e-05
9.23234e-05
8.80515e-05
8.40794e-05
8.03803e-05
7.69301e-05
7.37075e-05
7.06931e-05
6.78695e-05
6.52212e-05
6.2734e-05
6.03952e-05
5.81931e-05
5.61175e-05
5.41586e-05
5.2308e-05
5.05577e-05
4.89004e-05
4.73298e-05
4.58396e-05
4.44246e-05
4.30795e-05
4.17997e-05
4.0581e-05
3.94195e-05
3.83116e-05
3.72538e-05
3.62432e-05
3.52769e-05
3.43522e-05
3.34667e-05
3.26182e-05
3.18045e-05
3.10237e-05
3.02739e-05
2.95536e-05
2.88611e-05
2.8195e-05
2.7554e-05
2.69367e-05
2.6342e-05
2.57689e-05
2.52162e-05
2.46832e-05
2.41688e-05
2.36724e-05
2.31931e-05
2.27303e-05
2.22833e-05
2.18516e-05
2.14346e-05
2.10319e-05
2.06431e-05
2.02677e-05
1.99055e-05
1.95562e-05
1.92196e-05
1.88956e-05
1.85842e-05
1.82854e-05
1.79994e-05
1.77266e-05
1.74676e-05
1.72233e-05
1.69948e-05
1.6784e-05
1.65934e-05
1.64265e-05
1.62879e-05
1.61845e-05
1.61254e-05
0.000939687
0.000835719
0.000745892
0.000668036
0.000600344
0.000541304
0.000489652
0.000444324
0.000404426
0.000369203
0.000338016
0.000310324
0.000285666
0.000263649
0.000243937
0.000226242
0.000210317
0.000195949
0.000182954
0.000171173
0.000160468
0.000150719
0.000141821
0.000133682
0.000126223
0.000119372
0.000113069
0.000107258
0.000101891
9.69259e-05
9.23242e-05
8.80523e-05
8.40802e-05
8.03811e-05
7.6931e-05
7.37085e-05
7.06941e-05
6.78705e-05
6.52223e-05
6.27351e-05
6.03963e-05
5.81943e-05
5.61187e-05
5.41599e-05
5.23093e-05
5.0559e-05
4.89018e-05
4.73312e-05
4.58411e-05
4.4426e-05
4.3081e-05
4.18012e-05
4.05826e-05
3.94212e-05
3.83133e-05
3.72556e-05
3.6245e-05
3.52787e-05
3.4354e-05
3.34686e-05
3.26201e-05
3.18064e-05
3.10257e-05
3.0276e-05
2.95557e-05
2.88632e-05
2.81972e-05
2.75562e-05
2.69389e-05
2.63443e-05
2.57712e-05
2.52186e-05
2.46856e-05
2.41713e-05
2.36748e-05
2.31956e-05
2.27328e-05
2.22858e-05
2.18541e-05
2.14372e-05
2.10345e-05
2.06457e-05
2.02703e-05
1.99081e-05
1.95588e-05
1.92222e-05
1.88982e-05
1.85868e-05
1.82879e-05
1.80019e-05
1.77291e-05
1.747e-05
1.72256e-05
1.69971e-05
1.67863e-05
1.65956e-05
1.64286e-05
1.629e-05
1.61865e-05
1.61274e-05
0.000939687
0.000835719
0.000745892
0.000668036
0.000600344
0.000541305
0.000489652
0.000444324
0.000404426
0.000369203
0.000338016
0.000310325
0.000285666
0.000263649
0.000243937
0.000226242
0.000210317
0.000195949
0.000182954
0.000171174
0.000160469
0.00015072
0.000141821
0.000133683
0.000126223
0.000119373
0.00011307
0.000107259
0.000101892
9.69267e-05
9.2325e-05
8.80532e-05
8.40811e-05
8.03821e-05
7.6932e-05
7.37094e-05
7.06951e-05
6.78716e-05
6.52233e-05
6.27362e-05
6.03974e-05
5.81955e-05
5.61199e-05
5.41611e-05
5.23106e-05
5.05603e-05
4.89032e-05
4.73326e-05
4.58425e-05
4.44275e-05
4.30825e-05
4.18028e-05
4.05843e-05
3.94228e-05
3.8315e-05
3.72573e-05
3.62468e-05
3.52805e-05
3.43559e-05
3.34705e-05
3.26221e-05
3.18085e-05
3.10277e-05
3.02781e-05
2.95579e-05
2.88655e-05
2.81995e-05
2.75585e-05
2.69413e-05
2.63467e-05
2.57736e-05
2.52211e-05
2.46881e-05
2.41738e-05
2.36774e-05
2.31982e-05
2.27354e-05
2.22885e-05
2.18568e-05
2.14399e-05
2.10372e-05
2.06484e-05
2.0273e-05
1.99108e-05
1.95615e-05
1.92249e-05
1.89009e-05
1.85894e-05
1.82906e-05
1.80045e-05
1.77316e-05
1.74725e-05
1.7228e-05
1.69995e-05
1.67886e-05
1.65978e-05
1.64308e-05
1.62921e-05
1.61886e-05
1.61294e-05
0.000939687
0.000835719
0.000745892
0.000668036
0.000600344
0.000541305
0.000489652
0.000444324
0.000404426
0.000369203
0.000338017
0.000310325
0.000285667
0.000263649
0.000243937
0.000226242
0.000210318
0.00019595
0.000182955
0.000171174
0.000160469
0.00015072
0.000141822
0.000133683
0.000126224
0.000119374
0.00011307
0.000107259
0.000101893
9.69275e-05
9.23259e-05
8.80541e-05
8.4082e-05
8.0383e-05
7.6933e-05
7.37105e-05
7.06961e-05
6.78727e-05
6.52245e-05
6.27374e-05
6.03986e-05
5.81967e-05
5.61212e-05
5.41625e-05
5.23119e-05
5.05617e-05
4.89046e-05
4.73341e-05
4.58441e-05
4.44291e-05
4.30841e-05
4.18045e-05
4.0586e-05
3.94246e-05
3.83168e-05
3.72592e-05
3.62487e-05
3.52825e-05
3.43579e-05
3.34726e-05
3.26241e-05
3.18106e-05
3.10299e-05
3.02803e-05
2.95601e-05
2.88678e-05
2.82018e-05
2.75609e-05
2.69437e-05
2.63492e-05
2.57761e-05
2.52236e-05
2.46907e-05
2.41764e-05
2.36801e-05
2.32009e-05
2.27381e-05
2.22912e-05
2.18596e-05
2.14427e-05
2.104e-05
2.06512e-05
2.02759e-05
1.99137e-05
1.95643e-05
1.92277e-05
1.89037e-05
1.85922e-05
1.82933e-05
1.80072e-05
1.77343e-05
1.74751e-05
1.72306e-05
1.70019e-05
1.6791e-05
1.66002e-05
1.6433e-05
1.62943e-05
1.61908e-05
1.61316e-05
0.000939687
0.000835719
0.000745892
0.000668036
0.000600344
0.000541305
0.000489652
0.000444324
0.000404426
0.000369203
0.000338017
0.000310325
0.000285667
0.00026365
0.000243938
0.000226243
0.000210318
0.00019595
0.000182955
0.000171175
0.00016047
0.000150721
0.000141822
0.000133684
0.000126225
0.000119374
0.000113071
0.00010726
0.000101894
9.69283e-05
9.23267e-05
8.80549e-05
8.4083e-05
8.0384e-05
7.6934e-05
7.37115e-05
7.06972e-05
6.78738e-05
6.52256e-05
6.27386e-05
6.03999e-05
5.8198e-05
5.61225e-05
5.41638e-05
5.23133e-05
5.05632e-05
4.89061e-05
4.73356e-05
4.58456e-05
4.44307e-05
4.30858e-05
4.18062e-05
4.05877e-05
3.94264e-05
3.83186e-05
3.7261e-05
3.62506e-05
3.52845e-05
3.43599e-05
3.34746e-05
3.26263e-05
3.18127e-05
3.10321e-05
3.02826e-05
2.95624e-05
2.88701e-05
2.82042e-05
2.75633e-05
2.69462e-05
2.63517e-05
2.57787e-05
2.52262e-05
2.46933e-05
2.41791e-05
2.36828e-05
2.32037e-05
2.27409e-05
2.22941e-05
2.18625e-05
2.14456e-05
2.10429e-05
2.06541e-05
2.02788e-05
1.99165e-05
1.95672e-05
1.92306e-05
1.89065e-05
1.8595e-05
1.82961e-05
1.80099e-05
1.7737e-05
1.74777e-05
1.72332e-05
1.70044e-05
1.67934e-05
1.66025e-05
1.64353e-05
1.62966e-05
1.6193e-05
1.61338e-05
0.000939687
0.000835719
0.000745892
0.000668037
0.000600344
0.000541305
0.000489652
0.000444324
0.000404426
0.000369203
0.000338017
0.000310325
0.000285667
0.00026365
0.000243938
0.000226243
0.000210318
0.00019595
0.000182956
0.000171175
0.00016047
0.000150721
0.000141823
0.000133684
0.000126225
0.000119375
0.000113072
0.000107261
0.000101894
9.69292e-05
9.23276e-05
8.80559e-05
8.40839e-05
8.0385e-05
7.6935e-05
7.37126e-05
7.06983e-05
6.7875e-05
6.52268e-05
6.27398e-05
6.04012e-05
5.81993e-05
5.61238e-05
5.41652e-05
5.23148e-05
5.05646e-05
4.89076e-05
4.73372e-05
4.58473e-05
4.44324e-05
4.30875e-05
4.18079e-05
4.05895e-05
3.94282e-05
3.83205e-05
3.7263e-05
3.62526e-05
3.52865e-05
3.4362e-05
3.34768e-05
3.26284e-05
3.1815e-05
3.10344e-05
3.02849e-05
2.95648e-05
2.88725e-05
2.82067e-05
2.75658e-05
2.69488e-05
2.63543e-05
2.57814e-05
2.52289e-05
2.46961e-05
2.41819e-05
2.36856e-05
2.32065e-05
2.27438e-05
2.2297e-05
2.18654e-05
2.14485e-05
2.10459e-05
2.06571e-05
2.02817e-05
1.99195e-05
1.95702e-05
1.92335e-05
1.89094e-05
1.85979e-05
1.82989e-05
1.80127e-05
1.77397e-05
1.74804e-05
1.72358e-05
1.7007e-05
1.67959e-05
1.6605e-05
1.64377e-05
1.62989e-05
1.61953e-05
1.6136e-05
0.000939687
0.000835719
0.000745892
0.000668037
0.000600344
0.000541305
0.000489652
0.000444324
0.000404426
0.000369204
0.000338017
0.000310325
0.000285667
0.00026365
0.000243938
0.000226243
0.000210319
0.000195951
0.000182956
0.000171176
0.000160471
0.000150722
0.000141824
0.000133685
0.000126226
0.000119376
0.000113072
0.000107262
0.000101895
9.693e-05
9.23285e-05
8.80568e-05
8.40849e-05
8.0386e-05
7.69361e-05
7.37136e-05
7.06995e-05
6.78761e-05
6.5228e-05
6.2741e-05
6.04024e-05
5.82007e-05
5.61252e-05
5.41666e-05
5.23162e-05
5.05661e-05
4.89092e-05
4.73388e-05
4.58489e-05
4.44341e-05
4.30892e-05
4.18097e-05
4.05913e-05
3.94301e-05
3.83224e-05
3.72649e-05
3.62546e-05
3.52885e-05
3.43641e-05
3.34789e-05
3.26306e-05
3.18172e-05
3.10367e-05
3.02872e-05
2.95672e-05
2.8875e-05
2.82092e-05
2.75684e-05
2.69514e-05
2.63569e-05
2.57841e-05
2.52317e-05
2.46988e-05
2.41847e-05
2.36885e-05
2.32094e-05
2.27467e-05
2.22999e-05
2.18683e-05
2.14515e-05
2.10489e-05
2.06601e-05
2.02847e-05
1.99225e-05
1.95732e-05
1.92365e-05
1.89124e-05
1.86008e-05
1.83018e-05
1.80156e-05
1.77425e-05
1.74832e-05
1.72385e-05
1.70096e-05
1.67985e-05
1.66075e-05
1.64401e-05
1.63013e-05
1.61976e-05
1.61383e-05
0.000939687
0.000835719
0.000745892
0.000668037
0.000600344
0.000541305
0.000489652
0.000444324
0.000404427
0.000369204
0.000338017
0.000310326
0.000285668
0.000263651
0.000243939
0.000226244
0.000210319
0.000195951
0.000182957
0.000171176
0.000160471
0.000150722
0.000141824
0.000133686
0.000126227
0.000119376
0.000113073
0.000107262
0.000101896
9.69309e-05
9.23294e-05
8.80577e-05
8.40858e-05
8.0387e-05
7.69371e-05
7.37147e-05
7.07006e-05
6.78773e-05
6.52292e-05
6.27423e-05
6.04037e-05
5.8202e-05
5.61266e-05
5.41681e-05
5.23177e-05
5.05677e-05
4.89107e-05
4.73404e-05
4.58505e-05
4.44358e-05
4.3091e-05
4.18115e-05
4.05932e-05
3.9432e-05
3.83243e-05
3.72669e-05
3.62566e-05
3.52906e-05
3.43663e-05
3.34811e-05
3.26329e-05
3.18195e-05
3.1039e-05
3.02896e-05
2.95696e-05
2.88775e-05
2.82117e-05
2.7571e-05
2.6954e-05
2.63596e-05
2.57868e-05
2.52344e-05
2.47016e-05
2.41876e-05
2.36914e-05
2.32123e-05
2.27497e-05
2.23029e-05
2.18713e-05
2.14545e-05
2.10519e-05
2.06631e-05
2.02878e-05
1.99256e-05
1.95762e-05
1.92395e-05
1.89154e-05
1.86038e-05
1.83047e-05
1.80185e-05
1.77454e-05
1.7486e-05
1.72412e-05
1.70123e-05
1.6801e-05
1.661e-05
1.64426e-05
1.63036e-05
1.61999e-05
1.61406e-05
0.000939687
0.000835719
0.000745892
0.000668037
0.000600345
0.000541305
0.000489652
0.000444325
0.000404427
0.000369204
0.000338018
0.000310326
0.000285668
0.000263651
0.000243939
0.000226244
0.000210319
0.000195952
0.000182957
0.000171176
0.000160472
0.000150723
0.000141825
0.000133686
0.000126227
0.000119377
0.000113074
0.000107263
0.000101897
9.69317e-05
9.23303e-05
8.80586e-05
8.40868e-05
8.0388e-05
7.69382e-05
7.37158e-05
7.07017e-05
6.78785e-05
6.52305e-05
6.27436e-05
6.0405e-05
5.82033e-05
5.6128e-05
5.41695e-05
5.23192e-05
5.05692e-05
4.89123e-05
4.7342e-05
4.58522e-05
4.44375e-05
4.30927e-05
4.18133e-05
4.0595e-05
3.94339e-05
3.83263e-05
3.72689e-05
3.62587e-05
3.52927e-05
3.43684e-05
3.34833e-05
3.26351e-05
3.18218e-05
3.10414e-05
3.0292e-05
2.95721e-05
2.888e-05
2.82143e-05
2.75736e-05
2.69566e-05
2.63623e-05
2.57895e-05
2.52372e-05
2.47045e-05
2.41904e-05
2.36943e-05
2.32152e-05
2.27527e-05
2.23059e-05
2.18744e-05
2.14576e-05
2.1055e-05
2.06662e-05
2.02909e-05
1.99286e-05
1.95793e-05
1.92426e-05
1.89184e-05
1.86068e-05
1.83077e-05
1.80214e-05
1.77482e-05
1.74888e-05
1.72439e-05
1.70149e-05
1.68036e-05
1.66125e-05
1.6445e-05
1.6306e-05
1.62022e-05
1.61429e-05
0.000939687
0.000835719
0.000745892
0.000668037
0.000600345
0.000541305
0.000489653
0.000444325
0.000404427
0.000369204
0.000338018
0.000310326
0.000285668
0.000263651
0.000243939
0.000226244
0.00021032
0.000195952
0.000182958
0.000171177
0.000160472
0.000150723
0.000141825
0.000133687
0.000126228
0.000119378
0.000113075
0.000107264
0.000101898
9.69326e-05
9.23311e-05
8.80596e-05
8.40878e-05
8.0389e-05
7.69392e-05
7.37169e-05
7.07029e-05
6.78797e-05
6.52317e-05
6.27448e-05
6.04063e-05
5.82047e-05
5.61294e-05
5.41709e-05
5.23207e-05
5.05707e-05
4.89139e-05
4.73436e-05
4.58539e-05
4.44392e-05
4.30945e-05
4.18151e-05
4.05969e-05
3.94358e-05
3.83283e-05
3.72709e-05
3.62607e-05
3.52948e-05
3.43706e-05
3.34855e-05
3.26374e-05
3.18241e-05
3.10438e-05
3.02945e-05
2.95746e-05
2.88825e-05
2.82168e-05
2.75762e-05
2.69593e-05
2.6365e-05
2.57923e-05
2.524e-05
2.47073e-05
2.41933e-05
2.36972e-05
2.32182e-05
2.27556e-05
2.23089e-05
2.18774e-05
2.14606e-05
2.1058e-05
2.06693e-05
2.02939e-05
1.99317e-05
1.95824e-05
1.92456e-05
1.89215e-05
1.86098e-05
1.83107e-05
1.80243e-05
1.77511e-05
1.74916e-05
1.72467e-05
1.70176e-05
1.68062e-05
1.6615e-05
1.64475e-05
1.63084e-05
1.62046e-05
1.61452e-05
0.000939687
0.000835719
0.000745892
0.000668037
0.000600345
0.000541305
0.000489653
0.000444325
0.000404427
0.000369204
0.000338018
0.000310326
0.000285668
0.000263651
0.000243939
0.000226245
0.00021032
0.000195952
0.000182958
0.000171177
0.000160473
0.000150724
0.000141826
0.000133688
0.000126228
0.000119378
0.000113075
0.000107265
0.000101898
9.69334e-05
9.2332e-05
8.80605e-05
8.40888e-05
8.039e-05
7.69403e-05
7.3718e-05
7.0704e-05
6.78808e-05
6.52329e-05
6.27461e-05
6.04077e-05
5.8206e-05
5.61308e-05
5.41724e-05
5.23222e-05
5.05722e-05
4.89155e-05
4.73452e-05
4.58555e-05
4.44409e-05
4.30962e-05
4.18169e-05
4.05987e-05
3.94377e-05
3.83302e-05
3.72729e-05
3.62628e-05
3.52969e-05
3.43727e-05
3.34877e-05
3.26397e-05
3.18264e-05
3.10461e-05
3.02969e-05
2.9577e-05
2.8885e-05
2.82194e-05
2.75788e-05
2.6962e-05
2.63678e-05
2.5795e-05
2.52428e-05
2.47102e-05
2.41962e-05
2.37001e-05
2.32211e-05
2.27586e-05
2.23119e-05
2.18804e-05
2.14637e-05
2.10611e-05
2.06724e-05
2.0297e-05
1.99348e-05
1.95854e-05
1.92487e-05
1.89245e-05
1.86128e-05
1.83136e-05
1.80272e-05
1.7754e-05
1.74944e-05
1.72494e-05
1.70203e-05
1.68088e-05
1.66175e-05
1.64499e-05
1.63108e-05
1.62069e-05
1.61476e-05
0.000939687
0.000835719
0.000745892
0.000668037
0.000600345
0.000541305
0.000489653
0.000444325
0.000404427
0.000369204
0.000338018
0.000310326
0.000285669
0.000263652
0.00024394
0.000226245
0.00021032
0.000195953
0.000182958
0.000171178
0.000160473
0.000150724
0.000141827
0.000133688
0.000126229
0.000119379
0.000113076
0.000107266
0.000101899
9.69342e-05
9.23329e-05
8.80614e-05
8.40897e-05
8.0391e-05
7.69413e-05
7.37191e-05
7.07051e-05
6.7882e-05
6.52341e-05
6.27473e-05
6.0409e-05
5.82074e-05
5.61322e-05
5.41738e-05
5.23236e-05
5.05738e-05
4.8917e-05
4.73468e-05
4.58572e-05
4.44426e-05
4.3098e-05
4.18188e-05
4.06006e-05
3.94396e-05
3.83322e-05
3.72749e-05
3.62649e-05
3.52991e-05
3.43749e-05
3.34899e-05
3.26419e-05
3.18288e-05
3.10485e-05
3.02993e-05
2.95795e-05
2.88875e-05
2.8222e-05
2.75814e-05
2.69646e-05
2.63705e-05
2.57978e-05
2.52456e-05
2.4713e-05
2.41991e-05
2.3703e-05
2.32241e-05
2.27616e-05
2.23149e-05
2.18835e-05
2.14667e-05
2.10642e-05
2.06754e-05
2.03001e-05
1.99379e-05
1.95885e-05
1.92517e-05
1.89275e-05
1.86158e-05
1.83166e-05
1.80301e-05
1.77568e-05
1.74972e-05
1.72521e-05
1.70229e-05
1.68114e-05
1.66201e-05
1.64524e-05
1.63132e-05
1.62093e-05
1.61499e-05
0.000939687
0.000835719
0.000745892
0.000668037
0.000600345
0.000541305
0.000489653
0.000444325
0.000404427
0.000369205
0.000338018
0.000310327
0.000285669
0.000263652
0.00024394
0.000226245
0.000210321
0.000195953
0.000182959
0.000171178
0.000160474
0.000150725
0.000141827
0.000133689
0.00012623
0.00011938
0.000113077
0.000107266
0.0001019
9.69351e-05
9.23338e-05
8.80623e-05
8.40907e-05
8.0392e-05
7.69423e-05
7.37202e-05
7.07062e-05
6.78832e-05
6.52353e-05
6.27486e-05
6.04102e-05
5.82087e-05
5.61335e-05
5.41752e-05
5.23251e-05
5.05753e-05
4.89186e-05
4.73484e-05
4.58589e-05
4.44443e-05
4.30997e-05
4.18205e-05
4.06024e-05
3.94415e-05
3.83341e-05
3.72769e-05
3.62669e-05
3.53011e-05
3.4377e-05
3.34921e-05
3.26442e-05
3.1831e-05
3.10508e-05
3.03017e-05
2.95819e-05
2.889e-05