/*--------------------------------*- C++ -*----------------------------------*\
  =========                 |
  \\      /  F ield         | OpenFOAM: The Open Source CFD Toolbox
   \\    /   O peration     | Website:  https://openfoam.org
    \\  /    A nd           | Version:  11
     \\/     M anipulation  |
\*---------------------------------------------------------------------------*/
FoamFile
{
    format      ascii;
    class       volVectorField;
    location    "426";
    object      U;
}
// * * * * * * * * * * * * * * * * * * * * * * * * * * * * * * * * * * * * * //

dimensions      [0 1 -1 0 0 0 0];

internalField   nonuniform List<vector> 
10000
(
(0.00499995 -1.48109e-06 0)
(0.00499975 -4.30087e-06 0)
(0.00499948 -7.1166e-06 0)
(0.00499914 -9.99468e-06 0)
(0.00499874 -1.29706e-05 0)
(0.00499827 -1.60683e-05 0)
(0.00499774 -1.93064e-05 0)
(0.00499714 -2.2701e-05 0)
(0.00499646 -2.62659e-05 0)
(0.0049957 -3.00143e-05 0)
(0.00499487 -3.39585e-05 0)
(0.00499394 -3.81107e-05 0)
(0.00499292 -4.24825e-05 0)
(0.0049918 -4.70858e-05 0)
(0.00499058 -5.19323e-05 0)
(0.00498924 -5.70337e-05 0)
(0.00498779 -6.24017e-05 0)
(0.00498622 -6.80484e-05 0)
(0.00498451 -7.39855e-05 0)
(0.00498266 -8.02253e-05 0)
(0.00498067 -8.67799e-05 0)
(0.00497852 -9.36615e-05 0)
(0.00497621 -0.000100883 0)
(0.00497373 -0.000108455 0)
(0.00497106 -0.000116393 0)
(0.0049682 -0.000124707 0)
(0.00496515 -0.00013341 0)
(0.00496188 -0.000142515 0)
(0.00495839 -0.000152034 0)
(0.00495467 -0.00016198 0)
(0.00495071 -0.000172363 0)
(0.00494649 -0.000183197 0)
(0.004942 -0.000194492 0)
(0.00493724 -0.000206259 0)
(0.00493218 -0.000218509 0)
(0.00492681 -0.000231252 0)
(0.00492113 -0.000244497 0)
(0.00491512 -0.000258252 0)
(0.00490876 -0.000272524 0)
(0.00490204 -0.000287321 0)
(0.00489494 -0.000302646 0)
(0.00488746 -0.000318504 0)
(0.00487957 -0.000334897 0)
(0.00487127 -0.000351824 0)
(0.00486253 -0.000369283 0)
(0.00485334 -0.000387271 0)
(0.00484369 -0.00040578 0)
(0.00483357 -0.0004248 0)
(0.00482295 -0.000444319 0)
(0.00481183 -0.00046432 0)
(0.00480019 -0.000484782 0)
(0.00478802 -0.000505681 0)
(0.0047753 -0.000526986 0)
(0.00476204 -0.000548664 0)
(0.00474821 -0.000570675 0)
(0.00473382 -0.000592972 0)
(0.00471885 -0.000615504 0)
(0.00470331 -0.000638213 0)
(0.00468718 -0.000661032 0)
(0.00467048 -0.000683889 0)
(0.00465321 -0.000706705 0)
(0.00463537 -0.000729394 0)
(0.00461698 -0.000751862 0)
(0.00459805 -0.00077401 0)
(0.0045786 -0.000795732 0)
(0.00455866 -0.000816918 0)
(0.00453826 -0.000837452 0)
(0.00451743 -0.00085722 0)
(0.00449621 -0.000876104 0)
(0.00447465 -0.000893986 0)
(0.00445279 -0.000910756 0)
(0.00443071 -0.000926305 0)
(0.00440845 -0.000940535 0)
(0.00438608 -0.000953357 0)
(0.00436369 -0.000964695 0)
(0.00434135 -0.000974503 0)
(0.00431931 -0.000982797 0)
(0.00429711 -0.000989625 0)
(0.00427475 -0.000994709 0)
(0.00425247 -0.000998089 0)
(0.00423023 -0.000999809 0)
(0.00420829 -0.000999863 0)
(0.00418711 -0.000998347 0)
(0.00416674 -0.000995384 0)
(0.00414721 -0.000991044 0)
(0.0041286 -0.000985478 0)
(0.00411067 -0.000978856 0)
(0.00409338 -0.000971279 0)
(0.00407684 -0.000962834 0)
(0.0040611 -0.000953645 0)
(0.00404623 -0.00094385 0)
(0.00403227 -0.000933603 0)
(0.0040193 -0.000923065 0)
(0.00400737 -0.000912411 0)
(0.00399654 -0.00090184 0)
(0.0039869 -0.000891576 0)
(0.00397854 -0.000881887 0)
(0.00397159 -0.000873098 0)
(0.00396603 -0.000865754 0)
(0.00396206 -0.00086118 0)
(0.00499998 -1.34731e-06 0)
(0.00499979 -4.04402e-06 0)
(0.00499953 -6.7807e-06 0)
(0.00499919 -9.58773e-06 0)
(0.00499879 -1.24932e-05 0)
(0.00499832 -1.55185e-05 0)
(0.00499779 -1.8681e-05 0)
(0.00499718 -2.19957e-05 0)
(0.00499651 -2.54763e-05 0)
(0.00499575 -2.91353e-05 0)
(0.00499491 -3.29847e-05 0)
(0.00499398 -3.70362e-05 0)
(0.00499297 -4.13013e-05 0)
(0.00499185 -4.57914e-05 0)
(0.00499062 -5.05178e-05 0)
(0.00498929 -5.5492e-05 0)
(0.00498784 -6.07254e-05 0)
(0.00498627 -6.62294e-05 0)
(0.00498456 -7.20158e-05 0)
(0.00498271 -7.80962e-05 0)
(0.00498072 -8.44825e-05 0)
(0.00497858 -9.11865e-05 0)
(0.00497627 -9.82202e-05 0)
(0.00497378 -0.000105596 0)
(0.00497112 -0.000113325 0)
(0.00496827 -0.00012142 0)
(0.00496522 -0.000129894 0)
(0.00496195 -0.000138757 0)
(0.00495847 -0.000148022 0)
(0.00495475 -0.000157701 0)
(0.00495079 -0.000167805 0)
(0.00494658 -0.000178346 0)
(0.00494209 -0.000189335 0)
(0.00493733 -0.000200782 0)
(0.00493228 -0.000212697 0)
(0.00492692 -0.00022509 0)
(0.00492125 -0.000237969 0)
(0.00491524 -0.000251344 0)
(0.00490889 -0.00026522 0)
(0.00490218 -0.000279603 0)
(0.00489509 -0.0002945 0)
(0.00488762 -0.000309912 0)
(0.00487974 -0.000325842 0)
(0.00487145 -0.00034229 0)
(0.00486272 -0.000359253 0)
(0.00485355 -0.000376728 0)
(0.00484391 -0.000394708 0)
(0.0048338 -0.000413183 0)
(0.00482319 -0.000432141 0)
(0.00481209 -0.000451565 0)
(0.00480046 -0.000471436 0)
(0.00478831 -0.00049173 0)
(0.00477562 -0.000512418 0)
(0.00476237 -0.000533468 0)
(0.00474857 -0.00055484 0)
(0.0047342 -0.000576492 0)
(0.00471925 -0.000598373 0)
(0.00470373 -0.000620428 0)
(0.00468763 -0.000642593 0)
(0.00467096 -0.0006648 0)
(0.00465371 -0.000686973 0)
(0.0046359 -0.00070903 0)
(0.00461753 -0.000730881 0)
(0.00459863 -0.000752433 0)
(0.00457922 -0.000773584 0)
(0.00455931 -0.00079423 0)
(0.00453893 -0.000814262 0)
(0.00451813 -0.00083357 0)
(0.00449694 -0.000852042 0)
(0.00447541 -0.000869568 0)
(0.00445358 -0.000886042 0)
(0.00443151 -0.000901361 0)
(0.00440926 -0.000915433 0)
(0.00438688 -0.000928176 0)
(0.00436444 -0.000939518 0)
(0.00434198 -0.000949392 0)
(0.00431958 -0.000957703 0)
(0.0042971 -0.000964314 0)
(0.00427478 -0.000969296 0)
(0.00425276 -0.000972709 0)
(0.0042311 -0.000974665 0)
(0.00420985 -0.000975322 0)
(0.00418906 -0.000974692 0)
(0.00416877 -0.000972719 0)
(0.00414906 -0.000969429 0)
(0.0041301 -0.000964828 0)
(0.00411193 -0.000959059 0)
(0.00409451 -0.000952324 0)
(0.00407788 -0.000944768 0)
(0.00406208 -0.000936526 0)
(0.00404714 -0.000927737 0)
(0.00403311 -0.000918554 0)
(0.00402005 -0.000909143 0)
(0.00400802 -0.000899686 0)
(0.00399706 -0.000890387 0)
(0.00398725 -0.000881484 0)
(0.00397868 -0.000873262 0)
(0.00397139 -0.000866067 0)
(0.00396512 -0.000860425 0)
(0.00395989 -0.000857306 0)
(0.00499999 -1.23986e-06 0)
(0.00499984 -3.80637e-06 0)
(0.00499959 -6.45319e-06 0)
(0.00499926 -9.18489e-06 0)
(0.00499886 -1.20187e-05 0)
(0.0049984 -1.49718e-05 0)
(0.00499786 -1.80595e-05 0)
(0.00499726 -2.12959e-05 0)
(0.00499658 -2.46937e-05 0)
(0.00499583 -2.8265e-05 0)
(0.00499499 -3.20215e-05 0)
(0.00499406 -3.59746e-05 0)
(0.00499305 -4.01352e-05 0)
(0.00499193 -4.45146e-05 0)
(0.00499071 -4.91237e-05 0)
(0.00498938 -5.39737e-05 0)
(0.00498793 -5.90755e-05 0)
(0.00498635 -6.44405e-05 0)
(0.00498465 -7.00798e-05 0)
(0.00498281 -7.60049e-05 0)
(0.00498082 -8.22272e-05 0)
(0.00497868 -8.87583e-05 0)
(0.00497637 -9.56097e-05 0)
(0.00497389 -0.000102793 0)
(0.00497124 -0.00011032 0)
(0.00496839 -0.000118203 0)
(0.00496534 -0.000126453 0)
(0.00496208 -0.000135081 0)
(0.00495861 -0.0001441 0)
(0.0049549 -0.000153521 0)
(0.00495095 -0.000163355 0)
(0.00494674 -0.000173612 0)
(0.00494227 -0.000184304 0)
(0.00493752 -0.00019544 0)
(0.00493248 -0.000207031 0)
(0.00492713 -0.000219086 0)
(0.00492147 -0.000231613 0)
(0.00491548 -0.000244619 0)
(0.00490914 -0.000258112 0)
(0.00490245 -0.000272098 0)
(0.00489538 -0.00028658 0)
(0.00488793 -0.000301563 0)
(0.00488007 -0.000317047 0)
(0.00487179 -0.000333034 0)
(0.00486309 -0.00034952 0)
(0.00485394 -0.000366502 0)
(0.00484433 -0.000383973 0)
(0.00483424 -0.000401923 0)
(0.00482367 -0.000420342 0)
(0.00481259 -0.000439212 0)
(0.004801 -0.000458516 0)
(0.00478888 -0.00047823 0)
(0.00477622 -0.000498327 0)
(0.00476302 -0.000518774 0)
(0.00474925 -0.000539536 0)
(0.00473492 -0.00056057 0)
(0.00472002 -0.000581829 0)
(0.00470455 -0.000603258 0)
(0.0046885 -0.000624798 0)
(0.00467187 -0.000646384 0)
(0.00465468 -0.000667942 0)
(0.00463692 -0.000689394 0)
(0.00461862 -0.000710657 0)
(0.00459978 -0.000731638 0)
(0.00458042 -0.000752243 0)
(0.00456057 -0.000772372 0)
(0.00454026 -0.000791921 0)
(0.00451952 -0.000810785 0)
(0.0044984 -0.000828859 0)
(0.00447692 -0.000846037 0)
(0.00445515 -0.000862217 0)
(0.00443312 -0.000877302 0)
(0.00441091 -0.000891202 0)
(0.00438855 -0.000903834 0)
(0.00436611 -0.000915122 0)
(0.00434363 -0.000924994 0)
(0.00432117 -0.000933369 0)
(0.00429881 -0.000940223 0)
(0.00427664 -0.000945588 0)
(0.00425474 -0.000949479 0)
(0.00423319 -0.000951931 0)
(0.00421204 -0.00095301 0)
(0.00419133 -0.000952766 0)
(0.00417112 -0.000951243 0)
(0.00415146 -0.000948508 0)
(0.00413245 -0.000944618 0)
(0.00411415 -0.000939655 0)
(0.0040966 -0.00093376 0)
(0.00407984 -0.000927078 0)
(0.0040639 -0.000919753 0)
(0.00404882 -0.000911929 0)
(0.00403464 -0.000903762 0)
(0.0040214 -0.000895421 0)
(0.00400914 -0.00088709 0)
(0.0039979 -0.000878978 0)
(0.00398774 -0.000871324 0)
(0.0039787 -0.000864408 0)
(0.00397076 -0.000858559 0)
(0.00396342 -0.000854208 0)
(0.0039567 -0.000851992 0)
(0.00499999 -1.16635e-06 0)
(0.00499986 -3.61622e-06 0)
(0.00499964 -6.17186e-06 0)
(0.00499933 -8.82687e-06 0)
(0.00499894 -1.15902e-05 0)
(0.00499848 -1.44744e-05 0)
(0.00499795 -1.74922e-05 0)
(0.00499735 -2.06559e-05 0)
(0.00499668 -2.39775e-05 0)
(0.00499592 -2.74686e-05 0)
(0.00499509 -3.11401e-05 0)
(0.00499416 -3.50031e-05 0)
(0.00499314 -3.90684e-05 0)
(0.00499203 -4.33466e-05 0)
(0.00499081 -4.78486e-05 0)
(0.00498948 -5.2585e-05 0)
(0.00498803 -5.75668e-05 0)
(0.00498646 -6.28047e-05 0)
(0.00498476 -6.83097e-05 0)
(0.00498292 -7.4093e-05 0)
(0.00498094 -8.01655e-05 0)
(0.0049788 -8.65386e-05 0)
(0.0049765 -9.32235e-05 0)
(0.00497403 -0.000100232 0)
(0.00497138 -0.000107574 0)
(0.00496854 -0.000115262 0)
(0.0049655 -0.000123308 0)
(0.00496225 -0.000131722 0)
(0.00495878 -0.000140516 0)
(0.00495508 -0.000149701 0)
(0.00495114 -0.000159287 0)
(0.00494695 -0.000169285 0)
(0.00494249 -0.000179706 0)
(0.00493775 -0.000190559 0)
(0.00493273 -0.000201853 0)
(0.0049274 -0.000213599 0)
(0.00492176 -0.000225803 0)
(0.00491578 -0.000238473 0)
(0.00490947 -0.000251616 0)
(0.00490279 -0.000265237 0)
(0.00489575 -0.000279341 0)
(0.00488832 -0.000293931 0)
(0.00488049 -0.000309008 0)
(0.00487224 -0.000324572 0)
(0.00486357 -0.000340622 0)
(0.00485445 -0.000357152 0)
(0.00484487 -0.000374158 0)
(0.00483482 -0.000391629 0)
(0.00482429 -0.000409555 0)
(0.00481326 -0.000427919 0)
(0.00480171 -0.000446704 0)
(0.00478964 -0.000465887 0)
(0.00477703 -0.000485442 0)
(0.00476388 -0.000505339 0)
(0.00475017 -0.000525543 0)
(0.0047359 -0.000546011 0)
(0.00472106 -0.0005667 0)
(0.00470565 -0.000587557 0)
(0.00468967 -0.000608526 0)
(0.00467312 -0.000629542 0)
(0.004656 -0.000650538 0)
(0.00463832 -0.000671437 0)
(0.0046201 -0.000692159 0)
(0.00460135 -0.000712618 0)
(0.00458208 -0.000732722 0)
(0.00456232 -0.000752377 0)
(0.00454211 -0.000771482 0)
(0.00452146 -0.000789938 0)
(0.00450043 -0.000807643 0)
(0.00447904 -0.000824497 0)
(0.00445735 -0.000840401 0)
(0.00443541 -0.000855261 0)
(0.00441327 -0.000868988 0)
(0.00439098 -0.000881501 0)
(0.00436859 -0.000892724 0)
(0.00434617 -0.000902585 0)
(0.00432379 -0.000911023 0)
(0.00430152 -0.000918019 0)
(0.00427945 -0.000923593 0)
(0.00425765 -0.000927768 0)
(0.00423617 -0.000930579 0)
(0.00421509 -0.000932076 0)
(0.00419443 -0.000932308 0)
(0.00417425 -0.000931324 0)
(0.0041546 -0.000929185 0)
(0.00413555 -0.000925952 0)
(0.00411717 -0.000921707 0)
(0.00409951 -0.000916572 0)
(0.00408261 -0.000910685 0)
(0.00406651 -0.000904188 0)
(0.00405125 -0.00089723 0)
(0.00403685 -0.000889965 0)
(0.00402335 -0.000882563 0)
(0.00401078 -0.000875207 0)
(0.00399916 -0.0008681 0)
(0.00398852 -0.000861472 0)
(0.00397888 -0.000855581 0)
(0.00397014 -0.000850712 0)
(0.00396167 -0.000847209 0)
(0.00395357 -0.000845515 0)
(0.00499999 -1.10679e-06 0)
(0.00499988 -3.44955e-06 0)
(0.00499968 -5.91274e-06 0)
(0.00499939 -8.48665e-06 0)
(0.00499901 -1.11754e-05 0)
(0.00499856 -1.39876e-05 0)
(0.00499804 -1.69334e-05 0)
(0.00499745 -2.00234e-05 0)
(0.00499678 -2.32683e-05 0)
(0.00499603 -2.66788e-05 0)
(0.00499519 -3.02655e-05 0)
(0.00499427 -3.40389e-05 0)
(0.00499325 -3.80092e-05 0)
(0.00499214 -4.2187e-05 0)
(0.00499092 -4.65826e-05 0)
(0.0049896 -5.12064e-05 0)
(0.00498815 -5.60689e-05 0)
(0.00498659 -6.11808e-05 0)
(0.00498489 -6.65526e-05 0)
(0.00498306 -7.21951e-05 0)
(0.00498108 -7.8119e-05 0)
(0.00497895 -8.43354e-05 0)
(0.00497665 -9.0855e-05 0)
(0.00497419 -9.7689e-05 0)
(0.00497154 -0.000104848 0)
(0.00496871 -0.000112344 0)
(0.00496568 -0.000120187 0)
(0.00496244 -0.000128388 0)
(0.00495899 -0.000136959 0)
(0.0049553 -0.000145909 0)
(0.00495137 -0.00015525 0)
(0.00494719 -0.000164991 0)
(0.00494275 -0.000175143 0)
(0.00493803 -0.000185714 0)
(0.00493302 -0.000196715 0)
(0.00492772 -0.000208154 0)
(0.00492209 -0.000220038 0)
(0.00491614 -0.000232375 0)
(0.00490985 -0.00024517 0)
(0.0049032 -0.000258431 0)
(0.00489619 -0.000272159 0)
(0.00488879 -0.000286359 0)
(0.00488099 -0.000301032 0)
(0.00487278 -0.000316178 0)
(0.00486414 -0.000331795 0)
(0.00485506 -0.000347878 0)
(0.00484553 -0.000364422 0)
(0.00483553 -0.000381418 0)
(0.00482504 -0.000398854 0)
(0.00481406 -0.000416717 0)
(0.00480257 -0.000434988 0)
(0.00479056 -0.000453645 0)
(0.00477801 -0.000472664 0)
(0.00476492 -0.000492016 0)
(0.00475129 -0.000511666 0)
(0.00473709 -0.000531574 0)
(0.00472233 -0.000551699 0)
(0.00470701 -0.00057199 0)
(0.00469111 -0.000592392 0)
(0.00467465 -0.000612845 0)
(0.00465763 -0.000633284 0)
(0.00464006 -0.000653635 0)
(0.00462194 -0.000673823 0)
(0.00460329 -0.000693764 0)
(0.00458414 -0.000713371 0)
(0.0045645 -0.000732554 0)
(0.0045444 -0.000751218 0)
(0.00452387 -0.000769267 0)
(0.00450296 -0.000786604 0)
(0.00448169 -0.000803132 0)
(0.00446012 -0.000818757 0)
(0.00443829 -0.000833388 0)
(0.00441625 -0.000846939 0)
(0.00439406 -0.00085933 0)
(0.00437178 -0.000870488 0)
(0.00434946 -0.000880349 0)
(0.00432718 -0.000888865 0)
(0.00430502 -0.000896016 0)
(0.00428305 -0.000901811 0)
(0.00426132 -0.00090627 0)
(0.00423991 -0.000909424 0)
(0.00421887 -0.000911319 0)
(0.00419824 -0.000911999 0)
(0.00417807 -0.000911517 0)
(0.00415842 -0.000909932 0)
(0.00413933 -0.000907311 0)
(0.00412088 -0.000903738 0)
(0.0041031 -0.000899324 0)
(0.00408606 -0.000894198 0)
(0.00406978 -0.000888497 0)
(0.00405429 -0.000882366 0)
(0.00403963 -0.000875959 0)
(0.00402582 -0.00086944 0)
(0.00401288 -0.000862986 0)
(0.00400081 -0.000856792 0)
(0.00398962 -0.000851068 0)
(0.00397931 -0.000846043 0)
(0.00396974 -0.000841964 0)
(0.00396017 -0.000839129 0)
(0.00395078 -0.000837954 0)
(0.005 -1.05475e-06 0)
(0.0049999 -3.29843e-06 0)
(0.00499971 -5.67047e-06 0)
(0.00499943 -8.16103e-06 0)
(0.00499908 -1.07718e-05 0)
(0.00499864 -1.35088e-05 0)
(0.00499813 -1.63797e-05 0)
(0.00499754 -1.93937e-05 0)
(0.00499688 -2.25601e-05 0)
(0.00499613 -2.58888e-05 0)
(0.0049953 -2.93897e-05 0)
(0.00499439 -3.30725e-05 0)
(0.00499338 -3.69473e-05 0)
(0.00499227 -4.10241e-05 0)
(0.00499105 -4.53128e-05 0)
(0.00498973 -4.98236e-05 0)
(0.00498829 -5.45666e-05 0)
(0.00498673 -5.95521e-05 0)
(0.00498504 -6.47904e-05 0)
(0.00498321 -7.02918e-05 0)
(0.00498124 -7.6067e-05 0)
(0.00497911 -8.21263e-05 0)
(0.00497682 -8.84806e-05 0)
(0.00497437 -9.51403e-05 0)
(0.00497173 -0.000102116 0)
(0.00496891 -0.000109419 0)
(0.00496589 -0.000117059 0)
(0.00496267 -0.000125048 0)
(0.00495922 -0.000133395 0)
(0.00495555 -0.000142111 0)
(0.00495164 -0.000151206 0)
(0.00494748 -0.00016069 0)
(0.00494305 -0.000170572 0)
(0.00493835 -0.000180863 0)
(0.00493336 -0.000191569 0)
(0.00492808 -0.000202701 0)
(0.00492248 -0.000214265 0)
(0.00491656 -0.000226269 0)
(0.00491029 -0.000238717 0)
(0.00490368 -0.000251616 0)
(0.0048967 -0.00026497 0)
(0.00488933 -0.00027878 0)
(0.00488157 -0.00029305 0)
(0.0048734 -0.000307777 0)
(0.00486481 -0.000322961 0)
(0.00485578 -0.000338598 0)
(0.0048463 -0.000354681 0)
(0.00483635 -0.000371203 0)
(0.00482592 -0.000388151 0)
(0.004815 -0.000405513 0)
(0.00480357 -0.00042327 0)
(0.00479163 -0.000441403 0)
(0.00477916 -0.000459888 0)
(0.00476615 -0.000478695 0)
(0.00475259 -0.000497793 0)
(0.00473849 -0.000517144 0)
(0.00472382 -0.000536706 0)
(0.00470859 -0.000556432 0)
(0.0046928 -0.00057627 0)
(0.00467645 -0.000596162 0)
(0.00465955 -0.000616045 0)
(0.00464209 -0.000635851 0)
(0.0046241 -0.000655505 0)
(0.00460558 -0.00067493 0)
(0.00458656 -0.000694042 0)
(0.00456705 -0.000712754 0)
(0.00454709 -0.000730976 0)
(0.0045267 -0.000748617 0)
(0.00450593 -0.000765584 0)
(0.0044848 -0.000781784 0)
(0.00446337 -0.000797126 0)
(0.00444168 -0.000811524 0)
(0.00441977 -0.000824893 0)
(0.00439772 -0.000837159 0)
(0.00437556 -0.000848253 0)
(0.00435337 -0.000858117 0)
(0.00433121 -0.000866708 0)
(0.00430916 -0.000874007 0)
(0.00428729 -0.000880015 0)
(0.00426564 -0.000884747 0)
(0.00424429 -0.000888232 0)
(0.00422329 -0.000890506 0)
(0.00420268 -0.000891615 0)
(0.00418251 -0.000891611 0)
(0.00416283 -0.000890555 0)
(0.0041437 -0.000888516 0)
(0.00412516 -0.000885581 0)
(0.00410727 -0.000881854 0)
(0.00409006 -0.000877454 0)
(0.00407358 -0.000872513 0)
(0.00405785 -0.00086717 0)
(0.0040429 -0.000861575 0)
(0.00402874 -0.000855884 0)
(0.00401538 -0.000850267 0)
(0.00400282 -0.000844903 0)
(0.00399104 -0.000839983 0)
(0.00398004 -0.000835706 0)
(0.00396966 -0.000832275 0)
(0.00395911 -0.00082992 0)
(0.00394841 -0.000829175 0)
(0.005 -1.00847e-06 0)
(0.00499991 -3.16029e-06 0)
(0.00499974 -5.44417e-06 0)
(0.00499947 -7.85137e-06 0)
(0.00499913 -1.03826e-05 0)
(0.00499871 -1.30421e-05 0)
(0.00499821 -1.58361e-05 0)
(0.00499764 -1.87722e-05 0)
(0.00499698 -2.18587e-05 0)
(0.00499624 -2.51044e-05 0)
(0.00499542 -2.85185e-05 0)
(0.00499451 -3.21103e-05 0)
(0.0049935 -3.58892e-05 0)
(0.0049924 -3.98648e-05 0)
(0.00499119 -4.40466e-05 0)
(0.00498987 -4.84445e-05 0)
(0.00498844 -5.30681e-05 0)
(0.00498688 -5.79275e-05 0)
(0.0049852 -6.30326e-05 0)
(0.00498338 -6.83935e-05 0)
(0.00498141 -7.40203e-05 0)
(0.00497929 -7.99233e-05 0)
(0.00497701 -8.61128e-05 0)
(0.00497457 -9.25989e-05 0)
(0.00497194 -9.93923e-05 0)
(0.00496913 -0.000106503 0)
(0.00496613 -0.000113941 0)
(0.00496291 -0.000121718 0)
(0.00495948 -0.000129843 0)
(0.00495583 -0.000138325 0)
(0.00495193 -0.000147176 0)
(0.00494779 -0.000156404 0)
(0.00494339 -0.000166019 0)
(0.00493871 -0.000176029 0)
(0.00493375 -0.000186444 0)
(0.00492849 -0.00019727 0)
(0.00492292 -0.000208516 0)
(0.00491703 -0.000220188 0)
(0.00491079 -0.000232291 0)
(0.00490421 -0.000244832 0)
(0.00489727 -0.000257812 0)
(0.00488995 -0.000271236 0)
(0.00488223 -0.000285104 0)
(0.00487411 -0.000299416 0)
(0.00486556 -0.000314171 0)
(0.00485659 -0.000329364 0)
(0.00484716 -0.00034499 0)
(0.00483727 -0.00036104 0)
(0.00482691 -0.000377504 0)
(0.00481606 -0.000394369 0)
(0.00480471 -0.000411617 0)
(0.00479284 -0.00042923 0)
(0.00478045 -0.000447184 0)
(0.00476753 -0.000465452 0)
(0.00475407 -0.000484003 0)
(0.00474007 -0.000502801 0)
(0.00472551 -0.000521805 0)
(0.00471039 -0.000540972 0)
(0.00469472 -0.000560251 0)
(0.00467849 -0.000579587 0)
(0.00466171 -0.00059892 0)
(0.00464439 -0.000618185 0)
(0.00462654 -0.000637311 0)
(0.00460816 -0.000656223 0)
(0.00458929 -0.000674843 0)
(0.00456994 -0.000693087 0)
(0.00455013 -0.000710871 0)
(0.00452991 -0.000728105 0)
(0.00450929 -0.000744702 0)
(0.00448832 -0.000760572 0)
(0.00446705 -0.00077563 0)
(0.00444551 -0.000789792 0)
(0.00442376 -0.000802978 0)
(0.00440185 -0.000815116 0)
(0.00437984 -0.000826141 0)
(0.00435779 -0.000836002 0)
(0.00433577 -0.000844658 0)
(0.00431384 -0.00085209 0)
(0.00429206 -0.000858293 0)
(0.0042705 -0.00086328 0)
(0.00424921 -0.000867073 0)
(0.00422824 -0.000869706 0)
(0.00420765 -0.000871223 0)
(0.00418747 -0.000871675 0)
(0.00416776 -0.000871123 0)
(0.00414857 -0.000869639 0)
(0.00412994 -0.000867306 0)
(0.00411192 -0.000864226 0)
(0.00409454 -0.000860511 0)
(0.00407784 -0.000856286 0)
(0.00406185 -0.000851683 0)
(0.00404658 -0.000846845 0)
(0.00403204 -0.000841922 0)
(0.00401824 -0.00083707 0)
(0.00400517 -0.000832455 0)
(0.00399279 -0.000828246 0)
(0.0039811 -0.000824616 0)
(0.00396992 -0.000821732 0)
(0.0039585 -0.000819769 0)
(0.00394659 -0.000819256 0)
(0.005 -9.66479e-07 0)
(0.00499992 -3.03268e-06 0)
(0.00499975 -5.23192e-06 0)
(0.00499951 -7.55692e-06 0)
(0.00499918 -1.00082e-05 0)
(0.00499877 -1.25891e-05 0)
(0.00499829 -1.53046e-05 0)
(0.00499772 -1.81614e-05 0)
(0.00499708 -2.11666e-05 0)
(0.00499635 -2.43283e-05 0)
(0.00499553 -2.76549e-05 0)
(0.00499463 -3.11551e-05 0)
(0.00499363 -3.48377e-05 0)
(0.00499253 -3.87119e-05 0)
(0.00499133 -4.27869e-05 0)
(0.00499002 -4.70719e-05 0)
(0.0049886 -5.15765e-05 0)
(0.00498705 -5.63101e-05 0)
(0.00498537 -6.12825e-05 0)
(0.00498356 -6.65034e-05 0)
(0.0049816 -7.19826e-05 0)
(0.00497949 -7.77299e-05 0)
(0.00497722 -8.37554e-05 0)
(0.00497479 -9.0069e-05 0)
(0.00497217 -9.66807e-05 0)
(0.00496938 -0.0001036 0)
(0.00496638 -0.000110838 0)
(0.00496319 -0.000118404 0)
(0.00495977 -0.000126308 0)
(0.00495614 -0.000134559 0)
(0.00495226 -0.000143166 0)
(0.00494814 -0.00015214 0)
(0.00494376 -0.000161489 0)
(0.0049391 -0.000171222 0)
(0.00493417 -0.000181346 0)
(0.00492894 -0.00019187 0)
(0.0049234 -0.0002028 0)
(0.00491754 -0.000214142 0)
(0.00491135 -0.000225903 0)
(0.0049048 -0.000238088 0)
(0.0048979 -0.000250698 0)
(0.00489062 -0.000263738 0)
(0.00488296 -0.000277209 0)
(0.00487488 -0.000291109 0)
(0.0048664 -0.000305438 0)
(0.00485748 -0.000320191 0)
(0.00484812 -0.000335364 0)
(0.0048383 -0.000350947 0)
(0.004828 -0.000366932 0)
(0.00481723 -0.000383304 0)
(0.00480596 -0.000400049 0)
(0.00479418 -0.000417147 0)
(0.00478189 -0.000434576 0)
(0.00476907 -0.00045231 0)
(0.00475571 -0.000470319 0)
(0.00474181 -0.00048857 0)
(0.00472737 -0.000507024 0)
(0.00471237 -0.000525638 0)
(0.00469683 -0.000544364 0)
(0.00468074 -0.00056315 0)
(0.0046641 -0.000581939 0)
(0.00464693 -0.000600668 0)
(0.00462923 -0.000619271 0)
(0.00461101 -0.000637677 0)
(0.0045923 -0.000655809 0)
(0.00457312 -0.000673589 0)
(0.00455348 -0.000690936 0)
(0.00453343 -0.000707765 0)
(0.00451298 -0.000723993 0)
(0.00449219 -0.000739534 0)
(0.00447109 -0.000754306 0)
(0.00444972 -0.000768229 0)
(0.00442814 -0.000781228 0)
(0.0044064 -0.000793234 0)
(0.00438455 -0.000804186 0)
(0.00436265 -0.000814034 0)
(0.00434076 -0.000822743 0)
(0.00431895 -0.00083029 0)
(0.00429728 -0.000836669 0)
(0.0042758 -0.000841889 0)
(0.00425457 -0.000845968 0)
(0.00423364 -0.000848937 0)
(0.00421306 -0.000850838 0)
(0.00419288 -0.000851721 0)
(0.00417313 -0.000851647 0)
(0.00415387 -0.000850685 0)
(0.00413514 -0.00084892 0)
(0.00411697 -0.000846447 0)
(0.00409941 -0.000843373 0)
(0.00408249 -0.000839816 0)
(0.00406622 -0.000835902 0)
(0.00405062 -0.000831765 0)
(0.00403569 -0.000827545 0)
(0.00402144 -0.000823389 0)
(0.00400784 -0.000819447 0)
(0.00399487 -0.000815869 0)
(0.00398251 -0.000812803 0)
(0.00397057 -0.000810388 0)
(0.00395835 -0.000808767 0)
(0.00394533 -0.000808396 0)
(0.005 -9.27678e-07 0)
(0.00499992 -2.91349e-06 0)
(0.00499977 -5.0316e-06 0)
(0.00499953 -7.27616e-06 0)
(0.00499922 -9.6479e-06 0)
(0.00499883 -1.21497e-05 0)
(0.00499835 -1.47859e-05 0)
(0.0049978 -1.75623e-05 0)
(0.00499717 -2.04852e-05 0)
(0.00499645 -2.35619e-05 0)
(0.00499565 -2.68002e-05 0)
(0.00499475 -3.02081e-05 0)
(0.00499376 -3.37941e-05 0)
(0.00499267 -3.75667e-05 0)
(0.00499148 -4.15346e-05 0)
(0.00499018 -4.57069e-05 0)
(0.00498876 -5.00926e-05 0)
(0.00498722 -5.47009e-05 0)
(0.00498555 -5.9541e-05 0)
(0.00498375 -6.46224e-05 0)
(0.0049818 -6.99546e-05 0)
(0.0049797 -7.5547e-05 0)
(0.00497744 -8.14094e-05 0)
(0.00497502 -8.75513e-05 0)
(0.00497242 -9.39824e-05 0)
(0.00496964 -0.000100712 0)
(0.00496666 -0.000107751 0)
(0.00496348 -0.000115107 0)
(0.00496009 -0.000122791 0)
(0.00495647 -0.000130812 0)
(0.00495261 -0.000139179 0)
(0.00494851 -0.0001479 0)
(0.00494416 -0.000156985 0)
(0.00493953 -0.000166442 0)
(0.00493463 -0.000176278 0)
(0.00492943 -0.000186501 0)
(0.00492392 -0.000197117 0)
(0.0049181 -0.000208134 0)
(0.00491195 -0.000219555 0)
(0.00490545 -0.000231386 0)
(0.00489859 -0.00024363 0)
(0.00489136 -0.00025629 0)
(0.00488374 -0.000269366 0)
(0.00487573 -0.000282858 0)
(0.0048673 -0.000296765 0)
(0.00485845 -0.000311083 0)
(0.00484915 -0.000325806 0)
(0.00483941 -0.000340928 0)
(0.00482919 -0.000356437 0)
(0.0048185 -0.000372323 0)
(0.00480732 -0.000388569 0)
(0.00479564 -0.000405158 0)
(0.00478344 -0.000422068 0)
(0.00477073 -0.000439274 0)
(0.00475748 -0.000456749 0)
(0.0047437 -0.000474459 0)
(0.00472938 -0.000492368 0)
(0.00471452 -0.000510435 0)
(0.00469912 -0.000528615 0)
(0.00468317 -0.000546858 0)
(0.00466669 -0.000565109 0)
(0.00464967 -0.000583309 0)
(0.00463213 -0.000601395 0)
(0.00461409 -0.000619298 0)
(0.00459555 -0.000636947 0)
(0.00457655 -0.000654267 0)
(0.00455709 -0.000671181 0)
(0.00453722 -0.000687607 0)
(0.00451697 -0.000703466 0)
(0.00449636 -0.000718678 0)
(0.00447544 -0.000733163 0)
(0.00445426 -0.000746845 0)
(0.00443286 -0.000759652 0)
(0.00441129 -0.00077152 0)
(0.0043896 -0.00078239 0)
(0.00436786 -0.000792216 0)
(0.00434612 -0.000800962 0)
(0.00432444 -0.000808607 0)
(0.00430287 -0.000815142 0)
(0.00428148 -0.000820571 0)
(0.00426031 -0.000824913 0)
(0.00423942 -0.000828194 0)
(0.00421885 -0.000830454 0)
(0.00419865 -0.000831742 0)
(0.00417886 -0.000832116 0)
(0.00415953 -0.000831645 0)
(0.00414069 -0.000830411 0)
(0.00412238 -0.000828504 0)
(0.00410463 -0.000826026 0)
(0.00408747 -0.000823089 0)
(0.00407091 -0.000819812 0)
(0.00405498 -0.00081632 0)
(0.00403966 -0.000812745 0)
(0.00402495 -0.00080922 0)
(0.00401083 -0.000805882 0)
(0.00399728 -0.000802865 0)
(0.00398428 -0.000800298 0)
(0.00397163 -0.000798294 0)
(0.00395865 -0.00079697 0)
(0.00394463 -0.000796617 0)
(0.005 -8.91346e-07 0)
(0.00499993 -2.80116e-06 0)
(0.00499978 -4.84143e-06 0)
(0.00499956 -7.0076e-06 0)
(0.00499926 -9.30075e-06 0)
(0.00499888 -1.17236e-05 0)
(0.00499842 -1.42801e-05 0)
(0.00499788 -1.69754e-05 0)
(0.00499725 -1.98152e-05 0)
(0.00499655 -2.28063e-05 0)
(0.00499575 -2.59556e-05 0)
(0.00499487 -2.92708e-05 0)
(0.00499389 -3.27597e-05 0)
(0.00499281 -3.64304e-05 0)
(0.00499163 -4.02912e-05 0)
(0.00499034 -4.43508e-05 0)
(0.00498893 -4.86178e-05 0)
(0.0049874 -5.31009e-05 0)
(0.00498574 -5.78092e-05 0)
(0.00498394 -6.27517e-05 0)
(0.00498201 -6.79375e-05 0)
(0.00497992 -7.33758e-05 0)
(0.00497768 -7.90758e-05 0)
(0.00497527 -8.5047e-05 0)
(0.00497268 -9.12986e-05 0)
(0.00496992 -9.78399e-05 0)
(0.00496696 -0.00010468 0)
(0.00496379 -0.000111829 0)
(0.00496042 -0.000119295 0)
(0.00495682 -0.000127087 0)
(0.00495299 -0.000135214 0)
(0.00494892 -0.000143685 0)
(0.00494459 -0.000152508 0)
(0.00493999 -0.000161691 0)
(0.00493512 -0.000171241 0)
(0.00492995 -0.000181166 0)
(0.00492448 -0.000191472 0)
(0.0049187 -0.000202165 0)
(0.00491259 -0.000213249 0)
(0.00490613 -0.00022473 0)
(0.00489932 -0.000236611 0)
(0.00489215 -0.000248893 0)
(0.00488459 -0.000261579 0)
(0.00487663 -0.000274667 0)
(0.00486827 -0.000288157 0)
(0.00485948 -0.000302043 0)
(0.00485026 -0.000316323 0)
(0.0048406 -0.000330987 0)
(0.00483047 -0.000346027 0)
(0.00481986 -0.000361431 0)
(0.00480878 -0.000377184 0)
(0.00479719 -0.000393269 0)
(0.0047851 -0.000409666 0)
(0.0047725 -0.000426351 0)
(0.00475938 -0.000443297 0)
(0.00474573 -0.000460473 0)
(0.00473154 -0.000477844 0)
(0.00471682 -0.000495371 0)
(0.00470156 -0.000513012 0)
(0.00468577 -0.000530718 0)
(0.00466944 -0.000548438 0)
(0.00465259 -0.000566115 0)
(0.00463523 -0.000583689 0)
(0.00461736 -0.000601096 0)
(0.00459901 -0.000618267 0)
(0.00458019 -0.000635131 0)
(0.00456093 -0.000651613 0)
(0.00454125 -0.000667639 0)
(0.00452119 -0.000683131 0)
(0.00450078 -0.000698012 0)
(0.00448006 -0.000712208 0)
(0.00445906 -0.000725645 0)
(0.00443785 -0.000738256 0)
(0.00441646 -0.000749979 0)
(0.00439495 -0.000760759 0)
(0.00437336 -0.00077055 0)
(0.00435177 -0.000779319 0)
(0.00433022 -0.000787042 0)
(0.00430876 -0.000793711 0)
(0.00428746 -0.000799329 0)
(0.00426635 -0.000803909 0)
(0.0042455 -0.000807477 0)
(0.00422494 -0.000810069 0)
(0.00420473 -0.000811733 0)
(0.00418489 -0.000812525 0)
(0.00416548 -0.000812512 0)
(0.00414653 -0.000811771 0)
(0.00412807 -0.00081039 0)
(0.00411013 -0.000808465 0)
(0.00409273 -0.000806101 0)
(0.00407589 -0.00080341 0)
(0.00405962 -0.00080051 0)
(0.00404391 -0.000797521 0)
(0.00402875 -0.000794567 0)
(0.00401413 -0.000791773 0)
(0.00400001 -0.000789259 0)
(0.00398639 -0.000787136 0)
(0.00397308 -0.000785499 0)
(0.00395938 -0.000784438 0)
(0.00394451 -0.000783994 0)
(0.005 -8.57e-07 0)
(0.00499993 -2.69452e-06 0)
(0.00499979 -4.65997e-06 0)
(0.00499958 -6.74987e-06 0)
(0.00499929 -8.96571e-06 0)
(0.00499892 -1.13102e-05 0)
(0.00499847 -1.37871e-05 0)
(0.00499794 -1.6401e-05 0)
(0.00499734 -1.91574e-05 0)
(0.00499664 -2.20622e-05 0)
(0.00499586 -2.51221e-05 0)
(0.00499499 -2.83441e-05 0)
(0.00499402 -3.17356e-05 0)
(0.00499295 -3.53042e-05 0)
(0.00499178 -3.9058e-05 0)
(0.00499049 -4.30049e-05 0)
(0.0049891 -4.71533e-05 0)
(0.00498758 -5.15116e-05 0)
(0.00498593 -5.60884e-05 0)
(0.00498415 -6.08925e-05 0)
(0.00498222 -6.59325e-05 0)
(0.00498015 -7.12174e-05 0)
(0.00497792 -7.67561e-05 0)
(0.00497553 -8.25575e-05 0)
(0.00497296 -8.86306e-05 0)
(0.00497021 -9.49845e-05 0)
(0.00496727 -0.000101628 0)
(0.00496412 -0.00010857 0)
(0.00496077 -0.000115819 0)
(0.0049572 -0.000123385 0)
(0.00495339 -0.000131274 0)
(0.00494934 -0.000139497 0)
(0.00494504 -0.00014806 0)
(0.00494048 -0.000156971 0)
(0.00493564 -0.000166238 0)
(0.00493051 -0.000175867 0)
(0.00492508 -0.000185865 0)
(0.00491934 -0.000196237 0)
(0.00491327 -0.000206989 0)
(0.00490686 -0.000218123 0)
(0.0049001 -0.000229644 0)
(0.00489298 -0.000241553 0)
(0.00488548 -0.000253852 0)
(0.00487759 -0.000266541 0)
(0.0048693 -0.000279617 0)
(0.00486058 -0.000293077 0)
(0.00485144 -0.000306917 0)
(0.00484186 -0.000321129 0)
(0.00483181 -0.000335705 0)
(0.0048213 -0.000350633 0)
(0.00481032 -0.000365899 0)
(0.00479884 -0.000381487 0)
(0.00478686 -0.000397377 0)
(0.00477438 -0.000413547 0)
(0.00476138 -0.000429972 0)
(0.00474786 -0.00044662 0)