/*--------------------------------*- C++ -*----------------------------------*\
  =========                 |
  \\      /  F ield         | OpenFOAM: The Open Source CFD Toolbox
   \\    /   O peration     | Website:  https://openfoam.org
    \\  /    A nd           | Version:  11
     \\/     M anipulation  |
\*---------------------------------------------------------------------------*/
FoamFile
{
    format      ascii;
    class       volScalarField;
    location    "440";
    object      omega;
}
// * * * * * * * * * * * * * * * * * * * * * * * * * * * * * * * * * * * * * //

dimensions      [0 0 -1 0 0 0 0];

internalField   nonuniform List<scalar> 
10000
(
0.961693
0.892186
0.829086
0.771729
0.719524
0.671944
0.628521
0.588839
0.552525
0.519248
0.488711
0.460649
0.434827
0.411032
0.389075
0.368787
0.350014
0.33262
0.316482
0.30149
0.287543
0.274552
0.262437
0.251123
0.240545
0.230642
0.221362
0.212653
0.204472
0.196777
0.189533
0.182704
0.176261
0.170175
0.16442
0.158973
0.153811
0.148917
0.14427
0.139855
0.135656
0.131658
0.127849
0.124216
0.120748
0.117435
0.114267
0.111235
0.108331
0.105546
0.102873
0.100306
0.097838
0.0954632
0.0931757
0.0909702
0.0888417
0.0867855
0.0847971
0.0828721
0.0810066
0.0791968
0.0774391
0.0757302
0.0740671
0.0724467
0.0708665
0.069324
0.0678173
0.0663443
0.0649037
0.0634942
0.0621149
0.0607653
0.0594449
0.0581541
0.056893
0.0556623
0.054463
0.0532959
0.0521624
0.051064
0.050002
0.048978
0.0479936
0.0470501
0.0461489
0.0452915
0.0444792
0.0437135
0.0429962
0.042329
0.0417141
0.0411543
0.0406529
0.0402141
0.0398437
0.0395487
0.0393387
0.039226
0.961693
0.892186
0.829086
0.771729
0.719524
0.671944
0.628521
0.588839
0.552525
0.519248
0.488711
0.460649
0.434827
0.411032
0.389076
0.368787
0.350014
0.33262
0.316482
0.30149
0.287543
0.274552
0.262437
0.251123
0.240545
0.230643
0.221362
0.212653
0.204472
0.196778
0.189533
0.182705
0.176261
0.170175
0.16442
0.158973
0.153812
0.148917
0.144271
0.139855
0.135656
0.131659
0.127849
0.124217
0.120749
0.117436
0.114268
0.111236
0.108331
0.105546
0.102874
0.100307
0.097839
0.0954642
0.0931767
0.0909714
0.088843
0.0867868
0.0847985
0.0828736
0.0810082
0.0791985
0.077441
0.0757322
0.0740692
0.0724489
0.0708689
0.0693266
0.06782
0.0663472
0.0649068
0.0634974
0.0621183
0.0607688
0.0594486
0.0581579
0.0568969
0.0556663
0.0544671
0.0533001
0.0521667
0.0510684
0.0500064
0.0489825
0.0479979
0.0470543
0.0461529
0.0452953
0.0444828
0.043717
0.0429995
0.0423321
0.0417171
0.0411571
0.0406556
0.0402167
0.0398462
0.0395511
0.039341
0.0392283
0.961693
0.892186
0.829086
0.771729
0.719524
0.671944
0.628522
0.588839
0.552526
0.519248
0.488711
0.46065
0.434827
0.411033
0.389076
0.368787
0.350015
0.332621
0.316483
0.30149
0.287544
0.274553
0.262437
0.251124
0.240546
0.230643
0.221362
0.212654
0.204473
0.196778
0.189534
0.182705
0.176262
0.170176
0.164421
0.158974
0.153813
0.148918
0.144272
0.139856
0.135657
0.131659
0.12785
0.124218
0.12075
0.117437
0.114269
0.111237
0.108333
0.105548
0.102875
0.100308
0.0978406
0.0954659
0.0931785
0.0909733
0.088845
0.086789
0.0848008
0.082876
0.0810108
0.0792013
0.077444
0.0757354
0.0740726
0.0724526
0.0708728
0.0693308
0.0678244
0.066352
0.0649118
0.0635027
0.0621239
0.0607746
0.0594547
0.0581642
0.0569034
0.0556731
0.054474
0.0533072
0.052174
0.0510757
0.0500138
0.0489898
0.0480052
0.0470614
0.0461599
0.0453021
0.0444894
0.0437233
0.0430056
0.0423379
0.0417227
0.0411625
0.0406607
0.0402216
0.0398509
0.0395557
0.0393455
0.0392327
0.961693
0.892186
0.829086
0.771729
0.719524
0.671944
0.628522
0.58884
0.552526
0.519249
0.488712
0.46065
0.434828
0.411033
0.389077
0.368788
0.350015
0.332621
0.316483
0.301491
0.287544
0.274554
0.262438
0.251124
0.240546
0.230644
0.221363
0.212655
0.204474
0.196779
0.189535
0.182706
0.176263
0.170177
0.164422
0.158975
0.153814
0.148919
0.144273
0.139858
0.135658
0.131661
0.127852
0.124219
0.120752
0.117439
0.114271
0.111239
0.108334
0.10555
0.102877
0.100311
0.0978429
0.0954683
0.0931811
0.090976
0.0888479
0.0867921
0.084804
0.0828795
0.0810145
0.0792053
0.0774482
0.0757399
0.0740774
0.0724577
0.0708783
0.0693366
0.0678307
0.0663586
0.0649188
0.0635101
0.0621317
0.0607828
0.0594632
0.0581731
0.0569126
0.0556826
0.0544837
0.0533171
0.0521841
0.0510859
0.0500241
0.0490001
0.0480154
0.0470715
0.0461697
0.0453117
0.0444987
0.0437323
0.0430143
0.0423463
0.0417307
0.0411702
0.0406681
0.0402288
0.0398578
0.0395624
0.0393521
0.0392392
0.961693
0.892186
0.829086
0.77173
0.719524
0.671945
0.628522
0.58884
0.552526
0.519249
0.488712
0.460651
0.434829
0.411034
0.389077
0.368789
0.350016
0.332622
0.316484
0.301492
0.287545
0.274555
0.262439
0.251125
0.240547
0.230645
0.221364
0.212656
0.204475
0.19678
0.189536
0.182708
0.176264
0.170178
0.164423
0.158976
0.153815
0.148921
0.144274
0.139859
0.13566
0.131663
0.127854
0.124221
0.120754
0.117441
0.114273
0.111241
0.108337
0.105552
0.10288
0.100313
0.0978458
0.0954714
0.0931844
0.0909795
0.0888516
0.086796
0.0848082
0.082884
0.0810193
0.0792104
0.0774536
0.0757457
0.0740836
0.0724644
0.0708853
0.0693441
0.0678387
0.0663671
0.0649278
0.0635196
0.0621416
0.0607932
0.0594742
0.0581844
0.0569244
0.0556947
0.0544961
0.0533298
0.052197
0.0510989
0.0500372
0.0490132
0.0480284
0.0470843
0.0461823
0.0453239
0.0445106
0.0437439
0.0430254
0.0423571
0.0417411
0.0411802
0.0406777
0.040238
0.0398667
0.0395711
0.0393606
0.0392475
0.961693
0.892186
0.829087
0.77173
0.719524
0.671945
0.628523
0.588841
0.552527
0.51925
0.488713
0.460651
0.434829
0.411035
0.389078
0.36879
0.350017
0.332623
0.316485
0.301493
0.287546
0.274556
0.26244
0.251126
0.240548
0.230646
0.221366
0.212657
0.204476
0.196782
0.189537
0.182709
0.176266
0.17018
0.164425
0.158978
0.153817
0.148923
0.144276
0.139861
0.135662
0.131665
0.127856
0.124223
0.120756
0.117443
0.114276
0.111244
0.10834
0.105555
0.102883
0.100317
0.0978494
0.0954752
0.0931884
0.0909837
0.0888561
0.0868008
0.0848133
0.0828894
0.0810251
0.0792165
0.0774602
0.0757528
0.0740911
0.0724723
0.0708938
0.0693532
0.0678483
0.0663773
0.0649386
0.063531
0.0621536
0.0608058
0.0594873
0.0581981
0.0569385
0.0557092
0.0545111
0.053345
0.0522124
0.0511145
0.0500528
0.0490288
0.0480439
0.0470996
0.0461974
0.0453387
0.044525
0.0437578
0.0430389
0.0423701
0.0417536
0.0411922
0.0406893
0.0402492
0.0398775
0.0395816
0.0393708
0.0392577
0.961693
0.892186
0.829087
0.77173
0.719525
0.671945
0.628523
0.588841
0.552527
0.51925
0.488713
0.460652
0.43483
0.411035
0.389079
0.36879
0.350018
0.332624
0.316486
0.301494
0.287547
0.274557
0.262441
0.251128
0.24055
0.230648
0.221367
0.212659
0.204478
0.196783
0.189539
0.182711
0.176268
0.170182
0.164427
0.15898
0.153819
0.148925
0.144278
0.139864
0.135665
0.131667
0.127859
0.124226
0.120759
0.117446
0.114279
0.111247
0.108343
0.105559
0.102887
0.100321
0.0978537
0.0954797
0.0931931
0.0909887
0.0888614
0.0868064
0.0848193
0.0828957
0.0810318
0.0792237
0.0774679
0.0757609
0.0740998
0.0724816
0.0709037
0.0693637
0.0678594
0.0663891
0.0649511
0.0635442
0.0621675
0.0608203
0.0595024
0.0582138
0.0569548
0.055726
0.0545282
0.0533626
0.0522302
0.0511325
0.0500709
0.0490468
0.0480618
0.0471173
0.0462147
0.0453557
0.0445416
0.0437739
0.0430545
0.0423851
0.0417681
0.0412062
0.0407028
0.0402622
0.0398901
0.0395938
0.0393828
0.0392694
0.961693
0.892186
0.829087
0.77173
0.719525
0.671945
0.628523
0.588841
0.552528
0.519251
0.488714
0.460653
0.434831
0.411036
0.38908
0.368791
0.350019
0.332625
0.316487
0.301495
0.287549
0.274558
0.262443
0.251129
0.240551
0.230649
0.221369
0.21266
0.204479
0.196785
0.189541
0.182713
0.17627
0.170184
0.164429
0.158982
0.153821
0.148927
0.144281
0.139866
0.135667
0.13167
0.127862
0.124229
0.120762
0.11745
0.114282
0.111251
0.108347
0.105563
0.102891
0.100325
0.0978584
0.0954847
0.0931985
0.0909944
0.0888674
0.0868128
0.084826
0.0829029
0.0810394
0.0792318
0.0774765
0.0757701
0.0741096
0.0724921
0.0709149
0.0693755
0.067872
0.0664024
0.0649652
0.063559
0.0621831
0.0608366
0.0595194
0.0582315
0.0569731
0.0557448
0.0545475
0.0533822
0.0522501
0.0511526
0.0500911
0.049067
0.0480818
0.047137
0.0462342
0.0453747
0.0445602
0.043792
0.043072
0.0424021
0.0417845
0.0412219
0.0407179
0.0402768
0.0399043
0.0396076
0.0393963
0.0392827
0.961693
0.892186
0.829087
0.77173
0.719525
0.671946
0.628524
0.588842
0.552528
0.519251
0.488715
0.460653
0.434832
0.411037
0.389081
0.368792
0.35002
0.332626
0.316489
0.301496
0.28755
0.27456
0.262444
0.251131
0.240553
0.230651
0.22137
0.212662
0.204481
0.196787
0.189543
0.182715
0.176272
0.170186
0.164431
0.158985
0.153824
0.14893
0.144284
0.139869
0.13567
0.131673
0.127865
0.124233
0.120766
0.117454
0.114286
0.111255
0.108351
0.105568
0.102896
0.10033
0.0978637
0.0954903
0.0932044
0.0910006
0.088874
0.0868198
0.0848335
0.0829109
0.0810479
0.0792408
0.0774861
0.0757803
0.0741205
0.0725036
0.0709271
0.0693886
0.0678858
0.0664171
0.0649806
0.0635753
0.0622002
0.0608546
0.0595381
0.0582509
0.0569931
0.0557655
0.0545687
0.0534038
0.052272
0.0511747
0.0501132
0.0490891
0.0481037
0.0471588
0.0462556
0.0453957
0.0445806
0.0438119
0.0430913
0.0424207
0.0418025
0.0412393
0.0407347
0.040293
0.03992
0.0396229
0.0394112
0.0392974
0.961693
0.892186
0.829087
0.77173
0.719525
0.671946
0.628524
0.588842
0.552529
0.519252
0.488715
0.460654
0.434832
0.411038
0.389082
0.368793
0.350021
0.332627
0.31649
0.301498
0.287551
0.274561
0.262446
0.251132
0.240555
0.230653
0.221372
0.212664
0.204483
0.196789
0.189545
0.182717
0.176274
0.170188
0.164434
0.158987
0.153827
0.148933
0.144287
0.139872
0.135674
0.131677
0.127868
0.124236
0.12077
0.117458
0.114291
0.11126
0.108356
0.105573
0.102901
0.100336
0.0978695
0.0954964
0.0932108
0.0910074
0.0888812
0.0868275
0.0848416
0.0829195
0.0810571
0.0792506
0.0774965
0.0757914
0.0741323
0.0725162
0.0709405
0.0694027
0.0679009
0.0664329
0.0649974
0.063593
0.0622187
0.0608739
0.0595583
0.0582718
0.0570148
0.0557877
0.0545915
0.053427
0.0522956
0.0511984
0.0501371
0.0491129
0.0481274
0.0471822
0.0462786
0.0454183
0.0446027
0.0438334
0.0431121
0.0424409
0.041822
0.0412581
0.0407529
0.0403106
0.039937
0.0396394
0.0394274
0.0393134
0.961693
0.892186
0.829087
0.77173
0.719525
0.671946
0.628524
0.588842
0.552529
0.519252
0.488716
0.460655
0.434833
0.411039
0.389083
0.368794
0.350022
0.332629
0.316491
0.301499
0.287553
0.274563
0.262447
0.251134
0.240556
0.230654
0.221374
0.212666
0.204485
0.196791
0.189547
0.182719
0.176277
0.170191
0.164437
0.15899
0.15383
0.148936
0.14429
0.139875
0.135677
0.13168
0.127872
0.12424
0.120774
0.117462
0.114295
0.111264
0.108361
0.105578
0.102907
0.100342
0.0978757
0.095503
0.0932178
0.0910148
0.088889
0.0868357
0.0848504
0.0829288
0.081067
0.0792611
0.0775077
0.0758033
0.0741449
0.0725296
0.0709547
0.0694179
0.0679169
0.0664499
0.0650153
0.0636118
0.0622385
0.0608946
0.0595798
0.0582942
0.0570379
0.0558115
0.0546158
0.0534518
0.0523207
0.0512238
0.0501625
0.0491383
0.0481527
0.0472072
0.0463032
0.0454424
0.0446262
0.0438563
0.0431344
0.0424625
0.0418428
0.0412783
0.0407723
0.0403294
0.0399552
0.0396571
0.0394448
0.0393305
0.961693
0.892186
0.829087
0.77173
0.719525
0.671946
0.628524
0.588843
0.552529
0.519253
0.488716
0.460655
0.434834
0.41104
0.389083
0.368795
0.350023
0.33263
0.316492
0.3015
0.287554
0.274564
0.262449
0.251136
0.240558
0.230656
0.221376
0.212668
0.204487
0.196794
0.18955
0.182722
0.176279
0.170194
0.164439
0.158993
0.153833
0.148939
0.144293
0.139879
0.135681
0.131684
0.127876
0.124245
0.120778
0.117467
0.1143
0.11127
0.108367
0.105583
0.102913
0.100348
0.0978824
0.09551
0.0932252
0.0910226
0.0888973
0.0868445
0.0848597
0.0829387
0.0810775
0.0792723
0.0775195
0.0758159
0.0741583
0.0725439
0.0709699
0.0694339
0.0679339
0.0664678
0.0650342
0.0636317
0.0622593
0.0609164
0.0596025
0.0583177
0.0570622
0.0558365
0.0546414
0.0534779
0.0523471
0.0512504
0.0501893
0.049165
0.0481793
0.0472335
0.0463292
0.0454679
0.0446511
0.0438805
0.0431579
0.0424852
0.0418648
0.0412996
0.0407929
0.0403493
0.0399745
0.0396759
0.0394632
0.0393487
0.961693
0.892186
0.829087
0.77173
0.719525
0.671946
0.628524
0.588843
0.55253
0.519253
0.488717
0.460656
0.434834
0.41104
0.389084
0.368796
0.350024
0.332631
0.316494
0.301502
0.287556
0.274566
0.262451
0.251137
0.24056
0.230658
0.221378
0.21267
0.20449
0.196796
0.189552
0.182724
0.176282
0.170196
0.164442
0.158996
0.153836
0.148942
0.144297
0.139883
0.135685
0.131688
0.12788
0.124249
0.120783
0.117472
0.114305
0.111275
0.108372
0.105589
0.102919
0.100355
0.0978893
0.0955173
0.0932329
0.0910308
0.088906
0.0868537
0.0848695
0.0829491
0.0810885
0.079284
0.077532
0.0758292
0.0741724
0.0725588
0.0709857
0.0694507
0.0679516
0.0664866
0.065054
0.0636525
0.0622811
0.0609391
0.0596262
0.0583423
0.0570876
0.0558626
0.0546681
0.0535051
0.0523747
0.0512783
0.0502172
0.049193
0.048207
0.047261
0.0463562
0.0454944
0.0446771
0.0439059
0.0431825
0.0425091
0.0418879
0.0413218
0.0408144
0.0403701
0.0399947
0.0396956
0.0394825
0.0393677
0.961693
0.892186
0.829087
0.77173
0.719525
0.671946
0.628524
0.588843
0.55253
0.519253
0.488717
0.460656
0.434835
0.411041
0.389085
0.368797
0.350025
0.332632
0.316495
0.301503
0.287557
0.274567
0.262452
0.251139
0.240562
0.23066
0.22138
0.212672
0.204492
0.196799
0.189555
0.182727
0.176285
0.170199
0.164445
0.158999
0.153839
0.148946
0.144301
0.139887
0.135689
0.131692
0.127885
0.124254
0.120788
0.117477
0.114311
0.111281
0.108378
0.105596
0.102926
0.100362
0.0978966
0.095525
0.0932411
0.0910394
0.0889151
0.0868634
0.0848797
0.0829599
0.0811
0.0792962
0.077545
0.075843
0.074187
0.0725743
0.0710022
0.0694682
0.0679701
0.0665061
0.0650745
0.0636741
0.0623037
0.0609628
0.0596508
0.0583678
0.0571139
0.0558897
0.0546958
0.0535333
0.0524033
0.0513071
0.0502462
0.0492219
0.0482358
0.0472895
0.0463843
0.045522
0.0447041
0.0439321
0.0432081
0.0425339
0.0419119
0.041345
0.0408368
0.0403918
0.0400157
0.0397161
0.0395025
0.0393876
0.961693
0.892186
0.829087
0.77173
0.719525
0.671946
0.628524
0.588843
0.55253
0.519254
0.488717
0.460657
0.434836
0.411042
0.389086
0.368798
0.350026
0.332633
0.316496
0.301504
0.287559
0.274569
0.262454
0.251141
0.240564
0.230662
0.221382
0.212675
0.204494
0.196801
0.189557
0.18273
0.176288
0.170202
0.164449
0.159003
0.153843
0.14895
0.144304
0.139891
0.135693
0.131697
0.127889
0.124259
0.120793
0.117482
0.114316
0.111286
0.108384
0.105602
0.102933
0.100369
0.0979042
0.095533
0.0932495
0.0910484
0.0889245
0.0868734
0.0848903
0.0829712
0.0811119
0.0793089
0.0775584
0.0758572
0.0742022
0.0725904
0.0710192
0.0694862
0.0679891
0.0665262
0.0650957
0.0636963
0.062327
0.0609871
0.0596761
0.058394
0.057141
0.0559175
0.0547243
0.0535623
0.0524327
0.0513368
0.050276
0.0492517
0.0482654
0.0473188
0.0464132
0.0455504
0.0447318
0.0439592
0.0432344
0.0425594
0.0419366
0.0413689
0.0408599
0.0404142
0.0400375
0.0397373
0.0395233
0.0394081
0.961693
0.892186
0.829087
0.77173
0.719525
0.671946
0.628525
0.588843
0.55253
0.519254
0.488718
0.460657
0.434836
0.411042
0.389087
0.368799
0.350027
0.332634
0.316497
0.301506
0.28756
0.27457
0.262456
0.251143
0.240566
0.230664
0.221384
0.212677
0.204497
0.196804
0.18956
0.182733
0.176291
0.170205
0.164452
0.159006
0.153846
0.148953
0.144308
0.139895
0.135697
0.131701
0.127894
0.124264
0.120798
0.117487
0.114322
0.111292
0.108391
0.105609
0.10294
0.100376
0.097912
0.0955412
0.0932582
0.0910575
0.0889343
0.0868836
0.0849012
0.0829827
0.0811242
0.0793219
0.0775722
0.0758719
0.0742177
0.0726069
0.0710367
0.0695047
0.0680087
0.0665468
0.0651174
0.0637191
0.0623509
0.061012
0.059702
0.0584209
0.0571687
0.055946
0.0547534
0.053592
0.0524628
0.0513672
0.0503065
0.0492821
0.0482957
0.0473488
0.0464428
0.0455795
0.0447603
0.043987
0.0432614
0.0425856
0.041962
0.0413935
0.0408837
0.0404372
0.0400597
0.039759
0.0395445
0.0394291
0.961693
0.892186
0.829086
0.77173
0.719525
0.671946
0.628525
0.588843
0.55253
0.519254
0.488718
0.460658
0.434837
0.411043
0.389087
0.3688
0.350028
0.332635
0.316498
0.301507
0.287561
0.274572
0.262457
0.251145
0.240567
0.230666
0.221387
0.212679
0.204499
0.196806
0.189563
0.182735
0.176293
0.170209
0.164455
0.159009
0.15385
0.148957
0.144312
0.139899
0.135702
0.131706
0.127899
0.124269
0.120803
0.117493
0.114328
0.111299
0.108397
0.105616
0.102947
0.100384
0.0979199
0.0955496
0.0932671
0.0910669
0.0889442
0.0868942
0.0849124
0.0829945
0.0811367
0.0793352
0.0775863
0.0758868
0.0742336
0.0726237
0.0710545
0.0695235
0.0680286
0.0665678
0.0651395
0.0637423
0.0623751
0.0610373
0.0597284
0.0584482
0.0571969
0.0559749
0.0547831
0.0536222
0.0524934
0.051398
0.0503375
0.0493131
0.0483266
0.0473793
0.046473
0.0456091
0.0447893
0.0440153
0.0432889
0.0426123
0.0419878
0.0414185
0.0409079
0.0404606
0.0400825
0.0397811
0.0395663
0.0394506
0.961693
0.892186
0.829086
0.77173
0.719525
0.671946
0.628525
0.588843
0.552531
0.519254
0.488718
0.460658
0.434837
0.411044
0.389088
0.368801
0.350029
0.332636
0.316499
0.301508
0.287563
0.274573
0.262459
0.251146
0.240569
0.230668
0.221389
0.212681
0.204502
0.196809
0.189565
0.182738
0.176296
0.170212
0.164458
0.159013
0.153854
0.148961
0.144316
0.139903
0.135706
0.131711
0.127904
0.124274
0.120809
0.117499
0.114334
0.111305
0.108404
0.105623
0.102954
0.100391
0.0979281
0.0955582
0.0932761
0.0910765
0.0889543
0.0869049
0.0849237
0.0830066
0.0811495
0.0793487
0.0776007
0.0759021
0.0742497
0.0726408
0.0710726
0.0695426
0.0680488
0.0665891
0.0651619
0.0637658
0.0623998
0.061063
0.0597551
0.0584758
0.0572254
0.0560042
0.054813
0.0536527
0.0525244
0.0514293
0.0503689
0.0493445
0.0483578
0.0474103
0.0465035
0.0456391
0.0448186
0.0440439
0.0433168
0.0426394
0.0420141
0.0414439
0.0409325
0.0404844
0.0401056
0.0398036
0.0395883
0.0394724
0.961693
0.892186
0.829086
0.77173
0.719525
0.671946
0.628525
0.588844
0.552531
0.519255
0.488719
0.460658
0.434838
0.411044
0.389089
0.368801
0.35003
0.332637
0.316501
0.301509
0.287564
0.274575
0.26246
0.251148
0.240571
0.23067
0.221391
0.212684
0.204504
0.196811
0.189568
0.182741
0.176299
0.170215
0.164462
0.159016
0.153857
0.148965
0.14432
0.139907
0.13571
0.131715
0.127909
0.124279
0.120814
0.117504
0.11434
0.111311
0.10841
0.10563
0.102961
0.100399
0.0979363
0.0955669
0.0932853
0.0910862
0.0889646
0.0869158
0.0849352
0.0830188
0.0811624
0.0793624
0.0776152
0.0759174
0.074266
0.0726581
0.0710909
0.069562
0.0680692
0.0666106
0.0651845
0.0637895
0.0624246
0.0610889
0.059782
0.0585037
0.0572542
0.0560338
0.0548433
0.0536835
0.0525556
0.0514608
0.0504005
0.0493762
0.0483893
0.0474415
0.0465343
0.0456694
0.0448483
0.0440729
0.043345
0.0426667
0.0420406
0.0414696
0.0409573
0.0405085
0.040129
0.0398264
0.0396106
0.0394944
0.961693
0.892186
0.829086
0.77173
0.719525
0.671946
0.628525
0.588844
0.552531
0.519255
0.488719
0.460659
0.434838
0.411045
0.389089
0.368802
0.350031
0.332638
0.316502
0.301511
0.287565
0.274576
0.262462
0.25115
0.240573
0.230672
0.221393
0.212686
0.204506
0.196814
0.189571
0.182744
0.176302
0.170218
0.164465
0.15902
0.153861
0.148969
0.144324
0.139912
0.135715
0.13172
0.127914
0.124284
0.12082
0.11751
0.114346
0.111318
0.108417
0.105637
0.102969
0.100407
0.0979446
0.0955757
0.0932946
0.091096
0.088975
0.0869267
0.0849468
0.0830311
0.0811754
0.0793762
0.0776298
0.0759329
0.0742825
0.0726755
0.0711093
0.0695814
0.0680897
0.0666322
0.0652072
0.0638133
0.0624495
0.0611149
0.059809
0.0585317
0.057283
0.0560634
0.0548736
0.0537144
0.0525869
0.0514924
0.0504323
0.0494079
0.0484209
0.0474728
0.0465653
0.0456998
0.0448781
0.044102
0.0433733
0.0426942
0.0420673
0.0414954
0.0409823
0.0405327
0.0401525
0.0398493
0.0396331
0.0395166
0.961693
0.892186
0.829086
0.77173
0.719525
0.671946
0.628525
0.588844
0.552531
0.519255
0.488719
0.460659
0.434838
0.411045
0.38909
0.368803
0.350031
0.332639
0.316503
0.301512
0.287566
0.274577
0.262463
0.251151
0.240575
0.230674
0.221395
0.212688
0.204509
0.196816
0.189573
0.182747
0.176305
0.170221
0.164468
0.159023
0.153865
0.148972
0.144328
0.139916
0.135719
0.131725
0.127919
0.124289
0.120825
0.117516
0.114352
0.111324
0.108424
0.105644
0.102976
0.100415
0.097953
0.0955845
0.0933039
0.0911059
0.0889854
0.0869377
0.0849585
0.0830434
0.0811885
0.0793901
0.0776445
0.0759485
0.0742989
0.0726929
0.0711277
0.0696009
0.0681102
0.0666538
0.0652299
0.0638372
0.0624744
0.0611408
0.059836
0.0585596
0.0573119
0.0560931
0.0549039
0.0537453
0.0526182
0.051524
0.050464
0.0494397
0.0484526
0.0475042
0.0465962
0.0457302
0.0449079
0.0441311
0.0434017
0.0427218
0.042094
0.0415213
0.0410074
0.0405569
0.040176
0.0398722
0.0396555
0.0395388
0.961693
0.892186
0.829086
0.77173
0.719525
0.671946
0.628525
0.588844
0.552531
0.519255
0.488719
0.460659
0.434839
0.411045
0.38909
0.368803
0.350032
0.33264
0.316504
0.301513
0.287568
0.274579
0.262465
0.251153
0.240576
0.230676
0.221397
0.21269
0.204511
0.196818
0.189576
0.182749
0.176308
0.170224
0.164472
0.159027
0.153868
0.148976
0.144332
0.13992
0.135724
0.13173
0.127924
0.124295
0.120831
0.117522
0.114358
0.11133
0.108431
0.105651
0.102984
0.100423
0.0979613
0.0955933
0.0933132
0.0911157
0.0889958
0.0869488
0.0849701
0.0830558
0.0812016
0.0794039
0.0776592
0.075964
0.0743154
0.0727103
0.0711461
0.0696203
0.0681307
0.0666754
0.0652526
0.0638609
0.0624992
0.0611667
0.0598629
0.0585875
0.0573406
0.0561226
0.0549341
0.0537761
0.0526494
0.0515555
0.0504957
0.0494714
0.0484841
0.0475355
0.0466271
0.0457606
0.0449377
0.0441602
0.04343
0.0427493
0.0421207
0.0415471
0.0410324
0.0405812
0.0401996
0.0398952
0.039678
0.039561
0.961693
0.892186
0.829086
0.77173
0.719525
0.671946
0.628525
0.588844
0.552531
0.519255
0.488719
0.46066
0.434839
0.411046
0.389091
0.368804
0.350033
0.332641
0.316504
0.301514
0.287569
0.27458
0.262466
0.251154
0.240578
0.230678
0.221399
0.212692
0.204513
0.196821
0.189578
0.182752
0.176311
0.170227
0.164475
0.15903
0.153872
0.14898
0.144337
0.139924
0.135728
0.131734
0.127929
0.1243
0.120836
0.117528
0.114364
0.111337
0.108437
0.105658
0.102991
0.100431
0.0979697
0.0956021
0.0933225
0.0911255
0.0890062
0.0869597
0.0849818
0.0830681
0.0812146
0.0794177
0.0776738
0.0759795
0.0743317
0.0727276
0.0711644
0.0696396
0.0681511
0.0666968
0.0652751
0.0638845
0.0625239
0.0611925
0.0598896
0.0586152
0.0573691
0.0561519
0.0549641
0.0538066
0.0526804
0.0515868
0.0505271
0.0495028
0.0485154
0.0475665
0.0466578
0.0457908
0.0449673
0.0441891
0.0434582
0.0427767
0.0421472
0.0415728
0.0410573
0.0406053
0.040223
0.039918
0.0397004
0.039583
0.961693
0.892186
0.829086
0.77173
0.719525
0.671946
0.628525
0.588844
0.552531
0.519255
0.48872
0.46066
0.434839
0.411046
0.389091
0.368804
0.350033
0.332641
0.316505
0.301515
0.28757
0.274581
0.262468
0.251156
0.24058
0.230679
0.221401
0.212694
0.204515
0.196823
0.189581
0.182755
0.176314
0.17023
0.164478
0.159034
0.153876
0.148984
0.14434
0.139929
0.135733
0.131739
0.127934
0.124305
0.120842
0.117533
0.11437
0.111343
0.108444
0.105665
0.102999
0.100439
0.097978
0.0956109
0.0933318
0.0911353
0.0890165
0.0869706
0.0849933
0.0830803
0.0812275
0.0794314
0.0776883
0.0759948
0.074348
0.0727447
0.0711825
0.0696587
0.0681712
0.066718
0.0652974
0.0639079
0.0625483
0.0612179
0.059916
0.0586425
0.0573974
0.0561809
0.0549938
0.0538368
0.0527111
0.0516178
0.0505582
0.0495339
0.0485464
0.0475973
0.0466882
0.0458207
0.0449966
0.0442178
0.0434861
0.0428038
0.0421735
0.0415983
0.041082
0.0406293
0.0402462
0.0399406
0.0397225
0.039605
0.961693
0.892186
0.829086
0.77173
0.719525
0.671946
0.628525
0.588844
0.552531
0.519255
0.48872
0.46066
0.43484
0.411047
0.389092
0.368805
0.350034
0.332642
0.316506
0.301516
0.287571
0.274582
0.262469
0.251157
0.240581
0.230681
0.221403
0.212696
0.204517
0.196826
0.189583
0.182757
0.176317
0.170233
0.164481
0.159037
0.153879
0.148988
0.144344
0.139933
0.135737
0.131743
0.127939
0.12431
0.120847
0.117539
0.114376
0.111349
0.108451
0.105672
0.103006
0.100446
0.0979862
0.0956195
0.0933409
0.0911449
0.0890267
0.0869814
0.0850047
0.0830923
0.0812403
0.0794449
0.0777026
0.07601
0.074364
0.0727617
0.0712004
0.0696776
0.0681912
0.066739
0.0653194
0.0639309
0.0625724
0.061243
0.0599421
0.0586695
0.0574252
0.0562095
0.0550231
0.0538666
0.0527413
0.0516483
0.0505889
0.0495646
0.048577
0.0476277
0.0467182
0.0458502
0.0450256
0.0442461
0.0435137
0.0428306
0.0421996
0.0416235
0.0411064
0.0406529
0.0402692
0.039963
0.0397445
0.0396266
0.961693
0.892186
0.829086
0.77173
0.719525
0.671946
0.628525
0.588844
0.552531
0.519255
0.48872
0.46066
0.43484
0.411047
0.389092
0.368806
0.350035
0.332643
0.316507
0.301517
0.287572
0.274584
0.26247
0.251159
0.240583
0.230683
0.221404
0.212698
0.204519
0.196828
0.189586
0.18276
0.176319
0.170236
0.164484
0.15904
0.153882
0.148991
0.144348
0.139937
0.135741
0.131748
0.127943
0.124315
0.120852
0.117545
0.114382
0.111356
0.108457
0.105679
0.103014
0.100454
0.0979943
0.0956281
0.0933499
0.0911545
0.0890368
0.0869921
0.085016
0.0831042
0.0812529
0.0794582
0.0777167
0.0760249
0.0743798
0.0727784
0.071218
0.0696962
0.0682107
0.0667596
0.065341
0.0639536
0.0625961
0.0612677
0.0599677
0.058696
0.0574526
0.0562376
0.0550518
0.0538959
0.052771
0.0516783
0.0506191
0.0495949
0.0486071
0.0476575
0.0467477
0.0458793
0.0450541
0.0442739
0.0435408
0.0428571
0.0422252
0.0416484
0.0411305
0.0406762
0.0402918
0.039985
0.039766
0.0396479
0.961693
0.892186
0.829086
0.77173
0.719525
0.671946
0.628525
0.588844
0.552531
0.519256
0.48872
0.46066
0.43484
0.411047
0.389093
0.368806
0.350035
0.332643
0.316508
0.301517
0.287573
0.274585
0.262471
0.25116
0.240584
0.230684
0.221406
0.2127
0.204522
0.19683
0.189588
0.182762
0.176322
0.170239
0.164487
0.159043
0.153886
0.148995
0.144352
0.139941
0.135746
0.131752
0.127948
0.12432
0.120858
0.11755
0.114388
0.111362
0.108464
0.105686
0.103021
0.100462
0.0980022
0.0956365
0.0933588
0.0911638
0.0890467
0.0870025
0.085027
0.0831159
0.0812653
0.0794713
0.0777305
0.0760395
0.0743953
0.0727947
0.0712353
0.0697145
0.0682299
0.0667798
0.0653622
0.0639758
0.0626193
0.0612918
0.0599929
0.058722
0.0574794
0.0562652
0.05508
0.0539247
0.0528002
0.0517077
0.0506487
0.0496245
0.0486367
0.0476868
0.0467767
0.0459078
0.0450821
0.0443013
0.0435675
0.042883
0.0422504
0.0416728
0.0411541
0.0406991
0.040314
0.0400067
0.0397872
0.0396688
0.961693
0.892186
0.829086
0.77173
0.719525
0.671946
0.628525
0.588844
0.552531
0.519256
0.48872
0.460661
0.43484
0.411048
0.389093
0.368806
0.350036
0.332644
0.316508
0.301518
0.287574
0.274586
0.262472
0.251161
0.240586
0.230686
0.221408
0.212702
0.204523
0.196832
0.18959
0.182765
0.176325
0.170242
0.16449
0.159046
0.153889
0.148998
0.144356
0.139945
0.13575
0.131757
0.127953
0.124325
0.120863
0.117555
0.114393
0.111368
0.10847
0.105692
0.103028
0.100469
0.09801
0.0956447
0.0933675
0.091173
0.0890563
0.0870128
0.0850379
0.0831274
0.0812774
0.0794841
0.0777441
0.0760539
0.0744104
0.0728107
0.0712522
0.0697323
0.0682487
0.0667995
0.0653829
0.0639975
0.062642
0.0613155
0.0600174
0.0587474
0.0575055
0.0562921
0.0551075
0.0539527
0.0528286
0.0517365
0.0506776
0.0496534
0.0486655
0.0477155
0.046805
0.0459357
0.0451094
0.0443281
0.0435936
0.0429084
0.042275
0.0416966
0.0411772
0.0407215
0.0403358
0.0400279
0.039808
0.0396893
0.961693
0.892186
0.829086
0.77173
0.719525
0.671946
0.628525
0.588844
0.552531
0.519256
0.48872
0.460661
0.434841
0.411048
0.389093
0.368807
0.350036
0.332645
0.316509
0.301519
0.287575
0.274587
0.262474
0.251162
0.240587
0.230687
0.221409
0.212704
0.204525
0.196834
0.189593
0.182767
0.176327
0.170244
0.164493
0.159049
0.153892
0.149002
0.144359
0.139948
0.135754
0.131761
0.127957
0.12433
0.120868
0.117561
0.114399
0.111374
0.108476
0.105699
0.103035
0.100476
0.0980176
0.0956527
0.0933759
0.0911819
0.0890658
0.0870228
0.0850484
0.0831386
0.0812892
0.0794966
0.0777573
0.0760679
0.0744252
0.0728263
0.0712687
0.0697496
0.068267
0.0668188
0.0654031
0.0640186
0.062664
0.0613385
0.0600413
0.0587721
0.057531
0.0563183
0.0551343
0.05398
0.0528563
0.0517645
0.0507057
0.0496816
0.0486936
0.0477434
0.0468326
0.0459629
0.0451361
0.0443541
0.043619
0.0429331
0.042299
0.0417199
0.0411998
0.0407434
0.040357
0.0400485
0.0398282
0.0397093
0.961693
0.892186
0.829086
0.77173
0.719525
0.671946
0.628525
0.588844
0.552532
0.519256
0.48872
0.460661
0.434841
0.411048
0.389094
0.368807
0.350037
0.332645
0.31651
0.30152
0.287576
0.274588
0.262475
0.251164
0.240588
0.230689
0.221411
0.212705
0.204527
0.196836
0.189595
0.182769
0.17633
0.170247
0.164496
0.159052
0.153895
0.149005
0.144363
0.139952
0.135758
0.131765
0.127961
0.124334
0.120872
0.117566
0.114404
0.111379
0.108482
0.105705
0.103041
0.100483
0.098025
0.0956605
0.0933842
0.0911907
0.089075
0.0870325
0.0850587
0.0831494
0.0813007
0.0795088
0.0777701
0.0760814
0.0744395
0.0728415
0.0712847
0.0697665
0.0682848
0.0668374
0.0654227
0.0640391
0.0626854
0.0613608
0.0600644
0.0587961
0.0575558
0.0563437
0.0551603
0.0540065
0.0528832
0.0517916
0.0507331
0.049709
0.0487209
0.0477705
0.0468594
0.0459893
0.045162
0.0443795
0.0436438
0.0429572
0.0423224
0.0417426
0.0412217
0.0407646
0.0403776
0.0400686
0.0398479
0.0397287
0.961693
0.892186
0.829086
0.771729
0.719525
0.671946
0.628525
0.588844
0.552532
0.519256
0.488721
0.460661
0.434841
0.411048
0.389094
0.368808
0.350037
0.332646
0.31651
0.301521
0.287576
0.274589
0.262476
0.251165
0.24059
0.23069
0.221412
0.212707
0.204529
0.196838
0.189597
0.182772
0.176332
0.170249
0.164498
0.159055
0.153898
0.149008
0.144366
0.139956
0.135761
0.131769
0.127966
0.124339
0.120877
0.117571
0.114409
0.111385
0.108488
0.105711
0.103048
0.10049
0.0980322
0.0956681
0.0933922
0.0911991
0.0890839
0.0870419
0.0850686
0.0831599
0.0813118
0.0795205
0.0777826
0.0760946
0.0744534
0.0728562
0.0713001
0.0697828
0.0683019
0.0668555
0.0654416
0.0640589
0.0627062
0.0613823
0.0600868
0.0588193
0.0575797
0.0563682
0.0551855
0.0540322
0.0529092
0.0518179
0.0507595
0.0497355
0.0487474
0.0477968
0.0468853
0.0460149
0.0451871
0.0444041
0.0436677
0.0429805
0.042345
0.0417645
0.041243
0.0407852
0.0403976
0.0400881
0.039867
0.0397476
0.961693
0.892186
0.829086
0.771729
0.719525
0.671946
0.628525
0.588844
0.552532
0.519256
0.488721
0.460661
0.434841
0.411049
0.389094
0.368808
0.350038
0.332646
0.316511
0.301521
0.287577
0.274589
0.262477
0.251166
0.240591
0.230691
0.221414
0.212708
0.204531
0.19684