/*--------------------------------*- C++ -*----------------------------------*\
  =========                 |
  \\      /  F ield         | OpenFOAM: The Open Source CFD Toolbox
   \\    /   O peration     | Website:  https://openfoam.org
    \\  /    A nd           | Version:  11
     \\/     M anipulation  |
\*---------------------------------------------------------------------------*/
FoamFile
{
    format      ascii;
    class       volScalarField;
    location    "486";
    object      omega;
}
// * * * * * * * * * * * * * * * * * * * * * * * * * * * * * * * * * * * * * //

dimensions      [0 0 -1 0 0 0 0];

internalField   nonuniform List<scalar> 
10000
(
0.961692
0.892185
0.829085
0.771728
0.719523
0.671944
0.628522
0.588841
0.552528
0.519252
0.488716
0.460657
0.434836
0.411044
0.38909
0.368804
0.350034
0.332643
0.316509
0.30152
0.287577
0.274591
0.26248
0.251171
0.240598
0.230701
0.221426
0.212724
0.204549
0.196861
0.189624
0.182803
0.176367
0.170289
0.164543
0.159105
0.153954
0.149069
0.144434
0.14003
0.135843
0.131858
0.128063
0.124445
0.120993
0.117696
0.114546
0.111533
0.108649
0.105886
0.103238
0.100696
0.098256
0.0959111
0.0936559
0.0914853
0.0893946
0.0873792
0.0854347
0.0835571
0.0817427
0.0799877
0.0782888
0.0766427
0.0750462
0.0734965
0.0719907
0.0705263
0.0691006
0.0677114
0.0663565
0.0650338
0.0637415
0.0624778
0.0612412
0.0600304
0.0588444
0.0576822
0.0565434
0.0554274
0.0543343
0.0532643
0.0522179
0.0511958
0.0501993
0.0492295
0.0482883
0.0473778
0.0465002
0.0456583
0.0448554
0.044095
0.0433815
0.04272
0.0421166
0.0415792
0.0411174
0.0407431
0.0404721
0.0403243
0.961692
0.892185
0.829085
0.771728
0.719523
0.671944
0.628522
0.588841
0.552528
0.519252
0.488716
0.460657
0.434836
0.411044
0.38909
0.368804
0.350034
0.332643
0.316509
0.30152
0.287578
0.274591
0.26248
0.251171
0.240598
0.230701
0.221426
0.212724
0.204549
0.196861
0.189624
0.182803
0.176367
0.170289
0.164543
0.159105
0.153954
0.14907
0.144434
0.14003
0.135843
0.131859
0.128063
0.124445
0.120993
0.117697
0.114547
0.111534
0.10865
0.105887
0.103238
0.100697
0.0982567
0.0959117
0.0936566
0.0914861
0.0893954
0.08738
0.0854355
0.083558
0.0817437
0.0799887
0.0782899
0.0766438
0.0750474
0.0734978
0.0719921
0.0705277
0.0691021
0.0677131
0.0663582
0.0650356
0.0637434
0.0624798
0.0612433
0.0600327
0.0588467
0.0576847
0.0565459
0.0554301
0.0543371
0.0532671
0.0522208
0.0511988
0.0502023
0.0492326
0.0482915
0.0473809
0.0465033
0.0456615
0.0448585
0.044098
0.0433844
0.0427227
0.0421193
0.0415818
0.0411198
0.0407455
0.0404744
0.0403266
0.961692
0.892185
0.829086
0.771729
0.719523
0.671944
0.628522
0.588841
0.552528
0.519252
0.488716
0.460657
0.434837
0.411044
0.38909
0.368804
0.350034
0.332644
0.316509
0.301521
0.287578
0.274592
0.262481
0.251172
0.240599
0.230702
0.221427
0.212724
0.20455
0.196862
0.189624
0.182803
0.176368
0.17029
0.164544
0.159106
0.153955
0.14907
0.144435
0.140031
0.135844
0.131859
0.128064
0.124446
0.120994
0.117698
0.114548
0.111535
0.108651
0.105888
0.103239
0.100698
0.0982578
0.0959129
0.0936578
0.0914874
0.0893968
0.0873814
0.085437
0.0835596
0.0817453
0.0799905
0.0782917
0.0766457
0.0750495
0.0734999
0.0719944
0.0705301
0.0691047
0.0677158
0.0663611
0.0650387
0.0637466
0.0624832
0.0612469
0.0600365
0.0588508
0.0576889
0.0565503
0.0554347
0.0543418
0.0532721
0.0522259
0.051204
0.0502076
0.049238
0.0482969
0.0473865
0.0465089
0.045667
0.0448639
0.0441034
0.0433896
0.0427278
0.0421243
0.0415866
0.0411245
0.0407501
0.0404789
0.040331
0.961692
0.892185
0.829086
0.771729
0.719523
0.671944
0.628522
0.588841
0.552528
0.519252
0.488717
0.460657
0.434837
0.411045
0.38909
0.368805
0.350035
0.332644
0.31651
0.301521
0.287578
0.274592
0.262481
0.251172
0.240599
0.230702
0.221427
0.212725
0.20455
0.196863
0.189625
0.182804
0.176369
0.170291
0.164545
0.159107
0.153956
0.149071
0.144436
0.140032
0.135845
0.13186
0.128065
0.124447
0.120995
0.117699
0.114549
0.111536
0.108652
0.105889
0.103241
0.1007
0.0982595
0.0959146
0.0936596
0.0914893
0.0893987
0.0873835
0.0854392
0.0835619
0.0817477
0.079993
0.0782944
0.0766485
0.0750524
0.073503
0.0719976
0.0705336
0.0691084
0.0677197
0.0663652
0.0650431
0.0637512
0.0624881
0.0612521
0.0600419
0.0588565
0.0576949
0.0565566
0.0554412
0.0543486
0.0532791
0.0522331
0.0512114
0.0502151
0.0492457
0.0483047
0.0473943
0.0465168
0.0456749
0.0448717
0.0441111
0.0433972
0.0427352
0.0421314
0.0415936
0.0411313
0.0407568
0.0404855
0.0403375
0.961692
0.892185
0.829086
0.771729
0.719524
0.671944
0.628523
0.588841
0.552529
0.519253
0.488717
0.460658
0.434837
0.411045
0.389091
0.368805
0.350035
0.332645
0.31651
0.301522
0.287579
0.274593
0.262482
0.251173
0.2406
0.230703
0.221428
0.212726
0.204551
0.196863
0.189626
0.182805
0.17637
0.170292
0.164546
0.159108
0.153957
0.149072
0.144437
0.140033
0.135846
0.131862
0.128067
0.124449
0.120997
0.117701
0.114551
0.111538
0.108654
0.105891
0.103243
0.100702
0.0982616
0.0959169
0.0936619
0.0914917
0.0894013
0.0873861
0.085442
0.0835648
0.0817508
0.0799963
0.0782978
0.0766521
0.0750562
0.073507
0.0720019
0.0705381
0.0691131
0.0677247
0.0663706
0.0650487
0.0637572
0.0624944
0.0612587
0.0600489
0.0588638
0.0577025
0.0565646
0.0554495
0.0543573
0.053288
0.0522423
0.0512209
0.0502248
0.0492555
0.0483147
0.0474044
0.0465269
0.0456849
0.0448817
0.0441209
0.0434068
0.0427447
0.0421407
0.0416026
0.0411401
0.0407654
0.0404939
0.0403458
0.961692
0.892185
0.829086
0.771729
0.719524
0.671944
0.628523
0.588842
0.552529
0.519253
0.488718
0.460658
0.434838
0.411046
0.389091
0.368806
0.350036
0.332645
0.316511
0.301522
0.28758
0.274594
0.262483
0.251174
0.240601
0.230704
0.221429
0.212727
0.204552
0.196865
0.189627
0.182806
0.176371
0.170293
0.164547
0.159109
0.153958
0.149074
0.144438
0.140035
0.135848
0.131863
0.128068
0.12445
0.120999
0.117703
0.114553
0.11154
0.108656
0.105894
0.103245
0.100704
0.0982642
0.0959196
0.0936648
0.0914947
0.0894044
0.0873894
0.0854454
0.0835684
0.0817546
0.0800002
0.0783019
0.0766565
0.0750608
0.0735119
0.072007
0.0705435
0.0691189
0.0677308
0.066377
0.0650555
0.0637644
0.0625019
0.0612667
0.0600573
0.0588726
0.0577118
0.0565742
0.0554596
0.0543677
0.0532989
0.0522535
0.0512323
0.0502365
0.0492674
0.0483267
0.0474165
0.046539
0.045697
0.0448937
0.0441328
0.0434185
0.0427561
0.0421519
0.0416135
0.0411508
0.0407758
0.0405042
0.0403559
0.961692
0.892185
0.829086
0.771729
0.719524
0.671945
0.628523
0.588842
0.552529
0.519253
0.488718
0.460658
0.434838
0.411046
0.389092
0.368806
0.350037
0.332646
0.316512
0.301523
0.287581
0.274594
0.262483
0.251175
0.240602
0.230705
0.22143
0.212728
0.204553
0.196866
0.189628
0.182808
0.176372
0.170294
0.164548
0.159111
0.15396
0.149075
0.14444
0.140037
0.13585
0.131865
0.12807
0.124453
0.121001
0.117705
0.114555
0.111542
0.108659
0.105896
0.103248
0.100707
0.0982673
0.0959228
0.0936681
0.0914981
0.089408
0.0873932
0.0854494
0.0835726
0.0817589
0.0800048
0.0783068
0.0766616
0.0750662
0.0735176
0.072013
0.0705499
0.0691256
0.0677378
0.0663844
0.0650634
0.0637727
0.0625107
0.0612759
0.060067
0.0588828
0.0577225
0.0565854
0.0554712
0.0543798
0.0533114
0.0522663
0.0512455
0.05025
0.0492812
0.0483406
0.0474305
0.046553
0.045711
0.0449076
0.0441465
0.043432
0.0427694
0.0421648
0.0416262
0.0411631
0.0407879
0.040516
0.0403677
0.961692
0.892185
0.829086
0.771729
0.719524
0.671945
0.628523
0.588842
0.55253
0.519254
0.488718
0.460659
0.434839
0.411047
0.389093
0.368807
0.350037
0.332647
0.316513
0.301524
0.287582
0.274595
0.262484
0.251176
0.240603
0.230706
0.221431
0.212729
0.204554
0.196867
0.18963
0.182809
0.176374
0.170296
0.16455
0.159112
0.153961
0.149077
0.144442
0.140039
0.135852
0.131868
0.128073
0.124455
0.121003
0.117707
0.114558
0.111545
0.108662
0.105899
0.103251
0.10071
0.0982707
0.0959264
0.0936719
0.0915021
0.0894121
0.0873975
0.0854539
0.0835773
0.0817639
0.08001
0.0783123
0.0766674
0.0750723
0.073524
0.0720198
0.070557
0.0691331
0.0677458
0.0663929
0.0650723
0.0637821
0.0625206
0.0612864
0.060078
0.0588943
0.0577345
0.056598
0.0554843
0.0543934
0.0533254
0.0522808
0.0512604
0.0502652
0.0492966
0.0483563
0.0474462
0.0465688
0.0457267
0.0449232
0.0441619
0.0434472
0.0427843
0.0421794
0.0416404
0.0411771
0.0408015
0.0405294
0.0403809
0.961692
0.892185
0.829086
0.771729
0.719524
0.671945
0.628523
0.588842
0.55253
0.519254
0.488719
0.460659
0.434839
0.411047
0.389093
0.368808
0.350038
0.332648
0.316513
0.301525
0.287582
0.274596
0.262486
0.251177
0.240604
0.230708
0.221433
0.21273
0.204556
0.196869
0.189631
0.182811
0.176375
0.170298
0.164552
0.159114
0.153963
0.149079
0.144444
0.140041
0.135854
0.13187
0.128075
0.124458
0.121006
0.11771
0.114561
0.111548
0.108665
0.105903
0.103255
0.100714
0.0982745
0.0959304
0.093676
0.0915064
0.0894167
0.0874023
0.0854589
0.0835826
0.0817694
0.0800158
0.0783184
0.0766738
0.075079
0.0735311
0.0720273
0.0705649
0.0691415
0.0677546
0.0664022
0.0650821
0.0637924
0.0625315
0.0612978
0.06009
0.058907
0.0577478
0.0566119
0.0554987
0.0544084
0.0533409
0.0522967
0.0512767
0.0502819
0.0493135
0.0483734
0.0474635
0.0465861
0.045744
0.0449404
0.0441789
0.0434639
0.0428007
0.0421955
0.0416562
0.0411924
0.0408166
0.0405442
0.0403955
0.961692
0.892185
0.829086
0.771729
0.719524
0.671945
0.628524
0.588843
0.55253
0.519254
0.488719
0.46066
0.43484
0.411048
0.389094
0.368808
0.350039
0.332648
0.316514
0.301526
0.287583
0.274597
0.262487
0.251178
0.240605
0.230709
0.221434
0.212732
0.204557
0.19687
0.189633
0.182812
0.176377
0.1703
0.164554
0.159116
0.153966
0.149082
0.144446
0.140043
0.135857
0.131873
0.128078
0.12446
0.121009
0.117713
0.114564
0.111552
0.108668
0.105906
0.103258
0.100718
0.0982787
0.0959347
0.0936806
0.0915112
0.0894216
0.0874075
0.0854644
0.0835883
0.0817754
0.0800221
0.078325
0.0766808
0.0750864
0.0735389
0.0720355
0.0705735
0.0691506
0.0677642
0.0664123
0.0650927
0.0638037
0.0625434
0.0613103
0.0601031
0.0589207
0.0577622
0.0566268
0.0555143
0.0544245
0.0533576
0.0523139
0.0512944
0.0502999
0.0493318
0.0483919
0.0474821
0.0466048
0.0457627
0.0449589
0.0441972
0.043482
0.0428184
0.0422129
0.0416732
0.0412091
0.0408329
0.0405602
0.0404113
0.961692
0.892185
0.829086
0.771729
0.719524
0.671945
0.628524
0.588843
0.55253
0.519255
0.488719
0.46066
0.43484
0.411048
0.389094
0.368809
0.350039
0.332649
0.316515
0.301527
0.287584
0.274599
0.262488
0.251179
0.240607
0.23071
0.221435
0.212733
0.204559
0.196872
0.189635
0.182814
0.176379
0.170302
0.164556
0.159119
0.153968
0.149084
0.144449
0.140046
0.135859
0.131875
0.128081
0.124463
0.121012
0.117717
0.114567
0.111555
0.108672
0.10591
0.103263
0.100722
0.0982831
0.0959393
0.0936854
0.0915162
0.089427
0.087413
0.0854702
0.0835944
0.0817818
0.0800289
0.0783321
0.0766883
0.0750943
0.0735472
0.0720442
0.0705827
0.0691603
0.0677745
0.0664231
0.0651042
0.0638157
0.062556
0.0613236
0.0601171
0.0589354
0.0577775
0.0566428
0.055531
0.0544418
0.0533754
0.0523323
0.0513132
0.0503191
0.0493514
0.0484117
0.0475021
0.0466248
0.0457826
0.0449787
0.0442168
0.0435013
0.0428374
0.0422315
0.0416914
0.0412269
0.0408503
0.0405774
0.0404283
0.961692
0.892185
0.829086
0.771729
0.719524
0.671945
0.628524
0.588843
0.552531
0.519255
0.48872
0.460661
0.434841
0.411049
0.389095
0.36881
0.35004
0.33265
0.316516
0.301528
0.287586
0.2746
0.262489
0.251181
0.240608
0.230712
0.221437
0.212735
0.204561
0.196874
0.189637
0.182816
0.176381
0.170304
0.164558
0.159121
0.15397
0.149087
0.144452
0.140049
0.135862
0.131878
0.128084
0.124467
0.121016
0.11772
0.114571
0.111559
0.108676
0.105914
0.103267
0.100727
0.0982878
0.0959443
0.0936906
0.0915216
0.0894326
0.087419
0.0854764
0.0836009
0.0817887
0.0800361
0.0783397
0.0766962
0.0751026
0.073556
0.0720535
0.0705925
0.0691706
0.0677853
0.0664346
0.0651162
0.0638284
0.0625694
0.0613377
0.0601319
0.0589508
0.0577937
0.0566597
0.0555485
0.05446
0.0533942
0.0523517
0.051333
0.0503394
0.049372
0.0484325
0.0475231
0.0466458
0.0458036
0.0449996
0.0442375
0.0435217
0.0428574
0.0422511
0.0417106
0.0412457
0.0408688
0.0405956
0.0404463
0.961692
0.892185
0.829086
0.771729
0.719524
0.671945
0.628524
0.588843
0.552531
0.519255
0.48872
0.460661
0.434841
0.411049
0.389096
0.36881
0.350041
0.332651
0.316517
0.301529
0.287587
0.274601
0.26249
0.251182
0.240609
0.230713
0.221439
0.212737
0.204562
0.196875
0.189639
0.182818
0.176383
0.170306
0.164561
0.159123
0.153973
0.149089
0.144454
0.140051
0.135865
0.131882
0.128087
0.12447
0.121019
0.117724
0.114575
0.111563
0.10868
0.105919
0.103271
0.100732
0.0982928
0.0959495
0.093696
0.0915273
0.0894386
0.0874252
0.0854829
0.0836078
0.0817959
0.0800436
0.0783476
0.0767045
0.0751114
0.0735652
0.0720632
0.0706028
0.0691814
0.0677967
0.0664466
0.0651289
0.0638418
0.0625835
0.0613524
0.0601473
0.058967
0.0578106
0.0566774
0.0555669
0.054479
0.0534139
0.0523719
0.0513538
0.0503605
0.0493935
0.0484543
0.047545
0.0466678
0.0458256
0.0450214
0.0442591
0.043543
0.0428784
0.0422717
0.0417308
0.0412655
0.0408881
0.0406146
0.0404651
0.961692
0.892185
0.829086
0.771729
0.719524
0.671945
0.628524
0.588843
0.552531
0.519255
0.48872
0.460661
0.434842
0.41105
0.389096
0.368811
0.350042
0.332652
0.316518
0.30153
0.287588
0.274602
0.262491
0.251183
0.240611
0.230715
0.22144
0.212738
0.204564
0.196877
0.189641
0.18282
0.176385
0.170308
0.164563
0.159126
0.153975
0.149092
0.144457
0.140054
0.135868
0.131885
0.12809
0.124474
0.121023
0.117728
0.114579
0.111567
0.108685
0.105923
0.103276
0.100736
0.098298
0.0959549
0.0937017
0.0915332
0.0894447
0.0874317
0.0854897
0.0836149
0.0818033
0.0800515
0.0783558
0.0767132
0.0751205
0.0735748
0.0720733
0.0706134
0.0691926
0.0678086
0.0664591
0.065142
0.0638556
0.062598
0.0613677
0.0601634
0.0589838
0.0578282
0.0566957
0.0555859
0.0544987
0.0534342
0.0523929
0.0513753
0.0503825
0.0494158
0.0484769
0.0475678
0.0466907
0.0458484
0.0450441
0.0442816
0.0435652
0.0429002
0.0422931
0.0417517
0.041286
0.0409083
0.0406344
0.0404847
0.961692
0.892185
0.829086
0.771729
0.719524
0.671945
0.628524
0.588843
0.552531
0.519256
0.488721
0.460662
0.434842
0.41105
0.389097
0.368812
0.350042
0.332652
0.316519
0.301531
0.287589
0.274603
0.262493
0.251184
0.240612
0.230716
0.221442
0.21274
0.204566
0.196879
0.189643
0.182822
0.176388
0.170311
0.164565
0.159128
0.153978
0.149095
0.14446
0.140057
0.135872
0.131888
0.128094
0.124477
0.121027
0.117732
0.114583
0.111571
0.108689
0.105928
0.103281
0.100742
0.0983033
0.0959605
0.0937075
0.0915393
0.0894511
0.0874384
0.0854968
0.0836223
0.0818111
0.0800596
0.0783644
0.0767222
0.0751299
0.0735847
0.0720838
0.0706245
0.0692043
0.0678208
0.066472
0.0651556
0.0638699
0.062613
0.0613835
0.0601799
0.0590012
0.0578463
0.0567145
0.0556055
0.054519
0.0534552
0.0524144
0.0513974
0.0504051
0.0494388
0.0485002
0.0475912
0.0467142
0.0458719
0.0450675
0.0443047
0.043588
0.0429227
0.0423151
0.0417733
0.0413071
0.040929
0.0406548
0.0405049
0.961692
0.892185
0.829086
0.771729
0.719524
0.671945
0.628524
0.588843
0.552531
0.519256
0.488721
0.460662
0.434842
0.411051
0.389097
0.368812
0.350043
0.332653
0.31652
0.301532
0.28759
0.274604
0.262494
0.251186
0.240614
0.230718
0.221443
0.212742
0.204568
0.196881
0.189645
0.182824
0.17639
0.170313
0.164568
0.159131
0.153981
0.149098
0.144463
0.140061
0.135875
0.131891
0.128098
0.124481
0.12103
0.117736
0.114587
0.111576
0.108694
0.105933
0.103286
0.100747
0.0983088
0.0959662
0.0937135
0.0915456
0.0894577
0.0874453
0.085504
0.0836298
0.081819
0.0800679
0.0783731
0.0767314
0.0751396
0.073595
0.0720945
0.0706358
0.0692162
0.0678334
0.0664852
0.0651695
0.0638845
0.0626284
0.0613997
0.0601969
0.0590189
0.0578648
0.0567338
0.0556256
0.0545398
0.0534767
0.0524365
0.05142
0.0504282
0.0494623
0.0485239
0.0476152
0.0467382
0.0458959
0.0450914
0.0443284
0.0436114
0.0429457
0.0423378
0.0417955
0.0413289
0.0409503
0.0406758
0.0405257
0.961692
0.892185
0.829086
0.771729
0.719524
0.671945
0.628524
0.588843
0.552531
0.519256
0.488721
0.460662
0.434843
0.411051
0.389098
0.368813
0.350044
0.332654
0.31652
0.301533
0.287591
0.274605
0.262495
0.251187
0.240615
0.230719
0.221445
0.212743
0.20457
0.196883
0.189647
0.182827
0.176392
0.170315
0.16457
0.159134
0.153984
0.1491
0.144466
0.140064
0.135878
0.131895
0.128101
0.124485
0.121034
0.11774
0.114591
0.11158
0.108698
0.105938
0.103291
0.100752
0.0983144
0.0959721
0.0937197
0.091552
0.0894644
0.0874523
0.0855114
0.0836376
0.0818271
0.0800764
0.0783821
0.0767408
0.0751495
0.0736054
0.0721055
0.0706473
0.0692283
0.0678462
0.0664987
0.0651837
0.0638995
0.0626441
0.0614161
0.0602141
0.059037
0.0578836
0.0567535
0.055646
0.054561
0.0534985
0.052459
0.0514431
0.0504517
0.0494862
0.0485482
0.0476396
0.0467627
0.0459204
0.0451157
0.0443525
0.0436353
0.0429692
0.0423608
0.0418181
0.041351
0.0409721
0.0406972
0.0405468
0.961692
0.892185
0.829086
0.771729
0.719524
0.671945
0.628524
0.588843
0.552531
0.519256
0.488721
0.460663
0.434843
0.411052
0.389098
0.368813
0.350044
0.332655
0.316521
0.301533
0.287592
0.274606
0.262496
0.251188
0.240616
0.230721
0.221447
0.212745
0.204571
0.196885
0.189649
0.182829
0.176394
0.170318
0.164573
0.159136
0.153986
0.149103
0.144469
0.140067
0.135881
0.131898
0.128105
0.124489
0.121038
0.117744
0.114596
0.111585
0.108703
0.105943
0.103296
0.100758
0.0983201
0.095978
0.0937259
0.0915586
0.0894713
0.0874595
0.0855189
0.0836454
0.0818354
0.0800851
0.0783912
0.0767504
0.0751596
0.073616
0.0721166
0.070659
0.0692407
0.0678592
0.0665123
0.0651981
0.0639146
0.06266
0.0614328
0.0602316
0.0590553
0.0579027
0.0567734
0.0556667
0.0545824
0.0535206
0.0524817
0.0514664
0.0504755
0.0495104
0.0485727
0.0476643
0.0467875
0.0459452
0.0451404
0.044377
0.0436594
0.042993
0.0423842
0.041841
0.0413735
0.0409941
0.0407189
0.0405683
0.961692
0.892185
0.829086
0.771729
0.719524
0.671945
0.628524
0.588843
0.552531
0.519256
0.488721
0.460663
0.434843
0.411052
0.389099
0.368814
0.350045
0.332655
0.316522
0.301534
0.287593
0.274607
0.262497
0.25119
0.240618
0.230722
0.221448
0.212747
0.204573
0.196887
0.189651
0.182831
0.176397
0.17032
0.164575
0.159139
0.153989
0.149106
0.144472
0.14007
0.135885
0.131902
0.128109
0.124492
0.121042
0.117748
0.1146
0.11159
0.108708
0.105948
0.103302
0.100763
0.0983259
0.095984
0.0937322
0.0915652
0.0894782
0.0874667
0.0855264
0.0836534
0.0818437
0.0800939
0.0784004
0.07676
0.0751698
0.0736266
0.0721279
0.0706709
0.0692531
0.0678723
0.0665262
0.0652127
0.0639299
0.0626761
0.0614497
0.0602493
0.0590737
0.057922
0.0567934
0.0556875
0.054604
0.0535429
0.0525047
0.0514899
0.0504995
0.0495348
0.0485974
0.0476892
0.0468126
0.0459702
0.0451654
0.0444017
0.0436838
0.043017
0.0424078
0.0418642
0.0413962
0.0410164
0.0407408
0.04059
0.961692
0.892185
0.829086
0.771729
0.719524
0.671945
0.628524
0.588844
0.552531
0.519256
0.488722
0.460663
0.434844
0.411052
0.389099
0.368814
0.350046
0.332656
0.316523
0.301535
0.287594
0.274609
0.262499
0.251191
0.240619
0.230724
0.22145
0.212748
0.204575
0.196889
0.189653
0.182833
0.176399
0.170323
0.164578
0.159141
0.153992
0.149109
0.144475
0.140073
0.135888
0.131905
0.128112
0.124496
0.121046
0.117752
0.114605
0.111594
0.108713
0.105953
0.103307
0.100769
0.0983317
0.0959901
0.0937385
0.0915718
0.0894851
0.087474
0.0855341
0.0836614
0.0818521
0.0801027
0.0784097
0.0767698
0.07518
0.0736374
0.0721392
0.0706828
0.0692657
0.0678855
0.06654
0.0652273
0.0639452
0.0626922
0.0614666
0.060267
0.0590922
0.0579413
0.0568136
0.0557084
0.0546256
0.0535653
0.0525277
0.0515135
0.0505236
0.0495593
0.0486222
0.0477143
0.0468377
0.0459954
0.0451904
0.0444266
0.0437084
0.0430412
0.0424316
0.0418875
0.041419
0.0410388
0.0407629
0.0406119
0.961692
0.892185
0.829086
0.771729
0.719524
0.671945
0.628524
0.588844
0.552532
0.519256
0.488722
0.460663
0.434844
0.411053
0.3891
0.368815
0.350046
0.332657
0.316524
0.301536
0.287595
0.27461
0.2625
0.251192
0.24062
0.230725
0.221451
0.21275
0.204577
0.196891
0.189655
0.182835
0.176401
0.170325
0.16458
0.159144
0.153995
0.149112
0.144478
0.140077
0.135892
0.131909
0.128116
0.1245
0.121051
0.117757
0.114609
0.111599
0.108718
0.105958
0.103312
0.100774
0.0983375
0.0959962
0.0937449
0.0915785
0.0894921
0.0874813
0.0855417
0.0836694
0.0818606
0.0801115
0.0784189
0.0767795
0.0751903
0.0736482
0.0721506
0.0706947
0.0692782
0.0678987
0.066554
0.0652419
0.0639606
0.0627083
0.0614835
0.0602847
0.0591108
0.0579607
0.0568337
0.0557293
0.0546473
0.0535876
0.0525507
0.0515371
0.0505477
0.0495838
0.0486471
0.0477393
0.0468629
0.0460205
0.0452154
0.0444514
0.043733
0.0430654
0.0424554
0.0419108
0.0414419
0.0410613
0.040785
0.0406337
0.961692
0.892185
0.829085
0.771729
0.719524
0.671945
0.628524
0.588844
0.552532
0.519256
0.488722
0.460663
0.434844
0.411053
0.3891
0.368815
0.350047
0.332657
0.316524
0.301537
0.287595
0.274611
0.262501
0.251193
0.240622
0.230726
0.221453
0.212752
0.204578
0.196892
0.189657
0.182837
0.176403
0.170327
0.164583
0.159147
0.153997
0.149115
0.144481
0.14008
0.135895
0.131913
0.12812
0.124504
0.121055
0.117761
0.114614
0.111604
0.108723
0.105963
0.103318
0.10078
0.0983433
0.0960023
0.0937512
0.0915851
0.0894991
0.0874886
0.0855494
0.0836774
0.081869
0.0801204
0.0784282
0.0767893
0.0752005
0.073659
0.0721619
0.0707067
0.0692908
0.0679119
0.0665678
0.0652565
0.0639759
0.0627244
0.0615004
0.0603024
0.0591292
0.05798
0.0568538
0.0557502
0.0546689
0.0536099
0.0525736
0.0515606
0.0505717
0.0496083
0.0486718
0.0477643
0.046888
0.0460456
0.0452404
0.0444762
0.0437575
0.0430896
0.0424791
0.0419342
0.0414648
0.0410837
0.040807
0.0406556
0.961692
0.892185
0.829085
0.771729
0.719524
0.671945
0.628524
0.588844
0.552532
0.519257
0.488722
0.460664
0.434845
0.411053
0.3891
0.368816
0.350047
0.332658
0.316525
0.301538
0.287596
0.274611
0.262502
0.251194
0.240623
0.230728
0.221454
0.212753
0.20458
0.196894
0.189659
0.182839
0.176406
0.17033
0.164585
0.159149
0.154
0.149118
0.144484
0.140083
0.135898
0.131916
0.128123
0.124508
0.121059
0.117765
0.114618
0.111608
0.108727
0.105968
0.103323
0.100785
0.0983491
0.0960083
0.0937576
0.0915917
0.089506
0.0874958
0.085557
0.0836854
0.0818773
0.0801291
0.0784374
0.076799
0.0752107
0.0736697
0.0721732
0.0707185
0.0693032
0.067925
0.0665816
0.0652709
0.0639911
0.0627404
0.0615171
0.0603199
0.0591476
0.0579991
0.0568737
0.0557708
0.0546903
0.053632
0.0525964
0.0515839
0.0505955
0.0496325
0.0486964
0.047789
0.0469129
0.0460705
0.0452653
0.0445009
0.0437819
0.0431136
0.0425028
0.0419573
0.0414875
0.041106
0.040829
0.0406773
0.961692
0.892185
0.829085
0.771729
0.719524
0.671945
0.628524
0.588844
0.552532
0.519257
0.488722
0.460664
0.434845
0.411054
0.389101
0.368816
0.350048
0.332658
0.316526
0.301538
0.287597
0.274612
0.262503
0.251196
0.240624
0.230729
0.221456
0.212755
0.204582
0.196896
0.18966
0.182841
0.176408
0.170332
0.164588
0.159152
0.154003
0.149121
0.144487
0.140086
0.135902
0.131919
0.128127
0.124512
0.121063
0.117769
0.114622
0.111613
0.108732
0.105973
0.103328
0.100791
0.0983548
0.0960143
0.0937638
0.0915983
0.0895129
0.087503
0.0855645
0.0836933
0.0818856
0.0801379
0.0784466
0.0768086
0.0752208
0.0736803
0.0721843
0.0707302
0.0693156
0.067938
0.0665952
0.0652853
0.0640062
0.0627562
0.0615337
0.0603373
0.0591657
0.058018
0.0568934
0.0557913
0.0547115
0.0536539
0.0526189
0.051607
0.0506191
0.0496565
0.0487207
0.0478136
0.0469375
0.0460952
0.0452899
0.0445253
0.043806
0.0431375
0.0425262
0.0419803
0.04151
0.0411281
0.0408507
0.0406988
0.961692
0.892185
0.829085
0.771729
0.719524
0.671945
0.628524
0.588844
0.552532
0.519257
0.488722
0.460664
0.434845
0.411054
0.389101
0.368817
0.350048
0.332659
0.316526
0.301539
0.287598
0.274613
0.262504
0.251197
0.240625
0.23073
0.221457
0.212756
0.204583
0.196898
0.189662
0.182843
0.17641
0.170334
0.16459
0.159154
0.154005
0.149123
0.14449
0.140089
0.135905
0.131923
0.12813
0.124515
0.121066
0.117773
0.114627
0.111617
0.108737
0.105978
0.103333
0.100796
0.0983604
0.0960202
0.09377
0.0916048
0.0895197
0.0875102
0.085572
0.0837012
0.0818938
0.0801465
0.0784556
0.0768181
0.0752308
0.0736908
0.0721953
0.0707418
0.0693278
0.0679508
0.0666087
0.0652994
0.0640211
0.0627718
0.06155
0.0603544
0.0591836
0.0580367
0.0569128
0.0558115
0.0547324
0.0536755
0.0526411
0.0516298
0.0506424
0.0496802
0.0487447
0.0478378
0.0469619
0.0461196
0.0453142
0.0445494
0.0438299
0.043161
0.0425493
0.042003
0.0415323
0.0411499
0.0408722
0.0407201
0.961692
0.892185
0.829085
0.771729
0.719524
0.671945
0.628524
0.588844
0.552532
0.519257
0.488722
0.460664
0.434845
0.411054
0.389101
0.368817
0.350049
0.33266
0.316527
0.30154
0.287599
0.274614
0.262505
0.251198
0.240627
0.230732
0.221458
0.212758
0.204585
0.196899
0.189664
0.182845
0.176412
0.170336
0.164592
0.159157
0.154008
0.149126
0.144493
0.140092
0.135908
0.131926
0.128134
0.124519
0.12107
0.117777
0.114631
0.111622
0.108741
0.105983
0.103338
0.100801
0.098366
0.096026
0.0937761
0.0916112
0.0895263
0.0875172
0.0855793
0.0837088
0.0819019
0.0801549
0.0784645
0.0768274
0.0752406
0.0737011
0.0722062
0.0707532
0.0693398
0.0679634
0.066622
0.0653134
0.0640357
0.0627871
0.0615661
0.0603712
0.0592012
0.058055
0.0569319
0.0558313
0.0547529
0.0536967
0.0526629
0.0516521
0.0506652
0.0497034
0.0487683
0.0478616
0.0469858
0.0461435
0.0453381
0.0445732
0.0438534
0.0431841
0.0425721
0.0420254
0.0415542
0.0411714
0.0408934
0.040741
0.961692
0.892185
0.829085
0.771729
0.719524
0.671945
0.628524
0.588844
0.552532
0.519257
0.488723
0.460664
0.434845
0.411054
0.389102
0.368817
0.350049
0.33266
0.316527
0.30154
0.2876
0.274615
0.262506
0.251199
0.240628
0.230733
0.22146
0.212759
0.204587
0.196901
0.189666
0.182847
0.176414
0.170338
0.164595
0.159159
0.154011
0.149129
0.144496
0.140095
0.135911
0.131929
0.128137
0.124523
0.121074
0.117781
0.114635
0.111626
0.108746
0.105988
0.103343
0.100807
0.0983714
0.0960317
0.0937821
0.0916174
0.0895329
0.087524
0.0855865
0.0837164
0.0819098
0.0801633
0.0784732
0.0768366
0.0752502
0.0737112
0.0722168
0.0707644
0.0693515
0.0679758
0.066635
0.065327
0.06405
0.0628022
0.0615819
0.0603877
0.0592184
0.058073
0.0569506
0.0558507
0.054773
0.0537175
0.0526843
0.0516741
0.0506876
0.0497262
0.0487914
0.047885
0.0470093
0.0461671
0.0453615
0.0445964
0.0438764
0.0432069
0.0425944
0.0420473
0.0415757
0.0411926
0.0409142
0.0407616
0.961692
0.892185
0.829085
0.771729
0.719524
0.671945
0.628524
0.588844
0.552532
0.519257
0.488723
0.460664
0.434846
0.411055
0.389102
0.368818
0.350049
0.332661
0.316528
0.301541
0.2876
0.274616
0.262507
0.2512
0.240629
0.230734
0.221461
0.212761
0.204588
0.196903
0.189668
0.182849
0.176416
0.17034
0.164597
0.159162
0.154013
0.149131
0.144499
0.140098
0.135914
0.131933
0.128141
0.124526
0.121078
0.117785
0.114639
0.11163
0.10875
0.105992
0.103348
0.100812
0.0983768
0.0960373
0.0937879
0.0916235
0.0895393
0.0875307
0.0855936
0.0837238
0.0819176
0.0801714
0.0784818
0.0768455
0.0752596
0.0737211
0.0722272
0.0707753
0.069363
0.0679878
0.0666476
0.0653403
0.064064
0.0628168
0.0615972
0.0604038
0.0592352
0.0580905
0.0569689
0.0558697
0.0547927
0.0537377
0.0527052
0.0516955
0.0507095
0.0497485
0.048814
0.0479078
0.0470322
0.04619
0.0453844
0.0446192
0.043899
0.0432291
0.0426163
0.0420688
0.0415968
0.0412132
0.0409345
0.0407817
0.961692
0.892185
0.829085
0.771729
0.719524
0.671945
0.628524
0.588844
0.552532
0.519257
0.488723
0.460664
0.434846
0.411055
0.389102
0.368818
0.35005
0.332661
0.316528
0.301542
0.287601
0.274617
0.262507
0.251201
0.24063
0.230735
0.221462
0.212762
0.204589
0.196904
0.189669
0.182851
0.176418
0.170342
0.164599
0.159164
0.154015
0.149134
0.144501
0.140101
0.135917
0.131936
0.128144
0.12453
0.121081
0.117789
0.114643
0.111634
0.108755
0.105997
0.103353
0.100817
0.0983819
0.0960427
0.0937936
0.0916295
0.0895456
0.0875373
0.0856004
0.083731
0.0819251
0.0801793
0.0784901
0.0768543
0.0752688
0.0737307
0.0722373
0.070786
0.0693742
0.0679996
0.06666
0.0653533
0.0640776
0.0628311
0.0616122
0.0604195
0.0592516
0.0581076
0.0569867
0.0558882
0.0548118
0.0537575
0.0527255
0.0517163
0.0507308
0.0497702
0.048836
0.04793
0.0470546
0.0462124
0.0454068
0.0446414
0.0439209
0.0432508
0.0426376
0.0420897
0.0416173
0.0412334
0.0409544
0.0408013
0.961692
0.892185
0.829085
0.771729
0.719524
0.671945
0.628524
0.588844
0.552532
0.519257
0.488723
0.460665
0.434846
0.411055
0.389102
0.368818
0.35005
0.332661
0.316529
0.301542
0.287602
0.274617
0.262508
0.251202
0.240631
0.230736
0.221463
0.212763
0.204591
0.196906
0.189671
0.182852
0.17642
0.170344
0.164601
0.159166
0.154018
0.149136
0.144504
0.140103
0.13592
0.131939
0.128147
0.124533
0.121085
0.117793
0.114647
0.111638
0.108759
0.106001
0.103357
0.100822
0.098387
0.096048
0.0937991
0.0916353
0.0895516
0.0875436
0.0856071
0.083738
0.0819325
0.080187
0.0784982
0.0768628
0.0752777
0.0737401
0.0722472
0.0707963
0.0693851
0.068011
0.066672
0.0653659
0.0640908
0.062845
0.0616268
0.0604347
0.0592675
0.0581242
0.0570039
0.0559061
0.0548303
0.0537766
0.0527452
0.0517366
0.0507515
0.0497913
0.0488573
0.0479516
0.0470763
0.0462342
0.0454285
0.044663
0.0439423
0.0432719
0.0426584
0.0421101
0.0416373
0.041253
0.0409736
0.0408204
0.961692
0.892185
0.829085
0.771729
0.719524
0.671945
0.628524
0.588844
0.552532
0.519257
0.488723
0.460665
0.434846
0.411055
0.389103
0.368819
0.350051
0.332662
0.316529
0.301543
0.287602
0.274618
0.262509
0.251202
0.240632
0.230737
0.221464
0.212764
0.204592
0.196907
0.189672
0.182854
0.176421
0.170346
0.164603
0.159168
0.15402
0.149139
0.144506
0.140106
0.135923
0.131942
0.12815
0.124536
0.121088
0.117796
0.11465
0.111642
0.108763
0.106005
0.103362
0.100826
0.0983919
0.0960531
0.0938045
0.0916409
0.0895575
0.0875498
0.0856136
0.0837447
0.0819396
0.0801944
0.078506
0.076871
0.0752863
0.0737491
0.0722567
0.0708063
0.0693956
0.0680221
0.0666836
0.0653781
0.0641036
0.0628584
0.0616408
0.0604494
0.0592829
0.0581402
0.0570206
0.0559234
0.0548483
0.0537952
0.0527643
0.0517561
0.0507715
0.0498117
0.048878
0.0479725
0.0470973
0.0462552
0.0454495
0.0446839
0.043963
0.0432923
0.0426785
0.0421298
0.0416567
0.041272
0.0409923
0.0408389
0.961692
0.892185
0.829085
0.771729
0.719524
0.671945
0.628524
0.588844
0.552532
0.519257
0.488723
0.460665
0.434846
0.411055
0.389103
0.368819
0.350051
0.332662
0.31653
0.301543
0.287603
0.274619
0.26251
0.251203
0.240633
0.230738
0.221466
0.212766
0.204593