/*--------------------------------*- C++ -*----------------------------------*\
  =========                 |
  \\      /  F ield         | OpenFOAM: The Open Source CFD Toolbox
   \\    /   O peration     | Website:  https://openfoam.org
    \\  /    A nd           | Version:  11
     \\/     M anipulation  |
\*---------------------------------------------------------------------------*/
FoamFile
{
    format      ascii;
    class       volScalarField;
    location    "420";
    object      nut;
}
// * * * * * * * * * * * * * * * * * * * * * * * * * * * * * * * * * * * * * //

dimensions      [0 2 -1 0 0 0 0];

internalField   nonuniform List<scalar> 
10000
(
0.000977116
0.000936702
0.000899639
0.000865609
0.000834324
0.000805525
0.000778979
0.000754479
0.000731836
0.000710882
0.000691463
0.000673443
0.000656699
0.000641118
0.0006266
0.000613053
0.000600396
0.000588553
0.000577458
0.000567049
0.000557271
0.000548072
0.000539408
0.000531236
0.000523518
0.000516221
0.000509311
0.000502761
0.000496543
0.000490634
0.000485012
0.000479656
0.000474547
0.00046967
0.000465008
0.000460547
0.000456274
0.000452178
0.000448247
0.000444472
0.000440844
0.000437356
0.000434001
0.000430772
0.000427665
0.000424676
0.000421801
0.000419039
0.000416388
0.000413847
0.000411418
0.000409103
0.000406905
0.000404829
0.000402879
0.000401064
0.000399392
0.000397873
0.000396519
0.000395342
0.000394357
0.000393581
0.00039303
0.000392723
0.000392681
0.000392923
0.000393471
0.000394345
0.000395566
0.000397155
0.000399129
0.000401506
0.000404299
0.000407519
0.000411172
0.000415262
0.000419786
0.000424736
0.000430101
0.000435863
0.000441998
0.000448475
0.000455258
0.000462307
0.000469575
0.00047701
0.000484557
0.000492157
0.000499744
0.000507251
0.000514602
0.000521718
0.000528512
0.000534891
0.000540752
0.000545979
0.00055045
0.000554026
0.000556558
0.000557882
0.000977116
0.000936702
0.00089964
0.00086561
0.000834324
0.000805525
0.000778979
0.000754479
0.000731836
0.000710882
0.000691463
0.000673444
0.000656699
0.000641118
0.0006266
0.000613054
0.000600396
0.000588554
0.000577459
0.00056705
0.000557271
0.000548073
0.000539408
0.000531237
0.000523519
0.000516221
0.000509312
0.000502761
0.000496544
0.000490635
0.000485013
0.000479657
0.000474548
0.000469671
0.000465009
0.000460548
0.000456275
0.000452179
0.000448248
0.000444474
0.000440846
0.000437358
0.000434003
0.000430774
0.000427667
0.000424678
0.000421804
0.000419041
0.00041639
0.000413849
0.000411421
0.000409106
0.000406908
0.000404831
0.000402882
0.000401067
0.000399395
0.000397876
0.000396521
0.000395344
0.000394359
0.000393582
0.000393031
0.000392724
0.00039268
0.000392922
0.000393468
0.000394341
0.000395562
0.000397149
0.000399122
0.000401497
0.000404288
0.000407506
0.000411157
0.000415245
0.000419767
0.000424717
0.00043008
0.00043584
0.000441973
0.000448447
0.000455228
0.000462274
0.00046954
0.000476973
0.000484519
0.000492118
0.000499706
0.000507212
0.000514563
0.00052168
0.000528475
0.000534854
0.000540716
0.000545944
0.000550415
0.000553992
0.000556525
0.000557849
0.000977116
0.000936702
0.00089964
0.00086561
0.000834324
0.000805525
0.00077898
0.00075448
0.000731837
0.000710883
0.000691464
0.000673445
0.0006567
0.000641119
0.000626601
0.000613055
0.000600397
0.000588555
0.00057746
0.000567051
0.000557272
0.000548074
0.00053941
0.000531238
0.000523521
0.000516223
0.000509313
0.000502763
0.000496546
0.000490637
0.000485015
0.000479659
0.000474551
0.000469673
0.000465011
0.000460551
0.000456278
0.000452182
0.000448251
0.000444476
0.000440849
0.000437361
0.000434006
0.000430778
0.000427671
0.000424682
0.000421807
0.000419045
0.000416394
0.000413853
0.000411424
0.000409109
0.000406911
0.000404835
0.000402885
0.00040107
0.000399397
0.000397878
0.000396522
0.000395344
0.000394358
0.00039358
0.000393028
0.000392719
0.000392674
0.000392914
0.000393458
0.000394328
0.000395546
0.00039713
0.0003991
0.000401471
0.000404258
0.000407472
0.00041112
0.000415204
0.000419722
0.000424667
0.000430027
0.000435783
0.000441912
0.000448382
0.000455159
0.000462202
0.000469464
0.000476895
0.00048444
0.000492039
0.000499626
0.000507132
0.000514484
0.000521602
0.000528398
0.00053478
0.000540644
0.000545873
0.000550346
0.000553925
0.000556459
0.000557784
0.000977116
0.000936702
0.00089964
0.00086561
0.000834325
0.000805526
0.000778981
0.000754481
0.000731838
0.000710884
0.000691465
0.000673446
0.000656701
0.00064112
0.000626602
0.000613056
0.000600399
0.000588557
0.000577462
0.000567053
0.000557274
0.000548076
0.000539412
0.00053124
0.000523523
0.000516225
0.000509316
0.000502766
0.000496548
0.00049064
0.000485017
0.000479662
0.000474554
0.000469677
0.000465015
0.000460554
0.000456282
0.000452186
0.000448255
0.000444481
0.000440853
0.000437366
0.000434011
0.000430782
0.000427676
0.000424687
0.000421812
0.00041905
0.000416399
0.000413858
0.00041143
0.000409115
0.000406916
0.000404839
0.000402889
0.000401074
0.0003994
0.00039788
0.000396524
0.000395344
0.000394357
0.000393577
0.000393023
0.000392712
0.000392664
0.000392901
0.000393441
0.000394308
0.000395521
0.000397101
0.000399066
0.000401432
0.000404213
0.000407421
0.000411063
0.000415141
0.000419653
0.000424592
0.000429946
0.000435696
0.000441819
0.000448283
0.000455055
0.000462094
0.000469352
0.000476781
0.000484324
0.000491921
0.000499508
0.000507015
0.000514368
0.000521487
0.000528286
0.00053467
0.000540536
0.000545768
0.000550244
0.000553826
0.000556363
0.000557688
0.000977116
0.000936702
0.00089964
0.000865611
0.000834326
0.000805527
0.000778982
0.000754482
0.000731839
0.000710885
0.000691467
0.000673447
0.000656703
0.000641122
0.000626604
0.000613058
0.000600401
0.000588559
0.000577464
0.000567055
0.000557277
0.000548078
0.000539414
0.000531243
0.000523526
0.000516228
0.000509319
0.000502769
0.000496552
0.000490643
0.000485021
0.000479666
0.000474558
0.000469681
0.000465019
0.000460559
0.000456287
0.000452191
0.000448261
0.000444486
0.000440859
0.000437372
0.000434017
0.000430789
0.000427682
0.000424694
0.000421819
0.000419057
0.000416406
0.000413865
0.000411437
0.000409121
0.000406923
0.000404846
0.000402895
0.000401079
0.000399405
0.000397883
0.000396525
0.000395345
0.000394355
0.000393574
0.000393016
0.000392702
0.000392651
0.000392884
0.00039342
0.000394282
0.000395489
0.000397063
0.000399021
0.00040138
0.000404155
0.000407355
0.000410989
0.000415058
0.000419562
0.000424493
0.000429839
0.000435582
0.000441697
0.000448155
0.00045492
0.000461953
0.000469208
0.000476633
0.000484173
0.000491769
0.000499355
0.000506863
0.000514218
0.000521339
0.00052814
0.000534527
0.000540397
0.000545632
0.000550111
0.000553697
0.000556235
0.000557562
0.000977116
0.000936702
0.000899641
0.000865611
0.000834326
0.000805527
0.000778983
0.000754483
0.00073184
0.000710886
0.000691468
0.000673449
0.000656705
0.000641124
0.000626606
0.00061306
0.000600403
0.000588561
0.000577466
0.000567058
0.00055728
0.000548082
0.000539418
0.000531246
0.000523529
0.000516232
0.000509323
0.000502773
0.000496556
0.000490648
0.000485026
0.000479671
0.000474563
0.000469686
0.000465025
0.000460565
0.000456293
0.000452197
0.000448267
0.000444493
0.000440866
0.000437379
0.000434025
0.000430797
0.00042769
0.000424702
0.000421828
0.000419066
0.000416415
0.000413874
0.000411445
0.00040913
0.000406931
0.000404853
0.000402902
0.000401085
0.00039941
0.000397887
0.000396528
0.000395345
0.000394354
0.000393569
0.000393009
0.000392691
0.000392636
0.000392863
0.000393394
0.00039425
0.000395451
0.000397017
0.000398967
0.000401318
0.000404083
0.000407274
0.000410898
0.000414958
0.000419452
0.000424373
0.000429709
0.000435442
0.000441549
0.000447998
0.000454756
0.000461783
0.000469032
0.000476453
0.00048399
0.000491584
0.00049917
0.000506678
0.000514034
0.000521158
0.000527962
0.000534353
0.000540227
0.000545465
0.000549948
0.000553537
0.00055608
0.000557407
0.000977116
0.000936703
0.000899641
0.000865612
0.000834327
0.000805528
0.000778984
0.000754484
0.000731842
0.000710888
0.00069147
0.000673451
0.000656707
0.000641126
0.000626609
0.000613063
0.000600406
0.000588564
0.000577469
0.000567061
0.000557283
0.000548085
0.000539421
0.00053125
0.000523533
0.000516236
0.000509327
0.000502778
0.000496561
0.000490653
0.000485031
0.000479676
0.000474569
0.000469693
0.000465032
0.000460572
0.0004563
0.000452205
0.000448275
0.000444501
0.000440875
0.000437388
0.000434034
0.000430806
0.0004277
0.000424712
0.000421838
0.000419076
0.000416425
0.000413885
0.000411456
0.00040914
0.000406941
0.000404863
0.000402911
0.000401093
0.000399416
0.000397892
0.000396531
0.000395346
0.000394352
0.000393564
0.000393
0.000392678
0.000392618
0.00039284
0.000393364
0.000394213
0.000395406
0.000396964
0.000398905
0.000401246
0.000404001
0.000407181
0.000410794
0.000414842
0.000419324
0.000424234
0.000429559
0.000435281
0.000441377
0.000447817
0.000454566
0.000461585
0.000468828
0.000476244
0.000483778
0.00049137
0.000498955
0.000506463
0.000513821
0.000520947
0.000527755
0.00053415
0.000540028
0.000545271
0.000549758
0.000553351
0.000555897
0.000557226
0.000977116
0.000936703
0.000899642
0.000865612
0.000834328
0.000805529
0.000778985
0.000754485
0.000731843
0.00071089
0.000691472
0.000673453
0.000656709
0.000641129
0.000626611
0.000613066
0.000600409
0.000588567
0.000577473
0.000567065
0.000557287
0.000548089
0.000539426
0.000531255
0.000523538
0.000516241
0.000509333
0.000502783
0.000496567
0.000490659
0.000485038
0.000479683
0.000474576
0.0004697
0.000465039
0.00046058
0.000456308
0.000452214
0.000448284
0.000444511
0.000440885
0.000437398
0.000434044
0.000430817
0.000427711
0.000424723
0.00042185
0.000419088
0.000416437
0.000413897
0.000411468
0.000409152
0.000406952
0.000404874
0.000402921
0.000401102
0.000399424
0.000397898
0.000396535
0.000395348
0.000394351
0.000393559
0.000392991
0.000392664
0.000392599
0.000392814
0.000393332
0.000394172
0.000395357
0.000396905
0.000398836
0.000401165
0.000403909
0.000407076
0.000410676
0.000414712
0.000419181
0.000424078
0.00042939
0.000435099
0.000441183
0.000447613
0.000454353
0.000461363
0.000468599
0.000476009
0.000483539
0.000491128
0.000498712
0.00050622
0.00051358
0.000520709
0.00052752
0.00053392
0.000539802
0.00054505
0.000549542
0.00055314
0.000555688
0.000557019
0.000977116
0.000936703
0.000899642
0.000865613
0.000834329
0.00080553
0.000778986
0.000754487
0.000731845
0.000710892
0.000691474
0.000673455
0.000656712
0.000641132
0.000626614
0.000613069
0.000600412
0.000588571
0.000577477
0.000567069
0.000557291
0.000548094
0.000539431
0.00053126
0.000523543
0.000516247
0.000509339
0.00050279
0.000496573
0.000490666
0.000485045
0.000479691
0.000474584
0.000469708
0.000465048
0.000460589
0.000456318
0.000452223
0.000448295
0.000444522
0.000440896
0.00043741
0.000434056
0.00043083
0.000427724
0.000424737
0.000421863
0.000419102
0.000416451
0.000413911
0.000411481
0.000409165
0.000406966
0.000404886
0.000402933
0.000401113
0.000399434
0.000397906
0.000396541
0.00039535
0.00039435
0.000393555
0.000392982
0.00039265
0.000392578
0.000392786
0.000393296
0.000394128
0.000395303
0.000396841
0.00039876
0.000401077
0.000403808
0.000406962
0.000410548
0.000414569
0.000419023
0.000423906
0.000429203
0.0004349
0.000440971
0.000447388
0.000454117
0.000461118
0.000468346
0.00047575
0.000483274
0.00049086
0.000498443
0.000505952
0.000513313
0.000520444
0.00052726
0.000533664
0.000539552
0.000544805
0.000549302
0.000552904
0.000555456
0.000556788
0.000977116
0.000936703
0.000899642
0.000865614
0.000834329
0.000805531
0.000778987
0.000754488
0.000731847
0.000710894
0.000691476
0.000673458
0.000656714
0.000641135
0.000626618
0.000613072
0.000600416
0.000588575
0.000577481
0.000567073
0.000557296
0.000548099
0.000539436
0.000531265
0.000523549
0.000516253
0.000509345
0.000502796
0.000496581
0.000490673
0.000485053
0.000479699
0.000474593
0.000469717
0.000465058
0.000460599
0.000456328
0.000452234
0.000448306
0.000444534
0.000440908
0.000437423
0.00043407
0.000430843
0.000427739
0.000424751
0.000421878
0.000419117
0.000416466
0.000413926
0.000411497
0.000409181
0.00040698
0.000404901
0.000402946
0.000401125
0.000399444
0.000397915
0.000396547
0.000395354
0.00039435
0.00039355
0.000392972
0.000392635
0.000392556
0.000392757
0.000393258
0.000394081
0.000395245
0.000396772
0.000398678
0.000400983
0.000403699
0.000406838
0.000410409
0.000414414
0.000418853
0.00042372
0.000429002
0.000434684
0.000440741
0.000447145
0.000453862
0.000460853
0.000468072
0.000475468
0.000482988
0.00049057
0.000498151
0.00050566
0.000513022
0.000520157
0.000526976
0.000533385
0.000539278
0.000544537
0.000549039
0.000552646
0.000555202
0.000556535
0.000977117
0.000936703
0.000899643
0.000865614
0.00083433
0.000805532
0.000778989
0.00075449
0.000731849
0.000710896
0.000691478
0.00067346
0.000656717
0.000641138
0.000626621
0.000613076
0.00060042
0.000588579
0.000577485
0.000567078
0.000557301
0.000548104
0.000539441
0.000531271
0.000523556
0.00051626
0.000509352
0.000502804
0.000496588
0.000490682
0.000485062
0.000479708
0.000474602
0.000469727
0.000465068
0.00046061
0.00045634
0.000452246
0.000448319
0.000444547
0.000440922
0.000437437
0.000434084
0.000430858
0.000427754
0.000424767
0.000421895
0.000419134
0.000416483
0.000413943
0.000411514
0.000409198
0.000406997
0.000404916
0.000402961
0.000401139
0.000399456
0.000397925
0.000396554
0.000395358
0.00039435
0.000393546
0.000392963
0.000392619
0.000392534
0.000392727
0.000393219
0.000394032
0.000395185
0.000396699
0.000398592
0.000400883
0.000403584
0.000406708
0.000410262
0.000414251
0.000418673
0.000423522
0.000428788
0.000434454
0.000440496
0.000446886
0.000453591
0.00046057
0.000467779
0.000475168
0.000482682
0.00049026
0.000497838
0.000505347
0.00051271
0.000519848
0.000526671
0.000533085
0.000538983
0.000544248
0.000548755
0.000552367
0.000554926
0.000556262
0.000977117
0.000936704
0.000899643
0.000865615
0.000834331
0.000805533
0.00077899
0.000754491
0.00073185
0.000710898
0.000691481
0.000673463
0.00065672
0.000641141
0.000626624
0.00061308
0.000600424
0.000588583
0.00057749
0.000567083
0.000557306
0.00054811
0.000539447
0.000531278
0.000523562
0.000516267
0.00050936
0.000502812
0.000496597
0.00049069
0.000485071
0.000479718
0.000474612
0.000469738
0.000465079
0.000460622
0.000456352
0.000452259
0.000448332
0.000444561
0.000440937
0.000437452
0.0004341
0.000430875
0.000427771
0.000424785
0.000421912
0.000419152
0.000416502
0.000413962
0.000411533
0.000409216
0.000407015
0.000404934
0.000402978
0.000401154
0.00039947
0.000397936
0.000396563
0.000395364
0.000394352
0.000393543
0.000392955
0.000392604
0.000392511
0.000392696
0.000393179
0.00039398
0.000395122
0.000396623
0.000398503
0.000400778
0.000403463
0.00040657
0.000410107
0.000414078
0.000418483
0.000423315
0.000428563
0.000434211
0.000440237
0.000446613
0.000453304
0.000460271
0.00046747
0.00047485
0.000482357
0.000489931
0.000497507
0.000505015
0.000512379
0.000519519
0.000526346
0.000532765
0.000538669
0.000543939
0.000548452
0.000552069
0.000554632
0.00055597
0.000977117
0.000936704
0.000899643
0.000865615
0.000834332
0.000805534
0.000778991
0.000754493
0.000731852
0.0007109
0.000691483
0.000673465
0.000656723
0.000641144
0.000626628
0.000613083
0.000600428
0.000588588
0.000577495
0.000567088
0.000557312
0.000548116
0.000539454
0.000531284
0.000523569
0.000516274
0.000509368
0.00050282
0.000496606
0.0004907
0.000485081
0.000479728
0.000474623
0.00046975
0.000465091
0.000460634
0.000456366
0.000452273
0.000448347
0.000444576
0.000440953
0.000437469
0.000434117
0.000430893
0.000427789
0.000424803
0.000421932
0.000419171
0.000416522
0.000413982
0.000411553
0.000409236
0.000407035
0.000404953
0.000402996
0.000401171
0.000399485
0.000397949
0.000396573
0.00039537
0.000394354
0.000393541
0.000392946
0.000392589
0.000392488
0.000392664
0.000393137
0.000393928
0.000395057
0.000396545
0.00039841
0.000400669
0.000403338
0.000406428
0.000409947
0.000413899
0.000418285
0.000423098
0.000428328
0.000433959
0.000439968
0.000446327
0.000453004
0.000459959
0.000467146
0.000474518
0.000482018
0.000489587
0.000497159
0.000504666
0.000512031
0.000519173
0.000526004
0.000532427
0.000538337
0.000543613
0.000548132
0.000551754
0.00055432
0.00055566
0.000977117
0.000936704
0.000899644
0.000865616
0.000834332
0.000805535
0.000778992
0.000754494
0.000731854
0.000710902
0.000691485
0.000673468
0.000656726
0.000641147
0.000626631
0.000613087
0.000600433
0.000588593
0.0005775
0.000567093
0.000557318
0.000548122
0.00053946
0.000531291
0.000523577
0.000516282
0.000509376
0.000502829
0.000496615
0.00049071
0.000485091
0.000479739
0.000474635
0.000469762
0.000465104
0.000460648
0.00045638
0.000452288
0.000448362
0.000444592
0.000440969
0.000437486
0.000434135
0.000430911
0.000427809
0.000424823
0.000421952
0.000419192
0.000416543
0.000414003
0.000411574
0.000409257
0.000407056
0.000404973
0.000403015
0.000401189
0.000399501
0.000397963
0.000396584
0.000395378
0.000394358
0.000393539
0.000392939
0.000392574
0.000392466
0.000392632
0.000393095
0.000393874
0.000394991
0.000396464
0.000398314
0.000400558
0.000403209
0.000406281
0.000409781
0.000413714
0.000418081
0.000422874
0.000428085
0.000433697
0.000439689
0.000446032
0.000452693
0.000459634
0.000466811
0.000474172
0.000481665
0.000489228
0.000496797
0.000504302
0.000511668
0.000518812
0.000525647
0.000532074
0.000537989
0.000543271
0.000547796
0.000551423
0.000553993
0.000555335
0.000977117
0.000936704
0.000899644
0.000865616
0.000834333
0.000805536
0.000778993
0.000754496
0.000731855
0.000710904
0.000691488
0.000673471
0.000656729
0.000641151
0.000626635
0.000613091
0.000600437
0.000588597
0.000577505
0.000567099
0.000557324
0.000548128
0.000539467
0.000531299
0.000523585
0.00051629
0.000509385
0.000502838
0.000496625
0.00049072
0.000485102
0.00047975
0.000474647
0.000469774
0.000465117
0.000460662
0.000456394
0.000452303
0.000448378
0.000444609
0.000440987
0.000437504
0.000434154
0.000430931
0.000427829
0.000424844
0.000421974
0.000419215
0.000416565
0.000414026
0.000411597
0.00040928
0.000407078
0.000404995
0.000403036
0.000401208
0.000399519
0.000397978
0.000396596
0.000395386
0.000394362
0.000393538
0.000392932
0.00039256
0.000392443
0.000392601
0.000393053
0.00039382
0.000394923
0.000396383
0.000398217
0.000400444
0.000403078
0.000406131
0.000409612
0.000413525
0.000417871
0.000422645
0.000427836
0.000433429
0.000439402
0.000445728
0.000452374
0.0004593
0.000466464
0.000473816
0.0004813
0.000488857
0.000496422
0.000503926
0.000511291
0.000518438
0.000525275
0.000531708
0.000537628
0.000542915
0.000547445
0.000551078
0.000553652
0.000554996
0.000977117
0.000936704
0.000899644
0.000865617
0.000834334
0.000805537
0.000778994
0.000754497
0.000731857
0.000710906
0.00069149
0.000673473
0.000656732
0.000641154
0.000626639
0.000613095
0.000600441
0.000588602
0.00057751
0.000567105
0.00055733
0.000548135
0.000539474
0.000531306
0.000523592
0.000516299
0.000509394
0.000502848
0.000496635
0.000490731
0.000485113
0.000479762
0.000474659
0.000469788
0.000465131
0.000460676
0.00045641
0.000452319
0.000448395
0.000444627
0.000441005
0.000437524
0.000434174
0.000430952
0.000427851
0.000424867
0.000421996
0.000419238
0.000416589
0.00041405
0.000411621
0.000409304
0.000407102
0.000405018
0.000403058
0.000401229
0.000399538
0.000397995
0.00039661
0.000395396
0.000394367
0.000393538
0.000392925
0.000392547
0.000392422
0.000392569
0.00039301
0.000393766
0.000394856
0.0003963
0.000398119
0.000400328
0.000402944
0.000405978
0.000409439
0.000413332
0.000417658
0.000422411
0.000427581
0.000433154
0.000439109
0.000445417
0.000452046
0.000458958
0.00046611
0.00047345
0.000480926
0.000488477
0.000496038
0.000503539
0.000510904
0.000518052
0.000524892
0.000531329
0.000537254
0.000542547
0.000547083
0.00055072
0.000553299
0.000554645
0.000977117
0.000936704
0.000899645
0.000865617
0.000834334
0.000805538
0.000778995
0.000754498
0.000731859
0.000710907
0.000691492
0.000673476
0.000656735
0.000641157
0.000626642
0.000613099
0.000600446
0.000588607
0.000577516
0.00056711
0.000557336
0.000548141
0.000539481
0.000531314
0.000523601
0.000516308
0.000509403
0.000502857
0.000496645
0.000490742
0.000485125
0.000479775
0.000474672
0.000469801
0.000465146
0.000460691
0.000456426
0.000452336
0.000448412
0.000444645
0.000441024
0.000437544
0.000434195
0.000430973
0.000427873
0.00042489
0.00042202
0.000419262
0.000416614
0.000414075
0.000411646
0.000409329
0.000407126
0.000405042
0.000403081
0.000401251
0.000399558
0.000398012
0.000396625
0.000395407
0.000394374
0.000393539
0.00039292
0.000392534
0.0003924
0.000392538
0.000392968
0.000393711
0.000394788
0.000396218
0.00039802
0.000400212
0.000402809
0.000405824
0.000409265
0.000413137
0.000417441
0.000422173
0.000427323
0.000432876
0.000438811
0.000445101
0.000451713
0.00045861
0.000465748
0.000473078
0.000480544
0.000488088
0.000495644
0.000503143
0.000510507
0.000517656
0.0005245
0.00053094
0.00053687
0.000542168
0.00054671
0.000550352
0.000552935
0.000554283
0.000977117
0.000936705
0.000899645
0.000865617
0.000834335
0.000805539
0.000778997
0.0007545
0.00073186
0.000710909
0.000691494
0.000673478
0.000656738
0.00064116
0.000626646
0.000613103
0.00060045
0.000588612
0.000577521
0.000567116
0.000557342
0.000548148
0.000539488
0.000531321
0.000523609
0.000516316
0.000509412
0.000502867
0.000496656
0.000490753
0.000485137
0.000479787
0.000474686
0.000469815
0.000465161
0.000460707
0.000456442
0.000452353
0.000448431
0.000444664
0.000441044
0.000437564
0.000434217
0.000430996
0.000427896
0.000424913
0.000422045
0.000419287
0.000416639
0.000414101
0.000411672
0.000409355
0.000407152
0.000405067
0.000403106
0.000401273
0.000399579
0.000398031
0.00039664
0.000395419
0.000394381
0.000393541
0.000392916
0.000392522
0.00039238
0.000392508
0.000392927
0.000393658
0.00039472
0.000396135
0.000397921
0.000400095
0.000402674
0.000405669
0.000409089
0.00041294
0.000417223
0.000421934
0.000427062
0.000432594
0.000438509
0.000444781
0.000451376
0.000458257
0.000465382
0.000472699
0.000480156
0.000487693
0.000495244
0.00050274
0.000510103
0.000517253
0.000524099
0.000530543
0.000536478
0.000541781
0.000546328
0.000549975
0.000552562
0.000553913
0.000977117
0.000936705
0.000899645
0.000865618
0.000834335
0.000805539
0.000778997
0.000754501
0.000731862
0.000710911
0.000691497
0.000673481
0.00065674
0.000641164
0.00062665
0.000613107
0.000600455
0.000588617
0.000577526
0.000567122
0.000557348
0.000548155
0.000539496
0.000531329
0.000523617
0.000516325
0.000509422
0.000502878
0.000496666
0.000490764
0.000485149
0.0004798
0.000474699
0.00046983
0.000465176
0.000460723
0.000456459
0.000452371
0.000448449
0.000444683
0.000441065
0.000437585
0.000434239
0.000431019
0.00042792
0.000424938
0.00042207
0.000419313
0.000416666
0.000414128
0.000411699
0.000409382
0.000407179
0.000405093
0.000403131
0.000401297
0.000399601
0.000398051
0.000396657
0.000395432
0.00039439
0.000393544
0.000392912
0.000392511
0.00039236
0.000392479
0.000392886
0.000393604
0.000394653
0.000396053
0.000397822
0.000399979
0.000402538
0.000405513
0.000408913
0.000412743
0.000417004
0.000421693
0.0004268
0.000432311
0.000438206
0.000444458
0.000451036
0.000457902
0.000465012
0.000472317
0.000479764
0.000487293
0.000494839
0.000502331
0.000509694
0.000516844
0.000523692
0.00053014
0.000536079
0.000541387
0.000545939
0.000549591
0.000552182
0.000553535
0.000977117
0.000936705
0.000899645
0.000865618
0.000834336
0.00080554
0.000778998
0.000754502
0.000731863
0.000710913
0.000691499
0.000673483
0.000656743
0.000641167
0.000626653
0.000613111
0.000600459
0.000588622
0.000577532
0.000567128
0.000557354
0.000548162
0.000539503
0.000531337
0.000523626
0.000516334
0.000509431
0.000502888
0.000496677
0.000490776
0.000485161
0.000479813
0.000474713
0.000469844
0.000465191
0.000460739
0.000456476
0.000452389
0.000448468
0.000444703
0.000441085
0.000437607
0.000434261
0.000431042
0.000427944
0.000424963
0.000422096
0.000419339
0.000416693
0.000414155
0.000411727
0.00040941
0.000407206
0.00040512
0.000403157
0.000401322
0.000399624
0.000398071
0.000396675
0.000395446
0.000394399
0.000393548
0.00039291
0.000392501
0.000392342
0.00039245
0.000392847
0.000393552
0.000394587
0.000395971
0.000397724
0.000399863
0.000402403
0.000405358
0.000408737
0.000412546
0.000416785
0.000421452
0.000426538
0.000432028
0.000437902
0.000444135
0.000450695
0.000457544
0.00046464
0.000471933
0.00047937
0.000486891
0.000494431
0.000501919
0.00050928
0.000516431
0.000523281
0.000529732
0.000535676
0.000540988
0.000545545
0.000549202
0.000551797
0.000553153
0.000977117
0.000936705
0.000899646
0.000865619
0.000834336
0.000805541
0.000778999
0.000754503
0.000731865
0.000710915
0.000691501
0.000673486
0.000656746
0.00064117
0.000626657
0.000613115
0.000600463
0.000588626
0.000577537
0.000567133
0.000557361
0.000548168
0.00053951
0.000531345
0.000523634
0.000516343
0.000509441
0.000502898
0.000496688
0.000490788
0.000485174
0.000479826
0.000474727
0.000469859
0.000465207
0.000460756
0.000456493
0.000452407
0.000448487
0.000444723
0.000441106
0.000437629
0.000434284
0.000431066
0.000427969
0.000424989
0.000422122
0.000419367
0.00041672
0.000414183
0.000411755
0.000409438
0.000407235
0.000405148
0.000403184
0.000401348
0.000399648
0.000398093
0.000396693
0.000395461
0.000394409
0.000393553
0.000392908
0.000392492
0.000392324
0.000392422
0.000392808
0.000393501
0.000394522
0.000395891
0.000397627
0.000399748
0.00040227
0.000405204
0.000408562
0.000412349
0.000416567
0.000421212
0.000426276
0.000431744
0.000437598
0.000443812
0.000450354
0.000457187
0.000464268
0.000471548
0.000478975
0.000486487
0.000494021
0.000501506
0.000508865
0.000516015
0.000522867
0.000529321
0.000535268
0.000540586
0.000545148
0.000548809
0.000551408
0.000552766
0.000977117
0.000936705
0.000899646
0.000865619
0.000834337
0.000805541
0.000779
0.000754504
0.000731866
0.000710916
0.000691503
0.000673488
0.000656749
0.000641173
0.00062666
0.000613119
0.000600468
0.000588631
0.000577542
0.000567139
0.000557367
0.000548175
0.000539518
0.000531353
0.000523643
0.000516352
0.000509451
0.000502909
0.000496699
0.000490799
0.000485186
0.00047984
0.000474741
0.000469874
0.000465223
0.000460773
0.000456511
0.000452426
0.000448507
0.000444744
0.000441128
0.000437651
0.000434308
0.00043109
0.000427994
0.000425015
0.000422149
0.000419394
0.000416749
0.000414212
0.000411784
0.000409467
0.000407263
0.000405176
0.000403211
0.000401374
0.000399672
0.000398115
0.000396712
0.000395476
0.00039442
0.000393558
0.000392907
0.000392484
0.000392307
0.000392396
0.00039277
0.000393451
0.000394458
0.000395812
0.000397531
0.000399635
0.000402137
0.000405052
0.000408389
0.000412155
0.000416351
0.000420974
0.000426016
0.000431463
0.000437296
0.00044349
0.000450014
0.00045683
0.000463896
0.000471164
0.00047858
0.000486084
0.000493611
0.000501092
0.000508449
0.000515599
0.000522452
0.000528908
0.00053486
0.000540182
0.000544748
0.000548414
0.000551016
0.000552377
0.000977117
0.000936705
0.000899646
0.000865619
0.000834337
0.000805542
0.000779001
0.000754505
0.000731867
0.000710918
0.000691504
0.00067349
0.000656751
0.000641176
0.000626663
0.000613123
0.000600472
0.000588636
0.000577547
0.000567145
0.000557373
0.000548182
0.000539525
0.000531361
0.000523651
0.000516361
0.00050946
0.000502919
0.000496711
0.000490811
0.000485199
0.000479853
0.000474756
0.000469889
0.000465239
0.000460789
0.000456529
0.000452445
0.000448526
0.000444764
0.000441149
0.000437674
0.000434331
0.000431115
0.000428019
0.000425041
0.000422176
0.000419422
0.000416777
0.000414241
0.000411813
0.000409497
0.000407293
0.000405205
0.000403239
0.0004014
0.000399697
0.000398137
0.000396732
0.000395492
0.000394432
0.000393565
0.000392907
0.000392477
0.000392291
0.00039237
0.000392734
0.000393402
0.000394395
0.000395734
0.000397438
0.000399523
0.000402007
0.000404902
0.000408219
0.000411963
0.000416137
0.000420738
0.000425758
0.000431184
0.000436997
0.000443171
0.000449676
0.000456476
0.000463527
0.000470782
0.000478187
0.000485682
0.000493203
0.000500679
0.000508033
0.000515183
0.000522037
0.000528496
0.000534451
0.000539777
0.000544348
0.000548019
0.000550624
0.000551987
0.000977117
0.000936705
0.000899646
0.00086562
0.000834338
0.000805543
0.000779002
0.000754506
0.000731869
0.000710919
0.000691506
0.000673492
0.000656754
0.000641179
0.000626667
0.000613126
0.000600476
0.00058864
0.000577552
0.00056715
0.000557379
0.000548188
0.000539532
0.000531368
0.000523659
0.00051637
0.00050947
0.000502929
0.000496722
0.000490823
0.000485211
0.000479866
0.00047477
0.000469904
0.000465254
0.000460806
0.000456546
0.000452463
0.000448546
0.000444785
0.000441171
0.000437697
0.000434355
0.000431139
0.000428045
0.000425067
0.000422203
0.00041945
0.000416806
0.00041427
0.000411843
0.000409526
0.000407322
0.000405234
0.000403267
0.000401427
0.000399722
0.00039816
0.000396752
0.000395509
0.000394444
0.000393572
0.000392908
0.000392471
0.000392277
0.000392346
0.000392698
0.000393355
0.000394334
0.000395658
0.000397346
0.000399414
0.000401879
0.000404755
0.000408051
0.000411774
0.000415926
0.000420505
0.000425504
0.000430909
0.000436701
0.000442856
0.000449343
0.000456125
0.000463162
0.000470403
0.000477797
0.000485283
0.000492797
0.000500268
0.00050762
0.000514769
0.000521624
0.000528085
0.000534043
0.000539374
0.000543949
0.000547624
0.000550233
0.000551597
0.000977117
0.000936705
0.000899646
0.00086562
0.000834338
0.000805543
0.000779003
0.000754507
0.00073187
0.000710921
0.000691508
0.000673494
0.000656756
0.000641181
0.00062667
0.00061313
0.00060048
0.000588645
0.000577557
0.000567156
0.000557385
0.000548195
0.000539539
0.000531376
0.000523668
0.000516379
0.00050948
0.000502939
0.000496733
0.000490835
0.000485224
0.00047988
0.000474784
0.000469919
0.00046527
0.000460823
0.000456564
0.000452482
0.000448566
0.000444805
0.000441193
0.000437719
0.000434378
0.000431164
0.00042807
0.000425094
0.00042223
0.000419478
0.000416834
0.000414299
0.000411872
0.000409556
0.000407352
0.000405263
0.000403296
0.000401455
0.000399748
0.000398184
0.000396773
0.000395526
0.000394457
0.00039358
0.00039291
0.000392465
0.000392263