/*--------------------------------*- C++ -*----------------------------------*\
  =========                 |
  \\      /  F ield         | OpenFOAM: The Open Source CFD Toolbox
   \\    /   O peration     | Website:  https://openfoam.org
    \\  /    A nd           | Version:  11
     \\/     M anipulation  |
\*---------------------------------------------------------------------------*/
FoamFile
{
    format      ascii;
    class       volVectorField;
    location    "1272";
    object      U;
}
// * * * * * * * * * * * * * * * * * * * * * * * * * * * * * * * * * * * * * //

dimensions      [0 1 -1 0 0 0 0];

internalField   nonuniform List<vector> 
10000
(
(0.005 -3.61726e-11 0)
(0.005 -1.0176e-10 0)
(0.005 -1.65117e-10 0)
(0.005 -2.28508e-10 0)
(0.005 -2.92968e-10 0)
(0.005 -3.59108e-10 0)
(0.005 -4.2738e-10 0)
(0.005 -4.98146e-10 0)
(0.005 -5.71707e-10 0)
(0.005 -6.48329e-10 0)
(0.005 -7.28254e-10 0)
(0.005 -8.11706e-10 0)
(0.005 -8.98898e-10 0)
(0.005 -9.90037e-10 0)
(0.005 -1.08532e-09 0)
(0.005 -1.18494e-09 0)
(0.005 -1.2891e-09 0)
(0.005 -1.39798e-09 0)
(0.005 -1.51177e-09 0)
(0.005 -1.63065e-09 0)
(0.005 -1.75483e-09 0)
(0.005 -1.88448e-09 0)
(0.005 -2.01978e-09 0)
(0.005 -2.16094e-09 0)
(0.005 -2.30814e-09 0)
(0.005 -2.46157e-09 0)
(0.005 -2.62141e-09 0)
(0.005 -2.78786e-09 0)
(0.005 -2.96111e-09 0)
(0.005 -3.14135e-09 0)
(0.005 -3.32877e-09 0)
(0.005 -3.52357e-09 0)
(0.005 -3.72594e-09 0)
(0.005 -3.93608e-09 0)
(0.005 -4.15417e-09 0)
(0.005 -4.38041e-09 0)
(0.005 -4.61501e-09 0)
(0.005 -4.85815e-09 0)
(0.005 -5.11003e-09 0)
(0.005 -5.37085e-09 0)
(0.005 -5.64081e-09 0)
(0.005 -5.9201e-09 0)
(0.005 -6.20893e-09 0)
(0.005 -6.5075e-09 0)
(0.005 -6.816e-09 0)
(0.005 -7.13465e-09 0)
(0.00499999 -7.46363e-09 0)
(0.00499999 -7.80317e-09 0)
(0.00499999 -8.15347e-09 0)
(0.00499999 -8.51474e-09 0)
(0.00499999 -8.88718e-09 0)
(0.00499999 -9.27103e-09 0)
(0.00499999 -9.66649e-09 0)
(0.00499999 -1.00738e-08 0)
(0.00499999 -1.04932e-08 0)
(0.00499999 -1.09248e-08 0)
(0.00499999 -1.1369e-08 0)
(0.00499999 -1.18259e-08 0)
(0.00499999 -1.22959e-08 0)
(0.00499999 -1.27791e-08 0)
(0.00499999 -1.32758e-08 0)
(0.00499999 -1.37863e-08 0)
(0.00499999 -1.43108e-08 0)
(0.00499999 -1.48495e-08 0)
(0.00499998 -1.54028e-08 0)
(0.00499998 -1.59708e-08 0)
(0.00499998 -1.65539e-08 0)
(0.00499998 -1.71521e-08 0)
(0.00499998 -1.77658e-08 0)
(0.00499998 -1.83952e-08 0)
(0.00499998 -1.90403e-08 0)
(0.00499998 -1.97013e-08 0)
(0.00499998 -2.03783e-08 0)
(0.00499998 -2.10712e-08 0)
(0.00499997 -2.17799e-08 0)
(0.00499997 -2.25042e-08 0)
(0.00499997 -2.32437e-08 0)
(0.00499997 -2.39979e-08 0)
(0.00499997 -2.47659e-08 0)
(0.00499997 -2.55468e-08 0)
(0.00499997 -2.63392e-08 0)
(0.00499997 -2.71413e-08 0)
(0.00499996 -2.79509e-08 0)
(0.00499996 -2.87652e-08 0)
(0.00499996 -2.95807e-08 0)
(0.00499996 -3.03932e-08 0)
(0.00499996 -3.11976e-08 0)
(0.00499996 -3.19875e-08 0)
(0.00499995 -3.27555e-08 0)
(0.00499995 -3.34929e-08 0)
(0.00499995 -3.41893e-08 0)
(0.00499995 -3.48328e-08 0)
(0.00499995 -3.54104e-08 0)
(0.00499995 -3.59088e-08 0)
(0.00499995 -3.63169e-08 0)
(0.00499995 -3.66192e-08 0)
(0.00499994 -3.67795e-08 0)
(0.00499994 -3.67801e-08 0)
(0.00499994 -3.66515e-08 0)
(0.00499994 -3.65092e-08 0)
(0.005 -3.1902e-11 0)
(0.005 -9.3496e-11 0)
(0.005 -1.543e-10 0)
(0.005 -2.15427e-10 0)
(0.005 -2.77642e-10 0)
(0.005 -3.41474e-10 0)
(0.005 -4.07332e-10 0)
(0.005 -4.7555e-10 0)
(0.005 -5.46413e-10 0)
(0.005 -6.20172e-10 0)
(0.005 -6.97053e-10 0)
(0.005 -7.7727e-10 0)
(0.005 -8.61022e-10 0)
(0.005 -9.48503e-10 0)
(0.005 -1.0399e-09 0)
(0.005 -1.13539e-09 0)
(0.005 -1.23515e-09 0)
(0.005 -1.33937e-09 0)
(0.005 -1.44821e-09 0)
(0.005 -1.56185e-09 0)
(0.005 -1.68046e-09 0)
(0.005 -1.80421e-09 0)
(0.005 -1.93328e-09 0)
(0.005 -2.06783e-09 0)
(0.005 -2.20804e-09 0)
(0.005 -2.35408e-09 0)
(0.005 -2.50611e-09 0)
(0.005 -2.66432e-09 0)
(0.005 -2.82888e-09 0)
(0.005 -2.99994e-09 0)
(0.005 -3.1777e-09 0)
(0.005 -3.36231e-09 0)
(0.005 -3.55396e-09 0)
(0.005 -3.75281e-09 0)
(0.005 -3.95903e-09 0)
(0.005 -4.1728e-09 0)
(0.005 -4.39429e-09 0)
(0.005 -4.62367e-09 0)
(0.005 -4.86111e-09 0)
(0.005 -5.10679e-09 0)
(0.005 -5.36088e-09 0)
(0.005 -5.62356e-09 0)
(0.005 -5.89499e-09 0)
(0.005 -6.17536e-09 0)
(0.005 -6.46484e-09 0)
(0.005 -6.76361e-09 0)
(0.00499999 -7.07185e-09 0)
(0.00499999 -7.38975e-09 0)
(0.00499999 -7.71748e-09 0)
(0.00499999 -8.05524e-09 0)
(0.00499999 -8.40321e-09 0)
(0.00499999 -8.76161e-09 0)
(0.00499999 -9.13062e-09 0)
(0.00499999 -9.51045e-09 0)
(0.00499999 -9.90132e-09 0)
(0.00499999 -1.03034e-08 0)
(0.00499999 -1.07171e-08 0)
(0.00499999 -1.11424e-08 0)
(0.00499999 -1.15797e-08 0)
(0.00499999 -1.20292e-08 0)
(0.00499999 -1.24911e-08 0)
(0.00499999 -1.29658e-08 0)
(0.00499999 -1.34536e-08 0)
(0.00499999 -1.39546e-08 0)
(0.00499998 -1.44692e-08 0)
(0.00499998 -1.49978e-08 0)
(0.00499998 -1.55405e-08 0)
(0.00499998 -1.60977e-08 0)
(0.00499998 -1.66698e-08 0)
(0.00499998 -1.7257e-08 0)
(0.00499998 -1.78595e-08 0)
(0.00499998 -1.84777e-08 0)
(0.00499998 -1.91117e-08 0)
(0.00499998 -1.97618e-08 0)
(0.00499997 -2.0428e-08 0)
(0.00499997 -2.11104e-08 0)
(0.00499997 -2.18089e-08 0)
(0.00499997 -2.25233e-08 0)
(0.00499997 -2.32531e-08 0)
(0.00499997 -2.39978e-08 0)
(0.00499997 -2.47565e-08 0)
(0.00499997 -2.5528e-08 0)
(0.00499996 -2.63106e-08 0)
(0.00499996 -2.71023e-08 0)
(0.00499996 -2.79003e-08 0)
(0.00499996 -2.87014e-08 0)
(0.00499996 -2.95012e-08 0)
(0.00499996 -3.02947e-08 0)
(0.00499995 -3.10757e-08 0)
(0.00499995 -3.18366e-08 0)
(0.00499995 -3.25688e-08 0)
(0.00499995 -3.32621e-08 0)
(0.00499995 -3.39049e-08 0)
(0.00499995 -3.44835e-08 0)
(0.00499995 -3.49793e-08 0)
(0.00499995 -3.53705e-08 0)
(0.00499994 -3.56528e-08 0)
(0.00499994 -3.58387e-08 0)
(0.00499994 -3.59425e-08 0)
(0.00499994 -3.60156e-08 0)
(0.005 -2.84647e-11 0)
(0.005 -8.58832e-11 0)
(0.005 -1.43821e-10 0)
(0.005 -2.02548e-10 0)
(0.005 -2.62484e-10 0)
(0.005 -3.2402e-10 0)
(0.005 -3.87499e-10 0)
(0.005 -4.53219e-10 0)
(0.005 -5.21441e-10 0)
(0.005 -5.92399e-10 0)
(0.005 -6.66307e-10 0)
(0.005 -7.43364e-10 0)
(0.005 -8.23758e-10 0)
(0.005 -9.07669e-10 0)
(0.005 -9.95271e-10 0)
(0.005 -1.08673e-09 0)
(0.005 -1.18222e-09 0)
(0.005 -1.28189e-09 0)
(0.005 -1.38592e-09 0)
(0.005 -1.49445e-09 0)
(0.005 -1.60764e-09 0)
(0.005 -1.72566e-09 0)
(0.005 -1.84866e-09 0)
(0.005 -1.97679e-09 0)
(0.005 -2.11021e-09 0)
(0.005 -2.24908e-09 0)
(0.005 -2.39354e-09 0)
(0.005 -2.54375e-09 0)
(0.005 -2.69987e-09 0)
(0.005 -2.86204e-09 0)
(0.005 -3.03042e-09 0)
(0.005 -3.20516e-09 0)
(0.005 -3.38641e-09 0)
(0.005 -3.57433e-09 0)
(0.005 -3.76906e-09 0)
(0.005 -3.97075e-09 0)
(0.005 -4.17955e-09 0)
(0.005 -4.39561e-09 0)
(0.005 -4.61909e-09 0)
(0.005 -4.85013e-09 0)
(0.005 -5.08888e-09 0)
(0.005 -5.33549e-09 0)
(0.005 -5.59011e-09 0)
(0.005 -5.8529e-09 0)
(0.005 -6.124e-09 0)
(0.005 -6.40358e-09 0)
(0.00499999 -6.69178e-09 0)
(0.00499999 -6.98878e-09 0)
(0.00499999 -7.29473e-09 0)
(0.00499999 -7.6098e-09 0)
(0.00499999 -7.93417e-09 0)
(0.00499999 -8.26801e-09 0)
(0.00499999 -8.61151e-09 0)
(0.00499999 -8.96486e-09 0)
(0.00499999 -9.32826e-09 0)
(0.00499999 -9.70193e-09 0)
(0.00499999 -1.00861e-08 0)
(0.00499999 -1.04809e-08 0)
(0.00499999 -1.08867e-08 0)
(0.00499999 -1.13038e-08 0)
(0.00499999 -1.17323e-08 0)
(0.00499999 -1.21725e-08 0)
(0.00499999 -1.26249e-08 0)
(0.00499999 -1.30896e-08 0)
(0.00499998 -1.35671e-08 0)
(0.00499998 -1.40576e-08 0)
(0.00499998 -1.45616e-08 0)
(0.00499998 -1.50794e-08 0)
(0.00499998 -1.56114e-08 0)
(0.00499998 -1.6158e-08 0)
(0.00499998 -1.67197e-08 0)
(0.00499998 -1.72967e-08 0)
(0.00499998 -1.78894e-08 0)
(0.00499998 -1.84984e-08 0)
(0.00499997 -1.91238e-08 0)
(0.00499997 -1.97659e-08 0)
(0.00499997 -2.0425e-08 0)
(0.00499997 -2.11011e-08 0)
(0.00499997 -2.17942e-08 0)
(0.00499997 -2.25041e-08 0)
(0.00499997 -2.32304e-08 0)
(0.00499997 -2.39724e-08 0)
(0.00499996 -2.4729e-08 0)
(0.00499996 -2.54988e-08 0)
(0.00499996 -2.62798e-08 0)
(0.00499996 -2.70695e-08 0)
(0.00499996 -2.78646e-08 0)
(0.00499996 -2.86609e-08 0)
(0.00499996 -2.94534e-08 0)
(0.00499995 -3.02357e-08 0)
(0.00499995 -3.10003e-08 0)
(0.00499995 -3.17383e-08 0)
(0.00499995 -3.24392e-08 0)
(0.00499995 -3.30902e-08 0)
(0.00499995 -3.36761e-08 0)
(0.00499995 -3.41843e-08 0)
(0.00499994 -3.46064e-08 0)
(0.00499994 -3.49368e-08 0)
(0.00499994 -3.51756e-08 0)
(0.00499994 -3.53352e-08 0)
(0.005 -2.61175e-11 0)
(0.005 -7.98067e-11 0)
(0.005 -1.34835e-10 0)
(0.005 -1.91124e-10 0)
(0.005 -2.48825e-10 0)
(0.005 -3.08178e-10 0)
(0.005 -3.6944e-10 0)
(0.005 -4.32859e-10 0)
(0.005 -4.98665e-10 0)
(0.005 -5.67071e-10 0)
(0.005 -6.38274e-10 0)
(0.005 -7.12458e-10 0)
(0.005 -7.89801e-10 0)
(0.005 -8.70469e-10 0)
(0.005 -9.54625e-10 0)
(0.005 -1.04243e-09 0)
(0.005 -1.13403e-09 0)
(0.005 -1.22958e-09 0)
(0.005 -1.32922e-09 0)
(0.005 -1.43312e-09 0)
(0.005 -1.5414e-09 0)
(0.005 -1.65421e-09 0)
(0.005 -1.7717e-09 0)
(0.005 -1.894e-09 0)
(0.005 -2.02126e-09 0)
(0.005 -2.15361e-09 0)
(0.005 -2.29119e-09 0)
(0.005 -2.43414e-09 0)
(0.005 -2.5826e-09 0)
(0.005 -2.7367e-09 0)
(0.005 -2.89657e-09 0)
(0.005 -3.06235e-09 0)
(0.005 -3.23417e-09 0)
(0.005 -3.41216e-09 0)
(0.005 -3.59646e-09 0)
(0.005 -3.78719e-09 0)
(0.005 -3.98448e-09 0)
(0.005 -4.18847e-09 0)
(0.005 -4.39927e-09 0)
(0.005 -4.61703e-09 0)
(0.005 -4.84186e-09 0)
(0.005 -5.07389e-09 0)
(0.005 -5.31327e-09 0)
(0.005 -5.56011e-09 0)
(0.005 -5.81454e-09 0)
(0.005 -6.07671e-09 0)
(0.00499999 -6.34675e-09 0)
(0.00499999 -6.6248e-09 0)
(0.00499999 -6.911e-09 0)
(0.00499999 -7.20551e-09 0)
(0.00499999 -7.50847e-09 0)
(0.00499999 -7.82006e-09 0)
(0.00499999 -8.14044e-09 0)
(0.00499999 -8.46978e-09 0)
(0.00499999 -8.80828e-09 0)
(0.00499999 -9.15615e-09 0)
(0.00499999 -9.51358e-09 0)
(0.00499999 -9.88082e-09 0)
(0.00499999 -1.02581e-08 0)
(0.00499999 -1.06457e-08 0)
(0.00499999 -1.10439e-08 0)
(0.00499999 -1.1453e-08 0)
(0.00499999 -1.18733e-08 0)
(0.00499999 -1.23051e-08 0)
(0.00499998 -1.27489e-08 0)
(0.00499998 -1.3205e-08 0)
(0.00499998 -1.36739e-08 0)
(0.00499998 -1.41559e-08 0)
(0.00499998 -1.46516e-08 0)
(0.00499998 -1.51614e-08 0)
(0.00499998 -1.56859e-08 0)
(0.00499998 -1.62256e-08 0)
(0.00499998 -1.67809e-08 0)
(0.00499998 -1.73525e-08 0)
(0.00499997 -1.79409e-08 0)
(0.00499997 -1.85464e-08 0)
(0.00499997 -1.91696e-08 0)
(0.00499997 -1.98109e-08 0)
(0.00499997 -2.04706e-08 0)
(0.00499997 -2.11487e-08 0)
(0.00499997 -2.18453e-08 0)
(0.00499997 -2.25602e-08 0)
(0.00499996 -2.32927e-08 0)
(0.00499996 -2.40421e-08 0)
(0.00499996 -2.48071e-08 0)
(0.00499996 -2.55856e-08 0)
(0.00499996 -2.63753e-08 0)
(0.00499996 -2.71727e-08 0)
(0.00499996 -2.79738e-08 0)
(0.00499995 -2.87731e-08 0)
(0.00499995 -2.95641e-08 0)
(0.00499995 -3.03387e-08 0)
(0.00499995 -3.10873e-08 0)
(0.00499995 -3.17982e-08 0)
(0.00499995 -3.2458e-08 0)
(0.00499995 -3.30543e-08 0)
(0.00499994 -3.35759e-08 0)
(0.00499994 -3.40091e-08 0)
(0.00499994 -3.43382e-08 0)
(0.00499994 -3.45101e-08 0)
(0.005 -2.42065e-11 0)
(0.005 -7.44868e-11 0)
(0.005 -1.26576e-10 0)
(0.005 -1.80295e-10 0)
(0.005 -2.35639e-10 0)
(0.005 -2.92722e-10 0)
(0.005 -3.51717e-10 0)
(0.005 -4.12812e-10 0)
(0.005 -4.76199e-10 0)
(0.005 -5.42064e-10 0)
(0.005 -6.10584e-10 0)
(0.005 -6.81928e-10 0)
(0.005 -7.56257e-10 0)
(0.005 -8.33726e-10 0)
(0.005 -9.14484e-10 0)
(0.005 -9.98679e-10 0)
(0.005 -1.08645e-09 0)
(0.005 -1.17794e-09 0)
(0.005 -1.27327e-09 0)
(0.005 -1.3726e-09 0)
(0.005 -1.47604e-09 0)
(0.005 -1.58372e-09 0)
(0.005 -1.69578e-09 0)
(0.005 -1.81235e-09 0)
(0.005 -1.93353e-09 0)
(0.005 -2.05947e-09 0)
(0.005 -2.19028e-09 0)
(0.005 -2.32609e-09 0)
(0.005 -2.46701e-09 0)
(0.005 -2.61316e-09 0)
(0.005 -2.76466e-09 0)
(0.005 -2.92162e-09 0)
(0.005 -3.08416e-09 0)
(0.005 -3.25239e-09 0)
(0.005 -3.42643e-09 0)
(0.005 -3.60638e-09 0)
(0.005 -3.79235e-09 0)
(0.005 -3.98445e-09 0)
(0.005 -4.1828e-09 0)
(0.005 -4.38749e-09 0)
(0.005 -4.59863e-09 0)
(0.005 -4.81634e-09 0)
(0.005 -5.04073e-09 0)
(0.005 -5.27189e-09 0)
(0.005 -5.50994e-09 0)
(0.005 -5.75501e-09 0)
(0.00499999 -6.00719e-09 0)
(0.00499999 -6.26662e-09 0)
(0.00499999 -6.53342e-09 0)
(0.00499999 -6.80772e-09 0)
(0.00499999 -7.08965e-09 0)
(0.00499999 -7.37937e-09 0)
(0.00499999 -7.67703e-09 0)
(0.00499999 -7.9828e-09 0)
(0.00499999 -8.29685e-09 0)
(0.00499999 -8.61937e-09 0)
(0.00499999 -8.95058e-09 0)
(0.00499999 -9.2907e-09 0)
(0.00499999 -9.63997e-09 0)
(0.00499999 -9.99867e-09 0)
(0.00499999 -1.03671e-08 0)
(0.00499999 -1.07455e-08 0)
(0.00499999 -1.11343e-08 0)
(0.00499999 -1.15339e-08 0)
(0.00499999 -1.19446e-08 0)
(0.00499998 -1.23669e-08 0)
(0.00499998 -1.28012e-08 0)
(0.00499998 -1.32482e-08 0)
(0.00499998 -1.37082e-08 0)
(0.00499998 -1.41819e-08 0)
(0.00499998 -1.46699e-08 0)
(0.00499998 -1.51728e-08 0)
(0.00499998 -1.56914e-08 0)
(0.00499998 -1.62262e-08 0)
(0.00499998 -1.6778e-08 0)
(0.00499997 -1.73476e-08 0)
(0.00499997 -1.79354e-08 0)
(0.00499997 -1.85424e-08 0)
(0.00499997 -1.91689e-08 0)
(0.00499997 -1.98155e-08 0)
(0.00499997 -2.04826e-08 0)
(0.00499997 -2.11704e-08 0)
(0.00499996 -2.18788e-08 0)
(0.00499996 -2.26075e-08 0)
(0.00499996 -2.33557e-08 0)
(0.00499996 -2.41222e-08 0)
(0.00499996 -2.49052e-08 0)
(0.00499996 -2.57022e-08 0)
(0.00499996 -2.65096e-08 0)
(0.00499995 -2.7323e-08 0)
(0.00499995 -2.81366e-08 0)
(0.00499995 -2.89432e-08 0)
(0.00499995 -2.97337e-08 0)
(0.00499995 -3.04974e-08 0)
(0.00499995 -3.12214e-08 0)
(0.00499995 -3.18919e-08 0)
(0.00499995 -3.24931e-08 0)
(0.00499994 -3.30027e-08 0)
(0.00499994 -3.33868e-08 0)
(0.00499994 -3.3588e-08 0)
(0.005 -2.2545e-11 0)
(0.005 -6.96831e-11 0)
(0.005 -1.18888e-10 0)
(0.005 -1.6998e-10 0)
(0.005 -2.22873e-10 0)
(0.005 -2.77596e-10 0)
(0.005 -3.34248e-10 0)
(0.005 -3.92964e-10 0)
(0.005 -4.53896e-10 0)
(0.005 -5.17197e-10 0)
(0.005 -5.83023e-10 0)
(0.005 -6.51522e-10 0)
(0.005 -7.22841e-10 0)
(0.005 -7.9712e-10 0)
(0.005 -8.74496e-10 0)
(0.005 -9.55101e-10 0)
(0.005 -1.03907e-09 0)
(0.005 -1.12651e-09 0)
(0.005 -1.21757e-09 0)
(0.005 -1.31236e-09 0)
(0.005 -1.41099e-09 0)
(0.005 -1.51359e-09 0)
(0.005 -1.62026e-09 0)
(0.005 -1.73113e-09 0)
(0.005 -1.8463e-09 0)
(0.005 -1.96588e-09 0)
(0.005 -2.08997e-09 0)
(0.005 -2.21869e-09 0)
(0.005 -2.35214e-09 0)
(0.005 -2.49041e-09 0)
(0.005 -2.63361e-09 0)
(0.005 -2.78183e-09 0)
(0.005 -2.93518e-09 0)
(0.005 -3.09374e-09 0)
(0.005 -3.25761e-09 0)
(0.005 -3.42688e-09 0)
(0.005 -3.60164e-09 0)
(0.005 -3.78198e-09 0)
(0.005 -3.96799e-09 0)
(0.005 -4.15975e-09 0)
(0.005 -4.35735e-09 0)
(0.005 -4.56089e-09 0)
(0.005 -4.77044e-09 0)
(0.005 -4.98609e-09 0)
(0.005 -5.20794e-09 0)
(0.005 -5.43608e-09 0)
(0.00499999 -5.67061e-09 0)
(0.00499999 -5.91163e-09 0)
(0.00499999 -6.15924e-09 0)
(0.00499999 -6.41356e-09 0)
(0.00499999 -6.67472e-09 0)
(0.00499999 -6.94283e-09 0)
(0.00499999 -7.21804e-09 0)
(0.00499999 -7.5005e-09 0)
(0.00499999 -7.79039e-09 0)
(0.00499999 -8.08788e-09 0)
(0.00499999 -8.39318e-09 0)
(0.00499999 -8.70651e-09 0)
(0.00499999 -9.02812e-09 0)
(0.00499999 -9.35827e-09 0)
(0.00499999 -9.69728e-09 0)
(0.00499999 -1.00455e-08 0)
(0.00499999 -1.04032e-08 0)
(0.00499999 -1.07708e-08 0)
(0.00499999 -1.11489e-08 0)
(0.00499998 -1.15378e-08 0)
(0.00499998 -1.19381e-08 0)
(0.00499998 -1.23503e-08 0)
(0.00499998 -1.27751e-08 0)
(0.00499998 -1.32131e-08 0)
(0.00499998 -1.3665e-08 0)
(0.00499998 -1.41317e-08 0)
(0.00499998 -1.46138e-08 0)
(0.00499998 -1.51123e-08 0)
(0.00499998 -1.5628e-08 0)
(0.00499997 -1.61618e-08 0)
(0.00499997 -1.67146e-08 0)
(0.00499997 -1.72873e-08 0)
(0.00499997 -1.78809e-08 0)
(0.00499997 -1.84961e-08 0)
(0.00499997 -1.91337e-08 0)
(0.00499997 -1.97942e-08 0)
(0.00499997 -2.04781e-08 0)
(0.00499996 -2.11855e-08 0)
(0.00499996 -2.19163e-08 0)
(0.00499996 -2.26697e-08 0)
(0.00499996 -2.34446e-08 0)
(0.00499996 -2.42391e-08 0)
(0.00499996 -2.50505e-08 0)
(0.00499996 -2.58749e-08 0)
(0.00499995 -2.67072e-08 0)
(0.00499995 -2.75409e-08 0)
(0.00499995 -2.83674e-08 0)
(0.00499995 -2.91761e-08 0)
(0.00499995 -2.99539e-08 0)
(0.00499995 -3.0685e-08 0)
(0.00499995 -3.13493e-08 0)
(0.00499994 -3.19183e-08 0)
(0.00499994 -3.23512e-08 0)
(0.00499994 -3.26013e-08 0)
(0.005 -2.10733e-11 0)
(0.005 -6.5313e-11 0)
(0.005 -1.11747e-10 0)
(0.005 -1.60227e-10 0)
(0.005 -2.10635e-10 0)
(0.005 -2.62947e-10 0)
(0.005 -3.17207e-10 0)
(0.005 -3.73506e-10 0)
(0.005 -4.31956e-10 0)
(0.005 -4.92682e-10 0)
(0.005 -5.55813e-10 0)
(0.005 -6.21478e-10 0)
(0.005 -6.89805e-10 0)
(0.005 -7.60921e-10 0)
(0.005 -8.34947e-10 0)
(0.005 -9.12002e-10 0)
(0.005 -9.92204e-10 0)
(0.005 -1.07567e-09 0)
(0.005 -1.1625e-09 0)
(0.005 -1.25281e-09 0)
(0.005 -1.3467e-09 0)
(0.005 -1.44428e-09 0)
(0.005 -1.54565e-09 0)
(0.005 -1.65091e-09 0)
(0.005 -1.76015e-09 0)
(0.005 -1.87347e-09 0)
(0.005 -1.99096e-09 0)
(0.005 -2.1127e-09 0)
(0.005 -2.23879e-09 0)
(0.005 -2.36932e-09 0)
(0.005 -2.50435e-09 0)
(0.005 -2.64399e-09 0)
(0.005 -2.78829e-09 0)
(0.005 -2.93735e-09 0)
(0.005 -3.09123e-09 0)
(0.005 -3.25001e-09 0)
(0.005 -3.41376e-09 0)
(0.005 -3.58254e-09 0)
(0.005 -3.75643e-09 0)
(0.005 -3.9355e-09 0)
(0.005 -4.1198e-09 0)
(0.005 -4.30942e-09 0)
(0.005 -4.50441e-09 0)
(0.005 -4.70485e-09 0)
(0.005 -4.9108e-09 0)
(0.005 -5.12235e-09 0)
(0.005 -5.33956e-09 0)
(0.00499999 -5.56252e-09 0)
(0.00499999 -5.79133e-09 0)
(0.00499999 -6.02607e-09 0)
(0.00499999 -6.26684e-09 0)
(0.00499999 -6.51377e-09 0)
(0.00499999 -6.76699e-09 0)
(0.00499999 -7.02662e-09 0)
(0.00499999 -7.29284e-09 0)
(0.00499999 -7.56581e-09 0)
(0.00499999 -7.84573e-09 0)
(0.00499999 -8.13283e-09 0)
(0.00499999 -8.42734e-09 0)
(0.00499999 -8.72955e-09 0)
(0.00499999 -9.03976e-09 0)
(0.00499999 -9.35832e-09 0)
(0.00499999 -9.6856e-09 0)
(0.00499999 -1.0022e-08 0)
(0.00499999 -1.03681e-08 0)
(0.00499998 -1.07243e-08 0)
(0.00499998 -1.10912e-08 0)
(0.00499998 -1.14695e-08 0)
(0.00499998 -1.18597e-08 0)
(0.00499998 -1.22628e-08 0)
(0.00499998 -1.26794e-08 0)
(0.00499998 -1.31104e-08 0)
(0.00499998 -1.35569e-08 0)
(0.00499998 -1.40196e-08 0)
(0.00499998 -1.44998e-08 0)
(0.00499998 -1.49985e-08 0)
(0.00499997 -1.55168e-08 0)
(0.00499997 -1.60559e-08 0)
(0.00499997 -1.66169e-08 0)
(0.00499997 -1.72009e-08 0)
(0.00499997 -1.7809e-08 0)
(0.00499997 -1.84423e-08 0)
(0.00499997 -1.91014e-08 0)
(0.00499996 -1.97871e-08 0)
(0.00499996 -2.04995e-08 0)
(0.00499996 -2.12387e-08 0)
(0.00499996 -2.2004e-08 0)
(0.00499996 -2.2794e-08 0)
(0.00499996 -2.36066e-08 0)
(0.00499996 -2.44386e-08 0)
(0.00499995 -2.52853e-08 0)
(0.00499995 -2.61406e-08 0)
(0.00499995 -2.69963e-08 0)
(0.00499995 -2.78414e-08 0)
(0.00499995 -2.86623e-08 0)
(0.00499995 -2.94411e-08 0)
(0.00499995 -3.01544e-08 0)
(0.00499995 -3.07694e-08 0)
(0.00499994 -3.1242e-08 0)
(0.00499994 -3.15241e-08 0)
(0.005 -1.97464e-11 0)
(0.005 -6.13026e-11 0)
(0.005 -1.05097e-10 0)
(0.005 -1.5102e-10 0)
(0.005 -1.98951e-10 0)
(0.005 -2.48834e-10 0)
(0.005 -3.00678e-10 0)
(0.005 -3.54537e-10 0)
(0.005 -4.1049e-10 0)
(0.005 -4.68633e-10 0)
(0.005 -5.29073e-10 0)
(0.005 -5.91917e-10 0)
(0.005 -6.57276e-10 0)
(0.005 -7.25259e-10 0)
(0.005 -7.95974e-10 0)
(0.005 -8.69527e-10 0)
(0.005 -9.4602e-10 0)
(0.005 -1.02555e-09 0)
(0.005 -1.10823e-09 0)
(0.005 -1.19414e-09 0)
(0.005 -1.28337e-09 0)
(0.005 -1.37603e-09 0)
(0.005 -1.47219e-09 0)
(0.005 -1.57194e-09 0)
(0.005 -1.67536e-09 0)
(0.005 -1.78253e-09 0)
(0.005 -1.89353e-09 0)
(0.005 -2.00844e-09 0)
(0.005 -2.12733e-09 0)
(0.005 -2.25025e-09 0)
(0.005 -2.37729e-09 0)
(0.005 -2.50851e-09 0)
(0.005 -2.64396e-09 0)
(0.005 -2.78371e-09 0)
(0.005 -2.92781e-09 0)
(0.005 -3.07632e-09 0)
(0.005 -3.22929e-09 0)
(0.005 -3.38677e-09 0)
(0.005 -3.54881e-09 0)
(0.005 -3.71546e-09 0)
(0.005 -3.88677e-09 0)
(0.005 -4.06278e-09 0)
(0.005 -4.24354e-09 0)
(0.005 -4.42911e-09 0)
(0.005 -4.61953e-09 0)
(0.005 -4.81487e-09 0)
(0.005 -5.01517e-09 0)
(0.00499999 -5.22051e-09 0)
(0.00499999 -5.43095e-09 0)
(0.00499999 -5.64657e-09 0)
(0.00499999 -5.86746e-09 0)
(0.00499999 -6.09373e-09 0)
(0.00499999 -6.32548e-09 0)
(0.00499999 -6.56285e-09 0)
(0.00499999 -6.80598e-09 0)
(0.00499999 -7.05504e-09 0)
(0.00499999 -7.31022e-09 0)
(0.00499999 -7.57174e-09 0)
(0.00499999 -7.83984e-09 0)
(0.00499999 -8.11481e-09 0)
(0.00499999 -8.39695e-09 0)
(0.00499999 -8.68663e-09 0)
(0.00499999 -8.98425e-09 0)
(0.00499999 -9.29025e-09 0)
(0.00499999 -9.60514e-09 0)
(0.00499999 -9.92946e-09 0)
(0.00499998 -1.02638e-08 0)
(0.00499998 -1.0609e-08 0)
(0.00499998 -1.09656e-08 0)
(0.00499998 -1.13345e-08 0)
(0.00499998 -1.17166e-08 0)
(0.00499998 -1.2113e-08 0)
(0.00499998 -1.25245e-08 0)
(0.00499998 -1.29524e-08 0)
(0.00499998 -1.33978e-08 0)
(0.00499998 -1.38621e-08 0)
(0.00499997 -1.43465e-08 0)
(0.00499997 -1.48524e-08 0)
(0.00499997 -1.53813e-08 0)
(0.00499997 -1.59345e-08 0)
(0.00499997 -1.65134e-08 0)
(0.00499997 -1.71193e-08 0)
(0.00499997 -1.77535e-08 0)
(0.00499997 -1.84169e-08 0)
(0.00499996 -1.91102e-08 0)
(0.00499996 -1.98339e-08 0)
(0.00499996 -2.05878e-08 0)
(0.00499996 -2.13711e-08 0)
(0.00499996 -2.21821e-08 0)
(0.00499996 -2.3018e-08 0)
(0.00499996 -2.38747e-08 0)
(0.00499995 -2.47461e-08 0)
(0.00499995 -2.5624e-08 0)
(0.00499995 -2.64974e-08 0)
(0.00499995 -2.73515e-08 0)
(0.00499995 -2.8167e-08 0)
(0.00499995 -2.89176e-08 0)
(0.00499995 -2.95678e-08 0)
(0.00499995 -3.00707e-08 0)
(0.00499994 -3.03734e-08 0)
(0.005 -1.85305e-11 0)
(0.005 -5.75885e-11 0)
(0.005 -9.88739e-11 0)
(0.005 -1.42319e-10 0)
(0.005 -1.87808e-10 0)
(0.005 -2.35271e-10 0)
(0.005 -2.84695e-10 0)
(0.005 -3.36106e-10 0)
(0.005 -3.89556e-10 0)
(0.005 -4.45119e-10 0)
(0.005 -5.02875e-10 0)
(0.005 -5.62914e-10 0)
(0.005 -6.25329e-10 0)
(0.005 -6.90213e-10 0)
(0.005 -7.57659e-10 0)
(0.005 -8.27757e-10 0)
(0.005 -9.00599e-10 0)
(0.005 -9.76272e-10 0)
(0.005 -1.05486e-09 0)
(0.005 -1.13645e-09 0)
(0.005 -1.22111e-09 0)
(0.005 -1.30893e-09 0)
(0.005 -1.39998e-09 0)
(0.005 -1.49433e-09 0)
(0.005 -1.59206e-09 0)
(0.005 -1.69322e-09 0)
(0.005 -1.79787e-09 0)
(0.005 -1.90609e-09 0)
(0.005 -2.01792e-09 0)
(0.005 -2.13342e-09 0)
(0.005 -2.25264e-09 0)
(0.005 -2.37563e-09 0)
(0.005 -2.50243e-09 0)
(0.005 -2.63309e-09 0)
(0.005 -2.76764e-09 0)
(0.005 -2.90613e-09 0)
(0.005 -3.04858e-09 0)
(0.005 -3.19503e-09 0)
(0.005 -3.34551e-09 0)
(0.005 -3.50005e-09 0)
(0.005 -3.65868e-09 0)
(0.005 -3.82143e-09 0)
(0.005 -3.98833e-09 0)
(0.005 -4.15941e-09 0)
(0.005 -4.3347e-09 0)
(0.005 -4.51425e-09 0)
(0.005 -4.69808e-09 0)
(0.00499999 -4.88626e-09 0)
(0.00499999 -5.07883e-09 0)
(0.00499999 -5.27585e-09 0)
(0.00499999 -5.4774e-09 0)
(0.00499999 -5.68357e-09 0)
(0.00499999 -5.89445e-09 0)
(0.00499999 -6.11016e-09 0)
(0.00499999 -6.33084e-09 0)
(0.00499999 -6.55666e-09 0)
(0.00499999 -6.78779e-09 0)
(0.00499999 -7.02445e-09 0)
(0.00499999 -7.26688e-09 0)
(0.00499999 -7.51538e-09 0)
(0.00499999 -7.77026e-09 0)
(0.00499999 -8.03189e-09 0)
(0.00499999 -8.30068e-09 0)
(0.00499999 -8.57711e-09 0)
(0.00499999 -8.86171e-09 0)
(0.00499999 -9.15507e-09 0)
(0.00499998 -9.45784e-09 0)
(0.00499998 -9.77077e-09 0)
(0.00499998 -1.00947e-08 0)
(0.00499998 -1.04304e-08 0)
(0.00499998 -1.0779e-08 0)
(0.00499998 -1.11415e-08 0)
(0.00499998 -1.1519e-08 0)
(0.00499998 -1.19129e-08 0)
(0.00499998 -1.23244e-08 0)
(0.00499998 -1.2755e-08 0)
(0.00499998 -1.32063e-08 0)
(0.00499997 -1.36797e-08 0)
(0.00499997 -1.41769e-08 0)
(0.00499997 -1.46996e-08 0)
(0.00499997 -1.52494e-08 0)
(0.00499997 -1.58281e-08 0)
(0.00499997 -1.6437e-08 0)
(0.00499997 -1.70776e-08 0)
(0.00499997 -1.7751e-08 0)
(0.00499996 -1.8458e-08 0)
(0.00499996 -1.91988e-08 0)
(0.00499996 -1.99731e-08 0)
(0.00499996 -2.07796e-08 0)
(0.00499996 -2.16158e-08 0)
(0.00499996 -2.24778e-08 0)
(0.00499996 -2.33599e-08 0)
(0.00499995 -2.42536e-08 0)
(0.00499995 -2.51475e-08 0)
(0.00499995 -2.60262e-08 0)
(0.00499995 -2.68687e-08 0)
(0.00499995 -2.76471e-08 0)
(0.00499995 -2.83236e-08 0)
(0.00499995 -2.88491e-08 0)
(0.00499994 -2.91659e-08 0)
(0.005 -1.74036e-11 0)
(0.005 -5.41234e-11 0)
(0.005 -9.3027e-11 0)
(0.005 -1.34082e-10 0)
(0.005 -1.77183e-10 0)
(0.005 -2.22257e-10 0)
(0.005 -2.69276e-10 0)
(0.005 -3.18248e-10 0)
(0.005 -3.69203e-10 0)
(0.005 -4.22194e-10 0)
(0.005 -4.77283e-10 0)
(0.005 -5.3454e-10 0)
(0.005 -5.9404e-10 0)
(0.005 -6.55862e-10 0)
(0.005 -7.20082e-10 0)
(0.005 -7.8678e-10 0)
(0.005 -8.5603e-10 0)
(0.005 -9.27909e-10 0)
(0.005 -1.00249e-09 0)
(0.005 -1.07984e-09 0)
(0.005 -1.16002e-09 0)
(0.005 -1.24311e-09 0)
(0.005 -1.32916e-09 0)
(0.005 -1.41824e-09 0)
(0.005 -1.51039e-09 0)
(0.005 -1.60567e-09 0)
(0.005 -1.70413e-09 0)
(0.005 -1.80582e-09 0)
(0.005 -1.91077e-09 0)
(0.005 -2.01902e-09 0)
(0.005 -2.13062e-09 0)
(0.005 -2.24559e-09 0)
(0.005 -2.36396e-09 0)
(0.005 -2.48576e-09 0)
(0.005 -2.61101e-09 0)
(0.005 -2.73974e-09 0)
(0.005 -2.87195e-09 0)
(0.005 -3.00766e-09 0)
(0.005 -3.1469e-09 0)
(0.005 -3.28966e-09 0)
(0.005 -3.43597e-09 0)
(0.005 -3.58583e-09 0)
(0.005 -3.73926e-09 0)
(0.005 -3.89627e-09 0)
(0.005 -4.05687e-09 0)
(0.005 -4.22108e-09 0)
(0.005 -4.38893e-09 0)
(0.005 -4.56045e-09 0)
(0.00499999 -4.73568e-09 0)
(0.00499999 -4.91466e-09 0)
(0.00499999 -5.09745e-09 0)
(0.00499999 -5.28412e-09 0)
(0.00499999 -5.47477e-09 0)
(0.00499999 -5.6695e-09 0)
(0.00499999 -5.86843e-09 0)
(0.00499999 -6.07172e-09 0)
(0.00499999 -6.27955e-09 0)
(0.00499999 -6.49213e-09 0)
(0.00499999 -6.70971e-09 0)
(0.00499999 -6.93257e-09 0)
(0.00499999 -7.16105e-09 0)
(0.00499999 -7.39551e-09 0)
(0.00499999 -7.6364e-09 0)
(0.00499999 -7.8842e-09 0)
(0.00499999 -8.13947e-09 0)
(0.00499999 -8.40283e-09 0)
(0.00499999 -8.67498e-09 0)
(0.00499998 -8.95671e-09 0)
(0.00499998 -9.24888e-09 0)
(0.00499998 -9.55245e-09 0)
(0.00499998 -9.86848e-09 0)
(0.00499998 -1.01981e-08 0)
(0.00499998 -1.05427e-08 0)
(0.00499998 -1.09034e-08 0)
(0.00499998 -1.12819e-08 0)
(0.00499998 -1.16797e-08 0)
(0.00499998 -1.20985e-08 0)
(0.00499997 -1.25401e-08 0)
(0.00499997 -1.30062e-08 0)
(0.00499997 -1.34988e-08 0)
(0.00499997 -1.40198e-08 0)
(0.00499997 -1.45712e-08 0)
(0.00499997 -1.51546e-08 0)
(0.00499997 -1.5772e-08 0)
(0.00499997 -1.64246e-08 0)
(0.00499996 -1.71136e-08 0)
(0.00499996 -1.78396e-08 0)
(0.00499996 -1.86027e-08 0)
(0.00499996 -1.94017e-08 0)
(0.00499996 -2.02347e-08 0)
(0.00499996 -2.10978e-08 0)
(0.00499996 -2.19853e-08 0)
(0.00499996 -2.28887e-08 0)
(0.00499995 -2.37962e-08 0)
(0.00499995 -2.46916e-08 0)
(0.00499995 -2.5553e-08 0)
(0.00499995 -2.63509e-08 0)
(0.00499995 -2.70461e-08 0)
(0.00499995 -2.75877e-08 0)
(0.00499995 -2.7914e-08 0)
(0.005 -1.63508e-11 0)
(0.005 -5.0873e-11 0)
(0.005 -8.75142e-11 0)
(0.005 -1.26271e-10 0)
(0.005 -1.67051e-10 0)
(0.005 -2.09783e-10 0)
(0.005 -2.54429e-10 0)
(0.005 -3.00985e-10 0)
(0.005 -3.49466e-10 0)
(0.005 -3.99906e-10 0)
(0.005 -4.52351e-10 0)
(0.005 -5.06854e-10 0)
(0.005 -5.63475e-10 0)
(0.005 -6.22276e-10 0)
(0.005 -6.83322e-10 0)
(0.005 -7.46675e-10 0)
(0.005 -8.124e-10 0)
(0.005 -8.80557e-10 0)
(0.005 -9.51208e-10 0)
(0.005 -1.02441e-09 0)
(0.005 -1.10022e-09 0)
(0.005 -1.17868e-09 0)
(0.005 -1.25985e-09 0)
(0.005 -1.34378e-09 0)
(0.005 -1.4305e-09 0)
(0.005 -1.52005e-09 0)
(0.005 -1.61247e-09 0)
(0.005 -1.70779e-09 0)
(0.005 -1.80604e-09 0)
(0.005 -1.90725e-09 0)
(0.005 -2.01143e-09 0)
(0.005 -2.1186e-09 0)
(0.005 -2.22878e-09 0)
(0.005 -2.34198e-09 0)
(0.005 -2.4582e-09 0)
(0.005 -2.57744e-09 0)
(0.005 -2.69972e-09 0)
(0.005 -2.82502e-09 0)
(0.005 -2.95335e-09 0)
(0.005 -3.08469e-09 0)
(0.005 -3.21905e-09 0)
(0.005 -3.35643e-09 0)
(0.005 -3.4968e-09 0)
(0.005 -3.64018e-09 0)
(0.005 -3.78655e-09 0)
(0.005 -3.93593e-09 0)
(0.005 -4.08831e-09 0)
(0.005 -4.24372e-09 0)
(0.00499999 -4.40218e-09 0)
(0.00499999 -4.56371e-09 0)
(0.00499999 -4.72837e-09 0)
(0.00499999 -4.89621e-09 0)
(0.00499999 -5.06731e-09 0)
(0.00499999 -5.24176e-09 0)
(0.00499999 -5.41969e-09 0)
(0.00499999 -5.60123e-09 0)
(0.00499999 -5.78657e-09 0)
(0.00499999 -5.97591e-09 0)
(0.00499999 -6.16949e-09 0)
(0.00499999 -6.36761e-09 0)
(0.00499999 -6.5706e-09 0)
(0.00499999 -6.77886e-09 0)
(0.00499999 -6.99281e-09 0)
(0.00499999 -7.21298e-09 0)
(0.00499999 -7.43994e-09 0)
(0.00499999 -7.67435e-09 0)
(0.00499999 -7.91694e-09 0)
(0.00499998 -8.16854e-09 0)
(0.00499998 -8.43007e-09 0)
(0.00499998 -8.70255e-09 0)
(0.00499998 -8.9871e-09 0)
(0.00499998 -9.28496e-09 0)
(0.00499998 -9.59749e-09 0)
(0.00499998 -9.92617e-09 0)
(0.00499998 -1.02726e-08 0)
(0.00499998 -1.06385e-08 0)
(0.00499998 -1.10256e-08 0)
(0.00499998 -1.1436e-08 0)
(0.00499997 -1.18716e-08 0)
(0.00499997 -1.23346e-08 0)
(0.00499997 -1.28271e-08 0)
(0.00499997 -1.33512e-08 0)
(0.00499997 -1.3909e-08 0)
(0.00499997 -1.45025e-08 0)
(0.00499997 -1.51335e-08 0)
(0.00499997 -1.58033e-08 0)
(0.00499996 -1.65129e-08 0)
(0.00499996 -1.72625e-08 0)
(0.00499996 -1.80515e-08 0)
(0.00499996 -1.88778e-08 0)
(0.00499996 -1.97378e-08 0)
(0.00499996 -2.06259e-08 0)
(0.00499996 -2.15334e-08 0)
(0.00499996 -2.24483e-08 0)
(0.00499995 -2.33536e-08 0)
(0.00499995 -2.42268e-08 0)
(0.00499995 -2.50372e-08 0)
(0.00499995 -2.57447e-08 0)
(0.00499995 -2.62968e-08 0)
(0.00499995 -2.66294e-08 0)
(0.005 -1.53619e-11 0)
(0.005 -4.7811e-11 0)
(0.005 -8.23021e-11 0)
(0.005 -1.18855e-10 0)
(0.005 -1.57389e-10 0)
(0.005 -1.97835e-10 0)
(0.005 -2.40154e-10 0)
(0.005 -2.8433e-10 0)
(0.005 -3.30369e-10 0)
(0.005 -3.7829e-10 0)
(0.005 -4.28124e-10 0)
(0.005 -4.7991e-10 0)
(0.005 -5.33693e-10 0)
(0.005 -5.89522e-10 0)
(0.005 -6.47446e-10 0)
(0.005 -7.07518e-10 0)
(0.005 -7.69787e-10 0)
(0.005 -8.34302e-10 0)
(0.005 -9.01113e-10 0)
(0.005 -9.70263e-10 0)
(0.005 -1.0418e-09 0)
(0.005 -1.11575e-09 0)
(0.005 -1.19217e-09 0)
(0.005 -1.27107e-09 0)
(0.005 -1.35251e-09 0)
(0.005 -1.43649e-09 0)
(0.005 -1.52304e-09 0)
(0.005 -1.61218e-09 0)
(0.005 -1.70392e-09 0)
(0.005 -1.79829e-09 0)
(0.005 -1.89527e-09 0)
(0.005 -1.99488e-09 0)
(0.005 -2.09712e-09 0)
(0.005 -2.20197e-09 0)
(0.005 -2.30944e-09 0)
(0.005 -2.41951e-09 0)
(0.005 -2.53217e-09 0)
(0.005 -2.6474e-09 0)
(0.005 -2.76517e-09 0)
(0.005 -2.88548e-09 0)
(0.005 -3.0083e-09 0)
(0.005 -3.1336e-09 0)
(0.005 -3.26137e-09 0)
(0.005 -3.39159e-09 0)
(0.005 -3.52424e-09 0)
(0.005 -3.6593e-09 0)
(0.005 -3.79677e-09 0)
(0.005 -3.93664e-09 0)
(0.005 -4.07893e-09 0)
(0.00499999 -4.22365e-09 0)
(0.00499999 -4.37084e-09 0)
(0.00499999 -4.52054e-09 0)