/*--------------------------------*- C++ -*----------------------------------*\
  =========                 |
  \\      /  F ield         | OpenFOAM: The Open Source CFD Toolbox
   \\    /   O peration     | Website:  https://openfoam.org
    \\  /    A nd           | Version:  11
     \\/     M anipulation  |
\*---------------------------------------------------------------------------*/
FoamFile
{
    format      ascii;
    class       volScalarField;
    location    "170";
    object      nut;
}
// * * * * * * * * * * * * * * * * * * * * * * * * * * * * * * * * * * * * * //

dimensions      [0 2 -1 0 0 0 0];

internalField   nonuniform List<scalar> 
10000
(
0.000977084
0.000936589
0.000899424
0.000865269
0.000833834
0.000804861
0.000778117
0.000753394
0.000730506
0.000709286
0.000689584
0.000671268
0.000654221
0.00063834
0.000623533
0.000609724
0.000596847
0.000584847
0.000573681
0.000563318
0.000553737
0.000544926
0.000536888
0.000529632
0.000523179
0.00051756
0.000512811
0.000508978
0.000506109
0.000504256
0.000503471
0.0005038
0.000505284
0.000507953
0.000511825
0.000516901
0.000523166
0.000530585
0.000539105
0.000548658
0.000559159
0.000570509
0.000582603
0.000595326
0.000608564
0.000622199
0.000636119
0.000650211
0.000664371
0.0006785
0.00069251
0.000706319
0.000719858
0.000733065
0.000745891
0.000758294
0.000770239
0.000781695
0.000792651
0.000803091
0.000813005
0.000822392
0.000831253
0.000839593
0.000847421
0.000854748
0.000861588
0.000867956
0.000873869
0.000879345
0.000884403
0.000889063
0.000893346
0.00089727
0.000900856
0.000904125
0.000907096
0.000909788
0.00091222
0.00091441
0.000916376
0.000918135
0.000919704
0.000921097
0.000922329
0.000923415
0.000924368
0.000925201
0.000925924
0.00092655
0.000927088
0.000927547
0.000927936
0.000928263
0.000928533
0.000928752
0.000928925
0.000929055
0.000929142
0.000929188
0.000977085
0.00093659
0.000899426
0.000865271
0.000833837
0.000804864
0.000778121
0.000753399
0.000730511
0.000709291
0.000689589
0.000671274
0.000654228
0.000638346
0.000623541
0.000609732
0.000596855
0.000584856
0.000573691
0.000563328
0.000553747
0.000544937
0.000536899
0.000529643
0.000523191
0.000517571
0.000512822
0.000508988
0.000506118
0.000504263
0.000503476
0.000503802
0.000505282
0.000507948
0.000511816
0.000516887
0.000523146
0.00053056
0.000539075
0.000548623
0.000559118
0.000570465
0.000582556
0.000595278
0.000608514
0.000622148
0.000636066
0.000650155
0.000664313
0.000678439
0.000692447
0.000706255
0.000719794
0.000733002
0.00074583
0.000758235
0.000770183
0.000781641
0.0007926
0.000803043
0.00081296
0.00082235
0.000831214
0.000839557
0.000847388
0.000854717
0.00086156
0.00086793
0.000873845
0.000879323
0.000884384
0.000889046
0.00089333
0.000897256
0.000900844
0.000904114
0.000907086
0.000909779
0.000912212
0.000914404
0.000916371
0.000918131
0.0009197
0.000921093
0.000922326
0.000923413
0.000924366
0.000925199
0.000925923
0.000926549
0.000927087
0.000927546
0.000927936
0.000928262
0.000928533
0.000928752
0.000928925
0.000929055
0.000929143
0.000929189
0.000977085
0.000936592
0.000899429
0.000865275
0.000833842
0.00080487
0.000778128
0.000753406
0.000730519
0.0007093
0.000689599
0.000671285
0.000654239
0.000638359
0.000623554
0.000609746
0.00059687
0.000584872
0.000573708
0.000563346
0.000553765
0.000544956
0.000536918
0.000529662
0.000523209
0.000517588
0.000512837
0.000509
0.000506127
0.000504268
0.000503475
0.000503794
0.000505267
0.000507924
0.000511782
0.000516843
0.000523091
0.000530493
0.000538996
0.000548533
0.000559018
0.000570355
0.000582438
0.000595152
0.000608382
0.000622011
0.000635924
0.00065001
0.000664164
0.000678289
0.000692295
0.000706104
0.000719644
0.000732856
0.000745688
0.000758097
0.00077005
0.000781513
0.000792479
0.000802927
0.000812851
0.000822247
0.000831117
0.000839466
0.000847303
0.000854638
0.000861486
0.000867861
0.000873782
0.000879265
0.00088433
0.000888997
0.000893285
0.000897215
0.000900806
0.00090408
0.000907055
0.000909751
0.000912187
0.000914381
0.00091635
0.000918112
0.000919683
0.000921079
0.000922314
0.000923402
0.000924357
0.000925191
0.000925916
0.000926543
0.000927082
0.000927542
0.000927932
0.00092826
0.000928531
0.000928751
0.000928924
0.000929055
0.000929143
0.000929189
0.000977086
0.000936594
0.000899433
0.000865281
0.000833849
0.000804879
0.000778137
0.000753417
0.000730531
0.000709313
0.000689614
0.000671301
0.000654256
0.000638377
0.000623574
0.000609767
0.000596893
0.000584895
0.000573732
0.000563371
0.000553791
0.000544982
0.000536944
0.000529688
0.000523234
0.000517611
0.000512857
0.000509017
0.000506138
0.000504272
0.000503471
0.00050378
0.000505242
0.000507885
0.000511729
0.000516774
0.000523006
0.000530391
0.000538878
0.000548397
0.000558867
0.000570189
0.000582258
0.00059496
0.00060818
0.000621801
0.000635707
0.000649787
0.000663937
0.00067806
0.000692066
0.000705875
0.000719419
0.000732635
0.000745473
0.000757889
0.000769849
0.00078132
0.000792294
0.000802751
0.000812684
0.000822089
0.000830968
0.000839326
0.000847171
0.000854515
0.000861371
0.000867755
0.000873683
0.000879173
0.000884245
0.000888919
0.000893213
0.000897149
0.000900746
0.000904025
0.000907005
0.000909705
0.000912145
0.000914343
0.000916316
0.000918082
0.000919656
0.000921054
0.000922292
0.000923382
0.00092434
0.000925176
0.000925903
0.000926532
0.000927073
0.000927535
0.000927926
0.000928255
0.000928527
0.000928749
0.000928923
0.000929054
0.000929143
0.000929189
0.000977087
0.000936596
0.000899437
0.000865287
0.000833857
0.000804889
0.00077815
0.000753431
0.000730547
0.000709331
0.000689633
0.000671321
0.000654279
0.000638401
0.000623599
0.000609795
0.000596921
0.000584926
0.000573764
0.000563404
0.000553826
0.000545017
0.00053698
0.000529723
0.000523267
0.000517642
0.000512884
0.000509038
0.000506153
0.000504278
0.000503466
0.000503763
0.000505209
0.000507836
0.000511661
0.000516686
0.000522897
0.00053026
0.000538725
0.000548223
0.000558672
0.000569974
0.000582025
0.000594712
0.000607918
0.000621527
0.000635424
0.000649497
0.000663642
0.000677762
0.000691768
0.000705579
0.000719126
0.000732348
0.000745193
0.000757617
0.000769587
0.000781068
0.000792053
0.000802521
0.000812465
0.000821882
0.000830772
0.000839141
0.000846998
0.000854353
0.00086122
0.000867613
0.000873551
0.000879051
0.000884133
0.000888814
0.000893117
0.00089706
0.000900665
0.00090395
0.000906937
0.000909643
0.000912089
0.000914292
0.00091627
0.00091804
0.000919619
0.000921021
0.000922262
0.000923356
0.000924317
0.000925156
0.000925886
0.000926517
0.00092706
0.000927524
0.000927918
0.000928248
0.000928522
0.000928745
0.000928921
0.000929053
0.000929142
0.000929189
0.000977087
0.000936599
0.000899442
0.000865294
0.000833867
0.000804901
0.000778163
0.000753447
0.000730565
0.000709351
0.000689655
0.000671346
0.000654305
0.00063843
0.00062363
0.000609828
0.000596957
0.000584963
0.000573803
0.000563445
0.000553868
0.00054506
0.000537023
0.000529765
0.000523308
0.00051768
0.000512918
0.000509065
0.000506172
0.000504287
0.000503462
0.000503743
0.000505172
0.000507779
0.000511581
0.000516583
0.000522768
0.000530105
0.000538543
0.000548015
0.000558438
0.000569717
0.000581746
0.000594413
0.000607602
0.000621197
0.000635082
0.000649146
0.000663285
0.000677402
0.000691407
0.000705221
0.000718773
0.000732001
0.000744854
0.000757288
0.000769268
0.000780762
0.000791759
0.00080224
0.000812198
0.000821628
0.000830532
0.000838915
0.000846785
0.000854153
0.000861033
0.000867439
0.000873389
0.000878901
0.000883993
0.000888685
0.000892998
0.000896951
0.000900564
0.000903858
0.000906852
0.000909566
0.000912019
0.000914228
0.000916212
0.000917988
0.000919572
0.000920979
0.000922225
0.000923323
0.000924287
0.00092513
0.000925864
0.000926498
0.000927044
0.000927511
0.000927907
0.00092824
0.000928516
0.000928741
0.000928918
0.000929051
0.000929141
0.000929188
0.000977088
0.000936602
0.000899447
0.000865302
0.000833877
0.000804913
0.000778179
0.000753465
0.000730586
0.000709374
0.000689681
0.000671374
0.000654336
0.000638464
0.000623666
0.000609866
0.000596998
0.000585007
0.000573849
0.000563493
0.000553917
0.000545111
0.000537073
0.000529815
0.000523356
0.000517724
0.000512957
0.000509098
0.000506195
0.000504298
0.000503458
0.000503722
0.000505131
0.000507714
0.000511491
0.000516465
0.000522621
0.000529928
0.000538335
0.000547777
0.000558171
0.000569422
0.000581426
0.00059407
0.000607239
0.000620816
0.000634688
0.000648742
0.000662874
0.000676987
0.000690991
0.000704807
0.000718363
0.000731598
0.00074446
0.000756905
0.000768898
0.000780404
0.000791416
0.000801912
0.000811885
0.000821331
0.000830251
0.00083865
0.000846535
0.000853919
0.000860813
0.000867234
0.000873198
0.000878723
0.000883828
0.000888532
0.000892856
0.00089682
0.000900444
0.000903748
0.000906751
0.000909474
0.000911934
0.000914151
0.000916143
0.000917925
0.000919515
0.000920928
0.000922179
0.000923283
0.000924252
0.000925099
0.000925837
0.000926475
0.000927025
0.000927495
0.000927894
0.00092823
0.000928508
0.000928735
0.000928914
0.000929049
0.00092914
0.000929187
0.000977089
0.000936605
0.000899452
0.000865309
0.000833887
0.000804926
0.000778195
0.000753484
0.000730608
0.000709399
0.000689709
0.000671406
0.000654371
0.000638501
0.000623707
0.00060991
0.000597045
0.000585056
0.000573901
0.000563548
0.000553974
0.000545169
0.000537132
0.000529873
0.000523412
0.000517776
0.000513004
0.000509136
0.000506223
0.000504312
0.000503456
0.000503701
0.000505086
0.000507644
0.000511393
0.000516336
0.000522459
0.000529732
0.000538105
0.000547513
0.000557874
0.000569094
0.000581069
0.000593687
0.000606834
0.000620392
0.000634247
0.000648289
0.000662413
0.000676521
0.000690524
0.000704342
0.000717903
0.000731145
0.000744017
0.000756473
0.00076848
0.000780001
0.000791028
0.000801541
0.000811531
0.000820994
0.000829932
0.000838348
0.000846251
0.000853651
0.000860562
0.000866999
0.000872979
0.000878519
0.000883638
0.000888356
0.000892694
0.00089667
0.000900306
0.00090362
0.000906634
0.000909367
0.000911837
0.000914063
0.000916062
0.000917852
0.00091945
0.000920869
0.000922127
0.000923236
0.00092421
0.000925063
0.000925805
0.000926448
0.000927002
0.000927476
0.000927879
0.000928217
0.000928499
0.000928728
0.000928909
0.000929045
0.000929137
0.000929185
0.00097709
0.000936607
0.000899457
0.000865317
0.000833898
0.00080494
0.000778212
0.000753504
0.000730631
0.000709426
0.00068974
0.000671439
0.000654408
0.000638542
0.000623752
0.000609958
0.000597096
0.000585111
0.000573959
0.000563609
0.000554037
0.000545233
0.000537197
0.000529937
0.000523474
0.000517835
0.000513056
0.00050918
0.000506255
0.00050433
0.000503456
0.000503679
0.00050504
0.00050757
0.000511288
0.000516197
0.000522285
0.000529521
0.000537857
0.000547228
0.000557553
0.000568739
0.000580682
0.000593271
0.000606392
0.000619928
0.000633766
0.000647795
0.000661909
0.000676011
0.000690012
0.000703831
0.000717397
0.000730647
0.000743529
0.000755998
0.000768018
0.000779555
0.000790599
0.00080113
0.000811138
0.000820621
0.000829577
0.000838012
0.000845934
0.000853353
0.000860282
0.000866737
0.000872734
0.00087829
0.000883426
0.000888159
0.000892511
0.000896501
0.00090015
0.000903477
0.000906503
0.000909246
0.000911727
0.000913962
0.000915971
0.00091777
0.000919375
0.000920802
0.000922067
0.000923183
0.000924163
0.000925022
0.000925769
0.000926417
0.000926976
0.000927454
0.00092786
0.000928203
0.000928487
0.000928719
0.000928903
0.00092904
0.000929134
0.000929181
0.00097709
0.00093661
0.000899462
0.000865325
0.000833908
0.000804954
0.000778229
0.000753525
0.000730656
0.000709454
0.000689772
0.000671475
0.000654448
0.000638586
0.0006238
0.00061001
0.000597152
0.000585171
0.000574023
0.000563675
0.000554106
0.000545304
0.000537268
0.000530008
0.000523542
0.000517899
0.000513114
0.000509229
0.000506291
0.000504351
0.000503458
0.000503659
0.000504993
0.000507493
0.000511178
0.000516051
0.000522101
0.000529297
0.000537593
0.000546924
0.00055721
0.000568359
0.000580267
0.000592825
0.000605919
0.000619431
0.00063325
0.000647263
0.000661367
0.000675462
0.000689461
0.000703281
0.000716851
0.000730109
0.000743001
0.000755483
0.000767518
0.000779072
0.000790134
0.000800683
0.000810711
0.000820213
0.00082919
0.000837646
0.000845588
0.000853027
0.000859976
0.00086645
0.000872465
0.00087804
0.000883192
0.000887942
0.00089231
0.000896315
0.000899978
0.000903319
0.000906357
0.000909113
0.000911605
0.000913851
0.00091587
0.000917678
0.000919292
0.000920727
0.000922
0.000923123
0.000924111
0.000924975
0.000925729
0.000926382
0.000926946
0.000927429
0.00092784
0.000928186
0.000928474
0.000928709
0.000928894
0.000929034
0.000929128
0.000929177
0.000977091
0.000936612
0.000899467
0.000865332
0.000833919
0.000804967
0.000778246
0.000753546
0.000730681
0.000709483
0.000689805
0.000671513
0.00065449
0.000638633
0.00062385
0.000610066
0.000597212
0.000585235
0.00057409
0.000563746
0.000554179
0.000545379
0.000537345
0.000530084
0.000523616
0.000517969
0.000513177
0.000509282
0.000506332
0.000504376
0.000503462
0.000503639
0.000504946
0.000507414
0.000511064
0.000515899
0.000521908
0.000529063
0.000537316
0.000546605
0.000556849
0.000567959
0.00057983
0.000592355
0.000605418
0.000618906
0.000632703
0.0006467
0.000660791
0.000674879
0.000688875
0.000702695
0.00071627
0.000729535
0.000742438
0.000754933
0.000766984
0.000778554
0.000789634
0.000800204
0.000810252
0.000819776
0.000828774
0.000837251
0.000845215
0.000852675
0.000859645
0.000866139
0.000872174
0.000877768
0.000882939
0.000887707
0.000892091
0.000896113
0.000899791
0.000903146
0.000906199
0.000908967
0.000911471
0.000913729
0.000915759
0.000917577
0.000919201
0.000920645
0.000921926
0.000923057
0.000924052
0.000924924
0.000925684
0.000926343
0.000926912
0.000927401
0.000927816
0.000928166
0.000928458
0.000928696
0.000928884
0.000929026
0.000929121
0.000929171
0.000977092
0.000936615
0.000899471
0.000865339
0.000833929
0.000804981
0.000778263
0.000753567
0.000730706
0.000709513
0.000689839
0.000671552
0.000654533
0.000638681
0.000623904
0.000610124
0.000597275
0.000585302
0.000574162
0.000563821
0.000554258
0.00054546
0.000537427
0.000530166
0.000523696
0.000518044
0.000513245
0.00050934
0.000506377
0.000504403
0.000503469
0.000503621
0.000504899
0.000507334
0.000510947
0.000515743
0.00052171
0.000528821
0.000537029
0.000546273
0.000556475
0.000567542
0.000579375
0.000591864
0.000604896
0.000618356
0.000632131
0.000646109
0.000660188
0.000674267
0.000688258
0.000702079
0.000715658
0.00072893
0.000741844
0.000754352
0.000766418
0.000778006
0.000789106
0.000799695
0.000809765
0.000819311
0.000828331
0.000836831
0.000844817
0.0008523
0.000859291
0.000865807
0.000871863
0.000877477
0.000882668
0.000887454
0.000891857
0.000895895
0.00089959
0.000902961
0.000906028
0.00090881
0.000911327
0.000913597
0.000915639
0.000917468
0.000919102
0.000920556
0.000921846
0.000922986
0.000923989
0.000924868
0.000925635
0.000926301
0.000926876
0.000927369
0.00092779
0.000928144
0.00092844
0.000928681
0.000928872
0.000929016
0.000929113
0.000929162
0.000977093
0.000936617
0.000899476
0.000865346
0.000833939
0.000804994
0.00077828
0.000753588
0.000730731
0.000709543
0.000689874
0.000671591
0.000654578
0.000638731
0.000623959
0.000610184
0.00059734
0.000585372
0.000574237
0.0005639
0.00055434
0.000545545
0.000537513
0.000530252
0.00052378
0.000518123
0.000513317
0.000509402
0.000506425
0.000504434
0.000503479
0.000503604
0.000504852
0.000507254
0.000510829
0.000515583
0.000521507
0.000528572
0.000536735
0.000545932
0.000556088
0.000567112
0.000578904
0.000591356
0.000604355
0.000617786
0.000631537
0.000645496
0.00065956
0.00067363
0.000687616
0.000701436
0.000715018
0.000728298
0.000741222
0.000753743
0.000765826
0.000777431
0.00078855
0.000799161
0.000809253
0.000818821
0.000827865
0.000836388
0.000844397
0.000851903
0.000858918
0.000865456
0.000871534
0.000877169
0.00088238
0.000887186
0.000891607
0.000895664
0.000899375
0.000902763
0.000905845
0.000908642
0.000911173
0.000913456
0.00091551
0.000917351
0.000918996
0.000920461
0.00092176
0.000922909
0.00092392
0.000924807
0.000925581
0.000926254
0.000926835
0.000927335
0.00092776
0.00092812
0.000928419
0.000928664
0.000928858
0.000929004
0.000929102
0.000929152
0.000977093
0.000936619
0.00089948
0.000865353
0.000833948
0.000805007
0.000778297
0.000753609
0.000730757
0.000709573
0.000689909
0.000671631
0.000654623
0.000638781
0.000624015
0.000610246
0.000597407
0.000585445
0.000574314
0.000563982
0.000554426
0.000545634
0.000537603
0.000530341
0.000523867
0.000518206
0.000513393
0.000509468
0.000506477
0.000504468
0.00050349
0.00050359
0.000504807
0.000507173
0.00051071
0.000515422
0.000521301
0.00052832
0.000536434
0.000545584
0.000555693
0.000566672
0.000578422
0.000590835
0.000603799
0.0006172
0.000630925
0.000644864
0.000658913
0.000672972
0.000686953
0.000700772
0.000714357
0.000727643
0.000740577
0.000753112
0.00076521
0.000776834
0.000787972
0.000798604
0.000808719
0.00081831
0.000827377
0.000835924
0.000843958
0.000851487
0.000858526
0.000865087
0.000871187
0.000876844
0.000882077
0.000886903
0.000891344
0.000895419
0.000899149
0.000902553
0.000905652
0.000908464
0.00091101
0.000913307
0.000915373
0.000917227
0.000918883
0.000920359
0.000921668
0.000922826
0.000923847
0.000924742
0.000925524
0.000926204
0.000926792
0.000927297
0.000927728
0.000928093
0.000928397
0.000928645
0.000928842
0.00092899
0.000929089
0.00092914
0.000977094
0.000936622
0.000899484
0.000865359
0.000833958
0.00080502
0.000778314
0.00075363
0.000730782
0.000709603
0.000689944
0.000671672
0.000654669
0.000638833
0.000624072
0.000610309
0.000597476
0.000585519
0.000574394
0.000564066
0.000554514
0.000545725
0.000537696
0.000530434
0.000523958
0.000518293
0.000513472
0.000509537
0.000506532
0.000504505
0.000503505
0.000503577
0.000504763
0.000507094
0.000510591
0.00051526
0.000521093
0.000528064
0.00053613
0.00054523
0.000555291
0.000566224
0.000577931
0.000590303
0.000603231
0.000616601
0.0006303
0.000644217
0.00065825
0.000672298
0.000686272
0.000700089
0.000713676
0.000726969
0.000739913
0.000752461
0.000764575
0.000776216
0.000787375
0.000798028
0.000808165
0.00081778
0.000826872
0.000835443
0.000843501
0.000851055
0.000858118
0.000864703
0.000870826
0.000876506
0.00088176
0.000886608
0.000891069
0.000895164
0.000898912
0.000902334
0.000905449
0.000908278
0.000910838
0.00091315
0.00091523
0.000917096
0.000918764
0.000920251
0.000921571
0.000922739
0.000923769
0.000924673
0.000925463
0.00092615
0.000926745
0.000927257
0.000927693
0.000928063
0.000928371
0.000928623
0.000928823
0.000928973
0.000929075
0.000929126
0.000977094
0.000936624
0.000899488
0.000865366
0.000833967
0.000805033
0.00077833
0.00075365
0.000730807
0.000709632
0.000689978
0.000671712
0.000654715
0.000638885
0.00062413
0.000610373
0.000597546
0.000585595
0.000574475
0.000564152
0.000554604
0.000545818
0.000537791
0.00053053
0.000524052
0.000518382
0.000513555
0.000509609
0.000506589
0.000504544
0.000503521
0.000503567
0.000504721
0.000507016
0.000510472
0.000515098
0.000520885
0.000527807
0.000535823
0.000544874
0.000554886
0.000565772
0.000577433
0.000589765
0.000602656
0.000615993
0.000629664
0.000643559
0.000657574
0.00067161
0.000685577
0.000699392
0.000712981
0.00072628
0.000739233
0.000751793
0.000763923
0.000775582
0.000786761
0.000797436
0.000807595
0.000817234
0.00082635
0.000834946
0.000843029
0.000850608
0.000857696
0.000864305
0.000870452
0.000876155
0.000881431
0.000886301
0.000890783
0.000894898
0.000898665
0.000902105
0.000905238
0.000908083
0.000910659
0.000912985
0.000915079
0.000916958
0.000918639
0.000920138
0.000921469
0.000922647
0.000923687
0.000924599
0.000925398
0.000926093
0.000926695
0.000927213
0.000927656
0.00092803
0.000928343
0.000928599
0.000928802
0.000928955
0.000929058
0.00092911
0.000977095
0.000936626
0.000899492
0.000865372
0.000833976
0.000805045
0.000778345
0.00075367
0.000730831
0.000709662
0.000690013
0.000671752
0.000654761
0.000638937
0.000624188
0.000610437
0.000597616
0.000585671
0.000574557
0.00056424
0.000554696
0.000545913
0.000537888
0.000530627
0.000524148
0.000518474
0.000513639
0.000509683
0.000506649
0.000504585
0.00050354
0.000503558
0.00050468
0.000506939
0.000510355
0.000514937
0.000520677
0.00052755
0.000535516
0.000544516
0.000554478
0.000565316
0.000576932
0.000589222
0.000602075
0.000615379
0.000629021
0.000642893
0.00065689
0.000670913
0.000684872
0.000698683
0.000712274
0.000725578
0.00073854
0.000751113
0.000763258
0.000774935
0.000786133
0.00079683
0.000807012
0.000816675
0.000825816
0.000834437
0.000842545
0.000850149
0.000857261
0.000863895
0.000870067
0.000875793
0.000881093
0.000885984
0.000890487
0.000894623
0.000898409
0.000901868
0.000905019
0.000907881
0.000910473
0.000912814
0.000914923
0.000916815
0.000918509
0.00092002
0.000921362
0.000922551
0.0009236
0.000924522
0.000925329
0.000926033
0.000926642
0.000927167
0.000927615
0.000927995
0.000928313
0.000928573
0.000928779
0.000928934
0.000929038
0.000929091
0.000977095
0.000936627
0.000899496
0.000865378
0.000833984
0.000805056
0.000778361
0.000753689
0.000730855
0.00070969
0.000690047
0.000671791
0.000654807
0.000638988
0.000624246
0.000610501
0.000597687
0.000585748
0.00057464
0.000564328
0.000554789
0.000546009
0.000537986
0.000530726
0.000524245
0.000518567
0.000513725
0.000509758
0.000506711
0.000504629
0.000503561
0.000503552
0.000504642
0.000506864
0.00051024
0.000514778
0.00052047
0.000527294
0.000535209
0.000544159
0.000554071
0.00056486
0.00057643
0.000588677
0.000601491
0.000614761
0.000628374
0.000642222
0.0006562
0.00067021
0.00068416
0.000697967
0.000711558
0.000724868
0.000737839
0.000750423
0.000762583
0.000774277
0.000785496
0.000796213
0.000806419
0.000816105
0.00082527
0.000833917
0.00084205
0.00084968
0.000856817
0.000863476
0.000869672
0.000875422
0.000880745
0.000885659
0.000890184
0.00089434
0.000898146
0.000901624
0.000904793
0.000907672
0.000910281
0.000912638
0.000914761
0.000916667
0.000918374
0.000919897
0.000921251
0.000922451
0.00092351
0.000924442
0.000925258
0.000925969
0.000926586
0.000927117
0.000927572
0.000927958
0.00092828
0.000928544
0.000928753
0.000928911
0.000929017
0.000929071
0.000977096
0.000936629
0.000899499
0.000865383
0.000833993
0.000805068
0.000778376
0.000753708
0.000730878
0.000709718
0.00069008
0.000671831
0.000654852
0.00063904
0.000624304
0.000610565
0.000597758
0.000585825
0.000574722
0.000564416
0.000554881
0.000546106
0.000538085
0.000530825
0.000524343
0.000518661
0.000513812
0.000509835
0.000506774
0.000504674
0.000503583
0.000503547
0.000504606
0.000506792
0.000510127
0.000514621
0.000520266
0.000527041
0.000534905
0.000543803
0.000553665
0.000564405
0.000575929
0.000588133
0.000600908
0.000614143
0.000627726
0.000641549
0.000655508
0.000669503
0.000683444
0.000697247
0.000710838
0.000724152
0.000737131
0.000749727
0.000761901
0.000773612
0.00078485
0.000795589
0.000805817
0.000815527
0.000824717
0.000833389
0.000841548
0.000849203
0.000856365
0.000863049
0.00086927
0.000875044
0.00088039
0.000885326
0.000889873
0.00089405
0.000897877
0.000901374
0.000904561
0.000907458
0.000910083
0.000912456
0.000914594
0.000916515
0.000918235
0.000919771
0.000921137
0.000922348
0.000923417
0.000924359
0.000925183
0.000925903
0.000926527
0.000927066
0.000927527
0.000927918
0.000928245
0.000928513
0.000928726
0.000928886
0.000928993
0.000929048
0.000977096
0.000936631
0.000899502
0.000865389
0.000834001
0.000805079
0.00077839
0.000753726
0.000730901
0.000709746
0.000690113
0.000671869
0.000654896
0.00063909
0.000624361
0.000610629
0.000597827
0.000585901
0.000574805
0.000564504
0.000554974
0.000546202
0.000538184
0.000530925
0.000524441
0.000518756
0.0005139
0.000509913
0.000506838
0.00050472
0.000503607
0.000503544
0.000504571
0.000506721
0.000510017
0.000514466
0.000520065
0.00052679
0.000534604
0.000543451
0.000553262
0.000563953
0.00057543
0.000587591
0.000600326
0.000613526
0.000627079
0.000640877
0.000654815
0.000668796
0.000682726
0.000696525
0.000710115
0.000723433
0.000736419
0.000749027
0.000761214
0.000772943
0.000784199
0.000794959
0.00080521
0.000814943
0.000824158
0.000832854
0.000841039
0.000848719
0.000855907
0.000862616
0.000868861
0.000874659
0.000880029
0.000884988
0.000889557
0.000893755
0.000897603
0.000901119
0.000904325
0.000907239
0.000909882
0.00091227
0.000914423
0.000916359
0.000918092
0.000919641
0.000921019
0.000922241
0.000923321
0.000924272
0.000925106
0.000925834
0.000926466
0.000927012
0.000927479
0.000927875
0.000928207
0.00092848
0.000928696
0.000928858
0.000928968
0.000929023
0.000977097
0.000936633
0.000899506
0.000865394
0.000834008
0.000805089
0.000778404
0.000753744
0.000730923
0.000709773
0.000690145
0.000671907
0.000654939
0.00063914
0.000624417
0.000610691
0.000597897
0.000585977
0.000574886
0.000564591
0.000555066
0.000546298
0.000538282
0.000531025
0.00052454
0.00051885
0.000513989
0.000509992
0.000506903
0.000504767
0.000503632
0.000503543
0.000504539
0.000506653
0.000509909
0.000514315
0.000519867
0.000526543
0.000534307
0.000543103
0.000552863
0.000563506
0.000574936
0.000587053
0.000599749
0.000612913
0.000626436
0.000640208
0.000654126
0.000668091
0.000682011
0.000695804
0.000709393
0.000722714
0.000735708
0.000748325
0.000760527
0.000772271
0.000783547
0.000794327
0.0008046
0.000814356
0.000823595
0.000832316
0.000840526
0.000848231
0.000855445
0.000862178
0.000868448
0.000874271
0.000879664
0.000884646
0.000889237
0.000893456
0.000897324
0.00090086
0.000904085
0.000907017
0.000909676
0.000912081
0.00091425
0.000916199
0.000917946
0.000919508
0.000920898
0.000922131
0.000923222
0.000924183
0.000925026
0.000925763
0.000926402
0.000926955
0.000927429
0.000927831
0.000928168
0.000928444
0.000928664
0.000928829
0.00092894
0.000928996
0.000977097
0.000936634
0.000899509
0.000865399
0.000834016
0.000805099
0.000778417
0.000753761
0.000730944
0.000709799
0.000690176
0.000671943
0.000654982
0.000639189
0.000624472
0.000610753
0.000597965
0.000586051
0.000574967
0.000564677
0.000555157
0.000546393
0.00053838
0.000531123
0.000524637
0.000518945
0.000514077
0.00051007
0.000506968
0.000504815
0.000503659
0.000503543
0.000504508
0.000506588
0.000509804
0.000514167
0.000519673
0.000526301
0.000534015
0.00054276
0.000552471
0.000563064
0.000574448
0.000586522
0.000599178
0.000612307
0.000625798
0.000639545
0.000653441
0.00066739
0.0006813
0.000695086
0.000708675
0.000721998
0.000734998
0.000747626
0.00075984
0.000771601
0.000782894
0.000793694
0.000803989
0.000813768
0.00082303
0.000831776
0.000840011
0.000847741
0.00085498
0.000861738
0.000868033
0.000873879
0.000879296
0.000884301
0.000888914
0.000893154
0.000897043
0.000900599
0.000903842
0.000906792
0.000909468
0.000911889
0.000914073
0.000916037
0.000917798
0.000919372
0.000920775
0.00092202
0.000923121
0.000924092
0.000924944
0.000925689
0.000926337
0.000926897
0.000927377
0.000927785
0.000928127
0.000928407
0.00092863
0.000928798
0.000928911
0.000928967
0.000977098
0.000936636
0.000899512
0.000865404
0.000834023
0.000805109
0.00077843
0.000753778
0.000730965
0.000709824
0.000690207
0.000671979
0.000655024
0.000639236
0.000624526
0.000610813
0.000598032
0.000586124
0.000575046
0.000564762
0.000555247
0.000546487
0.000538477
0.000531221
0.000524734
0.000519038
0.000514164
0.000510148
0.000507033
0.000504864
0.000503686
0.000503544
0.00050448
0.000506525
0.000509703
0.000514024
0.000519484
0.000526064
0.000533728
0.000542424
0.000552085
0.00056263
0.000573968
0.000585998
0.000598615
0.000611708
0.000625169
0.000638889
0.000652764
0.000666697
0.000680595
0.000694375
0.000707961
0.000721287
0.000734293
0.00074693
0.000759157
0.000770933
0.000782244
0.000793064
0.000803379
0.000813181
0.000822467
0.000831237
0.000839496
0.000847251
0.000854514
0.000861297
0.000867616
0.000873486
0.000878926
0.000883954
0.000888589
0.000892851
0.000896759
0.000900335
0.000903597
0.000906565
0.000909258
0.000911695
0.000913894
0.000915873
0.000917648
0.000919235
0.00092065
0.000921906
0.000923018
0.000923999
0.000924861
0.000925614
0.00092627
0.000926837
0.000927323
0.000927737
0.000928084
0.000928368
0.000928595
0.000928765
0.00092888
0.000928937
0.000977098
0.000936637
0.000899515
0.000865409
0.00083403
0.000805119
0.000778443
0.000753794
0.000730985
0.000709849
0.000690236
0.000672014
0.000655064
0.000639283
0.000624578
0.000610872
0.000598097
0.000586196
0.000575124
0.000564846
0.000555336
0.00054658
0.000538572
0.000531317
0.00052483
0.000519131
0.000514251
0.000510226
0.000507098
0.000504912
0.000503714
0.000503547
0.000504453
0.000506465
0.000509605
0.000513884
0.0005193
0.000525833
0.000533449
0.000542096
0.000551707
0.000562205
0.000573497
0.000585484
0.000598061
0.000611119
0.000624549
0.000638243
0.000652097
0.000666013
0.0006799
0.000693673
0.000707256
0.000720583
0.000733595
0.000746241
0.00075848
0.000770271
0.000781598
0.000792437
0.000802773
0.000812597
0.000821906
0.000830699
0.000838982
0.000846762
0.00085405
0.000860857
0.0008672
0.000873094
0.000878557
0.000883607
0.000888264
0.000892546
0.000896475
0.00090007
0.000903351
0.000906337
0.000909047
0.0009115
0.000913715
0.000915708
0.000917496
0.000919097
0.000920524
0.000921791
0.000922914
0.000923905
0.000924776
0.000925538
0.000926201
0.000926775
0.000927268
0.000927687
0.000928039
0.000928328
0.000928558
0.000928731
0.000928847
0.000928905
0.000977098
0.000936639
0.000899518
0.000865413
0.000834036
0.000805128
0.000778455
0.00075381
0.000731005
0.000709873
0.000690265
0.000672048
0.000655103
0.000639328
0.00062463
0.00061093
0.000598161
0.000586266
0.0005752
0.000564927
0.000555422
0.00054667
0.000538665
0.000531412
0.000524924
0.000519222
0.000514336
0.000510303
0.000507163
0.00050496
0.000503742
0.000503551
0.000504429
0.000506407
0.00050951
0.000513749
0.000519121
0.000525608
0.000533176
0.000541775
0.000551339
0.000561789
0.000573036
0.000584981
0.000597518
0.000610541
0.00062394
0.000637608
0.000651441
0.00066534
0.000679215
0.000692981
0.000706561
0.00071989
0.000732906
0.000745561
0.000757811
0.000769616
0.00078096
0.000791817
0.000802173
0.000812019
0.00082135
0.000830166
0.000838473
0.000846277