/*--------------------------------*- C++ -*----------------------------------*\
  =========                 |
  \\      /  F ield         | OpenFOAM: The Open Source CFD Toolbox
   \\    /   O peration     | Website:  https://openfoam.org
    \\  /    A nd           | Version:  11
     \\/     M anipulation  |
\*---------------------------------------------------------------------------*/
FoamFile
{
    format      ascii;
    class       volScalarField;
    location    "180";
    object      p;
}
// * * * * * * * * * * * * * * * * * * * * * * * * * * * * * * * * * * * * * //

dimensions      [0 2 -2 0 0 0 0];

internalField   nonuniform List<scalar> 
10000
(
3.33957e-07
3.2666e-07
3.37422e-07
3.60212e-07
3.86543e-07
4.14418e-07
4.4365e-07
4.74155e-07
5.05869e-07
5.38784e-07
5.72918e-07
6.08295e-07
6.44941e-07
6.82876e-07
7.22116e-07
7.62666e-07
8.04525e-07
8.47678e-07
8.92097e-07
9.37742e-07
9.84554e-07
1.03246e-06
1.08136e-06
1.13114e-06
1.18166e-06
1.23275e-06
1.28422e-06
1.33586e-06
1.38742e-06
1.43865e-06
1.48926e-06
1.53895e-06
1.58744e-06
1.63441e-06
1.67958e-06
1.72268e-06
1.76342e-06
1.80154e-06
1.83677e-06
1.86869e-06
1.89644e-06
1.91809e-06
1.93507e-06
1.96048e-06
1.98923e-06
2.00929e-06
2.02571e-06
2.04158e-06
2.05042e-06
2.05695e-06
2.06962e-06
2.08026e-06
2.0804e-06
2.08034e-06
2.08675e-06
2.09156e-06
2.09135e-06
2.08765e-06
2.08129e-06
2.07254e-06
2.06155e-06
2.0484e-06
2.03316e-06
2.01586e-06
1.99653e-06
1.97521e-06
1.9519e-06
1.92662e-06
1.89941e-06
1.87027e-06
1.83923e-06
1.80631e-06
1.77154e-06
1.73494e-06
1.69654e-06
1.65635e-06
1.61441e-06
1.57074e-06
1.52534e-06
1.47826e-06
1.42948e-06
1.37903e-06
1.32691e-06
1.2731e-06
1.2176e-06
1.16037e-06
1.10137e-06
1.04053e-06
9.77751e-07
9.12913e-07
8.45836e-07
7.76279e-07
7.03903e-07
6.28213e-07
5.48517e-07
4.64055e-07
3.73543e-07
2.70552e-07
1.39111e-07
6.13657e-09
6.63753e-07
6.32671e-07
6.13113e-07
6.20567e-07
6.39952e-07
6.65125e-07
6.94436e-07
7.2701e-07
7.6225e-07
7.99811e-07
8.39492e-07
8.81176e-07
9.24785e-07
9.70269e-07
1.01759e-06
1.06671e-06
1.11759e-06
1.17019e-06
1.22446e-06
1.28033e-06
1.33772e-06
1.39652e-06
1.45662e-06
1.51785e-06
1.58004e-06
1.64297e-06
1.70639e-06
1.77003e-06
1.83356e-06
1.89663e-06
1.95888e-06
2.0199e-06
2.0793e-06
2.13668e-06
2.19165e-06
2.24384e-06
2.29294e-06
2.33865e-06
2.38072e-06
2.41893e-06
2.45288e-06
2.48226e-06
2.51047e-06
2.54342e-06
2.56603e-06
2.57187e-06
2.57341e-06
2.58031e-06
2.5951e-06
2.61645e-06
2.64151e-06
2.66144e-06
2.66588e-06
2.6612e-06
2.65937e-06
2.65835e-06
2.65444e-06
2.64754e-06
2.63787e-06
2.62551e-06
2.61052e-06
2.59295e-06
2.57283e-06
2.55019e-06
2.52502e-06
2.49735e-06
2.46717e-06
2.43451e-06
2.39936e-06
2.36174e-06
2.32166e-06
2.27915e-06
2.23421e-06
2.18686e-06
2.13712e-06
2.08501e-06
2.03055e-06
1.97375e-06
1.91463e-06
1.85319e-06
1.78944e-06
1.72337e-06
1.65497e-06
1.58421e-06
1.51105e-06
1.43542e-06
1.35725e-06
1.27642e-06
1.19276e-06
1.10606e-06
1.01603e-06
9.22283e-07
8.2428e-07
7.21235e-07
6.12112e-07
4.95981e-07
3.70995e-07
2.24606e-07
3.09973e-08
-1.07515e-07
8.55825e-07
8.099e-07
7.69381e-07
7.57471e-07
7.60586e-07
7.72001e-07
7.89477e-07
8.1168e-07
8.37648e-07
8.66755e-07
8.98601e-07
9.32916e-07
9.69514e-07
1.00826e-06
1.04906e-06
1.09182e-06
1.13648e-06
1.18298e-06
1.23123e-06
1.28118e-06
1.33271e-06
1.38572e-06
1.44009e-06
1.49565e-06
1.55221e-06
1.60954e-06
1.66737e-06
1.72541e-06
1.78329e-06
1.84065e-06
1.89706e-06
1.95209e-06
2.00528e-06
2.05621e-06
2.10445e-06
2.14963e-06
2.19144e-06
2.22964e-06
2.26408e-06
2.29478e-06
2.32182e-06
2.34565e-06
2.36858e-06
2.39396e-06
2.41845e-06
2.4359e-06
2.44868e-06
2.45771e-06
2.46127e-06
2.46053e-06
2.45781e-06
2.45123e-06
2.43863e-06
2.425e-06
2.41417e-06
2.40431e-06
2.3935e-06
2.38115e-06
2.36704e-06
2.35107e-06
2.33317e-06
2.31331e-06
2.29148e-06
2.26765e-06
2.2418e-06
2.21391e-06
2.18397e-06
2.15195e-06
2.11785e-06
2.08165e-06
2.04334e-06
2.00292e-06
1.96039e-06
1.91574e-06
1.86896e-06
1.82006e-06
1.76903e-06
1.71587e-06
1.66057e-06
1.60313e-06
1.54351e-06
1.48171e-06
1.41768e-06
1.35139e-06
1.28276e-06
1.21171e-06
1.13815e-06
1.06192e-06
9.82836e-07
9.00667e-07
8.15095e-07
7.25707e-07
6.31949e-07
5.33035e-07
4.2803e-07
3.16442e-07
1.96821e-07
5.397e-08
-1.39402e-07
-2.20835e-07
1.0298e-06
9.78906e-07
9.3388e-07
9.14197e-07
9.0913e-07
9.13184e-07
9.24293e-07
9.41055e-07
9.62392e-07
9.87557e-07
1.01604e-06
1.04747e-06
1.0816e-06
1.11823e-06
1.1572e-06
1.19842e-06
1.24176e-06
1.28715e-06
1.33449e-06
1.38368e-06
1.43462e-06
1.48717e-06
1.5412e-06
1.59651e-06
1.65289e-06
1.71009e-06
1.7678e-06
1.82569e-06
1.88337e-06
1.94039e-06
1.99631e-06
2.05064e-06
2.10287e-06
2.15252e-06
2.19914e-06
2.24233e-06
2.28175e-06
2.31718e-06
2.34851e-06
2.37579e-06
2.39919e-06
2.41912e-06
2.43667e-06
2.45325e-06
2.46811e-06
2.47882e-06
2.48544e-06
2.48796e-06
2.48563e-06
2.47914e-06
2.46987e-06
2.45773e-06
2.44258e-06
2.42646e-06
2.41081e-06
2.39515e-06
2.37878e-06
2.36131e-06
2.3425e-06
2.32221e-06
2.30033e-06
2.27682e-06
2.25161e-06
2.22467e-06
2.19594e-06
2.1654e-06
2.13299e-06
2.09869e-06
2.06247e-06
2.02429e-06
1.98414e-06
1.94199e-06
1.89781e-06
1.85159e-06
1.80332e-06
1.75297e-06
1.70053e-06
1.64597e-06
1.58928e-06
1.53042e-06
1.46938e-06
1.4061e-06
1.34054e-06
1.27263e-06
1.20231e-06
1.12946e-06
1.05396e-06
9.75649e-07
8.94327e-07
8.09734e-07
7.21539e-07
6.29324e-07
5.32537e-07
4.30428e-07
3.22188e-07
2.07716e-07
8.58562e-08
-6.06761e-08
-2.59209e-07
-3.07852e-07
1.18811e-06
1.1376e-06
1.09299e-06
1.07023e-06
1.06082e-06
1.06055e-06
1.06772e-06
1.08105e-06
1.09949e-06
1.12225e-06
1.14878e-06
1.17867e-06
1.21162e-06
1.24738e-06
1.28578e-06
1.32667e-06
1.36992e-06
1.41541e-06
1.46304e-06
1.51268e-06
1.56422e-06
1.6175e-06
1.67235e-06
1.72857e-06
1.78592e-06
1.84412e-06
1.90284e-06
1.96169e-06
2.02027e-06
2.07809e-06
2.13466e-06
2.18945e-06
2.24193e-06
2.29156e-06
2.33787e-06
2.38043e-06
2.41889e-06
2.45302e-06
2.48269e-06
2.50793e-06
2.5289e-06
2.54592e-06
2.55956e-06
2.57047e-06
2.57837e-06
2.58246e-06
2.58279e-06
2.5795e-06
2.5726e-06
2.56248e-06
2.54974e-06
2.53452e-06
2.51699e-06
2.49805e-06
2.47847e-06
2.45832e-06
2.43738e-06
2.41543e-06
2.39232e-06
2.36791e-06
2.34211e-06
2.31484e-06
2.28604e-06
2.25565e-06
2.22362e-06
2.18987e-06
2.15437e-06
2.11707e-06
2.07791e-06
2.03686e-06
1.99388e-06
1.94893e-06
1.90198e-06
1.853e-06
1.80195e-06
1.7488e-06
1.69353e-06
1.6361e-06
1.57648e-06
1.51463e-06
1.45051e-06
1.38406e-06
1.31522e-06
1.24392e-06
1.17007e-06
1.09356e-06
1.01424e-06
9.31942e-07
8.46459e-07
7.57522e-07
6.64805e-07
5.67898e-07
4.6628e-07
3.59253e-07
2.46143e-07
1.27147e-07
1.21838e-09
-1.50595e-07
-3.53574e-07
-3.8525e-07
1.33102e-06
1.28286e-06
1.23973e-06
1.21552e-06
1.20336e-06
1.20001e-06
1.20414e-06
1.21464e-06
1.23054e-06
1.2511e-06
1.27576e-06
1.30409e-06
1.33576e-06
1.3705e-06
1.40811e-06
1.44843e-06
1.49129e-06
1.53657e-06
1.58413e-06
1.63385e-06
1.68557e-06
1.73914e-06
1.79436e-06
1.85101e-06
1.90883e-06
1.96752e-06
2.02671e-06
2.08602e-06
2.14498e-06
2.20311e-06
2.25986e-06
2.31468e-06
2.36701e-06
2.4163e-06
2.46204e-06
2.50378e-06
2.54115e-06
2.57391e-06
2.6019e-06
2.62514e-06
2.64374e-06
2.65795e-06
2.66818e-06
2.67479e-06
2.67778e-06
2.67696e-06
2.67245e-06
2.66447e-06
2.65324e-06
2.63907e-06
2.62238e-06
2.60342e-06
2.58244e-06
2.55997e-06
2.53652e-06
2.51225e-06
2.48711e-06
2.46103e-06
2.43389e-06
2.4056e-06
2.37606e-06
2.3452e-06
2.31296e-06
2.27925e-06
2.24402e-06
2.2072e-06
2.16871e-06
2.12852e-06
2.08654e-06
2.04274e-06
1.99706e-06
1.94945e-06
1.89987e-06
1.84827e-06
1.79461e-06
1.73884e-06
1.68094e-06
1.62084e-06
1.55852e-06
1.49391e-06
1.42697e-06
1.35764e-06
1.28584e-06
1.21149e-06
1.13449e-06
1.05472e-06
9.72036e-07
8.86266e-07
7.97197e-07
7.04571e-07
6.08077e-07
5.07339e-07
4.01882e-07
2.91086e-07
1.74412e-07
5.23419e-08
-7.60719e-08
-2.31215e-07
-4.36712e-07
-4.54975e-07
1.46329e-06
1.41778e-06
1.37647e-06
1.35179e-06
1.33799e-06
1.3325e-06
1.33434e-06
1.34257e-06
1.35634e-06
1.37497e-06
1.39792e-06
1.42477e-06
1.45517e-06
1.48885e-06
1.5256e-06
1.56521e-06
1.60754e-06
1.65242e-06
1.69971e-06
1.74926e-06
1.80092e-06
1.8545e-06
1.90979e-06
1.96656e-06
2.02452e-06
2.08336e-06
2.1427e-06
2.20211e-06
2.26113e-06
2.31923e-06
2.37587e-06
2.43045e-06
2.48241e-06
2.53116e-06
2.57617e-06
2.61699e-06
2.65322e-06
2.68459e-06
2.71093e-06
2.73223e-06
2.74857e-06
2.76015e-06
2.76728e-06
2.77027e-06
2.76926e-06
2.76435e-06
2.75572e-06
2.74362e-06
2.72835e-06
2.71023e-06
2.68964e-06
2.66689e-06
2.64228e-06
2.6162e-06
2.589e-06
2.56084e-06
2.53177e-06
2.50179e-06
2.47082e-06
2.43881e-06
2.40566e-06
2.37133e-06
2.33573e-06
2.29878e-06
2.26042e-06
2.22057e-06
2.17917e-06
2.13613e-06
2.09139e-06
2.0449e-06
1.99658e-06
1.94638e-06
1.89423e-06
1.8401e-06
1.78392e-06
1.72564e-06
1.66522e-06
1.60259e-06
1.53771e-06
1.47052e-06
1.40095e-06
1.32894e-06
1.25441e-06
1.17726e-06
1.0974e-06
1.01471e-06
9.29032e-07
8.40206e-07
7.48025e-07
6.52251e-07
5.52599e-07
4.48736e-07
3.40249e-07
2.266e-07
1.07389e-07
-1.65841e-08
-1.46025e-07
-3.03135e-07
-5.14147e-07
-5.14073e-07
1.5879e-06
1.54489e-06
1.50546e-06
1.48091e-06
1.46622e-06
1.45935e-06
1.45954e-06
1.46603e-06
1.4781e-06
1.49512e-06
1.51661e-06
1.54214e-06
1.57139e-06
1.60408e-06
1.63998e-06
1.67889e-06
1.72064e-06
1.76506e-06
1.812e-06
1.86128e-06
1.91275e-06
1.96619e-06
2.0214e-06
2.07812e-06
2.13605e-06
2.19485e-06
2.25414e-06
2.31348e-06
2.37237e-06
2.43028e-06
2.48664e-06
2.54086e-06
2.59233e-06
2.64047e-06
2.68473e-06
2.72462e-06
2.75975e-06
2.78982e-06
2.81464e-06
2.83416e-06
2.84843e-06
2.85764e-06
2.86203e-06
2.86189e-06
2.85747e-06
2.84899e-06
2.83671e-06
2.82094e-06
2.802e-06
2.78026e-06
2.75607e-06
2.72976e-06
2.70165e-06
2.67206e-06
2.64127e-06
2.60945e-06
2.57669e-06
2.54302e-06
2.50842e-06
2.47284e-06
2.43622e-06
2.39851e-06
2.35963e-06
2.3195e-06
2.27806e-06
2.23522e-06
2.19091e-06
2.14505e-06
2.09756e-06
2.04837e-06
1.99742e-06
1.94462e-06
1.88993e-06
1.83327e-06
1.77458e-06
1.71381e-06
1.65088e-06
1.58576e-06
1.51836e-06
1.44863e-06
1.3765e-06
1.3019e-06
1.22473e-06
1.14492e-06
1.06235e-06
9.76901e-07
8.88439e-07
7.96801e-07
7.01798e-07
6.03213e-07
5.00795e-07
3.9426e-07
2.83261e-07
1.67338e-07
4.62169e-08
-7.89539e-08
-2.08515e-07
-3.67026e-07
-5.87659e-07
-5.65357e-07
1.70635e-06
1.66556e-06
1.6279e-06
1.60377e-06
1.58869e-06
1.58095e-06
1.57997e-06
1.58516e-06
1.59587e-06
1.61157e-06
1.63181e-06
1.65619e-06
1.6844e-06
1.71617e-06
1.75127e-06
1.78948e-06
1.83063e-06
1.87455e-06
1.92105e-06
1.96999e-06
2.02115e-06
2.07435e-06
2.12934e-06
2.18586e-06
2.24361e-06
2.30222e-06
2.36131e-06
2.42041e-06
2.47903e-06
2.53661e-06
2.59258e-06
2.64633e-06
2.69724e-06
2.74472e-06
2.7882e-06
2.82719e-06
2.86126e-06
2.8901e-06
2.91351e-06
2.9314e-06
2.94382e-06
2.9509e-06
2.95288e-06
2.95004e-06
2.94267e-06
2.93107e-06
2.91557e-06
2.89651e-06
2.87425e-06
2.84918e-06
2.82165e-06
2.79201e-06
2.76057e-06
2.72763e-06
2.69343e-06
2.65814e-06
2.62189e-06
2.58474e-06
2.54668e-06
2.50769e-06
2.46773e-06
2.42674e-06
2.38467e-06
2.34145e-06
2.29698e-06
2.2512e-06
2.20402e-06
2.15536e-06
2.10514e-06
2.05328e-06
1.9997e-06
1.94433e-06
1.88709e-06
1.82792e-06
1.76675e-06
1.7035e-06
1.63811e-06
1.57052e-06
1.50065e-06
1.42844e-06
1.35382e-06
1.2767e-06
1.19701e-06
1.11464e-06
1.0295e-06
9.41462e-07
8.50406e-07
7.56179e-07
6.5861e-07
5.57508e-07
4.5266e-07
3.43828e-07
2.30728e-07
1.12969e-07
-9.61666e-09
-1.35565e-07
-2.64884e-07
-4.24823e-07
-6.56923e-07
-6.14215e-07
1.81952e-06
1.78067e-06
1.74458e-06
1.72102e-06
1.70585e-06
1.69758e-06
1.69579e-06
1.69998e-06
1.70963e-06
1.72424e-06
1.74341e-06
1.76679e-06
1.79407e-06
1.82498e-06
1.8593e-06
1.89682e-06
1.93735e-06
1.98072e-06
2.02674e-06
2.07524e-06
2.12602e-06
2.17886e-06
2.23352e-06
2.28972e-06
2.34715e-06
2.40545e-06
2.46419e-06
2.52293e-06
2.58115e-06
2.63829e-06
2.69377e-06
2.74696e-06
2.79724e-06
2.84402e-06
2.8867e-06
2.92479e-06
2.95784e-06
2.98553e-06
3.00763e-06
3.02404e-06
3.03477e-06
3.03996e-06
3.03981e-06
3.0346e-06
3.02466e-06
3.01032e-06
2.99196e-06
2.96994e-06
2.94468e-06
2.91654e-06
2.88591e-06
2.85314e-06
2.81855e-06
2.78241e-06
2.74497e-06
2.70641e-06
2.66686e-06
2.62639e-06
2.58504e-06
2.54279e-06
2.49962e-06
2.45548e-06
2.41032e-06
2.36407e-06
2.31666e-06
2.26799e-06
2.21799e-06
2.16658e-06
2.11366e-06
2.05916e-06
2.00299e-06
1.94507e-06
1.88533e-06
1.82367e-06
1.76004e-06
1.69436e-06
1.62655e-06
1.55654e-06
1.48427e-06
1.40965e-06
1.33261e-06
1.25308e-06
1.17096e-06
1.08617e-06
9.98599e-07
9.08145e-07
8.14684e-07
7.18083e-07
6.1819e-07
5.14841e-07
4.07857e-07
2.9705e-07
1.82192e-07
6.29526e-08
-6.07471e-08
-1.87155e-07
-3.15951e-07
-4.769e-07
-7.2011e-07
-6.59985e-07
1.92799e-06
1.8908e-06
1.85613e-06
1.83318e-06
1.81809e-06
1.80953e-06
1.80718e-06
1.81064e-06
1.81943e-06
1.83315e-06
1.85142e-06
1.87391e-06
1.90034e-06
1.93046e-06
1.96404e-06
2.00087e-06
2.04077e-06
2.08356e-06
2.12905e-06
2.17705e-06
2.22736e-06
2.27976e-06
2.33399e-06
2.38978e-06
2.44679e-06
2.50465e-06
2.56295e-06
2.62121e-06
2.67893e-06
2.73554e-06
2.79043e-06
2.843e-06
2.89261e-06
2.93864e-06
2.98052e-06
3.01771e-06
3.04979e-06
3.07638e-06
3.09726e-06
3.11231e-06
3.12153e-06
3.12501e-06
3.12297e-06
3.11568e-06
3.10347e-06
3.08671e-06
3.06579e-06
3.04112e-06
3.01311e-06
2.98216e-06
2.94866e-06
2.91296e-06
2.87539e-06
2.83623e-06
2.79573e-06
2.75407e-06
2.71138e-06
2.66777e-06
2.62329e-06
2.57792e-06
2.53166e-06
2.48449e-06
2.43634e-06
2.38715e-06
2.33686e-06
2.28538e-06
2.23262e-06
2.17851e-06
2.12295e-06
2.06585e-06
2.00713e-06
1.9467e-06
1.88448e-06
1.82039e-06
1.75434e-06
1.68627e-06
1.61609e-06
1.54373e-06
1.46911e-06
1.39216e-06
1.3128e-06
1.23095e-06
1.14652e-06
1.05942e-06
9.69571e-07
8.76855e-07
7.81168e-07
6.82389e-07
5.80387e-07
4.75026e-07
3.66159e-07
2.53641e-07
1.37297e-07
1.68548e-08
-1.07681e-07
-2.3429e-07
-3.62252e-07
-5.23169e-07
-7.74406e-07
-6.99878e-07
2.03215e-06
1.99642e-06
1.963e-06
1.94066e-06
1.92576e-06
1.91707e-06
1.91435e-06
1.91725e-06
1.92537e-06
1.93835e-06
1.95584e-06
1.97756e-06
2.00322e-06
2.0326e-06
2.06547e-06
2.10164e-06
2.1409e-06
2.18309e-06
2.22801e-06
2.27546e-06
2.32525e-06
2.37713e-06
2.43086e-06
2.48613e-06
2.54263e-06
2.59997e-06
2.65773e-06
2.71544e-06
2.77257e-06
2.82857e-06
2.88282e-06
2.93471e-06
2.9836e-06
3.02887e-06
3.06994e-06
3.10626e-06
3.13738e-06
3.16295e-06
3.1827e-06
3.1965e-06
3.20433e-06
3.20629e-06
3.20256e-06
3.19342e-06
3.17919e-06
3.16028e-06
3.13707e-06
3.10999e-06
3.07948e-06
3.04594e-06
3.00977e-06
2.97134e-06
2.93098e-06
2.88898e-06
2.84558e-06
2.80098e-06
2.75533e-06
2.70874e-06
2.66126e-06
2.61292e-06
2.5637e-06
2.5136e-06
2.46257e-06
2.41054e-06
2.35746e-06
2.30323e-06
2.24778e-06
2.19103e-06
2.13287e-06
2.07322e-06
2.012e-06
1.94911e-06
1.88447e-06
1.81798e-06
1.74958e-06
1.67917e-06
1.60668e-06
1.53203e-06
1.45514e-06
1.37594e-06
1.29434e-06
1.21026e-06
1.12363e-06
1.03436e-06
9.42358e-07
8.47529e-07
7.49776e-07
6.48995e-07
5.45074e-07
4.37899e-07
3.27356e-07
2.13336e-07
9.57097e-08
-2.57489e-08
-1.50964e-07
-2.77698e-07
-4.04918e-07
-5.65673e-07
-8.22269e-07
-7.37147e-07
2.1323e-06
2.09783e-06
2.06553e-06
2.0438e-06
2.02914e-06
2.02043e-06
2.01746e-06
2.01995e-06
2.02754e-06
2.0399e-06
2.05673e-06
2.07776e-06
2.10273e-06
2.13141e-06
2.16361e-06
2.19912e-06
2.23775e-06
2.27932e-06
2.32363e-06
2.3705e-06
2.41971e-06
2.47102e-06
2.52418e-06
2.57888e-06
2.63479e-06
2.69154e-06
2.74869e-06
2.80577e-06
2.86226e-06
2.91758e-06
2.97114e-06
3.02232e-06
3.07046e-06
3.11496e-06
3.15521e-06
3.19067e-06
3.22089e-06
3.24548e-06
3.26417e-06
3.27683e-06
3.2834e-06
3.28397e-06
3.27873e-06
3.26793e-06
3.25191e-06
3.23105e-06
3.20578e-06
3.17653e-06
3.14373e-06
3.10781e-06
3.06917e-06
3.0282e-06
2.98523e-06
2.94055e-06
2.89442e-06
2.84704e-06
2.79858e-06
2.74915e-06
2.69883e-06
2.64764e-06
2.5956e-06
2.54268e-06
2.48887e-06
2.43409e-06
2.3783e-06
2.32141e-06
2.26334e-06
2.20401e-06
2.14332e-06
2.08119e-06
2.01752e-06
1.95222e-06
1.88521e-06
1.81639e-06
1.74568e-06
1.673e-06
1.59826e-06
1.52139e-06
1.4423e-06
1.36092e-06
1.27717e-06
1.19097e-06
1.10225e-06
1.01091e-06
9.16887e-07
8.20081e-07
7.20411e-07
6.17784e-07
5.12107e-07
4.03287e-07
2.91236e-07
1.75875e-07
5.71084e-08
-6.52574e-08
-1.91101e-07
-3.18038e-07
-4.4491e-07
-6.06291e-07
-8.68227e-07
-7.74505e-07
2.22864e-06
2.19529e-06
2.16399e-06
2.14284e-06
2.12846e-06
2.1198e-06
2.11668e-06
2.11886e-06
2.12602e-06
2.13787e-06
2.15412e-06
2.17453e-06
2.19887e-06
2.22691e-06
2.25846e-06
2.29333e-06
2.33133e-06
2.37227e-06
2.41596e-06
2.46221e-06
2.51081e-06
2.5615e-06
2.61404e-06
2.66811e-06
2.72339e-06
2.77948e-06
2.83597e-06
2.89236e-06
2.94815e-06
3.00276e-06
3.05559e-06
3.10602e-06
3.1534e-06
3.19711e-06
3.23655e-06
3.27118e-06
3.30052e-06
3.32418e-06
3.34189e-06
3.35348e-06
3.35891e-06
3.35823e-06
3.35161e-06
3.33932e-06
3.32169e-06
3.29909e-06
3.27195e-06
3.24072e-06
3.20582e-06
3.16771e-06
3.12679e-06
3.08345e-06
3.03803e-06
2.99084e-06
2.94214e-06
2.89214e-06
2.84102e-06
2.78889e-06
2.73587e-06
2.68196e-06
2.62721e-06
2.57159e-06
2.5151e-06
2.45768e-06
2.39927e-06
2.3398e-06
2.27918e-06
2.21735e-06
2.15419e-06
2.08964e-06
2.02358e-06
1.95593e-06
1.88661e-06
1.81551e-06
1.74256e-06
1.66767e-06
1.59075e-06
1.51173e-06
1.43052e-06
1.34705e-06
1.26124e-06
1.17301e-06
1.0823e-06
9.89009e-07
8.93077e-07
7.94421e-07
6.92966e-07
5.88631e-07
4.81341e-07
3.71018e-07
2.57595e-07
1.41018e-07
2.12141e-08
-1.01992e-07
-2.28456e-07
-3.55683e-07
-4.82476e-07
-6.44954e-07
-9.12401e-07
-8.10039e-07
2.32134e-06
2.28899e-06
2.2586e-06
2.23799e-06
2.22391e-06
2.21534e-06
2.21214e-06
2.2141e-06
2.22091e-06
2.23232e-06
2.24807e-06
2.26793e-06
2.29168e-06
2.31912e-06
2.35005e-06
2.3843e-06
2.42166e-06
2.46197e-06
2.50503e-06
2.55064e-06
2.59859e-06
2.64864e-06
2.70051e-06
2.75391e-06
2.80851e-06
2.8639e-06
2.91968e-06
2.97535e-06
3.0304e-06
3.08426e-06
3.13634e-06
3.18599e-06
3.23259e-06
3.27552e-06
3.31416e-06
3.34797e-06
3.37646e-06
3.39925e-06
3.41604e-06
3.42665e-06
3.43101e-06
3.42919e-06
3.42134e-06
3.4077e-06
3.38861e-06
3.36443e-06
3.3356e-06
3.30256e-06
3.26575e-06
3.22562e-06
3.18258e-06
3.13704e-06
3.08933e-06
3.03979e-06
2.98866e-06
2.93619e-06
2.88254e-06
2.82787e-06
2.77226e-06
2.71577e-06
2.65842e-06
2.60022e-06
2.54116e-06
2.48118e-06
2.42024e-06
2.35828e-06
2.2952e-06
2.23093e-06
2.16538e-06
2.09847e-06
2.03009e-06
1.96016e-06
1.88859e-06
1.81528e-06
1.74015e-06
1.66312e-06
1.58409e-06
1.50299e-06
1.41974e-06
1.33426e-06
1.24648e-06
1.15632e-06
1.0637e-06
9.68571e-07
8.70844e-07
7.70454e-07
6.67333e-07
5.61414e-07
4.52632e-07
3.40927e-07
2.26246e-07
1.08553e-07
-1.22095e-08
-1.36208e-07
-2.63281e-07
-3.90846e-07
-5.1768e-07
-6.81304e-07
-9.53725e-07
-8.42643e-07
2.41053e-06
2.37909e-06
2.34953e-06
2.32944e-06
2.31566e-06
2.30721e-06
2.30397e-06
2.30575e-06
2.31228e-06
2.32332e-06
2.33863e-06
2.35799e-06
2.3812e-06
2.40807e-06
2.43841e-06
2.47205e-06
2.50879e-06
2.54846e-06
2.59088e-06
2.63584e-06
2.68312e-06
2.73249e-06
2.78367e-06
2.83637e-06
2.89025e-06
2.94491e-06
2.99995e-06
3.05486e-06
3.10915e-06
3.16224e-06
3.21353e-06
3.26241e-06
3.30823e-06
3.35036e-06
3.38822e-06
3.42123e-06
3.44891e-06
3.47086e-06
3.48678e-06
3.49648e-06
3.49987e-06
3.49701e-06
3.48803e-06
3.47317e-06
3.45275e-06
3.42714e-06
3.39677e-06
3.36207e-06
3.3235e-06
3.28151e-06
3.23651e-06
3.18892e-06
3.13908e-06
3.08732e-06
3.03391e-06
2.9791e-06
2.92307e-06
2.86598e-06
2.80792e-06
2.74896e-06
2.68914e-06
2.62846e-06
2.56693e-06
2.5045e-06
2.44113e-06
2.37675e-06
2.31129e-06
2.24467e-06
2.1768e-06
2.1076e-06
2.03698e-06
1.96483e-06
1.89108e-06
1.81563e-06
1.73839e-06
1.65928e-06
1.57822e-06
1.49511e-06
1.4099e-06
1.32249e-06
1.23282e-06
1.14081e-06
1.0464e-06
9.4952e-07
8.50101e-07
7.48083e-07
6.43406e-07
5.36011e-07
4.25846e-07
3.12862e-07
1.97018e-07
7.82913e-08
-4.33646e-08
-1.68112e-07
-2.9578e-07
-4.23702e-07
-5.50631e-07
-7.15364e-07
-9.92325e-07
-8.72894e-07
2.49632e-06
2.46572e-06
2.43692e-06
2.41731e-06
2.40383e-06
2.39552e-06
2.39228e-06
2.39393e-06
2.40023e-06
2.41094e-06
2.42585e-06
2.44476e-06
2.46747e-06
2.4938e-06
2.52358e-06
2.55661e-06
2.59275e-06
2.63179e-06
2.67356e-06
2.71785e-06
2.76445e-06
2.81313e-06
2.8636e-06
2.91557e-06
2.96871e-06
3.02262e-06
3.07688e-06
3.13102e-06
3.18453e-06
3.23683e-06
3.28733e-06
3.33542e-06
3.38045e-06
3.42181e-06
3.45888e-06
3.49112e-06
3.51802e-06
3.53917e-06
3.55427e-06
3.56312e-06
3.56562e-06
3.56179e-06
3.55178e-06
3.53581e-06
3.51418e-06
3.48727e-06
3.45549e-06
3.41928e-06
3.37909e-06
3.33538e-06
3.28856e-06
3.23905e-06
3.18722e-06
3.13339e-06
3.07784e-06
3.02083e-06
2.96254e-06
2.90315e-06
2.84277e-06
2.78146e-06
2.71927e-06
2.65623e-06
2.59233e-06
2.52754e-06
2.46183e-06
2.39513e-06
2.32737e-06
2.25848e-06
2.18837e-06
2.11696e-06
2.04415e-06
1.96987e-06
1.894e-06
1.81648e-06
1.7372e-06
1.65609e-06
1.57306e-06
1.48803e-06
1.40093e-06
1.31167e-06
1.2202e-06
1.12644e-06
1.03032e-06
9.31779e-07
8.30764e-07
7.27215e-07
6.21079e-07
5.12307e-07
4.00854e-07
2.8668e-07
1.69756e-07
5.00657e-08
-7.24276e-08
-1.97885e-07
-3.26129e-07
-4.54414e-07
-5.8147e-07
-7.4727e-07
-1.02847e-06
-9.01183e-07
2.57882e-06
2.54898e-06
2.52089e-06
2.50174e-06
2.48855e-06
2.48039e-06
2.47717e-06
2.47873e-06
2.48483e-06
2.49525e-06
2.5098e-06
2.52829e-06
2.55054e-06
2.57636e-06
2.60558e-06
2.63805e-06
2.67357e-06
2.71199e-06
2.75311e-06
2.79673e-06
2.84265e-06
2.89061e-06
2.94036e-06
2.9916e-06
3.04397e-06
3.09711e-06
3.15059e-06
3.20395e-06
3.25665e-06
3.30816e-06
3.35786e-06
3.40516e-06
3.44941e-06
3.49e-06
3.52631e-06
3.55779e-06
3.58393e-06
3.60433e-06
3.61866e-06
3.6267e-06
3.62837e-06
3.62366e-06
3.61271e-06
3.59571e-06
3.57298e-06
3.54488e-06
3.51181e-06
3.47421e-06
3.43253e-06
3.38722e-06
3.33873e-06
3.28744e-06
3.23374e-06
3.17796e-06
3.12041e-06
3.06131e-06
3.0009e-06
2.93933e-06
2.87674e-06
2.8132e-06
2.74875e-06
2.68345e-06
2.61728e-06
2.55024e-06
2.48227e-06
2.41334e-06
2.34336e-06
2.27228e-06
2.20001e-06
2.12646e-06
2.05156e-06
1.9752e-06
1.8973e-06
1.81777e-06
1.73653e-06
1.65349e-06
1.56857e-06
1.48169e-06
1.39277e-06
1.30175e-06
1.20855e-06
1.11312e-06
1.01537e-06
9.15269e-07
8.12748e-07
7.07758e-07
6.00254e-07
4.90192e-07
3.77535e-07
2.6225e-07
1.44317e-07
2.3726e-08
-9.95551e-08
-2.25688e-07
-3.54487e-07
-4.83136e-07
-6.10338e-07
-7.77167e-07
-1.06235e-06
-9.27711e-07
2.65811e-06
2.62897e-06
2.60154e-06
2.58283e-06
2.56992e-06
2.56192e-06
2.55874e-06
2.56022e-06
2.56615e-06
2.57632e-06
2.59055e-06
2.60865e-06
2.63045e-06
2.65578e-06
2.68448e-06
2.71638e-06
2.75132e-06
2.78911e-06
2.82959e-06
2.87254e-06
2.91777e-06
2.96502e-06
3.01404e-06
3.06452e-06
3.11613e-06
3.16849e-06
3.22118e-06
3.27373e-06
3.32564e-06
3.37634e-06
3.42525e-06
3.47176e-06
3.51524e-06
3.55506e-06
3.59063e-06
3.62137e-06
3.64679e-06
3.66646e-06
3.68006e-06
3.68736e-06
3.68824e-06
3.68272e-06
3.67089e-06
3.65297e-06
3.62923e-06
3.60003e-06
3.56577e-06
3.52689e-06
3.48384e-06
3.43707e-06
3.387e-06
3.33406e-06
3.27862e-06
3.22102e-06
3.16157e-06
3.10052e-06
3.03809e-06
2.97447e-06
2.90978e-06
2.84411e-06
2.77752e-06
2.71006e-06
2.64172e-06
2.57251e-06
2.50239e-06
2.43131e-06
2.35921e-06
2.28602e-06
2.21166e-06
2.13606e-06
2.05912e-06
1.98076e-06
1.9009e-06
1.81945e-06
1.73631e-06
1.65142e-06
1.56468e-06
1.47602e-06
1.38537e-06
1.29266e-06
1.19782e-06
1.10079e-06
1.0015e-06
8.99915e-07
7.95971e-07
6.89624e-07
5.80832e-07
4.6956e-07
3.55776e-07
2.39452e-07
1.20573e-07
-8.63603e-10
-1.24888e-07
-2.51663e-07
-3.80997e-07
-5.10008e-07
-6.37373e-07
-8.05196e-07
-1.09415e-06
-9.52627e-07
2.73426e-06
2.70578e-06
2.67897e-06
2.66067e-06
2.64803e-06
2.64019e-06
2.63705e-06
2.63848e-06
2.64426e-06
2.65421e-06
2.66813e-06
2.68587e-06
2.70726e-06
2.73213e-06
2.76032e-06
2.79167e-06
2.82603e-06
2.86321e-06
2.90305e-06
2.94534e-06
2.98987e-06
3.03641e-06
3.0847e-06
3.13442e-06
3.18526e-06
3.23684e-06
3.28874e-06
3.34049e-06
3.39159e-06
3.44149e-06
3.48961e-06
3.53534e-06
3.57805e-06
3.61713e-06
3.65196e-06
3.68199e-06
3.70671e-06
3.72569e-06
3.73859e-06
3.74519e-06
3.74535e-06
3.73907e-06
3.72644e-06
3.70766e-06
3.68299e-06
3.65278e-06
3.61744e-06
3.57738e-06
3.53306e-06
3.48492e-06
3.4334e-06
3.37891e-06
3.32184e-06
3.26254e-06
3.20131e-06
3.13842e-06
3.07409e-06
3.00852e-06
2.94184e-06
2.87415e-06
2.80552e-06
2.73599e-06
2.6656e-06
2.59431e-06
2.52212e-06
2.44898e-06
2.37484e-06
2.29962e-06
2.22326e-06
2.14568e-06
2.06679e-06
1.98651e-06
1.90476e-06
1.82145e-06
1.73649e-06
1.64982e-06
1.56133e-06
1.47098e-06
1.37867e-06
1.28434e-06
1.18793e-06
1.08938e-06
9.88639e-07
8.85644e-07
7.80355e-07
6.72727e-07
5.62724e-07
4.50315e-07
3.35472e-07
2.18173e-07
9.84066e-08
-2.38265e-08
-1.48554e-07
-2.7594e-07
-4.05791e-07
-5.3516e-07
-6.627e-07
-8.31483e-07
-1.12402e-06
-9.76052e-07
2.80734e-06
2.77948e-06
2.75325e-06
2.73535e-06
2.72297e-06
2.71529e-06
2.71221e-06
2.71359e-06
2.71924e-06
2.72898e-06
2.74263e-06
2.76003e-06
2.78102e-06
2.80544e-06
2.83314e-06
2.86396e-06
2.89775e-06
2.93434e-06
2.97354e-06
3.01518e-06
3.05902e-06
3.10485e-06
3.1524e-06
3.20138e-06
3.25145e-06
3.30225e-06
3.35335e-06
3.40431e-06
3.45461e-06
3.50372e-06
3.55105e-06
3.59601e-06
3.63797e-06
3.67631e-06
3.71043e-06
3.73976e-06
3.76381e-06
3.78212e-06
3.79437e-06
3.8003e-06
3.79979e-06
3.7928e-06
3.77943e-06
3.75985e-06
3.73433e-06
3.7032e-06
3.66685e-06
3.62571e-06
3.58021e-06
3.53081e-06
3.47793e-06
3.42201e-06
3.36342e-06
3.30251e-06
3.23961e-06
3.17499e-06
3.10887e-06
3.04145e-06
2.97289e-06
2.90328e-06
2.83271e-06
2.76122e-06
2.68885e-06
2.61559e-06
2.54142e-06
2.46631e-06
2.39021e-06
2.31305e-06
2.23476e-06
2.15528e-06
2.07451e-06
1.99239e-06
1.90882e-06
1.82373e-06
1.73703e-06
1.64864e-06
1.55849e-06
1.4665e-06
1.3726e-06
1.27674e-06
1.17884e-06
1.07885e-06
9.76712e-07
8.72385e-07
7.65823e-07
6.56987e-07
5.45843e-07
4.32364e-07
3.16525e-07
1.9831e-07
7.77087e-08
-4.5275e-08
-1.70667e-07
-2.98636e-07
-4.28985e-07
-5.58706e-07
-6.86431e-07
-8.56144e-07
-1.15207e-06
-9.98084e-07
2.87742e-06
2.85015e-06
2.82447e-06
2.80694e-06
2.79482e-06
2.78728e-06
2.78426e-06
2.78561e-06
2.79115e-06
2.80069e-06
2.81408e-06
2.83116e-06
2.85177e-06
2.87577e-06
2.903e-06
2.93331e-06
2.96654e-06
3.00254e-06
3.04113e-06
3.08211e-06
3.12528e-06
3.17041e-06
3.21723e-06
3.26546e-06
3.31477e-06
3.36479e-06
3.41511e-06
3.46527e-06
3.51479e-06
3.56311e-06
3.60967e-06
3.65387e-06
3.69509e-06
3.73271e-06
3.76613e-06
3.7948e-06
3.81819e-06
3.83587e-06
3.84749e-06
3.8528e-06
3.85165e-06
3.84401e-06
3.82995e-06
3.80963e-06
3.78332e-06
3.75134e-06
3.71407e-06
3.67192e-06
3.62533e-06
3.57476e-06
3.52063e-06
3.46336e-06
3.40334e-06
3.34094e-06
3.27647e-06
3.21021e-06
3.1424e-06
3.07324e-06
3.0029e-06
2.93147e-06
2.85905e-06
2.7857e-06
2.71144e-06
2.6363e-06
2.56024e-06
2.48324e-06
2.40526e-06
2.32624e-06
2.24611e-06
2.16481e-06
2.08224e-06
1.99835e-06
1.91304e-06
1.82624e-06
1.73786e-06
1.64784e-06
1.55609e-06
1.46254e-06
1.36713e-06
1.26979e-06
1.17047e-06
1.06911e-06
9.65658e-07
8.6007e-07
7.52305e-07
6.42328e-07
5.30108e-07
4.1562e-07
2.98845e-07
1.79768e-07
5.83803e-08
-6.53115e-08
-1.91334e-07
-3.19858e-07
-4.50684e-07
-5.80751e-07
-7.0867e-07
-8.7928e-07
-1.17843e-06
-1.01881e-06
2.94457e-06
2.91785e-06
2.89269e-06
2.87551e-06
2.86364e-06
2.85625e-06
2.85329e-06
2.85461e-06
2.86004e-06
2.86941e-06
2.88256e-06
2.89933e-06
2.91958e-06
2.94317e-06
2.96994e-06
2.99975e-06
3.03245e-06
3.06788e-06
3.10585e-06
3.1462e-06
3.1887e-06
3.23313e-06
3.27924e-06
3.32673e-06
3.37529e-06
3.42454e-06
3.47408e-06
3.52347e-06
3.57221e-06
3.61976e-06
3.66556e-06
3.70901e-06
3.7495e-06
3.78643e-06
3.81918e-06
3.84719e-06
3.86996e-06
3.88703e-06
3.89805e-06
3.90277e-06
3.90102e-06
3.89277e-06
3.87807e-06
3.85707e-06
3.83003e-06
3.79726e-06
3.75913e-06
3.71605e-06
3.66846e-06
3.6168e-06
3.56149e-06
3.50297e-06
3.44163e-06
3.37782e-06
3.31188e-06
3.24408e-06
3.17468e-06
3.10387e-06
3.03184e-06
2.95869e-06
2.88452e-06
2.80939e-06
2.73334e-06
2.6564e-06
2.57854e-06
2.49974e-06
2.41997e-06
2.33917e-06
2.25727e-06
2.17422e-06
2.08994e-06
2.00435e-06
1.91737e-06
1.82893e-06
1.73895e-06
1.64736e-06
1.55408e-06
1.45905e-06
1.3622e-06
1.26346e-06
1.16279e-06
1.06012e-06
9.55418e-07
8.48634e-07
7.39731e-07
6.28676e-07
5.15442e-07
4.00005e-07
2.82348e-07
1.62458e-07
4.03303e-08
-8.40297e-08
-2.10648e-07
-3.397e-07
-4.70985e-07
-6.0139e-07
-7.29505e-07
-9.00981e-07
-1.20319e-06
-1.0383e-06
3.00883e-06
2.98264e-06
2.95797e-06
2.94113e-06
2.92949e-06
2.92225e-06
2.91935e-06
2.92065e-06
2.92599e-06
2.93519e-06
2.94811e-06
2.96459e-06
2.9845e-06
3.00769e-06
3.03402e-06
3.06335e-06
3.09553e-06
3.13039e-06
3.16777e-06
3.20749e-06
3.24934e-06
3.29309e-06
3.3385e-06
3.38527e-06
3.43308e-06
3.48158e-06
3.53036e-06
3.57898e-06
3.62695e-06
3.67375e-06
3.7188e-06
3.76153e-06
3.80131e-06
3.83755e-06
3.86965e-06
3.89703e-06
3.91919e-06
3.93568e-06
3.94614e-06
3.9503e-06
3.94799e-06
3.93916e-06
3.92386e-06
3.90224e-06
3.87453e-06
3.84102e-06
3.8021e-06
3.75816e-06
3.70963e-06
3.65696e-06
3.60057e-06
3.54088e-06
3.47829e-06
3.41317e-06
3.34584e-06
3.2766e-06
3.20569e-06
3.13333e-06
3.0597e-06
2.98492e-06
2.90909e-06
2.83227e-06
2.75453e-06
2.67587e-06
2.59629e-06
2.51578e-06
2.43429e-06
2.35179e-06
2.26821e-06
2.18349e-06
2.09756e-06
2.01034e-06
1.92177e-06
1.83177e-06
1.74026e-06
1.64717e-06
1.55243e-06
1.45598e-06
1.35775e-06
1.25768e-06
1.15572e-06
1.05182e-06
9.45934e-07
8.38017e-07
7.28038e-07
6.15965e-07
5.01773e-07
3.85441e-07
2.66954e-07
1.463e-07
2.34746e-08
-1.01515e-07
-2.28697e-07
-3.5825e-07
-4.89972e-07
-6.20704e-07
-7.49019e-07
-9.21326e-07
-1.22644e-06
-1.05661e-06
3.07027e-06
3.04457e-06
3.02038e-06
3.00386e-06
2.99244e-06
2.98534e-06
2.9825e-06
2.98379e-06
2.98903e-06
2.99808e-06
3.01078e-06
3.02699e-06
3.04657e-06
3.06938e-06
3.09529e-06
3.12415e-06
3.15582e-06
3.19014e-06
3.22694e-06
3.26605e-06
3.30726e-06
3.35035e-06
3.39506e-06
3.44112e-06
3.48821e-06
3.53597e-06
3.58401e-06
3.63188e-06
3.6791e-06
3.72515e-06
3.76948e-06
3.8115e-06
3.8506e-06
3.88617e-06
3.91763e-06
3.94441e-06
3.96599e-06
3.98192e-06
3.99184e-06
3.99546e-06
3.99263e-06
3.98326e-06
3.96741e-06
3.9452e-06
3.91686e-06
3.88268e-06
3.84303e-06
3.79829e-06
3.74889e-06
3.69527e-06
3.63787e-06