/*--------------------------------*- C++ -*----------------------------------*\
  =========                 |
  \\      /  F ield         | OpenFOAM: The Open Source CFD Toolbox
   \\    /   O peration     | Website:  https://openfoam.org
    \\  /    A nd           | Version:  11
     \\/     M anipulation  |
\*---------------------------------------------------------------------------*/
FoamFile
{
    format      ascii;
    class       surfaceScalarField;
    location    "480";
    object      phi;
}
// * * * * * * * * * * * * * * * * * * * * * * * * * * * * * * * * * * * * * //

dimensions      [0 3 -1 0 0 0 0];

internalField   nonuniform List<scalar> 
19800
(
1.99997e-05
-2.82689e-09
1.99991e-05
-8.38469e-09
1.99984e-05
-1.39805e-08
1.99976e-05
-1.97208e-08
1.99967e-05
-2.56796e-08
1.99955e-05
-3.19085e-08
1.99943e-05
-3.8449e-08
1.99928e-05
-4.53372e-08
1.99912e-05
-5.26057e-08
1.99894e-05
-6.0285e-08
1.99875e-05
-6.84045e-08
1.99853e-05
-7.69929e-08
1.99829e-05
-8.60787e-08
1.99803e-05
-9.56902e-08
1.99774e-05
-1.05856e-07
1.99743e-05
-1.16605e-07
1.99709e-05
-1.27966e-07
1.99672e-05
-1.3997e-07
1.99632e-05
-1.52645e-07
1.99588e-05
-1.66022e-07
1.99541e-05
-1.80134e-07
1.99491e-05
-1.9501e-07
1.99437e-05
-2.10683e-07
1.99378e-05
-2.27186e-07
1.99316e-05
-2.44552e-07
1.99249e-05
-2.62814e-07
1.99177e-05
-2.82006e-07
1.991e-05
-3.02163e-07
1.99018e-05
-3.23319e-07
1.9893e-05
-3.4551e-07
1.98837e-05
-3.68769e-07
1.98737e-05
-3.93133e-07
1.98632e-05
-4.18636e-07
1.98519e-05
-4.45313e-07
1.98399e-05
-4.732e-07
1.98273e-05
-5.02331e-07
1.98138e-05
-5.32738e-07
1.97996e-05
-5.64457e-07
1.97845e-05
-5.97518e-07
1.97685e-05
-6.31953e-07
1.97516e-05
-6.67791e-07
1.97338e-05
-7.05061e-07
1.9715e-05
-7.43788e-07
1.96952e-05
-7.83997e-07
1.96743e-05
-8.25708e-07
1.96524e-05
-8.6894e-07
1.96292e-05
-9.13708e-07
1.96049e-05
-9.60022e-07
1.95794e-05
-1.00789e-06
1.95526e-05
-1.05731e-06
1.95245e-05
-1.10829e-06
1.94951e-05
-1.1608e-06
1.94642e-05
-1.21484e-06
1.9432e-05
-1.27038e-06
1.93983e-05
-1.32738e-06
1.93631e-05
-1.38582e-06
1.93263e-05
-1.44562e-06
1.9288e-05
-1.50674e-06
1.92482e-05
-1.56909e-06
1.92067e-05
-1.63259e-06
1.91636e-05
-1.69713e-06
1.91188e-05
-1.7626e-06
1.90724e-05
-1.82887e-06
1.90244e-05
-1.89579e-06
1.89747e-05
-1.96318e-06
1.89233e-05
-2.03087e-06
1.88704e-05
-2.09865e-06
1.88158e-05
-2.1663e-06
1.87598e-05
-2.23358e-06
1.87022e-05
-2.30022e-06
1.86432e-05
-2.36596e-06
1.85829e-05
-2.43049e-06
1.85214e-05
-2.49352e-06
1.84587e-05
-2.55473e-06
1.83951e-05
-2.61381e-06
1.83306e-05
-2.67041e-06
1.82654e-05
-2.72423e-06
1.81997e-05
-2.77496e-06
1.81337e-05
-2.82228e-06
1.80676e-05
-2.86594e-06
1.80017e-05
-2.90567e-06
1.79362e-05
-2.94129e-06
1.78714e-05
-2.97264e-06
1.78076e-05
-2.99956e-06
1.77443e-05
-3.02185e-06
1.76816e-05
-3.03931e-06
1.76196e-05
-3.05196e-06
1.75587e-05
-3.06007e-06
1.74998e-05
-3.06405e-06
1.74441e-05
-3.06421e-06
1.7392e-05
-3.06061e-06
1.73436e-05
-3.05334e-06
1.72991e-05
-3.04264e-06
1.7258e-05
-3.02907e-06
1.72206e-05
-3.0134e-06
1.71875e-05
-2.99632e-06
1.71591e-05
-2.9786e-06
1.71359e-05
-2.96125e-06
1.71191e-05
-2.94609e-06
-2.93691e-06
1.99998e-05
-2.58348e-09
1.99992e-05
-7.87546e-09
1.99986e-05
-1.32998e-08
1.99977e-05
-1.88926e-08
1.99968e-05
-2.47075e-08
1.99956e-05
-3.07896e-08
1.99944e-05
-3.71771e-08
1.99929e-05
-4.39042e-08
1.99913e-05
-5.10023e-08
1.99896e-05
-5.85009e-08
1.99876e-05
-6.64285e-08
1.99854e-05
-7.48132e-08
1.9983e-05
-8.36826e-08
1.99804e-05
-9.30644e-08
1.99775e-05
-1.02987e-07
1.99744e-05
-1.13477e-07
1.9971e-05
-1.24564e-07
1.99673e-05
-1.36277e-07
1.99633e-05
-1.48644e-07
1.9959e-05
-1.61696e-07
1.99543e-05
-1.75463e-07
1.99493e-05
-1.89976e-07
1.99438e-05
-2.05265e-07
1.9938e-05
-2.21363e-07
1.99318e-05
-2.38301e-07
1.99251e-05
-2.56113e-07
1.99179e-05
-2.74832e-07
1.99102e-05
-2.9449e-07
1.9902e-05
-3.15121e-07
1.98933e-05
-3.36761e-07
1.98839e-05
-3.59441e-07
1.9874e-05
-3.83198e-07
1.98634e-05
-4.08064e-07
1.98522e-05
-4.34075e-07
1.98403e-05
-4.61263e-07
1.98276e-05
-4.89663e-07
1.98142e-05
-5.19306e-07
1.97999e-05
-5.50227e-07
1.97849e-05
-5.82454e-07
1.97689e-05
-6.1602e-07
1.97521e-05
-6.50952e-07
1.97343e-05
-6.87278e-07
1.97155e-05
-7.25024e-07
1.96958e-05
-7.64212e-07
1.96749e-05
-8.04863e-07
1.9653e-05
-8.46994e-07
1.96299e-05
-8.90621e-07
1.96056e-05
-9.35755e-07
1.95801e-05
-9.824e-07
1.95534e-05
-1.03056e-06
1.95253e-05
-1.08023e-06
1.94959e-05
-1.1314e-06
1.94651e-05
-1.18406e-06
1.94329e-05
-1.23818e-06
1.93993e-05
-1.29373e-06
1.93641e-05
-1.35067e-06
1.93275e-05
-1.40895e-06
1.92893e-05
-1.46851e-06
1.92494e-05
-1.52928e-06
1.9208e-05
-1.59117e-06
1.9165e-05
-1.65409e-06
1.91203e-05
-1.71793e-06
1.9074e-05
-1.78255e-06
1.9026e-05
-1.84781e-06
1.89764e-05
-1.91356e-06
1.89252e-05
-1.97962e-06
1.88723e-05
-2.04579e-06
1.88178e-05
-2.11186e-06
1.87619e-05
-2.1776e-06
1.87044e-05
-2.24276e-06
1.86455e-05
-2.30708e-06
1.85853e-05
-2.37028e-06
1.85239e-05
-2.43208e-06
1.84613e-05
-2.49217e-06
1.83977e-05
-2.55025e-06
1.83333e-05
-2.606e-06
1.82682e-05
-2.65913e-06
1.82026e-05
-2.70933e-06
1.81367e-05
-2.75633e-06
1.80706e-05
-2.79986e-06
1.80046e-05
-2.83969e-06
1.79389e-05
-2.8756e-06
1.78737e-05
-2.90742e-06
1.78091e-05
-2.93493e-06
1.77452e-05
-2.95795e-06
1.76824e-05
-2.97651e-06
1.76211e-05
-2.99072e-06
1.75618e-05
-3.00073e-06
1.75046e-05
-3.00686e-06
1.74498e-05
-3.00938e-06
1.73976e-05
-3.00842e-06
1.73484e-05
-3.00419e-06
1.73027e-05
-2.99695e-06
1.72608e-05
-2.98708e-06
1.72227e-05
-2.9753e-06
1.71887e-05
-2.96235e-06
1.71592e-05
-2.9491e-06
1.71345e-05
-2.93655e-06
1.71146e-05
-2.92626e-06
-2.92085e-06
1.99998e-05
-2.40062e-09
1.99994e-05
-7.42353e-09
1.99987e-05
-1.26509e-08
1.99979e-05
-1.80805e-08
1.99969e-05
-2.37434e-08
1.99958e-05
-2.96746e-08
1.99946e-05
-3.59074e-08
1.99931e-05
-4.24729e-08
1.99915e-05
-4.94006e-08
1.99897e-05
-5.6719e-08
1.99878e-05
-6.44554e-08
1.99856e-05
-7.26371e-08
1.99832e-05
-8.12909e-08
1.99806e-05
-9.04439e-08
1.99777e-05
-1.00123e-07
1.99746e-05
-1.10356e-07
1.99712e-05
-1.2117e-07
1.99675e-05
-1.32593e-07
1.99635e-05
-1.44654e-07
1.99592e-05
-1.57381e-07
1.99546e-05
-1.70805e-07
1.99495e-05
-1.84955e-07
1.99441e-05
-1.99862e-07
1.99383e-05
-2.15556e-07
1.99321e-05
-2.32068e-07
1.99254e-05
-2.49432e-07
1.99183e-05
-2.67677e-07
1.99106e-05
-2.86838e-07
1.99024e-05
-3.06947e-07
1.98937e-05
-3.28037e-07
1.98844e-05
-3.50141e-07
1.98745e-05
-3.73292e-07
1.9864e-05
-3.97524e-07
1.98528e-05
-4.22869e-07
1.98409e-05
-4.49361e-07
1.98282e-05
-4.77032e-07
1.98148e-05
-5.05915e-07
1.98006e-05
-5.36039e-07
1.97856e-05
-5.67436e-07
1.97697e-05
-6.00135e-07
1.9753e-05
-6.34164e-07
1.97352e-05
-6.6955e-07
1.97165e-05
-7.06317e-07
1.96968e-05
-7.44487e-07
1.9676e-05
-7.84081e-07
1.96541e-05
-8.25116e-07
1.96311e-05
-8.67607e-07
1.96069e-05
-9.11563e-07
1.95815e-05
-9.56991e-07
1.95548e-05
-1.00389e-06
1.95269e-05
-1.05227e-06
1.94976e-05
-1.1021e-06
1.94669e-05
-1.15338e-06
1.94348e-05
-1.20608e-06
1.94013e-05
-1.26018e-06
1.93662e-05
-1.31564e-06
1.93297e-05
-1.3724e-06
1.92916e-05
-1.43041e-06
1.92519e-05
-1.4896e-06
1.92106e-05
-1.5499e-06
1.91677e-05
-1.6112e-06
1.91232e-05
-1.6734e-06
1.9077e-05
-1.73637e-06
1.90292e-05
-1.79999e-06
1.89797e-05
-1.8641e-06
1.89286e-05
-1.92853e-06
1.8876e-05
-1.99309e-06
1.88217e-05
-2.05759e-06
1.87659e-05
-2.1218e-06
1.87086e-05
-2.18548e-06
1.86499e-05
-2.24839e-06
1.85899e-05
-2.31027e-06
1.85286e-05
-2.37083e-06
1.84663e-05
-2.42979e-06
1.84029e-05
-2.48686e-06
1.83386e-05
-2.54176e-06
1.82737e-05
-2.59418e-06
1.82082e-05
-2.64384e-06
1.81424e-05
-2.69049e-06
1.80763e-05
-2.73386e-06
1.80104e-05
-2.77371e-06
1.79446e-05
-2.80986e-06
1.78793e-05
-2.8421e-06
1.78146e-05
-2.87025e-06
1.77509e-05
-2.89419e-06
1.76883e-05
-2.91398e-06
1.76273e-05
-2.92973e-06
1.75682e-05
-2.94158e-06
1.75111e-05
-2.94977e-06
1.74562e-05
-2.95454e-06
1.74039e-05
-2.95609e-06
1.73544e-05
-2.95466e-06
1.73079e-05
-2.95053e-06
1.7265e-05
-2.94409e-06
1.72256e-05
-2.93596e-06
1.71901e-05
-2.92684e-06
1.71585e-05
-2.91753e-06
1.71309e-05
-2.90896e-06
1.7107e-05
-2.90231e-06
-2.89931e-06
1.99999e-05
-2.25211e-09
1.99995e-05
-7.02548e-09
1.99988e-05
-1.20464e-08
1.99981e-05
-1.72991e-08
1.99971e-05
-2.27998e-08
1.9996e-05
-2.85735e-08
1.99948e-05
-3.46474e-08
1.99933e-05
-4.10489e-08
1.99917e-05
-4.78051e-08
1.999e-05
-5.49426e-08
1.9988e-05
-6.24879e-08
1.99858e-05
-7.0467e-08
1.99834e-05
-7.89059e-08
1.99808e-05
-8.78307e-08
1.9978e-05
-9.72679e-08
1.99749e-05
-1.07244e-07
1.99715e-05
-1.17786e-07
1.99678e-05
-1.28921e-07
1.99638e-05
-1.40676e-07
1.99595e-05
-1.53081e-07
1.99549e-05
-1.66163e-07
1.99499e-05
-1.79952e-07
1.99445e-05
-1.94478e-07
1.99387e-05
-2.0977e-07
1.99325e-05
-2.25858e-07
1.99258e-05
-2.42774e-07
1.99187e-05
-2.6055e-07
1.99111e-05
-2.79216e-07
1.9903e-05
-2.98804e-07
1.98943e-05
-3.19347e-07
1.9885e-05
-3.40876e-07
1.98751e-05
-3.63425e-07
1.98646e-05
-3.87025e-07
1.98535e-05
-4.11708e-07
1.98416e-05
-4.37507e-07
1.9829e-05
-4.64453e-07
1.98157e-05
-4.92576e-07
1.98016e-05
-5.21909e-07
1.97866e-05
-5.52479e-07
1.97708e-05
-5.84315e-07
1.97541e-05
-6.17445e-07
1.97364e-05
-6.51894e-07
1.97178e-05
-6.87687e-07
1.96981e-05
-7.24844e-07
1.96774e-05
-7.63387e-07
1.96557e-05
-8.0333e-07
1.96327e-05
-8.44689e-07
1.96087e-05
-8.87473e-07
1.95834e-05
-9.31689e-07
1.95568e-05
-9.77339e-07
1.9529e-05
-1.02442e-06
1.94998e-05
-1.07292e-06
1.94692e-05
-1.12283e-06
1.94373e-05
-1.17413e-06
1.94039e-05
-1.22678e-06
1.9369e-05
-1.28076e-06
1.93326e-05
-1.33601e-06
1.92947e-05
-1.39248e-06
1.92552e-05
-1.45011e-06
1.92141e-05
-1.50881e-06
1.91714e-05
-1.5685e-06
1.91271e-05
-1.62907e-06
1.90811e-05
-1.69041e-06
1.90335e-05
-1.7524e-06
1.89843e-05
-1.81487e-06
1.89334e-05
-1.87768e-06
1.8881e-05
-1.94065e-06
1.8827e-05
-2.00357e-06
1.87714e-05
-2.06626e-06
1.87144e-05
-2.12847e-06
1.8656e-05
-2.18997e-06
1.85962e-05
-2.25052e-06
1.85353e-05
-2.30984e-06
1.84732e-05
-2.36768e-06
1.841e-05
-2.42375e-06
1.8346e-05
-2.47777e-06
1.82813e-05
-2.52947e-06
1.82161e-05
-2.57858e-06
1.81504e-05
-2.62484e-06
1.80846e-05
-2.66801e-06
1.80187e-05
-2.70787e-06
1.79531e-05
-2.74421e-06
1.78878e-05
-2.77686e-06
1.78233e-05
-2.80567e-06
1.77596e-05
-2.83056e-06
1.76972e-05
-2.85157e-06
1.76363e-05
-2.8688e-06
1.75771e-05
-2.88239e-06
1.75199e-05
-2.89254e-06
1.74648e-05
-2.89946e-06
1.74121e-05
-2.90338e-06
1.7362e-05
-2.90455e-06
1.73147e-05
-2.90328e-06
1.72706e-05
-2.89997e-06
1.72298e-05
-2.89513e-06
1.71923e-05
-2.8894e-06
1.71583e-05
-2.88348e-06
1.71274e-05
-2.87812e-06
1.70993e-05
-2.87421e-06
-2.87321e-06
1.99999e-05
-2.12694e-09
1.99995e-05
-6.66999e-09
1.9999e-05
-1.14857e-08
1.99982e-05
-1.65549e-08
1.99973e-05
-2.18853e-08
1.99962e-05
-2.74947e-08
1.9995e-05
-3.34046e-08
1.99936e-05
-3.96386e-08
1.9992e-05
-4.62211e-08
1.99902e-05
-5.31766e-08
1.99883e-05
-6.05302e-08
1.99861e-05
-6.83065e-08
1.99837e-05
-7.65308e-08
1.99811e-05
-8.52281e-08
1.99783e-05
-9.44241e-08
1.99752e-05
-1.04144e-07
1.99718e-05
-1.14415e-07
1.99682e-05
-1.25263e-07
1.99642e-05
-1.36715e-07
1.99599e-05
-1.48798e-07
1.99553e-05
-1.61541e-07
1.99503e-05
-1.74971e-07
1.99449e-05
-1.89117e-07
1.99392e-05
-2.04008e-07
1.9933e-05
-2.19675e-07
1.99264e-05
-2.36147e-07
1.99193e-05
-2.53454e-07
1.99117e-05
-2.71628e-07
1.99036e-05
-2.90698e-07
1.98949e-05
-3.10697e-07
1.98857e-05
-3.31655e-07
1.98759e-05
-3.53604e-07
1.98654e-05
-3.76575e-07
1.98543e-05
-4.006e-07
1.98425e-05
-4.25709e-07
1.983e-05
-4.51934e-07
1.98167e-05
-4.79303e-07
1.98027e-05
-5.07848e-07
1.97878e-05
-5.37595e-07
1.97721e-05
-5.68574e-07
1.97554e-05
-6.00809e-07
1.97379e-05
-6.34328e-07
1.97193e-05
-6.69151e-07
1.96998e-05
-7.05302e-07
1.96792e-05
-7.42798e-07
1.96575e-05
-7.81657e-07
1.96347e-05
-8.21891e-07
1.96108e-05
-8.6351e-07
1.95856e-05
-9.06522e-07
1.95592e-05
-9.50927e-07
1.95315e-05
-9.96723e-07
1.95025e-05
-1.0439e-06
1.94721e-05
-1.09245e-06
1.94403e-05
-1.14235e-06
1.94071e-05
-1.19357e-06
1.93724e-05
-1.24607e-06
1.93362e-05
-1.29982e-06
1.92985e-05
-1.35476e-06
1.92592e-05
-1.41083e-06
1.92184e-05
-1.46795e-06
1.91759e-05
-1.52604e-06
1.91318e-05
-1.585e-06
1.90861e-05
-1.64472e-06
1.90388e-05
-1.70508e-06
1.89899e-05
-1.76593e-06
1.89393e-05
-1.82713e-06
1.88872e-05
-1.88851e-06
1.88335e-05
-1.94988e-06
1.87783e-05
-2.01104e-06
1.87216e-05
-2.07179e-06
1.86635e-05
-2.13189e-06
1.86041e-05
-2.19112e-06
1.85435e-05
-2.24921e-06
1.84817e-05
-2.30591e-06
1.84189e-05
-2.36096e-06
1.83553e-05
-2.41411e-06
1.82909e-05
-2.46507e-06
1.82259e-05
-2.51361e-06
1.81605e-05
-2.55946e-06
1.80949e-05
-2.60241e-06
1.80293e-05
-2.64223e-06
1.79638e-05
-2.67875e-06
1.78988e-05
-2.71179e-06
1.78343e-05
-2.74124e-06
1.77708e-05
-2.76704e-06
1.77085e-05
-2.78921e-06
1.76475e-05
-2.80785e-06
1.75882e-05
-2.82306e-06
1.75307e-05
-2.83504e-06
1.74752e-05
-2.84399e-06
1.7422e-05
-2.85012e-06
1.73711e-05
-2.85372e-06
1.73229e-05
-2.85507e-06
1.72775e-05
-2.85456e-06
1.7235e-05
-2.85265e-06
1.71955e-05
-2.84988e-06
1.71589e-05
-2.84683e-06
1.71248e-05
-2.84406e-06
1.70928e-05
-2.84224e-06
-2.8429e-06
1.99999e-05
-2.01789e-09
1.99996e-05
-6.34845e-09
1.9999e-05
-1.09649e-08
1.99983e-05
-1.58489e-08
1.99975e-05
-2.10045e-08
1.99964e-05
-2.64443e-08
1.99952e-05
-3.21856e-08
1.99938e-05
-3.82484e-08
1.99922e-05
-4.46544e-08
1.99905e-05
-5.14262e-08
1.99885e-05
-5.85868e-08
1.99864e-05
-6.616e-08
1.9984e-05
-7.41696e-08
1.99814e-05
-8.26398e-08
1.99786e-05
-9.15952e-08
1.99755e-05
-1.01061e-07
1.99722e-05
-1.11062e-07
1.99685e-05
-1.21624e-07
1.99646e-05
-1.32773e-07
1.99603e-05
-1.44537e-07
1.99557e-05
-1.56941e-07
1.99508e-05
-1.70014e-07
1.99454e-05
-1.83783e-07
1.99397e-05
-1.98277e-07
1.99336e-05
-2.13525e-07
1.9927e-05
-2.29554e-07
1.99199e-05
-2.46396e-07
1.99124e-05
-2.6408e-07
1.99043e-05
-2.82636e-07
1.98957e-05
-3.02094e-07
1.98865e-05
-3.22484e-07
1.98768e-05
-3.43837e-07
1.98664e-05
-3.66184e-07
1.98553e-05
-3.89554e-07
1.98436e-05
-4.13978e-07
1.98311e-05
-4.39486e-07
1.9818e-05
-4.66106e-07
1.9804e-05
-4.93867e-07
1.97892e-05
-5.22798e-07
1.97735e-05
-5.52924e-07
1.9757e-05
-5.84272e-07
1.97395e-05
-6.16865e-07
1.97211e-05
-6.50726e-07
1.97017e-05
-6.85877e-07
1.96812e-05
-7.22334e-07
1.96597e-05
-7.60115e-07
1.9637e-05
-7.99232e-07
1.96132e-05
-8.39695e-07
1.95882e-05
-8.8151e-07
1.95619e-05
-9.24679e-07
1.95344e-05
-9.69201e-07
1.95056e-05
-1.01507e-06
1.94754e-05
-1.06226e-06
1.94438e-05
-1.11077e-06
1.94108e-05
-1.16057e-06
1.93764e-05
-1.21162e-06
1.93404e-05
-1.26388e-06
1.93029e-05
-1.3173e-06
1.92639e-05
-1.37182e-06
1.92233e-05
-1.42737e-06
1.91812e-05
-1.48387e-06
1.91374e-05
-1.54123e-06
1.9092e-05
-1.59934e-06
1.9045e-05
-1.65808e-06
1.89964e-05
-1.71733e-06
1.89462e-05
-1.77693e-06
1.88945e-05
-1.83673e-06
1.88411e-05
-1.89656e-06
1.87863e-05
-1.95621e-06
1.873e-05
-2.0155e-06
1.86723e-05
-2.07421e-06
1.86133e-05
-2.13211e-06
1.85531e-05
-2.18897e-06
1.84917e-05
-2.24454e-06
1.84294e-05
-2.29858e-06
1.83661e-05
-2.35083e-06
1.83021e-05
-2.40105e-06
1.82374e-05
-2.44899e-06
1.81724e-05
-2.49441e-06
1.81071e-05
-2.53711e-06
1.80417e-05
-2.57687e-06
1.79765e-05
-2.61353e-06
1.79116e-05
-2.64693e-06
1.78474e-05
-2.67698e-06
1.77839e-05
-2.70362e-06
1.77216e-05
-2.72687e-06
1.76606e-05
-2.7468e-06
1.7601e-05
-2.76352e-06
1.75432e-05
-2.7772e-06
1.74872e-05
-2.78803e-06
1.74333e-05
-2.79622e-06
1.73816e-05
-2.80204e-06
1.73323e-05
-2.80577e-06
1.72855e-05
-2.80777e-06
1.72413e-05
-2.80845e-06
1.71997e-05
-2.80824e-06
1.71605e-05
-2.80761e-06
1.71234e-05
-2.80697e-06
1.70879e-05
-2.80677e-06
-2.80854e-06
1.99999e-05
-1.92024e-09
1.99996e-05
-6.05406e-09
1.99991e-05
-1.04791e-08
1.99985e-05
-1.51797e-08
1.99976e-05
-2.01586e-08
1.99966e-05
-2.54256e-08
1.99954e-05
-3.09948e-08
1.9994e-05
-3.68832e-08
1.99925e-05
-4.31101e-08
1.99908e-05
-4.96961e-08
1.99888e-05
-5.66626e-08
1.99867e-05
-6.40318e-08
1.99844e-05
-7.18265e-08
1.99818e-05
-8.00697e-08
1.9979e-05
-8.87851e-08
1.99759e-05
-9.79967e-08
1.99726e-05
-1.07729e-07
1.9969e-05
-1.18007e-07
1.99651e-05
-1.28856e-07
1.99608e-05
-1.40301e-07
1.99562e-05
-1.52369e-07
1.99513e-05
-1.65087e-07
1.9946e-05
-1.78482e-07
1.99403e-05
-1.9258e-07
1.99342e-05
-2.07411e-07
1.99276e-05
-2.23001e-07
1.99206e-05
-2.39381e-07
1.99131e-05
-2.56579e-07
1.99051e-05
-2.74623e-07
1.98966e-05
-2.93544e-07
1.98875e-05
-3.1337e-07
1.98778e-05
-3.34132e-07
1.98674e-05
-3.55858e-07
1.98564e-05
-3.78579e-07
1.98448e-05
-4.02322e-07
1.98324e-05
-4.27118e-07
1.98193e-05
-4.52994e-07
1.98054e-05
-4.79979e-07
1.97907e-05
-5.08098e-07
1.97752e-05
-5.37378e-07
1.97588e-05
-5.67844e-07
1.97414e-05
-5.99519e-07
1.97231e-05
-6.32426e-07
1.97038e-05
-6.66584e-07
1.96835e-05
-7.0201e-07
1.96621e-05
-7.38722e-07
1.96396e-05
-7.7673e-07
1.96159e-05
-8.16046e-07
1.95911e-05
-8.56674e-07
1.9565e-05
-8.98618e-07
1.95377e-05
-9.41875e-07
1.95091e-05
-9.86438e-07
1.94791e-05
-1.0323e-06
1.94478e-05
-1.07943e-06
1.9415e-05
-1.12781e-06
1.93808e-05
-1.17741e-06
1.93451e-05
-1.2282e-06
1.9308e-05
-1.28011e-06
1.92692e-05
-1.3331e-06
1.9229e-05
-1.3871e-06
1.91871e-05
-1.44203e-06
1.91437e-05
-1.4978e-06
1.90987e-05
-1.55431e-06
1.9052e-05
-1.61146e-06
1.90038e-05
-1.66911e-06
1.8954e-05
-1.72713e-06
1.89026e-05
-1.78537e-06
1.88497e-05
-1.84365e-06
1.87953e-05
-1.90181e-06
1.87395e-05
-1.95966e-06
1.86823e-05
-2.01698e-06
1.86237e-05
-2.07356e-06
1.85639e-05
-2.12919e-06
1.8503e-05
-2.18363e-06
1.84411e-05
-2.23664e-06
1.83782e-05
-2.28799e-06
1.83146e-05
-2.33744e-06
1.82504e-05
-2.38476e-06
1.81857e-05
-2.42973e-06
1.81208e-05
-2.47215e-06
1.80557e-05
-2.51182e-06
1.79908e-05
-2.54858e-06
1.79261e-05
-2.58229e-06
1.7862e-05
-2.61287e-06
1.77987e-05
-2.64027e-06
1.77363e-05
-2.6645e-06
1.76751e-05
-2.68562e-06
1.76153e-05
-2.70372e-06
1.75571e-05
-2.71896e-06
1.75006e-05
-2.73151e-06
1.74459e-05
-2.74159e-06
1.73933e-05
-2.74942e-06
1.73428e-05
-2.7553e-06
1.72946e-05
-2.75954e-06
1.72486e-05
-2.76247e-06
1.72049e-05
-2.76448e-06
1.71632e-05
-2.76591e-06
1.71233e-05
-2.76705e-06
1.70847e-05
-2.76817e-06
-2.77058e-06
1.99999e-05
-1.83107e-09
1.99996e-05
-5.7815e-09
1.99992e-05
-1.00234e-08
1.99985e-05
-1.45444e-08
1.99977e-05
-1.93473e-08
1.99968e-05
-2.44401e-08
1.99956e-05
-2.98349e-08
1.99943e-05
-3.55465e-08
1.99927e-05
-4.15923e-08
1.9991e-05
-4.79907e-08
1.99891e-05
-5.47618e-08
1.9987e-05
-6.19262e-08
1.99847e-05
-6.95055e-08
1.99822e-05
-7.75218e-08
1.99794e-05
-8.59976e-08
1.99763e-05
-9.4956e-08
1.9973e-05
-1.04421e-07
1.99694e-05
-1.14415e-07
1.99655e-05
-1.24965e-07
1.99613e-05
-1.36094e-07
1.99568e-05
-1.47828e-07
1.99519e-05
-1.60193e-07
1.99466e-05
-1.73215e-07
1.9941e-05
-1.86921e-07
1.99349e-05
-2.01338e-07
1.99284e-05
-2.16493e-07
1.99214e-05
-2.32414e-07
1.9914e-05
-2.49128e-07
1.9906e-05
-2.66665e-07
1.98975e-05
-2.85053e-07
1.98885e-05
-3.04319e-07
1.98788e-05
-3.24494e-07
1.98686e-05
-3.45605e-07
1.98577e-05
-3.6768e-07
1.98461e-05
-3.90749e-07
1.98338e-05
-4.14839e-07
1.98208e-05
-4.39977e-07
1.9807e-05
-4.6619e-07
1.97924e-05
-4.93505e-07
1.9777e-05
-5.21946e-07
1.97607e-05
-5.51538e-07
1.97435e-05
-5.82303e-07
1.97253e-05
-6.14262e-07
1.97062e-05
-6.47436e-07
1.9686e-05
-6.8184e-07
1.96648e-05
-7.17492e-07
1.96424e-05
-7.54402e-07
1.9619e-05
-7.9258e-07
1.95943e-05
-8.32032e-07
1.95685e-05
-8.72762e-07
1.95414e-05
-9.14766e-07
1.9513e-05
-9.58038e-07
1.94832e-05
-1.00257e-06
1.94521e-05
-1.04834e-06
1.94197e-05
-1.09532e-06
1.93857e-05
-1.14349e-06
1.93503e-05
-1.19281e-06
1.93135e-05
-1.24324e-06
1.92751e-05
-1.29471e-06
1.92351e-05
-1.34717e-06
1.91937e-05
-1.40054e-06
1.91506e-05
-1.45474e-06
1.9106e-05
-1.50967e-06
1.90597e-05
-1.56523e-06
1.90119e-05
-1.62131e-06
1.89626e-05
-1.67776e-06
1.89116e-05
-1.73444e-06
1.88592e-05
-1.79121e-06
1.88053e-05
-1.84788e-06
1.87499e-05
-1.90429e-06
1.86931e-05
-1.96022e-06
1.86351e-05
-2.0155e-06
1.85758e-05
-2.06989e-06
1.85153e-05
-2.1232e-06
1.84539e-05
-2.17518e-06
1.83915e-05
-2.22561e-06
1.83284e-05
-2.27429e-06
1.82646e-05
-2.32097e-06
1.82003e-05
-2.36546e-06
1.81357e-05
-2.40756e-06
1.8071e-05
-2.4471e-06
1.80063e-05
-2.48391e-06
1.79419e-05
-2.51788e-06
1.7878e-05
-2.54892e-06
1.78147e-05
-2.57699e-06
1.77523e-05
-2.60209e-06
1.76909e-05
-2.62428e-06
1.76308e-05
-2.64363e-06
1.75722e-05
-2.66028e-06
1.7515e-05
-2.6744e-06
1.74596e-05
-2.68617e-06
1.7406e-05
-2.69583e-06
1.73544e-05
-2.70362e-06
1.73046e-05
-2.70983e-06
1.72569e-05
-2.71475e-06
1.72111e-05
-2.71868e-06
1.71671e-05
-2.72187e-06
1.71245e-05
-2.72451e-06
1.70831e-05
-2.72676e-06
-2.7294e-06
1.99999e-05
-1.74846e-09
1.99997e-05
-5.5268e-09
1.99992e-05
-9.59377e-09
1.99986e-05
-1.394e-08
1.99979e-05
-1.85688e-08
1.99969e-05
-2.34877e-08
1.99958e-05
-2.87072e-08
1.99945e-05
-3.42407e-08
1.9993e-05
-4.01038e-08
1.99913e-05
-4.63133e-08
1.99894e-05
-5.28879e-08
1.99873e-05
-5.98469e-08
1.99851e-05
-6.72106e-08
1.99825e-05
-7.49999e-08
1.99798e-05
-8.32364e-08
1.99768e-05
-9.19423e-08
1.99735e-05
-1.0114e-07
1.99699e-05
-1.10853e-07
1.99661e-05
-1.21105e-07
1.99619e-05
-1.3192e-07
1.99574e-05
-1.43322e-07
1.99525e-05
-1.55337e-07
1.99473e-05
-1.67989e-07
1.99417e-05
-1.81305e-07
1.99356e-05
-1.95311e-07
1.99292e-05
-2.10033e-07
1.99223e-05
-2.25498e-07
1.99149e-05
-2.41734e-07
1.9907e-05
-2.58767e-07
1.98986e-05
-2.76626e-07
1.98896e-05
-2.95338e-07
1.988e-05
-3.1493e-07
1.98698e-05
-3.3543e-07
1.9859e-05
-3.56866e-07
1.98475e-05
-3.79266e-07
1.98353e-05
-4.02655e-07
1.98224e-05
-4.27062e-07
1.98088e-05
-4.52511e-07
1.97943e-05
-4.79028e-07
1.9779e-05
-5.06637e-07
1.97628e-05
-5.35362e-07
1.97457e-05
-5.65225e-07
1.97277e-05
-5.96246e-07
1.97087e-05
-6.28445e-07
1.96887e-05
-6.61837e-07
1.96677e-05
-6.96438e-07
1.96455e-05
-7.3226e-07
1.96222e-05
-7.69312e-07
1.95978e-05
-8.076e-07
1.95722e-05
-8.47126e-07
1.95453e-05
-8.8789e-07
1.95171e-05
-9.29884e-07
1.94877e-05
-9.73099e-07
1.94569e-05
-1.01752e-06
1.94247e-05
-1.06312e-06
1.9391e-05
-1.10987e-06
1.9356e-05
-1.15775e-06
1.93194e-05
-1.20669e-06
1.92814e-05
-1.25666e-06
1.92418e-05
-1.3076e-06
1.92007e-05
-1.35943e-06
1.9158e-05
-1.41207e-06
1.91138e-05
-1.46545e-06
1.9068e-05
-1.51944e-06
1.90207e-05
-1.57395e-06
1.89718e-05
-1.62885e-06
1.89213e-05
-1.684e-06
1.88694e-05
-1.73925e-06
1.88159e-05
-1.79445e-06
1.87611e-05
-1.84942e-06
1.87048e-05
-1.90399e-06
1.86473e-05
-1.95795e-06
1.85885e-05
-2.01112e-06
1.85286e-05
-2.06328e-06
1.84676e-05
-2.11423e-06
1.84058e-05
-2.16374e-06
1.83431e-05
-2.21161e-06
1.82798e-05
-2.25764e-06
1.82159e-05
-2.30162e-06
1.81517e-05
-2.34337e-06
1.80873e-05
-2.38272e-06
1.8023e-05
-2.41954e-06
1.79588e-05
-2.4537e-06
1.7895e-05
-2.48512e-06
1.78317e-05
-2.51377e-06
1.77693e-05
-2.53963e-06
1.77078e-05
-2.56276e-06
1.76474e-05
-2.58322e-06
1.75882e-05
-2.60114e-06
1.75305e-05
-2.61666e-06
1.74743e-05
-2.62995e-06
1.74197e-05
-2.64123e-06
1.73668e-05
-2.65073e-06
1.73156e-05
-2.65867e-06
1.72662e-05
-2.66532e-06
1.72184e-05
-2.67091e-06
1.71722e-05
-2.67562e-06
1.71272e-05
-2.67957e-06
1.70832e-05
-2.68278e-06
-2.68526e-06
1.99999e-05
-1.67111e-09
1.99997e-05
-5.287e-09
1.99993e-05
-9.18669e-09
1.99987e-05
-1.33634e-08
1.9998e-05
-1.78213e-08
1.9997e-05
-2.25675e-08
1.99959e-05
-2.7612e-08
1.99947e-05
-3.2967e-08
1.99932e-05
-3.86466e-08
1.99916e-05
-4.46665e-08
1.99897e-05
-5.1044e-08
1.99877e-05
-5.7797e-08
1.99854e-05
-6.49449e-08
1.99829e-05
-7.25074e-08
1.99802e-05
-8.05051e-08
1.99772e-05
-8.89592e-08
1.99739e-05
-9.78915e-08
1.99704e-05
-1.07324e-07
1.99666e-05
-1.1728e-07
1.99625e-05
-1.27782e-07
1.9958e-05
-1.38854e-07
1.99532e-05
-1.50521e-07
1.9948e-05
-1.62806e-07
1.99424e-05
-1.75735e-07
1.99364e-05
-1.89333e-07
1.993e-05
-2.03626e-07
1.99232e-05
-2.18639e-07
1.99158e-05
-2.344e-07
1.9908e-05
-2.50934e-07
1.98996e-05
-2.68268e-07
1.98907e-05
-2.86429e-07
1.98813e-05
-3.05444e-07
1.98712e-05
-3.2534e-07
1.98604e-05
-3.46142e-07
1.9849e-05
-3.67878e-07
1.9837e-05
-3.90574e-07
1.98242e-05
-4.14255e-07
1.98106e-05
-4.38947e-07
1.97962e-05
-4.64674e-07
1.97811e-05
-4.9146e-07
1.9765e-05
-5.19327e-07
1.97481e-05
-5.48296e-07
1.97302e-05
-5.78388e-07
1.97114e-05
-6.09621e-07
1.96916e-05
-6.42011e-07
1.96707e-05
-6.75572e-07
1.96488e-05
-7.10317e-07
1.96257e-05
-7.46254e-07
1.96015e-05
-7.83389e-07
1.95761e-05
-8.21725e-07
1.95495e-05
-8.61261e-07
1.95216e-05
-9.01991e-07
1.94924e-05
-9.43906e-07
1.94619e-05
-9.8699e-07
1.943e-05
-1.03122e-06
1.93967e-05
-1.07657e-06
1.93619e-05
-1.12302e-06
1.93258e-05
-1.1705e-06
1.92881e-05
-1.21899e-06
1.92489e-05
-1.26842e-06
1.92082e-05
-1.31873e-06
1.9166e-05
-1.36983e-06
1.91222e-05
-1.42166e-06
1.90768e-05
-1.4741e-06
1.90299e-05
-1.52706e-06
1.89815e-05
-1.58042e-06
1.89316e-05
-1.63405e-06
1.88801e-05
-1.6878e-06
1.88272e-05
-1.74154e-06
1.87729e-05
-1.79509e-06
1.87172e-05
-1.84829e-06
1.86602e-05
-1.90095e-06
1.8602e-05
-1.95289e-06
1.85426e-05
-2.00391e-06
1.84822e-05
-2.0538e-06
1.84208e-05
-2.10238e-06
1.83586e-05
-2.14944e-06
1.82958e-05
-2.19478e-06
1.82324e-05
-2.23821e-06
1.81686e-05
-2.27957e-06
1.81045e-05
-2.3187e-06
1.80405e-05
-2.35546e-06
1.79765e-05
-2.38974e-06
1.79128e-05
-2.42146e-06
1.78497e-05
-2.45059e-06
1.77871e-05
-2.4771e-06
1.77254e-05
-2.50105e-06
1.76647e-05
-2.52249e-06
1.76051e-05
-2.54152e-06
1.75467e-05
-2.55828e-06
1.74897e-05
-2.57293e-06
1.74341e-05
-2.58564e-06
1.738e-05
-2.59663e-06
1.73274e-05
-2.60609e-06
1.72763e-05
-2.61424e-06
1.72267e-05
-2.62127e-06
1.71784e-05
-2.62731e-06
1.71312e-05
-2.6324e-06
1.70849e-05
-2.63645e-06
-2.63875e-06
1.99999e-05
-1.59811e-09
1.99997e-05
-5.05986e-09
1.99993e-05
-8.79932e-09
1.99988e-05
-1.28119e-08
1.9998e-05
-1.71024e-08
1.99972e-05
-2.16783e-08
1.99961e-05
-2.65489e-08
1.99948e-05
-3.17258e-08
1.99934e-05
-3.72219e-08
1.99918e-05
-4.3052e-08
1.999e-05
-4.92321e-08
1.9988e-05
-5.57791e-08
1.99857e-05
-6.27112e-08
1.99833e-05
-7.00472e-08
1.99806e-05
-7.78067e-08
1.99776e-05
-8.60098e-08
1.99744e-05
-9.46775e-08
1.99709e-05
-1.03831e-07
1.99671e-05
-1.13492e-07
1.9963e-05
-1.23684e-07
1.99586e-05
-1.34428e-07
1.99538e-05
-1.45749e-07
1.99487e-05
-1.5767e-07
1.99432e-05
-1.70215e-07
1.99373e-05
-1.83409e-07
1.99309e-05
-1.97276e-07
1.99241e-05
-2.11841e-07
1.99168e-05
-2.27131e-07
1.99091e-05
-2.4317e-07
1.99008e-05
-2.59984e-07
1.9892e-05
-2.776e-07
1.98826e-05
-2.96042e-07
1.98726e-05
-3.15338e-07
1.98619e-05
-3.35513e-07
1.98507e-05
-3.56592e-07
1.98387e-05
-3.78601e-07
1.9826e-05
-4.01564e-07
1.98125e-05
-4.25506e-07
1.97983e-05
-4.50451e-07
1.97833e-05
-4.76421e-07
1.97674e-05
-5.03438e-07
1.97506e-05
-5.31523e-07
1.97329e-05
-5.60695e-07
1.97143e-05
-5.90973e-07
1.96946e-05
-6.22371e-07
1.9674e-05
-6.54903e-07
1.96522e-05
-6.88582e-07
1.96294e-05
-7.23416e-07
1.96054e-05
-7.59412e-07
1.95803e-05
-7.96571e-07
1.95539e-05
-8.34893e-07
1.95263e-05
-8.74373e-07
1.94974e-05
-9.15002e-07
1.94672e-05
-9.56765e-07
1.94356e-05
-9.99644e-07
1.94026e-05
-1.04361e-06
1.93682e-05
-1.08864e-06
1.93324e-05
-1.13468e-06
1.92951e-05
-1.1817e-06
1.92564e-05
-1.22964e-06
1.92161e-05
-1.27844e-06
1.91743e-05
-1.32803e-06
1.91309e-05
-1.37832e-06
1.90861e-05
-1.42923e-06
1.90397e-05
-1.48066e-06
1.89917e-05
-1.5325e-06
1.89423e-05
-1.58462e-06
1.88914e-05
-1.63689e-06
1.8839e-05
-1.68917e-06
1.87853e-05
-1.74131e-06
1.87301e-05
-1.79315e-06
1.86737e-05
-1.84451e-06
1.8616e-05
-1.89522e-06
1.85572e-05
-1.94509e-06
1.84973e-05
-1.99393e-06
1.84365e-05
-2.04155e-06
1.83748e-05
-2.08777e-06
1.83124e-05
-2.1324e-06
1.82495e-05
-2.17526e-06
1.81861e-05
-2.21619e-06
1.81224e-05
-2.25504e-06
1.80586e-05
-2.29168e-06
1.79949e-05
-2.326e-06
1.79314e-05
-2.35794e-06
1.78682e-05
-2.38745e-06
1.78057e-05
-2.41451e-06
1.77438e-05
-2.43915e-06
1.76827e-05
-2.46143e-06
1.76226e-05
-2.48144e-06
1.75636e-05
-2.49928e-06
1.75058e-05
-2.51511e-06
1.74492e-05
-2.52908e-06
1.7394e-05
-2.54137e-06
1.734e-05
-2.55215e-06
1.72874e-05
-2.56161e-06
1.7236e-05
-2.56987e-06
1.71857e-05
-2.57705e-06
1.71365e-05
-2.58312e-06
1.7088e-05
-2.58799e-06
-2.5904e-06
1.99999e-05
-1.5288e-09
1.99997e-05
-4.84364e-09
1.99993e-05
-8.42934e-09
1.99988e-05
-1.22829e-08
1.99981e-05
-1.64101e-08
1.99973e-05
-2.08185e-08
1.99962e-05
-2.55171e-08
1.9995e-05
-3.05169e-08
1.99936e-05
-3.58303e-08
1.99921e-05
-4.14709e-08
1.99903e-05
-4.74538e-08
1.99883e-05
-5.37951e-08
1.99861e-05
-6.05118e-08
1.99837e-05
-6.76218e-08
1.9981e-05
-7.51437e-08
1.99781e-05
-8.30969e-08
1.99749e-05
-9.15011e-08
1.99715e-05
-1.00377e-07
1.99677e-05
-1.09746e-07
1.99637e-05
-1.19628e-07
1.99593e-05
-1.30047e-07
1.99545e-05
-1.41025e-07
1.99495e-05
-1.52584e-07
1.9944e-05
-1.64748e-07
1.99381e-05
-1.77541e-07
1.99318e-05
-1.90985e-07
1.99251e-05
-2.05107e-07
1.99179e-05
-2.19929e-07
1.99102e-05
-2.35478e-07
1.9902e-05
-2.51777e-07
1.98933e-05
-2.68853e-07
1.98839e-05
-2.86729e-07
1.9874e-05
-3.05431e-07
1.98635e-05
-3.24984e-07
1.98523e-05
-3.45412e-07
1.98405e-05
-3.66741e-07
1.98279e-05
-3.88993e-07
1.98146e-05
-4.12193e-07
1.98005e-05
-4.36364e-07
1.97856e-05
-4.61526e-07
1.97699e-05
-4.87703e-07
1.97533e-05
-5.14913e-07
1.97357e-05
-5.43176e-07
1.97173e-05
-5.72508e-07
1.96978e-05
-6.02925e-07
1.96774e-05
-6.3444e-07
1.96558e-05
-6.67065e-07
1.96332e-05
-7.00809e-07
1.96095e-05
-7.35677e-07
1.95846e-05
-7.71672e-07
1.95585e-05
-8.08795e-07
1.95312e-05
-8.47039e-07
1.95026e-05
-8.86398e-07
1.94727e-05
-9.26856e-07
1.94414e-05
-9.68397e-07
1.94088e-05
-1.011e-06
1.93748e-05
-1.05463e-06
1.93393e-05
-1.09925e-06
1.93025e-05
-1.14482e-06
1.92641e-05
-1.19129e-06
1.92243e-05
-1.23859e-06
1.91829e-05
-1.28668e-06
1.914e-05
-1.33546e-06
1.90957e-05
-1.38485e-06
1.90498e-05
-1.43477e-06
1.90024e-05
-1.48509e-06
1.89535e-05
-1.53572e-06
1.89031e-05
-1.58652e-06
1.88513e-05
-1.63736e-06
1.87981e-05
-1.6881e-06
1.87435e-05
-1.73858e-06
1.86876e-05
-1.78864e-06
1.86305e-05
-1.83812e-06
1.85723e-05
-1.88683e-06
1.85129e-05
-1.93461e-06
1.84527e-05
-1.98126e-06
1.83915e-05
-2.02662e-06
1.83296e-05
-2.07051e-06
1.82671e-05
-2.11276e-06
1.82041e-05
-2.15321e-06
1.81408e-05
-2.19173e-06
1.80773e-05
-2.22819e-06
1.80138e-05
-2.26249e-06
1.79504e-05
-2.29456e-06
1.78873e-05
-2.32435e-06
1.78247e-05
-2.35185e-06
1.77626e-05
-2.37707e-06
1.77012e-05
-2.40006e-06
1.76407e-05
-2.42089e-06