/*--------------------------------*- C++ -*----------------------------------*\
  =========                 |
  \\      /  F ield         | OpenFOAM: The Open Source CFD Toolbox
   \\    /   O peration     | Website:  https://openfoam.org
    \\  /    A nd           | Version:  11
     \\/     M anipulation  |
\*---------------------------------------------------------------------------*/
FoamFile
{
    format      ascii;
    class       volScalarField;
    location    "328";
    object      p;
}
// * * * * * * * * * * * * * * * * * * * * * * * * * * * * * * * * * * * * * //

dimensions      [0 2 -2 0 0 0 0];

internalField   nonuniform List<scalar> 
10000
(
6.88908e-08
6.74347e-08
6.96437e-08
7.43276e-08
7.97559e-08
8.55198e-08
9.15847e-08
9.79384e-08
1.04574e-07
1.11496e-07
1.18717e-07
1.26248e-07
1.34107e-07
1.42307e-07
1.50865e-07
1.59797e-07
1.69118e-07
1.78844e-07
1.8899e-07
1.99571e-07
2.10601e-07
2.22096e-07
2.34068e-07
2.4653e-07
2.59496e-07
2.72976e-07
2.86981e-07
3.0152e-07
3.16602e-07
3.32233e-07
3.48418e-07
3.65161e-07
3.82461e-07
4.00319e-07
4.18728e-07
4.37682e-07
4.5717e-07
4.77177e-07
4.97683e-07
5.18666e-07
5.40095e-07
5.61935e-07
5.84144e-07
6.06675e-07
6.29472e-07
6.5247e-07
6.75598e-07
6.98776e-07
7.21913e-07
7.44913e-07
7.67668e-07
7.90065e-07
8.11979e-07
8.33282e-07
8.53835e-07
8.73493e-07
8.921e-07
9.09485e-07
9.25453e-07
9.39707e-07
9.51644e-07
9.60204e-07
9.67538e-07
9.78532e-07
9.89735e-07
9.9797e-07
1.00483e-06
1.00859e-06
1.00743e-06
1.00538e-06
1.00228e-06
9.94833e-07
9.87894e-07
9.84575e-07
9.79637e-07
9.71231e-07
9.60297e-07
9.47307e-07
9.32394e-07
9.15624e-07
8.97032e-07
8.7662e-07
8.54369e-07
8.30243e-07
8.04191e-07
7.76146e-07
7.46023e-07
7.13717e-07
6.79099e-07
6.42007e-07
6.02239e-07
5.59537e-07
5.13563e-07
4.63855e-07
4.09787e-07
3.50677e-07
2.85479e-07
2.09099e-07
1.08151e-07
2.6852e-09
1.3733e-07
1.31153e-07
1.27141e-07
1.28682e-07
1.32703e-07
1.37938e-07
1.44051e-07
1.5087e-07
1.58279e-07
1.66215e-07
1.74647e-07
1.8356e-07
1.92952e-07
2.02823e-07
2.13182e-07
2.24038e-07
2.35401e-07
2.47286e-07
2.59705e-07
2.72672e-07
2.86201e-07
3.00307e-07
3.15002e-07
3.30299e-07
3.46212e-07
3.62752e-07
3.7993e-07
3.97755e-07
4.16234e-07
4.35375e-07
4.55181e-07
4.75655e-07
4.96796e-07
5.18602e-07
5.41065e-07
5.64175e-07
5.87919e-07
6.12277e-07
6.37225e-07
6.62735e-07
6.88769e-07
7.15285e-07
7.42232e-07
7.69552e-07
7.97175e-07
8.25024e-07
8.53011e-07
8.81036e-07
9.08989e-07
9.36749e-07
9.64183e-07
9.91147e-07
1.01749e-06
1.04304e-06
1.06764e-06
1.0911e-06
1.11324e-06
1.13387e-06
1.1528e-06
1.16982e-06
1.18463e-06
1.19711e-06
1.20968e-06
1.22286e-06
1.22941e-06
1.22867e-06
1.226e-06
1.22549e-06
1.22834e-06
1.23312e-06
1.23538e-06
1.22917e-06
1.21743e-06
1.20672e-06
1.19556e-06
1.18193e-06
1.16586e-06
1.14748e-06
1.12681e-06
1.10385e-06
1.07863e-06
1.05111e-06
1.02126e-06
9.89011e-07
9.54284e-07
9.16977e-07
8.76966e-07
8.34095e-07
7.88175e-07
7.38971e-07
6.86187e-07
6.29449e-07
5.68263e-07
5.01941e-07
4.29581e-07
3.50358e-07
2.62811e-07
1.56954e-07
1.06292e-08
-9.59455e-08
1.77635e-07
1.68414e-07
1.60094e-07
1.57649e-07
1.58313e-07
1.60698e-07
1.64348e-07
1.68993e-07
1.74442e-07
1.80572e-07
1.87308e-07
1.94604e-07
2.02428e-07
2.10764e-07
2.19603e-07
2.28942e-07
2.38781e-07
2.49124e-07
2.59977e-07
2.71346e-07
2.83241e-07
2.9567e-07
3.08641e-07
3.22165e-07
3.3625e-07
3.50904e-07
3.66136e-07
3.81952e-07
3.98359e-07
4.15361e-07
4.32962e-07
4.51162e-07
4.69962e-07
4.89358e-07
5.09344e-07
5.2991e-07
5.51044e-07
5.72729e-07
5.94942e-07
6.17657e-07
6.4084e-07
6.64451e-07
6.88441e-07
7.12755e-07
7.37328e-07
7.62082e-07
7.86933e-07
8.11783e-07
8.36521e-07
8.61027e-07
8.85167e-07
9.08798e-07
9.31765e-07
9.53906e-07
9.75054e-07
9.95037e-07
1.01369e-06
1.03085e-06
1.04639e-06
1.06021e-06
1.07228e-06
1.08278e-06
1.09298e-06
1.10378e-06
1.11296e-06
1.1184e-06
1.12082e-06
1.1197e-06
1.11453e-06
1.10636e-06
1.09504e-06
1.07963e-06
1.06305e-06
1.04734e-06
1.03132e-06
1.01392e-06
9.94858e-07
9.74038e-07
9.51381e-07
9.26848e-07
9.00417e-07
8.72047e-07
8.41688e-07
8.0927e-07
7.74709e-07
7.379e-07
6.98715e-07
6.56997e-07
6.12555e-07
5.65155e-07
5.14505e-07
4.60241e-07
4.01885e-07
3.38788e-07
2.70159e-07
1.9556e-07
1.13971e-07
1.33473e-08
-1.30916e-07
-1.91234e-07
2.14338e-07
2.03932e-07
1.94688e-07
1.90647e-07
1.8962e-07
1.90476e-07
1.92797e-07
1.96298e-07
2.00762e-07
2.06043e-07
2.1204e-07
2.18686e-07
2.25935e-07
2.33757e-07
2.42132e-07
2.51047e-07
2.60495e-07
2.70475e-07
2.80987e-07
2.92033e-07
3.03618e-07
3.15748e-07
3.28429e-07
3.41668e-07
3.55472e-07
3.69847e-07
3.84799e-07
4.00335e-07
4.16459e-07
4.33175e-07
4.50485e-07
4.68389e-07
4.86887e-07
5.05974e-07
5.25644e-07
5.45886e-07
5.66688e-07
5.88032e-07
6.09894e-07
6.32246e-07
6.55053e-07
6.78274e-07
7.01857e-07
7.25745e-07
7.49867e-07
7.74143e-07
7.98483e-07
8.22781e-07
8.46922e-07
8.70775e-07
8.94199e-07
9.17041e-07
9.39136e-07
9.60313e-07
9.80396e-07
9.99211e-07
1.01659e-06
1.03237e-06
1.04645e-06
1.05872e-06
1.06918e-06
1.07791e-06
1.08535e-06
1.09184e-06
1.09663e-06
1.09867e-06
1.09774e-06
1.09336e-06
1.08527e-06
1.07401e-06
1.05993e-06
1.04314e-06
1.02493e-06
1.00608e-06
9.8627e-07
9.65135e-07
9.42487e-07
9.18229e-07
8.92279e-07
8.64587e-07
8.35123e-07
8.0384e-07
7.70682e-07
7.35574e-07
6.98428e-07
6.59135e-07
6.17561e-07
5.73546e-07
5.26896e-07
4.77373e-07
4.24691e-07
3.68496e-07
3.08343e-07
2.43632e-07
1.73715e-07
9.85565e-08
1.76452e-08
-8.25667e-08
-2.29178e-07
-2.59916e-07
2.47727e-07
2.37336e-07
2.28169e-07
2.2349e-07
2.2156e-07
2.21515e-07
2.23013e-07
2.25792e-07
2.29639e-07
2.34401e-07
2.39969e-07
2.46265e-07
2.53233e-07
2.60834e-07
2.6904e-07
2.77831e-07
2.87197e-07
2.97129e-07
3.07624e-07
3.18682e-07
3.30304e-07
3.42493e-07
3.55252e-07
3.68588e-07
3.82505e-07
3.97007e-07
4.12101e-07
4.27789e-07
4.44077e-07
4.60966e-07
4.78458e-07
4.96553e-07
5.15247e-07
5.34536e-07
5.54412e-07
5.74864e-07
5.95877e-07
6.17432e-07
6.39504e-07
6.62063e-07
6.85071e-07
7.08483e-07
7.32246e-07
7.56297e-07
7.80562e-07
8.04956e-07
8.2938e-07
8.53725e-07
8.77866e-07
9.01665e-07
9.24972e-07
9.47624e-07
9.69449e-07
9.90265e-07
1.00989e-06
1.02814e-06
1.04484e-06
1.05983e-06
1.07298e-06
1.08419e-06
1.09341e-06
1.10063e-06
1.10598e-06
1.1095e-06
1.11079e-06
1.10939e-06
1.10513e-06
1.09785e-06
1.0875e-06
1.07433e-06
1.05851e-06
1.04022e-06
1.02006e-06
9.98468e-07
9.75493e-07
9.51036e-07
9.25023e-07
8.97402e-07
8.68109e-07
8.37104e-07
8.04356e-07
7.69822e-07
7.33441e-07
6.95141e-07
6.54829e-07
6.12396e-07
5.67707e-07
5.20601e-07
4.70884e-07
4.18327e-07
3.62654e-07
3.03535e-07
2.40567e-07
1.73218e-07
1.00981e-07
2.41748e-08
-5.73301e-08
-1.58612e-07
-3.09214e-07
-3.17221e-07
2.77904e-07
2.67986e-07
2.59109e-07
2.54123e-07
2.51617e-07
2.50927e-07
2.51785e-07
2.53964e-07
2.57272e-07
2.61559e-07
2.66715e-07
2.7266e-07
2.7933e-07
2.86682e-07
2.94681e-07
3.03305e-07
3.12537e-07
3.22364e-07
3.32781e-07
3.43784e-07
3.55372e-07
3.67544e-07
3.80303e-07
3.93651e-07
4.07593e-07
4.22131e-07
4.37269e-07
4.5301e-07
4.69357e-07
4.8631e-07
5.0387e-07
5.22035e-07
5.40802e-07
5.60164e-07
5.80112e-07
6.00635e-07
6.21715e-07
6.43332e-07
6.6546e-07
6.88065e-07
7.11108e-07
7.34543e-07
7.58311e-07
7.82348e-07
8.06574e-07
8.30901e-07
8.55225e-07
8.79432e-07
9.03391e-07
9.26958e-07
9.49976e-07
9.72275e-07
9.93676e-07
1.01399e-06
1.03303e-06
1.05061e-06
1.06653e-06
1.08065e-06
1.09281e-06
1.10289e-06
1.11081e-06
1.11653e-06
1.12003e-06
1.12128e-06
1.12004e-06
1.11606e-06
1.10923e-06
1.0995e-06
1.08689e-06
1.07154e-06
1.05359e-06
1.03324e-06
1.01083e-06
9.86665e-07
9.60875e-07
9.33468e-07
9.04446e-07
8.73794e-07
8.41474e-07
8.07454e-07
7.71716e-07
7.34217e-07
6.94903e-07
6.53704e-07
6.10531e-07
5.65277e-07
5.17811e-07
4.67979e-07
4.15598e-07
3.60452e-07
3.02288e-07
2.40813e-07
1.75674e-07
1.06417e-07
3.26621e-08
-4.4999e-08
-1.26543e-07
-2.28657e-07
-3.82164e-07
-3.71046e-07
3.05891e-07
2.96508e-07
2.87995e-07
2.82901e-07
2.80044e-07
2.78903e-07
2.79274e-07
2.80971e-07
2.83822e-07
2.87691e-07
2.92472e-07
2.98084e-07
3.04464e-07
3.11563e-07
3.19345e-07
3.27783e-07
3.36857e-07
3.46552e-07
3.56859e-07
3.67771e-07
3.79285e-07
3.91399e-07
4.04112e-07
4.17427e-07
4.31343e-07
4.45864e-07
4.60992e-07
4.76727e-07
4.93072e-07
5.10025e-07
5.27587e-07
5.45753e-07
5.6452e-07
5.8388e-07
6.03823e-07
6.24334e-07
6.45396e-07
6.66987e-07
6.89078e-07
7.11634e-07
7.34615e-07
7.5797e-07
7.81639e-07
8.05554e-07
8.29632e-07
8.53782e-07
8.77897e-07
9.01855e-07
9.25523e-07
9.48752e-07
9.7138e-07
9.93231e-07
1.01412e-06
1.03386e-06
1.05224e-06
1.06909e-06
1.0842e-06
1.0974e-06
1.10853e-06
1.11747e-06
1.1241e-06
1.12835e-06
1.13016e-06
1.12945e-06
1.12609e-06
1.11993e-06
1.1109e-06
1.09898e-06
1.08422e-06
1.06673e-06
1.04665e-06
1.02417e-06
9.99541e-07
9.72981e-07
9.44628e-07
9.14547e-07
8.82785e-07
8.49362e-07
8.14261e-07
7.77465e-07
7.38967e-07
6.98733e-07
6.56715e-07
6.1285e-07
5.67056e-07
5.19233e-07
4.69259e-07
4.16993e-07
3.62264e-07
3.0488e-07
2.44616e-07
1.81221e-07
1.14397e-07
4.37623e-08
-3.09466e-08
-1.08947e-07
-1.90214e-07
-2.92668e-07
-4.45937e-07
-4.20531e-07
3.32311e-07
3.23429e-07
3.15289e-07
3.10207e-07
3.07157e-07
3.05717e-07
3.05735e-07
3.0706e-07
3.09543e-07
3.13063e-07
3.17523e-07
3.22842e-07
3.2896e-07
3.35828e-07
3.43406e-07
3.51667e-07
3.60587e-07
3.7015e-07
3.80344e-07
3.9116e-07
4.02592e-07
4.14638e-07
4.27294e-07
4.4056e-07
4.54437e-07
4.68925e-07
4.84024e-07
4.99734e-07
5.16056e-07
5.32988e-07
5.50528e-07
5.68671e-07
5.87411e-07
6.0674e-07
6.26646e-07
6.47114e-07
6.68124e-07
6.89652e-07
7.11668e-07
7.34136e-07
7.57011e-07
7.80242e-07
8.03766e-07
8.27512e-07
8.51395e-07
8.7532e-07
8.99175e-07
9.22838e-07
9.4617e-07
9.69018e-07
9.91216e-07
1.01259e-06
1.03294e-06
1.05207e-06
1.06979e-06
1.0859e-06
1.1002e-06
1.1125e-06
1.12264e-06
1.13047e-06
1.13587e-06
1.13873e-06
1.13899e-06
1.13655e-06
1.13133e-06
1.12325e-06
1.11225e-06
1.09836e-06
1.08162e-06
1.06214e-06
1.04007e-06
1.01556e-06
9.88824e-07
9.60032e-07
9.29327e-07
8.96799e-07
8.62524e-07
8.26548e-07
7.88873e-07
7.49499e-07
7.08431e-07
6.65645e-07
6.21103e-07
5.7475e-07
5.26515e-07
4.76307e-07
4.24018e-07
3.69518e-07
3.12661e-07
2.53274e-07
1.91167e-07
1.26131e-07
5.79211e-08
-1.37733e-08
-8.9113e-08
-1.67161e-07
-2.4789e-07
-3.49919e-07
-5.00475e-07
-4.63736e-07
3.57471e-07
3.49033e-07
3.4124e-07
3.36233e-07
3.33088e-07
3.31455e-07
3.3122e-07
3.32261e-07
3.34451e-07
3.37684e-07
3.4187e-07
3.46935e-07
3.5282e-07
3.59477e-07
3.66867e-07
3.7496e-07
3.83733e-07
3.93165e-07
4.03245e-07
4.13962e-07
4.25307e-07
4.37276e-07
4.49866e-07
4.63074e-07
4.76898e-07
4.91338e-07
5.06393e-07
5.22062e-07
5.38343e-07
5.55234e-07
5.7273e-07
5.90827e-07
6.09517e-07
6.2879e-07
6.48632e-07
6.69027e-07
6.89954e-07
7.11388e-07
7.33295e-07
7.55638e-07
7.78372e-07
8.0144e-07
8.24781e-07
8.48318e-07
8.71965e-07
8.95624e-07
9.1918e-07
9.42509e-07
9.65468e-07
9.87902e-07
1.00964e-06
1.0305e-06
1.0503e-06
1.06882e-06
1.08587e-06
1.10124e-06
1.11473e-06
1.12615e-06
1.13533e-06
1.14211e-06
1.14634e-06
1.14793e-06
1.14677e-06
1.1428e-06
1.13593e-06
1.12613e-06
1.11337e-06
1.09769e-06
1.07914e-06
1.05783e-06
1.03389e-06
1.00748e-06
9.78754e-07
9.47888e-07
9.15013e-07
8.80237e-07
8.43652e-07
8.05323e-07
7.65268e-07
7.23506e-07
6.8005e-07
6.3489e-07
5.87999e-07
5.39333e-07
4.8883e-07
4.36414e-07
3.8199e-07
3.25447e-07
2.66657e-07
2.05476e-07
1.41745e-07
7.52951e-08
5.93352e-09
-6.6591e-08
-1.42353e-07
-2.20298e-07
-3.00444e-07
-4.02089e-07
-5.50165e-07
-5.03754e-07
3.81555e-07
3.73499e-07
3.66015e-07
3.61109e-07
3.57931e-07
3.56176e-07
3.55761e-07
3.56586e-07
3.58543e-07
3.61539e-07
3.65493e-07
3.70337e-07
3.76015e-07
3.82481e-07
3.89696e-07
3.97631e-07
4.0626e-07
4.15564e-07
4.25528e-07
4.36141e-07
4.47393e-07
4.59279e-07
4.71792e-07
4.84929e-07
4.98688e-07
5.13066e-07
5.28061e-07
5.4367e-07
5.59892e-07
5.76721e-07
5.94153e-07
6.12181e-07
6.30795e-07
6.49986e-07
6.69737e-07
6.90032e-07
7.10846e-07
7.32153e-07
7.53919e-07
7.76105e-07
7.98661e-07
8.21532e-07
8.44651e-07
8.67942e-07
8.91316e-07
9.14672e-07
9.37894e-07
9.60854e-07
9.83408e-07
1.0054e-06
1.02665e-06
1.04699e-06
1.0662e-06
1.0841e-06
1.10048e-06
1.11512e-06
1.12782e-06
1.13839e-06
1.14664e-06
1.15241e-06
1.15556e-06
1.15596e-06
1.15352e-06
1.14816e-06
1.13982e-06
1.12848e-06
1.11414e-06
1.09682e-06
1.07661e-06
1.05361e-06
1.02793e-06
9.99731e-07
9.69158e-07
9.36365e-07
9.01488e-07
8.64642e-07
8.2593e-07
7.85431e-07
7.43181e-07
6.99208e-07
6.53541e-07
6.06181e-07
5.57112e-07
5.06301e-07
4.53701e-07
3.99249e-07
3.42866e-07
2.84458e-07
2.23919e-07
1.61131e-07
9.59669e-08
2.82968e-08
-4.20282e-08
-1.15209e-07
-1.91252e-07
-2.69006e-07
-3.48568e-07
-4.50174e-07
-5.97404e-07
-5.42166e-07
4.04683e-07
3.96954e-07
3.89741e-07
3.84946e-07
3.8177e-07
3.79943e-07
3.794e-07
3.80061e-07
3.81833e-07
3.84633e-07
3.88391e-07
3.93043e-07
3.98537e-07
4.04829e-07
4.11883e-07
4.19668e-07
4.2816e-07
4.37337e-07
4.47186e-07
4.57692e-07
4.68845e-07
4.80639e-07
4.93067e-07
5.06123e-07
5.19804e-07
5.34107e-07
5.49027e-07
5.64561e-07
5.80706e-07
5.97455e-07
6.14802e-07
6.3274e-07
6.51258e-07
6.70343e-07
6.89979e-07
7.10146e-07
7.30821e-07
7.51974e-07
7.7357e-07
7.95567e-07
8.17915e-07
8.40556e-07
8.63423e-07
8.86436e-07
9.09506e-07
9.32528e-07
9.55386e-07
9.77949e-07
1.00007e-06
1.02159e-06
1.04234e-06
1.06213e-06
1.08077e-06
1.09804e-06
1.11374e-06
1.12766e-06
1.13959e-06
1.14934e-06
1.1567e-06
1.16152e-06
1.16364e-06
1.16294e-06
1.15932e-06
1.15271e-06
1.14305e-06
1.13032e-06
1.11454e-06
1.09574e-06
1.07401e-06
1.04944e-06
1.02215e-06
9.92289e-07
9.59996e-07
9.25419e-07
8.88692e-07
8.49936e-07
8.09264e-07
7.66767e-07
7.22489e-07
6.76475e-07
6.28763e-07
5.79366e-07
5.28281e-07
4.75489e-07
4.20953e-07
3.64626e-07
3.06445e-07
2.46336e-07
1.84212e-07
1.19982e-07
5.35477e-08
-1.51851e-08
-8.63245e-08
-1.60026e-07
-2.36237e-07
-3.13675e-07
-3.92384e-07
-4.93657e-07
-6.42177e-07
-5.75995e-07
4.26939e-07
4.19488e-07
4.12513e-07
4.07829e-07
4.04677e-07
4.0281e-07
4.02179e-07
4.02715e-07
4.0434e-07
4.06979e-07
4.1057e-07
4.15055e-07
4.20386e-07
4.26522e-07
4.33426e-07
4.4107e-07
4.49429e-07
4.58483e-07
4.68215e-07
4.78613e-07
4.89664e-07
5.0136e-07
5.13694e-07
5.26661e-07
5.40254e-07
5.54469e-07
5.69301e-07
5.84746e-07
6.00797e-07
6.1745e-07
6.34695e-07
6.52524e-07
6.70925e-07
6.89883e-07
7.09382e-07
7.294e-07
7.49911e-07
7.70885e-07
7.92285e-07
8.14068e-07
8.36181e-07
8.58567e-07
8.81154e-07
9.03863e-07
9.26602e-07
9.49265e-07
9.71735e-07
9.93879e-07
1.01555e-06
1.03659e-06
1.05682e-06
1.07606e-06
1.0941e-06
1.11075e-06
1.12578e-06
1.139e-06
1.15017e-06
1.15912e-06
1.16563e-06
1.16955e-06
1.17072e-06
1.169e-06
1.1643e-06
1.15654e-06
1.14567e-06
1.13169e-06
1.1146e-06
1.09446e-06
1.07133e-06
1.04531e-06
1.01654e-06
9.85138e-07
9.51252e-07
9.15024e-07
8.76589e-07
8.36073e-07
7.93596e-07
7.49256e-07
7.03109e-07
6.55209e-07
6.05607e-07
5.54329e-07
5.01382e-07
4.46759e-07
3.90439e-07
3.32388e-07
2.72558e-07
2.10894e-07
1.47331e-07
8.17987e-08
1.42286e-08
-5.54428e-08
-1.27287e-07
-2.01422e-07
-2.77734e-07
-3.54781e-07
-4.32411e-07
-5.3305e-07
-6.84779e-07
-6.05761e-07
4.48381e-07
4.4117e-07
4.34403e-07
4.29826e-07
4.26711e-07
4.24826e-07
4.24133e-07
4.24575e-07
4.26082e-07
4.28589e-07
4.32038e-07
4.36378e-07
4.41564e-07
4.47557e-07
4.54323e-07
4.61834e-07
4.70066e-07
4.78999e-07
4.88616e-07
4.98903e-07
5.09848e-07
5.21442e-07
5.33676e-07
5.46544e-07
5.6004e-07
5.74157e-07
5.88889e-07
6.04231e-07
6.20177e-07
6.36717e-07
6.53845e-07
6.71548e-07
6.89814e-07
7.08627e-07
7.27969e-07
7.47817e-07
7.68144e-07
7.88918e-07
8.101e-07
8.31646e-07
8.53503e-07
8.7561e-07
8.97895e-07
9.20278e-07
9.42664e-07
9.64948e-07
9.87011e-07
1.00872e-06
1.02993e-06
1.05047e-06
1.07017e-06
1.08885e-06
1.1063e-06
1.12233e-06
1.1367e-06
1.14922e-06
1.15967e-06
1.16785e-06
1.17356e-06
1.17663e-06
1.17689e-06
1.17423e-06
1.16853e-06
1.15972e-06
1.14776e-06
1.13263e-06
1.11435e-06
1.09297e-06
1.06856e-06
1.04123e-06
1.01108e-06
9.78259e-07
9.42902e-07
9.0515e-07
8.65141e-07
8.23002e-07
7.78862e-07
7.32824e-07
6.84953e-07
6.35314e-07
5.83969e-07
5.30954e-07
4.76288e-07
4.19978e-07
3.62013e-07
3.02375e-07
2.41033e-07
1.77946e-07
1.1307e-07
4.63561e-08
-2.22411e-08
-9.27577e-08
-1.65235e-07
-2.39763e-07
-3.16188e-07
-3.92915e-07
-4.69615e-07
-5.7005e-07
-7.26426e-07
-6.35851e-07
4.69052e-07
4.62049e-07
4.55466e-07
4.50989e-07
4.47917e-07
4.4603e-07
4.45296e-07
4.45666e-07
4.47078e-07
4.49474e-07
4.52802e-07
4.57015e-07
4.62072e-07
4.67935e-07
4.74573e-07
4.8196e-07
4.9007e-07
4.98885e-07
5.08387e-07
5.18562e-07
5.29399e-07
5.40886e-07
5.53015e-07
5.65777e-07
5.79167e-07
5.93176e-07
6.07798e-07
6.23027e-07
6.38853e-07
6.55269e-07
6.72264e-07
6.89826e-07
7.07942e-07
7.26594e-07
7.45762e-07
7.65422e-07
7.85547e-07
8.06102e-07
8.27048e-07
8.48338e-07
8.69919e-07
8.91728e-07
9.13694e-07
9.35732e-07
9.57749e-07
9.79639e-07
1.00128e-06
1.02254e-06
1.04327e-06
1.06331e-06
1.08248e-06
1.1006e-06
1.11746e-06
1.13287e-06
1.1466e-06
1.15845e-06
1.16819e-06
1.17563e-06
1.18057e-06
1.18284e-06
1.18226e-06
1.17872e-06
1.1721e-06
1.16233e-06
1.14936e-06
1.13319e-06
1.11382e-06
1.09131e-06
1.06573e-06
1.03717e-06
1.00577e-06
9.71637e-07
9.34923e-07
8.95768e-07
8.54308e-07
8.10675e-07
7.65002e-07
7.17399e-07
6.67941e-07
6.16699e-07
5.63747e-07
5.0913e-07
4.5288e-07
3.95013e-07
3.35534e-07
2.74436e-07
2.11704e-07
1.47313e-07
8.12346e-08
1.34403e-08
-5.60957e-08
-1.27387e-07
-2.00455e-07
-2.7537e-07
-3.51956e-07
-4.28496e-07
-5.04534e-07
-6.05327e-07
-7.67544e-07
-6.67297e-07
4.88986e-07
4.82164e-07
4.75744e-07
4.71362e-07
4.68336e-07
4.66455e-07
4.65694e-07
4.6601e-07
4.67346e-07
4.69649e-07
4.72873e-07
4.76974e-07
4.81915e-07
4.8766e-07
4.94179e-07
5.01447e-07
5.0944e-07
5.1814e-07
5.27528e-07
5.37591e-07
5.48317e-07
5.59694e-07
5.71712e-07
5.84363e-07
5.9764e-07
6.11533e-07
6.26036e-07
6.4114e-07
6.56837e-07
6.73116e-07
6.89966e-07
7.07375e-07
7.25327e-07
7.43803e-07
7.62782e-07
7.8224e-07
8.02147e-07
8.22467e-07
8.4316e-07
8.64179e-07
8.85469e-07
9.06966e-07
9.28596e-07
9.50276e-07
9.71911e-07
9.93394e-07
1.0146e-06
1.03541e-06
1.05565e-06
1.07519e-06
1.09382e-06
1.11138e-06
1.12767e-06
1.14247e-06
1.15557e-06
1.16676e-06
1.17582e-06
1.18256e-06
1.18677e-06
1.18827e-06
1.18691e-06
1.18254e-06
1.17507e-06
1.16442e-06
1.15053e-06
1.13339e-06
1.11303e-06
1.08948e-06
1.06282e-06
1.03315e-06
1.00059e-06
9.65256e-07
9.27296e-07
8.86848e-07
8.44053e-07
7.99045e-07
7.51961e-07
7.02918e-07
6.51997e-07
5.9928e-07
5.44846e-07
4.88753e-07
4.31041e-07
3.7174e-07
3.10866e-07
2.48425e-07
1.84414e-07
1.18824e-07
5.16418e-08
-1.71458e-08
-8.75474e-08
-1.5956e-07
-2.33187e-07
-3.08494e-07
-3.85292e-07
-4.61763e-07
-5.37345e-07
-6.38788e-07
-8.07145e-07
-6.9817e-07
5.08208e-07
5.01547e-07
4.95273e-07
4.90978e-07
4.87998e-07
4.8613e-07
4.85353e-07
4.85627e-07
4.86901e-07
4.89126e-07
4.9226e-07
4.96262e-07
5.01098e-07
5.06734e-07
5.13142e-07
5.20298e-07
5.28178e-07
5.36765e-07
5.46042e-07
5.55993e-07
5.66605e-07
5.77869e-07
5.89773e-07
6.02307e-07
6.15464e-07
6.29235e-07
6.43611e-07
6.58582e-07
6.74139e-07
6.90271e-07
7.06966e-07
7.2421e-07
7.41985e-07
7.60273e-07
7.79052e-07
7.98294e-07
8.1797e-07
8.38042e-07
8.5847e-07
8.79205e-07
9.00191e-07
9.21362e-07
9.42646e-07
9.63957e-07
9.852e-07
1.00627e-06
1.02704e-06
1.04738e-06
1.06714e-06
1.08616e-06
1.10427e-06
1.12128e-06
1.13699e-06
1.15119e-06
1.16368e-06
1.17423e-06
1.18265e-06
1.18871e-06
1.19222e-06
1.193e-06
1.1909e-06
1.18577e-06
1.17751e-06
1.16604e-06
1.1513e-06
1.13328e-06
1.11201e-06
1.08751e-06
1.05987e-06
1.02917e-06
9.95545e-07
9.59108e-07
9.2e-07
8.78364e-07
8.34342e-07
7.88069e-07
7.39688e-07
6.8932e-07
6.37053e-07
5.82976e-07
5.27178e-07
4.69725e-07
4.10667e-07
3.50045e-07
2.87885e-07
2.24206e-07
1.59017e-07
9.23227e-08
2.41227e-08
-4.55825e-08
-1.16787e-07
-1.89475e-07
-2.6364e-07
-3.39342e-07
-4.16391e-07
-4.92875e-07
-5.68138e-07
-6.70341e-07
-8.4468e-07
-7.27615e-07
5.26739e-07
5.20223e-07
5.14079e-07
5.09866e-07
5.06932e-07
5.05081e-07
5.04295e-07
5.04537e-07
5.05759e-07
5.07918e-07
5.10973e-07
5.14887e-07
5.19627e-07
5.25162e-07
5.31467e-07
5.38515e-07
5.46288e-07
5.54765e-07
5.6393e-07
5.73768e-07
5.84267e-07
5.95415e-07
6.07201e-07
6.19615e-07
6.32647e-07
6.46289e-07
6.6053e-07
6.75361e-07
6.90771e-07
7.06748e-07
7.23278e-07
7.40347e-07
7.57936e-07
7.76026e-07
7.94593e-07
8.13609e-07
8.33043e-07
8.52857e-07
8.73009e-07
8.93449e-07
9.14121e-07
9.34958e-07
9.55886e-07
9.76821e-07
9.97666e-07
1.01831e-06
1.03864e-06
1.05852e-06
1.0778e-06
1.09631e-06
1.11389e-06
1.13036e-06
1.1455e-06
1.15912e-06
1.17101e-06
1.18095e-06
1.18873e-06
1.19415e-06
1.197e-06
1.19711e-06
1.19431e-06
1.18847e-06
1.17948e-06
1.16724e-06
1.15172e-06
1.1329e-06
1.11078e-06
1.08541e-06
1.05687e-06
1.02524e-06
9.90632e-07
9.53181e-07
9.13021e-07
8.70294e-07
8.25143e-07
7.77708e-07
7.28134e-07
6.76548e-07
6.23043e-07
5.67715e-07
5.1066e-07
4.51954e-07
3.91656e-07
3.29816e-07
2.66472e-07
2.01651e-07
1.35376e-07
6.76622e-08
-1.47862e-09
-7.2034e-08
-1.43987e-07
-2.1731e-07
-2.91989e-07
-3.68086e-07
-4.45407e-07
-5.21956e-07
-5.96985e-07
-6.99966e-07
-8.79936e-07
-7.55371e-07
5.44599e-07
5.38212e-07
5.32187e-07
5.28048e-07
5.25159e-07
5.23328e-07
5.22538e-07
5.22755e-07
5.23935e-07
5.26036e-07
5.29021e-07
5.32856e-07
5.37508e-07
5.42951e-07
5.49157e-07
5.56104e-07
5.63771e-07
5.72141e-07
5.81196e-07
5.90923e-07
6.01307e-07
6.12337e-07
6.24003e-07
6.36292e-07
6.49196e-07
6.62703e-07
6.76804e-07
6.91489e-07
7.06744e-07
7.22558e-07
7.38916e-07
7.55802e-07
7.73197e-07
7.9108e-07
8.09426e-07
8.28208e-07
8.47391e-07
8.66938e-07
8.86806e-07
9.06944e-07
9.27294e-07
9.47791e-07
9.68358e-07
9.88912e-07
1.00935e-06
1.02958e-06
1.04946e-06
1.06888e-06
1.08767e-06
1.10569e-06
1.12275e-06
1.13867e-06
1.15327e-06
1.16632e-06
1.17763e-06
1.18698e-06
1.19416e-06
1.19896e-06
1.20118e-06
1.20065e-06
1.1972e-06
1.19069e-06
1.18101e-06
1.16808e-06
1.15184e-06
1.13227e-06
1.10938e-06
1.08322e-06
1.05384e-06
1.02135e-06
9.8585e-07
9.47469e-07
9.06343e-07
8.62615e-07
8.16429e-07
7.67927e-07
7.17256e-07
6.6455e-07
6.09906e-07
5.53427e-07
4.95216e-07
4.35356e-07
3.73915e-07
3.10952e-07
2.46515e-07
1.80641e-07
1.13363e-07
4.47069e-08
-2.53052e-08
-9.66503e-08
-1.69302e-07
-2.43223e-07
-3.18393e-07
-3.94874e-07
-4.72473e-07
-5.49114e-07
-6.23956e-07
-7.27676e-07
-9.1283e-07
-7.81327e-07
5.61801e-07
5.55531e-07
5.49615e-07
5.45547e-07
5.42701e-07
5.40891e-07
5.401e-07
5.40297e-07
5.41441e-07
5.43492e-07
5.46415e-07
5.50177e-07
5.5475e-07
5.60105e-07
5.66218e-07
5.73068e-07
5.80634e-07
5.88898e-07
5.97845e-07
6.0746e-07
6.1773e-07
6.28641e-07
6.40184e-07
6.52346e-07
6.65117e-07
6.78486e-07
6.92443e-07
7.06975e-07
7.22071e-07
7.37716e-07
7.53895e-07
7.70592e-07
7.87786e-07
8.05455e-07
8.23574e-07
8.42114e-07
8.6104e-07
8.80315e-07
8.99892e-07
9.19722e-07
9.39746e-07
9.59898e-07
9.80101e-07
1.00027e-06
1.02031e-06
1.04011e-06
1.05956e-06
1.07851e-06
1.09682e-06
1.11434e-06
1.1309e-06
1.1463e-06
1.16035e-06
1.17285e-06
1.1836e-06
1.19238e-06
1.19898e-06
1.20319e-06
1.20482e-06
1.20368e-06
1.19962e-06
1.19249e-06
1.18217e-06
1.16859e-06
1.15168e-06
1.13142e-06
1.10783e-06
1.08093e-06
1.0508e-06
1.01752e-06
9.81199e-07
9.41966e-07
8.99955e-07
8.55308e-07
8.08172e-07
7.5869e-07
7.07013e-07
6.53277e-07
5.97587e-07
5.40049e-07
4.80773e-07
4.1985e-07
3.57356e-07
2.93358e-07
2.27912e-07
1.61066e-07
9.28602e-08
2.33312e-08
-4.74891e-08
-1.19569e-07
-1.92872e-07
-2.67355e-07
-3.42991e-07
-4.19842e-07
-4.97712e-07
-5.74451e-07
-6.49129e-07
-7.53516e-07
-9.43358e-07
-8.05448e-07
5.7836e-07
5.72198e-07
5.66381e-07
5.62378e-07
5.59573e-07
5.57784e-07
5.56995e-07
5.57177e-07
5.5829e-07
5.60297e-07
5.63164e-07
5.6686e-07
5.71358e-07
5.76631e-07
5.82656e-07
5.89412e-07
5.9688e-07
6.05042e-07
6.13882e-07
6.23386e-07
6.3354e-07
6.44333e-07
6.55751e-07
6.67783e-07
6.80419e-07
6.93647e-07
7.07456e-07
7.21832e-07
7.36763e-07
7.52235e-07
7.68231e-07
7.84733e-07
8.0172e-07
8.19171e-07
8.37058e-07
8.55351e-07
8.74016e-07
8.93012e-07
9.12296e-07
9.31815e-07
9.5151e-07
9.71314e-07
9.91151e-07
1.01094e-06
1.03057e-06
1.04995e-06
1.06896e-06
1.08746e-06
1.1053e-06
1.12233e-06
1.13839e-06
1.15327e-06
1.1668e-06
1.17877e-06
1.18898e-06
1.19721e-06
1.20325e-06
1.2069e-06
1.20797e-06
1.20626e-06
1.20162e-06
1.19391e-06
1.183e-06
1.16881e-06
1.15128e-06
1.1304e-06
1.10615e-06
1.07858e-06
1.04775e-06
1.01375e-06
9.76679e-07
9.36665e-07
8.93843e-07
8.48355e-07
8.00347e-07
7.49967e-07
6.97365e-07
6.42684e-07
5.86032e-07
5.2752e-07
4.67264e-07
4.05362e-07
3.41897e-07
2.76944e-07
2.10566e-07
1.42821e-07
7.37568e-08
3.41895e-09
-6.81518e-08
-1.40915e-07
-2.14828e-07
-2.89838e-07
-3.65912e-07
-4.43114e-07
-5.21242e-07
-5.98071e-07
-6.72593e-07
-7.77562e-07
-9.71578e-07
-8.27762e-07
5.94287e-07
5.88223e-07
5.82499e-07
5.78557e-07
5.75792e-07
5.74024e-07
5.73239e-07
5.73409e-07
5.74495e-07
5.76461e-07
5.79277e-07
5.82912e-07
5.8734e-07
5.92536e-07
5.98477e-07
6.05144e-07
6.12516e-07
6.20577e-07
6.29312e-07
6.38706e-07
6.48746e-07
6.59418e-07
6.70711e-07
6.82613e-07
6.95112e-07
7.08196e-07
7.21854e-07
7.36071e-07
7.50834e-07
7.66129e-07
7.81937e-07
7.98241e-07
8.15019e-07
8.32247e-07
8.49898e-07
8.67941e-07
8.86341e-07
9.05058e-07
9.24045e-07
9.43251e-07
9.62616e-07
9.82073e-07
1.00155e-06
1.02095e-06
1.04019e-06
1.05915e-06
1.07772e-06
1.09577e-06
1.11315e-06
1.12971e-06
1.14527e-06
1.15966e-06
1.17268e-06
1.18413e-06
1.19382e-06
1.20152e-06
1.20703e-06
1.21015e-06
1.21068e-06
1.20843e-06
1.20325e-06
1.19499e-06
1.18353e-06
1.16878e-06
1.15068e-06
1.12921e-06
1.10437e-06
1.07618e-06
1.04472e-06
1.01005e-06
9.72292e-07
9.31563e-07
8.87998e-07
8.41739e-07
7.92933e-07
7.41728e-07
6.88279e-07
6.32729e-07
5.75192e-07
5.15785e-07
4.54627e-07
3.91823e-07
3.27462e-07
2.61626e-07
1.94388e-07
1.2581e-07
5.59512e-08
-1.51374e-08
-8.74062e-08
-1.60807e-07
-2.35289e-07
-3.10793e-07
-3.87279e-07
-4.6481e-07
-5.43176e-07
-6.20086e-07
-6.94452e-07
-7.99917e-07
-9.97599e-07
-8.48343e-07
6.09592e-07
6.03621e-07
5.97982e-07
5.94097e-07
5.9137e-07
5.89622e-07
5.88842e-07
5.89002e-07
5.90065e-07
5.91995e-07
5.94764e-07
5.98343e-07
6.02705e-07
6.07827e-07
6.13688e-07
6.20268e-07
6.27547e-07
6.35511e-07
6.44142e-07
6.53427e-07
6.63352e-07
6.73905e-07
6.85072e-07
6.96842e-07
7.09203e-07
7.22142e-07
7.35647e-07
7.49703e-07
7.64296e-07
7.79411e-07
7.9503e-07
8.11133e-07
8.27699e-07
8.44702e-07
8.62115e-07
8.79907e-07
8.9804e-07
9.16476e-07
9.35166e-07
9.54059e-07
9.73095e-07
9.92206e-07
1.01132e-06
1.03034e-06
1.04918e-06
1.06774e-06
1.08588e-06
1.10349e-06
1.12042e-06
1.13651e-06
1.1516e-06
1.1655e-06
1.17803e-06
1.18898e-06
1.19816e-06
1.20536e-06
1.21036e-06
1.21297e-06
1.21299e-06
1.21024e-06
1.20455e-06
1.19578e-06
1.1838e-06
1.16853e-06
1.14991e-06
1.1279e-06
1.1025e-06
1.07375e-06
1.0417e-06
1.00643e-06
9.68039e-07
9.26655e-07
8.8241e-07
8.35445e-07
7.85908e-07
7.33947e-07
6.7972e-07
6.23373e-07
5.65023e-07
5.04792e-07
4.42803e-07
3.79167e-07
3.1398e-07
2.4733e-07
1.79294e-07
1.09946e-07
3.93486e-08
-3.24378e-08
-1.05357e-07
-1.79353e-07
-2.54367e-07
-3.30334e-07
-4.07207e-07
-4.85044e-07
-5.63629e-07
-6.40607e-07
-7.1482e-07
-8.20704e-07
-1.02156e-06
-8.67296e-07
6.24287e-07
6.184e-07
6.12842e-07
6.0901e-07
6.06319e-07
6.04592e-07
6.03818e-07
6.03969e-07
6.0501e-07
6.06908e-07
6.09633e-07
6.13159e-07
6.17459e-07
6.22511e-07
6.28295e-07
6.34791e-07
6.4198e-07
6.49848e-07
6.58377e-07
6.67555e-07
6.77367e-07
6.878e-07
6.98842e-07
7.1048e-07
7.22702e-07
7.35495e-07
7.48846e-07
7.6274e-07
7.77162e-07
7.92096e-07
8.07524e-07
8.23425e-07
8.39777e-07
8.56554e-07
8.73729e-07
8.91268e-07
9.09136e-07
9.27291e-07
9.45685e-07
9.64267e-07
9.82976e-07
1.00174e-06
1.0205e-06
1.03915e-06
1.0576e-06
1.07575e-06
1.09348e-06
1.11066e-06
1.12714e-06
1.14278e-06
1.1574e-06
1.17084e-06
1.18289e-06
1.19336e-06
1.20206e-06
1.20877e-06
1.21329e-06
1.21542e-06
1.21496e-06
1.21172e-06
1.20555e-06
1.1963e-06
1.18385e-06
1.16809e-06
1.14898e-06
1.12648e-06
1.10057e-06
1.0713e-06
1.03871e-06
1.00288e-06
9.6392e-07
9.21938e-07
8.77071e-07
8.2946e-07
7.79253e-07
7.26599e-07
6.71658e-07
6.14579e-07
5.55482e-07
4.94493e-07
4.31739e-07
3.67336e-07
3.01385e-07
2.33981e-07
1.65208e-07
9.51445e-08
2.38612e-08
-4.8575e-08
-1.22101e-07
-1.96653e-07
-2.72167e-07
-3.48568e-07
-4.25804e-07
-5.03928e-07
-5.82715e-07
-6.59751e-07
-7.33815e-07
-8.40054e-07
-1.04364e-06
-8.84748e-07
6.38379e-07
6.32573e-07
6.27089e-07
6.23308e-07
6.20651e-07
6.18944e-07
6.18175e-07
6.1832e-07
6.19342e-07
6.21209e-07
6.23894e-07
6.27369e-07
6.3161e-07
6.36596e-07
6.42305e-07
6.4872e-07
6.55822e-07
6.63595e-07
6.72025e-07
6.81097e-07
6.90796e-07
7.01111e-07
7.12028e-07
7.23535e-07
7.35619e-07
7.48266e-07
7.61462e-07
7.75193e-07
7.89444e-07
8.04197e-07
8.19433e-07
8.35132e-07
8.51271e-07
8.67823e-07
8.84759e-07
9.02047e-07
9.1965e-07
9.37526e-07
9.55627e-07
9.73901e-07
9.92287e-07
1.01072e-06
1.02912e-06
1.0474e-06
1.06547e-06
1.08323e-06
1.10055e-06
1.11731e-06
1.13336e-06
1.14856e-06
1.16273e-06
1.17571e-06
1.1873e-06
1.19732e-06
1.20555e-06
1.2118e-06
1.21586e-06
1.21753e-06
1.21661e-06
1.21292e-06
1.2063e-06
1.1966e-06
1.1837e-06
1.1675e-06
1.14793e-06
1.12497e-06
1.0986e-06
1.06885e-06
1.03577e-06
9.99429e-07
9.59938e-07
9.17409e-07
8.71972e-07
8.2377e-07
7.72949e-07
7.1966e-07
6.64064e-07
6.06313e-07
5.4653e-07
4.84842e-07
4.21383e-07
3.56272e-07
2.89616e-07
2.21514e-07
1.52058e-07
8.13293e-08
9.40736e-09
-6.36352e-08
-1.37728e-07
-2.12803e-07
-2.88785e-07
-3.65596e-07
-4.43175e-07
-5.2157e-07
-6.00545e-07
-6.77633e-07
-7.51561e-07
-8.58107e-07
-1.06399e-06
-9.00834e-07
6.51877e-07
6.46146e-07
6.40734e-07
6.37001e-07
6.34375e-07
6.32688e-07
6.31925e-07
6.32063e-07
6.33068e-07
6.34907e-07
6.37553e-07
6.4098e-07
6.45166e-07
6.50088e-07
6.55726e-07
6.62062e-07
6.69079e-07
6.76761e-07
6.85092e-07
6.9406e-07
7.03649e-07
7.13847e-07
7.2464e-07
7.36016e-07
7.47962e-07
7.60463e-07
7.73506e-07
7.87075e-07
8.01155e-07
8.15727e-07
8.30773e-07
8.4627e-07
8.62196e-07
8.78524e-07
8.95224e-07
9.12263e-07
9.29604e-07
9.47203e-07
9.65015e-07
9.82985e-07
1.00105e-06
1.01915e-06
1.03721e-06
1.05513e-06
1.07283e-06
1.0902e-06
1.10712e-06
1.12347e-06
1.13911e-06