/*--------------------------------*- C++ -*----------------------------------*\
  =========                 |
  \\      /  F ield         | OpenFOAM: The Open Source CFD Toolbox
   \\    /   O peration     | Website:  https://openfoam.org
    \\  /    A nd           | Version:  11
     \\/     M anipulation  |
\*---------------------------------------------------------------------------*/
FoamFile
{
    format      ascii;
    class       volVectorField;
    location    "1568";
    object      U;
}
// * * * * * * * * * * * * * * * * * * * * * * * * * * * * * * * * * * * * * //

dimensions      [0 1 -1 0 0 0 0];

internalField   nonuniform List<vector> 
10000
(
(0.005 -9.50012e-13 0)
(0.005 -2.66473e-12 0)
(0.005 -4.32722e-12 0)
(0.005 -6.00438e-12 0)
(0.005 -7.72853e-12 0)
(0.005 -9.52002e-12 0)
(0.005 -1.13948e-11 0)
(0.005 -1.33662e-11 0)
(0.005 -1.54462e-11 0)
(0.005 -1.76459e-11 0)
(0.005 -1.99758e-11 0)
(0.005 -2.24464e-11 0)
(0.005 -2.50678e-11 0)
(0.005 -2.78505e-11 0)
(0.005 -3.08047e-11 0)
(0.005 -3.39411e-11 0)
(0.005 -3.72703e-11 0)
(0.005 -4.08033e-11 0)
(0.005 -4.45514e-11 0)
(0.005 -4.8526e-11 0)
(0.005 -5.2739e-11 0)
(0.005 -5.72026e-11 0)
(0.005 -6.19291e-11 0)
(0.005 -6.69313e-11 0)
(0.005 -7.22225e-11 0)
(0.005 -7.7816e-11 0)
(0.005 -8.37257e-11 0)
(0.005 -8.99657e-11 0)
(0.005 -9.65507e-11 0)
(0.005 -1.03495e-10 0)
(0.005 -1.10815e-10 0)
(0.005 -1.18525e-10 0)
(0.005 -1.26641e-10 0)
(0.005 -1.35179e-10 0)
(0.005 -1.44156e-10 0)
(0.005 -1.53588e-10 0)
(0.005 -1.63493e-10 0)
(0.005 -1.73886e-10 0)
(0.005 -1.84787e-10 0)
(0.005 -1.96211e-10 0)
(0.005 -2.08176e-10 0)
(0.005 -2.20701e-10 0)
(0.005 -2.33802e-10 0)
(0.005 -2.47498e-10 0)
(0.005 -2.61806e-10 0)
(0.005 -2.76743e-10 0)
(0.005 -2.92327e-10 0)
(0.005 -3.08575e-10 0)
(0.005 -3.25504e-10 0)
(0.005 -3.43129e-10 0)
(0.005 -3.61468e-10 0)
(0.005 -3.80534e-10 0)
(0.005 -4.00344e-10 0)
(0.005 -4.2091e-10 0)
(0.005 -4.42246e-10 0)
(0.005 -4.64364e-10 0)
(0.005 -4.87275e-10 0)
(0.005 -5.10989e-10 0)
(0.005 -5.35514e-10 0)
(0.005 -5.60856e-10 0)
(0.005 -5.8702e-10 0)
(0.005 -6.1401e-10 0)
(0.005 -6.41826e-10 0)
(0.005 -6.70467e-10 0)
(0.005 -6.99928e-10 0)
(0.005 -7.30203e-10 0)
(0.005 -7.6128e-10 0)
(0.005 -7.93146e-10 0)
(0.005 -8.25784e-10 0)
(0.005 -8.59171e-10 0)
(0.005 -8.93281e-10 0)
(0.005 -9.28082e-10 0)
(0.005 -9.63536e-10 0)
(0.005 -9.99601e-10 0)
(0.005 -1.03623e-09 0)
(0.005 -1.07335e-09 0)
(0.005 -1.11091e-09 0)
(0.005 -1.14884e-09 0)
(0.005 -1.18704e-09 0)
(0.005 -1.22541e-09 0)
(0.005 -1.26386e-09 0)
(0.005 -1.30226e-09 0)
(0.005 -1.34047e-09 0)
(0.005 -1.37835e-09 0)
(0.005 -1.4157e-09 0)
(0.005 -1.45236e-09 0)
(0.005 -1.48809e-09 0)
(0.005 -1.52266e-09 0)
(0.005 -1.55581e-09 0)
(0.005 -1.58723e-09 0)
(0.005 -1.61661e-09 0)
(0.005 -1.64356e-09 0)
(0.005 -1.66772e-09 0)
(0.005 -1.68865e-09 0)
(0.005 -1.70597e-09 0)
(0.005 -1.7194e-09 0)
(0.005 -1.72868e-09 0)
(0.005 -1.73257e-09 0)
(0.005 -1.73159e-09 0)
(0.005 -1.72894e-09 0)
(0.005 -8.26168e-13 0)
(0.005 -2.42532e-12 0)
(0.005 -4.0139e-12 0)
(0.005 -5.62543e-12 0)
(0.005 -7.28446e-12 0)
(0.005 -9.00891e-12 0)
(0.005 -1.08134e-11 0)
(0.005 -1.27106e-11 0)
(0.005 -1.47119e-11 0)
(0.005 -1.68279e-11 0)
(0.005 -1.90687e-11 0)
(0.005 -2.14444e-11 0)
(0.005 -2.39648e-11 0)
(0.005 -2.66397e-11 0)
(0.005 -2.94793e-11 0)
(0.005 -3.24936e-11 0)
(0.005 -3.56929e-11 0)
(0.005 -3.90878e-11 0)
(0.005 -4.26891e-11 0)
(0.005 -4.65079e-11 0)
(0.005 -5.05554e-11 0)
(0.005 -5.48434e-11 0)
(0.005 -5.93837e-11 0)
(0.005 -6.41889e-11 0)
(0.005 -6.92713e-11 0)
(0.005 -7.4644e-11 0)
(0.005 -8.03202e-11 0)
(0.005 -8.63136e-11 0)
(0.005 -9.26381e-11 0)
(0.005 -9.93079e-11 0)
(0.005 -1.06338e-10 0)
(0.005 -1.13742e-10 0)
(0.005 -1.21537e-10 0)
(0.005 -1.29737e-10 0)
(0.005 -1.38358e-10 0)
(0.005 -1.47417e-10 0)
(0.005 -1.56928e-10 0)
(0.005 -1.6691e-10 0)
(0.005 -1.77378e-10 0)
(0.005 -1.88349e-10 0)
(0.005 -1.99841e-10 0)
(0.005 -2.11869e-10 0)
(0.005 -2.24451e-10 0)
(0.005 -2.37605e-10 0)
(0.005 -2.51346e-10 0)
(0.005 -2.65692e-10 0)
(0.005 -2.8066e-10 0)
(0.005 -2.96266e-10 0)
(0.005 -3.12526e-10 0)
(0.005 -3.29456e-10 0)
(0.005 -3.47072e-10 0)
(0.005 -3.65388e-10 0)
(0.005 -3.84419e-10 0)
(0.005 -4.04179e-10 0)
(0.005 -4.2468e-10 0)
(0.005 -4.45934e-10 0)
(0.005 -4.67952e-10 0)
(0.005 -4.90744e-10 0)
(0.005 -5.14319e-10 0)
(0.005 -5.38683e-10 0)
(0.005 -5.63843e-10 0)
(0.005 -5.898e-10 0)
(0.005 -6.16558e-10 0)
(0.005 -6.44116e-10 0)
(0.005 -6.7247e-10 0)
(0.005 -7.01616e-10 0)
(0.005 -7.31545e-10 0)
(0.005 -7.62245e-10 0)
(0.005 -7.93702e-10 0)
(0.005 -8.25897e-10 0)
(0.005 -8.58806e-10 0)
(0.005 -8.92403e-10 0)
(0.005 -9.26654e-10 0)
(0.005 -9.61522e-10 0)
(0.005 -9.96963e-10 0)
(0.005 -1.03293e-09 0)
(0.005 -1.06935e-09 0)
(0.005 -1.10618e-09 0)
(0.005 -1.14332e-09 0)
(0.005 -1.18071e-09 0)
(0.005 -1.21824e-09 0)
(0.005 -1.25581e-09 0)
(0.005 -1.2933e-09 0)
(0.005 -1.33057e-09 0)
(0.005 -1.36746e-09 0)
(0.005 -1.40383e-09 0)
(0.005 -1.43946e-09 0)
(0.005 -1.47417e-09 0)
(0.005 -1.5077e-09 0)
(0.005 -1.5398e-09 0)
(0.005 -1.57019e-09 0)
(0.005 -1.59855e-09 0)
(0.005 -1.62455e-09 0)
(0.005 -1.64782e-09 0)
(0.005 -1.66798e-09 0)
(0.005 -1.68455e-09 0)
(0.005 -1.69696e-09 0)
(0.005 -1.70547e-09 0)
(0.005 -1.71093e-09 0)
(0.005 -1.7147e-09 0)
(0.005 -7.26566e-13 0)
(0.005 -2.20476e-12 0)
(0.005 -3.71035e-12 0)
(0.005 -5.25237e-12 0)
(0.005 -6.84532e-12 0)
(0.005 -8.50313e-12 0)
(0.005 -1.02385e-11 0)
(0.005 -1.2063e-11 0)
(0.005 -1.39872e-11 0)
(0.005 -1.60214e-11 0)
(0.005 -1.81752e-11 0)
(0.005 -2.04582e-11 0)
(0.005 -2.28799e-11 0)
(0.005 -2.54498e-11 0)
(0.005 -2.81776e-11 0)
(0.005 -3.10728e-11 0)
(0.005 -3.41456e-11 0)
(0.005 -3.74059e-11 0)
(0.005 -4.08643e-11 0)
(0.005 -4.45312e-11 0)
(0.005 -4.84177e-11 0)
(0.005 -5.25349e-11 0)
(0.005 -5.68943e-11 0)
(0.005 -6.15077e-11 0)
(0.005 -6.63872e-11 0)
(0.005 -7.15454e-11 0)
(0.005 -7.69949e-11 0)
(0.005 -8.27487e-11 0)
(0.005 -8.88204e-11 0)
(0.005 -9.52235e-11 0)
(0.005 -1.01972e-10 0)
(0.005 -1.09081e-10 0)
(0.005 -1.16563e-10 0)
(0.005 -1.24435e-10 0)
(0.005 -1.32712e-10 0)
(0.005 -1.41408e-10 0)
(0.005 -1.50539e-10 0)
(0.005 -1.60122e-10 0)
(0.005 -1.70171e-10 0)
(0.005 -1.80704e-10 0)
(0.005 -1.91736e-10 0)
(0.005 -2.03284e-10 0)
(0.005 -2.15364e-10 0)
(0.005 -2.27993e-10 0)
(0.005 -2.41186e-10 0)
(0.005 -2.54961e-10 0)
(0.005 -2.69333e-10 0)
(0.005 -2.84318e-10 0)
(0.005 -2.99932e-10 0)
(0.005 -3.1619e-10 0)
(0.005 -3.33108e-10 0)
(0.005 -3.50699e-10 0)
(0.005 -3.68978e-10 0)
(0.005 -3.87959e-10 0)
(0.005 -4.07653e-10 0)
(0.005 -4.28073e-10 0)
(0.005 -4.4923e-10 0)
(0.005 -4.71133e-10 0)
(0.005 -4.93792e-10 0)
(0.005 -5.17213e-10 0)
(0.005 -5.41402e-10 0)
(0.005 -5.66364e-10 0)
(0.005 -5.92102e-10 0)
(0.005 -6.18615e-10 0)
(0.005 -6.45903e-10 0)
(0.005 -6.73961e-10 0)
(0.005 -7.02783e-10 0)
(0.005 -7.3236e-10 0)
(0.005 -7.6268e-10 0)
(0.005 -7.93726e-10 0)
(0.005 -8.25479e-10 0)
(0.005 -8.57916e-10 0)
(0.005 -8.91009e-10 0)
(0.005 -9.24725e-10 0)
(0.005 -9.59026e-10 0)
(0.005 -9.93868e-10 0)
(0.005 -1.0292e-09 0)
(0.005 -1.06497e-09 0)
(0.005 -1.10111e-09 0)
(0.005 -1.13754e-09 0)
(0.005 -1.17418e-09 0)
(0.005 -1.21095e-09 0)
(0.005 -1.24773e-09 0)
(0.005 -1.28442e-09 0)
(0.005 -1.32087e-09 0)
(0.005 -1.35694e-09 0)
(0.005 -1.39247e-09 0)
(0.005 -1.42728e-09 0)
(0.005 -1.46116e-09 0)
(0.005 -1.49389e-09 0)
(0.005 -1.52522e-09 0)
(0.005 -1.55486e-09 0)
(0.005 -1.58253e-09 0)
(0.005 -1.60789e-09 0)
(0.005 -1.63058e-09 0)
(0.005 -1.65019e-09 0)
(0.005 -1.66645e-09 0)
(0.005 -1.67929e-09 0)
(0.005 -1.68882e-09 0)
(0.005 -1.69616e-09 0)
(0.005 -6.58582e-13 0)
(0.005 -2.02887e-12 0)
(0.005 -3.45031e-12 0)
(0.005 -4.92181e-12 0)
(0.005 -6.45007e-12 0)
(0.005 -8.04461e-12 0)
(0.005 -9.71564e-12 0)
(0.005 -1.14732e-11 0)
(0.005 -1.33271e-11 0)
(0.005 -1.52867e-11 0)
(0.005 -1.73614e-11 0)
(0.005 -1.95602e-11 0)
(0.005 -2.18923e-11 0)
(0.005 -2.43668e-11 0)
(0.005 -2.6993e-11 0)
(0.005 -2.97802e-11 0)
(0.005 -3.2738e-11 0)
(0.005 -3.58761e-11 0)
(0.005 -3.92046e-11 0)
(0.005 -4.27336e-11 0)
(0.005 -4.64738e-11 0)
(0.005 -5.04357e-11 0)
(0.005 -5.46307e-11 0)
(0.005 -5.90699e-11 0)
(0.005 -6.37651e-11 0)
(0.005 -6.87283e-11 0)
(0.005 -7.39716e-11 0)
(0.005 -7.95078e-11 0)
(0.005 -8.53496e-11 0)
(0.005 -9.15103e-11 0)
(0.005 -9.80034e-11 0)
(0.005 -1.04843e-10 0)
(0.005 -1.12042e-10 0)
(0.005 -1.19616e-10 0)
(0.005 -1.27579e-10 0)
(0.005 -1.35945e-10 0)
(0.005 -1.44731e-10 0)
(0.005 -1.53951e-10 0)
(0.005 -1.6362e-10 0)
(0.005 -1.73754e-10 0)
(0.005 -1.84368e-10 0)
(0.005 -1.9548e-10 0)
(0.005 -2.07103e-10 0)
(0.005 -2.19254e-10 0)
(0.005 -2.3195e-10 0)
(0.005 -2.45204e-10 0)
(0.005 -2.59034e-10 0)
(0.005 -2.73455e-10 0)
(0.005 -2.88481e-10 0)
(0.005 -3.04129e-10 0)
(0.005 -3.20411e-10 0)
(0.005 -3.37344e-10 0)
(0.005 -3.54939e-10 0)
(0.005 -3.73211e-10 0)
(0.005 -3.92172e-10 0)
(0.005 -4.11834e-10 0)
(0.005 -4.32207e-10 0)
(0.005 -4.53302e-10 0)
(0.005 -4.75127e-10 0)
(0.005 -4.97689e-10 0)
(0.005 -5.20997e-10 0)
(0.005 -5.45053e-10 0)
(0.005 -5.69863e-10 0)
(0.005 -5.95426e-10 0)
(0.005 -6.21743e-10 0)
(0.005 -6.48812e-10 0)
(0.005 -6.76628e-10 0)
(0.005 -7.05182e-10 0)
(0.005 -7.34467e-10 0)
(0.005 -7.64467e-10 0)
(0.005 -7.95168e-10 0)
(0.005 -8.26548e-10 0)
(0.005 -8.58586e-10 0)
(0.005 -8.91251e-10 0)
(0.005 -9.24513e-10 0)
(0.005 -9.58333e-10 0)
(0.005 -9.92668e-10 0)
(0.005 -1.02747e-09 0)
(0.005 -1.06268e-09 0)
(0.005 -1.09823e-09 0)
(0.005 -1.13407e-09 0)
(0.005 -1.17009e-09 0)
(0.005 -1.20622e-09 0)
(0.005 -1.24236e-09 0)
(0.005 -1.27838e-09 0)
(0.005 -1.31416e-09 0)
(0.005 -1.34957e-09 0)
(0.005 -1.38443e-09 0)
(0.005 -1.41858e-09 0)
(0.005 -1.45181e-09 0)
(0.005 -1.4839e-09 0)
(0.005 -1.5146e-09 0)
(0.005 -1.54364e-09 0)
(0.005 -1.57071e-09 0)
(0.005 -1.59546e-09 0)
(0.005 -1.61751e-09 0)
(0.005 -1.63654e-09 0)
(0.005 -1.65224e-09 0)
(0.005 -1.66424e-09 0)
(0.005 -1.67288e-09 0)
(0.005 -6.03361e-13 0)
(0.005 -1.87513e-12 0)
(0.005 -3.21167e-12 0)
(0.005 -4.60895e-12 0)
(0.005 -6.06911e-12 0)
(0.005 -7.598e-12 0)
(0.005 -9.2033e-12 0)
(0.005 -1.08934e-11 0)
(0.005 -1.26769e-11 0)
(0.005 -1.45624e-11 0)
(0.005 -1.65587e-11 0)
(0.005 -1.86743e-11 0)
(0.005 -2.0918e-11 0)
(0.005 -2.32984e-11 0)
(0.005 -2.58244e-11 0)
(0.005 -2.85051e-11 0)
(0.005 -3.13496e-11 0)
(0.005 -3.43672e-11 0)
(0.005 -3.75677e-11 0)
(0.005 -4.09609e-11 0)
(0.005 -4.45568e-11 0)
(0.005 -4.83658e-11 0)
(0.005 -5.23987e-11 0)
(0.005 -5.66662e-11 0)
(0.005 -6.11797e-11 0)
(0.005 -6.59506e-11 0)
(0.005 -7.09908e-11 0)
(0.005 -7.63123e-11 0)
(0.005 -8.19276e-11 0)
(0.005 -8.78493e-11 0)
(0.005 -9.40904e-11 0)
(0.005 -1.00664e-10 0)
(0.005 -1.07584e-10 0)
(0.005 -1.14864e-10 0)
(0.005 -1.22517e-10 0)
(0.005 -1.30559e-10 0)
(0.005 -1.39004e-10 0)
(0.005 -1.47866e-10 0)
(0.005 -1.57159e-10 0)
(0.005 -1.669e-10 0)
(0.005 -1.77103e-10 0)
(0.005 -1.87784e-10 0)
(0.005 -1.98957e-10 0)
(0.005 -2.10637e-10 0)
(0.005 -2.22841e-10 0)
(0.005 -2.35583e-10 0)
(0.005 -2.48879e-10 0)
(0.005 -2.62742e-10 0)
(0.005 -2.77189e-10 0)
(0.005 -2.92234e-10 0)
(0.005 -3.0789e-10 0)
(0.005 -3.24172e-10 0)
(0.005 -3.41094e-10 0)
(0.005 -3.58667e-10 0)
(0.005 -3.76904e-10 0)
(0.005 -3.95818e-10 0)
(0.005 -4.15418e-10 0)
(0.005 -4.35714e-10 0)
(0.005 -4.56717e-10 0)
(0.005 -4.78433e-10 0)
(0.005 -5.0087e-10 0)
(0.005 -5.24033e-10 0)
(0.005 -5.47926e-10 0)
(0.005 -5.72552e-10 0)
(0.005 -5.97912e-10 0)
(0.005 -6.24004e-10 0)
(0.005 -6.50825e-10 0)
(0.005 -6.7837e-10 0)
(0.005 -7.06632e-10 0)
(0.005 -7.35599e-10 0)
(0.005 -7.6526e-10 0)
(0.005 -7.95597e-10 0)
(0.005 -8.2659e-10 0)
(0.005 -8.58217e-10 0)
(0.005 -8.90449e-10 0)
(0.005 -9.23256e-10 0)
(0.005 -9.566e-10 0)
(0.005 -9.9044e-10 0)
(0.005 -1.02473e-09 0)
(0.005 -1.05941e-09 0)
(0.005 -1.09443e-09 0)
(0.005 -1.12971e-09 0)
(0.005 -1.16518e-09 0)
(0.005 -1.20075e-09 0)
(0.005 -1.23632e-09 0)
(0.005 -1.27179e-09 0)
(0.005 -1.30703e-09 0)
(0.005 -1.3419e-09 0)
(0.005 -1.37625e-09 0)
(0.005 -1.4099e-09 0)
(0.005 -1.44265e-09 0)
(0.005 -1.47427e-09 0)
(0.005 -1.5045e-09 0)
(0.005 -1.53306e-09 0)
(0.005 -1.55959e-09 0)
(0.005 -1.5837e-09 0)
(0.005 -1.60497e-09 0)
(0.005 -1.62286e-09 0)
(0.005 -1.63664e-09 0)
(0.005 -1.64507e-09 0)
(0.005 -5.55434e-13 0)
(0.005 -1.73658e-12 0)
(0.005 -2.98998e-12 0)
(0.005 -4.31149e-12 0)
(0.005 -5.70094e-12 0)
(0.005 -7.16165e-12 0)
(0.005 -8.69919e-12 0)
(0.005 -1.03203e-11 0)
(0.005 -1.20325e-11 0)
(0.005 -1.38434e-11 0)
(0.005 -1.5761e-11 0)
(0.005 -1.77933e-11 0)
(0.005 -1.99487e-11 0)
(0.005 -2.22353e-11 0)
(0.005 -2.46616e-11 0)
(0.005 -2.72363e-11 0)
(0.005 -2.99681e-11 0)
(0.005 -3.28661e-11 0)
(0.005 -3.59393e-11 0)
(0.005 -3.91974e-11 0)
(0.005 -4.265e-11 0)
(0.005 -4.63071e-11 0)
(0.005 -5.01788e-11 0)
(0.005 -5.42757e-11 0)
(0.005 -5.86086e-11 0)
(0.005 -6.31885e-11 0)
(0.005 -6.80268e-11 0)
(0.005 -7.31351e-11 0)
(0.005 -7.85252e-11 0)
(0.005 -8.42094e-11 0)
(0.005 -9.02001e-11 0)
(0.005 -9.65101e-11 0)
(0.005 -1.03152e-10 0)
(0.005 -1.1014e-10 0)
(0.005 -1.17486e-10 0)
(0.005 -1.25206e-10 0)
(0.005 -1.33311e-10 0)
(0.005 -1.41817e-10 0)
(0.005 -1.50738e-10 0)
(0.005 -1.60089e-10 0)
(0.005 -1.69883e-10 0)
(0.005 -1.80135e-10 0)
(0.005 -1.9086e-10 0)
(0.005 -2.02073e-10 0)
(0.005 -2.13789e-10 0)
(0.005 -2.26022e-10 0)
(0.005 -2.38786e-10 0)
(0.005 -2.52097e-10 0)
(0.005 -2.65968e-10 0)
(0.005 -2.80414e-10 0)
(0.005 -2.95448e-10 0)
(0.005 -3.11084e-10 0)
(0.005 -3.27335e-10 0)
(0.005 -3.44214e-10 0)
(0.005 -3.61733e-10 0)
(0.005 -3.79903e-10 0)
(0.005 -3.98735e-10 0)
(0.005 -4.18239e-10 0)
(0.005 -4.38425e-10 0)
(0.005 -4.593e-10 0)
(0.005 -4.80872e-10 0)
(0.005 -5.03147e-10 0)
(0.005 -5.2613e-10 0)
(0.005 -5.49824e-10 0)
(0.005 -5.74232e-10 0)
(0.005 -5.99353e-10 0)
(0.005 -6.25186e-10 0)
(0.005 -6.51727e-10 0)
(0.005 -6.78972e-10 0)
(0.005 -7.06912e-10 0)
(0.005 -7.35538e-10 0)
(0.005 -7.64835e-10 0)
(0.005 -7.94789e-10 0)
(0.005 -8.2538e-10 0)
(0.005 -8.56587e-10 0)
(0.005 -8.88382e-10 0)
(0.005 -9.20736e-10 0)
(0.005 -9.53615e-10 0)
(0.005 -9.86978e-10 0)
(0.005 -1.02078e-09 0)
(0.005 -1.05497e-09 0)
(0.005 -1.0895e-09 0)
(0.005 -1.12429e-09 0)
(0.005 -1.15928e-09 0)
(0.005 -1.19438e-09 0)
(0.005 -1.22949e-09 0)
(0.005 -1.26452e-09 0)
(0.005 -1.29934e-09 0)
(0.005 -1.33382e-09 0)
(0.005 -1.3678e-09 0)
(0.005 -1.40109e-09 0)
(0.005 -1.43349e-09 0)
(0.005 -1.46475e-09 0)
(0.005 -1.49456e-09 0)
(0.005 -1.52259e-09 0)
(0.005 -1.5484e-09 0)
(0.005 -1.57144e-09 0)
(0.005 -1.59098e-09 0)
(0.005 -1.60599e-09 0)
(0.005 -1.61411e-09 0)
(0.005 -5.13109e-13 0)
(0.005 -1.61086e-12 0)
(0.005 -2.78455e-12 0)
(0.005 -4.0309e-12 0)
(0.005 -5.3488e-12 0)
(0.005 -6.74e-12 0)
(0.005 -8.20848e-12 0)
(0.005 -9.75965e-12 0)
(0.005 -1.13998e-11 0)
(0.005 -1.31358e-11 0)
(0.005 -1.49748e-11 0)
(0.005 -1.69243e-11 0)
(0.005 -1.89919e-11 0)
(0.005 -2.11856e-11 0)
(0.005 -2.35132e-11 0)
(0.005 -2.5983e-11 0)
(0.005 -2.86034e-11 0)
(0.005 -3.13831e-11 0)
(0.005 -3.43307e-11 0)
(0.005 -3.74554e-11 0)
(0.005 -4.07666e-11 0)
(0.005 -4.42736e-11 0)
(0.005 -4.79864e-11 0)
(0.005 -5.19149e-11 0)
(0.005 -5.60696e-11 0)
(0.005 -6.04611e-11 0)
(0.005 -6.51001e-11 0)
(0.005 -6.99979e-11 0)
(0.005 -7.5166e-11 0)
(0.005 -8.06158e-11 0)
(0.005 -8.63596e-11 0)
(0.005 -9.24093e-11 0)
(0.005 -9.87775e-11 0)
(0.005 -1.05477e-10 0)
(0.005 -1.1252e-10 0)
(0.005 -1.19921e-10 0)
(0.005 -1.27692e-10 0)
(0.005 -1.35848e-10 0)
(0.005 -1.44401e-10 0)
(0.005 -1.53366e-10 0)
(0.005 -1.62756e-10 0)
(0.005 -1.72586e-10 0)
(0.005 -1.8287e-10 0)
(0.005 -1.93622e-10 0)
(0.005 -2.04856e-10 0)
(0.005 -2.16586e-10 0)
(0.005 -2.28827e-10 0)
(0.005 -2.41592e-10 0)
(0.005 -2.54895e-10 0)
(0.005 -2.68751e-10 0)
(0.005 -2.83171e-10 0)
(0.005 -2.9817e-10 0)
(0.005 -3.13761e-10 0)
(0.005 -3.29955e-10 0)
(0.005 -3.46764e-10 0)
(0.005 -3.64201e-10 0)
(0.005 -3.82275e-10 0)
(0.005 -4.00998e-10 0)
(0.005 -4.20377e-10 0)
(0.005 -4.40423e-10 0)
(0.005 -4.61142e-10 0)
(0.005 -4.82541e-10 0)
(0.005 -5.04626e-10 0)
(0.005 -5.27401e-10 0)
(0.005 -5.50869e-10 0)
(0.005 -5.75032e-10 0)
(0.005 -5.99889e-10 0)
(0.005 -6.2544e-10 0)
(0.005 -6.5168e-10 0)
(0.005 -6.78605e-10 0)
(0.005 -7.06208e-10 0)
(0.005 -7.34478e-10 0)
(0.005 -7.63403e-10 0)
(0.005 -7.92969e-10 0)
(0.005 -8.23159e-10 0)
(0.005 -8.53951e-10 0)
(0.005 -8.85321e-10 0)
(0.005 -9.17243e-10 0)
(0.005 -9.49683e-10 0)
(0.005 -9.82606e-10 0)
(0.005 -1.01597e-09 0)
(0.005 -1.04973e-09 0)
(0.005 -1.08383e-09 0)
(0.005 -1.11821e-09 0)
(0.005 -1.1528e-09 0)
(0.005 -1.18753e-09 0)
(0.005 -1.2223e-09 0)
(0.005 -1.25701e-09 0)
(0.005 -1.29153e-09 0)
(0.005 -1.32573e-09 0)
(0.005 -1.35944e-09 0)
(0.005 -1.39246e-09 0)
(0.005 -1.42454e-09 0)
(0.005 -1.45538e-09 0)
(0.005 -1.48461e-09 0)
(0.005 -1.51174e-09 0)
(0.005 -1.53614e-09 0)
(0.005 -1.55689e-09 0)
(0.005 -1.5727e-09 0)
(0.005 -1.58094e-09 0)
(0.005 -4.75085e-13 0)
(0.005 -1.49587e-12 0)
(0.005 -2.59379e-12 0)
(0.005 -3.76677e-12 0)
(0.005 -5.0135e-12 0)
(0.005 -6.33483e-12 0)
(0.005 -7.73367e-12 0)
(0.005 -9.21434e-12 0)
(0.005 -1.07822e-11 0)
(0.005 -1.24431e-11 0)
(0.005 -1.42038e-11 0)
(0.005 -1.60709e-11 0)
(0.005 -1.80515e-11 0)
(0.005 -2.01531e-11 0)
(0.005 -2.23832e-11 0)
(0.005 -2.47495e-11 0)
(0.005 -2.72601e-11 0)
(0.005 -2.99231e-11 0)
(0.005 -3.27469e-11 0)
(0.005 -3.57403e-11 0)
(0.005 -3.89122e-11 0)
(0.005 -4.22715e-11 0)
(0.005 -4.58278e-11 0)
(0.005 -4.95907e-11 0)
(0.005 -5.35701e-11 0)
(0.005 -5.77761e-11 0)
(0.005 -6.22192e-11 0)
(0.005 -6.691e-11 0)
(0.005 -7.18595e-11 0)
(0.005 -7.70789e-11 0)
(0.005 -8.25796e-11 0)
(0.005 -8.83734e-11 0)
(0.005 -9.44721e-11 0)
(0.005 -1.00888e-10 0)
(0.005 -1.07633e-10 0)
(0.005 -1.14721e-10 0)
(0.005 -1.22163e-10 0)
(0.005 -1.29974e-10 0)
(0.005 -1.38165e-10 0)
(0.005 -1.46751e-10 0)
(0.005 -1.55745e-10 0)
(0.005 -1.6516e-10 0)
(0.005 -1.75009e-10 0)
(0.005 -1.85308e-10 0)
(0.005 -1.96068e-10 0)
(0.005 -2.07304e-10 0)
(0.005 -2.1903e-10 0)
(0.005 -2.31258e-10 0)
(0.005 -2.44003e-10 0)
(0.005 -2.57278e-10 0)
(0.005 -2.71095e-10 0)
(0.005 -2.85467e-10 0)
(0.005 -3.00408e-10 0)
(0.005 -3.15928e-10 0)
(0.005 -3.32041e-10 0)
(0.005 -3.48756e-10 0)
(0.005 -3.66086e-10 0)
(0.005 -3.84039e-10 0)
(0.005 -4.02626e-10 0)
(0.005 -4.21856e-10 0)
(0.005 -4.41736e-10 0)
(0.005 -4.62273e-10 0)
(0.005 -4.83475e-10 0)
(0.005 -5.05345e-10 0)
(0.005 -5.27889e-10 0)
(0.005 -5.51108e-10 0)
(0.005 -5.75006e-10 0)
(0.005 -5.99581e-10 0)
(0.005 -6.24832e-10 0)
(0.005 -6.50757e-10 0)
(0.005 -6.77351e-10 0)
(0.005 -7.04607e-10 0)
(0.005 -7.32517e-10 0)
(0.005 -7.61071e-10 0)
(0.005 -7.90254e-10 0)
(0.005 -8.20053e-10 0)
(0.005 -8.50447e-10 0)
(0.005 -8.81417e-10 0)
(0.005 -9.12936e-10 0)
(0.005 -9.44978e-10 0)
(0.005 -9.77509e-10 0)
(0.005 -1.01049e-09 0)
(0.005 -1.04388e-09 0)
(0.005 -1.07764e-09 0)
(0.005 -1.11169e-09 0)
(0.005 -1.14599e-09 0)
(0.005 -1.18044e-09 0)
(0.005 -1.21496e-09 0)
(0.005 -1.24945e-09 0)
(0.005 -1.28377e-09 0)
(0.005 -1.31776e-09 0)
(0.005 -1.35123e-09 0)
(0.005 -1.38393e-09 0)
(0.005 -1.41555e-09 0)
(0.005 -1.4457e-09 0)
(0.005 -1.47383e-09 0)
(0.005 -1.49922e-09 0)
(0.005 -1.52083e-09 0)
(0.005 -1.53716e-09 0)
(0.005 -1.54602e-09 0)
(0.005 -4.40389e-13 0)
(0.005 -1.38978e-12 0)
(0.005 -2.41593e-12 0)
(0.005 -3.51797e-12 0)
(0.005 -4.6947e-12 0)
(0.005 -5.94659e-12 0)
(0.005 -7.27581e-12 0)
(0.005 -8.6859e-12 0)
(0.005 -1.01814e-11 0)
(0.005 -1.17675e-11 0)
(0.005 -1.345e-11 0)
(0.005 -1.52353e-11 0)
(0.005 -1.71297e-11 0)
(0.005 -1.91403e-11 0)
(0.005 -2.1274e-11 0)
(0.005 -2.35382e-11 0)
(0.005 -2.59405e-11 0)
(0.005 -2.84887e-11 0)
(0.005 -3.11908e-11 0)
(0.005 -3.4055e-11 0)
(0.005 -3.70899e-11 0)
(0.005 -4.03041e-11 0)
(0.005 -4.37066e-11 0)
(0.005 -4.73067e-11 0)
(0.005 -5.11138e-11 0)
(0.005 -5.51377e-11 0)
(0.005 -5.93882e-11 0)
(0.005 -6.38757e-11 0)
(0.005 -6.86106e-11 0)
(0.005 -7.36037e-11 0)
(0.005 -7.88658e-11 0)
(0.005 -8.44082e-11 0)
(0.005 -9.02423e-11 0)
(0.005 -9.63798e-11 0)
(0.005 -1.02833e-10 0)
(0.005 -1.09613e-10 0)
(0.005 -1.16732e-10 0)
(0.005 -1.24204e-10 0)
(0.005 -1.3204e-10 0)
(0.005 -1.40254e-10 0)
(0.005 -1.48858e-10 0)
(0.005 -1.57865e-10 0)
(0.005 -1.67289e-10 0)
(0.005 -1.77141e-10 0)
(0.005 -1.87437e-10 0)
(0.005 -1.98188e-10 0)
(0.005 -2.09408e-10 0)
(0.005 -2.2111e-10 0)
(0.005 -2.33306e-10 0)
(0.005 -2.46011e-10 0)
(0.005 -2.59236e-10 0)
(0.005 -2.72993e-10 0)
(0.005 -2.87296e-10 0)
(0.005 -3.02155e-10 0)
(0.005 -3.17583e-10 0)
(0.005 -3.33591e-10 0)
(0.005 -3.50189e-10 0)
(0.005 -3.67387e-10 0)
(0.005 -3.85196e-10 0)
(0.005 -4.03625e-10 0)
(0.005 -4.22681e-10 0)
(0.005 -4.42372e-10 0)
(0.005 -4.62706e-10 0)
(0.005 -4.83688e-10 0)
(0.005 -5.05323e-10 0)
(0.005 -5.27616e-10 0)
(0.005 -5.50569e-10 0)
(0.005 -5.74185e-10 0)
(0.005 -5.98463e-10 0)
(0.005 -6.23404e-10 0)
(0.005 -6.49005e-10 0)
(0.005 -6.75263e-10 0)
(0.005 -7.02172e-10 0)
(0.005 -7.29725e-10 0)
(0.005 -7.57915e-10 0)
(0.005 -7.86729e-10 0)
(0.005 -8.16156e-10 0)
(0.005 -8.46179e-10 0)
(0.005 -8.76781e-10 0)
(0.005 -9.0794e-10 0)
(0.005 -9.39632e-10 0)
(0.005 -9.71828e-10 0)
(0.005 -1.0045e-09 0)
(0.005 -1.03759e-09 0)
(0.005 -1.07108e-09 0)
(0.005 -1.10489e-09 0)
(0.005 -1.13898e-09 0)
(0.005 -1.17324e-09 0)
(0.005 -1.2076e-09 0)
(0.005 -1.24192e-09 0)
(0.005 -1.27606e-09 0)
(0.005 -1.30982e-09 0)
(0.005 -1.34295e-09 0)
(0.005 -1.37513e-09 0)
(0.005 -1.40594e-09 0)
(0.005 -1.43478e-09 0)
(0.005 -1.46088e-09 0)
(0.005 -1.48313e-09 0)
(0.005 -1.49999e-09 0)
(0.005 -1.50967e-09 0)
(0.005 -4.0838e-13 0)
(0.005 -1.29123e-12 0)
(0.005 -2.24949e-12 0)
(0.005 -3.28331e-12 0)
(0.005 -4.39181e-12 0)
(0.005 -5.57529e-12 0)
(0.005 -6.8355e-12 0)
(0.005 -8.17539e-12 0)
(0.005 -9.59885e-12 0)
(0.005 -1.11105e-11 0)
(0.005 -1.27155e-11 0)
(0.005 -1.44196e-11 0)
(0.005 -1.62287e-11 0)
(0.005 -1.81493e-11 0)
(0.005 -2.0188e-11 0)
(0.005 -2.23516e-11 0)
(0.005 -2.46473e-11 0)
(0.005 -2.70826e-11 0)
(0.005 -2.9665e-11 0)
(0.005 -3.24023e-11 0)
(0.005 -3.53027e-11 0)
(0.005 -3.83744e-11 0)
(0.005 -4.16261e-11 0)
(0.005 -4.50665e-11 0)
(0.005 -4.87046e-11 0)
(0.005 -5.25498e-11 0)
(0.005 -5.66116e-11 0)
(0.005 -6.08997e-11 0)
(0.005 -6.54242e-11 0)
(0.005 -7.01953e-11 0)
(0.005 -7.52235e-11 0)
(0.005 -8.05194e-11 0)
(0.005 -8.60942e-11 0)
(0.005 -9.19588e-11 0)
(0.005 -9.81247e-11 0)
(0.005 -1.04603e-10 0)
(0.005 -1.11407e-10 0)
(0.005 -1.18546e-10 0)
(0.005 -1.26035e-10 0)
(0.005 -1.33884e-10 0)
(0.005 -1.42106e-10 0)
(0.005 -1.50713e-10 0)
(0.005 -1.59719e-10 0)
(0.005 -1.69136e-10 0)
(0.005 -1.78975e-10 0)
(0.005 -1.89251e-10 0)
(0.005 -1.99976e-10 0)
(0.005 -2.11161e-10 0)
(0.005 -2.22821e-10 0)
(0.005 -2.34967e-10 0)
(0.005 -2.47611e-10 0)
(0.005 -2.60766e-10 0)
(0.005 -2.74443e-10 0)
(0.005 -2.88655e-10 0)
(0.005 -3.03412e-10 0)
(0.005 -3.18726e-10 0)
(0.005 -3.34607e-10 0)
(0.005 -3.51066e-10 0)
(0.005 -3.68112e-10 0)
(0.005 -3.85755e-10 0)
(0.005 -4.04004e-10 0)
(0.005 -4.22865e-10 0)
(0.005 -4.42348e-10 0)
(0.005 -4.62459e-10 0)
(0.005 -4.83203e-10 0)
(0.005 -5.04587e-10 0)
(0.005 -5.26614e-10 0)
(0.005 -5.49287e-10 0)
(0.005 -5.7261e-10 0)
(0.005 -5.96583e-10 0)
(0.005 -6.21208e-10 0)
(0.005 -6.46482e-10 0)
(0.005 -6.72405e-10 0)
(0.005 -6.98973e-10 0)
(0.005 -7.2618e-10 0)
(0.005 -7.54021e-10 0)
(0.005 -7.82488e-10 0)
(0.005 -8.1157e-10 0)
(0.005 -8.41256e-10 0)
(0.005 -8.71531e-10 0)
(0.005 -9.02378e-10 0)
(0.005 -9.33776e-10 0)
(0.005 -9.65699e-10 0)
(0.005 -9.98118e-10 0)
(0.005 -1.031e-09 0)
(0.005 -1.06429e-09 0)
(0.005 -1.09794e-09 0)
(0.005 -1.13187e-09 0)
(0.005 -1.16601e-09 0)
(0.005 -1.20023e-09 0)
(0.005 -1.23438e-09 0)
(0.005 -1.26828e-09 0)
(0.005 -1.30167e-09 0)
(0.005 -1.3342e-09 0)
(0.005 -1.36544e-09 0)
(0.005 -1.39476e-09 0)
(0.005 -1.42134e-09 0)
(0.005 -1.44404e-09 0)
(0.005 -1.46135e-09 0)
(0.005 -1.47153e-09 0)
(0.005 -3.78636e-13 0)
(0.005 -1.19923e-12 0)
(0.005 -2.09327e-12 0)
(0.005 -3.06175e-12 0)
(0.005 -4.10414e-12 0)
(0.005 -5.22071e-12 0)
(0.005 -6.41299e-12 0)
(0.005 -7.6835e-12 0)
(0.005 -9.03565e-12 0)
(0.005 -1.04735e-11 0)
(0.005 -1.20018e-11 0)
(0.005 -1.36256e-11 0)
(0.005 -1.53505e-11 0)
(0.005 -1.71824e-11 0)
(0.005 -1.91274e-11 0)
(0.005 -2.1192e-11 0)
(0.005 -2.33831e-11 0)
(0.005 -2.57074e-11 0)
(0.005 -2.81723e-11 0)
(0.005 -3.07851e-11 0)
(0.005 -3.35536e-11 0)
(0.005 -3.64857e-11 0)
(0.005 -3.95896e-11 0)
(0.005 -4.28735e-11 0)
(0.005 -4.63462e-11 0)
(0.005 -5.00164e-11 0)
(0.005 -5.38934e-11 0)
(0.005 -5.79863e-11 0)
(0.005 -6.23049e-11 0)
(0.005 -6.68587e-11 0)
(0.005 -7.1658e-11 0)
(0.005 -7.67128e-11 0)
(0.005 -8.20337e-11 0)
(0.005 -8.76313e-11 0)
(0.005 -9.35164e-11 0)
(0.005 -9.97002e-11 0)
(0.005 -1.06194e-10 0)
(0.005 -1.13009e-10 0)
(0.005 -1.20156e-10 0)
(0.005 -1.27649e-10 0)
(0.005 -1.35497e-10 0)
(0.005 -1.43714e-10 0)
(0.005 -1.52311e-10 0)
(0.005 -1.61301e-10 0)
(0.005 -1.70695e-10 0)
(0.005 -1.80506e-10 0)
(0.005 -1.90746e-10 0)
(0.005 -2.01426e-10 0)
(0.005 -2.1256e-10 0)
(0.005 -2.2416e-10 0)
(0.005 -2.36236e-10 0)
(0.005 -2.48802e-10 0)
(0.005 -2.61868e-10 0)
(0.005 -2.75446e-10 0)
(0.005 -2.89547e-10 0)
(0.005 -3.04182e-10 0)
(0.005 -3.19362e-10 0)
(0.005 -3.35097e-10 0)
(0.005 -3.51397e-10 0)
(0.005 -3.68271e-10 0)
(0.005 -3.85729e-10 0)
(0.005 -4.03779e-10 0)
(0.005 -4.22429e-10 0)
(0.005 -4.41686e-10 0)
(0.005 -4.61558e-10 0)
(0.005 -4.82051e-10 0)
(0.005 -5.03169e-10 0)
(0.005 -5.24919e-10 0)
(0.005 -5.47304e-10 0)
(0.005 -5.70328e-10 0)
(0.005 -5.93993e-10 0)
(0.005 -6.18302e-10 0)
(0.005 -6.43254e-10 0)
(0.005 -6.6885e-10 0)
(0.005 -6.95088e-10 0)
(0.005 -7.21967e-10 0)
(0.005 -7.49482e-10 0)
(0.005 -7.7763e-10 0)
(0.005 -8.06402e-10 0)
(0.005 -8.35791e-10 0)
(0.005 -8.65787e-10 0)
(0.005 -8.96373e-10 0)
(0.005 -9.27535e-10 0)
(0.005 -9.59248e-10 0)
(0.005 -9.91484e-10 0)
(0.005 -1.02421e-09 0)
(0.005 -1.05737e-09 0)
(0.005 -1.0909e-09 0)
(0.005 -1.12473e-09 0)
(0.005 -1.15874e-09 0)
(0.005 -1.19279e-09 0)
(0.005 -1.22668e-09 0)
(0.005 -1.26015e-09 0)
(0.005 -1.29286e-09 0)
(0.005 -1.32433e-09 0)
(0.005 -1.35394e-09 0)
(0.005 -1.38081e-09 0)
(0.005 -1.40381e-09 0)
(0.005 -1.42142e-09 0)
(0.005 -1.43186e-09 0)
(0.005 -3.50857e-13 0)
(0.005 -1.11303e-12 0)
(0.005 -1.94631e-12 0)
(0.005 -2.85235e-12 0)
(0.005 -3.83096e-12 0)
(0.005 -4.88247e-12 0)
(0.005 -6.00827e-12 0)
(0.005 -7.21061e-12 0)
(0.005 -8.4925e-12 0)
(0.005 -9.85761e-12 0)
(0.005 -1.13102e-11 0)
(0.005 -1.28548e-11 0)
(0.005 -1.44967e-11 0)
(0.005 -1.62413e-11 0)
(0.005 -1.80942e-11 0)
(0.005 -2.00616e-11 0)
(0.005 -2.21499e-11 0)
(0.005 -2.43654e-11 0)
(0.005 -2.67151e-11 0)
(0.005 -2.92061e-11 0)
(0.005 -3.18455e-11 0)
(0.005 -3.46409e-11 0)
(0.005 -3.76001e-11 0)
(0.005 -4.0731e-11 0)
(0.005 -4.40419e-11 0)
(0.005 -4.75411e-11 0)
(0.005 -5.12374e-11 0)
(0.005 -5.51396e-11 0)
(0.005 -5.92568e-11 0)
(0.005 -6.35985e-11 0)
(0.005 -6.8174e-11 0)
(0.005 -7.29932e-11 0)
(0.005 -7.80661e-11 0)
(0.005 -8.34029e-11 0)
(0.005 -8.90139e-11 0)
(0.005 -9.49096e-11 0)
(0.005 -1.01101e-10 0)
(0.005 -1.07599e-10 0)
(0.005 -1.14414e-10 0)
(0.005 -1.21557e-10 0)
(0.005 -1.29041e-10 0)
(0.005 -1.36876e-10 0)
(0.005 -1.45074e-10 0)
(0.005 -1.53647e-10 0)
(0.005 -1.62606e-10 0)
(0.005 -1.71963e-10 0)
(0.005 -1.81729e-10 0)
(0.005 -1.91917e-10 0)
(0.005 -2.02538e-10 0)
(0.005 -2.13604e-10 0)
(0.005 -2.25126e-10 0)
(0.005 -2.37116e-10 0)
(0.005 -2.49584e-10 0)
(0.005 -2.62543e-10 0)
(0.005 -2.76004e-10 0)
(0.005 -2.89976e-10 0)
(0.005 -3.04471e-10 0)
(0.005 -3.19499e-10 0)
(0.005 -3.3507e-10 0)
(0.005 -3.51194e-10 0)
(0.005 -3.67879e-10 0)
(0.005 -3.85135e-10 0)
(0.005 -4.02971e-10 0)
(0.005 -4.21394e-10 0)
(0.005 -4.40412e-10 0)
(0.005 -4.60033e-10 0)
(0.005 -4.80263e-10 0)
(0.005 -5.01108e-10 0)
(0.005 -5.22575e-10 0)
(0.005 -5.44668e-10 0)
(0.005 -5.67392e-10 0)
(0.005 -5.90751e-10 0)
(0.005 -6.14748e-10 0)
(0.005 -6.39387e-10 0)
(0.005 -6.6467e-10 0)
(0.005 -6.90598e-10 0)
(0.005 -7.17171e-10 0)
(0.005 -7.4439e-10 0)
(0.005 -7.72251e-10 0)
(0.005 -8.00754e-10 0)
(0.005 -8.29891e-10 0)
(0.005 -8.59655e-10 0)
(0.005 -8.90036e-10 0)
(0.005 -9.21016e-10 0)
(0.005 -9.52576e-10 0)
(0.005 -9.84683e-10 0)
(0.005 -1.0173e-09 0)
(0.005 -1.05036e-09 0)
(0.005 -1.0838e-09 0)
(0.005 -1.1175e-09 0)
(0.005 -1.15133e-09 0)
(0.005 -1.18508e-09 0)
(0.005 -1.2185e-09 0)
(0.005 -1.25122e-09 0)
(0.005 -1.28276e-09 0)
(0.005 -1.31247e-09 0)
(0.005 -1.33949e-09 0)
(0.005 -1.36264e-09 0)
(0.005 -1.38042e-09 0)
(0.005 -1.39099e-09 0)
(0.005 -3.24823e-13 0)
(0.005 -1.03205e-12 0)
(0.005 -1.80782e-12 0)
(0.005 -2.65431e-12 0)
(0.005 -3.57159e-12 0)
(0.005 -4.56011e-12 0)
(0.005 -5.62117e-12 0)
(0.005 -6.75683e-12 0)
(0.005 -7.96982e-12 0)
(0.005 -9.26346e-12 0)
(0.005 -1.06416e-11 0)
(0.005 -1.21084e-11 0)
(0.005 -1.36688e-11 0)
(0.005 -1.53275e-11 0)
(0.005 -1.70902e-11 0)
(0.005 -1.89622e-11 0)
(0.005 -2.09497e-11 0)
(0.005 -2.30587e-11 0)
(0.005 -2.52958e-11 0)
(0.005 -2.76674e-11 0)
(0.005 -3.01807e-11 0)
(0.005 -3.28425e-11 0)
(0.005 -3.56604e-11 0)
(0.005 -3.86419e-11 0)
(0.005 -4.17948e-11 0)
(0.005 -4.51271e-11 0)
(0.005 -4.8647e-11 0)
(0.005 -5.23631e-11 0)
(0.005 -5.62839e-11 0)
(0.005 -6.04184e-11 0)
(0.005 -6.47758e-11 0)
(0.005 -6.93652e-11 0)
(0.005 -7.41962e-11 0)
(0.005 -7.92786e-11 0)
(0.005 -8.46221e-11 0)
(0.005 -9.0237e-11 0)
(0.005 -9.61334e-11 0)
(0.005 -1.02322e-10 0)
(0.005 -1.08812e-10 0)
(0.005 -1.15616e-10 0)
(0.005 -1.22745e-10 0)
(0.005 -1.30208e-10 0)
(0.005 -1.38017e-10 0)
(0.005 -1.46183e-10 0)
(0.005 -1.54717e-10 0)
(0.005 -1.63632e-10 0)
(0.005 -1.72937e-10 0)
(0.005 -1.82644e-10 0)
(0.005 -1.92765e-10 0)
(0.005 -2.0331e-10 0)
(0.005 -2.14291e-10 0)
(0.005 -2.2572e-10 0)
(0.005 -2.37607e-10 0)
(0.005 -2.49962e-10 0)
(0.005 -2.62798e-10 0)
(0.005 -2.76124e-10 0)
(0.005 -2.89951e-10 0)
(0.005 -3.04289e-10 0)
(0.005 -3.19149e-10 0)
(0.005 -3.3454e-10 0)
(0.005 -3.50472e-10 0)
(0.005 -3.66953e-10 0)
(0.005 -3.83994e-10 0)
(0.005 -4.01602e-10 0)
(0.005 -4.19787e-10 0)
(0.005 -4.38556e-10 0)
(0.005 -4.57917e-10 0)
(0.005 -4.77878e-10 0)
(0.005 -4.98445e-10 0)
(0.005 -5.19626e-10 0)
(0.005 -5.41427e-10 0)
(0.005 -5.63855e-10 0)
(0.005 -5.86915e-10 0)
(0.005 -6.10612e-10 0)
(0.005 -6.34953e-10 0)
(0.005 -6.59942e-10 0)
(0.005 -6.85582e-10 0)
(0.005 -7.11878e-10 0)
(0.005 -7.38832e-10 0)
(0.005 -7.66446e-10 0)