/*--------------------------------*- C++ -*----------------------------------*\
  =========                 |
  \\      /  F ield         | OpenFOAM: The Open Source CFD Toolbox
   \\    /   O peration     | Website:  https://openfoam.org
    \\  /    A nd           | Version:  11
     \\/     M anipulation  |
\*---------------------------------------------------------------------------*/
FoamFile
{
    format      ascii;
    class       volScalarField;
    location    "1038";
    object      p;
}
// * * * * * * * * * * * * * * * * * * * * * * * * * * * * * * * * * * * * * //

dimensions      [0 2 -2 0 0 0 0];

internalField   nonuniform List<scalar> 
10000
(
1.15694e-11
1.1295e-11
1.1802e-11
1.27814e-11
1.38934e-11
1.50655e-11
1.62983e-11
1.75941e-11
1.89548e-11
2.03841e-11
2.18869e-11
2.3468e-11
2.5133e-11
2.68875e-11
2.87372e-11
3.06883e-11
3.27471e-11
3.49199e-11
3.72136e-11
3.96349e-11
4.2191e-11
4.48893e-11
4.77374e-11
5.07432e-11
5.39148e-11
5.72606e-11
6.07892e-11
6.45097e-11
6.84313e-11
7.25634e-11
7.69158e-11
8.14986e-11
8.63222e-11
9.13971e-11
9.67341e-11
1.02344e-10
1.08239e-10
1.1443e-10
1.20929e-10
1.27747e-10
1.34897e-10
1.4239e-10
1.50239e-10
1.58455e-10
1.67052e-10
1.7604e-10
1.85431e-10
1.95238e-10
2.0547e-10
2.16139e-10
2.27254e-10
2.38825e-10
2.50861e-10
2.63369e-10
2.76356e-10
2.89826e-10
3.03783e-10
3.1823e-10
3.33164e-10
3.48585e-10
3.64487e-10
3.80861e-10
3.97696e-10
4.14976e-10
4.32682e-10
4.50788e-10
4.69265e-10
4.88076e-10
5.07177e-10
5.26519e-10
5.4604e-10
5.65673e-10
5.85335e-10
6.04935e-10
6.24366e-10
6.43508e-10
6.6222e-10
6.80345e-10
6.97704e-10
7.14093e-10
7.29281e-10
7.43007e-10
7.54976e-10
7.64853e-10
7.72263e-10
7.76777e-10
7.77916e-10
7.75133e-10
7.67811e-10
7.55245e-10
7.36633e-10
7.11049e-10
6.77409e-10
6.34411e-10
5.80461e-10
5.13647e-10
4.31174e-10
3.25682e-10
1.85928e-10
1.54083e-11
2.07809e-11
1.94198e-11
1.87257e-11
1.91178e-11
1.99742e-11
2.10601e-11
2.23199e-11
2.37248e-11
2.5256e-11
2.69045e-11
2.86667e-11
3.05428e-11
3.25348e-11
3.46463e-11
3.68819e-11
3.9247e-11
4.17477e-11
4.43904e-11
4.71821e-11
5.01303e-11
5.32427e-11
5.65275e-11
5.99932e-11
6.36485e-11
6.75027e-11
7.15652e-11
7.58458e-11
8.03548e-11
8.51026e-11
9.00999e-11
9.53578e-11
1.00888e-10
1.06701e-10
1.12811e-10
1.19227e-10
1.25965e-10
1.33035e-10
1.4045e-10
1.48225e-10
1.56371e-10
1.64902e-10
1.7383e-10
1.8317e-10
1.92934e-10
2.03135e-10
2.13786e-10
2.24898e-10
2.36484e-10
2.48555e-10
2.61121e-10
2.74192e-10
2.87777e-10
3.01883e-10
3.16517e-10
3.31683e-10
3.47385e-10
3.63622e-10
3.80395e-10
3.97697e-10
4.15522e-10
4.3386e-10
4.52696e-10
4.72011e-10
4.9178e-10
5.11976e-10
5.32562e-10
5.53495e-10
5.74726e-10
5.96196e-10
6.17837e-10
6.39568e-10
6.61298e-10
6.82923e-10
7.04322e-10
7.25359e-10
7.45876e-10
7.65697e-10
7.84622e-10
8.02423e-10
8.18844e-10
8.33594e-10
8.46348e-10
8.56735e-10
8.6434e-10
8.68695e-10
8.6927e-10
8.65468e-10
8.56611e-10
8.41933e-10
8.20559e-10
7.91486e-10
7.53553e-10
7.05393e-10
6.45348e-10
5.7142e-10
4.81507e-10
3.72727e-10
2.33337e-10
3.92135e-11
-1.33592e-10
2.41493e-11
2.20359e-11
2.04406e-11
2.00372e-11
2.02301e-11
2.0757e-11
2.15336e-11
2.25101e-11
2.36512e-11
2.4935e-11
2.63486e-11
2.78849e-11
2.95403e-11
3.13137e-11
3.3206e-11
3.52194e-11
3.73568e-11
3.96224e-11
4.20207e-11
4.45567e-11
4.72362e-11
5.00651e-11
5.30497e-11
5.61969e-11
5.95137e-11
6.30074e-11
6.66857e-11
7.05566e-11
7.46281e-11
7.89088e-11
8.34073e-11
8.81325e-11
9.30935e-11
9.82997e-11
1.0376e-10
1.09485e-10
1.15484e-10
1.21767e-10
1.28343e-10
1.35222e-10
1.42415e-10
1.4993e-10
1.57779e-10
1.65969e-10
1.74511e-10
1.83413e-10
1.92683e-10
2.0233e-10
2.1236e-10
2.2278e-10
2.33597e-10
2.44813e-10
2.56434e-10
2.68461e-10
2.80894e-10
2.93732e-10
3.06973e-10
3.20611e-10
3.34637e-10
3.49041e-10
3.63808e-10
3.78922e-10
3.94359e-10
4.10095e-10
4.26096e-10
4.42327e-10
4.58743e-10
4.75295e-10
4.91923e-10
5.0856e-10
5.25129e-10
5.41543e-10
5.577e-10
5.73489e-10
5.88779e-10
6.03425e-10
6.17263e-10
6.30107e-10
6.4175e-10
6.51957e-10
6.60464e-10
6.66976e-10
6.7116e-10
6.72642e-10
6.71004e-10
6.65773e-10
6.5642e-10
6.42345e-10
6.22871e-10
5.97227e-10
5.64533e-10
5.23774e-10
4.73761e-10
4.13057e-10
3.39998e-10
2.5315e-10
1.50368e-10
1.76706e-11
-1.69543e-10
-2.82899e-10
2.65928e-11
2.43542e-11
2.25552e-11
2.18179e-11
2.16725e-11
2.18989e-11
2.24155e-11
2.31677e-11
2.41144e-11
2.52275e-11
2.64889e-11
2.78869e-11
2.94141e-11
3.10667e-11
3.28429e-11
3.47427e-11
3.67675e-11
3.89196e-11
4.12022e-11
4.36191e-11
4.61748e-11
4.88742e-11
5.17225e-11
5.47254e-11
5.78889e-11
6.12195e-11
6.47236e-11
6.84082e-11
7.22804e-11
7.63476e-11
8.06172e-11
8.50971e-11
8.97951e-11
9.47192e-11
9.98777e-11
1.05279e-10
1.10931e-10
1.16842e-10
1.23021e-10
1.29475e-10
1.36214e-10
1.43244e-10
1.50574e-10
1.58212e-10
1.66164e-10
1.74437e-10
1.83038e-10
1.91972e-10
2.01244e-10
2.10859e-10
2.20819e-10
2.31126e-10
2.41781e-10
2.52783e-10
2.64131e-10
2.7582e-10
2.87843e-10
3.00192e-10
3.12856e-10
3.2582e-10
3.39067e-10
3.52576e-10
3.66321e-10
3.80272e-10
3.94395e-10
4.08647e-10
4.22983e-10
4.37348e-10
4.5168e-10
4.65907e-10
4.7995e-10
4.93717e-10
5.07104e-10
5.19997e-10
5.32262e-10
5.43753e-10
5.54303e-10
5.63727e-10
5.71817e-10
5.78338e-10
5.83031e-10
5.85602e-10
5.85725e-10
5.83035e-10
5.77125e-10
5.67536e-10
5.53757e-10
5.35214e-10
5.11262e-10
4.81173e-10
4.44123e-10
3.99174e-10
3.45247e-10
2.81054e-10
2.05187e-10
1.16731e-10
1.41556e-11
-1.17911e-10
-3.03528e-10
-3.8991e-10
2.84044e-11
2.62954e-11
2.45164e-11
2.36462e-11
2.33224e-11
2.33724e-11
2.3728e-11
2.4338e-11
2.51613e-11
2.61683e-11
2.73383e-11
2.86573e-11
3.01155e-11
3.17071e-11
3.34284e-11
3.5278e-11
3.72559e-11
3.93633e-11
4.16022e-11
4.39757e-11
4.64871e-11
4.91407e-11
5.19408e-11
5.48925e-11
5.8001e-11
6.1272e-11
6.47113e-11
6.83251e-11
7.21197e-11
7.61018e-11
8.0278e-11
8.46555e-11
8.92411e-11
9.4042e-11
9.90656e-11
1.04319e-10
1.0981e-10
1.15545e-10
1.21532e-10
1.27777e-10
1.34289e-10
1.41072e-10
1.48135e-10
1.55482e-10
1.63121e-10
1.71055e-10
1.79289e-10
1.87828e-10
1.96674e-10
2.05829e-10
2.15295e-10
2.25072e-10
2.35157e-10
2.45549e-10
2.56241e-10
2.67228e-10
2.785e-10
2.90046e-10
3.01851e-10
3.13899e-10
3.26168e-10
3.38635e-10
3.51269e-10
3.64038e-10
3.76902e-10
3.89817e-10
4.02733e-10
4.15589e-10
4.28321e-10
4.40853e-10
4.53101e-10
4.64968e-10
4.76347e-10
4.87117e-10
4.97143e-10
5.06274e-10
5.14339e-10
5.21149e-10
5.26493e-10
5.30136e-10
5.31813e-10
5.31235e-10
5.28073e-10
5.21968e-10
5.12515e-10
4.99266e-10
4.81723e-10
4.59331e-10
4.3147e-10
3.97451e-10
3.56504e-10
3.0777e-10
2.50279e-10
1.829e-10
1.04472e-10
1.46013e-11
-8.75646e-11
-2.19384e-10
-4.11234e-10
-4.6953e-10
2.96182e-11
2.76884e-11
2.59889e-11
2.50644e-11
2.46323e-11
2.45587e-11
2.47896e-11
2.52806e-11
2.59937e-11
2.69002e-11
2.7979e-11
2.92148e-11
3.05968e-11
3.21175e-11
3.37721e-11
3.5558e-11
3.74739e-11
3.952e-11
4.16975e-11
4.40083e-11
4.64553e-11
4.90415e-11
5.17708e-11
5.46473e-11
5.76756e-11
6.08605e-11
6.42071e-11
6.7721e-11
7.14076e-11
7.52727e-11
7.93223e-11
8.35625e-11
8.79995e-11
9.26394e-11
9.74887e-11
1.02553e-10
1.0784e-10
1.13355e-10
1.19104e-10
1.25092e-10
1.31327e-10
1.37812e-10
1.44554e-10
1.51556e-10
1.58824e-10
1.66359e-10
1.74167e-10
1.82248e-10
1.90604e-10
1.99235e-10
2.0814e-10
2.17317e-10
2.26763e-10
2.36472e-10
2.46436e-10
2.56648e-10
2.67095e-10
2.77763e-10
2.88635e-10
2.99692e-10
3.10909e-10
3.22259e-10
3.33711e-10
3.45227e-10
3.56766e-10
3.6828e-10
3.79714e-10
3.91007e-10
4.0209e-10
4.12885e-10
4.23303e-10
4.33246e-10
4.42603e-10
4.51253e-10
4.59056e-10
4.6586e-10
4.71493e-10
4.75767e-10
4.78469e-10
4.79366e-10
4.78199e-10
4.74678e-10
4.68485e-10
4.59268e-10
4.46636e-10
4.30159e-10
4.0936e-10
3.83715e-10
3.52644e-10
3.15513e-10
2.71625e-10
2.2022e-10
1.60466e-10
9.14147e-11
1.21748e-11
-7.70812e-11
-1.76388e-10
-3.05195e-10
-5.04419e-10
-5.29555e-10
3.04199e-11
2.86646e-11
2.70665e-11
2.61346e-11
2.56427e-11
2.54859e-11
2.56235e-11
2.60182e-11
2.66366e-11
2.74521e-11
2.84445e-11
2.95984e-11
3.09024e-11
3.23483e-11
3.39305e-11
3.56454e-11
3.74908e-11
3.94661e-11
4.15715e-11
4.38084e-11
4.61785e-11
4.86843e-11
5.1329e-11
5.41158e-11
5.70486e-11
6.01315e-11
6.33689e-11
6.67654e-11
7.03259e-11
7.40553e-11
7.79588e-11
8.20415e-11
8.63089e-11
9.07661e-11
9.54186e-11
1.00272e-10
1.05331e-10
1.106e-10
1.16086e-10
1.21792e-10
1.27723e-10
1.33883e-10
1.40276e-10
1.46905e-10
1.53773e-10
1.60882e-10
1.68232e-10
1.75826e-10
1.83662e-10
1.91738e-10
2.00052e-10
2.086e-10
2.17376e-10
2.26373e-10
2.35581e-10
2.4499e-10
2.54585e-10
2.64349e-10
2.74265e-10
2.84308e-10
2.94454e-10
3.04672e-10
3.14927e-10
3.25181e-10
3.35389e-10
3.455e-10
3.55458e-10
3.652e-10
3.74652e-10
3.83736e-10
3.9236e-10
4.00426e-10
4.07821e-10
4.1442e-10
4.20087e-10
4.24667e-10
4.27991e-10
4.29871e-10
4.30099e-10
4.28444e-10
4.24654e-10
4.18448e-10
4.09518e-10
3.97526e-10
3.82098e-10
3.62828e-10
3.39268e-10
3.10931e-10
2.77287e-10
2.37763e-10
1.91743e-10
1.38576e-10
7.75741e-11
7.97402e-12
-7.08503e-11
-1.58189e-10
-2.53159e-10
-3.76209e-10
-5.77027e-10
-5.77124e-10
3.0934e-11
2.93335e-11
2.78418e-11
2.69302e-11
2.64119e-11
2.62034e-11
2.62745e-11
2.65949e-11
2.71357e-11
2.78731e-11
2.87882e-11
2.98664e-11
3.10964e-11
3.24696e-11
3.39798e-11
3.56229e-11
3.73961e-11
3.92981e-11
4.13284e-11
4.34875e-11
4.57766e-11
4.81976e-11
5.07526e-11
5.34446e-11
5.62765e-11
5.92517e-11
6.23741e-11
6.56473e-11
6.90756e-11
7.26631e-11
7.64142e-11
8.03332e-11
8.44247e-11
8.8693e-11
9.31425e-11
9.77777e-11
1.02603e-10
1.07622e-10
1.12838e-10
1.18257e-10
1.23879e-10
1.2971e-10
1.3575e-10
1.42002e-10
1.48468e-10
1.55147e-10
1.6204e-10
1.69145e-10
1.76462e-10
1.83985e-10
1.91712e-10
1.99635e-10
2.07748e-10
2.16041e-10
2.24503e-10
2.33121e-10
2.41879e-10
2.50759e-10
2.59738e-10
2.68793e-10
2.77895e-10
2.87013e-10
2.96109e-10
3.05142e-10
3.14066e-10
3.22828e-10
3.31371e-10
3.39628e-10
3.47525e-10
3.54982e-10
3.61907e-10
3.68199e-10
3.73747e-10
3.78426e-10
3.82099e-10
3.84615e-10
3.85805e-10
3.85485e-10
3.83452e-10
3.79483e-10
3.73331e-10
3.64728e-10
3.53379e-10
3.38961e-10
3.21124e-10
2.99485e-10
2.7363e-10
2.43112e-10
2.07452e-10
1.6614e-10
1.18642e-10
6.44083e-11
2.87947e-12
-6.65478e-11
-1.44294e-10
-2.29277e-10
-3.20043e-10
-4.37913e-10
-6.37457e-10
-6.23358e-10
3.12242e-11
2.97571e-11
2.83673e-11
2.74907e-11
2.69669e-11
2.67283e-11
2.67531e-11
2.70166e-11
2.74942e-11
2.81648e-11
2.90114e-11
3.00203e-11
3.11804e-11
3.24834e-11
3.3923e-11
3.54945e-11
3.71947e-11
3.90218e-11
4.09747e-11
4.30534e-11
4.52584e-11
4.75909e-11
5.00525e-11
5.26455e-11
5.53721e-11
5.82352e-11
6.12378e-11
6.4383e-11
6.76742e-11
7.11149e-11
7.47086e-11
7.8459e-11
8.23696e-11
8.64441e-11
9.06861e-11
9.50989e-11
9.96858e-11
1.0445e-10
1.09394e-10
1.14521e-10
1.19832e-10
1.2533e-10
1.31016e-10
1.3689e-10
1.42952e-10
1.49202e-10
1.55638e-10
1.62258e-10
1.69058e-10
1.76034e-10
1.83178e-10
1.90485e-10
1.97944e-10
2.05545e-10
2.13274e-10
2.21117e-10
2.29057e-10
2.37072e-10
2.4514e-10
2.53234e-10
2.61325e-10
2.69377e-10
2.77354e-10
2.85213e-10
2.92904e-10
3.00374e-10
3.07564e-10
3.14407e-10
3.20827e-10
3.26744e-10
3.32066e-10
3.36692e-10
3.40511e-10
3.43399e-10
3.45222e-10
3.45829e-10
3.45059e-10
3.4273e-10
3.38646e-10
3.32592e-10
3.24331e-10
3.13606e-10
3.00139e-10
2.83626e-10
2.63738e-10
2.40121e-10
2.12394e-10
1.80152e-10
1.42966e-10
1.00386e-10
5.19528e-11
-2.79236e-12
-6.43032e-11
-1.33062e-10
-2.09351e-10
-2.91863e-10
-3.7891e-10
-4.93128e-10
-6.93479e-10
-6.68341e-10
3.13271e-11
2.99761e-11
2.86814e-11
2.78463e-11
2.733e-11
2.70761e-11
2.7069e-11
2.72889e-11
2.77147e-11
2.8328e-11
2.91135e-11
3.00585e-11
3.11528e-11
3.23882e-11
3.37583e-11
3.52585e-11
3.68851e-11
3.8636e-11
4.05096e-11
4.25053e-11
4.46232e-11
4.6864e-11
4.92286e-11
5.17187e-11
5.4336e-11
5.70827e-11
5.9961e-11
6.29736e-11
6.61231e-11
6.94122e-11
7.28439e-11
7.64209e-11
8.01461e-11
8.40222e-11
8.80521e-11
9.22382e-11
9.65828e-11
1.01088e-10
1.05756e-10
1.10588e-10
1.15586e-10
1.20749e-10
1.26078e-10
1.31573e-10
1.37232e-10
1.43053e-10
1.49034e-10
1.5517e-10
1.61458e-10
1.6789e-10
1.74459e-10
1.81156e-10
1.87971e-10
1.94891e-10
2.01901e-10
2.08986e-10
2.16125e-10
2.23297e-10
2.30478e-10
2.37639e-10
2.44749e-10
2.51773e-10
2.58671e-10
2.65399e-10
2.71907e-10
2.78141e-10
2.84041e-10
2.89539e-10
2.94559e-10
2.99022e-10
3.02834e-10
3.05897e-10
3.081e-10
3.09324e-10
3.09434e-10
3.08286e-10
3.05721e-10
3.01565e-10
2.9563e-10
2.87708e-10
2.77575e-10
2.64988e-10
2.49685e-10
2.31381e-10
2.09771e-10
1.8453e-10
1.55312e-10
1.2175e-10
8.34638e-11
4.00603e-11
-8.8548e-12
-6.36634e-11
-1.24734e-10
-1.92458e-10
-2.67021e-10
-3.46962e-10
-4.30461e-10
-5.41296e-10
-7.41589e-10
-7.0528e-10
3.12686e-11
3.00201e-11
2.88139e-11
2.80236e-11
2.75228e-11
2.72637e-11
2.72354e-11
2.74218e-11
2.78049e-11
2.83687e-11
2.90994e-11
2.99856e-11
3.10176e-11
3.21878e-11
3.349e-11
3.49193e-11
3.64722e-11
3.81459e-11
3.99387e-11
4.18495e-11
4.3878e-11
4.60243e-11
4.82889e-11
5.06728e-11
5.31773e-11
5.58039e-11
5.85543e-11
6.14304e-11
6.44343e-11
6.75679e-11
7.08336e-11
7.42333e-11
7.77693e-11
8.14434e-11
8.52576e-11
8.92137e-11
9.33131e-11
9.7557e-11
1.01946e-10
1.06482e-10
1.11164e-10
1.15991e-10
1.20963e-10
1.26079e-10
1.31336e-10
1.3673e-10
1.42258e-10
1.47915e-10
1.53695e-10
1.5959e-10
1.65591e-10
1.71689e-10
1.7787e-10
1.84123e-10
1.90429e-10
1.96773e-10
2.03132e-10
2.09485e-10
2.15804e-10
2.22062e-10
2.28225e-10
2.34257e-10
2.40117e-10
2.45761e-10
2.51138e-10
2.56194e-10
2.60866e-10
2.65089e-10
2.68787e-10
2.7188e-10
2.74276e-10
2.75879e-10
2.7658e-10
2.76262e-10
2.74795e-10
2.72039e-10
2.67841e-10
2.62034e-10
2.54437e-10
2.44854e-10
2.33074e-10
2.18868e-10
2.01989e-10
1.82175e-10
1.59145e-10
1.32601e-10
1.0223e-10
6.77036e-11
2.86855e-11
-1.51666e-11
-6.41899e-11
-1.18702e-10
-1.79004e-10
-2.45419e-10
-3.18065e-10
-3.95368e-10
-4.75406e-10
-5.82864e-10
-7.82241e-10
-7.35598e-10
3.10675e-11
2.99125e-11
2.87892e-11
2.80445e-11
2.75643e-11
2.73071e-11
2.72654e-11
2.74263e-11
2.7774e-11
2.82946e-11
2.89759e-11
2.98076e-11
3.07807e-11
3.18881e-11
3.31238e-11
3.44831e-11
3.59621e-11
3.75582e-11
3.92691e-11
4.10936e-11
4.30308e-11
4.50805e-11
4.72427e-11
4.95178e-11
5.19067e-11
5.44102e-11
5.70296e-11
5.97661e-11
6.26212e-11
6.55963e-11
6.86929e-11
7.19124e-11
7.52562e-11
7.87256e-11
8.23217e-11
8.60454e-11
8.98975e-11
9.38783e-11
9.7988e-11
1.02226e-10
1.06592e-10
1.11084e-10
1.157e-10
1.20438e-10
1.25295e-10
1.30266e-10
1.35346e-10
1.40529e-10
1.45808e-10
1.51174e-10
1.56617e-10
1.62126e-10
1.67687e-10
1.73287e-10
1.78907e-10
1.84529e-10
1.9013e-10
1.95688e-10
2.01175e-10
2.0656e-10
2.11811e-10
2.1689e-10
2.21756e-10
2.26363e-10
2.30662e-10
2.34597e-10
2.38107e-10
2.41125e-10
2.43578e-10
2.45386e-10
2.4646e-10
2.46704e-10
2.46013e-10
2.44274e-10
2.41361e-10
2.3714e-10
2.31464e-10
2.24173e-10
2.15097e-10
2.0405e-10
1.90833e-10
1.75233e-10
1.57021e-10
1.35954e-10
1.11777e-10
8.42164e-11
5.29917e-11
1.78109e-11
-2.16234e-11
-6.56085e-11
-1.14433e-10
-1.68361e-10
-2.2764e-10
-2.92542e-10
-3.63135e-10
-4.37761e-10
-5.14421e-10
-6.18526e-10
-8.16449e-10
-7.60586e-10
3.07393e-11
2.96714e-11
2.86264e-11
2.79276e-11
2.74712e-11
2.72209e-11
2.71718e-11
2.7313e-11
2.76311e-11
2.81138e-11
2.87503e-11
2.95311e-11
3.04483e-11
3.14951e-11
3.26659e-11
3.39559e-11
3.53614e-11
3.68796e-11
3.8508e-11
4.0245e-11
4.20896e-11
4.40409e-11
4.60987e-11
4.8263e-11
5.0534e-11
5.29122e-11
5.53982e-11
5.79927e-11
6.06966e-11
6.35108e-11
6.64359e-11
6.9473e-11
7.26226e-11
7.58854e-11
7.92617e-11
8.27518e-11
8.63556e-11
9.00726e-11
9.39022e-11
9.7843e-11
1.01894e-10
1.06052e-10
1.10314e-10
1.14678e-10
1.19138e-10
1.2369e-10
1.28328e-10
1.33044e-10
1.3783e-10
1.42676e-10
1.47572e-10
1.52505e-10
1.57461e-10
1.62424e-10
1.67376e-10
1.72297e-10
1.77165e-10
1.81954e-10
1.86636e-10
1.91182e-10
1.95557e-10
1.99723e-10
2.03639e-10
2.07259e-10
2.10532e-10
2.13405e-10
2.15817e-10
2.17701e-10
2.18986e-10
2.19592e-10
2.19435e-10
2.1842e-10
2.16446e-10
2.13403e-10
2.09172e-10
2.03622e-10
1.96616e-10
1.88001e-10
1.77617e-10
1.65289e-10
1.50831e-10
1.34046e-10
1.14722e-10
9.26375e-11
6.7557e-11
3.92363e-11
7.42205e-12
-2.81449e-11
-6.7726e-11
-1.1158e-10
-1.59952e-10
-2.13066e-10
-2.71124e-10
-3.34361e-10
-4.02807e-10
-4.74739e-10
-5.481e-10
-6.4888e-10
-8.44936e-10
-7.80933e-10
3.0296e-11
2.93128e-11
2.83428e-11
2.7689e-11
2.72582e-11
2.70183e-11
2.6966e-11
2.70923e-11
2.73854e-11
2.78344e-11
2.84297e-11
2.9163e-11
3.00268e-11
3.10151e-11
3.21223e-11
3.3344e-11
3.46765e-11
3.61167e-11
3.76622e-11
3.93112e-11
4.1062e-11
4.29138e-11
4.48659e-11
4.69177e-11
4.90691e-11
5.13202e-11
5.36709e-11
5.61217e-11
5.86726e-11
6.1324e-11
6.40762e-11
6.69293e-11
6.98835e-11
7.29386e-11
7.60943e-11
7.93502e-11
8.27055e-11
8.6159e-11
8.97092e-11
9.33542e-11
9.70913e-11
1.00918e-10
1.0483e-10
1.08823e-10
1.12892e-10
1.17031e-10
1.21233e-10
1.25489e-10
1.29792e-10
1.34129e-10
1.3849e-10
1.42861e-10
1.47227e-10
1.51572e-10
1.55875e-10
1.60118e-10
1.64275e-10
1.68323e-10
1.72232e-10
1.75972e-10
1.79507e-10
1.82801e-10
1.85811e-10
1.88492e-10
1.90795e-10
1.92664e-10
1.94041e-10
1.94861e-10
1.95053e-10
1.94541e-10
1.93242e-10
1.91064e-10
1.87912e-10
1.83678e-10
1.78249e-10
1.71503e-10
1.63306e-10
1.53518e-10
1.41986e-10
1.28548e-10
1.13032e-10
9.52539e-11
7.50205e-11
5.21284e-11
2.6365e-11
-2.49014e-12
-3.46634e-11
-7.03847e-11
-1.09884e-10
-1.53385e-10
-2.01099e-10
-2.53214e-10
-3.09898e-10
-3.71355e-10
-4.37588e-10
-5.06826e-10
-5.76966e-10
-6.74449e-10
-8.68279e-10
-7.97126e-10
2.9752e-11
2.88513e-11
2.79528e-11
2.7343e-11
2.69386e-11
2.67114e-11
2.66591e-11
2.67739e-11
2.70454e-11
2.74641e-11
2.80215e-11
2.871e-11
2.95229e-11
3.04544e-11
3.14996e-11
3.2654e-11
3.3914e-11
3.52765e-11
3.6739e-11
3.82994e-11
3.9956e-11
4.17074e-11
4.35527e-11
4.54909e-11
4.75216e-11
4.96443e-11
5.18586e-11
5.41642e-11
5.6561e-11
5.90487e-11
6.16269e-11
6.42954e-11
6.70534e-11
6.99005e-11
7.28356e-11
7.58577e-11
7.89651e-11
8.21562e-11
8.54286e-11
8.87797e-11
9.22063e-11
9.57045e-11
9.92699e-11
1.02897e-10
1.06581e-10
1.10313e-10
1.14088e-10
1.17894e-10
1.21723e-10
1.25564e-10
1.29403e-10
1.33227e-10
1.3702e-10
1.40764e-10
1.4444e-10
1.48027e-10
1.515e-10
1.54835e-10
1.58001e-10
1.60969e-10
1.63702e-10
1.66165e-10
1.68314e-10
1.70105e-10
1.7149e-10
1.72414e-10
1.7282e-10
1.72644e-10
1.71817e-10
1.70267e-10
1.67912e-10
1.64665e-10
1.60434e-10
1.55118e-10
1.48608e-10
1.40789e-10
1.31535e-10
1.20714e-10
1.08184e-10
9.37953e-11
7.73872e-11
5.87916e-11
3.78316e-11
1.43222e-11
-1.19288e-11
-4.11191e-11
-7.34509e-11
-1.09127e-10
-1.4835e-10
-1.91315e-10
-2.38203e-10
-2.89172e-10
-3.44362e-10
-4.03955e-10
-4.67933e-10
-5.34489e-10
-6.01486e-10
-6.95701e-10
-8.86985e-10
-8.09582e-10
2.913e-11
2.83025e-11
2.74698e-11
2.69017e-11
2.6524e-11
2.63108e-11
2.62608e-11
2.63668e-11
2.66197e-11
2.7011e-11
2.75331e-11
2.81792e-11
2.89433e-11
2.98199e-11
3.08043e-11
3.18925e-11
3.30807e-11
3.4366e-11
3.57456e-11
3.72173e-11
3.87793e-11
4.04299e-11
4.21678e-11
4.39918e-11
4.5901e-11
4.78946e-11
4.99717e-11
5.21316e-11
5.43736e-11
5.66971e-11
5.9101e-11
6.15846e-11
6.41467e-11
6.67861e-11
6.95013e-11
7.22905e-11
7.51516e-11
7.80821e-11
8.10791e-11
8.41394e-11
8.72588e-11
9.04331e-11
9.36569e-11
9.69245e-11
1.00229e-10
1.03563e-10
1.06918e-10
1.10285e-10
1.13652e-10
1.17008e-10
1.2034e-10
1.23633e-10
1.26869e-10
1.30033e-10
1.33103e-10
1.36058e-10
1.38873e-10
1.41523e-10
1.43979e-10
1.46209e-10
1.48178e-10
1.4985e-10
1.51183e-10
1.52133e-10
1.52653e-10
1.52689e-10
1.52185e-10
1.51079e-10
1.49307e-10
1.46796e-10
1.43469e-10
1.39243e-10
1.3403e-10
1.27734e-10
1.20253e-10
1.11477e-10
1.01291e-10
8.9569e-11
7.61807e-11
6.09865e-11
4.38396e-11
2.4586e-11
3.06442e-12
-2.08926e-11
-4.7458e-11
-7.68091e-11
-1.09125e-10
-1.44587e-10
-1.8337e-10
-2.25645e-10
-2.7157e-10
-3.21276e-10
-3.74882e-10
-4.32551e-10
-4.9425e-10
-5.58144e-10
-6.22077e-10
-7.13054e-10
-9.01508e-10
-8.18662e-10
2.84415e-11
2.76755e-11
2.69017e-11
2.63737e-11
2.60234e-11
2.58259e-11
2.57801e-11
2.58796e-11
2.61163e-11
2.64826e-11
2.69718e-11
2.75777e-11
2.82948e-11
2.91181e-11
3.00433e-11
3.10662e-11
3.21835e-11
3.33921e-11
3.46892e-11
3.60725e-11
3.75399e-11
3.90895e-11
4.07198e-11
4.24294e-11
4.42168e-11
4.6081e-11
4.80206e-11
5.00347e-11
5.21219e-11
5.42812e-11
5.65111e-11
5.88104e-11
6.11773e-11
6.361e-11
6.61066e-11
6.86647e-11
7.12815e-11
7.39541e-11
7.66789e-11
7.94519e-11
8.22687e-11
8.5124e-11
8.80121e-11
9.09265e-11
9.38599e-11
9.6804e-11
9.97498e-11
1.02687e-10
1.05605e-10
1.0849e-10
1.11329e-10
1.14106e-10
1.16806e-10
1.19409e-10
1.21895e-10
1.24242e-10
1.26426e-10
1.28421e-10
1.30197e-10
1.31724e-10
1.32966e-10
1.33889e-10
1.3445e-10
1.34607e-10
1.34313e-10
1.33517e-10
1.32164e-10
1.30195e-10
1.27546e-10
1.24149e-10
1.1993e-10
1.14812e-10
1.08708e-10
1.0153e-10
9.31814e-11
8.35594e-11
7.25558e-11
6.00554e-11
4.59366e-11
3.00713e-11
1.23251e-11
-7.44247e-12
-2.93775e-11
-5.36311e-11
-8.03585e-11
-1.09718e-10
-1.41869e-10
-1.7697e-10
-2.15177e-10
-2.56637e-10
-3.01487e-10
-3.49839e-10
-4.01792e-10
-4.57496e-10
-5.16904e-10
-5.78167e-10
-6.39112e-10
-7.26883e-10
-9.1225e-10
-8.2469e-10
2.7681e-11
2.69674e-11
2.62518e-11
2.57661e-11
2.5445e-11
2.52653e-11
2.52257e-11
2.53207e-11
2.55433e-11
2.58867e-11
2.6345e-11
2.69126e-11
2.75845e-11
2.83561e-11
2.92232e-11
3.01822e-11
3.12294e-11
3.2362e-11
3.35772e-11
3.48724e-11
3.62455e-11
3.76945e-11
3.92174e-11
4.08126e-11
4.24784e-11
4.42133e-11
4.60158e-11
4.78842e-11
4.98171e-11
5.18129e-11
5.38696e-11
5.59855e-11
5.81585e-11
6.03863e-11
6.26662e-11
6.49955e-11
6.73709e-11
6.97889e-11
7.22452e-11
7.47355e-11
7.72546e-11
7.97968e-11
8.23557e-11
8.49243e-11
8.74947e-11
9.00581e-11
9.26049e-11
9.51244e-11
9.76047e-11
1.00033e-10
1.02395e-10
1.04675e-10
1.06856e-10
1.08919e-10
1.10843e-10
1.12608e-10
1.14187e-10
1.15556e-10
1.16684e-10
1.17542e-10
1.18096e-10
1.18309e-10
1.18143e-10
1.17554e-10
1.16497e-10
1.14923e-10
1.1278e-10
1.10009e-10
1.06552e-10
1.02341e-10
9.73079e-11
9.13775e-11
8.44706e-11
7.65025e-11
6.73832e-11
5.70177e-11
4.53049e-11
3.21387e-11
1.74072e-11
9.93165e-13
-1.7226e-11
-3.73777e-11
-5.95939e-11
-8.40105e-11
-1.10766e-10
-1.40002e-10
-1.71859e-10
-2.06477e-10
-2.43993e-10
-2.84536e-10
-3.28222e-10
-3.75149e-10
-4.254e-10
-4.79113e-10
-5.36231e-10
-5.94896e-10
-6.52929e-10
-7.37528e-10
-9.19578e-10
-8.27961e-10
2.68648e-11
2.61896e-11
2.55309e-11
2.50892e-11
2.47988e-11
2.46383e-11
2.46064e-11
2.46986e-11
2.49088e-11
2.52311e-11
2.56602e-11
2.61912e-11
2.68195e-11
2.75408e-11
2.83512e-11
2.92472e-11
3.02255e-11
3.1283e-11
3.2417e-11
3.36248e-11
3.49042e-11
3.6253e-11
3.7669e-11
3.91503e-11
4.06951e-11
4.23013e-11
4.39672e-11
4.56909e-11
4.74704e-11
4.93036e-11
5.11885e-11
5.31227e-11
5.51037e-11
5.71286e-11
5.91945e-11
6.1298e-11
6.34354e-11
6.56026e-11
6.7795e-11
7.00076e-11
7.22347e-11
7.44702e-11
7.67072e-11
7.8938e-11
8.11543e-11
8.33469e-11
8.55057e-11
8.76195e-11
8.96761e-11
9.16621e-11
9.35631e-11
9.5363e-11
9.70444e-11
9.85886e-11
9.99749e-11
1.01181e-10
1.02183e-10
1.02955e-10
1.03467e-10
1.03691e-10
1.03593e-10
1.03137e-10
1.02285e-10
1.00996e-10
9.92261e-11
9.69278e-11
9.40505e-11
9.05397e-11
8.63375e-11
8.13819e-11
7.5607e-11
6.89426e-11
6.1314e-11
5.26422e-11
4.28435e-11
3.18297e-11
1.95076e-11
5.77945e-12
-9.45704e-12
-2.63088e-11
-4.4887e-11
-6.53067e-11
-8.76866e-11
-1.12148e-10
-1.38816e-10
-1.67814e-10
-1.99267e-10
-2.33299e-10
-2.7003e-10
-3.09571e-10
-3.52025e-10
-3.97473e-10
-4.45988e-10
-4.97695e-10
-5.52533e-10
-6.0864e-10
-6.63837e-10
-7.45298e-10
-9.23826e-10
-8.28746e-10
2.60206e-11
2.53571e-11
2.47527e-11
2.43553e-11
2.40959e-11
2.3955e-11
2.39315e-11
2.40218e-11
2.42208e-11
2.45234e-11
2.49248e-11
2.54207e-11
2.60067e-11
2.66791e-11
2.74342e-11
2.82685e-11
2.91788e-11
3.01622e-11
3.12159e-11
3.23372e-11
3.35238e-11
3.47731e-11
3.6083e-11
3.74513e-11
3.88758e-11
4.03543e-11
4.18848e-11
4.34649e-11
4.50923e-11
4.67648e-11
4.84796e-11
5.02342e-11
5.20255e-11
5.38503e-11
5.57052e-11
5.75865e-11
5.94899e-11
6.14108e-11
6.33443e-11
6.52848e-11
6.72263e-11
6.9162e-11
7.10848e-11
7.29864e-11
7.48582e-11
7.66905e-11
7.84728e-11
8.01935e-11
8.18402e-11
8.33992e-11
8.48557e-11
8.61935e-11
8.73951e-11
8.84416e-11
8.93126e-11
8.99857e-11
9.0437e-11
9.06408e-11
9.05693e-11
9.01925e-11
8.94782e-11
8.8392e-11
8.68968e-11
8.49529e-11
8.25179e-11
7.95463e-11
7.59898e-11
7.17966e-11
6.69117e-11
6.12766e-11
5.48292e-11
4.75036e-11
3.92303e-11
2.99356e-11
1.95421e-11
7.96827e-12
-4.87144e-12
-1.90664e-11
-3.47099e-11
-5.18989e-11
-7.07337e-11
-9.1318e-11
-1.13758e-10
-1.38162e-10
-1.6464e-10
-1.93302e-10
-2.24259e-10
-2.5762e-10
-2.93487e-10
-3.31961e-10
-3.73129e-10
-4.1706e-10
-4.63816e-10
-5.13516e-10
-5.6609e-10
-6.19682e-10
-6.72117e-10
-7.50477e-10
-9.25304e-10
-8.27297e-10
2.51259e-11
2.44832e-11
2.39298e-11
2.35759e-11
2.33466e-11
2.32246e-11
2.32096e-11
2.32986e-11
2.34873e-11
2.37712e-11
2.41462e-11
2.46082e-11
2.51533e-11
2.57781e-11
2.6479e-11
2.72527e-11
2.80963e-11
2.90067e-11
2.99812e-11
3.10171e-11
3.21118e-11
3.32628e-11
3.44677e-11
3.57241e-11
3.70296e-11
3.83818e-11
3.97782e-11
4.12163e-11
4.26936e-11
4.42072e-11
4.57543e-11
4.73317e-11
4.89362e-11
5.05642e-11
5.22118e-11
5.38748e-11
5.55486e-11
5.72283e-11
5.89084e-11
6.05831e-11
6.22457e-11
6.38893e-11
6.55061e-11
6.70877e-11
6.86249e-11
7.01078e-11
7.15255e-11
7.28663e-11
7.41173e-11
7.52648e-11
7.62936e-11
7.71876e-11
7.79292e-11
7.84995e-11
7.88781e-11
7.9043e-11
7.89706e-11
7.86356e-11
7.80106e-11
7.70665e-11
7.57721e-11
7.40939e-11
7.19961e-11
6.94406e-11
6.63867e-11
6.27911e-11
5.86078e-11
5.37876e-11
4.82787e-11
4.2026e-11
3.49714e-11
2.70534e-11
1.82072e-11
8.36488e-12
-2.54515e-12
-1.45977e-11
-2.78709e-11
-4.24461e-11
-5.84079e-11
-7.58438e-11
-9.48439e-11
-1.15501e-10
-1.3791e-10
-1.62166e-10
-1.88367e-10
-2.16611e-10
-2.46995e-10
-2.79612e-10
-3.14554e-10
-3.51909e-10
-3.9175e-10
-4.34139e-10
-4.79127e-10
-5.26824e-10
-5.7716e-10
-6.28282e-10
-6.78029e-10
-7.53328e-10
-9.24299e-10
-8.2385e-10
2.41496e-11
2.3583e-11
2.30799e-11
2.27617e-11
2.25594e-11
2.24552e-11
2.24485e-11
2.25366e-11
2.27157e-11
2.29818e-11
2.33313e-11
2.37606e-11
2.42661e-11
2.48444e-11
2.54924e-11
2.62069e-11
2.69849e-11
2.78236e-11
2.87202e-11
2.96718e-11
3.0676e-11
3.17299e-11
3.28312e-11
3.39771e-11
3.51652e-11
3.63926e-11
3.76569e-11
3.8955e-11
4.02842e-11
4.16415e-11
4.30234e-11
4.44268e-11
4.58478e-11
4.72826e-11
4.87269e-11
5.01761e-11
5.16254e-11
5.30694e-11
5.45022e-11
5.59175e-11
5.73086e-11
5.8668e-11
5.99876e-11
6.12587e-11
6.24718e-11
6.36167e-11
6.46823e-11
6.56565e-11
6.65264e-11
6.7278e-11
6.78962e-11
6.83648e-11
6.86662e-11
6.87817e-11
6.86911e-11
6.83726e-11
6.7803e-11
6.69576e-11
6.58097e-11
6.43309e-11
6.2491e-11
6.02578e-11
5.75969e-11
5.44718e-11
5.08437e-11
4.66713e-11
4.1911e-11
3.65166e-11
3.04393e-11
2.36275e-11
1.6027e-11
7.58072e-12
-1.77124e-12
-1.20916e-11
-2.34459e-11
-3.59025e-11
-4.95324e-11
-6.44094e-11
-8.06096e-11
-9.82115e-11
-1.17296e-10
-1.37945e-10
-1.60243e-10
-1.84274e-10
-2.10125e-10
-2.3788e-10
-2.67625e-10
-2.99442e-10
-3.33411e-10
-3.69606e-10
-4.08094e-10
-4.48925e-10
-4.92143e-10
-5.37853e-10
-5.85979e-10
-6.34682e-10
-6.81815e-10
-7.54094e-10
-9.21081e-10
-8.18625e-10
2.31315e-11
2.265e-11
2.22009e-11
2.1917e-11
2.17404e-11
2.16535e-11
2.16551e-11
2.17426e-11
2.19127e-11
2.2162e-11
2.2487e-11
2.28846e-11
2.33516e-11
2.38848e-11
2.44811e-11
2.51377e-11
2.58515e-11
2.66198e-11
2.74398e-11
2.83087e-11
2.92237e-11
3.01822e-11
3.11814e-11
3.22186e-11
3.3291e-11
3.43957e-11
3.55299e-11
3.66905e-11
3.78742e-11
3.90778e-11
4.02978e-11
4.15304e-11
4.27717e-11
4.40173e-11
4.52628e-11
4.65033e-11
4.77334e-11
4.89475e-11
5.01395e-11
5.13026e-11
5.24299e-11
5.35135e-11
5.45451e-11
5.55156e-11
5.64154e-11
5.7234e-11
5.796e-11
5.85813e-11
5.90849e-11
5.94566e-11
5.96814e-11
5.9743e-11
5.96241e-11
5.93062e-11
5.87691e-11
5.79917e-11
5.69512e-11
5.56233e-11
5.39823e-11
5.20006e-11
4.96491e-11
4.68968e-11
4.37109e-11
4.00566e-11
3.58968e-11
3.11927e-11
2.5903e-11
1.99844e-11
1.33911e-11
6.07522e-12
-2.01375e-12
-1.09285e-11
-2.07242e-11
-3.14582e-11
-4.31905e-11
-5.5983e-11
-6.99e-11
-8.50078e-11
-1.01375e-10
-1.19071e-10
-1.38168e-10
-1.58738e-10
-1.80856e-10
-2.04597e-10
-2.30034e-10
-2.57242e-10
-2.86296e-10
-3.17268e-10
-3.50225e-10
-3.85234e-10
-4.22352e-10
-4.61619e-10
-5.03075e-10
-5.46817e-10
-5.92768e-10
-6.39104e-10
-6.83697e-10
-7.53005e-10
-9.15902e-10
-8.11833e-10
2.20951e-11
2.16866e-11
2.12943e-11
2.10462e-11
2.08954e-11
2.08257e-11
2.08357e-11
2.09232e-11
2.1085e-11
2.13182e-11
2.16198e-11
2.19868e-11
2.24164e-11
2.29057e-11
2.34517e-11
2.40517e-11
2.47027e-11
2.54021e-11
2.6147e-11
2.69347e-11
2.77623e-11
2.8627e-11
2.9526e-11
3.04565e-11
3.14153e-11
3.23996e-11
3.34062e-11
3.44318e-11
3.5473e-11
3.65262e-11
3.75876e-11
3.86532e-11
3.97188e-11
4.07798e-11
4.18314e-11
4.28683e-11
4.38851e-11
4.48756e-11
4.58336e-11
4.67521e-11
4.76236e-11
4.84401e-11
4.91931e-11
4.98734e-11
5.04709e-11
5.09751e-11
5.13745e-11
5.16568e-11
5.1809e-11
5.18169e-11
5.16654e-11
5.13386e-11
5.08192e-11
5.0089e-11
4.91282e-11
4.7916e-11
4.64303e-11
4.46474e-11
4.25424e-11
4.00886e-11
3.72582e-11
3.40214e-11
3.03471e-11
2.62022e-11
2.15516e-11
1.63586e-11
1.05846e-11
4.18896e-12
-2.87089e-12
-1.06395e-11
-1.91634e-11
-2.84912e-11
-3.86732e-11
-4.97619e-11
-6.18114e-11
-7.4878e-11
-8.90192e-11
-1.04294e-10
-1.20764e-10
-1.38491e-10
-1.57538e-10
-1.77968e-10
-1.99848e-10
-2.23241e-10
-2.48212e-10
-2.74826e-10
-3.03148e-10
-3.33239e-10
-3.65158e-10
-3.98963e-10
-4.34701e-10
-4.72408e-10
-5.12116e-10
-5.53918e-10
-5.97734e-10
-6.41759e-10
-6.83885e-10
-7.50272e-10
-9.09e-10
-8.03672e-10
2.10472e-11
2.07043e-11
2.03679e-11
2.01562e-11
2.0031e-11
1.99784e-11
1.9997e-11
2.00848e-11
2.02389e-11
2.04568e-11
2.07359e-11
2.10734e-11
2.14669e-11
2.19135e-11
2.24105e-11
2.29553e-11
2.3545e-11
2.41771e-11
2.48486e-11
2.55567e-11
2.62987e-11
2.70716e-11
2.78726e-11
2.86984e-11
2.95462e-11
3.04126e-11
3.12943e-11
3.21879e-11
3.30898e-11
3.3996e-11
3.49026e-11
3.58053e-11
3.66997e-11
3.75809e-11
3.84437e-11
3.92828e-11
4.00924e-11
4.08661e-11
4.15972e-11
4.22787e-11