/*--------------------------------*- C++ -*----------------------------------*\
  =========                 |
  \\      /  F ield         | OpenFOAM: The Open Source CFD Toolbox
   \\    /   O peration     | Website:  https://openfoam.org
    \\  /    A nd           | Version:  11
     \\/     M anipulation  |
\*---------------------------------------------------------------------------*/
FoamFile
{
    format      ascii;
    class       surfaceScalarField;
    location    "1086";
    object      phi;
}
// * * * * * * * * * * * * * * * * * * * * * * * * * * * * * * * * * * * * * //

dimensions      [0 3 -1 0 0 0 0];

internalField   nonuniform List<scalar> 
19800
(
2e-05
-9.58408e-13
2e-05
-2.74313e-12
2e-05
-4.4463e-12
2e-05
-6.10216e-12
2e-05
-7.74426e-12
2e-05
-9.39574e-12
2e-05
-1.1073e-11
2e-05
-1.27885e-11
2e-05
-1.45522e-11
2e-05
-1.63725e-11
2e-05
-1.82568e-11
2e-05
-2.02118e-11
2e-05
-2.2244e-11
2e-05
-2.43594e-11
2e-05
-2.65642e-11
2e-05
-2.88645e-11
2e-05
-3.12664e-11
2e-05
-3.37762e-11
2e-05
-3.64004e-11
2e-05
-3.91458e-11
2e-05
-4.20195e-11
2e-05
-4.50289e-11
2e-05
-4.81819e-11
2e-05
-5.14866e-11
2e-05
-5.49519e-11
2e-05
-5.8587e-11
2e-05
-6.24018e-11
1.99999e-05
-6.64069e-11
1.99999e-05
-7.06135e-11
1.99999e-05
-7.50334e-11
1.99999e-05
-7.96795e-11
1.99999e-05
-8.45653e-11
1.99999e-05
-8.97053e-11
1.99999e-05
-9.51152e-11
1.99999e-05
-1.00811e-10
1.99999e-05
-1.06811e-10
1.99999e-05
-1.13135e-10
1.99999e-05
-1.19801e-10
1.99999e-05
-1.26832e-10
1.99999e-05
-1.3425e-10
1.99999e-05
-1.4208e-10
1.99998e-05
-1.50349e-10
1.99998e-05
-1.59084e-10
1.99998e-05
-1.68315e-10
1.99998e-05
-1.78073e-10
1.99998e-05
-1.88392e-10
1.99998e-05
-1.99308e-10
1.99998e-05
-2.10859e-10
1.99997e-05
-2.23085e-10
1.99997e-05
-2.36029e-10
1.99997e-05
-2.49737e-10
1.99997e-05
-2.64257e-10
1.99997e-05
-2.7964e-10
1.99997e-05
-2.95939e-10
1.99996e-05
-3.13212e-10
1.99996e-05
-3.31519e-10
1.99996e-05
-3.50923e-10
1.99996e-05
-3.71491e-10
1.99995e-05
-3.93294e-10
1.99995e-05
-4.16405e-10
1.99995e-05
-4.40902e-10
1.99994e-05
-4.66865e-10
1.99994e-05
-4.9438e-10
1.99994e-05
-5.23533e-10
1.99993e-05
-5.54419e-10
1.99993e-05
-5.8713e-10
1.99992e-05
-6.21766e-10
1.99992e-05
-6.58429e-10
1.99992e-05
-6.97223e-10
1.99991e-05
-7.38253e-10
1.99991e-05
-7.81629e-10
1.9999e-05
-8.27459e-10
1.9999e-05
-8.75853e-10
1.99989e-05
-9.26918e-10
1.99989e-05
-9.8076e-10
1.99988e-05
-1.03748e-09
1.99987e-05
-1.09717e-09
1.99987e-05
-1.15992e-09
1.99986e-05
-1.2258e-09
1.99985e-05
-1.29486e-09
1.99985e-05
-1.36713e-09
1.99984e-05
-1.44262e-09
1.99983e-05
-1.5213e-09
1.99983e-05
-1.60309e-09
1.99982e-05
-1.68786e-09
1.99981e-05
-1.7754e-09
1.9998e-05
-1.86542e-09
1.9998e-05
-1.95753e-09
1.99979e-05
-2.05121e-09
1.99978e-05
-2.14579e-09
1.99978e-05
-2.24043e-09
1.99977e-05
-2.33405e-09
1.99976e-05
-2.42536e-09
1.99976e-05
-2.51279e-09
1.99975e-05
-2.59445e-09
1.99974e-05
-2.66818e-09
1.99974e-05
-2.73156e-09
1.99974e-05
-2.78197e-09
1.99973e-05
-2.81727e-09
-2.83814e-09
2e-05
-8.23523e-13
2e-05
-2.46598e-12
2e-05
-4.07554e-12
2e-05
-5.65038e-12
2e-05
-7.21389e-12
2e-05
-8.78549e-12
2e-05
-1.03796e-11
2e-05
-1.20076e-11
2e-05
-1.36786e-11
2e-05
-1.54004e-11
2e-05
-1.71799e-11
2e-05
-1.90233e-11
2e-05
-2.09365e-11
2e-05
-2.29251e-11
2e-05
-2.49948e-11
2e-05
-2.7151e-11
2e-05
-2.93994e-11
2e-05
-3.17458e-11
2e-05
-3.4196e-11
2e-05
-3.67563e-11
2e-05
-3.9433e-11
2e-05
-4.2233e-11
2e-05
-4.51633e-11
2e-05
-4.82317e-11
2e-05
-5.14459e-11
2e-05
-5.48147e-11
2e-05
-5.83471e-11
2e-05
-6.20526e-11
1.99999e-05
-6.59418e-11
1.99999e-05
-7.00257e-11
1.99999e-05
-7.4316e-11
1.99999e-05
-7.88253e-11
1.99999e-05
-8.35674e-11
1.99999e-05
-8.85566e-11
1.99999e-05
-9.38084e-11
1.99999e-05
-9.93394e-11
1.99999e-05
-1.05167e-10
1.99999e-05
-1.11312e-10
1.99999e-05
-1.17792e-10
1.99999e-05
-1.24631e-10
1.99999e-05
-1.31851e-10
1.99998e-05
-1.39478e-10
1.99998e-05
-1.47537e-10
1.99998e-05
-1.56058e-10
1.99998e-05
-1.65071e-10
1.99998e-05
-1.74608e-10
1.99998e-05
-1.84704e-10
1.99998e-05
-1.95394e-10
1.99997e-05
-2.0672e-10
1.99997e-05
-2.18721e-10
1.99997e-05
-2.31443e-10
1.99997e-05
-2.44932e-10
1.99997e-05
-2.59238e-10
1.99997e-05
-2.74414e-10
1.99996e-05
-2.90516e-10
1.99996e-05
-3.07604e-10
1.99996e-05
-3.2574e-10
1.99996e-05
-3.4499e-10
1.99995e-05
-3.65424e-10
1.99995e-05
-3.87116e-10
1.99995e-05
-4.10143e-10
1.99994e-05
-4.34585e-10
1.99994e-05
-4.60529e-10
1.99994e-05
-4.88063e-10
1.99993e-05
-5.1728e-10
1.99993e-05
-5.48277e-10
1.99992e-05
-5.81155e-10
1.99992e-05
-6.16017e-10
1.99992e-05
-6.52972e-10
1.99991e-05
-6.9213e-10
1.99991e-05
-7.33603e-10
1.9999e-05
-7.77507e-10
1.9999e-05
-8.23957e-10
1.99989e-05
-8.7307e-10
1.99989e-05
-9.2496e-10
1.99988e-05
-9.79738e-10
1.99987e-05
-1.03751e-09
1.99987e-05
-1.09838e-09
1.99986e-05
-1.16243e-09
1.99985e-05
-1.22973e-09
1.99985e-05
-1.30034e-09
1.99984e-05
-1.37429e-09
1.99983e-05
-1.45157e-09
1.99983e-05
-1.53213e-09
1.99982e-05
-1.61588e-09
1.99981e-05
-1.70265e-09
1.99981e-05
-1.79219e-09
1.9998e-05
-1.88416e-09
1.99979e-05
-1.9781e-09
1.99978e-05
-2.07339e-09
1.99978e-05
-2.16926e-09
1.99977e-05
-2.26472e-09
1.99976e-05
-2.35854e-09
1.99976e-05
-2.44924e-09
1.99975e-05
-2.53502e-09
1.99975e-05
-2.61381e-09
1.99974e-05
-2.68319e-09
1.99974e-05
-2.74045e-09
1.99973e-05
-2.78304e-09
-2.81025e-09
2e-05
-7.21708e-13
2e-05
-2.22005e-12
2e-05
-3.72229e-12
2e-05
-5.20809e-12
2e-05
-6.68903e-12
2e-05
-8.17895e-12
2e-05
-9.68939e-12
2e-05
-1.123e-11
2e-05
-1.28088e-11
2e-05
-1.44329e-11
2e-05
-1.61084e-11
2e-05
-1.78411e-11
2e-05
-1.96364e-11
2e-05
-2.14994e-11
2e-05
-2.34351e-11
2e-05
-2.54486e-11
2e-05
-2.75449e-11
2e-05
-2.97293e-11
2e-05
-3.20071e-11
2e-05
-3.43838e-11
2e-05
-3.68653e-11
2e-05
-3.94578e-11
2e-05
-4.21676e-11
2e-05
-4.50016e-11
2e-05
-4.79671e-11
2e-05
-5.10719e-11
2e-05
-5.43243e-11
2e-05
-5.77331e-11
1.99999e-05
-6.13078e-11
1.99999e-05
-6.50586e-11
1.99999e-05
-6.89963e-11
1.99999e-05
-7.31327e-11
1.99999e-05
-7.74804e-11
1.99999e-05
-8.20527e-11
1.99999e-05
-8.68642e-11
1.99999e-05
-9.19305e-11
1.99999e-05
-9.72681e-11
1.99999e-05
-1.02895e-10
1.99999e-05
-1.0883e-10
1.99999e-05
-1.15095e-10
1.99999e-05
-1.2171e-10
1.99998e-05
-1.28701e-10
1.99998e-05
-1.36091e-10
1.99998e-05
-1.43909e-10
1.99998e-05
-1.52184e-10
1.99998e-05
-1.60945e-10
1.99998e-05
-1.70228e-10
1.99998e-05
-1.80067e-10
1.99998e-05
-1.90499e-10
1.99997e-05
-2.01566e-10
1.99997e-05
-2.13311e-10
1.99997e-05
-2.25778e-10
1.99997e-05
-2.39018e-10
1.99997e-05
-2.53082e-10
1.99996e-05
-2.68024e-10
1.99996e-05
-2.83904e-10
1.99996e-05
-3.00783e-10
1.99996e-05
-3.18726e-10
1.99995e-05
-3.37804e-10
1.99995e-05
-3.58089e-10
1.99995e-05
-3.79658e-10
1.99994e-05
-4.02594e-10
1.99994e-05
-4.2698e-10
1.99994e-05
-4.52908e-10
1.99993e-05
-4.80471e-10
1.99993e-05
-5.09768e-10
1.99993e-05
-5.40902e-10
1.99992e-05
-5.73978e-10
1.99992e-05
-6.09109e-10
1.99991e-05
-6.46407e-10
1.99991e-05
-6.85992e-10
1.9999e-05
-7.27983e-10
1.9999e-05
-7.72503e-10
1.99989e-05
-8.19676e-10
1.99989e-05
-8.69624e-10
1.99988e-05
-9.22471e-10
1.99987e-05
-9.78334e-10
1.99987e-05
-1.03733e-09
1.99986e-05
-1.09955e-09
1.99986e-05
-1.1651e-09
1.99985e-05
-1.23405e-09
1.99984e-05
-1.30644e-09
1.99984e-05
-1.3823e-09
1.99983e-05
-1.46162e-09
1.99982e-05
-1.54432e-09
1.99981e-05
-1.63028e-09
1.99981e-05
-1.7193e-09
1.9998e-05
-1.81107e-09
1.99979e-05
-1.90519e-09
1.99979e-05
-2.00109e-09
1.99978e-05
-2.09806e-09
1.99977e-05
-2.19518e-09
1.99976e-05
-2.29128e-09
1.99976e-05
-2.38495e-09
1.99975e-05
-2.47443e-09
1.99975e-05
-2.55766e-09
1.99974e-05
-2.63213e-09
1.99974e-05
-2.69488e-09
1.99973e-05
-2.7426e-09
-2.77222e-09
2e-05
-6.4022e-13
2e-05
-2.0032e-12
2e-05
-3.39339e-12
2e-05
-4.78347e-12
2e-05
-6.17687e-12
2e-05
-7.58201e-12
2e-05
-9.00709e-12
2e-05
-1.04596e-11
2e-05
-1.19462e-11
2e-05
-1.3473e-11
2e-05
-1.50455e-11
2e-05
-1.66686e-11
2e-05
-1.83472e-11
2e-05
-2.0086e-11
2e-05
-2.18893e-11
2e-05
-2.37618e-11
2e-05
-2.57079e-11
2e-05
-2.77323e-11
2e-05
-2.98398e-11
2e-05
-3.20353e-11
2e-05
-3.43241e-11
2e-05
-3.67116e-11
2e-05
-3.92036e-11
2e-05
-4.18063e-11
2e-05
-4.45263e-11
2e-05
-4.73705e-11
2e-05
-5.03464e-11
2e-05
-5.34622e-11
1.99999e-05
-5.67265e-11
1.99999e-05
-6.01485e-11
1.99999e-05
-6.37382e-11
1.99999e-05
-6.75065e-11
1.99999e-05
-7.14649e-11
1.99999e-05
-7.56259e-11
1.99999e-05
-8.00029e-11
1.99999e-05
-8.46104e-11
1.99999e-05
-8.94639e-11
1.99999e-05
-9.45804e-11
1.99999e-05
-9.99777e-11
1.99999e-05
-1.05675e-10
1.99999e-05
-1.11694e-10
1.99998e-05
-1.18057e-10
1.99998e-05
-1.24787e-10
1.99998e-05
-1.31912e-10
1.99998e-05
-1.39457e-10
1.99998e-05
-1.47454e-10
1.99998e-05
-1.55935e-10
1.99998e-05
-1.64933e-10
1.99998e-05
-1.74485e-10
1.99997e-05
-1.8463e-10
1.99997e-05
-1.9541e-10
1.99997e-05
-2.0687e-10
1.99997e-05
-2.19057e-10
1.99997e-05
-2.32023e-10
1.99996e-05
-2.45821e-10
1.99996e-05
-2.60508e-10
1.99996e-05
-2.76146e-10
1.99996e-05
-2.92801e-10
1.99995e-05
-3.10539e-10
1.99995e-05
-3.29436e-10
1.99995e-05
-3.49566e-10
1.99994e-05
-3.71013e-10
1.99994e-05
-3.93863e-10
1.99994e-05
-4.18204e-10
1.99993e-05
-4.44134e-10
1.99993e-05
-4.71751e-10
1.99993e-05
-5.01161e-10
1.99992e-05
-5.32472e-10
1.99992e-05
-5.65799e-10
1.99991e-05
-6.0126e-10
1.99991e-05
-6.38976e-10
1.9999e-05
-6.79074e-10
1.9999e-05
-7.21682e-10
1.99989e-05
-7.66932e-10
1.99989e-05
-8.14956e-10
1.99988e-05
-8.65886e-10
1.99988e-05
-9.19851e-10
1.99987e-05
-9.76977e-10
1.99986e-05
-1.03738e-09
1.99986e-05
-1.10118e-09
1.99985e-05
-1.16846e-09
1.99984e-05
-1.23929e-09
1.99984e-05
-1.31372e-09
1.99983e-05
-1.39177e-09
1.99982e-05
-1.47339e-09
1.99982e-05
-1.55849e-09
1.99981e-05
-1.64692e-09
1.9998e-05
-1.7384e-09
1.99979e-05
-1.83258e-09
1.99979e-05
-1.92895e-09
1.99978e-05
-2.02684e-09
1.99977e-05
-2.12539e-09
1.99977e-05
-2.22347e-09
1.99976e-05
-2.3197e-09
1.99975e-05
-2.41234e-09
1.99975e-05
-2.49928e-09
1.99974e-05
-2.57787e-09
1.99974e-05
-2.64482e-09
1.99973e-05
-2.69607e-09
-2.72587e-09
2e-05
-5.7227e-13
2e-05
-1.81017e-12
2e-05
-3.08925e-12
2e-05
-4.38047e-12
2e-05
-5.68265e-12
2e-05
-7.00004e-12
2e-05
-8.33776e-12
2e-05
-9.70112e-12
2e-05
-1.10952e-11
2e-05
-1.2525e-11
2e-05
-1.39951e-11
2e-05
-1.55097e-11
2e-05
-1.7073e-11
2e-05
-1.86891e-11
2e-05
-2.03619e-11
2e-05
-2.20954e-11
2e-05
-2.38935e-11
2e-05
-2.57604e-11
2e-05
-2.77002e-11
2e-05
-2.97174e-11
2e-05
-3.18164e-11
2e-05
-3.40023e-11
2e-05
-3.628e-11
2e-05
-3.86551e-11
2e-05
-4.11335e-11
2e-05
-4.37213e-11
2e-05
-4.64254e-11
2e-05
-4.9253e-11
1.99999e-05
-5.2212e-11
1.99999e-05
-5.53107e-11
1.99999e-05
-5.85583e-11
1.99999e-05
-6.19646e-11
1.99999e-05
-6.55402e-11
1.99999e-05
-6.92967e-11
1.99999e-05
-7.32465e-11
1.99999e-05
-7.74031e-11
1.99999e-05
-8.17808e-11
1.99999e-05
-8.63955e-11
1.99999e-05
-9.1264e-11
1.99999e-05
-9.64047e-11
1.99999e-05
-1.01837e-10
1.99999e-05
-1.07583e-10
1.99998e-05
-1.13664e-10
1.99998e-05
-1.20107e-10
1.99998e-05
-1.26936e-10
1.99998e-05
-1.34182e-10
1.99998e-05
-1.41874e-10
1.99998e-05
-1.50045e-10
1.99998e-05
-1.58732e-10
1.99997e-05
-1.67971e-10
1.99997e-05
-1.77803e-10
1.99997e-05
-1.88273e-10
1.99997e-05
-1.99426e-10
1.99997e-05
-2.11312e-10
1.99996e-05
-2.23984e-10
1.99996e-05
-2.375e-10
1.99996e-05
-2.51919e-10
1.99996e-05
-2.67305e-10
1.99995e-05
-2.83727e-10
1.99995e-05
-3.01258e-10
1.99995e-05
-3.19974e-10
1.99995e-05
-3.39957e-10
1.99994e-05
-3.61294e-10
1.99994e-05
-3.84075e-10
1.99994e-05
-4.08397e-10
1.99993e-05
-4.34361e-10
1.99993e-05
-4.62073e-10
1.99992e-05
-4.91646e-10
1.99992e-05
-5.23196e-10
1.99991e-05
-5.56845e-10
1.99991e-05
-5.92719e-10
1.99991e-05
-6.30949e-10
1.9999e-05
-6.7167e-10
1.9999e-05
-7.1502e-10
1.99989e-05
-7.6114e-10
1.99988e-05
-8.10171e-10
1.99988e-05
-8.62255e-10
1.99987e-05
-9.17528e-10
1.99987e-05
-9.76125e-10
1.99986e-05
-1.03817e-09
1.99985e-05
-1.10378e-09
1.99985e-05
-1.17303e-09
1.99984e-05
-1.24602e-09
1.99983e-05
-1.32276e-09
1.99983e-05
-1.40325e-09
1.99982e-05
-1.48744e-09
1.99981e-05
-1.57519e-09
1.9998e-05
-1.66628e-09
1.9998e-05
-1.76039e-09
1.99979e-05
-1.85706e-09
1.99978e-05
-1.95565e-09
1.99978e-05
-2.05533e-09
1.99977e-05
-2.15503e-09
1.99976e-05
-2.25336e-09
1.99976e-05
-2.34858e-09
1.99975e-05
-2.43848e-09
1.99974e-05
-2.52026e-09
1.99974e-05
-2.5903e-09
1.99973e-05
-2.64388e-09
-2.67409e-09
2e-05
-5.13677e-13
2e-05
-1.63645e-12
2e-05
-2.80811e-12
2e-05
-4.00027e-12
2e-05
-5.20941e-12
2e-05
-6.43702e-12
2e-05
-7.68576e-12
2e-05
-8.95893e-12
2e-05
-1.02602e-11
2e-05
-1.15931e-11
2e-05
-1.29614e-11
2e-05
-1.43685e-11
2e-05
-1.5818e-11
2e-05
-1.73132e-11
2e-05
-1.88576e-11
2e-05
-2.04544e-11
2e-05
-2.21071e-11
2e-05
-2.38193e-11
2e-05
-2.55945e-11
2e-05
-2.74366e-11
2e-05
-2.93496e-11
2e-05
-3.13376e-11
2e-05
-3.34052e-11
2e-05
-3.55571e-11
2e-05
-3.77986e-11
2e-05
-4.01352e-11
2e-05
-4.25729e-11
2e-05
-4.51181e-11
1.99999e-05
-4.77778e-11
1.99999e-05
-5.05598e-11
1.99999e-05
-5.34721e-11
1.99999e-05
-5.65238e-11
1.99999e-05
-5.97245e-11
1.99999e-05
-6.30849e-11
1.99999e-05
-6.66163e-11
1.99999e-05
-7.03311e-11
1.99999e-05
-7.42429e-11
1.99999e-05
-7.83662e-11
1.99999e-05
-8.27169e-11
1.99999e-05
-8.73122e-11
1.99999e-05
-9.21705e-11
1.99999e-05
-9.7312e-11
1.99998e-05
-1.02758e-10
1.99998e-05
-1.08533e-10
1.99998e-05
-1.14662e-10
1.99998e-05
-1.21171e-10
1.99998e-05
-1.28091e-10
1.99998e-05
-1.35454e-10
1.99998e-05
-1.43293e-10
1.99997e-05
-1.51645e-10
1.99997e-05
-1.60549e-10
1.99997e-05
-1.70049e-10
1.99997e-05
-1.80189e-10
1.99997e-05
-1.91019e-10
1.99996e-05
-2.02589e-10
1.99996e-05
-2.14957e-10
1.99996e-05
-2.28181e-10
1.99996e-05
-2.42326e-10
1.99996e-05
-2.57458e-10
1.99995e-05
-2.73651e-10
1.99995e-05
-2.9098e-10
1.99995e-05
-3.09529e-10
1.99994e-05
-3.29383e-10
1.99994e-05
-3.50633e-10
1.99994e-05
-3.73379e-10
1.99993e-05
-3.97721e-10
1.99993e-05
-4.23768e-10
1.99993e-05
-4.51634e-10
1.99992e-05
-4.81438e-10
1.99992e-05
-5.13306e-10
1.99991e-05
-5.47369e-10
1.99991e-05
-5.83761e-10
1.9999e-05
-6.22623e-10
1.9999e-05
-6.64101e-10
1.99989e-05
-7.08343e-10
1.99989e-05
-7.55498e-10
1.99988e-05
-8.05718e-10
1.99987e-05
-8.59153e-10
1.99987e-05
-9.1595e-10
1.99986e-05
-9.76248e-10
1.99986e-05
-1.04018e-09
1.99985e-05
-1.10785e-09
1.99984e-05
-1.17935e-09
1.99984e-05
-1.25475e-09
1.99983e-05
-1.33407e-09
1.99982e-05
-1.41727e-09
1.99982e-05
-1.50425e-09
1.99981e-05
-1.59483e-09
1.9998e-05
-1.68871e-09
1.99979e-05
-1.78547e-09
1.99979e-05
-1.88451e-09
1.99978e-05
-1.98503e-09
1.99977e-05
-2.08596e-09
1.99977e-05
-2.18591e-09
1.99976e-05
-2.2831e-09
1.99975e-05
-2.37524e-09
1.99975e-05
-2.45938e-09
1.99974e-05
-2.53162e-09
1.99974e-05
-2.58687e-09
-2.61849e-09
2e-05
-4.61668e-13
2e-05
-1.47853e-12
2e-05
-2.54771e-12
2e-05
-3.64251e-12
2e-05
-4.75853e-12
2e-05
-5.89554e-12
2e-05
-7.05439e-12
2e-05
-8.23678e-12
2e-05
-9.44492e-12
2e-05
-1.06813e-11
2e-05
-1.19486e-11
2e-05
-1.32494e-11
2e-05
-1.45866e-11
2e-05
-1.59629e-11
2e-05
-1.73809e-11
2e-05
-1.88436e-11
2e-05
-2.03538e-11
2e-05
-2.19145e-11
2e-05
-2.35286e-11
2e-05
-2.51994e-11
2e-05
-2.69303e-11
2e-05
-2.8725e-11
2e-05
-3.05872e-11
2e-05
-3.25211e-11
2e-05
-3.45312e-11
2e-05
-3.66223e-11
2e-05
-3.87997e-11
2e-05
-4.10691e-11
1.99999e-05
-4.34368e-11
1.99999e-05
-4.59095e-11
1.99999e-05
-4.84945e-11
1.99999e-05
-5.12001e-11
1.99999e-05
-5.4035e-11
1.99999e-05
-5.70087e-11
1.99999e-05
-6.01318e-11
1.99999e-05
-6.34158e-11
1.99999e-05
-6.68729e-11
1.99999e-05
-7.05169e-11
1.99999e-05
-7.43625e-11
1.99999e-05
-7.84256e-11
1.99999e-05
-8.27238e-11
1.99999e-05
-8.72761e-11
1.99998e-05
-9.21029e-11
1.99998e-05
-9.72266e-11
1.99998e-05
-1.02671e-10
1.99998e-05
-1.08463e-10
1.99998e-05
-1.14631e-10
1.99998e-05
-1.21204e-10
1.99998e-05
-1.28216e-10
1.99998e-05
-1.35703e-10
1.99997e-05
-1.43702e-10
1.99997e-05
-1.52256e-10
1.99997e-05
-1.61408e-10
1.99997e-05
-1.71207e-10
1.99997e-05
-1.81702e-10
1.99996e-05
-1.9295e-10
1.99996e-05
-2.05008e-10
1.99996e-05
-2.17941e-10
1.99996e-05
-2.31814e-10
1.99995e-05
-2.467e-10
1.99995e-05
-2.62676e-10
1.99995e-05
-2.79823e-10
1.99994e-05
-2.98229e-10
1.99994e-05
-3.17984e-10
1.99994e-05
-3.39188e-10
1.99993e-05
-3.61944e-10
1.99993e-05
-3.86361e-10
1.99993e-05
-4.12557e-10
1.99992e-05
-4.40652e-10
1.99992e-05
-4.70775e-10
1.99991e-05
-5.03061e-10
1.99991e-05
-5.37649e-10
1.9999e-05
-5.74686e-10
1.9999e-05
-6.14322e-10
1.99989e-05
-6.56712e-10
1.99989e-05
-7.02017e-10
1.99988e-05
-7.50395e-10
1.99988e-05
-8.02008e-10
1.99987e-05
-8.57015e-10
1.99987e-05
-9.1557e-10
1.99986e-05
-9.77817e-10
1.99985e-05
-1.04389e-09
1.99985e-05
-1.11389e-09
1.99984e-05
-1.18791e-09
1.99983e-05
-1.26598e-09
1.99983e-05
-1.34811e-09
1.99982e-05
-1.43422e-09
1.99981e-05
-1.52415e-09
1.99981e-05
-1.61763e-09
1.9998e-05
-1.71428e-09
1.99979e-05
-1.8135e-09
1.99978e-05
-1.91453e-09
1.99978e-05
-2.01629e-09
1.99977e-05
-2.11738e-09
1.99976e-05
-2.21599e-09
1.99976e-05
-2.30973e-09
1.99975e-05
-2.39553e-09
1.99974e-05
-2.46933e-09
1.99974e-05
-2.52591e-09
-2.55906e-09
2e-05
-4.14538e-13
2e-05
-1.33369e-12
2e-05
-2.30575e-12
2e-05
-3.30614e-12
2e-05
-4.33029e-12
2e-05
-5.37703e-12
2e-05
-6.44599e-12
2e-05
-7.53759e-12
2e-05
-8.65286e-12
2e-05
-9.79324e-12
2e-05
-1.09604e-11
2e-05
-1.21563e-11
2e-05
-1.33829e-11
2e-05
-1.46423e-11
2e-05
-1.59366e-11
2e-05
-1.7268e-11
2e-05
-1.86388e-11
2e-05
-2.00514e-11
2e-05
-2.15083e-11
2e-05
-2.3012e-11
2e-05
-2.45654e-11
2e-05
-2.61716e-11
2e-05
-2.78336e-11
2e-05
-2.95552e-11
2e-05
-3.13399e-11
2e-05
-3.31921e-11
2e-05
-3.51163e-11
2e-05
-3.71173e-11
2e-05
-3.92008e-11
1.99999e-05
-4.13726e-11
1.99999e-05
-4.36394e-11
1.99999e-05
-4.60084e-11
1.99999e-05
-4.84875e-11
1.99999e-05
-5.10853e-11
1.99999e-05
-5.38116e-11
1.99999e-05
-5.66766e-11
1.99999e-05
-5.96919e-11
1.99999e-05
-6.287e-11
1.99999e-05
-6.62246e-11
1.99999e-05
-6.97707e-11
1.99999e-05
-7.35246e-11
1.99999e-05
-7.75043e-11
1.99999e-05
-8.1729e-11
1.99998e-05
-8.62201e-11
1.99998e-05
-9.10004e-11
1.99998e-05
-9.60949e-11
1.99998e-05
-1.01531e-10
1.99998e-05
-1.07337e-10
1.99998e-05
-1.13546e-10
1.99998e-05
-1.20192e-10
1.99997e-05
-1.27312e-10
1.99997e-05
-1.34947e-10
1.99997e-05
-1.43138e-10
1.99997e-05
-1.51934e-10
1.99997e-05
-1.61385e-10
1.99996e-05
-1.71543e-10
1.99996e-05
-1.82468e-10
1.99996e-05
-1.94222e-10
1.99996e-05
-2.06871e-10
1.99995e-05
-2.20486e-10
1.99995e-05
-2.35144e-10
1.99995e-05
-2.50927e-10
1.99995e-05
-2.67922e-10
1.99994e-05
-2.86221e-10
1.99994e-05
-3.05922e-10
1.99994e-05
-3.27132e-10
1.99993e-05
-3.4996e-10
1.99993e-05
-3.74525e-10
1.99992e-05
-4.00951e-10
1.99992e-05
-4.29369e-10
1.99992e-05
-4.59917e-10
1.99991e-05
-4.92738e-10
1.99991e-05
-5.27985e-10
1.9999e-05
-5.65813e-10
1.9999e-05
-6.06383e-10
1.99989e-05
-6.49864e-10
1.99989e-05
-6.96423e-10
1.99988e-05
-7.46232e-10
1.99988e-05
-7.9946e-10
1.99987e-05
-8.56275e-10
1.99986e-05
-9.16834e-10
1.99986e-05
-9.81284e-10
1.99985e-05
-1.04975e-09
1.99984e-05
-1.12234e-09
1.99984e-05
-1.19911e-09
1.99983e-05
-1.28008e-09
1.99982e-05
-1.3652e-09
1.99982e-05
-1.45434e-09
1.99981e-05
-1.54725e-09
1.9998e-05
-1.64356e-09
1.9998e-05
-1.74271e-09
1.99979e-05
-1.84391e-09
1.99978e-05
-1.94612e-09
1.99977e-05
-2.04792e-09
1.99977e-05
-2.14743e-09
1.99976e-05
-2.24223e-09
1.99975e-05
-2.32914e-09
1.99975e-05
-2.40401e-09
1.99974e-05
-2.46159e-09
-2.49572e-09
2e-05
-3.71296e-13
2e-05
-1.19987e-12
2e-05
-2.08024e-12
2e-05
-2.98983e-12
2e-05
-3.92434e-12
2e-05
-4.88213e-12
2e-05
-5.86203e-12
2e-05
-6.86353e-12
2e-05
-7.88668e-12
2e-05
-8.93202e-12
2e-05
-1.00004e-11
2e-05
-1.10929e-11
2e-05
-1.22109e-11
2e-05
-1.33557e-11
2e-05
-1.45289e-11
2e-05
-1.57321e-11
2e-05
-1.69669e-11
2e-05
-1.82353e-11
2e-05
-1.9539e-11
2e-05
-2.08802e-11
2e-05
-2.22611e-11
2e-05
-2.36841e-11
2e-05
-2.51519e-11
2e-05
-2.66672e-11
2e-05
-2.82333e-11
2e-05
-2.98537e-11
2e-05
-3.15322e-11
2e-05
-3.3273e-11
2e-05
-3.5081e-11
1.99999e-05
-3.69612e-11
1.99999e-05
-3.89196e-11
1.99999e-05
-4.09624e-11
1.99999e-05
-4.30968e-11
1.99999e-05
-4.53306e-11
1.99999e-05
-4.76724e-11
1.99999e-05
-5.01317e-11
1.99999e-05
-5.27191e-11
1.99999e-05
-5.54461e-11
1.99999e-05
-5.83253e-11
1.99999e-05
-6.13709e-11
1.99999e-05
-6.45979e-11
1.99999e-05
-6.80232e-11
1.99999e-05
-7.16652e-11
1.99998e-05
-7.55438e-11
1.99998e-05
-7.96809e-11
1.99998e-05
-8.41004e-11
1.99998e-05
-8.88282e-11
1.99998e-05
-9.38925e-11
1.99998e-05
-9.93239e-11
1.99998e-05
-1.05156e-10
1.99997e-05
-1.11424e-10
1.99997e-05
-1.18168e-10
1.99997e-05
-1.2543e-10
1.99997e-05
-1.33255e-10
1.99997e-05
-1.41693e-10
1.99997e-05
-1.50797e-10
1.99996e-05
-1.60623e-10
1.99996e-05
-1.71234e-10
1.99996e-05
-1.82696e-10
1.99996e-05
-1.95079e-10
1.99995e-05
-2.08459e-10
1.99995e-05
-2.22918e-10
1.99995e-05
-2.38544e-10
1.99994e-05
-2.55428e-10
1.99994e-05
-2.7367e-10
1.99994e-05
-2.93376e-10
1.99993e-05
-3.14659e-10
1.99993e-05
-3.37637e-10
1.99993e-05
-3.62437e-10
1.99992e-05
-3.89192e-10
1.99992e-05
-4.18044e-10
1.99991e-05
-4.49139e-10
1.99991e-05
-4.82634e-10
1.99991e-05
-5.1869e-10
1.9999e-05
-5.57474e-10
1.9999e-05
-5.9916e-10
1.99989e-05
-6.43925e-10
1.99988e-05
-6.91948e-10
1.99988e-05
-7.4341e-10
1.99987e-05
-7.98488e-10
1.99987e-05
-8.57353e-10
1.99986e-05
-9.20165e-10
1.99985e-05
-9.87068e-10
1.99985e-05
-1.05818e-09
1.99984e-05
-1.13358e-09
1.99984e-05
-1.2133e-09
1.99983e-05
-1.29732e-09
1.99982e-05
-1.38552e-09
1.99981e-05
-1.47768e-09
1.99981e-05
-1.57343e-09
1.9998e-05
-1.67223e-09
1.99979e-05
-1.77331e-09
1.99979e-05
-1.8756e-09
1.99978e-05
-1.97768e-09
1.99977e-05
-2.07766e-09
1.99977e-05
-2.17304e-09
1.99976e-05
-2.26059e-09
1.99975e-05
-2.33613e-09
1.99975e-05
-2.39436e-09
-2.42899e-09
2e-05
-3.31344e-13
2e-05
-1.07556e-12
2e-05
-1.86948e-12
2e-05
-2.69228e-12
2e-05
-3.54007e-12
2e-05
-4.41099e-12
2e-05
-5.30341e-12
2e-05
-6.21613e-12
2e-05
-7.14847e-12
2e-05
-8.10018e-12
2e-05
-9.07138e-12
2e-05
-1.00625e-11
2e-05
-1.1074e-11
2e-05
-1.21069e-11
2e-05
-1.31619e-11
2e-05
-1.42402e-11
2e-05
-1.53427e-11
2e-05
-1.64709e-11
2e-05
-1.7626e-11
2e-05
-1.88096e-11
2e-05
-2.00233e-11
2e-05
-2.1269e-11
2e-05
-2.25486e-11
2e-05
-2.38644e-11
2e-05
-2.52191e-11
2e-05
-2.66154e-11
2e-05
-2.80564e-11
2e-05
-2.95459e-11
2e-05
-3.10877e-11
1.99999e-05
-3.26864e-11
1.99999e-05
-3.43469e-11
1.99999e-05
-3.60749e-11
1.99999e-05
-3.78766e-11
1.99999e-05
-3.9759e-11
1.99999e-05
-4.17299e-11
1.99999e-05
-4.37978e-11
1.99999e-05
-4.59724e-11
1.99999e-05
-4.82642e-11
1.99999e-05
-5.06851e-11
1.99999e-05
-5.32478e-11
1.99999e-05
-5.59667e-11
1.99999e-05
-5.88574e-11
1.99999e-05
-6.19374e-11
1.99998e-05
-6.52254e-11
1.99998e-05
-6.87423e-11
1.99998e-05
-7.25108e-11
1.99998e-05
-7.65557e-11
1.99998e-05
-8.09041e-11
1.99998e-05
-8.55856e-11
1.99998e-05
-9.06324e-11
1.99998e-05
-9.60793e-11
1.99997e-05
-1.01964e-10
1.99997e-05
-1.08329e-10
1.99997e-05
-1.15217e-10
1.99997e-05
-1.22678e-10
1.99997e-05
-1.30763e-10
1.99996e-05
-1.39529e-10
1.99996e-05
-1.49036e-10
1.99996e-05
-1.59351e-10
1.99996e-05
-1.70543e-10
1.99996e-05
-1.82687e-10
1.99995e-05
-1.95866e-10
1.99995e-05
-2.10166e-10
1.99995e-05
-2.25681e-10
1.99994e-05
-2.4251e-10
1.99994e-05
-2.60759e-10
1.99994e-05
-2.80542e-10
1.99993e-05
-3.01979e-10
1.99993e-05
-3.25199e-10
1.99993e-05
-3.50338e-10
1.99992e-05
-3.77537e-10
1.99992e-05
-4.0695e-10
1.99991e-05
-4.38734e-10
1.99991e-05
-4.73057e-10
1.9999e-05
-5.10089e-10
1.9999e-05
-5.50012e-10
1.99989e-05
-5.93008e-10
1.99989e-05
-6.39265e-10
1.99988e-05
-6.88973e-10
1.99988e-05
-7.42318e-10
1.99987e-05
-7.99482e-10
1.99987e-05
-8.60638e-10
1.99986e-05
-9.25942e-10
1.99985e-05
-9.95525e-10
1.99985e-05
-1.06948e-09
1.99984e-05
-1.14787e-09
1.99983e-05
-1.23067e-09
1.99983e-05
-1.31779e-09
1.99982e-05
-1.40901e-09
1.99981e-05
-1.50399e-09
1.99981e-05
-1.60219e-09
1.9998e-05
-1.70285e-09
1.99979e-05
-1.80489e-09
1.99978e-05
-1.90689e-09
1.99978e-05
-2.00692e-09
1.99977e-05
-2.10247e-09
1.99976e-05
-2.19027e-09
1.99976e-05
-2.26611e-09
1.99975e-05
-2.32466e-09
-2.35951e-09
2e-05
-2.94264e-13
2e-05
-9.59674e-13
2e-05
-1.67216e-12
2e-05
-2.41233e-12
2e-05
-3.17671e-12
2e-05
-3.96344e-12
2e-05
-4.77056e-12
2e-05
-5.59643e-12
2e-05
-6.43978e-12
2e-05
-7.29974e-12
2e-05
-8.17579e-12
2e-05
-9.06769e-12
2e-05
-9.97542e-12
2e-05
-1.08992e-11
2e-05
-1.18393e-11
2e-05
-1.27962e-11
2e-05
-1.37705e-11
2e-05
-1.47629e-11
2e-05
-1.57742e-11
2e-05
-1.68054e-11
2e-05
-1.78576e-11
2e-05
-1.8932e-11
2e-05
-2.00301e-11
2e-05
-2.11536e-11
2e-05
-2.23045e-11
2e-05
-2.34849e-11
2e-05
-2.46973e-11
2e-05
-2.59447e-11
2e-05
-2.72304e-11
2e-05
-2.85582e-11
1.99999e-05
-2.99322e-11
1.99999e-05
-3.13575e-11
1.99999e-05
-3.28393e-11
1.99999e-05
-3.43839e-11
1.99999e-05
-3.59983e-11
1.99999e-05
-3.769e-11
1.99999e-05
-3.9468e-11
1.99999e-05
-4.13417e-11
1.99999e-05
-4.3322e-11
1.99999e-05
-4.54209e-11
1.99999e-05
-4.76517e-11
1.99999e-05
-5.0029e-11
1.99999e-05
-5.2569e-11
1.99999e-05
-5.52898e-11
1.99998e-05
-5.82109e-11
1.99998e-05
-6.1354e-11
1.99998e-05
-6.47429e-11
1.99998e-05
-6.84036e-11
1.99998e-05
-7.23645e-11
1.99998e-05
-7.66568e-11
1.99998e-05
-8.13142e-11
1.99998e-05
-8.63738e-11
1.99997e-05
-9.18756e-11
1.99997e-05
-9.78632e-11
1.99997e-05
-1.04384e-10
1.99997e-05
-1.11489e-10
1.99997e-05
-1.19235e-10
1.99996e-05
-1.2768e-10
1.99996e-05
-1.3689e-10
1.99996e-05
-1.46934e-10
1.99996e-05
-1.57888e-10
1.99995e-05
-1.69833e-10
1.99995e-05
-1.82855e-10
1.99995e-05
-1.97048e-10
1.99995e-05
-2.12511e-10
1.99994e-05
-2.29352e-10
1.99994e-05
-2.47684e-10
1.99994e-05
-2.6763e-10
1.99993e-05
-2.89319e-10
1.99993e-05
-3.12887e-10
1.99992e-05
-3.38482e-10
1.99992e-05
-3.66257e-10
1.99992e-05
-3.96374e-10
1.99991e-05
-4.29003e-10
1.99991e-05
-4.64321e-10
1.9999e-05
-5.02512e-10
1.9999e-05
-5.43767e-10
1.99989e-05
-5.88279e-10
1.99989e-05
-6.36246e-10
1.99988e-05
-6.87862e-10
1.99988e-05
-7.43319e-10
1.99987e-05
-8.028e-10
1.99986e-05
-8.66472e-10
1.99986e-05
-9.34478e-10
1.99985e-05
-1.00693e-09
1.99985e-05
-1.08389e-09
1.99984e-05
-1.16535e-09
1.99983e-05
-1.25124e-09
1.99983e-05
-1.34136e-09
1.99982e-05
-1.43536e-09
1.99981e-05
-1.53273e-09
1.9998e-05
-1.63269e-09
1.9998e-05
-1.73418e-09
1.99979e-05
-1.83575e-09
1.99978e-05
-1.93548e-09
1.99978e-05
-2.03084e-09
1.99977e-05
-2.11853e-09
1.99976e-05
-2.19435e-09
1.99975e-05
-2.25294e-09
-2.28782e-09
2e-05
-2.59727e-13
2e-05
-8.51401e-13
2e-05
-1.4872e-12
2e-05
-2.14895e-12
2e-05
-2.83353e-12
2e-05
-3.53913e-12
2e-05
-4.26364e-12
2e-05
-5.00508e-12
2e-05
-5.76176e-12
2e-05
-6.5323e-12
2e-05
-7.31564e-12
2e-05
-8.11097e-12
2e-05
-8.91773e-12
2e-05
-9.73554e-12
2e-05
-1.05642e-11
2e-05
-1.14037e-11
2e-05
-1.22539e-11
2e-05
-1.31152e-11
2e-05
-1.39879e-11
2e-05
-1.48722e-11
2e-05
-1.57689e-11
2e-05
-1.66786e-11
2e-05
-1.76023e-11
2e-05
-1.8541e-11
2e-05
-1.94961e-11
2e-05
-2.04693e-11
2e-05
-2.14624e-11
2e-05
-2.24777e-11
2e-05
-2.35178e-11
2e-05
-2.45859e-11
1.99999e-05
-2.56855e-11
1.99999e-05
-2.68207e-11
1.99999e-05
-2.79962e-11
1.99999e-05
-2.92174e-11
1.99999e-05
-3.04904e-11
1.99999e-05
-3.18221e-11
1.99999e-05
-3.32204e-11
1.99999e-05
-3.4694e-11
1.99999e-05
-3.62528e-11
1.99999e-05
-3.79079e-11
1.99999e-05
-3.96716e-11
1.99999e-05
-4.15576e-11
1.99999e-05
-4.35812e-11
1.99999e-05
-4.57591e-11
1.99999e-05
-4.81102e-11
1.99998e-05
-5.0655e-11
1.99998e-05
-5.34162e-11
1.99998e-05
-5.64187e-11
1.99998e-05
-5.969e-11
1.99998e-05
-6.32601e-11
1.99998e-05
-6.71617e-11
1.99998e-05
-7.14307e-11
1.99997e-05
-7.61064e-11
1.99997e-05
-8.12312e-11
1.99997e-05
-8.68515e-11
1.99997e-05
-9.30177e-11
1.99997e-05
-9.97844e-11
1.99997e-05
-1.07211e-10
1.99996e-05
-1.15361e-10
1.99996e-05
-1.24304e-10
1.99996e-05
-1.34114e-10
1.99996e-05
-1.44872e-10
1.99995e-05
-1.56665e-10
1.99995e-05
-1.69586e-10
1.99995e-05
-1.83734e-10
1.99994e-05
-1.99218e-10
1.99994e-05
-2.16151e-10
1.99994e-05
-2.34656e-10
1.99993e-05
-2.54864e-10
1.99993e-05
-2.76913e-10
1.99993e-05
-3.00951e-10
1.99992e-05
-3.27135e-10
1.99992e-05
-3.55629e-10
1.99992e-05
-3.86606e-10
1.99991e-05
-4.20248e-10
1.99991e-05
-4.56742e-10
1.9999e-05
-4.96284e-10
1.9999e-05
-5.39073e-10
1.99989e-05
-5.85312e-10
1.99989e-05
-6.35205e-10
1.99988e-05
-6.8895e-10
1.99988e-05
-7.46738e-10
1.99987e-05
-8.08746e-10
1.99986e-05
-8.75128e-10
1.99986e-05
-9.46003e-10
1.99985e-05
-1.02145e-09
1.99984e-05
-1.10147e-09
1.99984e-05
-1.186e-09
1.99983e-05
-1.27484e-09
1.99982e-05
-1.36767e-09
1.99982e-05
-1.46397e-09
1.99981e-05
-1.56298e-09
1.9998e-05
-1.66364e-09
1.9998e-05
-1.76449e-09
1.99979e-05
-1.8636e-09
1.99978e-05
-1.95844e-09
1.99978e-05
-2.04572e-09
1.99977e-05
-2.12123e-09
1.99976e-05
-2.17963e-09
-2.2144e-09
2e-05
-2.2748e-13
2e-05
-7.50138e-13
2e-05
-1.31379e-12
2e-05
-1.90129e-12
2e-05
-2.50983e-12
2e-05
-3.13767e-12
2e-05
-3.78262e-12
2e-05
-4.44247e-12
2e-05
-5.11522e-12
2e-05
-5.79907e-12
2e-05
-6.4925e-12
2e-05
-7.19424e-12
2e-05
-7.90323e-12
2e-05
-8.6186e-12
2e-05
-9.33964e-12
2e-05
-1.00658e-11
2e-05
-1.07966e-11
2e-05
-1.15317e-11
2e-05
-1.2271e-11
2e-05
-1.30144e-11
2e-05
-1.37619e-11
2e-05
-1.45137e-11
2e-05
-1.52702e-11
2e-05
-1.60321e-11
2e-05
-1.68e-11
2e-05
-1.7575e-11
2e-05
-1.83585e-11
2e-05
-1.9152e-11
2e-05
-1.99577e-11
2e-05
-2.07779e-11
2e-05
-2.16156e-11
1.99999e-05
-2.24741e-11
1.99999e-05
-2.33574e-11
1.99999e-05
-2.42701e-11
1.99999e-05
-2.52177e-11
1.99999e-05
-2.62062e-11
1.99999e-05
-2.72426e-11
1.99999e-05
-2.83349e-11
1.99999e-05
-2.94921e-11
1.99999e-05
-3.07244e-11
1.99999e-05
-3.20431e-11
1.99999e-05
-3.3461e-11
1.99999e-05
-3.49924e-11
1.99999e-05
-3.66533e-11
1.99999e-05
-3.84612e-11
1.99998e-05
-4.04359e-11
1.99998e-05
-4.25989e-11
1.99998e-05
-4.49741e-11
1.99998e-05
-4.75881e-11
1.99998e-05
-5.04696e-11
1.99998e-05
-5.36505e-11
1.99998e-05
-5.71656e-11
1.99998e-05
-6.10531e-11
1.99997e-05
-6.53545e-11
1.99997e-05
-7.01152e-11
1.99997e-05
-7.53845e-11
1.99997e-05
-8.12164e-11
1.99997e-05
-8.76689e-11
1.99996e-05
-9.48054e-11
1.99996e-05
-1.02694e-10
1.99996e-05
-1.1141e-10
1.99996e-05
-1.21032e-10
1.99996e-05
-1.31647e-10
1.99995e-05
-1.43347e-10
1.99995e-05
-1.56233e-10
1.99995e-05
-1.70411e-10
1.99994e-05
-1.85997e-10
1.99994e-05
-2.03114e-10
1.99994e-05
-2.21894e-10
1.99993e-05
-2.42475e-10
1.99993e-05
-2.65007e-10
1.99993e-05
-2.89649e-10
1.99992e-05
-3.16566e-10
1.99992e-05
-3.45935e-10
1.99991e-05
-3.77939e-10