/*--------------------------------*- C++ -*----------------------------------*\
  =========                 |
  \\      /  F ield         | OpenFOAM: The Open Source CFD Toolbox
   \\    /   O peration     | Website:  https://openfoam.org
    \\  /    A nd           | Version:  11
     \\/     M anipulation  |
\*---------------------------------------------------------------------------*/
FoamFile
{
    format      ascii;
    class       volScalarField;
    location    "240";
    object      p;
}
// * * * * * * * * * * * * * * * * * * * * * * * * * * * * * * * * * * * * * //

dimensions      [0 2 -2 0 0 0 0];

internalField   nonuniform List<scalar> 
10000
(
1.73177e-07
1.69481e-07
1.74991e-07
1.86669e-07
2.00183e-07
2.14517e-07
2.29577e-07
2.4533e-07
2.6175e-07
2.78845e-07
2.96634e-07
3.15143e-07
3.34401e-07
3.54436e-07
3.75274e-07
3.96942e-07
4.19464e-07
4.42861e-07
4.67154e-07
4.92356e-07
5.18482e-07
5.45538e-07
5.73529e-07
6.02453e-07
6.32303e-07
6.63064e-07
6.94714e-07
7.27225e-07
7.60555e-07
7.94656e-07
8.29465e-07
8.64908e-07
9.00898e-07
9.37333e-07
9.74095e-07
1.01105e-06
1.04805e-06
1.08493e-06
1.12152e-06
1.15761e-06
1.19302e-06
1.22753e-06
1.26094e-06
1.29301e-06
1.32354e-06
1.35228e-06
1.37899e-06
1.4033e-06
1.42455e-06
1.44121e-06
1.4536e-06
1.47239e-06
1.4945e-06
1.51044e-06
1.52316e-06
1.53475e-06
1.54054e-06
1.54422e-06
1.55113e-06
1.55342e-06
1.54772e-06
1.54687e-06
1.55174e-06
1.55171e-06
1.54785e-06
1.54145e-06
1.53292e-06
1.52241e-06
1.51002e-06
1.49583e-06
1.47985e-06
1.46211e-06
1.44262e-06
1.42137e-06
1.39836e-06
1.37359e-06
1.34704e-06
1.31869e-06
1.28854e-06
1.25655e-06
1.22271e-06
1.18697e-06
1.14932e-06
1.10969e-06
1.06804e-06
1.02429e-06
9.78375e-07
9.30181e-07
8.7958e-07
8.26409e-07
7.70455e-07
7.11444e-07
6.49005e-07
5.82618e-07
5.11578e-07
4.35122e-07
3.52033e-07
2.5609e-07
1.31374e-07
3.8027e-09
3.46562e-07
3.30862e-07
3.20856e-07
3.24691e-07
3.34676e-07
3.47663e-07
3.62813e-07
3.79688e-07
3.97993e-07
4.17562e-07
4.38309e-07
4.60187e-07
4.83174e-07
5.07266e-07
5.32464e-07
5.58776e-07
5.86213e-07
6.14786e-07
6.44507e-07
6.75384e-07
7.07425e-07
7.40632e-07
7.75005e-07
8.10537e-07
8.47214e-07
8.85017e-07
9.23917e-07
9.63876e-07
1.00484e-06
1.04676e-06
1.08954e-06
1.13311e-06
1.17735e-06
1.22213e-06
1.2673e-06
1.31271e-06
1.35815e-06
1.40343e-06
1.44831e-06
1.49255e-06
1.53588e-06
1.57804e-06
1.61875e-06
1.65773e-06
1.69472e-06
1.72944e-06
1.76165e-06
1.79108e-06
1.81739e-06
1.84014e-06
1.86145e-06
1.88677e-06
1.90467e-06
1.90949e-06
1.91025e-06
1.91461e-06
1.92489e-06
1.93984e-06
1.95618e-06
1.96549e-06
1.96064e-06
1.9526e-06
1.94975e-06
1.94493e-06
1.93718e-06
1.9269e-06
1.91427e-06
1.89932e-06
1.88213e-06
1.86273e-06
1.84113e-06
1.81734e-06
1.79134e-06
1.76312e-06
1.73267e-06
1.69995e-06
1.66495e-06
1.62763e-06
1.58794e-06
1.54586e-06
1.50134e-06
1.45431e-06
1.40473e-06
1.3525e-06
1.29755e-06
1.23977e-06
1.17903e-06
1.11516e-06
1.04797e-06
9.77215e-07
9.02564e-07
8.23605e-07
7.39779e-07
6.50293e-07
5.54105e-07
4.5029e-07
3.37085e-07
2.02152e-07
1.90337e-08
-1.12361e-07
4.49605e-07
4.26303e-07
4.05551e-07
3.99451e-07
4.01078e-07
4.06986e-07
4.16032e-07
4.2754e-07
4.41025e-07
4.56177e-07
4.72801e-07
4.90771e-07
5.10004e-07
5.30448e-07
5.52069e-07
5.74847e-07
5.98769e-07
6.2383e-07
6.50027e-07
6.77359e-07
7.05823e-07
7.35416e-07
7.66134e-07
7.97968e-07
8.30903e-07
8.6492e-07
8.9999e-07
9.36078e-07
9.73137e-07
1.01111e-06
1.04991e-06
1.08947e-06
1.12966e-06
1.17036e-06
1.21143e-06
1.25268e-06
1.29392e-06
1.33494e-06
1.37548e-06
1.41528e-06
1.45408e-06
1.49158e-06
1.5275e-06
1.56156e-06
1.59349e-06
1.62307e-06
1.65011e-06
1.67451e-06
1.69624e-06
1.71546e-06
1.7337e-06
1.75366e-06
1.77301e-06
1.78671e-06
1.79621e-06
1.80215e-06
1.80327e-06
1.80047e-06
1.79506e-06
1.7852e-06
1.77003e-06
1.75612e-06
1.74476e-06
1.73296e-06
1.71974e-06
1.70495e-06
1.68849e-06
1.67031e-06
1.6504e-06
1.62874e-06
1.60533e-06
1.58013e-06
1.55312e-06
1.52428e-06
1.49357e-06
1.46096e-06
1.42639e-06
1.38983e-06
1.35123e-06
1.31052e-06
1.26766e-06
1.22257e-06
1.17517e-06
1.12539e-06
1.07311e-06
1.01821e-06
9.60558e-07
8.99975e-07
8.36249e-07
7.6912e-07
6.98258e-07
6.23245e-07
5.43534e-07
4.58357e-07
3.66797e-07
2.6839e-07
1.61861e-07
3.22704e-08
-1.49593e-07
-2.2564e-07
5.43499e-07
5.1746e-07
4.94389e-07
4.84301e-07
4.81721e-07
4.83837e-07
4.89595e-07
4.98286e-07
5.09363e-07
5.22453e-07
5.37301e-07
5.53733e-07
5.71627e-07
5.90899e-07
6.11487e-07
6.33353e-07
6.56466e-07
6.80808e-07
7.06365e-07
7.33127e-07
7.61085e-07
7.9023e-07
8.20553e-07
8.5204e-07
8.84675e-07
9.18433e-07
9.53284e-07
9.89189e-07
1.0261e-06
1.06394e-06
1.10265e-06
1.14211e-06
1.18222e-06
1.22283e-06
1.26378e-06
1.30488e-06
1.34592e-06
1.38664e-06
1.42679e-06
1.46608e-06
1.50421e-06
1.54086e-06
1.57573e-06
1.60853e-06
1.63897e-06
1.66684e-06
1.69195e-06
1.71424e-06
1.73371e-06
1.75051e-06
1.76531e-06
1.77912e-06
1.79138e-06
1.80004e-06
1.80497e-06
1.80602e-06
1.80264e-06
1.79534e-06
1.78501e-06
1.77151e-06
1.75519e-06
1.7386e-06
1.72226e-06
1.70527e-06
1.68717e-06
1.66779e-06
1.647e-06
1.62475e-06
1.60099e-06
1.5757e-06
1.54885e-06
1.52039e-06
1.4903e-06
1.45853e-06
1.42503e-06
1.38977e-06
1.35268e-06
1.31371e-06
1.27279e-06
1.22986e-06
1.18484e-06
1.13766e-06
1.08823e-06
1.03643e-06
9.82163e-07
9.25285e-07
8.65641e-07
8.03045e-07
7.37272e-07
6.6805e-07
5.95048e-07
5.17855e-07
4.35946e-07
3.48612e-07
2.55099e-07
1.55426e-07
4.89013e-08
-8.12971e-08
-2.66919e-07
-3.06873e-07
6.29256e-07
6.03332e-07
5.80454e-07
5.68775e-07
5.63953e-07
5.63838e-07
5.67567e-07
5.74484e-07
5.84056e-07
5.95895e-07
6.09723e-07
6.2534e-07
6.426e-07
6.61397e-07
6.81651e-07
7.03308e-07
7.26325e-07
7.50672e-07
7.76326e-07
8.03268e-07
8.31484e-07
8.6096e-07
8.91679e-07
9.23625e-07
9.56775e-07
9.91102e-07
1.02657e-06
1.06314e-06
1.10074e-06
1.13931e-06
1.17877e-06
1.219e-06
1.25988e-06
1.30125e-06
1.34294e-06
1.38474e-06
1.42641e-06
1.46771e-06
1.50833e-06
1.54798e-06
1.58632e-06
1.62304e-06
1.65779e-06
1.69027e-06
1.72019e-06
1.74732e-06
1.77146e-06
1.79253e-06
1.81051e-06
1.82546e-06
1.83768e-06
1.84755e-06
1.85474e-06
1.85851e-06
1.85875e-06
1.85549e-06
1.84867e-06
1.8386e-06
1.82566e-06
1.80996e-06
1.79189e-06
1.77253e-06
1.75238e-06
1.73126e-06
1.709e-06
1.6855e-06
1.66068e-06
1.63449e-06
1.6069e-06
1.57788e-06
1.54739e-06
1.51538e-06
1.48181e-06
1.44663e-06
1.40979e-06
1.37124e-06
1.3309e-06
1.28871e-06
1.24461e-06
1.1985e-06
1.15031e-06
1.09995e-06
1.04731e-06
9.92281e-07
9.34737e-07
8.74532e-07
8.11498e-07
7.45441e-07
6.76131e-07
6.03296e-07
5.26612e-07
4.4569e-07
3.60046e-07
2.69045e-07
1.7209e-07
6.96089e-08
-3.87408e-08
-1.71854e-07
-3.6406e-07
-3.76943e-07
7.07072e-07
6.82326e-07
6.60174e-07
6.47734e-07
6.41489e-07
6.3978e-07
6.41935e-07
6.47387e-07
6.55649e-07
6.66345e-07
6.79196e-07
6.93994e-07
7.10577e-07
7.28827e-07
7.48653e-07
7.69987e-07
7.92776e-07
8.16982e-07
8.42572e-07
8.69522e-07
8.97811e-07
9.27418e-07
9.58323e-07
9.90504e-07
1.02393e-06
1.05858e-06
1.0944e-06
1.13136e-06
1.16937e-06
1.20837e-06
1.24827e-06
1.28894e-06
1.33025e-06
1.37204e-06
1.41412e-06
1.45628e-06
1.49825e-06
1.53977e-06
1.58054e-06
1.62024e-06
1.65851e-06
1.69502e-06
1.72943e-06
1.76141e-06
1.79065e-06
1.81691e-06
1.84e-06
1.85978e-06
1.8762e-06
1.88929e-06
1.89919e-06
1.90603e-06
1.90969e-06
1.90987e-06
1.90655e-06
1.8998e-06
1.88974e-06
1.8766e-06
1.86065e-06
1.84211e-06
1.82133e-06
1.79892e-06
1.77529e-06
1.75046e-06
1.72443e-06
1.69717e-06
1.66862e-06
1.63877e-06
1.6076e-06
1.57506e-06
1.54113e-06
1.50575e-06
1.4689e-06
1.43049e-06
1.39049e-06
1.34882e-06
1.30542e-06
1.26021e-06
1.21311e-06
1.16404e-06
1.1129e-06
1.05959e-06
1.00401e-06
9.46025e-07
8.85514e-07
8.22321e-07
7.56276e-07
6.87183e-07
6.14816e-07
5.38915e-07
4.59175e-07
3.75242e-07
2.8669e-07
1.92963e-07
9.36113e-08
-1.06446e-08
-1.20083e-07
-2.55552e-07
-4.51182e-07
-4.43166e-07
7.79423e-07
7.56008e-07
7.34763e-07
7.2206e-07
7.14952e-07
7.12136e-07
7.13102e-07
7.1738e-07
7.24538e-07
7.34233e-07
7.46197e-07
7.60222e-07
7.76144e-07
7.93837e-07
8.13202e-07
8.34164e-07
8.56661e-07
8.80648e-07
9.06087e-07
9.32947e-07
9.61199e-07
9.9082e-07
1.02178e-06
1.05406e-06
1.08763e-06
1.12244e-06
1.15845e-06
1.19562e-06
1.23386e-06
1.27309e-06
1.31323e-06
1.35413e-06
1.39567e-06
1.43766e-06
1.47991e-06
1.52219e-06
1.56424e-06
1.60577e-06
1.64648e-06
1.68602e-06
1.72404e-06
1.76019e-06
1.79412e-06
1.82548e-06
1.85396e-06
1.87929e-06
1.90127e-06
1.91975e-06
1.93463e-06
1.94591e-06
1.95365e-06
1.95793e-06
1.95871e-06
1.95591e-06
1.94956e-06
1.93977e-06
1.92669e-06
1.91055e-06
1.89162e-06
1.87017e-06
1.84653e-06
1.82111e-06
1.79421e-06
1.76598e-06
1.73646e-06
1.70569e-06
1.67366e-06
1.64036e-06
1.60577e-06
1.56989e-06
1.53267e-06
1.49408e-06
1.45406e-06
1.41256e-06
1.36952e-06
1.32487e-06
1.27853e-06
1.23043e-06
1.18048e-06
1.12858e-06
1.07465e-06
1.01857e-06
9.60234e-07
8.99512e-07
8.36269e-07
7.70353e-07
7.01595e-07
6.29804e-07
5.54765e-07
4.76235e-07
3.93937e-07
3.07562e-07
2.16742e-07
1.21006e-07
2.00411e-08
-8.52038e-08
-1.94993e-07
-3.31376e-07
-5.25981e-07
-5.02604e-07
8.47849e-07
8.2568e-07
8.05365e-07
7.92702e-07
7.85126e-07
7.81582e-07
7.81691e-07
7.85068e-07
7.91344e-07
8.0021e-07
8.11417e-07
8.24766e-07
8.40095e-07
8.57276e-07
8.76209e-07
8.9681e-07
9.19016e-07
9.42774e-07
9.6804e-07
9.94779e-07
1.02296e-06
1.05255e-06
1.08352e-06
1.11584e-06
1.14947e-06
1.18437e-06
1.22049e-06
1.25778e-06
1.29615e-06
1.33552e-06
1.37579e-06
1.41682e-06
1.45845e-06
1.50052e-06
1.54282e-06
1.5851e-06
1.62711e-06
1.66854e-06
1.70908e-06
1.74837e-06
1.78607e-06
1.82179e-06
1.85519e-06
1.8859e-06
1.91361e-06
1.93803e-06
1.95894e-06
1.97617e-06
1.98961e-06
1.99922e-06
2.00502e-06
2.00707e-06
2.00537e-06
1.99997e-06
1.99094e-06
1.97843e-06
1.96261e-06
1.94373e-06
1.92206e-06
1.89786e-06
1.87144e-06
1.84314e-06
1.81321e-06
1.78181e-06
1.74906e-06
1.71502e-06
1.67971e-06
1.64314e-06
1.60533e-06
1.56625e-06
1.52588e-06
1.48418e-06
1.44111e-06
1.39661e-06
1.35061e-06
1.30306e-06
1.25386e-06
1.20295e-06
1.15022e-06
1.09559e-06
1.03895e-06
9.80194e-07
9.19207e-07
8.55861e-07
7.9002e-07
7.21534e-07
6.50238e-07
5.75952e-07
4.98475e-07
4.17585e-07
3.33038e-07
2.44569e-07
1.5187e-07
5.45452e-08
-4.75972e-08
-1.5343e-07
-2.63245e-07
-4.00039e-07
-5.92598e-07
-5.56895e-07
9.1311e-07
8.92046e-07
8.72598e-07
8.60128e-07
8.52331e-07
8.48323e-07
8.47823e-07
8.50521e-07
8.56099e-07
8.64285e-07
8.74854e-07
8.87617e-07
9.0242e-07
9.19138e-07
9.37668e-07
9.57927e-07
9.79845e-07
1.00337e-06
1.02845e-06
1.05504e-06
1.08311e-06
1.11263e-06
1.14356e-06
1.17587e-06
1.20951e-06
1.24443e-06
1.2806e-06
1.31793e-06
1.35635e-06
1.39577e-06
1.43607e-06
1.47712e-06
1.51876e-06
1.56081e-06
1.60305e-06
1.64523e-06
1.6871e-06
1.72834e-06
1.76862e-06
1.80759e-06
1.84489e-06
1.88014e-06
1.91297e-06
1.94302e-06
1.96995e-06
1.99349e-06
2.01338e-06
2.02944e-06
2.04154e-06
2.04962e-06
2.05368e-06
2.05377e-06
2.04993e-06
2.04225e-06
2.03085e-06
2.0159e-06
1.99761e-06
1.97621e-06
1.95199e-06
1.92521e-06
1.89616e-06
1.86513e-06
1.83235e-06
1.79801e-06
1.76225e-06
1.72515e-06
1.68676e-06
1.64711e-06
1.60622e-06
1.5641e-06
1.52071e-06
1.47603e-06
1.43002e-06
1.38262e-06
1.33378e-06
1.28341e-06
1.23144e-06
1.1778e-06
1.12238e-06
1.0651e-06
1.00585e-06
9.44516e-07
8.80987e-07
8.15134e-07
7.46826e-07
6.75915e-07
6.02247e-07
5.25651e-07
4.45944e-07
3.62927e-07
2.76391e-07
1.86111e-07
9.18343e-08
-6.76685e-09
-1.09789e-07
-2.15948e-07
-3.25598e-07
-4.62926e-07
-6.55063e-07
-6.07776e-07
9.75655e-07
9.55544e-07
9.3687e-07
9.24661e-07
9.16793e-07
9.12501e-07
9.11574e-07
9.13759e-07
9.18787e-07
9.26417e-07
9.36447e-07
9.48704e-07
9.63041e-07
9.79338e-07
9.97493e-07
1.01742e-06
1.03906e-06
1.06234e-06
1.08721e-06
1.11364e-06
1.14157e-06
1.17098e-06
1.20183e-06
1.23407e-06
1.26766e-06
1.30255e-06
1.33868e-06
1.37598e-06
1.41437e-06
1.45375e-06
1.49401e-06
1.53499e-06
1.57655e-06
1.61848e-06
1.66057e-06
1.70257e-06
1.74421e-06
1.78517e-06
1.82512e-06
1.8637e-06
1.90055e-06
1.93528e-06
1.96752e-06
1.99689e-06
2.02306e-06
2.04573e-06
2.06464e-06
2.0796e-06
2.09046e-06
2.09715e-06
2.09965e-06
2.09801e-06
2.09228e-06
2.08259e-06
2.06908e-06
2.05194e-06
2.0314e-06
2.00769e-06
1.9811e-06
1.9519e-06
1.92037e-06
1.88677e-06
1.85132e-06
1.81423e-06
1.77565e-06
1.73569e-06
1.69441e-06
1.65185e-06
1.60805e-06
1.56303e-06
1.51676e-06
1.46923e-06
1.4204e-06
1.37022e-06
1.31862e-06
1.26554e-06
1.21091e-06
1.15463e-06
1.09662e-06
1.03679e-06
9.75027e-07
9.11224e-07
8.45267e-07
7.77033e-07
7.06392e-07
6.33205e-07
5.57326e-07
4.78599e-07
3.96858e-07
3.11927e-07
2.23628e-07
1.31778e-07
3.61717e-08
-6.34593e-08
-1.67125e-07
-2.73349e-07
-3.82385e-07
-5.19853e-07
-7.14598e-07
-6.52588e-07
1.03578e-06
1.01648e-06
9.9849e-07
9.86566e-07
9.78718e-07
9.74263e-07
9.73039e-07
9.74842e-07
9.79436e-07
9.86613e-07
9.96189e-07
1.00801e-06
1.02193e-06
1.03785e-06
1.05565e-06
1.07527e-06
1.09662e-06
1.11965e-06
1.14431e-06
1.17055e-06
1.19832e-06
1.22758e-06
1.2583e-06
1.29043e-06
1.32392e-06
1.35872e-06
1.39476e-06
1.43197e-06
1.47026e-06
1.50954e-06
1.54966e-06
1.59051e-06
1.63189e-06
1.67363e-06
1.7155e-06
1.75724e-06
1.79857e-06
1.83919e-06
1.87875e-06
1.91689e-06
1.95324e-06
1.98742e-06
2.01904e-06
2.04772e-06
2.07314e-06
2.09497e-06
2.11295e-06
2.12687e-06
2.13658e-06
2.14199e-06
2.14309e-06
2.1399e-06
2.13251e-06
2.12102e-06
2.10562e-06
2.08651e-06
2.06391e-06
2.03808e-06
2.0093e-06
1.97785e-06
1.94398e-06
1.90796e-06
1.87003e-06
1.83036e-06
1.78915e-06
1.7465e-06
1.70249e-06
1.65719e-06
1.61064e-06
1.56286e-06
1.51386e-06
1.4636e-06
1.41207e-06
1.35921e-06
1.30498e-06
1.24929e-06
1.19209e-06
1.13328e-06
1.07279e-06
1.01051e-06
9.46337e-07
8.80175e-07
8.11907e-07
7.41415e-07
6.68575e-07
5.93255e-07
5.15319e-07
4.34624e-07
3.51023e-07
2.64362e-07
1.74491e-07
8.12624e-08
-1.54845e-08
-1.15972e-07
-2.20134e-07
-3.26263e-07
-4.34349e-07
-5.71667e-07
-7.71867e-07
-6.926e-07
1.09369e-06
1.07509e-06
1.05769e-06
1.04605e-06
1.03828e-06
1.03374e-06
1.03232e-06
1.03383e-06
1.03809e-06
1.04489e-06
1.05409e-06
1.06553e-06
1.07909e-06
1.09465e-06
1.11213e-06
1.13145e-06
1.15253e-06
1.17531e-06
1.19974e-06
1.22577e-06
1.25335e-06
1.28244e-06
1.313e-06
1.34498e-06
1.37832e-06
1.41298e-06
1.44887e-06
1.48594e-06
1.52407e-06
1.56317e-06
1.60311e-06
1.64374e-06
1.6849e-06
1.72637e-06
1.76795e-06
1.80936e-06
1.85034e-06
1.89055e-06
1.92967e-06
1.96733e-06
2.00315e-06
2.03675e-06
2.06773e-06
2.09574e-06
2.12041e-06
2.14142e-06
2.15851e-06
2.17146e-06
2.18011e-06
2.18436e-06
2.18418e-06
2.1796e-06
2.1707e-06
2.15761e-06
2.14051e-06
2.11961e-06
2.09513e-06
2.06736e-06
2.03655e-06
2.003e-06
1.96695e-06
1.92868e-06
1.88841e-06
1.84634e-06
1.80265e-06
1.75748e-06
1.71091e-06
1.66302e-06
1.61386e-06
1.56347e-06
1.51186e-06
1.45901e-06
1.4049e-06
1.34949e-06
1.29272e-06
1.23454e-06
1.17488e-06
1.11365e-06
1.05077e-06
9.86142e-07
9.19676e-07
8.51266e-07
7.80803e-07
7.08174e-07
6.33261e-07
5.55942e-07
4.7609e-07
3.93576e-07
3.08269e-07
2.20035e-07
1.28747e-07
3.42889e-08
-6.34679e-08
-1.64714e-07
-2.69334e-07
-3.75411e-07
-4.82697e-07
-6.20433e-07
-8.28139e-07
-7.33255e-07
1.14951e-06
1.13151e-06
1.11464e-06
1.10328e-06
1.09562e-06
1.09105e-06
1.08949e-06
1.0908e-06
1.09478e-06
1.10129e-06
1.11016e-06
1.12127e-06
1.1345e-06
1.14975e-06
1.16693e-06
1.18596e-06
1.20676e-06
1.22929e-06
1.25348e-06
1.27929e-06
1.30667e-06
1.33556e-06
1.36593e-06
1.39772e-06
1.43088e-06
1.46535e-06
1.50106e-06
1.53792e-06
1.57584e-06
1.61471e-06
1.65441e-06
1.69478e-06
1.73564e-06
1.7768e-06
1.81803e-06
1.85907e-06
1.89963e-06
1.9394e-06
1.97803e-06
2.01518e-06
2.05044e-06
2.08344e-06
2.11379e-06
2.14112e-06
2.16505e-06
2.18528e-06
2.20153e-06
2.21356e-06
2.22122e-06
2.2244e-06
2.22305e-06
2.21722e-06
2.20696e-06
2.19243e-06
2.17379e-06
2.15125e-06
2.12507e-06
2.0955e-06
2.06283e-06
2.02732e-06
1.98925e-06
1.94887e-06
1.90641e-06
1.86209e-06
1.81608e-06
1.76854e-06
1.71956e-06
1.66923e-06
1.61761e-06
1.56475e-06
1.51067e-06
1.45535e-06
1.39878e-06
1.34093e-06
1.28175e-06
1.22118e-06
1.15916e-06
1.09561e-06
1.03045e-06
9.63588e-07
8.94933e-07
8.24385e-07
7.5184e-07
6.77191e-07
6.00328e-07
5.21135e-07
4.39498e-07
3.55298e-07
2.68419e-07
1.78746e-07
8.617e-08
-9.40319e-09
-1.08079e-07
-2.10035e-07
-3.1513e-07
-4.2128e-07
-5.28068e-07
-6.66915e-07
-8.83743e-07
-7.75644e-07
1.20336e-06
1.18589e-06
1.16949e-06
1.15839e-06
1.15084e-06
1.14629e-06
1.14465e-06
1.14579e-06
1.14956e-06
1.15582e-06
1.16441e-06
1.17524e-06
1.18818e-06
1.20314e-06
1.22003e-06
1.23878e-06
1.25933e-06
1.2816e-06
1.30555e-06
1.33113e-06
1.35827e-06
1.38695e-06
1.4171e-06
1.44868e-06
1.48162e-06
1.51586e-06
1.55134e-06
1.58795e-06
1.62562e-06
1.66423e-06
1.70363e-06
1.74368e-06
1.78421e-06
1.82501e-06
1.86584e-06
1.90646e-06
1.94657e-06
1.98586e-06
2.02398e-06
2.06058e-06
2.09527e-06
2.12767e-06
2.15737e-06
2.18402e-06
2.20724e-06
2.22672e-06
2.24216e-06
2.25333e-06
2.26007e-06
2.26225e-06
2.25985e-06
2.25286e-06
2.24138e-06
2.22553e-06
2.20549e-06
2.18147e-06
2.15373e-06
2.12251e-06
2.08811e-06
2.05079e-06
2.01083e-06
1.96848e-06
1.92399e-06
1.87756e-06
1.82938e-06
1.77962e-06
1.72837e-06
1.67574e-06
1.6218e-06
1.5666e-06
1.51016e-06
1.4525e-06
1.39359e-06
1.33342e-06
1.27193e-06
1.20909e-06
1.14482e-06
1.07906e-06
1.01172e-06
9.42731e-07
8.71994e-07
7.99416e-07
7.249e-07
6.48344e-07
5.69645e-07
4.88697e-07
4.05394e-07
3.1963e-07
2.313e-07
1.40303e-07
4.65463e-08
-5.00484e-08
-1.49573e-07
-2.52204e-07
-3.57793e-07
-4.64117e-07
-5.70619e-07
-7.10901e-07
-9.37261e-07
-8.17189e-07
1.25531e-06
1.2383e-06
1.22232e-06
1.21147e-06
1.20405e-06
1.19953e-06
1.19784e-06
1.19886e-06
1.20247e-06
1.20851e-06
1.21688e-06
1.22745e-06
1.24012e-06
1.25482e-06
1.27145e-06
1.28993e-06
1.31022e-06
1.33224e-06
1.35594e-06
1.38127e-06
1.40818e-06
1.43661e-06
1.46652e-06
1.49786e-06
1.53055e-06
1.56454e-06
1.59975e-06
1.63609e-06
1.67346e-06
1.71175e-06
1.75083e-06
1.79053e-06
1.83068e-06
1.87107e-06
1.91148e-06
1.95164e-06
1.99127e-06
2.03005e-06
2.06764e-06
2.10367e-06
2.13778e-06
2.16956e-06
2.19863e-06
2.2246e-06
2.24713e-06
2.26587e-06
2.28054e-06
2.29091e-06
2.29678e-06
2.29806e-06
2.29467e-06
2.28664e-06
2.27404e-06
2.25699e-06
2.23567e-06
2.2103e-06
2.18112e-06
2.14839e-06
2.11238e-06
2.07339e-06
2.03167e-06
1.9875e-06
1.9411e-06
1.8927e-06
1.84249e-06
1.79064e-06
1.73726e-06
1.68246e-06
1.62633e-06
1.56891e-06
1.51026e-06
1.45037e-06
1.38924e-06
1.32686e-06
1.26318e-06
1.19816e-06
1.13176e-06
1.06389e-06
9.94482e-07
9.23464e-07
8.50749e-07
7.76247e-07
6.99866e-07
6.21511e-07
5.41086e-07
4.58493e-07
3.73635e-07
2.86416e-07
1.96742e-07
1.04524e-07
9.68054e-09
-8.78544e-08
-1.88166e-07
-2.91434e-07
-3.97517e-07
-5.04063e-07
-6.10389e-07
-7.52166e-07
-9.87802e-07
-8.5665e-07
1.30543e-06
1.28883e-06
1.27322e-06
1.2626e-06
1.25531e-06
1.25084e-06
1.24912e-06
1.25007e-06
1.25353e-06
1.2594e-06
1.26756e-06
1.27791e-06
1.29035e-06
1.3048e-06
1.32117e-06
1.33941e-06
1.35944e-06
1.38121e-06
1.40466e-06
1.42973e-06
1.45639e-06
1.48457e-06
1.51422e-06
1.54529e-06
1.57771e-06
1.61141e-06
1.64633e-06
1.68236e-06
1.71941e-06
1.75736e-06
1.79607e-06
1.83538e-06
1.87512e-06
1.91508e-06
1.95503e-06
1.99471e-06
2.03383e-06
2.07208e-06
2.10912e-06
2.14458e-06
2.17808e-06
2.20925e-06
2.23768e-06
2.263e-06
2.28485e-06
2.30289e-06
2.31683e-06
2.32643e-06
2.3315e-06
2.33192e-06
2.32763e-06
2.31864e-06
2.30501e-06
2.28687e-06
2.26439e-06
2.23777e-06
2.20727e-06
2.17314e-06
2.13566e-06
2.09511e-06
2.05177e-06
2.00589e-06
1.95771e-06
1.90747e-06
1.85535e-06
1.80155e-06
1.74617e-06
1.68933e-06
1.63113e-06
1.57162e-06
1.51086e-06
1.44886e-06
1.38563e-06
1.32115e-06
1.25539e-06
1.18831e-06
1.11987e-06
1.04999e-06
9.78624e-07
9.05683e-07
8.31092e-07
7.54768e-07
6.76625e-07
5.96574e-07
5.14526e-07
4.3039e-07
3.44079e-07
2.55505e-07
1.64585e-07
7.12374e-08
-2.46074e-08
-1.23008e-07
-2.24044e-07
-3.27905e-07
-4.34453e-07
-5.41221e-07
-6.47399e-07
-7.90575e-07
-1.03492e-06
-8.93537e-07
1.35376e-06
1.33753e-06
1.32226e-06
1.31186e-06
1.3047e-06
1.30028e-06
1.29856e-06
1.29944e-06
1.3028e-06
1.30852e-06
1.3165e-06
1.32665e-06
1.33887e-06
1.35309e-06
1.36923e-06
1.38722e-06
1.407e-06
1.42851e-06
1.45171e-06
1.47652e-06
1.50291e-06
1.53083e-06
1.5602e-06
1.59099e-06
1.62311e-06
1.65652e-06
1.69111e-06
1.72681e-06
1.76351e-06
1.80109e-06
1.8394e-06
1.87831e-06
1.91761e-06
1.95711e-06
1.99658e-06
2.03576e-06
2.07435e-06
2.11206e-06
2.14853e-06
2.1834e-06
2.21631e-06
2.24686e-06
2.27467e-06
2.29934e-06
2.32053e-06
2.33789e-06
2.35113e-06
2.36001e-06
2.36432e-06
2.36395e-06
2.35883e-06
2.34895e-06
2.33438e-06
2.31524e-06
2.29168e-06
2.26393e-06
2.23221e-06
2.1968e-06
2.15795e-06
2.11596e-06
2.0711e-06
2.02363e-06
1.9738e-06
1.92183e-06
1.86794e-06
1.8123e-06
1.75504e-06
1.69628e-06
1.63613e-06
1.57465e-06
1.5119e-06
1.44791e-06
1.38268e-06
1.31621e-06
1.24847e-06
1.17944e-06
1.10906e-06
1.03729e-06
9.64053e-07
8.89288e-07
8.1292e-07
7.34873e-07
6.55065e-07
5.73415e-07
4.89841e-07
4.04259e-07
3.1659e-07
2.26754e-07
1.34675e-07
4.02828e-08
-5.64856e-08
-1.55681e-07
-2.5738e-07
-3.61776e-07
-4.68738e-07
-5.75686e-07
-6.81685e-07
-8.26063e-07
-1.07834e-06
-9.2757e-07
1.40034e-06
1.38445e-06
1.36949e-06
1.35929e-06
1.35226e-06
1.34791e-06
1.34619e-06
1.34703e-06
1.35029e-06
1.35589e-06
1.36371e-06
1.37368e-06
1.3857e-06
1.3997e-06
1.41561e-06
1.43337e-06
1.4529e-06
1.47417e-06
1.4971e-06
1.52165e-06
1.54777e-06
1.57541e-06
1.6045e-06
1.63498e-06
1.6668e-06
1.69988e-06
1.73414e-06
1.76948e-06
1.8058e-06
1.84299e-06
1.8809e-06
1.91936e-06
1.95821e-06
1.99724e-06
2.03621e-06
2.07487e-06
2.11293e-06
2.15007e-06
2.18597e-06
2.22026e-06
2.25257e-06
2.28251e-06
2.30969e-06
2.33374e-06
2.35428e-06
2.37099e-06
2.38357e-06
2.39176e-06
2.39536e-06
2.39425e-06
2.38835e-06
2.37766e-06
2.36222e-06
2.34215e-06
2.31761e-06
2.28881e-06
2.25598e-06
2.21937e-06
2.17927e-06
2.13594e-06
2.08968e-06
2.04073e-06
1.98935e-06
1.93577e-06
1.88021e-06
1.82285e-06
1.76383e-06
1.70326e-06
1.64127e-06
1.57794e-06
1.51331e-06
1.44744e-06
1.38032e-06
1.31196e-06
1.24236e-06
1.17147e-06
1.09926e-06
1.02568e-06
9.50675e-07
8.74182e-07
7.96133e-07
7.16457e-07
6.35078e-07
5.51922e-07
4.66913e-07
3.79975e-07
2.91035e-07
2.00021e-07
1.06866e-07
1.15063e-08
-8.61133e-08
-1.86036e-07
-2.88334e-07
-3.93204e-07
-5.00513e-07
-6.07575e-07
-7.1332e-07
-8.58632e-07
-1.11793e-06
-9.58557e-07
1.44522e-06
1.42964e-06
1.41497e-06
1.40496e-06
1.39805e-06
1.39376e-06
1.39206e-06
1.39286e-06
1.39605e-06
1.40154e-06
1.40922e-06
1.41902e-06
1.43085e-06
1.44465e-06
1.46035e-06
1.47787e-06
1.49717e-06
1.51818e-06
1.54086e-06
1.56514e-06
1.59098e-06
1.61833e-06
1.64712e-06
1.6773e-06
1.70879e-06
1.74153e-06
1.77544e-06
1.81041e-06
1.84635e-06
1.88312e-06
1.9206e-06
1.95862e-06
1.997e-06
2.03553e-06
2.07399e-06
2.11212e-06
2.14963e-06
2.18622e-06
2.22154e-06
2.25524e-06
2.28695e-06
2.31629e-06
2.34286e-06
2.36629e-06
2.38622e-06
2.4023e-06
2.41424e-06
2.42178e-06
2.42471e-06
2.42291e-06
2.41629e-06
2.40484e-06
2.3886e-06
2.36768e-06
2.34223e-06
2.31246e-06
2.2786e-06
2.24089e-06
2.19962e-06
2.15506e-06
2.10749e-06
2.05717e-06
2.00435e-06
1.94927e-06
1.89215e-06
1.83318e-06
1.7725e-06
1.71024e-06
1.64652e-06
1.58143e-06
1.51504e-06
1.44738e-06
1.37847e-06
1.30834e-06
1.23696e-06
1.16431e-06
1.09037e-06
1.01508e-06
9.38402e-07
8.60275e-07
7.80636e-07
6.99421e-07
6.16561e-07
5.31986e-07
4.45628e-07
3.57417e-07
2.67287e-07
1.75174e-07
8.10174e-08
-1.52391e-08
-1.13643e-07
-2.14231e-07
-3.17066e-07
-4.22348e-07
-5.29934e-07
-6.3703e-07
-7.4243e-07
-8.88354e-07
-1.15359e-06
-9.86362e-07
1.48843e-06
1.47313e-06
1.45873e-06
1.44889e-06
1.4421e-06
1.43788e-06
1.4362e-06
1.43698e-06
1.4401e-06
1.44549e-06
1.45305e-06
1.46269e-06
1.47435e-06
1.48796e-06
1.50344e-06
1.52074e-06
1.5398e-06
1.56057e-06
1.58299e-06
1.607e-06
1.63256e-06
1.65962e-06
1.6881e-06
1.71796e-06
1.74912e-06
1.78151e-06
1.81505e-06
1.84964e-06
1.88517e-06
1.92153e-06
1.95857e-06
1.99612e-06
2.03402e-06
2.07206e-06
2.11e-06
2.14759e-06
2.18455e-06
2.22057e-06
2.25532e-06
2.28844e-06
2.31956e-06
2.3483e-06
2.37427e-06
2.39711e-06
2.41643e-06
2.43191e-06
2.44323e-06
2.45015e-06
2.45246e-06
2.45001e-06
2.44271e-06
2.43056e-06
2.41358e-06
2.39187e-06
2.36559e-06
2.33493e-06
2.30011e-06
2.26139e-06
2.21904e-06
2.17334e-06
2.12455e-06
2.07294e-06
2.01878e-06
1.9623e-06
1.90372e-06
1.84324e-06
1.78101e-06
1.71716e-06
1.65181e-06
1.58508e-06
1.51701e-06
1.44767e-06
1.37709e-06
1.30527e-06
1.23221e-06
1.1579e-06
1.08232e-06
1.00541e-06
9.27153e-07
8.47479e-07
7.66338e-07
6.8367e-07
5.99412e-07
5.13501e-07
4.25874e-07
3.36468e-07
2.45224e-07
1.52084e-07
5.69937e-08
-4.00948e-08
-1.39223e-07
-2.40418e-07
-3.43736e-07
-4.49373e-07
-5.57171e-07
-6.64232e-07
-7.69198e-07
-9.15391e-07
-1.18533e-06
-1.01096e-06
1.52999e-06
1.51496e-06
1.5008e-06
1.49114e-06
1.48446e-06
1.48031e-06
1.47865e-06
1.4794e-06
1.48248e-06
1.48777e-06
1.49521e-06
1.50472e-06
1.51621e-06
1.52963e-06
1.54491e-06
1.562e-06
1.58083e-06
1.60135e-06
1.62351e-06
1.64725e-06
1.67253e-06
1.69929e-06
1.72746e-06
1.75699e-06
1.78782e-06
1.81985e-06
1.85301e-06
1.88721e-06
1.92234e-06
1.95826e-06
1.99485e-06
2.03194e-06
2.06935e-06
2.10688e-06
2.1443e-06
2.18135e-06
2.21776e-06
2.25322e-06
2.28739e-06
2.31993e-06
2.35047e-06
2.37862e-06
2.40401e-06
2.42626e-06
2.44501e-06
2.4599e-06
2.47065e-06
2.47698e-06
2.47869e-06
2.47563e-06
2.4677e-06
2.45489e-06
2.43722e-06
2.41479e-06
2.38774e-06
2.35625e-06
2.32056e-06
2.2809e-06
2.23755e-06
2.19078e-06
2.14086e-06
2.08807e-06
2.03265e-06
1.97486e-06
1.91492e-06
1.85303e-06
1.78934e-06
1.72399e-06
1.65712e-06
1.58884e-06
1.5192e-06
1.44828e-06
1.3761e-06
1.30269e-06
1.22805e-06
1.15217e-06
1.07503e-06
9.96605e-07
9.16846e-07
8.35712e-07
7.53152e-07
6.69112e-07
5.83536e-07
4.96366e-07
4.07545e-07
3.17017e-07
2.24728e-07
1.30626e-07
3.4665e-08
-6.31974e-08
-1.62995e-07
-2.64748e-07
-3.68505e-07
-4.74453e-07
-5.82419e-07
-6.89407e-07
-7.93912e-07
-9.40144e-07
-1.21365e-06
-1.03303e-06
1.56993e-06
1.55514e-06
1.54122e-06
1.53172e-06
1.52515e-06
1.52106e-06
1.51943e-06
1.52017e-06
1.5232e-06
1.52841e-06
1.53574e-06
1.54511e-06
1.55645e-06
1.5697e-06
1.58478e-06
1.60166e-06
1.62026e-06
1.64054e-06
1.66244e-06
1.68592e-06
1.71091e-06
1.73737e-06
1.76523e-06
1.79443e-06
1.82491e-06
1.85658e-06
1.88936e-06
1.92316e-06
1.95787e-06
1.99336e-06
2.02949e-06
2.06611e-06
2.10303e-06
2.14005e-06
2.17695e-06
2.21347e-06
2.24932e-06
2.28422e-06
2.31783e-06
2.3498e-06
2.37976e-06
2.40735e-06
2.43217e-06
2.45385e-06
2.47203e-06
2.48636e-06
2.49655e-06
2.50233e-06
2.50347e-06
2.49984e-06
2.49133e-06
2.4779e-06
2.45959e-06
2.43649e-06
2.40872e-06
2.37647e-06
2.33996e-06
2.29944e-06
2.25516e-06
2.2074e-06
2.15644e-06
2.10254e-06
2.04596e-06
1.98695e-06
1.92573e-06
1.86252e-06
1.79747e-06
1.73072e-06
1.66242e-06
1.59267e-06
1.52155e-06
1.44914e-06
1.37546e-06
1.30055e-06
1.22442e-06
1.14706e-06
1.06845e-06
9.88582e-07
9.07409e-07
8.24895e-07
7.40995e-07
6.5566e-07
5.68841e-07
4.80485e-07
3.9054e-07
2.98956e-07
2.05685e-07
1.10683e-07
1.3907e-08
-8.46777e-08
-1.85098e-07
-2.87369e-07
-3.9153e-07
-4.97764e-07
-6.05888e-07
-7.12823e-07
-8.16966e-07
-9.63361e-07
-1.23985e-06
-1.05395e-06
1.60828e-06
1.59372e-06
1.58003e-06
1.57067e-06
1.5642e-06
1.56018e-06
1.55857e-06
1.55931e-06
1.56229e-06
1.56743e-06
1.57466e-06
1.58391e-06
1.5951e-06
1.60817e-06
1.62307e-06
1.63973e-06
1.65811e-06
1.67815e-06
1.6998e-06
1.72301e-06
1.74772e-06
1.77387e-06
1.80142e-06
1.83029e-06
1.86042e-06
1.89173e-06
1.92413e-06
1.95753e-06
1.99182e-06
2.02687e-06
2.06255e-06
2.09869e-06
2.13513e-06
2.17164e-06
2.20802e-06
2.244e-06
2.27931e-06
2.31366e-06
2.3467e-06
2.37811e-06
2.40752e-06
2.43454e-06
2.45881e-06
2.47994e-06
2.49757e-06
2.51137e-06
2.52103e-06
2.52627e-06
2.52688e-06
2.52271e-06
2.51365e-06
2.49965e-06
2.48075e-06
2.45702e-06
2.42859e-06
2.39564e-06
2.35837e-06
2.31704e-06
2.27191e-06
2.22323e-06
2.1713e-06
2.11637e-06
2.0587e-06
1.99855e-06
1.93615e-06
1.8717e-06
1.80537e-06
1.7373e-06
1.66766e-06
1.59654e-06
1.52404e-06
1.45022e-06
1.37513e-06
1.2988e-06
1.22126e-06
1.1425e-06
1.06251e-06
9.81279e-07
8.9877e-07
8.14953e-07
7.29789e-07
6.43233e-07
5.5524e-07
4.65765e-07
3.74761e-07
2.82184e-07
1.8799e-07
9.21407e-08
-5.39926e-09
-1.0466e-07
-2.05664e-07
-3.08418e-07
-4.12959e-07
-5.19469e-07
-6.27757e-07
-7.34688e-07
-8.38624e-07
-9.85468e-07
-1.26496e-06
-1.07428e-06
1.64505e-06
1.63072e-06
1.61723e-06
1.60802e-06
1.60165e-06
1.59769e-06
1.59611e-06
1.59683e-06
1.59978e-06
1.60485e-06
1.61199e-06
1.62111e-06
1.63216e-06
1.64507e-06
1.65979e-06
1.67625e-06
1.69441e-06
1.71422e-06
1.73561e-06
1.75855e-06
1.78298e-06
1.80884e-06
1.83607e-06
1.86461e-06
1.89439e-06
1.92533e-06
1.95735e-06
1.99035e-06
2.02422e-06
2.05884e-06
2.09406e-06
2.12974e-06
2.16568e-06
2.20169e-06
2.23755e-06
2.273e-06
2.30778e-06
2.34158e-06
2.37408e-06
2.40494e-06
2.43379e-06
2.46027e-06
2.484e-06
2.5046e-06
2.52171e-06
2.535e-06
2.54414e-06
2.54888e-06
2.54899e-06
2.5443e-06
2.53472e-06
2.52019e-06
2.50074e-06
2.47643e-06
2.44738e-06
2.41378e-06
2.37582e-06
2.33374e-06
2.28781e-06
2.23829e-06
2.18545e-06
2.12956e-06
2.07089e-06
2.00967e-06
1.94616e-06
1.88056e-06
1.81303e-06
1.74374e-06
1.67283e-06
1.60042e-06
1.52661e-06
1.45147e-06
1.37505e-06
1.2974e-06
1.21853e-06
1.13845e-06
1.05715e-06
9.74634e-07
8.90865e-07
8.05818e-07
7.19459e-07
6.3175e-07
5.42651e-07
4.5212e-07
3.60117e-07
2.66603e-07
1.71539e-07
7.48927e-08
-2.33664e-08
-1.23264e-07
-2.24815e-07
-3.28024e-07
-4.32925e-07
-5.397e-07
-6.48158e-07
-7.55118e-07
-8.58933e-07
-1.00634e-06
-1.28876e-06
-1.09338e-06
1.68028e-06
1.66616e-06
1.65286e-06
1.64379e-06
1.63751e-06
1.63361e-06
1.63206e-06
1.63278e-06
1.63568e-06
1.6407e-06
1.64774e-06
1.65675e-06
1.66766e-06
1.68042e-06
1.69495e-06
1.71122e-06
1.72917e-06
1.74875e-06
1.7699e-06
1.79257e-06
1.81672e-06
1.84228e-06
1.8692e-06
1.89741e-06
1.92685e-06
1.95742e-06
1.98906e-06
2.02166e-06
2.05512e-06
2.0893e-06
2.12407e-06
2.15928e-06
2.19474e-06
2.23026e-06
2.26561e-06
2.30054e-06
2.33479e-06
2.36806e-06
2.40002e-06
2.43034e-06
2.45866e-06
2.48461e-06
2.50782e-06
2.5279e-06
2.54451e-06
2.5573e-06
2.56595e-06
2.57021e-06
2.56984e-06