/*--------------------------------*- C++ -*----------------------------------*\
  =========                 |
  \\      /  F ield         | OpenFOAM: The Open Source CFD Toolbox
   \\    /   O peration     | Website:  https://openfoam.org
    \\  /    A nd           | Version:  11
     \\/     M anipulation  |
\*---------------------------------------------------------------------------*/
FoamFile
{
    format      ascii;
    class       volScalarField;
    location    "46";
    object      k;
}
// * * * * * * * * * * * * * * * * * * * * * * * * * * * * * * * * * * * * * //

dimensions      [0 2 -2 0 0 0 0];

internalField   nonuniform List<scalar> 
10000
(
0.000939824
0.000836255
0.000747008
0.000669975
0.000603417
0.000545889
0.000496186
0.000453294
0.000416351
0.000384614
0.000357434
0.000334234
0.000314499
0.000297768
0.000283625
0.000271701
0.000261668
0.000253239
0.000246164
0.00024023
0.000235253
0.000231078
0.000227576
0.000224635
0.000222165
0.00022009
0.000218348
0.000216884
0.000215652
0.000214614
0.000213737
0.000212994
0.000212365
0.00021183
0.000211375
0.000210985
0.00021065
0.000210361
0.000210111
0.000209893
0.000209702
0.000209533
0.000209383
0.00020925
0.00020913
0.000209021
0.000208923
0.000208833
0.000208751
0.000208675
0.000208606
0.000208541
0.000208481
0.000208426
0.000208374
0.000208325
0.00020828
0.000208239
0.000208199
0.000208163
0.000208128
0.000208096
0.000208066
0.000208038
0.000208012
0.000207988
0.000207965
0.000207943
0.000207923
0.000207904
0.000207886
0.00020787
0.000207854
0.000207839
0.000207825
0.000207812
0.0002078
0.000207788
0.000207777
0.000207766
0.000207756
0.000207746
0.000207737
0.000207728
0.000207719
0.000207711
0.000207703
0.000207696
0.000207689
0.000207682
0.000207675
0.000207669
0.000207663
0.000207658
0.000207653
0.000207649
0.000207645
0.000207642
0.00020764
0.000207639
0.000939824
0.000836262
0.000747021
0.000669993
0.000603439
0.000545914
0.000496213
0.000453323
0.000416381
0.000384645
0.000357465
0.000334264
0.000314529
0.000297797
0.000283653
0.000271728
0.000261693
0.000253263
0.000246186
0.000240251
0.000235273
0.000231097
0.000227594
0.000224654
0.000222185
0.00022011
0.000218367
0.000216902
0.000215668
0.000214628
0.000213749
0.000213006
0.000212376
0.000211841
0.000211384
0.000210994
0.000210659
0.00021037
0.000210119
0.000209901
0.000209709
0.00020954
0.00020939
0.000209256
0.000209136
0.000209027
0.000208929
0.000208839
0.000208756
0.00020868
0.00020861
0.000208546
0.000208485
0.00020843
0.000208378
0.000208329
0.000208284
0.000208242
0.000208202
0.000208166
0.000208131
0.000208099
0.000208069
0.000208041
0.000208015
0.00020799
0.000207967
0.000207945
0.000207925
0.000207906
0.000207888
0.000207871
0.000207855
0.000207841
0.000207827
0.000207813
0.000207801
0.000207789
0.000207778
0.000207767
0.000207757
0.000207747
0.000207738
0.000207729
0.00020772
0.000207712
0.000207704
0.000207696
0.000207689
0.000207682
0.000207676
0.000207669
0.000207664
0.000207658
0.000207653
0.000207649
0.000207646
0.000207643
0.000207641
0.000207639
0.000939825
0.000836272
0.000747042
0.000670024
0.000603476
0.000545956
0.000496259
0.000453371
0.00041643
0.000384694
0.000357513
0.000334311
0.000314573
0.000297838
0.000283692
0.000271763
0.000261725
0.000253292
0.000246213
0.000240274
0.000235294
0.000231117
0.000227612
0.000224671
0.000222201
0.000220126
0.000218382
0.000216915
0.00021568
0.000214639
0.000213759
0.000213015
0.000212385
0.000211849
0.000211392
0.000211002
0.000210666
0.000210377
0.000210126
0.000209907
0.000209716
0.000209546
0.000209396
0.000209262
0.000209142
0.000209033
0.000208934
0.000208844
0.000208761
0.000208685
0.000208615
0.00020855
0.00020849
0.000208434
0.000208382
0.000208334
0.000208288
0.000208246
0.000208206
0.000208169
0.000208135
0.000208103
0.000208072
0.000208044
0.000208018
0.000207993
0.00020797
0.000207948
0.000207928
0.000207908
0.00020789
0.000207874
0.000207858
0.000207843
0.000207829
0.000207815
0.000207803
0.000207791
0.000207779
0.000207769
0.000207758
0.000207749
0.000207739
0.00020773
0.000207721
0.000207713
0.000207705
0.000207698
0.00020769
0.000207683
0.000207677
0.00020767
0.000207664
0.000207659
0.000207654
0.00020765
0.000207646
0.000207643
0.000207641
0.00020764
0.000939826
0.000836284
0.000747067
0.000670061
0.000603524
0.000546012
0.000496321
0.000453436
0.000416497
0.000384761
0.000357578
0.000334373
0.000314632
0.000297893
0.000283742
0.000271808
0.000261766
0.000253327
0.000246244
0.000240302
0.000235319
0.000231139
0.000227632
0.000224689
0.000222217
0.000220141
0.000218396
0.000216927
0.000215691
0.000214648
0.000213768
0.000213024
0.000212392
0.000211856
0.000211399
0.000211008
0.000210672
0.000210383
0.000210132
0.000209913
0.000209721
0.000209552
0.000209402
0.000209268
0.000209147
0.000209039
0.00020894
0.00020885
0.000208767
0.000208691
0.000208621
0.000208556
0.000208495
0.000208439
0.000208387
0.000208339
0.000208293
0.000208251
0.000208211
0.000208174
0.000208139
0.000208107
0.000208077
0.000208048
0.000208022
0.000207997
0.000207973
0.000207951
0.000207931
0.000207912
0.000207894
0.000207877
0.000207861
0.000207846
0.000207831
0.000207818
0.000207805
0.000207793
0.000207782
0.000207771
0.00020776
0.00020775
0.000207741
0.000207732
0.000207723
0.000207715
0.000207707
0.000207699
0.000207692
0.000207685
0.000207678
0.000207672
0.000207666
0.00020766
0.000207655
0.000207651
0.000207647
0.000207644
0.000207642
0.000207641
0.000939829
0.000836297
0.000747093
0.000670102
0.000603578
0.000546077
0.000496394
0.000453515
0.000416579
0.000384843
0.000357659
0.000334451
0.000314705
0.00029796
0.000283803
0.000271863
0.000261815
0.000253371
0.000246282
0.000240335
0.000235347
0.000231164
0.000227654
0.000224708
0.000222234
0.000220156
0.000218409
0.000216939
0.000215702
0.000214658
0.000213777
0.000213031
0.0002124
0.000211863
0.000211405
0.000211014
0.000210678
0.000210389
0.000210138
0.000209919
0.000209727
0.000209558
0.000209408
0.000209274
0.000209153
0.000209044
0.000208946
0.000208855
0.000208773
0.000208697
0.000208627
0.000208562
0.000208501
0.000208445
0.000208393
0.000208344
0.000208299
0.000208256
0.000208216
0.000208179
0.000208144
0.000208112
0.000208081
0.000208053
0.000208026
0.000208001
0.000207977
0.000207955
0.000207935
0.000207915
0.000207897
0.00020788
0.000207864
0.000207849
0.000207834
0.000207821
0.000207808
0.000207796
0.000207784
0.000207773
0.000207763
0.000207753
0.000207743
0.000207734
0.000207725
0.000207717
0.000207709
0.000207701
0.000207693
0.000207686
0.000207679
0.000207673
0.000207667
0.000207661
0.000207656
0.000207652
0.000207648
0.000207645
0.000207643
0.000207642
0.000939831
0.000836309
0.000747119
0.000670143
0.000603634
0.000546146
0.000496473
0.000453601
0.00041667
0.000384936
0.00035775
0.000334539
0.000314788
0.000298038
0.000283873
0.000271927
0.000261871
0.00025342
0.000246325
0.000240373
0.000235379
0.000231191
0.000227678
0.000224728
0.000222252
0.000220172
0.000218423
0.000216951
0.000215712
0.000214667
0.000213785
0.000213039
0.000212406
0.000211869
0.000211411
0.00021102
0.000210684
0.000210394
0.000210143
0.000209924
0.000209732
0.000209563
0.000209413
0.000209279
0.000209159
0.00020905
0.000208951
0.000208861
0.000208779
0.000208703
0.000208632
0.000208567
0.000208507
0.000208451
0.000208399
0.00020835
0.000208304
0.000208262
0.000208222
0.000208185
0.00020815
0.000208117
0.000208086
0.000208058
0.000208031
0.000208006
0.000207982
0.00020796
0.000207939
0.000207919
0.000207901
0.000207884
0.000207868
0.000207852
0.000207838
0.000207824
0.000207811
0.000207799
0.000207787
0.000207776
0.000207765
0.000207755
0.000207746
0.000207736
0.000207727
0.000207719
0.000207711
0.000207703
0.000207695
0.000207688
0.000207681
0.000207674
0.000207668
0.000207663
0.000207658
0.000207653
0.000207649
0.000207646
0.000207644
0.000207643
0.000939833
0.000836321
0.000747144
0.000670184
0.000603691
0.000546217
0.000496556
0.000453693
0.000416767
0.000385035
0.000357849
0.000334635
0.000314879
0.000298122
0.00028395
0.000271996
0.000261932
0.000253474
0.000246372
0.000240413
0.000235414
0.00023122
0.000227702
0.000224749
0.00022227
0.000220187
0.000218436
0.000216962
0.000215721
0.000214675
0.000213792
0.000213045
0.000212412
0.000211874
0.000211416
0.000211024
0.000210688
0.000210398
0.000210147
0.000209928
0.000209737
0.000209568
0.000209418
0.000209284
0.000209164
0.000209055
0.000208957
0.000208867
0.000208784
0.000208708
0.000208638
0.000208573
0.000208513
0.000208457
0.000208404
0.000208356
0.00020831
0.000208267
0.000208227
0.00020819
0.000208155
0.000208122
0.000208092
0.000208063
0.000208036
0.00020801
0.000207987
0.000207964
0.000207943
0.000207924
0.000207905
0.000207888
0.000207871
0.000207856
0.000207841
0.000207827
0.000207814
0.000207802
0.00020779
0.000207779
0.000207768
0.000207758
0.000207748
0.000207739
0.00020773
0.000207721
0.000207713
0.000207705
0.000207697
0.00020769
0.000207683
0.000207676
0.00020767
0.000207664
0.000207659
0.000207655
0.000207651
0.000207648
0.000207645
0.000207644
0.000939836
0.000836332
0.000747169
0.000670223
0.000603746
0.000546287
0.000496638
0.000453786
0.000416866
0.000385138
0.000357952
0.000334735
0.000314975
0.000298211
0.000284032
0.000272069
0.000261997
0.00025353
0.000246421
0.000240454
0.000235449
0.00023125
0.000227727
0.00022477
0.000222287
0.000220201
0.000218447
0.000216972
0.000215729
0.000214682
0.000213797
0.000213049
0.000212416
0.000211877
0.000211419
0.000211027
0.000210691
0.000210401
0.00021015
0.000209932
0.00020974
0.000209571
0.000209422
0.000209288
0.000209168
0.00020906
0.000208961
0.000208871
0.000208789
0.000208713
0.000208643
0.000208579
0.000208518
0.000208462
0.00020841
0.000208361
0.000208316
0.000208273
0.000208233
0.000208195
0.00020816
0.000208127
0.000208097
0.000208068
0.00020804
0.000208015
0.000207991
0.000207969
0.000207948
0.000207928
0.000207909
0.000207891
0.000207875
0.000207859
0.000207845
0.000207831
0.000207817
0.000207805
0.000207793
0.000207782
0.000207771
0.00020776
0.00020775
0.000207741
0.000207732
0.000207723
0.000207715
0.000207707
0.000207699
0.000207691
0.000207684
0.000207678
0.000207672
0.000207666
0.000207661
0.000207656
0.000207652
0.000207649
0.000207647
0.000207645
0.000939838
0.000836343
0.000747191
0.00067026
0.000603799
0.000546355
0.00049672
0.000453878
0.000416966
0.000385242
0.000358057
0.000334838
0.000315073
0.000298303
0.000284115
0.000272144
0.000262063
0.000253588
0.000246471
0.000240497
0.000235485
0.000231281
0.000227752
0.000224791
0.000222304
0.000220215
0.000218458
0.00021698
0.000215736
0.000214687
0.000213801
0.000213052
0.000212418
0.000211879
0.000211421
0.000211029
0.000210692
0.000210403
0.000210152
0.000209933
0.000209742
0.000209574
0.000209424
0.000209291
0.000209171
0.000209063
0.000208965
0.000208875
0.000208793
0.000208718
0.000208648
0.000208583
0.000208523
0.000208467
0.000208415
0.000208366
0.000208321
0.000208278
0.000208238
0.0002082
0.000208165
0.000208132
0.000208101
0.000208072
0.000208045
0.000208019
0.000207995
0.000207973
0.000207952
0.000207932
0.000207913
0.000207895
0.000207878
0.000207863
0.000207848
0.000207834
0.00020782
0.000207808
0.000207796
0.000207784
0.000207773
0.000207763
0.000207753
0.000207743
0.000207734
0.000207725
0.000207717
0.000207708
0.000207701
0.000207693
0.000207686
0.000207679
0.000207673
0.000207667
0.000207662
0.000207657
0.000207653
0.00020765
0.000207648
0.000207646
0.00093984
0.000836353
0.000747213
0.000670296
0.000603849
0.00054642
0.000496799
0.000453968
0.000417064
0.000385345
0.000358161
0.000334941
0.000315171
0.000298395
0.0002842
0.00027222
0.000262131
0.000253647
0.000246521
0.00024054
0.000235521
0.00023131
0.000227777
0.00022481
0.00022232
0.000220227
0.000218468
0.000216987
0.000215741
0.00021469
0.000213803
0.000213054
0.000212419
0.00021188
0.000211421
0.000211029
0.000210692
0.000210403
0.000210152
0.000209934
0.000209743
0.000209575
0.000209425
0.000209292
0.000209173
0.000209065
0.000208968
0.000208878
0.000208797
0.000208721
0.000208652
0.000208587
0.000208527
0.000208471
0.000208419
0.000208371
0.000208325
0.000208282
0.000208242
0.000208205
0.00020817
0.000208137
0.000208106
0.000208077
0.000208049
0.000208024
0.000207999
0.000207977
0.000207955
0.000207935
0.000207916
0.000207898
0.000207882
0.000207866
0.000207851
0.000207837
0.000207823
0.00020781
0.000207798
0.000207787
0.000207776
0.000207765
0.000207755
0.000207745
0.000207736
0.000207727
0.000207718
0.00020771
0.000207702
0.000207695
0.000207688
0.000207681
0.000207675
0.000207669
0.000207663
0.000207659
0.000207655
0.000207651
0.000207649
0.000207648
0.000939842
0.000836363
0.000747233
0.000670329
0.000603896
0.000546482
0.000496874
0.000454054
0.000417159
0.000385445
0.000358263
0.000335042
0.000315268
0.000298486
0.000284284
0.000272296
0.000262198
0.000253705
0.000246571
0.000240582
0.000235556
0.000231339
0.0002278
0.000224829
0.000222334
0.000220238
0.000218475
0.000216993
0.000215744
0.000214692
0.000213804
0.000213053
0.000212418
0.000211878
0.000211419
0.000211027
0.00021069
0.000210401
0.00021015
0.000209933
0.000209742
0.000209574
0.000209425
0.000209293
0.000209174
0.000209067
0.000208969
0.00020888
0.000208799
0.000208724
0.000208655
0.00020859
0.000208531
0.000208475
0.000208423
0.000208374
0.000208329
0.000208286
0.000208246
0.000208209
0.000208174
0.000208141
0.00020811
0.00020808
0.000208053
0.000208027
0.000208003
0.00020798
0.000207959
0.000207938
0.000207919
0.000207902
0.000207885
0.000207869
0.000207853
0.000207839
0.000207826
0.000207813
0.0002078
0.000207789
0.000207778
0.000207767
0.000207757
0.000207747
0.000207738
0.000207729
0.00020772
0.000207712
0.000207704
0.000207696
0.000207689
0.000207682
0.000207676
0.00020767
0.000207665
0.00020766
0.000207656
0.000207653
0.00020765
0.000207649
0.000939844
0.000836371
0.000747251
0.00067036
0.000603941
0.00054654
0.000496945
0.000454137
0.00041725
0.000385541
0.000358362
0.00033514
0.000315363
0.000298575
0.000284366
0.00027237
0.000262263
0.000253762
0.000246619
0.000240623
0.00023559
0.000231366
0.000227821
0.000224845
0.000222346
0.000220246
0.000218481
0.000216996
0.000215746
0.000214692
0.000213802
0.000213051
0.000212415
0.000211875
0.000211415
0.000211023
0.000210687
0.000210398
0.000210147
0.00020993
0.000209739
0.000209572
0.000209424
0.000209292
0.000209173
0.000209066
0.000208969
0.000208881
0.0002088
0.000208725
0.000208656
0.000208592
0.000208533
0.000208477
0.000208426
0.000208377
0.000208332
0.000208289
0.000208249
0.000208212
0.000208177
0.000208144
0.000208113
0.000208084
0.000208056
0.00020803
0.000208006
0.000207983
0.000207962
0.000207941
0.000207922
0.000207904
0.000207887
0.000207871
0.000207856
0.000207841
0.000207828
0.000207815
0.000207802
0.000207791
0.000207779
0.000207769
0.000207759
0.000207749
0.000207739
0.00020773
0.000207722
0.000207713
0.000207705
0.000207698
0.00020769
0.000207684
0.000207677
0.000207671
0.000207666
0.000207661
0.000207657
0.000207654
0.000207651
0.00020765
0.000939846
0.00083638
0.000747269
0.000670388
0.000603983
0.000546595
0.000497013
0.000454215
0.000417337
0.000385634
0.000358457
0.000335234
0.000315454
0.000298661
0.000284445
0.000272441
0.000262326
0.000253817
0.000246666
0.000240662
0.000235622
0.000231392
0.000227841
0.00022486
0.000222357
0.000220254
0.000218485
0.000216998
0.000215745
0.00021469
0.000213799
0.000213047
0.00021241
0.000211869
0.00021141
0.000211017
0.000210681
0.000210392
0.000210142
0.000209925
0.000209735
0.000209569
0.000209421
0.000209289
0.000209171
0.000209065
0.000208968
0.00020888
0.0002088
0.000208725
0.000208657
0.000208593
0.000208534
0.000208479
0.000208427
0.000208379
0.000208334
0.000208292
0.000208252
0.000208214
0.000208179
0.000208146
0.000208115
0.000208086
0.000208059
0.000208033
0.000208008
0.000207985
0.000207964
0.000207944
0.000207924
0.000207906
0.000207889
0.000207873
0.000207858
0.000207843
0.000207829
0.000207816
0.000207804
0.000207792
0.000207781
0.00020777
0.00020776
0.00020775
0.000207741
0.000207731
0.000207723
0.000207714
0.000207706
0.000207699
0.000207691
0.000207685
0.000207678
0.000207672
0.000207667
0.000207662
0.000207658
0.000207655
0.000207652
0.000207651
0.000939848
0.000836388
0.000747285
0.000670415
0.000604022
0.000546647
0.000497076
0.000454289
0.000417419
0.000385721
0.000358547
0.000335324
0.000315542
0.000298744
0.000284521
0.00027251
0.000262387
0.000253869
0.000246711
0.000240699
0.000235652
0.000231415
0.000227859
0.000224874
0.000222366
0.000220259
0.000218487
0.000216997
0.000215743
0.000214686
0.000213794
0.000213041
0.000212403
0.000211862
0.000211402
0.00021101
0.000210674
0.000210385
0.000210136
0.000209919
0.00020973
0.000209563
0.000209416
0.000209285
0.000209168
0.000209062
0.000208966
0.000208879
0.000208798
0.000208725
0.000208656
0.000208593
0.000208534
0.000208479
0.000208428
0.00020838
0.000208335
0.000208293
0.000208253
0.000208216
0.000208181
0.000208148
0.000208117
0.000208088
0.00020806
0.000208035
0.00020801
0.000207987
0.000207966
0.000207945
0.000207926
0.000207908
0.000207891
0.000207874
0.000207859
0.000207845
0.000207831
0.000207818
0.000207805
0.000207793
0.000207782
0.000207771
0.000207761
0.000207751
0.000207741
0.000207732
0.000207724
0.000207715
0.000207707
0.0002077
0.000207692
0.000207685
0.000207679
0.000207673
0.000207668
0.000207663
0.000207659
0.000207656
0.000207653
0.000207652
0.00093985
0.000836395
0.0007473
0.00067044
0.000604058
0.000546695
0.000497135
0.000454358
0.000417496
0.000385804
0.000358633
0.00033541
0.000315625
0.000298823
0.000284594
0.000272576
0.000262445
0.000253919
0.000246753
0.000240733
0.000235679
0.000231437
0.000227875
0.000224885
0.000222373
0.000220262
0.000218488
0.000216995
0.000215739
0.00021468
0.000213787
0.000213033
0.000212395
0.000211853
0.000211393
0.000211001
0.000210665
0.000210377
0.000210128
0.000209912
0.000209723
0.000209557
0.00020941
0.00020928
0.000209163
0.000209058
0.000208962
0.000208875
0.000208796
0.000208722
0.000208655
0.000208592
0.000208533
0.000208479
0.000208428
0.00020838
0.000208335
0.000208293
0.000208254
0.000208217
0.000208182
0.000208149
0.000208118
0.000208089
0.000208062
0.000208036
0.000208011
0.000207988
0.000207967
0.000207946
0.000207927
0.000207909
0.000207892
0.000207875
0.00020786
0.000207845
0.000207832
0.000207818
0.000207806
0.000207794
0.000207783
0.000207772
0.000207762
0.000207752
0.000207742
0.000207733
0.000207724
0.000207716
0.000207708
0.0002077
0.000207693
0.000207686
0.00020768
0.000207674
0.000207668
0.000207664
0.000207659
0.000207656
0.000207654
0.000207652
0.000939851
0.000836402
0.000747314
0.000670464
0.000604092
0.00054674
0.000497191
0.000454423
0.000417569
0.000385882
0.000358714
0.000335491
0.000315704
0.000298897
0.000284663
0.000272638
0.0002625
0.000253966
0.000246792
0.000240766
0.000235705
0.000231457
0.00022789
0.000224894
0.000222378
0.000220264
0.000218487
0.000216991
0.000215733
0.000214673
0.000213778
0.000213023
0.000212384
0.000211843
0.000211383
0.000210991
0.000210655
0.000210367
0.000210118
0.000209902
0.000209714
0.000209549
0.000209403
0.000209273
0.000209157
0.000209052
0.000208957
0.000208871
0.000208792
0.000208719
0.000208652
0.00020859
0.000208532
0.000208477
0.000208427
0.000208379
0.000208335
0.000208293
0.000208254
0.000208217
0.000208182
0.000208149
0.000208119
0.000208089
0.000208062
0.000208036
0.000208012
0.000207989
0.000207967
0.000207947
0.000207928
0.000207909
0.000207892
0.000207876
0.00020786
0.000207846
0.000207832
0.000207819
0.000207806
0.000207794
0.000207783
0.000207772
0.000207762
0.000207752
0.000207742
0.000207733
0.000207724
0.000207716
0.000207708
0.0002077
0.000207693
0.000207686
0.00020768
0.000207674
0.000207669
0.000207664
0.00020766
0.000207657
0.000207654
0.000207653
0.000939853
0.000836408
0.000747328
0.000670485
0.000604123
0.000546781
0.000497242
0.000454484
0.000417637
0.000385955
0.000358789
0.000335567
0.000315778
0.000298968
0.000284728
0.000272696
0.000262551
0.000254011
0.000246829
0.000240796
0.000235729
0.000231474
0.000227902
0.000224902
0.000222382
0.000220264
0.000218484
0.000216986
0.000215726
0.000214664
0.000213768
0.000213012
0.000212373
0.000211831
0.000211371
0.000210979
0.000210643
0.000210355
0.000210107
0.000209892
0.000209704
0.00020954
0.000209394
0.000209265
0.00020915
0.000209046
0.000208951
0.000208866
0.000208787
0.000208715
0.000208648
0.000208586
0.000208529
0.000208475
0.000208425
0.000208378
0.000208333
0.000208292
0.000208253
0.000208216
0.000208181
0.000208149
0.000208118
0.000208089
0.000208062
0.000208036
0.000208012
0.000207989
0.000207967
0.000207947
0.000207928
0.000207909
0.000207892
0.000207876
0.00020786
0.000207846
0.000207832
0.000207819
0.000207806
0.000207794
0.000207783
0.000207772
0.000207762
0.000207752
0.000207742
0.000207733
0.000207724
0.000207716
0.000207708
0.0002077
0.000207693
0.000207686
0.00020768
0.000207674
0.000207669
0.000207664
0.00020766
0.000207657
0.000207655
0.000207653
0.000939854
0.000836414
0.00074734
0.000670506
0.000604153
0.00054682
0.000497291
0.00045454
0.0004177
0.000386023
0.00035886
0.000335638
0.000315848
0.000299034
0.000284789
0.000272751
0.000262599
0.000254052
0.000246864
0.000240823
0.00023575
0.00023149
0.000227912
0.000224908
0.000222383
0.000220262
0.000218479
0.000216979
0.000215717
0.000214653
0.000213757
0.000213
0.00021236
0.000211818
0.000211357
0.000210965
0.00021063
0.000210343
0.000210095
0.00020988
0.000209693
0.000209529
0.000209384
0.000209256
0.000209141
0.000209038
0.000208944
0.000208859
0.000208781
0.00020871
0.000208643
0.000208582
0.000208525
0.000208471
0.000208422
0.000208375
0.000208331
0.00020829
0.000208251
0.000208215
0.00020818
0.000208148
0.000208117
0.000208088
0.000208061
0.000208035
0.000208011
0.000207988
0.000207967
0.000207946
0.000207927
0.000207909
0.000207892
0.000207875
0.00020786
0.000207845
0.000207831
0.000207818
0.000207806
0.000207794
0.000207782
0.000207772
0.000207761
0.000207751
0.000207742
0.000207733
0.000207724
0.000207716
0.000207708
0.0002077
0.000207693
0.000207686
0.00020768
0.000207674
0.000207669
0.000207664
0.00020766
0.000207657
0.000207655
0.000207653
0.000939856
0.000836419
0.000747351
0.000670525
0.00060418
0.000546856
0.000497335
0.000454593
0.000417759
0.000386087
0.000358927
0.000335705
0.000315913
0.000299095
0.000284846
0.000272803
0.000262644
0.00025409
0.000246895
0.000240849
0.000235769
0.000231503
0.000227921
0.000224912
0.000222384
0.000220259
0.000218473
0.000216971
0.000215707
0.000214642
0.000213744
0.000212986
0.000212346
0.000211803
0.000211343
0.000210951
0.000210616
0.000210329
0.000210081
0.000209867
0.000209681
0.000209517
0.000209373
0.000209246
0.000209131
0.000209029
0.000208936
0.000208852
0.000208774
0.000208703
0.000208638
0.000208577
0.00020852
0.000208467
0.000208418
0.000208371
0.000208328
0.000208287
0.000208248
0.000208212
0.000208178
0.000208146
0.000208115
0.000208087
0.00020806
0.000208034
0.00020801
0.000207987
0.000207966
0.000207945
0.000207926
0.000207908
0.000207891
0.000207874
0.000207859
0.000207844
0.00020783
0.000207817
0.000207805
0.000207793
0.000207782
0.000207771
0.00020776
0.000207751
0.000207741
0.000207732
0.000207723
0.000207715
0.000207707
0.0002077
0.000207693
0.000207686
0.00020768
0.000207674
0.000207669
0.000207664
0.00020766
0.000207657
0.000207655
0.000207653
0.000939857
0.000836425
0.000747362
0.000670542
0.000604205
0.00054689
0.000497377
0.000454642
0.000417814
0.000386147
0.000358989
0.000335767
0.000315974
0.000299153
0.000284899
0.00027285
0.000262686
0.000254126
0.000246924
0.000240871
0.000235786
0.000231515
0.000227928
0.000224914
0.000222383
0.000220255
0.000218466
0.000216962
0.000215695
0.000214629
0.00021373
0.000212972
0.000212331
0.000211788
0.000211327
0.000210935
0.000210601
0.000210314
0.000210067
0.000209853
0.000209668
0.000209505
0.000209361
0.000209234
0.000209121
0.000209019
0.000208927
0.000208843
0.000208767
0.000208696
0.000208631
0.000208571
0.000208515
0.000208462
0.000208413
0.000208367
0.000208324
0.000208283
0.000208245
0.000208209
0.000208175
0.000208143
0.000208113
0.000208084
0.000208057
0.000208032
0.000208008
0.000207985
0.000207964
0.000207944
0.000207924
0.000207906
0.000207889
0.000207873
0.000207857
0.000207843
0.000207829
0.000207816
0.000207803
0.000207792
0.00020778
0.000207769
0.000207759
0.000207749
0.00020774
0.000207731
0.000207722
0.000207714
0.000207706
0.000207699
0.000207692
0.000207685
0.000207679
0.000207673
0.000207668
0.000207664
0.00020766
0.000207657
0.000207654
0.000207653
0.000939858
0.000836429
0.000747372
0.000670558
0.000604229
0.000546921
0.000497416
0.000454687
0.000417865
0.000386202
0.000359046
0.000335825
0.00031603
0.000299207
0.000284949
0.000272895
0.000262725
0.000254158
0.000246951
0.000240892
0.000235801
0.000231525
0.000227933
0.000224916
0.00022238
0.000220249
0.000218458
0.000216951
0.000215683
0.000214615
0.000213716
0.000212956
0.000212315
0.000211772
0.000211311
0.000210919
0.000210585
0.000210298
0.000210052
0.000209839
0.000209654
0.000209491
0.000209349
0.000209222
0.00020911
0.000209008
0.000208917
0.000208834
0.000208758
0.000208688
0.000208624
0.000208564
0.000208508
0.000208456
0.000208408
0.000208362
0.00020832
0.000208279
0.000208241
0.000208206
0.000208172
0.00020814
0.00020811
0.000208082
0.000208055
0.00020803
0.000208006
0.000207983
0.000207962
0.000207941
0.000207922
0.000207904
0.000207887
0.000207871
0.000207856
0.000207841
0.000207827
0.000207814
0.000207802
0.00020779
0.000207779
0.000207768
0.000207758
0.000207748
0.000207739
0.00020773
0.000207721
0.000207713
0.000207705
0.000207698
0.000207691
0.000207684
0.000207678
0.000207673
0.000207668
0.000207663
0.000207659
0.000207656
0.000207654
0.000207653
0.000939859
0.000836434
0.000747381
0.000670573
0.00060425
0.00054695
0.000497452
0.00045473
0.000417913
0.000386253
0.0003591
0.000335879
0.000316083
0.000299257
0.000284995
0.000272936
0.000262761
0.000254188
0.000246975
0.000240911
0.000235815
0.000231534
0.000227937
0.000224916
0.000222377
0.000220243
0.000218449
0.00021694
0.00021567
0.000214601
0.0002137
0.00021294
0.000212298
0.000211755
0.000211294
0.000210902
0.000210568
0.000210282
0.000210036
0.000209823
0.000209639
0.000209477
0.000209335
0.00020921
0.000209098
0.000208997
0.000208907
0.000208824
0.000208749
0.00020868
0.000208616
0.000208557
0.000208501
0.00020845
0.000208402
0.000208357
0.000208314
0.000208274
0.000208237
0.000208201
0.000208168
0.000208136
0.000208107
0.000208078
0.000208052
0.000208027
0.000208003
0.00020798
0.000207959
0.000207939
0.00020792
0.000207902
0.000207885
0.000207869
0.000207853
0.000207839
0.000207825
0.000207812
0.0002078
0.000207788
0.000207777
0.000207766
0.000207756
0.000207746
0.000207737
0.000207728
0.00020772
0.000207712
0.000207704
0.000207697
0.00020769
0.000207683
0.000207677
0.000207672
0.000207667
0.000207662
0.000207659
0.000207656
0.000207653
0.000207652
0.00093986
0.000836438
0.00074739
0.000670587
0.000604271
0.000546977
0.000497485
0.000454769
0.000417957
0.000386301
0.00035915
0.00033593
0.000316132
0.000299303
0.000285038
0.000272974
0.000262794
0.000254216
0.000246998
0.000240928
0.000235827
0.000231541
0.00022794
0.000224915
0.000222372
0.000220236
0.000218439
0.000216928
0.000215657
0.000214586
0.000213684
0.000212923
0.000212281
0.000211737
0.000211276
0.000210885
0.000210551
0.000210265
0.00021002
0.000209808
0.000209624
0.000209463
0.000209321
0.000209197
0.000209085
0.000208985
0.000208895
0.000208814
0.000208739
0.00020867
0.000208607
0.000208549
0.000208494
0.000208443
0.000208395
0.000208351
0.000208309
0.000208269
0.000208232
0.000208197
0.000208164
0.000208132
0.000208103
0.000208075
0.000208048
0.000208023
0.000208
0.000207977
0.000207956
0.000207936
0.000207917
0.000207899
0.000207882
0.000207866
0.000207851
0.000207836
0.000207823
0.00020781
0.000207798
0.000207786
0.000207775
0.000207764
0.000207754
0.000207744
0.000207735
0.000207726
0.000207718
0.00020771
0.000207703
0.000207695
0.000207689
0.000207682
0.000207676
0.000207671
0.000207666
0.000207661
0.000207658
0.000207655
0.000207653
0.000207651
0.000939861
0.000836442
0.000747398
0.0006706
0.000604289
0.000547002
0.000497516
0.000454805
0.000417998
0.000386345
0.000359196
0.000335976
0.000316178
0.000299347
0.000285077
0.00027301
0.000262824
0.000254241
0.000247018
0.000240943
0.000235837
0.000231547
0.000227942
0.000224913
0.000222367
0.000220228
0.000218429
0.000216916
0.000215643
0.000214571
0.000213668
0.000212906
0.000212263
0.000211719
0.000211259
0.000210867
0.000210533
0.000210248
0.000210003
0.000209791
0.000209608
0.000209448
0.000209307
0.000209183
0.000209072
0.000208973
0.000208884
0.000208803
0.000208729
0.000208661
0.000208598
0.00020854
0.000208486
0.000208436
0.000208389
0.000208344
0.000208303
0.000208263
0.000208227
0.000208192
0.000208159
0.000208128
0.000208098
0.000208071
0.000208044
0.000208019
0.000207996
0.000207974
0.000207953
0.000207933
0.000207914
0.000207896
0.000207879
0.000207863
0.000207848
0.000207834
0.00020782
0.000207807
0.000207795
0.000207783
0.000207772
0.000207762
0.000207752
0.000207742
0.000207733
0.000207724
0.000207716
0.000207708
0.000207701
0.000207694
0.000207687
0.000207681
0.000207675
0.00020767
0.000207665
0.00020766
0.000207657
0.000207654
0.000207652
0.00020765
0.000939862
0.000836446
0.000747405
0.000670612
0.000604307
0.000547025
0.000497544
0.000454839
0.000418036
0.000386386
0.000359238
0.000336019
0.00031622
0.000299386
0.000285114
0.000273042
0.000262852
0.000254265
0.000247036
0.000240956
0.000235846
0.000231551
0.000227942
0.00022491
0.000222361
0.000220219
0.000218418
0.000216903
0.000215628
0.000214555
0.000213651
0.000212889
0.000212245
0.000211701
0.00021124
0.000210849
0.000210516
0.000210231
0.000209986
0.000209775
0.000209592
0.000209432
0.000209293
0.000209169
0.000209059
0.000208961
0.000208872
0.000208792
0.000208718
0.000208651
0.000208589
0.000208531
0.000208478
0.000208428
0.000208381
0.000208337
0.000208296
0.000208257
0.000208221
0.000208186
0.000208154
0.000208123
0.000208094
0.000208066
0.00020804
0.000208015