/*--------------------------------*- C++ -*----------------------------------*\
  =========                 |
  \\      /  F ield         | OpenFOAM: The Open Source CFD Toolbox
   \\    /   O peration     | Website:  https://openfoam.org
    \\  /    A nd           | Version:  11
     \\/     M anipulation  |
\*---------------------------------------------------------------------------*/
FoamFile
{
    format      ascii;
    class       volScalarField;
    location    "536";
    object      nut;
}
// * * * * * * * * * * * * * * * * * * * * * * * * * * * * * * * * * * * * * //

dimensions      [0 2 -1 0 0 0 0];

internalField   nonuniform List<scalar> 
10000
(
0.000977118
0.000936708
0.000899652
0.00086563
0.000834353
0.000805564
0.000779031
0.000754545
0.000731918
0.000710981
0.000691583
0.000673585
0.000656865
0.000641311
0.000626822
0.000613307
0.000600684
0.000588879
0.000577824
0.000567457
0.000557725
0.000548575
0.000539963
0.000531847
0.000524188
0.000516953
0.000510109
0.000503628
0.000497484
0.000491651
0.000486109
0.000480836
0.000475815
0.000471027
0.000466457
0.000462091
0.000457915
0.000453916
0.000450084
0.000446408
0.000442877
0.000439484
0.000436219
0.000433074
0.000430043
0.000427119
0.000424296
0.000421569
0.000418931
0.000416378
0.000413907
0.000411512
0.000409191
0.00040694
0.000404757
0.000402638
0.000400583
0.000398589
0.000396655
0.000394781
0.000392967
0.000391211
0.000389516
0.000387881
0.00038631
0.000384804
0.000383366
0.000382
0.00038071
0.000379501
0.00037838
0.000377351
0.000376424
0.000375605
0.000374904
0.000374331
0.000373896
0.000373609
0.000373483
0.000373528
0.000373757
0.00037418
0.00037481
0.000375655
0.000376724
0.000378023
0.000379556
0.000381322
0.000383316
0.000385525
0.000387932
0.000390507
0.000393211
0.000395989
0.00039877
0.000401462
0.000403945
0.000406067
0.000407645
0.000408479
0.000977118
0.000936708
0.000899652
0.00086563
0.000834353
0.000805564
0.000779031
0.000754545
0.000731918
0.000710982
0.000691583
0.000673585
0.000656865
0.000641311
0.000626822
0.000613307
0.000600684
0.000588879
0.000577824
0.000567458
0.000557725
0.000548576
0.000539964
0.000531847
0.000524189
0.000516953
0.00051011
0.000503629
0.000497484
0.000491652
0.000486109
0.000480837
0.000475815
0.000471027
0.000466458
0.000462092
0.000457916
0.000453917
0.000450085
0.000446409
0.000442878
0.000439485
0.00043622
0.000433075
0.000430044
0.000427121
0.000424298
0.00042157
0.000418932
0.00041638
0.000413908
0.000411514
0.000409192
0.000406942
0.000404758
0.00040264
0.000400585
0.000398591
0.000396657
0.000394783
0.000392968
0.000391213
0.000389518
0.000387883
0.000386312
0.000384806
0.000383368
0.000382002
0.000380712
0.000379503
0.000378381
0.000377353
0.000376425
0.000375606
0.000374906
0.000374332
0.000373896
0.000373609
0.000373482
0.000373527
0.000373755
0.000374178
0.000374807
0.000375651
0.00037672
0.000378018
0.000379551
0.000381316
0.000383308
0.000385517
0.000387922
0.000390497
0.0003932
0.000395977
0.000398758
0.000401449
0.000403931
0.000406053
0.000407631
0.000408465
0.000977118
0.000936708
0.000899652
0.00086563
0.000834353
0.000805565
0.000779032
0.000754545
0.000731918
0.000710982
0.000691583
0.000673586
0.000656866
0.000641311
0.000626822
0.000613308
0.000600685
0.00058888
0.000577824
0.000567458
0.000557726
0.000548576
0.000539964
0.000531848
0.00052419
0.000516954
0.000510111
0.00050363
0.000497485
0.000491653
0.000486111
0.000480838
0.000475816
0.000471029
0.000466459
0.000462093
0.000457917
0.000453919
0.000450087
0.00044641
0.00044288
0.000439486
0.000436221
0.000433077
0.000430046
0.000427123
0.0004243
0.000421572
0.000418935
0.000416382
0.000413911
0.000411516
0.000409195
0.000406944
0.000404761
0.000402643
0.000400588
0.000398594
0.00039666
0.000394787
0.000392972
0.000391216
0.000389521
0.000387887
0.000386315
0.000384809
0.000383371
0.000382005
0.000380715
0.000379506
0.000378384
0.000377355
0.000376427
0.000375608
0.000374906
0.000374332
0.000373896
0.000373608
0.00037348
0.000373524
0.000373751
0.000374173
0.0003748
0.000375643
0.00037671
0.000378007
0.000379537
0.0003813
0.000383291
0.000385498
0.000387902
0.000390475
0.000393176
0.000395953
0.000398732
0.000401422
0.000403904
0.000406025
0.000407602
0.000408436
0.000977118
0.000936708
0.000899653
0.00086563
0.000834354
0.000805565
0.000779032
0.000754546
0.000731919
0.000710982
0.000691584
0.000673586
0.000656866
0.000641312
0.000626823
0.000613308
0.000600686
0.00058888
0.000577825
0.000567459
0.000557727
0.000548577
0.000539965
0.000531849
0.000524191
0.000516956
0.000510112
0.000503631
0.000497487
0.000491654
0.000486112
0.00048084
0.000475818
0.000471031
0.000466461
0.000462095
0.000457919
0.000453921
0.000450089
0.000446413
0.000442883
0.000439489
0.000436224
0.00043308
0.00043005
0.000427126
0.000424303
0.000421576
0.000418938
0.000416386
0.000413915
0.00041152
0.000409199
0.000406949
0.000404765
0.000402647
0.000400592
0.000398599
0.000396665
0.000394791
0.000392977
0.000391221
0.000389526
0.000387892
0.00038632
0.000384814
0.000383376
0.00038201
0.000380719
0.00037951
0.000378387
0.000377358
0.00037643
0.00037561
0.000374907
0.000374332
0.000373895
0.000373606
0.000373477
0.000373519
0.000373744
0.000374164
0.000374789
0.00037563
0.000376695
0.000377989
0.000379517
0.000381278
0.000383266
0.00038547
0.000387872
0.000390442
0.000393141
0.000395916
0.000398694
0.000401383
0.000403863
0.000405983
0.00040756
0.000408394
0.000977118
0.000936709
0.000899653
0.00086563
0.000834354
0.000805565
0.000779032
0.000754546
0.000731919
0.000710983
0.000691584
0.000673587
0.000656867
0.000641313
0.000626824
0.000613309
0.000600686
0.000588881
0.000577826
0.00056746
0.000557728
0.000548579
0.000539967
0.000531851
0.000524192
0.000516957
0.000510114
0.000503633
0.000497489
0.000491657
0.000486114
0.000480842
0.000475821
0.000471033
0.000466464
0.000462098
0.000457922
0.000453924
0.000450092
0.000446416
0.000442886
0.000439493
0.000436228
0.000433084
0.000430054
0.00042713
0.000424308
0.00042158
0.000418943
0.000416391
0.00041392
0.000411525
0.000409205
0.000406954
0.000404771
0.000402653
0.000400598
0.000398605
0.000396671
0.000394798
0.000392983
0.000391228
0.000389532
0.000387898
0.000386327
0.00038482
0.000383382
0.000382016
0.000380725
0.000379515
0.000378392
0.000377362
0.000376433
0.000375612
0.000374909
0.000374332
0.000373894
0.000373603
0.000373472
0.000373512
0.000373735
0.000374152
0.000374775
0.000375613
0.000376675
0.000377966
0.000379491
0.000381248
0.000383233
0.000385434
0.000387832
0.000390399
0.000393096
0.000395868
0.000398644
0.000401331
0.00040381
0.000405929
0.000407505
0.000408338
0.000977118
0.000936709
0.000899653
0.00086563
0.000834354
0.000805565
0.000779033
0.000754547
0.00073192
0.000710983
0.000691585
0.000673588
0.000656868
0.000641314
0.000626825
0.00061331
0.000600688
0.000588883
0.000577828
0.000567462
0.000557729
0.00054858
0.000539968
0.000531852
0.000524194
0.000516959
0.000510116
0.000503635
0.000497491
0.000491659
0.000486117
0.000480845
0.000475824
0.000471036
0.000466467
0.000462101
0.000457926
0.000453928
0.000450096
0.00044642
0.00044289
0.000439497
0.000436233
0.000433089
0.000430059
0.000427135
0.000424313
0.000421586
0.000418949
0.000416397
0.000413926
0.000411532
0.000409211
0.000406961
0.000404778
0.00040266
0.000400606
0.000398612
0.000396679
0.000394806
0.000392991
0.000391236
0.00038954
0.000387906
0.000386335
0.000384828
0.00038339
0.000382023
0.000380732
0.000379522
0.000378398
0.000377367
0.000376437
0.000375615
0.00037491
0.000374333
0.000373892
0.0003736
0.000373466
0.000373504
0.000373724
0.000374139
0.000374758
0.000375593
0.000376651
0.000377938
0.000379459
0.000381212
0.000383193
0.00038539
0.000387784
0.000390347
0.00039304
0.000395809
0.000398582
0.000401267
0.000403744
0.000405862
0.000407437
0.00040827
0.000977118
0.000936709
0.000899653
0.000865631
0.000834354
0.000805566
0.000779033
0.000754547
0.00073192
0.000710984
0.000691586
0.000673588
0.000656869
0.000641315
0.000626826
0.000613311
0.000600689
0.000588884
0.000577829
0.000567463
0.000557731
0.000548582
0.00053997
0.000531855
0.000524197
0.000516962
0.000510119
0.000503638
0.000497494
0.000491662
0.00048612
0.000480848
0.000475827
0.00047104
0.000466471
0.000462105
0.00045793
0.000453932
0.000450101
0.000446425
0.000442895
0.000439503
0.000436238
0.000433095
0.000430065
0.000427142
0.000424319
0.000421593
0.000418956
0.000416404
0.000413933
0.00041154
0.000409219
0.000406969
0.000404787
0.000402669
0.000400614
0.000398621
0.000396688
0.000394815
0.000393001
0.000391245
0.00038955
0.000387916
0.000386344
0.000384838
0.000383399
0.000382032
0.00038074
0.000379529
0.000378405
0.000377373
0.000376442
0.000375619
0.000374913
0.000374333
0.000373891
0.000373596
0.00037346
0.000373495
0.000373712
0.000374123
0.000374739
0.000375569
0.000376623
0.000377906
0.000379422
0.00038117
0.000383146
0.000385338
0.000387728
0.000390287
0.000392976
0.00039574
0.00039851
0.000401192
0.000403667
0.000405783
0.000407358
0.00040819
0.000977118
0.000936709
0.000899653
0.000865631
0.000834355
0.000805566
0.000779033
0.000754548
0.000731921
0.000710985
0.000691587
0.000673589
0.00065687
0.000641316
0.000626827
0.000613313
0.00060069
0.000588886
0.000577831
0.000567465
0.000557733
0.000548584
0.000539973
0.000531857
0.000524199
0.000516964
0.000510121
0.000503641
0.000497497
0.000491666
0.000486124
0.000480852
0.000475831
0.000471044
0.000466475
0.00046211
0.000457935
0.000453937
0.000450106
0.000446431
0.000442901
0.000439509
0.000436244
0.000433101
0.000430071
0.000427149
0.000424327
0.0004216
0.000418964
0.000416412
0.000413942
0.000411548
0.000409228
0.000406979
0.000404796
0.000402679
0.000400625
0.000398632
0.000396699
0.000394826
0.000393011
0.000391256
0.000389561
0.000387927
0.000386355
0.000384848
0.000383409
0.000382042
0.00038075
0.000379538
0.000378413
0.000377381
0.000376448
0.000375623
0.000374916
0.000374334
0.000373889
0.000373592
0.000373453
0.000373485
0.000373698
0.000374105
0.000374717
0.000375543
0.000376591
0.000377869
0.00037938
0.000381123
0.000383093
0.00038528
0.000387664
0.000390218
0.000392902
0.000395663
0.000398429
0.000401107
0.00040358
0.000405694
0.000407267
0.000408098
0.000977118
0.000936709
0.000899653
0.000865631
0.000834355
0.000805567
0.000779034
0.000754548
0.000731922
0.000710986
0.000691587
0.00067359
0.000656871
0.000641317
0.000626829
0.000613314
0.000600692
0.000588887
0.000577833
0.000567467
0.000557735
0.000548587
0.000539975
0.00053186
0.000524202
0.000516968
0.000510125
0.000503645
0.000497501
0.000491669
0.000486128
0.000480856
0.000475836
0.000471049
0.00046648
0.000462115
0.00045794
0.000453943
0.000450112
0.000446437
0.000442908
0.000439515
0.000436252
0.000433109
0.000430079
0.000427157
0.000424335
0.000421609
0.000418973
0.000416422
0.000413951
0.000411558
0.000409239
0.000406989
0.000404807
0.00040269
0.000400636
0.000398643
0.000396711
0.000394838
0.000393024
0.000391269
0.000389574
0.000387939
0.000386368
0.000384861
0.000383422
0.000382054
0.000380761
0.000379549
0.000378423
0.000377389
0.000376455
0.000375629
0.000374919
0.000374336
0.000373888
0.000373588
0.000373446
0.000373474
0.000373684
0.000374086
0.000374693
0.000375514
0.000376557
0.000377829
0.000379334
0.000381071
0.000383035
0.000385215
0.000387594
0.000390142
0.00039282
0.000395576
0.000398338
0.000401013
0.000403482
0.000405594
0.000407166
0.000407996
0.000977118
0.000936709
0.000899653
0.000865631
0.000834355
0.000805567
0.000779034
0.000754549
0.000731922
0.000710986
0.000691588
0.000673592
0.000656872
0.000641319
0.00062683
0.000613316
0.000600694
0.000588889
0.000577835
0.00056747
0.000557738
0.000548589
0.000539978
0.000531863
0.000524205
0.000516971
0.000510128
0.000503648
0.000497505
0.000491674
0.000486132
0.000480861
0.000475841
0.000471054
0.000466486
0.000462121
0.000457946
0.000453949
0.000450119
0.000446444
0.000442915
0.000439523
0.000436259
0.000433117
0.000430088
0.000427166
0.000424344
0.000421618
0.000418982
0.000416432
0.000413962
0.000411569
0.00040925
0.000407001
0.000404819
0.000402702
0.000400649
0.000398656
0.000396724
0.000394851
0.000393038
0.000391283
0.000389588
0.000387953
0.000386382
0.000384874
0.000383435
0.000382066
0.000380773
0.00037956
0.000378433
0.000377398
0.000376463
0.000375635
0.000374924
0.000374338
0.000373888
0.000373584
0.000373439
0.000373463
0.000373668
0.000374066
0.000374668
0.000375483
0.00037652
0.000377786
0.000379284
0.000381014
0.000382972
0.000385145
0.000387517
0.000390059
0.000392732
0.000395482
0.000398239
0.00040091
0.000403376
0.000405485
0.000407055
0.000407884
0.000977118
0.000936709
0.000899653
0.000865632
0.000834356
0.000805567
0.000779035
0.000754549
0.000731923
0.000710987
0.000691589
0.000673593
0.000656873
0.00064132
0.000626832
0.000613318
0.000600696
0.000588891
0.000577837
0.000567472
0.00055774
0.000548592
0.000539981
0.000531866
0.000524209
0.000516975
0.000510132
0.000503652
0.000497509
0.000491678
0.000486137
0.000480866
0.000475846
0.00047106
0.000466492
0.000462127
0.000457953
0.000453956
0.000450126
0.000446451
0.000442923
0.000439531
0.000436268
0.000433126
0.000430097
0.000427175
0.000424354
0.000421629
0.000418993
0.000416443
0.000413974
0.000411581
0.000409262
0.000407014
0.000404832
0.000402716
0.000400663
0.000398671
0.000396739
0.000394866
0.000393053
0.000391298
0.000389603
0.000387969
0.000386397
0.000384889
0.00038345
0.000382081
0.000380787
0.000379573
0.000378445
0.000377409
0.000376472
0.000375642
0.000374929
0.00037434
0.000373887
0.00037358
0.000373431
0.000373451
0.000373652
0.000374045
0.000374641
0.00037545
0.000376481
0.00037774
0.000379231
0.000380954
0.000382904
0.000385071
0.000387435
0.00038997
0.000392636
0.000395381
0.000398132
0.000400798
0.00040326
0.000405367
0.000406935
0.000407763
0.000977118
0.000936709
0.000899654
0.000865632
0.000834356
0.000805568
0.000779035
0.00075455
0.000731924
0.000710988
0.000691591
0.000673594
0.000656875
0.000641321
0.000626833
0.00061332
0.000600698
0.000588894
0.00057784
0.000567475
0.000557743
0.000548595
0.000539984
0.000531869
0.000524212
0.000516978
0.000510136
0.000503657
0.000497514
0.000491683
0.000486142
0.000480871
0.000475852
0.000471066
0.000466498
0.000462134
0.00045796
0.000453963
0.000450133
0.000446459
0.000442931
0.00043954
0.000436277
0.000433135
0.000430107
0.000427185
0.000424365
0.00042164
0.000419005
0.000416455
0.000413986
0.000411594
0.000409276
0.000407027
0.000404847
0.000402731
0.000400678
0.000398686
0.000396754
0.000394882
0.000393069
0.000391314
0.000389619
0.000387985
0.000386413
0.000384906
0.000383466
0.000382096
0.000380802
0.000379587
0.000378458
0.000377421
0.000376482
0.00037565
0.000374934
0.000374343
0.000373887
0.000373577
0.000373424
0.000373439
0.000373635
0.000374022
0.000374613
0.000375415
0.00037644
0.000377692
0.000379175
0.00038089
0.000382833
0.000384991
0.000387348
0.000389876
0.000392535
0.000395273
0.000398018
0.00040068
0.000403138
0.000405241
0.000406807
0.000407634
0.000977118
0.000936709
0.000899654
0.000865632
0.000834356
0.000805568
0.000779036
0.000754551
0.000731925
0.000710989
0.000691592
0.000673595
0.000656876
0.000641323
0.000626835
0.000613322
0.0006007
0.000588896
0.000577842
0.000567477
0.000557746
0.000548598
0.000539988
0.000531873
0.000524216
0.000516983
0.000510141
0.000503661
0.000497519
0.000491688
0.000486148
0.000480877
0.000475858
0.000471072
0.000466505
0.000462141
0.000457967
0.000453971
0.000450142
0.000446468
0.00044294
0.000439549
0.000436287
0.000433145
0.000430117
0.000427196
0.000424377
0.000421652
0.000419017
0.000416468
0.000413999
0.000411608
0.00040929
0.000407042
0.000404862
0.000402746
0.000400694
0.000398702
0.000396771
0.000394899
0.000393086
0.000391332
0.000389637
0.000388003
0.000386431
0.000384923
0.000383483
0.000382113
0.000380818
0.000379602
0.000378472
0.000377433
0.000376493
0.000375659
0.000374941
0.000374347
0.000373888
0.000373574
0.000373417
0.000373427
0.000373618
0.000374
0.000374584
0.00037538
0.000376397
0.000377641
0.000379117
0.000380824
0.000382758
0.000384909
0.000387257
0.000389777
0.000392428
0.000395159
0.000397899
0.000400555
0.000403008
0.000405108
0.000406672
0.000407498
0.000977118
0.000936709
0.000899654
0.000865632
0.000834356
0.000805569
0.000779036
0.000754551
0.000731926
0.00071099
0.000691593
0.000673596
0.000656877
0.000641325
0.000626837
0.000613323
0.000600702
0.000588898
0.000577845
0.00056748
0.000557749
0.000548601
0.000539991
0.000531877
0.00052422
0.000516987
0.000510145
0.000503666
0.000497524
0.000491694
0.000486154
0.000480883
0.000475864
0.000471079
0.000466512
0.000462148
0.000457975
0.000453979
0.00045015
0.000446477
0.000442949
0.000439559
0.000436297
0.000433156
0.000430128
0.000427208
0.000424389
0.000421664
0.00041903
0.000416481
0.000414013
0.000411623
0.000409305
0.000407058
0.000404878
0.000402763
0.000400711
0.00039872
0.000396789
0.000394917
0.000393104
0.00039135
0.000389656
0.000388022
0.00038645
0.000384942
0.000383501
0.000382131
0.000380835
0.000379619
0.000378487
0.000377447
0.000376505
0.000375669
0.000374948
0.000374351
0.000373889
0.000373571
0.000373409
0.000373415
0.000373601
0.000373976
0.000374554
0.000375343
0.000376353
0.000377589
0.000379057
0.000380755
0.000382681
0.000384822
0.000387162
0.000389674
0.000392317
0.000395041
0.000397773
0.000400424
0.000402872
0.000404969
0.00040653
0.000407355
0.000977118
0.000936709
0.000899654
0.000865632
0.000834357
0.000805569
0.000779037
0.000754552
0.000731926
0.000710991
0.000691594
0.000673598
0.000656879
0.000641326
0.000626839
0.000613325
0.000600704
0.000588901
0.000577847
0.000567483
0.000557752
0.000548605
0.000539995
0.000531881
0.000524224
0.000516991
0.00051015
0.000503671
0.000497529
0.000491699
0.00048616
0.00048089
0.000475871
0.000471086
0.000466519
0.000462156
0.000457983
0.000453988
0.000450159
0.000446486
0.000442959
0.000439569
0.000436308
0.000433167
0.00043014
0.00042722
0.000424401
0.000421678
0.000419044
0.000416496
0.000414028
0.000411638
0.000409321
0.000407074
0.000404894
0.00040278
0.000400728
0.000398738
0.000396808
0.000394936
0.000393124
0.00039137
0.000389676
0.000388042
0.00038647
0.000384962
0.00038352
0.00038215
0.000380853
0.000379636
0.000378503
0.000377461
0.000376518
0.00037568
0.000374956
0.000374356
0.00037389
0.000373569
0.000373403
0.000373404
0.000373583
0.000373953
0.000374524
0.000375305
0.000376307
0.000377536
0.000378995
0.000380685
0.000382601
0.000384733
0.000387064
0.000389567
0.000392202
0.000394918
0.000397644
0.000400288
0.000402731
0.000404824
0.000406383
0.000407207
0.000977118
0.000936709
0.000899654
0.000865633
0.000834357
0.000805569
0.000779037
0.000754553
0.000731927
0.000710992
0.000691595
0.000673599
0.00065688
0.000641328
0.00062684
0.000613327
0.000600707
0.000588903
0.00057785
0.000567486
0.000557755
0.000548608
0.000539998
0.000531885
0.000524229
0.000516996
0.000510155
0.000503676
0.000497535
0.000491705
0.000486166
0.000480896
0.000475878
0.000471093
0.000466527
0.000462164
0.000457991
0.000453997
0.000450168
0.000446496
0.000442969
0.00043958
0.000436319
0.000433179
0.000430152
0.000427233
0.000424414
0.000421691
0.000419058
0.00041651
0.000414044
0.000411654
0.000409337
0.000407091
0.000404912
0.000402798
0.000400747
0.000398757
0.000396827
0.000394956
0.000393144
0.000391391
0.000389696
0.000388062
0.00038649
0.000384982
0.000383541
0.000382169
0.000380872
0.000379654
0.00037852
0.000377477
0.000376531
0.000375691
0.000374965
0.000374362
0.000373892
0.000373567
0.000373396
0.000373392
0.000373566
0.000373929
0.000374493
0.000375267
0.000376261
0.000377481
0.000378931
0.000380612
0.000382519
0.000384642
0.000386964
0.000389457
0.000392084
0.000394791
0.00039751
0.000400147
0.000402586
0.000404674
0.000406231
0.000407053
0.000977118
0.000936709
0.000899654
0.000865633
0.000834357
0.00080557
0.000779038
0.000754553
0.000731928
0.000710993
0.000691596
0.0006736
0.000656882
0.000641329
0.000626842
0.00061333
0.000600709
0.000588906
0.000577853
0.000567489
0.000557759
0.000548612
0.000540002
0.000531889
0.000524233
0.000517
0.00051016
0.000503682
0.00049754
0.000491711
0.000486172
0.000480903
0.000475885
0.0004711
0.000466535
0.000462172
0.000458
0.000454006
0.000450178
0.000446506
0.00044298
0.000439591
0.00043633
0.000433191
0.000430165
0.000427246
0.000424428
0.000421705
0.000419073
0.000416526
0.000414059
0.00041167
0.000409354
0.000407108
0.00040493
0.000402817
0.000400766
0.000398777
0.000396847
0.000394977
0.000393165
0.000391412
0.000389718
0.000388084
0.000386512
0.000385004
0.000383562
0.00038219
0.000380892
0.000379673
0.000378538
0.000377493
0.000376546
0.000375703
0.000374974
0.000374368
0.000373895
0.000373565
0.00037339
0.000373381
0.000373549
0.000373905
0.000374462
0.000375229
0.000376215
0.000377426
0.000378867
0.000380539
0.000382436
0.000384549
0.000386861
0.000389345
0.000391963
0.000394662
0.000397373
0.000400004
0.000402436
0.000404521
0.000406074
0.000406896
0.000977118
0.000936709
0.000899654
0.000865633
0.000834358
0.00080557
0.000779038
0.000754554
0.000731929
0.000710994
0.000691597
0.000673601
0.000656883
0.000641331
0.000626844
0.000613332
0.000600711
0.000588908
0.000577855
0.000567492
0.000557762
0.000548615
0.000540006
0.000531893
0.000524237
0.000517005
0.000510165
0.000503687
0.000497546
0.000491717
0.000486178
0.000480909
0.000475892
0.000471108
0.000466543
0.000462181
0.000458009
0.000454015
0.000450188
0.000446516
0.00044299
0.000439602
0.000436342
0.000433203
0.000430178
0.000427259
0.000424442
0.00042172
0.000419088
0.000416541
0.000414076
0.000411687
0.000409372
0.000407127
0.000404949
0.000402836
0.000400786
0.000398797
0.000396868
0.000394998
0.000393187
0.000391434
0.00038974
0.000388106
0.000386534
0.000385026
0.000383584
0.000382211
0.000380913
0.000379693
0.000378556
0.00037751
0.000376561
0.000375716
0.000374985
0.000374375
0.000373899
0.000373565
0.000373384
0.00037337
0.000373532
0.000373882
0.000374432
0.000375191
0.000376168
0.000377371
0.000378802
0.000380464
0.000382352
0.000384455
0.000386757
0.000389231
0.00039184
0.00039453
0.000397233
0.000399857
0.000402284
0.000404364
0.000405915
0.000406735
0.000977118
0.00093671
0.000899655
0.000865633
0.000834358
0.00080557
0.000779039
0.000754554
0.000731929
0.000710994
0.000691598
0.000673602
0.000656885
0.000641333
0.000626846
0.000613334
0.000600713
0.000588911
0.000577858
0.000567495
0.000557765
0.000548619
0.00054001
0.000531897
0.000524242
0.00051701
0.00051017
0.000503692
0.000497552
0.000491723
0.000486185
0.000480916
0.000475899
0.000471116
0.000466551
0.000462189
0.000458018
0.000454025
0.000450198
0.000446526
0.000443001
0.000439613
0.000436354
0.000433215
0.000430191
0.000427273
0.000424456
0.000421735
0.000419103
0.000416557
0.000414092
0.000411704
0.00040939
0.000407145
0.000404968
0.000402856
0.000400806
0.000398818
0.000396889
0.00039502
0.000393209
0.000391456
0.000389763
0.000388129
0.000386557
0.000385049
0.000383606
0.000382234
0.000380934
0.000379713
0.000378576
0.000377528
0.000376576
0.00037573
0.000374995
0.000374383
0.000373902
0.000373564
0.000373379
0.000373359
0.000373515
0.000373859
0.000374401
0.000375152
0.000376121
0.000377315
0.000378737
0.000380389
0.000382267
0.00038436
0.000386652
0.000389116
0.000391715
0.000394397
0.000397091
0.000399708
0.000402129
0.000404205
0.000405752
0.000406571
0.000977118
0.00093671
0.000899655
0.000865633
0.000834358
0.000805571
0.000779039
0.000754555
0.00073193
0.000710995
0.000691599
0.000673604
0.000656886
0.000641334
0.000626848
0.000613336
0.000600715
0.000588913
0.000577861
0.000567498
0.000557768
0.000548622
0.000540014
0.000531901
0.000524246
0.000517015
0.000510175
0.000503698
0.000497558
0.000491729
0.000486191
0.000480923
0.000475906
0.000471124
0.000466559
0.000462198
0.000458027
0.000454034
0.000450208
0.000446537
0.000443013
0.000439625
0.000436366
0.000433228
0.000430204
0.000427287
0.000424471
0.00042175
0.000419119
0.000416574
0.000414109
0.000411722
0.000409408
0.000407164
0.000404987
0.000402876
0.000400827
0.000398839
0.000396911
0.000395042
0.000393232
0.000391479
0.000389786
0.000388153
0.000386581
0.000385072
0.000383629
0.000382256
0.000380956
0.000379734
0.000378595
0.000377546
0.000376593
0.000375744
0.000375007
0.000374391
0.000373907
0.000373564
0.000373375
0.000373349
0.000373499
0.000373836
0.000374371
0.000375114
0.000376075
0.000377259
0.000378672
0.000380314
0.000382181
0.000384264
0.000386546
0.000389
0.00039159
0.000394262
0.000396948
0.000399558
0.000401973
0.000404043
0.000405588
0.000406406
0.000977118
0.00093671
0.000899655
0.000865633
0.000834358
0.000805571
0.00077904
0.000754556
0.000731931
0.000710996
0.0006916
0.000673605
0.000656887
0.000641336
0.000626849
0.000613338
0.000600718
0.000588916
0.000577864
0.000567501
0.000557772
0.000548626
0.000540018
0.000531905
0.000524251
0.000517019
0.00051018
0.000503703
0.000497563
0.000491736
0.000486198
0.00048093
0.000475914
0.000471131
0.000466567
0.000462207
0.000458036
0.000454044
0.000450218
0.000446548
0.000443024
0.000439637
0.000436379
0.000433241
0.000430217
0.000427301
0.000424485
0.000421765
0.000419135
0.00041659
0.000414127
0.00041174
0.000409426
0.000407183
0.000405007
0.000402896
0.000400848
0.000398861
0.000396933
0.000395065
0.000393255
0.000391503
0.00038981
0.000388177
0.000386604
0.000385096
0.000383653
0.000382279
0.000380979
0.000379756
0.000378616
0.000377565
0.00037661
0.000375758
0.000375018
0.0003744
0.000373912
0.000373565
0.00037337
0.000373339
0.000373483
0.000373813
0.000374341
0.000375076
0.000376028
0.000377204
0.000378607
0.000380239
0.000382096
0.000384169
0.00038644
0.000388884
0.000391463
0.000394126
0.000396804
0.000399406
0.000401815
0.000403881
0.000405423
0.000406239
0.000977118
0.00093671
0.000899655
0.000865634
0.000834359
0.000805571
0.00077904
0.000754556
0.000731931
0.000710997
0.000691601
0.000673606
0.000656889
0.000641337
0.000626851
0.000613339
0.00060072
0.000588918
0.000577866
0.000567504
0.000557775
0.000548629
0.000540021
0.000531909
0.000524255
0.000517024
0.000510185
0.000503709
0.000497569
0.000491742
0.000486205
0.000480937
0.000475921
0.000471139
0.000466576
0.000462215
0.000458046
0.000454054
0.000450228
0.000446559
0.000443035
0.000439649
0.000436391
0.000433254
0.000430231
0.000427315
0.0004245
0.000421781
0.000419151
0.000416607
0.000414144
0.000411758
0.000409445
0.000407203
0.000405027
0.000402917
0.000400869
0.000398883
0.000396956
0.000395088
0.000393278
0.000391526
0.000389834
0.000388201
0.000386629
0.00038512
0.000383677
0.000382303
0.000381001
0.000379778
0.000378636
0.000377584
0.000376627
0.000375773
0.000375031
0.000374409
0.000373917
0.000373566
0.000373367
0.00037333
0.000373468
0.000373791
0.000374312
0.000375039
0.000375982
0.000377149
0.000378542
0.000380164
0.000382011
0.000384073
0.000386334
0.000388768
0.000391337
0.000393991
0.00039666
0.000399255
0.000401657
0.000403718
0.000405257
0.000406072
0.000977118
0.00093671
0.000899655
0.000865634
0.000834359
0.000805572
0.000779041
0.000754557
0.000731932
0.000710998
0.000691602
0.000673607
0.00065689
0.000641339
0.000626853
0.000613341
0.000600722
0.00058892
0.000577869
0.000567507
0.000557778
0.000548633
0.000540025
0.000531913
0.000524259
0.000517029
0.00051019
0.000503714
0.000497575
0.000491748
0.000486211
0.000480945
0.000475929
0.000471147
0.000466584
0.000462224
0.000458055
0.000454063
0.000450239
0.000446569
0.000443046
0.000439661
0.000436403
0.000433267
0.000430245
0.000427329
0.000424515
0.000421796
0.000419167
0.000416624
0.000414162
0.000411776
0.000409464
0.000407222
0.000405047
0.000402938
0.000400891
0.000398905
0.000396978
0.000395111
0.000393301
0.00039155
0.000389858
0.000388225
0.000386653
0.000385144
0.000383701
0.000382326
0.000381024
0.0003798
0.000378657
0.000377603
0.000376645
0.000375788
0.000375043
0.000374418
0.000373923
0.000373568
0.000373363
0.000373321
0.000373453
0.00037377
0.000374283
0.000375003
0.000375937
0.000377094
0.000378479
0.000380091
0.000381927
0.000383979
0.000386229
0.000388652
0.000391212
0.000393856
0.000396517
0.000399103
0.0004015
0.000403556
0.000405091
0.000405904
0.000977118
0.00093671
0.000899655
0.000865634
0.000834359
0.000805572
0.000779041
0.000754557
0.000731933
0.000710999
0.000691603
0.000673608
0.000656891
0.00064134
0.000626854
0.000613343
0.000600724
0.000588923
0.000577872
0.00056751
0.000557781
0.000548636
0.000540029
0.000531917
0.000524264
0.000517034
0.000510195
0.00050372
0.000497581
0.000491754
0.000486218
0.000480951
0.000475936
0.000471155
0.000466592
0.000462233
0.000458064
0.000454073
0.000450249
0.00044658
0.000443058
0.000439673
0.000436416
0.00043328
0.000430258
0.000427344
0.00042453
0.000421812
0.000419184
0.000416641
0.000414179
0.000411794
0.000409483
0.000407242
0.000405068
0.000402959
0.000400912
0.000398927
0.000397001
0.000395134
0.000393325
0.000391574
0.000389882
0.00038825
0.000386678
0.000385169
0.000383725
0.00038235
0.000381048
0.000379822
0.000378678
0.000377623
0.000376662
0.000375804
0.000375056
0.000374428
0.000373929
0.00037357
0.000373361
0.000373313
0.000373439
0.000373749
0.000374255
0.000374967
0.000375893
0.000377041
0.000378415
0.000380017
0.000381844
0.000383885
0.000386125
0.000388538
0.000391087
0.000393722
0.000396374
0.000398953
0.000401343
0.000403394
0.000404926
0.000405738
0.000977118
0.00093671
0.000899655
0.000865634
0.000834359
0.000805572
0.000779041
0.000754558
0.000731933
0.000710999
0.000691604
0.000673609
0.000656892
0.000641342
0.000626856
0.000613345
0.000600726
0.000588925
0.000577874
0.000567512
0.000557784
0.00054864
0.000540033
0.000531921
0.000524268
0.000517038
0.0005102
0.000503725
0.000497587
0.00049176
0.000486224
0.000480958
0.000475944
0.000471163
0.0004666
0.000462242
0.000458073
0.000454083
0.000450259
0.000446591
0.000443069
0.000439684
0.000436428
0.000433293
0.000430272
0.000427358
0.000424545
0.000421827
0.0004192
0.000416658
0.000414196
0.000411812
0.000409502
0.000407261
0.000405088
0.000402979
0.000400934
0.000398949
0.000397024
0.000395157
0.000393349
0.000391598
0.000389907
0.000388274
0.000386702