/*--------------------------------*- C++ -*----------------------------------*\
  =========                 |
  \\      /  F ield         | OpenFOAM: The Open Source CFD Toolbox
   \\    /   O peration     | Website:  https://openfoam.org
    \\  /    A nd           | Version:  11
     \\/     M anipulation  |
\*---------------------------------------------------------------------------*/
FoamFile
{
    format      ascii;
    class       volScalarField;
    location    "174";
    object      p;
}
// * * * * * * * * * * * * * * * * * * * * * * * * * * * * * * * * * * * * * //

dimensions      [0 2 -2 0 0 0 0];

internalField   nonuniform List<scalar> 
10000
(
3.57842e-07
3.5e-07
3.61556e-07
3.86025e-07
4.14288e-07
4.442e-07
4.75557e-07
5.08268e-07
5.42261e-07
5.77524e-07
6.14071e-07
6.51926e-07
6.91109e-07
7.31638e-07
7.73522e-07
8.16761e-07
8.61341e-07
9.0724e-07
9.54415e-07
1.00281e-06
1.05235e-06
1.10294e-06
1.15446e-06
1.20676e-06
1.25968e-06
1.31301e-06
1.36654e-06
1.42001e-06
1.47316e-06
1.52568e-06
1.57727e-06
1.62763e-06
1.67644e-06
1.72339e-06
1.7682e-06
1.81059e-06
1.8503e-06
1.88704e-06
1.92045e-06
1.94988e-06
1.97332e-06
1.9884e-06
2.01332e-06
2.04592e-06
2.06794e-06
2.0843e-06
2.10227e-06
2.11253e-06
2.11708e-06
2.12845e-06
2.142e-06
2.14517e-06
2.14392e-06
2.14881e-06
2.15513e-06
2.15602e-06
2.15297e-06
2.14708e-06
2.13869e-06
2.12797e-06
2.11503e-06
2.09994e-06
2.08273e-06
2.06345e-06
2.04212e-06
2.01877e-06
1.99341e-06
1.96608e-06
1.9368e-06
1.90559e-06
1.87249e-06
1.83752e-06
1.80071e-06
1.7621e-06
1.72171e-06
1.67957e-06
1.63572e-06
1.59017e-06
1.54297e-06
1.49413e-06
1.44366e-06
1.39158e-06
1.33791e-06
1.28262e-06
1.22573e-06
1.16718e-06
1.10696e-06
1.04498e-06
9.81171e-07
9.15396e-07
8.47487e-07
7.77207e-07
7.04223e-07
6.28048e-07
5.48001e-07
4.63326e-07
3.72744e-07
2.69861e-07
1.38872e-07
6.48333e-09
7.10397e-07
6.76981e-07
6.55976e-07
6.63974e-07
6.8477e-07
7.11769e-07
7.43197e-07
7.7811e-07
8.15866e-07
8.56087e-07
8.98556e-07
9.43141e-07
9.89752e-07
1.03833e-06
1.08882e-06
1.14118e-06
1.19536e-06
1.2513e-06
1.30893e-06
1.36817e-06
1.42891e-06
1.49102e-06
1.55434e-06
1.61869e-06
1.68384e-06
1.74953e-06
1.81548e-06
1.88135e-06
1.94678e-06
2.01137e-06
2.07472e-06
2.13641e-06
2.19601e-06
2.25312e-06
2.30737e-06
2.35842e-06
2.40595e-06
2.44972e-06
2.48951e-06
2.52496e-06
2.55529e-06
2.58194e-06
2.61744e-06
2.64566e-06
2.65346e-06
2.65446e-06
2.66033e-06
2.6738e-06
2.6938e-06
2.71886e-06
2.74197e-06
2.75105e-06
2.7473e-06
2.7439e-06
2.74351e-06
2.74047e-06
2.73423e-06
2.72512e-06
2.71323e-06
2.69863e-06
2.68139e-06
2.66153e-06
2.63908e-06
2.61405e-06
2.58647e-06
2.55633e-06
2.52366e-06
2.48847e-06
2.45077e-06
2.41059e-06
2.36794e-06
2.32285e-06
2.27535e-06
2.22545e-06
2.17319e-06
2.11859e-06
2.06169e-06
2.00249e-06
1.94102e-06
1.87731e-06
1.81134e-06
1.74314e-06
1.67269e-06
1.59997e-06
1.52495e-06
1.44756e-06
1.36773e-06
1.28535e-06
1.20025e-06
1.11223e-06
1.02101e-06
9.26196e-07
8.2726e-07
7.23421e-07
6.13648e-07
4.97017e-07
3.71678e-07
2.25191e-07
3.22023e-08
-1.05637e-07
9.15025e-07
8.6567e-07
8.22162e-07
8.09373e-07
8.12707e-07
8.24944e-07
8.43678e-07
8.67473e-07
8.95294e-07
9.26468e-07
9.60559e-07
9.97275e-07
1.03641e-06
1.07782e-06
1.12138e-06
1.167e-06
1.21461e-06
1.26411e-06
1.31541e-06
1.36843e-06
1.42304e-06
1.4791e-06
1.53645e-06
1.59489e-06
1.65418e-06
1.71405e-06
1.77416e-06
1.83417e-06
1.89367e-06
1.95222e-06
2.00936e-06
2.06462e-06
2.11755e-06
2.16769e-06
2.21467e-06
2.25813e-06
2.29784e-06
2.33363e-06
2.36548e-06
2.39348e-06
2.41784e-06
2.4403e-06
2.46615e-06
2.49319e-06
2.51238e-06
2.52616e-06
2.53666e-06
2.54134e-06
2.54065e-06
2.53816e-06
2.53282e-06
2.52163e-06
2.50746e-06
2.49576e-06
2.48599e-06
2.47556e-06
2.4636e-06
2.44989e-06
2.43428e-06
2.41671e-06
2.39715e-06
2.37557e-06
2.35196e-06
2.32629e-06
2.29854e-06
2.2687e-06
2.23675e-06
2.20269e-06
2.1665e-06
2.12819e-06
2.08774e-06
2.04517e-06
2.00047e-06
1.95365e-06
1.90472e-06
1.85367e-06
1.80052e-06
1.74526e-06
1.6879e-06
1.62844e-06
1.56686e-06
1.50314e-06
1.43726e-06
1.36918e-06
1.29884e-06
1.22616e-06
1.15104e-06
1.07335e-06
9.92893e-07
9.09441e-07
8.22683e-07
7.32207e-07
6.37457e-07
5.37647e-07
4.31836e-07
3.19515e-07
1.99181e-07
5.56893e-08
-1.3768e-07
-2.19229e-07
1.1002e-06
1.04555e-06
9.97207e-07
9.76075e-07
9.70629e-07
9.74969e-07
9.86874e-07
1.00484e-06
1.0277e-06
1.05465e-06
1.08514e-06
1.11878e-06
1.15529e-06
1.19444e-06
1.23608e-06
1.28007e-06
1.32629e-06
1.37464e-06
1.425e-06
1.47725e-06
1.53126e-06
1.58686e-06
1.64386e-06
1.70205e-06
1.76114e-06
1.82084e-06
1.88077e-06
1.94054e-06
1.99969e-06
2.05773e-06
2.11414e-06
2.16842e-06
2.22003e-06
2.2685e-06
2.31341e-06
2.35441e-06
2.39124e-06
2.42379e-06
2.45209e-06
2.47631e-06
2.49679e-06
2.51453e-06
2.53155e-06
2.54763e-06
2.55946e-06
2.567e-06
2.57057e-06
2.5691e-06
2.56296e-06
2.55401e-06
2.54247e-06
2.52786e-06
2.51157e-06
2.49568e-06
2.48012e-06
2.46399e-06
2.4468e-06
2.4283e-06
2.40831e-06
2.38673e-06
2.3635e-06
2.33855e-06
2.31183e-06
2.28331e-06
2.25293e-06
2.22067e-06
2.18649e-06
2.15037e-06
2.11226e-06
2.07217e-06
2.03005e-06
1.98591e-06
1.93973e-06
1.89148e-06
1.84118e-06
1.78879e-06
1.73432e-06
1.67776e-06
1.61908e-06
1.55827e-06
1.4953e-06
1.43015e-06
1.36276e-06
1.29308e-06
1.22105e-06
1.14655e-06
1.06948e-06
9.89669e-07
9.06925e-07
8.2099e-07
7.31536e-07
6.38144e-07
5.4026e-07
4.37125e-07
3.27917e-07
2.12487e-07
8.95626e-08
-5.81013e-08
-2.56594e-07
-3.07773e-07
1.26858e-06
1.21436e-06
1.16648e-06
1.14204e-06
1.13194e-06
1.13163e-06
1.13932e-06
1.1536e-06
1.17335e-06
1.19773e-06
1.22613e-06
1.25812e-06
1.29336e-06
1.3316e-06
1.37262e-06
1.41627e-06
1.46239e-06
1.51086e-06
1.56153e-06
1.61426e-06
1.6689e-06
1.72526e-06
1.78312e-06
1.84224e-06
1.90231e-06
1.963e-06
2.02391e-06
2.08458e-06
2.14454e-06
2.20324e-06
2.26014e-06
2.31466e-06
2.36626e-06
2.41442e-06
2.45868e-06
2.49868e-06
2.53417e-06
2.56501e-06
2.59123e-06
2.61298e-06
2.63056e-06
2.64461e-06
2.65601e-06
2.66467e-06
2.66949e-06
2.67043e-06
2.66775e-06
2.66134e-06
2.65152e-06
2.63907e-06
2.62424e-06
2.60704e-06
2.58818e-06
2.56861e-06
2.54858e-06
2.52784e-06
2.50613e-06
2.48329e-06
2.45915e-06
2.43362e-06
2.40663e-06
2.37809e-06
2.34794e-06
2.31613e-06
2.28258e-06
2.24726e-06
2.21012e-06
2.1711e-06
2.13018e-06
2.0873e-06
2.04245e-06
1.99559e-06
1.94669e-06
1.89574e-06
1.8427e-06
1.78755e-06
1.73028e-06
1.67085e-06
1.60925e-06
1.54543e-06
1.47937e-06
1.41102e-06
1.34032e-06
1.26721e-06
1.1916e-06
1.11338e-06
1.03242e-06
9.48546e-07
8.61558e-07
7.71191e-07
6.77117e-07
5.78929e-07
4.761e-07
3.67928e-07
2.53719e-07
1.33632e-07
6.5304e-09
-1.46366e-07
-3.4894e-07
-3.84727e-07
1.42044e-06
1.36875e-06
1.32246e-06
1.29648e-06
1.28342e-06
1.27982e-06
1.28424e-06
1.29548e-06
1.31252e-06
1.33453e-06
1.36093e-06
1.39124e-06
1.42511e-06
1.46226e-06
1.50244e-06
1.54547e-06
1.59118e-06
1.63941e-06
1.69001e-06
1.74281e-06
1.79764e-06
1.85428e-06
1.91251e-06
1.97204e-06
2.03257e-06
2.0937e-06
2.15504e-06
2.21609e-06
2.27633e-06
2.33521e-06
2.39213e-06
2.4465e-06
2.49774e-06
2.54531e-06
2.58873e-06
2.62761e-06
2.66168e-06
2.69081e-06
2.71497e-06
2.7343e-06
2.74908e-06
2.75973e-06
2.76678e-06
2.77027e-06
2.76993e-06
2.76583e-06
2.75822e-06
2.74728e-06
2.73333e-06
2.71685e-06
2.69812e-06
2.67734e-06
2.65498e-06
2.63159e-06
2.60744e-06
2.58247e-06
2.55659e-06
2.52969e-06
2.50164e-06
2.47236e-06
2.44177e-06
2.40978e-06
2.37633e-06
2.34133e-06
2.30473e-06
2.26646e-06
2.22645e-06
2.18466e-06
2.14102e-06
2.09549e-06
2.04803e-06
1.99858e-06
1.94712e-06
1.89361e-06
1.838e-06
1.78028e-06
1.7204e-06
1.65833e-06
1.59403e-06
1.52746e-06
1.45857e-06
1.38732e-06
1.31363e-06
1.23743e-06
1.15862e-06
1.0771e-06
9.92717e-07
9.05307e-07
8.1466e-07
7.20523e-07
6.22585e-07
5.20472e-07
4.13707e-07
3.01665e-07
1.83797e-07
6.05744e-08
-6.89407e-08
-2.25043e-07
-4.31448e-07
-4.51988e-07
1.56086e-06
1.51203e-06
1.46771e-06
1.44123e-06
1.42642e-06
1.42053e-06
1.42249e-06
1.4313e-06
1.44605e-06
1.46599e-06
1.49056e-06
1.51928e-06
1.55179e-06
1.58779e-06
1.62704e-06
1.66932e-06
1.71444e-06
1.76224e-06
1.81254e-06
1.86515e-06
1.91988e-06
1.97651e-06
2.03478e-06
2.09439e-06
2.15502e-06
2.21625e-06
2.27766e-06
2.33874e-06
2.39893e-06
2.45767e-06
2.51434e-06
2.56831e-06
2.61898e-06
2.66581e-06
2.70827e-06
2.74598e-06
2.77863e-06
2.80607e-06
2.82825e-06
2.84529e-06
2.85739e-06
2.86493e-06
2.86826e-06
2.8676e-06
2.86298e-06
2.85459e-06
2.8427e-06
2.82759e-06
2.80959e-06
2.7891e-06
2.76646e-06
2.74195e-06
2.71593e-06
2.68878e-06
2.66072e-06
2.63179e-06
2.60198e-06
2.57122e-06
2.53943e-06
2.50652e-06
2.47243e-06
2.43708e-06
2.40039e-06
2.36228e-06
2.32267e-06
2.28149e-06
2.23867e-06
2.19415e-06
2.14785e-06
2.09972e-06
2.0497e-06
1.99774e-06
1.94379e-06
1.8878e-06
1.82973e-06
1.76954e-06
1.70717e-06
1.64259e-06
1.57575e-06
1.50659e-06
1.43508e-06
1.36114e-06
1.28469e-06
1.20567e-06
1.12397e-06
1.03948e-06
9.52051e-07
8.61524e-07
7.67701e-07
6.70342e-07
5.69169e-07
4.63847e-07
3.53965e-07
2.3898e-07
1.18486e-07
-6.69966e-09
-1.37212e-07
-2.95455e-07
-5.09721e-07
-5.09633e-07
1.69308e-06
1.64694e-06
1.60465e-06
1.57831e-06
1.56256e-06
1.55518e-06
1.55537e-06
1.56232e-06
1.57524e-06
1.59346e-06
1.61644e-06
1.64376e-06
1.67503e-06
1.70996e-06
1.74829e-06
1.78981e-06
1.83431e-06
1.8816e-06
1.93149e-06
1.98379e-06
2.03829e-06
2.09475e-06
2.15289e-06
2.2124e-06
2.27294e-06
2.33408e-06
2.39536e-06
2.45628e-06
2.51625e-06
2.57469e-06
2.63096e-06
2.68442e-06
2.73446e-06
2.7805e-06
2.82202e-06
2.85859e-06
2.88991e-06
2.91578e-06
2.93615e-06
2.95109e-06
2.96079e-06
2.96553e-06
2.96567e-06
2.96146e-06
2.95314e-06
2.94097e-06
2.92527e-06
2.90638e-06
2.88464e-06
2.86046e-06
2.83416e-06
2.80607e-06
2.77649e-06
2.74573e-06
2.71397e-06
2.68131e-06
2.64778e-06
2.61335e-06
2.57796e-06
2.54156e-06
2.50408e-06
2.46545e-06
2.42557e-06
2.38438e-06
2.34179e-06
2.29773e-06
2.2521e-06
2.20484e-06
2.15588e-06
2.10514e-06
2.05256e-06
1.99808e-06
1.94164e-06
1.88318e-06
1.82265e-06
1.76e-06
1.69516e-06
1.6281e-06
1.55876e-06
1.48708e-06
1.413e-06
1.33645e-06
1.25736e-06
1.17564e-06
1.09119e-06
1.00391e-06
9.13646e-07
8.20253e-07
7.23546e-07
6.23309e-07
5.19298e-07
4.11228e-07
2.98754e-07
1.81412e-07
5.89222e-08
-6.75462e-08
-1.98275e-07
-3.58287e-07
-5.83706e-07
-5.61199e-07
1.81868e-06
1.77494e-06
1.73455e-06
1.70868e-06
1.69251e-06
1.6842e-06
1.68315e-06
1.68869e-06
1.70015e-06
1.71695e-06
1.73859e-06
1.76467e-06
1.79482e-06
1.82875e-06
1.86621e-06
1.90696e-06
1.9508e-06
1.99753e-06
2.04695e-06
2.09884e-06
2.15299e-06
2.20915e-06
2.26702e-06
2.32628e-06
2.38657e-06
2.44745e-06
2.50846e-06
2.56905e-06
2.62866e-06
2.68667e-06
2.74244e-06
2.79532e-06
2.84467e-06
2.8899e-06
2.93048e-06
2.96597e-06
2.99603e-06
3.02046e-06
3.03917e-06
3.05222e-06
3.05975e-06
3.06205e-06
3.05941e-06
3.05216e-06
3.04061e-06
3.0251e-06
3.006e-06
2.98368e-06
2.95853e-06
2.93092e-06
2.9012e-06
2.8697e-06
2.83671e-06
2.80249e-06
2.76723e-06
2.73105e-06
2.69399e-06
2.65607e-06
2.61725e-06
2.57748e-06
2.53672e-06
2.49488e-06
2.4519e-06
2.40768e-06
2.36216e-06
2.31523e-06
2.26682e-06
2.21685e-06
2.16523e-06
2.11189e-06
2.05676e-06
1.99976e-06
1.94084e-06
1.87992e-06
1.81694e-06
1.75184e-06
1.68457e-06
1.61506e-06
1.54326e-06
1.46911e-06
1.39253e-06
1.31346e-06
1.23182e-06
1.14752e-06
1.06047e-06
9.70563e-07
8.77662e-07
7.81629e-07
6.82298e-07
5.79483e-07
4.72973e-07
3.62536e-07
2.47891e-07
1.28647e-07
4.63427e-09
-1.22652e-07
-2.53132e-07
-4.14454e-07
-6.51373e-07
-6.089e-07
1.93862e-06
1.89697e-06
1.85829e-06
1.83303e-06
1.81677e-06
1.8079e-06
1.80597e-06
1.81045e-06
1.82076e-06
1.83639e-06
1.85689e-06
1.88187e-06
1.91101e-06
1.94401e-06
1.98062e-06
2.02062e-06
2.06378e-06
2.1099e-06
2.15877e-06
2.21017e-06
2.26387e-06
2.31961e-06
2.37709e-06
2.43597e-06
2.49587e-06
2.55636e-06
2.61695e-06
2.6771e-06
2.73623e-06
2.79371e-06
2.84888e-06
2.9011e-06
2.94971e-06
2.99412e-06
3.03377e-06
3.06821e-06
3.09709e-06
3.12018e-06
3.13738e-06
3.14871e-06
3.15431e-06
3.15443e-06
3.14937e-06
3.13947e-06
3.1251e-06
3.10664e-06
3.0845e-06
3.05907e-06
3.03077e-06
2.99997e-06
2.96705e-06
2.93233e-06
2.89609e-06
2.85858e-06
2.82e-06
2.78047e-06
2.74007e-06
2.69882e-06
2.65672e-06
2.61371e-06
2.56977e-06
2.52483e-06
2.47882e-06
2.43164e-06
2.38323e-06
2.33349e-06
2.28233e-06
2.22967e-06
2.17543e-06
2.11951e-06
2.06185e-06
2.00236e-06
1.94097e-06
1.87761e-06
1.81222e-06
1.74472e-06
1.67505e-06
1.60315e-06
1.52895e-06
1.45239e-06
1.3734e-06
1.2919e-06
1.20782e-06
1.12107e-06
1.03157e-06
9.39202e-07
8.43855e-07
7.45398e-07
6.43689e-07
5.38568e-07
4.2986e-07
3.17382e-07
2.00915e-07
8.01349e-08
-4.5025e-08
-1.72766e-07
-3.0259e-07
-4.6423e-07
-7.10327e-07
-6.51433e-07
2.05351e-06
2.01367e-06
1.97652e-06
1.95193e-06
1.93575e-06
1.92658e-06
1.92405e-06
1.92774e-06
1.93714e-06
1.9518e-06
1.97131e-06
1.99534e-06
2.02356e-06
2.0557e-06
2.0915e-06
2.13074e-06
2.1732e-06
2.21868e-06
2.26695e-06
2.31779e-06
2.37096e-06
2.42619e-06
2.48317e-06
2.54156e-06
2.60097e-06
2.66096e-06
2.72102e-06
2.78062e-06
2.83917e-06
2.89602e-06
2.95054e-06
3.00204e-06
3.04988e-06
3.09345e-06
3.13218e-06
3.16562e-06
3.19338e-06
3.21523e-06
3.23104e-06
3.24082e-06
3.24469e-06
3.24287e-06
3.23567e-06
3.22344e-06
3.20658e-06
3.18549e-06
3.16061e-06
3.13236e-06
3.10116e-06
3.06742e-06
3.0315e-06
2.99374e-06
2.95443e-06
2.91381e-06
2.87208e-06
2.82937e-06
2.78579e-06
2.74137e-06
2.69611e-06
2.65e-06
2.603e-06
2.55505e-06
2.50609e-06
2.45603e-06
2.4048e-06
2.35229e-06
2.29844e-06
2.24314e-06
2.1863e-06
2.12784e-06
2.06768e-06
2.00573e-06
1.94191e-06
1.87615e-06
1.80838e-06
1.73852e-06
1.6665e-06
1.59226e-06
1.51573e-06
1.43684e-06
1.35552e-06
1.27169e-06
1.18529e-06
1.09622e-06
1.0044e-06
9.09738e-07
8.12123e-07
7.11443e-07
6.07574e-07
5.00382e-07
3.89729e-07
2.75474e-07
1.57452e-07
3.54002e-08
-9.066e-08
-2.18672e-07
-3.47752e-07
-5.09159e-07
-7.6124e-07
-6.90201e-07
2.1638e-06
2.12553e-06
2.08973e-06
2.06581e-06
2.04985e-06
2.04053e-06
2.03761e-06
2.0407e-06
2.04937e-06
2.06323e-06
2.08191e-06
2.10509e-06
2.13247e-06
2.1638e-06
2.19883e-06
2.23733e-06
2.27909e-06
2.3239e-06
2.37153e-06
2.42176e-06
2.47433e-06
2.52898e-06
2.58538e-06
2.64319e-06
2.70201e-06
2.7614e-06
2.82085e-06
2.87982e-06
2.93771e-06
2.99388e-06
3.04767e-06
3.09842e-06
3.14547e-06
3.18819e-06
3.22603e-06
3.25849e-06
3.2852e-06
3.30589e-06
3.32043e-06
3.3288e-06
3.3311e-06
3.32756e-06
3.31846e-06
3.30417e-06
3.28509e-06
3.26164e-06
3.23429e-06
3.20347e-06
3.16962e-06
3.13315e-06
3.09443e-06
3.05382e-06
3.01161e-06
2.96804e-06
2.92333e-06
2.87761e-06
2.831e-06
2.78356e-06
2.73529e-06
2.68619e-06
2.63624e-06
2.58539e-06
2.53357e-06
2.4807e-06
2.42671e-06
2.37151e-06
2.31501e-06
2.25711e-06
2.19773e-06
2.13677e-06
2.07415e-06
2.00978e-06
1.94358e-06
1.87546e-06
1.80535e-06
1.73318e-06
1.65888e-06
1.58236e-06
1.50357e-06
1.42242e-06
1.33886e-06
1.2528e-06
1.16418e-06
1.07291e-06
9.7892e-07
8.82111e-07
7.82393e-07
6.79667e-07
5.73828e-07
4.64768e-07
3.52376e-07
2.36549e-07
1.17165e-07
-5.99634e-09
-1.32851e-07
-2.61163e-07
-3.89865e-07
-5.51733e-07
-8.09073e-07
-7.28867e-07
2.26978e-06
2.23288e-06
2.1983e-06
2.17504e-06
2.15934e-06
2.15001e-06
2.14682e-06
2.14947e-06
2.15757e-06
2.17076e-06
2.18871e-06
2.21114e-06
2.23777e-06
2.26834e-06
2.30263e-06
2.3404e-06
2.38146e-06
2.42558e-06
2.47254e-06
2.52211e-06
2.57404e-06
2.62804e-06
2.6838e-06
2.74096e-06
2.79913e-06
2.85784e-06
2.91661e-06
2.97488e-06
3.03205e-06
3.08749e-06
3.14052e-06
3.19049e-06
3.23673e-06
3.27861e-06
3.31555e-06
3.34708e-06
3.37279e-06
3.3924e-06
3.40577e-06
3.41286e-06
3.41375e-06
3.40866e-06
3.39787e-06
3.38173e-06
3.36066e-06
3.3351e-06
3.30551e-06
3.27235e-06
3.23605e-06
3.19705e-06
3.15574e-06
3.11246e-06
3.06751e-06
3.02117e-06
2.97363e-06
2.92506e-06
2.87557e-06
2.82525e-06
2.7741e-06
2.72214e-06
2.66935e-06
2.61569e-06
2.5611e-06
2.50551e-06
2.44885e-06
2.39101e-06
2.33193e-06
2.27149e-06
2.20962e-06
2.14621e-06
2.08118e-06
2.01443e-06
1.94589e-06
1.87547e-06
1.80308e-06
1.72866e-06
1.65212e-06
1.57339e-06
1.4924e-06
1.40909e-06
1.32337e-06
1.23519e-06
1.14445e-06
1.0511e-06
9.55061e-07
8.56245e-07
7.54572e-07
6.49959e-07
5.42316e-07
4.31556e-07
3.17595e-07
2.00357e-07
7.97493e-08
-4.44189e-08
-1.7203e-07
-3.00722e-07
-4.29373e-07
-5.92379e-07
-8.55558e-07
-7.66471e-07
2.37169e-06
2.33601e-06
2.30252e-06
2.27988e-06
2.26449e-06
2.25522e-06
2.25187e-06
2.25418e-06
2.26181e-06
2.27444e-06
2.29178e-06
2.31353e-06
2.33947e-06
2.36933e-06
2.40291e-06
2.43997e-06
2.48033e-06
2.52375e-06
2.57002e-06
2.6189e-06
2.67014e-06
2.72345e-06
2.77851e-06
2.83497e-06
2.89243e-06
2.95042e-06
3.00845e-06
3.06597e-06
3.12238e-06
3.17704e-06
3.22929e-06
3.27845e-06
3.32387e-06
3.36491e-06
3.40099e-06
3.43162e-06
3.45638e-06
3.47499e-06
3.48727e-06
3.49318e-06
3.4928e-06
3.48631e-06
3.474e-06
3.4562e-06
3.43335e-06
3.40588e-06
3.37425e-06
3.33894e-06
3.3004e-06
3.25907e-06
3.21533e-06
3.16955e-06
3.12205e-06
3.07308e-06
3.02287e-06
2.97159e-06
2.91937e-06
2.8663e-06
2.8124e-06
2.7577e-06
2.70218e-06
2.64582e-06
2.58856e-06
2.53033e-06
2.47107e-06
2.41067e-06
2.34907e-06
2.28616e-06
2.22185e-06
2.15605e-06
2.08866e-06
2.01959e-06
1.94877e-06
1.87609e-06
1.80149e-06
1.72487e-06
1.64616e-06
1.56529e-06
1.48219e-06
1.39679e-06
1.30901e-06
1.21878e-06
1.12604e-06
1.03072e-06
9.32749e-07
8.32054e-07
7.28562e-07
6.22202e-07
5.12899e-07
4.00585e-07
2.85193e-07
1.66671e-07
4.49489e-08
-8.01509e-08
-2.08488e-07
-3.376e-07
-4.66334e-07
-6.30569e-07
-8.99032e-07
-8.00837e-07
2.4697e-06
2.43511e-06
2.40261e-06
2.38057e-06
2.36551e-06
2.35633e-06
2.3529e-06
2.35496e-06
2.36222e-06
2.37437e-06
2.39115e-06
2.41231e-06
2.4376e-06
2.4668e-06
2.49969e-06
2.53607e-06
2.57573e-06
2.61845e-06
2.66401e-06
2.71218e-06
2.7627e-06
2.81529e-06
2.86962e-06
2.92533e-06
2.98203e-06
3.03926e-06
3.09651e-06
3.15325e-06
3.20886e-06
3.26271e-06
3.31415e-06
3.3625e-06
3.4071e-06
3.4473e-06
3.48254e-06
3.5123e-06
3.53616e-06
3.55382e-06
3.56511e-06
3.56994e-06
3.5684e-06
3.56065e-06
3.54695e-06
3.52767e-06
3.5032e-06
3.47399e-06
3.44052e-06
3.40324e-06
3.36264e-06
3.31914e-06
3.27314e-06
3.22503e-06
3.17512e-06
3.12369e-06
3.07096e-06
3.01711e-06
2.9623e-06
2.90661e-06
2.85009e-06
2.79276e-06
2.73463e-06
2.67566e-06
2.61582e-06
2.55505e-06
2.49326e-06
2.43039e-06
2.36633e-06
2.30101e-06
2.23433e-06
2.1662e-06
2.09651e-06
2.02519e-06
1.95214e-06
1.87727e-06
1.8005e-06
1.72176e-06
1.64095e-06
1.55801e-06
1.47287e-06
1.38546e-06
1.2957e-06
1.20353e-06
1.10888e-06
1.0117e-06
9.11907e-07
8.0945e-07
7.04261e-07
5.96279e-07
4.85443e-07
3.71697e-07
2.54992e-07
1.35293e-07
1.25431e-08
-1.13425e-07
-2.42457e-07
-3.71998e-07
-5.00868e-07
-6.66287e-07
-9.39534e-07
-8.32581e-07
2.56396e-06
2.53037e-06
2.49877e-06
2.4773e-06
2.46256e-06
2.45352e-06
2.45004e-06
2.45192e-06
2.45887e-06
2.47061e-06
2.48691e-06
2.50752e-06
2.53222e-06
2.56079e-06
2.59303e-06
2.62874e-06
2.6677e-06
2.70972e-06
2.75457e-06
2.80201e-06
2.85179e-06
2.90363e-06
2.9572e-06
3.01214e-06
3.06805e-06
3.12448e-06
3.18093e-06
3.23684e-06
3.29163e-06
3.34467e-06
3.39528e-06
3.44281e-06
3.48659e-06
3.52598e-06
3.56039e-06
3.58931e-06
3.61232e-06
3.62909e-06
3.63944e-06
3.64329e-06
3.64068e-06
3.63178e-06
3.61684e-06
3.5962e-06
3.57027e-06
3.53948e-06
3.50432e-06
3.46524e-06
3.42273e-06
3.37722e-06
3.32913e-06
3.27884e-06
3.22667e-06
3.17291e-06
3.1178e-06
3.06153e-06
3.00425e-06
2.94608e-06
2.88705e-06
2.82721e-06
2.76657e-06
2.70511e-06
2.64278e-06
2.57955e-06
2.51533e-06
2.45005e-06
2.38363e-06
2.31597e-06
2.24698e-06
2.17658e-06
2.10466e-06
2.03114e-06
1.95593e-06
1.87893e-06
1.80007e-06
1.71926e-06
1.63643e-06
1.55149e-06
1.46439e-06
1.37504e-06
1.28339e-06
1.18937e-06
1.09291e-06
9.93958e-07
8.92456e-07
7.88344e-07
6.81569e-07
5.72076e-07
4.59817e-07
3.44748e-07
2.26831e-07
1.06043e-07
-1.76607e-08
-1.44443e-07
-2.74136e-07
-4.04105e-07
-5.33139e-07
-6.99696e-07
-9.77386e-07
-8.62196e-07
2.6546e-06
2.62191e-06
2.59115e-06
2.57021e-06
2.55579e-06
2.54691e-06
2.54343e-06
2.54517e-06
2.55185e-06
2.56325e-06
2.57911e-06
2.59922e-06
2.62336e-06
2.65134e-06
2.68296e-06
2.71801e-06
2.75629e-06
2.79761e-06
2.84174e-06
2.88845e-06
2.93748e-06
2.98855e-06
3.04133e-06
3.09548e-06
3.15058e-06
3.20619e-06
3.26181e-06
3.3169e-06
3.37085e-06
3.42305e-06
3.47284e-06
3.51955e-06
3.56251e-06
3.60109e-06
3.6347e-06
3.66282e-06
3.68501e-06
3.70095e-06
3.71043e-06
3.71336e-06
3.70978e-06
3.69983e-06
3.68375e-06
3.66188e-06
3.63461e-06
3.60239e-06
3.56567e-06
3.52495e-06
3.48067e-06
3.43331e-06
3.38327e-06
3.33093e-06
3.27665e-06
3.2207e-06
3.16335e-06
3.10478e-06
3.04517e-06
2.98462e-06
2.92321e-06
2.86097e-06
2.79793e-06
2.73407e-06
2.66936e-06
2.60375e-06
2.53718e-06
2.46958e-06
2.40086e-06
2.33094e-06
2.25972e-06
2.18712e-06
2.11304e-06
2.03738e-06
1.96007e-06
1.88101e-06
1.80012e-06
1.71732e-06
1.63253e-06
1.54567e-06
1.45668e-06
1.36549e-06
1.27202e-06
1.17623e-06
1.07806e-06
9.77434e-07
8.74315e-07
7.68649e-07
6.60387e-07
5.49485e-07
4.35901e-07
3.19602e-07
2.00559e-07
7.87597e-08
-4.58335e-08
-1.73381e-07
-3.03707e-07
-4.34097e-07
-5.63314e-07
-7.30964e-07
-1.01283e-06
-8.89928e-07
2.74172e-06
2.70986e-06
2.67988e-06
2.65944e-06
2.64534e-06
2.63662e-06
2.63317e-06
2.6348e-06
2.64127e-06
2.65235e-06
2.66781e-06
2.68746e-06
2.71109e-06
2.73851e-06
2.76952e-06
2.80393e-06
2.84155e-06
2.88218e-06
2.92559e-06
2.97156e-06
3.01984e-06
3.07013e-06
3.12212e-06
3.17545e-06
3.22973e-06
3.28451e-06
3.33929e-06
3.39353e-06
3.44664e-06
3.498e-06
3.54696e-06
3.59285e-06
3.63501e-06
3.6728e-06
3.70563e-06
3.73297e-06
3.75438e-06
3.76953e-06
3.7782e-06
3.78028e-06
3.7758e-06
3.76489e-06
3.74777e-06
3.72478e-06
3.6963e-06
3.66275e-06
3.62462e-06
3.58237e-06
3.53647e-06
3.48738e-06
3.43552e-06
3.38128e-06
3.32501e-06
3.26701e-06
3.20754e-06
3.1468e-06
3.08497e-06
3.02218e-06
2.95849e-06
2.89396e-06
2.82862e-06
2.76246e-06
2.69546e-06
2.62758e-06
2.55874e-06
2.4889e-06
2.41796e-06
2.34585e-06
2.27248e-06
2.19774e-06
2.12157e-06
2.04385e-06
1.96451e-06
1.88346e-06
1.80061e-06
1.71589e-06
1.62921e-06
1.5405e-06
1.4497e-06
1.35673e-06
1.26154e-06
1.16407e-06
1.06426e-06
9.62052e-07
8.57407e-07
7.50278e-07
6.40621e-07
5.284e-07
4.1358e-07
2.96133e-07
1.76042e-07
5.3298e-08
-7.21288e-08
-2.00399e-07
-3.31329e-07
-4.62132e-07
-5.91546e-07
-7.60249e-07
-1.04606e-06
-9.15949e-07
2.82541e-06
2.79433e-06
2.76507e-06
2.74511e-06
2.73132e-06
2.72277e-06
2.71935e-06
2.7209e-06
2.72719e-06
2.73799e-06
2.7531e-06
2.77232e-06
2.79546e-06
2.82234e-06
2.85277e-06
2.88656e-06
2.92353e-06
2.96347e-06
3.00618e-06
3.05141e-06
3.09892e-06
3.14843e-06
3.19962e-06
3.25214e-06
3.30559e-06
3.35953e-06
3.41346e-06
3.46686e-06
3.51912e-06
3.56965e-06
3.61778e-06
3.66286e-06
3.70422e-06
3.74124e-06
3.7733e-06
3.7999e-06
3.82057e-06
3.83497e-06
3.84288e-06
3.84417e-06
3.83886e-06
3.82706e-06
3.809e-06
3.78498e-06
3.75538e-06
3.72063e-06
3.68119e-06
3.63753e-06
3.59013e-06
3.53943e-06
3.48588e-06
3.42986e-06
3.37173e-06
3.3118e-06
3.25033e-06
3.18754e-06
3.12361e-06
3.05869e-06
2.99284e-06
2.92613e-06
2.85859e-06
2.79023e-06
2.72103e-06
2.65095e-06
2.57995e-06
2.50794e-06
2.43487e-06
2.36065e-06
2.28518e-06
2.2084e-06
2.13019e-06
2.05049e-06
1.96919e-06
1.88621e-06
1.80148e-06
1.7149e-06
1.6264e-06
1.53592e-06
1.44338e-06
1.34873e-06
1.25189e-06
1.15281e-06
1.05144e-06
9.47741e-07
8.41656e-07
7.33148e-07
6.22182e-07
5.08723e-07
3.92745e-07
2.74227e-07
1.53154e-07
2.95257e-08
-9.66849e-08
-2.25639e-07
-3.57147e-07
-4.88356e-07
-6.17976e-07
-7.87697e-07
-1.07724e-06
-9.40396e-07
2.90577e-06
2.87541e-06
2.84683e-06
2.82731e-06
2.81383e-06
2.80545e-06
2.80208e-06
2.80357e-06
2.80969e-06
2.82024e-06
2.83502e-06
2.85385e-06
2.87653e-06
2.9029e-06
2.93276e-06
2.96596e-06
3.00228e-06
3.04155e-06
3.08355e-06
3.12806e-06
3.17481e-06
3.22354e-06
3.27393e-06
3.32564e-06
3.37825e-06
3.43135e-06
3.48444e-06
3.53698e-06
3.58841e-06
3.6381e-06
3.68542e-06
3.7297e-06
3.77028e-06
3.80654e-06
3.83787e-06
3.86374e-06
3.8837e-06
3.89739e-06
3.90458e-06
3.90514e-06
3.89906e-06
3.88644e-06
3.86751e-06
3.84254e-06
3.81192e-06
3.77606e-06
3.73541e-06
3.69046e-06
3.64166e-06
3.58948e-06
3.53435e-06
3.47667e-06
3.4168e-06
3.35505e-06
3.2917e-06
3.22697e-06
3.16106e-06
3.0941e-06
3.02619e-06
2.9574e-06
2.88777e-06
2.81731e-06
2.746e-06
2.67383e-06
2.60073e-06
2.52665e-06
2.45152e-06
2.37526e-06
2.29779e-06
2.21902e-06
2.13887e-06
2.05724e-06
1.97405e-06
1.88922e-06
1.80267e-06
1.71431e-06
1.62407e-06
1.53189e-06
1.43769e-06
1.34141e-06
1.243e-06
1.1424e-06
1.03956e-06
9.34435e-07
8.26988e-07
7.17181e-07
6.04981e-07
4.90361e-07
3.73298e-07
2.53774e-07
1.31781e-07
7.32274e-09
-1.19627e-07
-2.49229e-07
-3.81292e-07
-5.12898e-07
-6.42733e-07
-8.13436e-07
-1.10653e-06
-9.63385e-07
2.98286e-06
2.95318e-06
2.92524e-06
2.90616e-06
2.89296e-06
2.88475e-06
2.88144e-06
2.88288e-06
2.88886e-06
2.89918e-06
2.91365e-06
2.9321e-06
2.95435e-06
2.98022e-06
3.00955e-06
3.04216e-06
3.07787e-06
3.11647e-06
3.15778e-06
3.20156e-06
3.24757e-06
3.29553e-06
3.34512e-06
3.39601e-06
3.4478e-06
3.50007e-06
3.55231e-06
3.60402e-06
3.65461e-06
3.70348e-06
3.74998e-06
3.79348e-06
3.8333e-06
3.86881e-06
3.89943e-06
3.9246e-06
3.94388e-06
3.9569e-06
3.96342e-06
3.96329e-06
3.95649e-06
3.94312e-06
3.92338e-06
3.89755e-06
3.86598e-06
3.8291e-06
3.78735e-06
3.74119e-06
3.6911e-06
3.63754e-06
3.58094e-06
3.5217e-06
3.4602e-06
3.39674e-06
3.33161e-06
3.26506e-06
3.19726e-06
3.12838e-06
3.05852e-06
2.98775e-06
2.91612e-06
2.84365e-06
2.77033e-06
2.69614e-06
2.62104e-06
2.54497e-06
2.46787e-06
2.38965e-06
2.31025e-06
2.22957e-06
2.14754e-06
2.06406e-06
1.97906e-06
1.89245e-06
1.80414e-06
1.71408e-06
1.62217e-06
1.52835e-06
1.43256e-06
1.33474e-06
1.23483e-06
1.13277e-06
1.02854e-06
9.22068e-07
8.13333e-07
7.02299e-07
5.88939e-07
4.73226e-07
3.55143e-07
2.34676e-07
1.11819e-07
-1.34204e-08
-1.41067e-07
-2.71286e-07
-4.03881e-07
-5.35874e-07
-6.6593e-07
-8.37583e-07
-1.13404e-06
-9.8501e-07
3.05677e-06
3.02773e-06
3.00039e-06
2.98171e-06
2.96879e-06
2.96075e-06
2.9575e-06
2.95891e-06
2.96476e-06
2.97487e-06
2.98906e-06
3.00715e-06
3.02898e-06
3.05439e-06
3.08319e-06
3.11524e-06
3.15033e-06
3.1883e-06
3.22893e-06
3.272e-06
3.31726e-06
3.36446e-06
3.41327e-06
3.46335e-06
3.51433e-06
3.56576e-06
3.61717e-06
3.66805e-06
3.71782e-06
3.76587e-06
3.81159e-06
3.8543e-06
3.89338e-06
3.92817e-06
3.95809e-06
3.9826e-06
4.00123e-06
4.01361e-06
4.01949e-06
4.01871e-06
4.01125e-06
3.99718e-06
3.97669e-06
3.95006e-06
3.91763e-06
3.8798e-06
3.83702e-06
3.78976e-06
3.73847e-06
3.68363e-06
3.62565e-06
3.56496e-06
3.50192e-06
3.43686e-06
3.37007e-06
3.30178e-06
3.2322e-06
3.16151e-06
3.08979e-06
3.01713e-06
2.9436e-06
2.86921e-06
2.79397e-06
2.71786e-06
2.64084e-06
2.56286e-06
2.48386e-06
2.40377e-06
2.32251e-06
2.24e-06
2.15616e-06
2.07091e-06
1.98416e-06
1.89584e-06
1.80586e-06
1.71415e-06
1.62064e-06
1.52526e-06
1.42795e-06
1.32866e-06
1.22732e-06
1.12389e-06
1.01832e-06
9.10576e-07
8.00624e-07
6.88433e-07
5.73978e-07
4.57237e-07
3.38196e-07
2.16842e-07
9.31727e-08
-3.28031e-08
-1.61109e-07
-2.91914e-07
-4.25017e-07
-5.57387e-07
-6.8767e-07
-8.6024e-07
-1.1599e-06
-1.00535e-06
3.12755e-06
3.09912e-06
3.07235e-06
3.05406e-06
3.04141e-06
3.03353e-06
3.03035e-06
3.03172e-06
3.03746e-06
3.04737e-06
3.06129e-06
3.07905e-06
3.10048e-06
3.12544e-06
3.15374e-06
3.18524e-06
3.21974e-06
3.25708e-06
3.29704e-06
3.33942e-06
3.38396e-06
3.4304e-06
3.47843e-06
3.52773e-06
3.57789e-06
3.62851e-06
3.67911e-06
3.72917e-06
3.77812e-06
3.82538e-06
3.87032e-06
3.91228e-06
3.95063e-06
3.98472e-06
4.01397e-06
4.03783e-06
4.05583e-06
4.06761e-06
4.07288e-06
4.0715e-06
4.06342e-06
4.0487e-06
4.02752e-06
4.00015e-06
3.96691e-06
3.92822e-06
3.88449e-06
3.8362e-06
3.7838e-06
3.72776e-06
3.66851e-06
3.60646e-06
3.54198e-06
3.47541e-06
3.40704e-06
3.33713e-06
3.26587e-06
3.19345e-06
3.11997e-06
3.04552e-06
2.97018e-06
2.89396e-06
2.81689e-06
2.73894e-06
2.66008e-06
2.58028e-06
2.49946e-06
2.41757e-06
2.33453e-06
2.25026e-06
2.16469e-06
2.07774e-06
1.98932e-06
1.89935e-06
1.80777e-06
1.71449e-06
1.61945e-06
1.52258e-06
1.42382e-06
1.32312e-06
1.22042e-06
1.11568e-06
1.00885e-06
8.999e-07
7.88797e-07
6.75513e-07
5.60026e-07
4.42318e-07
3.22374e-07
2.00186e-07
7.57528e-08
-5.09165e-08
-1.79845e-07
-3.11205e-07
-4.44795e-07
-5.77532e-07
-7.08042e-07
-8.81496e-07
-1.18419e-06
-1.02449e-06
3.19527e-06
3.16742e-06
3.14119e-06
3.12327e-06
3.11088e-06
3.10316e-06
3.10004e-06
3.10139e-06
3.10702e-06
3.11675e-06
3.13042e-06
3.14786e-06
3.16891e-06
3.19343e-06
3.22126e-06
3.25222e-06
3.28615e-06
3.32288e-06
3.36219e-06
3.40388e-06
3.44771e-06
3.49342e-06
3.5407e-06
3.58921e-06
3.63859e-06
3.6884e-06
3.7382e-06
3.78745e-06
3.83562e-06
3.8821e-06
3.92627e-06
3.9675e-06
4.00513e-06
4.03855e-06
4.06715e-06
4.09038e-06
4.10779e-06
4.11899e-06
4.12369e-06
4.12174e-06
4.11307e-06
4.09775e-06
4.07594e-06
4.04788e-06
4.0139e-06
3.9744e-06
3.9298e-06
3.88055e-06
3.82712e-06
3.76996e-06
3.70952e-06
3.6462e-06
3.58037e-06
3.51239e-06
3.44254e-06
3.37109e-06
3.29824e-06
3.22419e-06
3.14904e-06
3.0729e-06
2.99583e-06
2.91788e-06
2.83905e-06
2.75935e-06
2.67874e-06
2.59719e-06
2.51464e-06
2.43102e-06
2.34628e-06
2.26033e-06
2.1731e-06
2.08451e-06
1.99449e-06
1.90296e-06
1.80983e-06
1.71505e-06
1.61855e-06
1.52026e-06
1.42012e-06
1.31808e-06
1.21409e-06
1.1081e-06
1.00008e-06
8.89984e-07
7.77792e-07
6.63476e-07
5.47016e-07
4.28396e-07
3.07604e-07
1.84631e-07
5.9479e-08
-6.78432e-08
-1.9736e-07
-3.29246e-07
-4.63299e-07
-5.9639e-07
-7.27127e-07
-9.01429e-07
-1.207e-06
-1.04247e-06
3.26e-06
3.23269e-06
3.20698e-06
3.18942e-06
3.17726e-06
3.1697e-06
3.16665e-06
3.16798e-06
3.17351e-06
3.18307e-06
3.19649e-06
3.21363e-06
3.23433e-06
3.25843e-06
3.28579e-06
3.31624e-06
3.34962e-06
3.38575e-06
3.42443e-06
3.46546e-06
3.5086e-06
3.55358e-06
3.60012e-06
3.64787e-06
3.69647e-06
3.74551e-06
3.79452e-06
3.84299e-06
3.89038e-06
3.9361e-06
3.97953e-06
4.02004e-06
4.05699e-06
4.08974e-06
4.11771e-06
4.14035e-06
4.15719e-06
4.16783e-06
4.172e-06
4.16951e-06
4.1603e-06
4.14441e-06
4.122e-06
4.09331e-06
4.05865e-06
4.0184e-06
3.97299e-06
3.92286e-06
3.86847e-06
3.81027e-06
3.74871e-06
3.6842e-06
3.61712e-06
3.5478e-06
3.47657e-06
3.40366e-06