/*--------------------------------*- C++ -*----------------------------------*\
  =========                 |
  \\      /  F ield         | OpenFOAM: The Open Source CFD Toolbox
   \\    /   O peration     | Website:  https://openfoam.org
    \\  /    A nd           | Version:  11
     \\/     M anipulation  |
\*---------------------------------------------------------------------------*/
FoamFile
{
    format      ascii;
    class       volScalarField;
    location    "12";
    object      k;
}
// * * * * * * * * * * * * * * * * * * * * * * * * * * * * * * * * * * * * * //

dimensions      [0 2 -2 0 0 0 0];

internalField   nonuniform List<scalar> 
10000
(
0.000965041
0.000867076
0.000791595
0.000732103
0.000684971
0.000647629
0.000618101
0.000594816
0.000576517
0.000562196
0.000551042
0.000542392
0.000535708
0.000530588
0.000526687
0.000523714
0.000521449
0.000519726
0.000518414
0.000517411
0.00051664
0.000516045
0.000515581
0.000515215
0.000514924
0.000514689
0.000514497
0.000514339
0.000514206
0.000514094
0.000513998
0.000513916
0.000513844
0.000513782
0.000513727
0.000513678
0.000513634
0.000513596
0.000513561
0.000513529
0.000513501
0.000513476
0.000513453
0.000513432
0.000513413
0.000513395
0.000513379
0.000513365
0.000513352
0.000513339
0.000513328
0.000513318
0.000513308
0.0005133
0.000513291
0.000513284
0.000513277
0.000513271
0.000513265
0.000513259
0.000513254
0.00051325
0.000513245
0.000513241
0.000513238
0.000513234
0.000513231
0.000513228
0.000513225
0.000513222
0.00051322
0.000513218
0.000513215
0.000513213
0.000513212
0.00051321
0.000513208
0.000513207
0.000513205
0.000513204
0.000513203
0.000513201
0.0005132
0.000513199
0.000513198
0.000513197
0.000513195
0.000513194
0.000513193
0.000513192
0.00051319
0.000513189
0.000513188
0.000513186
0.000513185
0.000513184
0.000513183
0.000513182
0.000513181
0.000513181
0.000950407
0.000862278
0.00078974
0.000731286
0.000684564
0.000647411
0.000617979
0.000594748
0.000576482
0.000562184
0.000551045
0.000542407
0.000535741
0.000530626
0.000526718
0.000523741
0.000521475
0.000519751
0.000518438
0.000517433
0.000516662
0.000516066
0.0005156
0.000515234
0.000514941
0.000514706
0.000514513
0.000514354
0.00051422
0.000514108
0.000514011
0.000513928
0.000513856
0.000513792
0.000513737
0.000513687
0.000513643
0.000513604
0.000513568
0.000513537
0.000513508
0.000513482
0.000513459
0.000513437
0.000513418
0.0005134
0.000513384
0.000513369
0.000513355
0.000513343
0.000513332
0.000513321
0.000513311
0.000513302
0.000513294
0.000513287
0.00051328
0.000513273
0.000513267
0.000513261
0.000513256
0.000513251
0.000513247
0.000513243
0.000513239
0.000513235
0.000513232
0.000513229
0.000513226
0.000513223
0.000513221
0.000513219
0.000513216
0.000513214
0.000513213
0.000513211
0.000513209
0.000513207
0.000513206
0.000513205
0.000513203
0.000513202
0.000513201
0.000513199
0.000513198
0.000513197
0.000513196
0.000513195
0.000513193
0.000513192
0.000513191
0.000513189
0.000513188
0.000513187
0.000513185
0.000513184
0.000513183
0.000513182
0.000513181
0.000513181
0.000946997
0.000859488
0.000788009
0.000730231
0.000683909
0.000646989
0.000617698
0.000594556
0.00057635
0.000562093
0.000550983
0.000542368
0.000535721
0.000530619
0.000526718
0.000523745
0.000521482
0.00051976
0.000518449
0.000517447
0.000516677
0.000516082
0.000515617
0.000515251
0.00051496
0.000514724
0.000514531
0.000514372
0.000514238
0.000514125
0.000514028
0.000513945
0.000513872
0.000513808
0.000513751
0.000513701
0.000513656
0.000513616
0.00051358
0.000513548
0.000513519
0.000513492
0.000513468
0.000513446
0.000513426
0.000513408
0.000513391
0.000513376
0.000513362
0.000513349
0.000513337
0.000513326
0.000513316
0.000513307
0.000513299
0.000513291
0.000513283
0.000513277
0.00051327
0.000513265
0.000513259
0.000513254
0.00051325
0.000513245
0.000513241
0.000513238
0.000513234
0.000513231
0.000513228
0.000513225
0.000513223
0.00051322
0.000513218
0.000513216
0.000513214
0.000513212
0.00051321
0.000513209
0.000513207
0.000513206
0.000513204
0.000513203
0.000513202
0.0005132
0.000513199
0.000513198
0.000513197
0.000513195
0.000513194
0.000513193
0.000513191
0.00051319
0.000513189
0.000513187
0.000513186
0.000513185
0.000513183
0.000513182
0.000513182
0.000513181
0.000946017
0.000858064
0.000786756
0.000729277
0.000683214
0.000646487
0.000617333
0.000594289
0.000576154
0.000561949
0.000550877
0.000542291
0.000535667
0.000530582
0.000526693
0.000523729
0.000521473
0.000519757
0.00051845
0.000517452
0.000516686
0.000516093
0.000515631
0.000515267
0.000514976
0.000514742
0.00051455
0.000514391
0.000514258
0.000514144
0.000514047
0.000513963
0.00051389
0.000513825
0.000513768
0.000513717
0.000513672
0.000513631
0.000513594
0.000513561
0.000513531
0.000513504
0.000513479
0.000513457
0.000513436
0.000513417
0.0005134
0.000513384
0.00051337
0.000513357
0.000513344
0.000513333
0.000513323
0.000513313
0.000513304
0.000513296
0.000513288
0.000513281
0.000513275
0.000513269
0.000513263
0.000513258
0.000513253
0.000513249
0.000513245
0.000513241
0.000513237
0.000513234
0.000513231
0.000513228
0.000513225
0.000513222
0.00051322
0.000513218
0.000513216
0.000513214
0.000513212
0.00051321
0.000513209
0.000513207
0.000513206
0.000513204
0.000513203
0.000513202
0.0005132
0.000513199
0.000513198
0.000513197
0.000513195
0.000513194
0.000513192
0.000513191
0.000513189
0.000513188
0.000513187
0.000513185
0.000513184
0.000513183
0.000513182
0.000513182
0.000945653
0.000857294
0.000785906
0.000728512
0.000682584
0.000645988
0.000616945
0.00059399
0.000575924
0.000561773
0.000550743
0.00054219
0.000535591
0.000530525
0.000526651
0.000523698
0.000521451
0.000519743
0.000518443
0.00051745
0.000516688
0.000516099
0.00051564
0.000515279
0.00051499
0.000514758
0.000514567
0.000514409
0.000514276
0.000514163
0.000514066
0.000513982
0.000513908
0.000513843
0.000513785
0.000513734
0.000513688
0.000513646
0.000513609
0.000513575
0.000513545
0.000513517
0.000513491
0.000513468
0.000513447
0.000513428
0.00051341
0.000513394
0.000513379
0.000513365
0.000513352
0.00051334
0.00051333
0.00051332
0.00051331
0.000513302
0.000513294
0.000513287
0.00051328
0.000513273
0.000513268
0.000513262
0.000513257
0.000513252
0.000513248
0.000513244
0.00051324
0.000513237
0.000513233
0.00051323
0.000513228
0.000513225
0.000513222
0.00051322
0.000513218
0.000513216
0.000513214
0.000513212
0.000513211
0.000513209
0.000513207
0.000513206
0.000513205
0.000513203
0.000513202
0.0005132
0.000513199
0.000513198
0.000513196
0.000513195
0.000513193
0.000513192
0.00051319
0.000513189
0.000513187
0.000513186
0.000513185
0.000513184
0.000513183
0.000513182
0.000945473
0.000856831
0.000785312
0.000727911
0.00068204
0.000645524
0.000616564
0.000593683
0.00057568
0.00056158
0.000550591
0.000542071
0.000535498
0.000530452
0.000526594
0.000523654
0.000521418
0.000519718
0.000518425
0.000517439
0.000516682
0.000516098
0.000515643
0.000515285
0.000514999
0.000514769
0.00051458
0.000514423
0.000514291
0.000514179
0.000514083
0.000513998
0.000513925
0.00051386
0.000513802
0.00051375
0.000513703
0.000513661
0.000513623
0.000513589
0.000513558
0.000513529
0.000513503
0.00051348
0.000513458
0.000513438
0.00051342
0.000513403
0.000513387
0.000513373
0.00051336
0.000513348
0.000513337
0.000513326
0.000513317
0.000513308
0.000513299
0.000513292
0.000513285
0.000513278
0.000513272
0.000513266
0.000513261
0.000513256
0.000513252
0.000513247
0.000513243
0.00051324
0.000513236
0.000513233
0.00051323
0.000513227
0.000513225
0.000513222
0.00051322
0.000513218
0.000513216
0.000513214
0.000513212
0.000513211
0.000513209
0.000513208
0.000513206
0.000513205
0.000513203
0.000513202
0.0005132
0.000513199
0.000513198
0.000513196
0.000513195
0.000513193
0.000513191
0.00051319
0.000513188
0.000513187
0.000513185
0.000513184
0.000513183
0.000513183
0.00094536
0.000856516
0.000784874
0.000727431
0.000681575
0.000645107
0.000616204
0.000593382
0.000575433
0.000561379
0.000550429
0.00054194
0.000535392
0.000530366
0.000526525
0.000523598
0.000521373
0.000519682
0.000518397
0.000517418
0.000516667
0.000516089
0.000515638
0.000515284
0.000515002
0.000514774
0.000514588
0.000514433
0.000514303
0.000514192
0.000514096
0.000514012
0.000513939
0.000513874
0.000513816
0.000513764
0.000513717
0.000513675
0.000513637
0.000513602
0.00051357
0.000513541
0.000513515
0.00051349
0.000513468
0.000513448
0.000513429
0.000513412
0.000513396
0.000513381
0.000513367
0.000513355
0.000513343
0.000513333
0.000513323
0.000513313
0.000513305
0.000513297
0.00051329
0.000513283
0.000513276
0.00051327
0.000513265
0.00051326
0.000513255
0.000513251
0.000513247
0.000513243
0.000513239
0.000513236
0.000513233
0.00051323
0.000513227
0.000513224
0.000513222
0.00051322
0.000513218
0.000513216
0.000513214
0.000513212
0.000513211
0.000513209
0.000513207
0.000513206
0.000513205
0.000513203
0.000513202
0.0005132
0.000513199
0.000513197
0.000513196
0.000513194
0.000513192
0.000513191
0.000513189
0.000513188
0.000513186
0.000513185
0.000513184
0.000513184
0.000945278
0.000856284
0.000784534
0.000727039
0.000681179
0.000644735
0.000615873
0.000593097
0.000575192
0.000561179
0.000550263
0.000541802
0.000535278
0.000530271
0.000526445
0.000523531
0.000521317
0.000519636
0.00051836
0.000517387
0.000516644
0.000516071
0.000515626
0.000515276
0.000514998
0.000514773
0.00051459
0.000514437
0.000514309
0.000514199
0.000514105
0.000514022
0.000513949
0.000513885
0.000513827
0.000513775
0.000513729
0.000513686
0.000513648
0.000513613
0.000513581
0.000513551
0.000513524
0.0005135
0.000513477
0.000513456
0.000513437
0.00051342
0.000513403
0.000513388
0.000513374
0.000513361
0.000513349
0.000513338
0.000513328
0.000513319
0.00051331
0.000513302
0.000513294
0.000513287
0.00051328
0.000513274
0.000513269
0.000513263
0.000513258
0.000513254
0.000513249
0.000513245
0.000513242
0.000513238
0.000513235
0.000513232
0.000513229
0.000513226
0.000513224
0.000513222
0.00051322
0.000513217
0.000513216
0.000513214
0.000513212
0.00051321
0.000513209
0.000513207
0.000513206
0.000513204
0.000513203
0.000513201
0.0005132
0.000513198
0.000513196
0.000513195
0.000513193
0.000513192
0.00051319
0.000513188
0.000513187
0.000513186
0.000513185
0.000513184
0.000945213
0.000856101
0.000784261
0.000726714
0.000680838
0.000644406
0.000615572
0.000592831
0.000574963
0.000560983
0.000550098
0.000541663
0.00053516
0.00053017
0.000526358
0.000523457
0.000521253
0.000519582
0.000518313
0.000517348
0.000516611
0.000516045
0.000515605
0.00051526
0.000514986
0.000514766
0.000514585
0.000514436
0.00051431
0.000514202
0.000514109
0.000514028
0.000513956
0.000513892
0.000513835
0.000513784
0.000513737
0.000513695
0.000513656
0.000513621
0.000513589
0.00051356
0.000513533
0.000513508
0.000513485
0.000513464
0.000513444
0.000513426
0.00051341
0.000513394
0.00051338
0.000513367
0.000513355
0.000513343
0.000513333
0.000513323
0.000513314
0.000513306
0.000513298
0.000513291
0.000513284
0.000513278
0.000513272
0.000513266
0.000513261
0.000513256
0.000513252
0.000513248
0.000513244
0.00051324
0.000513237
0.000513234
0.000513231
0.000513228
0.000513226
0.000513223
0.000513221
0.000513219
0.000513217
0.000513215
0.000513213
0.000513212
0.00051321
0.000513208
0.000513207
0.000513205
0.000513204
0.000513202
0.000513201
0.000513199
0.000513197
0.000513196
0.000513194
0.000513192
0.000513191
0.000513189
0.000513187
0.000513186
0.000513185
0.000513185
0.000945162
0.000855954
0.000784036
0.00072644
0.000680545
0.000644116
0.000615301
0.000592586
0.000574748
0.000560797
0.000549937
0.000541524
0.000535039
0.000530066
0.000526267
0.000523376
0.000521183
0.00051952
0.00051826
0.000517302
0.000516572
0.000516011
0.000515577
0.000515238
0.000514968
0.000514752
0.000514575
0.000514429
0.000514305
0.0005142
0.000514109
0.000514029
0.000513959
0.000513896
0.00051384
0.000513789
0.000513743
0.000513701
0.000513663
0.000513628
0.000513595
0.000513566
0.000513539
0.000513514
0.000513491
0.00051347
0.00051345
0.000513432
0.000513415
0.000513399
0.000513385
0.000513372
0.000513359
0.000513348
0.000513337
0.000513327
0.000513318
0.000513309
0.000513301
0.000513294
0.000513287
0.00051328
0.000513274
0.000513269
0.000513263
0.000513259
0.000513254
0.00051325
0.000513246
0.000513242
0.000513239
0.000513235
0.000513232
0.00051323
0.000513227
0.000513225
0.000513222
0.00051322
0.000513218
0.000513216
0.000513214
0.000513212
0.000513211
0.000513209
0.000513208
0.000513206
0.000513204
0.000513203
0.000513201
0.0005132
0.000513198
0.000513196
0.000513194
0.000513193
0.000513191
0.000513189
0.000513188
0.000513187
0.000513186
0.000513185
0.000945119
0.000855831
0.000783846
0.000726207
0.00068029
0.00064386
0.000615058
0.000592363
0.000574548
0.000560621
0.000549782
0.000541388
0.00053492
0.00052996
0.000526173
0.000523293
0.000521108
0.000519453
0.000518201
0.00051725
0.000516526
0.000515972
0.000515544
0.000515209
0.000514945
0.000514733
0.00051456
0.000514417
0.000514296
0.000514193
0.000514104
0.000514027
0.000513958
0.000513896
0.000513841
0.000513791
0.000513745
0.000513704
0.000513666
0.000513632
0.0005136
0.00051357
0.000513543
0.000513518
0.000513495
0.000513474
0.000513454
0.000513436
0.000513419
0.000513403
0.000513389
0.000513375
0.000513363
0.000513351
0.00051334
0.00051333
0.000513321
0.000513312
0.000513304
0.000513296
0.000513289
0.000513283
0.000513276
0.000513271
0.000513265
0.00051326
0.000513256
0.000513251
0.000513247
0.000513244
0.00051324
0.000513237
0.000513234
0.000513231
0.000513228
0.000513226
0.000513223
0.000513221
0.000513219
0.000513217
0.000513215
0.000513213
0.000513211
0.00051321
0.000513208
0.000513207
0.000513205
0.000513203
0.000513202
0.0005132
0.000513198
0.000513197
0.000513195
0.000513193
0.000513191
0.00051319
0.000513188
0.000513187
0.000513186
0.000513185
0.000945083
0.000855726
0.000783685
0.000726005
0.000680068
0.000643634
0.00061484
0.000592161
0.000574365
0.000560456
0.000549636
0.000541258
0.000534804
0.000529856
0.000526079
0.000523207
0.000521031
0.000519384
0.000518138
0.000517194
0.000516477
0.000515928
0.000515505
0.000515176
0.000514916
0.000514709
0.00051454
0.0005144
0.000514283
0.000514183
0.000514096
0.00051402
0.000513953
0.000513893
0.000513839
0.00051379
0.000513746
0.000513705
0.000513668
0.000513633
0.000513602
0.000513573
0.000513546
0.000513521
0.000513498
0.000513477
0.000513457
0.000513439
0.000513422
0.000513406
0.000513392
0.000513378
0.000513365
0.000513354
0.000513343
0.000513332
0.000513323
0.000513314
0.000513306
0.000513298
0.000513291
0.000513284
0.000513278
0.000513272
0.000513267
0.000513262
0.000513257
0.000513253
0.000513249
0.000513245
0.000513241
0.000513238
0.000513235
0.000513232
0.000513229
0.000513226
0.000513224
0.000513222
0.000513219
0.000513217
0.000513216
0.000513214
0.000513212
0.00051321
0.000513209
0.000513207
0.000513205
0.000513204
0.000513202
0.0005132
0.000513199
0.000513197
0.000513195
0.000513193
0.000513192
0.00051319
0.000513189
0.000513187
0.000513186
0.000513186
0.000945051
0.000855636
0.000783545
0.00072583
0.000679873
0.000643433
0.000614644
0.000591977
0.000574196
0.000560304
0.000549499
0.000541134
0.000534692
0.000529754
0.000525986
0.000523122
0.000520953
0.000519312
0.000518073
0.000517135
0.000516424
0.000515881
0.000515463
0.000515139
0.000514884
0.000514681
0.000514516
0.00051438
0.000514266
0.000514169
0.000514085
0.000514011
0.000513946
0.000513887
0.000513835
0.000513787
0.000513743
0.000513704
0.000513667
0.000513633
0.000513602
0.000513574
0.000513547
0.000513522
0.0005135
0.000513478
0.000513459
0.000513441
0.000513424
0.000513408
0.000513393
0.00051338
0.000513367
0.000513355
0.000513344
0.000513334
0.000513324
0.000513316
0.000513307
0.000513299
0.000513292
0.000513286
0.000513279
0.000513273
0.000513268
0.000513263
0.000513258
0.000513253
0.000513249
0.000513245
0.000513242
0.000513238
0.000513235
0.000513232
0.000513229
0.000513227
0.000513224
0.000513222
0.00051322
0.000513218
0.000513216
0.000513214
0.000513212
0.00051321
0.000513209
0.000513207
0.000513205
0.000513204
0.000513202
0.000513201
0.000513199
0.000513197
0.000513195
0.000513194
0.000513192
0.00051319
0.000513189
0.000513187
0.000513186
0.000513186
0.000945023
0.000855558
0.000783423
0.000725676
0.0006797
0.000643255
0.000614469
0.000591811
0.000574042
0.000560163
0.000549371
0.000541018
0.000534585
0.000529656
0.000525895
0.000523039
0.000520875
0.000519241
0.000518007
0.000517075
0.000516369
0.000515831
0.000515419
0.0005151
0.00051485
0.00051465
0.000514489
0.000514357
0.000514246
0.000514152
0.00051407
0.000513999
0.000513936
0.000513879
0.000513828
0.000513782
0.000513739
0.0005137
0.000513664
0.000513631
0.000513601
0.000513573
0.000513547
0.000513522
0.0005135
0.000513479
0.000513459
0.000513441
0.000513425
0.000513409
0.000513394
0.000513381
0.000513368
0.000513356
0.000513345
0.000513335
0.000513325
0.000513316
0.000513308
0.0005133
0.000513293
0.000513286
0.00051328
0.000513274
0.000513268
0.000513263
0.000513258
0.000513254
0.00051325
0.000513246
0.000513242
0.000513239
0.000513235
0.000513232
0.00051323
0.000513227
0.000513224
0.000513222
0.00051322
0.000513218
0.000513216
0.000513214
0.000513212
0.00051321
0.000513209
0.000513207
0.000513205
0.000513204
0.000513202
0.0005132
0.000513199
0.000513197
0.000513195
0.000513194
0.000513192
0.00051319
0.000513189
0.000513187
0.000513187
0.000513186
0.000944999
0.000855489
0.000783315
0.000725539
0.000679547
0.000643095
0.000614311
0.00059166
0.000573902
0.000560034
0.000549252
0.000540909
0.000534485
0.000529563
0.000525809
0.000522958
0.0005208
0.000519171
0.000517942
0.000517015
0.000516314
0.000515781
0.000515374
0.000515059
0.000514813
0.000514618
0.000514461
0.000514332
0.000514224
0.000514133
0.000514054
0.000513985
0.000513924
0.000513869
0.000513819
0.000513774
0.000513733
0.000513695
0.00051366
0.000513628
0.000513598
0.000513571
0.000513545
0.000513521
0.000513499
0.000513478
0.000513459
0.000513441
0.000513424
0.000513409
0.000513394
0.000513381
0.000513368
0.000513356
0.000513346
0.000513335
0.000513326
0.000513317
0.000513308
0.000513301
0.000513293
0.000513287
0.00051328
0.000513274
0.000513269
0.000513263
0.000513259
0.000513254
0.00051325
0.000513246
0.000513242
0.000513239
0.000513235
0.000513232
0.00051323
0.000513227
0.000513224
0.000513222
0.00051322
0.000513218
0.000513216
0.000513214
0.000513212
0.00051321
0.000513209
0.000513207
0.000513205
0.000513204
0.000513202
0.0005132
0.000513199
0.000513197
0.000513195
0.000513193
0.000513192
0.00051319
0.000513189
0.000513187
0.000513186
0.000513186
0.000944978
0.000855428
0.00078322
0.000725418
0.00067941
0.000642951
0.000614168
0.000591523
0.000573773
0.000559915
0.000549142
0.000540807
0.00053439
0.000529475
0.000525726
0.00052288
0.000520727
0.000519102
0.000517878
0.000516955
0.000516259
0.000515731
0.000515328
0.000515017
0.000514776
0.000514585
0.000514431
0.000514306
0.000514201
0.000514113
0.000514036
0.00051397
0.00051391
0.000513857
0.000513809
0.000513766
0.000513726
0.000513689
0.000513655
0.000513624
0.000513594
0.000513567
0.000513542
0.000513519
0.000513497
0.000513477
0.000513458
0.00051344
0.000513424
0.000513408
0.000513394
0.00051338
0.000513368
0.000513356
0.000513345
0.000513335
0.000513326
0.000513317
0.000513308
0.000513301
0.000513293
0.000513286
0.00051328
0.000513274
0.000513269
0.000513263
0.000513258
0.000513254
0.00051325
0.000513246
0.000513242
0.000513238
0.000513235
0.000513232
0.000513229
0.000513227
0.000513224
0.000513222
0.00051322
0.000513217
0.000513215
0.000513214
0.000513212
0.00051321
0.000513208
0.000513207
0.000513205
0.000513203
0.000513202
0.0005132
0.000513198
0.000513197
0.000513195
0.000513193
0.000513192
0.00051319
0.000513188
0.000513187
0.000513186
0.000513186
0.000944959
0.000855373
0.000783134
0.000725309
0.000679286
0.000642822
0.000614039
0.000591399
0.000573656
0.000559805
0.000549041
0.000540713
0.000534303
0.000529392
0.000525648
0.000522806
0.000520657
0.000519036
0.000517816
0.000516898
0.000516205
0.000515681
0.000515282
0.000514976
0.000514738
0.000514551
0.000514401
0.000514278
0.000514177
0.000514091
0.000514017
0.000513953
0.000513896
0.000513845
0.000513798
0.000513756
0.000513717
0.000513682
0.000513649
0.000513618
0.00051359
0.000513563
0.000513539
0.000513516
0.000513494
0.000513474
0.000513456
0.000513438
0.000513422
0.000513407
0.000513393
0.00051338
0.000513367
0.000513356
0.000513345
0.000513335
0.000513325
0.000513316
0.000513308
0.0005133
0.000513293
0.000513286
0.00051328
0.000513274
0.000513268
0.000513263
0.000513258
0.000513254
0.000513249
0.000513245
0.000513242
0.000513238
0.000513235
0.000513232
0.000513229
0.000513226
0.000513224
0.000513221
0.000513219
0.000513217
0.000513215
0.000513213
0.000513211
0.000513209
0.000513208
0.000513206
0.000513204
0.000513203
0.000513201
0.0005132
0.000513198
0.000513196
0.000513195
0.000513193
0.000513191
0.00051319
0.000513188
0.000513187
0.000513186
0.000513186
0.000944943
0.000855324
0.000783057
0.000725211
0.000679175
0.000642704
0.000613922
0.000591286
0.000573549
0.000559705
0.000548947
0.000540626
0.000534221
0.000529315
0.000525575
0.000522737
0.000520591
0.000518974
0.000517757
0.000516842
0.000516153
0.000515633
0.000515238
0.000514935
0.000514701
0.000514517
0.00051437
0.000514251
0.000514152
0.000514069
0.000513998
0.000513936
0.000513881
0.000513831
0.000513787
0.000513746
0.000513708
0.000513674
0.000513642
0.000513612
0.000513584
0.000513559
0.000513535
0.000513512
0.000513491
0.000513472
0.000513453
0.000513436
0.00051342
0.000513405
0.000513391
0.000513378
0.000513366
0.000513354
0.000513344
0.000513334
0.000513324
0.000513315
0.000513307
0.000513299
0.000513292
0.000513285
0.000513279
0.000513273
0.000513268
0.000513262
0.000513258
0.000513253
0.000513249
0.000513245
0.000513241
0.000513237
0.000513234
0.000513231
0.000513228
0.000513226
0.000513223
0.000513221
0.000513218
0.000513216
0.000513214
0.000513212
0.000513211
0.000513209
0.000513207
0.000513206
0.000513204
0.000513202
0.000513201
0.000513199
0.000513197
0.000513196
0.000513194
0.000513192
0.000513191
0.000513189
0.000513188
0.000513187
0.000513186
0.000513185
0.000944928
0.00085528
0.000782988
0.000725122
0.000679074
0.000642598
0.000613815
0.000591182
0.000573451
0.000559613
0.000548861
0.000540546
0.000534145
0.000529243
0.000525507
0.000522672
0.000520529
0.000518915
0.000517701
0.000516789
0.000516103
0.000515586
0.000515194
0.000514895
0.000514664
0.000514483
0.00051434
0.000514224
0.000514128
0.000514047
0.000513978
0.000513918
0.000513865
0.000513817
0.000513774
0.000513735
0.000513699
0.000513665
0.000513634
0.000513605
0.000513579
0.000513553
0.00051353
0.000513508
0.000513488
0.000513468
0.00051345
0.000513434
0.000513418
0.000513403
0.000513389
0.000513376
0.000513364
0.000513353
0.000513342
0.000513332
0.000513323
0.000513314
0.000513306
0.000513298
0.000513291
0.000513285
0.000513278
0.000513272
0.000513267
0.000513262
0.000513257
0.000513252
0.000513248
0.000513244
0.00051324
0.000513237
0.000513234
0.00051323
0.000513228
0.000513225
0.000513222
0.00051322
0.000513218
0.000513216
0.000513214
0.000513212
0.00051321
0.000513208
0.000513206
0.000513205
0.000513203
0.000513202
0.0005132
0.000513198
0.000513197
0.000513195
0.000513194
0.000513192
0.00051319
0.000513189
0.000513188
0.000513186
0.000513185
0.000513185
0.000944914
0.00085524
0.000782924
0.000725041
0.000678982
0.000642501
0.000613717
0.000591088
0.000573361
0.000559529
0.000548782
0.000540472
0.000534075
0.000529177
0.000525444
0.000522611
0.000520471
0.000518859
0.000517648
0.000516738
0.000516056
0.000515542
0.000515153
0.000514857
0.000514629
0.000514451
0.00051431
0.000514197
0.000514104
0.000514025
0.000513959
0.000513901
0.000513849
0.000513803
0.000513762
0.000513724
0.000513689
0.000513656
0.000513626
0.000513598
0.000513572
0.000513548
0.000513525
0.000513504
0.000513484
0.000513465
0.000513447
0.000513431
0.000513415
0.000513401
0.000513387
0.000513374
0.000513363
0.000513351
0.000513341
0.000513331
0.000513322
0.000513313
0.000513305
0.000513297
0.00051329
0.000513284
0.000513277
0.000513271
0.000513266
0.000513261
0.000513256
0.000513251
0.000513247
0.000513243
0.000513239
0.000513236
0.000513233
0.00051323
0.000513227
0.000513224
0.000513222
0.000513219
0.000513217
0.000513215
0.000513213
0.000513211
0.000513209
0.000513207
0.000513206
0.000513204
0.000513202
0.000513201
0.000513199
0.000513198
0.000513196
0.000513195
0.000513193
0.000513191
0.00051319
0.000513188
0.000513187
0.000513186
0.000513185
0.000513185
0.000944902
0.000855204
0.000782867
0.000724967
0.000678898
0.000642412
0.000613628
0.000591001
0.000573279
0.000559452
0.00054871
0.000540403
0.000534011
0.000529116
0.000525385
0.000522555
0.000520417
0.000518807
0.000517598
0.000516691
0.000516011
0.000515499
0.000515113
0.00051482
0.000514595
0.00051442
0.000514281
0.000514171
0.00051408
0.000514004
0.000513939
0.000513883
0.000513834
0.000513789
0.000513749
0.000513712
0.000513679
0.000513647
0.000513618
0.000513591
0.000513566
0.000513542
0.00051352
0.000513499
0.000513479
0.000513461
0.000513444
0.000513428
0.000513412
0.000513398
0.000513385
0.000513372
0.000513361
0.000513349
0.000513339
0.000513329
0.00051332
0.000513312
0.000513304
0.000513296
0.000513289
0.000513282
0.000513276
0.00051327
0.000513265
0.00051326
0.000513255
0.00051325
0.000513246
0.000513242
0.000513238
0.000513235
0.000513232
0.000513229
0.000513226
0.000513223
0.000513221
0.000513218
0.000513216
0.000513214
0.000513212
0.00051321
0.000513208
0.000513207
0.000513205
0.000513203
0.000513202
0.0005132
0.000513199
0.000513197
0.000513195
0.000513194
0.000513192
0.000513191
0.000513189
0.000513188
0.000513187
0.000513185
0.000513185
0.000513184
0.000944891
0.00085517
0.000782814
0.0007249
0.000678821
0.000642331
0.000613546
0.000590922
0.000573203
0.00055938
0.000548643
0.000540341
0.000533951
0.000529059
0.000525331
0.000522503
0.000520366
0.000518758
0.000517551
0.000516646
0.000515968
0.000515459
0.000515076
0.000514785
0.000514562
0.000514389
0.000514254
0.000514145
0.000514057
0.000513983
0.00051392
0.000513866
0.000513818
0.000513775
0.000513736
0.000513701
0.000513668
0.000513638
0.00051361
0.000513584
0.000513559
0.000513536
0.000513514
0.000513494
0.000513475
0.000513457
0.00051344
0.000513424
0.00051341
0.000513396
0.000513382
0.00051337
0.000513358
0.000513347
0.000513337
0.000513328
0.000513319
0.00051331
0.000513302
0.000513295
0.000513288
0.000513281
0.000513275
0.000513269
0.000513264
0.000513259
0.000513254
0.000513249
0.000513245
0.000513241
0.000513237
0.000513234
0.000513231
0.000513228
0.000513225
0.000513222
0.00051322
0.000513217
0.000513215
0.000513213
0.000513211
0.000513209
0.000513207
0.000513206
0.000513204
0.000513202
0.000513201
0.000513199
0.000513198
0.000513196
0.000513195
0.000513193
0.000513192
0.00051319
0.000513189
0.000513187
0.000513186
0.000513185
0.000513184
0.000513184
0.000944881
0.00085514
0.000782766
0.000724838
0.000678751
0.000642256
0.000613471
0.000590849
0.000573133
0.000559315
0.000548582
0.000540283
0.000533897
0.000529007
0.00052528
0.000522454
0.00052032
0.000518713
0.000517508
0.000516605
0.000515929
0.000515422
0.00051504
0.000514751
0.000514531
0.000514361
0.000514227
0.000514121
0.000514034
0.000513963
0.000513902
0.000513849
0.000513803
0.000513761
0.000513724
0.00051369
0.000513658
0.000513629
0.000513602
0.000513576
0.000513553
0.00051353
0.000513509
0.000513489
0.000513471
0.000513453
0.000513437
0.000513421
0.000513406
0.000513393
0.00051338
0.000513368
0.000513356
0.000513345
0.000513335
0.000513326
0.000513317
0.000513308
0.000513301
0.000513293
0.000513286
0.00051328
0.000513274
0.000513268
0.000513262
0.000513257
0.000513253
0.000513248
0.000513244
0.00051324
0.000513236
0.000513233
0.00051323
0.000513227
0.000513224
0.000513221
0.000513219
0.000513216
0.000513214
0.000513212
0.00051321
0.000513208
0.000513206
0.000513205
0.000513203
0.000513201
0.0005132
0.000513198
0.000513197
0.000513195
0.000513194
0.000513192
0.000513191
0.000513189
0.000513188
0.000513187
0.000513186
0.000513184
0.000513184
0.000513183
0.000944872
0.000855112
0.000782722
0.000724782
0.000678686
0.000642188
0.000613402
0.000590781
0.000573069
0.000559255
0.000548525
0.00054023
0.000533846
0.000528959
0.000525234
0.000522409
0.000520276
0.000518671
0.000517467
0.000516566
0.000515891
0.000515386
0.000515007
0.00051472
0.000514502
0.000514333
0.000514202
0.000514098
0.000514013
0.000513943
0.000513884
0.000513833
0.000513788
0.000513748
0.000513712
0.000513679
0.000513648
0.00051362
0.000513594
0.000513569
0.000513546
0.000513524
0.000513504
0.000513484
0.000513466
0.000513449
0.000513433
0.000513418
0.000513403
0.00051339
0.000513377
0.000513365
0.000513354
0.000513343
0.000513333
0.000513324
0.000513315
0.000513307
0.000513299
0.000513292
0.000513285
0.000513278
0.000513272
0.000513267
0.000513261
0.000513256
0.000513251
0.000513247
0.000513243
0.000513239
0.000513235
0.000513232
0.000513229
0.000513226
0.000513223
0.00051322
0.000513218
0.000513215
0.000513213
0.000513211
0.000513209
0.000513207
0.000513205
0.000513204
0.000513202
0.000513201
0.000513199
0.000513198
0.000513196
0.000513195
0.000513193
0.000513192
0.00051319
0.000513189
0.000513187
0.000513186
0.000513185
0.000513184
0.000513183
0.000513183
0.000944863
0.000855087
0.000782681
0.000724729
0.000678626
0.000642125
0.000613339
0.000590719
0.00057301
0.000559199
0.000548473
0.000540181
0.0005338
0.000528914
0.000525192
0.000522368
0.000520236
0.000518633
0.00051743
0.00051653
0.000515857
0.000515353
0.000514975
0.00051469
0.000514474
0.000514308
0.000514178
0.000514075
0.000513993
0.000513924
0.000513867
0.000513817
0.000513774
0.000513735
0.0005137
0.000513668
0.000513639
0.000513611
0.000513586
0.000513562
0.000513539
0.000513518
0.000513498
0.000513479
0.000513462
0.000513445
0.000513429
0.000513414
0.0005134
0.000513387
0.000513374
0.000513363
0.000513352
0.000513341
0.000513331
0.000513322
0.000513313
0.000513305
0.000513297
0.00051329
0.000513283
0.000513277
0.000513271
0.000513265
0.00051326
0.000513255
0.00051325