/*--------------------------------*- C++ -*----------------------------------*\
  =========                 |
  \\      /  F ield         | OpenFOAM: The Open Source CFD Toolbox
   \\    /   O peration     | Website:  https://openfoam.org
    \\  /    A nd           | Version:  11
     \\/     M anipulation  |
\*---------------------------------------------------------------------------*/
FoamFile
{
    format      ascii;
    class       volScalarField;
    location    "502";
    object      k;
}
// * * * * * * * * * * * * * * * * * * * * * * * * * * * * * * * * * * * * * //

dimensions      [0 2 -2 0 0 0 0];

internalField   nonuniform List<scalar> 
10000
(
0.000939687
0.000835716
0.000745887
0.000668028
0.000600333
0.000541289
0.000489632
0.0004443
0.000404397
0.00036917
0.000337978
0.000310281
0.000285617
0.000263594
0.000243877
0.000226176
0.000210245
0.000195871
0.000182869
0.000171082
0.00016037
0.000150614
0.000141709
0.000133563
0.000126097
0.000119239
0.000112928
0.000107109
0.000101735
9.67611e-05
9.21511e-05
8.78707e-05
8.389e-05
8.0182e-05
7.67229e-05
7.3491e-05
7.04672e-05
6.7634e-05
6.49759e-05
6.24787e-05
6.01297e-05
5.79173e-05
5.58311e-05
5.38616e-05
5.20002e-05
5.02389e-05
4.85706e-05
4.69889e-05
4.54876e-05
4.40614e-05
4.27051e-05
4.14143e-05
4.01847e-05
3.90125e-05
3.78941e-05
3.68262e-05
3.58059e-05
3.48304e-05
3.38971e-05
3.30039e-05
3.21485e-05
3.13289e-05
3.05435e-05
2.97906e-05
2.90687e-05
2.83765e-05
2.77127e-05
2.70763e-05
2.64663e-05
2.58818e-05
2.5322e-05
2.47863e-05
2.4274e-05
2.37846e-05
2.33176e-05
2.28727e-05
2.24496e-05
2.20478e-05
2.16671e-05
2.13072e-05
2.09679e-05
2.06489e-05
2.03499e-05
2.00707e-05
1.98107e-05
1.95697e-05
1.93471e-05
1.91424e-05
1.89551e-05
1.87846e-05
1.86301e-05
1.84911e-05
1.83669e-05
1.82569e-05
1.81605e-05
1.80773e-05
1.80071e-05
1.79503e-05
1.7908e-05
1.78829e-05
0.000939687
0.000835716
0.000745887
0.000668028
0.000600333
0.000541289
0.000489633
0.0004443
0.000404398
0.00036917
0.000337978
0.000310281
0.000285618
0.000263595
0.000243877
0.000226176
0.000210245
0.000195871
0.00018287
0.000171082
0.000160371
0.000150615
0.000141709
0.000133564
0.000126097
0.000119239
0.000112928
0.000107109
0.000101735
9.67614e-05
9.21514e-05
8.7871e-05
8.38902e-05
8.01823e-05
7.67231e-05
7.34913e-05
7.04674e-05
6.76343e-05
6.49762e-05
6.2479e-05
6.01299e-05
5.79176e-05
5.58314e-05
5.38619e-05
5.20005e-05
5.02392e-05
4.8571e-05
4.69892e-05
4.5488e-05
4.40617e-05
4.27055e-05
4.14147e-05
4.01851e-05
3.90129e-05
3.78945e-05
3.68266e-05
3.58063e-05
3.48308e-05
3.38976e-05
3.30044e-05
3.2149e-05
3.13294e-05
3.0544e-05
2.97911e-05
2.90693e-05
2.8377e-05
2.77133e-05
2.70769e-05
2.64669e-05
2.58824e-05
2.53226e-05
2.47869e-05
2.42746e-05
2.37852e-05
2.33183e-05
2.28734e-05
2.24502e-05
2.20484e-05
2.16677e-05
2.13078e-05
2.09685e-05
2.06495e-05
2.03505e-05
2.00712e-05
1.98112e-05
1.95702e-05
1.93476e-05
1.91429e-05
1.89556e-05
1.8785e-05
1.86306e-05
1.84915e-05
1.83673e-05
1.82572e-05
1.81607e-05
1.80774e-05
1.80073e-05
1.79504e-05
1.79081e-05
1.7883e-05
0.000939687
0.000835716
0.000745887
0.000668028
0.000600333
0.00054129
0.000489633
0.000444301
0.000404398
0.00036917
0.000337979
0.000310281
0.000285618
0.000263595
0.000243877
0.000226176
0.000210245
0.000195871
0.00018287
0.000171083
0.000160371
0.000150615
0.00014171
0.000133564
0.000126097
0.00011924
0.000112929
0.00010711
0.000101735
9.67618e-05
9.21518e-05
8.78715e-05
8.38907e-05
8.01828e-05
7.67236e-05
7.34918e-05
7.0468e-05
6.76348e-05
6.49767e-05
6.24795e-05
6.01305e-05
5.79182e-05
5.5832e-05
5.38625e-05
5.20011e-05
5.02398e-05
4.85716e-05
4.69899e-05
4.54886e-05
4.40624e-05
4.27062e-05
4.14154e-05
4.01859e-05
3.90136e-05
3.78952e-05
3.68274e-05
3.58071e-05
3.48316e-05
3.38984e-05
3.30052e-05
3.21498e-05
3.13303e-05
3.05449e-05
2.9792e-05
2.90702e-05
2.8378e-05
2.77142e-05
2.70778e-05
2.64678e-05
2.58833e-05
2.53236e-05
2.47878e-05
2.42756e-05
2.37862e-05
2.33192e-05
2.28743e-05
2.24511e-05
2.20493e-05
2.16686e-05
2.13087e-05
2.09694e-05
2.06503e-05
2.03513e-05
2.00719e-05
1.98119e-05
1.95708e-05
1.93482e-05
1.91434e-05
1.89561e-05
1.87855e-05
1.8631e-05
1.84919e-05
1.83676e-05
1.82575e-05
1.8161e-05
1.80777e-05
1.80075e-05
1.79506e-05
1.79083e-05
1.78831e-05
0.000939687
0.000835716
0.000745887
0.000668029
0.000600333
0.00054129
0.000489633
0.000444301
0.000404398
0.000369171
0.000337979
0.000310282
0.000285618
0.000263595
0.000243878
0.000226177
0.000210246
0.000195872
0.00018287
0.000171083
0.000160372
0.000150616
0.00014171
0.000133565
0.000126098
0.00011924
0.000112929
0.000107111
0.000101736
9.67625e-05
9.21525e-05
8.78721e-05
8.38914e-05
8.01835e-05
7.67243e-05
7.34925e-05
7.04687e-05
6.76356e-05
6.49775e-05
6.24803e-05
6.01313e-05
5.7919e-05
5.58328e-05
5.38634e-05
5.2002e-05
5.02407e-05
4.85725e-05
4.69908e-05
4.54896e-05
4.40634e-05
4.27072e-05
4.14164e-05
4.01869e-05
3.90147e-05
3.78963e-05
3.68285e-05
3.58082e-05
3.48328e-05
3.38996e-05
3.30064e-05
3.2151e-05
3.13315e-05
3.05462e-05
2.97933e-05
2.90715e-05
2.83793e-05
2.77155e-05
2.70792e-05
2.64692e-05
2.58847e-05
2.53249e-05
2.47892e-05
2.42769e-05
2.37875e-05
2.33205e-05
2.28756e-05
2.24524e-05
2.20505e-05
2.16698e-05
2.13099e-05
2.09705e-05
2.06514e-05
2.03523e-05
2.00729e-05
1.98128e-05
1.95716e-05
1.93489e-05
1.91441e-05
1.89567e-05
1.87861e-05
1.86315e-05
1.84924e-05
1.8368e-05
1.82578e-05
1.81613e-05
1.80779e-05
1.80077e-05
1.79508e-05
1.79085e-05
1.78833e-05
0.000939687
0.000835716
0.000745887
0.000668029
0.000600333
0.00054129
0.000489634
0.000444301
0.000404399
0.000369171
0.00033798
0.000310282
0.000285619
0.000263596
0.000243878
0.000226177
0.000210246
0.000195872
0.000182871
0.000171084
0.000160372
0.000150616
0.000141711
0.000133565
0.000126099
0.000119241
0.00011293
0.000107111
0.000101737
9.67633e-05
9.21534e-05
8.7873e-05
8.38923e-05
8.01844e-05
7.67253e-05
7.34935e-05
7.04697e-05
6.76366e-05
6.49785e-05
6.24814e-05
6.01324e-05
5.79201e-05
5.5834e-05
5.38645e-05
5.20031e-05
5.02419e-05
4.85738e-05
4.69921e-05
4.54908e-05
4.40647e-05
4.27085e-05
4.14178e-05
4.01883e-05
3.90161e-05
3.78978e-05
3.683e-05
3.58097e-05
3.48343e-05
3.39011e-05
3.3008e-05
3.21526e-05
3.13332e-05
3.05478e-05
2.9795e-05
2.90731e-05
2.8381e-05
2.77172e-05
2.70809e-05
2.64709e-05
2.58864e-05
2.53267e-05
2.47909e-05
2.42786e-05
2.37892e-05
2.33222e-05
2.28773e-05
2.2454e-05
2.20521e-05
2.16713e-05
2.13113e-05
2.09719e-05
2.06527e-05
2.03536e-05
2.00741e-05
1.98139e-05
1.95727e-05
1.93499e-05
1.9145e-05
1.89575e-05
1.87868e-05
1.86321e-05
1.84929e-05
1.83685e-05
1.82582e-05
1.81616e-05
1.80782e-05
1.8008e-05
1.79511e-05
1.79087e-05
1.78835e-05
0.000939687
0.000835717
0.000745887
0.000668029
0.000600334
0.000541291
0.000489634
0.000444302
0.000404399
0.000369172
0.00033798
0.000310283
0.00028562
0.000263597
0.000243879
0.000226178
0.000210247
0.000195873
0.000182872
0.000171085
0.000160373
0.000150617
0.000141712
0.000133566
0.0001261
0.000119242
0.000112931
0.000107112
0.000101738
9.67644e-05
9.21544e-05
8.78741e-05
8.38934e-05
8.01855e-05
7.67264e-05
7.34947e-05
7.04709e-05
6.76378e-05
6.49798e-05
6.24826e-05
6.01337e-05
5.79214e-05
5.58353e-05
5.38659e-05
5.20046e-05
5.02434e-05
4.85752e-05
4.69936e-05
4.54924e-05
4.40663e-05
4.27101e-05
4.14194e-05
4.019e-05
3.90178e-05
3.78995e-05
3.68318e-05
3.58115e-05
3.48361e-05
3.3903e-05
3.30099e-05
3.21546e-05
3.13351e-05
3.05498e-05
2.9797e-05
2.90752e-05
2.8383e-05
2.77193e-05
2.7083e-05
2.6473e-05
2.58885e-05
2.53288e-05
2.4793e-05
2.42807e-05
2.37913e-05
2.33243e-05
2.28793e-05
2.2456e-05
2.20541e-05
2.16732e-05
2.13131e-05
2.09736e-05
2.06544e-05
2.03551e-05
2.00755e-05
1.98152e-05
1.95739e-05
1.9351e-05
1.9146e-05
1.89584e-05
1.87876e-05
1.86328e-05
1.84935e-05
1.8369e-05
1.82587e-05
1.8162e-05
1.80785e-05
1.80082e-05
1.79513e-05
1.79089e-05
1.78837e-05
0.000939687
0.000835717
0.000745887
0.000668029
0.000600334
0.000541291
0.000489635
0.000444302
0.0004044
0.000369172
0.000337981
0.000310284
0.00028562
0.000263598
0.00024388
0.000226179
0.000210248
0.000195874
0.000182873
0.000171086
0.000160374
0.000150618
0.000141713
0.000133567
0.000126101
0.000119243
0.000112932
0.000107114
0.000101739
9.67656e-05
9.21557e-05
8.78754e-05
8.38947e-05
8.01869e-05
7.67278e-05
7.3496e-05
7.04723e-05
6.76392e-05
6.49812e-05
6.24841e-05
6.01352e-05
5.7923e-05
5.58369e-05
5.38676e-05
5.20062e-05
5.02451e-05
4.8577e-05
4.69954e-05
4.54942e-05
4.40681e-05
4.2712e-05
4.14214e-05
4.01919e-05
3.90199e-05
3.79016e-05
3.68339e-05
3.58137e-05
3.48383e-05
3.39052e-05
3.30121e-05
3.21568e-05
3.13375e-05
3.05522e-05
2.97994e-05
2.90776e-05
2.83855e-05
2.77218e-05
2.70855e-05
2.64755e-05
2.5891e-05
2.53313e-05
2.47955e-05
2.42832e-05
2.37937e-05
2.33267e-05
2.28817e-05
2.24583e-05
2.20563e-05
2.16753e-05
2.13152e-05
2.09756e-05
2.06562e-05
2.03569e-05
2.00772e-05
1.98168e-05
1.95753e-05
1.93522e-05
1.91471e-05
1.89594e-05
1.87884e-05
1.86336e-05
1.84942e-05
1.83696e-05
1.82591e-05
1.81624e-05
1.80789e-05
1.80085e-05
1.79515e-05
1.79091e-05
1.78837e-05
0.000939687
0.000835717
0.000745888
0.00066803
0.000600334
0.000541291
0.000489635
0.000444303
0.000404401
0.000369173
0.000337982
0.000310285
0.000285621
0.000263599
0.000243881
0.00022618
0.000210249
0.000195875
0.000182874
0.000171087
0.000160375
0.000150619
0.000141714
0.000133569
0.000126102
0.000119244
0.000112933
0.000107115
0.00010174
9.6767e-05
9.21571e-05
8.78768e-05
8.38962e-05
8.01884e-05
7.67293e-05
7.34976e-05
7.04739e-05
6.76409e-05
6.49829e-05
6.24859e-05
6.0137e-05
5.79248e-05
5.58388e-05
5.38694e-05
5.20081e-05
5.02471e-05
4.8579e-05
4.69974e-05
4.54963e-05
4.40702e-05
4.27142e-05
4.14236e-05
4.01942e-05
3.90222e-05
3.79039e-05
3.68363e-05
3.58161e-05
3.48408e-05
3.39078e-05
3.30147e-05
3.21595e-05
3.13401e-05
3.05549e-05
2.98021e-05
2.90804e-05
2.83883e-05
2.77246e-05
2.70883e-05
2.64783e-05
2.58939e-05
2.53341e-05
2.47983e-05
2.4286e-05
2.37965e-05
2.33294e-05
2.28843e-05
2.24609e-05
2.20588e-05
2.16778e-05
2.13175e-05
2.09778e-05
2.06583e-05
2.03588e-05
2.0079e-05
1.98185e-05
1.95768e-05
1.93536e-05
1.91484e-05
1.89605e-05
1.87894e-05
1.86344e-05
1.84949e-05
1.83702e-05
1.82596e-05
1.81627e-05
1.80792e-05
1.80087e-05
1.79517e-05
1.79092e-05
1.78838e-05
0.000939687
0.000835717
0.000745888
0.00066803
0.000600335
0.000541292
0.000489636
0.000444304
0.000404401
0.000369174
0.000337983
0.000310286
0.000285622
0.0002636
0.000243882
0.000226181
0.00021025
0.000195876
0.000182875
0.000171088
0.000160377
0.000150621
0.000141716
0.00013357
0.000126103
0.000119246
0.000112935
0.000107116
0.000101742
9.67685e-05
9.21587e-05
8.78784e-05
8.38978e-05
8.019e-05
7.6731e-05
7.34994e-05
7.04757e-05
6.76427e-05
6.49848e-05
6.24878e-05
6.01389e-05
5.79268e-05
5.58408e-05
5.38715e-05
5.20103e-05
5.02492e-05
4.85812e-05
4.69997e-05
4.54986e-05
4.40726e-05
4.27166e-05
4.14261e-05
4.01967e-05
3.90247e-05
3.79066e-05
3.68389e-05
3.58189e-05
3.48436e-05
3.39106e-05
3.30176e-05
3.21624e-05
3.13431e-05
3.05579e-05
2.98052e-05
2.90834e-05
2.83914e-05
2.77277e-05
2.70915e-05
2.64815e-05
2.5897e-05
2.53373e-05
2.48015e-05
2.42891e-05
2.37996e-05
2.33324e-05
2.28873e-05
2.24638e-05
2.20616e-05
2.16805e-05
2.13201e-05
2.09803e-05
2.06607e-05
2.0361e-05
2.0081e-05
1.98203e-05
1.95785e-05
1.93551e-05
1.91497e-05
1.89617e-05
1.87904e-05
1.86353e-05
1.84956e-05
1.83707e-05
1.82601e-05
1.81631e-05
1.80794e-05
1.80089e-05
1.79518e-05
1.79092e-05
1.78837e-05
0.000939687
0.000835717
0.000745888
0.00066803
0.000600335
0.000541292
0.000489636
0.000444304
0.000404402
0.000369175
0.000337983
0.000310286
0.000285623
0.000263601
0.000243883
0.000226182
0.000210251
0.000195877
0.000182876
0.000171089
0.000160378
0.000150622
0.000141717
0.000133571
0.000126105
0.000119247
0.000112936
0.000107118
0.000101743
9.67702e-05
9.21604e-05
8.78802e-05
8.38996e-05
8.01919e-05
7.67329e-05
7.35013e-05
7.04777e-05
6.76447e-05
6.49868e-05
6.24898e-05
6.01411e-05
5.7929e-05
5.5843e-05
5.38738e-05
5.20126e-05
5.02516e-05
4.85836e-05
4.70022e-05
4.55012e-05
4.40752e-05
4.27193e-05
4.14288e-05
4.01995e-05
3.90276e-05
3.79095e-05
3.68419e-05
3.58219e-05
3.48467e-05
3.39137e-05
3.30207e-05
3.21656e-05
3.13464e-05
3.05612e-05
2.98085e-05
2.90868e-05
2.83948e-05
2.77312e-05
2.70949e-05
2.6485e-05
2.59005e-05
2.53407e-05
2.48049e-05
2.42925e-05
2.38029e-05
2.33358e-05
2.28906e-05
2.2467e-05
2.20647e-05
2.16835e-05
2.1323e-05
2.0983e-05
2.06632e-05
2.03634e-05
2.00832e-05
1.98223e-05
1.95803e-05
1.93568e-05
1.91512e-05
1.8963e-05
1.87915e-05
1.86362e-05
1.84964e-05
1.83713e-05
1.82605e-05
1.81634e-05
1.80797e-05
1.8009e-05
1.79518e-05
1.79091e-05
1.78837e-05
0.000939687
0.000835717
0.000745888
0.00066803
0.000600335
0.000541293
0.000489637
0.000444305
0.000404403
0.000369175
0.000337984
0.000310287
0.000285624
0.000263602
0.000243884
0.000226183
0.000210253
0.000195879
0.000182878
0.000171091
0.000160379
0.000150623
0.000141719
0.000133573
0.000126106
0.000119249
0.000112938
0.00010712
0.000101745
9.6772e-05
9.21622e-05
8.78821e-05
8.39015e-05
8.01938e-05
7.67349e-05
7.35033e-05
7.04798e-05
6.76469e-05
6.4989e-05
6.24921e-05
6.01434e-05
5.79313e-05
5.58454e-05
5.38762e-05
5.20151e-05
5.02542e-05
4.85863e-05
4.70048e-05
4.55039e-05
4.4078e-05
4.27222e-05
4.14317e-05
4.02025e-05
3.90306e-05
3.79126e-05
3.68451e-05
3.58251e-05
3.485e-05
3.39171e-05
3.30242e-05
3.21691e-05
3.13499e-05
3.05648e-05
2.98121e-05
2.90905e-05
2.83985e-05
2.77349e-05
2.70987e-05
2.64887e-05
2.59043e-05
2.53445e-05
2.48087e-05
2.42962e-05
2.38066e-05
2.33393e-05
2.28941e-05
2.24704e-05
2.2068e-05
2.16866e-05
2.1326e-05
2.09859e-05
2.06659e-05
2.03659e-05
2.00856e-05
1.98245e-05
1.95823e-05
1.93585e-05
1.91527e-05
1.89643e-05
1.87926e-05
1.86371e-05
1.84971e-05
1.83719e-05
1.8261e-05
1.81637e-05
1.80798e-05
1.80091e-05
1.79518e-05
1.79091e-05
1.78835e-05
0.000939687
0.000835717
0.000745888
0.00066803
0.000600336
0.000541293
0.000489637
0.000444305
0.000404403
0.000369176
0.000337985
0.000310288
0.000285625
0.000263603
0.000243885
0.000226185
0.000210254
0.00019588
0.000182879
0.000171092
0.000160381
0.000150625
0.00014172
0.000133575
0.000126108
0.000119251
0.00011294
0.000107121
0.000101747
9.67739e-05
9.21641e-05
8.7884e-05
8.39036e-05
8.01959e-05
7.6737e-05
7.35055e-05
7.0482e-05
6.76491e-05
6.49913e-05
6.24945e-05
6.01458e-05
5.79338e-05
5.5848e-05
5.38789e-05
5.20178e-05
5.02569e-05
4.85891e-05
4.70077e-05
4.55069e-05
4.4081e-05
4.27252e-05
4.14348e-05
4.02057e-05
3.90339e-05
3.79159e-05
3.68485e-05
3.58286e-05
3.48535e-05
3.39207e-05
3.30278e-05
3.21728e-05
3.13537e-05
3.05686e-05
2.9816e-05
2.90944e-05
2.84024e-05
2.77389e-05
2.71027e-05
2.64927e-05
2.59083e-05
2.53485e-05
2.48126e-05
2.43001e-05
2.38105e-05
2.33432e-05
2.28978e-05
2.2474e-05
2.20715e-05
2.169e-05
2.13292e-05
2.09889e-05
2.06688e-05
2.03686e-05
2.00881e-05
1.98268e-05
1.95843e-05
1.93604e-05
1.91543e-05
1.89657e-05
1.87938e-05
1.86381e-05
1.84979e-05
1.83725e-05
1.82614e-05
1.8164e-05
1.808e-05
1.80091e-05
1.79517e-05
1.79089e-05
1.78833e-05
0.000939687
0.000835717
0.000745888
0.000668031
0.000600336
0.000541293
0.000489638
0.000444306
0.000404404
0.000369177
0.000337986
0.000310289
0.000285626
0.000263604
0.000243886
0.000226186
0.000210255
0.000195881
0.000182881
0.000171094
0.000160382
0.000150627
0.000141722
0.000133576
0.00012611
0.000119252
0.000112942
0.000107123
0.000101749
9.67759e-05
9.21662e-05
8.78861e-05
8.39057e-05
8.01981e-05
7.67393e-05
7.35078e-05
7.04843e-05
6.76516e-05
6.49938e-05
6.2497e-05
6.01484e-05
5.79365e-05
5.58507e-05
5.38816e-05
5.20206e-05
5.02598e-05
4.85921e-05
4.70108e-05
4.551e-05
4.40842e-05
4.27285e-05
4.14382e-05
4.02091e-05
3.90374e-05
3.79194e-05
3.68521e-05
3.58323e-05
3.48572e-05
3.39245e-05
3.30317e-05
3.21767e-05
3.13577e-05
3.05727e-05
2.98201e-05
2.90986e-05
2.84066e-05
2.77431e-05
2.71069e-05
2.6497e-05
2.59125e-05
2.53527e-05
2.48168e-05
2.43043e-05
2.38146e-05
2.33472e-05
2.29018e-05
2.24779e-05
2.20753e-05
2.16936e-05
2.13327e-05
2.09922e-05
2.06719e-05
2.03715e-05
2.00907e-05
1.98292e-05
1.95865e-05
1.93623e-05
1.9156e-05
1.89671e-05
1.8795e-05
1.86391e-05
1.84987e-05
1.83731e-05
1.82618e-05
1.81642e-05
1.808e-05
1.8009e-05
1.79515e-05
1.79087e-05
1.7883e-05
0.000939687
0.000835717
0.000745888
0.000668031
0.000600336
0.000541294
0.000489638
0.000444306
0.000404405
0.000369178
0.000337987
0.00031029
0.000285627
0.000263605
0.000243887
0.000226187
0.000210256
0.000195883
0.000182882
0.000171095
0.000160384
0.000150628
0.000141723
0.000133578
0.000126112
0.000119254
0.000112944
0.000107125
0.000101751
9.67779e-05
9.21683e-05
8.78883e-05
8.39079e-05
8.02004e-05
7.67416e-05
7.35102e-05
7.04868e-05
6.76541e-05
6.49964e-05
6.24997e-05
6.01511e-05
5.79392e-05
5.58535e-05
5.38846e-05
5.20236e-05
5.02629e-05
4.85952e-05
4.70139e-05
4.55132e-05
4.40875e-05
4.27319e-05
4.14417e-05
4.02126e-05
3.9041e-05
3.79232e-05
3.68559e-05
3.58361e-05
3.48612e-05
3.39285e-05
3.30358e-05
3.21809e-05
3.13619e-05
3.05769e-05
2.98244e-05
2.91029e-05
2.8411e-05
2.77475e-05
2.71113e-05
2.65014e-05
2.5917e-05
2.53572e-05
2.48213e-05
2.43087e-05
2.38189e-05
2.33514e-05
2.29059e-05
2.24819e-05
2.20791e-05
2.16973e-05
2.13362e-05
2.09956e-05
2.0675e-05
2.03744e-05
2.00934e-05
1.98316e-05
1.95887e-05
1.93643e-05
1.91577e-05
1.89686e-05
1.87962e-05
1.86401e-05
1.84994e-05
1.83736e-05
1.82621e-05
1.81644e-05
1.808e-05
1.80089e-05
1.79513e-05
1.79084e-05
1.78827e-05
0.000939687
0.000835717
0.000745889
0.000668031
0.000600337
0.000541294
0.000489638
0.000444307
0.000404405
0.000369178
0.000337987
0.000310291
0.000285628
0.000263606
0.000243888
0.000226188
0.000210258
0.000195884
0.000182883
0.000171097
0.000160385
0.00015063
0.000141725
0.00013358
0.000126113
0.000119256
0.000112946
0.000107127
0.000101753
9.678e-05
9.21705e-05
8.78905e-05
8.39102e-05
8.02027e-05
7.67441e-05
7.35127e-05
7.04894e-05
6.76567e-05
6.49991e-05
6.25024e-05
6.01539e-05
5.79421e-05
5.58565e-05
5.38876e-05
5.20267e-05
5.0266e-05
4.85984e-05
4.70173e-05
4.55166e-05
4.4091e-05
4.27354e-05
4.14453e-05
4.02164e-05
3.90448e-05
3.7927e-05
3.68598e-05
3.58401e-05
3.48653e-05
3.39327e-05
3.304e-05
3.21852e-05
3.13662e-05
3.05813e-05
2.98289e-05
2.91074e-05
2.84156e-05
2.77521e-05
2.7116e-05
2.65061e-05
2.59216e-05
2.53618e-05
2.48259e-05
2.43132e-05
2.38234e-05
2.33558e-05
2.29102e-05
2.24861e-05
2.20832e-05
2.17012e-05
2.13399e-05
2.09991e-05
2.06783e-05
2.03775e-05
2.00962e-05
1.98342e-05
1.9591e-05
1.93663e-05
1.91595e-05
1.89701e-05
1.87975e-05
1.8641e-05
1.85002e-05
1.83742e-05
1.82624e-05
1.81645e-05
1.808e-05
1.80087e-05
1.7951e-05
1.7908e-05
1.78823e-05
0.000939687
0.000835717
0.000745889
0.000668031
0.000600337
0.000541294
0.000489639
0.000444307
0.000404406
0.000369179
0.000337988
0.000310292
0.000285629
0.000263607
0.00024389
0.000226189
0.000210259
0.000195885
0.000182885
0.000171098
0.000160387
0.000150631
0.000141727
0.000133582
0.000126115
0.000119258
0.000112948
0.000107129
0.000101755
9.67822e-05
9.21727e-05
8.78928e-05
8.39126e-05
8.02052e-05
7.67465e-05
7.35152e-05
7.0492e-05
6.76594e-05
6.50018e-05
6.25052e-05
6.01568e-05
5.79451e-05
5.58595e-05
5.38907e-05
5.20299e-05
5.02693e-05
4.86018e-05
4.70207e-05
4.55201e-05
4.40946e-05
4.27391e-05
4.1449e-05
4.02202e-05
3.90487e-05
3.7931e-05
3.68639e-05
3.58443e-05
3.48695e-05
3.3937e-05
3.30444e-05
3.21897e-05
3.13708e-05
3.05859e-05
2.98336e-05
2.91121e-05
2.84203e-05
2.77569e-05
2.71208e-05
2.65109e-05
2.59264e-05
2.53666e-05
2.48306e-05
2.43179e-05
2.3828e-05
2.33604e-05
2.29146e-05
2.24904e-05
2.20874e-05
2.17052e-05
2.13438e-05
2.10027e-05
2.06817e-05
2.03806e-05
2.00991e-05
1.98368e-05
1.95934e-05
1.93684e-05
1.91613e-05
1.89716e-05
1.87987e-05
1.8642e-05
1.85009e-05
1.83746e-05
1.82627e-05
1.81646e-05
1.80799e-05
1.80084e-05
1.79506e-05
1.79075e-05
1.78817e-05
0.000939687
0.000835717
0.000745889
0.000668031
0.000600337
0.000541295
0.000489639
0.000444308
0.000404406
0.00036918
0.000337989
0.000310293
0.00028563
0.000263608
0.000243891
0.000226191
0.00021026
0.000195887
0.000182886
0.0001711
0.000160389
0.000150633
0.000141729
0.000133583
0.000126117
0.00011926
0.00011295
0.000107131
0.000101757
9.67844e-05
9.2175e-05
8.78952e-05
8.3915e-05
8.02077e-05
7.67491e-05
7.35179e-05
7.04947e-05
6.76621e-05
6.50047e-05
6.25081e-05
6.01598e-05
5.79481e-05
5.58627e-05
5.38939e-05
5.20332e-05
5.02727e-05
4.86052e-05
4.70242e-05
4.55237e-05
4.40983e-05
4.27429e-05
4.14529e-05
4.02241e-05
3.90527e-05
3.79351e-05
3.68681e-05
3.58486e-05
3.48739e-05
3.39414e-05
3.30489e-05
3.21942e-05
3.13754e-05
3.05907e-05
2.98383e-05
2.9117e-05
2.84252e-05
2.77618e-05
2.71257e-05
2.65158e-05
2.59314e-05
2.53715e-05
2.48355e-05
2.43228e-05
2.38328e-05
2.33651e-05
2.29192e-05
2.24949e-05
2.20917e-05
2.17094e-05
2.13477e-05
2.10064e-05
2.06852e-05
2.03839e-05
2.01021e-05
1.98395e-05
1.95958e-05
1.93705e-05
1.91631e-05
1.89731e-05
1.87999e-05
1.8643e-05
1.85016e-05
1.83751e-05
1.82629e-05
1.81646e-05
1.80797e-05
1.80081e-05
1.79502e-05
1.7907e-05
1.78811e-05
0.000939687
0.000835717
0.000745889
0.000668032
0.000600337
0.000541295
0.00048964
0.000444308
0.000404407
0.00036918
0.00033799
0.000310294
0.000285631
0.000263609
0.000243892
0.000226192
0.000210262
0.000195888
0.000182888
0.000171101
0.00016039
0.000150635
0.00014173
0.000133585
0.000126119
0.000119262
0.000112952
0.000107133
0.000101759
9.67867e-05
9.21773e-05
8.78976e-05
8.39175e-05
8.02102e-05
7.67517e-05
7.35205e-05
7.04974e-05
6.76649e-05
6.50075e-05
6.25111e-05
6.01628e-05
5.79512e-05
5.58659e-05
5.38972e-05
5.20365e-05
5.02761e-05
4.86087e-05
4.70278e-05
4.55274e-05
4.41021e-05
4.27467e-05
4.14568e-05
4.02282e-05
3.90569e-05
3.79393e-05
3.68724e-05
3.5853e-05
3.48783e-05
3.3946e-05
3.30536e-05
3.21989e-05
3.13802e-05
3.05955e-05
2.98432e-05
2.91219e-05
2.84302e-05
2.77668e-05
2.71307e-05
2.65209e-05
2.59364e-05
2.53765e-05
2.48405e-05
2.43277e-05
2.38377e-05
2.33699e-05
2.29239e-05
2.24994e-05
2.2096e-05
2.17136e-05
2.13517e-05
2.10102e-05
2.06888e-05
2.03872e-05
2.01051e-05
1.98422e-05
1.95982e-05
1.93726e-05
1.91649e-05
1.89746e-05
1.88012e-05
1.86439e-05
1.85023e-05
1.83755e-05
1.82631e-05
1.81645e-05
1.80794e-05
1.80077e-05
1.79496e-05
1.79063e-05
1.78805e-05
0.000939687
0.000835718
0.000745889
0.000668032
0.000600337
0.000541295
0.00048964
0.000444309
0.000404407
0.000369181
0.00033799
0.000310294
0.000285632
0.00026361
0.000243893
0.000226193
0.000210263
0.00019589
0.000182889
0.000171103
0.000160392
0.000150637
0.000141732
0.000133587
0.000126121
0.000119264
0.000112954
0.000107136
0.000101762
9.67889e-05
9.21796e-05
8.79e-05
8.392e-05
8.02127e-05
7.67543e-05
7.35232e-05
7.05002e-05
6.76678e-05
6.50105e-05
6.25141e-05
6.01659e-05
5.79544e-05
5.58691e-05
5.39005e-05
5.20399e-05
5.02796e-05
4.86123e-05
4.70315e-05
4.55312e-05
4.41059e-05
4.27507e-05
4.14609e-05
4.02323e-05
3.90611e-05
3.79436e-05
3.68768e-05
3.58574e-05
3.48829e-05
3.39506e-05
3.30583e-05
3.22037e-05
3.13851e-05
3.06004e-05
2.98482e-05
2.9127e-05
2.84353e-05
2.7772e-05
2.71359e-05
2.6526e-05
2.59416e-05
2.53816e-05
2.48456e-05
2.43328e-05
2.38426e-05
2.33747e-05
2.29286e-05
2.2504e-05
2.21005e-05
2.17178e-05
2.13558e-05
2.1014e-05
2.06923e-05
2.03905e-05
2.01081e-05
1.9845e-05
1.96007e-05
1.93747e-05
1.91668e-05
1.89762e-05
1.88024e-05
1.86449e-05
1.85029e-05
1.83759e-05
1.82633e-05
1.81644e-05
1.80791e-05
1.80072e-05
1.7949e-05
1.79056e-05
1.78797e-05
0.000939687
0.000835718
0.000745889
0.000668032
0.000600338
0.000541296
0.00048964
0.000444309
0.000404408
0.000369182
0.000337991
0.000310295
0.000285633
0.000263611
0.000243894
0.000226194
0.000210264
0.000195891
0.000182891
0.000171104
0.000160393
0.000150638
0.000141734
0.000133589
0.000126123
0.000119266
0.000112956
0.000107138
0.000101764
9.67912e-05
9.2182e-05
8.79024e-05
8.39224e-05
8.02153e-05
7.6757e-05
7.35259e-05
7.0503e-05
6.76707e-05
6.50134e-05
6.25171e-05
6.0169e-05
5.79576e-05
5.58724e-05
5.39038e-05
5.20434e-05
5.02831e-05
4.86159e-05
4.70352e-05
4.5535e-05
4.41098e-05
4.27546e-05
4.14649e-05
4.02364e-05
3.90653e-05
3.7948e-05
3.68812e-05
3.58619e-05
3.48875e-05
3.39553e-05
3.3063e-05
3.22086e-05
3.139e-05
3.06054e-05
2.98533e-05
2.91321e-05
2.84404e-05
2.77771e-05
2.71411e-05
2.65313e-05
2.59468e-05
2.53868e-05
2.48507e-05
2.43379e-05
2.38477e-05
2.33797e-05
2.29334e-05
2.25087e-05
2.2105e-05
2.17222e-05
2.13599e-05
2.10179e-05
2.0696e-05
2.03939e-05
2.01112e-05
1.98478e-05
1.96031e-05
1.93769e-05
1.91686e-05
1.89777e-05
1.88036e-05
1.86458e-05
1.85035e-05
1.83762e-05
1.82633e-05
1.81643e-05
1.80788e-05
1.80067e-05
1.79483e-05
1.79049e-05
1.78789e-05
0.000939687
0.000835718
0.000745889
0.000668032
0.000600338
0.000541296
0.000489641
0.00044431
0.000404408
0.000369182
0.000337992
0.000310296
0.000285634
0.000263612
0.000243895
0.000226195
0.000210265
0.000195892
0.000182892
0.000171106
0.000160395
0.00015064
0.000141736
0.000133591
0.000126125
0.000119268
0.000112958
0.00010714
0.000101766
9.67935e-05
9.21843e-05
8.79048e-05
8.39249e-05
8.02179e-05
7.67596e-05
7.35287e-05
7.05058e-05
6.76736e-05
6.50164e-05
6.25202e-05
6.01722e-05
5.79608e-05
5.58757e-05
5.39072e-05
5.20469e-05
5.02867e-05
4.86196e-05
4.70389e-05
4.55388e-05
4.41137e-05
4.27587e-05
4.1469e-05
4.02406e-05
3.90696e-05
3.79524e-05
3.68857e-05
3.58665e-05
3.48921e-05
3.396e-05
3.30679e-05
3.22135e-05
3.13949e-05
3.06105e-05
2.98584e-05
2.91372e-05
2.84456e-05
2.77824e-05
2.71463e-05
2.65365e-05
2.5952e-05
2.53921e-05
2.48559e-05
2.4343e-05
2.38527e-05
2.33846e-05
2.29383e-05
2.25134e-05
2.21095e-05
2.17265e-05
2.1364e-05
2.10218e-05
2.06996e-05
2.03972e-05
2.01143e-05
1.98506e-05
1.96056e-05
1.93791e-05
1.91704e-05
1.89792e-05
1.88048e-05
1.86467e-05
1.85041e-05
1.83765e-05
1.82634e-05
1.81641e-05
1.80784e-05
1.80061e-05
1.79476e-05
1.7904e-05
1.7878e-05
0.000939687
0.000835718
0.000745889
0.000668032
0.000600338
0.000541296
0.000489641
0.00044431
0.000404409
0.000369183
0.000337993
0.000310297
0.000285634
0.000263613
0.000243896
0.000226196
0.000210267
0.000195893
0.000182893
0.000171107
0.000160397
0.000150641
0.000141737
0.000133592
0.000126127
0.00011927
0.00011296
0.000107142
0.000101768
9.67957e-05
9.21867e-05
8.79072e-05
8.39274e-05
8.02204e-05
7.67623e-05
7.35314e-05
7.05086e-05
6.76764e-05
6.50194e-05
6.25232e-05
6.01753e-05
5.7964e-05
5.5879e-05
5.39106e-05
5.20503e-05
5.02903e-05
4.86232e-05
4.70427e-05
4.55426e-05
4.41176e-05
4.27627e-05
4.14732e-05
4.02448e-05
3.90739e-05
3.79568e-05
3.68902e-05
3.58711e-05
3.48968e-05
3.39648e-05
3.30727e-05
3.22184e-05
3.13999e-05
3.06155e-05
2.98635e-05
2.91424e-05
2.84509e-05
2.77876e-05
2.71516e-05
2.65418e-05
2.59573e-05
2.53973e-05
2.48612e-05
2.43482e-05
2.38578e-05
2.33896e-05
2.29432e-05
2.25181e-05
2.21141e-05
2.17309e-05
2.13682e-05
2.10257e-05
2.07033e-05
2.04006e-05
2.01174e-05
1.98534e-05
1.96081e-05
1.93812e-05
1.91722e-05
1.89807e-05
1.8806e-05
1.86475e-05
1.85047e-05
1.83768e-05
1.82634e-05
1.81638e-05
1.80779e-05
1.80055e-05
1.79468e-05
1.79031e-05
1.7877e-05
0.000939687
0.000835718
0.000745889
0.000668032
0.000600338
0.000541296
0.000489641
0.000444311
0.000404409
0.000369183
0.000337993
0.000310297
0.000285635
0.000263614
0.000243897
0.000226198
0.000210268
0.000195895
0.000182895
0.000171109
0.000160398
0.000150643
0.000141739
0.000133594
0.000126129
0.000119272
0.000112962
0.000107144
0.00010177
9.6798e-05
9.2189e-05
8.79096e-05
8.39299e-05
8.0223e-05
7.67649e-05
7.35341e-05
7.05114e-05
6.76793e-05
6.50223e-05
6.25263e-05
6.01784e-05
5.79672e-05
5.58823e-05
5.3914e-05
5.20538e-05
5.02938e-05
4.86269e-05
4.70464e-05
4.55465e-05
4.41216e-05
4.27667e-05
4.14773e-05
4.02491e-05
3.90782e-05
3.79612e-05
3.68947e-05
3.58757e-05
3.49015e-05
3.39696e-05
3.30776e-05
3.22233e-05
3.14049e-05
3.06206e-05
2.98686e-05
2.91476e-05
2.84561e-05
2.77929e-05
2.71569e-05
2.65471e-05
2.59626e-05
2.54026e-05
2.48664e-05
2.43533e-05
2.38629e-05
2.33946e-05
2.2948e-05
2.25228e-05
2.21186e-05
2.17352e-05
2.13723e-05
2.10296e-05
2.0707e-05
2.0404e-05
2.01205e-05
1.98561e-05
1.96106e-05
1.93833e-05
1.91741e-05
1.89822e-05
1.88071e-05
1.86483e-05
1.85052e-05
1.8377e-05
1.82633e-05
1.81636e-05
1.80774e-05
1.80048e-05
1.7946e-05
1.79022e-05
1.7876e-05
0.000939687
0.000835718
0.000745889
0.000668032
0.000600338
0.000541297
0.000489642
0.000444311
0.00040441
0.000369184
0.000337994
0.000310298
0.000285636
0.000263615
0.000243898
0.000226199
0.000210269
0.000195896
0.000182896
0.00017111
0.0001604
0.000150645
0.000141741
0.000133596
0.00012613
0.000119274
0.000112964
0.000107146
0.000101773
9.68002e-05
9.21913e-05
8.7912e-05
8.39324e-05
8.02255e-05
7.67675e-05
7.35368e-05
7.05141e-05
6.76822e-05
6.50253e-05
6.25293e-05
6.01815e-05
5.79704e-05
5.58855e-05
5.39174e-05
5.20573e-05
5.02974e-05
4.86305e-05
4.70502e-05
4.55503e-05
4.41255e-05
4.27707e-05
4.14814e-05
4.02533e-05
3.90825e-05
3.79656e-05
3.68991e-05
3.58803e-05
3.49062e-05
3.39743e-05
3.30824e-05
3.22282e-05
3.14099e-05
3.06256e-05
2.98737e-05
2.91528e-05
2.84613e-05
2.77981e-05
2.71622e-05
2.65524e-05
2.59679e-05
2.54078e-05
2.48716e-05
2.43585e-05
2.3868e-05
2.33996e-05
2.29529e-05
2.25275e-05
2.21232e-05
2.17396e-05
2.13764e-05
2.10335e-05
2.07106e-05
2.04074e-05
2.01236e-05
1.98589e-05
1.9613e-05
1.93855e-05
1.91758e-05
1.89836e-05
1.88082e-05
1.86491e-05
1.85057e-05
1.83772e-05
1.82632e-05
1.81632e-05
1.80769e-05
1.8004e-05
1.79451e-05
1.79012e-05
1.78749e-05
0.000939687
0.000835718
0.000745889
0.000668033
0.000600339
0.000541297
0.000489642
0.000444311
0.00040441
0.000369184
0.000337994
0.000310299
0.000285637
0.000263615
0.000243899
0.0002262
0.00021027
0.000195897
0.000182897
0.000171111
0.000160401
0.000150646
0.000141742
0.000133598
0.000126132
0.000119275
0.000112966
0.000107148
0.000101775
9.68024e-05
9.21935e-05
8.79143e-05
8.39348e-05
8.0228e-05
7.67701e-05
7.35395e-05
7.05169e-05
6.7685e-05
6.50282e-05
6.25323e-05
6.01846e-05
5.79736e-05
5.58888e-05
5.39207e-05
5.20607e-05
5.03009e-05
4.86341e-05
4.70539e-05
4.55541e-05
4.41294e-05
4.27747e-05
4.14855e-05
4.02574e-05
3.90868e-05
3.79699e-05
3.69036e-05
3.58848e-05
3.49108e-05
3.3979e-05
3.30872e-05
3.22331e-05
3.14149e-05
3.06307e-05
2.98788e-05
2.91579e-05
2.84665e-05
2.78033e-05