/*--------------------------------*- C++ -*----------------------------------*\
  =========                 |
  \\      /  F ield         | OpenFOAM: The Open Source CFD Toolbox
   \\    /   O peration     | Website:  https://openfoam.org
    \\  /    A nd           | Version:  11
     \\/     M anipulation  |
\*---------------------------------------------------------------------------*/
FoamFile
{
    format      ascii;
    class       volScalarField;
    location    "44";
    object      omega;
}
// * * * * * * * * * * * * * * * * * * * * * * * * * * * * * * * * * * * * * //

dimensions      [0 0 -1 0 0 0 0];

internalField   nonuniform List<scalar> 
10000
(
0.96133
0.890887
0.826599
0.767773
0.713805
0.664175
0.618452
0.576287
0.537406
0.501606
0.468734
0.438675
0.411329
0.386596
0.364367
0.344514
0.326891
0.311337
0.297682
0.285752
0.275375
0.266385
0.258626
0.251951
0.24623
0.241343
0.237182
0.233651
0.230663
0.228142
0.226021
0.224243
0.222756
0.221516
0.220485
0.21963
0.218923
0.218339
0.217858
0.217462
0.217136
0.216869
0.216649
0.216469
0.21632
0.216197
0.216096
0.216012
0.215941
0.215882
0.215833
0.215791
0.215755
0.215723
0.215696
0.215673
0.215652
0.215634
0.215617
0.215602
0.215589
0.215576
0.215565
0.215555
0.215546
0.215537
0.215529
0.215521
0.215514
0.215508
0.215502
0.215496
0.215491
0.215486
0.215481
0.215476
0.215472
0.215468
0.215464
0.215461
0.215457
0.215453
0.21545
0.215447
0.215444
0.21544
0.215437
0.215434
0.215431
0.215428
0.215425
0.215422
0.21542
0.215417
0.215414
0.215412
0.21541
0.215408
0.215407
0.215406
0.96133
0.890891
0.826608
0.767787
0.713823
0.664198
0.618479
0.576318
0.537442
0.501646
0.468779
0.438723
0.411379
0.386648
0.36442
0.344566
0.326942
0.311386
0.297729
0.285796
0.275416
0.266423
0.258661
0.251985
0.246262
0.241372
0.237209
0.233675
0.230684
0.22816
0.226037
0.224257
0.222768
0.221527
0.220495
0.219639
0.218931
0.218346
0.217864
0.217468
0.217142
0.216874
0.216654
0.216473
0.216324
0.216201
0.216099
0.216015
0.215944
0.215885
0.215835
0.215793
0.215757
0.215726
0.215698
0.215675
0.215654
0.215635
0.215619
0.215604
0.21559
0.215578
0.215566
0.215556
0.215547
0.215538
0.21553
0.215522
0.215515
0.215509
0.215503
0.215497
0.215491
0.215486
0.215482
0.215477
0.215473
0.215469
0.215465
0.215461
0.215457
0.215454
0.21545
0.215447
0.215444
0.215441
0.215438
0.215434
0.215431
0.215428
0.215425
0.215423
0.21542
0.215417
0.215415
0.215412
0.21541
0.215409
0.215407
0.215407
0.96133
0.890897
0.826622
0.767808
0.713852
0.664235
0.618526
0.576373
0.537505
0.501717
0.468856
0.438806
0.411466
0.386737
0.364509
0.344655
0.327028
0.311468
0.297806
0.285869
0.275483
0.266485
0.258718
0.252037
0.246309
0.241416
0.237248
0.233709
0.230714
0.228187
0.226061
0.224277
0.222786
0.221543
0.220509
0.219651
0.218941
0.218355
0.217872
0.217475
0.217148
0.21688
0.216659
0.216477
0.216328
0.216205
0.216103
0.216018
0.215947
0.215888
0.215838
0.215796
0.215759
0.215728
0.215701
0.215677
0.215656
0.215637
0.21562
0.215605
0.215592
0.215579
0.215568
0.215558
0.215548
0.215539
0.215531
0.215524
0.215516
0.21551
0.215504
0.215498
0.215493
0.215487
0.215483
0.215478
0.215474
0.21547
0.215466
0.215462
0.215458
0.215455
0.215451
0.215448
0.215444
0.215441
0.215438
0.215435
0.215432
0.215429
0.215426
0.215423
0.21542
0.215417
0.215415
0.215413
0.215411
0.215409
0.215408
0.215407
0.96133
0.890902
0.826636
0.767833
0.713889
0.664284
0.618586
0.576446
0.53759
0.501813
0.468962
0.438919
0.411585
0.38686
0.364632
0.344776
0.327146
0.311581
0.297913
0.285968
0.275576
0.26657
0.258795
0.252107
0.246373
0.241473
0.237299
0.233754
0.230754
0.228222
0.226091
0.224304
0.222809
0.221563
0.220526
0.219666
0.218954
0.218367
0.217882
0.217484
0.217156
0.216886
0.216665
0.216483
0.216333
0.216209
0.216107
0.216022
0.215951
0.215892
0.215841
0.215799
0.215762
0.215731
0.215703
0.215679
0.215658
0.21564
0.215623
0.215608
0.215594
0.215581
0.21557
0.21556
0.21555
0.215541
0.215533
0.215525
0.215518
0.215511
0.215505
0.215499
0.215494
0.215489
0.215484
0.215479
0.215475
0.215471
0.215467
0.215463
0.215459
0.215455
0.215452
0.215449
0.215445
0.215442
0.215439
0.215436
0.215433
0.215429
0.215426
0.215423
0.215421
0.215418
0.215415
0.215413
0.215411
0.215409
0.215408
0.215407
0.96133
0.890907
0.826649
0.767858
0.713928
0.664338
0.618656
0.576532
0.537691
0.501929
0.46909
0.439058
0.411731
0.38701
0.364784
0.344926
0.327291
0.311721
0.298045
0.286092
0.27569
0.266675
0.258891
0.252194
0.246451
0.241543
0.237361
0.23381
0.230802
0.228264
0.226128
0.224336
0.222837
0.221587
0.220547
0.219684
0.21897
0.21838
0.217894
0.217494
0.217165
0.216894
0.216672
0.216489
0.216339
0.216214
0.216112
0.216026
0.215955
0.215895
0.215845
0.215802
0.215765
0.215734
0.215706
0.215682
0.215661
0.215642
0.215625
0.21561
0.215596
0.215584
0.215572
0.215562
0.215552
0.215543
0.215535
0.215527
0.21552
0.215513
0.215507
0.215501
0.215495
0.21549
0.215485
0.21548
0.215476
0.215472
0.215468
0.215464
0.21546
0.215456
0.215453
0.21545
0.215446
0.215443
0.21544
0.215436
0.215433
0.21543
0.215427
0.215424
0.215421
0.215418
0.215416
0.215414
0.215411
0.21541
0.215408
0.215408
0.96133
0.890911
0.826661
0.767882
0.713967
0.664394
0.618731
0.576625
0.537803
0.502058
0.469234
0.439215
0.411897
0.387182
0.364958
0.345098
0.327459
0.311882
0.298198
0.286235
0.275823
0.266797
0.259003
0.252295
0.246542
0.241624
0.237433
0.233873
0.230859
0.228313
0.226171
0.224374
0.22287
0.221615
0.220571
0.219705
0.218988
0.218396
0.217907
0.217505
0.217175
0.216903
0.21668
0.216496
0.216345
0.21622
0.216117
0.216031
0.215959
0.215899
0.215849
0.215806
0.215769
0.215737
0.215709
0.215685
0.215664
0.215645
0.215628
0.215613
0.215599
0.215586
0.215575
0.215564
0.215554
0.215545
0.215537
0.215529
0.215522
0.215515
0.215509
0.215503
0.215497
0.215492
0.215487
0.215482
0.215477
0.215473
0.215469
0.215465
0.215461
0.215458
0.215454
0.215451
0.215447
0.215444
0.215441
0.215437
0.215434
0.215431
0.215428
0.215425
0.215422
0.215419
0.215417
0.215414
0.215412
0.21541
0.215409
0.215408
0.96133
0.890914
0.826672
0.767905
0.714004
0.66445
0.618806
0.576722
0.537921
0.502195
0.46939
0.439385
0.412078
0.387369
0.365148
0.345288
0.327645
0.312061
0.298368
0.286394
0.275971
0.266933
0.259127
0.252407
0.246643
0.241715
0.237514
0.233944
0.230921
0.228368
0.226219
0.224415
0.222905
0.221646
0.220597
0.219728
0.219007
0.218412
0.217922
0.217518
0.217185
0.216912
0.216688
0.216503
0.216351
0.216225
0.216122
0.216035
0.215964
0.215903
0.215852
0.215809
0.215772
0.21574
0.215713
0.215688
0.215667
0.215648
0.215631
0.215615
0.215601
0.215589
0.215577
0.215566
0.215557
0.215547
0.215539
0.215531
0.215524
0.215517
0.21551
0.215504
0.215499
0.215493
0.215488
0.215483
0.215479
0.215474
0.21547
0.215466
0.215462
0.215459
0.215455
0.215452
0.215448
0.215445
0.215441
0.215438
0.215435
0.215432
0.215429
0.215426
0.215423
0.21542
0.215417
0.215415
0.215413
0.215411
0.215409
0.215409
0.96133
0.890916
0.826681
0.767925
0.714039
0.664503
0.618881
0.576819
0.538041
0.502337
0.469551
0.439562
0.412268
0.387568
0.365351
0.34549
0.327843
0.312252
0.29855
0.286566
0.27613
0.26708
0.259261
0.252529
0.246753
0.241813
0.237601
0.234021
0.230989
0.228427
0.22627
0.224459
0.222944
0.221679
0.220626
0.219752
0.219028
0.21843
0.217937
0.21753
0.217196
0.216922
0.216696
0.21651
0.216357
0.216231
0.216127
0.21604
0.215968
0.215907
0.215856
0.215813
0.215776
0.215743
0.215716
0.215691
0.21567
0.215651
0.215633
0.215618
0.215604
0.215591
0.215579
0.215569
0.215559
0.21555
0.215541
0.215533
0.215526
0.215519
0.215512
0.215506
0.2155
0.215495
0.21549
0.215485
0.21548
0.215476
0.215472
0.215468
0.215464
0.21546
0.215456
0.215453
0.215449
0.215446
0.215442
0.215439
0.215436
0.215433
0.215429
0.215426
0.215423
0.21542
0.215418
0.215415
0.215413
0.215411
0.21541
0.215409
0.96133
0.890918
0.826688
0.767943
0.714072
0.664554
0.618953
0.576914
0.538159
0.502479
0.469714
0.439744
0.412464
0.387773
0.365561
0.345701
0.328051
0.312453
0.298741
0.286746
0.276298
0.267235
0.259403
0.252658
0.246869
0.241916
0.237693
0.234103
0.23106
0.22849
0.226324
0.224506
0.222984
0.221713
0.220655
0.219777
0.21905
0.218448
0.217952
0.217544
0.217208
0.216931
0.216704
0.216517
0.216363
0.216237
0.216132
0.216045
0.215972
0.215911
0.21586
0.215816
0.215779
0.215746
0.215719
0.215694
0.215672
0.215653
0.215636
0.21562
0.215606
0.215593
0.215582
0.215571
0.215561
0.215552
0.215543
0.215535
0.215527
0.21552
0.215514
0.215508
0.215502
0.215496
0.215491
0.215486
0.215482
0.215477
0.215473
0.215469
0.215465
0.215461
0.215457
0.215454
0.21545
0.215447
0.215443
0.21544
0.215437
0.215433
0.21543
0.215427
0.215424
0.215421
0.215418
0.215416
0.215414
0.215412
0.215411
0.21541
0.961329
0.890919
0.826695
0.767959
0.714102
0.664602
0.619022
0.577006
0.538276
0.502619
0.469877
0.439926
0.412661
0.387981
0.365775
0.345916
0.328263
0.312659
0.298939
0.286932
0.276472
0.267396
0.25955
0.252792
0.246989
0.242024
0.237789
0.234188
0.231135
0.228555
0.226381
0.224555
0.223026
0.221749
0.220686
0.219803
0.219072
0.218467
0.217968
0.217557
0.217219
0.216941
0.216712
0.216524
0.21637
0.216242
0.216136
0.216049
0.215976
0.215914
0.215863
0.215819
0.215781
0.215749
0.215721
0.215696
0.215675
0.215655
0.215638
0.215623
0.215608
0.215596
0.215584
0.215573
0.215563
0.215553
0.215545
0.215537
0.215529
0.215522
0.215515
0.215509
0.215503
0.215498
0.215492
0.215487
0.215483
0.215478
0.215474
0.21547
0.215466
0.215462
0.215458
0.215455
0.215451
0.215447
0.215444
0.215441
0.215437
0.215434
0.215431
0.215428
0.215425
0.215422
0.215419
0.215417
0.215414
0.215412
0.215411
0.21541
0.961329
0.89092
0.826701
0.767974
0.71413
0.664647
0.619087
0.577094
0.538389
0.502756
0.470037
0.440105
0.412857
0.388188
0.365989
0.346133
0.328478
0.312868
0.299139
0.287122
0.27665
0.267561
0.259701
0.252929
0.247113
0.242135
0.237888
0.234275
0.231212
0.228622
0.226439
0.224606
0.223069
0.221786
0.220718
0.21983
0.219094
0.218486
0.217984
0.21757
0.21723
0.21695
0.21672
0.216531
0.216375
0.216247
0.216141
0.216052
0.215979
0.215917
0.215866
0.215822
0.215784
0.215751
0.215723
0.215699
0.215677
0.215658
0.21564
0.215625
0.21561
0.215597
0.215585
0.215574
0.215564
0.215555
0.215546
0.215538
0.215531
0.215523
0.215517
0.21551
0.215504
0.215499
0.215494
0.215489
0.215484
0.215479
0.215475
0.215471
0.215467
0.215463
0.215459
0.215455
0.215452
0.215448
0.215445
0.215441
0.215438
0.215435
0.215431
0.215428
0.215425
0.215422
0.21542
0.215417
0.215415
0.215413
0.215412
0.215411
0.961329
0.890922
0.826707
0.767988
0.714156
0.664689
0.619149
0.577179
0.538497
0.502888
0.470192
0.440281
0.413049
0.388393
0.366202
0.346349
0.328692
0.313078
0.299341
0.287314
0.276829
0.267727
0.259854
0.253068
0.247239
0.242248
0.237988
0.234364
0.23129
0.22869
0.226498
0.224657
0.223113
0.221824
0.220749
0.219857
0.219117
0.218505
0.218
0.217584
0.217241
0.216959
0.216728
0.216537
0.216381
0.216251
0.216145
0.216056
0.215982
0.21592
0.215868
0.215824
0.215786
0.215753
0.215725
0.2157
0.215679
0.215659
0.215642
0.215626
0.215612
0.215599
0.215587
0.215576
0.215566
0.215556
0.215548
0.215539
0.215532
0.215525
0.215518
0.215512
0.215506
0.2155
0.215495
0.21549
0.215485
0.21548
0.215476
0.215471
0.215467
0.215464
0.21546
0.215456
0.215452
0.215449
0.215445
0.215442
0.215439
0.215435
0.215432
0.215429
0.215426
0.215423
0.21542
0.215418
0.215415
0.215413
0.215412
0.215411
0.961328
0.890922
0.826712
0.768
0.71418
0.664729
0.619207
0.577258
0.5386
0.503016
0.470342
0.440452
0.413237
0.388594
0.366411
0.346561
0.328904
0.313286
0.299541
0.287504
0.277009
0.267894
0.260007
0.253208
0.247366
0.242362
0.23809
0.234454
0.231368
0.228759
0.226558
0.224708
0.223157
0.221861
0.220781
0.219884
0.219139
0.218524
0.218015
0.217596
0.217252
0.216968
0.216735
0.216543
0.216386
0.216256
0.216148
0.216059
0.215985
0.215922
0.21587
0.215826
0.215788
0.215755
0.215727
0.215702
0.21568
0.215661
0.215643
0.215627
0.215613
0.2156
0.215588
0.215577
0.215567
0.215557
0.215549
0.21554
0.215533
0.215526
0.215519
0.215512
0.215506
0.215501
0.215495
0.21549
0.215485
0.215481
0.215476
0.215472
0.215468
0.215464
0.21546
0.215457
0.215453
0.215449
0.215446
0.215442
0.215439
0.215436
0.215432
0.215429
0.215426
0.215423
0.21542
0.215418
0.215416
0.215414
0.215412
0.215412
0.961328
0.890923
0.826716
0.768012
0.714202
0.664765
0.619262
0.577334
0.538698
0.503137
0.470486
0.440616
0.413419
0.388789
0.366614
0.346769
0.329113
0.31349
0.299739
0.287693
0.277186
0.268059
0.26016
0.253348
0.247492
0.242475
0.238191
0.234543
0.231447
0.228828
0.226618
0.22476
0.223201
0.221899
0.220813
0.21991
0.219162
0.218542
0.218031
0.217609
0.217262
0.216977
0.216742
0.216549
0.21639
0.216259
0.216151
0.216061
0.215987
0.215924
0.215872
0.215827
0.215789
0.215756
0.215728
0.215703
0.215681
0.215662
0.215644
0.215628
0.215614
0.215601
0.215589
0.215578
0.215568
0.215558
0.215549
0.215541
0.215534
0.215526
0.215519
0.215513
0.215507
0.215501
0.215496
0.215491
0.215486
0.215481
0.215477
0.215473
0.215468
0.215465
0.215461
0.215457
0.215453
0.21545
0.215446
0.215443
0.215439
0.215436
0.215433
0.21543
0.215427
0.215424
0.215421
0.215418
0.215416
0.215414
0.215413
0.215412
0.961328
0.890924
0.826721
0.768023
0.714223
0.6648
0.619313
0.577405
0.538791
0.503252
0.470623
0.440774
0.413594
0.388977
0.366812
0.346972
0.329316
0.31369
0.299933
0.287878
0.277361
0.268222
0.260311
0.253485
0.247617
0.242588
0.238291
0.234632
0.231525
0.228896
0.226677
0.224811
0.223245
0.221936
0.220844
0.219936
0.219183
0.21856
0.218045
0.217621
0.217272
0.216984
0.216748
0.216554
0.216394
0.216262
0.216154
0.216063
0.215988
0.215925
0.215873
0.215828
0.21579
0.215757
0.215728
0.215704
0.215682
0.215662
0.215645
0.215629
0.215615
0.215602
0.21559
0.215579
0.215568
0.215559
0.21555
0.215542
0.215534
0.215527
0.21552
0.215514
0.215507
0.215502
0.215496
0.215491
0.215486
0.215482
0.215477
0.215473
0.215469
0.215465
0.215461
0.215457
0.215453
0.21545
0.215446
0.215443
0.21544
0.215436
0.215433
0.21543
0.215427
0.215424
0.215421
0.215419
0.215416
0.215415
0.215413
0.215412
0.961328
0.890925
0.826725
0.768033
0.714243
0.664832
0.619361
0.577472
0.538879
0.503362
0.470754
0.440924
0.413761
0.389158
0.367002
0.347167
0.329512
0.313884
0.300122
0.288059
0.277532
0.268382
0.260458
0.253621
0.24774
0.242699
0.23839
0.23472
0.231603
0.228963
0.226736
0.224861
0.223288
0.221973
0.220875
0.219962
0.219205
0.218578
0.21806
0.217633
0.217281
0.216992
0.216754
0.216559
0.216398
0.216265
0.216156
0.216065
0.215989
0.215926
0.215873
0.215828
0.21579
0.215757
0.215729
0.215704
0.215682
0.215662
0.215645
0.215629
0.215615
0.215602
0.21559
0.215579
0.215569
0.215559
0.21555
0.215542
0.215534
0.215527
0.21552
0.215514
0.215508
0.215502
0.215496
0.215491
0.215486
0.215482
0.215477
0.215473
0.215469
0.215465
0.215461
0.215457
0.215454
0.21545
0.215446
0.215443
0.21544
0.215436
0.215433
0.21543
0.215427
0.215424
0.215421
0.215419
0.215417
0.215415
0.215413
0.215412
0.961327
0.890926
0.826728
0.768042
0.714261
0.664862
0.619406
0.577535
0.538961
0.503465
0.470878
0.441068
0.413921
0.389332
0.367185
0.347355
0.329702
0.314072
0.300305
0.288235
0.277698
0.268538
0.260603
0.253753
0.247861
0.242807
0.238487
0.234806
0.231678
0.22903
0.226793
0.22491
0.22333
0.222008
0.220905
0.219987
0.219226
0.218595
0.218074
0.217644
0.21729
0.216999
0.216759
0.216563
0.216401
0.216267
0.216157
0.216066
0.21599
0.215927
0.215873
0.215828
0.21579
0.215757
0.215729
0.215704
0.215682
0.215662
0.215645
0.215629
0.215615
0.215602
0.21559
0.215579
0.215569
0.215559
0.21555
0.215542
0.215534
0.215527
0.21552
0.215514
0.215508
0.215502
0.215496
0.215491
0.215486
0.215482
0.215477
0.215473
0.215469
0.215465
0.215461
0.215457
0.215454
0.21545
0.215446
0.215443
0.21544
0.215436
0.215433
0.21543
0.215427
0.215424
0.215421
0.215419
0.215417
0.215415
0.215413
0.215413
0.961327
0.890926
0.826732
0.768051
0.714278
0.66489
0.619449
0.577594
0.539039
0.503563
0.470996
0.441204
0.414073
0.389497
0.36736
0.347536
0.329885
0.314253
0.300481
0.288405
0.27786
0.268689
0.260743
0.253882
0.247978
0.242913
0.238582
0.23489
0.231753
0.229094
0.226849
0.224959
0.223372
0.222043
0.220935
0.220012
0.219246
0.218611
0.218087
0.217654
0.217298
0.217005
0.216764
0.216566
0.216403
0.216269
0.216158
0.216067
0.21599
0.215927
0.215873
0.215828
0.21579
0.215757
0.215728
0.215703
0.215681
0.215662
0.215644
0.215629
0.215614
0.215601
0.215589
0.215578
0.215568
0.215559
0.21555
0.215542
0.215534
0.215527
0.21552
0.215513
0.215507
0.215502
0.215496
0.215491
0.215486
0.215481
0.215477
0.215473
0.215469
0.215465
0.215461
0.215457
0.215453
0.21545
0.215446
0.215443
0.21544
0.215436
0.215433
0.21543
0.215427
0.215424
0.215421
0.215419
0.215417
0.215415
0.215414
0.215413
0.961327
0.890927
0.826735
0.768059
0.714294
0.664916
0.619489
0.57765
0.539113
0.503655
0.471107
0.441332
0.414218
0.389654
0.367526
0.347708
0.330059
0.314427
0.300651
0.288568
0.278015
0.268835
0.260879
0.254007
0.248092
0.243016
0.238674
0.234972
0.231825
0.229158
0.226904
0.225006
0.223412
0.222077
0.220963
0.220035
0.219265
0.218627
0.218099
0.217664
0.217306
0.217011
0.216769
0.216569
0.216405
0.21627
0.216159
0.216067
0.21599
0.215926
0.215873
0.215827
0.215789
0.215756
0.215727
0.215702
0.21568
0.215661
0.215644
0.215628
0.215614
0.215601
0.215589
0.215578
0.215568
0.215558
0.215549
0.215541
0.215533
0.215526
0.215519
0.215513
0.215507
0.215501
0.215496
0.215491
0.215486
0.215481
0.215477
0.215472
0.215468
0.215464
0.21546
0.215457
0.215453
0.215449
0.215446
0.215443
0.215439
0.215436
0.215433
0.21543
0.215427
0.215424
0.215421
0.215419
0.215417
0.215415
0.215413
0.215413
0.961327
0.890928
0.826739
0.768067
0.714308
0.664941
0.619526
0.577702
0.539182
0.503742
0.471211
0.441454
0.414354
0.389803
0.367685
0.347872
0.330226
0.314593
0.300814
0.288725
0.278165
0.268976
0.26101
0.254128
0.248202
0.243116
0.238764
0.235051
0.231895
0.229219
0.226957
0.225051
0.223451
0.22211
0.22099
0.220058
0.219284
0.218642
0.218111
0.217674
0.217313
0.217017
0.216773
0.216572
0.216407
0.216271
0.216159
0.216067
0.21599
0.215926
0.215872
0.215826
0.215788
0.215755
0.215726
0.215701
0.215679
0.21566
0.215642
0.215627
0.215613
0.2156
0.215588
0.215577
0.215567
0.215557
0.215549
0.21554
0.215533
0.215526
0.215519
0.215512
0.215506
0.215501
0.215495
0.21549
0.215485
0.21548
0.215476
0.215472
0.215468
0.215464
0.21546
0.215456
0.215453
0.215449
0.215446
0.215442
0.215439
0.215436
0.215433
0.21543
0.215427
0.215424
0.215421
0.215419
0.215417
0.215415
0.215413
0.215413
0.961327
0.890928
0.826742
0.768075
0.714322
0.664964
0.619561
0.577751
0.539246
0.503823
0.47131
0.441568
0.414483
0.389944
0.367835
0.348028
0.330384
0.314751
0.300969
0.288875
0.278308
0.269111
0.261136
0.254244
0.248308
0.243212
0.23885
0.235128
0.231962
0.229278
0.227008
0.225096
0.223488
0.222142
0.221017
0.22008
0.219302
0.218656
0.218123
0.217683
0.21732
0.217021
0.216776
0.216574
0.216408
0.216272
0.216159
0.216066
0.215989
0.215924
0.215871
0.215825
0.215786
0.215753
0.215725
0.2157
0.215678
0.215658
0.215641
0.215626
0.215612
0.215599
0.215587
0.215576
0.215566
0.215556
0.215548
0.21554
0.215532
0.215525
0.215518
0.215511
0.215505
0.2155
0.215494
0.215489
0.215484
0.21548
0.215475
0.215471
0.215467
0.215463
0.215459
0.215456
0.215452
0.215448
0.215445
0.215442
0.215438
0.215435
0.215432
0.215429
0.215426
0.215424
0.215421
0.215419
0.215416
0.215415
0.215413
0.215412
0.961327
0.890929
0.826744
0.768081
0.714335
0.664986
0.619593
0.577796
0.539307
0.5039
0.471402
0.441676
0.414605
0.390077
0.367977
0.348176
0.330535
0.314902
0.301117
0.289019
0.278445
0.26924
0.261256
0.254355
0.24841
0.243304
0.238932
0.235202
0.232027
0.229335
0.227058
0.225138
0.223524
0.222172
0.221042
0.220101
0.219319
0.21867
0.218134
0.217691
0.217326
0.217026
0.216779
0.216576
0.216409
0.216272
0.216159
0.216065
0.215988
0.215923
0.215869
0.215823
0.215785
0.215751
0.215723
0.215698
0.215676
0.215657
0.21564
0.215624
0.21561
0.215597
0.215585
0.215575
0.215565
0.215555
0.215547
0.215538
0.215531
0.215524
0.215517
0.21551
0.215504
0.215499
0.215493
0.215488
0.215483
0.215479
0.215474
0.21547
0.215466
0.215462
0.215458
0.215455
0.215451
0.215448
0.215444
0.215441
0.215438
0.215435
0.215432
0.215429
0.215426
0.215423
0.215421
0.215418
0.215416
0.215414
0.215413
0.215412
0.961327
0.89093
0.826747
0.768088
0.714348
0.665006
0.619624
0.577839
0.539363
0.503971
0.471489
0.441777
0.414719
0.390203
0.368111
0.348316
0.330677
0.315045
0.301258
0.289155
0.278575
0.269363
0.261371
0.254461
0.248507
0.243392
0.239012
0.235272
0.23209
0.229389
0.227105
0.225179
0.223559
0.222202
0.221067
0.220121
0.219335
0.218683
0.218144
0.217699
0.217332
0.21703
0.216782
0.216578
0.21641
0.216272
0.216158
0.216064
0.215986
0.215922
0.215867
0.215822
0.215783
0.21575
0.215721
0.215696
0.215674
0.215655
0.215638
0.215622
0.215608
0.215596
0.215584
0.215573
0.215563
0.215554
0.215545
0.215537
0.21553
0.215522
0.215516
0.215509
0.215503
0.215498
0.215492
0.215487
0.215482
0.215478
0.215473
0.215469
0.215465
0.215461
0.215458
0.215454
0.21545
0.215447
0.215444
0.21544
0.215437
0.215434
0.215431
0.215428
0.215425
0.215423
0.21542
0.215418
0.215416
0.215414
0.215413
0.215412
0.961327
0.89093
0.82675
0.768094
0.714359
0.665025
0.619652
0.577879
0.539416
0.504038
0.47157
0.441872
0.414827
0.390321
0.368237
0.348447
0.330812
0.31518
0.301391
0.289284
0.278699
0.26948
0.261481
0.254563
0.2486
0.243476
0.239088
0.23534
0.23215
0.229442
0.227151
0.225218
0.223592
0.22223
0.22109
0.22014
0.21935
0.218695
0.218154
0.217706
0.217337
0.217034
0.216784
0.216579
0.21641
0.216272
0.216157
0.216063
0.215985
0.21592
0.215865
0.215819
0.215781
0.215747
0.215719
0.215694
0.215672
0.215653
0.215636
0.215621
0.215607
0.215594
0.215582
0.215572
0.215562
0.215552
0.215544
0.215536
0.215528
0.215521
0.215514
0.215508
0.215502
0.215496
0.215491
0.215486
0.215481
0.215477
0.215472
0.215468
0.215464
0.21546
0.215457
0.215453
0.21545
0.215446
0.215443
0.21544
0.215437
0.215434
0.215431
0.215428
0.215425
0.215422
0.21542
0.215417
0.215415
0.215414
0.215412
0.215412
0.961327
0.890931
0.826752
0.7681
0.71437
0.665043
0.619679
0.577916
0.539466
0.504101
0.471646
0.441961
0.414928
0.390431
0.368355
0.348571
0.330939
0.315307
0.301517
0.289406
0.278816
0.269591
0.261585
0.254659
0.248688
0.243557
0.23916
0.235405
0.232207
0.229492
0.227194
0.225255
0.223624
0.222256
0.221112
0.220158
0.219365
0.218707
0.218163
0.217713
0.217342
0.217037
0.216786
0.21658
0.216411
0.216271
0.216156
0.216062
0.215983
0.215918
0.215863
0.215817
0.215778
0.215745
0.215717
0.215692
0.21567
0.215651
0.215634
0.215619
0.215605
0.215592
0.215581
0.21557
0.21556
0.215551
0.215542
0.215534
0.215527
0.21552
0.215513
0.215507
0.215501
0.215495
0.21549
0.215485
0.21548
0.215476
0.215471
0.215467
0.215463
0.215459
0.215456
0.215452
0.215449
0.215445
0.215442
0.215439
0.215436
0.215433
0.21543
0.215427
0.215424
0.215422
0.215419
0.215417
0.215415
0.215413
0.215412
0.215411
0.961327
0.890932
0.826754
0.768105
0.71438
0.665059
0.619704
0.577951
0.539512
0.504159
0.471717
0.442045
0.415022
0.390535
0.368467
0.348688
0.331058
0.315427
0.301635
0.289522
0.278927
0.269697
0.261683
0.254751
0.248772
0.243633
0.239229
0.235466
0.232261
0.229539
0.227235
0.225291
0.223654
0.222282
0.221133
0.220176
0.219379
0.218718
0.218171
0.217719
0.217347
0.21704
0.216788
0.216581
0.216411
0.21627
0.216155
0.21606
0.215981
0.215916
0.215861
0.215815
0.215776
0.215743
0.215714
0.21569
0.215668
0.215649
0.215632
0.215617
0.215603
0.21559
0.215579
0.215568
0.215558
0.215549
0.215541
0.215533
0.215525
0.215518
0.215511
0.215505
0.215499
0.215494
0.215489
0.215484
0.215479
0.215474
0.21547
0.215466
0.215462
0.215458
0.215455
0.215451
0.215448
0.215444
0.215441
0.215438
0.215435
0.215432
0.215429
0.215426
0.215424
0.215421
0.215419
0.215416
0.215415
0.215413
0.215412
0.215411
0.961327
0.890932
0.826757
0.76811
0.714389
0.665075
0.619727
0.577983
0.539555
0.504214
0.471783
0.442122
0.41511
0.390632
0.368571
0.348797
0.331171
0.31554
0.301747
0.289631
0.279032
0.269796
0.261777
0.254837
0.248852
0.243706
0.239294
0.235524
0.232313
0.229585
0.227275
0.225325
0.223683
0.222306
0.221154
0.220192
0.219392
0.218729
0.218179
0.217725
0.217351
0.217043
0.21679
0.216581
0.21641
0.21627
0.216154
0.216058
0.215979
0.215913
0.215859
0.215812
0.215774
0.21574
0.215712
0.215687
0.215666
0.215647
0.21563
0.215614
0.215601
0.215588
0.215577
0.215566
0.215556
0.215547
0.215539
0.215531
0.215523
0.215517
0.21551
0.215504
0.215498
0.215492
0.215487
0.215482
0.215477
0.215473
0.215469
0.215465
0.215461
0.215457
0.215453
0.21545
0.215447
0.215443
0.21544
0.215437
0.215434
0.215431
0.215428
0.215426
0.215423
0.21542
0.215418
0.215416
0.215414
0.215412
0.215411
0.21541
0.961327
0.890933
0.826759
0.768115
0.714398
0.665089
0.619748
0.578014
0.539595
0.504265
0.471845
0.442195
0.415192
0.390723
0.368668
0.348899
0.331276
0.315646
0.301852
0.289733
0.27913
0.26989
0.261865
0.254919
0.248927
0.243774
0.239356
0.23558
0.232362
0.229628
0.227312
0.225357
0.223711
0.222329
0.221173
0.220208
0.219405
0.218738
0.218187
0.217731
0.217355
0.217045
0.216791
0.216582
0.21641
0.216269
0.216152
0.216056
0.215977
0.215911
0.215856
0.21581
0.215771
0.215738
0.215709
0.215685
0.215663
0.215644
0.215627
0.215612
0.215599
0.215586
0.215575
0.215564
0.215554
0.215545
0.215537
0.215529
0.215522
0.215515
0.215508
0.215502
0.215496
0.215491
0.215486
0.215481
0.215476
0.215472
0.215467
0.215463
0.215459
0.215456
0.215452
0.215449
0.215446
0.215442
0.215439
0.215436
0.215433
0.21543
0.215428
0.215425
0.215422
0.21542
0.215417
0.215415
0.215413
0.215412
0.215411
0.21541
0.961327
0.890933
0.82676
0.768119
0.714406
0.665102
0.619768
0.578042
0.539632
0.504312
0.471902
0.442262
0.415269
0.390808
0.368759
0.348995
0.331374
0.315745
0.30195
0.289829
0.279223
0.269978
0.261947
0.254996
0.248998
0.243839
0.239414
0.235632
0.232408
0.229668
0.227347
0.225387
0.223736
0.222351
0.221191
0.220222
0.219417
0.218748
0.218194
0.217736
0.217358
0.217048
0.216792
0.216582
0.216409
0.216267
0.216151
0.216054
0.215975
0.215909
0.215854
0.215807
0.215768
0.215735
0.215707
0.215682
0.215661
0.215642
0.215625
0.21561
0.215596
0.215584
0.215573
0.215562
0.215553
0.215544
0.215535
0.215527
0.21552
0.215513
0.215507
0.215501
0.215495
0.215489
0.215484
0.215479
0.215475
0.21547
0.215466
0.215462
0.215458
0.215455
0.215451
0.215448
0.215444
0.215441
0.215438
0.215435
0.215432
0.215429
0.215427
0.215424
0.215422
0.215419
0.215417
0.215415
0.215413
0.215411
0.21541
0.215409
0.961327
0.890934
0.826762
0.768123
0.714414
0.665115
0.619787
0.578068
0.539667
0.504355
0.471956
0.442325
0.41534
0.390886
0.368844
0.349084
0.331466
0.315837
0.302042
0.289919
0.27931
0.27006
0.262025
0.255068
0.249065
0.2439
0.239469
0.235681
0.232452
0.229707
0.227381
0.225416
0.223761
0.222371
0.221208
0.220236
0.219428
0.218756
0.2182
0.217741
0.217362
0.21705
0.216793
0.216582
0.216409
0.216266
0.216149
0.216052
0.215973
0.215906
0.215851
0.215805
0.215766
0.215733
0.215704
0.21568
0.215658
0.215639
0.215623
0.215608
0.215594
0.215582
0.215571
0.21556
0.215551
0.215542
0.215533
0.215526
0.215518
0.215511
0.215505
0.215499
0.215493
0.215488
0.215483
0.215478
0.215473
0.215469
0.215465
0.215461
0.215457
0.215453
0.21545
0.215446
0.215443
0.21544
0.215437
0.215434
0.215431
0.215429
0.215426
0.215423
0.215421
0.215418
0.215416
0.215414
0.215412
0.215411
0.21541
0.215409
0.961327
0.890934
0.826764
0.768127
0.714421
0.665126
0.619804
0.578092
0.539699
0.504396
0.472005
0.442383
0.415406
0.39096
0.368923
0.349167
0.331551
0.315924
0.302128
0.290003
0.279391
0.270137
0.262098
0.255136
0.249127
0.243957
0.239521
0.235727
0.232493
0.229743
0.227412
0.225443
0.223784
0.22239
0.221223
0.220249
0.219438
0.218764
0.218206
0.217745
0.217365
0.217051
0.216794
0.216582
0.216408
0.216265
0.216147
0.216051
0.21597
0.215904
0.215849
0.215802
0.215763
0.21573
0.215702
0.215677
0.215656
0.215637
0.21562
0.215605
0.215592
0.21558
0.215568
0.215558
0.215549
0.21554
0.215532
0.215524
0.215517
0.21551
0.215503
0.215497
0.215492
0.215486
0.215481
0.215476
0.215472
0.215467
0.215463
0.215459
0.215456
0.215452
0.215449
0.215445
0.215442
0.215439
0.215436
0.215433
0.21543
0.215428
0.215425
0.215422
0.21542
0.215418
0.215416
0.215414
0.215412
0.21541
0.215409
0.215408
0.961327
0.890935
0.826766
0.76813
0.714427
0.665137
0.61982
0.578114
0.539728
0.504434
0.472051
0.442437
0.415468
0.391027
0.368996
0.349244
0.33163
0.316004
0.302208
0.290081
0.279466
0.27021
0.262166
0.2552
0.249186
0.24401
0.239569
0.235771
0.232531
0.229776
0.227441
0.225468
0.223805
0.222408
0.221238
0.220261
0.219448
0.218772
0.218212
0.217749
0.217367
0.217053
0.216794
0.216582
0.216407
0.216264
0.216146
0.216049
0.215968
0.215902
0.215846
0.2158
0.215761
0.215728
0.215699
0.215675
0.215653
0.215635
0.215618
0.215603
0.21559
0.215578
0.215566
0.215556
0.215547
0.215538
0.21553
0.215522
0.215515
0.215508
0.215502
0.215496
0.21549
0.215485
0.21548
0.215475
0.21547
0.215466
0.215462
0.215458
0.215454
0.215451
0.215447
0.215444
0.215441
0.215438
0.215435
0.215432
0.215429
0.215427
0.215424
0.215422
0.215419
0.215417
0.215415
0.215413
0.215411
0.21541
0.215408
0.215408
0.961327
0.890935
0.826767
0.768134
0.714433
0.665147
0.619834
0.578135
0.539756
0.504468
0.472093
0.442486
0.415524
0.39109
0.369064
0.349315
0.331704
0.316079
0.302282
0.290154
0.279537
0.270277
0.262229
0.255259
0.24924
0.24406
0.239615
0.235811
0.232567
0.229808
0.227469
0.225492
0.223825
0.222425
0.221252
0.220273
0.219457
0.218779
0.218217
0.217753
0.21737
0.217054
0.216795
0.216582
0.216406
0.216262
0.216144
0.216047
0.215966
0.215899
0.215844
0.215797
0.215758
0.215725
0.215697
0.215672
0.215651
0.215632
0.215616
0.215601
0.215588
0.215576
0.215564
0.215554
0.215545
0.215536
0.215528
0.21552
0.215513
0.215506
0.2155
0.215494
0.215488
0.215483
0.215478
0.215473
0.215469
0.215465
0.215461
0.215457
0.215453
0.21545
0.215446
0.215443
0.21544
0.215437
0.215434
0.215431
0.215429
0.215426
0.215423
0.215421
0.215419
0.215416
0.215414
0.215412
0.215411