/*--------------------------------*- C++ -*----------------------------------*\
  =========                 |
  \\      /  F ield         | OpenFOAM: The Open Source CFD Toolbox
   \\    /   O peration     | Website:  https://openfoam.org
    \\  /    A nd           | Version:  11
     \\/     M anipulation  |
\*---------------------------------------------------------------------------*/
FoamFile
{
    format      ascii;
    class       volScalarField;
    location    "210";
    object      omega;
}
// * * * * * * * * * * * * * * * * * * * * * * * * * * * * * * * * * * * * * //

dimensions      [0 0 -1 0 0 0 0];

internalField   nonuniform List<scalar> 
10000
(
0.961698
0.892199
0.829103
0.771744
0.719532
0.67194
0.6285
0.588794
0.55245
0.519135
0.488555
0.460442
0.434562
0.410701
0.388669
0.368296
0.349429
0.33193
0.315675
0.300552
0.286461
0.27331
0.261016
0.249505
0.238709
0.228564
0.219016
0.210012
0.201505
0.193453
0.185818
0.178564
0.17166
0.165077
0.158793
0.152785
0.147036
0.141532
0.13626
0.131212
0.126381
0.121764
0.117358
0.113159
0.109169
0.105384
0.101803
0.0984239
0.0952431
0.0922567
0.0894595
0.0868457
0.0844084
0.0821399
0.0800321
0.0780761
0.0762633
0.0745848
0.0730321
0.0715968
0.070271
0.069047
0.0679175
0.0668756
0.0659149
0.0650291
0.0642127
0.0634604
0.0627673
0.0621288
0.0615407
0.0609991
0.0605004
0.0600412
0.0596186
0.0592297
0.0588719
0.0585427
0.05824
0.0579617
0.0577059
0.057471
0.0572554
0.0570576
0.0568763
0.0567104
0.0565587
0.0564203
0.0562943
0.0561799
0.0560766
0.0559837
0.0559008
0.0558276
0.0557639
0.0557097
0.0556651
0.0556303
0.055606
0.0555927
0.961699
0.8922
0.829104
0.771745
0.719533
0.671942
0.628501
0.588795
0.552451
0.519137
0.488556
0.460444
0.434564
0.410703
0.388671
0.368298
0.349431
0.331932
0.315677
0.300555
0.286463
0.273313
0.261019
0.249508
0.238712
0.228568
0.21902
0.210016
0.20151
0.193458
0.185823
0.17857
0.171666
0.165085
0.158801
0.152794
0.147046
0.141542
0.136271
0.131224
0.126395
0.121778
0.117372
0.113174
0.109184
0.105399
0.101818
0.0984391
0.0952585
0.0922722
0.0894751
0.0868611
0.0844233
0.0821542
0.0800455
0.0780886
0.0762749
0.0745956
0.0730421
0.0716062
0.0702798
0.0690553
0.0679252
0.0668828
0.0659216
0.0650354
0.0642185
0.0634658
0.0627723
0.0621335
0.061545
0.0610031
0.0605041
0.0600447
0.0596218
0.0592327
0.0588746
0.0585452
0.0582423
0.0579638
0.0577079
0.0574729
0.0572571
0.0570592
0.0568777
0.0567117
0.0565599
0.0564214
0.0562953
0.0561808
0.0560774
0.0559845
0.0559015
0.0558283
0.0557645
0.0557103
0.0556656
0.0556309
0.0556065
0.0555932
0.961699
0.8922
0.829105
0.771747
0.719535
0.671944
0.628504
0.588798
0.552454
0.51914
0.48856
0.460448
0.434567
0.410706
0.388675
0.368302
0.349435
0.331936
0.315681
0.300559
0.286468
0.273317
0.261024
0.249513
0.238717
0.228573
0.219026
0.210022
0.201517
0.193466
0.185832
0.17858
0.171677
0.165097
0.158814
0.152808
0.147062
0.141559
0.136289
0.131244
0.126415
0.1218
0.117395
0.113198
0.109208
0.105423
0.101843
0.0984638
0.0952832
0.0922967
0.0894992
0.0868847
0.0844463
0.0821763
0.0800665
0.0781085
0.0762937
0.0746132
0.0730587
0.0716218
0.0702944
0.0690689
0.0679379
0.0668947
0.0659326
0.0650456
0.0642281
0.0634747
0.0627805
0.0621411
0.0615521
0.0610096
0.0605101
0.0600503
0.059627
0.0592374
0.058879
0.0585492
0.058246
0.0579672
0.0577111
0.0574757
0.0572597
0.0570616
0.05688
0.0567137
0.0565617
0.0564231
0.0562969
0.0561823
0.0560788
0.0559857
0.0559027
0.0558294
0.0557656
0.0557113
0.0556666
0.0556318
0.0556075
0.0555941
0.961699
0.892201
0.829106
0.771749
0.719538
0.671947
0.628507
0.588802
0.552458
0.519145
0.488564
0.460453
0.434572
0.410711
0.38868
0.368307
0.34944
0.331942
0.315687
0.300565
0.286474
0.273324
0.261031
0.249521
0.238725
0.228581
0.219034
0.210032
0.201527
0.193477
0.185844
0.178593
0.171692
0.165113
0.158832
0.152828
0.147083
0.141582
0.136315
0.13127
0.126444
0.12183
0.117426
0.11323
0.109241
0.105457
0.101877
0.0984977
0.0953169
0.0923301
0.0895321
0.0869168
0.0844773
0.0822061
0.0800951
0.0781357
0.0763194
0.0746375
0.0730815
0.0716432
0.0703145
0.0690877
0.0679555
0.066911
0.0659478
0.0650598
0.0642413
0.0634869
0.0627919
0.0621516
0.0615618
0.0610186
0.0605184
0.0600579
0.0596341
0.0592439
0.058885
0.0585548
0.0582511
0.0579719
0.0577153
0.0574797
0.0572633
0.0570649
0.056883
0.0567165
0.0565643
0.0564255
0.0562991
0.0561844
0.0560807
0.0559875
0.0559044
0.055831
0.0557671
0.0557128
0.0556681
0.0556333
0.0556089
0.0555955
0.961699
0.892201
0.829107
0.77175
0.71954
0.67195
0.628511
0.588806
0.552463
0.51915
0.48857
0.460458
0.434578
0.410718
0.388686
0.368314
0.349447
0.331949
0.315694
0.300572
0.286482
0.273332
0.261039
0.24953
0.238734
0.228592
0.219045
0.210044
0.20154
0.193492
0.18586
0.17861
0.171711
0.165134
0.158855
0.152853
0.14711
0.141612
0.136346
0.131304
0.12648
0.121868
0.117465
0.113271
0.109282
0.105499
0.101919
0.0985404
0.0953594
0.092372
0.0895731
0.0869568
0.0845161
0.0822434
0.0801307
0.0781697
0.0763516
0.074668
0.0731102
0.0716702
0.0703398
0.0691114
0.0679776
0.0669317
0.0659671
0.0650777
0.0642579
0.0635024
0.0628062
0.0621649
0.0615741
0.06103
0.0605289
0.0600676
0.059643
0.0592522
0.0588926
0.0585617
0.0582575
0.0579778
0.0577208
0.0574847
0.0572679
0.0570691
0.0568869
0.0567201
0.0565676
0.0564285
0.0563019
0.056187
0.0560832
0.0559898
0.0559066
0.0558331
0.0557691
0.0557147
0.05567
0.0556351
0.0556107
0.0555973
0.961699
0.892201
0.829107
0.771752
0.719542
0.671953
0.628514
0.58881
0.552468
0.519155
0.488576
0.460465
0.434585
0.410725
0.388694
0.368322
0.349455
0.331957
0.315703
0.300581
0.286491
0.273342
0.26105
0.249541
0.238746
0.228604
0.219059
0.210058
0.201556
0.193509
0.185879
0.178631
0.171734
0.165159
0.158882
0.152883
0.147143
0.141647
0.136384
0.131345
0.126523
0.121913
0.117512
0.113319
0.109332
0.105549
0.10197
0.098591
0.0954096
0.0924215
0.0896216
0.087004
0.0845618
0.0822874
0.0801728
0.0782098
0.0763897
0.074704
0.0731443
0.0717022
0.0703698
0.0691395
0.068004
0.0669563
0.06599
0.0650991
0.0642777
0.0635208
0.0628233
0.0621807
0.0615887
0.0610435
0.0605415
0.0600792
0.0596537
0.059262
0.0589016
0.0585701
0.0582652
0.0579849
0.0577273
0.0574906
0.0572734
0.0570742
0.0568915
0.0567244
0.0565716
0.0564322
0.0563053
0.0561902
0.0560861
0.0559926
0.0559092
0.0558356
0.0557716
0.0557171
0.0556723
0.0556374
0.0556129
0.0555995
0.961699
0.892201
0.829108
0.771753
0.719544
0.671955
0.628518
0.588814
0.552473
0.51916
0.488582
0.460471
0.434592
0.410732
0.388702
0.36833
0.349464
0.331966
0.315713
0.300591
0.286502
0.273353
0.261062
0.249553
0.23876
0.228619
0.219075
0.210075
0.201575
0.193529
0.185901
0.178655
0.17176
0.165188
0.158914
0.152918
0.147181
0.141688
0.136428
0.131391
0.126572
0.121964
0.117566
0.113374
0.109388
0.105607
0.102028
0.0986487
0.0954668
0.0924778
0.0896768
0.0870577
0.0846137
0.0823373
0.0802207
0.0782554
0.0764331
0.0747451
0.073183
0.0717387
0.0704041
0.0691717
0.068034
0.0669844
0.0660162
0.0651235
0.0643004
0.0635419
0.0628429
0.0621988
0.0616055
0.0610591
0.0605558
0.0600925
0.0596659
0.0592733
0.058912
0.0585796
0.058274
0.057993
0.0577347
0.0574975
0.0572797
0.05708
0.0568969
0.0567293
0.0565761
0.0564364
0.0563092
0.0561938
0.0560896
0.0559959
0.0559123
0.0558386
0.0557744
0.0557199
0.055675
0.05564
0.0556155
0.0556021
0.961699
0.892201
0.829108
0.771753
0.719545
0.671957
0.628521
0.588818
0.552477
0.519166
0.488588
0.460478
0.434599
0.41074
0.38871
0.368339
0.349473
0.331976
0.315723
0.300603
0.286514
0.273365
0.261075
0.249567
0.238775
0.228635
0.219092
0.210095
0.201595
0.193552
0.185926
0.178683
0.17179
0.165221
0.15895
0.152957
0.147223
0.141733
0.136476
0.131443
0.126626
0.122021
0.117625
0.113436
0.109451
0.10567
0.102092
0.0987126
0.0955302
0.0925403
0.0897379
0.0871171
0.0846712
0.0823927
0.0802737
0.078306
0.0764812
0.0747906
0.0732261
0.0717792
0.0704422
0.0692074
0.0680675
0.0670156
0.0660454
0.0651506
0.0643257
0.0635654
0.0628647
0.062219
0.0616243
0.0610764
0.0605718
0.0601072
0.0596795
0.0592859
0.0589236
0.0585903
0.0582838
0.058002
0.057743
0.0575051
0.0572868
0.0570864
0.0569029
0.0567348
0.0565812
0.0564411
0.0563136
0.0561979
0.0560934
0.0559995
0.0559158
0.0558419
0.0557776
0.055723
0.055678
0.055643
0.0556185
0.055605
0.961699
0.892201
0.829108
0.771754
0.719546
0.671959
0.628523
0.588821
0.552481
0.519171
0.488593
0.460484
0.434606
0.410748
0.388718
0.368348
0.349483
0.331987
0.315734
0.300614
0.286526
0.273379
0.261089
0.249583
0.238791
0.228653
0.219112
0.210116
0.201619
0.193577
0.185954
0.178713
0.171823
0.165257
0.158989
0.152999
0.147269
0.141783
0.13653
0.1315
0.126686
0.122084
0.11769
0.113503
0.10952
0.10574
0.102161
0.0987821
0.095599
0.0926081
0.0898042
0.0871816
0.0847336
0.0824528
0.0803313
0.078361
0.0765334
0.0748401
0.0732729
0.0718233
0.0704837
0.0692463
0.0681039
0.0670497
0.0660772
0.0651803
0.0643533
0.063591
0.0628885
0.0622411
0.0616447
0.0610953
0.0605893
0.0601234
0.0596945
0.0592996
0.0589363
0.058602
0.0582946
0.0580119
0.0577521
0.0575135
0.0572945
0.0570936
0.0569094
0.0567409
0.0565869
0.0564463
0.0563185
0.0562025
0.0560977
0.0560036
0.0559196
0.0558456
0.0557812
0.0557264
0.0556813
0.0556463
0.0556217
0.0556082
0.961698
0.892201
0.829108
0.771754
0.719547
0.67196
0.628525
0.588824
0.552485
0.519175
0.488599
0.46049
0.434613
0.410755
0.388727
0.368357
0.349493
0.331997
0.315746
0.300627
0.28654
0.273393
0.261105
0.249599
0.238809
0.228673
0.219133
0.210139
0.201643
0.193605
0.185984
0.178745
0.171859
0.165296
0.159032
0.153045
0.147319
0.141837
0.136587
0.13156
0.12675
0.122151
0.11776
0.113574
0.109593
0.105814
0.102236
0.0988564
0.0956727
0.0926805
0.0898751
0.0872506
0.0848003
0.082517
0.0803929
0.0784198
0.0765893
0.0748932
0.073323
0.0718706
0.0705282
0.069288
0.068143
0.0670863
0.0661113
0.0652121
0.0643829
0.0636186
0.0629141
0.0622649
0.0616667
0.0611157
0.0606082
0.0601408
0.0597105
0.0593145
0.05895
0.0586146
0.0583062
0.0580226
0.057762
0.0575226
0.0573028
0.0571012
0.0569165
0.0567474
0.0565929
0.056452
0.0563237
0.0562074
0.0561023
0.0560079
0.0559238
0.0558495
0.055785
0.0557301
0.055685
0.0556499
0.0556252
0.0556116
0.961698
0.892201
0.829108
0.771754
0.719548
0.671961
0.628527
0.588827
0.552488
0.519179
0.488604
0.460496
0.43462
0.410763
0.388735
0.368366
0.349503
0.332008
0.315758
0.30064
0.286553
0.273408
0.261121
0.249617
0.238828
0.228693
0.219155
0.210163
0.20167
0.193634
0.186016
0.17878
0.171897
0.165337
0.159077
0.153095
0.147372
0.141893
0.136648
0.131625
0.126818
0.122222
0.117833
0.11365
0.10967
0.105892
0.102314
0.0989349
0.0957505
0.0927571
0.08995
0.0873234
0.0848708
0.0825849
0.0804579
0.0784819
0.0766484
0.0749492
0.073376
0.0719206
0.0705752
0.0693322
0.0681844
0.067125
0.0661475
0.0652458
0.0644144
0.0636478
0.0629412
0.0622901
0.0616901
0.0611373
0.0606282
0.0601593
0.0597276
0.0593302
0.0589645
0.058628
0.0583185
0.0580339
0.0577724
0.0575322
0.0573117
0.0571094
0.0569241
0.0567544
0.0565994
0.056458
0.0563293
0.0562127
0.0561073
0.0560126
0.0559282
0.0558538
0.0557891
0.0557341
0.0556888
0.0556536
0.0556289
0.0556153
0.961698
0.892201
0.829108
0.771754
0.719548
0.671962
0.628528
0.588829
0.552491
0.519183
0.488608
0.460501
0.434626
0.41077
0.388743
0.368375
0.349513
0.332019
0.31577
0.300653
0.286568
0.273423
0.261138
0.249635
0.238848
0.228715
0.219179
0.210189
0.201698
0.193665
0.186049
0.178817
0.171937
0.165381
0.159125
0.153146
0.147427
0.141953
0.136711
0.131692
0.126889
0.122296
0.11791
0.113729
0.109751
0.105974
0.102397
0.099017
0.0958318
0.0928371
0.0900283
0.0873996
0.0849445
0.0826559
0.080526
0.0785469
0.0767103
0.0750079
0.0734315
0.071973
0.0706245
0.0693785
0.0682278
0.0671656
0.0661854
0.0652812
0.0644474
0.0636785
0.0629697
0.0623165
0.0617146
0.06116
0.0606492
0.0601787
0.0597456
0.0593468
0.0589798
0.0586421
0.0583315
0.0580459
0.0577834
0.0575423
0.057321
0.057118
0.056932
0.0567618
0.0566062
0.0564643
0.0563353
0.0562182
0.0561125
0.0560175
0.0559329
0.0558583
0.0557934
0.0557382
0.0556929
0.0556576
0.0556328
0.0556192
0.961698
0.892201
0.829108
0.771754
0.719548
0.671963
0.62853
0.588831
0.552494
0.519186
0.488612
0.460506
0.434632
0.410777
0.388751
0.368384
0.349523
0.33203
0.315782
0.300666
0.286582
0.273439
0.261155
0.249654
0.238869
0.228737
0.219203
0.210216
0.201728
0.193697
0.186084
0.178856
0.171979
0.165427
0.159174
0.1532
0.147485
0.142015
0.136778
0.131763
0.126963
0.122373
0.11799
0.113811
0.109835
0.106059
0.102482
0.0991021
0.0959161
0.0929201
0.0901095
0.0874785
0.0850209
0.0827295
0.0805966
0.0786143
0.0767745
0.0750688
0.0734891
0.0720274
0.0706757
0.0694267
0.068273
0.0672079
0.0662249
0.0653181
0.0644817
0.0637104
0.0629994
0.0623441
0.0617402
0.0611837
0.0606711
0.060199
0.0597643
0.0593641
0.0589957
0.0586568
0.058345
0.0580584
0.0577949
0.0575529
0.0573308
0.057127
0.0569403
0.0567695
0.0566134
0.056471
0.0563414
0.056224
0.0561179
0.0560227
0.0559378
0.055863
0.0557979
0.0557426
0.0556971
0.0556618
0.0556369
0.0556232
0.961698
0.8922
0.829108
0.771754
0.719548
0.671963
0.62853
0.588832
0.552496
0.519189
0.488616
0.460511
0.434638
0.410783
0.388759
0.368393
0.349533
0.332041
0.315793
0.300679
0.286597
0.273455
0.261172
0.249673
0.23889
0.22876
0.219229
0.210243
0.201758
0.19373
0.186121
0.178895
0.172023
0.165474
0.159226
0.153256
0.147545
0.14208
0.136846
0.131835
0.127039
0.122453
0.118072
0.113896
0.109921
0.106146
0.10257
0.0991896
0.0960028
0.0930054
0.090193
0.0875598
0.0850995
0.0828052
0.0806693
0.0786838
0.0768406
0.0751316
0.0735485
0.0720835
0.0707285
0.0694763
0.0683195
0.0672515
0.0662657
0.0653561
0.0645171
0.0637434
0.0630301
0.0623726
0.0617666
0.0612082
0.0606938
0.06022
0.0597836
0.0593819
0.0590122
0.058672
0.058359
0.0580713
0.0578068
0.0575639
0.0573409
0.0571364
0.056949
0.0567775
0.0566208
0.0564779
0.0563479
0.05623
0.0561236
0.056028
0.0559429
0.0558678
0.0558025
0.0557471
0.0557015
0.055666
0.0556411
0.0556274
0.961698
0.8922
0.829107
0.771754
0.719548
0.671963
0.628531
0.588833
0.552497
0.519192
0.488619
0.460515
0.434643
0.41079
0.388766
0.368401
0.349542
0.332051
0.315805
0.300692
0.286611
0.273471
0.26119
0.249693
0.238911
0.228784
0.219254
0.210272
0.201789
0.193764
0.186158
0.178936
0.172067
0.165523
0.159279
0.153313
0.147607
0.142145
0.136916
0.131909
0.127117
0.122534
0.118157
0.113982
0.110009
0.106235
0.102659
0.099279
0.0960914
0.0930927
0.0902784
0.0876429
0.08518
0.0828827
0.0807436
0.0787549
0.0769083
0.0751959
0.0736094
0.0721409
0.0707827
0.0695272
0.0683673
0.0672962
0.0663075
0.0653952
0.0645535
0.0637773
0.0630616
0.0624018
0.0617937
0.0612333
0.0607171
0.0602415
0.0598035
0.0594003
0.0590291
0.0586876
0.0583734
0.0580845
0.057819
0.0575752
0.0573513
0.057146
0.0569578
0.0567857
0.0566284
0.0564849
0.0563545
0.0562362
0.0561294
0.0560335
0.0559481
0.0558728
0.0558073
0.0557517
0.0557059
0.0556704
0.0556454
0.0556316
0.961698
0.8922
0.829107
0.771753
0.719548
0.671963
0.628531
0.588834
0.552499
0.519194
0.488622
0.460519
0.434648
0.410795
0.388773
0.368409
0.349551
0.332062
0.315817
0.300705
0.286626
0.273487
0.261208
0.249712
0.238933
0.228808
0.219281
0.210301
0.201821
0.193799
0.186196
0.178978
0.172113
0.165573
0.159332
0.153371
0.147669
0.142212
0.136987
0.131985
0.127196
0.122617
0.118242
0.11407
0.110099
0.106326
0.102751
0.09937
0.0961815
0.0931814
0.0903652
0.0877274
0.0852618
0.0829616
0.0808193
0.0788272
0.0769772
0.0752613
0.0736714
0.0721995
0.0708378
0.0695791
0.068416
0.0673418
0.0663501
0.065435
0.0645907
0.0638119
0.0630938
0.0624317
0.0618214
0.061259
0.0607408
0.0602635
0.0598239
0.0594191
0.0590465
0.0587036
0.0583882
0.0580981
0.0578316
0.0575867
0.0573619
0.0571558
0.0569669
0.0567941
0.0566362
0.0564922
0.0563612
0.0562425
0.0561353
0.0560391
0.0559534
0.0558778
0.0558122
0.0557563
0.0557105
0.0556748
0.0556498
0.055636
0.961698
0.8922
0.829107
0.771753
0.719548
0.671963
0.628532
0.588835
0.5525
0.519196
0.488625
0.460523
0.434652
0.410801
0.388779
0.368416
0.34956
0.332072
0.315828
0.300718
0.28664
0.273503
0.261225
0.249732
0.238954
0.228832
0.219307
0.21033
0.201853
0.193834
0.186235
0.17902
0.172159
0.165623
0.159387
0.15343
0.147733
0.14228
0.13706
0.132061
0.127276
0.1227
0.118329
0.114159
0.110189
0.106418
0.102843
0.0994619
0.0962726
0.0932711
0.090453
0.0878129
0.0853446
0.0830414
0.0808959
0.0789005
0.0770471
0.0753277
0.0737342
0.0722588
0.0708938
0.0696317
0.0684653
0.0673881
0.0663934
0.0654754
0.0646284
0.063847
0.0631264
0.062462
0.0618496
0.0612851
0.060765
0.0602859
0.0598445
0.0594382
0.0590641
0.0587198
0.0584031
0.0581119
0.0578443
0.0575984
0.0573728
0.0571658
0.0569761
0.0568026
0.0566441
0.0564995
0.0563681
0.0562489
0.0561413
0.0560448
0.0559588
0.0558829
0.0558171
0.0557611
0.0557151
0.0556793
0.0556542
0.0556403
0.961698
0.892199
0.829106
0.771753
0.719547
0.671963
0.628532
0.588835
0.552501
0.519198
0.488627
0.460526
0.434656
0.410806
0.388785
0.368424
0.349568
0.332081
0.315839
0.30073
0.286654
0.273519
0.261243
0.249751
0.238976
0.228856
0.219334
0.210359
0.201885
0.19387
0.186274
0.179063
0.172205
0.165673
0.159442
0.153489
0.147797
0.142349
0.137132
0.132138
0.127357
0.122784
0.118416
0.114248
0.11028
0.10651
0.102935
0.0995545
0.0963643
0.0933614
0.0905414
0.087899
0.085428
0.0831219
0.0809732
0.0789744
0.0771175
0.0753946
0.0737976
0.0723187
0.0709503
0.0696848
0.0685152
0.0674348
0.0664371
0.0655162
0.0646665
0.0638825
0.0631594
0.0624927
0.0618781
0.0613115
0.0607895
0.0603085
0.0598654
0.0594575
0.0590819
0.0587363
0.0584183
0.0581259
0.0578572
0.0576103
0.0573837
0.0571759
0.0569855
0.0568112
0.0566521
0.056507
0.056375
0.0562554
0.0561474
0.0560505
0.0559642
0.0558881
0.055822
0.0557658
0.0557197
0.0556838
0.0556586
0.0556447
0.961698
0.892199
0.829106
0.771752
0.719547
0.671963
0.628532
0.588836
0.552502
0.519199
0.48863
0.460529
0.43466
0.410811
0.388791
0.368431
0.349576
0.332091
0.31585
0.300743
0.286668
0.273535
0.261261
0.249771
0.238998
0.22888
0.21936
0.210388
0.201917
0.193905
0.186313
0.179106
0.172252
0.165724
0.159497
0.153549
0.147861
0.142417
0.137205
0.132215
0.127438
0.122869
0.118503
0.114338
0.110372
0.106603
0.103028
0.0996472
0.0964563
0.093452
0.0906301
0.0879854
0.0855117
0.0832026
0.0810507
0.0790485
0.0771882
0.0754618
0.0738613
0.0723789
0.071007
0.0697382
0.0685654
0.0674818
0.0664811
0.0655573
0.0647048
0.0639182
0.0631927
0.0625236
0.0619067
0.0613381
0.0608141
0.0603313
0.0598865
0.0594769
0.0590999
0.0587528
0.0584336
0.05814
0.0578701
0.0576223
0.0573947
0.0571861
0.0569949
0.0568199
0.0566601
0.0565145
0.056382
0.0562619
0.0561535
0.0560563
0.0559696
0.0558933
0.0558269
0.0557706
0.0557242
0.0556882
0.0556629
0.055649
0.961697
0.892199
0.829105
0.771752
0.719547
0.671963
0.628532
0.588836
0.552503
0.5192
0.488632
0.460532
0.434664
0.410815
0.388797
0.368437
0.349584
0.3321
0.315861
0.300755
0.286682
0.27355
0.261278
0.24979
0.239019
0.228903
0.219387
0.210417
0.20195
0.19394
0.186352
0.179148
0.172299
0.165775
0.159552
0.153608
0.147925
0.142485
0.137278
0.132292
0.127518
0.122953
0.11859
0.114428
0.110463
0.106695
0.103121
0.0997398
0.0965481
0.0935425
0.0907187
0.0880717
0.0855954
0.0832833
0.0811283
0.0791227
0.077259
0.075529
0.073925
0.0724392
0.0710639
0.0697917
0.0686156
0.0675289
0.0665252
0.0655985
0.0647432
0.063954
0.063226
0.0625546
0.0619355
0.0613648
0.0608388
0.0603541
0.0599076
0.0594964
0.0591179
0.0587695
0.0584489
0.0581541
0.0578832
0.0576343
0.0574058
0.0571963
0.0570043
0.0568287
0.0566682
0.056522
0.056389
0.0562684
0.0561596
0.056062
0.0559751
0.0558984
0.0558319
0.0557753
0.0557288
0.0556927
0.0556673
0.0556533
0.961697
0.892199
0.829105
0.771752
0.719546
0.671963
0.628532
0.588837
0.552504
0.519202
0.488633
0.460534
0.434667
0.410819
0.388802
0.368444
0.349592
0.332109
0.315871
0.300766
0.286695
0.273565
0.261295
0.249809
0.23904
0.228927
0.219413
0.210446
0.201982
0.193976
0.18639
0.179191
0.172345
0.165825
0.159607
0.153667
0.147988
0.142553
0.13735
0.132368
0.127599
0.123036
0.118676
0.114516
0.110554
0.106787
0.103213
0.0998319
0.0966394
0.0936325
0.090807
0.0881576
0.0856787
0.0833637
0.0812055
0.0791967
0.0773295
0.0755961
0.0739886
0.0724993
0.0711206
0.0698451
0.0686658
0.0675759
0.0665692
0.0656397
0.0647816
0.0639898
0.0632593
0.0625855
0.0619642
0.0613914
0.0608635
0.060377
0.0599288
0.059516
0.0591359
0.0587861
0.0584642
0.0581682
0.0578962
0.0576463
0.0574169
0.0572065
0.0570137
0.0568374
0.0566763
0.0565294
0.0563959
0.0562749
0.0561657
0.0560677
0.0559805
0.0559036
0.0558368
0.05578
0.0557333
0.0556971
0.0556716
0.0556576
0.961697
0.892198
0.829105
0.771751
0.719546
0.671962
0.628532
0.588837
0.552504
0.519203
0.488635
0.460536
0.43467
0.410823
0.388807
0.36845
0.349599
0.332117
0.315881
0.300778
0.286708
0.27358
0.261311
0.249828
0.239061
0.22895
0.219439
0.210475
0.202013
0.194011
0.186429
0.179233
0.172391
0.165875
0.159661
0.153726
0.148051
0.142621
0.137422
0.132444
0.127678
0.123119
0.118762
0.114604
0.110644
0.106878
0.103305
0.0999233
0.09673
0.0937218
0.0908945
0.0882429
0.0857614
0.0834436
0.0812823
0.0792702
0.0773996
0.0756628
0.0740518
0.0725591
0.071177
0.0698982
0.0687156
0.0676227
0.066613
0.0656806
0.0648198
0.0640254
0.0632925
0.0626163
0.0619928
0.061418
0.060888
0.0603997
0.0599498
0.0595354
0.0591538
0.0588026
0.0584795
0.0581823
0.0579091
0.0576582
0.0574279
0.0572166
0.0570231
0.056846
0.0566843
0.0565369
0.0564028
0.0562814
0.0561718
0.0560734
0.0559858
0.0559086
0.0558416
0.0557846
0.0557378
0.0557014
0.0556759
0.0556618
0.961697
0.892198
0.829104
0.771751
0.719546
0.671962
0.628532
0.588837
0.552505
0.519204
0.488637
0.460539
0.434673
0.410827
0.388811
0.368455
0.349606
0.332125
0.31589
0.300789
0.286721
0.273594
0.261328
0.249846
0.239082
0.228973
0.219464
0.210503
0.202044
0.194045
0.186466
0.179274
0.172436
0.165925
0.159714
0.153784
0.148113
0.142687
0.137492
0.132518
0.127756
0.123201
0.118847
0.114691
0.110732
0.106968
0.103395
0.100014
0.0968196
0.0938101
0.090981
0.0883273
0.0858433
0.0835226
0.0813582
0.0793429
0.077469
0.0757288
0.0741145
0.0726183
0.0712329
0.0699508
0.0687651
0.0676691
0.0666565
0.0657212
0.0648578
0.0640608
0.0633254
0.0626469
0.0620212
0.0614443
0.0609124
0.0604223
0.0599707
0.0595547
0.0591716
0.0588191
0.0584946
0.0581963
0.057922
0.0576701
0.0574388
0.0572267
0.0570324
0.0568546
0.0566922
0.0565442
0.0564097
0.0562877
0.0561777
0.056079
0.0559911
0.0559136
0.0558463
0.0557892
0.0557422
0.0557057
0.0556801
0.0556659
0.961697
0.892198
0.829104
0.77175
0.719545
0.671962
0.628532
0.588837
0.552505
0.519205
0.488638
0.460541
0.434676
0.410831
0.388816
0.368461
0.349613
0.332133
0.3159
0.3008
0.286733
0.273608
0.261343
0.249864
0.239102
0.228995
0.219489
0.210531
0.202075
0.194079
0.186503
0.179315
0.172481
0.165973
0.159767
0.15384
0.148174
0.142753
0.137562
0.132592
0.127833
0.123281
0.11893
0.114777
0.11082
0.107056
0.103484
0.100102
0.0969078
0.0938971
0.0910663
0.0884105
0.085924
0.0836005
0.0814332
0.0794147
0.0775375
0.075794
0.0741763
0.0726768
0.0712881
0.0700028
0.068814
0.067715
0.0666994
0.0657614
0.0648952
0.0640957
0.0633579
0.0626772
0.0620493
0.0614703
0.0609366
0.0604446
0.0599913
0.0595738
0.0591893
0.0588353
0.0585096
0.0582101
0.0579347
0.0576818
0.0574496
0.0572366
0.0570416
0.0568631
0.0567001
0.0565515
0.0564164
0.056294
0.0561836
0.0560845
0.0559963
0.0559185
0.055851
0.0557936
0.0557465
0.0557099
0.0556841
0.0556699
0.961697
0.892198
0.829104
0.77175
0.719545
0.671962
0.628532
0.588837
0.552506
0.519205
0.488639
0.460543
0.434678
0.410834
0.38882
0.368466
0.349619
0.332141
0.315908
0.30081
0.286745
0.273622
0.261359
0.249881
0.239121
0.229017
0.219513
0.210558
0.202105
0.194112
0.18654
0.179355
0.172524
0.166021
0.159819
0.153896
0.148234
0.142817
0.13763
0.132664
0.127909
0.12336
0.119012
0.114861
0.110905
0.107143
0.103572
0.10019
0.0969944
0.0939826
0.0911501
0.0884922
0.0860033
0.0836771
0.0815069
0.0794853
0.077605
0.0758582
0.0742372
0.0727345
0.0713425
0.0700541
0.0688622
0.0677602
0.0667418
0.065801
0.0649322
0.0641302
0.06339
0.062707
0.062077
0.061496
0.0609604
0.0604667
0.0600117
0.0595926
0.0592066
0.0588513
0.0585244
0.0582237
0.0579473
0.0576933
0.0574602
0.0572464
0.0570506
0.0568714
0.0567078
0.0565586
0.0564231
0.0563002
0.0561893
0.0560899
0.0560013
0.0559233
0.0558555
0.055798
0.0557507
0.0557139
0.0556881
0.0556738
0.961697
0.892197
0.829103
0.77175
0.719544
0.671961
0.628531
0.588837
0.552506
0.519206
0.488641
0.460544
0.434681
0.410837
0.388824
0.368471
0.349625
0.332148
0.315917
0.30082
0.286756
0.273635
0.261374
0.249898
0.23914
0.229038
0.219537
0.210584
0.202134
0.194144
0.186575
0.179393
0.172567
0.166067
0.159869
0.15395
0.148293
0.142879
0.137697
0.132734
0.127983
0.123437
0.119091
0.114943
0.110989
0.107228
0.103657
0.100275
0.0970792
0.0940663
0.0912322
0.0885723
0.0860811
0.0837523
0.0815792
0.0795546
0.0776711
0.0759211
0.074297
0.072791
0.0713959
0.0701044
0.0689095
0.0678046
0.0667833
0.0658399
0.0649685
0.064164
0.0634215
0.0627363
0.0621042
0.0615213
0.0609838
0.0604883
0.0600317
0.0596111
0.0592237
0.0588671
0.0585389
0.0582371
0.0579596
0.0577047
0.0574707
0.0572561
0.0570595
0.0568796
0.0567154
0.0565656
0.0564295
0.0563062
0.056195
0.0560952
0.0560063
0.055928
0.05586
0.0558022
0.0557548
0.0557179
0.055692
0.0556776
0.961697
0.892197
0.829103
0.771749
0.719544
0.671961
0.628531
0.588837
0.552506
0.519207
0.488642
0.460546
0.434683
0.41084
0.388828
0.368476
0.349631
0.332155
0.315925
0.300829
0.286767
0.273648
0.261388
0.249915
0.239159
0.229059
0.21956
0.21061
0.202162
0.194175
0.18661
0.179431
0.172608
0.166112
0.159918
0.154003
0.14835
0.14294
0.137761
0.132802
0.128055
0.123512
0.119169
0.115023
0.111071
0.10731
0.10374
0.100358
0.097162
0.094148
0.0913124
0.0886506
0.0861571
0.0838257
0.0816499
0.0796224
0.0777358
0.0759827
0.0743555
0.0728464
0.0714482
0.0701537
0.0689558
0.067848
0.0668241
0.065878
0.0650041
0.0641972
0.0634524
0.062765
0.0621309
0.061546
0.0610067
0.0605095
0.0600514
0.0596292
0.0592404
0.0588825
0.0585531
0.0582502
0.0579716
0.0577158
0.0574809
0.0572655
0.0570682
0.0568876
0.0567228
0.0565725
0.0564359
0.0563121
0.0562005
0.0561003
0.0560111
0.0559325
0.0558643
0.0558063
0.0557587
0.0557217
0.0556957
0.0556813
0.961697
0.892197
0.829103
0.771749
0.719544
0.671961
0.628531
0.588837
0.552507
0.519207
0.488643
0.460548
0.434685
0.410843
0.388832
0.368481
0.349636
0.332162
0.315933
0.300839
0.286778
0.27366
0.261402
0.24993
0.239176
0.229079
0.219582
0.210634
0.20219
0.194205
0.186643
0.179468
0.172648
0.166156
0.159965
0.154055
0.148405
0.142999
0.137824
0.132869
0.128125
0.123585
0.119245
0.115101
0.11115
0.107391
0.103821
0.100439
0.0972426
0.0942275
0.0913905
0.0887268
0.0862311
0.0838973
0.0817188
0.0796884
0.077799
0.0760428
0.0744125
0.0729004
0.0714992
0.0702018
0.069001
0.0678905
0.0668639
0.0659152
0.0650388
0.0642296
0.0634826
0.0627931
0.062157
0.0615702
0.0610291
0.0605303
0.0600705
0.0596469
0.0592568
0.0588976
0.058567
0.0582629
0.0579834
0.0577266
0.0574909
0.0572747
0.0570766
0.0568954
0.0567299
0.0565791
0.056442
0.0563178
0.0562058
0.0561053
0.0560158
0.0559369
0.0558685
0.0558103
0.0557625
0.0557254
0.0556993
0.0556849
0.961697
0.892197
0.829102
0.771749
0.719543
0.67196
0.628531
0.588837
0.552507
0.519208
0.488644
0.460549
0.434687
0.410846
0.388835
0.368485
0.349642
0.332168
0.315941
0.300848
0.286788
0.273672
0.261416
0.249946
0.239194
0.229098
0.219604
0.210658
0.202216
0.194235
0.186676
0.179504
0.172687
0.166198
0.160011
0.154105
0.148458
0.143056
0.137885
0.132933
0.128193
0.123656
0.119318
0.115176
0.111227
0.107469
0.1039
0.100518
0.0973207
0.0943047
0.0914663
0.0888008
0.086303
0.0839668
0.0817857
0.0797526
0.0778603
0.0761013
0.074468
0.072953
0.0715489
0.0702485
0.069045
0.0679318
0.0669026
0.0659514
0.0650727
0.0642611
0.0635119
0.0628204
0.0621824
0.0615938
0.0610509
0.0605505
0.0600892
0.0596642
0.0592727
0.0589122
0.0585805
0.0582754
0.0579949
0.0577371
0.0575006
0.0572836
0.0570848
0.056903
0.0567369
0.0565856
0.056448
0.0563234
0.0562109
0.0561101
0.0560203
0.0559412
0.0558725
0.0558141
0.0557662
0.0557289
0.0557028
0.0556883
0.961697
0.892197
0.829102
0.771748
0.719543
0.67196
0.628531
0.588837
0.552507
0.519209
0.488645
0.460551
0.434689
0.410849
0.388839
0.368489
0.349647
0.332174
0.315948
0.300856
0.286798
0.273683
0.261429
0.24996
0.23921
0.229117
0.219624
0.210681
0.202242
0.194263
0.186707
0.179538
0.172725
0.166239
0.160056
0.154153
0.14851
0.143112
0.137944
0.132996
0.128258
0.123724
0.119389
0.115249
0.111301
0.107544
0.103976
0.100594
0.0973963
0.0943794
0.0915396
0.0888725
0.0863726
0.0840342
0.0818505
0.0798148
0.0779198
0.0761579
0.0745218
0.0730039
0.071597
0.0702939
0.0690877
0.0679719
0.0669401
0.0659865
0.0651055
0.0642918
0.0635404
0.0628469
0.062207
0.0616166
0.0610721
0.0605701
0.0601073
0.0596809
0.0592881
0.0589265
0.0585936
0.0582874
0.058006
0.0577474
0.05751
0.0572922
0.0570928
0.0569103
0.0567437
0.0565918
0.0564538
0.0563287
0.0562159
0.0561147
0.0560246
0.0559452
0.0558763
0.0558178
0.0557697
0.0557323
0.0557061
0.0556916
0.961697
0.892196
0.829102
0.771748
0.719543
0.67196
0.62853
0.588837
0.552507
0.519209
0.488646
0.460552
0.434691
0.410851
0.388842
0.368493
0.349652
0.33218
0.315955
0.300864
0.286807
0.273694
0.261441
0.249974
0.239226
0.229135
0.219644
0.210704
0.202266
0.19429
0.186737
0.179571
0.172761
0.166278
0.160099
0.154199
0.14856
0.143165
0.138001
0.133055
0.128321
0.12379
0.119457
0.115319
0.111373
0.107617
0.104049
0.100667
0.0974691
0.0944514
0.0916103
0.0889416
0.0864398
0.0840991
0.0819131
0.0798749
0.0779772
0.0762126
0.0745738
0.0730532
0.0716436
0.0703378
0.069129
0.0680106
0.0669764
0.0660205
0.0651372
0.0643214
0.063568
0.0628726
0.0622308
0.0616387
0.0610926
0.060589
0.0601248
0.0596971
0.059303
0.0589402
0.0586063
0.0582991
0.0580167
0.0577572
0.057519
0.0573006
0.0571005
0.0569174
0.0567502
0.0565978
0.0564593
0.0563339
0.0562207
0.0561192
0.0560288
0.0559491
0.05588
0.0558213
0.0557731
0.0557356
0.0557092
0.0556947
0.961696
0.892196
0.829102
0.771748
0.719542
0.671959
0.62853
0.588837
0.552508
0.51921
0.488646
0.460553
0.434693
0.410854
0.388845
0.368497
0.349656
0.332186