/*--------------------------------*- C++ -*----------------------------------*\
  =========                 |
  \\      /  F ield         | OpenFOAM: The Open Source CFD Toolbox
   \\    /   O peration     | Website:  https://openfoam.org
    \\  /    A nd           | Version:  11
     \\/     M anipulation  |
\*---------------------------------------------------------------------------*/
FoamFile
{
    format      ascii;
    class       surfaceScalarField;
    location    "1590";
    object      phi;
}
// * * * * * * * * * * * * * * * * * * * * * * * * * * * * * * * * * * * * * //

dimensions      [0 3 -1 0 0 0 0];

internalField   nonuniform List<scalar> 
19800
(
2e-05
-2.56819e-15
2e-05
-7.49122e-15
2e-05
-1.23547e-14
2e-05
-1.72611e-14
2e-05
-2.22968e-14
2e-05
-2.75242e-14
2e-05
-3.29924e-14
2e-05
-3.87427e-14
2e-05
-4.48114e-14
2e-05
-5.12324e-14
2e-05
-5.80379e-14
2e-05
-6.52591e-14
2e-05
-7.29272e-14
2e-05
-8.10733e-14
2e-05
-8.9729e-14
2e-05
-9.8926e-14
2e-05
-1.08697e-13
2e-05
-1.19076e-13
2e-05
-1.30096e-13
2e-05
-1.41794e-13
2e-05
-1.54204e-13
2e-05
-1.67364e-13
2e-05
-1.81314e-13
2e-05
-1.9609e-13
2e-05
-2.11736e-13
2e-05
-2.28291e-13
2e-05
-2.45799e-13
2e-05
-2.64304e-13
2e-05
-2.83851e-13
2e-05
-3.04486e-13
2e-05
-3.26257e-13
2e-05
-3.49212e-13
2e-05
-3.734e-13
2e-05
-3.98873e-13
2e-05
-4.25683e-13
2e-05
-4.53881e-13
2e-05
-4.83521e-13
2e-05
-5.14659e-13
2e-05
-5.47348e-13
2e-05
-5.81645e-13
2e-05
-6.17607e-13
2e-05
-6.55291e-13
2e-05
-6.94753e-13
2e-05
-7.36052e-13
2e-05
-7.79245e-13
2e-05
-8.24389e-13
2e-05
-8.71543e-13
2e-05
-9.20763e-13
2e-05
-9.72105e-13
2e-05
-1.02563e-12
2e-05
-1.08138e-12
2e-05
-1.13942e-12
2e-05
-1.1998e-12
2e-05
-1.26256e-12
2e-05
-1.32776e-12
2e-05
-1.39543e-12
2e-05
-1.46563e-12
2e-05
-1.53839e-12
2e-05
-1.61374e-12
2e-05
-1.69172e-12
2e-05
-1.77234e-12
2e-05
-1.85564e-12
2e-05
-1.94162e-12
2e-05
-2.03028e-12
2e-05
-2.12164e-12
2e-05
-2.21568e-12
2e-05
-2.31239e-12
2e-05
-2.41173e-12
2e-05
-2.51367e-12
2e-05
-2.61816e-12
2e-05
-2.72512e-12
2e-05
-2.83449e-12
2e-05
-2.94617e-12
2e-05
-3.06004e-12
2e-05
-3.17598e-12
2e-05
-3.29381e-12
2e-05
-3.41337e-12
2e-05
-3.53446e-12
2e-05
-3.65682e-12
2e-05
-3.7802e-12
2e-05
-3.90429e-12
2e-05
-4.02875e-12
2e-05
-4.15317e-12
2e-05
-4.27713e-12
2e-05
-4.40013e-12
2e-05
-4.5216e-12
2e-05
-4.6409e-12
2e-05
-4.75735e-12
2e-05
-4.87012e-12
2e-05
-4.97834e-12
2e-05
-5.081e-12
2e-05
-5.177e-12
2e-05
-5.26514e-12
2e-05
-5.34411e-12
2e-05
-5.41262e-12
2e-05
-5.46917e-12
2e-05
-5.51194e-12
2e-05
-5.53971e-12
2e-05
-5.55432e-12
-5.56253e-12
2e-05
-2.25502e-15
2e-05
-6.84556e-15
2e-05
-1.14919e-14
2e-05
-1.62105e-14
2e-05
-2.10635e-14
2e-05
-2.61048e-14
2e-05
-3.1379e-14
2e-05
-3.69248e-14
2e-05
-4.27769e-14
2e-05
-4.89677e-14
2e-05
-5.55281e-14
2e-05
-6.24884e-14
2e-05
-6.98786e-14
2e-05
-7.77287e-14
2e-05
-8.60691e-14
2e-05
-9.49307e-14
2e-05
-1.04345e-13
2e-05
-1.14344e-13
2e-05
-1.24961e-13
2e-05
-1.3623e-13
2e-05
-1.48185e-13
2e-05
-1.60864e-13
2e-05
-1.74301e-13
2e-05
-1.88537e-13
2e-05
-2.03609e-13
2e-05
-2.19557e-13
2e-05
-2.36424e-13
2e-05
-2.54251e-13
2e-05
-2.73082e-13
2e-05
-2.92962e-13
2e-05
-3.13937e-13
2e-05
-3.36052e-13
2e-05
-3.59357e-13
2e-05
-3.839e-13
2e-05
-4.09731e-13
2e-05
-4.36902e-13
2e-05
-4.65463e-13
2e-05
-4.95467e-13
2e-05
-5.26968e-13
2e-05
-5.6002e-13
2e-05
-5.94677e-13
2e-05
-6.30995e-13
2e-05
-6.69029e-13
2e-05
-7.08835e-13
2e-05
-7.50469e-13
2e-05
-7.93986e-13
2e-05
-8.39443e-13
2e-05
-8.86895e-13
2e-05
-9.36397e-13
2e-05
-9.88003e-13
2e-05
-1.04177e-12
2e-05
-1.09774e-12
2e-05
-1.15597e-12
2e-05
-1.21651e-12
2e-05
-1.27941e-12
2e-05
-1.3447e-12
2e-05
-1.41244e-12
2e-05
-1.48266e-12
2e-05
-1.55539e-12
2e-05
-1.63067e-12
2e-05
-1.70852e-12
2e-05
-1.78897e-12
2e-05
-1.87203e-12
2e-05
-1.9577e-12
2e-05
-2.04601e-12
2e-05
-2.13693e-12
2e-05
-2.23047e-12
2e-05
-2.32659e-12
2e-05
-2.42526e-12
2e-05
-2.52645e-12
2e-05
-2.6301e-12
2e-05
-2.73614e-12
2e-05
-2.84449e-12
2e-05
-2.95505e-12
2e-05
-3.06771e-12
2e-05
-3.18232e-12
2e-05
-3.29874e-12
2e-05
-3.41677e-12
2e-05
-3.53622e-12
2e-05
-3.65685e-12
2e-05
-3.77838e-12
2e-05
-3.90052e-12
2e-05
-4.02292e-12
2e-05
-4.14518e-12
2e-05
-4.26688e-12
2e-05
-4.3875e-12
2e-05
-4.5065e-12
2e-05
-4.62324e-12
2e-05
-4.73701e-12
2e-05
-4.84703e-12
2e-05
-4.9524e-12
2e-05
-5.05214e-12
2e-05
-5.14517e-12
2e-05
-5.2303e-12
2e-05
-5.30626e-12
2e-05
-5.37157e-12
2e-05
-5.42481e-12
2e-05
-5.46527e-12
2e-05
-5.49405e-12
-5.51484e-12
2e-05
-2.0201e-15
2e-05
-6.27285e-15
2e-05
-1.06699e-14
2e-05
-1.51818e-14
2e-05
-1.98427e-14
2e-05
-2.46936e-14
2e-05
-2.97723e-14
2e-05
-3.51136e-14
2e-05
-4.075e-14
2e-05
-4.67118e-14
2e-05
-5.30289e-14
2e-05
-5.97301e-14
2e-05
-6.68443e-14
2e-05
-7.44006e-14
2e-05
-8.2428e-14
2e-05
-9.09564e-14
2e-05
-1.00016e-13
2e-05
-1.09638e-13
2e-05
-1.19855e-13
2e-05
-1.30698e-13
2e-05
-1.42202e-13
2e-05
-1.54401e-13
2e-05
-1.67331e-13
2e-05
-1.81028e-13
2e-05
-1.9553e-13
2e-05
-2.10875e-13
2e-05
-2.27105e-13
2e-05
-2.44258e-13
2e-05
-2.62378e-13
2e-05
-2.81508e-13
2e-05
-3.01691e-13
2e-05
-3.22973e-13
2e-05
-3.45399e-13
2e-05
-3.69018e-13
2e-05
-3.93877e-13
2e-05
-4.20026e-13
2e-05
-4.47514e-13
2e-05
-4.76392e-13
2e-05
-5.06712e-13
2e-05
-5.38525e-13
2e-05
-5.71886e-13
2e-05
-6.06847e-13
2e-05
-6.43461e-13
2e-05
-6.81783e-13
2e-05
-7.21867e-13
2e-05
-7.63767e-13
2e-05
-8.07538e-13
2e-05
-8.53233e-13
2e-05
-9.00905e-13
2e-05
-9.50608e-13
2e-05
-1.00239e-12
2e-05
-1.05631e-12
2e-05
-1.11241e-12
2e-05
-1.17074e-12
2e-05
-1.23135e-12
2e-05
-1.29428e-12
2e-05
-1.35957e-12
2e-05
-1.42726e-12
2e-05
-1.49739e-12
2e-05
-1.56999e-12
2e-05
-1.64508e-12
2e-05
-1.72269e-12
2e-05
-1.80285e-12
2e-05
-1.88556e-12
2e-05
-1.97082e-12
2e-05
-2.05865e-12
2e-05
-2.14903e-12
2e-05
-2.24194e-12
2e-05
-2.33738e-12
2e-05
-2.43529e-12
2e-05
-2.53563e-12
2e-05
-2.63836e-12
2e-05
-2.74339e-12
2e-05
-2.85066e-12
2e-05
-2.96005e-12
2e-05
-3.07145e-12
2e-05
-3.18472e-12
2e-05
-3.29972e-12
2e-05
-3.41625e-12
2e-05
-3.53412e-12
2e-05
-3.65309e-12
2e-05
-3.7729e-12
2e-05
-3.89324e-12
2e-05
-4.01378e-12
2e-05
-4.13412e-12
2e-05
-4.25385e-12
2e-05
-4.37246e-12
2e-05
-4.48939e-12
2e-05
-4.60404e-12
2e-05
-4.71569e-12
2e-05
-4.82355e-12
2e-05
-4.92673e-12
2e-05
-5.02424e-12
2e-05
-5.11498e-12
2e-05
-5.19771e-12
2e-05
-5.27107e-12
2e-05
-5.33369e-12
2e-05
-5.38448e-12
2e-05
-5.42294e-12
-5.4506e-12
2e-05
-1.83222e-15
2e-05
-5.76825e-15
2e-05
-9.90492e-15
2e-05
-1.41943e-14
2e-05
-1.86512e-14
2e-05
-2.33041e-14
2e-05
-2.81831e-14
2e-05
-3.33181e-14
2e-05
-3.87383e-14
2e-05
-4.44719e-14
2e-05
-5.05469e-14
2e-05
-5.69909e-14
2e-05
-6.38314e-14
2e-05
-7.10963e-14
2e-05
-7.88135e-14
2e-05
-8.70118e-14
2e-05
-9.57202e-14
2e-05
-1.04969e-13
2e-05
-1.14788e-13
2e-05
-1.2521e-13
2e-05
-1.36266e-13
2e-05
-1.4799e-13
2e-05
-1.60416e-13
2e-05
-1.7358e-13
2e-05
-1.87517e-13
2e-05
-2.02265e-13
2e-05
-2.17863e-13
2e-05
-2.34349e-13
2e-05
-2.51764e-13
2e-05
-2.70149e-13
2e-05
-2.89548e-13
2e-05
-3.10003e-13
2e-05
-3.31559e-13
2e-05
-3.54261e-13
2e-05
-3.78157e-13
2e-05
-4.03293e-13
2e-05
-4.29717e-13
2e-05
-4.57479e-13
2e-05
-4.86627e-13
2e-05
-5.17214e-13
2e-05
-5.49289e-13
2e-05
-5.82904e-13
2e-05
-6.18111e-13
2e-05
-6.54962e-13
2e-05
-6.93509e-13
2e-05
-7.33806e-13
2e-05
-7.75905e-13
2e-05
-8.19858e-13
2e-05
-8.65716e-13
2e-05
-9.13531e-13
2e-05
-9.63354e-13
2e-05
-1.01523e-12
2e-05
-1.06922e-12
2e-05
-1.12536e-12
2e-05
-1.1837e-12
2e-05
-1.24428e-12
2e-05
-1.30715e-12
2e-05
-1.37233e-12
2e-05
-1.43988e-12
2e-05
-1.50982e-12
2e-05
-1.58218e-12
2e-05
-1.65698e-12
2e-05
-1.73426e-12
2e-05
-1.81402e-12
2e-05
-1.89627e-12
2e-05
-1.98102e-12
2e-05
-2.06827e-12
2e-05
-2.15801e-12
2e-05
-2.25022e-12
2e-05
-2.34488e-12
2e-05
-2.44195e-12
2e-05
-2.54138e-12
2e-05
-2.64312e-12
2e-05
-2.74711e-12
2e-05
-2.85325e-12
2e-05
-2.96145e-12
2e-05
-3.0716e-12
2e-05
-3.18356e-12
2e-05
-3.29718e-12
2e-05
-3.41229e-12
2e-05
-3.52869e-12
2e-05
-3.64615e-12
2e-05
-3.7644e-12
2e-05
-3.88317e-12
2e-05
-4.00211e-12
2e-05
-4.12085e-12
2e-05
-4.23897e-12
2e-05
-4.35597e-12
2e-05
-4.47131e-12
2e-05
-4.58436e-12
2e-05
-4.69441e-12
2e-05
-4.80064e-12
2e-05
-4.90215e-12
2e-05
-4.99786e-12
2e-05
-5.08657e-12
2e-05
-5.1669e-12
2e-05
-5.2373e-12
2e-05
-5.29606e-12
2e-05
-5.34121e-12
-5.37113e-12
2e-05
-1.67457e-15
2e-05
-5.31956e-15
2e-05
-9.198e-15
2e-05
-1.32572e-14
2e-05
-1.75011e-14
2e-05
-2.19486e-14
2e-05
-2.66228e-14
2e-05
-3.15485e-14
2e-05
-3.67511e-14
2e-05
-4.22564e-14
2e-05
-4.80902e-14
2e-05
-5.42786e-14
2e-05
-6.08476e-14
2e-05
-6.78237e-14
2e-05
-7.52338e-14
2e-05
-8.31053e-14
2e-05
-9.14663e-14
2e-05
-1.00345e-13
2e-05
-1.09772e-13
2e-05
-1.19776e-13
2e-05
-1.3039e-13
2e-05
-1.41644e-13
2e-05
-1.53573e-13
2e-05
-1.66209e-13
2e-05
-1.79587e-13
2e-05
-1.93745e-13
2e-05
-2.08717e-13
2e-05
-2.24543e-13
2e-05
-2.41261e-13
2e-05
-2.58911e-13
2e-05
-2.77533e-13
2e-05
-2.97171e-13
2e-05
-3.17866e-13
2e-05
-3.39662e-13
2e-05
-3.62605e-13
2e-05
-3.86739e-13
2e-05
-4.12111e-13
2e-05
-4.38769e-13
2e-05
-4.66759e-13
2e-05
-4.96132e-13
2e-05
-5.26935e-13
2e-05
-5.59219e-13
2e-05
-5.93034e-13
2e-05
-6.2843e-13
2e-05
-6.65458e-13
2e-05
-7.0417e-13
2e-05
-7.44615e-13
2e-05
-7.86844e-13
2e-05
-8.30908e-13
2e-05
-8.76857e-13
2e-05
-9.2474e-13
2e-05
-9.74606e-13
2e-05
-1.0265e-12
2e-05
-1.08047e-12
2e-05
-1.13657e-12
2e-05
-1.19483e-12
2e-05
-1.25529e-12
2e-05
-1.318e-12
2e-05
-1.383e-12
2e-05
-1.4503e-12
2e-05
-1.51996e-12
2e-05
-1.59199e-12
2e-05
-1.66641e-12
2e-05
-1.74325e-12
2e-05
-1.82252e-12
2e-05
-1.90423e-12
2e-05
-1.98839e-12
2e-05
-2.07498e-12
2e-05
-2.164e-12
2e-05
-2.25543e-12
2e-05
-2.34925e-12
2e-05
-2.44542e-12
2e-05
-2.5439e-12
2e-05
-2.64463e-12
2e-05
-2.74755e-12
2e-05
-2.85258e-12
2e-05
-2.95961e-12
2e-05
-3.06855e-12
2e-05
-3.17927e-12
2e-05
-3.29161e-12
2e-05
-3.40542e-12
2e-05
-3.52051e-12
2e-05
-3.63664e-12
2e-05
-3.75358e-12
2e-05
-3.87105e-12
2e-05
-3.98871e-12
2e-05
-4.1062e-12
2e-05
-4.22309e-12
2e-05
-4.33891e-12
2e-05
-4.45309e-12
2e-05
-4.56497e-12
2e-05
-4.67382e-12
2e-05
-4.77875e-12
2e-05
-4.87873e-12
2e-05
-4.97251e-12
2e-05
-5.05862e-12
2e-05
-5.13523e-12
2e-05
-5.2e-12
2e-05
-5.24986e-12
-5.2793e-12
2e-05
-1.5379e-15
2e-05
-4.91593e-15
2e-05
-8.54467e-15
2e-05
-1.23728e-14
2e-05
-1.63991e-14
2e-05
-2.06361e-14
2e-05
-2.51011e-14
2e-05
-2.98144e-14
2e-05
-3.47978e-14
2e-05
-4.00743e-14
2e-05
-4.56676e-14
2e-05
-5.16017e-14
2e-05
-5.79013e-14
2e-05
-6.45915e-14
2e-05
-7.16977e-14
2e-05
-7.92462e-14
2e-05
-8.72638e-14
2e-05
-9.57779e-14
2e-05
-1.04817e-13
2e-05
-1.1441e-13
2e-05
-1.24586e-13
2e-05
-1.35377e-13
2e-05
-1.46814e-13
2e-05
-1.58929e-13
2e-05
-1.71757e-13
2e-05
-1.85331e-13
2e-05
-1.99687e-13
2e-05
-2.14861e-13
2e-05
-2.30891e-13
2e-05
-2.47815e-13
2e-05
-2.65672e-13
2e-05
-2.84503e-13
2e-05
-3.04348e-13
2e-05
-3.2525e-13
2e-05
-3.47252e-13
2e-05
-3.70398e-13
2e-05
-3.94732e-13
2e-05
-4.203e-13
2e-05
-4.47148e-13
2e-05
-4.75322e-13
2e-05
-5.04871e-13
2e-05
-5.35842e-13
2e-05
-5.68283e-13
2e-05
-6.02243e-13
2e-05
-6.37772e-13
2e-05
-6.74918e-13
2e-05
-7.13731e-13
2e-05
-7.5426e-13
2e-05
-7.96554e-13
2e-05
-8.40661e-13
2e-05
-8.8663e-13
2e-05
-9.34507e-13
2e-05
-9.8434e-13
2e-05
-1.03617e-12
2e-05
-1.09005e-12
2e-05
-1.14602e-12
2e-05
-1.20412e-12
2e-05
-1.26438e-12
2e-05
-1.32686e-12
2e-05
-1.39157e-12
2e-05
-1.45855e-12
2e-05
-1.52784e-12
2e-05
-1.59945e-12
2e-05
-1.67341e-12
2e-05
-1.74974e-12
2e-05
-1.82844e-12
2e-05
-1.90953e-12
2e-05
-1.99302e-12
2e-05
-2.07889e-12
2e-05
-2.16713e-12
2e-05
-2.25774e-12
2e-05
-2.35068e-12
2e-05
-2.44593e-12
2e-05
-2.54344e-12
2e-05
-2.64316e-12
2e-05
-2.74503e-12
2e-05
-2.84897e-12
2e-05
-2.9549e-12
2e-05
-3.06272e-12
2e-05
-3.1723e-12
2e-05
-3.28351e-12
2e-05
-3.39619e-12
2e-05
-3.51016e-12
2e-05
-3.62521e-12
2e-05
-3.74111e-12
2e-05
-3.85757e-12
2e-05
-3.97429e-12
2e-05
-4.09088e-12
2e-05
-4.20693e-12
2e-05
-4.32192e-12
2e-05
-4.43525e-12
2e-05
-4.54622e-12
2e-05
-4.65397e-12
2e-05
-4.75745e-12
2e-05
-4.85536e-12
2e-05
-4.94608e-12
2e-05
-5.02749e-12
2e-05
-5.09669e-12
2e-05
-5.14974e-12
-5.17861e-12
2e-05
-1.41636e-15
2e-05
-4.54889e-15
2e-05
-7.93924e-15
2e-05
-1.154e-14
2e-05
-1.53481e-14
2e-05
-1.93721e-14
2e-05
-2.36252e-14
2e-05
-2.81238e-14
2e-05
-3.28866e-14
2e-05
-3.7934e-14
2e-05
-4.32873e-14
2e-05
-4.89687e-14
2e-05
-5.50011e-14
2e-05
-6.14081e-14
2e-05
-6.82139e-14
2e-05
-7.54434e-14
2e-05
-8.31222e-14
2e-05
-9.12764e-14
2e-05
-9.99331e-14
2e-05
-1.0912e-13
2e-05
-1.18866e-13
2e-05
-1.292e-13
2e-05
-1.40153e-13
2e-05
-1.51756e-13
2e-05
-1.64041e-13
2e-05
-1.7704e-13
2e-05
-1.90789e-13
2e-05
-2.05322e-13
2e-05
-2.20674e-13
2e-05
-2.36883e-13
2e-05
-2.53986e-13
2e-05
-2.72023e-13
2e-05
-2.91031e-13
2e-05
-3.11053e-13
2e-05
-3.32129e-13
2e-05
-3.54301e-13
2e-05
-3.77613e-13
2e-05
-4.02108e-13
2e-05
-4.2783e-13
2e-05
-4.54825e-13
2e-05
-4.83138e-13
2e-05
-5.12816e-13
2e-05
-5.43904e-13
2e-05
-5.76451e-13
2e-05
-6.10503e-13
2e-05
-6.46109e-13
2e-05
-6.83315e-13
2e-05
-7.22169e-13
2e-05
-7.6272e-13
2e-05
-8.05013e-13
2e-05
-8.49096e-13
2e-05
-8.95016e-13
2e-05
-9.42817e-13
2e-05
-9.92545e-13
2e-05
-1.04424e-12
2e-05
-1.09795e-12
2e-05
-1.15372e-12
2e-05
-1.21158e-12
2e-05
-1.27157e-12
2e-05
-1.33372e-12
2e-05
-1.39807e-12
2e-05
-1.46466e-12
2e-05
-1.5335e-12
2e-05
-1.60462e-12
2e-05
-1.67805e-12
2e-05
-1.75379e-12
2e-05
-1.83186e-12
2e-05
-1.91228e-12
2e-05
-1.99504e-12
2e-05
-2.08014e-12
2e-05
-2.16758e-12
2e-05
-2.25733e-12
2e-05
-2.34939e-12
2e-05
-2.44371e-12
2e-05
-2.54026e-12
2e-05
-2.639e-12
2e-05
-2.73987e-12
2e-05
-2.84281e-12
2e-05
-2.94772e-12
2e-05
-3.05453e-12
2e-05
-3.16312e-12
2e-05
-3.27337e-12
2e-05
-3.38512e-12
2e-05
-3.49821e-12
2e-05
-3.61245e-12
2e-05
-3.72758e-12
2e-05
-3.84335e-12
2e-05
-3.95943e-12
2e-05
-4.07544e-12
2e-05
-4.1909e-12
2e-05
-4.30527e-12
2e-05
-4.41785e-12
2e-05
-4.52779e-12
2e-05
-4.63401e-12
2e-05
-4.73514e-12
2e-05
-4.82941e-12
2e-05
-4.91441e-12
2e-05
-4.98681e-12
2e-05
-5.04192e-12
-5.07141e-12
2e-05
-1.30629e-15
2e-05
-4.21192e-15
2e-05
-7.37612e-15
2e-05
-1.07559e-14
2e-05
-1.43482e-14
2e-05
-1.81593e-14
2e-05
-2.21997e-14
2e-05
-2.64828e-14
2e-05
-3.10246e-14
2e-05
-3.5843e-14
2e-05
-4.09571e-14
2e-05
-4.63874e-14
2e-05
-5.21549e-14
2e-05
-5.82819e-14
2e-05
-6.4791e-14
2e-05
-7.17058e-14
2e-05
-7.90506e-14
2e-05
-8.68504e-14
2e-05
-9.51309e-14
2e-05
-1.03919e-13
2e-05
-1.13241e-13
2e-05
-1.23126e-13
2e-05
-1.33603e-13
2e-05
-1.44702e-13
2e-05
-1.56453e-13
2e-05
-1.68888e-13
2e-05
-1.8204e-13
2e-05
-1.95942e-13
2e-05
-2.10628e-13
2e-05
-2.26135e-13
2e-05
-2.42497e-13
2e-05
-2.59752e-13
2e-05
-2.77939e-13
2e-05
-2.97095e-13
2e-05
-3.17261e-13
2e-05
-3.38477e-13
2e-05
-3.60784e-13
2e-05
-3.84224e-13
2e-05
-4.08841e-13
2e-05
-4.34676e-13
2e-05
-4.61775e-13
2e-05
-4.90182e-13
2e-05
-5.19941e-13
2e-05
-5.51099e-13
2e-05
-5.837e-13
2e-05
-6.17791e-13
2e-05
-6.53418e-13
2e-05
-6.90627e-13
2e-05
-7.29464e-13
2e-05
-7.69975e-13
2e-05
-8.12206e-13
2e-05
-8.56201e-13
2e-05
-9.02006e-13
2e-05
-9.49664e-13
2e-05
-9.99219e-13
2e-05
-1.05071e-12
2e-05
-1.10418e-12
2e-05
-1.15968e-12
2e-05
-1.21722e-12
2e-05
-1.27686e-12
2e-05
-1.33863e-12
2e-05
-1.40256e-12
2e-05
-1.46867e-12
2e-05
-1.537e-12
2e-05
-1.60757e-12
2e-05
-1.6804e-12
2e-05
-1.75551e-12
2e-05
-1.83291e-12
2e-05
-1.9126e-12
2e-05
-1.99461e-12
2e-05
-2.07891e-12
2e-05
-2.16552e-12
2e-05
-2.25442e-12
2e-05
-2.34559e-12
2e-05
-2.43901e-12
2e-05
-2.53465e-12
2e-05
-2.63247e-12
2e-05
-2.73242e-12
2e-05
-2.83445e-12
2e-05
-2.93848e-12
2e-05
-3.04443e-12
2e-05
-3.1522e-12
2e-05
-3.26168e-12
2e-05
-3.37274e-12
2e-05
-3.4852e-12
2e-05
-3.59887e-12
2e-05
-3.71351e-12
2e-05
-3.82885e-12
2e-05
-3.94453e-12
2e-05
-4.06012e-12
2e-05
-4.1751e-12
2e-05
-4.28877e-12
2e-05
-4.40028e-12
2e-05
-4.50852e-12
2e-05
-4.61203e-12
2e-05
-4.70888e-12
2e-05
-4.79647e-12
2e-05
-4.87114e-12
2e-05
-4.92774e-12
-4.95899e-12
2e-05
-1.20535e-15
2e-05
-3.90021e-15
2e-05
-6.85042e-15
2e-05
-1.00173e-14
2e-05
-1.33983e-14
2e-05
-1.69989e-14
2e-05
-2.08275e-14
2e-05
-2.48957e-14
2e-05
-2.9217e-14
2e-05
-3.38073e-14
2e-05
-3.86838e-14
2e-05
-4.3865e-14
2e-05
-4.93704e-14
2e-05
-5.52206e-14
2e-05
-6.1437e-14
2e-05
-6.80417e-14
2e-05
-7.50578e-14
2e-05
-8.25088e-14
2e-05
-9.04195e-14
2e-05
-9.88149e-14
2e-05
-1.07721e-13
2e-05
-1.17165e-13
2e-05
-1.27175e-13
2e-05
-1.37779e-13
2e-05
-1.49006e-13
2e-05
-1.60888e-13
2e-05
-1.73454e-13
2e-05
-1.86737e-13
2e-05
-2.0077e-13
2e-05
-2.15587e-13
2e-05
-2.31223e-13
2e-05
-2.47712e-13
2e-05
-2.65092e-13
2e-05
-2.834e-13
2e-05
-3.02673e-13
2e-05
-3.22951e-13
2e-05
-3.44272e-13
2e-05
-3.66678e-13
2e-05
-3.9021e-13
2e-05
-4.14909e-13
2e-05
-4.40817e-13
2e-05
-4.67977e-13
2e-05
-4.96433e-13
2e-05
-5.26227e-13
2e-05
-5.57406e-13
2e-05
-5.90011e-13
2e-05
-6.2409e-13
2e-05
-6.59685e-13
2e-05
-6.96841e-13
2e-05
-7.35604e-13
2e-05
-7.76017e-13
2e-05
-8.18125e-13
2e-05
-8.61971e-13
2e-05
-9.07599e-13
2e-05
-9.55051e-13
2e-05
-1.00437e-12
2e-05
-1.05559e-12
2e-05
-1.10876e-12
2e-05
-1.16391e-12
2e-05
-1.22109e-12
2e-05
-1.28032e-12
2e-05
-1.34163e-12
2e-05
-1.40507e-12
2e-05
-1.47066e-12
2e-05
-1.53843e-12
2e-05
-1.60839e-12
2e-05
-1.68058e-12
2e-05
-1.75501e-12
2e-05
-1.8317e-12
2e-05
-1.91065e-12
2e-05
-1.99188e-12
2e-05
-2.07539e-12
2e-05
-2.16117e-12
2e-05
-2.24923e-12
2e-05
-2.33956e-12
2e-05
-2.43212e-12
2e-05
-2.52691e-12
2e-05
-2.6239e-12
2e-05
-2.72303e-12
2e-05
-2.82428e-12
2e-05
-2.92757e-12
2e-05
-3.03283e-12
2e-05
-3.13998e-12
2e-05
-3.24891e-12
2e-05
-3.35948e-12
2e-05
-3.47154e-12
2e-05
-3.58487e-12
2e-05
-3.69924e-12
2e-05
-3.81431e-12
2e-05
-3.92968e-12
2e-05
-4.04483e-12
2e-05
-4.1591e-12
2e-05
-4.2716e-12
2e-05
-4.38117e-12
2e-05
-4.4863e-12
2e-05
-4.58493e-12
2e-05
-4.67427e-12
2e-05
-4.75051e-12
2e-05
-4.80843e-12
-4.84174e-12
2e-05
-1.11199e-15
2e-05
-3.61019e-15
2e-05
-6.35809e-15
2e-05
-9.3207e-15
2e-05
-1.24965e-14
2e-05
-1.58905e-14
2e-05
-1.95101e-14
2e-05
-2.33653e-14
2e-05
-2.74679e-14
2e-05
-3.1832e-14
2e-05
-3.64729e-14
2e-05
-4.14076e-14
2e-05
-4.6654e-14
2e-05
-5.22312e-14
2e-05
-5.81592e-14
2e-05
-6.44588e-14
2e-05
-7.11517e-14
2e-05
-7.82602e-14
2e-05
-8.58078e-14
2e-05
-9.38183e-14
2e-05
-1.02317e-13
2e-05
-1.11328e-13
2e-05
-1.2088e-13
2e-05
-1.30999e-13
2e-05
-1.41714e-13
2e-05
-1.53052e-13
2e-05
-1.65045e-13
2e-05
-1.77722e-13
2e-05
-1.91116e-13
2e-05
-2.05258e-13
2e-05
-2.20182e-13
2e-05
-2.35921e-13
2e-05
-2.52511e-13
2e-05
-2.69988e-13
2e-05
-2.88387e-13
2e-05
-3.07746e-13
2e-05
-3.28103e-13
2e-05
-3.49496e-13
2e-05
-3.71966e-13
2e-05
-3.95551e-13
2e-05
-4.20293e-13
2e-05
-4.46233e-13
2e-05
-4.73412e-13
2e-05
-5.01873e-13
2e-05
-5.31658e-13
2e-05
-5.6281e-13
2e-05
-5.95372e-13
2e-05
-6.29386e-13
2e-05
-6.64898e-13
2e-05
-7.01949e-13
2e-05
-7.40582e-13
2e-05
-7.80842e-13
2e-05
-8.22771e-13
2e-05
-8.6641e-13
2e-05
-9.11803e-13
2e-05
-9.58989e-13
2e-05
-1.00801e-12
2e-05
-1.0589e-12
2e-05
-1.11171e-12
2e-05
-1.16647e-12
2e-05
-1.22321e-12
2e-05
-1.28197e-12
2e-05
-1.34279e-12
2e-05
-1.40569e-12
2e-05
-1.4707e-12
2e-05
-1.53786e-12
2e-05
-1.60719e-12
2e-05
-1.6787e-12
2e-05
-1.75243e-12
2e-05
-1.82839e-12
2e-05
-1.90659e-12
2e-05
-1.98704e-12
2e-05
-2.06976e-12
2e-05
-2.15475e-12
2e-05
-2.24201e-12
2e-05
-2.33154e-12
2e-05
-2.42332e-12
2e-05
-2.51735e-12
2e-05
-2.6136e-12
2e-05
-2.71205e-12
2e-05
-2.81266e-12
2e-05
-2.91537e-12
2e-05
-3.02012e-12
2e-05
-3.12684e-12
2e-05
-3.23541e-12
2e-05
-3.34571e-12
2e-05
-3.45755e-12
2e-05
-3.5707e-12
2e-05
-3.68488e-12
2e-05
-3.79969e-12
2e-05
-3.91463e-12
2e-05
-4.02901e-12
2e-05
-4.14196e-12
2e-05
-4.25226e-12
2e-05
-4.35834e-12
2e-05
-4.45805e-12
2e-05
-4.54851e-12
2e-05
-4.62581e-12
2e-05
-4.6848e-12
-4.71951e-12
2e-05
-1.02512e-15
2e-05
-3.3392e-15
2e-05
-5.89583e-15
2e-05
-8.66313e-15
2e-05
-1.16406e-14
2e-05
-1.48333e-14
2e-05
-1.82479e-14
2e-05
-2.18933e-14
2e-05
-2.57801e-14
2e-05
-2.99206e-14
2e-05
-3.43289e-14
2e-05
-3.90204e-14
2e-05
-4.40115e-14
2e-05
-4.93199e-14
2e-05
-5.49642e-14
2e-05
-6.0964e-14
2e-05
-6.73396e-14
2e-05
-7.41122e-14
2e-05
-8.13038e-14
2e-05
-8.89373e-14
2e-05
-9.70361e-14
2e-05
-1.05625e-13
2e-05
-1.14728e-13
2e-05
-1.24373e-13
2e-05
-1.34586e-13
2e-05
-1.45393e-13
2e-05
-1.56825e-13
2e-05
-1.6891e-13
2e-05
-1.81678e-13
2e-05
-1.9516e-13
2e-05
-2.09388e-13
2e-05
-2.24395e-13
2e-05
-2.40213e-13
2e-05
-2.56877e-13
2e-05
-2.74422e-13
2e-05
-2.92883e-13
2e-05
-3.12297e-13
2e-05
-3.32701e-13
2e-05
-3.54132e-13
2e-05
-3.7663e-13
2e-05
-4.00233e-13
2e-05
-4.2498e-13
2e-05
-4.50912e-13
2e-05
-4.78069e-13
2e-05
-5.06492e-13
2e-05
-5.36222e-13
2e-05
-5.67302e-13
2e-05
-5.99772e-13
2e-05
-6.33675e-13
2e-05
-6.69053e-13
2e-05
-7.05948e-13
2e-05
-7.44401e-13
2e-05
-7.84455e-13
2e-05
-8.26151e-13
2e-05
-8.6953e-13
2e-05
-9.14633e-13
2e-05
-9.61499e-13
2e-05
-1.01017e-12
2e-05
-1.06068e-12
2e-05
-1.11307e-12
2e-05
-1.16738e-12
2e-05
-1.22364e-12
2e-05
-1.28189e-12
2e-05
-1.34216e-12
2e-05
-1.40448e-12
2e-05
-1.46889e-12
2e-05
-1.53541e-12
2e-05
-1.60407e-12
2e-05
-1.67489e-12
2e-05
-1.74791e-12
2e-05
-1.82313e-12
2e-05
-1.90058e-12
2e-05
-1.98028e-12
2e-05
-2.06225e-12
2e-05
-2.14648e-12
2e-05
-2.233e-12
2e-05
-2.3218e-12
2e-05
-2.41289e-12
2e-05
-2.50627e-12
2e-05
-2.60191e-12
2e-05
-2.69981e-12
2e-05
-2.79992e-12
2e-05
-2.90222e-12
2e-05
-3.00664e-12
2e-05
-3.1131e-12
2e-05
-3.22148e-12
2e-05
-3.33164e-12
2e-05
-3.44336e-12
2e-05
-3.55637e-12
2e-05
-3.6703e-12
2e-05
-3.78464e-12
2e-05
-3.89871e-12
2e-05
-4.0116e-12
2e-05
-4.1221e-12
2e-05
-4.22855e-12
2e-05
-4.32877e-12
2e-05
-4.41981e-12
2e-05
-4.49773e-12
2e-05
-4.55743e-12
-4.59281e-12
2e-05
-9.43948e-16
2e-05
-3.08522e-15
2e-05
-5.46097e-15
2e-05
-8.04195e-15
2e-05
-1.08285e-14
2e-05
-1.3826e-14
2e-05
-1.70406e-14
2e-05
-2.04805e-14
2e-05
-2.41552e-14
2e-05
-2.80759e-14
2e-05
-3.22553e-14
2e-05
-3.67075e-14
2e-05
-4.14475e-14
2e-05
-4.64919e-14
2e-05
-5.18577e-14
2e-05
-5.75635e-14
2e-05
-6.36281e-14
2e-05
-7.00717e-14
2e-05
-7.6915e-14
2e-05
-8.41796e-14
2e-05
-9.18878e-14
2e-05
-1.00063e-13
2e-05
-1.08729e-13
2e-05
-1.1791e-13
2e-05
-1.27632e-13
2e-05
-1.37922e-13
2e-05
-1.48806e-13
2e-05
-1.60312e-13
2e-05
-1.7247e-13
2e-05
-1.85308e-13
2e-05
-1.98857e-13
2e-05
-2.13148e-13
2e-05
-2.28213e-13
2e-05
-2.44085e-13
2e-05
-2.60796e-13
2e-05
-2.78381e-13
2e-05
-2.96875e-13
2e-05
-3.16313e-13
2e-05
-3.36732e-13
2e-05
-3.58168e-13
2e-05
-3.80659e-13
2e-05
-4.04242e-13
2e-05
-4.28957e-13
2e-05
-4.54842e-13
2e-05
-4.81936e-13
2e-05
-5.1028e-13
2e-05
-5.39914e-13
2e-05
-5.70877e-13
2e-05
-6.03211e-13
2e-05
-6.36956e-13
2e-05
-6.72153e-13
2e-05
-7.08844e-13
2e-05
-7.47068e-13
2e-05
-7.86867e-13
2e-05
-8.2828e-13
2e-05
-8.71349e-13
2e-05
-9.16113e-13
2e-05
-9.6261e-13
2e-05
-1.01088e-12
2e-05
-1.06096e-12
2e-05
-1.1129e-12
2e-05
-1.16671e-12
2e-05
-1.22245e-12
2e-05
-1.28015e-12
2e-05
-1.33984e-12
2e-05
-1.40155e-12
2e-05
-1.46532e-12
2e-05
-1.53119e-12
2e-05
-1.59916e-12
2e-05
-1.66929e-12
2e-05
-1.74159e-12
2e-05
-1.8161e-12
2e-05
-1.89283e-12
2e-05
-1.97181e-12
2e-05
-2.05306e-12
2e-05
-2.1366e-12
2e-05
-2.22244e-12
2e-05
-2.31061e-12
2e-05
-2.40111e-12
2e-05
-2.49394e-12
2e-05
-2.58911e-12
2e-05
-2.68659e-12
2e-05
-2.78637e-12
2e-05
-2.88841e-12
2e-05
-2.99264e-12
2e-05
-3.09897e-12
2e-05
-3.20726e-12
2e-05
-3.31734e-12
2e-05
-3.42892e-12
2e-05
-3.54166e-12
2e-05
-3.65505e-12
2e-05
-3.7684e-12
2e-05
-3.88081e-12
2e-05
-3.99101e-12
2e-05
-4.09735e-12
2e-05
-4.19758e-12
2e-05
-4.28874e-12
2e-05
-4.36687e-12
2e-05
-4.42687e-12
-4.46251e-12
2e-05
-8.67915e-16
2e-05
-2.8467e-15
2e-05
-5.05136e-15
2e-05
-7.45483e-15
2e-05
-1.00583e-14
2e-05
-1.28672e-14
2e-05
-1.58877e-14
2e-05
-1.91271e-14
2e-05
-2.25945e-14
2e-05
-2.62998e-14
2e-05
-3.02548e-14
2e-05
-3.44722e-14
2e-05
-3.8966e-14
2e-05
-4.37515e-14
2e-05
-4.88446e-14
2e-05
-5.42625e-14
2e-05
-6.00229e-14
2e-05
-6.61448e-14
2e-05
-7.26477e-14
2e-05
-7.9552e-14
2e-05
-8.68788e-14
2e-05
-9.46502e-14
2e-05
-1.02889e-13
2e-05
-1.11618e-13
2e-05
-1.20862e-13
2e-05
-1.30647e-13
2e-05
-1.40997e-13
2e-05
-1.5194e-13
2e-05
-1.63503e-13
2e-05
-1.75713e-13
2e-05
-1.88601e-13
2e-05
-2.02195e-13
2e-05
-2.16526e-13
2e-05
-2.31625e-13
2e-05
-2.47524e-13
2e-05
-2.64256e-13
2e-05
-2.81853e-13
2e-05
-3.00351e-13
2e-05
-3.19783e-13
2e-05
-3.40185e-13
2e-05
-3.61593e-13
2e-05
-3.84043e-13
2e-05
-4.07572e-13
2e-05
-4.32217e-13
2e-05
-4.58017e-13
2e-05
-4.8501e-13
2e-05
-5.13235e-13
2e-05
-5.4273e-13
2e-05
-5.73535e-13
2e-05
-6.0569e-13
2e-05
-6.39233e-13
2e-05
-6.74206e-13
2e-05
-7.10647e-13
2e-05
-7.48597e-13
2e-05
-7.88095e-13
2e-05
-8.29181e-13
2e-05
-8.71894e-13
2e-05
-9.16274e-13
2e-05
-9.6236e-13
2e-05
-1.01019e-12
2e-05
-1.0598e-12
2e-05
-1.11123e-12
2e-05
-1.16453e-12
2e-05
-1.21971e-12
2e-05
-1.27683e-12
2e-05
-1.33591e-12
2e-05
-1.39699e-12
2e-05
-1.46012e-12
2e-05
-1.52531e-12
2e-05
-1.59261e-12
2e-05
-1.66204e-12
2e-05
-1.73365e-12
2e-05
-1.80746e-12
2e-05
-1.8835e-12
2e-05
-1.96181e-12
2e-05
-2.04241e-12
2e-05
-2.12532e-12
2e-05
-2.21058e-12
2e-05
-2.29821e-12
2e-05
-2.38823e-12
2e-05
-2.48064e-12
2e-05
-2.57545e-12
2e-05
-2.67265e-12
2e-05
-2.77222e-12
2e-05
-2.87412e-12
2e-05
-2.97826e-12
2e-05
-3.08453e-12
2e-05
-3.19275e-12
2e-05
-3.30267e-12
2e-05
-3.41393e-12
2e-05
-3.52605e-12
2e-05
-3.63832e-12
2e-05
-3.74984e-12
2e-05
-3.85933e-12
2e-05
-3.96511e-12
2e-05
-4.06493e-12
2e-05
-4.15579e-12
2e-05
-4.23376e-12
2e-05
-4.29373e-12
-4.32937e-12
2e-05
-7.96575e-16
2e-05
-2.62241e-15
2e-05
-4.66522e-15
2e-05
-6.89982e-15
2e-05
-9.32801e-15
2e-05
-1.19554e-14
2e-05
-1.4788e-14
2e-05
-1.78329e-14
2e-05
-2.10982e-14
2e-05
-2.45934e-14
2e-05
-2.8329e-14
2e-05
-3.23169e-14
2e-05
-3.65701e-14
2e-05
-4.11024e-14
2e-05
-4.59289e-14
2e-05
-5.10654e-14
2e-05
-5.65288e-14
2e-05
-6.23367e-14
2e-05
-6.85075e-14
2e-05
-7.50605e-14
2e-05
-8.20156e-14
2e-05
-8.93936e-14
2e-05
-9.7216e-14
2e-05
-1.05505e-13
2e-05
-1.14284e-13
2e-05
-1.23577e-13
2e-05
-1.33408e-13
2e-05
-1.43802e-13
2e-05
-1.54785e-13
2e-05
-1.66385e-13
2e-05
-1.78629e-13
2e-05
-1.91545e-13
2e-05
-2.05162e-13
2e-05
-2.1951e-13
2e-05
-2.34619e-13
2e-05
-2.50521e-13
2e-05
-2.67247e-13
2e-05
-2.84829e-13
2e-05
-3.03302e-13
2e-05
-3.22698e-13
2e-05
-3.43052e-13
2e-05
-3.644e-13
2e-05
-3.86775e-13
2e-05
-4.10216e-13
2e-05
-4.34757e-13
2e-05
-4.60436e-13
2e-05
-4.8729e-13
2e-05
-5.15357e-13
2e-05
-5.44674e-13
2e-05
-5.75281e-13
2e-05
-6.07216e-13
2e-05
-6.40517e-13
2e-05
-6.75223e-13
2e-05
-7.11373e-13
2e-05
-7.49007e-13
2e-05
-7.88163e-13
2e-05
-8.2888e-13
2e-05
-8.71198e-13
2e-05
-9.15155e-13
2e-05
-9.60791e-13
2e-05
-1.00814e-12
2e-05
-1.05725e-12
2e-05
-1.10815e-12
2e-05
-1.16089e-12
2e-05
-1.21549e-12
2e-05
-1.27201e-12
2e-05
-1.33047e-12
2e-05
-1.39092e-12
2e-05
-1.45338e-12
2e-05
-1.51791e-12
2e-05
-1.58454e-12
2e-05
-1.6533e-12
2e-05
-1.72424e-12
2e-05
-1.79739e-12
2e-05
-1.8728e-12
2e-05
-1.95049e-12
2e-05
-2.0305e-12
2e-05
-2.11287e-12
2e-05
-2.19764e-12
2e-05
-2.28483e-12
2e-05
-2.37447e-12
2e-05
-2.46657e-12
2e-05
-2.56114e-12
2e-05
-2.65817e-12
2e-05
-2.75763e-12
2e-05
-2.85945e-12
2e-05
-2.96353e-12
2e-05
-3.06971e-12
2e-05
-3.17774e-12
2e-05
-3.28728e-12
2e-05
-3.39782e-12
2e-05
-3.5087e-12
2e-05
-3.61897e-12
2e-05
-3.72738e-12
2e-05
-3.83222e-12
2e-05
-3.93124e-12
2e-05
-4.02145e-12
2e-05
-4.09893e-12
2e-05
-4.15859e-12
-4.19405e-12
2e-05
-7.29588e-16
2e-05
-2.41136e-15
2e-05
-4.30111e-15
2e-05
-6.37523e-15
2e-05
-8.63598e-15
2e-05
-1.10891e-14
2e-05
-1.37407e-14
2e-05
-1.65973e-14
2e-05
-1.96666e-14
2e-05
-2.29573e-14
2e-05
-2.64793e-14
2e-05
-3.02435e-14
2e-05
-3.42618e-14
2e-05
-3.85473e-14
2e-05
-4.31137e-14
2e-05
-4.79761e-14
2e-05
-5.31499e-14
2e-05
-5.86519e-14
2e-05
-6.44993e-14
2e-05
-7.07101e-14
2e-05
-7.73034e-14
2e-05
-8.42987e-14
2e-05
-9.17164e-14
2e-05
-9.95776e-14
2e-05
-1.07904e-13
2e-05
-1.16719e-13
2e-05
-1.26044e-13
2e-05
-1.35906e-13
2e-05
-1.46327e-13
2e-05
-1.57333e-13
2e-05
-1.68952e-13
2e-05
-1.81209e-13
2e-05
-1.94132e-13
2e-05
-2.07751e-13
2e-05
-2.22093e-13
2e-05
-2.37188e-13
2e-05
-2.53067e-13
2e-05
-2.69761e-13
2e-05
-2.87302e-13
2e-05
-3.05721e-13
2e-05
-3.25053e-13
2e-05
-3.45329e-13
2e-05
-3.66585e-13
2e-05
-3.88854e-13
2e-05
-4.12172e-13
2e-05
-4.36575e-13
2e-05
-4.62098e-13
2e-05
-4.88777e-13
2e-05
-5.1665e-13
2e-05
-5.45754e-13
2e-05
-5.76125e-13
2e-05
-6.07801e-13
2e-05
-6.40821e-13
2e-05
-6.75223e-13
2e-05
-7.11044e-13
2e-05
-7.48324e-13
2e-05
-7.871e-13
2e-05
-8.27413e-13
2e-05
-8.69299e-13
2e-05
-9.128e-13
2e-05
-9.57953e-13
2e-05
-1.0048e-12
2e-05
-1.05337e-12
2e-05
-1.10372e-12
2e-05
-1.15588e-12
2e-05
-1.20989e-12
2e-05
-1.26579e-12
2e-05
-1.32362e-12
2e-05
-1.38343e-12
2e-05
-1.44525e-12
2e-05
-1.50912e-12
2e-05
-1.5751e-12
2e-05
-1.64322e-12
2e-05
-1.71353e-12
2e-05
-1.78607e-12
2e-05
-1.86089e-12
2e-05
-1.93803e-12
2e-05
-2.01753e-12
2e-05
-2.09945e-12
2e-05
-2.18381e-12
2e-05
-2.27065e-12
2e-05
-2.36001e-12
2e-05
-2.4519e-12
2e-05
-2.54632e-12
2e-05
-2.64325e-12
2e-05
-2.74263e-12
2e-05
-2.84439e-12
2e-05
-2.94835e-12
2e-05
-3.05429e-12
2e-05
-3.16186e-12
2e-05
-3.27057e-12
2e-05
-3.37975e-12
2e-05
-3.48847e-12
2e-05
-3.59546e-12
2e-05
-3.69902e-12
2e-05
-3.79691e-12
2e-05
-3.88615e-12
2e-05
-3.96285e-12
2e-05
-4.02197e-12
-4.05709e-12
2e-05
-6.66675e-16
2e-05
-2.21275e-15
2e-05
-3.95779e-15
2e-05
-5.87956e-15
2e-05
-7.98069e-15
2e-05
-1.0267e-14
2e-05
-1.27445e-14
2e-05
-1.54194e-14
2e-05
-1.82991e-14
2e-05
-2.13917e-14
2e-05
-2.47063e-14
2e-05
-2.8253e-14
2e-05
-3.2043e-14
2e-05
-3.60882e-14
2e-05
-4.04017e-14
2e-05
-4.49972e-14
2e-05
-4.98894e-14
2e-05
-5.50938e-14
2e-05
-6.06267e-14
2e-05
-6.65052e-14
2e-05
-7.27469e-14
2e-05
-7.93704e-14
2e-05
-8.6395e-14
2e-05
-9.38406e-14
2e-05
-1.01728e-13
2e-05
-1.10078e-13
2e-05
-1.18914e-13
2e-05
-1.28258e-13
2e-05
-1.38133e-13
2e-05
-1.48565e-13
2e-05
-1.59576e-13
2e-05
-1.71195e-13
2e-05
-1.83445e-13
2e-05
-1.96356e-13
2e-05
-2.09954e-13
2e-05
-2.24267e-13
2e-05
-2.39325e-13
2e-05
-2.55158e-13
2e-05
-2.71795e-13
2e-05
-2.89267e-13
2e-05
-3.07606e-13
2e-05
-3.26844e-13
2e-05
-3.47013e-13
2e-05
-3.68147e-13
2e-05
-3.90279e-13
2e-05
-4.13444e-13
2e-05
-4.37675e-13
2e-05
-4.63009e-13
2e-05
-4.8948e-13
2e-05
-5.17124e-13
2e-05
-5.45979e-13
2e-05
-5.76079e-13
2e-05
-6.07462e-13
2e-05
-6.40166e-13
2e-05
-6.74228e-13
2e-05
-7.09686e-13
2e-05
-7.46578e-13
2e-05