/*--------------------------------*- C++ -*----------------------------------*\
  =========                 |
  \\      /  F ield         | OpenFOAM: The Open Source CFD Toolbox
   \\    /   O peration     | Website:  https://openfoam.org
    \\  /    A nd           | Version:  11
     \\/     M anipulation  |
\*---------------------------------------------------------------------------*/
FoamFile
{
    format      ascii;
    class       volScalarField;
    location    "728";
    object      omega;
}
// * * * * * * * * * * * * * * * * * * * * * * * * * * * * * * * * * * * * * //

dimensions      [0 0 -1 0 0 0 0];

internalField   nonuniform List<scalar> 
10000
(
0.961692
0.892185
0.829084
0.771728
0.719523
0.671944
0.628523
0.588843
0.552532
0.519258
0.488725
0.460668
0.43485
0.411061
0.389111
0.368829
0.350064
0.332678
0.316549
0.301565
0.287629
0.274649
0.262544
0.251243
0.240677
0.230788
0.221522
0.212828
0.204663
0.196985
0.189758
0.182948
0.176523
0.170457
0.164724
0.159299
0.154162
0.149292
0.144671
0.140284
0.136113
0.132146
0.128369
0.12477
0.121339
0.118064
0.114936
0.111947
0.109088
0.106352
0.103731
0.101219
0.0988104
0.0964987
0.0942788
0.0921458
0.0900951
0.0881222
0.0862232
0.0843942
0.0826316
0.0809322
0.0792926
0.0777101
0.0761817
0.0747049
0.0732772
0.0718962
0.0705597
0.0692657
0.0680122
0.0667972
0.065619
0.064476
0.0633665
0.0622889
0.061242
0.0602242
0.0592342
0.0582709
0.057333
0.0564195
0.0555293
0.0546615
0.0538152
0.0529897
0.0521844
0.0513991
0.0506336
0.0498882
0.0491637
0.0484619
0.0477853
0.0471382
0.0465266
0.0459599
0.0454513
0.0450197
0.044692
0.0445055
0.961692
0.892185
0.829084
0.771728
0.719523
0.671944
0.628523
0.588843
0.552532
0.519258
0.488725
0.460668
0.434851
0.411061
0.389111
0.368829
0.350064
0.332678
0.316549
0.301565
0.287629
0.274649
0.262544
0.251243
0.240677
0.230788
0.221522
0.212828
0.204663
0.196985
0.189758
0.182948
0.176523
0.170457
0.164724
0.159299
0.154162
0.149292
0.144671
0.140284
0.136113
0.132146
0.128369
0.124771
0.121339
0.118064
0.114936
0.111947
0.109088
0.106352
0.103731
0.101219
0.0988105
0.0964988
0.094279
0.092146
0.0900953
0.0881224
0.0862234
0.0843944
0.0826318
0.0809324
0.0792929
0.0777103
0.0761819
0.0747051
0.0732774
0.0718964
0.07056
0.069266
0.0680124
0.0667975
0.0656193
0.0644763
0.0633668
0.0622893
0.0612423
0.0602245
0.0592346
0.0582713
0.0573334
0.0564199
0.0555297
0.0546619
0.0538156
0.0529901
0.0521849
0.0513996
0.050634
0.0498887
0.0491643
0.0484624
0.0477859
0.0471387
0.0465272
0.0459605
0.0454518
0.0450203
0.0446926
0.044506
0.961692
0.892185
0.829084
0.771728
0.719523
0.671944
0.628523
0.588843
0.552532
0.519258
0.488725
0.460668
0.434851
0.411061
0.389111
0.368829
0.350064
0.332678
0.316549
0.301565
0.287629
0.274649
0.262544
0.251243
0.240677
0.230788
0.221522
0.212828
0.204663
0.196985
0.189758
0.182948
0.176524
0.170458
0.164724
0.159299
0.154162
0.149292
0.144671
0.140284
0.136113
0.132146
0.128369
0.124771
0.121339
0.118064
0.114937
0.111947
0.109088
0.106352
0.103731
0.10122
0.0988108
0.0964991
0.0942793
0.0921463
0.0900956
0.0881227
0.0862237
0.0843947
0.0826322
0.0809328
0.0792933
0.0777107
0.0761824
0.0747056
0.0732779
0.0718969
0.0705605
0.0692665
0.068013
0.066798
0.0656199
0.0644769
0.0633674
0.0622899
0.061243
0.0602252
0.0592353
0.058272
0.0573342
0.0564207
0.0555305
0.0546627
0.0538165
0.052991
0.0521858
0.0514005
0.050635
0.0498897
0.0491653
0.0484635
0.0477869
0.0471398
0.0465282
0.0459615
0.0454529
0.0450214
0.0446936
0.0445071
0.961692
0.892185
0.829084
0.771728
0.719523
0.671944
0.628523
0.588843
0.552532
0.519258
0.488725
0.460668
0.434851
0.411061
0.389111
0.368829
0.350064
0.332678
0.316549
0.301566
0.287629
0.274649
0.262544
0.251243
0.240677
0.230788
0.221522
0.212828
0.204663
0.196985
0.189758
0.182948
0.176524
0.170458
0.164724
0.159299
0.154162
0.149292
0.144672
0.140284
0.136114
0.132147
0.12837
0.124771
0.121339
0.118065
0.114937
0.111948
0.109089
0.106353
0.103732
0.10122
0.0988112
0.0964995
0.0942797
0.0921467
0.090096
0.0881232
0.0862242
0.0843953
0.0826328
0.0809333
0.0792938
0.0777113
0.076183
0.0747063
0.0732786
0.0718976
0.0705612
0.0692673
0.0680138
0.0667988
0.0656207
0.0644778
0.0633683
0.0622909
0.0612439
0.0602262
0.0592363
0.0582731
0.0573353
0.0564218
0.0555317
0.054664
0.0538177
0.0529923
0.0521872
0.0514019
0.0506364
0.0498911
0.0491668
0.048465
0.0477885
0.0471413
0.0465298
0.0459631
0.0454545
0.045023
0.0446952
0.0445087
0.961692
0.892185
0.829084
0.771728
0.719523
0.671944
0.628523
0.588843
0.552532
0.519258
0.488725
0.460668
0.434851
0.411061
0.389111
0.368829
0.350064
0.332678
0.316549
0.301566
0.287629
0.274649
0.262545
0.251243
0.240677
0.230789
0.221522
0.212828
0.204663
0.196985
0.189758
0.182948
0.176524
0.170458
0.164724
0.1593
0.154162
0.149292
0.144672
0.140284
0.136114
0.132147
0.12837
0.124771
0.12134
0.118065
0.114937
0.111948
0.109089
0.106353
0.103732
0.101221
0.0988117
0.0965001
0.0942803
0.0921473
0.0900966
0.0881238
0.0862249
0.084396
0.0826335
0.0809341
0.0792946
0.0777121
0.0761838
0.0747071
0.0732795
0.0718986
0.0705622
0.0692683
0.0680148
0.0667999
0.0656219
0.0644789
0.0633695
0.0622921
0.0612452
0.0602275
0.0592377
0.0582745
0.0573368
0.0564234
0.0555333
0.0546656
0.0538194
0.052994
0.0521889
0.0514037
0.0506383
0.049893
0.0491687
0.048467
0.0477905
0.0471434
0.0465319
0.0459652
0.0454566
0.0450251
0.0446973
0.0445108
0.961692
0.892185
0.829084
0.771728
0.719523
0.671944
0.628523
0.588843
0.552532
0.519258
0.488725
0.460668
0.434851
0.411061
0.389111
0.368829
0.350064
0.332678
0.316549
0.301566
0.287629
0.274649
0.262545
0.251243
0.240678
0.230789
0.221522
0.212828
0.204663
0.196985
0.189758
0.182948
0.176524
0.170458
0.164725
0.1593
0.154162
0.149293
0.144672
0.140285
0.136114
0.132147
0.12837
0.124772
0.12134
0.118065
0.114938
0.111949
0.10909
0.106354
0.103733
0.101221
0.0988123
0.0965007
0.0942809
0.092148
0.0900974
0.0881246
0.0862257
0.0843968
0.0826343
0.080935
0.0792956
0.0777131
0.0761849
0.0747082
0.0732806
0.0718997
0.0705634
0.0692695
0.0680161
0.0668012
0.0656232
0.0644803
0.063371
0.0622936
0.0612468
0.0602291
0.0592394
0.0582762
0.0573385
0.0564252
0.0555352
0.0546675
0.0538214
0.0529961
0.0521911
0.0514059
0.0506406
0.0498954
0.0491711
0.0484694
0.047793
0.0471459
0.0465344
0.0459678
0.0454592
0.0450277
0.0446999
0.0445134
0.961692
0.892185
0.829084
0.771728
0.719523
0.671944
0.628523
0.588843
0.552532
0.519258
0.488725
0.460668
0.434851
0.411062
0.389111
0.368829
0.350064
0.332678
0.316549
0.301566
0.287629
0.274649
0.262545
0.251243
0.240678
0.230789
0.221522
0.212829
0.204663
0.196986
0.189758
0.182948
0.176524
0.170458
0.164725
0.1593
0.154163
0.149293
0.144673
0.140285
0.136115
0.132148
0.128371
0.124772
0.121341
0.118066
0.114938
0.111949
0.10909
0.106354
0.103734
0.101222
0.0988131
0.0965015
0.0942817
0.0921489
0.0900983
0.0881255
0.0862266
0.0843978
0.0826354
0.080936
0.0792967
0.0777143
0.0761861
0.0747094
0.0732819
0.071901
0.0705648
0.0692709
0.0680176
0.0668028
0.0656248
0.064482
0.0633727
0.0622954
0.0612486
0.060231
0.0592413
0.0582783
0.0573406
0.0564274
0.0555374
0.0546699
0.0538238
0.0529986
0.0521936
0.0514085
0.0506433
0.0498981
0.0491739
0.0484723
0.0477959
0.0471489
0.0465374
0.0459708
0.0454622
0.0450307
0.0447029
0.0445164
0.961692
0.892185
0.829084
0.771728
0.719523
0.671944
0.628523
0.588843
0.552532
0.519258
0.488725
0.460668
0.434851
0.411062
0.389111
0.368829
0.350064
0.332678
0.316549
0.301566
0.287629
0.274649
0.262545
0.251243
0.240678
0.230789
0.221522
0.212829
0.204663
0.196986
0.189759
0.182949
0.176525
0.170459
0.164725
0.1593
0.154163
0.149293
0.144673
0.140285
0.136115
0.132148
0.128371
0.124773
0.121341
0.118066
0.114939
0.11195
0.109091
0.106355
0.103734
0.101223
0.0988139
0.0965024
0.0942826
0.0921498
0.0900992
0.0881266
0.0862277
0.0843989
0.0826365
0.0809372
0.0792979
0.0777156
0.0761874
0.0747108
0.0732833
0.0719026
0.0705663
0.0692725
0.0680192
0.0668045
0.0656266
0.0644839
0.0633746
0.0622974
0.0612507
0.0602332
0.0592436
0.0582806
0.057343
0.0564298
0.05554
0.0546725
0.0538265
0.0530014
0.0521965
0.0514115
0.0506463
0.0499012
0.0491771
0.0484755
0.0477992
0.0471522
0.0465408
0.0459742
0.0454657
0.0450341
0.0447064
0.0445198
0.961692
0.892185
0.829084
0.771728
0.719523
0.671944
0.628523
0.588843
0.552532
0.519258
0.488725
0.460668
0.434851
0.411062
0.389111
0.368829
0.350064
0.332678
0.316549
0.301566
0.287629
0.274649
0.262545
0.251243
0.240678
0.230789
0.221523
0.212829
0.204664
0.196986
0.189759
0.182949
0.176525
0.170459
0.164726
0.159301
0.154164
0.149294
0.144673
0.140286
0.136116
0.132149
0.128372
0.124773
0.121342
0.118067
0.11494
0.111951
0.109092
0.106356
0.103735
0.101224
0.0988148
0.0965033
0.0942837
0.0921509
0.0901003
0.0881277
0.0862289
0.0844001
0.0826378
0.0809386
0.0792993
0.077717
0.0761889
0.0747124
0.0732849
0.0719042
0.0705681
0.0692744
0.0680211
0.0668065
0.0656286
0.0644859
0.0633768
0.0622996
0.061253
0.0602356
0.059246
0.0582831
0.0573457
0.0564326
0.0555428
0.0546754
0.0538295
0.0530045
0.0521997
0.0514148
0.0506497
0.0499047
0.0491806
0.0484791
0.0478029
0.047156
0.0465446
0.0459781
0.0454695
0.045038
0.0447102
0.0445237
0.961692
0.892184
0.829084
0.771728
0.719523
0.671944
0.628523
0.588843
0.552532
0.519258
0.488725
0.460668
0.434851
0.411062
0.389111
0.368829
0.350064
0.332678
0.316549
0.301566
0.287629
0.274649
0.262545
0.251243
0.240678
0.230789
0.221523
0.212829
0.204664
0.196986
0.189759
0.182949
0.176525
0.170459
0.164726
0.159301
0.154164
0.149294
0.144674
0.140286
0.136116
0.132149
0.128373
0.124774
0.121343
0.118068
0.11494
0.111951
0.109093
0.106357
0.103736
0.101224
0.0988158
0.0965044
0.0942847
0.092152
0.0901015
0.088129
0.0862302
0.0844015
0.0826392
0.0809401
0.0793008
0.0777186
0.0761906
0.0747141
0.0732867
0.0719061
0.07057
0.0692763
0.0680232
0.0668086
0.0656308
0.0644882
0.0633791
0.0623021
0.0612555
0.0602382
0.0592487
0.0582859
0.0573486
0.0564355
0.0555459
0.0546786
0.0538328
0.0530079
0.0522032
0.0514183
0.0506533
0.0499084
0.0491845
0.0484831
0.0478069
0.04716
0.0465488
0.0459822
0.0454737
0.0450422
0.0447145
0.0445279
0.961692
0.892184
0.829084
0.771728
0.719523
0.671944
0.628523
0.588843
0.552532
0.519258
0.488725
0.460668
0.434851
0.411062
0.389111
0.368829
0.350064
0.332678
0.316549
0.301566
0.287629
0.274649
0.262545
0.251244
0.240678
0.230789
0.221523
0.212829
0.204664
0.196987
0.18976
0.18295
0.176526
0.17046
0.164726
0.159302
0.154164
0.149295
0.144674
0.140287
0.136117
0.13215
0.128373
0.124775
0.121343
0.118069
0.114941
0.111952
0.109094
0.106358
0.103737
0.101226
0.0988169
0.0965055
0.0942859
0.0921533
0.0901028
0.0881303
0.0862316
0.0844029
0.0826407
0.0809416
0.0793025
0.0777203
0.0761923
0.0747159
0.0732886
0.071908
0.070572
0.0692785
0.0680254
0.0668109
0.0656332
0.0644907
0.0633817
0.0623047
0.0612582
0.060241
0.0592516
0.0582889
0.0573517
0.0564388
0.0555492
0.054682
0.0538363
0.0530115
0.0522069
0.0514222
0.0506573
0.0499125
0.0491887
0.0484873
0.0478112
0.0471644
0.0465532
0.0459867
0.0454783
0.0450468
0.044719
0.0445324
0.961692
0.892184
0.829084
0.771727
0.719523
0.671944
0.628523
0.588843
0.552532
0.519258
0.488725
0.460668
0.434851
0.411062
0.389111
0.368829
0.350064
0.332678
0.316549
0.301566
0.28763
0.27465
0.262545
0.251244
0.240678
0.23079
0.221523
0.21283
0.204664
0.196987
0.18976
0.18295
0.176526
0.17046
0.164727
0.159302
0.154165
0.149295
0.144675
0.140287
0.136117
0.132151
0.128374
0.124775
0.121344
0.118069
0.114942
0.111953
0.109095
0.106359
0.103738
0.101227
0.0988181
0.0965067
0.0942872
0.0921546
0.0901042
0.0881317
0.0862331
0.0844045
0.0826423
0.0809433
0.0793042
0.0777221
0.0761942
0.0747179
0.0732906
0.0719101
0.0705742
0.0692807
0.0680277
0.0668133
0.0656357
0.0644933
0.0633844
0.0623075
0.0612611
0.060244
0.0592547
0.0582921
0.057355
0.0564422
0.0555527
0.0546856
0.0538401
0.0530154
0.0522109
0.0514263
0.0506615
0.0499168
0.0491931
0.0484919
0.0478158
0.0471691
0.046558
0.0459915
0.0454831
0.0450516
0.0447239
0.0445372
0.961692
0.892184
0.829084
0.771727
0.719523
0.671944
0.628523
0.588843
0.552532
0.519258
0.488725
0.460668
0.434851
0.411062
0.389111
0.36883
0.350064
0.332678
0.316549
0.301566
0.28763
0.27465
0.262546
0.251244
0.240679
0.23079
0.221523
0.21283
0.204665
0.196987
0.18976
0.18295
0.176526
0.170461
0.164727
0.159303
0.154165
0.149296
0.144676
0.140288
0.136118
0.132151
0.128375
0.124776
0.121345
0.11807
0.114943
0.111954
0.109096
0.10636
0.103739
0.101228
0.0988193
0.096508
0.0942885
0.0921559
0.0901056
0.0881332
0.0862346
0.0844061
0.082644
0.0809451
0.079306
0.077724
0.0761962
0.0747199
0.0732928
0.0719123
0.0705765
0.0692831
0.0680302
0.0668158
0.0656383
0.064496
0.0633872
0.0623104
0.0612642
0.0602471
0.059258
0.0582955
0.0573584
0.0564457
0.0555564
0.0546894
0.053844
0.0530194
0.0522151
0.0514306
0.0506659
0.0499214
0.0491977
0.0484966
0.0478207
0.0471741
0.046563
0.0459966
0.0454882
0.0450567
0.044729
0.0445423
0.961692
0.892184
0.829084
0.771727
0.719523
0.671944
0.628523
0.588843
0.552532
0.519258
0.488725
0.460668
0.434851
0.411062
0.389111
0.36883
0.350064
0.332678
0.316549
0.301566
0.28763
0.27465
0.262546
0.251244
0.240679
0.23079
0.221524
0.21283
0.204665
0.196987
0.189761
0.182951
0.176527
0.170461
0.164728
0.159303
0.154166
0.149296
0.144676
0.140289
0.136119
0.132152
0.128375
0.124777
0.121346
0.118071
0.114944
0.111955
0.109097
0.106361
0.10374
0.101229
0.0988205
0.0965093
0.0942899
0.0921574
0.0901071
0.0881348
0.0862363
0.0844078
0.0826458
0.0809469
0.0793079
0.077726
0.0761982
0.0747221
0.073295
0.0719146
0.0705789
0.0692856
0.0680327
0.0668185
0.0656411
0.0644988
0.0633901
0.0623134
0.0612673
0.0602504
0.0592614
0.058299
0.057362
0.0564495
0.0555603
0.0546934
0.0538481
0.0530237
0.0522194
0.0514351
0.0506706
0.0499261
0.0492026
0.0485016
0.0478258
0.0471792
0.0465682
0.0460019
0.0454935
0.0450621
0.0447343
0.0445477
0.961692
0.892184
0.829084
0.771727
0.719523
0.671944
0.628523
0.588843
0.552532
0.519258
0.488725
0.460668
0.434851
0.411062
0.389111
0.36883
0.350064
0.332679
0.316549
0.301566
0.28763
0.27465
0.262546
0.251244
0.240679
0.23079
0.221524
0.21283
0.204665
0.196988
0.189761
0.182951
0.176527
0.170461
0.164728
0.159304
0.154166
0.149297
0.144677
0.140289
0.136119
0.132153
0.128376
0.124778
0.121347
0.118072
0.114945
0.111956
0.109098
0.106362
0.103741
0.10123
0.0988218
0.0965106
0.0942913
0.0921588
0.0901087
0.0881364
0.0862379
0.0844095
0.0826476
0.0809488
0.0793099
0.077728
0.0762004
0.0747243
0.0732973
0.071917
0.0705813
0.0692881
0.0680354
0.0668212
0.0656439
0.0645018
0.0633932
0.0623166
0.0612706
0.0602538
0.0592648
0.0583026
0.0573658
0.0564533
0.0555642
0.0546975
0.0538524
0.0530281
0.052224
0.0514398
0.0506753
0.049931
0.0492076
0.0485067
0.047831
0.0471846
0.0465736
0.0460074
0.0454991
0.0450677
0.0447399
0.0445532
0.961692
0.892184
0.829084
0.771727
0.719523
0.671944
0.628523
0.588843
0.552532
0.519258
0.488725
0.460668
0.434851
0.411062
0.389111
0.36883
0.350064
0.332679
0.31655
0.301567
0.28763
0.27465
0.262546
0.251244
0.240679
0.230791
0.221524
0.212831
0.204666
0.196988
0.189761
0.182951
0.176528
0.170462
0.164729
0.159304
0.154167
0.149297
0.144677
0.14029
0.13612
0.132153
0.128377
0.124779
0.121347
0.118073
0.114946
0.111957
0.109099
0.106363
0.103743
0.101231
0.0988232
0.096512
0.0942927
0.0921604
0.0901102
0.088138
0.0862397
0.0844113
0.0826495
0.0809507
0.0793119
0.0777301
0.0762025
0.0747265
0.0732996
0.0719195
0.0705839
0.0692907
0.0680381
0.0668241
0.0656469
0.0645048
0.0633963
0.0623198
0.0612739
0.0602572
0.0592684
0.0583063
0.0573696
0.0564573
0.0555683
0.0547018
0.0538568
0.0530326
0.0522286
0.0514445
0.0506803
0.0499361
0.0492128
0.048512
0.0478364
0.0471901
0.0465792
0.046013
0.0455048
0.0450734
0.0447457
0.044559
0.961692
0.892184
0.829084
0.771727
0.719523
0.671944
0.628523
0.588843
0.552532
0.519258
0.488725
0.460668
0.434851
0.411062
0.389111
0.36883
0.350064
0.332679
0.31655
0.301567
0.28763
0.27465
0.262546
0.251245
0.240679
0.230791
0.221524
0.212831
0.204666
0.196988
0.189762
0.182952
0.176528
0.170462
0.164729
0.159305
0.154168
0.149298
0.144678
0.140291
0.136121
0.132154
0.128378
0.12478
0.121348
0.118074
0.114947
0.111958
0.1091
0.106364
0.103744
0.101233
0.0988245
0.0965134
0.0942942
0.0921619
0.0901119
0.0881397
0.0862414
0.0844132
0.0826514
0.0809527
0.079314
0.0777323
0.0762048
0.0747288
0.073302
0.071922
0.0705865
0.0692934
0.0680409
0.0668269
0.0656498
0.0645079
0.0633995
0.0623232
0.0612774
0.0602608
0.0592721
0.0583101
0.0573735
0.0564614
0.0555725
0.0547061
0.0538612
0.0530372
0.0522334
0.0514494
0.0506853
0.0499412
0.0492181
0.0485175
0.047842
0.0471957
0.046585
0.0460188
0.0455106
0.0450793
0.0447515
0.0445648
0.961692
0.892184
0.829084
0.771727
0.719523
0.671944
0.628523
0.588843
0.552532
0.519258
0.488725
0.460668
0.434851
0.411062
0.389111
0.36883
0.350064
0.332679
0.31655
0.301567
0.28763
0.27465
0.262546
0.251245
0.24068
0.230791
0.221525
0.212831
0.204666
0.196989
0.189762
0.182952
0.176528
0.170463
0.16473
0.159305
0.154168
0.149299
0.144679
0.140291
0.136122
0.132155
0.128379
0.12478
0.121349
0.118075
0.114948
0.111959
0.109101
0.106365
0.103745
0.101234
0.0988259
0.0965149
0.0942957
0.0921635
0.0901135
0.0881414
0.0862432
0.084415
0.0826533
0.0809547
0.0793161
0.0777345
0.076207
0.0747312
0.0733045
0.0719245
0.0705891
0.0692961
0.0680437
0.0668299
0.0656529
0.064511
0.0634028
0.0623265
0.0612809
0.0602644
0.0592758
0.0583139
0.0573775
0.0564655
0.0555768
0.0547105
0.0538658
0.0530419
0.0522382
0.0514544
0.0506904
0.0499465
0.0492235
0.048523
0.0478476
0.0472015
0.0465908
0.0460248
0.0455166
0.0450853
0.0447576
0.0445708
0.961692
0.892184
0.829084
0.771727
0.719523
0.671944
0.628523
0.588843
0.552532
0.519258
0.488725
0.460668
0.434851
0.411062
0.389111
0.36883
0.350064
0.332679
0.31655
0.301567
0.28763
0.27465
0.262546
0.251245
0.24068
0.230791
0.221525
0.212831
0.204666
0.196989
0.189762
0.182952
0.176529
0.170463
0.16473
0.159306
0.154169
0.149299
0.144679
0.140292
0.136122
0.132156
0.128379
0.124781
0.12135
0.118076
0.114949
0.11196
0.109102
0.106367
0.103746
0.101235
0.0988273
0.0965163
0.0942973
0.0921651
0.0901152
0.0881432
0.086245
0.0844169
0.0826553
0.0809568
0.0793182
0.0777367
0.0762093
0.0747336
0.0733069
0.0719271
0.0705917
0.0692989
0.0680466
0.0668328
0.0656559
0.0645142
0.0634061
0.0623299
0.0612844
0.060268
0.0592796
0.0583178
0.0573816
0.0564697
0.0555811
0.054715
0.0538704
0.0530466
0.0522431
0.0514594
0.0506956
0.0499518
0.0492289
0.0485286
0.0478533
0.0472073
0.0465967
0.0460307
0.0455226
0.0450913
0.0447636
0.0445769
0.961692
0.892184
0.829084
0.771727
0.719522
0.671944
0.628523
0.588843
0.552532
0.519258
0.488725
0.460668
0.434851
0.411062
0.389111
0.36883
0.350064
0.332679
0.31655
0.301567
0.28763
0.274651
0.262547
0.251245
0.24068
0.230791
0.221525
0.212832
0.204667
0.196989
0.189763
0.182953
0.176529
0.170464
0.16473
0.159306
0.154169
0.1493
0.14468
0.140293
0.136123
0.132157
0.12838
0.124782
0.121351
0.118077
0.11495
0.111962
0.109103
0.106368
0.103748
0.101237
0.0988287
0.0965178
0.0942988
0.0921667
0.0901168
0.0881449
0.0862468
0.0844188
0.0826573
0.0809588
0.0793203
0.0777389
0.0762116
0.074736
0.0733094
0.0719296
0.0705944
0.0693017
0.0680494
0.0668358
0.065659
0.0645174
0.0634094
0.0623333
0.0612879
0.0602717
0.0592834
0.0583218
0.0573856
0.0564738
0.0555854
0.0547194
0.053875
0.0530513
0.052248
0.0514645
0.0507008
0.0499572
0.0492344
0.0485342
0.0478591
0.0472132
0.0466027
0.0460368
0.0455287
0.0450975
0.0447698
0.044583
0.961692
0.892184
0.829084
0.771727
0.719522
0.671944
0.628523
0.588843
0.552532
0.519258
0.488725
0.460668
0.434851
0.411062
0.389111
0.36883
0.350065
0.332679
0.31655
0.301567
0.28763
0.274651
0.262547
0.251245
0.24068
0.230792
0.221525
0.212832
0.204667
0.19699
0.189763
0.182953
0.17653
0.170464
0.164731
0.159307
0.15417
0.149301
0.144681
0.140293
0.136124
0.132157
0.128381
0.124783
0.121352
0.118078
0.114951
0.111963
0.109104
0.106369
0.103749
0.101238
0.0988301
0.0965193
0.0943003
0.0921683
0.0901185
0.0881466
0.0862487
0.0844207
0.0826592
0.0809609
0.0793225
0.0777411
0.0762139
0.0747384
0.0733119
0.0719322
0.0705971
0.0693044
0.0680523
0.0668388
0.0656621
0.0645206
0.0634127
0.0623368
0.0612915
0.0602754
0.0592872
0.0583257
0.0573897
0.056478
0.0555898
0.0547239
0.0538796
0.0530561
0.0522529
0.0514696
0.050706
0.0499625
0.04924
0.0485398
0.0478648
0.047219
0.0466087
0.0460429
0.0455349
0.0451037
0.044776
0.0445892
0.961692
0.892184
0.829084
0.771727
0.719522
0.671944
0.628523
0.588843
0.552532
0.519258
0.488725
0.460668
0.434851
0.411062
0.389111
0.36883
0.350065
0.332679
0.31655
0.301567
0.287631
0.274651
0.262547
0.251245
0.24068
0.230792
0.221525
0.212832
0.204667
0.19699
0.189763
0.182954
0.17653
0.170465
0.164731
0.159307
0.15417
0.149301
0.144681
0.140294
0.136124
0.132158
0.128382
0.124784
0.121353
0.118079
0.114952
0.111964
0.109106
0.10637
0.10375
0.101239
0.0988315
0.0965207
0.0943018
0.0921699
0.0901202
0.0881484
0.0862505
0.0844226
0.0826612
0.0809629
0.0793246
0.0777433
0.0762162
0.0747407
0.0733144
0.0719348
0.0705998
0.0693072
0.0680552
0.0668418
0.0656652
0.0645238
0.063416
0.0623402
0.061295
0.060279
0.059291
0.0583296
0.0573937
0.0564822
0.0555941
0.0547284
0.0538842
0.0530609
0.0522578
0.0514746
0.0507112
0.0499679
0.0492455
0.0485455
0.0478706
0.0472249
0.0466147
0.0460489
0.045541
0.0451098
0.0447821
0.0445954
0.961692
0.892184
0.829084
0.771727
0.719522
0.671944
0.628523
0.588843
0.552532
0.519258
0.488725
0.460668
0.434851
0.411062
0.389111
0.36883
0.350065
0.332679
0.31655
0.301567
0.287631
0.274651
0.262547
0.251245
0.24068
0.230792
0.221526
0.212832
0.204668
0.19699
0.189764
0.182954
0.17653
0.170465
0.164732
0.159308
0.154171
0.149302
0.144682
0.140295
0.136125
0.132159
0.128383
0.124785
0.121354
0.11808
0.114953
0.111965
0.109107
0.106371
0.103752
0.101241
0.0988328
0.0965222
0.0943034
0.0921715
0.0901218
0.0881501
0.0862523
0.0844245
0.0826631
0.0809649
0.0793267
0.0777455
0.0762185
0.0747431
0.0733168
0.0719373
0.0706024
0.06931
0.068058
0.0668447
0.0656682
0.064527
0.0634192
0.0623436
0.0612985
0.0602827
0.0592947
0.0583335
0.0573977
0.0564864
0.0555984
0.0547328
0.0538888
0.0530656
0.0522627
0.0514797
0.0507164
0.0499732
0.0492509
0.0485511
0.0478764
0.0472308
0.0466206
0.046055
0.0455471
0.045116
0.0447883
0.0446015
0.961692
0.892184
0.829084
0.771727
0.719522
0.671944
0.628523
0.588843
0.552532
0.519258
0.488725
0.460668
0.434851
0.411062
0.389111
0.36883
0.350065
0.332679
0.31655
0.301567
0.287631
0.274651
0.262547
0.251246
0.240681
0.230792
0.221526
0.212833
0.204668
0.196991
0.189764
0.182954
0.176531
0.170465
0.164732
0.159308
0.154171
0.149302
0.144683
0.140296
0.136126
0.13216
0.128384
0.124786
0.121355
0.118081
0.114954
0.111966
0.109108
0.106373
0.103753
0.101242
0.0988342
0.0965236
0.0943048
0.092173
0.0901235
0.0881518
0.086254
0.0844263
0.0826651
0.080967
0.0793288
0.0777477
0.0762208
0.0747455
0.0733193
0.0719399
0.070605
0.0693127
0.0680608
0.0668476
0.0656713
0.0645301
0.0634225
0.0623469
0.061302
0.0602863
0.0592985
0.0583373
0.0574017
0.0564905
0.0556027
0.0547372
0.0538934
0.0530703
0.0522675
0.0514847
0.0507215
0.0499785
0.0492564
0.0485567
0.0478821
0.0472366
0.0466265
0.046061
0.0455532
0.0451221
0.0447944
0.0446076
0.961692
0.892184
0.829084
0.771727
0.719522
0.671944
0.628523
0.588843
0.552532
0.519258
0.488725
0.460668
0.434851
0.411062
0.389111
0.36883
0.350065
0.332679
0.31655
0.301567
0.287631
0.274651
0.262547
0.251246
0.240681
0.230792
0.221526
0.212833
0.204668
0.196991
0.189764
0.182955
0.176531
0.170466
0.164733
0.159309
0.154172
0.149303
0.144683
0.140296
0.136127
0.13216
0.128384
0.124786
0.121356
0.118082
0.114955
0.111967
0.109109
0.106374
0.103754
0.101243
0.0988356
0.096525
0.0943063
0.0921746
0.0901251
0.0881535
0.0862558
0.0844281
0.082667
0.0809689
0.0793309
0.0777498
0.076223
0.0747478
0.0733217
0.0719424
0.0706076
0.0693154
0.0680636
0.0668505
0.0656743
0.0645332
0.0634257
0.0623503
0.0613054
0.0602898
0.0593021
0.0583411
0.0574057
0.0564946
0.0556069
0.0547416
0.0538978
0.053075
0.0522723
0.0514896
0.0507266
0.0499837
0.0492617
0.0485622
0.0478877
0.0472424
0.0466324
0.0460669
0.0455592
0.0451281
0.0448005
0.0446137
0.961692
0.892184
0.829084
0.771727
0.719522
0.671944
0.628523
0.588843
0.552532
0.519258
0.488725
0.460668
0.434851
0.411062
0.389111
0.36883
0.350065
0.332679
0.31655
0.301567
0.287631
0.274651
0.262547
0.251246
0.240681
0.230792
0.221526
0.212833
0.204668
0.196991
0.189765
0.182955
0.176532
0.170466
0.164733
0.159309
0.154173
0.149303
0.144684
0.140297
0.136127
0.132161
0.128385
0.124787
0.121357
0.118083
0.114956
0.111968
0.10911
0.106375
0.103755
0.101245
0.0988369
0.0965264
0.0943078
0.0921761
0.0901266
0.0881551
0.0862575
0.0844299
0.0826688
0.0809709
0.0793329
0.0777519
0.0762252
0.07475
0.073324
0.0719448
0.0706101
0.069318
0.0680663
0.0668533
0.0656772
0.0645362
0.0634288
0.0623535
0.0613088
0.0602933
0.0593058
0.0583449
0.0574095
0.0564986
0.055611
0.0547458
0.0539022
0.0530795
0.052277
0.0514944
0.0507316
0.0499889
0.049267
0.0485676
0.0478932
0.047248
0.0466382
0.0460728
0.0455651
0.0451341
0.0448065
0.0446197
0.961692
0.892184
0.829084
0.771727
0.719522
0.671944
0.628523
0.588843
0.552532
0.519258
0.488725
0.460668
0.434851
0.411062
0.389111
0.36883
0.350065
0.332679
0.31655
0.301567
0.287631
0.274651
0.262547
0.251246
0.240681
0.230793
0.221527
0.212833
0.204669
0.196991
0.189765
0.182955
0.176532
0.170467
0.164734
0.15931
0.154173
0.149304
0.144684
0.140297
0.136128
0.132162
0.128386
0.124788
0.121357
0.118084
0.114957
0.111969
0.109111
0.106376
0.103756
0.101246
0.0988382
0.0965277
0.0943092
0.0921776
0.0901282
0.0881568
0.0862592
0.0844317
0.0826707
0.0809728
0.0793349
0.077754
0.0762273
0.0747523
0.0733263
0.0719472
0.0706126
0.0693206
0.068069
0.0668561
0.0656801
0.0645392
0.0634319
0.0623567
0.0613121
0.0602967
0.0593093
0.0583485
0.0574133
0.0565025
0.055615
0.05475
0.0539066
0.053084
0.0522816
0.0514992
0.0507365
0.0499939
0.0492722
0.0485729
0.0478987
0.0472536
0.0466438
0.0460785
0.0455709
0.0451399
0.0448123
0.0446255
0.961692
0.892184
0.829084
0.771727
0.719522
0.671944
0.628523
0.588843
0.552532
0.519258
0.488725
0.460668
0.434851
0.411062
0.389111
0.36883
0.350065
0.332679
0.31655
0.301567
0.287631
0.274651
0.262547
0.251246
0.240681
0.230793
0.221527
0.212834
0.204669
0.196992
0.189765
0.182956
0.176532
0.170467
0.164734
0.15931
0.154174
0.149304
0.144685
0.140298
0.136129
0.132162
0.128387
0.124789
0.121358
0.118085
0.114958
0.11197
0.109112
0.106377
0.103758
0.101247
0.0988394
0.0965291
0.0943106
0.092179
0.0901297
0.0881583
0.0862608
0.0844334
0.0826725
0.0809746
0.0793368
0.077756
0.0762294
0.0747544
0.0733286
0.0719495
0.0706151
0.0693231
0.0680716
0.0668588
0.0656829
0.0645421
0.0634349
0.0623598
0.0613153
0.0603001
0.0593127
0.0583521
0.057417
0.0565063
0.055619
0.0547541
0.0539108
0.0530883
0.0522861
0.0515038
0.0507413
0.0499988
0.0492773
0.0485781
0.047904
0.047259
0.0466494
0.0460841
0.0455766
0.0451457
0.0448181
0.0446312
0.961692
0.892184
0.829084
0.771727
0.719522
0.671944
0.628523
0.588843
0.552532
0.519258
0.488725
0.460668
0.434851
0.411062
0.389111
0.36883
0.350065
0.332679
0.31655
0.301567
0.287631
0.274651
0.262548
0.251246
0.240681
0.230793
0.221527
0.212834
0.204669
0.196992
0.189765
0.182956
0.176533
0.170467
0.164735
0.159311
0.154174
0.149305
0.144685
0.140299
0.136129
0.132163
0.128387
0.12479
0.121359
0.118085
0.114959
0.111971
0.109113
0.106378
0.103759
0.101248
0.0988407
0.0965303
0.0943119
0.0921804
0.0901312
0.0881599
0.0862624
0.0844351
0.0826742
0.0809765
0.0793387
0.077758
0.0762314
0.0747566
0.0733308
0.0719518
0.0706174
0.0693255
0.0680742
0.0668614
0.0656856
0.0645449
0.0634379
0.0623628
0.0613185
0.0603033
0.0593161
0.0583556
0.0574206
0.05651
0.0556228
0.0547581
0.0539149
0.0530926
0.0522905
0.0515083
0.050746
0.0500036
0.0492822
0.0485832
0.0479092
0.0472643
0.0466548
0.0460896
0.0455822
0.0451513
0.0448237
0.0446368
0.961692
0.892184
0.829084
0.771727
0.719522
0.671944
0.628523
0.588843
0.552532
0.519258
0.488725
0.460668
0.434851
0.411062
0.389111
0.36883
0.350065
0.332679
0.31655
0.301567
0.287631
0.274652
0.262548
0.251246
0.240681
0.230793
0.221527
0.212834
0.204669
0.196992
0.189766
0.182956
0.176533
0.170468
0.164735
0.159311
0.154174
0.149305
0.144686
0.140299
0.13613
0.132164
0.128388
0.12479
0.12136
0.118086
0.11496
0.111972
0.109114
0.106379
0.10376
0.101249
0.0988418
0.0965316
0.0943132
0.0921818
0.0901326
0.0881614
0.086264
0.0844367
0.0826759
0.0809782
0.0793405
0.0777598
0.0762334
0.0747586
0.0733329
0.071954
0.0706197
0.0693279
0.0680766
0.066864
0.0656882
0.0645477
0.0634407
0.0623658
0.0613215
0.0603065
0.0593194
0.058359
0.0574241
0.0565136
0.0556266
0.0547619
0.0539189
0.0530967
0.0522948
0.0515127
0.0507505
0.0500083
0.049287
0.0485881
0.0479142
0.0472695
0.04666
0.046095
0.0455875
0.0451567
0.0448291
0.0446423
0.961692
0.892184
0.829084
0.771727
0.719522
0.671944
0.628523
0.588843
0.552532
0.519258
0.488725
0.460668
0.434851
0.411062
0.389111
0.36883
0.350065
0.332679
0.31655
0.301568
0.287631
0.274652
0.262548
0.251246
0.240682
0.230793
0.221527
0.212834
0.204669
0.196992
0.189766
0.182957
0.176533
0.170468
0.164735
0.159311
0.154175
0.149306
0.144686
0.1403
0.13613
0.132164
0.128389
0.124791
0.121361
0.118087
0.114961
0.111973
0.109115
0.10638
0.103761
0.10125
0.098843
0.0965328
0.0943145
0.0921831
0.090134
0.0881628
0.0862655
0.0844383
0.0826775
0.0809799
0.0793423
0.0777617
0.0762353
0.0747606
0.073335
0.0719561
0.0706219
0.0693302
0.068079
0.0668664
0.0656908
0.0645503
0.0634434
0.0623686
0.0613244
0.0603095
0.0593225
0.0583622
0.0574274
0.0565171
0.0556302
0.0547657
0.0539227
0.0531007
0.0522989
0.051517
0.0507549
0.0500128
0.0492916
0.0485929
0.0479191
0.0472745
0.0466651
0.0461001
0.0455928
0.0451619
0.0448344
0.0446476
0.961692
0.892184
0.829084
0.771727
0.719522
0.671944
0.628523
0.588843
0.552532
0.519258
0.488724
0.460668
0.434851
0.411062
0.389111
0.36883
0.350065
0.332679
0.31655
0.301568
0.287631
0.274652
0.262548
0.251247
0.240682
0.230793
0.221527