/*--------------------------------*- C++ -*----------------------------------*\
  =========                 |
  \\      /  F ield         | OpenFOAM: The Open Source CFD Toolbox
   \\    /   O peration     | Website:  https://openfoam.org
    \\  /    A nd           | Version:  11
     \\/     M anipulation  |
\*---------------------------------------------------------------------------*/
FoamFile
{
    format      ascii;
    class       surfaceScalarField;
    location    "728";
    object      phi;
}
// * * * * * * * * * * * * * * * * * * * * * * * * * * * * * * * * * * * * * //

dimensions      [0 3 -1 0 0 0 0];

internalField   nonuniform List<scalar> 
19800
(
2e-05
-7.66375e-11
2e-05
-2.14086e-10
1.99999e-05
-3.44286e-10
1.99999e-05
-4.74955e-10
1.99998e-05
-6.10067e-10
1.99998e-05
-7.52041e-10
1.99997e-05
-9.02883e-10
1.99996e-05
-1.06437e-09
1.99995e-05
-1.23816e-09
1.99994e-05
-1.42584e-09
1.99993e-05
-1.62898e-09
1.99992e-05
-1.84915e-09
1.99991e-05
-2.08796e-09
1.9999e-05
-2.34704e-09
1.99988e-05
-2.62811e-09
1.99986e-05
-2.93291e-09
1.99985e-05
-3.26329e-09
1.99983e-05
-3.62114e-09
1.99981e-05
-4.00845e-09
1.99978e-05
-4.42732e-09
1.99976e-05
-4.87991e-09
1.99973e-05
-5.36851e-09
1.9997e-05
-5.89549e-09
1.99967e-05
-6.46334e-09
1.99963e-05
-7.07466e-09
1.9996e-05
-7.73217e-09
1.99956e-05
-8.43871e-09
1.99951e-05
-9.19725e-09
1.99947e-05
-1.00109e-08
1.99942e-05
-1.08828e-08
1.99936e-05
-1.18164e-08
1.99931e-05
-1.28151e-08
1.99925e-05
-1.38826e-08
1.99918e-05
-1.50227e-08
1.99911e-05
-1.62392e-08
1.99904e-05
-1.75363e-08
1.99896e-05
-1.89181e-08
1.99887e-05
-2.0389e-08
1.99878e-05
-2.19535e-08
1.99869e-05
-2.36162e-08
1.99859e-05
-2.53819e-08
1.99848e-05
-2.72557e-08
1.99836e-05
-2.92424e-08
1.99824e-05
-3.13475e-08
1.99811e-05
-3.35763e-08
1.99797e-05
-3.59342e-08
1.99783e-05
-3.84269e-08
1.99767e-05
-4.10601e-08
1.99751e-05
-4.38398e-08
1.99734e-05
-4.6772e-08
1.99716e-05
-4.98627e-08
1.99697e-05
-5.31182e-08
1.99677e-05
-5.65446e-08
1.99655e-05
-6.01484e-08
1.99633e-05
-6.3936e-08
1.99609e-05
-6.79138e-08
1.99585e-05
-7.20882e-08
1.99559e-05
-7.64657e-08
1.99531e-05
-8.10528e-08
1.99503e-05
-8.58557e-08
1.99473e-05
-9.08809e-08
1.99441e-05
-9.61346e-08
1.99408e-05
-1.01623e-07
1.99374e-05
-1.07351e-07
1.99338e-05
-1.13325e-07
1.993e-05
-1.19551e-07
1.99261e-05
-1.26033e-07
1.9922e-05
-1.32776e-07
1.99178e-05
-1.39783e-07
1.99133e-05
-1.4706e-07
1.99087e-05
-1.54608e-07
1.9904e-05
-1.6243e-07
1.9899e-05
-1.70527e-07
1.98939e-05
-1.78899e-07
1.98886e-05
-1.87546e-07
1.98831e-05
-1.96466e-07
1.98775e-05
-2.05655e-07
1.98717e-05
-2.15108e-07
1.98657e-05
-2.24818e-07
1.98596e-05
-2.34774e-07
1.98534e-05
-2.44965e-07
1.9847e-05
-2.55375e-07
1.98405e-05
-2.65985e-07
1.98339e-05
-2.76772e-07
1.98272e-05
-2.87706e-07
1.98204e-05
-2.98754e-07
1.98136e-05
-3.09874e-07
1.98068e-05
-3.21015e-07
1.98001e-05
-3.32119e-07
1.97934e-05
-3.43112e-07
1.97869e-05
-3.5391e-07
1.97805e-05
-3.6441e-07
1.97744e-05
-3.7449e-07
1.97686e-05
-3.84007e-07
1.97632e-05
-3.92793e-07
1.97582e-05
-4.00653e-07
1.97539e-05
-4.07364e-07
1.97504e-05
-4.12676e-07
1.97478e-05
-4.16353e-07
-4.18382e-07
2e-05
-6.40776e-11
2e-05
-1.87528e-10
1.99999e-05
-3.0877e-10
1.99999e-05
-4.31837e-10
1.99998e-05
-5.59515e-10
1.99998e-05
-6.93881e-10
1.99997e-05
-8.36764e-10
1.99996e-05
-9.89839e-10
1.99995e-05
-1.15468e-09
1.99995e-05
-1.33283e-09
1.99994e-05
-1.52578e-09
1.99992e-05
-1.73508e-09
1.99991e-05
-1.96226e-09
1.9999e-05
-2.20893e-09
1.99988e-05
-2.47671e-09
1.99987e-05
-2.76733e-09
1.99985e-05
-3.08256e-09
1.99983e-05
-3.42424e-09
1.99981e-05
-3.79431e-09
1.99978e-05
-4.19478e-09
1.99976e-05
-4.62778e-09
1.99973e-05
-5.09551e-09
1.9997e-05
-5.60027e-09
1.99967e-05
-6.1445e-09
1.99964e-05
-6.73072e-09
1.9996e-05
-7.36158e-09
1.99956e-05
-8.03983e-09
1.99952e-05
-8.76835e-09
1.99947e-05
-9.55017e-09
1.99942e-05
-1.03884e-08
1.99937e-05
-1.12863e-08
1.99931e-05
-1.22474e-08
1.99925e-05
-1.3275e-08
1.99918e-05
-1.4373e-08
1.99911e-05
-1.55451e-08
1.99904e-05
-1.67953e-08
1.99896e-05
-1.81276e-08
1.99888e-05
-1.95465e-08
1.99879e-05
-2.10561e-08
1.99869e-05
-2.26612e-08
1.99859e-05
-2.43664e-08
1.99848e-05
-2.61765e-08
1.99837e-05
-2.80965e-08
1.99825e-05
-3.01315e-08
1.99812e-05
-3.22868e-08
1.99798e-05
-3.45678e-08
1.99784e-05
-3.698e-08
1.99768e-05
-3.95292e-08
1.99752e-05
-4.2221e-08
1.99735e-05
-4.50614e-08
1.99717e-05
-4.80564e-08
1.99698e-05
-5.12121e-08
1.99678e-05
-5.45347e-08
1.99657e-05
-5.80305e-08
1.99634e-05
-6.17058e-08
1.99611e-05
-6.5567e-08
1.99586e-05
-6.96206e-08
1.9956e-05
-7.38729e-08
1.99533e-05
-7.83304e-08
1.99504e-05
-8.29994e-08
1.99475e-05
-8.78864e-08
1.99443e-05
-9.29976e-08
1.9941e-05
-9.8339e-08
1.99376e-05
-1.03917e-07
1.9934e-05
-1.09736e-07
1.99303e-05
-1.15804e-07
1.99264e-05
-1.22124e-07
1.99223e-05
-1.28702e-07
1.9918e-05
-1.35542e-07
1.99136e-05
-1.42648e-07
1.9909e-05
-1.50023e-07
1.99043e-05
-1.57671e-07
1.98993e-05
-1.65594e-07
1.98942e-05
-1.73791e-07
1.9889e-05
-1.82265e-07
1.98835e-05
-1.91012e-07
1.98779e-05
-2.00032e-07
1.98721e-05
-2.0932e-07
1.98661e-05
-2.18869e-07
1.986e-05
-2.28673e-07
1.98538e-05
-2.38721e-07
1.98474e-05
-2.48998e-07
1.98409e-05
-2.59489e-07
1.98343e-05
-2.70173e-07
1.98276e-05
-2.81024e-07
1.98209e-05
-2.92011e-07
1.98141e-05
-3.03096e-07
1.98073e-05
-3.14233e-07
1.98006e-05
-3.25368e-07
1.97939e-05
-3.36433e-07
1.97874e-05
-3.47349e-07
1.9781e-05
-3.5802e-07
1.97748e-05
-3.68332e-07
1.97689e-05
-3.78149e-07
1.97635e-05
-3.87312e-07
1.97584e-05
-3.95633e-07
1.9754e-05
-4.02896e-07
1.97501e-05
-4.08847e-07
1.9747e-05
-4.13218e-07
-4.15826e-07
2e-05
-5.46195e-11
2e-05
-1.6403e-10
1.99999e-05
-2.75051e-10
1.99999e-05
-3.89698e-10
1.99998e-05
-5.09549e-10
1.99998e-05
-6.36141e-10
1.99997e-05
-7.71024e-10
1.99996e-05
-9.15709e-10
1.99996e-05
-1.07167e-09
1.99995e-05
-1.24036e-09
1.99994e-05
-1.42323e-09
1.99993e-05
-1.62175e-09
1.99991e-05
-1.83741e-09
1.9999e-05
-2.07177e-09
1.99988e-05
-2.32639e-09
1.99987e-05
-2.60295e-09
1.99985e-05
-2.90316e-09
1.99983e-05
-3.2288e-09
1.99981e-05
-3.58176e-09
1.99979e-05
-3.96399e-09
1.99976e-05
-4.37754e-09
1.99973e-05
-4.82455e-09
1.9997e-05
-5.30728e-09
1.99967e-05
-5.82807e-09
1.99964e-05
-6.38937e-09
1.9996e-05
-6.99376e-09
1.99956e-05
-7.64391e-09
1.99952e-05
-8.34264e-09
1.99947e-05
-9.09287e-09
1.99942e-05
-9.89765e-09
1.99937e-05
-1.07602e-08
1.99932e-05
-1.16837e-08
1.99926e-05
-1.26718e-08
1.99919e-05
-1.37279e-08
1.99912e-05
-1.48559e-08
1.99905e-05
-1.60595e-08
1.99897e-05
-1.73427e-08
1.99889e-05
-1.87098e-08
1.9988e-05
-2.01651e-08
1.9987e-05
-2.17129e-08
1.9986e-05
-2.33578e-08
1.99849e-05
-2.51047e-08
1.99838e-05
-2.69583e-08
1.99826e-05
-2.89236e-08
1.99813e-05
-3.1006e-08
1.998e-05
-3.32105e-08
1.99785e-05
-3.55428e-08
1.9977e-05
-3.80083e-08
1.99754e-05
-4.06127e-08
1.99737e-05
-4.33619e-08
1.99719e-05
-4.62617e-08
1.997e-05
-4.93182e-08
1.9968e-05
-5.25375e-08
1.99659e-05
-5.59259e-08
1.99637e-05
-5.94895e-08
1.99614e-05
-6.32348e-08
1.99589e-05
-6.71681e-08
1.99563e-05
-7.12958e-08
1.99536e-05
-7.56244e-08
1.99508e-05
-8.01603e-08
1.99478e-05
-8.49097e-08
1.99447e-05
-8.98791e-08
1.99414e-05
-9.50746e-08
1.9938e-05
-1.00502e-07
1.99344e-05
-1.06168e-07
1.99307e-05
-1.12078e-07
1.99268e-05
-1.18237e-07
1.99228e-05
-1.2465e-07
1.99186e-05
-1.31323e-07
1.99142e-05
-1.38259e-07
1.99096e-05
-1.45463e-07
1.99049e-05
-1.52938e-07
1.99e-05
-1.60686e-07
1.98949e-05
-1.68709e-07
1.98896e-05
-1.77009e-07
1.98842e-05
-1.85584e-07
1.98786e-05
-1.94435e-07
1.98728e-05
-2.03557e-07
1.98669e-05
-2.12946e-07
1.98608e-05
-2.22597e-07
1.98546e-05
-2.325e-07
1.98483e-05
-2.42644e-07
1.98418e-05
-2.53014e-07
1.98352e-05
-2.63593e-07
1.98285e-05
-2.74357e-07
1.98218e-05
-2.85279e-07
1.9815e-05
-2.96324e-07
1.98083e-05
-3.07451e-07
1.98015e-05
-3.18608e-07
1.97948e-05
-3.29735e-07
1.97882e-05
-3.40757e-07
1.97818e-05
-3.51582e-07
1.97755e-05
-3.62104e-07
1.97696e-05
-3.72192e-07
1.9764e-05
-3.8169e-07
1.97587e-05
-3.90413e-07
1.9754e-05
-3.98138e-07
1.97497e-05
-4.04598e-07
1.9746e-05
-4.09485e-07
-4.12503e-07
2e-05
-4.69394e-11
2e-05
-1.43407e-10
1.99999e-05
-2.43785e-10
1.99999e-05
-3.49359e-10
1.99999e-05
-4.60906e-10
1.99998e-05
-5.79436e-10
1.99997e-05
-7.0617e-10
1.99997e-05
-8.42413e-10
1.99996e-05
-9.89503e-10
1.99995e-05
-1.14879e-09
1.99994e-05
-1.32167e-09
1.99993e-05
-1.50952e-09
1.99991e-05
-1.71379e-09
1.9999e-05
-1.93597e-09
1.99989e-05
-2.17759e-09
1.99987e-05
-2.44024e-09
1.99985e-05
-2.7256e-09
1.99983e-05
-3.03538e-09
1.99981e-05
-3.37142e-09
1.99979e-05
-3.7356e-09
1.99976e-05
-4.12991e-09
1.99974e-05
-4.55644e-09
1.99971e-05
-5.01735e-09
1.99968e-05
-5.51494e-09
1.99964e-05
-6.05158e-09
1.99961e-05
-6.62976e-09
1.99957e-05
-7.25211e-09
1.99953e-05
-7.92133e-09
1.99948e-05
-8.64028e-09
1.99943e-05
-9.41193e-09
1.99938e-05
-1.02394e-08
1.99932e-05
-1.11258e-08
1.99926e-05
-1.20746e-08
1.9992e-05
-1.30893e-08
1.99913e-05
-1.41735e-08
1.99906e-05
-1.5331e-08
1.99898e-05
-1.65656e-08
1.9989e-05
-1.78814e-08
1.99881e-05
-1.92827e-08
1.99872e-05
-2.07737e-08
1.99862e-05
-2.2359e-08
1.99851e-05
-2.40431e-08
1.9984e-05
-2.58309e-08
1.99828e-05
-2.77272e-08
1.99815e-05
-2.97372e-08
1.99802e-05
-3.18659e-08
1.99787e-05
-3.41189e-08
1.99772e-05
-3.65014e-08
1.99756e-05
-3.90191e-08
1.9974e-05
-4.16777e-08
1.99722e-05
-4.44832e-08
1.99703e-05
-4.74413e-08
1.99683e-05
-5.05581e-08
1.99662e-05
-5.38398e-08
1.9964e-05
-5.72927e-08
1.99617e-05
-6.09229e-08
1.99593e-05
-6.47368e-08
1.99567e-05
-6.87409e-08
1.99541e-05
-7.29415e-08
1.99512e-05
-7.73451e-08
1.99483e-05
-8.19579e-08
1.99452e-05
-8.67865e-08
1.9942e-05
-9.1837e-08
1.99386e-05
-9.71157e-08
1.9935e-05
-1.02629e-07
1.99313e-05
-1.08382e-07
1.99275e-05
-1.1438e-07
1.99235e-05
-1.2063e-07
1.99193e-05
-1.27137e-07
1.99149e-05
-1.33904e-07
1.99104e-05
-1.40937e-07
1.99057e-05
-1.48239e-07
1.99008e-05
-1.55814e-07
1.98958e-05
-1.63663e-07
1.98906e-05
-1.7179e-07
1.98852e-05
-1.80193e-07
1.98796e-05
-1.88874e-07
1.98739e-05
-1.9783e-07
1.9868e-05
-2.07059e-07
1.9862e-05
-2.16555e-07
1.98558e-05
-2.26312e-07
1.98494e-05
-2.36321e-07
1.9843e-05
-2.46568e-07
1.98364e-05
-2.57038e-07
1.98298e-05
-2.67711e-07
1.98231e-05
-2.78562e-07
1.98163e-05
-2.89561e-07
1.98095e-05
-3.00669e-07
1.98028e-05
-3.11839e-07
1.9796e-05
-3.23014e-07
1.97894e-05
-3.34123e-07
1.97829e-05
-3.45082e-07
1.97766e-05
-3.55785e-07
1.97705e-05
-3.66105e-07
1.97647e-05
-3.75887e-07
1.97592e-05
-3.84944e-07
1.97541e-05
-3.93041e-07
1.97494e-05
-3.99888e-07
1.97451e-05
-4.0514e-07
-4.08474e-07
2e-05
-4.04441e-11
2e-05
-1.25104e-10
1.99999e-05
-2.14988e-10
1.99999e-05
-3.11212e-10
1.99999e-05
-4.14116e-10
1.99998e-05
-5.2431e-10
1.99997e-05
-6.42718e-10
1.99997e-05
-7.7043e-10
1.99996e-05
-9.0863e-10
1.99995e-05
-1.05856e-09
1.99994e-05
-1.22151e-09
1.99993e-05
-1.3988e-09
1.99992e-05
-1.59182e-09
1.9999e-05
-1.80197e-09
1.99989e-05
-2.03075e-09
1.99987e-05
-2.27969e-09
1.99986e-05
-2.55039e-09
1.99984e-05
-2.84453e-09
1.99982e-05
-3.16387e-09
1.99979e-05
-3.51025e-09
1.99977e-05
-3.88558e-09
1.99974e-05
-4.29189e-09
1.99971e-05
-4.73128e-09
1.99968e-05
-5.20596e-09
1.99965e-05
-5.71825e-09
1.99961e-05
-6.27057e-09
1.99957e-05
-6.86545e-09
1.99953e-05
-7.50553e-09
1.99949e-05
-8.19359e-09
1.99944e-05
-8.93251e-09
1.99939e-05
-9.72529e-09
1.99933e-05
-1.05751e-08
1.99927e-05
-1.14851e-08
1.99921e-05
-1.24589e-08
1.99914e-05
-1.34998e-08
1.99907e-05
-1.46116e-08
1.999e-05
-1.57981e-08
1.99891e-05
-1.70633e-08
1.99883e-05
-1.84112e-08
1.99873e-05
-1.98461e-08
1.99864e-05
-2.13723e-08
1.99853e-05
-2.29944e-08
1.99842e-05
-2.47171e-08
1.9983e-05
-2.65451e-08
1.99818e-05
-2.84834e-08
1.99804e-05
-3.05372e-08
1.9979e-05
-3.27116e-08
1.99775e-05
-3.5012e-08
1.9976e-05
-3.74439e-08
1.99743e-05
-4.0013e-08
1.99725e-05
-4.27249e-08
1.99707e-05
-4.55856e-08
1.99687e-05
-4.86009e-08
1.99667e-05
-5.17771e-08
1.99645e-05
-5.51202e-08
1.99622e-05
-5.86364e-08
1.99598e-05
-6.23321e-08
1.99573e-05
-6.62137e-08
1.99546e-05
-7.02874e-08
1.99518e-05
-7.45599e-08
1.99489e-05
-7.90373e-08
1.99458e-05
-8.37263e-08
1.99426e-05
-8.86331e-08
1.99393e-05
-9.3764e-08
1.99358e-05
-9.91252e-08
1.99321e-05
-1.04723e-07
1.99283e-05
-1.10563e-07
1.99243e-05
-1.1665e-07
1.99202e-05
-1.22991e-07
1.99159e-05
-1.29591e-07
1.99114e-05
-1.36454e-07
1.99067e-05
-1.43584e-07
1.99019e-05
-1.50986e-07
1.98969e-05
-1.58662e-07
1.98917e-05
-1.66616e-07
1.98864e-05
-1.74848e-07
1.98809e-05
-1.83359e-07
1.98752e-05
-1.92149e-07
1.98693e-05
-2.01217e-07
1.98633e-05
-2.10557e-07
1.98572e-05
-2.20167e-07
1.98509e-05
-2.30037e-07
1.98445e-05
-2.40157e-07
1.9838e-05
-2.50515e-07
1.98314e-05
-2.61092e-07
1.98247e-05
-2.71866e-07
1.98179e-05
-2.82809e-07
1.98111e-05
-2.93888e-07
1.98044e-05
-3.05057e-07
1.97976e-05
-3.16263e-07
1.97909e-05
-3.2744e-07
1.97843e-05
-3.38504e-07
1.97779e-05
-3.49355e-07
1.97717e-05
-3.59866e-07
1.97657e-05
-3.69881e-07
1.97599e-05
-3.79205e-07
1.97545e-05
-3.87592e-07
1.97493e-05
-3.9473e-07
1.97444e-05
-4.00229e-07
-4.03756e-07
2e-05
-3.48116e-11
2e-05
-1.08674e-10
2e-05
-1.88474e-10
1.99999e-05
-2.75364e-10
1.99999e-05
-3.69477e-10
1.99998e-05
-4.71162e-10
1.99998e-05
-5.81105e-10
1.99997e-05
-7.00203e-10
1.99996e-05
-8.29489e-10
1.99995e-05
-9.70084e-10
1.99994e-05
-1.12318e-09
1.99993e-05
-1.29002e-09
1.99992e-05
-1.47192e-09
1.99991e-05
-1.67022e-09
1.99989e-05
-1.88634e-09
1.99988e-05
-2.12177e-09
1.99986e-05
-2.37805e-09
1.99984e-05
-2.65679e-09
1.99982e-05
-2.9597e-09
1.9998e-05
-3.28855e-09
1.99977e-05
-3.6452e-09
1.99975e-05
-4.0316e-09
1.99972e-05
-4.4498e-09
1.99969e-05
-4.90193e-09
1.99966e-05
-5.39025e-09
1.99962e-05
-5.91709e-09
1.99958e-05
-6.48492e-09
1.99954e-05
-7.09629e-09
1.9995e-05
-7.75391e-09
1.99945e-05
-8.46057e-09
1.9994e-05
-9.2192e-09
1.99935e-05
-1.00328e-08
1.99929e-05
-1.09047e-08
1.99923e-05
-1.1838e-08
1.99916e-05
-1.28363e-08
1.99909e-05
-1.39031e-08
1.99901e-05
-1.50422e-08
1.99893e-05
-1.62574e-08
1.99885e-05
-1.75526e-08
1.99875e-05
-1.89321e-08
1.99866e-05
-2.04e-08
1.99855e-05
-2.19609e-08
1.99844e-05
-2.36193e-08
1.99833e-05
-2.53799e-08
1.9982e-05
-2.72476e-08
1.99807e-05
-2.92273e-08
1.99793e-05
-3.13241e-08
1.99779e-05
-3.35434e-08
1.99763e-05
-3.58906e-08
1.99747e-05
-3.83711e-08
1.99729e-05
-4.09907e-08
1.99711e-05
-4.37551e-08
1.99692e-05
-4.66701e-08
1.99671e-05
-4.97419e-08
1.9965e-05
-5.29765e-08
1.99627e-05
-5.638e-08
1.99604e-05
-5.99588e-08
1.99579e-05
-6.37191e-08
1.99553e-05
-6.76675e-08
1.99525e-05
-7.18101e-08
1.99496e-05
-7.61536e-08
1.99466e-05
-8.07044e-08
1.99434e-05
-8.54688e-08
1.99401e-05
-9.04533e-08
1.99367e-05
-9.56642e-08
1.99331e-05
-1.01108e-07
1.99293e-05
-1.0679e-07
1.99253e-05
-1.12717e-07
1.99213e-05
-1.18894e-07
1.9917e-05
-1.25327e-07
1.99126e-05
-1.32021e-07
1.9908e-05
-1.3898e-07
1.99032e-05
-1.4621e-07
1.98982e-05
-1.53714e-07
1.98931e-05
-1.61495e-07
1.98878e-05
-1.69555e-07
1.98824e-05
-1.77897e-07
1.98767e-05
-1.86521e-07
1.98709e-05
-1.95426e-07
1.9865e-05
-2.0461e-07
1.98589e-05
-2.14069e-07
1.98526e-05
-2.23798e-07
1.98463e-05
-2.33788e-07
1.98398e-05
-2.44028e-07
1.98332e-05
-2.54502e-07
1.98265e-05
-2.65191e-07
1.98198e-05
-2.76069e-07
1.9813e-05
-2.87105e-07
1.98062e-05
-2.98258e-07
1.97994e-05
-3.09477e-07
1.97927e-05
-3.20698e-07
1.9786e-05
-3.3184e-07
1.97795e-05
-3.42804e-07
1.97731e-05
-3.53462e-07
1.97668e-05
-3.63657e-07
1.97608e-05
-3.73187e-07
1.9755e-05
-3.81794e-07
1.97494e-05
-3.89145e-07
1.9744e-05
-3.94818e-07
-3.98416e-07
2e-05
-2.98217e-11
2e-05
-9.37844e-11
2e-05
-1.64017e-10
1.99999e-05
-2.41778e-10
1.99999e-05
-3.27124e-10
1.99998e-05
-4.20246e-10
1.99998e-05
-5.2166e-10
1.99997e-05
-6.32104e-10
1.99996e-05
-7.52472e-10
1.99995e-05
-8.83771e-10
1.99994e-05
-1.02709e-09
1.99993e-05
-1.1836e-09
1.99992e-05
-1.35452e-09
1.99991e-05
-1.54114e-09
1.99989e-05
-1.74481e-09
1.99988e-05
-1.96696e-09
1.99986e-05
-2.20906e-09
1.99984e-05
-2.47268e-09
1.99982e-05
-2.75946e-09
1.9998e-05
-3.07109e-09
1.99978e-05
-3.4094e-09
1.99975e-05
-3.77625e-09
1.99973e-05
-4.17363e-09
1.9997e-05
-4.60362e-09
1.99966e-05
-5.06837e-09
1.99963e-05
-5.57018e-09
1.99959e-05
-6.11142e-09
1.99955e-05
-6.69459e-09
1.99951e-05
-7.32228e-09
1.99946e-05
-7.99723e-09
1.99941e-05
-8.72227e-09
1.99936e-05
-9.50036e-09
1.9993e-05
-1.03346e-08
1.99924e-05
-1.12282e-08
1.99918e-05
-1.21846e-08
1.99911e-05
-1.32071e-08
1.99903e-05
-1.42994e-08
1.99895e-05
-1.54654e-08
1.99887e-05
-1.67088e-08
1.99878e-05
-1.80337e-08
1.99868e-05
-1.94443e-08
1.99858e-05
-2.09449e-08
1.99847e-05
-2.254e-08
1.99836e-05
-2.42341e-08
1.99824e-05
-2.60321e-08
1.99811e-05
-2.79388e-08
1.99797e-05
-2.99592e-08
1.99783e-05
-3.20986e-08
1.99767e-05
-3.43621e-08
1.99751e-05
-3.67554e-08
1.99734e-05
-3.92838e-08
1.99716e-05
-4.19532e-08
1.99697e-05
-4.47693e-08
1.99677e-05
-4.77381e-08
1.99656e-05
-5.08655e-08
1.99634e-05
-5.41578e-08
1.9961e-05
-5.76212e-08
1.99586e-05
-6.12618e-08
1.9956e-05
-6.50862e-08
1.99533e-05
-6.91007e-08
1.99505e-05
-7.33117e-08
1.99475e-05
-7.77259e-08
1.99444e-05
-8.23495e-08
1.99411e-05
-8.71892e-08
1.99377e-05
-9.22514e-08
1.99341e-05
-9.75424e-08
1.99304e-05
-1.03068e-07
1.99265e-05
-1.08836e-07
1.99225e-05
-1.1485e-07
1.99183e-05
-1.21118e-07
1.99139e-05
-1.27644e-07
1.99093e-05
-1.34434e-07
1.99046e-05
-1.41493e-07
1.98997e-05
-1.48825e-07
1.98947e-05
-1.56434e-07
1.98894e-05
-1.64323e-07
1.9884e-05
-1.72495e-07
1.98785e-05
-1.80951e-07
1.98727e-05
-1.89692e-07
1.98668e-05
-1.98717e-07
1.98608e-05
-2.08024e-07
1.98546e-05
-2.17609e-07
1.98483e-05
-2.27464e-07
1.98418e-05
-2.3758e-07
1.98353e-05
-2.47944e-07
1.98286e-05
-2.58539e-07
1.98219e-05
-2.69341e-07
1.98151e-05
-2.80321e-07
1.98083e-05
-2.91441e-07
1.98015e-05
-3.02652e-07
1.97947e-05
-3.13892e-07
1.97879e-05
-3.25082e-07
1.97812e-05
-3.36123e-07
1.97746e-05
-3.46887e-07
1.97682e-05
-3.57212e-07
1.97619e-05
-3.66892e-07
1.97558e-05
-3.75658e-07
1.97498e-05
-3.83162e-07
1.97439e-05
-3.88958e-07
-3.92531e-07
2e-05
-2.5329e-11
2e-05
-8.01876e-11
2e-05
-1.41404e-10
1.99999e-05
-2.10354e-10
1.99999e-05
-2.87086e-10
1.99998e-05
-3.71706e-10
1.99998e-05
-4.64613e-10
1.99997e-05
-5.66422e-10
1.99996e-05
-6.77909e-10
1.99996e-05
-7.99976e-10
1.99995e-05
-9.33619e-10
1.99994e-05
-1.07992e-09
1.99992e-05
-1.24002e-09
1.99991e-05
-1.41515e-09
1.9999e-05
-1.6066e-09
1.99988e-05
-1.81571e-09
1.99987e-05
-2.04391e-09
1.99985e-05
-2.2927e-09
1.99983e-05
-2.56366e-09
1.99981e-05
-2.85843e-09
1.99978e-05
-3.17875e-09
1.99976e-05
-3.52645e-09
1.99973e-05
-3.90343e-09
1.9997e-05
-4.31171e-09
1.99967e-05
-4.75337e-09
1.99964e-05
-5.23064e-09
1.9996e-05
-5.74581e-09
1.99956e-05
-6.3013e-09
1.99952e-05
-6.89964e-09
1.99947e-05
-7.54347e-09
1.99943e-05
-8.23556e-09
1.99937e-05
-8.97877e-09
1.99932e-05
-9.77611e-09
1.99926e-05
-1.06307e-08
1.99919e-05
-1.15459e-08
1.99913e-05
-1.25249e-08
1.99905e-05
-1.35714e-08
1.99898e-05
-1.46889e-08
1.99889e-05
-1.58814e-08
1.9988e-05
-1.71527e-08
1.99871e-05
-1.85069e-08
1.99861e-05
-1.99482e-08
1.99851e-05
-2.1481e-08
1.99839e-05
-2.31098e-08
1.99827e-05
-2.48392e-08
1.99815e-05
-2.66741e-08
1.99801e-05
-2.86193e-08
1.99787e-05
-3.068e-08
1.99772e-05
-3.28613e-08
1.99756e-05
-3.51685e-08
1.99739e-05
-3.76073e-08
1.99722e-05
-4.01831e-08
1.99703e-05
-4.29017e-08
1.99683e-05
-4.5769e-08
1.99663e-05
-4.87909e-08
1.99641e-05
-5.19735e-08
1.99618e-05
-5.5323e-08
1.99594e-05
-5.88456e-08
1.99568e-05
-6.25477e-08
1.99542e-05
-6.64357e-08
1.99514e-05
-7.0516e-08
1.99484e-05
-7.47952e-08
1.99454e-05
-7.92799e-08
1.99422e-05
-8.39765e-08
1.99388e-05
-8.88916e-08
1.99353e-05
-9.40317e-08
1.99316e-05
-9.94032e-08
1.99278e-05
-1.05013e-07
1.99238e-05
-1.10866e-07
1.99197e-05
-1.1697e-07
1.99154e-05
-1.23329e-07
1.99109e-05
-1.29951e-07
1.99062e-05
-1.36839e-07
1.99014e-05
-1.44e-07
1.98964e-05
-1.51437e-07
1.98912e-05
-1.59155e-07
1.98859e-05
-1.67157e-07
1.98804e-05
-1.75445e-07
1.98747e-05
-1.84021e-07
1.98689e-05
-1.92885e-07
1.98629e-05
-2.02037e-07
1.98568e-05
-2.11472e-07
1.98505e-05
-2.21187e-07
1.98441e-05
-2.31174e-07
1.98375e-05
-2.4142e-07
1.98309e-05
-2.5191e-07
1.98242e-05
-2.62624e-07
1.98174e-05
-2.73534e-07
1.98106e-05
-2.84603e-07
1.98037e-05
-2.95785e-07
1.97968e-05
-3.07019e-07
1.979e-05
-3.18227e-07
1.97832e-05
-3.2931e-07
1.97764e-05
-3.40138e-07
1.97698e-05
-3.50549e-07
1.97632e-05
-3.60328e-07
1.97567e-05
-3.69202e-07
1.97504e-05
-3.7681e-07
1.97441e-05
-3.82691e-07
-3.86192e-07
2e-05
-2.12397e-11
2e-05
-6.76983e-11
2e-05
-1.20449e-10
1.99999e-05
-1.80972e-10
1.99999e-05
-2.49336e-10
1.99998e-05
-3.25608e-10
1.99998e-05
-4.10111e-10
1.99997e-05
-5.03368e-10
1.99997e-05
-6.06062e-10
1.99996e-05
-7.18998e-10
1.99995e-05
-8.43089e-10
1.99994e-05
-9.79331e-10
1.99993e-05
-1.1288e-09
1.99992e-05
-1.29265e-09
1.9999e-05
-1.4721e-09
1.99989e-05
-1.66844e-09
1.99987e-05
-1.88304e-09
1.99985e-05
-2.11732e-09
1.99983e-05
-2.3728e-09
1.99981e-05
-2.65108e-09
1.99979e-05
-2.95382e-09
1.99977e-05
-3.28278e-09
1.99974e-05
-3.63981e-09
1.99971e-05
-4.02685e-09
1.99968e-05
-4.44593e-09
1.99965e-05
-4.89918e-09
1.99961e-05
-5.38884e-09
1.99957e-05
-5.91725e-09
1.99953e-05
-6.48686e-09
1.99949e-05
-7.10023e-09
1.99944e-05
-7.76004e-09
1.99939e-05
-8.46908e-09
1.99934e-05
-9.23028e-09
1.99928e-05
-1.00467e-08
1.99921e-05
-1.09214e-08
1.99915e-05
-1.18578e-08
1.99908e-05
-1.28593e-08
1.999e-05
-1.39294e-08
1.99892e-05
-1.50719e-08
1.99883e-05
-1.62906e-08
1.99874e-05
-1.75895e-08
1.99864e-05
-1.89726e-08
1.99854e-05
-2.04443e-08
1.99843e-05
-2.20089e-08
1.99831e-05
-2.3671e-08
1.99819e-05
-2.54354e-08
1.99806e-05
-2.73067e-08
1.99792e-05
-2.929e-08
1.99777e-05
-3.13904e-08
1.99762e-05
-3.36132e-08
1.99745e-05
-3.59637e-08
1.99728e-05
-3.84475e-08
1.9971e-05
-4.10702e-08
1.9969e-05
-4.38376e-08
1.9967e-05
-4.67556e-08
1.99648e-05
-4.98302e-08
1.99626e-05
-5.30676e-08
1.99602e-05
-5.64739e-08
1.99577e-05
-6.00555e-08
1.99551e-05
-6.38187e-08
1.99524e-05
-6.77702e-08
1.99495e-05
-7.19163e-08
1.99465e-05
-7.62637e-08
1.99433e-05
-8.0819e-08
1.994e-05
-8.55888e-08
1.99366e-05
-9.05798e-08
1.9933e-05
-9.57985e-08
1.99292e-05
-1.01252e-07
1.99253e-05
-1.06946e-07
1.99212e-05
-1.12887e-07
1.99169e-05
-1.19081e-07
1.99125e-05
-1.25535e-07
1.99079e-05
-1.32254e-07
1.99032e-05
-1.39244e-07
1.98983e-05
-1.4651e-07
1.98932e-05
-1.54056e-07
1.98879e-05
-1.61887e-07
1.98824e-05
-1.70006e-07
1.98768e-05
-1.78415e-07
1.98711e-05
-1.87116e-07
1.98651e-05
-1.96109e-07
1.98591e-05
-2.05392e-07
1.98528e-05
-2.14961e-07
1.98465e-05
-2.2481e-07
1.984e-05
-2.3493e-07
1.98334e-05
-2.45306e-07
1.98267e-05
-2.55919e-07
1.98199e-05
-2.66743e-07
1.9813e-05
-2.77743e-07
1.98061e-05
-2.88875e-07
1.97992e-05
-3.00077e-07
1.97922e-05
-3.11274e-07
1.97853e-05
-3.22365e-07
1.97784e-05
-3.33221e-07
1.97715e-05
-3.43674e-07
1.97647e-05
-3.53509e-07
1.97579e-05
-3.62445e-07
1.97512e-05
-3.70116e-07
1.97446e-05
-3.76053e-07
-3.79501e-07
2e-05
-1.74918e-11
2e-05
-5.61787e-11
2e-05
-1.00998e-10
1.99999e-05
-1.5351e-10
1.99999e-05
-2.13816e-10
1.99999e-05
-2.81967e-10
1.99998e-05
-3.58241e-10
1.99997e-05
-4.43093e-10
1.99997e-05
-5.3713e-10
1.99996e-05
-6.4108e-10
1.99995e-05
-7.55777e-10
1.99994e-05
-8.82144e-10
1.99993e-05
-1.02119e-09
1.99992e-05
-1.17399e-09
1.99991e-05
-1.3417e-09
1.99989e-05
-1.52556e-09
1.99988e-05
-1.72685e-09
1.99986e-05
-1.94696e-09
1.99984e-05
-2.18734e-09
1.99982e-05
-2.44952e-09
1.9998e-05
-2.73509e-09
1.99977e-05
-3.04577e-09
1.99975e-05
-3.38333e-09
1.99972e-05
-3.74964e-09
1.99969e-05
-4.14667e-09
1.99966e-05
-4.57648e-09
1.99962e-05
-5.04123e-09
1.99959e-05
-5.54318e-09
1.99955e-05
-6.08472e-09
1.9995e-05
-6.66833e-09
1.99946e-05
-7.29659e-09
1.99941e-05
-7.97223e-09
1.99935e-05
-8.69807e-09
1.9993e-05
-9.47707e-09
1.99924e-05
-1.03123e-08
1.99917e-05
-1.1207e-08
1.9991e-05
-1.21645e-08
1.99903e-05
-1.31882e-08
1.99895e-05
-1.42817e-08
1.99886e-05
-1.54489e-08
1.99877e-05
-1.66935e-08
1.99868e-05
-1.80197e-08
1.99858e-05
-1.94314e-08
1.99847e-05
-2.09332e-08
1.99836e-05
-2.25293e-08
1.99824e-05
-2.42244e-08
1.99811e-05
-2.60232e-08
1.99797e-05
-2.79307e-08
1.99783e-05
-2.99517e-08
1.99768e-05
-3.20915e-08
1.99751e-05
-3.43554e-08
1.99734e-05
-3.67488e-08
1.99717e-05
-3.92772e-08
1.99698e-05
-4.19465e-08
1.99678e-05
-4.47623e-08
1.99657e-05
-4.77307e-08
1.99635e-05
-5.08578e-08
1.99611e-05
-5.41496e-08
1.99587e-05
-5.76126e-08
1.99561e-05
-6.1253e-08
1.99534e-05
-6.50774e-08
1.99506e-05
-6.90923e-08
1.99476e-05
-7.33044e-08
1.99446e-05
-7.77203e-08
1.99413e-05
-8.23466e-08
1.99379e-05
-8.71903e-08
1.99344e-05
-9.2258e-08
1.99307e-05
-9.75564e-08
1.99268e-05
-1.03092e-07
1.99228e-05
-1.08872e-07
1.99186e-05
-1.14903e-07
1.99143e-05
-1.2119e-07
1.99098e-05
-1.27741e-07
1.99051e-05
-1.3456e-07
1.99002e-05
-1.41655e-07
1.98952e-05
-1.49029e-07
1.989e-05
-1.56689e-07
1.98846e-05
-1.64637e-07
1.98791e-05
-1.72877e-07
1.98734e-05
-1.81412e-07
1.98675e-05
-1.90242e-07
1.98615e-05
-1.99368e-07
1.98553e-05
-2.08786e-07
1.9849e-05
-2.18491e-07
1.98426e-05
-2.28475e-07
1.9836e-05
-2.38726e-07
1.98293e-05
-2.49225e-07
1.98225e-05
-2.59948e-07
1.98156e-05
-2.70862e-07
1.98087e-05
-2.81922e-07
1.98017e-05
-2.93069e-07
1.97946e-05
-3.04226e-07
1.97875e-05
-3.15294e-07
1.97805e-05
-3.26142e-07
1.97734e-05
-3.366e-07
1.97663e-05
-3.4645e-07
1.97593e-05
-3.55409e-07
1.97523e-05
-3.63108e-07
1.97453e-05
-3.69077e-07
-3.72509e-07
2e-05
-1.40429e-11
2e-05
-4.55231e-11
2e-05
-8.29244e-11
1.99999e-05
-1.27859e-10
1.99999e-05
-1.80457e-10
1.99999e-05
-2.40769e-10
1.99998e-05
-3.09045e-10
1.99998e-05
-3.85694e-10
1.99997e-05
-4.71262e-10
1.99996e-05
-5.66412e-10
1.99995e-05
-6.7191e-10
1.99994e-05
-7.88612e-10
1.99993e-05
-9.17457e-10
1.99992e-05
-1.05946e-09
1.99991e-05
-1.21572e-09
1.9999e-05
-1.38739e-09
1.99988e-05
-1.57573e-09
1.99986e-05
-1.78203e-09
1.99985e-05
-2.00769e-09
1.99983e-05
-2.25418e-09
1.99981e-05
-2.52304e-09
1.99978e-05
-2.81591e-09
1.99976e-05
-3.1345e-09
1.99973e-05
-3.48062e-09
1.9997e-05
-3.85616e-09
1.99967e-05
-4.26312e-09
1.99964e-05
-4.70359e-09
1.9996e-05
-5.17976e-09
1.99956e-05
-5.69393e-09
1.99952e-05
-6.2485e-09
1.99947e-05
-6.846e-09
1.99943e-05
-7.48904e-09
1.99937e-05
-8.18038e-09
1.99932e-05
-8.92288e-09
1.99926e-05
-9.71954e-09
1.9992e-05
-1.05735e-08
1.99913e-05
-1.14879e-08
1.99906e-05
-1.24662e-08
1.99898e-05
-1.3512e-08
1.9989e-05
-1.46288e-08
1.99881e-05
-1.58204e-08
1.99872e-05
-1.70907e-08
1.99862e-05
-1.84439e-08
1.99851e-05
-1.9884e-08
1.9984e-05
-2.14155e-08
1.99828e-05
-2.30428e-08
1.99816e-05
-2.47707e-08
1.99803e-05
-2.66037e-08
1.99789e-05
-2.85469e-08
1.99774e-05
-3.06054e-08
1.99758e-05
-3.27843e-08
1.99741e-05
-3.5089e-08
1.99724e-05
-3.75249e-08
1.99705e-05
-4.00978e-08
1.99686e-05
-4.28133e-08
1.99665e-05
-4.56774e-08
1.99644e-05
-4.8696e-08
1.99621e-05
-5.18753e-08
1.99597e-05
-5.52215e-08
1.99572e-05
-5.87411e-08
1.99546e-05
-6.24404e-08
1.99518e-05
-6.63261e-08
1.99489e-05
-7.04048e-08
1.99459e-05
-7.46831e-08
1.99427e-05
-7.91679e-08
1.99394e-05
-8.38661e-08
1.99359e-05
-8.87844e-08
1.99323e-05
-9.39297e-08
1.99285e-05
-9.93091e-08
1.99245e-05
-1.04929e-07
1.99204e-05
-1.10797e-07
1.99161e-05
-1.16919e-07
1.99117e-05
-1.23302e-07
1.99071e-05
-1.29952e-07
1.99023e-05
-1.36875e-07
1.98974e-05
-1.44077e-07
1.98922e-05
-1.51564e-07
1.98869e-05
-1.5934e-07
1.98815e-05
-1.6741e-07
1.98758e-05
-1.75776e-07
1.987e-05
-1.8444e-07
1.98641e-05
-1.93403e-07
1.9858e-05
-2.02663e-07
1.98517e-05
-2.12217e-07
1.98453e-05
-2.22057e-07
1.98387e-05
-2.32171e-07
1.9832e-05
-2.42544e-07
1.98252e-05
-2.53151e-07
1.98183e-05
-2.6396e-07
1.98113e-05
-2.74927e-07
1.98043e-05
-2.85996e-07
1.97971e-05
-2.97088e-07
1.97899e-05
-3.08103e-07
1.97827e-05
-3.18911e-07
1.97754e-05
-3.2934e-07
1.97682e-05
-3.39171e-07
1.97609e-05
-3.48119e-07
1.97536e-05
-3.55815e-07
1.97463e-05
-3.61794e-07
-3.65224e-07
2e-05
-1.08602e-11
2e-05
-3.56494e-11
2e-05
-6.61291e-11
1.99999e-05
-1.03926e-10
1.99999e-05
-1.4919e-10
1.99999e-05
-2.01983e-10
1.99998e-05
-2.62537e-10
1.99998e-05
-3.3123e-10
1.99997e-05
-4.08561e-10
1.99996e-05
-4.95138e-10
1.99996e-05
-5.91669e-10
1.99995e-05
-6.98949e-10
1.99994e-05
-8.17855e-10
1.99993e-05
-9.49344e-10
1.99991e-05
-1.09445e-09
1.9999e-05
-1.25427e-09
1.99989e-05
-1.42999e-09
1.99987e-05
-1.62286e-09
1.99985e-05
-1.83421e-09
1.99983e-05
-2.06546e-09
1.99981e-05
-2.31807e-09
1.99979e-05
-2.59363e-09
1.99977e-05
-2.89378e-09
1.99974e-05
-3.22027e-09
1.99971e-05
-3.57492e-09
1.99968e-05
-3.95966e-09
1.99965e-05
-4.37651e-09
1.99961e-05
-4.82759e-09
1.99958e-05
-5.31511e-09
1.99954e-05
-5.84142e-09
1.99949e-05
-6.40894e-09
1.99945e-05
-7.02023e-09
1.9994e-05
-7.67795e-09
1.99934e-05
-8.38488e-09
1.99928e-05
-9.14392e-09
1.99922e-05
-9.95811e-09
1.99916e-05
-1.08306e-08
1.99909e-05
-1.17646e-08
1.99901e-05
-1.27637e-08
1.99893e-05
-1.38313e-08
1.99885e-05
-1.49711e-08
1.99876e-05
-1.61869e-08
1.99866e-05
-1.74828e-08
1.99856e-05
-1.88627e-08
1.99845e-05
-2.0331e-08
1.99833e-05
-2.18921e-08
1.99821e-05
-2.35504e-08
1.99808e-05
-2.53106e-08
1.99795e-05
-2.71777e-08
1.9978e-05
-2.91564e-08
1.99765e-05
-3.12521e-08
1.99749e-05
-3.34698e-08
1.99732e-05
-3.58151e-08
1.99714e-05
-3.82934e-08
1.99694e-05
-4.09104e-08
1.99674e-05
-4.36721e-08
1.99653e-05
-4.65842e-08
1.99631e-05
-4.96529e-08
1.99608e-05
-5.28845e-08
1.99583e-05
-5.62851e-08
1.99557e-05
-5.98614e-08
1.9953e-05
-6.36198e-08
1.99502e-05
-6.7567e-08
1.99472e-05
-7.17098e-08
1.99441e-05
-7.60549e-08
1.99409e-05
-8.06094e-08
1.99374e-05
-8.53801e-08
1.99339e-05
-9.03741e-08
1.99302e-05
-9.55984e-08
1.99263e-05
-1.0106e-07
1.99223e-05
-1.06766e-07
1.99181e-05
-1.12724e-07
1.99137e-05
-1.18939e-07
1.99092e-05
-1.2542e-07
1.99045e-05
-1.32172e-07
1.98996e-05
-1.39202e-07
1.98946e-05
-1.46515e-07
1.98893e-05
-1.54118e-07
1.98839e-05
-1.62014e-07
1.98784e-05
-1.70208e-07
1.98726e-05
-1.78702e-07
1.98667e-05
-1.87498e-07
1.98607e-05
-1.96594e-07
1.98544e-05
-2.05989e-07
1.98481e-05
-2.15675e-07
1.98415e-05
-2.25642e-07
1.98349e-05
-2.35875e-07
1.98281e-05
-2.46351e-07
1.98211e-05
-2.57038e-07
1.98141e-05
-2.67894e-07
1.9807e-05
-2.78862e-07
1.97997e-05
-2.89864e-07
1.97924e-05
-3.008e-07
1.97851e-05
-3.11539e-07
1.97776e-05
-3.21909e-07
1.97702e-05