/*--------------------------------*- C++ -*----------------------------------*\
  =========                 |
  \\      /  F ield         | OpenFOAM: The Open Source CFD Toolbox
   \\    /   O peration     | Website:  https://openfoam.org
    \\  /    A nd           | Version:  11
     \\/     M anipulation  |
\*---------------------------------------------------------------------------*/
FoamFile
{
    format      ascii;
    class       volScalarField;
    location    "594";
    object      nut;
}
// * * * * * * * * * * * * * * * * * * * * * * * * * * * * * * * * * * * * * //

dimensions      [0 2 -1 0 0 0 0];

internalField   nonuniform List<scalar> 
10000
(
0.000977118
0.00093671
0.000899655
0.000865634
0.000834359
0.000805572
0.000779041
0.000754557
0.000731933
0.000711
0.000691605
0.000673611
0.000656896
0.000641346
0.000626862
0.000613353
0.000600737
0.000588938
0.00057789
0.000567532
0.000557807
0.000548667
0.000540064
0.000531958
0.00052431
0.000517086
0.000510255
0.000503786
0.000497655
0.000491837
0.000486309
0.000481052
0.000476047
0.000471277
0.000466725
0.000462378
0.000458221
0.000454243
0.000450432
0.000446777
0.000443269
0.000439899
0.000436657
0.000433537
0.000430531
0.000427632
0.000424834
0.000422131
0.000419518
0.00041699
0.000414542
0.000412169
0.000409868
0.000407635
0.000405468
0.000403361
0.000401314
0.000399323
0.000397386
0.000395502
0.000393669
0.000391884
0.000390149
0.000388461
0.00038682
0.000385226
0.000383681
0.000382183
0.000380736
0.000379339
0.000377996
0.000376709
0.00037548
0.000374314
0.000373214
0.000372186
0.000371235
0.000370366
0.000369586
0.000368903
0.000368323
0.000367854
0.000367506
0.000367286
0.000367204
0.000367267
0.000367483
0.000367858
0.000368398
0.000369104
0.000369975
0.000371004
0.000372177
0.000373472
0.000374853
0.000376267
0.000377639
0.000378867
0.00037981
0.000380307
0.000977118
0.00093671
0.000899655
0.000865634
0.000834359
0.000805572
0.000779041
0.000754557
0.000731933
0.000711
0.000691605
0.000673611
0.000656896
0.000641346
0.000626863
0.000613353
0.000600737
0.000588938
0.00057789
0.000567532
0.000557808
0.000548667
0.000540064
0.000531958
0.000524311
0.000517087
0.000510255
0.000503787
0.000497656
0.000491837
0.00048631
0.000481053
0.000476048
0.000471277
0.000466726
0.000462378
0.000458222
0.000454244
0.000450433
0.000446778
0.00044327
0.0004399
0.000436658
0.000433538
0.000430532
0.000427633
0.000424835
0.000422132
0.000419519
0.000416991
0.000414543
0.00041217
0.000409869
0.000407637
0.000405469
0.000403363
0.000401315
0.000399325
0.000397388
0.000395504
0.00039367
0.000391886
0.00039015
0.000388462
0.000386822
0.000385228
0.000383683
0.000382185
0.000380738
0.000379341
0.000377998
0.000376711
0.000375482
0.000374316
0.000373216
0.000372188
0.000371237
0.000370368
0.000369588
0.000368904
0.000368324
0.000367855
0.000367507
0.000367287
0.000367204
0.000367267
0.000367482
0.000367857
0.000368396
0.000369102
0.000369972
0.000371
0.000372174
0.000373468
0.000374849
0.000376262
0.000377634
0.000378861
0.000379805
0.000380301
0.000977118
0.00093671
0.000899655
0.000865634
0.000834359
0.000805572
0.000779041
0.000754557
0.000731933
0.000711
0.000691605
0.000673612
0.000656896
0.000641347
0.000626863
0.000613354
0.000600737
0.000588939
0.000577891
0.000567532
0.000557808
0.000548668
0.000540065
0.000531959
0.000524311
0.000517087
0.000510256
0.000503788
0.000497656
0.000491838
0.000486311
0.000481054
0.000476049
0.000471278
0.000466727
0.000462379
0.000458223
0.000454245
0.000450434
0.00044678
0.000443272
0.000439901
0.00043666
0.00043354
0.000430534
0.000427635
0.000424837
0.000422134
0.000419522
0.000416993
0.000414545
0.000412173
0.000409872
0.000407639
0.000405472
0.000403365
0.000401318
0.000399328
0.000397391
0.000395507
0.000393673
0.000391889
0.000390154
0.000388466
0.000386825
0.000385232
0.000383686
0.000382189
0.000380741
0.000379345
0.000378002
0.000376714
0.000375486
0.000374319
0.00037322
0.000372191
0.00037124
0.00037037
0.00036959
0.000368906
0.000368325
0.000367856
0.000367507
0.000367287
0.000367203
0.000367265
0.00036748
0.000367854
0.000368392
0.000369097
0.000369966
0.000370994
0.000372166
0.00037346
0.000374839
0.000376252
0.000377623
0.00037885
0.000379793
0.000380289
0.000977118
0.00093671
0.000899655
0.000865634
0.000834359
0.000805572
0.000779041
0.000754558
0.000731934
0.000711
0.000691605
0.000673612
0.000656896
0.000641347
0.000626863
0.000613354
0.000600738
0.000588939
0.000577891
0.000567533
0.000557809
0.000548668
0.000540066
0.00053196
0.000524312
0.000517088
0.000510257
0.000503789
0.000497658
0.00049184
0.000486312
0.000481055
0.00047605
0.00047128
0.000466728
0.000462381
0.000458225
0.000454247
0.000450436
0.000446782
0.000443274
0.000439904
0.000436662
0.000433543
0.000430537
0.000427638
0.00042484
0.000422138
0.000419525
0.000416997
0.000414548
0.000412176
0.000409876
0.000407643
0.000405475
0.00040337
0.000401322
0.000399332
0.000397396
0.000395512
0.000393678
0.000391894
0.000390159
0.000388471
0.00038683
0.000385237
0.000383692
0.000382194
0.000380747
0.00037935
0.000378007
0.00037672
0.000375491
0.000374324
0.000373225
0.000372196
0.000371244
0.000370374
0.000369594
0.000368909
0.000368328
0.000367858
0.000367508
0.000367287
0.000367202
0.000367263
0.000367477
0.00036785
0.000368386
0.00036909
0.000369957
0.000370984
0.000372154
0.000373447
0.000374825
0.000376237
0.000377607
0.000378833
0.000379775
0.000380271
0.000977118
0.00093671
0.000899655
0.000865634
0.000834359
0.000805572
0.000779041
0.000754558
0.000731934
0.000711001
0.000691606
0.000673612
0.000656897
0.000641348
0.000626864
0.000613355
0.000600739
0.00058894
0.000577892
0.000567534
0.00055781
0.000548669
0.000540067
0.000531961
0.000524313
0.00051709
0.000510258
0.00050379
0.000497659
0.000491841
0.000486314
0.000481057
0.000476052
0.000471282
0.000466731
0.000462384
0.000458227
0.00045425
0.000450439
0.000446785
0.000443277
0.000439907
0.000436666
0.000433546
0.00043054
0.000427642
0.000424844
0.000422142
0.000419529
0.000417001
0.000414553
0.000412181
0.00040988
0.000407648
0.000405481
0.000403375
0.000401328
0.000399338
0.000397401
0.000395518
0.000393684
0.000391901
0.000390165
0.000388478
0.000386837
0.000385244
0.000383699
0.000382201
0.000380754
0.000379357
0.000378014
0.000376727
0.000375498
0.000374331
0.000373231
0.000372202
0.00037125
0.00037038
0.000369598
0.000368913
0.000368331
0.000367861
0.00036751
0.000367287
0.000367201
0.000367261
0.000367473
0.000367844
0.000368379
0.00036908
0.000369946
0.00037097
0.000372139
0.00037343
0.000374806
0.000376217
0.000377586
0.00037881
0.000379752
0.000380248
0.000977118
0.00093671
0.000899655
0.000865634
0.000834359
0.000805572
0.000779042
0.000754558
0.000731934
0.000711001
0.000691606
0.000673613
0.000656897
0.000641348
0.000626865
0.000613356
0.000600739
0.000588941
0.000577893
0.000567535
0.000557811
0.000548671
0.000540068
0.000531962
0.000524315
0.000517091
0.00051026
0.000503792
0.000497661
0.000491843
0.000486316
0.00048106
0.000476055
0.000471285
0.000466733
0.000462386
0.00045823
0.000454253
0.000450442
0.000446788
0.000443281
0.000439911
0.00043667
0.00043355
0.000430544
0.000427646
0.000424849
0.000422146
0.000419534
0.000417006
0.000414559
0.000412187
0.000409886
0.000407654
0.000405487
0.000403382
0.000401335
0.000399345
0.000397409
0.000395525
0.000393692
0.000391909
0.000390173
0.000388486
0.000386846
0.000385253
0.000383707
0.00038221
0.000380763
0.000379366
0.000378023
0.000376735
0.000375506
0.00037434
0.000373239
0.00037221
0.000371257
0.000370386
0.000369604
0.000368918
0.000368335
0.000367863
0.000367511
0.000367287
0.0003672
0.000367257
0.000367468
0.000367837
0.00036837
0.000369069
0.000369932
0.000370954
0.000372121
0.000373409
0.000374784
0.000376192
0.000377559
0.000378783
0.000379724
0.000380219
0.000977118
0.00093671
0.000899655
0.000865634
0.000834359
0.000805573
0.000779042
0.000754559
0.000731935
0.000711002
0.000691607
0.000673614
0.000656898
0.000641349
0.000626865
0.000613357
0.00060074
0.000588942
0.000577894
0.000567536
0.000557812
0.000548672
0.00054007
0.000531964
0.000524317
0.000517093
0.000510262
0.000503794
0.000497664
0.000491846
0.000486319
0.000481062
0.000476058
0.000471288
0.000466737
0.00046239
0.000458234
0.000454257
0.000450446
0.000446792
0.000443285
0.000439915
0.000436674
0.000433555
0.00043055
0.000427652
0.000424854
0.000422152
0.00041954
0.000417013
0.000414565
0.000412193
0.000409893
0.000407662
0.000405495
0.000403389
0.000401343
0.000399353
0.000397417
0.000395534
0.000393701
0.000391918
0.000390183
0.000388496
0.000386856
0.000385263
0.000383718
0.000382221
0.000380773
0.000379377
0.000378033
0.000376746
0.000375516
0.000374349
0.000373249
0.000372219
0.000371266
0.000370394
0.000369611
0.000368924
0.00036834
0.000367867
0.000367513
0.000367288
0.000367199
0.000367254
0.000367462
0.000367829
0.000368359
0.000369055
0.000369916
0.000370935
0.000372099
0.000373385
0.000374757
0.000376163
0.000377528
0.00037875
0.00037969
0.000380184
0.000977118
0.00093671
0.000899655
0.000865634
0.00083436
0.000805573
0.000779042
0.000754559
0.000731935
0.000711002
0.000691607
0.000673614
0.000656899
0.00064135
0.000626866
0.000613358
0.000600742
0.000588943
0.000577896
0.000567538
0.000557814
0.000548674
0.000540072
0.000531966
0.000524319
0.000517096
0.000510264
0.000503797
0.000497666
0.000491849
0.000486322
0.000481066
0.000476061
0.000471291
0.00046674
0.000462394
0.000458238
0.000454261
0.000450451
0.000446797
0.00044329
0.00043992
0.00043668
0.000433561
0.000430556
0.000427658
0.000424861
0.000422159
0.000419547
0.00041702
0.000414573
0.000412201
0.000409902
0.00040767
0.000405503
0.000403398
0.000401352
0.000399363
0.000397427
0.000395544
0.000393712
0.000391929
0.000390194
0.000388507
0.000386867
0.000385274
0.000383729
0.000382233
0.000380785
0.000379389
0.000378045
0.000376758
0.000375528
0.000374361
0.00037326
0.00037223
0.000371276
0.000370403
0.00036962
0.000368931
0.000368346
0.000367871
0.000367516
0.000367288
0.000367197
0.00036725
0.000367456
0.00036782
0.000368347
0.00036904
0.000369898
0.000370914
0.000372075
0.000373357
0.000374727
0.00037613
0.000377493
0.000378713
0.000379651
0.000380145
0.000977118
0.00093671
0.000899655
0.000865634
0.00083436
0.000805573
0.000779043
0.000754559
0.000731936
0.000711003
0.000691608
0.000673615
0.0006569
0.000641351
0.000626867
0.000613359
0.000600743
0.000588945
0.000577897
0.000567539
0.000557816
0.000548676
0.000540074
0.000531968
0.000524321
0.000517098
0.000510267
0.0005038
0.000497669
0.000491852
0.000486325
0.000481069
0.000476065
0.000471295
0.000466745
0.000462398
0.000458243
0.000454266
0.000450456
0.000446802
0.000443295
0.000439926
0.000436686
0.000433567
0.000430562
0.000427665
0.000424868
0.000422167
0.000419555
0.000417028
0.000414581
0.00041221
0.000409911
0.00040768
0.000405513
0.000403409
0.000401363
0.000399373
0.000397438
0.000395556
0.000393724
0.000391941
0.000390206
0.00038852
0.00038688
0.000385288
0.000383743
0.000382246
0.000380799
0.000379402
0.000378059
0.000376771
0.000375542
0.000374374
0.000373272
0.000372242
0.000371287
0.000370414
0.000369629
0.000368939
0.000368353
0.000367876
0.000367519
0.000367289
0.000367196
0.000367246
0.000367449
0.00036781
0.000368334
0.000369024
0.000369878
0.000370891
0.000372048
0.000373327
0.000374693
0.000376093
0.000377454
0.000378671
0.000379608
0.000380101
0.000977118
0.00093671
0.000899655
0.000865634
0.00083436
0.000805573
0.000779043
0.00075456
0.000731936
0.000711003
0.000691609
0.000673616
0.000656901
0.000641352
0.000626869
0.00061336
0.000600744
0.000588946
0.000577899
0.000567541
0.000557818
0.000548678
0.000540076
0.000531971
0.000524324
0.000517101
0.00051027
0.000503803
0.000497673
0.000491855
0.000486329
0.000481073
0.000476069
0.0004713
0.000466749
0.000462403
0.000458248
0.000454271
0.000450461
0.000446808
0.000443302
0.000439933
0.000436693
0.000433574
0.00043057
0.000427672
0.000424876
0.000422175
0.000419564
0.000417037
0.00041459
0.00041222
0.000409921
0.00040769
0.000405524
0.00040342
0.000401374
0.000399385
0.000397451
0.000395568
0.000393737
0.000391954
0.00039022
0.000388534
0.000386894
0.000385302
0.000383757
0.000382261
0.000380814
0.000379418
0.000378074
0.000376786
0.000375556
0.000374388
0.000373286
0.000372255
0.000371299
0.000370425
0.00036964
0.000368949
0.00036836
0.000367882
0.000367523
0.000367291
0.000367195
0.000367242
0.000367442
0.000367799
0.00036832
0.000369006
0.000369857
0.000370865
0.000372018
0.000373294
0.000374656
0.000376053
0.00037741
0.000378626
0.000379561
0.000380053
0.000977118
0.00093671
0.000899655
0.000865635
0.00083436
0.000805574
0.000779043
0.00075456
0.000731937
0.000711004
0.00069161
0.000673617
0.000656902
0.000641353
0.00062687
0.000613361
0.000600746
0.000588948
0.000577901
0.000567543
0.00055782
0.00054868
0.000540078
0.000531973
0.000524327
0.000517104
0.000510273
0.000503806
0.000497676
0.000491859
0.000486333
0.000481077
0.000476073
0.000471304
0.000466754
0.000462408
0.000458253
0.000454277
0.000450467
0.000446814
0.000443308
0.00043994
0.0004367
0.000433582
0.000430577
0.000427681
0.000424885
0.000422184
0.000419573
0.000417047
0.000414601
0.00041223
0.000409932
0.000407701
0.000405536
0.000403432
0.000401387
0.000399398
0.000397464
0.000395582
0.000393751
0.000391969
0.000390235
0.000388549
0.00038691
0.000385318
0.000383774
0.000382277
0.00038083
0.000379434
0.000378091
0.000376802
0.000375572
0.000374404
0.000373302
0.00037227
0.000371313
0.000370438
0.000369651
0.000368959
0.000368369
0.000367889
0.000367527
0.000367293
0.000367194
0.000367238
0.000367434
0.000367788
0.000368305
0.000368987
0.000369833
0.000370838
0.000371987
0.000373258
0.000374616
0.000376009
0.000377364
0.000378577
0.00037951
0.000380001
0.000977118
0.00093671
0.000899656
0.000865635
0.00083436
0.000805574
0.000779044
0.000754561
0.000731937
0.000711004
0.00069161
0.000673617
0.000656903
0.000641354
0.000626871
0.000613363
0.000600747
0.000588949
0.000577902
0.000567545
0.000557822
0.000548682
0.000540081
0.000531976
0.000524329
0.000517107
0.000510276
0.00050381
0.00049768
0.000491863
0.000486337
0.000481082
0.000476078
0.000471309
0.000466759
0.000462414
0.000458259
0.000454283
0.000450474
0.000446821
0.000443315
0.000439947
0.000436708
0.00043359
0.000430586
0.000427689
0.000424894
0.000422194
0.000419583
0.000417057
0.000414611
0.000412242
0.000409944
0.000407714
0.000405548
0.000403445
0.0004014
0.000399412
0.000397479
0.000395597
0.000393766
0.000391984
0.000390251
0.000388565
0.000386927
0.000385335
0.000383791
0.000382295
0.000380848
0.000379452
0.000378108
0.00037682
0.00037559
0.000374421
0.000373318
0.000372285
0.000371328
0.000370452
0.000369664
0.00036897
0.000368378
0.000367896
0.000367532
0.000367295
0.000367193
0.000367234
0.000367426
0.000367777
0.000368289
0.000368967
0.000369809
0.000370809
0.000371953
0.00037322
0.000374574
0.000375963
0.000377314
0.000378524
0.000379456
0.000379946
0.000977118
0.00093671
0.000899656
0.000865635
0.000834361
0.000805574
0.000779044
0.000754561
0.000731938
0.000711005
0.000691611
0.000673618
0.000656904
0.000641355
0.000626872
0.000613364
0.000600749
0.000588951
0.000577904
0.000567547
0.000557824
0.000548685
0.000540084
0.000531979
0.000524332
0.00051711
0.00051028
0.000503813
0.000497684
0.000491867
0.000486342
0.000481087
0.000476083
0.000471315
0.000466765
0.00046242
0.000458265
0.000454289
0.000450481
0.000446829
0.000443323
0.000439955
0.000436716
0.000433599
0.000430595
0.000427699
0.000424904
0.000422204
0.000419594
0.000417068
0.000414623
0.000412254
0.000409956
0.000407727
0.000405562
0.000403459
0.000401415
0.000399427
0.000397494
0.000395613
0.000393782
0.000392001
0.000390268
0.000388583
0.000386945
0.000385353
0.000383809
0.000382314
0.000380867
0.000379471
0.000378127
0.000376839
0.000375608
0.000374439
0.000373336
0.000372302
0.000371344
0.000370467
0.000369677
0.000368982
0.000368388
0.000367904
0.000367537
0.000367297
0.000367192
0.00036723
0.000367419
0.000367765
0.000368273
0.000368946
0.000369783
0.000370778
0.000371918
0.000373179
0.000374529
0.000375914
0.000377261
0.000378468
0.000379398
0.000379887
0.000977118
0.00093671
0.000899656
0.000865635
0.000834361
0.000805575
0.000779044
0.000754562
0.000731938
0.000711006
0.000691612
0.000673619
0.000656905
0.000641356
0.000626874
0.000613366
0.00060075
0.000588953
0.000577906
0.000567549
0.000557826
0.000548687
0.000540086
0.000531982
0.000524336
0.000517113
0.000510284
0.000503817
0.000497688
0.000491872
0.000486346
0.000481092
0.000476089
0.00047132
0.000466771
0.000462426
0.000458272
0.000454296
0.000450488
0.000446836
0.000443331
0.000439963
0.000436725
0.000433608
0.000430605
0.000427709
0.000424914
0.000422215
0.000419605
0.00041708
0.000414635
0.000412266
0.000409969
0.00040774
0.000405576
0.000403474
0.00040143
0.000399443
0.00039751
0.00039563
0.0003938
0.000392019
0.000390286
0.000388601
0.000386964
0.000385373
0.000383829
0.000382333
0.000380887
0.000379491
0.000378147
0.000376859
0.000375628
0.000374459
0.000373355
0.00037232
0.000371361
0.000370483
0.000369692
0.000368995
0.000368399
0.000367912
0.000367543
0.0003673
0.000367192
0.000367226
0.000367411
0.000367753
0.000368256
0.000368925
0.000369757
0.000370746
0.000371881
0.000373137
0.000374482
0.000375863
0.000377206
0.00037841
0.000379337
0.000379826
0.000977118
0.00093671
0.000899656
0.000865635
0.000834361
0.000805575
0.000779045
0.000754562
0.000731939
0.000711006
0.000691613
0.00067362
0.000656906
0.000641357
0.000626875
0.000613367
0.000600752
0.000588955
0.000577908
0.000567552
0.000557829
0.00054869
0.000540089
0.000531985
0.000524339
0.000517117
0.000510287
0.000503821
0.000497692
0.000491876
0.000486351
0.000481097
0.000476094
0.000471326
0.000466777
0.000462432
0.000458279
0.000454304
0.000450496
0.000446844
0.000443339
0.000439972
0.000436734
0.000433617
0.000430615
0.000427719
0.000424925
0.000422226
0.000419617
0.000417092
0.000414648
0.00041228
0.000409983
0.000407755
0.000405591
0.000403489
0.000401446
0.000399459
0.000397527
0.000395647
0.000393818
0.000392037
0.000390305
0.000388621
0.000386983
0.000385393
0.00038385
0.000382354
0.000380908
0.000379512
0.000378168
0.00037688
0.000375649
0.000374479
0.000373374
0.000372339
0.000371379
0.0003705
0.000369707
0.000369008
0.00036841
0.000367922
0.00036755
0.000367304
0.000367192
0.000367222
0.000367403
0.00036774
0.000368239
0.000368903
0.000369729
0.000370714
0.000371842
0.000373094
0.000374433
0.00037581
0.000377149
0.000378349
0.000379274
0.000379761
0.000977118
0.00093671
0.000899656
0.000865635
0.000834361
0.000805575
0.000779045
0.000754562
0.000731939
0.000711007
0.000691613
0.000673621
0.000656907
0.000641359
0.000626876
0.000613369
0.000600754
0.000588957
0.00057791
0.000567554
0.000557831
0.000548693
0.000540092
0.000531988
0.000524342
0.000517121
0.000510291
0.000503826
0.000497697
0.000491881
0.000486356
0.000481102
0.0004761
0.000471332
0.000466783
0.000462439
0.000458286
0.000454311
0.000450503
0.000446852
0.000443348
0.000439981
0.000436743
0.000433627
0.000430625
0.00042773
0.000424936
0.000422238
0.000419629
0.000417105
0.000414661
0.000412293
0.000409997
0.00040777
0.000405606
0.000403505
0.000401463
0.000399477
0.000397545
0.000395665
0.000393836
0.000392057
0.000390325
0.000388641
0.000387004
0.000385414
0.000383871
0.000382376
0.00038093
0.000379534
0.00037819
0.000376902
0.00037567
0.0003745
0.000373395
0.000372359
0.000371398
0.000370518
0.000369723
0.000369023
0.000368423
0.000367932
0.000367557
0.000367308
0.000367192
0.000367219
0.000367395
0.000367728
0.000368222
0.00036888
0.000369701
0.00037068
0.000371803
0.000373049
0.000374383
0.000375755
0.00037709
0.000378287
0.000379209
0.000379695
0.000977118
0.00093671
0.000899656
0.000865635
0.000834361
0.000805575
0.000779045
0.000754563
0.00073194
0.000711008
0.000691614
0.000673622
0.000656908
0.00064136
0.000626878
0.00061337
0.000600755
0.000588959
0.000577913
0.000567556
0.000557834
0.000548695
0.000540095
0.000531991
0.000524346
0.000517124
0.000510295
0.00050383
0.000497701
0.000491886
0.000486362
0.000481108
0.000476106
0.000471338
0.00046679
0.000462446
0.000458293
0.000454319
0.000450511
0.000446861
0.000443357
0.00043999
0.000436753
0.000433637
0.000430636
0.000427741
0.000424948
0.00042225
0.000419642
0.000417118
0.000414675
0.000412308
0.000410012
0.000407785
0.000405622
0.000403522
0.00040148
0.000399494
0.000397563
0.000395684
0.000393856
0.000392077
0.000390346
0.000388662
0.000387025
0.000385436
0.000383893
0.000382398
0.000380952
0.000379557
0.000378213
0.000376924
0.000375693
0.000374522
0.000373417
0.00037238
0.000371418
0.000370536
0.00036974
0.000369038
0.000368436
0.000367942
0.000367565
0.000367312
0.000367193
0.000367216
0.000367388
0.000367716
0.000368205
0.000368857
0.000369673
0.000370646
0.000371763
0.000373003
0.000374332
0.000375698
0.000377029
0.000378222
0.000379142
0.000379627
0.000977118
0.00093671
0.000899656
0.000865636
0.000834362
0.000805576
0.000779046
0.000754563
0.00073194
0.000711008
0.000691615
0.000673623
0.000656909
0.000641361
0.000626879
0.000613372
0.000600757
0.00058896
0.000577915
0.000567558
0.000557836
0.000548698
0.000540098
0.000531995
0.000524349
0.000517128
0.000510299
0.000503834
0.000497706
0.000491891
0.000486367
0.000481113
0.000476112
0.000471345
0.000466797
0.000462453
0.0004583
0.000454326
0.00045052
0.000446869
0.000443366
0.00044
0.000436763
0.000433648
0.000430647
0.000427753
0.00042496
0.000422262
0.000419655
0.000417132
0.000414689
0.000412322
0.000410027
0.000407801
0.000405639
0.000403539
0.000401497
0.000399513
0.000397582
0.000395704
0.000393876
0.000392097
0.000390367
0.000388684
0.000387048
0.000385458
0.000383916
0.000382422
0.000380976
0.00037958
0.000378237
0.000376948
0.000375716
0.000374545
0.000373439
0.000372402
0.000371438
0.000370555
0.000369758
0.000369054
0.000368449
0.000367953
0.000367573
0.000367317
0.000367194
0.000367213
0.00036738
0.000367703
0.000368187
0.000368834
0.000369644
0.000370611
0.000371723
0.000372957
0.00037428
0.000375641
0.000376967
0.000378156
0.000379074
0.000379558
0.000977118
0.00093671
0.000899656
0.000865636
0.000834362
0.000805576
0.000779046
0.000754564
0.000731941
0.000711009
0.000691616
0.000673624
0.00065691
0.000641362
0.00062688
0.000613373
0.000600759
0.000588962
0.000577917
0.000567561
0.000557839
0.000548701
0.000540101
0.000531998
0.000524353
0.000517132
0.000510304
0.000503839
0.000497711
0.000491896
0.000486372
0.000481119
0.000476118
0.000471351
0.000466803
0.00046246
0.000458308
0.000454334
0.000450528
0.000446878
0.000443375
0.00044001
0.000436773
0.000433658
0.000430658
0.000427764
0.000424972
0.000422275
0.000419668
0.000417146
0.000414704
0.000412337
0.000410043
0.000407817
0.000405656
0.000403556
0.000401515
0.000399531
0.000397601
0.000395723
0.000393896
0.000392118
0.000390388
0.000388706
0.00038707
0.000385481
0.000383939
0.000382445
0.000381
0.000379604
0.000378261
0.000376972
0.00037574
0.000374569
0.000373462
0.000372424
0.000371459
0.000370575
0.000369776
0.00036907
0.000368463
0.000367965
0.000367581
0.000367322
0.000367196
0.00036721
0.000367373
0.000367691
0.00036817
0.000368811
0.000369615
0.000370576
0.000371682
0.00037291
0.000374227
0.000375582
0.000376904
0.00037809
0.000379005
0.000379487
0.000977118
0.00093671
0.000899656
0.000865636
0.000834362
0.000805576
0.000779046
0.000754564
0.000731941
0.00071101
0.000691616
0.000673625
0.000656911
0.000641363
0.000626882
0.000613375
0.00060076
0.000588964
0.000577919
0.000567563
0.000557842
0.000548704
0.000540104
0.000532001
0.000524357
0.000517136
0.000510308
0.000503843
0.000497716
0.000491901
0.000486378
0.000481125
0.000476124
0.000471357
0.00046681
0.000462467
0.000458316
0.000454342
0.000450536
0.000446887
0.000443384
0.000440019
0.000436784
0.000433669
0.000430669
0.000427776
0.000424984
0.000422288
0.000419682
0.00041716
0.000414718
0.000412353
0.000410059
0.000407833
0.000405673
0.000403574
0.000401534
0.00039955
0.000397621
0.000395744
0.000393917
0.00039214
0.00039041
0.000388728
0.000387093
0.000385505
0.000383963
0.000382469
0.000381024
0.000379629
0.000378286
0.000376996
0.000375764
0.000374593
0.000373485
0.000372446
0.000371481
0.000370595
0.000369795
0.000369087
0.000368478
0.000367976
0.00036759
0.000367328
0.000367198
0.000367208
0.000367366
0.000367679
0.000368152
0.000368788
0.000369586
0.000370541
0.00037164
0.000372862
0.000374174
0.000375524
0.00037684
0.000378022
0.000378934
0.000379415
0.000977118
0.00093671
0.000899656
0.000865636
0.000834362
0.000805576
0.000779047
0.000754565
0.000731942
0.00071101
0.000691617
0.000673625
0.000656912
0.000641365
0.000626883
0.000613376
0.000600762
0.000588966
0.000577921
0.000567565
0.000557844
0.000548707
0.000540107
0.000532004
0.00052436
0.00051714
0.000510312
0.000503848
0.00049772
0.000491906
0.000486383
0.00048113
0.00047613
0.000471364
0.000466817
0.000462475
0.000458323
0.000454351
0.000450545
0.000446896
0.000443394
0.000440029
0.000436794
0.00043368
0.00043068
0.000427788
0.000424997
0.000422301
0.000419695
0.000417174
0.000414733
0.000412368
0.000410075
0.00040785
0.00040569
0.000403592
0.000401552
0.000399569
0.000397641
0.000395764
0.000393938
0.000392161
0.000390433
0.000388751
0.000387116
0.000385529
0.000383988
0.000382494
0.000381049
0.000379654
0.000378311
0.000377021
0.000375789
0.000374617
0.000373509
0.000372469
0.000371503
0.000370616
0.000369814
0.000369104
0.000368493
0.000367989
0.0003676
0.000367334
0.0003672
0.000367206
0.000367359
0.000367667
0.000368135
0.000368765
0.000369557
0.000370506
0.000371599
0.000372815
0.00037412
0.000375464
0.000376776
0.000377954
0.000378863
0.000379343
0.000977119
0.00093671
0.000899656
0.000865636
0.000834362
0.000805577
0.000779047
0.000754565
0.000731942
0.000711011
0.000691618
0.000673626
0.000656913
0.000641366
0.000626884
0.000613378
0.000600764
0.000588968
0.000577923
0.000567568
0.000557847
0.000548709
0.00054011
0.000532008
0.000524364
0.000517144
0.000510316
0.000503852
0.000497725
0.000491911
0.000486388
0.000481136
0.000476136
0.00047137
0.000466824
0.000462482
0.000458331
0.000454359
0.000450554
0.000446905
0.000443403
0.000440039
0.000436805
0.000433691
0.000430692
0.0004278
0.00042501
0.000422314
0.000419709
0.000417188
0.000414748
0.000412384
0.000410091
0.000407867
0.000405707
0.00040361
0.000401571
0.000399589
0.000397661
0.000395785
0.000393959
0.000392183
0.000390455
0.000388774
0.00038714
0.000385553
0.000384012
0.000382519
0.000381074
0.000379679
0.000378336
0.000377047
0.000375814
0.000374642
0.000373533
0.000372492
0.000371525
0.000370637
0.000369833
0.000369121
0.000368508
0.000368002
0.000367609
0.00036734
0.000367202
0.000367204
0.000367353
0.000367656
0.000368118
0.000368743
0.000369529
0.000370471
0.000371557
0.000372767
0.000374066
0.000375405
0.000376712
0.000377886
0.000378792
0.000379271
0.000977119
0.000936711
0.000899656
0.000865636
0.000834362
0.000805577
0.000779047
0.000754565
0.000731943
0.000711011
0.000691619
0.000673627
0.000656914
0.000641367
0.000626886
0.000613379
0.000600766
0.00058897
0.000577925
0.00056757
0.000557849
0.000548712
0.000540113
0.000532011
0.000524367
0.000517147
0.00051032
0.000503856
0.00049773
0.000491916
0.000486394
0.000481142
0.000476142
0.000471377
0.000466831
0.000462489
0.000458339
0.000454367
0.000450562
0.000446914
0.000443413
0.000440049
0.000436815
0.000433702
0.000430704
0.000427812
0.000425022
0.000422327
0.000419723
0.000417203
0.000414763
0.000412399
0.000410107
0.000407884
0.000405725
0.000403628
0.00040159
0.000399608
0.000397681
0.000395805
0.000393981
0.000392205
0.000390478
0.000388797
0.000387164
0.000385577
0.000384037
0.000382544
0.000381099
0.000379705
0.000378361
0.000377072
0.000375839
0.000374666
0.000373557
0.000372516
0.000371548
0.000370658
0.000369853
0.000369139
0.000368524
0.000368014
0.000367619
0.000367347
0.000367205
0.000367203
0.000367347
0.000367645
0.000368102
0.00036872
0.0003695
0.000370436
0.000371516
0.00037272
0.000374013
0.000375346
0.000376648
0.000377818
0.000378721
0.000379199
0.000977119
0.000936711
0.000899657
0.000865636
0.000834363
0.000805577
0.000779048
0.000754566
0.000731943
0.000711012
0.000691619
0.000673628
0.000656915
0.000641368
0.000626887
0.000613381
0.000600767
0.000588972
0.000577927
0.000567572
0.000557852
0.000548715
0.000540116
0.000532014
0.000524371
0.000517151
0.000510324
0.000503861
0.000497735
0.000491921
0.000486399
0.000481148
0.000476148
0.000471384
0.000466838
0.000462497
0.000458347
0.000454375
0.000450571
0.000446923
0.000443422
0.000440059
0.000436826
0.000433713
0.000430715
0.000427824
0.000425035
0.000422341
0.000419736
0.000417217
0.000414778
0.000412415
0.000410124
0.0004079
0.000405742
0.000403646
0.000401609
0.000399628
0.000397701
0.000395826
0.000394002
0.000392227
0.0003905
0.00038882
0.000387187
0.000385601
0.000384061
0.000382569
0.000381125
0.00037973
0.000378387
0.000377098
0.000375865
0.000374691
0.000373582
0.00037254
0.00037157
0.000370679
0.000369873
0.000369157
0.00036854
0.000368028
0.00036763
0.000367354
0.000367208
0.000367201
0.000367341
0.000367634
0.000368085
0.000368698
0.000369472
0.000370402
0.000371476
0.000372673
0.00037396
0.000375287
0.000376584
0.00037775
0.000378651
0.000379127
0.000977119
0.000936711
0.000899657
0.000865636
0.000834363
0.000805577
0.000779048
0.000754566
0.000731944
0.000711013
0.00069162
0.000673629
0.000656916
0.000641369
0.000626888
0.000613382
0.000600769
0.000588974
0.000577929
0.000567574
0.000557854
0.000548718
0.000540119
0.000532017
0.000524374
0.000517155
0.000510328
0.000503865
0.000497739
0.000491926
0.000486405
0.000481153
0.000476154
0.00047139
0.000466845
0.000462504
0.000458354
0.000454383
0.000450579
0.000446932
0.000443432
0.000440069
0.000436836
0.000433724
0.000430726
0.000427836
0.000425047
0.000422354
0.00041975
0.000417231
0.000414793
0.00041243
0.00041014
0.000407917
0.00040576
0.000403664
0.000401627
0.000399647
0.000397721
0.000395847
0.000394023
0.000392249
0.000390523
0.000388844
0.000387211
0.000385625
0.000384086
0.000382594
0.00038115
0.000379756