/*--------------------------------*- C++ -*----------------------------------*\
  =========                 |
  \\      /  F ield         | OpenFOAM: The Open Source CFD Toolbox
   \\    /   O peration     | Website:  https://openfoam.org
    \\  /    A nd           | Version:  11
     \\/     M anipulation  |
\*---------------------------------------------------------------------------*/
FoamFile
{
    format      ascii;
    class       volScalarField;
    location    "750";
    object      nut;
}
// * * * * * * * * * * * * * * * * * * * * * * * * * * * * * * * * * * * * * //

dimensions      [0 2 -1 0 0 0 0];

internalField   nonuniform List<scalar> 
10000
(
0.000977119
0.000936711
0.000899657
0.000865637
0.000834363
0.000805578
0.000779049
0.000754568
0.000731947
0.000711016
0.000691624
0.000673634
0.000656923
0.000641377
0.000626898
0.000613394
0.000600783
0.00058899
0.000577949
0.000567597
0.00055788
0.000548747
0.000540153
0.000532055
0.000524417
0.000517202
0.000510381
0.000503924
0.000497804
0.000491998
0.000486484
0.00048124
0.000476249
0.000471493
0.000466957
0.000462626
0.000458486
0.000454526
0.000450733
0.000447098
0.000443609
0.000440259
0.000437039
0.00043394
0.000430956
0.00042808
0.000425305
0.000422626
0.000420037
0.000417532
0.000415108
0.000412759
0.000410482
0.000408272
0.000406126
0.00040404
0.000402012
0.000400038
0.000398116
0.000396243
0.000394417
0.000392636
0.000390897
0.0003892
0.000387543
0.000385924
0.000384343
0.000382798
0.000381289
0.000379816
0.000378378
0.000376975
0.000375609
0.000374279
0.000372987
0.000371734
0.000370522
0.000369352
0.000368228
0.000367151
0.000366126
0.000365156
0.000364244
0.000363397
0.000362619
0.000361916
0.000361295
0.00036076
0.000360321
0.000359982
0.000359752
0.000359634
0.000359633
0.000359748
0.000359973
0.000360295
0.000360685
0.000361097
0.000361458
0.000361663
0.000977119
0.000936711
0.000899657
0.000865637
0.000834363
0.000805578
0.000779049
0.000754568
0.000731947
0.000711016
0.000691624
0.000673634
0.000656923
0.000641377
0.000626898
0.000613394
0.000600783
0.00058899
0.000577949
0.000567597
0.00055788
0.000548747
0.000540153
0.000532055
0.000524417
0.000517203
0.000510381
0.000503924
0.000497805
0.000491999
0.000486484
0.000481241
0.00047625
0.000471494
0.000466958
0.000462627
0.000458487
0.000454527
0.000450734
0.000447098
0.00044361
0.00044026
0.00043704
0.000433941
0.000430957
0.000428081
0.000425306
0.000422627
0.000420038
0.000417533
0.000415109
0.00041276
0.000410483
0.000408273
0.000406127
0.000404042
0.000402014
0.00040004
0.000398118
0.000396245
0.000394419
0.000392637
0.000390899
0.000389202
0.000387545
0.000385926
0.000384344
0.0003828
0.000381291
0.000379818
0.00037838
0.000376978
0.000375611
0.000374282
0.00037299
0.000371737
0.000370524
0.000369355
0.00036823
0.000367154
0.000366128
0.000365158
0.000364247
0.0003634
0.000362622
0.000361919
0.000361297
0.000360763
0.000360323
0.000359984
0.000359753
0.000359635
0.000359634
0.000359749
0.000359974
0.000360296
0.000360686
0.000361098
0.000361458
0.000361663
0.000977119
0.000936711
0.000899657
0.000865637
0.000834363
0.000805578
0.000779049
0.000754568
0.000731947
0.000711016
0.000691625
0.000673635
0.000656923
0.000641378
0.000626899
0.000613395
0.000600783
0.000588991
0.000577949
0.000567597
0.00055788
0.000548748
0.000540153
0.000532056
0.000524417
0.000517203
0.000510382
0.000503925
0.000497805
0.000491999
0.000486485
0.000481241
0.00047625
0.000471495
0.000466959
0.000462628
0.000458488
0.000454528
0.000450735
0.0004471
0.000443611
0.000440261
0.000437041
0.000433943
0.000430959
0.000428083
0.000425308
0.000422629
0.00042004
0.000417535
0.000415111
0.000412763
0.000410485
0.000408276
0.00040613
0.000404044
0.000402016
0.000400042
0.00039812
0.000396248
0.000394422
0.000392641
0.000390902
0.000389205
0.000387548
0.000385929
0.000384348
0.000382804
0.000381295
0.000379822
0.000378384
0.000376982
0.000375616
0.000374286
0.000372994
0.000371741
0.000370529
0.00036936
0.000368235
0.000367158
0.000366133
0.000365163
0.000364252
0.000363404
0.000362626
0.000361923
0.000361301
0.000360767
0.000360327
0.000359988
0.000359757
0.000359638
0.000359637
0.000359751
0.000359976
0.000360298
0.000360687
0.000361099
0.000361459
0.000361664
0.000977119
0.000936711
0.000899657
0.000865637
0.000834364
0.000805578
0.00077905
0.000754568
0.000731947
0.000711016
0.000691625
0.000673635
0.000656923
0.000641378
0.000626899
0.000613395
0.000600784
0.000588991
0.000577949
0.000567598
0.000557881
0.000548748
0.000540154
0.000532056
0.000524418
0.000517204
0.000510383
0.000503926
0.000497806
0.000492
0.000486486
0.000481242
0.000476252
0.000471496
0.00046696
0.000462629
0.00045849
0.000454529
0.000450737
0.000447101
0.000443613
0.000440263
0.000437043
0.000433945
0.000430961
0.000428085
0.000425311
0.000422632
0.000420043
0.000417538
0.000415114
0.000412766
0.000410489
0.000408279
0.000406133
0.000404048
0.00040202
0.000400047
0.000398125
0.000396252
0.000394426
0.000392645
0.000390907
0.00038921
0.000387553
0.000385935
0.000384354
0.000382809
0.000381301
0.000379828
0.00037839
0.000376988
0.000375622
0.000374293
0.000373001
0.000371748
0.000370536
0.000369367
0.000368242
0.000367166
0.00036614
0.00036517
0.000364259
0.000363411
0.000362633
0.00036193
0.000361307
0.000360773
0.000360332
0.000359993
0.000359762
0.000359643
0.000359641
0.000359755
0.000359979
0.0003603
0.000360689
0.0003611
0.000361461
0.000361665
0.000977119
0.000936711
0.000899657
0.000865637
0.000834364
0.000805579
0.00077905
0.000754568
0.000731947
0.000711017
0.000691625
0.000673635
0.000656923
0.000641378
0.000626899
0.000613395
0.000600784
0.000588992
0.00057795
0.000567598
0.000557881
0.000548749
0.000540155
0.000532057
0.000524419
0.000517205
0.000510384
0.000503927
0.000497808
0.000492002
0.000486487
0.000481244
0.000476253
0.000471498
0.000466962
0.000462631
0.000458492
0.000454531
0.000450739
0.000447104
0.000443616
0.000440266
0.000437046
0.000433948
0.000430964
0.000428088
0.000425314
0.000422635
0.000420046
0.000417542
0.000415118
0.00041277
0.000410493
0.000408284
0.000406138
0.000404053
0.000402025
0.000400052
0.00039813
0.000396258
0.000394432
0.000392652
0.000390914
0.000389217
0.00038756
0.000385942
0.000384361
0.000382817
0.000381309
0.000379836
0.000378399
0.000376997
0.000375631
0.000374302
0.00037301
0.000371758
0.000370546
0.000369376
0.000368252
0.000367175
0.00036615
0.000365179
0.000364268
0.00036342
0.000362642
0.000361939
0.000361316
0.000360781
0.00036034
0.00036
0.000359768
0.000359649
0.000359646
0.000359759
0.000359983
0.000360304
0.000360692
0.000361103
0.000361462
0.000361667
0.000977119
0.000936711
0.000899657
0.000865637
0.000834364
0.000805579
0.00077905
0.000754569
0.000731947
0.000711017
0.000691625
0.000673635
0.000656924
0.000641379
0.0006269
0.000613396
0.000600785
0.000588992
0.000577951
0.000567599
0.000557882
0.00054875
0.000540156
0.000532058
0.00052442
0.000517206
0.000510385
0.000503928
0.000497809
0.000492003
0.000486489
0.000481246
0.000476255
0.0004715
0.000466964
0.000462633
0.000458494
0.000454534
0.000450742
0.000447107
0.000443619
0.000440269
0.000437049
0.000433951
0.000430968
0.000428092
0.000425318
0.00042264
0.000420051
0.000417547
0.000415123
0.000412775
0.000410499
0.000408289
0.000406144
0.000404059
0.000402032
0.000400059
0.000398137
0.000396265
0.00039444
0.000392659
0.000390922
0.000389226
0.000387569
0.000385951
0.00038437
0.000382826
0.000381318
0.000379846
0.000378409
0.000377007
0.000375642
0.000374313
0.000373021
0.000371769
0.000370557
0.000369388
0.000368263
0.000367187
0.000366161
0.000365191
0.000364279
0.000363432
0.000362653
0.000361949
0.000361326
0.000360791
0.000360349
0.000360009
0.000359776
0.000359656
0.000359652
0.000359765
0.000359988
0.000360308
0.000360695
0.000361105
0.000361465
0.000361668
0.000977119
0.000936711
0.000899657
0.000865637
0.000834364
0.000805579
0.00077905
0.000754569
0.000731947
0.000711017
0.000691625
0.000673636
0.000656924
0.000641379
0.0006269
0.000613396
0.000600785
0.000588993
0.000577951
0.0005676
0.000557883
0.000548751
0.000540157
0.00053206
0.000524421
0.000517208
0.000510387
0.00050393
0.000497811
0.000492005
0.000486491
0.000481248
0.000476258
0.000471502
0.000466967
0.000462636
0.000458497
0.000454537
0.000450745
0.00044711
0.000443623
0.000440273
0.000437054
0.000433956
0.000430973
0.000428097
0.000425323
0.000422645
0.000420056
0.000417553
0.000415129
0.000412782
0.000410505
0.000408296
0.000406151
0.000404067
0.000402039
0.000400067
0.000398146
0.000396274
0.000394449
0.000392669
0.000390931
0.000389235
0.000387579
0.000385962
0.000384381
0.000382838
0.00038133
0.000379858
0.000378421
0.00037702
0.000375654
0.000374326
0.000373034
0.000371782
0.00037057
0.000369401
0.000368277
0.000367201
0.000366175
0.000365205
0.000364293
0.000363445
0.000362666
0.000361962
0.000361338
0.000360802
0.00036036
0.000360019
0.000359786
0.000359665
0.00035966
0.000359772
0.000359994
0.000360312
0.000360699
0.000361108
0.000361467
0.000361671
0.000977119
0.000936711
0.000899657
0.000865637
0.000834364
0.000805579
0.00077905
0.000754569
0.000731948
0.000711017
0.000691626
0.000673636
0.000656924
0.000641379
0.000626901
0.000613397
0.000600786
0.000588994
0.000577952
0.000567601
0.000557884
0.000548752
0.000540158
0.000532061
0.000524423
0.000517209
0.000510389
0.000503932
0.000497813
0.000492007
0.000486493
0.000481251
0.00047626
0.000471505
0.00046697
0.000462639
0.0004585
0.000454541
0.000450749
0.000447114
0.000443627
0.000440278
0.000437058
0.000433961
0.000430978
0.000428103
0.000425329
0.000422651
0.000420063
0.000417559
0.000415136
0.000412789
0.000410513
0.000408304
0.000406159
0.000404075
0.000402048
0.000400076
0.000398155
0.000396284
0.000394459
0.000392679
0.000390942
0.000389247
0.000387591
0.000385974
0.000384394
0.00038285
0.000381343
0.000379871
0.000378435
0.000377034
0.000375669
0.00037434
0.00037305
0.000371797
0.000370586
0.000369417
0.000368293
0.000367216
0.000366191
0.00036522
0.000364309
0.00036346
0.000362681
0.000361977
0.000361353
0.000360816
0.000360373
0.000360031
0.000359797
0.000359675
0.000359669
0.00035978
0.000360001
0.000360318
0.000360704
0.000361112
0.00036147
0.000361673
0.000977119
0.000936711
0.000899657
0.000865637
0.000834364
0.000805579
0.00077905
0.000754569
0.000731948
0.000711018
0.000691626
0.000673636
0.000656925
0.00064138
0.000626901
0.000613398
0.000600787
0.000588994
0.000577953
0.000567602
0.000557885
0.000548753
0.000540159
0.000532062
0.000524425
0.000517211
0.00051039
0.000503934
0.000497815
0.00049201
0.000486496
0.000481253
0.000476263
0.000471508
0.000466973
0.000462643
0.000458504
0.000454545
0.000450753
0.000447119
0.000443632
0.000440283
0.000437063
0.000433966
0.000430984
0.000428109
0.000425335
0.000422657
0.00042007
0.000417567
0.000415144
0.000412797
0.000410521
0.000408313
0.000406168
0.000404084
0.000402058
0.000400086
0.000398166
0.000396294
0.00039447
0.000392691
0.000390955
0.000389259
0.000387604
0.000385987
0.000384408
0.000382865
0.000381358
0.000379886
0.00037845
0.00037705
0.000375685
0.000374357
0.000373066
0.000371815
0.000370603
0.000369434
0.00036831
0.000367234
0.000366209
0.000365238
0.000364326
0.000363478
0.000362698
0.000361993
0.000361368
0.000360831
0.000360387
0.000360044
0.000359809
0.000359686
0.000359679
0.000359788
0.000360008
0.000360324
0.000360709
0.000361116
0.000361474
0.000361676
0.000977119
0.000936711
0.000899657
0.000865637
0.000834364
0.000805579
0.00077905
0.000754569
0.000731948
0.000711018
0.000691626
0.000673637
0.000656925
0.000641381
0.000626902
0.000613398
0.000600788
0.000588995
0.000577954
0.000567603
0.000557887
0.000548755
0.000540161
0.000532064
0.000524426
0.000517213
0.000510393
0.000503936
0.000497818
0.000492013
0.000486499
0.000481256
0.000476266
0.000471512
0.000466977
0.000462647
0.000458508
0.000454549
0.000450758
0.000447124
0.000443637
0.000440288
0.000437069
0.000433972
0.00043099
0.000428115
0.000425342
0.000422665
0.000420077
0.000417575
0.000415152
0.000412805
0.00041053
0.000408322
0.000406178
0.000404095
0.000402069
0.000400097
0.000398177
0.000396307
0.000394483
0.000392704
0.000390968
0.000389273
0.000387618
0.000386002
0.000384423
0.000382881
0.000381374
0.000379903
0.000378467
0.000377067
0.000375703
0.000374375
0.000373085
0.000371834
0.000370622
0.000369454
0.00036833
0.000367254
0.000366228
0.000365257
0.000364345
0.000363497
0.000362717
0.000362011
0.000361386
0.000360847
0.000360403
0.000360059
0.000359822
0.000359698
0.00035969
0.000359798
0.000360016
0.000360331
0.000360714
0.00036112
0.000361477
0.00036168
0.000977119
0.000936711
0.000899657
0.000865637
0.000834364
0.000805579
0.000779051
0.000754569
0.000731948
0.000711018
0.000691627
0.000673637
0.000656926
0.000641381
0.000626903
0.000613399
0.000600789
0.000588996
0.000577955
0.000567604
0.000557888
0.000548756
0.000540163
0.000532066
0.000524428
0.000517215
0.000510395
0.000503939
0.00049782
0.000492015
0.000486502
0.00048126
0.00047627
0.000471516
0.000466981
0.000462651
0.000458513
0.000454554
0.000450763
0.000447129
0.000443642
0.000440294
0.000437075
0.000433979
0.000430997
0.000428123
0.00042535
0.000422673
0.000420086
0.000417583
0.000415161
0.000412815
0.00041054
0.000408333
0.000406189
0.000404106
0.000402081
0.000400109
0.00039819
0.00039632
0.000394496
0.000392718
0.000390983
0.000389288
0.000387634
0.000386018
0.00038444
0.000382898
0.000381392
0.000379921
0.000378486
0.000377086
0.000375723
0.000374395
0.000373105
0.000371854
0.000370643
0.000369475
0.000368351
0.000367275
0.000366249
0.000365278
0.000364366
0.000363517
0.000362737
0.00036203
0.000361404
0.000360865
0.00036042
0.000360075
0.000359837
0.000359711
0.000359702
0.000359808
0.000360025
0.000360338
0.00036072
0.000361125
0.000361481
0.000361683
0.000977119
0.000936711
0.000899657
0.000865637
0.000834364
0.000805579
0.000779051
0.00075457
0.000731949
0.000711019
0.000691627
0.000673638
0.000656926
0.000641382
0.000626903
0.0006134
0.000600789
0.000588998
0.000577957
0.000567606
0.00055789
0.000548758
0.000540164
0.000532068
0.00052443
0.000517217
0.000510397
0.000503941
0.000497823
0.000492018
0.000486505
0.000481263
0.000476274
0.00047152
0.000466985
0.000462656
0.000458518
0.000454559
0.000450768
0.000447135
0.000443648
0.0004403
0.000437082
0.000433986
0.000431004
0.00042813
0.000425358
0.000422681
0.000420095
0.000417593
0.000415171
0.000412825
0.000410551
0.000408344
0.000406201
0.000404118
0.000402093
0.000400122
0.000398204
0.000396334
0.000394511
0.000392733
0.000390998
0.000389305
0.000387651
0.000386035
0.000384457
0.000382916
0.000381411
0.000379941
0.000378506
0.000377107
0.000375743
0.000374416
0.000373127
0.000371876
0.000370666
0.000369497
0.000368374
0.000367298
0.000366272
0.000365301
0.000364388
0.000363539
0.000362758
0.000362051
0.000361425
0.000360885
0.000360438
0.000360092
0.000359853
0.000359726
0.000359714
0.000359819
0.000360034
0.000360346
0.000360727
0.00036113
0.000361485
0.000361687
0.000977119
0.000936711
0.000899657
0.000865638
0.000834364
0.000805579
0.000779051
0.00075457
0.000731949
0.000711019
0.000691628
0.000673638
0.000656927
0.000641383
0.000626904
0.000613401
0.00060079
0.000588999
0.000577958
0.000567607
0.000557891
0.000548759
0.000540166
0.00053207
0.000524433
0.00051722
0.0005104
0.000503944
0.000497826
0.000492022
0.000486509
0.000481267
0.000476278
0.000471524
0.00046699
0.00046266
0.000458523
0.000454564
0.000450774
0.000447141
0.000443655
0.000440307
0.000437089
0.000433993
0.000431012
0.000428139
0.000425367
0.00042269
0.000420104
0.000417603
0.000415182
0.000412836
0.000410562
0.000408356
0.000406213
0.000404131
0.000402106
0.000400136
0.000398218
0.000396349
0.000394527
0.000392749
0.000391015
0.000389322
0.000387669
0.000386054
0.000384476
0.000382936
0.000381431
0.000379961
0.000378527
0.000377129
0.000375766
0.000374439
0.00037315
0.000371899
0.000370689
0.000369521
0.000368398
0.000367322
0.000366296
0.000365325
0.000364412
0.000363563
0.000362781
0.000362074
0.000361446
0.000360905
0.000360458
0.00036011
0.00035987
0.000359741
0.000359728
0.000359831
0.000360044
0.000360354
0.000360733
0.000361136
0.00036149
0.000361691
0.000977119
0.000936711
0.000899657
0.000865638
0.000834364
0.00080558
0.000779051
0.00075457
0.000731949
0.000711019
0.000691628
0.000673639
0.000656928
0.000641383
0.000626905
0.000613402
0.000600792
0.000589
0.000577959
0.000567609
0.000557893
0.000548761
0.000540168
0.000532072
0.000524435
0.000517222
0.000510403
0.000503947
0.000497829
0.000492025
0.000486512
0.000481271
0.000476282
0.000471528
0.000466994
0.000462665
0.000458528
0.00045457
0.00045078
0.000447147
0.000443661
0.000440314
0.000437097
0.000434001
0.00043102
0.000428147
0.000425376
0.0004227
0.000420114
0.000417613
0.000415192
0.000412847
0.000410574
0.000408368
0.000406226
0.000404145
0.00040212
0.000400151
0.000398233
0.000396365
0.000394543
0.000392766
0.000391033
0.00038934
0.000387687
0.000386073
0.000384496
0.000382956
0.000381452
0.000379983
0.00037855
0.000377151
0.000375789
0.000374463
0.000373174
0.000371924
0.000370714
0.000369546
0.000368423
0.000367347
0.000366322
0.00036535
0.000364437
0.000363587
0.000362805
0.000362097
0.000361469
0.000360927
0.000360478
0.000360129
0.000359887
0.000359757
0.000359742
0.000359843
0.000360055
0.000360363
0.00036074
0.000361141
0.000361494
0.000361695
0.000977119
0.000936711
0.000899657
0.000865638
0.000834365
0.00080558
0.000779051
0.00075457
0.00073195
0.00071102
0.000691629
0.000673639
0.000656928
0.000641384
0.000626906
0.000613403
0.000600793
0.000589001
0.000577961
0.00056761
0.000557894
0.000548763
0.00054017
0.000532074
0.000524437
0.000517225
0.000510406
0.00050395
0.000497833
0.000492029
0.000486516
0.000481275
0.000476286
0.000471533
0.000466999
0.000462671
0.000458534
0.000454576
0.000450786
0.000447154
0.000443668
0.000440322
0.000437104
0.000434009
0.000431029
0.000428156
0.000425385
0.00042271
0.000420124
0.000417624
0.000415204
0.000412859
0.000410586
0.000408381
0.000406239
0.000404159
0.000402135
0.000400166
0.000398249
0.000396381
0.00039456
0.000392784
0.000391051
0.000389359
0.000387707
0.000386094
0.000384517
0.000382978
0.000381474
0.000380006
0.000378573
0.000377175
0.000375813
0.000374488
0.0003732
0.00037195
0.00037074
0.000369573
0.00036845
0.000367374
0.000366348
0.000365377
0.000364464
0.000363613
0.000362831
0.000362122
0.000361493
0.00036095
0.0003605
0.000360149
0.000359906
0.000359774
0.000359757
0.000359856
0.000360066
0.000360372
0.000360748
0.000361147
0.000361499
0.0003617
0.000977119
0.000936711
0.000899657
0.000865638
0.000834365
0.00080558
0.000779051
0.000754571
0.00073195
0.00071102
0.000691629
0.00067364
0.000656929
0.000641385
0.000626907
0.000613404
0.000600794
0.000589002
0.000577962
0.000567612
0.000557896
0.000548765
0.000540172
0.000532076
0.00052444
0.000517228
0.000510408
0.000503953
0.000497836
0.000492032
0.00048652
0.000481279
0.000476291
0.000471538
0.000467004
0.000462676
0.000458539
0.000454582
0.000450793
0.000447161
0.000443676
0.000440329
0.000437112
0.000434018
0.000431038
0.000428166
0.000425395
0.00042272
0.000420135
0.000417635
0.000415216
0.000412872
0.000410599
0.000408394
0.000406254
0.000404173
0.00040215
0.000400182
0.000398265
0.000396398
0.000394578
0.000392802
0.00039107
0.000389379
0.000387727
0.000386115
0.000384539
0.000383
0.000381497
0.000380029
0.000378597
0.0003772
0.000375839
0.000374514
0.000373226
0.000371977
0.000370767
0.0003696
0.000368477
0.000367401
0.000366376
0.000365404
0.000364491
0.00036364
0.000362857
0.000362147
0.000361517
0.000360973
0.000360522
0.00036017
0.000359925
0.000359791
0.000359773
0.00035987
0.000360077
0.000360382
0.000360756
0.000361154
0.000361504
0.000361704
0.000977119
0.000936711
0.000899657
0.000865638
0.000834365
0.00080558
0.000779052
0.000754571
0.00073195
0.00071102
0.000691629
0.00067364
0.000656929
0.000641385
0.000626907
0.000613405
0.000600795
0.000589003
0.000577963
0.000567613
0.000557898
0.000548767
0.000540174
0.000532079
0.000524442
0.00051723
0.000510411
0.000503957
0.000497839
0.000492036
0.000486524
0.000481283
0.000476295
0.000471543
0.00046701
0.000462682
0.000458545
0.000454588
0.000450799
0.000447168
0.000443683
0.000440337
0.000437121
0.000434027
0.000431047
0.000428175
0.000425405
0.000422731
0.000420146
0.000417647
0.000415228
0.000412884
0.000410613
0.000408408
0.000406268
0.000404188
0.000402166
0.000400198
0.000398282
0.000396416
0.000394596
0.000392821
0.00039109
0.000389399
0.000387748
0.000386136
0.000384561
0.000383023
0.000381521
0.000380054
0.000378622
0.000377226
0.000375865
0.00037454
0.000373253
0.000372004
0.000370795
0.000369628
0.000368506
0.00036743
0.000366404
0.000365433
0.000364519
0.000363668
0.000362884
0.000362174
0.000361543
0.000360997
0.000360545
0.000360192
0.000359945
0.000359809
0.000359789
0.000359884
0.000360089
0.000360392
0.000360764
0.00036116
0.00036151
0.000361709
0.000977119
0.000936711
0.000899657
0.000865638
0.000834365
0.00080558
0.000779052
0.000754571
0.00073195
0.000711021
0.00069163
0.000673641
0.00065693
0.000641386
0.000626908
0.000613406
0.000600796
0.000589005
0.000577965
0.000567615
0.0005579
0.000548769
0.000540176
0.000532081
0.000524445
0.000517233
0.000510414
0.00050396
0.000497843
0.00049204
0.000486528
0.000481288
0.0004763
0.000471548
0.000467015
0.000462687
0.000458551
0.000454595
0.000450806
0.000447175
0.000443691
0.000440345
0.000437129
0.000434035
0.000431056
0.000428185
0.000425416
0.000422742
0.000420158
0.000417659
0.00041524
0.000412897
0.000410626
0.000408423
0.000406283
0.000404204
0.000402182
0.000400215
0.0003983
0.000396434
0.000394615
0.000392841
0.00039111
0.00038942
0.00038777
0.000386159
0.000384584
0.000383047
0.000381545
0.000380079
0.000378648
0.000377252
0.000375892
0.000374568
0.000373281
0.000372033
0.000370824
0.000369657
0.000368535
0.000367459
0.000366434
0.000365462
0.000364548
0.000363696
0.000362912
0.000362201
0.000361569
0.000361022
0.000360568
0.000360214
0.000359965
0.000359827
0.000359805
0.000359898
0.000360101
0.000360402
0.000360772
0.000361166
0.000361515
0.000361714
0.000977119
0.000936711
0.000899657
0.000865638
0.000834365
0.00080558
0.000779052
0.000754571
0.000731951
0.000711021
0.00069163
0.000673641
0.000656931
0.000641387
0.000626909
0.000613407
0.000600797
0.000589006
0.000577966
0.000567616
0.000557901
0.000548771
0.000540179
0.000532083
0.000524447
0.000517236
0.000510417
0.000503963
0.000497847
0.000492044
0.000486532
0.000481292
0.000476305
0.000471553
0.00046702
0.000462693
0.000458558
0.000454601
0.000450813
0.000447182
0.000443699
0.000440353
0.000437138
0.000434045
0.000431066
0.000428195
0.000425426
0.000422753
0.000420169
0.000417671
0.000415253
0.000412911
0.00041064
0.000408437
0.000406298
0.00040422
0.000402199
0.000400232
0.000398318
0.000396452
0.000394634
0.000392861
0.00039113
0.000389441
0.000387792
0.000386181
0.000384608
0.000383071
0.00038157
0.000380104
0.000378674
0.000377279
0.000375919
0.000374596
0.00037331
0.000372062
0.000370853
0.000369687
0.000368565
0.000367489
0.000366464
0.000365492
0.000364577
0.000363725
0.00036294
0.000362228
0.000361595
0.000361048
0.000360592
0.000360236
0.000359986
0.000359846
0.000359822
0.000359913
0.000360114
0.000360412
0.00036078
0.000361173
0.00036152
0.000361719
0.000977119
0.000936711
0.000899658
0.000865638
0.000834365
0.00080558
0.000779052
0.000754572
0.000731951
0.000711021
0.000691631
0.000673642
0.000656931
0.000641388
0.00062691
0.000613408
0.000600798
0.000589007
0.000577968
0.000567618
0.000557903
0.000548773
0.000540181
0.000532086
0.00052445
0.000517239
0.000510421
0.000503966
0.00049785
0.000492048
0.000486537
0.000481297
0.00047631
0.000471558
0.000467026
0.000462699
0.000458564
0.000454608
0.00045082
0.00044719
0.000443706
0.000440362
0.000437147
0.000434054
0.000431076
0.000428205
0.000425437
0.000422764
0.000420181
0.000417683
0.000415266
0.000412924
0.000410654
0.000408452
0.000406313
0.000404236
0.000402215
0.00040025
0.000398336
0.000396471
0.000394654
0.000392881
0.000391151
0.000389463
0.000387814
0.000386204
0.000384632
0.000383096
0.000381595
0.00038013
0.000378701
0.000377306
0.000375947
0.000374624
0.000373338
0.000372091
0.000370883
0.000369717
0.000368595
0.00036752
0.000366494
0.000365522
0.000364607
0.000363755
0.000362969
0.000362256
0.000361622
0.000361074
0.000360617
0.000360259
0.000360007
0.000359865
0.000359839
0.000359928
0.000360127
0.000360422
0.000360789
0.00036118
0.000361526
0.000361724
0.000977119
0.000936711
0.000899658
0.000865638
0.000834365
0.000805581
0.000779052
0.000754572
0.000731951
0.000711022
0.000691631
0.000673642
0.000656932
0.000641388
0.000626911
0.000613408
0.000600799
0.000589008
0.000577969
0.00056762
0.000557905
0.000548775
0.000540183
0.000532088
0.000524453
0.000517242
0.000510424
0.00050397
0.000497854
0.000492052
0.000486541
0.000481301
0.000476314
0.000471563
0.000467031
0.000462705
0.00045857
0.000454615
0.000450827
0.000447197
0.000443714
0.00044037
0.000437155
0.000434063
0.000431085
0.000428216
0.000425448
0.000422775
0.000420193
0.000417696
0.000415279
0.000412938
0.000410668
0.000408467
0.000406329
0.000404252
0.000402232
0.000400267
0.000398354
0.00039649
0.000394673
0.000392901
0.000391172
0.000389485
0.000387837
0.000386228
0.000384656
0.00038312
0.000381621
0.000380157
0.000378728
0.000377334
0.000375975
0.000374653
0.000373368
0.000372121
0.000370913
0.000369748
0.000368626
0.00036755
0.000366525
0.000365552
0.000364637
0.000363784
0.000362998
0.000362285
0.00036165
0.0003611
0.000360642
0.000360282
0.000360028
0.000359885
0.000359856
0.000359943
0.000360139
0.000360433
0.000360797
0.000361187
0.000361532
0.000361729
0.000977119
0.000936711
0.000899658
0.000865638
0.000834365
0.000805581
0.000779053
0.000754572
0.000731952
0.000711022
0.000691632
0.000673643
0.000656933
0.000641389
0.000626912
0.000613409
0.0006008
0.00058901
0.00057797
0.000567621
0.000557907
0.000548776
0.000540185
0.000532091
0.000524455
0.000517244
0.000510427
0.000503973
0.000497857
0.000492055
0.000486545
0.000481306
0.000476319
0.000471568
0.000467037
0.000462711
0.000458576
0.000454621
0.000450834
0.000447205
0.000443722
0.000440378
0.000437164
0.000434072
0.000431095
0.000428226
0.000425458
0.000422787
0.000420205
0.000417708
0.000415292
0.000412952
0.000410683
0.000408482
0.000406345
0.000404268
0.000402249
0.000400285
0.000398372
0.000396509
0.000394693
0.000392922
0.000391194
0.000389507
0.00038786
0.000386251
0.00038468
0.000383145
0.000381647
0.000380183
0.000378755
0.000377361
0.000376004
0.000374682
0.000373397
0.000372151
0.000370944
0.000369778
0.000368657
0.000367581
0.000366556
0.000365583
0.000364668
0.000363814
0.000363028
0.000362313
0.000361677
0.000361126
0.000360667
0.000360306
0.00036005
0.000359904
0.000359874
0.000359958
0.000360152
0.000360444
0.000360806
0.000361194
0.000361537
0.000361734
0.000977119
0.000936711
0.000899658
0.000865638
0.000834365
0.000805581
0.000779053
0.000754572
0.000731952
0.000711022
0.000691632
0.000673643
0.000656933
0.00064139
0.000626912
0.00061341
0.000600801
0.000589011
0.000577972
0.000567623
0.000557908
0.000548778
0.000540187
0.000532093
0.000524458
0.000517247
0.00051043
0.000503976
0.000497861
0.000492059
0.000486549
0.00048131
0.000476324
0.000471573
0.000467042
0.000462717
0.000458583
0.000454628
0.000450841
0.000447212
0.00044373
0.000440387
0.000437173
0.000434082
0.000431105
0.000428236
0.000425469
0.000422798
0.000420217
0.000417721
0.000415305
0.000412965
0.000410697
0.000408497
0.00040636
0.000404284
0.000402266
0.000400303
0.000398391
0.000396528
0.000394713
0.000392942
0.000391215
0.000389529
0.000387883
0.000386275
0.000384704
0.000383171
0.000381672
0.00038021
0.000378782
0.000377389
0.000376032
0.000374711
0.000373427
0.000372181
0.000370974
0.000369809
0.000368687
0.000367612
0.000366587
0.000365614
0.000364699
0.000363845
0.000363057
0.000362342
0.000361705
0.000361153
0.000360692
0.000360329
0.000360071
0.000359924
0.000359891
0.000359973
0.000360165
0.000360455
0.000360815
0.000361201
0.000361543
0.000361739
0.000977119
0.000936711
0.000899658
0.000865638
0.000834365
0.000805581
0.000779053
0.000754572
0.000731952
0.000711023
0.000691632
0.000673644
0.000656934
0.00064139
0.000626913
0.000613411
0.000600802
0.000589012
0.000577973
0.000567624
0.00055791
0.00054878
0.000540189
0.000532095
0.00052446
0.00051725
0.000510433
0.00050398
0.000497865
0.000492063
0.000486553
0.000481315
0.000476329
0.000471579
0.000467048
0.000462723
0.000458589
0.000454635
0.000450848
0.00044722
0.000443738
0.000440395
0.000437182
0.000434091
0.000431115
0.000428247
0.00042548
0.000422809
0.000420229
0.000417734
0.000415318
0.000412979
0.000410712
0.000408512
0.000406376
0.000404301
0.000402283
0.00040032
0.000398409
0.000396547
0.000394733
0.000392963
0.000391236
0.000389551
0.000387905
0.000386298
0.000384729
0.000383196
0.000381698
0.000380236
0.000378809
0.000377417
0.000376061
0.00037474
0.000373456
0.000372211
0.000371005
0.00036984
0.000368718
0.000367643
0.000366618
0.000365645
0.000364729
0.000363875
0.000363087
0.000362371
0.000361733
0.000361179
0.000360717
0.000360353
0.000360093
0.000359944
0.000359909
0.000359988
0.000360178
0.000360465
0.000360823
0.000361208
0.000361549
0.000361744
0.000977119
0.000936711
0.000899658
0.000865638
0.000834365
0.000805581
0.000779053
0.000754573
0.000731952
0.000711023
0.000691633
0.000673644
0.000656934
0.000641391
0.000626914
0.000613412
0.000600803
0.000589013
0.000577974
0.000567626
0.000557912
0.000548782
0.000540191
0.000532097
0.000524463
0.000517253
0.000510436
0.000503983
0.000497868
0.000492067
0.000486557
0.000481319
0.000476334
0.000471584
0.000467053
0.000462728
0.000458595
0.000454641
0.000450855
0.000447227
0.000443746
0.000440403
0.000437191
0.0004341
0.000431125
0.000428257
0.000425491
0.000422821
0.000420241
0.000417746
0.000415331
0.000412993
0.000410726
0.000408527
0.000406391
0.000404317
0.0004023
0.000400338
0.000398427
0.000396566
0.000394752
0.000392983
0.000391258
0.000389573
0.000387928
0.000386322
0.000384753
0.00038322