/*--------------------------------*- C++ -*----------------------------------*\
  =========                 |
  \\      /  F ield         | OpenFOAM: The Open Source CFD Toolbox
   \\    /   O peration     | Website:  https://openfoam.org
    \\  /    A nd           | Version:  11
     \\/     M anipulation  |
\*---------------------------------------------------------------------------*/
FoamFile
{
    format      ascii;
    class       volScalarField;
    location    "464";
    object      nut;
}
// * * * * * * * * * * * * * * * * * * * * * * * * * * * * * * * * * * * * * //

dimensions      [0 2 -1 0 0 0 0];

internalField   nonuniform List<scalar> 
10000
(
0.000977117
0.000936705
0.000899646
0.00086562
0.000834339
0.000805545
0.000779006
0.000754514
0.000731879
0.000710934
0.000691526
0.000673518
0.000656786
0.000641219
0.000626716
0.000613186
0.000600547
0.000588724
0.00057765
0.000567263
0.000557508
0.000548335
0.000539698
0.000531556
0.000523869
0.000516603
0.000509728
0.000503214
0.000497034
0.000491164
0.000485583
0.000480269
0.000475205
0.000470373
0.000465757
0.000461343
0.000457117
0.000453068
0.000449184
0.000445454
0.00044187
0.000438422
0.000435102
0.000431904
0.000428821
0.000425847
0.000422977
0.000420206
0.00041753
0.000414947
0.000412452
0.000410045
0.000407724
0.000405488
0.000403338
0.000401275
0.0003993
0.000397416
0.000395626
0.000393936
0.000392351
0.000390877
0.000389522
0.000388296
0.000387208
0.00038627
0.000385494
0.000384894
0.000384484
0.000384281
0.000384301
0.00038456
0.000385076
0.000385867
0.000386949
0.000388339
0.000390051
0.000392098
0.000394491
0.000397238
0.000400343
0.000403805
0.000407619
0.000411774
0.000416255
0.000421038
0.000426094
0.000431385
0.000436864
0.000442479
0.000448163
0.000453843
0.000459432
0.000464835
0.000469937
0.000474609
0.0004787
0.000482041
0.000484444
0.000485705
0.000977117
0.000936705
0.000899646
0.00086562
0.000834339
0.000805546
0.000779007
0.000754514
0.000731879
0.000710934
0.000691526
0.000673518
0.000656786
0.000641219
0.000626716
0.000613186
0.000600547
0.000588724
0.00057765
0.000567263
0.000557509
0.000548336
0.000539699
0.000531556
0.000523869
0.000516604
0.000509729
0.000503214
0.000497034
0.000491165
0.000485584
0.00048027
0.000475206
0.000470374
0.000465758
0.000461344
0.000457118
0.000453069
0.000449185
0.000445455
0.000441871
0.000438423
0.000435104
0.000431906
0.000428823
0.000425849
0.000422979
0.000420208
0.000417532
0.000414948
0.000412454
0.000410047
0.000407726
0.00040549
0.000403341
0.000401277
0.000399302
0.000397418
0.000395629
0.000393939
0.000392353
0.000390879
0.000389524
0.000388298
0.00038721
0.000386271
0.000385495
0.000384894
0.000384485
0.000384281
0.0003843
0.000384558
0.000385074
0.000385863
0.000386944
0.000388333
0.000390044
0.00039209
0.000394482
0.000397227
0.00040033
0.000403791
0.000407603
0.000411757
0.000416237
0.000421019
0.000426073
0.000431362
0.00043684
0.000442452
0.000448135
0.000453814
0.000459402
0.000464804
0.000469907
0.000474579
0.000478671
0.000482012
0.000484415
0.000485677
0.000977117
0.000936705
0.000899646
0.00086562
0.00083434
0.000805546
0.000779007
0.000754514
0.00073188
0.000710935
0.000691526
0.000673518
0.000656787
0.00064122
0.000626717
0.000613187
0.000600548
0.000588725
0.000577651
0.000567264
0.00055751
0.000548337
0.0005397
0.000531557
0.00052387
0.000516605
0.00050973
0.000503216
0.000497036
0.000491166
0.000485585
0.000480272
0.000475208
0.000470375
0.00046576
0.000461346
0.00045712
0.000453071
0.000449187
0.000445457
0.000441873
0.000438425
0.000435106
0.000431909
0.000428826
0.000425852
0.000422982
0.000420211
0.000417535
0.000414952
0.000412457
0.00041005
0.000407729
0.000405494
0.000403344
0.000401281
0.000399306
0.000397421
0.000395632
0.000393942
0.000392356
0.000390882
0.000389526
0.000388299
0.000387211
0.000386272
0.000385494
0.000384893
0.000384482
0.000384277
0.000384294
0.000384551
0.000385065
0.000385853
0.000386931
0.000388317
0.000390025
0.000392069
0.000394458
0.0003972
0.0004003
0.000403757
0.000407567
0.000411718
0.000416194
0.000420973
0.000426025
0.000431311
0.000436787
0.000442397
0.000448077
0.000453754
0.000459342
0.000464744
0.000469847
0.000474519
0.000478612
0.000481954
0.000484358
0.00048562
0.000977117
0.000936705
0.000899647
0.000865621
0.00083434
0.000805546
0.000779007
0.000754515
0.00073188
0.000710935
0.000691527
0.000673519
0.000656788
0.000641221
0.000626718
0.000613188
0.000600549
0.000588726
0.000577652
0.000567266
0.000557511
0.000548338
0.000539702
0.000531559
0.000523872
0.000516607
0.000509732
0.000503218
0.000497038
0.000491169
0.000485587
0.000480274
0.00047521
0.000470378
0.000465762
0.000461348
0.000457123
0.000453074
0.00044919
0.000445461
0.000441877
0.000438429
0.00043511
0.000431912
0.00042883
0.000425856
0.000422986
0.000420215
0.00041754
0.000414956
0.000412462
0.000410055
0.000407734
0.000405499
0.000403349
0.000401285
0.00039931
0.000397426
0.000395636
0.000393946
0.00039236
0.000390885
0.000389529
0.000388301
0.000387212
0.000386271
0.000385493
0.00038489
0.000384478
0.000384271
0.000384286
0.00038454
0.000385051
0.000385835
0.000386911
0.000388293
0.000389997
0.000392036
0.000394421
0.000397159
0.000400254
0.000403707
0.000407511
0.000411658
0.00041613
0.000420905
0.000425952
0.000431235
0.000436707
0.000442314
0.000447991
0.000453667
0.000459254
0.000464656
0.000469759
0.000474432
0.000478526
0.000481869
0.000484274
0.000485536
0.000977117
0.000936706
0.000899647
0.000865621
0.00083434
0.000805547
0.000779008
0.000754515
0.000731881
0.000710936
0.000691528
0.00067352
0.000656789
0.000641222
0.000626719
0.00061319
0.000600551
0.000588728
0.000577654
0.000567267
0.000557513
0.00054834
0.000539704
0.000531561
0.000523874
0.000516609
0.000509734
0.00050322
0.000497041
0.000491171
0.00048559
0.000480277
0.000475213
0.000470381
0.000465766
0.000461352
0.000457127
0.000453078
0.000449194
0.000445465
0.000441881
0.000438434
0.000435115
0.000431918
0.000428835
0.000425861
0.000422992
0.000420221
0.000417546
0.000414962
0.000412468
0.000410062
0.000407741
0.000405505
0.000403355
0.000401292
0.000399317
0.000397432
0.000395642
0.000393951
0.000392365
0.000390889
0.000389533
0.000388304
0.000387213
0.000386271
0.000385491
0.000384887
0.000384472
0.000384262
0.000384274
0.000384525
0.000385033
0.000385813
0.000386884
0.000388261
0.00038996
0.000391994
0.000394373
0.000397105
0.000400194
0.00040364
0.000407439
0.00041158
0.000416046
0.000420815
0.000425857
0.000431135
0.000436602
0.000442206
0.000447881
0.000453554
0.00045914
0.000464541
0.000469645
0.000474319
0.000478414
0.000481758
0.000484164
0.000485427
0.000977117
0.000936706
0.000899647
0.000865621
0.000834341
0.000805547
0.000779009
0.000754516
0.000731882
0.000710937
0.000691529
0.000673522
0.00065679
0.000641223
0.000626721
0.000613191
0.000600552
0.00058873
0.000577656
0.000567269
0.000557515
0.000548343
0.000539706
0.000531564
0.000523877
0.000516612
0.000509737
0.000503223
0.000497044
0.000491175
0.000485594
0.000480281
0.000475217
0.000470386
0.00046577
0.000461357
0.000457132
0.000453083
0.0004492
0.000445471
0.000441887
0.00043844
0.000435121
0.000431924
0.000428842
0.000425868
0.000422999
0.000420228
0.000417553
0.00041497
0.000412476
0.000410069
0.000407749
0.000405513
0.000403363
0.0004013
0.000399324
0.00039744
0.000395649
0.000393958
0.000392371
0.000390895
0.000389537
0.000388307
0.000387215
0.000386272
0.00038549
0.000384882
0.000384465
0.000384252
0.000384261
0.000384508
0.000385011
0.000385786
0.000386852
0.000388223
0.000389916
0.000391943
0.000394315
0.00039704
0.000400121
0.00040356
0.000407351
0.000411484
0.000415943
0.000420706
0.000425741
0.000431013
0.000436476
0.000442075
0.000447746
0.000453417
0.000459002
0.000464403
0.000469506
0.000474181
0.000478277
0.000481623
0.00048403
0.000485292
0.000977117
0.000936706
0.000899647
0.000865622
0.000834341
0.000805548
0.00077901
0.000754517
0.000731883
0.000710938
0.000691531
0.000673523
0.000656792
0.000641225
0.000626723
0.000613193
0.000600554
0.000588732
0.000577658
0.000567272
0.000557518
0.000548345
0.000539709
0.000531567
0.00052388
0.000516616
0.000509741
0.000503227
0.000497048
0.000491179
0.000485598
0.000480286
0.000475222
0.000470391
0.000465775
0.000461362
0.000457138
0.000453089
0.000449206
0.000445477
0.000441894
0.000438447
0.000435128
0.000431932
0.000428849
0.000425876
0.000423007
0.000420237
0.000417562
0.000414979
0.000412485
0.000410079
0.000407758
0.000405523
0.000403373
0.000401309
0.000399334
0.000397449
0.000395658
0.000393966
0.000392378
0.000390901
0.000389543
0.000388311
0.000387218
0.000386272
0.000385488
0.000384878
0.000384457
0.000384241
0.000384245
0.000384488
0.000384985
0.000385755
0.000386814
0.000388179
0.000389865
0.000391884
0.000394248
0.000396964
0.000400037
0.000403467
0.000407249
0.000411373
0.000415824
0.000420578
0.000425607
0.000430872
0.000436329
0.000441922
0.00044759
0.000453258
0.000458841
0.000464241
0.000469344
0.00047402
0.000478117
0.000481464
0.000483872
0.000485135
0.000977117
0.000936706
0.000899648
0.000865622
0.000834342
0.000805549
0.00077901
0.000754518
0.000731884
0.00071094
0.000691532
0.000673525
0.000656793
0.000641227
0.000626725
0.000613195
0.000600557
0.000588734
0.000577661
0.000567275
0.000557521
0.000548349
0.000539712
0.00053157
0.000523884
0.00051662
0.000509745
0.000503231
0.000497052
0.000491184
0.000485603
0.000480291
0.000475228
0.000470396
0.000465781
0.000461369
0.000457144
0.000453096
0.000449213
0.000445485
0.000441901
0.000438455
0.000435137
0.00043194
0.000428859
0.000425886
0.000423017
0.000420247
0.000417572
0.00041499
0.000412496
0.00041009
0.000407769
0.000405534
0.000403384
0.000401321
0.000399345
0.00039746
0.000395669
0.000393976
0.000392387
0.000390909
0.000389549
0.000388317
0.000387221
0.000386273
0.000385486
0.000384873
0.000384449
0.000384228
0.000384228
0.000384465
0.000384957
0.000385721
0.000386773
0.00038813
0.000389807
0.000391817
0.000394172
0.000396879
0.000399942
0.000403362
0.000407134
0.000411249
0.00041569
0.000420435
0.000425455
0.000430712
0.000436162
0.00044175
0.000447414
0.000453078
0.000458659
0.000464058
0.000469161
0.000473837
0.000477935
0.000481284
0.000483692
0.000484956
0.000977117
0.000936706
0.000899648
0.000865623
0.000834342
0.000805549
0.000779011
0.000754519
0.000731885
0.000710941
0.000691534
0.000673526
0.000656795
0.000641229
0.000626727
0.000613198
0.000600559
0.000588737
0.000577664
0.000567278
0.000557524
0.000548352
0.000539716
0.000531574
0.000523888
0.000516624
0.00050975
0.000503236
0.000497057
0.000491189
0.000485609
0.000480297
0.000475234
0.000470403
0.000465788
0.000461376
0.000457151
0.000453104
0.000449221
0.000445493
0.00044191
0.000438464
0.000435146
0.00043195
0.000428869
0.000425896
0.000423028
0.000420258
0.000417584
0.000415002
0.000412508
0.000410102
0.000407782
0.000405547
0.000403397
0.000401333
0.000399357
0.000397472
0.00039568
0.000393987
0.000392398
0.000390918
0.000389557
0.000388323
0.000387225
0.000386275
0.000385485
0.000384869
0.00038444
0.000384215
0.00038421
0.000384441
0.000384927
0.000385683
0.000386727
0.000388076
0.000389744
0.000391745
0.000394089
0.000396785
0.000399837
0.000403246
0.000407008
0.000411111
0.000415542
0.000420277
0.000425288
0.000430537
0.000435979
0.000441561
0.000447219
0.000452879
0.000458458
0.000463855
0.000468958
0.000473634
0.000477733
0.000481083
0.000483492
0.000484756
0.000977117
0.000936706
0.000899648
0.000865623
0.000834343
0.00080555
0.000779012
0.00075452
0.000731887
0.000710942
0.000691535
0.000673528
0.000656797
0.000641231
0.000626729
0.0006132
0.000600562
0.00058874
0.000577667
0.000567281
0.000557528
0.000548356
0.00053972
0.000531578
0.000523893
0.000516629
0.000509755
0.000503242
0.000497063
0.000491195
0.000485615
0.000480303
0.00047524
0.00047041
0.000465796
0.000461383
0.00045716
0.000453112
0.00044923
0.000445502
0.00044192
0.000438474
0.000435157
0.000431961
0.00042888
0.000425908
0.00042304
0.000420271
0.000417597
0.000415015
0.000412522
0.000410116
0.000407796
0.000405561
0.000403411
0.000401348
0.000399372
0.000397486
0.000395694
0.000394
0.000392409
0.000390929
0.000389566
0.00038833
0.00038723
0.000386277
0.000385484
0.000384864
0.000384432
0.000384202
0.000384191
0.000384416
0.000384894
0.000385643
0.000386679
0.000388018
0.000389676
0.000391666
0.000394
0.000396684
0.000399725
0.000403122
0.000406871
0.000410963
0.000415382
0.000420106
0.000425107
0.000430346
0.00043578
0.000441355
0.000447007
0.000452663
0.000458238
0.000463634
0.000468736
0.000473413
0.000477512
0.000480863
0.000483274
0.000484538
0.000977117
0.000936706
0.000899648
0.000865623
0.000834344
0.000805551
0.000779013
0.000754521
0.000731888
0.000710944
0.000691537
0.00067353
0.000656799
0.000641233
0.000626732
0.000613203
0.000600565
0.000588743
0.00057767
0.000567285
0.000557532
0.00054836
0.000539724
0.000531583
0.000523898
0.000516634
0.00050976
0.000503247
0.000497069
0.000491201
0.000485622
0.00048031
0.000475248
0.000470418
0.000465804
0.000461392
0.000457168
0.000453121
0.00044924
0.000445512
0.00044193
0.000438485
0.000435168
0.000431973
0.000428892
0.000425921
0.000423053
0.000420284
0.000417611
0.000415029
0.000412537
0.000410131
0.000407811
0.000405577
0.000403427
0.000401363
0.000399387
0.000397501
0.000395708
0.000394014
0.000392422
0.000390941
0.000389577
0.000388338
0.000387236
0.00038628
0.000385484
0.00038486
0.000384423
0.000384188
0.000384171
0.00038439
0.00038486
0.000385601
0.000386627
0.000387957
0.000389605
0.000391583
0.000393905
0.000396577
0.000399605
0.000402989
0.000406725
0.000410804
0.000415211
0.000419924
0.000424913
0.000430143
0.000435568
0.000441134
0.00044678
0.000452432
0.000458003
0.000463396
0.000468497
0.000473174
0.000477274
0.000480625
0.000483037
0.000484302
0.000977117
0.000936706
0.000899649
0.000865624
0.000834344
0.000805551
0.000779014
0.000754522
0.000731889
0.000710945
0.000691538
0.000673532
0.000656801
0.000641236
0.000626734
0.000613206
0.000600568
0.000588746
0.000577674
0.000567289
0.000557536
0.000548364
0.000539729
0.000531588
0.000523903
0.000516639
0.000509766
0.000503253
0.000497076
0.000491208
0.000485629
0.000480318
0.000475256
0.000470426
0.000465812
0.000461401
0.000457178
0.000453131
0.00044925
0.000445523
0.000441942
0.000438497
0.000435181
0.000431986
0.000428906
0.000425935
0.000423067
0.000420299
0.000417626
0.000415045
0.000412553
0.000410148
0.000407828
0.000405594
0.000403444
0.00040138
0.000399404
0.000397518
0.000395724
0.000394029
0.000392437
0.000390954
0.000389588
0.000388348
0.000387243
0.000386284
0.000385484
0.000384856
0.000384414
0.000384174
0.000384151
0.000384362
0.000384825
0.000385557
0.000386574
0.000387893
0.000389529
0.000391496
0.000393805
0.000396464
0.000399479
0.000402849
0.000406572
0.000410637
0.000415031
0.000419731
0.000424708
0.000429927
0.000435343
0.000440901
0.00044654
0.000452186
0.000457753
0.000463144
0.000468243
0.000472919
0.00047702
0.000480372
0.000482785
0.00048405
0.000977117
0.000936707
0.000899649
0.000865624
0.000834345
0.000805552
0.000779015
0.000754523
0.00073189
0.000710947
0.00069154
0.000673534
0.000656804
0.000641238
0.000626737
0.000613209
0.000600571
0.00058875
0.000577677
0.000567292
0.00055754
0.000548369
0.000539734
0.000531593
0.000523908
0.000516645
0.000509772
0.00050326
0.000497082
0.000491215
0.000485636
0.000480326
0.000475264
0.000470435
0.000465822
0.000461411
0.000457188
0.000453142
0.000449261
0.000445535
0.000441954
0.00043851
0.000435194
0.000432
0.00042892
0.00042595
0.000423083
0.000420315
0.000417643
0.000415062
0.00041257
0.000410165
0.000407846
0.000405612
0.000403462
0.000401399
0.000399422
0.000397535
0.000395742
0.000394046
0.000392452
0.000390968
0.000389601
0.000388358
0.000387251
0.000386289
0.000385486
0.000384853
0.000384406
0.00038416
0.00038413
0.000384334
0.000384789
0.000385511
0.000386519
0.000387827
0.000389452
0.000391406
0.000393702
0.000396347
0.000399347
0.000402703
0.000406412
0.000410463
0.000414843
0.000419529
0.000424494
0.000429702
0.000435107
0.000440656
0.000446288
0.000451928
0.000457491
0.000462878
0.000467975
0.000472651
0.000476752
0.000480105
0.000482519
0.000483784
0.000977117
0.000936707
0.000899649
0.000865624
0.000834345
0.000805553
0.000779016
0.000754524
0.000731892
0.000710948
0.000691542
0.000673536
0.000656806
0.000641241
0.00062674
0.000613212
0.000600574
0.000588753
0.000577681
0.000567297
0.000557544
0.000548374
0.000539739
0.000531598
0.000523914
0.000516651
0.000509778
0.000503267
0.000497089
0.000491223
0.000485644
0.000480334
0.000475273
0.000470444
0.000465831
0.000461421
0.000457199
0.000453153
0.000449273
0.000445547
0.000441967
0.000438523
0.000435208
0.000432014
0.000428935
0.000425965
0.000423099
0.000420332
0.00041766
0.00041508
0.000412588
0.000410184
0.000407865
0.000405631
0.000403482
0.000401418
0.000399442
0.000397555
0.00039576
0.000394064
0.000392469
0.000390984
0.000389614
0.00038837
0.00038726
0.000386295
0.000385488
0.000384851
0.000384398
0.000384146
0.00038411
0.000384306
0.000384752
0.000385465
0.000386462
0.000387759
0.000389371
0.000391313
0.000393595
0.000396226
0.000399212
0.000402553
0.000406246
0.000410282
0.000414648
0.00041932
0.000424272
0.000429467
0.000434861
0.000440402
0.000446025
0.000451658
0.000457216
0.0004626
0.000467696
0.00047237
0.000476471
0.000479825
0.000482239
0.000483506
0.000977117
0.000936707
0.000899649
0.000865625
0.000834346
0.000805553
0.000779016
0.000754525
0.000731893
0.00071095
0.000691544
0.000673538
0.000656808
0.000641243
0.000626742
0.000613215
0.000600578
0.000588757
0.000577685
0.000567301
0.000557549
0.000548378
0.000539744
0.000531604
0.00052392
0.000516657
0.000509785
0.000503274
0.000497097
0.000491231
0.000485653
0.000480343
0.000475282
0.000470454
0.000465842
0.000461432
0.00045721
0.000453165
0.000449285
0.00044556
0.00044198
0.000438537
0.000435223
0.000432029
0.000428951
0.000425982
0.000423116
0.00042035
0.000417678
0.000415099
0.000412608
0.000410204
0.000407885
0.000405652
0.000403502
0.000401439
0.000399462
0.000397575
0.00039578
0.000394083
0.000392487
0.000391
0.000389629
0.000388382
0.00038727
0.000386302
0.00038549
0.000384849
0.000384391
0.000384133
0.00038409
0.000384278
0.000384715
0.000385418
0.000386404
0.00038769
0.00038929
0.000391218
0.000393486
0.000396102
0.000399072
0.000402398
0.000406076
0.000410097
0.000414447
0.000419105
0.000424043
0.000429226
0.000434608
0.000440139
0.000445753
0.00045138
0.000456932
0.000462312
0.000467405
0.000472078
0.000476179
0.000479533
0.000481948
0.000483216
0.000977118
0.000936707
0.000899649
0.000865625
0.000834346
0.000805554
0.000779017
0.000754526
0.000731894
0.000710951
0.000691545
0.000673539
0.00065681
0.000641246
0.000626745
0.000613218
0.000600581
0.000588761
0.000577689
0.000567305
0.000557553
0.000548383
0.000539749
0.000531609
0.000523926
0.000516664
0.000509792
0.000503281
0.000497105
0.000491239
0.000485661
0.000480352
0.000475292
0.000470464
0.000465852
0.000461443
0.000457222
0.000453177
0.000449298
0.000445574
0.000441994
0.000438552
0.000435238
0.000432045
0.000428968
0.000425999
0.000423134
0.000420368
0.000417697
0.000415118
0.000412628
0.000410225
0.000407906
0.000405673
0.000403524
0.000401461
0.000399484
0.000397596
0.000395801
0.000394103
0.000392506
0.000391018
0.000389645
0.000388396
0.00038728
0.000386309
0.000385494
0.000384848
0.000384385
0.00038412
0.00038407
0.00038425
0.000384678
0.000385371
0.000386346
0.00038762
0.000389207
0.000391121
0.000393375
0.000395976
0.000398931
0.00040224
0.000405902
0.000409907
0.000414242
0.000418885
0.000423809
0.000428978
0.000434349
0.000439868
0.000445474
0.000451093
0.00045664
0.000462015
0.000467105
0.000471777
0.000475877
0.000479232
0.000481648
0.000482916
0.000977118
0.000936707
0.00089965
0.000865625
0.000834346
0.000805555
0.000779018
0.000754527
0.000731895
0.000710952
0.000691547
0.000673541
0.000656812
0.000641248
0.000626748
0.000613221
0.000600584
0.000588764
0.000577693
0.000567309
0.000557558
0.000548388
0.000539755
0.000531615
0.000523932
0.00051667
0.000509799
0.000503288
0.000497113
0.000491247
0.00048567
0.000480361
0.000475302
0.000470474
0.000465863
0.000461454
0.000457234
0.00045319
0.000449311
0.000445587
0.000442009
0.000438567
0.000435254
0.000432062
0.000428985
0.000426017
0.000423153
0.000420388
0.000417717
0.000415139
0.000412649
0.000410246
0.000407928
0.000405695
0.000403547
0.000401483
0.000399506
0.000397619
0.000395823
0.000394124
0.000392526
0.000391037
0.000389662
0.000388411
0.000387292
0.000386317
0.000385498
0.000384847
0.000384379
0.000384108
0.00038405
0.000384222
0.000384641
0.000385324
0.000386288
0.000387549
0.000389123
0.000391024
0.000393262
0.000395848
0.000398787
0.00040208
0.000405725
0.000409714
0.000414033
0.00041866
0.00042357
0.000428725
0.000434084
0.000439592
0.000445189
0.0004508
0.00045634
0.000461711
0.000466798
0.000471468
0.000475568
0.000478922
0.000481339
0.000482607
0.000977118
0.000936707
0.00089965
0.000865626
0.000834347
0.000805555
0.000779019
0.000754528
0.000731896
0.000710954
0.000691549
0.000673543
0.000656814
0.00064125
0.00062675
0.000613224
0.000600588
0.000588768
0.000577697
0.000567314
0.000557563
0.000548393
0.00053976
0.000531621
0.000523938
0.000516677
0.000509806
0.000503296
0.000497121
0.000491256
0.000485679
0.000480371
0.000475312
0.000470485
0.000465874
0.000461466
0.000457246
0.000453203
0.000449325
0.000445602
0.000442024
0.000438583
0.00043527
0.000432079
0.000429003
0.000426035
0.000423172
0.000420407
0.000417738
0.00041516
0.000412671
0.000410268
0.000407951
0.000405718
0.00040357
0.000401507
0.00039953
0.000397642
0.000395846
0.000394146
0.000392547
0.000391056
0.00038968
0.000388426
0.000387305
0.000386327
0.000385503
0.000384848
0.000384374
0.000384096
0.000384031
0.000384195
0.000384605
0.000385277
0.00038623
0.000387479
0.000389039
0.000390925
0.000393149
0.000395719
0.000398642
0.000401919
0.000405547
0.000409519
0.000413821
0.000418433
0.000423328
0.000428469
0.000433815
0.000439312
0.000444899
0.000450501
0.000456035
0.000461401
0.000466485
0.000471153
0.000475251
0.000478606
0.000481023
0.000482292
0.000977118
0.000936707
0.00089965
0.000865626
0.000834347
0.000805556
0.000779019
0.000754529
0.000731897
0.000710955
0.00069155
0.000673545
0.000656817
0.000641253
0.000626753
0.000613227
0.000600591
0.000588772
0.000577701
0.000567318
0.000557567
0.000548399
0.000539766
0.000531627
0.000523945
0.000516684
0.000509813
0.000503304
0.000497129
0.000491264
0.000485688
0.00048038
0.000475322
0.000470496
0.000465886
0.000461478
0.000457259
0.000453216
0.000449339
0.000445616
0.000442039
0.000438599
0.000435287
0.000432097
0.000429021
0.000426054
0.000423192
0.000420428
0.000417759
0.000415182
0.000412693
0.000410291
0.000407975
0.000405742
0.000403594
0.000401531
0.000399554
0.000397666
0.000395869
0.000394169
0.000392569
0.000391077
0.000389698
0.000388442
0.000387318
0.000386337
0.000385509
0.000384849
0.000384369
0.000384085
0.000384013
0.000384168
0.000384568
0.000385231
0.000386172
0.000387408
0.000388955
0.000390827
0.000393036
0.00039559
0.000398496
0.000401756
0.000405368
0.000409323
0.000413608
0.000418204
0.000423083
0.000428211
0.000433543
0.000439029
0.000444605
0.000450199
0.000455726
0.000461087
0.000466166
0.000470832
0.00047493
0.000478284
0.000480702
0.000481971
0.000977118
0.000936707
0.00089965
0.000865626
0.000834348
0.000805556
0.00077902
0.00075453
0.000731899
0.000710956
0.000691552
0.000673547
0.000656819
0.000641255
0.000626756
0.00061323
0.000600594
0.000588775
0.000577705
0.000567322
0.000557572
0.000548404
0.000539771
0.000531633
0.000523951
0.000516691
0.000509821
0.000503311
0.000497137
0.000491273
0.000485698
0.00048039
0.000475332
0.000470507
0.000465897
0.00046149
0.000457272
0.00045323
0.000449353
0.000445631
0.000442055
0.000438615
0.000435304
0.000432114
0.00042904
0.000426074
0.000423212
0.000420449
0.00041778
0.000415204
0.000412716
0.000410315
0.000407999
0.000405767
0.000403619
0.000401556
0.000399579
0.000397691
0.000395894
0.000394193
0.000392592
0.000391098
0.000389718
0.00038846
0.000387333
0.000386348
0.000385516
0.000384851
0.000384365
0.000384075
0.000383995
0.000384142
0.000384533
0.000385185
0.000386114
0.000387338
0.000388872
0.000390729
0.000392923
0.000395461
0.00039835
0.000401593
0.000405188
0.000409126
0.000413395
0.000417974
0.000422838
0.00042795
0.00043327
0.000438743
0.000444309
0.000449894
0.000455414
0.000460769
0.000465845
0.000470508
0.000474604
0.000477959
0.000480377
0.000481646
0.000977118
0.000936707
0.00089965
0.000865626
0.000834348
0.000805557
0.000779021
0.000754531
0.0007319
0.000710958
0.000691553
0.000673549
0.000656821
0.000641257
0.000626758
0.000613233
0.000600598
0.000588779
0.000577709
0.000567327
0.000557577
0.000548409
0.000539777
0.000531639
0.000523957
0.000516698
0.000509828
0.000503319
0.000497145
0.000491282
0.000485707
0.0004804
0.000475343
0.000470518
0.000465909
0.000461503
0.000457285
0.000453244
0.000449368
0.000445646
0.000442071
0.000438632
0.000435321
0.000432132
0.000429058
0.000426093
0.000423232
0.00042047
0.000417802
0.000415227
0.000412739
0.000410339
0.000408023
0.000405792
0.000403644
0.000401581
0.000399604
0.000397716
0.000395919
0.000394217
0.000392615
0.00039112
0.000389738
0.000388477
0.000387348
0.000386359
0.000385523
0.000384853
0.000384362
0.000384065
0.000383978
0.000384117
0.000384498
0.00038514
0.000386058
0.000387269
0.000388789
0.000390632
0.00039281
0.000395332
0.000398205
0.000401431
0.000405009
0.00040893
0.000413181
0.000417744
0.000422592
0.00042769
0.000432996
0.000438457
0.000444012
0.000449588
0.0004551
0.000460449
0.000465521
0.000470181
0.000474276
0.00047763
0.000480048
0.000481319
0.000977118
0.000936707
0.000899651
0.000865627
0.000834348
0.000805557
0.000779021
0.000754532
0.000731901
0.000710959
0.000691555
0.00067355
0.000656823
0.00064126
0.000626761
0.000613235
0.000600601
0.000588782
0.000577713
0.000567331
0.000557582
0.000548414
0.000539782
0.000531645
0.000523964
0.000516704
0.000509835
0.000503327
0.000497154
0.000491291
0.000485717
0.00048041
0.000475353
0.000470529
0.000465921
0.000461515
0.000457298
0.000453257
0.000449382
0.000445662
0.000442087
0.000438648
0.000435339
0.000432151
0.000429078
0.000426113
0.000423253
0.000420491
0.000417825
0.000415249
0.000412763
0.000410363
0.000408048
0.000405817
0.00040367
0.000401607
0.00039963
0.000397742
0.000395944
0.000394241
0.000392639
0.000391142
0.000389758
0.000388496
0.000387363
0.000386371
0.000385531
0.000384857
0.00038436
0.000384057
0.000383962
0.000384092
0.000384465
0.000385096
0.000386002
0.000387201
0.000388708
0.000390536
0.000392699
0.000395205
0.000398061
0.00040127
0.00040483
0.000408734
0.000412969
0.000417515
0.000422347
0.00042743
0.000432722
0.000438171
0.000443715
0.000449281
0.000454786
0.000460129
0.000465196
0.000469854
0.000473947
0.0004773
0.000479719
0.000480989
0.000977118
0.000936708
0.000899651
0.000865627
0.000834349
0.000805558
0.000779022
0.000754533
0.000731902
0.00071096
0.000691556
0.000673552
0.000656825
0.000641262
0.000626764
0.000613238
0.000600604
0.000588786
0.000577717
0.000567335
0.000557586
0.000548419
0.000539788
0.000531651
0.00052397
0.000516711
0.000509842
0.000503335
0.000497162
0.0004913
0.000485726
0.00048042
0.000475364
0.00047054
0.000465933
0.000461528
0.000457311
0.000453271
0.000449397
0.000445677
0.000442103
0.000438665
0.000435357
0.000432169
0.000429097
0.000426133
0.000423274
0.000420513
0.000417847
0.000415273
0.000412787
0.000410387
0.000408073
0.000405842
0.000403696
0.000401633
0.000399656
0.000397768
0.00039597
0.000394266
0.000392663
0.000391165
0.000389779
0.000388514
0.000387379
0.000386384
0.00038554
0.00038486
0.000384358
0.000384049
0.000383947
0.000384069
0.000384432
0.000385052
0.000385948
0.000387134
0.000388627
0.000390442
0.000392589
0.000395079
0.000397919
0.000401111
0.000404654
0.00040854
0.000412758
0.000417288
0.000422104
0.000427172
0.00043245
0.000437886
0.000443419
0.000448976
0.000454472
0.000459809
0.000464872
0.000469526
0.000473617
0.00047697
0.000479389
0.00048066
0.000977118
0.000936708
0.000899651
0.000865627
0.000834349
0.000805558
0.000779023
0.000754533
0.000731903
0.000710961
0.000691557
0.000673554
0.000656826
0.000641264
0.000626766
0.000613241
0.000600607
0.000588789
0.000577721
0.00056734
0.000557591
0.000548424
0.000539793
0.000531657
0.000523976
0.000516718
0.00050985
0.000503343
0.00049717
0.000491309
0.000485735
0.00048043
0.000475375
0.000470551
0.000465945
0.00046154
0.000457324
0.000453285
0.000449411
0.000445692
0.000442119
0.000438682
0.000435374
0.000432188
0.000429116
0.000426154
0.000423295
0.000420535
0.00041787
0.000415296
0.000412811
0.000410412
0.000408098
0.000405868
0.000403722
0.000401659
0.000399683
0.000397794
0.000395996
0.000394292
0.000392687
0.000391188
0.000389801
0.000388534
0.000387396
0.000386397
0.000385549
0.000384865
0.000384358
0.000384041
0.000383932
0.000384046
0.0003844
0.00038501
0.000385895
0.000387069
0.000388549
0.000390349
0.000392481
0.000394955
0.000397779
0.000400954
0.000404479
0.000408349
0.000412549
0.000417063
0.000421863
0.000426916
0.00043218
0.000437603
0.000443125
0.000448672
0.000454161
0.000459491
0.000464549
0.0004692
0.000473289
0.000476641
0.00047906
0.000480331
0.000977118
0.000936708
0.000899651
0.000865627
0.000834349
0.000805559
0.000779023
0.000754534
0.000731903
0.000710962
0.000691559
0.000673555
0.000656828
0.000641266
0.000626768
0.000613244
0.00060061
0.000588793
0.000577724
0.000567344
0.000557595
0.000548429
0.000539798
0.000531662
0.000523983
0.000516725
0.000509857
0.00050335
0.000497178
0.000491317
0.000485745
0.00048044
0.000475385
0.000470562
0.000465956
0.000461553
0.000457338
0.000453299
0.000449426
0.000445708
0.000442135
0.000438699
0.000435392
0.000432206
0.000429135
0.000426174
0.000423315
0.000420556
0.000417892
0.000415319
0.000412835
0.000410437
0.000408123
0.000405894
0.000403748
0.000401686
0.000399709
0.00039782
0.000396022
0.000394317
0.000392712
0.000391211
0.000389822
0.000388553
0.000387413
0.000386411
0.000385559