/*--------------------------------*- C++ -*----------------------------------*\
  =========                 |
  \\      /  F ield         | OpenFOAM: The Open Source CFD Toolbox
   \\    /   O peration     | Website:  https://openfoam.org
    \\  /    A nd           | Version:  11
     \\/     M anipulation  |
\*---------------------------------------------------------------------------*/
FoamFile
{
    format      ascii;
    class       surfaceScalarField;
    location    "588";
    object      phi;
}
// * * * * * * * * * * * * * * * * * * * * * * * * * * * * * * * * * * * * * //

dimensions      [0 3 -1 0 0 0 0];

internalField   nonuniform List<scalar> 
19800
(
1.99999e-05
-6.24553e-10
1.99997e-05
-1.82672e-09
1.99995e-05
-3.02527e-09
1.99993e-05
-4.25456e-09
1.9999e-05
-5.53655e-09
1.99987e-05
-6.88626e-09
1.99983e-05
-8.31613e-09
1.99979e-05
-9.83715e-09
1.99974e-05
-1.14595e-08
1.99969e-05
-1.31927e-08
1.99963e-05
-1.50464e-08
1.99957e-05
-1.70298e-08
1.9995e-05
-1.91524e-08
1.99942e-05
-2.14237e-08
1.99934e-05
-2.38534e-08
1.99925e-05
-2.64515e-08
1.99915e-05
-2.9228e-08
1.99904e-05
-3.21935e-08
1.99892e-05
-3.53585e-08
1.99879e-05
-3.87342e-08
1.99865e-05
-4.2332e-08
1.9985e-05
-4.61633e-08
1.99834e-05
-5.02404e-08
1.99817e-05
-5.45756e-08
1.99798e-05
-5.91815e-08
1.99778e-05
-6.40714e-08
1.99756e-05
-6.92585e-08
1.99733e-05
-7.47568e-08
1.99708e-05
-8.05804e-08
1.99681e-05
-8.67438e-08
1.99653e-05
-9.3262e-08
1.99622e-05
-1.0015e-07
1.9959e-05
-1.07424e-07
1.99555e-05
-1.15098e-07
1.99519e-05
-1.23191e-07
1.99479e-05
-1.31717e-07
1.99438e-05
-1.40694e-07
1.99394e-05
-1.50139e-07
1.99347e-05
-1.60069e-07
1.99297e-05
-1.705e-07
1.99244e-05
-1.81452e-07
1.99188e-05
-1.92941e-07
1.99129e-05
-2.04986e-07
1.99066e-05
-2.17603e-07
1.99e-05
-2.30812e-07
1.9893e-05
-2.44628e-07
1.98857e-05
-2.5907e-07
1.98779e-05
-2.74156e-07
1.98697e-05
-2.89901e-07
1.98611e-05
-3.06323e-07
1.9852e-05
-3.23437e-07
1.98425e-05
-3.41259e-07
1.98325e-05
-3.59804e-07
1.9822e-05
-3.79086e-07
1.98109e-05
-3.99116e-07
1.97993e-05
-4.19908e-07
1.97872e-05
-4.41471e-07
1.97745e-05
-4.63814e-07
1.97612e-05
-4.86945e-07
1.97474e-05
-5.10867e-07
1.97329e-05
-5.35586e-07
1.97177e-05
-5.61101e-07
1.97019e-05
-5.87409e-07
1.96855e-05
-6.14507e-07
1.96684e-05
-6.42386e-07
1.96506e-05
-6.71033e-07
1.96321e-05
-7.00433e-07
1.96129e-05
-7.30566e-07
1.9593e-05
-7.61406e-07
1.95724e-05
-7.92924e-07
1.95511e-05
-8.25082e-07
1.95291e-05
-8.5784e-07
1.95064e-05
-8.91148e-07
1.9483e-05
-9.24951e-07
1.94589e-05
-9.59187e-07
1.94341e-05
-9.93783e-07
1.94088e-05
-1.02866e-06
1.93828e-05
-1.06373e-06
1.93563e-05
-1.0989e-06
1.93292e-05
-1.13406e-06
1.93018e-05
-1.16908e-06
1.92739e-05
-1.20386e-06
1.92457e-05
-1.23824e-06
1.92172e-05
-1.27209e-06
1.91886e-05
-1.30525e-06
1.91601e-05
-1.33754e-06
1.91316e-05
-1.36881e-06
1.91033e-05
-1.39885e-06
1.90754e-05
-1.42748e-06
1.90481e-05
-1.45449e-06
1.90216e-05
-1.47968e-06
1.89961e-05
-1.50283e-06
1.89717e-05
-1.52371e-06
1.89489e-05
-1.54212e-06
1.89279e-05
-1.55782e-06
1.8909e-05
-1.57061e-06
1.88922e-05
-1.58017e-06
1.88778e-05
-1.58633e-06
1.88671e-05
-1.58942e-06
-1.59085e-06
1.99999e-05
-5.5391e-10
1.99998e-05
-1.67836e-09
1.99996e-05
-2.82702e-09
1.99993e-05
-4.01357e-09
1.99991e-05
-5.25381e-09
1.99987e-05
-6.56084e-09
1.99984e-05
-7.94615e-09
1.99979e-05
-9.42014e-09
1.99975e-05
-1.09926e-08
1.9997e-05
-1.26728e-08
1.99964e-05
-1.44699e-08
1.99957e-05
-1.63931e-08
1.9995e-05
-1.84516e-08
1.99943e-05
-2.06546e-08
1.99934e-05
-2.30115e-08
1.99925e-05
-2.55321e-08
1.99915e-05
-2.82262e-08
1.99904e-05
-3.1104e-08
1.99892e-05
-3.4176e-08
1.9988e-05
-3.74528e-08
1.99866e-05
-4.09455e-08
1.99851e-05
-4.46656e-08
1.99835e-05
-4.86247e-08
1.99817e-05
-5.28349e-08
1.99798e-05
-5.73086e-08
1.99778e-05
-6.20586e-08
1.99757e-05
-6.7098e-08
1.99734e-05
-7.24403e-08
1.99709e-05
-7.80992e-08
1.99682e-05
-8.40889e-08
1.99654e-05
-9.0424e-08
1.99624e-05
-9.71193e-08
1.99591e-05
-1.0419e-07
1.99557e-05
-1.11652e-07
1.9952e-05
-1.1952e-07
1.99481e-05
-1.27811e-07
1.99439e-05
-1.36541e-07
1.99395e-05
-1.45726e-07
1.99348e-05
-1.55384e-07
1.99299e-05
-1.65532e-07
1.99246e-05
-1.76186e-07
1.9919e-05
-1.87364e-07
1.99131e-05
-1.99084e-07
1.99069e-05
-2.11361e-07
1.99003e-05
-2.24215e-07
1.98933e-05
-2.37662e-07
1.9886e-05
-2.5172e-07
1.98782e-05
-2.66405e-07
1.98701e-05
-2.81734e-07
1.98615e-05
-2.97723e-07
1.98524e-05
-3.14388e-07
1.98429e-05
-3.31744e-07
1.98329e-05
-3.49806e-07
1.98224e-05
-3.68588e-07
1.98114e-05
-3.88102e-07
1.97998e-05
-4.08359e-07
1.97877e-05
-4.29372e-07
1.97751e-05
-4.51147e-07
1.97618e-05
-4.73693e-07
1.9748e-05
-4.97016e-07
1.97335e-05
-5.21119e-07
1.97184e-05
-5.46002e-07
1.97027e-05
-5.71666e-07
1.96863e-05
-5.98105e-07
1.96692e-05
-6.25312e-07
1.96514e-05
-6.53278e-07
1.9633e-05
-6.81986e-07
1.96138e-05
-7.1142e-07
1.9594e-05
-7.41556e-07
1.95734e-05
-7.72365e-07
1.95522e-05
-8.03815e-07
1.95302e-05
-8.35867e-07
1.95075e-05
-8.68476e-07
1.94841e-05
-9.0159e-07
1.94601e-05
-9.3515e-07
1.94354e-05
-9.69092e-07
1.94101e-05
-1.00334e-06
1.93842e-05
-1.03781e-06
1.93577e-05
-1.07242e-06
1.93307e-05
-1.10706e-06
1.93033e-05
-1.14163e-06
1.92754e-05
-1.17601e-06
1.92472e-05
-1.21008e-06
1.92188e-05
-1.24369e-06
1.91903e-05
-1.2767e-06
1.91617e-05
-1.30897e-06
1.91332e-05
-1.34032e-06
1.9105e-05
-1.37059e-06
1.90771e-05
-1.3996e-06
1.90498e-05
-1.42716e-06
1.90232e-05
-1.45309e-06
1.89975e-05
-1.47718e-06
1.89731e-05
-1.49924e-06
1.895e-05
-1.51905e-06
1.89286e-05
-1.5364e-06
1.8909e-05
-1.55108e-06
1.88917e-05
-1.56284e-06
1.8877e-05
-1.57159e-06
1.88651e-05
-1.57755e-06
-1.58121e-06
1.99999e-05
-5.0083e-10
1.99998e-05
-1.54691e-09
1.99996e-05
-2.63841e-09
1.99994e-05
-3.77769e-09
1.99991e-05
-4.97391e-09
1.99988e-05
-6.23724e-09
1.99984e-05
-7.57761e-09
1.9998e-05
-9.00455e-09
1.99975e-05
-1.05272e-08
1.9997e-05
-1.21547e-08
1.99964e-05
-1.38956e-08
1.99958e-05
-1.57591e-08
1.99951e-05
-1.77538e-08
1.99943e-05
-1.98889e-08
1.99935e-05
-2.21735e-08
1.99926e-05
-2.46171e-08
1.99916e-05
-2.72292e-08
1.99905e-05
-3.00199e-08
1.99893e-05
-3.29992e-08
1.99881e-05
-3.61776e-08
1.99867e-05
-3.95659e-08
1.99852e-05
-4.31752e-08
1.99836e-05
-4.7017e-08
1.99819e-05
-5.11029e-08
1.998e-05
-5.5445e-08
1.9978e-05
-6.00558e-08
1.99758e-05
-6.49482e-08
1.99735e-05
-7.01351e-08
1.99711e-05
-7.56301e-08
1.99684e-05
-8.1447e-08
1.99656e-05
-8.75999e-08
1.99626e-05
-9.41033e-08
1.99594e-05
-1.00972e-07
1.99559e-05
-1.08221e-07
1.99523e-05
-1.15866e-07
1.99484e-05
-1.23923e-07
1.99443e-05
-1.32407e-07
1.99399e-05
-1.41334e-07
1.99352e-05
-1.50722e-07
1.99303e-05
-1.60587e-07
1.9925e-05
-1.70945e-07
1.99195e-05
-1.81813e-07
1.99136e-05
-1.93208e-07
1.99074e-05
-2.05148e-07
1.99008e-05
-2.17649e-07
1.98939e-05
-2.30729e-07
1.98866e-05
-2.44403e-07
1.98788e-05
-2.58689e-07
1.98707e-05
-2.73603e-07
1.98621e-05
-2.89161e-07
1.98531e-05
-3.05379e-07
1.98437e-05
-3.22271e-07
1.98337e-05
-3.39852e-07
1.98233e-05
-3.58136e-07
1.98123e-05
-3.77135e-07
1.98008e-05
-3.96861e-07
1.97887e-05
-4.17324e-07
1.97761e-05
-4.38534e-07
1.97629e-05
-4.60499e-07
1.97491e-05
-4.83223e-07
1.97347e-05
-5.06712e-07
1.97197e-05
-5.30967e-07
1.9704e-05
-5.55988e-07
1.96877e-05
-5.8177e-07
1.96707e-05
-6.08309e-07
1.9653e-05
-6.35595e-07
1.96346e-05
-6.63615e-07
1.96156e-05
-6.92351e-07
1.95958e-05
-7.21784e-07
1.95753e-05
-7.51888e-07
1.95541e-05
-7.82631e-07
1.95322e-05
-8.13979e-07
1.95097e-05
-8.4589e-07
1.94864e-05
-8.78315e-07
1.94624e-05
-9.11202e-07
1.94378e-05
-9.44488e-07
1.94126e-05
-9.78106e-07
1.93868e-05
-1.01198e-06
1.93604e-05
-1.04603e-06
1.93335e-05
-1.08015e-06
1.93061e-05
-1.11426e-06
1.92783e-05
-1.14824e-06
1.92502e-05
-1.18197e-06
1.92219e-05
-1.21534e-06
1.91933e-05
-1.2482e-06
1.91648e-05
-1.28041e-06
1.91363e-05
-1.31184e-06
1.9108e-05
-1.34231e-06
1.90801e-05
-1.37167e-06
1.90527e-05
-1.39975e-06
1.9026e-05
-1.42636e-06
1.90001e-05
-1.45133e-06
1.89753e-05
-1.47446e-06
1.89519e-05
-1.49556e-06
1.89299e-05
-1.51443e-06
1.89096e-05
-1.53083e-06
1.88914e-05
-1.54457e-06
1.88752e-05
-1.55546e-06
1.88611e-05
-1.56344e-06
-1.56851e-06
2e-05
-4.57706e-10
1.99998e-05
-1.43142e-09
1.99997e-05
-2.46316e-09
1.99994e-05
-3.55136e-09
1.99992e-05
-4.70075e-09
1.99988e-05
-5.91858e-09
1.99985e-05
-7.21299e-09
1.99981e-05
-8.59238e-09
1.99976e-05
-1.00652e-08
1.99971e-05
-1.16399e-08
1.99965e-05
-1.3325e-08
1.99959e-05
-1.51289e-08
1.99952e-05
-1.70603e-08
1.99944e-05
-1.9128e-08
1.99936e-05
-2.13408e-08
1.99927e-05
-2.37079e-08
1.99917e-05
-2.62387e-08
1.99906e-05
-2.89428e-08
1.99895e-05
-3.18302e-08
1.99882e-05
-3.49109e-08
1.99868e-05
-3.81955e-08
1.99853e-05
-4.16948e-08
1.99837e-05
-4.542e-08
1.9982e-05
-4.93824e-08
1.99802e-05
-5.35938e-08
1.99782e-05
-5.80664e-08
1.9976e-05
-6.28127e-08
1.99738e-05
-6.78453e-08
1.99713e-05
-7.31774e-08
1.99687e-05
-7.88225e-08
1.99659e-05
-8.47944e-08
1.99629e-05
-9.11072e-08
1.99597e-05
-9.77753e-08
1.99563e-05
-1.04813e-07
1.99526e-05
-1.12237e-07
1.99488e-05
-1.2006e-07
1.99447e-05
-1.283e-07
1.99403e-05
-1.36971e-07
1.99357e-05
-1.4609e-07
1.99308e-05
-1.55673e-07
1.99256e-05
-1.65736e-07
1.992e-05
-1.76296e-07
1.99142e-05
-1.8737e-07
1.9908e-05
-1.98974e-07
1.99015e-05
-2.11124e-07
1.98946e-05
-2.23838e-07
1.98873e-05
-2.37131e-07
1.98797e-05
-2.51021e-07
1.98716e-05
-2.65523e-07
1.98631e-05
-2.80652e-07
1.98541e-05
-2.96425e-07
1.98447e-05
-3.12856e-07
1.98348e-05
-3.29958e-07
1.98244e-05
-3.47747e-07
1.98135e-05
-3.66234e-07
1.98021e-05
-3.85431e-07
1.97901e-05
-4.05349e-07
1.97776e-05
-4.25997e-07
1.97645e-05
-4.47383e-07
1.97508e-05
-4.69513e-07
1.97364e-05
-4.92391e-07
1.97215e-05
-5.16021e-07
1.97059e-05
-5.40401e-07
1.96897e-05
-5.65531e-07
1.96728e-05
-5.91405e-07
1.96552e-05
-6.18014e-07
1.96369e-05
-6.45348e-07
1.9618e-05
-6.73391e-07
1.95983e-05
-7.02124e-07
1.95779e-05
-7.31524e-07
1.95569e-05
-7.61564e-07
1.95351e-05
-7.9221e-07
1.95126e-05
-8.23424e-07
1.94895e-05
-8.55163e-07
1.94657e-05
-8.87377e-07
1.94412e-05
-9.20008e-07
1.94161e-05
-9.52996e-07
1.93904e-05
-9.86268e-07
1.93641e-05
-1.01975e-06
1.93373e-05
-1.05336e-06
1.931e-05
-1.08699e-06
1.92823e-05
-1.12056e-06
1.92543e-05
-1.15396e-06
1.92261e-05
-1.18706e-06
1.91976e-05
-1.21975e-06
1.91691e-05
-1.2519e-06
1.91406e-05
-1.28337e-06
1.91123e-05
-1.31401e-06
1.90843e-05
-1.34368e-06
1.90568e-05
-1.37221e-06
1.90299e-05
-1.39945e-06
1.90038e-05
-1.42521e-06
1.89786e-05
-1.44931e-06
1.89546e-05
-1.47157e-06
1.89319e-05
-1.49176e-06
1.89108e-05
-1.50967e-06
1.88913e-05
-1.52504e-06
1.88734e-05
-1.5376e-06
1.8857e-05
-1.54705e-06
-1.55323e-06
2e-05
-4.21382e-10
1.99999e-05
-1.32864e-09
1.99997e-05
-2.30124e-09
1.99995e-05
-3.33661e-09
1.99992e-05
-4.43706e-09
1.99989e-05
-5.60765e-09
1.99986e-05
-6.85486e-09
1.99981e-05
-8.18594e-09
1.99977e-05
-9.60852e-09
1.99972e-05
-1.11304e-08
1.99966e-05
-1.27597e-08
1.9996e-05
-1.45044e-08
1.99953e-05
-1.63729e-08
1.99945e-05
-1.83735e-08
1.99937e-05
-2.05151e-08
1.99928e-05
-2.28064e-08
1.99918e-05
-2.52565e-08
1.99908e-05
-2.78748e-08
1.99896e-05
-3.06709e-08
1.99884e-05
-3.36548e-08
1.9987e-05
-3.68366e-08
1.99855e-05
-4.02268e-08
1.99839e-05
-4.38363e-08
1.99822e-05
-4.76763e-08
1.99804e-05
-5.17581e-08
1.99784e-05
-5.60936e-08
1.99763e-05
-6.06949e-08
1.9974e-05
-6.55744e-08
1.99716e-05
-7.0745e-08
1.9969e-05
-7.62197e-08
1.99662e-05
-8.2012e-08
1.99633e-05
-8.81355e-08
1.99601e-05
-9.46045e-08
1.99567e-05
-1.01433e-07
1.99531e-05
-1.08636e-07
1.99493e-05
-1.16229e-07
1.99452e-05
-1.24226e-07
1.99409e-05
-1.32642e-07
1.99363e-05
-1.41495e-07
1.99314e-05
-1.50798e-07
1.99262e-05
-1.60569e-07
1.99208e-05
-1.70824e-07
1.9915e-05
-1.81578e-07
1.99088e-05
-1.92848e-07
1.99024e-05
-2.0465e-07
1.98955e-05
-2.17001e-07
1.98883e-05
-2.29916e-07
1.98807e-05
-2.43412e-07
1.98727e-05
-2.57504e-07
1.98642e-05
-2.72208e-07
1.98554e-05
-2.87539e-07
1.9846e-05
-3.03512e-07
1.98362e-05
-3.2014e-07
1.98259e-05
-3.37437e-07
1.98151e-05
-3.55416e-07
1.98037e-05
-3.74088e-07
1.97918e-05
-3.93463e-07
1.97794e-05
-4.13553e-07
1.97664e-05
-4.34364e-07
1.97528e-05
-4.55903e-07
1.97385e-05
-4.78175e-07
1.97237e-05
-5.01183e-07
1.97082e-05
-5.24929e-07
1.96921e-05
-5.4941e-07
1.96753e-05
-5.74622e-07
1.96579e-05
-6.00559e-07
1.96397e-05
-6.27211e-07
1.96209e-05
-6.54564e-07
1.96014e-05
-6.82602e-07
1.95812e-05
-7.11303e-07
1.95602e-05
-7.40642e-07
1.95386e-05
-7.70589e-07
1.95163e-05
-8.0111e-07
1.94933e-05
-8.32164e-07
1.94696e-05
-8.63705e-07
1.94453e-05
-8.95683e-07
1.94204e-05
-9.28039e-07
1.93948e-05
-9.60709e-07
1.93687e-05
-9.93622e-07
1.9342e-05
-1.0267e-06
1.93149e-05
-1.05986e-06
1.92873e-05
-1.09301e-06
1.92594e-05
-1.12605e-06
1.92313e-05
-1.15888e-06
1.92029e-05
-1.19138e-06
1.91744e-05
-1.22343e-06
1.9146e-05
-1.25491e-06
1.91176e-05
-1.28568e-06
1.90896e-05
-1.31561e-06
1.90619e-05
-1.34453e-06
1.90347e-05
-1.37231e-06
1.90083e-05
-1.39876e-06
1.89827e-05
-1.42372e-06
1.89581e-05
-1.44698e-06
1.89347e-05
-1.46832e-06
1.89125e-05
-1.48749e-06
1.88916e-05
-1.50419e-06
1.88721e-05
-1.51803e-06
1.88535e-05
-1.52853e-06
-1.53556e-06
2e-05
-3.89868e-10
1.99999e-05
-1.23609e-09
1.99997e-05
-2.15155e-09
1.99995e-05
-3.13391e-09
1.99993e-05
-4.18434e-09
1.9999e-05
-5.30642e-09
1.99986e-05
-6.50536e-09
1.99982e-05
-7.78735e-09
1.99978e-05
-9.1592e-09
1.99973e-05
-1.06281e-08
1.99967e-05
-1.22015e-08
1.99961e-05
-1.38872e-08
1.99954e-05
-1.56931e-08
1.99947e-05
-1.76272e-08
1.99939e-05
-1.96981e-08
1.9993e-05
-2.19142e-08
1.9992e-05
-2.42843e-08
1.99909e-05
-2.68176e-08
1.99898e-05
-2.95234e-08
1.99885e-05
-3.24113e-08
1.99872e-05
-3.54913e-08
1.99857e-05
-3.87735e-08
1.99842e-05
-4.22685e-08
1.99825e-05
-4.59872e-08
1.99807e-05
-4.99406e-08
1.99787e-05
-5.41403e-08
1.99766e-05
-5.8598e-08
1.99744e-05
-6.33259e-08
1.9972e-05
-6.83364e-08
1.99694e-05
-7.36423e-08
1.99666e-05
-7.92566e-08
1.99637e-05
-8.51927e-08
1.99605e-05
-9.14644e-08
1.99572e-05
-9.80855e-08
1.99536e-05
-1.0507e-07
1.99498e-05
-1.12434e-07
1.99458e-05
-1.2019e-07
1.99415e-05
-1.28355e-07
1.9937e-05
-1.36943e-07
1.99321e-05
-1.45969e-07
1.9927e-05
-1.55451e-07
1.99216e-05
-1.65402e-07
1.99159e-05
-1.75839e-07
1.99098e-05
-1.86778e-07
1.99034e-05
-1.98236e-07
1.98966e-05
-2.10226e-07
1.98894e-05
-2.22767e-07
1.98819e-05
-2.35872e-07
1.9874e-05
-2.49559e-07
1.98656e-05
-2.63841e-07
1.98568e-05
-2.78734e-07
1.98475e-05
-2.94252e-07
1.98378e-05
-3.10409e-07
1.98276e-05
-3.27219e-07
1.98169e-05
-3.44693e-07
1.98056e-05
-3.62844e-07
1.97938e-05
-3.81683e-07
1.97815e-05
-4.01218e-07
1.97686e-05
-4.21459e-07
1.97551e-05
-4.42412e-07
1.9741e-05
-4.64083e-07
1.97263e-05
-4.86474e-07
1.9711e-05
-5.09589e-07
1.9695e-05
-5.33426e-07
1.96783e-05
-5.57982e-07
1.9661e-05
-5.83251e-07
1.9643e-05
-6.09226e-07
1.96244e-05
-6.35894e-07
1.9605e-05
-6.6324e-07
1.9585e-05
-6.91246e-07
1.95642e-05
-7.19888e-07
1.95428e-05
-7.4914e-07
1.95206e-05
-7.7897e-07
1.94978e-05
-8.09341e-07
1.94743e-05
-8.40212e-07
1.94501e-05
-8.71535e-07
1.94254e-05
-9.03259e-07
1.94e-05
-9.35324e-07
1.9374e-05
-9.67665e-07
1.93475e-05
-1.00021e-06
1.93206e-05
-1.03289e-06
1.92932e-05
-1.06561e-06
1.92654e-05
-1.09828e-06
1.92373e-05
-1.13081e-06
1.9209e-05
-1.16309e-06
1.91806e-05
-1.19501e-06
1.91521e-05
-1.22646e-06
1.91238e-05
-1.25731e-06
1.90956e-05
-1.28743e-06
1.90677e-05
-1.31668e-06
1.90404e-05
-1.34491e-06
1.90135e-05
-1.37195e-06
1.89875e-05
-1.39763e-06
1.89622e-05
-1.42174e-06
1.89379e-05
-1.44404e-06
1.89147e-05
-1.46425e-06
1.88925e-05
-1.48201e-06
1.88713e-05
-1.49684e-06
1.88509e-05
-1.50811e-06
-1.51566e-06
2e-05
-3.61833e-10
1.99999e-05
-1.15186e-09
1.99997e-05
-2.01276e-09
1.99996e-05
-2.94294e-09
1.99993e-05
-3.94314e-09
1.9999e-05
-5.0161e-09
1.99987e-05
-6.16606e-09
1.99983e-05
-7.39836e-09
1.99979e-05
-8.71906e-09
1.99974e-05
-1.01347e-08
1.99968e-05
-1.16523e-08
1.99962e-05
-1.32792e-08
1.99955e-05
-1.50227e-08
1.99948e-05
-1.68909e-08
1.9994e-05
-1.88916e-08
1.99931e-05
-2.10331e-08
1.99922e-05
-2.33241e-08
1.99911e-05
-2.57732e-08
1.999e-05
-2.83896e-08
1.99887e-05
-3.11826e-08
1.99874e-05
-3.41618e-08
1.9986e-05
-3.73372e-08
1.99844e-05
-4.07189e-08
1.99828e-05
-4.43176e-08
1.9981e-05
-4.8144e-08
1.9979e-05
-5.22093e-08
1.9977e-05
-5.6525e-08
1.99747e-05
-6.11029e-08
1.99724e-05
-6.5955e-08
1.99698e-05
-7.10938e-08
1.99671e-05
-7.6532e-08
1.99642e-05
-8.22826e-08
1.99611e-05
-8.8359e-08
1.99578e-05
-9.47748e-08
1.99542e-05
-1.01544e-07
1.99505e-05
-1.0868e-07
1.99465e-05
-1.16199e-07
1.99422e-05
-1.24113e-07
1.99377e-05
-1.3244e-07
1.9933e-05
-1.41192e-07
1.99279e-05
-1.50387e-07
1.99225e-05
-1.60038e-07
1.99169e-05
-1.70162e-07
1.99109e-05
-1.80773e-07
1.99045e-05
-1.91889e-07
1.98978e-05
-2.03523e-07
1.98907e-05
-2.15692e-07
1.98833e-05
-2.28411e-07
1.98754e-05
-2.41695e-07
1.98671e-05
-2.5556e-07
1.98584e-05
-2.70019e-07
1.98492e-05
-2.85087e-07
1.98396e-05
-3.00778e-07
1.98295e-05
-3.17104e-07
1.98189e-05
-3.34079e-07
1.98078e-05
-3.51714e-07
1.97961e-05
-3.7002e-07
1.97839e-05
-3.89007e-07
1.97711e-05
-4.08682e-07
1.97577e-05
-4.29054e-07
1.97438e-05
-4.50129e-07
1.97292e-05
-4.7191e-07
1.9714e-05
-4.94399e-07
1.96982e-05
-5.17597e-07
1.96817e-05
-5.41502e-07
1.96646e-05
-5.66109e-07
1.96468e-05
-5.91412e-07
1.96283e-05
-6.174e-07
1.96091e-05
-6.44059e-07
1.95892e-05
-6.71374e-07
1.95687e-05
-6.99323e-07
1.95474e-05
-7.27883e-07
1.95255e-05
-7.57024e-07
1.95028e-05
-7.86715e-07
1.94795e-05
-8.16916e-07
1.94556e-05
-8.47586e-07
1.9431e-05
-8.78675e-07
1.94058e-05
-9.10131e-07
1.938e-05
-9.41895e-07
1.93537e-05
-9.73901e-07
1.93269e-05
-1.00608e-06
1.92997e-05
-1.03835e-06
1.9272e-05
-1.07064e-06
1.92441e-05
-1.10284e-06
1.92159e-05
-1.13488e-06
1.91875e-05
-1.16664e-06
1.9159e-05
-1.19802e-06
1.91306e-05
-1.22889e-06
1.91023e-05
-1.25915e-06
1.90743e-05
-1.28864e-06
1.90466e-05
-1.31723e-06
1.90194e-05
-1.34475e-06
1.89928e-05
-1.37102e-06
1.89669e-05
-1.39582e-06
1.89417e-05
-1.41891e-06
1.89174e-05
-1.43995e-06
1.8894e-05
-1.45854e-06
1.88713e-05
-1.47413e-06
1.88491e-05
-1.486e-06
-1.49382e-06
2e-05
-3.36435e-10
1.99999e-05
-1.07447e-09
1.99998e-05
-1.88358e-09
1.99996e-05
-2.763e-09
1.99994e-05
-3.71349e-09
1.99991e-05
-4.73727e-09
1.99988e-05
-5.83798e-09
1.99984e-05
-7.02028e-09
1.99979e-05
-8.28958e-09
1.99975e-05
-9.65192e-09
1.99969e-05
-1.11137e-08
1.99963e-05
-1.26819e-08
1.99957e-05
-1.43635e-08
1.99949e-05
-1.61661e-08
1.99941e-05
-1.80972e-08
1.99933e-05
-2.0165e-08
1.99923e-05
-2.23775e-08
1.99913e-05
-2.47434e-08
1.99902e-05
-2.72714e-08
1.9989e-05
-2.99705e-08
1.99877e-05
-3.28502e-08
1.99862e-05
-3.59199e-08
1.99847e-05
-3.91897e-08
1.99831e-05
-4.26698e-08
1.99813e-05
-4.63707e-08
1.99794e-05
-5.03032e-08
1.99773e-05
-5.44786e-08
1.99751e-05
-5.89081e-08
1.99728e-05
-6.36037e-08
1.99703e-05
-6.85774e-08
1.99676e-05
-7.38415e-08
1.99647e-05
-7.94088e-08
1.99616e-05
-8.52922e-08
1.99584e-05
-9.15049e-08
1.99549e-05
-9.80605e-08
1.99512e-05
-1.04973e-07
1.99472e-05
-1.12256e-07
1.99431e-05
-1.19924e-07
1.99386e-05
-1.27991e-07
1.99339e-05
-1.36473e-07
1.99289e-05
-1.45383e-07
1.99236e-05
-1.54738e-07
1.9918e-05
-1.64551e-07
1.9912e-05
-1.74839e-07
1.99058e-05
-1.85616e-07
1.98991e-05
-1.96898e-07
1.98921e-05
-2.087e-07
1.98848e-05
-2.21036e-07
1.9877e-05
-2.33923e-07
1.98688e-05
-2.47374e-07
1.98602e-05
-2.61403e-07
1.98511e-05
-2.76026e-07
1.98416e-05
-2.91255e-07
1.98316e-05
-3.07104e-07
1.98211e-05
-3.23584e-07
1.98101e-05
-3.40708e-07
1.97986e-05
-3.58487e-07
1.97865e-05
-3.7693e-07
1.97739e-05
-3.96046e-07
1.97607e-05
-4.15843e-07
1.97469e-05
-4.36327e-07
1.97324e-05
-4.57503e-07
1.97174e-05
-4.79372e-07
1.97018e-05
-5.01938e-07
1.96855e-05
-5.25197e-07
1.96685e-05
-5.49148e-07
1.96509e-05
-5.73784e-07
1.96326e-05
-5.99096e-07
1.96136e-05
-6.25074e-07
1.95939e-05
-6.51702e-07
1.95735e-05
-6.78963e-07
1.95525e-05
-7.06834e-07
1.95308e-05
-7.3529e-07
1.95083e-05
-7.64301e-07
1.94853e-05
-7.93834e-07
1.94615e-05
-8.23848e-07
1.94372e-05
-8.54301e-07
1.94122e-05
-8.85144e-07
1.93866e-05
-9.16324e-07
1.93605e-05
-9.4778e-07
1.93338e-05
-9.79449e-07
1.93068e-05
-1.01126e-06
1.92793e-05
-1.04314e-06
1.92514e-05
-1.075e-06
1.92233e-05
-1.10675e-06
1.9195e-05
-1.13831e-06
1.91665e-05
-1.16957e-06
1.9138e-05
-1.20042e-06
1.91096e-05
-1.23073e-06
1.90814e-05
-1.26039e-06
1.90534e-05
-1.28925e-06
1.90258e-05
-1.31714e-06
1.89986e-05
-1.34387e-06
1.8972e-05
-1.36922e-06
1.8946e-05
-1.39292e-06
1.89207e-05
-1.41462e-06
1.8896e-05
-1.43386e-06
1.88719e-05
-1.45004e-06
1.88483e-05
-1.46238e-06
-1.47025e-06
2e-05
-3.13131e-10
1.99999e-05
-1.00281e-09
1.99998e-05
-1.76286e-09
1.99996e-05
-2.59331e-09
1.99994e-05
-3.49505e-09
1.99991e-05
-4.47011e-09
1.99988e-05
-5.52171e-09
1.99984e-05
-6.654e-09
1.9998e-05
-7.87191e-09
1.99976e-05
-9.18095e-09
1.9997e-05
-1.05871e-08
1.99964e-05
-1.20969e-08
1.99958e-05
-1.37169e-08
1.99951e-05
-1.54544e-08
1.99943e-05
-1.73166e-08
1.99935e-05
-1.93113e-08
1.99925e-05
-2.14463e-08
1.99915e-05
-2.37299e-08
1.99904e-05
-2.61705e-08
1.99892e-05
-2.8777e-08
1.99879e-05
-3.15582e-08
1.99865e-05
-3.45237e-08
1.9985e-05
-3.7683e-08
1.99834e-05
-4.1046e-08
1.99816e-05
-4.46229e-08
1.99798e-05
-4.84244e-08
1.99778e-05
-5.24611e-08
1.99756e-05
-5.67443e-08
1.99733e-05
-6.12854e-08
1.99708e-05
-6.6096e-08
1.99681e-05
-7.11883e-08
1.99653e-05
-7.65745e-08
1.99623e-05
-8.22672e-08
1.99591e-05
-8.82794e-08
1.99556e-05
-9.46241e-08
1.9952e-05
-1.01315e-07
1.99481e-05
-1.08365e-07
1.99439e-05
-1.15789e-07
1.99395e-05
-1.23601e-07
1.99349e-05
-1.31815e-07
1.99299e-05
-1.40445e-07
1.99247e-05
-1.49506e-07
1.99192e-05
-1.59013e-07
1.99133e-05
-1.68981e-07
1.99071e-05
-1.79424e-07
1.99006e-05
-1.90357e-07
1.98937e-05
-2.01796e-07
1.98864e-05
-2.13755e-07
1.98787e-05
-2.26248e-07
1.98706e-05
-2.3929e-07
1.98621e-05
-2.52895e-07
1.98532e-05
-2.67077e-07
1.98438e-05
-2.8185e-07
1.98339e-05
-2.97226e-07
1.98235e-05
-3.13218e-07
1.98127e-05
-3.29836e-07
1.98013e-05
-3.47094e-07
1.97893e-05
-3.64999e-07
1.97769e-05
-3.83562e-07
1.97638e-05
-4.02789e-07
1.97502e-05
-4.22688e-07
1.97359e-05
-4.43264e-07
1.97211e-05
-4.64521e-07
1.97056e-05
-4.86459e-07
1.96895e-05
-5.09079e-07
1.96727e-05
-5.32379e-07
1.96553e-05
-5.56354e-07
1.96372e-05
-5.80997e-07
1.96184e-05
-6.06298e-07
1.95989e-05
-6.32244e-07
1.95788e-05
-6.58819e-07
1.9558e-05
-6.86005e-07
1.95365e-05
-7.13779e-07
1.95143e-05
-7.42112e-07
1.94914e-05
-7.70976e-07
1.94679e-05
-8.00334e-07
1.94437e-05
-8.30148e-07
1.9419e-05
-8.60373e-07
1.93936e-05
-8.90961e-07
1.93677e-05
-9.21857e-07
1.93412e-05
-9.53003e-07
1.93143e-05
-9.84334e-07
1.9287e-05
-1.01578e-06
1.92592e-05
-1.04727e-06
1.92312e-05
-1.07871e-06
1.92029e-05
-1.11003e-06
1.91744e-05
-1.14112e-06
1.91459e-05
-1.17188e-06
1.91174e-05
-1.20219e-06
1.90889e-05
-1.23193e-06
1.90606e-05
-1.26096e-06
1.90326e-05
-1.28911e-06
1.90049e-05
-1.31618e-06
1.89776e-05
-1.34195e-06
1.89508e-05
-1.36611e-06
1.89245e-05
-1.38831e-06
1.88987e-05
-1.40805e-06
1.88734e-05
-1.42469e-06
1.88484e-05
-1.43739e-06
-1.44511e-06
2e-05
-2.91554e-10
1.99999e-05
-9.36075e-10
1.99998e-05
-1.64968e-09
1.99996e-05
-2.43308e-09
1.99994e-05
-3.28737e-09
1.99992e-05
-4.21452e-09
1.99989e-05
-5.21749e-09
1.99985e-05
-6.3001e-09
1.99981e-05
-7.46684e-09
1.99977e-05
-8.72283e-09
1.99971e-05
-1.00737e-08
1.99966e-05
-1.15254e-08
1.99959e-05
-1.30843e-08
1.99952e-05
-1.47573e-08
1.99945e-05
-1.65513e-08
1.99936e-05
-1.84736e-08
1.99927e-05
-2.0532e-08
1.99917e-05
-2.27343e-08
1.99906e-05
-2.50886e-08
1.99895e-05
-2.76035e-08
1.99882e-05
-3.02878e-08
1.99868e-05
-3.31503e-08
1.99853e-05
-3.62006e-08
1.99837e-05
-3.94481e-08
1.9982e-05
-4.29028e-08
1.99802e-05
-4.6575e-08
1.99782e-05
-5.0475e-08
1.99761e-05
-5.46138e-08
1.99738e-05
-5.90024e-08
1.99713e-05
-6.36522e-08
1.99687e-05
-6.85748e-08
1.99659e-05
-7.37824e-08
1.99629e-05
-7.9287e-08
1.99598e-05
-8.51013e-08
1.99564e-05
-9.12381e-08
1.99528e-05
-9.77103e-08
1.99489e-05
-1.04531e-07
1.99449e-05
-1.11715e-07
1.99405e-05
-1.19274e-07
1.9936e-05
-1.27223e-07
1.99311e-05
-1.35577e-07
1.99259e-05
-1.44348e-07
1.99205e-05
-1.53553e-07
1.99147e-05
-1.63204e-07
1.99086e-05
-1.73317e-07
1.99021e-05
-1.83907e-07
1.98953e-05
-1.94987e-07
1.98881e-05
-2.06572e-07
1.98806e-05
-2.18677e-07
1.98726e-05
-2.31315e-07
1.98642e-05
-2.44501e-07
1.98554e-05
-2.58248e-07
1.98461e-05
-2.72569e-07
1.98363e-05
-2.87478e-07
1.98261e-05
-3.02987e-07
1.98154e-05
-3.19106e-07
1.98041e-05
-3.35848e-07
1.97924e-05
-3.53221e-07
1.978e-05
-3.71236e-07
1.97671e-05
-3.89901e-07
1.97537e-05
-4.09222e-07
1.97396e-05
-4.29205e-07
1.97249e-05
-4.49854e-07
1.97097e-05
-4.71171e-07
1.96937e-05
-4.93158e-07
1.96772e-05
-5.15813e-07
1.966e-05
-5.39132e-07
1.96421e-05
-5.63111e-07
1.96235e-05
-5.8774e-07
1.96043e-05
-6.13009e-07
1.95844e-05
-6.38904e-07
1.95638e-05
-6.65407e-07
1.95425e-05
-6.925e-07
1.95205e-05
-7.20157e-07
1.94979e-05
-7.48352e-07
1.94746e-05
-7.77052e-07
1.94507e-05
-8.06223e-07
1.94261e-05
-8.35824e-07
1.9401e-05
-8.65812e-07
1.93753e-05
-8.96137e-07
1.9349e-05
-9.26745e-07
1.93223e-05
-9.57578e-07
1.92951e-05
-9.88571e-07
1.92674e-05
-1.01965e-06
1.92395e-05
-1.05075e-06
1.92112e-05
-1.08178e-06
1.91828e-05
-1.11265e-06
1.91542e-05
-1.14326e-06
1.91255e-05
-1.17351e-06
1.90968e-05
-1.20326e-06
1.90682e-05
-1.23237e-06
1.90398e-05
-1.26067e-06
1.90116e-05
-1.28797e-06
1.89836e-05
-1.31402e-06
1.8956e-05
-1.33852e-06
1.89288e-05
-1.36108e-06
1.8902e-05
-1.38119e-06
1.88755e-05
-1.39819e-06
1.88492e-05
-1.41117e-06
-1.4187e-06
2e-05
-2.71449e-10
1.99999e-05
-8.7363e-10
1.99998e-05
-1.54325e-09
1.99997e-05
-2.28157e-09
1.99995e-05
-3.0899e-09
1.99992e-05
-3.97023e-09
1.99989e-05
-4.92537e-09
1.99986e-05
-5.95887e-09
1.99982e-05
-7.07493e-09
1.99977e-05
-8.27829e-09
1.99972e-05
-9.57422e-09
1.99967e-05
-1.09684e-08
1.99961e-05
-1.24668e-08
1.99954e-05
-1.40759e-08
1.99946e-05
-1.58024e-08
1.99938e-05
-1.76533e-08
1.99929e-05
-1.9636e-08
1.9992e-05
-2.1758e-08
1.99909e-05
-2.40272e-08
1.99897e-05
-2.64519e-08
1.99885e-05
-2.90404e-08
1.99871e-05
-3.18015e-08
1.99857e-05
-3.47442e-08
1.99841e-05
-3.78779e-08
1.99824e-05
-4.12122e-08
1.99806e-05
-4.47569e-08
1.99787e-05
-4.85222e-08
1.99766e-05
-5.25186e-08
1.99743e-05
-5.67569e-08
1.99719e-05
-6.12482e-08
1.99693e-05
-6.60037e-08
1.99666e-05
-7.10351e-08
1.99637e-05
-7.63543e-08
1.99605e-05
-8.19735e-08
1.99572e-05
-8.79051e-08
1.99536e-05
-9.41618e-08
1.99499e-05
-1.00757e-07
1.99459e-05
-1.07702e-07
1.99416e-05
-1.15013e-07
1.99371e-05
-1.22701e-07
1.99323e-05
-1.30782e-07
1.99272e-05
-1.39268e-07
1.99218e-05
-1.48173e-07
1.99161e-05
-1.57513e-07
1.99101e-05
-1.673e-07
1.99038e-05
-1.7755e-07
1.9897e-05
-1.88276e-07
1.989e-05
-1.99493e-07
1.98825e-05
-2.11214e-07
1.98746e-05
-2.23454e-07
1.98664e-05
-2.36226e-07
1.98577e-05
-2.49543e-07
1.98485e-05
-2.63419e-07
1.98389e-05
-2.77867e-07
1.98288e-05
-2.92898e-07
1.98182e-05
-3.08524e-07
1.98071e-05
-3.24756e-07
1.97955e-05
-3.41604e-07
1.97834e-05
-3.59078e-07
1.97707e-05
-3.77186e-07
1.97574e-05
-3.95935e-07
1.97435e-05
-4.15331e-07
1.9729e-05
-4.35379e-07
1.97139e-05
-4.56082e-07
1.96982e-05
-4.77441e-07
1.96819e-05
-4.99457e-07
1.96648e-05
-5.22127e-07
1.96472e-05
-5.45447e-07
1.96289e-05
-5.69409e-07
1.96098e-05
-5.94005e-07
1.95902e-05
-6.19222e-07
1.95698e-05
-6.45047e-07
1.95488e-05
-6.7146e-07
1.95271e-05
-6.98442e-07
1.95047e-05
-7.25967e-07
1.94816e-05
-7.54007e-07
1.94579e-05
-7.82531e-07
1.94336e-05
-8.11502e-07
1.94087e-05
-8.40881e-07
1.93832e-05
-8.70622e-07
1.93571e-05
-9.00677e-07
1.93305e-05
-9.30992e-07
1.93034e-05
-9.61507e-07
1.92759e-05
-9.92158e-07
1.92481e-05
-1.02287e-06
1.92199e-05
-1.05358e-06
1.91914e-05
-1.08418e-06
1.91627e-05
-1.11459e-06
1.91339e-05
-1.14469e-06
1.9105e-05
-1.17437e-06
1.90761e-05
-1.20347e-06
1.90473e-05
-1.23184e-06
1.90186e-05
-1.25926e-06
1.899e-05
-1.28548e-06
1.89617e-05
-1.31019e-06
1.89336e-05
-1.33299e-06
1.89058e-05
-1.35336e-06
1.88782e-05
-1.37061e-06
1.88509e-05
-1.38384e-06
-1.39133e-06
2e-05
-2.52634e-10
1.99999e-05
-8.15006e-10
1.99998e-05
-1.44295e-09
1.99997e-05
-2.13815e-09
1.99995e-05
-2.90214e-09
1.99993e-05
-3.73692e-09
1.9999e-05
-4.64523e-09
1.99986e-05
-5.63044e-09
1.99983e-05
-6.69649e-09
1.99978e-05
-7.84787e-09
1.99974e-05
-9.08949e-09
1.99968e-05
-1.04267e-08
1.99962e-05
-1.18653e-08
1.99955e-05
-1.34113e-08
1.99948e-05
-1.50711e-08
1.9994e-05
-1.68515e-08
1.99931e-05
-1.87594e-08
1.99922e-05
-2.08023e-08
1.99911e-05
-2.29876e-08
1.999e-05
-2.53233e-08
1.99888e-05
-2.78175e-08
1.99875e-05
-3.04786e-08
1.9986e-05
-3.33155e-08
1.99845e-05
-3.63371e-08
1.99828e-05
-3.95526e-08
1.99811e-05
-4.29718e-08
1.99791e-05
-4.66045e-08
1.99771e-05
-5.04607e-08
1.99749e-05
-5.4551e-08
1.99725e-05
-5.88861e-08
1.997e-05
-6.34769e-08
1.99673e-05
-6.83349e-08
1.99644e-05
-7.34714e-08
1.99613e-05
-7.88983e-08
1.9958e-05
-8.46278e-08
1.99546e-05
-9.06721e-08
1.99508e-05
-9.70438e-08
1.99469e-05
-1.03756e-07
1.99427e-05
-1.10821e-07
1.99383e-05
-1.18252e-07
1.99335e-05
-1.26063e-07
1.99285e-05
-1.34268e-07
1.99232e-05
-1.42879e-07
1.99176e-05
-1.51911e-07
1.99117e-05
-1.61377e-07
1.99055e-05
-1.71292e-07
1.98989e-05
-1.81669e-07
1.98919e-05
-1.92522e-07
1.98845e-05
-2.03865e-07
1.98768e-05
-2.15712e-07
1.98686e-05
-2.28075e-07
1.98601e-05
-2.40968e-07
1.98511e-05
-2.54405e-07
1.98416e-05
-2.68396e-07
1.98316e-05
-2.82956e-07
1.98212e-05
-2.98095e-07
1.98103e-05
-3.13823e-07
1.97988e-05
-3.30152e-07
1.97868e-05
-3.47092e-07
1.97743e-05
-3.64649e-07
1.97612e-05
-3.82832e-07
1.97475e-05
-4.01648e-07
1.97332e-05
-4.21102e-07
1.97184e-05
-4.41197e-07
1.97028e-05
-4.61935e-07
1.96867e-05
-4.83318e-07
1.96699e-05
-5.05344e-07
1.96525e-05
-5.28009e-07
1.96344e-05
-5.5131e-07
1.96156e-05
-5.75237e-07
1.95962e-05
-5.9978e-07
1.95761e-05
-6.24928e-07
1.95553e-05
-6.50665e-07
1.95338e-05
-6.76971e-07
1.95117e-05
-7.03825e-07
1.94889e-05
-7.31203e-07
1.94654e-05
-7.59075e-07
1.94413e-05
-7.87409e-07
1.94166e-05
-8.16169e-07
1.93913e-05
-8.45314e-07
1.93654e-05
-8.74799e-07
1.9339e-05
-9.04575e-07
1.93121e-05
-9.34588e-07
1.92847e-05
-9.64776e-07
1.92569e-05
-9.95074e-07
1.92287e-05
-1.02541e-06
1.92002e-05
-1.05569e-06
1.91715e-05
-1.08584e-06
1.91425e-05
-1.11574e-06
1.91134e-05
-1.14527e-06