/*--------------------------------*- C++ -*----------------------------------*\
  =========                 |
  \\      /  F ield         | OpenFOAM: The Open Source CFD Toolbox
   \\    /   O peration     | Website:  https://openfoam.org
    \\  /    A nd           | Version:  11
     \\/     M anipulation  |
\*---------------------------------------------------------------------------*/
FoamFile
{
    format      ascii;
    class       volScalarField;
    location    "416";
    object      nut;
}
// * * * * * * * * * * * * * * * * * * * * * * * * * * * * * * * * * * * * * //

dimensions      [0 2 -1 0 0 0 0];

internalField   nonuniform List<scalar> 
10000
(
0.000977116
0.000936701
0.000899639
0.000865608
0.000834322
0.000805522
0.000778976
0.000754475
0.000731831
0.000710875
0.000691456
0.000673435
0.000656689
0.000641106
0.000626586
0.000613038
0.000600378
0.000588534
0.000577436
0.000567024
0.000557243
0.000548041
0.000539374
0.000531199
0.000523478
0.000516176
0.000509263
0.000502708
0.000496486
0.000490573
0.000484946
0.000479585
0.000474472
0.000469589
0.000464922
0.000460456
0.000456179
0.000452078
0.000448142
0.000444363
0.000440732
0.000437241
0.000433883
0.000430653
0.000427546
0.000424558
0.000421687
0.00041893
0.000416286
0.000413757
0.000411342
0.000409046
0.000406872
0.000404824
0.00040291
0.000401137
0.000399515
0.000398055
0.00039677
0.000395673
0.00039478
0.000394109
0.000393677
0.000393505
0.000393612
0.00039402
0.000394751
0.000395825
0.000397264
0.000399087
0.000401311
0.000403952
0.000407023
0.000410532
0.000414484
0.000418878
0.000423711
0.000428972
0.000434645
0.00044071
0.000447139
0.000453899
0.000460951
0.000468252
0.000475752
0.0004834
0.000491139
0.000498908
0.000506643
0.000514274
0.000521727
0.000528923
0.000535776
0.000542191
0.000548067
0.0005533
0.000557769
0.000561341
0.000563868
0.000565187
0.000977116
0.000936701
0.000899639
0.000865608
0.000834322
0.000805522
0.000778976
0.000754475
0.000731831
0.000710876
0.000691456
0.000673435
0.000656689
0.000641107
0.000626587
0.000613038
0.000600379
0.000588534
0.000577437
0.000567025
0.000557244
0.000548042
0.000539375
0.000531199
0.000523478
0.000516177
0.000509263
0.000502709
0.000496487
0.000490574
0.000484947
0.000479586
0.000474473
0.000469591
0.000464924
0.000460458
0.00045618
0.000452079
0.000448144
0.000444365
0.000440734
0.000437243
0.000433885
0.000430655
0.000427548
0.000424561
0.000421689
0.000418932
0.000416289
0.000413759
0.000411345
0.000409049
0.000406874
0.000404827
0.000402912
0.000401139
0.000399518
0.000398057
0.000396772
0.000395675
0.000394782
0.00039411
0.000393678
0.000393504
0.000393611
0.000394018
0.000394748
0.000395821
0.000397258
0.00039908
0.000401302
0.000403942
0.00040701
0.000410517
0.000414467
0.00041886
0.000423692
0.000428951
0.000434623
0.000440686
0.000447112
0.00045387
0.000460919
0.000468217
0.000475715
0.000483362
0.0004911
0.000498869
0.000506603
0.000514234
0.000521687
0.000528884
0.000535738
0.000542154
0.000548031
0.000553265
0.000557735
0.000561307
0.000563835
0.000565154
0.000977116
0.000936701
0.000899639
0.000865609
0.000834323
0.000805523
0.000778977
0.000754476
0.000731832
0.000710876
0.000691457
0.000673436
0.00065669
0.000641107
0.000626587
0.000613039
0.00060038
0.000588535
0.000577438
0.000567026
0.000557245
0.000548043
0.000539376
0.000531201
0.00052348
0.000516179
0.000509265
0.000502711
0.000496489
0.000490576
0.000484949
0.000479588
0.000474475
0.000469593
0.000464926
0.00046046
0.000456183
0.000452082
0.000448147
0.000444368
0.000440737
0.000437246
0.000433888
0.000430659
0.000427552
0.000424564
0.000421693
0.000418936
0.000416292
0.000413763
0.000411349
0.000409052
0.000406878
0.00040483
0.000402915
0.000401142
0.00039952
0.000398059
0.000396773
0.000395675
0.000394781
0.000394108
0.000393674
0.000393499
0.000393604
0.000394009
0.000394736
0.000395807
0.000397241
0.000399059
0.000401278
0.000403913
0.000406978
0.000410481
0.000414427
0.000418816
0.000423643
0.000428899
0.000434566
0.000440625
0.000447048
0.000453801
0.000460846
0.000468141
0.000475637
0.000483282
0.000491019
0.000498787
0.000506522
0.000514153
0.000521607
0.000528805
0.000535661
0.000542079
0.000547958
0.000553194
0.000557666
0.00056124
0.000563769
0.000565089
0.000977116
0.000936702
0.000899639
0.000865609
0.000834323
0.000805523
0.000778978
0.000754477
0.000731833
0.000710878
0.000691458
0.000673437
0.000656691
0.000641109
0.000626589
0.000613041
0.000600381
0.000588537
0.000577439
0.000567028
0.000557247
0.000548045
0.000539378
0.000531203
0.000523482
0.000516181
0.000509268
0.000502713
0.000496492
0.000490578
0.000484952
0.000479591
0.000474478
0.000469596
0.00046493
0.000460464
0.000456187
0.000452086
0.000448151
0.000444372
0.000440741
0.000437251
0.000433893
0.000430664
0.000427557
0.000424569
0.000421698
0.000418941
0.000416298
0.000413768
0.000411354
0.000409057
0.000406883
0.000404834
0.000402919
0.000401146
0.000399523
0.000398061
0.000396774
0.000395674
0.000394779
0.000394104
0.000393668
0.00039349
0.000393592
0.000393994
0.000394717
0.000395784
0.000397213
0.000399026
0.00040124
0.00040387
0.000406929
0.000410426
0.000414366
0.000418748
0.000423569
0.000428818
0.00043448
0.000440533
0.000446949
0.000453697
0.000460738
0.000468029
0.000475521
0.000483164
0.000490899
0.000498667
0.000506401
0.000514034
0.000521489
0.000528689
0.000535548
0.000541968
0.00054785
0.00055309
0.000557564
0.000561141
0.000563672
0.000564993
0.000977116
0.000936702
0.00089964
0.00086561
0.000834324
0.000805524
0.000778978
0.000754478
0.000731834
0.000710879
0.000691459
0.000673439
0.000656693
0.00064111
0.000626591
0.000613042
0.000600383
0.000588539
0.000577442
0.00056703
0.000557249
0.000548048
0.000539381
0.000531206
0.000523485
0.000516184
0.000509271
0.000502717
0.000496495
0.000490582
0.000484956
0.000479595
0.000474483
0.000469601
0.000464934
0.000460469
0.000456192
0.000452091
0.000448156
0.000444378
0.000440747
0.000437257
0.000433899
0.00043067
0.000427564
0.000424576
0.000421705
0.000418948
0.000416305
0.000413775
0.000411361
0.000409064
0.000406889
0.00040484
0.000402925
0.00040115
0.000399526
0.000398064
0.000396775
0.000395673
0.000394776
0.000394098
0.00039366
0.000393479
0.000393577
0.000393974
0.000394693
0.000395754
0.000397178
0.000398984
0.000401191
0.000403814
0.000406865
0.000410354
0.000414286
0.00041866
0.000423473
0.000428713
0.000434367
0.000440412
0.000446821
0.000453562
0.000460597
0.000467882
0.000475371
0.000483011
0.000490744
0.000498511
0.000506245
0.000513878
0.000521336
0.000528538
0.0005354
0.000541824
0.00054771
0.000552953
0.000557432
0.000561012
0.000563545
0.000564867
0.000977116
0.000936702
0.00089964
0.00086561
0.000834325
0.000805525
0.00077898
0.000754479
0.000731836
0.00071088
0.000691461
0.00067344
0.000656695
0.000641112
0.000626593
0.000613045
0.000600386
0.000588542
0.000577444
0.000567033
0.000557252
0.000548051
0.000539384
0.000531209
0.000523489
0.000516188
0.000509275
0.000502721
0.0004965
0.000490587
0.00048496
0.0004796
0.000474488
0.000469606
0.00046494
0.000460475
0.000456198
0.000452098
0.000448163
0.000444385
0.000440755
0.000437264
0.000433907
0.000430678
0.000427572
0.000424585
0.000421714
0.000418957
0.000416314
0.000413784
0.00041137
0.000409073
0.000406897
0.000404848
0.000402932
0.000401156
0.000399531
0.000398067
0.000396776
0.000395673
0.000394773
0.000394092
0.00039365
0.000393465
0.000393558
0.000393951
0.000394663
0.000395718
0.000397135
0.000398933
0.000401132
0.000403746
0.000406788
0.000410267
0.000414188
0.000418552
0.000423355
0.000428586
0.000434229
0.000440265
0.000446665
0.000453398
0.000460426
0.000467706
0.000475189
0.000482825
0.000490556
0.000498321
0.000506056
0.00051369
0.00052115
0.000528355
0.00053522
0.000541649
0.000547539
0.000552787
0.00055727
0.000560853
0.000563389
0.000564712
0.000977116
0.000936702
0.000899641
0.000865611
0.000834325
0.000805526
0.000778981
0.00075448
0.000731837
0.000710882
0.000691463
0.000673442
0.000656697
0.000641115
0.000626595
0.000613047
0.000600389
0.000588545
0.000577448
0.000567036
0.000557256
0.000548055
0.000539388
0.000531213
0.000523493
0.000516192
0.00050928
0.000502726
0.000496505
0.000490592
0.000484966
0.000479606
0.000474494
0.000469613
0.000464947
0.000460482
0.000456205
0.000452105
0.000448171
0.000444393
0.000440763
0.000437273
0.000433917
0.000430688
0.000427582
0.000424595
0.000421724
0.000418967
0.000416324
0.000413795
0.00041138
0.000409083
0.000406907
0.000404857
0.00040294
0.000401164
0.000399537
0.000398071
0.000396778
0.000395673
0.000394769
0.000394085
0.000393639
0.00039345
0.000393538
0.000393924
0.00039463
0.000395677
0.000397085
0.000398875
0.000401063
0.000403667
0.000406698
0.000410166
0.000414075
0.000418428
0.000423218
0.000428437
0.00043407
0.000440094
0.000446484
0.000453208
0.000460228
0.0004675
0.000474978
0.00048261
0.000490338
0.000498101
0.000505836
0.000513471
0.000520933
0.000528142
0.000535011
0.000541444
0.000547339
0.000552592
0.000557079
0.000560667
0.000563206
0.00056453
0.000977116
0.000936702
0.000899641
0.000865611
0.000834326
0.000805527
0.000778982
0.000754482
0.000731839
0.000710884
0.000691465
0.000673445
0.000656699
0.000641117
0.000626598
0.00061305
0.000600392
0.000588548
0.000577451
0.00056704
0.00055726
0.000548059
0.000539392
0.000531218
0.000523498
0.000516197
0.000509285
0.000502731
0.000496511
0.000490598
0.000484973
0.000479613
0.000474501
0.00046962
0.000464955
0.00046049
0.000456214
0.000452114
0.000448181
0.000444403
0.000440774
0.000437284
0.000433928
0.000430699
0.000427593
0.000424607
0.000421736
0.00041898
0.000416336
0.000413807
0.000411392
0.000409095
0.000406918
0.000404868
0.00040295
0.000401172
0.000399544
0.000398077
0.000396781
0.000395673
0.000394766
0.000394078
0.000393627
0.000393433
0.000393515
0.000393894
0.000394592
0.00039563
0.000397029
0.000398809
0.000400987
0.000403578
0.000406597
0.000410052
0.000413949
0.000418288
0.000423065
0.000428271
0.00043389
0.000439902
0.000446281
0.000452994
0.000460004
0.000467269
0.00047474
0.000482367
0.000490091
0.000497853
0.000505587
0.000513223
0.000520688
0.0005279
0.000534773
0.000541211
0.000547112
0.00055237
0.000556863
0.000560455
0.000562997
0.000564322
0.000977116
0.000936703
0.000899641
0.000865612
0.000834327
0.000805528
0.000778983
0.000754483
0.00073184
0.000710886
0.000691467
0.000673447
0.000656702
0.00064112
0.000626601
0.000613054
0.000600395
0.000588552
0.000577455
0.000567044
0.000557264
0.000548064
0.000539397
0.000531223
0.000523503
0.000516203
0.000509291
0.000502738
0.000496517
0.000490605
0.00048498
0.000479621
0.000474509
0.000469629
0.000464964
0.0004605
0.000456224
0.000452125
0.000448191
0.000444414
0.000440785
0.000437296
0.00043394
0.000430712
0.000427606
0.00042462
0.00042175
0.000418993
0.00041635
0.000413821
0.000411406
0.000409108
0.000406931
0.00040488
0.000402962
0.000401183
0.000399553
0.000398083
0.000396785
0.000395674
0.000394764
0.000394071
0.000393615
0.000393415
0.00039349
0.000393862
0.000394552
0.00039558
0.000396969
0.000398737
0.000400903
0.000403482
0.000406487
0.000409928
0.00041381
0.000418134
0.000422896
0.000428087
0.000433693
0.000439691
0.000446057
0.000452759
0.000459759
0.000467014
0.000474478
0.000482099
0.000489819
0.000497579
0.000505312
0.00051295
0.000520416
0.000527632
0.00053451
0.000540953
0.000546859
0.000552124
0.000556622
0.000560218
0.000562763
0.00056409
0.000977116
0.000936703
0.000899642
0.000865613
0.000834328
0.000805529
0.000778984
0.000754485
0.000731842
0.000710888
0.000691469
0.00067345
0.000656705
0.000641123
0.000626605
0.000613057
0.000600399
0.000588556
0.000577459
0.000567049
0.000557269
0.000548069
0.000539403
0.000531229
0.000523509
0.00051621
0.000509298
0.000502745
0.000496525
0.000490613
0.000484988
0.000479629
0.000474518
0.000469638
0.000464974
0.00046051
0.000456235
0.000452136
0.000448203
0.000444427
0.000440798
0.000437309
0.000433954
0.000430726
0.000427621
0.000424635
0.000421765
0.000419009
0.000416366
0.000413837
0.000411422
0.000409124
0.000406946
0.000404894
0.000402975
0.000401194
0.000399563
0.000398091
0.00039679
0.000395676
0.000394761
0.000394064
0.000393603
0.000393396
0.000393464
0.000393828
0.000394508
0.000395527
0.000396905
0.000398661
0.000400813
0.000403378
0.000406368
0.000409794
0.00041366
0.000417968
0.000422714
0.00042789
0.000433479
0.000439463
0.000445815
0.000452504
0.000459493
0.000466738
0.000474194
0.000481809
0.000489525
0.000497281
0.000505014
0.000512652
0.000520121
0.00052734
0.000534223
0.000540671
0.000546583
0.000551853
0.000556357
0.000559958
0.000562507
0.000563836
0.000977116
0.000936703
0.000899642
0.000865613
0.000834329
0.00080553
0.000778986
0.000754486
0.000731844
0.00071089
0.000691472
0.000673452
0.000656708
0.000641126
0.000626608
0.000613061
0.000600403
0.00058856
0.000577464
0.000567054
0.000557274
0.000548074
0.000539409
0.000531235
0.000523516
0.000516216
0.000509305
0.000502752
0.000496533
0.000490622
0.000484997
0.000479639
0.000474528
0.000469649
0.000464984
0.000460521
0.000456246
0.000452148
0.000448216
0.00044444
0.000440812
0.000437323
0.000433969
0.000430741
0.000427637
0.000424651
0.000421782
0.000419026
0.000416383
0.000413854
0.000411439
0.000409141
0.000406963
0.00040491
0.000402989
0.000401207
0.000399574
0.0003981
0.000396797
0.000395678
0.00039476
0.000394058
0.000393591
0.000393377
0.000393437
0.000393792
0.000394463
0.000395471
0.000396837
0.00039858
0.000400718
0.000403268
0.000406243
0.000409652
0.000413501
0.000417792
0.000422521
0.000427679
0.000433252
0.000439221
0.000445558
0.000452233
0.000459209
0.000466444
0.000473891
0.000481498
0.000489209
0.000496963
0.000504694
0.000512332
0.000519804
0.000527027
0.000533914
0.000540367
0.000546286
0.000551562
0.000556072
0.000559678
0.00056223
0.000563561
0.000977116
0.000936703
0.000899642
0.000865614
0.000834329
0.000805531
0.000778987
0.000754488
0.000731846
0.000710892
0.000691474
0.000673455
0.000656711
0.00064113
0.000626612
0.000613065
0.000600407
0.000588564
0.000577469
0.000567059
0.00055728
0.00054808
0.000539415
0.000531242
0.000523523
0.000516224
0.000509313
0.000502761
0.000496541
0.000490631
0.000485007
0.000479649
0.000474539
0.00046966
0.000464996
0.000460533
0.000456259
0.000452162
0.00044823
0.000444454
0.000440827
0.000437339
0.000433985
0.000430758
0.000427654
0.000424669
0.0004218
0.000419045
0.000416402
0.000413873
0.000411458
0.000409159
0.000406981
0.000404927
0.000403005
0.000401222
0.000399587
0.00039811
0.000396804
0.000395682
0.000394759
0.000394052
0.000393578
0.000393358
0.00039341
0.000393756
0.000394416
0.000395413
0.000396766
0.000398495
0.000400619
0.000403153
0.000406111
0.000409503
0.000413334
0.000417607
0.000422318
0.000427458
0.000433013
0.000438965
0.000445286
0.000451946
0.00045891
0.000466133
0.000473571
0.00048117
0.000488875
0.000496625
0.000504355
0.000511994
0.000519467
0.000526693
0.000533585
0.000540044
0.000545968
0.000551251
0.000555767
0.000559378
0.000561934
0.000563267
0.000977117
0.000936703
0.000899643
0.000865614
0.00083433
0.000805532
0.000778988
0.000754489
0.000731848
0.000710894
0.000691476
0.000673458
0.000656714
0.000641133
0.000626615
0.000613069
0.000600412
0.000588569
0.000577474
0.000567064
0.000557285
0.000548086
0.000539421
0.000531248
0.00052353
0.000516231
0.000509321
0.000502769
0.00049655
0.00049064
0.000485017
0.000479659
0.00047455
0.000469671
0.000465008
0.000460546
0.000456273
0.000452176
0.000448245
0.00044447
0.000440843
0.000437356
0.000434002
0.000430776
0.000427673
0.000424688
0.00042182
0.000419065
0.000416422
0.000413893
0.000411478
0.000409179
0.000407
0.000404946
0.000403023
0.000401238
0.000399601
0.000398122
0.000396812
0.000395686
0.000394759
0.000394046
0.000393567
0.000393339
0.000393382
0.000393719
0.000394368
0.000395353
0.000396693
0.000398408
0.000400516
0.000403034
0.000405974
0.000409348
0.00041316
0.000417414
0.000422106
0.000427227
0.000432764
0.000438698
0.000445002
0.000451647
0.000458597
0.000465808
0.000473235
0.000480826
0.000488525
0.000496271
0.000503999
0.000511637
0.000519112
0.000526342
0.000533238
0.000539702
0.000545633
0.000550922
0.000555444
0.000559061
0.000561621
0.000562956
0.000977117
0.000936704
0.000899643
0.000865615
0.000834331
0.000805533
0.000778989
0.000754491
0.000731849
0.000710896
0.000691479
0.00067346
0.000656717
0.000641136
0.000626619
0.000613073
0.000600416
0.000588574
0.000577479
0.00056707
0.000557291
0.000548093
0.000539428
0.000531256
0.000523538
0.000516239
0.000509329
0.000502778
0.00049656
0.00049065
0.000485027
0.000479671
0.000474562
0.000469684
0.000465021
0.00046056
0.000456287
0.000452191
0.000448261
0.000444487
0.00044086
0.000437374
0.000434021
0.000430796
0.000427693
0.000424709
0.000421841
0.000419086
0.000416444
0.000413915
0.0004115
0.000409201
0.000407021
0.000404966
0.000403042
0.000401256
0.000399616
0.000398134
0.000396822
0.000395692
0.00039476
0.000394042
0.000393555
0.00039332
0.000393355
0.000393681
0.00039432
0.000395292
0.000396618
0.000398318
0.00040041
0.000402911
0.000405833
0.000409188
0.000412981
0.000417215
0.000421887
0.000426989
0.000432506
0.000438421
0.000444709
0.000451337
0.000458272
0.000465471
0.000472887
0.000480469
0.000488161
0.000495903
0.000503628
0.000511266
0.000518742
0.000525975
0.000532876
0.000539345
0.000545282
0.000550577
0.000555105
0.000558727
0.000561292
0.000562629
0.000977117
0.000936704
0.000899643
0.000865615
0.000834332
0.000805534
0.000778991
0.000754492
0.000731851
0.000710898
0.000691481
0.000673463
0.00065672
0.00064114
0.000626623
0.000613077
0.000600421
0.000588579
0.000577484
0.000567076
0.000557297
0.000548099
0.000539435
0.000531263
0.000523546
0.000516248
0.000509338
0.000502788
0.00049657
0.000490661
0.000485039
0.000479682
0.000474574
0.000469697
0.000465035
0.000460575
0.000456302
0.000452207
0.000448277
0.000444504
0.000440878
0.000437393
0.000434041
0.000430816
0.000427714
0.00042473
0.000421863
0.000419109
0.000416467
0.000413938
0.000411523
0.000409224
0.000407044
0.000404988
0.000403063
0.000401275
0.000399633
0.000398149
0.000396833
0.000395699
0.000394762
0.000394038
0.000393545
0.000393301
0.000393327
0.000393644
0.000394271
0.00039523
0.000396542
0.000398227
0.000400303
0.000402786
0.00040569
0.000409025
0.000412798
0.000417012
0.000421663
0.000426744
0.000432242
0.000438137
0.000444407
0.000451019
0.000457938
0.000465123
0.000472528
0.000480101
0.000487786
0.000495522
0.000503244
0.000510882
0.000518359
0.000525594
0.000532499
0.000538973
0.000544917
0.000550218
0.000554752
0.00055838
0.000560949
0.000562288
0.000977117
0.000936704
0.000899644
0.000865616
0.000834332
0.000805535
0.000778992
0.000754494
0.000731853
0.0007109
0.000691484
0.000673466
0.000656723
0.000641143
0.000626626
0.000613081
0.000600425
0.000588584
0.00057749
0.000567081
0.000557304
0.000548106
0.000539442
0.000531271
0.000523554
0.000516257
0.000509347
0.000502797
0.00049658
0.000490672
0.00048505
0.000479695
0.000474587
0.000469711
0.000465049
0.00046059
0.000456318
0.000452223
0.000448295
0.000444522
0.000440897
0.000437413
0.000434061
0.000430837
0.000427736
0.000424753
0.000421886
0.000419132
0.000416491
0.000413962
0.000411547
0.000409248
0.000407067
0.000405011
0.000403084
0.000401295
0.000399651
0.000398164
0.000396845
0.000395707
0.000394765
0.000394035
0.000393535
0.000393284
0.0003933
0.000393606
0.000394222
0.000395168
0.000396466
0.000398135
0.000400194
0.000402659
0.000405543
0.000408859
0.000412611
0.000416804
0.000421434
0.000426494
0.000431972
0.000437847
0.000444098
0.000450692
0.000457596
0.000464767
0.00047216
0.000479723
0.0004874
0.000495131
0.00050285
0.000510486
0.000517964
0.000525202
0.000532111
0.00053859
0.000544539
0.000549847
0.000554388
0.000558021
0.000560594
0.000561935
0.000977117
0.000936704
0.000899644
0.000865616
0.000834333
0.000805536
0.000778993
0.000754495
0.000731854
0.000710902
0.000691486
0.000673468
0.000656726
0.000641147
0.00062663
0.000613085
0.00060043
0.000588589
0.000577495
0.000567087
0.00055731
0.000548113
0.000539449
0.000531279
0.000523562
0.000516265
0.000509357
0.000502808
0.000496591
0.000490683
0.000485062
0.000479707
0.0004746
0.000469725
0.000465064
0.000460605
0.000456335
0.000452241
0.000448313
0.000444541
0.000440917
0.000437433
0.000434082
0.000430859
0.000427759
0.000424777
0.00042191
0.000419157
0.000416516
0.000413988
0.000411573
0.000409273
0.000407092
0.000405035
0.000403107
0.000401316
0.00039967
0.00039818
0.000396858
0.000395716
0.000394769
0.000394033
0.000393526
0.000393266
0.000393274
0.000393569
0.000394173
0.000395106
0.000396389
0.000398042
0.000400084
0.00040253
0.000405396
0.000408691
0.000412423
0.000416594
0.000421202
0.000426241
0.000431697
0.000437553
0.000443784
0.000450361
0.000457248
0.000464404
0.000471785
0.000479337
0.000487007
0.000494732
0.000502447
0.000510081
0.00051756
0.0005248
0.000531712
0.000538196
0.000544151
0.000549466
0.000554012
0.000557651
0.000560228
0.000561572
0.000977117
0.000936704
0.000899644
0.000865617
0.000834333
0.000805537
0.000778994
0.000754496
0.000731856
0.000710904
0.000691488
0.000673471
0.000656729
0.00064115
0.000626634
0.000613089
0.000600434
0.000588594
0.0005775
0.000567093
0.000557316
0.000548119
0.000539457
0.000531287
0.000523571
0.000516275
0.000509367
0.000502818
0.000496602
0.000490695
0.000485074
0.00047972
0.000474614
0.000469739
0.000465079
0.000460621
0.000456351
0.000452258
0.000448331
0.00044456
0.000440937
0.000437454
0.000434105
0.000430882
0.000427782
0.000424801
0.000421935
0.000419183
0.000416542
0.000414014
0.000411599
0.000409299
0.000407118
0.00040506
0.000403131
0.000401339
0.000399691
0.000398198
0.000396872
0.000395726
0.000394773
0.000394032
0.000393518
0.00039325
0.000393248
0.000393533
0.000394124
0.000395044
0.000396312
0.000397949
0.000399974
0.000402402
0.000405247
0.000408522
0.000412232
0.000416382
0.000420968
0.000425985
0.00043142
0.000437255
0.000443467
0.000450025
0.000456895
0.000464037
0.000471404
0.000478946
0.000486607
0.000494326
0.000502037
0.00050967
0.000517148
0.00052439
0.000531306
0.000537795
0.000543755
0.000549075
0.000553628
0.000557272
0.000559853
0.000561199
0.000977117
0.000936704
0.000899644
0.000865617
0.000834334
0.000805537
0.000778995
0.000754498
0.000731858
0.000710906
0.00069149
0.000673473
0.000656732
0.000641153
0.000626638
0.000613094
0.000600439
0.000588599
0.000577506
0.000567099
0.000557323
0.000548126
0.000539464
0.000531295
0.000523579
0.000516284
0.000509376
0.000502828
0.000496613
0.000490707
0.000485087
0.000479734
0.000474628
0.000469754
0.000465095
0.000460638
0.000456369
0.000452277
0.00044835
0.00044458
0.000440958
0.000437476
0.000434127
0.000430906
0.000427807
0.000424826
0.000421961
0.000419209
0.000416569
0.000414041
0.000411627
0.000409327
0.000407145
0.000405086
0.000403156
0.000401362
0.000399712
0.000398217
0.000396887
0.000395736
0.000394779
0.000394032
0.000393511
0.000393235
0.000393223
0.000393497
0.000394076
0.000394983
0.000396236
0.000397857
0.000399864
0.000402273
0.000405099
0.000408353
0.000412042
0.000416169
0.000420734
0.000425728
0.000431142
0.000436956
0.000443147
0.000449687
0.00045654
0.000463666
0.00047102
0.000478551
0.000486203
0.000493915
0.000501622
0.000509252
0.000516731
0.000523974
0.000530893
0.000537386
0.000543352
0.000548678
0.000553236
0.000556886
0.000559471
0.00056082
0.000977117
0.000936704
0.000899645
0.000865617
0.000834335
0.000805538
0.000778996
0.000754499
0.000731859
0.000710908
0.000691492
0.000673476
0.000656734
0.000641157
0.000626641
0.000613098
0.000600443
0.000588604
0.000577511
0.000567105
0.000557329
0.000548133
0.000539472
0.000531303
0.000523588
0.000516293
0.000509386
0.000502839
0.000496624
0.000490719
0.0004851
0.000479747
0.000474642
0.000469769
0.000465111
0.000460655
0.000456386
0.000452295
0.00044837
0.000444601
0.00044098
0.000437498
0.000434151
0.00043093
0.000427832
0.000424852
0.000421988
0.000419236
0.000416597
0.000414069
0.000411655
0.000409355
0.000407173
0.000405113
0.000403182
0.000401386
0.000399734
0.000398236
0.000396903
0.000395748
0.000394786
0.000394032
0.000393504
0.00039322
0.000393199
0.000393462
0.00039403
0.000394922
0.000396161
0.000397766
0.000399755
0.000402145
0.000404951
0.000408184
0.000411851
0.000415957
0.000420499
0.000425471
0.000430863
0.000436655
0.000442826
0.000449347
0.000456183
0.000463294
0.000470634
0.000478154
0.000485796
0.000493501
0.000501203
0.000508831
0.000516309
0.000523554
0.000530476
0.000536973
0.000542944
0.000548276
0.000552839
0.000556494
0.000559084
0.000560435
0.000977117
0.000936705
0.000899645
0.000865618
0.000834335
0.000805539
0.000778997
0.0007545
0.000731861
0.00071091
0.000691494
0.000673478
0.000656737
0.00064116
0.000626645
0.000613102
0.000600448
0.000588609
0.000577517
0.000567111
0.000557336
0.00054814
0.000539479
0.000531311
0.000523597
0.000516302
0.000509396
0.00050285
0.000496636
0.000490731
0.000485112
0.000479761
0.000474657
0.000469784
0.000465127
0.000460672
0.000456404
0.000452314
0.00044839
0.000444622
0.000441001
0.000437521
0.000434174
0.000430955
0.000427857
0.000424878
0.000422015
0.000419264
0.000416625
0.000414098
0.000411683
0.000409383
0.000407201
0.000405141
0.000403209
0.000401411
0.000399757
0.000398256
0.00039692
0.000395761
0.000394794
0.000394034
0.000393499
0.000393206
0.000393176
0.000393428
0.000393984
0.000394863
0.000396087
0.000397675
0.000399647
0.000402018
0.000404804
0.000408016
0.000411662
0.000415745
0.000420265
0.000425215
0.000430584
0.000436356
0.000442506
0.000449008
0.000455826
0.000462921
0.000470248
0.000477755
0.000485388
0.000493086
0.000500783
0.000508408
0.000515885
0.000523131
0.000530056
0.000536557
0.000542533
0.00054787
0.000552439
0.000556098
0.000558692
0.000560045
0.000977117
0.000936705
0.000899645
0.000865618
0.000834336
0.00080554
0.000778998
0.000754501
0.000731862
0.000710911
0.000691497
0.000673481
0.00065674
0.000641163
0.000626648
0.000613106
0.000600452
0.000588613
0.000577522
0.000567117
0.000557342
0.000548147
0.000539487
0.000531319
0.000523605
0.000516312
0.000509406
0.00050286
0.000496647
0.000490743
0.000485125
0.000479774
0.000474671
0.0004698
0.000465143
0.000460689
0.000456423
0.000452333
0.00044841
0.000444643
0.000441023
0.000437544
0.000434198
0.000430979
0.000427883
0.000424905
0.000422042
0.000419292
0.000416654
0.000414127
0.000411713
0.000409413
0.00040723
0.000405169
0.000403236
0.000401437
0.000399781
0.000398277
0.000396938
0.000395775
0.000394803
0.000394037
0.000393494
0.000393194
0.000393154
0.000393396
0.000393939
0.000394805
0.000396014
0.000397586
0.00039954
0.000401893
0.000404659
0.00040785
0.000411474
0.000415535
0.000420033
0.00042496
0.000430308
0.000436058
0.000442188
0.00044867
0.000455471
0.00046255
0.000469862
0.000477358
0.000484981
0.000492671
0.000500363
0.000507985
0.000515461
0.000522707
0.000529634
0.000536139
0.000542119
0.000547462
0.000552036
0.000555701
0.000558298
0.000559654
0.000977117
0.000936705
0.000899645
0.000865618
0.000834336
0.00080554
0.000778999
0.000754502
0.000731863
0.000710913
0.000691498
0.000673483
0.000656743
0.000641166
0.000626652
0.000613109
0.000600456
0.000588618
0.000577527
0.000567122
0.000557348
0.000548154
0.000539494
0.000531327
0.000523614
0.000516321
0.000509416
0.000502871
0.000496659
0.000490755
0.000485138
0.000479788
0.000474686
0.000469815
0.00046516
0.000460706
0.000456441
0.000452352
0.00044843
0.000444664
0.000441046
0.000437567
0.000434222
0.000431005
0.000427909
0.000424932
0.00042207
0.000419321
0.000416683
0.000414157
0.000411742
0.000409442
0.00040726
0.000405198
0.000403264
0.000401463
0.000399805
0.000398299
0.000396956
0.000395789
0.000394812
0.00039404
0.000393491
0.000393182
0.000393133
0.000393364
0.000393896
0.000394748
0.000395943
0.000397499
0.000399435
0.00040177
0.000404516
0.000407686
0.000411289
0.000415328
0.000419803
0.000424709
0.000430034
0.000435762
0.000441872
0.000448335
0.000455118
0.00046218
0.000469479
0.000476962
0.000484575
0.000492258
0.000499944
0.000507563
0.000515037
0.000522284
0.000529213
0.000535721
0.000541706
0.000547053
0.000551633
0.000555302
0.000557903
0.000559261
0.000977117
0.000936705
0.000899646
0.000865619
0.000834337
0.000805541
0.000778999
0.000754503
0.000731865
0.000710914
0.0006915
0.000673485
0.000656745
0.000641169
0.000626655
0.000613113
0.000600461
0.000588623
0.000577532
0.000567128
0.000557354
0.000548161
0.000539502
0.000531335
0.000523623
0.00051633
0.000509426
0.000502882
0.00049667
0.000490767
0.000485151
0.000479802
0.000474701
0.000469831
0.000465176
0.000460723
0.000456459
0.000452372
0.00044845
0.000444685
0.000441068
0.000437591
0.000434247
0.00043103
0.000427935
0.000424959
0.000422098
0.000419349
0.000416712
0.000414186
0.000411772
0.000409472
0.000407289
0.000405227
0.000403292
0.00040149
0.00039983
0.000398321
0.000396975
0.000395804
0.000394822
0.000394045
0.000393488
0.000393172
0.000393114
0.000393334
0.000393854
0.000394693
0.000395873
0.000397413
0.000399333
0.000401649
0.000404376
0.000407525
0.000411107
0.000415124
0.000419577
0.00042446
0.000429763
0.000435471
0.00044156
0.000448004
0.000454768
0.000461815
0.000469099
0.00047657
0.000484173
0.000491847
0.000499528
0.000507143
0.000514616
0.000521863
0.000528793
0.000535305
0.000541294
0.000546645
0.00055123
0.000554904
0.000557509
0.000558869
0.000977117
0.000936705
0.000899646
0.000865619
0.000834337
0.000805541
0.000779
0.000754504
0.000731866
0.000710916
0.000691502
0.000673487
0.000656748
0.000641172
0.000626658
0.000613117
0.000600465
0.000588627
0.000577537
0.000567134
0.000557361
0.000548168
0.000539509
0.000531343
0.000523631
0.000516339
0.000509436
0.000502892
0.000496681
0.000490779
0.000485164
0.000479816
0.000474715
0.000469846
0.000465193
0.000460741
0.000456477
0.000452391
0.00044847
0.000444706
0.00044109
0.000437614
0.000434271
0.000431055
0.000427962
0.000424986
0.000422126
0.000419378
0.000416742
0.000414216
0.000411802
0.000409502
0.000407319
0.000405257
0.00040332
0.000401517
0.000399855
0.000398344
0.000396995
0.000395819
0.000394833
0.00039405
0.000393487
0.000393162
0.000393095