/*--------------------------------*- C++ -*----------------------------------*\
  =========                 |
  \\      /  F ield         | OpenFOAM: The Open Source CFD Toolbox
   \\    /   O peration     | Website:  https://openfoam.org
    \\  /    A nd           | Version:  11
     \\/     M anipulation  |
\*---------------------------------------------------------------------------*/
FoamFile
{
    format      ascii;
    class       volScalarField;
    location    "190";
    object      nut;
}
// * * * * * * * * * * * * * * * * * * * * * * * * * * * * * * * * * * * * * //

dimensions      [0 2 -1 0 0 0 0];

internalField   nonuniform List<scalar> 
10000
(
0.000977091
0.000936612
0.000899468
0.000865337
0.000833932
0.000804992
0.000778284
0.000753601
0.000730753
0.000709572
0.000689908
0.000671625
0.000654601
0.00063873
0.000623914
0.000610069
0.000597121
0.000585005
0.000573667
0.000563061
0.000553151
0.000543907
0.000535311
0.000527353
0.00052003
0.000513348
0.000507322
0.000501976
0.000497339
0.000493447
0.000490344
0.000488075
0.000486689
0.000486233
0.000486755
0.000488293
0.00049088
0.00049454
0.000499279
0.000505094
0.000511964
0.000519852
0.000528707
0.000538463
0.000549043
0.000560356
0.000572311
0.000584808
0.000597745
0.000611022
0.000624538
0.000638195
0.000651903
0.000665574
0.000679133
0.000692508
0.000705638
0.000718471
0.000730962
0.000743063
0.000754759
0.000766016
0.000776816
0.000787146
0.000796997
0.000806363
0.000815245
0.000823645
0.000831568
0.000839024
0.000846023
0.000852576
0.000858697
0.000864402
0.000869706
0.000874626
0.000879179
0.000883381
0.000887252
0.000890807
0.000894065
0.000897042
0.000899756
0.000902222
0.000904457
0.000906476
0.000908293
0.000909923
0.000911378
0.000912671
0.000913812
0.000914815
0.000915686
0.000916437
0.000917073
0.0009176
0.000918022
0.000918342
0.00091856
0.000918673
0.000977091
0.000936612
0.000899469
0.000865339
0.000833934
0.000804994
0.000778287
0.000753604
0.000730756
0.000709576
0.000689912
0.000671629
0.000654606
0.000638735
0.000623919
0.000610074
0.000597127
0.000585012
0.000573674
0.000563069
0.000553159
0.000543916
0.00053532
0.000527362
0.000520039
0.000513358
0.000507333
0.000501986
0.000497349
0.000493457
0.000490353
0.000488083
0.000486695
0.000486237
0.000486756
0.000488291
0.000490875
0.00049453
0.000499266
0.000505076
0.000511941
0.000519824
0.000528675
0.000538426
0.000549002
0.000560313
0.000572266
0.000584761
0.000597697
0.000610971
0.000624483
0.000638138
0.000651842
0.000665511
0.000679068
0.000692443
0.000705574
0.000718408
0.000730901
0.000743005
0.000754702
0.000765962
0.000776765
0.000787098
0.000796951
0.00080632
0.000815204
0.000823607
0.000831533
0.000838991
0.000845992
0.000852548
0.000858671
0.000864378
0.000869685
0.000874606
0.00087916
0.000883365
0.000887237
0.000890793
0.000894052
0.000897031
0.000899746
0.000902213
0.000904449
0.000906469
0.000908287
0.000909917
0.000911373
0.000912666
0.000913808
0.000914811
0.000915683
0.000916434
0.00091707
0.000917598
0.00091802
0.000918341
0.000918558
0.000918672
0.000977091
0.000936614
0.000899471
0.000865342
0.000833938
0.000804999
0.000778292
0.00075361
0.000730763
0.000709583
0.00068992
0.000671638
0.000654615
0.000638744
0.000623929
0.000610085
0.000597138
0.000585024
0.000573687
0.000563082
0.000553173
0.00054393
0.000535336
0.000527378
0.000520055
0.000513374
0.000507348
0.000502001
0.000497362
0.000493469
0.000490362
0.000488089
0.000486697
0.000486234
0.000486747
0.000488275
0.000490851
0.000494497
0.000499223
0.000505023
0.000511878
0.000519751
0.00052859
0.000538332
0.000548898
0.000560201
0.000572147
0.000584635
0.000597565
0.000610834
0.000624342
0.000637992
0.000651694
0.000665361
0.000678918
0.000692293
0.000705427
0.000718264
0.000730761
0.000742869
0.000754571
0.000765836
0.000776645
0.000786983
0.000796841
0.000806216
0.000815106
0.000823515
0.000831446
0.00083891
0.000845916
0.000852477
0.000858606
0.000864317
0.000869628
0.000874554
0.000879112
0.00088332
0.000887196
0.000890756
0.000894018
0.000897
0.000899717
0.000902187
0.000904426
0.000906448
0.000908268
0.0009099
0.000911358
0.000912653
0.000913797
0.000914801
0.000915675
0.000916427
0.000917064
0.000917592
0.000918016
0.000918337
0.000918555
0.000918669
0.000977092
0.000936616
0.000899475
0.000865347
0.000833943
0.000805005
0.0007783
0.000753618
0.000730772
0.000709594
0.000689931
0.00067165
0.000654628
0.000638758
0.000623944
0.000610101
0.000597155
0.000585042
0.000573706
0.000563102
0.000553193
0.000543952
0.000535358
0.000527401
0.000520078
0.000513397
0.00050737
0.000502022
0.000497381
0.000493485
0.000490374
0.000488096
0.000486698
0.000486227
0.000486731
0.000488248
0.000490813
0.000494446
0.000499157
0.000504942
0.000511781
0.000519638
0.000528462
0.000538189
0.000548741
0.000560031
0.000571965
0.000584443
0.000597363
0.000610624
0.000624126
0.000637771
0.000651469
0.000665135
0.000678692
0.000692069
0.000705206
0.000718047
0.00073055
0.000742664
0.000754373
0.000765646
0.000776462
0.000786808
0.000796675
0.000806058
0.000814957
0.000823373
0.000831314
0.000838785
0.000845799
0.000852368
0.000858504
0.000864222
0.00086954
0.000874472
0.000879037
0.000883251
0.000887132
0.000890697
0.000893964
0.00089695
0.000899672
0.000902147
0.000904389
0.000906414
0.000908238
0.000909873
0.000911334
0.000912632
0.000913779
0.000914785
0.000915661
0.000916415
0.000917054
0.000917584
0.000918009
0.000918331
0.000918551
0.000918665
0.000977093
0.000936618
0.000899478
0.000865352
0.00083395
0.000805013
0.000778309
0.000753629
0.000730784
0.000709607
0.000689946
0.000671665
0.000654645
0.000638776
0.000623963
0.000610122
0.000597177
0.000585065
0.000573731
0.000563128
0.000553221
0.00054398
0.000535387
0.00052743
0.000520108
0.000513426
0.000507399
0.000502049
0.000497406
0.000493506
0.00049039
0.000488105
0.000486699
0.000486219
0.000486711
0.000488215
0.000490763
0.000494379
0.000499072
0.000504838
0.000511657
0.000519493
0.000528297
0.000538004
0.000548537
0.00055981
0.000571728
0.000584192
0.0005971
0.000610351
0.000623844
0.000637483
0.000651177
0.000664841
0.000678398
0.000691778
0.000704918
0.000717766
0.000730275
0.000742397
0.000754115
0.000765397
0.000776223
0.000786579
0.000796457
0.000805851
0.00081476
0.000823188
0.000831138
0.000838621
0.000845645
0.000852223
0.000858369
0.000864097
0.000869423
0.000874364
0.000878936
0.000883158
0.000887046
0.000890618
0.000893892
0.000896884
0.000899612
0.000902092
0.000904339
0.00090637
0.000908198
0.000909837
0.000911302
0.000912604
0.000913754
0.000914764
0.000915643
0.000916399
0.000917041
0.000917573
0.000918
0.000918323
0.000918544
0.000918658
0.000977093
0.00093662
0.000899482
0.000865357
0.000833957
0.000805022
0.00077832
0.000753641
0.000730798
0.000709622
0.000689963
0.000671684
0.000654665
0.000638798
0.000623987
0.000610147
0.000597204
0.000585093
0.000573761
0.00056316
0.000553254
0.000544015
0.000535423
0.000527467
0.000520145
0.000513463
0.000507435
0.000502083
0.000497437
0.000493532
0.00049041
0.000488118
0.000486701
0.000486209
0.000486687
0.000488175
0.000490705
0.000494301
0.000498972
0.000504714
0.000511509
0.00051932
0.0005281
0.000537782
0.000548293
0.000559544
0.000571442
0.000583889
0.000596782
0.00061002
0.000623503
0.000637135
0.000650824
0.000664486
0.000678043
0.000691425
0.00070457
0.000717424
0.000729941
0.000742072
0.0007538
0.000765093
0.000775931
0.0007863
0.000796191
0.000805598
0.00081452
0.00082296
0.000830924
0.000838418
0.000845455
0.000852045
0.000858202
0.000863941
0.000869278
0.000874229
0.000878812
0.000883043
0.00088694
0.000890521
0.000893803
0.000896802
0.000899537
0.000902024
0.000904278
0.000906314
0.000908148
0.000909793
0.000911262
0.000912568
0.000913723
0.000914737
0.00091562
0.00091638
0.000917024
0.000917559
0.000917988
0.000918314
0.000918535
0.00091865
0.000977094
0.000936622
0.000899486
0.000865363
0.000833965
0.000805032
0.000778332
0.000753655
0.000730814
0.00070964
0.000689982
0.000671706
0.000654689
0.000638823
0.000624014
0.000610176
0.000597235
0.000585127
0.000573796
0.000563197
0.000553293
0.000544056
0.000535465
0.00052751
0.000520189
0.000513507
0.000507477
0.000502123
0.000497473
0.000493563
0.000490435
0.000488133
0.000486706
0.0004862
0.000486661
0.00048813
0.00049064
0.000494212
0.000498858
0.000504573
0.000511339
0.000519123
0.000527873
0.000537528
0.000548012
0.000559238
0.000571114
0.00058354
0.000596416
0.000609639
0.00062311
0.000636733
0.000650416
0.000664075
0.000677632
0.000691017
0.000704166
0.000717027
0.000729553
0.000741694
0.000753434
0.00076474
0.000775591
0.000785974
0.000795879
0.000805301
0.000814238
0.000822693
0.000830671
0.000838181
0.000845231
0.000851835
0.000858006
0.000863758
0.000869108
0.000874071
0.000878665
0.000882907
0.000886814
0.000890405
0.000893696
0.000896705
0.000899449
0.000901943
0.000904204
0.000906248
0.000908088
0.000909739
0.000911215
0.000912527
0.000913687
0.000914705
0.000915592
0.000916356
0.000917004
0.000917542
0.000917974
0.000918301
0.000918524
0.000918639
0.000977094
0.000936624
0.00089949
0.000865369
0.000833973
0.000805042
0.000778344
0.00075367
0.000730831
0.000709659
0.000690004
0.000671729
0.000654715
0.000638852
0.000624045
0.000610209
0.000597271
0.000585165
0.000573837
0.00056324
0.000553338
0.000544103
0.000535514
0.00052756
0.000520239
0.000513557
0.000507526
0.00050217
0.000497516
0.0004936
0.000490464
0.000488152
0.000486712
0.000486191
0.000486635
0.000488083
0.000490568
0.000494114
0.000498732
0.000504417
0.000511152
0.000518903
0.000527622
0.000537246
0.000547699
0.000558898
0.000570747
0.000583151
0.000596006
0.000609212
0.00062267
0.000636282
0.000649959
0.000663614
0.000677171
0.000690558
0.000703712
0.00071658
0.000729115
0.000741268
0.00075302
0.00076434
0.000775206
0.000785605
0.000795526
0.000804964
0.000813917
0.000822389
0.000830384
0.00083791
0.000844976
0.000851596
0.000857782
0.000863548
0.000868912
0.000873889
0.000878496
0.00088275
0.00088667
0.000890272
0.000893574
0.000896593
0.000899346
0.00090185
0.000904119
0.000906171
0.000908019
0.000909678
0.00091116
0.000912478
0.000913644
0.000914668
0.00091556
0.000916329
0.000916981
0.000917523
0.000917957
0.000918287
0.000918511
0.000918626
0.000977095
0.000936626
0.000899493
0.000865375
0.000833981
0.000805053
0.000778357
0.000753685
0.000730849
0.00070968
0.000690027
0.000671755
0.000654743
0.000638883
0.000624079
0.000610246
0.00059731
0.000585207
0.000573881
0.000563288
0.000553388
0.000544155
0.000535568
0.000527616
0.000520296
0.000513613
0.000507581
0.000502222
0.000497564
0.000493642
0.000490497
0.000488175
0.000486721
0.000486183
0.000486607
0.000488032
0.000490492
0.00049401
0.000498596
0.000504249
0.00051095
0.000518666
0.00052735
0.000536939
0.00054736
0.000558527
0.000570348
0.000582726
0.000595559
0.000608746
0.000622188
0.000635789
0.000649458
0.000663109
0.000676664
0.000690053
0.000703213
0.000716089
0.000728633
0.000740797
0.000752563
0.000763898
0.00077478
0.000785195
0.000795134
0.00080459
0.000813561
0.000822051
0.000830064
0.000837608
0.000844692
0.000851328
0.000857531
0.000863314
0.000868693
0.000873685
0.000878307
0.000882575
0.000886508
0.000890122
0.000893436
0.000896467
0.000899231
0.000901744
0.000904024
0.000906085
0.000907941
0.000909608
0.000911098
0.000912423
0.000913596
0.000914626
0.000915524
0.000916297
0.000916954
0.0009175
0.000917937
0.000918269
0.000918495
0.000918611
0.000977096
0.000936628
0.000899497
0.000865381
0.000833989
0.000805063
0.00077837
0.000753701
0.000730867
0.000709701
0.000690051
0.000671782
0.000654773
0.000638916
0.000624115
0.000610285
0.000597353
0.000585253
0.00057393
0.00056334
0.000553443
0.000544212
0.000535628
0.000527677
0.000520358
0.000513675
0.000507642
0.00050228
0.000497617
0.000493689
0.000490535
0.000488201
0.000486732
0.000486177
0.00048658
0.000487981
0.000490413
0.0004939
0.000498453
0.000504071
0.000510735
0.000518413
0.00052706
0.000536612
0.000546997
0.00055813
0.00056992
0.00058227
0.000595079
0.000608245
0.000621671
0.000635259
0.000648918
0.000662564
0.000676118
0.000689508
0.000702673
0.000715556
0.00072811
0.000740287
0.000752067
0.000763417
0.000774317
0.00078475
0.000794707
0.000804182
0.000813173
0.000821682
0.000829714
0.000837277
0.00084438
0.000851035
0.000857256
0.000863057
0.000868453
0.000873461
0.000878098
0.000882382
0.000886329
0.000889957
0.000893284
0.000896327
0.000899103
0.000901628
0.000903918
0.000905989
0.000907855
0.000909531
0.000911029
0.000912362
0.000913542
0.000914579
0.000915483
0.000916262
0.000916924
0.000917473
0.000917915
0.000918249
0.000918477
0.000918593
0.000977096
0.00093663
0.000899501
0.000865386
0.000833997
0.000805074
0.000778383
0.000753717
0.000730886
0.000709723
0.000690076
0.00067181
0.000654805
0.000638951
0.000624153
0.000610327
0.000597398
0.000585302
0.000573983
0.000563395
0.000553502
0.000544274
0.000535692
0.000527743
0.000520425
0.000513742
0.000507708
0.000502343
0.000497676
0.00049374
0.000490577
0.000488231
0.000486747
0.000486173
0.000486553
0.000487928
0.000490331
0.000493786
0.000498304
0.000503884
0.000510509
0.000518148
0.000526754
0.000536267
0.000546614
0.000557712
0.000569469
0.000581788
0.00059457
0.000607715
0.000621121
0.000634695
0.000648345
0.000661984
0.000675536
0.000688928
0.000702097
0.000714988
0.000727552
0.000739742
0.000751536
0.000762903
0.00077382
0.000784272
0.000794248
0.000803743
0.000812755
0.000821284
0.000829337
0.00083692
0.000844044
0.000850719
0.000856959
0.000862778
0.000868192
0.000873218
0.000877872
0.000882172
0.000886135
0.000889778
0.000893119
0.000896176
0.000898964
0.000901501
0.000903803
0.000905885
0.000907761
0.000909446
0.000910953
0.000912295
0.000913483
0.000914527
0.000915438
0.000916223
0.00091689
0.000917444
0.000917889
0.000918226
0.000918455
0.000918573
0.000977097
0.000936632
0.000899504
0.000865392
0.000834005
0.000805084
0.000778396
0.000753733
0.000730905
0.000709745
0.000690102
0.00067184
0.000654837
0.000638987
0.000624194
0.000610371
0.000597446
0.000585354
0.000574038
0.000563455
0.000553565
0.00054434
0.000535761
0.000527814
0.000520497
0.000513814
0.000507779
0.000502411
0.000497739
0.000493796
0.000490623
0.000488264
0.000486764
0.00048617
0.000486527
0.000487875
0.000490248
0.000493669
0.000498151
0.000503691
0.000510276
0.000517873
0.000526437
0.000535908
0.000546215
0.000557275
0.000568996
0.000581284
0.000594038
0.000607158
0.000620545
0.000634104
0.000647742
0.000661375
0.000674923
0.000688316
0.00070149
0.000714388
0.000726963
0.000739165
0.000750974
0.000762358
0.000773293
0.000783764
0.000793761
0.000803276
0.000812309
0.000820861
0.000828935
0.00083654
0.000843684
0.00085038
0.00085664
0.00086248
0.000867913
0.000872958
0.00087763
0.000881947
0.000885926
0.000889585
0.000892941
0.000896012
0.000898814
0.000901364
0.000903678
0.000905772
0.000907659
0.000909355
0.000910871
0.000912222
0.000913418
0.000914471
0.000915388
0.00091618
0.000916852
0.000917411
0.00091786
0.0009182
0.000918432
0.00091855
0.000977097
0.000936634
0.000899508
0.000865397
0.000834012
0.000805094
0.000778409
0.000753749
0.000730924
0.000709768
0.000690128
0.000671869
0.000654871
0.000639025
0.000624235
0.000610417
0.000597496
0.000585408
0.000574097
0.000563517
0.000553631
0.00054441
0.000535833
0.000527889
0.000520573
0.000513891
0.000507854
0.000502483
0.000497806
0.000493856
0.000490673
0.0004883
0.000486784
0.00048617
0.000486503
0.000487823
0.000490164
0.00049355
0.000497994
0.000503494
0.000510036
0.000517589
0.00052611
0.000535538
0.000545803
0.000556823
0.000568507
0.000580762
0.000593486
0.000606581
0.000619947
0.000633488
0.000647114
0.000660739
0.000674284
0.000687677
0.000700855
0.000713761
0.000726345
0.00073856
0.000750385
0.000761785
0.000772739
0.00078323
0.000793248
0.000802785
0.00081184
0.000820414
0.00082851
0.000836137
0.000843304
0.000850022
0.000856303
0.000862163
0.000867617
0.000872681
0.000877372
0.000881707
0.000885704
0.00088938
0.000892752
0.000895838
0.000898655
0.000901218
0.000903545
0.000905651
0.00090755
0.000909256
0.000910784
0.000912144
0.000913349
0.00091441
0.000915334
0.000916133
0.000916811
0.000917375
0.000917828
0.000918171
0.000918405
0.000918524
0.000977098
0.000936635
0.000899511
0.000865402
0.00083402
0.000805104
0.000778422
0.000753765
0.000730943
0.00070979
0.000690154
0.0006719
0.000654905
0.000639063
0.000624278
0.000610464
0.000597548
0.000585464
0.000574157
0.000563582
0.0005537
0.000544482
0.000535909
0.000527967
0.000520653
0.000513971
0.000507933
0.00050256
0.000497877
0.00049392
0.000490726
0.00048834
0.000486806
0.000486171
0.00048648
0.000487772
0.00049008
0.00049343
0.000497835
0.000503293
0.000509791
0.0005173
0.000525775
0.000535159
0.00054538
0.000556359
0.000568005
0.000580224
0.000592918
0.000605986
0.000619329
0.000632853
0.000646466
0.000660082
0.000673623
0.000687016
0.000700197
0.00071311
0.000725704
0.000737932
0.000749772
0.000761189
0.000772162
0.000782673
0.000792712
0.000802272
0.000811349
0.000819946
0.000828066
0.000835716
0.000842905
0.000849646
0.000855949
0.000861831
0.000867306
0.00087239
0.000877101
0.000881455
0.00088547
0.000889163
0.000892552
0.000895654
0.000898486
0.000901064
0.000903404
0.000905523
0.000907434
0.000909152
0.00091069
0.00091206
0.000913275
0.000914344
0.000915277
0.000916082
0.000916766
0.000917335
0.000917792
0.000918139
0.000918375
0.000918496
0.000977098
0.000936637
0.000899514
0.000865407
0.000834027
0.000805114
0.000778435
0.00075378
0.000730962
0.000709813
0.000690181
0.00067193
0.00065494
0.000639102
0.000624321
0.000610512
0.0005976
0.000585521
0.000574219
0.000563648
0.000553771
0.000544557
0.000535987
0.000528048
0.000520736
0.000514054
0.000508016
0.000502639
0.000497952
0.000493987
0.000490783
0.000488383
0.000486831
0.000486175
0.000486459
0.000487721
0.000489997
0.00049331
0.000497674
0.00050309
0.000509544
0.000517007
0.000525435
0.000534773
0.00054495
0.000555886
0.000567493
0.000579676
0.000592337
0.000605377
0.000618697
0.000632202
0.000645801
0.000659408
0.000672943
0.000686335
0.000699519
0.000712439
0.000725043
0.000737283
0.000749139
0.000760573
0.000771565
0.000782097
0.000792157
0.000801739
0.00081084
0.00081946
0.000827604
0.000835277
0.00084249
0.000849254
0.00085558
0.000861484
0.000866981
0.000872086
0.000876817
0.000881191
0.000885225
0.000888936
0.000892342
0.000895461
0.000898308
0.000900901
0.000903256
0.000905388
0.000907312
0.000909042
0.000910591
0.000911972
0.000913196
0.000914274
0.000915215
0.000916027
0.000916718
0.000917292
0.000917754
0.000918104
0.000918342
0.000918464
0.000977099
0.000936639
0.000899517
0.000865412
0.000834034
0.000805123
0.000778447
0.000753795
0.000730981
0.000709835
0.000690207
0.00067196
0.000654974
0.000639142
0.000624365
0.000610561
0.000597654
0.00058558
0.000574283
0.000563717
0.000553844
0.000544634
0.000536068
0.000528131
0.000520821
0.00051414
0.000508101
0.000502721
0.000498029
0.000494057
0.000490842
0.000488428
0.000486859
0.000486182
0.000486439
0.000487672
0.000489914
0.00049319
0.000497514
0.000502887
0.000509295
0.000516711
0.000525092
0.000534383
0.000544514
0.000555407
0.000566973
0.000579119
0.000591746
0.000604757
0.000618053
0.000631539
0.000645123
0.000658719
0.000672249
0.00068564
0.000698826
0.000711751
0.000724366
0.000736618
0.000748488
0.00075994
0.000770951
0.000781503
0.000791586
0.00080119
0.000810315
0.000818959
0.000827126
0.000834824
0.000842061
0.000848848
0.000855198
0.000861125
0.000866644
0.000871771
0.000876523
0.000880917
0.00088497
0.0008887
0.000892124
0.000895259
0.000898123
0.000900732
0.000903101
0.000905247
0.000907184
0.000908926
0.000910487
0.000911879
0.000913113
0.0009142
0.000915149
0.000915969
0.000916666
0.000917246
0.000917712
0.000918066
0.000918306
0.000918429
0.000977099
0.00093664
0.00089952
0.000865417
0.000834041
0.000805132
0.000778459
0.00075381
0.000730999
0.000709857
0.000690233
0.00067199
0.000655009
0.000639181
0.000624409
0.00061061
0.000597708
0.000585639
0.000574347
0.000563786
0.000553918
0.000544713
0.00053615
0.000528217
0.000520908
0.000514228
0.000508188
0.000502806
0.000498109
0.000494129
0.000490904
0.000488475
0.000486889
0.00048619
0.000486422
0.000487625
0.000489833
0.000493072
0.000497355
0.000502683
0.000509045
0.000516414
0.000524747
0.00053399
0.000544075
0.000554924
0.000566448
0.000578556
0.000591149
0.00060413
0.000617401
0.000630866
0.000644434
0.00065802
0.000671543
0.000684932
0.000698121
0.000711052
0.000723675
0.00073594
0.000747824
0.000759293
0.000770323
0.000780896
0.000791
0.000800628
0.000809776
0.000818444
0.000826636
0.000834358
0.00084162
0.000848431
0.000854804
0.000860755
0.000866296
0.000871445
0.000876219
0.000880633
0.000884706
0.000888455
0.000891898
0.000895051
0.000897931
0.000900556
0.00090294
0.000905101
0.000907051
0.000908806
0.000910378
0.000911781
0.000913025
0.000914122
0.00091508
0.000915907
0.000916611
0.000917197
0.000917667
0.000918024
0.000918267
0.000918391
0.000977099
0.000936642
0.000899523
0.000865421
0.000834047
0.000805141
0.00077847
0.000753825
0.000731017
0.000709879
0.000690258
0.00067202
0.000655044
0.00063922
0.000624453
0.000610659
0.000597763
0.000585699
0.000574412
0.000563856
0.000553993
0.000544792
0.000536233
0.000528303
0.000520997
0.000514318
0.000508277
0.000502893
0.000498191
0.000494203
0.000490967
0.000488525
0.000486921
0.0004862
0.000486406
0.00048758
0.000489754
0.000492955
0.000497196
0.000502481
0.000508796
0.000516117
0.000524402
0.000533597
0.000543635
0.000554439
0.000565921
0.00057799
0.000590549
0.000603499
0.000616744
0.000630188
0.00064374
0.000657314
0.00067083
0.000684216
0.000697406
0.000710342
0.000722974
0.000735251
0.00074715
0.000758636
0.000769684
0.000780278
0.000790404
0.000800054
0.000809226
0.000817918
0.000826135
0.000833882
0.000841168
0.000848004
0.000854401
0.000860375
0.00086594
0.000871111
0.000875906
0.000880342
0.000884435
0.000888203
0.000891665
0.000894836
0.000897733
0.000900374
0.000902774
0.000904949
0.000906913
0.000908681
0.000910266
0.00091168
0.000912934
0.000914041
0.000915007
0.000915842
0.000916553
0.000917144
0.00091762
0.00091798
0.000918225
0.00091835
0.0009771
0.000936643
0.000899525
0.000865425
0.000834053
0.000805149
0.000778481
0.000753839
0.000731035
0.0007099
0.000690284
0.00067205
0.000655078
0.000639259
0.000624497
0.000610708
0.000597817
0.000585759
0.000574477
0.000563927
0.000554068
0.000544872
0.000536318
0.000528391
0.000521087
0.000514409
0.000508367
0.000502981
0.000498274
0.000494278
0.000491032
0.000488576
0.000486955
0.000486212
0.000486393
0.000487536
0.000489677
0.00049284
0.00049704
0.00050228
0.00050855
0.000515822
0.000524059
0.000533206
0.000543196
0.000553954
0.000565394
0.000577424
0.000589947
0.000602866
0.000616084
0.000629506
0.000643041
0.000656603
0.000670112
0.000683494
0.000696685
0.000709626
0.000722267
0.000734555
0.000746468
0.00075797
0.000769037
0.000779651
0.000789799
0.000799473
0.000808668
0.000817384
0.000825626
0.000833397
0.000840708
0.000847568
0.00085399
0.000859988
0.000865575
0.00087077
0.000875587
0.000880044
0.000884158
0.000887946
0.000891426
0.000894615
0.00089753
0.000900187
0.000902603
0.000904793
0.000906771
0.000908552
0.000910149
0.000911574
0.00091284
0.000913956
0.000914931
0.000915774
0.000916492
0.000917089
0.000917569
0.000917933
0.00091818
0.000918307
0.0009771
0.000936644
0.000899528
0.000865429
0.000834059
0.000805158
0.000778492
0.000753853
0.000731052
0.000709921
0.000690308
0.000672079
0.000655111
0.000639297
0.000624541
0.000610757
0.000597871
0.000585818
0.000574542
0.000563997
0.000554144
0.000544953
0.000536402
0.000528479
0.000521177
0.0005145
0.000508458
0.000503069
0.000498358
0.000494355
0.000491099
0.000488629
0.00048699
0.000486226
0.000486381
0.000487495
0.000489602
0.000492727
0.000496886
0.000502082
0.000508305
0.00051553
0.000523718
0.000532817
0.00054276
0.000553472
0.000564869
0.000576859
0.000589346
0.000602234
0.000615425
0.000628825
0.000642342
0.000655891
0.000669391
0.00068277
0.000695962
0.000708907
0.000721555
0.000733854
0.000745781
0.0007573
0.000768385
0.000779019
0.000789188
0.000798885
0.000808103
0.000816844
0.00082511
0.000832906
0.000840242
0.000847127
0.000853573
0.000859594
0.000865206
0.000870423
0.000875262
0.00087974
0.000883875
0.000887683
0.000891183
0.00089439
0.000897323
0.000899997
0.000902428
0.000904633
0.000906625
0.00090842
0.000910029
0.000911466
0.000912742
0.000913868
0.000914852
0.000915704
0.000916428
0.000917031
0.000917516
0.000917884
0.000918133
0.000918261
0.0009771
0.000936646
0.00089953
0.000865433
0.000834065
0.000805166
0.000778502
0.000753866
0.000731068
0.000709941
0.000690332
0.000672107
0.000655144
0.000639335
0.000624584
0.000610805
0.000597925
0.000585877
0.000574607
0.000564067
0.000554219
0.000545033
0.000536486
0.000528567
0.000521268
0.000514592
0.00050855
0.000503158
0.000498442
0.000494433
0.000491166
0.000488683
0.000487026
0.000486241
0.000486371
0.000487456
0.000489529
0.000492617
0.000496735
0.000501888
0.000508065
0.000515242
0.000523382
0.000532432
0.000542327
0.000552994
0.000564348
0.000576298
0.000588749
0.000601605
0.000614769
0.000628146
0.000641645
0.00065518
0.000668672
0.000682047
0.000695238
0.000708187
0.000720843
0.000733152
0.000745092
0.000756627
0.00076773
0.000778384
0.000788574
0.000798293
0.000807535
0.0008163
0.00082459
0.000832411
0.000839771
0.000846681
0.000853151
0.000859197
0.000864831
0.000870071
0.000874933
0.000879433
0.000883588
0.000887417
0.000890935
0.000894161
0.000897111
0.000899802
0.00090225
0.00090447
0.000906476
0.000908284
0.000909906
0.000911355
0.000912642
0.000913778
0.000914771
0.00091563
0.000916362
0.000916971
0.000917461
0.000917832
0.000918084
0.000918213
0.000977101
0.000936647
0.000899533
0.000865437
0.00083407
0.000805173
0.000778513
0.000753879
0.000731085
0.000709961
0.000690356
0.000672135
0.000655176
0.000639372
0.000624626
0.000610853
0.000597978
0.000585936
0.000574671
0.000564137
0.000554294
0.000545112
0.00053657
0.000528654
0.000521358
0.000514684
0.000508641
0.000503247
0.000498527
0.00049451
0.000491234
0.000488737
0.000487064
0.000486258
0.000486363
0.000487419
0.000489459
0.00049251
0.000496588
0.000501697
0.000507828
0.000514958
0.00052305
0.000532052
0.0005419
0.000552522
0.000563832
0.000575742
0.000588157
0.000600981
0.000614117
0.000627471
0.000640952
0.000654474
0.000667956
0.000681326
0.000694517
0.000707469
0.000720131
0.000732451
0.000744404
0.000755954
0.000767075
0.000777748
0.000787959
0.0007977
0.000806965
0.000815754
0.000824068
0.000831914
0.000839298
0.000846232
0.000852727
0.000858796
0.000864454
0.000869717
0.000874601
0.000879122
0.000883299
0.000887147
0.000890685
0.00089393
0.000896898
0.000899605
0.000902069
0.000904304
0.000906325
0.000908146
0.000909781
0.000911242
0.000912539
0.000913685
0.000914687
0.000915555
0.000916293
0.000916908
0.000917403
0.000917778
0.000918033
0.000918162
0.000977101
0.000936648
0.000899535
0.000865441
0.000834076
0.000805181
0.000778522
0.000753892
0.0007311
0.00070998
0.000690379
0.000672162
0.000655208
0.000639409
0.000624667
0.000610899
0.00059803
0.000585993
0.000574734
0.000564205
0.000554367
0.000545191
0.000536653
0.000528741
0.000521447
0.000514774
0.000508732
0.000503336
0.000498612
0.000494588
0.000491302
0.000488792
0.000487102
0.000486276
0.000486357
0.000487384
0.000489391
0.000492406
0.000496444
0.000501511
0.000507597
0.00051468
0.000522724
0.000531678
0.00054148
0.000552056
0.000563324
0.000575194
0.000587573
0.000600365
0.000613473
0.000626803
0.000640266
0.000653774
0.000667247
0.000680611
0.000693801
0.000706756
0.000719424
0.000731754
0.000743719
0.000755283
0.000766421
0.000777113
0.000787345
0.000797108
0.000806396
0.000815207
0.000823546
0.000831416
0.000838825
0.000845783
0.000852301
0.000858394
0.000864076
0.000869361
0.000874267
0.00087881
0.000883008
0.000886876
0.000890433
0.000893696
0.000896682
0.000899407
0.000901886
0.000904136
0.000906172
0.000908007
0.000909654
0.000911126
0.000912435
0.00091359
0.000914602
0.000915477
0.000916223
0.000916844
0.000917343
0.000917722
0.000917979
0.00091811
0.000977101
0.000936649
0.000899537
0.000865444
0.000834081
0.000805188
0.000778532
0.000753904
0.000731115
0.000709998
0.000690401
0.000672188
0.000655239
0.000639444
0.000624708
0.000610945
0.000598081
0.00058605
0.000574796
0.000564273
0.00055444
0.000545269
0.000536735
0.000528827
0.000521536
0.000514864
0.000508822
0.000503424
0.000498695
0.000494666
0.00049137
0.000488847
0.000487141
0.000486295
0.000486352
0.000487351
0.000489326
0.000492306
0.000496305
0.000501329
0.000507371
0.000514408
0.000522405
0.000531312
0.000541068
0.000551599
0.000562825
0.000574655
0.000586998
0.000599758
0.000612838
0.000626145
0.000639588
0.000653082
0.000666545
0.000679904
0.000693092
0.00070605
0.000718724
0.000731063
0.000743039
0.000754618
0.000765772
0.000776483
0.000786735
0.000796518
0.000805829
0.000814664
0.000823025
0.000830919
0.000838352
0.000845334
0.000851876
0.000857993
0.000863697
0.000869005
0.000873933
0.000878498
0.000882716
0.000886604
0.000890181
0.000893462
0.000896465
0.000899207
0.000901702
0.000903968
0.000906017
0.000907866
0.000909525
0.000911009
0.000912329
0.000913494
0.000914514
0.000915398
0.000916151
0.000916778
0.000917282
0.000917665
0.000917924
0.000918056
0.000977102
0.00093665
0.000899539
0.000865448
0.000834086
0.000805195
0.000778541
0.000753915
0.00073113
0.000710016
0.000690423
0.000672214
0.000655269
0.000639479
0.000624747
0.00061099
0.000598131
0.000586105
0.000574857
0.000564339
0.000554511
0.000545345
0.000536816
0.000528911
0.000521623
0.000514953
0.00050891
0.000503511
0.000498778
0.000494742
0.000491437
0.000488902
0.000487181
0.000486315
0.000486348
0.00048732
0.000489264
0.000492209
0.00049617
0.000501153
0.000507151
0.000514143
0.000522094
0.000530954
0.000540665
0.000551152
0.000562335
0.000574127
0.000586434
0.000599161
0.000612214
0.000625497
0.000638922
0.000652401
0.000665854
0.000679207
0.000692393
0.000705353
0.000718032
0.000730379
0.000742367
0.00075396
0.00076513
0.000775858
0.00078613
0.000795934
0.000805266
0.000814124