/*--------------------------------*- C++ -*----------------------------------*\
  =========                 |
  \\      /  F ield         | OpenFOAM: The Open Source CFD Toolbox
   \\    /   O peration     | Website:  https://openfoam.org
    \\  /    A nd           | Version:  11
     \\/     M anipulation  |
\*---------------------------------------------------------------------------*/
FoamFile
{
    format      ascii;
    class       volScalarField;
    location    "102";
    object      p;
}
// * * * * * * * * * * * * * * * * * * * * * * * * * * * * * * * * * * * * * //

dimensions      [0 2 -2 0 0 0 0];

internalField   nonuniform List<scalar> 
10000
(
9.11582e-07
8.91003e-07
9.21611e-07
9.86065e-07
1.06001e-06
1.13763e-06
1.21825e-06
1.30143e-06
1.38679e-06
1.47404e-06
1.56293e-06
1.65322e-06
1.7446e-06
1.8367e-06
1.9291e-06
2.02132e-06
2.11283e-06
2.20303e-06
2.29132e-06
2.37708e-06
2.45971e-06
2.53866e-06
2.61345e-06
2.6837e-06
2.7491e-06
2.80942e-06
2.8645e-06
2.91416e-06
2.95803e-06
2.99508e-06
3.02236e-06
3.04007e-06
3.0727e-06
3.11414e-06
3.14251e-06
3.16274e-06
3.17848e-06
3.18334e-06
3.18779e-06
3.20036e-06
3.20296e-06
3.1893e-06
3.18481e-06
3.1915e-06
3.18844e-06
3.17784e-06
3.16219e-06
3.14232e-06
3.11864e-06
3.09142e-06
3.06089e-06
3.02721e-06
2.99054e-06
2.95103e-06
2.90884e-06
2.8641e-06
2.81696e-06
2.76759e-06
2.71612e-06
2.66271e-06
2.60751e-06
2.55068e-06
2.49237e-06
2.43272e-06
2.37189e-06
2.31001e-06
2.24722e-06
2.18366e-06
2.11945e-06
2.05472e-06
1.98956e-06
1.9241e-06
1.85843e-06
1.79263e-06
1.7268e-06
1.661e-06
1.59529e-06
1.52974e-06
1.46438e-06
1.39926e-06
1.33439e-06
1.2698e-06
1.20548e-06
1.14143e-06
1.07762e-06
1.01403e-06
9.50582e-07
8.8722e-07
8.23843e-07
7.60326e-07
6.96504e-07
6.32167e-07
5.67033e-07
5.00708e-07
4.3267e-07
3.62312e-07
2.88542e-07
2.06951e-07
1.09244e-07
6.60752e-09
1.76906e-06
1.68014e-06
1.62424e-06
1.64481e-06
1.6986e-06
1.76796e-06
1.84804e-06
1.93611e-06
2.03021e-06
2.12906e-06
2.23172e-06
2.33745e-06
2.44556e-06
2.55537e-06
2.66615e-06
2.77712e-06
2.88745e-06
2.99626e-06
3.10263e-06
3.20566e-06
3.30446e-06
3.39827e-06
3.4864e-06
3.56837e-06
3.64382e-06
3.71258e-06
3.77458e-06
3.8299e-06
3.8786e-06
3.92047e-06
3.95501e-06
3.98686e-06
4.02986e-06
4.05892e-06
4.06001e-06
4.05336e-06
4.05593e-06
4.07299e-06
4.10166e-06
4.13412e-06
4.15233e-06
4.14229e-06
4.12578e-06
4.11997e-06
4.11056e-06
4.09546e-06
4.07542e-06
4.05078e-06
4.02172e-06
3.98844e-06
3.95108e-06
3.90982e-06
3.86479e-06
3.81615e-06
3.76405e-06
3.70864e-06
3.65008e-06
3.58856e-06
3.52423e-06
3.45728e-06
3.38789e-06
3.31624e-06
3.2425e-06
3.16687e-06
3.08952e-06
3.01063e-06
2.93036e-06
2.84888e-06
2.76636e-06
2.68294e-06
2.59876e-06
2.51397e-06
2.42868e-06
2.34302e-06
2.25707e-06
2.17095e-06
2.08473e-06
1.99847e-06
1.91225e-06
1.82609e-06
1.74003e-06
1.65409e-06
1.56827e-06
1.48254e-06
1.39687e-06
1.3112e-06
1.22544e-06
1.13949e-06
1.0532e-06
9.66356e-07
8.78716e-07
7.89942e-07
6.99582e-07
6.06996e-07
5.11346e-07
4.1178e-07
3.06485e-07
1.86249e-07
3.69084e-08
-7.81144e-08
2.23344e-06
2.10219e-06
1.98684e-06
1.9528e-06
1.96099e-06
1.99212e-06
2.0397e-06
2.09972e-06
2.16923e-06
2.24617e-06
2.32907e-06
2.41676e-06
2.50824e-06
2.60257e-06
2.69878e-06
2.79591e-06
2.89292e-06
2.98872e-06
3.08219e-06
3.17224e-06
3.25782e-06
3.33799e-06
3.41197e-06
3.47922e-06
3.5394e-06
3.59242e-06
3.63841e-06
3.67773e-06
3.71092e-06
3.73866e-06
3.76192e-06
3.78451e-06
3.81331e-06
3.84353e-06
3.86331e-06
3.87595e-06
3.8827e-06
3.882e-06
3.87644e-06
3.86781e-06
3.85159e-06
3.82584e-06
3.80331e-06
3.78659e-06
3.76963e-06
3.75027e-06
3.72804e-06
3.70275e-06
3.67426e-06
3.64256e-06
3.60766e-06
3.56959e-06
3.52842e-06
3.48421e-06
3.43705e-06
3.38703e-06
3.33426e-06
3.27885e-06
3.22092e-06
3.16061e-06
3.09805e-06
3.03339e-06
2.96676e-06
2.89832e-06
2.82821e-06
2.75657e-06
2.68355e-06
2.60928e-06
2.53391e-06
2.45756e-06
2.38035e-06
2.30241e-06
2.22383e-06
2.14472e-06
2.06517e-06
1.98526e-06
1.90505e-06
1.82461e-06
1.74399e-06
1.66321e-06
1.58231e-06
1.50128e-06
1.42012e-06
1.3388e-06
1.25727e-06
1.17547e-06
1.09331e-06
1.01066e-06
9.27357e-07
8.43192e-07
7.57895e-07
6.71116e-07
5.82384e-07
4.91044e-07
3.96294e-07
2.97576e-07
1.93322e-07
7.15874e-08
-8.62826e-08
-1.62444e-07
2.64609e-06
2.5018e-06
2.37402e-06
2.31822e-06
2.30358e-06
2.3143e-06
2.34436e-06
2.38958e-06
2.44668e-06
2.51323e-06
2.58745e-06
2.66787e-06
2.75323e-06
2.84237e-06
2.93411e-06
3.0273e-06
3.12068e-06
3.213e-06
3.30295e-06
3.38926e-06
3.47072e-06
3.54626e-06
3.61499e-06
3.6763e-06
3.72981e-06
3.77547e-06
3.81349e-06
3.84437e-06
3.86882e-06
3.88776e-06
3.90229e-06
3.9146e-06
3.92763e-06
3.94057e-06
3.94878e-06
3.95197e-06
3.94984e-06
3.94158e-06
3.9285e-06
3.91196e-06
3.89115e-06
3.8664e-06
3.84251e-06
3.82033e-06
3.79784e-06
3.77386e-06
3.74783e-06
3.71945e-06
3.68849e-06
3.65485e-06
3.61845e-06
3.57925e-06
3.53725e-06
3.49248e-06
3.44496e-06
3.39476e-06
3.34193e-06
3.28657e-06
3.22876e-06
3.1686e-06
3.10622e-06
3.04173e-06
2.97526e-06
2.90692e-06
2.83686e-06
2.7652e-06
2.69208e-06
2.61761e-06
2.54194e-06
2.46517e-06
2.38742e-06
2.30881e-06
2.22943e-06
2.14938e-06
2.06875e-06
1.9876e-06
1.906e-06
1.82402e-06
1.74168e-06
1.65902e-06
1.57606e-06
1.49279e-06
1.40921e-06
1.32528e-06
1.24094e-06
1.15612e-06
1.07072e-06
9.84607e-07
8.97603e-07
8.0949e-07
7.19989e-07
6.28748e-07
5.35304e-07
4.39028e-07
3.39223e-07
2.35723e-07
1.27521e-07
9.40246e-10
-1.67474e-07
-2.19713e-07
3.01495e-06
2.87239e-06
2.74628e-06
2.68206e-06
2.65537e-06
2.65407e-06
2.67322e-06
2.70895e-06
2.75802e-06
2.81793e-06
2.88673e-06
2.9628e-06
3.0447e-06
3.13108e-06
3.22064e-06
3.31202e-06
3.40387e-06
3.49474e-06
3.58321e-06
3.66788e-06
3.7474e-06
3.8206e-06
3.88652e-06
3.94447e-06
3.99405e-06
4.03521e-06
4.06817e-06
4.09348e-06
4.11189e-06
4.12436e-06
4.13198e-06
4.1362e-06
4.13856e-06
4.13885e-06
4.13557e-06
4.12853e-06
4.11781e-06
4.10341e-06
4.08586e-06
4.06563e-06
4.04251e-06
4.01689e-06
3.9906e-06
3.96435e-06
3.93749e-06
3.90936e-06
3.87955e-06
3.84775e-06
3.81372e-06
3.77731e-06
3.7384e-06
3.69691e-06
3.6528e-06
3.60605e-06
3.55666e-06
3.50464e-06
3.45005e-06
3.39294e-06
3.33337e-06
3.27144e-06
3.20724e-06
3.14087e-06
3.07244e-06
3.00207e-06
2.92988e-06
2.856e-06
2.78053e-06
2.70362e-06
2.62537e-06
2.5459e-06
2.46533e-06
2.38375e-06
2.30128e-06
2.218e-06
2.13399e-06
2.04932e-06
1.96407e-06
1.87828e-06
1.79199e-06
1.70523e-06
1.61801e-06
1.53034e-06
1.44218e-06
1.35351e-06
1.26426e-06
1.17436e-06
1.0837e-06
9.92132e-07
8.99488e-07
8.05545e-07
7.10027e-07
6.12597e-07
5.12822e-07
4.10127e-07
3.03941e-07
1.94462e-07
8.11655e-08
-5.09554e-08
-2.28623e-07
-2.67482e-07
3.34028e-06
3.20484e-06
3.0834e-06
3.01541e-06
2.98118e-06
2.97137e-06
2.98205e-06
3.00988e-06
3.05185e-06
3.10553e-06
3.16897e-06
3.24044e-06
3.31842e-06
3.40145e-06
3.4881e-06
3.57692e-06
3.66643e-06
3.75509e-06
3.84137e-06
3.92375e-06
4.00083e-06
4.07134e-06
4.13426e-06
4.18883e-06
4.23462e-06
4.27156e-06
4.29986e-06
4.32008e-06
4.33297e-06
4.33948e-06
4.34069e-06
4.33778e-06
4.33184e-06
4.32308e-06
4.31115e-06
4.29613e-06
4.27825e-06
4.2577e-06
4.23479e-06
4.20978e-06
4.18272e-06
4.15392e-06
4.12424e-06
4.09411e-06
4.06327e-06
4.03134e-06
3.99799e-06
3.96294e-06
3.92596e-06
3.88687e-06
3.84551e-06
3.80179e-06
3.75561e-06
3.70693e-06
3.65572e-06
3.60197e-06
3.5457e-06
3.48694e-06
3.42573e-06
3.36215e-06
3.29628e-06
3.22819e-06
3.15799e-06
3.08578e-06
3.01168e-06
2.93578e-06
2.85822e-06
2.7791e-06
2.69853e-06
2.61664e-06
2.53352e-06
2.44927e-06
2.36401e-06
2.2778e-06
2.19074e-06
2.10289e-06
2.01432e-06
1.92507e-06
1.83518e-06
1.74468e-06
1.65358e-06
1.56187e-06
1.46954e-06
1.37654e-06
1.28282e-06
1.18828e-06
1.09284e-06
9.96336e-07
8.98607e-07
7.9944e-07
6.98574e-07
5.95701e-07
4.90434e-07
3.82261e-07
2.70736e-07
1.56355e-07
3.88955e-08
-9.82138e-08
-2.85187e-07
-3.13149e-07
3.63538e-06
3.50799e-06
3.39227e-06
3.3233e-06
3.28465e-06
3.26898e-06
3.27328e-06
3.29472e-06
3.33063e-06
3.37874e-06
3.43714e-06
3.50411e-06
3.57807e-06
3.65752e-06
3.74094e-06
3.82681e-06
3.91357e-06
3.9996e-06
4.08331e-06
4.1631e-06
4.2375e-06
4.30518e-06
4.36506e-06
4.41634e-06
4.45855e-06
4.49157e-06
4.5156e-06
4.53117e-06
4.53902e-06
4.54008e-06
4.53541e-06
4.52608e-06
4.51307e-06
4.49689e-06
4.47772e-06
4.45583e-06
4.43152e-06
4.40504e-06
4.37669e-06
4.34672e-06
4.31529e-06
4.28265e-06
4.24924e-06
4.21527e-06
4.18061e-06
4.14503e-06
4.10825e-06
4.07002e-06
4.0301e-06
3.98832e-06
3.94448e-06
3.89848e-06
3.85018e-06
3.79953e-06
3.74646e-06
3.69094e-06
3.63296e-06
3.57253e-06
3.50969e-06
3.44448e-06
3.37696e-06
3.30721e-06
3.2353e-06
3.16133e-06
3.08539e-06
3.0076e-06
2.92805e-06
2.84686e-06
2.76413e-06
2.67996e-06
2.59447e-06
2.50774e-06
2.41988e-06
2.33096e-06
2.24106e-06
2.15026e-06
2.0586e-06
1.96615e-06
1.87293e-06
1.77896e-06
1.68427e-06
1.58884e-06
1.49265e-06
1.39566e-06
1.29782e-06
1.19904e-06
1.09922e-06
9.98218e-07
8.95884e-07
7.92015e-07
6.86377e-07
5.78695e-07
4.6863e-07
3.5574e-07
2.39685e-07
1.21215e-07
3.19227e-10
-1.41093e-07
-3.36318e-07
-3.53944e-07
3.90885e-06
3.78912e-06
3.67931e-06
3.61106e-06
3.57018e-06
3.55072e-06
3.55041e-06
3.5669e-06
3.59785e-06
3.6412e-06
3.69512e-06
3.75794e-06
3.82808e-06
3.90401e-06
3.98418e-06
4.06703e-06
4.15092e-06
4.23422e-06
4.31525e-06
4.39239e-06
4.46411e-06
4.52903e-06
4.58603e-06
4.63425e-06
4.67319e-06
4.70268e-06
4.72289e-06
4.73432e-06
4.73769e-06
4.7339e-06
4.72398e-06
4.70898e-06
4.68984e-06
4.66726e-06
4.64175e-06
4.61371e-06
4.58354e-06
4.55157e-06
4.5181e-06
4.48339e-06
4.44762e-06
4.41101e-06
4.37378e-06
4.33603e-06
4.29767e-06
4.25853e-06
4.21838e-06
4.17698e-06
4.13412e-06
4.08958e-06
4.0432e-06
3.99481e-06
3.94429e-06
3.89155e-06
3.83649e-06
3.77907e-06
3.71927e-06
3.65706e-06
3.59247e-06
3.52552e-06
3.45626e-06
3.38474e-06
3.31104e-06
3.23523e-06
3.15741e-06
3.07767e-06
2.9961e-06
2.91281e-06
2.8279e-06
2.74146e-06
2.6536e-06
2.5644e-06
2.47397e-06
2.38237e-06
2.28968e-06
2.19598e-06
2.10132e-06
2.00574e-06
1.90928e-06
1.81196e-06
1.71379e-06
1.61477e-06
1.51488e-06
1.41408e-06
1.3123e-06
1.20948e-06
1.10552e-06
1.0003e-06
8.93655e-07
7.8542e-07
6.75382e-07
5.63304e-07
4.48896e-07
3.31774e-07
2.11694e-07
8.96162e-08
-3.43077e-08
-1.79584e-07
-3.82283e-07
-3.90605e-07
4.16499e-06
4.05222e-06
3.94801e-06
3.88136e-06
3.83961e-06
3.8178e-06
3.81421e-06
3.82689e-06
3.85381e-06
3.89312e-06
3.94309e-06
4.00213e-06
4.06869e-06
4.14123e-06
4.21821e-06
4.29803e-06
4.37903e-06
4.45955e-06
4.53788e-06
4.61237e-06
4.68144e-06
4.7437e-06
4.79795e-06
4.84333e-06
4.87928e-06
4.90559e-06
4.92239e-06
4.93014e-06
4.92952e-06
4.92144e-06
4.90688e-06
4.88689e-06
4.86242e-06
4.8343e-06
4.80319e-06
4.76965e-06
4.73415e-06
4.6971e-06
4.65882e-06
4.61958e-06
4.57959e-06
4.53899e-06
4.49794e-06
4.45647e-06
4.4145e-06
4.37188e-06
4.3284e-06
4.28387e-06
4.23805e-06
4.19074e-06
4.14175e-06
4.09091e-06
4.03808e-06
3.98315e-06
3.92601e-06
3.86659e-06
3.80485e-06
3.74076e-06
3.67432e-06
3.60553e-06
3.53444e-06
3.46108e-06
3.38551e-06
3.3078e-06
3.22804e-06
3.1463e-06
3.06267e-06
2.97725e-06
2.89013e-06
2.80141e-06
2.71118e-06
2.61953e-06
2.52655e-06
2.43231e-06
2.33688e-06
2.24033e-06
2.14272e-06
2.0441e-06
1.94449e-06
1.84391e-06
1.74239e-06
1.63991e-06
1.53646e-06
1.43199e-06
1.32647e-06
1.21981e-06
1.11194e-06
1.00273e-06
8.92048e-07
7.79745e-07
6.65636e-07
5.49517e-07
4.31144e-07
3.10185e-07
1.86472e-07
6.11432e-08
-6.55273e-08
-2.1437e-07
-4.24016e-07
-4.24039e-07
4.40641e-06
4.29982e-06
4.20075e-06
4.13609e-06
4.09429e-06
4.0711e-06
4.06519e-06
4.07494e-06
4.09859e-06
4.13445e-06
4.18095e-06
4.23655e-06
4.29977e-06
4.36909e-06
4.44296e-06
4.51979e-06
4.59792e-06
4.67567e-06
4.75131e-06
4.82317e-06
4.88965e-06
4.94933e-06
5.00099e-06
5.04372e-06
5.07691e-06
5.10033e-06
5.11406e-06
5.11852e-06
5.11437e-06
5.10248e-06
5.08382e-06
5.05943e-06
5.03029e-06
4.99731e-06
4.96125e-06
4.92277e-06
4.88243e-06
4.84068e-06
4.79789e-06
4.75433e-06
4.71023e-06
4.66572e-06
4.6209e-06
4.57577e-06
4.53026e-06
4.48423e-06
4.4375e-06
4.38985e-06
4.34109e-06
4.29099e-06
4.23936e-06
4.18602e-06
4.13083e-06
4.07363e-06
4.01433e-06
3.95283e-06
3.88908e-06
3.82303e-06
3.75466e-06
3.68396e-06
3.61097e-06
3.53571e-06
3.45822e-06
3.37856e-06
3.29682e-06
3.21305e-06
3.12734e-06
3.03978e-06
2.95046e-06
2.85947e-06
2.76689e-06
2.67281e-06
2.57731e-06
2.48047e-06
2.38236e-06
2.28303e-06
2.18256e-06
2.08097e-06
1.97831e-06
1.8746e-06
1.76984e-06
1.66404e-06
1.55718e-06
1.44923e-06
1.34014e-06
1.22985e-06
1.11828e-06
1.00533e-06
8.90883e-07
7.74798e-07
6.56922e-07
5.37084e-07
4.15081e-07
2.90622e-07
1.63602e-07
3.5309e-08
-9.38891e-08
-2.46066e-07
-4.6224e-07
-4.54805e-07
4.6349e-06
4.53376e-06
4.43934e-06
4.37682e-06
4.33549e-06
4.31158e-06
4.30405e-06
4.31154e-06
4.33251e-06
4.36544e-06
4.40887e-06
4.46136e-06
4.52148e-06
4.58774e-06
4.65863e-06
4.73256e-06
4.80787e-06
4.88289e-06
4.95588e-06
5.02517e-06
5.08914e-06
5.14634e-06
5.19554e-06
5.23578e-06
5.26645e-06
5.28723e-06
5.2982e-06
5.29972e-06
5.29242e-06
5.27714e-06
5.25485e-06
5.22658e-06
5.19333e-06
5.15605e-06
5.11559e-06
5.07266e-06
5.0279e-06
4.98181e-06
4.93478e-06
4.88713e-06
4.83908e-06
4.79076e-06
4.74226e-06
4.69356e-06
4.6446e-06
4.59523e-06
4.54529e-06
4.49458e-06
4.44288e-06
4.38999e-06
4.33571e-06
4.27984e-06
4.22223e-06
4.16273e-06
4.10121e-06
4.03758e-06
3.97175e-06
3.90367e-06
3.8333e-06
3.76065e-06
3.6857e-06
3.60848e-06
3.52903e-06
3.4474e-06
3.36364e-06
3.27782e-06
3.19002e-06
3.10032e-06
3.0088e-06
2.91555e-06
2.82064e-06
2.72416e-06
2.62619e-06
2.52681e-06
2.42607e-06
2.32405e-06
2.22079e-06
2.11634e-06
2.01073e-06
1.90399e-06
1.79613e-06
1.68715e-06
1.57704e-06
1.46577e-06
1.3533e-06
1.23957e-06
1.12453e-06
1.00806e-06
8.9009e-07
7.70485e-07
6.49117e-07
5.25847e-07
4.00503e-07
2.72831e-07
1.42773e-07
1.17482e-08
-1.19805e-07
-2.75126e-07
-4.97466e-07
-4.83285e-07
4.85171e-06
4.75541e-06
4.66522e-06
4.60486e-06
4.56429e-06
4.5401e-06
4.53146e-06
4.53721e-06
4.55597e-06
4.58639e-06
4.62712e-06
4.6768e-06
4.73405e-06
4.79744e-06
4.86548e-06
4.93661e-06
5.00919e-06
5.08155e-06
5.15197e-06
5.21875e-06
5.28029e-06
5.33513e-06
5.382e-06
5.41993e-06
5.44826e-06
5.46665e-06
5.47512e-06
5.474e-06
5.46389e-06
5.44561e-06
5.4201e-06
5.38838e-06
5.35148e-06
5.31039e-06
5.26598e-06
5.21904e-06
5.17024e-06
5.12013e-06
5.06915e-06
5.01763e-06
4.96581e-06
4.91382e-06
4.86175e-06
4.80959e-06
4.75725e-06
4.70463e-06
4.65154e-06
4.5978e-06
4.5432e-06
4.48753e-06
4.43059e-06
4.37218e-06
4.31213e-06
4.25028e-06
4.1865e-06
4.12068e-06
4.05273e-06
3.98257e-06
3.91017e-06
3.83551e-06
3.75856e-06
3.67935e-06
3.59791e-06
3.51426e-06
3.42847e-06
3.3406e-06
3.2507e-06
3.15886e-06
3.06516e-06
2.96966e-06
2.87246e-06
2.77362e-06
2.67323e-06
2.57135e-06
2.46806e-06
2.3634e-06
2.25744e-06
2.15022e-06
2.04177e-06
1.93212e-06
1.82129e-06
1.70927e-06
1.59605e-06
1.48162e-06
1.36595e-06
1.24898e-06
1.13065e-06
1.0109e-06
8.89625e-07
7.66738e-07
6.42127e-07
5.15676e-07
3.87242e-07
2.566e-07
1.23731e-07
-9.83525e-09
-1.43602e-07
-3.01908e-07
-5.30094e-07
-5.09774e-07
5.05778e-06
4.96583e-06
4.87949e-06
4.82124e-06
4.7816e-06
4.75743e-06
4.74804e-06
4.75244e-06
4.76939e-06
4.79766e-06
4.83599e-06
4.88312e-06
4.93772e-06
4.99842e-06
5.06376e-06
5.13221e-06
5.20216e-06
5.27195e-06
5.33987e-06
5.40425e-06
5.46346e-06
5.51604e-06
5.56072e-06
5.59649e-06
5.62265e-06
5.63885e-06
5.64507e-06
5.64159e-06
5.62897e-06
5.60801e-06
5.57964e-06
5.54486e-06
5.50472e-06
5.46021e-06
5.41225e-06
5.36167e-06
5.30918e-06
5.25537e-06
5.2007e-06
5.14553e-06
5.09012e-06
5.03462e-06
4.97911e-06
4.92358e-06
4.86798e-06
4.81218e-06
4.75601e-06
4.6993e-06
4.64183e-06
4.5834e-06
4.52381e-06
4.46285e-06
4.40034e-06
4.33613e-06
4.27006e-06
4.20202e-06
4.13191e-06
4.05964e-06
3.98517e-06
3.90846e-06
3.82949e-06
3.74827e-06
3.6648e-06
3.57914e-06
3.4913e-06
3.40136e-06
3.30937e-06
3.2154e-06
3.11953e-06
3.02181e-06
2.92234e-06
2.82119e-06
2.71842e-06
2.61411e-06
2.50832e-06
2.40112e-06
2.29254e-06
2.18265e-06
2.07146e-06
1.95902e-06
1.84533e-06
1.7304e-06
1.61423e-06
1.49681e-06
1.37809e-06
1.25806e-06
1.13664e-06
1.0138e-06
8.89437e-07
7.63486e-07
6.35853e-07
5.06446e-07
3.75143e-07
2.41742e-07
1.06254e-07
-2.96923e-08
-1.65553e-07
-3.26703e-07
-5.60445e-07
-5.34508e-07
5.25388e-06
5.16585e-06
5.08304e-06
5.02683e-06
4.98821e-06
4.96426e-06
4.95439e-06
4.95773e-06
4.97316e-06
4.99956e-06
5.03577e-06
5.08058e-06
5.13274e-06
5.19092e-06
5.25371e-06
5.31961e-06
5.38705e-06
5.45437e-06
5.5199e-06
5.58195e-06
5.63894e-06
5.68938e-06
5.73198e-06
5.76573e-06
5.7899e-06
5.80411e-06
5.80827e-06
5.80267e-06
5.78781e-06
5.76447e-06
5.73354e-06
5.69604e-06
5.653e-06
5.60542e-06
5.55427e-06
5.50039e-06
5.44452e-06
5.38728e-06
5.32917e-06
5.27057e-06
5.21175e-06
5.1529e-06
5.09408e-06
5.03532e-06
4.97655e-06
4.91765e-06
4.85848e-06
4.79885e-06
4.73856e-06
4.6774e-06
4.61517e-06
4.55167e-06
4.48671e-06
4.42012e-06
4.35176e-06
4.28148e-06
4.20918e-06
4.13479e-06
4.05822e-06
3.97944e-06
3.89843e-06
3.81517e-06
3.72968e-06
3.64197e-06
3.5521e-06
3.46009e-06
3.36602e-06
3.26993e-06
3.17191e-06
3.07201e-06
2.97031e-06
2.86688e-06
2.76179e-06
2.65511e-06
2.5469e-06
2.43722e-06
2.32612e-06
2.21364e-06
2.09982e-06
1.9847e-06
1.86828e-06
1.75058e-06
1.6316e-06
1.51132e-06
1.38973e-06
1.2668e-06
1.14248e-06
1.01673e-06
8.89475e-07
7.60659e-07
6.30206e-07
4.98041e-07
3.64065e-07
2.28088e-07
9.01503e-08
-4.80362e-08
-1.85886e-07
-3.4975e-07
-5.88782e-07
-5.57678e-07
5.4406e-06
5.35615e-06
5.27659e-06
5.22234e-06
5.18478e-06
5.16117e-06
5.15101e-06
5.15352e-06
5.16768e-06
5.19246e-06
5.22676e-06
5.26947e-06
5.31937e-06
5.3752e-06
5.43559e-06
5.49907e-06
5.5641e-06
5.62907e-06
5.6923e-06
5.75214e-06
5.807e-06
5.85541e-06
5.89606e-06
5.92793e-06
5.95026e-06
5.96263e-06
5.96494e-06
5.95742e-06
5.94056e-06
5.91508e-06
5.88188e-06
5.84194e-06
5.7963e-06
5.74598e-06
5.69193e-06
5.63504e-06
5.57607e-06
5.51566e-06
5.45435e-06
5.39253e-06
5.3305e-06
5.26844e-06
5.20647e-06
5.14458e-06
5.08275e-06
5.02085e-06
4.95875e-06
4.89627e-06
4.8332e-06
4.76936e-06
4.70453e-06
4.6385e-06
4.5711e-06
4.50213e-06
4.43146e-06
4.35894e-06
4.28446e-06
4.20791e-06
4.12924e-06
4.04838e-06
3.96531e-06
3.88001e-06
3.79249e-06
3.70275e-06
3.61084e-06
3.51678e-06
3.42064e-06
3.32246e-06
3.22231e-06
3.12026e-06
3.01637e-06
2.91072e-06
2.80336e-06
2.69437e-06
2.58381e-06
2.47173e-06
2.35819e-06
2.24323e-06
2.12688e-06
2.00919e-06
1.89016e-06
1.76981e-06
1.64816e-06
1.52518e-06
1.40087e-06
1.2752e-06
1.14814e-06
1.01966e-06
8.8969e-07
7.58191e-07
6.251e-07
4.90359e-07
3.53882e-07
2.15494e-07
7.52544e-08
-6.50468e-08
-2.04791e-07
-3.7125e-07
-6.15321e-07
-5.79443e-07
5.61848e-06
5.53732e-06
5.46077e-06
5.40838e-06
5.37189e-06
5.34871e-06
5.3384e-06
5.34025e-06
5.35333e-06
5.37668e-06
5.40928e-06
5.45006e-06
5.49788e-06
5.55152e-06
5.60964e-06
5.67083e-06
5.73358e-06
5.79629e-06
5.85733e-06
5.91506e-06
5.9679e-06
6.01438e-06
6.0532e-06
6.08331e-06
6.10393e-06
6.11462e-06
6.11525e-06
6.106e-06
6.08734e-06
6.05996e-06
6.02472e-06
5.9826e-06
5.93463e-06
5.88183e-06
5.82517e-06
5.76553e-06
5.70371e-06
5.64038e-06
5.57607e-06
5.51123e-06
5.44616e-06
5.38107e-06
5.31607e-06
5.2512e-06
5.18641e-06
5.1216e-06
5.05666e-06
4.99139e-06
4.92562e-06
4.85913e-06
4.79173e-06
4.72321e-06
4.65337e-06
4.58205e-06
4.50908e-06
4.43432e-06
4.35764e-06
4.27896e-06
4.19817e-06
4.11524e-06
4.03011e-06
3.94277e-06
3.85322e-06
3.76145e-06
3.66751e-06
3.57142e-06
3.47322e-06
3.37298e-06
3.27074e-06
3.16658e-06
3.06055e-06
2.95272e-06
2.84316e-06
2.73192e-06
2.61908e-06
2.50468e-06
2.38879e-06
2.27143e-06
2.15266e-06
2.03251e-06
1.91099e-06
1.78812e-06
1.66392e-06
1.53838e-06
1.41149e-06
1.28324e-06
1.15361e-06
1.02255e-06
8.90037e-07
7.56022e-07
6.2046e-07
4.83305e-07
3.44484e-07
2.03833e-07
6.14257e-08
-8.08771e-08
-2.22427e-07
-3.91367e-07
-6.40242e-07
-5.99935e-07
5.78796e-06
5.70984e-06
5.6361e-06
5.58547e-06
5.55004e-06
5.52734e-06
5.51698e-06
5.51831e-06
5.53047e-06
5.55255e-06
5.58361e-06
5.62263e-06
5.66853e-06
5.72012e-06
5.77611e-06
5.83514e-06
5.89571e-06
5.95628e-06
6.01523e-06
6.07096e-06
6.12188e-06
6.16653e-06
6.20362e-06
6.23209e-06
6.25113e-06
6.26028e-06
6.25938e-06
6.24857e-06
6.22829e-06
6.1992e-06
6.16214e-06
6.11807e-06
6.06801e-06
6.01296e-06
5.95392e-06
5.89178e-06
5.82734e-06
5.7613e-06
5.69422e-06
5.62654e-06
5.5586e-06
5.49063e-06
5.42275e-06
5.355e-06
5.28737e-06
5.21977e-06
5.15206e-06
5.08408e-06
5.01566e-06
4.94658e-06
4.87665e-06
4.80567e-06
4.73344e-06
4.65978e-06
4.58453e-06
4.50754e-06
4.42868e-06
4.34785e-06
4.26497e-06
4.17996e-06
4.09279e-06
4.00342e-06
3.91184e-06
3.81807e-06
3.72212e-06
3.62401e-06
3.52379e-06
3.42151e-06
3.31722e-06
3.21099e-06
3.10286e-06
2.99291e-06
2.8812e-06
2.76779e-06
2.65274e-06
2.53611e-06
2.41795e-06
2.29829e-06
2.1772e-06
2.05469e-06
1.93079e-06
1.80553e-06
1.67891e-06
1.55094e-06
1.42161e-06
1.29093e-06
1.15886e-06
1.02538e-06
8.90475e-07
7.54098e-07
6.16218e-07
4.76798e-07
3.35777e-07
1.92996e-07
4.85431e-08
-9.56567e-08
-2.38929e-07
-4.10242e-07
-6.63696e-07
-6.19267e-07
5.94945e-06
5.87416e-06
5.80304e-06
5.75409e-06
5.7197e-06
5.6975e-06
5.68716e-06
5.68808e-06
5.69943e-06
5.72039e-06
5.75006e-06
5.78746e-06
5.83157e-06
5.88124e-06
5.93524e-06
5.99221e-06
6.05073e-06
6.10927e-06
6.16624e-06
6.22005e-06
6.26915e-06
6.31208e-06
6.34755e-06
6.37448e-06
6.39206e-06
6.39979e-06
6.39749e-06
6.38527e-06
6.36353e-06
6.33291e-06
6.29422e-06
6.24839e-06
6.19644e-06
6.13937e-06
6.07817e-06
6.01374e-06
5.94689e-06
5.87834e-06
5.80867e-06
5.73834e-06
5.6677e-06
5.59699e-06
5.52637e-06
5.45588e-06
5.38552e-06
5.31521e-06
5.24483e-06
5.17422e-06
5.10321e-06
5.03161e-06
4.95921e-06
4.8858e-06
4.81121e-06
4.73524e-06
4.65773e-06
4.57854e-06
4.49752e-06
4.41456e-06
4.32959e-06
4.24252e-06
4.15332e-06
4.06193e-06
3.96836e-06
3.8726e-06
3.77465e-06
3.67456e-06
3.57235e-06
3.46808e-06
3.36178e-06
3.25351e-06
3.14334e-06
3.03133e-06
2.91753e-06
2.80202e-06
2.68483e-06
2.56604e-06
2.4457e-06
2.32384e-06
2.20051e-06
2.07575e-06
1.94959e-06
1.82204e-06
1.69313e-06
1.56286e-06
1.43123e-06
1.29824e-06
1.16388e-06
1.02813e-06
8.90968e-07
7.52372e-07
6.12314e-07
4.70766e-07
3.27676e-07
1.82888e-07
3.65032e-08
-1.09496e-07
-2.54412e-07
-4.27993e-07
-6.85814e-07
-6.37535e-07
6.10331e-06
6.03066e-06
5.962e-06
5.91464e-06
5.88125e-06
5.85958e-06
5.84932e-06
5.84989e-06
5.86055e-06
5.8805e-06
5.9089e-06
5.94482e-06
5.98726e-06
6.03514e-06
6.08725e-06
6.1423e-06
6.19887e-06
6.25547e-06
6.31056e-06
6.36256e-06
6.40993e-06
6.45124e-06
6.48517e-06
6.51066e-06
6.52688e-06
6.53331e-06
6.52974e-06
6.51624e-06
6.49319e-06
6.46119e-06
6.42103e-06
6.37363e-06
6.31998e-06
6.26107e-06
6.1979e-06
6.13137e-06
6.06231e-06
5.99144e-06
5.91935e-06
5.84653e-06
5.77335e-06
5.70006e-06
5.62683e-06
5.55372e-06
5.48074e-06
5.40782e-06
5.33486e-06
5.26171e-06
5.18819e-06
5.11412e-06
5.0393e-06
4.96352e-06
4.88661e-06
4.80837e-06
4.72863e-06
4.64725e-06
4.5641e-06
4.47904e-06
4.39201e-06
4.3029e-06
4.21168e-06
4.11831e-06
4.02276e-06
3.92503e-06
3.82514e-06
3.72309e-06
3.61893e-06
3.51269e-06
3.40442e-06
3.29418e-06
3.18202e-06
3.068e-06
2.95218e-06
2.83463e-06
2.71539e-06
2.59452e-06
2.47207e-06
2.3481e-06
2.22264e-06
2.09574e-06
1.96741e-06
1.8377e-06
1.7066e-06
1.57415e-06
1.44034e-06
1.30518e-06
1.16866e-06
1.03076e-06
8.91485e-07
7.50803e-07
6.08697e-07
4.65148e-07
3.20109e-07
1.7343e-07
2.52174e-08
-1.2249e-07
-2.68973e-07
-4.4472e-07
-7.06704e-07
-6.54819e-07
6.24987e-06
6.1797e-06
6.11334e-06
6.06748e-06
6.03507e-06
6.01393e-06
6.00378e-06
6.00408e-06
6.01413e-06
6.03317e-06
6.0604e-06
6.09494e-06
6.13584e-06
6.18204e-06
6.23239e-06
6.28561e-06
6.34034e-06
6.39511e-06
6.44841e-06
6.49869e-06
6.54442e-06
6.58419e-06
6.61669e-06
6.64083e-06
6.65579e-06
6.66102e-06
6.65627e-06
6.64162e-06
6.61738e-06
6.58414e-06
6.54267e-06
6.49385e-06
6.43866e-06
6.37809e-06
6.31312e-06
6.24467e-06
6.17357e-06
6.10054e-06
6.02621e-06
5.95106e-06
5.87549e-06
5.79975e-06
5.72404e-06
5.64843e-06
5.57294e-06
5.49753e-06
5.42208e-06
5.34646e-06
5.27051e-06
5.19403e-06
5.11685e-06
5.03876e-06
4.95957e-06
4.8791e-06
4.79718e-06
4.71366e-06
4.62839e-06
4.54127e-06
4.45219e-06
4.36108e-06
4.26788e-06
4.17254e-06
4.07505e-06
3.97539e-06
3.87357e-06
3.76961e-06
3.66353e-06
3.55538e-06
3.44519e-06
3.33302e-06
3.21893e-06
3.10297e-06
2.98519e-06
2.86566e-06
2.74444e-06
2.62157e-06
2.49711e-06
2.37112e-06
2.24362e-06
2.11467e-06
1.98429e-06
1.8525e-06
1.71935e-06
1.58483e-06
1.44896e-06
1.31174e-06
1.17318e-06
1.03327e-06
8.91998e-07
7.49353e-07
6.05321e-07
4.59889e-07
3.13015e-07
1.6455e-07
1.46098e-08
-1.34717e-07
-2.82694e-07
-4.60509e-07
-7.26462e-07
-6.71192e-07
6.38943e-06
6.32158e-06
6.25739e-06
6.21296e-06
6.18149e-06
6.16088e-06
6.15086e-06
6.15094e-06
6.16045e-06
6.17866e-06
6.20482e-06
6.23809e-06
6.27755e-06
6.32218e-06
6.37086e-06
6.42236e-06
6.47534e-06
6.52838e-06
6.57998e-06
6.62863e-06
6.67282e-06
6.71113e-06
6.74227e-06
6.76516e-06
6.77894e-06
6.78306e-06
6.77724e-06
6.76153e-06
6.73623e-06
6.70187e-06
6.65921e-06
6.60911e-06
6.55253e-06
6.49045e-06
6.42385e-06
6.35364e-06
6.28066e-06
6.20564e-06
6.12921e-06
6.05188e-06
5.97405e-06
5.89601e-06
5.81794e-06
5.73995e-06
5.66207e-06
5.58425e-06
5.5064e-06
5.42841e-06
5.3501e-06
5.2713e-06
5.19182e-06
5.11147e-06
5.03006e-06
4.9474e-06
4.86334e-06
4.77771e-06
4.69038e-06
4.60122e-06
4.51014e-06
4.41706e-06
4.32191e-06
4.22464e-06
4.12524e-06
4.02368e-06
3.91998e-06
3.81414e-06
3.70619e-06
3.59617e-06
3.48411e-06
3.37007e-06
3.2541e-06
3.13626e-06
3.01659e-06
2.89516e-06
2.77202e-06
2.64724e-06
2.52085e-06
2.39292e-06
2.26348e-06
2.13257e-06
2.00023e-06
1.86649e-06
1.73137e-06
1.5949e-06
1.45708e-06
1.31793e-06
1.17745e-06
1.03563e-06
8.92485e-07
7.47994e-07
6.02149e-07
4.54945e-07
3.06341e-07
1.56191e-07
4.6159e-09
-1.46248e-07
-2.95646e-07
-4.75433e-07
-7.45168e-07
-6.86713e-07
6.52226e-06
6.45659e-06
6.39444e-06
6.35138e-06
6.3208e-06
6.30071e-06
6.29085e-06
6.29075e-06
6.29977e-06
6.31724e-06
6.34242e-06
6.3745e-06
6.41261e-06
6.45577e-06
6.50288e-06
6.55276e-06
6.60409e-06
6.65548e-06
6.70548e-06
6.75258e-06
6.7953e-06
6.83223e-06
6.8621e-06
6.8838e-06
6.89649e-06
6.89958e-06
6.89279e-06
6.87612e-06
6.84984e-06
6.81448e-06
6.77075e-06
6.7195e-06
6.66166e-06
6.59821e-06
6.53012e-06
6.45829e-06
6.38357e-06
6.3067e-06
6.22833e-06
6.14896e-06
6.06901e-06
5.98879e-06
5.90849e-06
5.82823e-06
5.74806e-06
5.66794e-06
5.58779e-06
5.5075e-06
5.42691e-06
5.34586e-06
5.26415e-06
5.1816e-06
5.09803e-06
5.01324e-06
4.92709e-06
4.8394e-06
4.75004e-06
4.65889e-06
4.56584e-06
4.47082e-06
4.37376e-06
4.27461e-06
4.17334e-06
4.06993e-06
3.96438e-06
3.85671e-06
3.74694e-06
3.6351e-06
3.52123e-06
3.40537e-06
3.28758e-06
3.16791e-06
3.04642e-06
2.92316e-06
2.79819e-06
2.67156e-06
2.54333e-06
2.41354e-06
2.28224e-06
2.14948e-06
2.01528e-06
1.87968e-06
1.7427e-06
1.60438e-06
1.46472e-06
1.32374e-06
1.18145e-06
1.03784e-06
8.92929e-07
7.46699e-07
5.99149e-07
4.50275e-07
3.00042e-07
1.48301e-07
-4.8194e-09
-1.5714e-07
-3.07889e-07
-4.89556e-07
-7.62892e-07
-7.01435e-07
6.64863e-06
6.58501e-06
6.52479e-06
6.48301e-06
6.4533e-06
6.43371e-06
6.42401e-06
6.42377e-06
6.43236e-06
6.44914e-06
6.47341e-06
6.50439e-06
6.54125e-06
6.58302e-06
6.62866e-06
6.677e-06
6.72677e-06
6.77661e-06
6.82508e-06
6.87071e-06
6.91204e-06
6.94768e-06
6.97634e-06
6.99693e-06
7.0086e-06
7.01074e-06
7.00305e-06
6.9855e-06
6.95835e-06
6.92208e-06
6.87738e-06
6.82509e-06
6.76611e-06
6.70141e-06
6.63195e-06
6.55864e-06
6.48232e-06
6.40375e-06
6.32355e-06
6.24227e-06
6.16033e-06
6.07805e-06
5.99564e-06
5.91323e-06
5.83087e-06
5.74855e-06
5.6662e-06
5.5837e-06
5.50092e-06
5.41768e-06
5.33381e-06
5.24913e-06
5.16345e-06
5.0766e-06
4.9884e-06
4.8987e-06
4.80736e-06
4.71426e-06
4.6193e-06
4.52239e-06
4.42346e-06
4.32246e-06
4.21936e-06
4.11414e-06
4.0068e-06
3.89735e-06
3.7858e-06
3.6722e-06
3.55656e-06
3.43895e-06
3.3194e-06
3.19797e-06
3.07472e-06
2.9497e-06
2.82297e-06
2.69458e-06
2.56458e-06
2.43302e-06
2.29995e-06
2.16542e-06
2.02945e-06
1.89209e-06
1.75336e-06
1.61328e-06
1.47189e-06
1.32918e-06
1.18518e-06
1.03989e-06
8.93314e-07
7.45449e-07
5.96294e-07
4.45848e-07
2.94079e-07
1.40839e-07
-1.37428e-08
-1.67443e-07
-3.19476e-07
-5.02931e-07
-7.79695e-07
-7.15405e-07
6.76876e-06
6.70708e-06
6.64867e-06
6.60811e-06
6.57922e-06
6.56013e-06
6.55061e-06
6.55024e-06
6.55844e-06
6.57459e-06
6.59801e-06
6.62797e-06
6.66365e-06
6.70412e-06
6.74837e-06
6.79527e-06
6.84356e-06
6.89193e-06
6.93896e-06
6.9832e-06
7.02321e-06
7.05762e-06
7.08515e-06
7.1047e-06
7.11542e-06
7.11668e-06
7.10815e-06
7.0898e-06
7.06185e-06
7.02476e-06
6.9792e-06
6.92596e-06
6.86595e-06
6.80012e-06
6.72941e-06
6.65474e-06
6.57694e-06
6.49678e-06
6.41489e-06
6.33182e-06
6.24802e-06
6.16379e-06
6.07938e-06
5.99493e-06
5.91049e-06
5.82607e-06
5.7416e-06
5.65698e-06
5.57208e-06
5.48674e-06
5.40079e-06
5.31404e-06
5.22632e-06
5.13745e-06
5.04727e-06
4.95561e-06
4.86235e-06
4.76736e-06
4.67052e-06
4.57176e-06
4.47101e-06
4.36822e-06
4.26334e-06
4.15636e-06
4.04727e-06
3.93609e-06
3.82282e-06
3.7075e-06
3.59016e-06
3.47084e-06
3.3496e-06
3.22648e-06
3.10154e-06
2.97483e-06
2.84641e-06
2.71633e-06
2.58464e-06
2.45139e-06
2.31664e-06
2.18042e-06
2.04278e-06
1.90375e-06
1.76335e-06
1.62163e-06
1.47859e-06
1.33426e-06
1.18865e-06
1.04177e-06
8.93629e-07
7.44226e-07
5.93562e-07
4.41638e-07
2.88422e-07
1.33767e-07
-2.21939e-08
-1.772e-07
-3.3045e-07
-5.15604e-07
-7.95627e-07
-7.28662e-07
6.88288e-06
6.82302e-06
6.76633e-06
6.72692e-06
6.69882e-06
6.6802e-06
6.67085e-06
6.67039e-06
6.67824e-06
6.69381e-06
6.71645e-06
6.74545e-06
6.78003e-06
6.81928e-06
6.86222e-06
6.90775e-06
6.95465e-06
7.00162e-06
7.04728e-06
7.09021e-06
7.12898e-06
7.16222e-06
7.18868e-06
7.20725e-06
7.21708e-06
7.21752e-06
7.20823e-06
7.18915e-06
7.16047e-06
7.12264e-06
7.07628e-06
7.02219e-06
6.96125e-06
6.89439e-06
6.82254e-06
6.74662e-06
6.66746e-06
6.58582e-06
6.50235e-06
6.41762e-06
6.33206e-06
6.246e-06
6.1597e-06
6.07331e-06
5.98689e-06
5.90046e-06
5.81397e-06
5.72732e-06
5.64039e-06
5.55302e-06
5.46506e-06
5.37632e-06
5.28662e-06
5.19581e-06
5.1037e-06
5.01014e-06
4.91501e-06
4.81817e-06