/*--------------------------------*- C++ -*----------------------------------*\
  =========                 |
  \\      /  F ield         | OpenFOAM: The Open Source CFD Toolbox
   \\    /   O peration     | Website:  https://openfoam.org
    \\  /    A nd           | Version:  11
     \\/     M anipulation  |
\*---------------------------------------------------------------------------*/
FoamFile
{
    format      ascii;
    class       volScalarField;
    location    "542";
    object      nut;
}
// * * * * * * * * * * * * * * * * * * * * * * * * * * * * * * * * * * * * * //

dimensions      [0 2 -1 0 0 0 0];

internalField   nonuniform List<scalar> 
10000
(
0.000977118
0.000936709
0.000899653
0.00086563
0.000834354
0.000805565
0.000779033
0.000754547
0.00073192
0.000710984
0.000691586
0.000673589
0.000656869
0.000641316
0.000626827
0.000613313
0.000600691
0.000588887
0.000577832
0.000567467
0.000557736
0.000548588
0.000539977
0.000531862
0.000524205
0.000516971
0.000510129
0.00050365
0.000497507
0.000491676
0.000486136
0.000480865
0.000475846
0.00047106
0.000466493
0.000462129
0.000457956
0.00045396
0.000450131
0.000446457
0.00044293
0.000439539
0.000436277
0.000433136
0.000430108
0.000427188
0.000424368
0.000421643
0.000419008
0.000416459
0.00041399
0.000411598
0.000409279
0.000407029
0.000404847
0.000402729
0.000400674
0.000398679
0.000396743
0.000394866
0.000393046
0.000391284
0.000389581
0.000387936
0.000386351
0.000384829
0.000383371
0.000381982
0.000380664
0.000379423
0.000378263
0.000377191
0.000376213
0.000375336
0.00037457
0.000373922
0.000373403
0.000373023
0.000372792
0.000372722
0.000372824
0.00037311
0.00037359
0.000374273
0.00037517
0.000376286
0.000377627
0.000379192
0.000380979
0.000382978
0.000385173
0.000387539
0.000390039
0.000392623
0.000395225
0.000397755
0.0004001
0.000402113
0.000403617
0.000404417
0.000977118
0.000936709
0.000899653
0.00086563
0.000834354
0.000805565
0.000779033
0.000754547
0.00073192
0.000710984
0.000691586
0.000673589
0.000656869
0.000641316
0.000626827
0.000613313
0.000600691
0.000588887
0.000577833
0.000567468
0.000557736
0.000548588
0.000539977
0.000531862
0.000524205
0.000516971
0.000510129
0.00050365
0.000497507
0.000491677
0.000486136
0.000480866
0.000475846
0.000471061
0.000466494
0.00046213
0.000457957
0.000453961
0.000450132
0.000446458
0.000442931
0.00043954
0.000436278
0.000433137
0.000430109
0.000427189
0.000424369
0.000421644
0.00041901
0.00041646
0.000413991
0.000411599
0.00040928
0.000407031
0.000404849
0.000402731
0.000400676
0.000398681
0.000396745
0.000394868
0.000393048
0.000391286
0.000389583
0.000387938
0.000386353
0.000384831
0.000383373
0.000381984
0.000380666
0.000379425
0.000378265
0.000377193
0.000376214
0.000375338
0.000374571
0.000373923
0.000373404
0.000373023
0.000372792
0.000372722
0.000372824
0.000373109
0.000373588
0.000374271
0.000375167
0.000376282
0.000377622
0.000379187
0.000380973
0.000382971
0.000385165
0.00038753
0.000390029
0.000392613
0.000395213
0.000397743
0.000400087
0.0004021
0.000403604
0.000404404
0.000977118
0.000936709
0.000899653
0.00086563
0.000834354
0.000805566
0.000779033
0.000754547
0.00073192
0.000710984
0.000691586
0.000673589
0.00065687
0.000641316
0.000626828
0.000613314
0.000600692
0.000588887
0.000577833
0.000567468
0.000557737
0.000548589
0.000539978
0.000531863
0.000524206
0.000516972
0.00051013
0.000503651
0.000497508
0.000491678
0.000486138
0.000480867
0.000475848
0.000471062
0.000466495
0.000462132
0.000457958
0.000453963
0.000450133
0.00044646
0.000442932
0.000439542
0.00043628
0.000433139
0.000430111
0.000427191
0.000424371
0.000421647
0.000419012
0.000416463
0.000413994
0.000411602
0.000409283
0.000407034
0.000404852
0.000402734
0.000400679
0.000398684
0.000396748
0.000394871
0.000393052
0.00039129
0.000389586
0.000387941
0.000386356
0.000384834
0.000383377
0.000381987
0.000380669
0.000379428
0.000378268
0.000377195
0.000376216
0.000375339
0.000374572
0.000373924
0.000373404
0.000373023
0.000372791
0.00037272
0.00037282
0.000373104
0.000373582
0.000374264
0.000375158
0.000376272
0.00037761
0.000379173
0.000380958
0.000382954
0.000385147
0.00038751
0.000390008
0.00039259
0.00039519
0.000397719
0.000400062
0.000402074
0.000403578
0.000404377
0.000977118
0.000936709
0.000899653
0.000865631
0.000834354
0.000805566
0.000779033
0.000754547
0.000731921
0.000710985
0.000691587
0.00067359
0.00065687
0.000641317
0.000626828
0.000613314
0.000600693
0.000588888
0.000577834
0.000567469
0.000557738
0.000548589
0.000539979
0.000531864
0.000524207
0.000516973
0.000510131
0.000503652
0.00049751
0.000491679
0.000486139
0.000480869
0.000475849
0.000471064
0.000466497
0.000462134
0.00045796
0.000453965
0.000450136
0.000446462
0.000442935
0.000439545
0.000436283
0.000433142
0.000430114
0.000427194
0.000424374
0.00042165
0.000419016
0.000416466
0.000413998
0.000411606
0.000409287
0.000407038
0.000404856
0.000402738
0.000400683
0.000398688
0.000396753
0.000394876
0.000393056
0.000391295
0.000389591
0.000387946
0.000386361
0.000384839
0.000383381
0.000381992
0.000380674
0.000379432
0.000378272
0.000377198
0.000376219
0.000375342
0.000374574
0.000373925
0.000373404
0.000373021
0.000372788
0.000372716
0.000372815
0.000373097
0.000373573
0.000374253
0.000375145
0.000376257
0.000377593
0.000379153
0.000380935
0.000382929
0.00038512
0.000387481
0.000389976
0.000392557
0.000395155
0.000397682
0.000400025
0.000402036
0.000403539
0.000404338
0.000977118
0.000936709
0.000899653
0.000865631
0.000834355
0.000805566
0.000779033
0.000754548
0.000731921
0.000710985
0.000691587
0.00067359
0.000656871
0.000641317
0.000626829
0.000613315
0.000600693
0.000588889
0.000577835
0.00056747
0.000557739
0.000548591
0.00053998
0.000531865
0.000524209
0.000516975
0.000510133
0.000503654
0.000497512
0.000491681
0.000486141
0.000480871
0.000475852
0.000471067
0.0004665
0.000462136
0.000457963
0.000453968
0.000450139
0.000446466
0.000442938
0.000439548
0.000436287
0.000433146
0.000430118
0.000427198
0.000424379
0.000421655
0.00041902
0.000416471
0.000414003
0.000411611
0.000409292
0.000407043
0.000404861
0.000402744
0.000400689
0.000398695
0.000396759
0.000394882
0.000393063
0.000391301
0.000389597
0.000387953
0.000386368
0.000384846
0.000383388
0.000381998
0.00038068
0.000379437
0.000378277
0.000377203
0.000376223
0.000375345
0.000374576
0.000373926
0.000373404
0.00037302
0.000372785
0.000372711
0.000372808
0.000373088
0.000373561
0.000374239
0.000375128
0.000376237
0.00037757
0.000379127
0.000380906
0.000382897
0.000385084
0.000387442
0.000389935
0.000392513
0.000395109
0.000397635
0.000399975
0.000401985
0.000403488
0.000404286
0.000977118
0.000936709
0.000899653
0.000865631
0.000834355
0.000805566
0.000779034
0.000754548
0.000731922
0.000710986
0.000691588
0.000673591
0.000656872
0.000641318
0.00062683
0.000613316
0.000600695
0.00058889
0.000577836
0.000567472
0.00055774
0.000548592
0.000539982
0.000531867
0.000524211
0.000516977
0.000510135
0.000503656
0.000497514
0.000491684
0.000486144
0.000480874
0.000475855
0.00047107
0.000466503
0.00046214
0.000457967
0.000453971
0.000450143
0.00044647
0.000442943
0.000439553
0.000436291
0.00043315
0.000430123
0.000427203
0.000424384
0.00042166
0.000419026
0.000416477
0.000414009
0.000411617
0.000409299
0.00040705
0.000404868
0.000402751
0.000400696
0.000398702
0.000396767
0.00039489
0.000393071
0.000391309
0.000389606
0.000387961
0.000386376
0.000384854
0.000383396
0.000382006
0.000380687
0.000379444
0.000378283
0.000377209
0.000376228
0.000375349
0.000374579
0.000373927
0.000373404
0.000373018
0.000372782
0.000372705
0.0003728
0.000373077
0.000373547
0.000374221
0.000375108
0.000376213
0.000377542
0.000379096
0.00038087
0.000382858
0.000385041
0.000387395
0.000389885
0.00039246
0.000395053
0.000397576
0.000399915
0.000401924
0.000403425
0.000404223
0.000977118
0.000936709
0.000899653
0.000865631
0.000834355
0.000805567
0.000779034
0.000754549
0.000731922
0.000710986
0.000691589
0.000673592
0.000656873
0.000641319
0.000626831
0.000613318
0.000600696
0.000588892
0.000577838
0.000567473
0.000557742
0.000548594
0.000539984
0.000531869
0.000524213
0.000516979
0.000510138
0.000503659
0.000497517
0.000491687
0.000486147
0.000480877
0.000475858
0.000471073
0.000466507
0.000462144
0.000457971
0.000453976
0.000450147
0.000446474
0.000442948
0.000439558
0.000436297
0.000433156
0.000430129
0.000427209
0.00042439
0.000421667
0.000419033
0.000416484
0.000414016
0.000411625
0.000409307
0.000407058
0.000404877
0.00040276
0.000400705
0.000398711
0.000396776
0.000394899
0.00039308
0.000391319
0.000389615
0.00038797
0.000386386
0.000384863
0.000383405
0.000382015
0.000380696
0.000379453
0.000378291
0.000377216
0.000376234
0.000375354
0.000374583
0.00037393
0.000373404
0.000373017
0.000372778
0.000372698
0.00037279
0.000373064
0.000373531
0.000374202
0.000375084
0.000376185
0.00037751
0.000379059
0.000380829
0.000382812
0.00038499
0.000387341
0.000389826
0.000392397
0.000394987
0.000397508
0.000399844
0.000401851
0.000403352
0.000404149
0.000977118
0.000936709
0.000899653
0.000865631
0.000834355
0.000805567
0.000779035
0.000754549
0.000731923
0.000710987
0.000691589
0.000673593
0.000656874
0.00064132
0.000626833
0.000613319
0.000600697
0.000588893
0.00057784
0.000567475
0.000557744
0.000548596
0.000539986
0.000531872
0.000524215
0.000516982
0.000510141
0.000503662
0.00049752
0.00049169
0.000486151
0.000480881
0.000475862
0.000471077
0.000466511
0.000462148
0.000457976
0.000453981
0.000450152
0.00044648
0.000442953
0.000439564
0.000436303
0.000433163
0.000430136
0.000427216
0.000424398
0.000421674
0.000419041
0.000416492
0.000414024
0.000411633
0.000409316
0.000407067
0.000404886
0.00040277
0.000400715
0.000398721
0.000396787
0.00039491
0.000393091
0.00039133
0.000389626
0.000387982
0.000386397
0.000384874
0.000383416
0.000382025
0.000380706
0.000379462
0.0003783
0.000377224
0.000376241
0.00037536
0.000374587
0.000373932
0.000373405
0.000373015
0.000372773
0.000372691
0.00037278
0.00037305
0.000373514
0.00037418
0.000375057
0.000376154
0.000377473
0.000379017
0.000380782
0.00038276
0.000384933
0.000387279
0.00038976
0.000392327
0.000394913
0.00039743
0.000399764
0.000401769
0.000403268
0.000404064
0.000977118
0.000936709
0.000899653
0.000865632
0.000834356
0.000805567
0.000779035
0.00075455
0.000731924
0.000710988
0.00069159
0.000673594
0.000656875
0.000641322
0.000626834
0.00061332
0.000600699
0.000588895
0.000577842
0.000567477
0.000557746
0.000548599
0.000539989
0.000531874
0.000524218
0.000516985
0.000510144
0.000503666
0.000497524
0.000491694
0.000486155
0.000480885
0.000475867
0.000471082
0.000466516
0.000462153
0.000457981
0.000453986
0.000450158
0.000446486
0.00044296
0.00043957
0.00043631
0.00043317
0.000430144
0.000427224
0.000424406
0.000421683
0.000419049
0.000416501
0.000414034
0.000411643
0.000409326
0.000407078
0.000404897
0.000402781
0.000400727
0.000398733
0.000396799
0.000394922
0.000393104
0.000391342
0.000389639
0.000387994
0.000386409
0.000384887
0.000383428
0.000382037
0.000380717
0.000379473
0.00037831
0.000377233
0.00037625
0.000375367
0.000374592
0.000373935
0.000373406
0.000373013
0.000372769
0.000372684
0.000372769
0.000373035
0.000373494
0.000374156
0.000375028
0.000376119
0.000377433
0.000378972
0.000380731
0.000382702
0.00038487
0.00038721
0.000389686
0.000392248
0.00039483
0.000397343
0.000399674
0.000401677
0.000403174
0.000403969
0.000977118
0.000936709
0.000899654
0.000865632
0.000834356
0.000805568
0.000779036
0.00075455
0.000731924
0.000710989
0.000691591
0.000673595
0.000656876
0.000641323
0.000626835
0.000613322
0.000600701
0.000588897
0.000577844
0.000567479
0.000557749
0.000548601
0.000539991
0.000531877
0.000524221
0.000516988
0.000510147
0.000503669
0.000497528
0.000491698
0.000486159
0.00048089
0.000475871
0.000471087
0.000466521
0.000462159
0.000457987
0.000453993
0.000450165
0.000446493
0.000442967
0.000439578
0.000436317
0.000433178
0.000430152
0.000427233
0.000424415
0.000421692
0.000419059
0.000416511
0.000414044
0.000411654
0.000409337
0.000407089
0.000404909
0.000402793
0.000400739
0.000398746
0.000396812
0.000394936
0.000393117
0.000391356
0.000389653
0.000388008
0.000386423
0.000384901
0.000383442
0.000382051
0.00038073
0.000379486
0.000378321
0.000377244
0.000376259
0.000375374
0.000374598
0.000373939
0.000373407
0.000373012
0.000372765
0.000372676
0.000372757
0.000373019
0.000373473
0.00037413
0.000374997
0.000376082
0.00037739
0.000378922
0.000380675
0.00038264
0.000384802
0.000387136
0.000389605
0.000392162
0.000394739
0.000397248
0.000399576
0.000401576
0.000403071
0.000403866
0.000977118
0.000936709
0.000899654
0.000865632
0.000834356
0.000805568
0.000779036
0.000754551
0.000731925
0.00071099
0.000691592
0.000673596
0.000656877
0.000641324
0.000626837
0.000613324
0.000600703
0.000588899
0.000577846
0.000567482
0.000557751
0.000548604
0.000539994
0.00053188
0.000524225
0.000516992
0.000510151
0.000503673
0.000497532
0.000491703
0.000486164
0.000480895
0.000475877
0.000471093
0.000466527
0.000462165
0.000457993
0.000453999
0.000450172
0.0004465
0.000442974
0.000439586
0.000436326
0.000433186
0.000430161
0.000427242
0.000424425
0.000421702
0.00041907
0.000416522
0.000414056
0.000411666
0.000409349
0.000407102
0.000404922
0.000402806
0.000400753
0.00039876
0.000396826
0.00039495
0.000393132
0.000391371
0.000389668
0.000388024
0.000386439
0.000384916
0.000383457
0.000382065
0.000380745
0.000379499
0.000378334
0.000377255
0.000376269
0.000375383
0.000374605
0.000373944
0.000373409
0.000373011
0.00037276
0.000372668
0.000372745
0.000373002
0.000373452
0.000374102
0.000374964
0.000376043
0.000377344
0.00037887
0.000380616
0.000382574
0.000384729
0.000387055
0.000389519
0.00039207
0.000394641
0.000397146
0.00039947
0.000401467
0.00040296
0.000403754
0.000977118
0.000936709
0.000899654
0.000865632
0.000834356
0.000805569
0.000779037
0.000754552
0.000731926
0.00071099
0.000691593
0.000673597
0.000656878
0.000641326
0.000626838
0.000613325
0.000600705
0.000588901
0.000577848
0.000567484
0.000557754
0.000548607
0.000539997
0.000531884
0.000524228
0.000516996
0.000510155
0.000503677
0.000497536
0.000491707
0.000486169
0.0004809
0.000475882
0.000471099
0.000466533
0.000462171
0.000458
0.000454006
0.000450179
0.000446508
0.000442983
0.000439594
0.000436335
0.000433196
0.000430171
0.000427253
0.000424435
0.000421713
0.000419081
0.000416534
0.000414068
0.000411679
0.000409362
0.000407116
0.000404936
0.000402821
0.000400768
0.000398775
0.000396842
0.000394966
0.000393148
0.000391388
0.000389685
0.00038804
0.000386455
0.000384932
0.000383473
0.000382081
0.00038076
0.000379514
0.000378348
0.000377268
0.00037628
0.000375393
0.000374613
0.000373949
0.000373412
0.000373011
0.000372756
0.00037266
0.000372732
0.000372985
0.000373429
0.000374074
0.000374929
0.000376001
0.000377296
0.000378814
0.000380553
0.000382503
0.000384651
0.000386971
0.000389427
0.000391972
0.000394537
0.000397037
0.000399357
0.000401351
0.000402842
0.000403635
0.000977118
0.000936709
0.000899654
0.000865632
0.000834357
0.000805569
0.000779037
0.000754552
0.000731927
0.000710991
0.000691594
0.000673598
0.00065688
0.000641327
0.00062684
0.000613327
0.000600707
0.000588903
0.000577851
0.000567487
0.000557757
0.00054861
0.000540001
0.000531887
0.000524232
0.000517
0.000510159
0.000503682
0.000497541
0.000491712
0.000486174
0.000480905
0.000475888
0.000471105
0.00046654
0.000462178
0.000458007
0.000454014
0.000450187
0.000446516
0.000442991
0.000439603
0.000436344
0.000433206
0.000430181
0.000427263
0.000424447
0.000421725
0.000419093
0.000416547
0.000414081
0.000411692
0.000409376
0.00040713
0.000404951
0.000402836
0.000400784
0.000398791
0.000396858
0.000394983
0.000393166
0.000391405
0.000389702
0.000388058
0.000386473
0.00038495
0.000383491
0.000382098
0.000380777
0.00037953
0.000378363
0.000377282
0.000376293
0.000375403
0.000374621
0.000373955
0.000373415
0.000373011
0.000372753
0.000372652
0.00037272
0.000372967
0.000373405
0.000374044
0.000374893
0.000375958
0.000377245
0.000378756
0.000380487
0.00038243
0.000384569
0.000386881
0.000389331
0.000391868
0.000394428
0.000396922
0.000399237
0.000401228
0.000402717
0.000403508
0.000977118
0.000936709
0.000899654
0.000865633
0.000834357
0.000805569
0.000779038
0.000754553
0.000731927
0.000710992
0.000691595
0.000673599
0.000656881
0.000641329
0.000626842
0.000613329
0.000600709
0.000588906
0.000577853
0.000567489
0.00055776
0.000548613
0.000540004
0.000531891
0.000524236
0.000517004
0.000510164
0.000503687
0.000497546
0.000491718
0.00048618
0.000480911
0.000475894
0.000471111
0.000466547
0.000462186
0.000458015
0.000454022
0.000450196
0.000446525
0.000443
0.000439613
0.000436354
0.000433216
0.000430192
0.000427275
0.000424458
0.000421737
0.000419106
0.00041656
0.000414095
0.000411706
0.000409391
0.000407145
0.000404967
0.000402852
0.0004008
0.000398809
0.000396876
0.000395001
0.000393184
0.000391424
0.000389721
0.000388077
0.000386492
0.000384969
0.000383509
0.000382117
0.000380794
0.000379547
0.000378379
0.000377297
0.000376306
0.000375415
0.000374631
0.000373962
0.000373419
0.000373011
0.000372749
0.000372644
0.000372707
0.000372949
0.000373381
0.000374014
0.000374855
0.000375914
0.000377193
0.000378696
0.000380418
0.000382353
0.000384484
0.000386788
0.00038923
0.00039176
0.000394314
0.000396802
0.000399112
0.000401099
0.000402586
0.000403376
0.000977118
0.000936709
0.000899654
0.000865633
0.000834357
0.00080557
0.000779038
0.000754553
0.000731928
0.000710993
0.000691596
0.000673601
0.000656883
0.00064133
0.000626844
0.000613331
0.000600711
0.000588908
0.000577856
0.000567492
0.000557763
0.000548616
0.000540008
0.000531895
0.00052424
0.000517008
0.000510168
0.000503692
0.000497551
0.000491723
0.000486185
0.000480918
0.000475901
0.000471118
0.000466554
0.000462193
0.000458023
0.00045403
0.000450204
0.000446534
0.00044301
0.000439623
0.000436365
0.000433227
0.000430203
0.000427287
0.000424471
0.00042175
0.000419119
0.000416574
0.000414109
0.000411721
0.000409406
0.000407161
0.000404983
0.000402869
0.000400818
0.000398827
0.000396894
0.00039502
0.000393203
0.000391443
0.000389741
0.000388097
0.000386512
0.000384989
0.000383529
0.000382136
0.000380813
0.000379565
0.000378396
0.000377312
0.00037632
0.000375427
0.000374641
0.00037397
0.000373424
0.000373012
0.000372746
0.000372637
0.000372694
0.000372931
0.000373357
0.000373983
0.000374817
0.000375868
0.00037714
0.000378634
0.000380348
0.000382274
0.000384397
0.000386692
0.000389126
0.000391649
0.000394195
0.000396677
0.000398983
0.000400965
0.000402449
0.000403239
0.000977118
0.000936709
0.000899654
0.000865633
0.000834358
0.00080557
0.000779038
0.000754554
0.000731929
0.000710994
0.000691597
0.000673602
0.000656884
0.000641332
0.000626845
0.000613333
0.000600713
0.00058891
0.000577858
0.000567495
0.000557766
0.00054862
0.000540011
0.000531899
0.000524244
0.000517013
0.000510173
0.000503697
0.000497557
0.000491729
0.000486191
0.000480924
0.000475908
0.000471125
0.000466561
0.000462201
0.000458031
0.000454039
0.000450213
0.000446544
0.00044302
0.000439633
0.000436376
0.000433239
0.000430215
0.000427299
0.000424484
0.000421764
0.000419133
0.000416589
0.000414124
0.000411737
0.000409423
0.000407178
0.000405
0.000402887
0.000400836
0.000398845
0.000396914
0.00039504
0.000393223
0.000391464
0.000389762
0.000388118
0.000386533
0.00038501
0.00038355
0.000382156
0.000380833
0.000379584
0.000378414
0.000377329
0.000376335
0.00037544
0.000374652
0.000373978
0.000373429
0.000373014
0.000372744
0.000372629
0.000372682
0.000372913
0.000373333
0.000373952
0.000374779
0.000375822
0.000377085
0.00037857
0.000380276
0.000382193
0.000384307
0.000386594
0.000389019
0.000391534
0.000394072
0.000396548
0.000398848
0.000400827
0.000402309
0.000403097
0.000977118
0.00093671
0.000899655
0.000865633
0.000834358
0.000805571
0.000779039
0.000754555
0.000731929
0.000710995
0.000691598
0.000673603
0.000656885
0.000641334
0.000626847
0.000613335
0.000600715
0.000588913
0.000577861
0.000567498
0.000557769
0.000548623
0.000540015
0.000531903
0.000524248
0.000517017
0.000510178
0.000503702
0.000497562
0.000491735
0.000486198
0.00048093
0.000475914
0.000471133
0.000466569
0.000462209
0.00045804
0.000454048
0.000450223
0.000446553
0.00044303
0.000439644
0.000436387
0.00043325
0.000430227
0.000427312
0.000424497
0.000421777
0.000419148
0.000416604
0.00041414
0.000411753
0.000409439
0.000407195
0.000405018
0.000402906
0.000400855
0.000398865
0.000396934
0.00039506
0.000393244
0.000391485
0.000389783
0.000388139
0.000386555
0.000385031
0.000383571
0.000382177
0.000380853
0.000379604
0.000378433
0.000377347
0.000376351
0.000375454
0.000374663
0.000373987
0.000373434
0.000373016
0.000372741
0.000372622
0.00037267
0.000372895
0.000373308
0.00037392
0.00037474
0.000375775
0.000377029
0.000378506
0.000380202
0.00038211
0.000384215
0.000386493
0.000388909
0.000391416
0.000393947
0.000396416
0.000398711
0.000400685
0.000402164
0.000402951
0.000977118
0.00093671
0.000899655
0.000865633
0.000834358
0.000805571
0.000779039
0.000754555
0.00073193
0.000710996
0.000691599
0.000673604
0.000656887
0.000641335
0.000626849
0.000613337
0.000600717
0.000588915
0.000577863
0.000567501
0.000557772
0.000548626
0.000540019
0.000531907
0.000524252
0.000517022
0.000510183
0.000503707
0.000497568
0.000491741
0.000486204
0.000480937
0.000475921
0.00047114
0.000466577
0.000462217
0.000458048
0.000454057
0.000450232
0.000446563
0.000443041
0.000439655
0.000436398
0.000433262
0.00043024
0.000427325
0.000424511
0.000421792
0.000419163
0.000416619
0.000414156
0.00041177
0.000409457
0.000407213
0.000405037
0.000402925
0.000400875
0.000398885
0.000396954
0.000395081
0.000393265
0.000391507
0.000389805
0.000388162
0.000386577
0.000385054
0.000383593
0.000382199
0.000380875
0.000379624
0.000378452
0.000377365
0.000376368
0.000375469
0.000374675
0.000373996
0.000373441
0.000373018
0.00037274
0.000372616
0.000372658
0.000372877
0.000373284
0.000373889
0.000374701
0.000375727
0.000376973
0.000378441
0.000380128
0.000382027
0.000384122
0.00038639
0.000388798
0.000391296
0.000393819
0.000396282
0.00039857
0.000400541
0.000402016
0.000402802
0.000977118
0.00093671
0.000899655
0.000865633
0.000834358
0.000805571
0.00077904
0.000754556
0.000731931
0.000710996
0.0006916
0.000673605
0.000656888
0.000641337
0.000626851
0.000613339
0.000600719
0.000588918
0.000577866
0.000567504
0.000557775
0.00054863
0.000540022
0.000531911
0.000524257
0.000517026
0.000510188
0.000503712
0.000497573
0.000491747
0.00048621
0.000480944
0.000475929
0.000471148
0.000466585
0.000462226
0.000458057
0.000454066
0.000450242
0.000446574
0.000443052
0.000439666
0.00043641
0.000433275
0.000430253
0.000427338
0.000424525
0.000421806
0.000419178
0.000416635
0.000414172
0.000411787
0.000409474
0.000407231
0.000405056
0.000402944
0.000400895
0.000398905
0.000396975
0.000395103
0.000393287
0.000391529
0.000389828
0.000388184
0.0003866
0.000385077
0.000383616
0.000382222
0.000380897
0.000379645
0.000378472
0.000377384
0.000376385
0.000375484
0.000374688
0.000374006
0.000373447
0.000373021
0.000372738
0.00037261
0.000372646
0.000372859
0.00037326
0.000373857
0.000374661
0.00037568
0.000376917
0.000378376
0.000380053
0.000381942
0.000384028
0.000386287
0.000388685
0.000391174
0.00039369
0.000396145
0.000398428
0.000400393
0.000401866
0.00040265
0.000977118
0.00093671
0.000899655
0.000865634
0.000834359
0.000805572
0.00077904
0.000754556
0.000731932
0.000710997
0.000691601
0.000673607
0.000656889
0.000641338
0.000626852
0.000613341
0.000600722
0.00058892
0.000577869
0.000567507
0.000557778
0.000548633
0.000540026
0.000531915
0.000524261
0.000517031
0.000510193
0.000503718
0.000497579
0.000491753
0.000486217
0.000480951
0.000475936
0.000471155
0.000466593
0.000462234
0.000458066
0.000454076
0.000450252
0.000446584
0.000443062
0.000439678
0.000436422
0.000433287
0.000430266
0.000427352
0.000424539
0.000421821
0.000419193
0.000416651
0.000414189
0.000411804
0.000409492
0.00040725
0.000405075
0.000402964
0.000400915
0.000398926
0.000396997
0.000395125
0.00039331
0.000391552
0.000389851
0.000388208
0.000386624
0.0003851
0.00038364
0.000382245
0.000380919
0.000379667
0.000378493
0.000377403
0.000376403
0.0003755
0.000374702
0.000374017
0.000373455
0.000373025
0.000372738
0.000372604
0.000372635
0.000372842
0.000373236
0.000373826
0.000374622
0.000375632
0.000376861
0.00037831
0.000379978
0.000381857
0.000383933
0.000386182
0.000388571
0.000391051
0.000393559
0.000396007
0.000398284
0.000400245
0.000401714
0.000402497
0.000977118
0.00093671
0.000899655
0.000865634
0.000834359
0.000805572
0.000779041
0.000754557
0.000731932
0.000710998
0.000691602
0.000673608
0.000656891
0.00064134
0.000626854
0.000613343
0.000600724
0.000588922
0.000577871
0.00056751
0.000557782
0.000548637
0.00054003
0.000531919
0.000524265
0.000517036
0.000510198
0.000503723
0.000497585
0.000491759
0.000486223
0.000480957
0.000475943
0.000471163
0.000466601
0.000462243
0.000458075
0.000454085
0.000450262
0.000446595
0.000443073
0.000439689
0.000436434
0.0004333
0.000430279
0.000427366
0.000424553
0.000421836
0.000419209
0.000416667
0.000414206
0.000411822
0.00040951
0.000407269
0.000405094
0.000402984
0.000400936
0.000398948
0.000397019
0.000395147
0.000393333
0.000391575
0.000389875
0.000388232
0.000386648
0.000385124
0.000383663
0.000382268
0.000380942
0.000379689
0.000378514
0.000377423
0.000376421
0.000375516
0.000374716
0.000374028
0.000373463
0.000373029
0.000372737
0.000372599
0.000372625
0.000372825
0.000373212
0.000373795
0.000374584
0.000375585
0.000376805
0.000378245
0.000379903
0.000381772
0.000383838
0.000386077
0.000388457
0.000390928
0.000393427
0.000395868
0.000398139
0.000400095
0.000401561
0.000402342
0.000977118
0.00093671
0.000899655
0.000865634
0.000834359
0.000805572
0.000779041
0.000754557
0.000731933
0.000710999
0.000691603
0.000673609
0.000656892
0.000641341
0.000626856
0.000613345
0.000600726
0.000588925
0.000577874
0.000567512
0.000557785
0.00054864
0.000540033
0.000531923
0.00052427
0.00051704
0.000510203
0.000503728
0.00049759
0.000491765
0.00048623
0.000480964
0.00047595
0.000471171
0.000466609
0.000462251
0.000458084
0.000454095
0.000450272
0.000446605
0.000443085
0.000439701
0.000436446
0.000433313
0.000430293
0.00042738
0.000424568
0.000421851
0.000419225
0.000416684
0.000414223
0.000411839
0.000409529
0.000407288
0.000405114
0.000403004
0.000400957
0.000398969
0.000397041
0.00039517
0.000393356
0.000391599
0.000389898
0.000388256
0.000386672
0.000385148
0.000383687
0.000382292
0.000380966
0.000379712
0.000378536
0.000377443
0.00037644
0.000375533
0.00037473
0.00037404
0.000373471
0.000373033
0.000372738
0.000372594
0.000372614
0.000372809
0.000373189
0.000373765
0.000374546
0.000375538
0.000376749
0.00037818
0.000379828
0.000381688
0.000383743
0.000385973
0.000388343
0.000390805
0.000393296
0.000395729
0.000397993
0.000399944
0.000401408
0.000402187
0.000977118
0.00093671
0.000899655
0.000865634
0.000834359
0.000805572
0.000779042
0.000754558
0.000731933
0.000711
0.000691604
0.00067361
0.000656893
0.000641343
0.000626857
0.000613347
0.000600728
0.000588927
0.000577877
0.000567515
0.000557788
0.000548644
0.000540037
0.000531927
0.000524274
0.000517045
0.000510208
0.000503734
0.000497596
0.000491771
0.000486236
0.000480971
0.000475958
0.000471178
0.000466617
0.00046226
0.000458093
0.000454104
0.000450282
0.000446616
0.000443096
0.000439713
0.000436459
0.000433325
0.000430306
0.000427394
0.000424582
0.000421867
0.000419241
0.0004167
0.00041424
0.000411857
0.000409547
0.000407307
0.000405134
0.000403025
0.000400978
0.000398991
0.000397063
0.000395193
0.000393379
0.000391622
0.000389923
0.00038828
0.000386696
0.000385173
0.000383712
0.000382316
0.000380989
0.000379735
0.000378558
0.000377464
0.000376459
0.00037555
0.000374745
0.000374052
0.00037348
0.000373038
0.000372738
0.00037259
0.000372605
0.000372793
0.000373167
0.000373735
0.000374508
0.000375492
0.000376694
0.000378115
0.000379754
0.000381603
0.000383649
0.000385869
0.000388229
0.000390682
0.000393164
0.00039559
0.000397848
0.000399794
0.000401254
0.000402032
0.000977118
0.00093671
0.000899655
0.000865634
0.00083436
0.000805573
0.000779042
0.000754558
0.000731934
0.000711
0.000691605
0.000673611
0.000656894
0.000641344
0.000626859
0.000613348
0.00060073
0.000588929
0.000577879
0.000567518
0.000557791
0.000548647
0.000540041
0.000531931
0.000524278
0.00051705
0.000510213
0.000503739
0.000497602
0.000491777
0.000486243
0.000480978
0.000475965
0.000471186
0.000466625
0.000462269
0.000458102
0.000454114
0.000450292
0.000446626
0.000443107
0.000439724
0.000436471
0.000433338
0.000430319
0.000427408
0.000424597
0.000421882
0.000419257
0.000416717
0.000414257
0.000411875
0.000409566
0.000407326
0.000405154
0.000403045
0.000400999
0.000399013
0.000397085
0.000395215
0.000393403
0.000391646
0.000389947
0.000388305
0.000386721
0.000385198
0.000383736
0.00038234
0.000381013
0.000379758
0.00037858
0.000377485
0.000376478
0.000375568
0.00037476
0.000374064
0.000373489
0.000373044
0.000372739
0.000372586
0.000372596
0.000372778
0.000373145
0.000373706
0.000374471
0.000375447
0.00037664
0.000378052
0.000379681
0.00038152
0.000383556
0.000385766
0.000388116
0.00039056
0.000393034
0.000395452
0.000397704
0.000399645
0.000401101
0.000401878
0.000977118
0.00093671
0.000899655
0.000865634
0.00083436
0.000805573
0.000779042
0.000754559
0.000731935
0.000711001
0.000691606
0.000673612
0.000656896
0.000641345
0.00062686
0.00061335
0.000600732
0.000588932
0.000577882
0.000567521
0.000557794
0.00054865
0.000540044
0.000531934
0.000524283
0.000517054
0.000510218
0.000503744
0.000497607
0.000491783
0.000486249
0.000480985
0.000475972
0.000471194
0.000466633
0.000462277
0.000458111
0.000454123
0.000450302
0.000446637
0.000443118
0.000439736
0.000436483
0.000433351
0.000430333
0.000427422
0.000424612
0.000421897
0.000419272
0.000416733
0.000414274
0.000411893
0.000409584
0.000407345
0.000405173
0.000403066
0.00040102
0.000399034
0.000397108
0.000395238
0.000393426
0.00039167
0.000389971
0.000388329
0.000386746
0.000385222
0.000383761