/*--------------------------------*- C++ -*----------------------------------*\
  =========                 |
  \\      /  F ield         | OpenFOAM: The Open Source CFD Toolbox
   \\    /   O peration     | Website:  https://openfoam.org
    \\  /    A nd           | Version:  11
     \\/     M anipulation  |
\*---------------------------------------------------------------------------*/
FoamFile
{
    format      ascii;
    class       surfaceScalarField;
    location    "992";
    object      phi;
}
// * * * * * * * * * * * * * * * * * * * * * * * * * * * * * * * * * * * * * //

dimensions      [0 3 -1 0 0 0 0];

internalField   nonuniform List<scalar> 
19800
(
2e-05
-2.65198e-12
2e-05
-7.23787e-12
2e-05
-1.13979e-11
2e-05
-1.53965e-11
2e-05
-1.93517e-11
2e-05
-2.33247e-11
2e-05
-2.73618e-11
2e-05
-3.15011e-11
2e-05
-3.57748e-11
2e-05
-4.02124e-11
2e-05
-4.48411e-11
2e-05
-4.96874e-11
2e-05
-5.47774e-11
2e-05
-6.01372e-11
2e-05
-6.57937e-11
2e-05
-7.17742e-11
1.99999e-05
-7.81076e-11
1.99999e-05
-8.48239e-11
1.99999e-05
-9.19548e-11
1.99999e-05
-9.95339e-11
1.99999e-05
-1.07597e-10
1.99999e-05
-1.16181e-10
1.99999e-05
-1.25328e-10
1.99999e-05
-1.3508e-10
1.99999e-05
-1.45483e-10
1.99999e-05
-1.56587e-10
1.99998e-05
-1.68443e-10
1.99998e-05
-1.81109e-10
1.99998e-05
-1.94643e-10
1.99998e-05
-2.0911e-10
1.99998e-05
-2.24578e-10
1.99998e-05
-2.41121e-10
1.99997e-05
-2.58816e-10
1.99997e-05
-2.77745e-10
1.99997e-05
-2.97998e-10
1.99997e-05
-3.19669e-10
1.99996e-05
-3.42857e-10
1.99996e-05
-3.67669e-10
1.99996e-05
-3.94218e-10
1.99996e-05
-4.22625e-10
1.99995e-05
-4.53017e-10
1.99995e-05
-4.85529e-10
1.99994e-05
-5.20304e-10
1.99994e-05
-5.57494e-10
1.99994e-05
-5.97259e-10
1.99993e-05
-6.39768e-10
1.99993e-05
-6.85202e-10
1.99992e-05
-7.33747e-10
1.99992e-05
-7.85603e-10
1.99991e-05
-8.40978e-10
1.9999e-05
-9.00095e-10
1.9999e-05
-9.63183e-10
1.99989e-05
-1.03048e-09
1.99988e-05
-1.10226e-09
1.99987e-05
-1.17876e-09
1.99987e-05
-1.26028e-09
1.99986e-05
-1.34711e-09
1.99985e-05
-1.43955e-09
1.99984e-05
-1.53791e-09
1.99983e-05
-1.64253e-09
1.99982e-05
-1.75375e-09
1.99981e-05
-1.87192e-09
1.99979e-05
-1.99741e-09
1.99978e-05
-2.13059e-09
1.99977e-05
-2.27187e-09
1.99976e-05
-2.42164e-09
1.99974e-05
-2.5803e-09
1.99973e-05
-2.74829e-09
1.99971e-05
-2.92602e-09
1.99969e-05
-3.11392e-09
1.99968e-05
-3.31242e-09
1.99966e-05
-3.52197e-09
1.99964e-05
-3.74297e-09
1.99962e-05
-3.97585e-09
1.9996e-05
-4.221e-09
1.99958e-05
-4.4788e-09
1.99956e-05
-4.7496e-09
1.99954e-05
-5.03369e-09
1.99952e-05
-5.33132e-09
1.99949e-05
-5.64266e-09
1.99947e-05
-5.96779e-09
1.99945e-05
-6.30665e-09
1.99942e-05
-6.65908e-09
1.9994e-05
-7.02469e-09
1.99937e-05
-7.40288e-09
1.99935e-05
-7.79278e-09
1.99932e-05
-8.19316e-09
1.99929e-05
-8.60236e-09
1.99927e-05
-9.01824e-09
1.99924e-05
-9.43802e-09
1.99922e-05
-9.85819e-09
1.99919e-05
-1.02744e-08
1.99917e-05
-1.06811e-08
1.99914e-05
-1.10719e-08
1.99912e-05
-1.14387e-08
1.9991e-05
-1.17724e-08
1.99909e-05
-1.20623e-08
1.99907e-05
-1.22964e-08
1.99906e-05
-1.24636e-08
-1.25611e-08
2e-05
-2.22151e-12
2e-05
-6.33156e-12
2e-05
-1.01858e-11
2e-05
-1.39252e-11
2e-05
-1.76273e-11
2e-05
-2.13417e-11
2e-05
-2.51087e-11
2e-05
-2.89627e-11
2e-05
-3.29339e-11
2e-05
-3.70494e-11
2e-05
-4.13349e-11
2e-05
-4.5815e-11
2e-05
-5.05139e-11
2e-05
-5.54563e-11
2e-05
-6.06668e-11
2e-05
-6.61713e-11
1.99999e-05
-7.19965e-11
1.99999e-05
-7.81705e-11
1.99999e-05
-8.47228e-11
1.99999e-05
-9.1685e-11
1.99999e-05
-9.90904e-11
1.99999e-05
-1.06974e-10
1.99999e-05
-1.15375e-10
1.99999e-05
-1.24333e-10
1.99999e-05
-1.33892e-10
1.99999e-05
-1.44097e-10
1.99999e-05
-1.54999e-10
1.99998e-05
-1.6665e-10
1.99998e-05
-1.79109e-10
1.99998e-05
-1.92434e-10
1.99998e-05
-2.06691e-10
1.99998e-05
-2.21951e-10
1.99997e-05
-2.38286e-10
1.99997e-05
-2.55776e-10
1.99997e-05
-2.74506e-10
1.99997e-05
-2.94566e-10
1.99996e-05
-3.16052e-10
1.99996e-05
-3.39067e-10
1.99996e-05
-3.63719e-10
1.99996e-05
-3.90123e-10
1.99995e-05
-4.18404e-10
1.99995e-05
-4.48692e-10
1.99994e-05
-4.81125e-10
1.99994e-05
-5.1585e-10
1.99994e-05
-5.53024e-10
1.99993e-05
-5.92809e-10
1.99993e-05
-6.35382e-10
1.99992e-05
-6.80925e-10
1.99992e-05
-7.29632e-10
1.99991e-05
-7.81709e-10
1.9999e-05
-8.37372e-10
1.9999e-05
-8.96846e-10
1.99989e-05
-9.6037e-10
1.99988e-05
-1.0282e-09
1.99987e-05
-1.10059e-09
1.99987e-05
-1.17782e-09
1.99986e-05
-1.26017e-09
1.99985e-05
-1.34796e-09
1.99984e-05
-1.44149e-09
1.99983e-05
-1.5411e-09
1.99982e-05
-1.64711e-09
1.99981e-05
-1.7599e-09
1.99979e-05
-1.87983e-09
1.99978e-05
-2.00727e-09
1.99977e-05
-2.14263e-09
1.99976e-05
-2.2863e-09
1.99974e-05
-2.43871e-09
1.99973e-05
-2.60029e-09
1.99971e-05
-2.77147e-09
1.9997e-05
-2.95269e-09
1.99968e-05
-3.1444e-09
1.99966e-05
-3.34706e-09
1.99964e-05
-3.5611e-09
1.99962e-05
-3.78698e-09
1.9996e-05
-4.02512e-09
1.99958e-05
-4.27594e-09
1.99956e-05
-4.53983e-09
1.99954e-05
-4.81713e-09
1.99952e-05
-5.10814e-09
1.9995e-05
-5.4131e-09
1.99947e-05
-5.73216e-09
1.99945e-05
-6.06537e-09
1.99942e-05
-6.41262e-09
1.9994e-05
-6.77367e-09
1.99937e-05
-7.14802e-09
1.99935e-05
-7.53493e-09
1.99932e-05
-7.93334e-09
1.9993e-05
-8.34177e-09
1.99927e-05
-8.75826e-09
1.99924e-05
-9.18025e-09
1.99922e-05
-9.60447e-09
1.99919e-05
-1.00268e-08
1.99917e-05
-1.04421e-08
1.99915e-05
-1.08441e-08
1.99913e-05
-1.12253e-08
1.99911e-05
-1.15766e-08
1.99909e-05
-1.18875e-08
1.99907e-05
-1.21458e-08
1.99906e-05
-1.23392e-08
-1.24613e-08
2e-05
-1.89739e-12
2e-05
-5.52947e-12
2e-05
-9.03424e-12
2e-05
-1.24862e-11
2e-05
-1.59217e-11
2e-05
-1.93717e-11
2e-05
-2.28672e-11
2e-05
-2.6437e-11
2e-05
-3.01078e-11
2e-05
-3.39042e-11
2e-05
-3.78498e-11
2e-05
-4.19673e-11
2e-05
-4.62793e-11
2e-05
-5.08083e-11
2e-05
-5.55775e-11
2e-05
-6.06107e-11
1.99999e-05
-6.59327e-11
1.99999e-05
-7.15697e-11
1.99999e-05
-7.75492e-11
1.99999e-05
-8.39005e-11
1.99999e-05
-9.06546e-11
1.99999e-05
-9.78448e-11
1.99999e-05
-1.05507e-10
1.99999e-05
-1.13678e-10
1.99999e-05
-1.224e-10
1.99999e-05
-1.31716e-10
1.99999e-05
-1.41672e-10
1.99998e-05
-1.52319e-10
1.99998e-05
-1.63711e-10
1.99998e-05
-1.75905e-10
1.99998e-05
-1.88963e-10
1.99998e-05
-2.02951e-10
1.99997e-05
-2.17939e-10
1.99997e-05
-2.34004e-10
1.99997e-05
-2.51225e-10
1.99997e-05
-2.6969e-10
1.99997e-05
-2.8949e-10
1.99996e-05
-3.10723e-10
1.99996e-05
-3.33494e-10
1.99996e-05
-3.57915e-10
1.99995e-05
-3.84105e-10
1.99995e-05
-4.12188e-10
1.99995e-05
-4.423e-10
1.99994e-05
-4.74583e-10
1.99994e-05
-5.09188e-10
1.99993e-05
-5.46274e-10
1.99993e-05
-5.86011e-10
1.99992e-05
-6.28579e-10
1.99992e-05
-6.74166e-10
1.99991e-05
-7.22973e-10
1.9999e-05
-7.75211e-10
1.9999e-05
-8.31103e-10
1.99989e-05
-8.90883e-10
1.99988e-05
-9.54797e-10
1.99988e-05
-1.02311e-09
1.99987e-05
-1.09608e-09
1.99986e-05
-1.17401e-09
1.99985e-05
-1.25718e-09
1.99984e-05
-1.34592e-09
1.99983e-05
-1.44055e-09
1.99982e-05
-1.54141e-09
1.99981e-05
-1.64886e-09
1.9998e-05
-1.76326e-09
1.99978e-05
-1.885e-09
1.99977e-05
-2.01449e-09
1.99976e-05
-2.15212e-09
1.99974e-05
-2.29832e-09
1.99973e-05
-2.45353e-09
1.99971e-05
-2.6182e-09
1.9997e-05
-2.79278e-09
1.99968e-05
-2.97774e-09
1.99966e-05
-3.17355e-09
1.99965e-05
-3.38068e-09
1.99963e-05
-3.59959e-09
1.99961e-05
-3.83076e-09
1.99959e-05
-4.07462e-09
1.99957e-05
-4.33161e-09
1.99955e-05
-4.60213e-09
1.99952e-05
-4.88653e-09
1.9995e-05
-5.18511e-09
1.99948e-05
-5.49808e-09
1.99945e-05
-5.82559e-09
1.99943e-05
-6.16762e-09
1.9994e-05
-6.52401e-09
1.99938e-05
-6.89441e-09
1.99935e-05
-7.2782e-09
1.99933e-05
-7.67446e-09
1.9993e-05
-8.08188e-09
1.99927e-05
-8.49869e-09
1.99925e-05
-8.92251e-09
1.99922e-05
-9.3503e-09
1.9992e-05
-9.77818e-09
1.99917e-05
-1.02012e-08
1.99915e-05
-1.06134e-08
1.99913e-05
-1.10074e-08
1.99911e-05
-1.1374e-08
1.99909e-05
-1.17026e-08
1.99907e-05
-1.19802e-08
1.99906e-05
-1.21922e-08
-1.23268e-08
2e-05
-1.63632e-12
2e-05
-4.82378e-12
2e-05
-7.9648e-12
2e-05
-1.11072e-11
2e-05
-1.42597e-11
2e-05
-1.74355e-11
2e-05
-2.06545e-11
2e-05
-2.39385e-11
2e-05
-2.73096e-11
2e-05
-3.07892e-11
2e-05
-3.43982e-11
2e-05
-3.81574e-11
2e-05
-4.20871e-11
2e-05
-4.62082e-11
2e-05
-5.05418e-11
2e-05
-5.511e-11
1.99999e-05
-5.99357e-11
1.99999e-05
-6.50429e-11
1.99999e-05
-7.04573e-11
1.99999e-05
-7.62058e-11
1.99999e-05
-8.23175e-11
1.99999e-05
-8.88233e-11
1.99999e-05
-9.57562e-11
1.99999e-05
-1.03152e-10
1.99999e-05
-1.11048e-10
1.99999e-05
-1.19486e-10
1.99999e-05
-1.2851e-10
1.99998e-05
-1.38166e-10
1.99998e-05
-1.48506e-10
1.99998e-05
-1.59584e-10
1.99998e-05
-1.71458e-10
1.99998e-05
-1.84192e-10
1.99998e-05
-1.97851e-10
1.99997e-05
-2.12508e-10
1.99997e-05
-2.28241e-10
1.99997e-05
-2.45131e-10
1.99997e-05
-2.63267e-10
1.99996e-05
-2.82742e-10
1.99996e-05
-3.03658e-10
1.99996e-05
-3.26121e-10
1.99995e-05
-3.50246e-10
1.99995e-05
-3.76154e-10
1.99995e-05
-4.03976e-10
1.99994e-05
-4.33847e-10
1.99994e-05
-4.65916e-10
1.99993e-05
-5.00338e-10
1.99993e-05
-5.37276e-10
1.99992e-05
-5.76906e-10
1.99992e-05
-6.19412e-10
1.99991e-05
-6.6499e-10
1.99991e-05
-7.13847e-10
1.9999e-05
-7.66201e-10
1.99989e-05
-8.22283e-10
1.99988e-05
-8.82334e-10
1.99988e-05
-9.4661e-10
1.99987e-05
-1.01538e-09
1.99986e-05
-1.08893e-09
1.99985e-05
-1.16755e-09
1.99984e-05
-1.25155e-09
1.99983e-05
-1.34126e-09
1.99982e-05
-1.43703e-09
1.99981e-05
-1.5392e-09
1.9998e-05
-1.64814e-09
1.99979e-05
-1.76425e-09
1.99977e-05
-1.88792e-09
1.99976e-05
-2.01956e-09
1.99975e-05
-2.15962e-09
1.99973e-05
-2.30854e-09
1.99972e-05
-2.46676e-09
1.9997e-05
-2.63477e-09
1.99969e-05
-2.81304e-09
1.99967e-05
-3.00206e-09
1.99965e-05
-3.20232e-09
1.99963e-05
-3.41432e-09
1.99961e-05
-3.63856e-09
1.99959e-05
-3.8755e-09
1.99957e-05
-4.12563e-09
1.99955e-05
-4.38939e-09
1.99953e-05
-4.66718e-09
1.99951e-05
-4.95936e-09
1.99948e-05
-5.26623e-09
1.99946e-05
-5.58798e-09
1.99944e-05
-5.92471e-09
1.99941e-05
-6.27634e-09
1.99939e-05
-6.64264e-09
1.99936e-05
-7.02312e-09
1.99933e-05
-7.41698e-09
1.99931e-05
-7.82307e-09
1.99928e-05
-8.23978e-09
1.99926e-05
-8.66491e-09
1.99923e-05
-9.09562e-09
1.99921e-05
-9.52817e-09
1.99918e-05
-9.95787e-09
1.99916e-05
-1.03788e-08
1.99914e-05
-1.07835e-08
1.99911e-05
-1.1163e-08
1.9991e-05
-1.15059e-08
1.99908e-05
-1.17982e-08
1.99906e-05
-1.20228e-08
-1.21593e-08
2e-05
-1.41497e-12
2e-05
-4.19688e-12
2e-05
-6.97872e-12
2e-05
-9.80171e-12
2e-05
-1.26595e-11
2e-05
-1.55517e-11
2e-05
-1.84882e-11
2e-05
-2.14835e-11
2e-05
-2.45545e-11
2e-05
-2.77188e-11
2e-05
-3.09944e-11
2e-05
-3.43994e-11
2e-05
-3.79521e-11
2e-05
-4.16713e-11
2e-05
-4.55763e-11
2e-05
-4.96871e-11
2e-05
-5.40246e-11
1.99999e-05
-5.8611e-11
1.99999e-05
-6.34698e-11
1.99999e-05
-6.86259e-11
1.99999e-05
-7.41062e-11
1.99999e-05
-7.99391e-11
1.99999e-05
-8.61556e-11
1.99999e-05
-9.27886e-11
1.99999e-05
-9.98736e-11
1.99999e-05
-1.07449e-10
1.99999e-05
-1.15556e-10
1.99998e-05
-1.24238e-10
1.99998e-05
-1.33544e-10
1.99998e-05
-1.43525e-10
1.99998e-05
-1.54236e-10
1.99998e-05
-1.65736e-10
1.99998e-05
-1.78089e-10
1.99997e-05
-1.91364e-10
1.99997e-05
-2.05633e-10
1.99997e-05
-2.20975e-10
1.99997e-05
-2.37475e-10
1.99996e-05
-2.55222e-10
1.99996e-05
-2.74313e-10
1.99996e-05
-2.94851e-10
1.99995e-05
-3.16947e-10
1.99995e-05
-3.40716e-10
1.99995e-05
-3.66285e-10
1.99994e-05
-3.93786e-10
1.99994e-05
-4.23361e-10
1.99993e-05
-4.55161e-10
1.99993e-05
-4.89346e-10
1.99992e-05
-5.26087e-10
1.99992e-05
-5.65562e-10
1.99991e-05
-6.07964e-10
1.99991e-05
-6.53495e-10
1.9999e-05
-7.02368e-10
1.99989e-05
-7.54809e-10
1.99989e-05
-8.11058e-10
1.99988e-05
-8.71366e-10
1.99987e-05
-9.35998e-10
1.99986e-05
-1.00523e-09
1.99985e-05
-1.07937e-09
1.99984e-05
-1.15871e-09
1.99984e-05
-1.24358e-09
1.99982e-05
-1.33432e-09
1.99981e-05
-1.43129e-09
1.9998e-05
-1.53485e-09
1.99979e-05
-1.6454e-09
1.99978e-05
-1.76334e-09
1.99977e-05
-1.88909e-09
1.99975e-05
-2.02308e-09
1.99974e-05
-2.16578e-09
1.99972e-05
-2.31764e-09
1.99971e-05
-2.47916e-09
1.99969e-05
-2.65081e-09
1.99967e-05
-2.83312e-09
1.99966e-05
-3.02659e-09
1.99964e-05
-3.23174e-09
1.99962e-05
-3.4491e-09
1.9996e-05
-3.67917e-09
1.99958e-05
-3.92248e-09
1.99956e-05
-4.1795e-09
1.99954e-05
-4.45069e-09
1.99951e-05
-4.73647e-09
1.99949e-05
-5.03719e-09
1.99947e-05
-5.35313e-09
1.99944e-05
-5.68446e-09
1.99942e-05
-6.03121e-09
1.99939e-05
-6.39323e-09
1.99937e-05
-6.77015e-09
1.99934e-05
-7.1613e-09
1.99932e-05
-7.56566e-09
1.99929e-05
-7.98175e-09
1.99927e-05
-8.40756e-09
1.99924e-05
-8.84036e-09
1.99922e-05
-9.27658e-09
1.99919e-05
-9.71162e-09
1.99917e-05
-1.01396e-08
1.99914e-05
-1.05531e-08
1.99912e-05
-1.09427e-08
1.9991e-05
-1.12966e-08
1.99908e-05
-1.15996e-08
1.99906e-05
-1.18325e-08
-1.19667e-08
2e-05
-1.22189e-12
2e-05
-3.6333e-12
2e-05
-6.06969e-12
2e-05
-8.57352e-12
2e-05
-1.11314e-11
2e-05
-1.37341e-11
2e-05
-1.63834e-11
2e-05
-1.90874e-11
2e-05
-2.18577e-11
2e-05
-2.47082e-11
2e-05
-2.76533e-11
2e-05
-3.07086e-11
2e-05
-3.389e-11
2e-05
-3.72141e-11
2e-05
-4.06981e-11
2e-05
-4.436e-11
2e-05
-4.82189e-11
1.99999e-05
-5.22948e-11
1.99999e-05
-5.66092e-11
1.99999e-05
-6.1185e-11
1.99999e-05
-6.60468e-11
1.99999e-05
-7.12209e-11
1.99999e-05
-7.67357e-11
1.99999e-05
-8.26219e-11
1.99999e-05
-8.89125e-11
1.99999e-05
-9.56431e-11
1.99999e-05
-1.02852e-10
1.99998e-05
-1.10581e-10
1.99998e-05
-1.18875e-10
1.99998e-05
-1.27781e-10
1.99998e-05
-1.37353e-10
1.99998e-05
-1.47646e-10
1.99998e-05
-1.58719e-10
1.99997e-05
-1.70639e-10
1.99997e-05
-1.83475e-10
1.99997e-05
-1.97302e-10
1.99997e-05
-2.12199e-10
1.99996e-05
-2.28254e-10
1.99996e-05
-2.45558e-10
1.99996e-05
-2.64211e-10
1.99996e-05
-2.84318e-10
1.99995e-05
-3.05992e-10
1.99995e-05
-3.29353e-10
1.99994e-05
-3.54531e-10
1.99994e-05
-3.81663e-10
1.99994e-05
-4.10895e-10
1.99993e-05
-4.42382e-10
1.99993e-05
-4.76291e-10
1.99992e-05
-5.12796e-10
1.99991e-05
-5.52084e-10
1.99991e-05
-5.94353e-10
1.9999e-05
-6.39812e-10
1.9999e-05
-6.88685e-10
1.99989e-05
-7.41204e-10
1.99988e-05
-7.9762e-10
1.99987e-05
-8.58192e-10
1.99987e-05
-9.23199e-10
1.99986e-05
-9.9293e-10
1.99985e-05
-1.06769e-09
1.99984e-05
-1.14781e-09
1.99983e-05
-1.23362e-09
1.99982e-05
-1.32548e-09
1.99981e-05
-1.42375e-09
1.99979e-05
-1.52884e-09
1.99978e-05
-1.64114e-09
1.99977e-05
-1.76109e-09
1.99976e-05
-1.88912e-09
1.99974e-05
-2.0257e-09
1.99973e-05
-2.1713e-09
1.99971e-05
-2.32641e-09
1.9997e-05
-2.49154e-09
1.99968e-05
-2.66722e-09
1.99966e-05
-2.85398e-09
1.99964e-05
-3.05236e-09
1.99963e-05
-3.26291e-09
1.99961e-05
-3.48617e-09
1.99959e-05
-3.72269e-09
1.99957e-05
-3.973e-09
1.99955e-05
-4.23761e-09
1.99952e-05
-4.51697e-09
1.9995e-05
-4.81151e-09
1.99948e-05
-5.12156e-09
1.99945e-05
-5.44738e-09
1.99943e-05
-5.78908e-09
1.9994e-05
-6.1466e-09
1.99938e-05
-6.51967e-09
1.99935e-05
-6.90774e-09
1.99933e-05
-7.3099e-09
1.9993e-05
-7.7248e-09
1.99928e-05
-8.15055e-09
1.99925e-05
-8.58452e-09
1.99923e-05
-9.02326e-09
1.9992e-05
-9.46223e-09
1.99918e-05
-9.89553e-09
1.99915e-05
-1.03156e-08
1.99913e-05
-1.07129e-08
1.99911e-05
-1.10748e-08
1.99909e-05
-1.13852e-08
1.99907e-05
-1.16232e-08
-1.17574e-08
2e-05
-1.04987e-12
2e-05
-3.12148e-12
2e-05
-5.2299e-12
2e-05
-7.42139e-12
2e-05
-9.6801e-12
2e-05
-1.19915e-11
2e-05
-1.43515e-11
2e-05
-1.67631e-11
2e-05
-1.92332e-11
2e-05
-2.17716e-11
2e-05
-2.43898e-11
2e-05
-2.71002e-11
2e-05
-2.99165e-11
2e-05
-3.28528e-11
2e-05
-3.59244e-11
2e-05
-3.9147e-11
2e-05
-4.25379e-11
1.99999e-05
-4.61149e-11
1.99999e-05
-4.98976e-11
1.99999e-05
-5.39068e-11
1.99999e-05
-5.81648e-11
1.99999e-05
-6.26959e-11
1.99999e-05
-6.75261e-11
1.99999e-05
-7.26837e-11
1.99999e-05
-7.81991e-11
1.99999e-05
-8.41056e-11
1.99999e-05
-9.04389e-11
1.99998e-05
-9.72376e-11
1.99998e-05
-1.04544e-10
1.99998e-05
-1.12402e-10
1.99998e-05
-1.20862e-10
1.99998e-05
-1.29977e-10
1.99998e-05
-1.39803e-10
1.99997e-05
-1.50401e-10
1.99997e-05
-1.61839e-10
1.99997e-05
-1.74186e-10
1.99997e-05
-1.8752e-10
1.99997e-05
-2.01923e-10
1.99996e-05
-2.17484e-10
1.99996e-05
-2.34296e-10
1.99996e-05
-2.52462e-10
1.99995e-05
-2.72091e-10
1.99995e-05
-2.93298e-10
1.99995e-05
-3.16208e-10
1.99994e-05
-3.40955e-10
1.99994e-05
-3.67679e-10
1.99993e-05
-3.96531e-10
1.99993e-05
-4.27673e-10
1.99992e-05
-4.61276e-10
1.99992e-05
-4.97522e-10
1.99991e-05
-5.36605e-10
1.9999e-05
-5.78729e-10
1.9999e-05
-6.24113e-10
1.99989e-05
-6.72987e-10
1.99988e-05
-7.25596e-10
1.99988e-05
-7.82199e-10
1.99987e-05
-8.43068e-10
1.99986e-05
-9.08492e-10
1.99985e-05
-9.78775e-10
1.99984e-05
-1.05424e-09
1.99983e-05
-1.13522e-09
1.99982e-05
-1.22207e-09
1.99981e-05
-1.31517e-09
1.9998e-05
-1.4149e-09
1.99979e-05
-1.52168e-09
1.99978e-05
-1.63594e-09
1.99976e-05
-1.75811e-09
1.99975e-05
-1.88868e-09
1.99973e-05
-2.02812e-09
1.99972e-05
-2.17693e-09
1.9997e-05
-2.33565e-09
1.99969e-05
-2.5048e-09
1.99967e-05
-2.68494e-09
1.99965e-05
-2.87663e-09
1.99963e-05
-3.08044e-09
1.99962e-05
-3.29696e-09
1.9996e-05
-3.52675e-09
1.99958e-05
-3.77038e-09
1.99955e-05
-4.0284e-09
1.99953e-05
-4.30133e-09
1.99951e-05
-4.58963e-09
1.99949e-05
-4.89371e-09
1.99947e-05
-5.21389e-09
1.99944e-05
-5.55035e-09
1.99942e-05
-5.90313e-09
1.99939e-05
-6.27203e-09
1.99937e-05
-6.6566e-09
1.99934e-05
-7.05605e-09
1.99932e-05
-7.46911e-09
1.99929e-05
-7.89399e-09
1.99926e-05
-8.32816e-09
1.99924e-05
-8.76823e-09
1.99921e-05
-9.20967e-09
1.99919e-05
-9.64657e-09
1.99916e-05
-1.00712e-08
1.99914e-05
-1.04737e-08
1.99912e-05
-1.08411e-08
1.99909e-05
-1.11565e-08
1.99907e-05
-1.13976e-08
-1.15351e-08
2e-05
-8.94296e-13
2e-05
-2.65286e-12
2e-05
-4.452e-12
2e-05
-6.34195e-12
2e-05
-8.30667e-12
2e-05
-1.03289e-11
2e-05
-1.24007e-11
2e-05
-1.45209e-11
2e-05
-1.66926e-11
2e-05
-1.8922e-11
2e-05
-2.12173e-11
2e-05
-2.35885e-11
2e-05
-2.60465e-11
2e-05
-2.86032e-11
2e-05
-3.12715e-11
2e-05
-3.40655e-11
2e-05
-3.7e-11
1.99999e-05
-4.0091e-11
1.99999e-05
-4.3356e-11
1.99999e-05
-4.68137e-11
1.99999e-05
-5.04844e-11
1.99999e-05
-5.439e-11
1.99999e-05
-5.85545e-11
1.99999e-05
-6.30036e-11
1.99999e-05
-6.77656e-11
1.99999e-05
-7.2871e-11
1.99999e-05
-7.83529e-11
1.99999e-05
-8.42474e-11
1.99998e-05
-9.05935e-11
1.99998e-05
-9.74336e-11
1.99998e-05
-1.04813e-10
1.99998e-05
-1.12783e-10
1.99998e-05
-1.21396e-10
1.99998e-05
-1.30709e-10
1.99997e-05
-1.40787e-10
1.99997e-05
-1.51697e-10
1.99997e-05
-1.63511e-10
1.99997e-05
-1.76308e-10
1.99996e-05
-1.90173e-10
1.99996e-05
-2.05196e-10
1.99996e-05
-2.21475e-10
1.99995e-05
-2.39114e-10
1.99995e-05
-2.58226e-10
1.99995e-05
-2.7893e-10
1.99994e-05
-3.01355e-10
1.99994e-05
-3.25639e-10
1.99993e-05
-3.51927e-10
1.99993e-05
-3.80377e-10
1.99992e-05
-4.11155e-10
1.99992e-05
-4.44439e-10
1.99991e-05
-4.80418e-10
1.99991e-05
-5.19294e-10
1.9999e-05
-5.61279e-10
1.99989e-05
-6.06601e-10
1.99989e-05
-6.55501e-10
1.99988e-05
-7.08233e-10
1.99987e-05
-7.65068e-10
1.99986e-05
-8.2629e-10
1.99986e-05
-8.92203e-10
1.99985e-05
-9.63124e-10
1.99984e-05
-1.03939e-09
1.99983e-05
-1.12135e-09
1.99982e-05
-1.20939e-09
1.99981e-05
-1.30389e-09
1.99979e-05
-1.40527e-09
1.99978e-05
-1.51395e-09
1.99977e-05
-1.63039e-09
1.99976e-05
-1.75507e-09
1.99974e-05
-1.88847e-09
1.99973e-05
-2.03111e-09
1.99971e-05
-2.18352e-09
1.9997e-05
-2.34624e-09
1.99968e-05
-2.51986e-09
1.99966e-05
-2.70496e-09
1.99964e-05
-2.90212e-09
1.99963e-05
-3.11195e-09
1.99961e-05
-3.33505e-09
1.99959e-05
-3.57203e-09
1.99957e-05
-3.82348e-09
1.99954e-05
-4.08995e-09
1.99952e-05
-4.37196e-09
1.9995e-05
-4.66997e-09
1.99948e-05
-4.98436e-09
1.99945e-05
-5.31538e-09
1.99943e-05
-5.66314e-09
1.99941e-05
-6.02753e-09
1.99938e-05
-6.40817e-09
1.99936e-05
-6.80434e-09
1.99933e-05
-7.21489e-09
1.9993e-05
-7.63807e-09
1.99928e-05
-8.07143e-09
1.99925e-05
-8.51162e-09
1.99923e-05
-8.95412e-09
1.9992e-05
-9.39294e-09
1.99918e-05
-9.82026e-09
1.99915e-05
-1.02259e-08
1.99913e-05
-1.05966e-08
1.9991e-05
-1.0915e-08
1.99908e-05
-1.11586e-08
-1.13005e-08
2e-05
-7.52122e-13
2e-05
-2.22118e-12
2e-05
-3.7297e-12
2e-05
-5.33115e-12
2e-05
-7.01038e-12
2e-05
-8.74889e-12
2e-05
-1.05364e-11
2e-05
-1.23686e-11
2e-05
-1.42454e-11
2e-05
-1.61701e-11
2e-05
-1.81481e-11
2e-05
-2.01865e-11
2e-05
-2.22938e-11
2e-05
-2.44798e-11
2e-05
-2.67553e-11
2e-05
-2.9132e-11
2e-05
-3.16228e-11
2e-05
-3.42418e-11
1.99999e-05
-3.70044e-11
1.99999e-05
-3.99272e-11
1.99999e-05
-4.30284e-11
1.99999e-05
-4.63278e-11
1.99999e-05
-4.98472e-11
1.99999e-05
-5.361e-11
1.99999e-05
-5.76421e-11
1.99999e-05
-6.19716e-11
1.99999e-05
-6.66291e-11
1.99999e-05
-7.16479e-11
1.99998e-05
-7.70644e-11
1.99998e-05
-8.29181e-11
1.99998e-05
-8.92519e-11
1.99998e-05
-9.61124e-11
1.99998e-05
-1.0355e-10
1.99998e-05
-1.1162e-10
1.99997e-05
-1.20382e-10
1.99997e-05
-1.29898e-10
1.99997e-05
-1.4024e-10
1.99997e-05
-1.51482e-10
1.99996e-05
-1.63704e-10
1.99996e-05
-1.76993e-10
1.99996e-05
-1.91443e-10
1.99996e-05
-2.07154e-10
1.99995e-05
-2.24234e-10
1.99995e-05
-2.428e-10
1.99994e-05
-2.62975e-10
1.99994e-05
-2.84892e-10
1.99994e-05
-3.08693e-10
1.99993e-05
-3.34531e-10
1.99993e-05
-3.62568e-10
1.99992e-05
-3.92978e-10
1.99992e-05
-4.25945e-10
1.99991e-05
-4.61666e-10
1.9999e-05
-5.00351e-10
1.9999e-05
-5.42223e-10
1.99989e-05
-5.87519e-10
1.99988e-05
-6.36489e-10
1.99988e-05
-6.89401e-10
1.99987e-05
-7.46538e-10
1.99986e-05
-8.08198e-10
1.99985e-05
-8.74698e-10
1.99984e-05
-9.46373e-10
1.99983e-05
-1.02358e-09
1.99982e-05
-1.10668e-09
1.99981e-05
-1.19608e-09
1.9998e-05
-1.29218e-09
1.99979e-05
-1.39542e-09
1.99978e-05
-1.50627e-09
1.99976e-05
-1.62518e-09
1.99975e-05
-1.75267e-09
1.99973e-05
-1.88925e-09
1.99972e-05
-2.03547e-09
1.9997e-05
-2.1919e-09
1.99969e-05
-2.3591e-09
1.99967e-05
-2.5377e-09
1.99965e-05
-2.72829e-09
1.99964e-05
-2.9315e-09
1.99962e-05
-3.14797e-09
1.9996e-05
-3.37834e-09
1.99958e-05
-3.62321e-09
1.99956e-05
-3.88319e-09
1.99954e-05
-4.15884e-09
1.99951e-05
-4.45068e-09
1.99949e-05
-4.75912e-09
1.99947e-05
-5.08449e-09
1.99944e-05
-5.42694e-09
1.99942e-05
-5.78644e-09
1.9994e-05
-6.16269e-09
1.99937e-05
-6.55503e-09
1.99935e-05
-6.96236e-09
1.99932e-05
-7.38301e-09
1.99929e-05
-7.81457e-09
1.99927e-05
-8.25371e-09
1.99924e-05
-8.69591e-09
1.99922e-05
-9.13512e-09
1.99919e-05
-9.56342e-09
1.99917e-05
-9.97043e-09
1.99914e-05
-1.03427e-08
1.99912e-05
-1.06627e-08
1.99909e-05
-1.09082e-08
-1.1053e-08
2e-05
-6.21313e-13
2e-05
-1.82186e-12
2e-05
-3.05789e-12
2e-05
-4.38508e-12
2e-05
-5.78949e-12
2e-05
-7.25233e-12
2e-05
-8.76188e-12
2e-05
-1.03116e-11
2e-05
-1.18992e-11
2e-05
-1.35251e-11
2e-05
-1.51924e-11
2e-05
-1.69056e-11
2e-05
-1.86711e-11
2e-05
-2.04964e-11
2e-05
-2.23901e-11
2e-05
-2.43619e-11
2e-05
-2.64228e-11
2e-05
-2.85849e-11
1.99999e-05
-3.08614e-11
1.99999e-05
-3.32671e-11
1.99999e-05
-3.5818e-11
1.99999e-05
-3.8532e-11
1.99999e-05
-4.14285e-11
1.99999e-05
-4.45289e-11
1.99999e-05
-4.78566e-11
1.99999e-05
-5.14374e-11
1.99999e-05
-5.52994e-11
1.99999e-05
-5.94734e-11
1.99999e-05
-6.3993e-11
1.99998e-05
-6.88951e-11
1.99998e-05
-7.42197e-11
1.99998e-05
-8.00104e-11
1.99998e-05
-8.63148e-11
1.99998e-05
-9.31844e-11
1.99997e-05
-1.00675e-10
1.99997e-05
-1.08848e-10
1.99997e-05
-1.17769e-10
1.99997e-05
-1.27509e-10
1.99997e-05
-1.38145e-10
1.99996e-05
-1.4976e-10
1.99996e-05
-1.62445e-10
1.99996e-05
-1.76294e-10
1.99995e-05
-1.91412e-10
1.99995e-05
-2.07912e-10
1.99995e-05
-2.25912e-10
1.99994e-05
-2.45542e-10
1.99994e-05
-2.6694e-10
1.99993e-05
-2.90253e-10
1.99993e-05
-3.1564e-10
1.99992e-05
-3.43269e-10
1.99992e-05
-3.73322e-10
1.99991e-05
-4.05991e-10
1.99991e-05
-4.41481e-10
1.9999e-05
-4.80011e-10
1.99989e-05
-5.21815e-10
1.99989e-05
-5.6714e-10
1.99988e-05
-6.1625e-10
1.99987e-05
-6.69424e-10
1.99986e-05
-7.26958e-10
1.99986e-05
-7.89167e-10
1.99985e-05
-8.56384e-10
1.99984e-05
-9.2896e-10
1.99983e-05
-1.00727e-09
1.99982e-05
-1.0917e-09
1.99981e-05
-1.18267e-09
1.99979e-05
-1.28061e-09
1.99978e-05
-1.38599e-09
1.99977e-05
-1.49928e-09
1.99976e-05
-1.621e-09
1.99974e-05
-1.75166e-09
1.99973e-05
-1.89182e-09
1.99971e-05
-2.04206e-09
1.9997e-05
-2.20296e-09
1.99968e-05
-2.37515e-09
1.99967e-05
-2.55926e-09
1.99965e-05
-2.75593e-09
1.99963e-05
-2.96583e-09
1.99961e-05
-3.1896e-09
1.99959e-05
-3.4279e-09
1.99957e-05
-3.68136e-09
1.99955e-05
-3.95059e-09
1.99953e-05
-4.23613e-09
1.99951e-05
-4.53847e-09
1.99948e-05
-4.85795e-09
1.99946e-05
-5.19481e-09
1.99944e-05
-5.54905e-09
1.99941e-05
-5.92043e-09
1.99939e-05
-6.30836e-09
1.99936e-05
-6.71179e-09
1.99934e-05
-7.12908e-09
1.99931e-05
-7.55789e-09
1.99929e-05
-7.99487e-09
1.99926e-05
-8.4355e-09
1.99923e-05
-8.87371e-09
1.99921e-05
-9.30149e-09
1.99918e-05
-9.70838e-09
1.99916e-05
-1.00808e-08
1.99913e-05
-1.04012e-08
1.9991e-05
-1.06476e-08
-1.07935e-08
2e-05
-5.0044e-13
2e-05
-1.45146e-12
2e-05
-2.43246e-12
2e-05
-3.50022e-12
2e-05
-4.64194e-12
2e-05
-5.83907e-12
2e-05
-7.07909e-12
2e-05
-8.35406e-12
2e-05
-9.65965e-12
2e-05
-1.09944e-11
2e-05
-1.23589e-11
2e-05
-1.37559e-11
2e-05
-1.51895e-11
2e-05
-1.66649e-11
2e-05
-1.8189e-11
2e-05
-1.97694e-11
2e-05
-2.14152e-11
2e-05
-2.31364e-11
1.99999e-05
-2.49444e-11
1.99999e-05
-2.68519e-11
1.99999e-05
-2.88732e-11
1.99999e-05
-3.10237e-11
1.99999e-05
-3.33211e-11
1.99999e-05
-3.57843e-11
1.99999e-05
-3.84348e-11
1.99999e-05
-4.12959e-11
1.99999e-05
-4.43932e-11
1.99999e-05
-4.77552e-11
1.99999e-05
-5.1413e-11
1.99998e-05
-5.54006e-11
1.99998e-05
-5.97552e-11
1.99998e-05
-6.45178e-11
1.99998e-05
-6.97327e-11
1.99998e-05
-7.54486e-11
1.99998e-05
-8.17183e-11
1.99997e-05
-8.85993e-11
1.99997e-05
-9.6154e-11
1.99997e-05
-1.0445e-10
1.99997e-05
-1.13561e-10
1.99996e-05
-1.23566e-10
1.99996e-05
-1.34551e-10
1.99996e-05
-1.46609e-10
1.99996e-05
-1.5984e-10
1.99995e-05
-1.7435e-10
1.99995e-05
-1.90257e-10
1.99994e-05
-2.07685e-10
1.99994e-05
-2.26767e-10
1.99994e-05
-2.47647e-10
1.99993e-05
-2.70479e-10
1.99993e-05
-2.95428e-10
1.99992e-05
-3.22671e-10
1.99992e-05
-3.52394e-10
1.99991e-05
-3.84801e-10
1.99991e-05
-4.20106e-10
1.9999e-05
-4.58538e-10
1.99989e-05
-5.00341e-10
1.99989e-05
-5.45775e-10
1.99988e-05
-5.95117e-10
1.99987e-05
-6.48659e-10
1.99986e-05
-7.06713e-10
1.99985e-05
-7.69611e-10
1.99984e-05
-8.37702e-10
1.99983e-05
-9.11357e-10
1.99982e-05
-9.90969e-10
1.99981e-05
-1.07695e-09
1.9998e-05
-1.16974e-09
1.99979e-05
-1.2698e-09
1.99978e-05
-1.37762e-09
1.99977e-05
-1.4937e-09
1.99975e-05
-1.61857e-09
1.99974e-05
-1.75281e-09
1.99972e-05
-1.89698e-09
1.99971e-05
-2.0517e-09
1.99969e-05
-2.21759e-09
1.99968e-05
-2.39531e-09
1.99966e-05
-2.58551e-09
1.99964e-05
-2.78888e-09
1.99962e-05
-3.00609e-09
1.9996e-05
-3.23782e-09
1.99959e-05
-3.48473e-09
1.99956e-05
-3.74746e-09
1.99954e-05
-4.0266e-09
1.99952e-05
-4.32265e-09
1.9995e-05
-4.63603e-09
1.99948e-05
-4.96699e-09
1.99945e-05
-5.31559e-09
1.99943e-05
-5.68165e-09
1.99941e-05
-6.0646e-09
1.99938e-05
-6.46345e-09
1.99936e-05
-6.87661e-09
1.99933e-05
-7.30173e-09
1.9993e-05
-7.73551e-09
1.99928e-05
-8.17342e-09
1.99925e-05
-8.60937e-09
1.99922e-05
-9.03532e-09
1.9992e-05
-9.44075e-09
1.99917e-05
-9.81208e-09
1.99914e-05
-1.01318e-08
1.99912e-05
-1.0378e-08
-1.0524e-08
2e-05
-3.88344e-13
2e-05
-1.10738e-12
2e-05
-1.85025e-12
2e-05
-2.67362e-12
2e-05
-3.56567e-12
2e-05
-4.5084e-12
2e-05
-5.48896e-12
2e-05
-6.49842e-12
2e-05
-7.53102e-12
2e-05
-8.58357e-12
2e-05
-9.65497e-12
2e-05
-1.07459e-11
2e-05
-1.18584e-11
2e-05
-1.29961e-11
2e-05
-1.41638e-11
2e-05
-1.53672e-11
2e-05
-1.66135e-11
2e-05
-1.7911e-11
2e-05
-1.92691e-11
1.99999e-05
-2.06986e-11
1.99999e-05
-2.22118e-11
1.99999e-05
-2.38223e-11
1.99999e-05
-2.55455e-11
1.99999e-05
-2.73985e-11
1.99999e-05
-2.94003e-11
1.99999e-05
-3.15722e-11
1.99999e-05
-3.39375e-11
1.99999e-05
-3.65222e-11
1.99999e-05
-3.93549e-11
1.99998e-05
-4.2467e-11
1.99998e-05
-4.58932e-11
1.99998e-05
-4.96715e-11
1.99998e-05
-5.38435e-11
1.99998e-05
-5.84548e-11
1.99998e-05
-6.35552e-11
1.99998e-05
-6.91989e-11
1.99997e-05
-7.54452e-11
1.99997e-05
-8.23582e-11
1.99997e-05
-9.0008e-11
1.99997e-05
-9.84702e-11
1.99996e-05
-1.07827e-10
1.99996e-05
-1.18168e-10
1.99996e-05
-1.29587e-10
1.99995e-05
-1.42191e-10
1.99995e-05
-1.56089e-10
1.99995e-05
-1.71403e-10
1.99994e-05
-1.88263e-10
1.99994e-05
-2.06807e-10
1.99993e-05
-2.27185e-10
1.99993e-05
-2.49558e-10
1.99993e-05
-2.74099e-10
1.99992e-05
-3.00991e-10
1.99991e-05
-3.30432e-10
1.99991e-05
-3.62632e-10
1.9999e-05
-3.97817e-10
1.9999e-05
-4.36227e-10
1.99989e-05
-4.78118e-10
1.99988e-05
-5.23763e-10
1.99988e-05
-5.73452e-10
1.99987e-05
-6.27495e-10
1.99986e-05
-6.86219e-10
1.99985e-05
-7.49973e-10
1.99984e-05
-8.19126e-10
1.99983e-05
-8.94069e-10
1.99982e-05
-9.75217e-10
1.99981e-05
-1.06301e-09
1.9998e-05
-1.1579e-09
1.99979e-05
-1.26039e-09
1.99978e-05
-1.37098e-09
1.99976e-05
-1.49021e-09
1.99975e-05
-1.61865e-09
1.99973e-05
-1.75689e-09
1.99972e-05
-1.90554e-09
1.99971e-05
-2.06525e-09
1.99969e-05
-2.23666e-09
1.99967e-05
-2.42047e-09
1.99966e-05
-2.61736e-09
1.99964e-05
-2.82804e-09
1.99962e-05
-3.0532e-09
1.9996e-05
-3.29353e-09
1.99958e-05
-3.54969e-09
1.99956e-05
-3.8223e-09
1.99954e-05
-4.11191e-09
1.99952e-05
-4.41894e-09
1.99949e-05
-4.74371e-09
1.99947e-05
-5.08631e-09
1.99945e-05
-5.44658e-09
1.99942e-05
-5.82401e-09
1.9994e-05
-6.21764e-09
1.99937e-05
-6.6259e-09
1.99935e-05
-7.04649e-09
1.99932e-05
-7.4761e-09
1.9993e-05
-7.91023e-09
1.99927e-05
-8.34278e-09
1.99924e-05
-8.76571e-09
1.99922e-05
-9.16853e-09
1.99919e-05
-9.53765e-09
1.99916e-05
-9.8557e-09
1.99913e-05
-1.01008e-08
-1.02462e-08
2e-05
-2.83624e-13
2e-05
-7.87723e-13
2e-05
-1.30904e-12
2e-05
-1.9029e-12
2e-05
-2.55872e-12
2e-05
-3.25932e-12
2e-05
-3.99173e-12
2e-05
-4.74638e-12
2e-05
-5.51641e-12
2e-05
-6.29724e-12
2e-05
-7.08623e-12
2e-05
-7.88236e-12
2e-05
-8.68609e-12
2e-05
-9.49917e-12
2e-05
-1.03246e-11
2e-05
-1.11664e-11
2e-05
-1.20301e-11
2e-05
-1.29219e-11
2e-05
-1.38497e-11
1.99999e-05
-1.48224e-11
1.99999e-05
-1.58502e-11
1.99999e-05
-1.69451e-11
1.99999e-05
-1.81203e-11
1.99999e-05
-1.93911e-11
1.99999e-05
-2.07743e-11
1.99999e-05
-2.2289e-11
1.99999e-05
-2.39563e-11
1.99999e-05
-2.58e-11
1.99999e-05
-2.78461e-11
1.99999e-05
-3.01236e-11
1.99998e-05
-3.26647e-11
1.99998e-05
-3.55047e-11
1.99998e-05
-3.86823e-11
1.99998e-05
-4.22404e-11
1.99998e-05
-4.62257e-11
1.99998e-05
-5.06893e-11
1.99997e-05
-5.56873e-11
1.99997e-05
-6.12808e-11
1.99997e-05
-6.75361e-11
1.99997e-05
-7.45256e-11
1.99996e-05