/*--------------------------------*- C++ -*----------------------------------*\
  =========                 |
  \\      /  F ield         | OpenFOAM: The Open Source CFD Toolbox
   \\    /   O peration     | Website:  https://openfoam.org
    \\  /    A nd           | Version:  11
     \\/     M anipulation  |
\*---------------------------------------------------------------------------*/
FoamFile
{
    format      ascii;
    class       surfaceScalarField;
    location    "632";
    object      phi;
}
// * * * * * * * * * * * * * * * * * * * * * * * * * * * * * * * * * * * * * //

dimensions      [0 3 -1 0 0 0 0];

internalField   nonuniform List<scalar> 
19800
(
1.99999e-05
-3.23773e-10
1.99999e-05
-9.38036e-10
1.99997e-05
-1.54491e-09
1.99996e-05
-2.16497e-09
1.99994e-05
-2.81114e-09
1.99992e-05
-3.49219e-09
1.9999e-05
-4.2154e-09
1.99988e-05
-4.98721e-09
1.99985e-05
-5.81357e-09
1.99982e-05
-6.7002e-09
1.99978e-05
-7.65269e-09
1.99975e-05
-8.67663e-09
1.99971e-05
-9.77765e-09
1.99966e-05
-1.09615e-08
1.99961e-05
-1.2234e-08
1.99956e-05
-1.36012e-08
1.9995e-05
-1.50693e-08
1.99943e-05
-1.66447e-08
1.99936e-05
-1.8334e-08
1.99929e-05
-2.0144e-08
1.9992e-05
-2.20819e-08
1.99911e-05
-2.41548e-08
1.99902e-05
-2.63704e-08
1.99891e-05
-2.87364e-08
1.9988e-05
-3.1261e-08
1.99868e-05
-3.39526e-08
1.99855e-05
-3.68197e-08
1.99841e-05
-3.98712e-08
1.99826e-05
-4.31163e-08
1.9981e-05
-4.65646e-08
1.99793e-05
-5.02257e-08
1.99775e-05
-5.41097e-08
1.99756e-05
-5.82268e-08
1.99735e-05
-6.25878e-08
1.99713e-05
-6.72033e-08
1.99689e-05
-7.20846e-08
1.99664e-05
-7.72429e-08
1.99637e-05
-8.26901e-08
1.99609e-05
-8.84378e-08
1.99579e-05
-9.44983e-08
1.99547e-05
-1.00884e-07
1.99513e-05
-1.07607e-07
1.99477e-05
-1.1468e-07
1.99439e-05
-1.22116e-07
1.99399e-05
-1.29928e-07
1.99356e-05
-1.38129e-07
1.99311e-05
-1.46733e-07
1.99264e-05
-1.55752e-07
1.99214e-05
-1.65199e-07
1.99161e-05
-1.75088e-07
1.99105e-05
-1.85431e-07
1.99047e-05
-1.96242e-07
1.98985e-05
-2.07534e-07
1.9892e-05
-2.19317e-07
1.98852e-05
-2.31606e-07
1.98781e-05
-2.4441e-07
1.98706e-05
-2.57743e-07
1.98628e-05
-2.71613e-07
1.98545e-05
-2.86031e-07
1.98459e-05
-3.01005e-07
1.98369e-05
-3.16545e-07
1.98275e-05
-3.32656e-07
1.98177e-05
-3.49346e-07
1.98075e-05
-3.66617e-07
1.97968e-05
-3.84474e-07
1.97856e-05
-4.02917e-07
1.97741e-05
-4.21946e-07
1.9762e-05
-4.41557e-07
1.97495e-05
-4.61746e-07
1.97366e-05
-4.82505e-07
1.97231e-05
-5.03822e-07
1.97092e-05
-5.25685e-07
1.96949e-05
-5.48074e-07
1.968e-05
-5.7097e-07
1.96647e-05
-5.94345e-07
1.9649e-05
-6.18171e-07
1.96328e-05
-6.42411e-07
1.96162e-05
-6.67024e-07
1.95992e-05
-6.91964e-07
1.95818e-05
-7.17178e-07
1.9564e-05
-7.42603e-07
1.9546e-05
-7.68172e-07
1.95277e-05
-7.93808e-07
1.95092e-05
-8.19424e-07
1.94905e-05
-8.44923e-07
1.94717e-05
-8.70199e-07
1.94529e-05
-8.95131e-07
1.94342e-05
-9.19585e-07
1.94157e-05
-9.43413e-07
1.93975e-05
-9.66448e-07
1.93797e-05
-9.88508e-07
1.93625e-05
-1.00939e-06
1.9346e-05
-1.02886e-06
1.93305e-05
-1.04667e-06
1.93161e-05
-1.06254e-06
1.93031e-05
-1.07619e-06
1.92918e-05
-1.0873e-06
1.92825e-05
-1.09552e-06
1.92754e-05
-1.10068e-06
-1.10328e-06
2e-05
-2.82115e-10
1.99999e-05
-8.50589e-10
1.99998e-05
-1.42805e-09
1.99996e-05
-2.02295e-09
1.99994e-05
-2.64453e-09
1.99993e-05
-3.30045e-09
1.9999e-05
-3.99739e-09
1.99988e-05
-4.74147e-09
1.99985e-05
-5.53838e-09
1.99982e-05
-6.39367e-09
1.99979e-05
-7.31275e-09
1.99975e-05
-8.30105e-09
1.99971e-05
-9.36406e-09
1.99966e-05
-1.05073e-08
1.99961e-05
-1.17366e-08
1.99956e-05
-1.30577e-08
1.9995e-05
-1.44767e-08
1.99943e-05
-1.59998e-08
1.99936e-05
-1.76335e-08
1.99929e-05
-1.93843e-08
1.99921e-05
-2.12592e-08
1.99912e-05
-2.32653e-08
1.99902e-05
-2.541e-08
1.99892e-05
-2.77009e-08
1.99881e-05
-3.01458e-08
1.99869e-05
-3.27529e-08
1.99856e-05
-3.55306e-08
1.99842e-05
-3.84876e-08
1.99827e-05
-4.16329e-08
1.99811e-05
-4.49757e-08
1.99794e-05
-4.85255e-08
1.99776e-05
-5.2292e-08
1.99757e-05
-5.62854e-08
1.99736e-05
-6.0516e-08
1.99714e-05
-6.49944e-08
1.9969e-05
-6.97314e-08
1.99665e-05
-7.47382e-08
1.99639e-05
-8.00261e-08
1.9961e-05
-8.56067e-08
1.9958e-05
-9.14919e-08
1.99548e-05
-9.76936e-08
1.99514e-05
-1.04224e-07
1.99479e-05
-1.11096e-07
1.99441e-05
-1.18322e-07
1.99401e-05
-1.25914e-07
1.99358e-05
-1.33885e-07
1.99313e-05
-1.42249e-07
1.99266e-05
-1.51018e-07
1.99216e-05
-1.60205e-07
1.99163e-05
-1.69823e-07
1.99108e-05
-1.79885e-07
1.99049e-05
-1.90403e-07
1.98988e-05
-2.01391e-07
1.98923e-05
-2.1286e-07
1.98856e-05
-2.24822e-07
1.98784e-05
-2.37289e-07
1.9871e-05
-2.50272e-07
1.98631e-05
-2.63782e-07
1.98549e-05
-2.77828e-07
1.98464e-05
-2.9242e-07
1.98374e-05
-3.07566e-07
1.9828e-05
-3.23273e-07
1.98182e-05
-3.39548e-07
1.9808e-05
-3.56395e-07
1.97973e-05
-3.73819e-07
1.97862e-05
-3.9182e-07
1.97747e-05
-4.10398e-07
1.97627e-05
-4.29553e-07
1.97502e-05
-4.4928e-07
1.97373e-05
-4.69572e-07
1.97239e-05
-4.90421e-07
1.971e-05
-5.11813e-07
1.96957e-05
-5.33733e-07
1.96808e-05
-5.56162e-07
1.96656e-05
-5.79078e-07
1.96499e-05
-6.02453e-07
1.96337e-05
-6.26254e-07
1.96171e-05
-6.50445e-07
1.96001e-05
-6.74983e-07
1.95828e-05
-6.99819e-07
1.95651e-05
-7.24897e-07
1.95471e-05
-7.50156e-07
1.95288e-05
-7.75524e-07
1.95103e-05
-8.00923e-07
1.94916e-05
-8.26264e-07
1.94729e-05
-8.51448e-07
1.94541e-05
-8.76365e-07
1.94354e-05
-9.00893e-07
1.94169e-05
-9.24893e-07
1.93987e-05
-9.48214e-07
1.93808e-05
-9.70686e-07
1.93636e-05
-9.92119e-07
1.9347e-05
-1.0123e-06
1.93313e-05
-1.031e-06
1.93168e-05
-1.04796e-06
1.93035e-05
-1.0629e-06
1.92917e-05
-1.07551e-06
1.92816e-05
-1.08544e-06
1.92734e-05
-1.09246e-06
-1.09663e-06
2e-05
-2.50805e-10
1.99999e-05
-7.73143e-10
1.99998e-05
-1.31694e-09
1.99996e-05
-1.88402e-09
1.99995e-05
-2.4797e-09
1.99993e-05
-3.1099e-09
1.99991e-05
-3.7804e-09
1.99988e-05
-4.49675e-09
1.99986e-05
-5.26436e-09
1.99982e-05
-6.0885e-09
1.99979e-05
-6.97441e-09
1.99975e-05
-7.92734e-09
1.99971e-05
-8.95261e-09
1.99967e-05
-1.00556e-08
1.99962e-05
-1.1242e-08
1.99956e-05
-1.25173e-08
1.9995e-05
-1.38875e-08
1.99944e-05
-1.53587e-08
1.99937e-05
-1.6937e-08
1.9993e-05
-1.8629e-08
1.99921e-05
-2.04414e-08
1.99913e-05
-2.23811e-08
1.99903e-05
-2.44553e-08
1.99893e-05
-2.66713e-08
1.99882e-05
-2.9037e-08
1.9987e-05
-3.15601e-08
1.99857e-05
-3.4249e-08
1.99843e-05
-3.71121e-08
1.99828e-05
-4.0158e-08
1.99813e-05
-4.33959e-08
1.99796e-05
-4.68349e-08
1.99778e-05
-5.04847e-08
1.99758e-05
-5.4355e-08
1.99738e-05
-5.84559e-08
1.99716e-05
-6.27978e-08
1.99692e-05
-6.73913e-08
1.99667e-05
-7.22472e-08
1.99641e-05
-7.73766e-08
1.99613e-05
-8.27909e-08
1.99583e-05
-8.85017e-08
1.99551e-05
-9.45206e-08
1.99517e-05
-1.0086e-07
1.99482e-05
-1.07531e-07
1.99444e-05
-1.14547e-07
1.99404e-05
-1.21921e-07
1.99362e-05
-1.29663e-07
1.99317e-05
-1.37789e-07
1.9927e-05
-1.46309e-07
1.99221e-05
-1.55237e-07
1.99168e-05
-1.64585e-07
1.99113e-05
-1.74367e-07
1.99055e-05
-1.84594e-07
1.98994e-05
-1.95279e-07
1.98929e-05
-2.06434e-07
1.98862e-05
-2.18072e-07
1.98791e-05
-2.30203e-07
1.98717e-05
-2.42838e-07
1.98639e-05
-2.55989e-07
1.98557e-05
-2.69665e-07
1.98472e-05
-2.83876e-07
1.98382e-05
-2.9863e-07
1.98289e-05
-3.13935e-07
1.98192e-05
-3.29796e-07
1.9809e-05
-3.46221e-07
1.97984e-05
-3.63212e-07
1.97873e-05
-3.80773e-07
1.97758e-05
-3.98903e-07
1.97639e-05
-4.17603e-07
1.97515e-05
-4.36869e-07
1.97386e-05
-4.56696e-07
1.97252e-05
-4.77076e-07
1.97114e-05
-4.97999e-07
1.96972e-05
-5.19451e-07
1.96824e-05
-5.41416e-07
1.96672e-05
-5.63872e-07
1.96515e-05
-5.86796e-07
1.96354e-05
-6.10158e-07
1.96189e-05
-6.33926e-07
1.9602e-05
-6.5806e-07
1.95847e-05
-6.82517e-07
1.9567e-05
-7.07246e-07
1.95491e-05
-7.3219e-07
1.95308e-05
-7.57286e-07
1.95124e-05
-7.82461e-07
1.94938e-05
-8.07635e-07
1.9475e-05
-8.32717e-07
1.94563e-05
-8.57607e-07
1.94376e-05
-8.82191e-07
1.9419e-05
-9.06344e-07
1.94007e-05
-9.29924e-07
1.93828e-05
-9.52774e-07
1.93654e-05
-9.74717e-07
1.93487e-05
-9.95554e-07
1.93327e-05
-1.01506e-06
1.93178e-05
-1.03299e-06
1.93039e-05
-1.04906e-06
1.92914e-05
-1.06296e-06
1.92802e-05
-1.07429e-06
1.92705e-05
-1.08269e-06
-1.08787e-06
2e-05
-2.25412e-10
1.99999e-05
-7.05125e-10
1.99998e-05
-1.21377e-09
1.99997e-05
-1.75082e-09
1.99995e-05
-2.31899e-09
1.99993e-05
-2.92246e-09
1.99991e-05
-3.56595e-09
1.99989e-05
-4.25434e-09
1.99986e-05
-4.99261e-09
1.99983e-05
-5.7857e-09
1.9998e-05
-6.63863e-09
1.99976e-05
-7.55644e-09
1.99972e-05
-8.54427e-09
1.99967e-05
-9.60738e-09
1.99962e-05
-1.07511e-08
1.99957e-05
-1.19811e-08
1.99951e-05
-1.33029e-08
1.99945e-05
-1.47225e-08
1.99938e-05
-1.62461e-08
1.9993e-05
-1.78797e-08
1.99922e-05
-1.96301e-08
1.99914e-05
-2.15039e-08
1.99904e-05
-2.35082e-08
1.99894e-05
-2.565e-08
1.99883e-05
-2.79371e-08
1.99871e-05
-3.03769e-08
1.99858e-05
-3.29776e-08
1.99845e-05
-3.57474e-08
1.9983e-05
-3.86947e-08
1.99814e-05
-4.18284e-08
1.99798e-05
-4.51575e-08
1.9978e-05
-4.86914e-08
1.9976e-05
-5.24394e-08
1.9974e-05
-5.64116e-08
1.99718e-05
-6.0618e-08
1.99695e-05
-6.5069e-08
1.9967e-05
-6.9775e-08
1.99644e-05
-7.47471e-08
1.99616e-05
-7.99962e-08
1.99586e-05
-8.55337e-08
1.99555e-05
-9.13711e-08
1.99521e-05
-9.75201e-08
1.99486e-05
-1.03993e-07
1.99449e-05
-1.108e-07
1.99409e-05
-1.17956e-07
1.99367e-05
-1.25472e-07
1.99323e-05
-1.3336e-07
1.99276e-05
-1.41633e-07
1.99227e-05
-1.50304e-07
1.99175e-05
-1.59384e-07
1.9912e-05
-1.68887e-07
1.99062e-05
-1.78825e-07
1.99001e-05
-1.89209e-07
1.98938e-05
-2.00053e-07
1.98871e-05
-2.11368e-07
1.988e-05
-2.23164e-07
1.98726e-05
-2.35455e-07
1.98649e-05
-2.48249e-07
1.98568e-05
-2.61557e-07
1.98483e-05
-2.75389e-07
1.98394e-05
-2.89753e-07
1.98302e-05
-3.04657e-07
1.98205e-05
-3.20108e-07
1.98104e-05
-3.36112e-07
1.97998e-05
-3.52674e-07
1.97888e-05
-3.69796e-07
1.97774e-05
-3.87481e-07
1.97655e-05
-4.05728e-07
1.97532e-05
-4.24535e-07
1.97404e-05
-4.43899e-07
1.97271e-05
-4.63813e-07
1.97134e-05
-4.84269e-07
1.96992e-05
-5.05254e-07
1.96846e-05
-5.26754e-07
1.96694e-05
-5.48752e-07
1.96539e-05
-5.71225e-07
1.96379e-05
-5.94148e-07
1.96214e-05
-6.17491e-07
1.96046e-05
-6.4122e-07
1.95874e-05
-6.65295e-07
1.95698e-05
-6.89671e-07
1.95519e-05
-7.14296e-07
1.95337e-05
-7.39113e-07
1.95153e-05
-7.64055e-07
1.94967e-05
-7.8905e-07
1.9478e-05
-8.14016e-07
1.94593e-05
-8.3886e-07
1.94406e-05
-8.63478e-07
1.9422e-05
-8.87754e-07
1.94036e-05
-9.11557e-07
1.93856e-05
-9.3474e-07
1.9368e-05
-9.57135e-07
1.9351e-05
-9.78551e-07
1.93347e-05
-9.9877e-07
1.93193e-05
-1.01754e-06
1.93048e-05
-1.03457e-06
1.92913e-05
-1.04951e-06
1.9279e-05
-1.06192e-06
1.92676e-05
-1.07132e-06
-1.07729e-06
2e-05
-2.04028e-10
1.99999e-05
-6.44664e-10
1.99998e-05
-1.11856e-09
1.99997e-05
-1.6246e-09
1.99995e-05
-2.16406e-09
1.99994e-05
-2.73982e-09
1.99991e-05
-3.35562e-09
1.99989e-05
-4.01567e-09
1.99986e-05
-4.72441e-09
1.99983e-05
-5.48646e-09
1.9998e-05
-6.30654e-09
1.99976e-05
-7.18945e-09
1.99972e-05
-8.14015e-09
1.99968e-05
-9.16369e-09
1.99963e-05
-1.02653e-08
1.99958e-05
-1.14503e-08
1.99952e-05
-1.27242e-08
1.99946e-05
-1.40929e-08
1.99939e-05
-1.55621e-08
1.99931e-05
-1.7138e-08
1.99923e-05
-1.8827e-08
1.99915e-05
-2.06356e-08
1.99905e-05
-2.25706e-08
1.99895e-05
-2.4639e-08
1.99884e-05
-2.68481e-08
1.99873e-05
-2.92055e-08
1.9986e-05
-3.17188e-08
1.99847e-05
-3.43962e-08
1.99832e-05
-3.72459e-08
1.99817e-05
-4.02764e-08
1.998e-05
-4.34966e-08
1.99782e-05
-4.69155e-08
1.99763e-05
-5.05424e-08
1.99743e-05
-5.4387e-08
1.99721e-05
-5.84591e-08
1.99698e-05
-6.27687e-08
1.99674e-05
-6.73263e-08
1.99648e-05
-7.21424e-08
1.9962e-05
-7.72278e-08
1.99591e-05
-8.25935e-08
1.9956e-05
-8.82508e-08
1.99526e-05
-9.42112e-08
1.99491e-05
-1.00486e-07
1.99454e-05
-1.07088e-07
1.99415e-05
-1.14028e-07
1.99373e-05
-1.21318e-07
1.9933e-05
-1.28971e-07
1.99283e-05
-1.36999e-07
1.99234e-05
-1.45415e-07
1.99183e-05
-1.54229e-07
1.99128e-05
-1.63456e-07
1.99071e-05
-1.73106e-07
1.99011e-05
-1.83193e-07
1.98948e-05
-1.93727e-07
1.98881e-05
-2.04721e-07
1.98812e-05
-2.16186e-07
1.98738e-05
-2.28134e-07
1.98662e-05
-2.40574e-07
1.98581e-05
-2.53517e-07
1.98497e-05
-2.66973e-07
1.98409e-05
-2.8095e-07
1.98317e-05
-2.95456e-07
1.98221e-05
-3.105e-07
1.98121e-05
-3.26086e-07
1.98016e-05
-3.42221e-07
1.97907e-05
-3.58908e-07
1.97794e-05
-3.76149e-07
1.97676e-05
-3.93946e-07
1.97554e-05
-4.12297e-07
1.97427e-05
-4.312e-07
1.97295e-05
-4.5065e-07
1.97159e-05
-4.7064e-07
1.97018e-05
-4.91161e-07
1.96872e-05
-5.12198e-07
1.96722e-05
-5.33738e-07
1.96568e-05
-5.55761e-07
1.96409e-05
-5.78245e-07
1.96245e-05
-6.01163e-07
1.96078e-05
-6.24484e-07
1.95907e-05
-6.48174e-07
1.95732e-05
-6.72191e-07
1.95554e-05
-6.9649e-07
1.95373e-05
-7.21019e-07
1.9519e-05
-7.45717e-07
1.95004e-05
-7.7052e-07
1.94818e-05
-7.95351e-07
1.9463e-05
-8.20126e-07
1.94443e-05
-8.4475e-07
1.94257e-05
-8.69114e-07
1.94072e-05
-8.93097e-07
1.9389e-05
-9.16558e-07
1.93712e-05
-9.39335e-07
1.93539e-05
-9.61244e-07
1.93372e-05
-9.82066e-07
1.93212e-05
-1.00154e-06
1.9306e-05
-1.01936e-06
1.92916e-05
-1.03514e-06
1.92781e-05
-1.04837e-06
1.92652e-05
-1.05847e-06
-1.06502e-06
2e-05
-1.85498e-10
1.99999e-05
-5.90303e-10
1.99998e-05
-1.03069e-09
1.99997e-05
-1.50566e-09
1.99996e-05
-2.01583e-09
1.99994e-05
-2.5632e-09
1.99992e-05
-3.15075e-09
1.9999e-05
-3.78205e-09
1.99987e-05
-4.46107e-09
1.99984e-05
-5.19203e-09
1.99981e-05
-5.97933e-09
1.99977e-05
-6.82755e-09
1.99973e-05
-7.74139e-09
1.99969e-05
-8.72573e-09
1.99964e-05
-9.78558e-09
1.99959e-05
-1.09261e-08
1.99953e-05
-1.21527e-08
1.99947e-05
-1.34709e-08
1.9994e-05
-1.48865e-08
1.99933e-05
-1.64054e-08
1.99925e-05
-1.80337e-08
1.99916e-05
-1.97778e-08
1.99907e-05
-2.16443e-08
1.99897e-05
-2.36401e-08
1.99886e-05
-2.57722e-08
1.99875e-05
-2.8048e-08
1.99862e-05
-3.0475e-08
1.99849e-05
-3.3061e-08
1.99834e-05
-3.5814e-08
1.99819e-05
-3.87425e-08
1.99803e-05
-4.18549e-08
1.99785e-05
-4.51602e-08
1.99766e-05
-4.86673e-08
1.99746e-05
-5.23856e-08
1.99725e-05
-5.63248e-08
1.99702e-05
-6.04946e-08
1.99678e-05
-6.49052e-08
1.99652e-05
-6.95669e-08
1.99625e-05
-7.44901e-08
1.99596e-05
-7.96858e-08
1.99565e-05
-8.51649e-08
1.99532e-05
-9.09386e-08
1.99498e-05
-9.70182e-08
1.99461e-05
-1.03415e-07
1.99422e-05
-1.10142e-07
1.99381e-05
-1.17209e-07
1.99338e-05
-1.24629e-07
1.99292e-05
-1.32415e-07
1.99243e-05
-1.40577e-07
1.99192e-05
-1.49128e-07
1.99139e-05
-1.58081e-07
1.99082e-05
-1.67447e-07
1.99022e-05
-1.77238e-07
1.9896e-05
-1.87466e-07
1.98894e-05
-1.98143e-07
1.98825e-05
-2.09279e-07
1.98752e-05
-2.20887e-07
1.98676e-05
-2.32976e-07
1.98597e-05
-2.45557e-07
1.98514e-05
-2.5864e-07
1.98426e-05
-2.72233e-07
1.98335e-05
-2.86345e-07
1.9824e-05
-3.00984e-07
1.98141e-05
-3.16156e-07
1.98037e-05
-3.31867e-07
1.97929e-05
-3.48122e-07
1.97817e-05
-3.64923e-07
1.977e-05
-3.82273e-07
1.97579e-05
-4.00171e-07
1.97453e-05
-4.18616e-07
1.97323e-05
-4.37605e-07
1.97188e-05
-4.57132e-07
1.97048e-05
-4.77189e-07
1.96904e-05
-4.97765e-07
1.96755e-05
-5.18848e-07
1.96601e-05
-5.40421e-07
1.96444e-05
-5.62464e-07
1.96282e-05
-5.84955e-07
1.96115e-05
-6.07866e-07
1.95945e-05
-6.31167e-07
1.95772e-05
-6.5482e-07
1.95595e-05
-6.78785e-07
1.95415e-05
-7.03015e-07
1.95232e-05
-7.27456e-07
1.95047e-05
-7.52048e-07
1.94861e-05
-7.76723e-07
1.94674e-05
-8.01404e-07
1.94486e-05
-8.26001e-07
1.94299e-05
-8.50413e-07
1.94113e-05
-8.74525e-07
1.9393e-05
-8.98203e-07
1.93749e-05
-9.2129e-07
1.93573e-05
-9.436e-07
1.93402e-05
-9.64914e-07
1.93236e-05
-9.84962e-07
1.93076e-05
-1.00341e-06
1.92923e-05
-1.01984e-06
1.92777e-05
-1.0337e-06
1.92635e-05
-1.0443e-06
-1.05119e-06
2e-05
-1.69048e-10
1.99999e-05
-5.40927e-10
1.99999e-05
-9.49383e-10
1.99997e-05
-1.39385e-09
1.99996e-05
-1.87468e-09
1.99994e-05
-2.39336e-09
1.99992e-05
-2.95232e-09
1.9999e-05
-3.5546e-09
1.99987e-05
-4.20373e-09
1.99985e-05
-4.90356e-09
1.99981e-05
-5.65818e-09
1.99978e-05
-6.47189e-09
1.99974e-05
-7.34918e-09
1.9997e-05
-8.29469e-09
1.99965e-05
-9.31325e-09
1.9996e-05
-1.04099e-08
1.99954e-05
-1.15897e-08
1.99948e-05
-1.28581e-08
1.99941e-05
-1.42207e-08
1.99934e-05
-1.56832e-08
1.99926e-05
-1.72516e-08
1.99918e-05
-1.89321e-08
1.99909e-05
-2.07311e-08
1.99899e-05
-2.26552e-08
1.99888e-05
-2.47113e-08
1.99877e-05
-2.69066e-08
1.99865e-05
-2.92483e-08
1.99851e-05
-3.1744e-08
1.99837e-05
-3.44017e-08
1.99822e-05
-3.72293e-08
1.99806e-05
-4.02354e-08
1.99789e-05
-4.34283e-08
1.9977e-05
-4.6817e-08
1.9975e-05
-5.04106e-08
1.99729e-05
-5.42185e-08
1.99707e-05
-5.82502e-08
1.99683e-05
-6.25155e-08
1.99657e-05
-6.70245e-08
1.9963e-05
-7.17876e-08
1.99602e-05
-7.68152e-08
1.99571e-05
-8.21181e-08
1.99539e-05
-8.77072e-08
1.99505e-05
-9.35936e-08
1.99468e-05
-9.97886e-08
1.9943e-05
-1.06304e-07
1.99389e-05
-1.1315e-07
1.99347e-05
-1.2034e-07
1.99301e-05
-1.27886e-07
1.99254e-05
-1.35798e-07
1.99203e-05
-1.44089e-07
1.9915e-05
-1.5277e-07
1.99094e-05
-1.61855e-07
1.99035e-05
-1.71353e-07
1.98973e-05
-1.81278e-07
1.98908e-05
-1.91641e-07
1.9884e-05
-2.02452e-07
1.98768e-05
-2.13723e-07
1.98693e-05
-2.25465e-07
1.98615e-05
-2.37687e-07
1.98532e-05
-2.504e-07
1.98446e-05
-2.63614e-07
1.98356e-05
-2.77335e-07
1.98262e-05
-2.91573e-07
1.98164e-05
-3.06335e-07
1.98061e-05
-3.21626e-07
1.97955e-05
-3.37452e-07
1.97843e-05
-3.53817e-07
1.97728e-05
-3.70723e-07
1.97608e-05
-3.88171e-07
1.97483e-05
-4.06161e-07
1.97354e-05
-4.24691e-07
1.97221e-05
-4.43757e-07
1.97082e-05
-4.63353e-07
1.96939e-05
-4.83469e-07
1.96792e-05
-5.04096e-07
1.9664e-05
-5.25218e-07
1.96483e-05
-5.46821e-07
1.96322e-05
-5.68882e-07
1.96158e-05
-5.9138e-07
1.95989e-05
-6.14285e-07
1.95816e-05
-6.37567e-07
1.9564e-05
-6.61188e-07
1.95461e-05
-6.85107e-07
1.95279e-05
-7.09275e-07
1.95095e-05
-7.33639e-07
1.94909e-05
-7.58134e-07
1.94722e-05
-7.82689e-07
1.94534e-05
-8.07223e-07
1.94347e-05
-8.3164e-07
1.9416e-05
-8.55828e-07
1.93974e-05
-8.79659e-07
1.93791e-05
-9.02977e-07
1.93611e-05
-9.25598e-07
1.93435e-05
-9.47295e-07
1.93263e-05
-9.67789e-07
1.93096e-05
-9.86728e-07
1.92935e-05
-1.00366e-06
1.92777e-05
-1.01799e-06
1.92624e-05
-1.02896e-06
-1.036e-06
2e-05
-1.54184e-10
1.99999e-05
-4.95681e-10
1.99999e-05
-8.73907e-10
1.99998e-05
-1.28878e-09
1.99996e-05
-1.74064e-09
1.99995e-05
-2.2307e-09
1.99993e-05
-2.76098e-09
1.99991e-05
-3.33414e-09
1.99988e-05
-3.95334e-09
1.99985e-05
-4.62208e-09
1.99982e-05
-5.34414e-09
1.99979e-05
-6.12357e-09
1.99975e-05
-6.9646e-09
1.9997e-05
-7.87168e-09
1.99966e-05
-8.84942e-09
1.99961e-05
-9.90263e-09
1.99955e-05
-1.10363e-08
1.99949e-05
-1.22556e-08
1.99943e-05
-1.3566e-08
1.99936e-05
-1.4973e-08
1.99928e-05
-1.64823e-08
1.9992e-05
-1.81001e-08
1.99911e-05
-1.98325e-08
1.99901e-05
-2.16859e-08
1.9989e-05
-2.36671e-08
1.99879e-05
-2.5783e-08
1.99867e-05
-2.80406e-08
1.99854e-05
-3.04474e-08
1.9984e-05
-3.3011e-08
1.99825e-05
-3.57392e-08
1.99809e-05
-3.86403e-08
1.99792e-05
-4.17225e-08
1.99774e-05
-4.49944e-08
1.99755e-05
-4.8465e-08
1.99734e-05
-5.21432e-08
1.99712e-05
-5.60386e-08
1.99688e-05
-6.01605e-08
1.99663e-05
-6.4519e-08
1.99637e-05
-6.91239e-08
1.99608e-05
-7.39856e-08
1.99578e-05
-7.91145e-08
1.99546e-05
-8.45213e-08
1.99513e-05
-9.02169e-08
1.99477e-05
-9.62123e-08
1.99439e-05
-1.02519e-07
1.99399e-05
-1.09147e-07
1.99357e-05
-1.1611e-07
1.99312e-05
-1.23418e-07
1.99265e-05
-1.31083e-07
1.99215e-05
-1.39116e-07
1.99163e-05
-1.4753e-07
1.99108e-05
-1.56336e-07
1.99049e-05
-1.65546e-07
1.98988e-05
-1.75171e-07
1.98924e-05
-1.85223e-07
1.98857e-05
-1.95713e-07
1.98786e-05
-2.06651e-07
1.98712e-05
-2.18049e-07
1.98634e-05
-2.29917e-07
1.98553e-05
-2.42264e-07
1.98468e-05
-2.55101e-07
1.98379e-05
-2.68436e-07
1.98286e-05
-2.82277e-07
1.98189e-05
-2.96632e-07
1.98088e-05
-3.11507e-07
1.97982e-05
-3.26909e-07
1.97872e-05
-3.4284e-07
1.97758e-05
-3.59306e-07
1.9764e-05
-3.76307e-07
1.97516e-05
-3.93846e-07
1.97389e-05
-4.1192e-07
1.97256e-05
-4.30527e-07
1.9712e-05
-4.49663e-07
1.96978e-05
-4.69321e-07
1.96832e-05
-4.89492e-07
1.96681e-05
-5.10164e-07
1.96526e-05
-5.31323e-07
1.96367e-05
-5.52953e-07
1.96204e-05
-5.75032e-07
1.96036e-05
-5.97537e-07
1.95865e-05
-6.20439e-07
1.9569e-05
-6.43706e-07
1.95512e-05
-6.67301e-07
1.95331e-05
-6.91179e-07
1.95148e-05
-7.15292e-07
1.94962e-05
-7.39581e-07
1.94775e-05
-7.6398e-07
1.94587e-05
-7.88412e-07
1.94398e-05
-8.12787e-07
1.9421e-05
-8.36997e-07
1.94023e-05
-8.60915e-07
1.93837e-05
-8.84388e-07
1.93653e-05
-9.07229e-07
1.93472e-05
-9.29207e-07
1.93295e-05
-9.50032e-07
1.93121e-05
-9.69334e-07
1.9295e-05
-9.86638e-07
1.92784e-05
-1.00132e-06
1.9262e-05
-1.01257e-06
-1.01959e-06
2e-05
-1.4059e-10
1.99999e-05
-4.53925e-10
1.99999e-05
-8.03612e-10
1.99998e-05
-1.19002e-09
1.99996e-05
-1.61358e-09
1.99995e-05
-2.07535e-09
1.99993e-05
-2.57713e-09
1.99991e-05
-3.12128e-09
1.99989e-05
-3.71064e-09
1.99986e-05
-4.34841e-09
1.99983e-05
-5.03812e-09
1.99979e-05
-5.78354e-09
1.99976e-05
-6.58867e-09
1.99971e-05
-7.45775e-09
1.99967e-05
-8.39518e-09
1.99962e-05
-9.40558e-09
1.99957e-05
-1.04937e-08
1.99951e-05
-1.16647e-08
1.99944e-05
-1.29236e-08
1.99937e-05
-1.42759e-08
1.9993e-05
-1.57271e-08
1.99921e-05
-1.72831e-08
1.99913e-05
-1.895e-08
1.99903e-05
-2.07338e-08
1.99893e-05
-2.26413e-08
1.99882e-05
-2.4679e-08
1.9987e-05
-2.68538e-08
1.99857e-05
-2.9173e-08
1.99844e-05
-3.16439e-08
1.99829e-05
-3.42743e-08
1.99813e-05
-3.70719e-08
1.99796e-05
-4.0045e-08
1.99779e-05
-4.32019e-08
1.99759e-05
-4.65512e-08
1.99739e-05
-5.01018e-08
1.99717e-05
-5.38627e-08
1.99694e-05
-5.78434e-08
1.99669e-05
-6.20533e-08
1.99643e-05
-6.65023e-08
1.99615e-05
-7.12004e-08
1.99586e-05
-7.61577e-08
1.99554e-05
-8.13848e-08
1.99521e-05
-8.68922e-08
1.99486e-05
-9.26907e-08
1.99449e-05
-9.87912e-08
1.99409e-05
-1.05205e-07
1.99368e-05
-1.11943e-07
1.99324e-05
-1.19017e-07
1.99277e-05
-1.26438e-07
1.99228e-05
-1.34217e-07
1.99176e-05
-1.42367e-07
1.99122e-05
-1.50898e-07
1.99065e-05
-1.59823e-07
1.99005e-05
-1.69151e-07
1.98941e-05
-1.78896e-07
1.98875e-05
-1.89068e-07
1.98805e-05
-1.99678e-07
1.98732e-05
-2.10736e-07
1.98655e-05
-2.22253e-07
1.98575e-05
-2.34239e-07
1.98491e-05
-2.46704e-07
1.98403e-05
-2.59656e-07
1.98312e-05
-2.73105e-07
1.98216e-05
-2.87057e-07
1.98116e-05
-3.0152e-07
1.98012e-05
-3.165e-07
1.97904e-05
-3.32003e-07
1.97791e-05
-3.48032e-07
1.97674e-05
-3.6459e-07
1.97552e-05
-3.8168e-07
1.97426e-05
-3.99301e-07
1.97295e-05
-4.17452e-07
1.9716e-05
-4.3613e-07
1.9702e-05
-4.5533e-07
1.96875e-05
-4.75045e-07
1.96726e-05
-4.95266e-07
1.96573e-05
-5.15981e-07
1.96415e-05
-5.37175e-07
1.96253e-05
-5.58831e-07
1.96087e-05
-5.80928e-07
1.95917e-05
-6.03442e-07
1.95743e-05
-6.26343e-07
1.95566e-05
-6.49598e-07
1.95386e-05
-6.73168e-07
1.95203e-05
-6.97007e-07
1.95018e-05
-7.21063e-07
1.94831e-05
-7.45273e-07
1.94643e-05
-7.69564e-07
1.94453e-05
-7.93849e-07
1.94264e-05
-8.18025e-07
1.94074e-05
-8.41966e-07
1.93885e-05
-8.6552e-07
1.93698e-05
-8.88496e-07
1.93513e-05
-9.10659e-07
1.93329e-05
-9.3171e-07
1.93149e-05
-9.51269e-07
1.92971e-05
-9.6884e-07
1.92795e-05
-9.83775e-07
1.92622e-05
-9.95238e-07
-1.00211e-06
2e-05
-1.28053e-10
1.99999e-05
-4.15187e-10
1.99999e-05
-7.37959e-10
1.99998e-05
-1.09712e-09
1.99997e-05
-1.49322e-09
1.99995e-05
-1.92729e-09
1.99993e-05
-2.40097e-09
1.99991e-05
-2.91639e-09
1.99989e-05
-3.47616e-09
1.99986e-05
-4.08323e-09
1.99983e-05
-4.74087e-09
1.9998e-05
-5.45262e-09
1.99976e-05
-6.22227e-09
1.99972e-05
-7.05382e-09
1.99968e-05
-7.95149e-09
1.99963e-05
-8.91969e-09
1.99958e-05
-9.96304e-09
1.99952e-05
-1.10864e-08
1.99946e-05
-1.22946e-08
1.99939e-05
-1.35931e-08
1.99932e-05
-1.49872e-08
1.99924e-05
-1.64825e-08
1.99915e-05
-1.80849e-08
1.99906e-05
-1.98004e-08
1.99895e-05
-2.16353e-08
1.99885e-05
-2.35961e-08
1.99873e-05
-2.56895e-08
1.9986e-05
-2.79225e-08
1.99847e-05
-3.03024e-08
1.99833e-05
-3.28364e-08
1.99817e-05
-3.55323e-08
1.99801e-05
-3.8398e-08
1.99783e-05
-4.14417e-08
1.99764e-05
-4.46716e-08
1.99744e-05
-4.80965e-08
1.99723e-05
-5.17252e-08
1.997e-05
-5.55667e-08
1.99676e-05
-5.96304e-08
1.9965e-05
-6.39259e-08
1.99623e-05
-6.84628e-08
1.99594e-05
-7.32511e-08
1.99563e-05
-7.83011e-08
1.9953e-05
-8.3623e-08
1.99496e-05
-8.92274e-08
1.99459e-05
-9.51251e-08
1.9942e-05
-1.01327e-07
1.99379e-05
-1.07843e-07
1.99336e-05
-1.14686e-07
1.9929e-05
-1.21867e-07
1.99242e-05
-1.29396e-07
1.99191e-05
-1.37284e-07
1.99138e-05
-1.45545e-07
1.99081e-05
-1.54187e-07
1.99022e-05
-1.63224e-07
1.9896e-05
-1.72666e-07
1.98894e-05
-1.82524e-07
1.98826e-05
-1.92809e-07
1.98754e-05
-2.03532e-07
1.98678e-05
-2.14702e-07
1.98599e-05
-2.26331e-07
1.98516e-05
-2.38428e-07
1.9843e-05
-2.51002e-07
1.98339e-05
-2.64062e-07
1.98245e-05
-2.77616e-07
1.98146e-05
-2.91671e-07
1.98044e-05
-3.06235e-07
1.97937e-05
-3.21312e-07
1.97826e-05
-3.36908e-07
1.9771e-05
-3.53026e-07
1.9759e-05
-3.6967e-07
1.97465e-05
-3.8684e-07
1.97336e-05
-4.04537e-07
1.97202e-05
-4.22759e-07
1.97064e-05
-4.41502e-07
1.96921e-05
-4.60762e-07
1.96774e-05
-4.8053e-07
1.96622e-05
-5.00798e-07
1.96466e-05
-5.21553e-07
1.96305e-05
-5.4278e-07
1.96141e-05
-5.64463e-07
1.95972e-05
-5.86578e-07
1.958e-05
-6.091e-07
1.95624e-05
-6.32e-07
1.95444e-05
-6.55242e-07
1.95262e-05
-6.78785e-07
1.95077e-05
-7.02579e-07
1.9489e-05
-7.26566e-07
1.94701e-05
-7.50676e-07
1.94511e-05
-7.74825e-07
1.9432e-05
-7.98912e-07
1.94128e-05
-8.22814e-07
1.93937e-05
-8.46376e-07
1.93746e-05
-8.69407e-07
1.93556e-05
-8.91667e-07
1.93368e-05
-9.12851e-07
1.93181e-05
-9.32569e-07
1.92995e-05
-9.50315e-07
1.92812e-05
-9.65427e-07
1.9263e-05
-9.77044e-07
-9.83786e-07
2e-05
-1.16427e-10
2e-05
-3.79108e-10
1.99999e-05
-6.76506e-10
1.99998e-05
-1.00968e-09
1.99997e-05
-1.37931e-09
1.99995e-05
-1.78642e-09
1.99994e-05
-2.23255e-09
1.99992e-05
-2.71971e-09
1.9999e-05
-3.25029e-09
1.99987e-05
-3.82703e-09
1.99984e-05
-4.453e-09
1.99981e-05
-5.13151e-09
1.99977e-05
-5.86615e-09
1.99973e-05
-6.66072e-09
1.99969e-05
-7.51922e-09
1.99964e-05
-8.44589e-09
1.99959e-05
-9.44516e-09
1.99954e-05
-1.05216e-08
1.99947e-05
-1.16802e-08
1.99941e-05
-1.29258e-08
1.99933e-05
-1.42637e-08
1.99926e-05
-1.56994e-08
1.99917e-05
-1.72384e-08
1.99908e-05
-1.88867e-08
1.99898e-05
-2.06504e-08
1.99888e-05
-2.25357e-08
1.99876e-05
-2.45492e-08
1.99864e-05
-2.66975e-08
1.99851e-05
-2.89878e-08
1.99837e-05
-3.14272e-08
1.99822e-05
-3.40232e-08
1.99805e-05
-3.67833e-08
1.99788e-05
-3.97157e-08
1.9977e-05
-4.28283e-08
1.9975e-05
-4.61296e-08
1.99729e-05
-4.96281e-08
1.99707e-05
-5.33328e-08
1.99683e-05
-5.72527e-08
1.99658e-05
-6.1397e-08
1.99631e-05
-6.57753e-08
1.99602e-05
-7.03974e-08
1.99572e-05
-7.5273e-08
1.9954e-05
-8.04123e-08
1.99506e-05
-8.58257e-08
1.9947e-05
-9.15235e-08
1.99432e-05
-9.75164e-08
1.99392e-05
-1.03815e-07
1.99349e-05
-1.10431e-07
1.99304e-05
-1.17374e-07
1.99257e-05
-1.24656e-07
1.99207e-05
-1.32288e-07
1.99154e-05
-1.4028e-07
1.99099e-05
-1.48646e-07
1.9904e-05
-1.57394e-07
1.98979e-05
-1.66537e-07
1.98915e-05
-1.76085e-07
1.98847e-05
-1.8605e-07
1.98776e-05
-1.96441e-07
1.98702e-05
-2.0727e-07
1.98624e-05
-2.18546e-07
1.98542e-05
-2.3028e-07
1.98457e-05
-2.4248e-07
1.98368e-05
-2.55155e-07
1.98275e-05
-2.68315e-07
1.98178e-05
-2.81967e-07
1.98077e-05
-2.96117e-07
1.97972e-05
-3.10773e-07
1.97862e-05
-3.2594e-07
1.97748e-05
-3.41622e-07
1.97629e-05
-3.57823e-07
1.97506e-05
-3.74545e-07
1.97379e-05
-3.91789e-07
1.97247e-05
-4.09556e-07
1.9711e-05
-4.27843e-07
1.96969e-05
-4.46646e-07
1.96823e-05
-4.65961e-07
1.96673e-05
-4.85779e-07
1.96519e-05
-5.0609e-07
1.9636e-05
-5.26883e-07
1.96196e-05
-5.48142e-07
1.96029e-05
-5.69848e-07
1.95858e-05
-5.91979e-07
1.95683e-05
-6.14508e-07
1.95505e-05
-6.37402e-07
1.95323e-05
-6.60624e-07
1.95139e-05
-6.84128e-07
1.94951e-05
-7.07858e-07
1.94762e-05
-7.31747e-07
1.94571e-05
-7.55715e-07
1.94379e-05
-7.79661e-07
1.94185e-05
-8.03462e-07
1.93991e-05
-8.26965e-07
1.93797e-05
-8.49977e-07
1.93602e-05
-8.72254e-07
1.93409e-05
-8.93487e-07
1.93216e-05
-9.13278e-07
1.93024e-05
-9.31117e-07
1.92833e-05
-9.46335e-07
1.92643e-05
-9.58075e-07
-9.64786e-07
2e-05
-1.05606e-10
2e-05
-3.45419e-10
1.99999e-05
-6.18898e-10
1.99998e-05
-9.2734e-10
1.99997e-05
-1.27154e-09
1.99996e-05
-1.65255e-09
1.99994e-05
-2.07186e-09
1.99992e-05
-2.53134e-09
1.9999e-05
-3.03326e-09
1.99988e-05
-3.58018e-09
1.99985e-05
-4.17497e-09
1.99982e-05
-4.82077e-09
1.99978e-05
-5.52094e-09
1.99974e-05
-6.27912e-09
1.9997e-05
-7.09911e-09
1.99966e-05
-7.98497e-09
1.99961e-05
-8.94093e-09
1.99955e-05
-9.97143e-09
1.99949e-05
-1.10811e-08
1.99943e-05
-1.22748e-08
1.99936e-05
-1.35576e-08
1.99928e-05
-1.49348e-08
1.9992e-05
-1.64117e-08
1.99911e-05
-1.79941e-08
1.99901e-05
-1.96879e-08
1.99891e-05
-2.14991e-08
1.9988e-05
-2.34341e-08
1.99868e-05
-2.54994e-08
1.99855e-05
-2.77018e-08
1.99841e-05
-3.00483e-08
1.99826e-05
-3.25461e-08
1.9981e-05
-3.52026e-08
1.99793e-05
-3.80256e-08
1.99775e-05
-4.10229e-08
1.99756e-05
-4.42028e-08
1.99736e-05
-4.75735e-08
1.99714e-05
-5.11437e-08
1.9969e-05
-5.49222e-08
1.99666e-05
-5.8918e-08
1.99639e-05
-6.31404e-08
1.99611e-05
-6.75988e-08
1.99582e-05
-7.2303e-08
1.9955e-05
-7.72627e-08
1.99517e-05
-8.24881e-08
1.99481e-05
-8.79893e-08
1.99444e-05
-9.37767e-08
1.99404e-05
-9.98608e-08
1.99363e-05
-1.06252e-07
1.99319e-05
-1.12962e-07
1.99272e-05
-1.20001e-07
1.99223e-05
-1.27379e-07
1.99171e-05
-1.35109e-07
1.99117e-05
-1.432e-07
1.99059e-05
-1.51665e-07
1.98999e-05
-1.60513e-07
1.98936e-05
-1.69756e-07
1.98869e-05
-1.79404e-07
1.988e-05
-1.89469e-07
1.98727e-05
-1.9996e-07
1.9865e-05
-2.10888e-07
1.9857e-05
-2.22262e-07
1.98486e-05
-2.34093e-07
1.98398e-05
-2.46389e-07
1.98307e-05
-2.59159e-07
1.98211e-05
-2.72411e-07
1.98112e-05
-2.86152e-07
1.98008e-05
-3.00391e-07
1.979e-05
-3.15131e-07
1.97787e-05
-3.3038e-07
1.9767e-05
-3.46141e-07
1.97549e-05
-3.62418e-07
1.97423e-05
-3.79212e-07
1.97293e-05
-3.96524e-07
1.97158e-05
-4.14355e-07
1.97019e-05
-4.32702e-07
1.96875e-05
-4.5156e-07
1.96726e-05
-4.70925e-07
1.96573e-05
-4.90789e-07
1.96416e-05
-5.11141e-07
1.96254e-05
-5.31968e-07
1.96088e-05
-5.53254e-07
1.95918e-05
-5.7498e-07
1.95744e-05
-5.97121e-07
1.95567e-05
-6.19648e-07
1.95386e-05
-6.42525e-07
1.95201e-05
-6.6571e-07
1.95014e-05
-6.89149e-07
1.94825e-05
-7.12779e-07
1.94633e-05
-7.36521e-07
1.94439e-05
-7.60275e-07
1.94243e-05
-7.8392e-07
1.94047e-05
-8.07302e-07
1.93849e-05