/*--------------------------------*- C++ -*----------------------------------*\
  =========                 |
  \\      /  F ield         | OpenFOAM: The Open Source CFD Toolbox
   \\    /   O peration     | Website:  https://openfoam.org
    \\  /    A nd           | Version:  11
     \\/     M anipulation  |
\*---------------------------------------------------------------------------*/
FoamFile
{
    format      ascii;
    class       volScalarField;
    location    "1596";
    object      p;
}
// * * * * * * * * * * * * * * * * * * * * * * * * * * * * * * * * * * * * * //

dimensions      [0 2 -2 0 0 0 0];

internalField   nonuniform List<scalar> 
10000
(
1.45006e-14
1.41009e-14
1.45969e-14
1.57048e-14
1.69991e-14
1.83825e-14
1.98463e-14
2.13878e-14
2.30065e-14
2.47048e-14
2.64873e-14
2.83591e-14
3.03257e-14
3.2393e-14
3.45671e-14
3.68539e-14
3.92599e-14
4.17914e-14
4.44549e-14
4.7257e-14
5.02047e-14
5.33047e-14
5.65642e-14
5.99902e-14
6.35903e-14
6.73718e-14
7.13424e-14
7.55098e-14
7.98819e-14
8.44666e-14
8.9272e-14
9.43062e-14
9.95777e-14
1.05094e-13
1.10865e-13
1.16898e-13
1.23201e-13
1.29783e-13
1.36652e-13
1.43816e-13
1.51284e-13
1.59063e-13
1.6716e-13
1.75583e-13
1.8434e-13
1.93436e-13
2.02878e-13
2.12672e-13
2.22822e-13
2.33333e-13
2.44208e-13
2.55451e-13
2.67062e-13
2.79042e-13
2.9139e-13
3.04105e-13
3.17181e-13
3.30613e-13
3.44395e-13
3.58514e-13
3.7296e-13
3.87717e-13
4.02767e-13
4.18088e-13
4.33654e-13
4.49437e-13
4.65402e-13
4.81509e-13
4.97714e-13
5.13965e-13
5.30205e-13
5.46366e-13
5.62374e-13
5.78145e-13
5.93583e-13
6.08581e-13
6.23019e-13
6.36761e-13
6.49655e-13
6.61531e-13
6.72195e-13
6.81433e-13
6.89003e-13
6.94632e-13
6.98016e-13
6.98808e-13
6.96621e-13
6.91014e-13
6.81486e-13
6.67465e-13
6.48287e-13
6.2318e-13
5.91194e-13
5.50983e-13
5.00613e-13
4.40456e-13
3.76319e-13
2.9403e-13
1.65979e-13
1.23564e-14
2.68817e-14
2.52852e-14
2.42827e-14
2.46376e-14
2.55962e-14
2.68562e-14
2.83359e-14
2.9993e-14
3.18008e-14
3.37454e-14
3.58212e-14
3.80268e-14
4.03637e-14
4.28348e-14
4.54446e-14
4.8198e-14
5.11008e-14
5.41593e-14
5.73798e-14
6.07695e-14
6.43356e-14
6.80855e-14
7.2027e-14
7.6168e-14
8.05168e-14
8.50816e-14
8.98709e-14
9.48932e-14
1.00158e-13
1.05673e-13
1.11448e-13
1.17492e-13
1.23814e-13
1.30423e-13
1.37329e-13
1.44541e-13
1.52067e-13
1.59918e-13
1.68101e-13
1.76625e-13
1.855e-13
1.94733e-13
2.04332e-13
2.14304e-13
2.24658e-13
2.35399e-13
2.46532e-13
2.58064e-13
2.69998e-13
2.82339e-13
2.95087e-13
3.08245e-13
3.21812e-13
3.35786e-13
3.50163e-13
3.6494e-13
3.80108e-13
3.95657e-13
4.11576e-13
4.27849e-13
4.44459e-13
4.61383e-13
4.78595e-13
4.96067e-13
5.13764e-13
5.31645e-13
5.49666e-13
5.67774e-13
5.8591e-13
6.04007e-13
6.2199e-13
6.39774e-13
6.57262e-13
6.74346e-13
6.90905e-13
7.06803e-13
7.21888e-13
7.35987e-13
7.48911e-13
7.60443e-13
7.70345e-13
7.78345e-13
7.84143e-13
7.87399e-13
7.87732e-13
7.84714e-13
7.77861e-13
7.66626e-13
7.50386e-13
7.28431e-13
6.99942e-13
6.63975e-13
6.19406e-13
5.64799e-13
4.9853e-13
4.20698e-13
3.30604e-13
2.08398e-13
3.19769e-14
-1.1438e-13
3.24865e-14
3.02155e-14
2.82229e-14
2.76388e-14
2.77998e-14
2.83771e-14
2.92607e-14
3.03857e-14
3.1706e-14
3.31931e-14
3.48305e-14
3.66085e-14
3.85214e-14
4.05671e-14
4.27456e-14
4.5058e-14
4.75069e-14
5.00958e-14
5.28284e-14
5.57096e-14
5.87441e-14
6.19374e-14
6.52952e-14
6.88232e-14
7.25276e-14
7.64148e-14
8.04912e-14
8.47636e-14
8.92384e-14
9.39227e-14
9.88234e-14
1.03947e-13
1.09301e-13
1.14893e-13
1.20729e-13
1.26815e-13
1.3316e-13
1.39769e-13
1.4665e-13
1.53807e-13
1.61249e-13
1.68979e-13
1.77004e-13
1.85328e-13
1.93956e-13
2.02893e-13
2.1214e-13
2.21701e-13
2.31578e-13
2.41771e-13
2.5228e-13
2.63104e-13
2.74241e-13
2.85685e-13
2.97432e-13
3.09475e-13
3.21803e-13
3.34406e-13
3.4727e-13
3.60378e-13
3.73712e-13
3.87247e-13
4.00959e-13
4.14818e-13
4.28788e-13
4.42832e-13
4.56905e-13
4.70956e-13
4.84929e-13
4.9876e-13
5.12378e-13
5.25703e-13
5.38645e-13
5.51102e-13
5.62963e-13
5.74102e-13
5.84377e-13
5.93634e-13
6.01695e-13
6.08367e-13
6.1343e-13
6.16641e-13
6.17727e-13
6.16383e-13
6.12268e-13
6.04999e-13
5.94145e-13
5.79221e-13
5.59676e-13
5.34888e-13
5.04147e-13
4.66641e-13
4.21434e-13
3.67401e-13
3.03341e-13
2.28897e-13
1.43068e-13
3.0765e-14
-1.35176e-13
-2.31169e-13
3.71961e-14
3.47195e-14
3.25271e-14
3.15757e-14
3.13406e-14
3.15546e-14
3.21166e-14
3.29584e-14
3.40283e-14
3.52916e-14
3.67259e-14
3.83165e-14
4.00536e-14
4.19318e-14
4.39479e-14
4.61007e-14
4.8391e-14
5.08201e-14
5.33904e-14
5.61054e-14
5.89684e-14
6.19838e-14
6.51559e-14
6.84898e-14
7.19905e-14
7.56631e-14
7.95134e-14
8.35468e-14
8.77692e-14
9.21863e-14
9.6804e-14
1.01628e-13
1.06665e-13
1.1192e-13
1.17399e-13
1.23108e-13
1.29053e-13
1.35238e-13
1.4167e-13
1.48352e-13
1.55291e-13
1.6249e-13
1.69953e-13
1.77683e-13
1.85684e-13
1.93958e-13
2.02507e-13
2.11331e-13
2.20431e-13
2.29806e-13
2.39453e-13
2.49369e-13
2.59551e-13
2.69992e-13
2.80685e-13
2.91619e-13
3.02785e-13
3.14168e-13
3.25752e-13
3.37519e-13
3.49448e-13
3.61513e-13
3.73687e-13
3.85937e-13
3.98227e-13
4.10515e-13
4.22754e-13
4.34894e-13
4.46874e-13
4.5863e-13
4.70087e-13
4.81164e-13
4.91769e-13
5.018e-13
5.11142e-13
5.19671e-13
5.27243e-13
5.33703e-13
5.38876e-13
5.42567e-13
5.4456e-13
5.44616e-13
5.42464e-13
5.37808e-13
5.30314e-13
5.19609e-13
5.05278e-13
4.86855e-13
4.63815e-13
4.35569e-13
4.01455e-13
3.60723e-13
3.12519e-13
2.55836e-13
1.89605e-13
1.13329e-13
2.59179e-14
-8.66081e-14
-2.47018e-13
-3.18968e-13
4.11292e-14
3.86794e-14
3.65235e-14
3.54326e-14
3.49901e-14
3.4991e-14
3.5353e-14
3.60134e-14
3.69218e-14
3.80422e-14
3.93497e-14
4.08267e-14
4.24615e-14
4.42461e-14
4.61754e-14
4.82466e-14
5.04588e-14
5.28121e-14
5.53077e-14
5.79478e-14
6.07352e-14
6.36731e-14
6.6765e-14
7.00152e-14
7.3428e-14
7.7008e-14
8.07599e-14
8.46886e-14
8.87992e-14
9.30967e-14
9.75863e-14
1.02273e-13
1.07162e-13
1.12259e-13
1.17568e-13
1.23094e-13
1.28843e-13
1.34818e-13
1.41023e-13
1.47464e-13
1.54143e-13
1.61064e-13
1.6823e-13
1.75643e-13
1.83304e-13
1.91214e-13
1.99375e-13
2.07786e-13
2.16445e-13
2.25349e-13
2.34496e-13
2.4388e-13
2.53496e-13
2.63335e-13
2.73388e-13
2.83644e-13
2.9409e-13
3.0471e-13
3.15487e-13
3.26398e-13
3.37421e-13
3.48528e-13
3.59689e-13
3.70869e-13
3.82029e-13
3.93125e-13
4.04107e-13
4.14921e-13
4.25505e-13
4.3579e-13
4.457e-13
4.55149e-13
4.64043e-13
4.72277e-13
4.79734e-13
4.86285e-13
4.91785e-13
4.96075e-13
4.98978e-13
5.00299e-13
4.9982e-13
4.97299e-13
4.92471e-13
4.85037e-13
4.74669e-13
4.61001e-13
4.43627e-13
4.22094e-13
3.959e-13
3.64485e-13
3.27225e-13
2.83427e-13
2.32311e-13
1.72974e-13
1.04492e-13
2.65696e-14
-6.16146e-14
-1.74228e-13
-3.32746e-13
-3.88015e-13
4.43021e-14
4.19715e-14
3.98998e-14
3.87468e-14
3.81727e-14
3.80199e-14
3.82241e-14
3.87315e-14
3.94956e-14
4.04819e-14
4.16651e-14
4.30266e-14
4.45532e-14
4.62355e-14
4.80671e-14
5.00435e-14
5.21628e-14
5.44239e-14
5.6827e-14
5.93734e-14
6.20648e-14
6.49036e-14
6.78926e-14
7.10353e-14
7.43352e-14
7.77962e-14
8.14221e-14
8.52174e-14
8.91861e-14
9.33327e-14
9.76615e-14
1.02177e-13
1.06883e-13
1.11785e-13
1.16886e-13
1.2219e-13
1.27702e-13
1.33424e-13
1.3936e-13
1.45514e-13
1.51887e-13
1.58483e-13
1.65301e-13
1.72345e-13
1.79614e-13
1.87108e-13
1.94826e-13
2.02767e-13
2.10927e-13
2.19304e-13
2.27891e-13
2.36682e-13
2.4567e-13
2.54846e-13
2.64198e-13
2.73713e-13
2.83376e-13
2.93171e-13
3.03076e-13
3.1307e-13
3.23127e-13
3.33217e-13
3.43307e-13
3.53362e-13
3.6334e-13
3.73194e-13
3.82873e-13
3.92321e-13
4.01473e-13
4.10258e-13
4.18599e-13
4.26408e-13
4.33589e-13
4.40035e-13
4.45628e-13
4.50238e-13
4.5372e-13
4.55914e-13
4.56644e-13
4.55715e-13
4.52913e-13
4.48e-13
4.40714e-13
4.30765e-13
4.17834e-13
4.01569e-13
3.81581e-13
3.57442e-13
3.2868e-13
2.94776e-13
2.55162e-13
2.09216e-13
1.56257e-13
9.5502e-14
2.62118e-14
-5.157e-14
-1.38191e-13
-2.48985e-13
-4.10124e-13
-4.43426e-13
4.6936e-14
4.47476e-14
4.27796e-14
4.16115e-14
4.09587e-14
4.06979e-14
4.07803e-14
4.11611e-14
4.17998e-14
4.26645e-14
4.37308e-14
4.49802e-14
4.63989e-14
4.79765e-14
4.97058e-14
5.15815e-14
5.36005e-14
5.57609e-14
5.80618e-14
6.05039e-14
6.30879e-14
6.58156e-14
6.86889e-14
7.17107e-14
7.48834e-14
7.82106e-14
8.16952e-14
8.53408e-14
8.91511e-14
9.31295e-14
9.72797e-14
1.01605e-13
1.0611e-13
1.10797e-13
1.1567e-13
1.20731e-13
1.25985e-13
1.31433e-13
1.37078e-13
1.42922e-13
1.48966e-13
1.55213e-13
1.61661e-13
1.68312e-13
1.75165e-13
1.82218e-13
1.89469e-13
1.96915e-13
2.04553e-13
2.12376e-13
2.2038e-13
2.28555e-13
2.36892e-13
2.45382e-13
2.54011e-13
2.62764e-13
2.71626e-13
2.80577e-13
2.89596e-13
2.98657e-13
3.07735e-13
3.16798e-13
3.25812e-13
3.34738e-13
3.43533e-13
3.52151e-13
3.60537e-13
3.68633e-13
3.76374e-13
3.83689e-13
3.90497e-13
3.9671e-13
4.02232e-13
4.06956e-13
4.10763e-13
4.13523e-13
4.15092e-13
4.15314e-13
4.14014e-13
4.11e-13
4.06064e-13
3.98974e-13
3.89476e-13
3.77293e-13
3.62118e-13
3.43618e-13
3.21428e-13
2.95148e-13
2.64344e-13
2.28547e-13
1.87249e-13
1.39911e-13
8.59538e-14
2.47267e-14
-4.43325e-14
-1.20814e-13
-2.04542e-13
-3.12474e-13
-4.78699e-13
-4.8872e-13
4.91845e-14
4.71374e-14
4.52788e-14
4.41256e-14
4.34322e-14
4.30998e-14
4.30919e-14
4.33723e-14
4.39061e-14
4.4665e-14
4.56262e-14
4.67721e-14
4.8089e-14
4.95661e-14
5.11955e-14
5.29716e-14
5.48904e-14
5.69493e-14
5.91468e-14
6.14825e-14
6.39568e-14
6.65707e-14
6.93253e-14
7.22227e-14
7.5265e-14
7.84547e-14
8.17943e-14
8.52868e-14
8.89349e-14
9.27414e-14
9.67094e-14
1.00842e-13
1.05141e-13
1.0961e-13
1.14252e-13
1.19068e-13
1.24061e-13
1.29232e-13
1.34584e-13
1.40117e-13
1.45831e-13
1.51728e-13
1.57806e-13
1.64065e-13
1.70503e-13
1.77117e-13
1.83905e-13
1.90861e-13
1.97981e-13
2.05259e-13
2.12686e-13
2.20254e-13
2.27952e-13
2.35768e-13
2.43688e-13
2.51697e-13
2.59775e-13
2.67904e-13
2.7606e-13
2.84216e-13
2.92345e-13
3.00415e-13
3.08389e-13
3.16228e-13
3.23887e-13
3.31318e-13
3.38467e-13
3.45274e-13
3.51673e-13
3.57592e-13
3.6295e-13
3.67659e-13
3.71623e-13
3.74734e-13
3.76876e-13
3.7792e-13
3.77724e-13
3.76135e-13
3.72982e-13
3.68079e-13
3.61223e-13
3.52192e-13
3.40742e-13
3.26609e-13
3.09505e-13
2.89115e-13
2.65101e-13
2.37096e-13
2.04706e-13
1.67512e-13
1.25071e-13
7.69253e-14
2.25969e-14
-3.84399e-14
-1.06582e-13
-1.81077e-13
-2.61199e-13
-3.65207e-13
-5.35029e-13
-5.258e-13
5.113e-14
4.9215e-14
4.74625e-14
4.63404e-14
4.5631e-14
4.52526e-14
4.51785e-14
4.53796e-14
4.58261e-14
4.64932e-14
4.73604e-14
4.84113e-14
4.96325e-14
5.10135e-14
5.2546e-14
5.42243e-14
5.60437e-14
5.80011e-14
6.00945e-14
6.23228e-14
6.46859e-14
6.7184e-14
6.98178e-14
7.25886e-14
7.5498e-14
7.85477e-14
8.17397e-14
8.50763e-14
8.85595e-14
9.21916e-14
9.59749e-14
9.99116e-14
1.04004e-13
1.08253e-13
1.12661e-13
1.17231e-13
1.21962e-13
1.26856e-13
1.31914e-13
1.37135e-13
1.42521e-13
1.48069e-13
1.53778e-13
1.59648e-13
1.65674e-13
1.71854e-13
1.78182e-13
1.84655e-13
1.91265e-13
1.98005e-13
2.04866e-13
2.11838e-13
2.1891e-13
2.26067e-13
2.33296e-13
2.40578e-13
2.47895e-13
2.55224e-13
2.62543e-13
2.69824e-13
2.77037e-13
2.84149e-13
2.91123e-13
2.97918e-13
3.04489e-13
3.10787e-13
3.16757e-13
3.22339e-13
3.27466e-13
3.32066e-13
3.36058e-13
3.39355e-13
3.41862e-13
3.43471e-13
3.44069e-13
3.4353e-13
3.41714e-13
3.38471e-13
3.33638e-13
3.27035e-13
3.18466e-13
3.07719e-13
2.94563e-13
2.78749e-13
2.60007e-13
2.38046e-13
2.12552e-13
1.83195e-13
1.49619e-13
1.11457e-13
6.83268e-14
1.98461e-14
-3.4369e-14
-9.4733e-14
-1.615e-13
-2.33631e-13
-3.09893e-13
-4.0923e-13
-5.79203e-13
-5.57035e-13
5.28235e-14
5.10285e-14
4.93756e-14
4.82925e-14
4.75824e-14
4.71761e-14
4.70536e-14
4.71916e-14
4.75649e-14
4.81521e-14
4.89349e-14
4.98982e-14
5.10294e-14
5.23183e-14
5.3757e-14
5.53391e-14
5.70599e-14
5.89159e-14
6.09047e-14
6.30246e-14
6.5275e-14
6.76556e-14
7.01665e-14
7.28086e-14
7.55826e-14
7.84898e-14
8.15317e-14
8.47097e-14
8.80256e-14
9.14807e-14
9.50768e-14
9.88154e-14
1.02698e-13
1.06725e-13
1.10899e-13
1.1522e-13
1.19688e-13
1.24304e-13
1.29067e-13
1.33978e-13
1.39034e-13
1.44235e-13
1.49578e-13
1.5506e-13
1.60678e-13
1.66427e-13
1.72302e-13
1.78297e-13
1.84403e-13
1.90614e-13
1.96919e-13
2.03306e-13
2.09764e-13
2.16277e-13
2.2283e-13
2.29404e-13
2.3598e-13
2.42534e-13
2.49042e-13
2.55475e-13
2.61804e-13
2.67993e-13
2.74005e-13
2.79799e-13
2.8533e-13
2.90546e-13
2.95394e-13
2.99812e-13
3.03736e-13
3.07091e-13
3.09799e-13
3.11774e-13
3.12921e-13
3.13136e-13
3.12307e-13
3.1031e-13
3.07013e-13
3.02269e-13
2.9592e-13
2.87795e-13
2.77708e-13
2.65457e-13
2.50825e-13
2.33579e-13
2.13467e-13
1.90222e-13
1.6356e-13
1.3318e-13
9.87687e-14
6.00038e-14
1.656e-14
-3.18786e-14
-8.56177e-14
-1.44984e-13
-2.10128e-13
-2.79831e-13
-3.52584e-13
-4.47993e-13
-6.1688e-13
-5.86514e-13
5.43005e-14
5.26144e-14
5.10538e-14
5.00133e-14
4.93121e-14
4.88901e-14
4.87324e-14
4.88198e-14
4.91314e-14
4.96486e-14
5.03553e-14
5.12378e-14
5.22843e-14
5.34852e-14
5.48328e-14
5.63207e-14
5.7944e-14
5.96991e-14
6.15832e-14
6.35942e-14
6.5731e-14
6.79928e-14
7.03794e-14
7.28909e-14
7.55278e-14
7.82907e-14
8.11805e-14
8.41982e-14
8.73447e-14
9.0621e-14
9.40282e-14
9.75672e-14
1.01238e-13
1.05043e-13
1.08981e-13
1.13052e-13
1.17257e-13
1.21594e-13
1.26064e-13
1.30664e-13
1.35393e-13
1.40249e-13
1.45228e-13
1.50326e-13
1.5554e-13
1.60863e-13
1.6629e-13
1.71814e-13
1.77426e-13
1.83117e-13
1.88876e-13
1.94691e-13
2.00549e-13
2.06433e-13
2.12328e-13
2.18214e-13
2.2407e-13
2.29873e-13
2.35597e-13
2.41212e-13
2.46689e-13
2.51991e-13
2.57082e-13
2.61919e-13
2.66456e-13
2.70643e-13
2.74426e-13
2.77743e-13
2.80531e-13
2.82716e-13
2.84222e-13
2.84963e-13
2.84846e-13
2.83771e-13
2.81628e-13
2.78298e-13
2.73653e-13
2.67553e-13
2.59846e-13
2.5037e-13
2.38948e-13
2.25392e-13
2.09497e-13
1.91047e-13
1.69811e-13
1.45544e-13
1.17988e-13
8.68753e-14
5.19287e-14
1.28681e-14
-3.05827e-14
-7.86839e-14
-1.3168e-13
-1.89835e-13
-2.53233e-13
-3.20553e-13
-3.90187e-13
-4.82576e-13
-6.51196e-13
-6.13618e-13
5.55873e-14
5.39999e-14
5.25251e-14
5.15284e-14
5.0842e-14
5.04129e-14
5.02294e-14
5.02763e-14
5.05356e-14
5.09911e-14
5.16288e-14
5.24363e-14
5.3403e-14
5.45198e-14
5.57792e-14
5.7175e-14
5.87024e-14
6.03574e-14
6.21371e-14
6.40391e-14
6.60618e-14
6.82042e-14
7.04656e-14
7.28456e-14
7.53441e-14
7.79616e-14
8.0698e-14
8.3554e-14
8.65299e-14
8.96263e-14
9.28436e-14
9.61821e-14
9.96416e-14
1.03222e-13
1.06924e-13
1.10747e-13
1.14689e-13
1.18749e-13
1.22926e-13
1.27218e-13
1.31622e-13
1.36136e-13
1.40754e-13
1.45473e-13
1.50288e-13
1.55192e-13
1.60179e-13
1.6524e-13
1.70366e-13
1.75548e-13
1.80773e-13
1.8603e-13
1.91302e-13
1.96575e-13
2.01831e-13
2.07049e-13
2.12209e-13
2.17286e-13
2.22253e-13
2.27082e-13
2.3174e-13
2.36193e-13
2.40402e-13
2.44326e-13
2.47918e-13
2.51129e-13
2.53904e-13
2.56183e-13
2.57903e-13
2.58993e-13
2.59376e-13
2.58969e-13
2.57683e-13
2.5542e-13
2.52074e-13
2.47531e-13
2.41667e-13
2.34349e-13
2.25434e-13
2.14767e-13
2.02184e-13
1.87506e-13
1.70545e-13
1.51101e-13
1.28963e-13
1.03906e-13
7.57005e-14
4.41063e-14
8.88051e-15
-3.02197e-14
-7.34287e-14
-1.20961e-13
-1.73014e-13
-2.29806e-13
-2.9138e-13
-3.56342e-13
-4.23036e-13
-5.1259e-13
-6.80327e-13
-6.35444e-13
5.67036e-14
5.5207e-14
5.38122e-14
5.28592e-14
5.21914e-14
5.17609e-14
5.15588e-14
5.15725e-14
5.17868e-14
5.21875e-14
5.27624e-14
5.35004e-14
5.43917e-14
5.5428e-14
5.6602e-14
5.79081e-14
5.93412e-14
6.08972e-14
6.25731e-14
6.43665e-14
6.62753e-14
6.8298e-14
7.04336e-14
7.26816e-14
7.50413e-14
7.75124e-14
8.00949e-14
8.27885e-14
8.55935e-14
8.85095e-14
9.15365e-14
9.46742e-14
9.79222e-14
1.0128e-13
1.04746e-13
1.08321e-13
1.12001e-13
1.15786e-13
1.19673e-13
1.23659e-13
1.27742e-13
1.31917e-13
1.3618e-13
1.40525e-13
1.44947e-13
1.49439e-13
1.53993e-13
1.58601e-13
1.63252e-13
1.67937e-13
1.72642e-13
1.77354e-13
1.82057e-13
1.86737e-13
1.91373e-13
1.95945e-13
2.00433e-13
2.04809e-13
2.09049e-13
2.13122e-13
2.16997e-13
2.20638e-13
2.24007e-13
2.27062e-13
2.29758e-13
2.32044e-13
2.33869e-13
2.35172e-13
2.35892e-13
2.35958e-13
2.35297e-13
2.33828e-13
2.31464e-13
2.28112e-13
2.23669e-13
2.18026e-13
2.11067e-13
2.02663e-13
1.92681e-13
1.80974e-13
1.67389e-13
1.51761e-13
1.33915e-13
1.13667e-13
9.0825e-14
6.51864e-14
3.65441e-14
4.68566e-15
-3.0602e-14
-6.95291e-14
-1.12295e-13
-1.59077e-13
-2.10035e-13
-2.65355e-13
-3.2505e-13
-3.87675e-13
-4.51539e-13
-5.38287e-13
-7.04585e-13
-6.52948e-13
5.7666e-14
5.62533e-14
5.49337e-14
5.40237e-14
5.33765e-14
5.29486e-14
5.27332e-14
5.27195e-14
5.28946e-14
5.32463e-14
5.37636e-14
5.44367e-14
5.52566e-14
5.62158e-14
5.73075e-14
5.85259e-14
5.98664e-14
6.13248e-14
6.2898e-14
6.45834e-14
6.63786e-14
6.82819e-14
7.02919e-14
7.24077e-14
7.46284e-14
7.69531e-14
7.93814e-14
8.19127e-14
8.45466e-14
8.72824e-14
9.01194e-14
9.30571e-14
9.60942e-14
9.92296e-14
1.02462e-13
1.0579e-13
1.09211e-13
1.12723e-13
1.16323e-13
1.20007e-13
1.23772e-13
1.27614e-13
1.31526e-13
1.35504e-13
1.3954e-13
1.43628e-13
1.47759e-13
1.51923e-13
1.56111e-13
1.6031e-13
1.64509e-13
1.68692e-13
1.72844e-13
1.76948e-13
1.80985e-13
1.84934e-13
1.88773e-13
1.92477e-13
1.96019e-13
1.99369e-13
2.02494e-13
2.05361e-13
2.0793e-13
2.10161e-13
2.12009e-13
2.13424e-13
2.14354e-13
2.14743e-13
2.14527e-13
2.13641e-13
2.12013e-13
2.09564e-13
2.06211e-13
2.01864e-13
1.96426e-13
1.89793e-13
1.81854e-13
1.72489e-13
1.61572e-13
1.48966e-13
1.34528e-13
1.18106e-13
9.95385e-14
7.86585e-14
5.52902e-14
2.92523e-14
3.59191e-16
-3.1577e-14
-6.67431e-14
-1.05321e-13
-1.4748e-13
-1.93368e-13
-2.43117e-13
-2.96886e-13
-3.54667e-13
-4.1498e-13
-4.76102e-13
-5.60076e-13
-7.24571e-13
-6.66904e-13
5.84884e-14
5.71538e-14
5.5905e-14
5.50369e-14
5.44116e-14
5.39892e-14
5.37643e-14
5.37277e-14
5.38684e-14
5.41756e-14
5.46399e-14
5.52522e-14
5.60044e-14
5.68897e-14
5.79016e-14
5.90347e-14
6.02845e-14
6.16468e-14
6.31185e-14
6.46967e-14
6.63791e-14
6.81635e-14
7.00484e-14
7.20325e-14
7.41145e-14
7.62932e-14
7.85677e-14
8.09371e-14
8.34005e-14
8.59567e-14
8.86046e-14
9.13432e-14
9.41708e-14
9.70858e-14
1.00086e-13
1.0317e-13
1.06334e-13
1.09576e-13
1.12892e-13
1.16279e-13
1.19732e-13
1.23245e-13
1.26813e-13
1.30431e-13
1.3409e-13
1.37782e-13
1.41499e-13
1.45231e-13
1.48967e-13
1.52694e-13
1.56401e-13
1.60071e-13
1.63689e-13
1.67237e-13
1.70696e-13
1.74045e-13
1.77261e-13
1.80319e-13
1.83192e-13
1.85851e-13
1.88262e-13
1.90393e-13
1.92204e-13
1.93655e-13
1.94702e-13
1.95297e-13
1.95389e-13
1.94922e-13
1.93836e-13
1.92066e-13
1.89544e-13
1.86195e-13
1.81938e-13
1.76687e-13
1.70351e-13
1.62831e-13
1.54022e-13
1.43812e-13
1.32082e-13
1.18707e-13
1.03552e-13
8.64789e-14
6.73394e-14
4.59808e-14
2.22445e-14
-4.03227e-15
-3.3015e-14
-6.48696e-14
-9.97598e-14
-1.37843e-13
-1.79264e-13
-2.24146e-13
-2.72598e-13
-3.2476e-13
-3.80609e-13
-4.38636e-13
-4.97096e-13
-5.78328e-13
-7.4074e-13
-6.77754e-13
5.91823e-14
5.79212e-14
5.67396e-14
5.59124e-14
5.53096e-14
5.48945e-14
5.46628e-14
5.46069e-14
5.4717e-14
5.49838e-14
5.53989e-14
5.59539e-14
5.66417e-14
5.74559e-14
5.83907e-14
5.94409e-14
6.06018e-14
6.18697e-14
6.32413e-14
6.47136e-14
6.62842e-14
6.79507e-14
6.97114e-14
7.15645e-14
7.35085e-14
7.55419e-14
7.76636e-14
7.9872e-14
8.21659e-14
8.45437e-14
8.70041e-14
8.95452e-14
9.21651e-14
9.48617e-14
9.76326e-14
1.00475e-13
1.03386e-13
1.06362e-13
1.09399e-13
1.12493e-13
1.15638e-13
1.18829e-13
1.22061e-13
1.25325e-13
1.28615e-13
1.31921e-13
1.35235e-13
1.38546e-13
1.41843e-13
1.45112e-13
1.48342e-13
1.51515e-13
1.54617e-13
1.57629e-13
1.60532e-13
1.63304e-13
1.65922e-13
1.68362e-13
1.70597e-13
1.72596e-13
1.74329e-13
1.7576e-13
1.76853e-13
1.77568e-13
1.77862e-13
1.77687e-13
1.76995e-13
1.7573e-13
1.73836e-13
1.7125e-13
1.67906e-13
1.63732e-13
1.58652e-13
1.52584e-13
1.45441e-13
1.37131e-13
1.27555e-13
1.16608e-13
1.04181e-13
9.01551e-14
7.44091e-14
5.68139e-14
3.72357e-14
1.55356e-14
-8.42924e-15
-3.48046e-14
-6.37379e-14
-9.53754e-14
-1.29861e-13
-1.6733e-13
-2.07907e-13
-2.51696e-13
-2.98785e-13
-3.49302e-13
-4.03211e-13
-4.58983e-13
-5.14858e-13
-5.93379e-13
-7.53473e-13
-6.85827e-13
5.97587e-14
5.85672e-14
5.74495e-14
5.66618e-14
5.60818e-14
5.56753e-14
5.54391e-14
5.53667e-14
5.54493e-14
5.56788e-14
5.60477e-14
5.65486e-14
5.71751e-14
5.79212e-14
5.87812e-14
5.97506e-14
6.08248e-14
6.20001e-14
6.32732e-14
6.46412e-14
6.61013e-14
6.76511e-14
6.92886e-14
7.10119e-14
7.28191e-14
7.47085e-14
7.66785e-14
7.87273e-14
8.08533e-14
8.30544e-14
8.5329e-14
8.76748e-14
9.00895e-14
9.25704e-14
9.51148e-14
9.77195e-14
1.00381e-13
1.03095e-13
1.05858e-13
1.08664e-13
1.11509e-13
1.14385e-13
1.17286e-13
1.20206e-13
1.23136e-13
1.26066e-13
1.28988e-13
1.3189e-13
1.3476e-13
1.37587e-13
1.40355e-13
1.43049e-13
1.45653e-13
1.48149e-13
1.50517e-13
1.52736e-13
1.54782e-13
1.56632e-13
1.58257e-13
1.59629e-13
1.60717e-13
1.61487e-13
1.61902e-13
1.61924e-13
1.6151e-13
1.60615e-13
1.59191e-13
1.57186e-13
1.54544e-13
1.51205e-13
1.47107e-13
1.42181e-13
1.36354e-13
1.29551e-13
1.21688e-13
1.12679e-13
1.02432e-13
9.08492e-14
7.78287e-14
6.32626e-14
4.70383e-14
2.90385e-14
9.14151e-15
-1.27782e-14
-3.68492e-14
-6.32015e-14
-9.19658e-14
-1.23272e-13
-1.57244e-13
-1.94002e-13
-2.33651e-13
-2.76279e-13
-3.21959e-13
-3.70808e-13
-4.22778e-13
-4.7633e-13
-5.29693e-13
-6.05538e-13
-7.63111e-13
-6.91407e-13
6.02272e-14
5.91018e-14
5.8045e-14
5.72957e-14
5.67385e-14
5.63415e-14
5.61025e-14
5.60156e-14
5.60733e-14
5.62684e-14
5.6594e-14
5.70436e-14
5.76114e-14
5.82918e-14
5.90797e-14
5.99704e-14
6.096e-14
6.20446e-14
6.32211e-14
6.44862e-14
6.58374e-14
6.72721e-14
6.87879e-14
7.03829e-14
7.20548e-14
7.38017e-14
7.56217e-14
7.75128e-14
7.94727e-14
8.14994e-14
8.35905e-14
8.57436e-14
8.7956e-14
9.02245e-14
9.2546e-14
9.4917e-14
9.73334e-14
9.97909e-14
1.02285e-13
1.04809e-13
1.07359e-13
1.09928e-13
1.12508e-13
1.15091e-13
1.1767e-13
1.20235e-13
1.22776e-13
1.25282e-13
1.2774e-13
1.30137e-13
1.3246e-13
1.34692e-13
1.36818e-13
1.38818e-13
1.40673e-13
1.42362e-13
1.43862e-13
1.45149e-13
1.46195e-13
1.46972e-13
1.47449e-13
1.47594e-13
1.4737e-13
1.46741e-13
1.45664e-13
1.44097e-13
1.41992e-13
1.393e-13
1.35968e-13
1.31939e-13
1.27152e-13
1.21543e-13
1.15043e-13
1.07581e-13
9.90787e-14
8.94558e-14
7.86265e-14
6.65005e-14
5.29834e-14
3.79766e-14
2.13769e-14
3.07756e-15
-1.70316e-14
-3.90635e-14
-6.31335e-14
-8.93573e-14
-1.17851e-13
-1.48728e-13
-1.82099e-13
-2.18067e-13
-2.56722e-13
-2.98137e-13
-3.42376e-13
-3.89543e-13
-4.39586e-13
-4.90956e-13
-5.41879e-13
-6.15086e-13
-7.69961e-13
-6.94746e-13
6.05966e-14
5.95341e-14
5.85359e-14
5.78238e-14
5.72891e-14
5.69023e-14
5.66616e-14
5.6562e-14
5.6597e-14
5.67599e-14
5.70447e-14
5.74456e-14
5.79572e-14
5.85743e-14
5.92923e-14
6.01068e-14
6.10138e-14
6.20098e-14
6.30914e-14
6.42557e-14
6.54997e-14
6.68209e-14
6.82169e-14
6.96854e-14
7.12239e-14
7.28303e-14
7.45024e-14
7.62378e-14
7.8034e-14
7.98887e-14
8.17993e-14
8.37627e-14
8.57761e-14
8.78359e-14
8.99385e-14
9.20802e-14
9.42565e-14
9.64626e-14
9.86934e-14
1.00943e-13
1.03205e-13
1.05474e-13
1.0774e-13
1.09997e-13
1.12236e-13
1.14446e-13
1.16618e-13
1.1874e-13
1.20799e-13
1.22783e-13
1.24677e-13
1.26465e-13
1.28131e-13
1.29656e-13
1.3102e-13
1.32203e-13
1.33182e-13
1.33933e-13
1.34429e-13
1.34642e-13
1.34543e-13
1.34098e-13
1.33274e-13
1.32034e-13
1.30338e-13
1.28145e-13
1.25409e-13
1.22083e-13
1.18116e-13
1.13454e-13
1.0804e-13
1.01813e-13
9.47096e-14
8.66606e-14
7.75949e-14
6.7437e-14
5.61076e-14
4.35236e-14
2.95982e-14
1.4241e-14
-2.64156e-15
-2.11465e-14
-4.13731e-14
-6.3423e-14
-8.73987e-14
-1.13404e-13
-1.4154e-13
-1.71909e-13
-2.04605e-13
-2.39719e-13
-2.77329e-13
-3.17496e-13
-3.60272e-13
-4.05755e-13
-4.53887e-13
-5.03116e-13
-5.5167e-13
-6.22278e-13
-7.74301e-13
-6.96069e-13
6.08747e-14
5.98728e-14
5.89309e-14
5.82549e-14
5.77423e-14
5.73661e-14
5.71247e-14
5.7014e-14
5.7028e-14
5.71608e-14
5.74069e-14
5.77614e-14
5.82191e-14
5.87753e-14
5.94256e-14
6.0166e-14
6.09926e-14
6.1902e-14
6.2891e-14
6.39563e-14
6.50953e-14
6.6305e-14
6.75832e-14
6.89272e-14
7.03345e-14
7.18026e-14
7.33292e-14
7.49114e-14
7.65467e-14
7.82324e-14
7.99655e-14
8.17429e-14
8.35609e-14
8.54161e-14
8.73044e-14
8.92216e-14
9.11631e-14
9.31236e-14
9.50976e-14
9.70792e-14
9.90616e-14
1.01038e-13
1.03e-13
1.0494e-13
1.06849e-13
1.08716e-13
1.10531e-13
1.12282e-13
1.13957e-13
1.15543e-13
1.17024e-13
1.18386e-13
1.19611e-13
1.20681e-13
1.21577e-13
1.22277e-13
1.22761e-13
1.23002e-13
1.22977e-13
1.22657e-13
1.22014e-13
1.21015e-13
1.19628e-13
1.17817e-13
1.15544e-13
1.12769e-13
1.09449e-13
1.05539e-13
1.0099e-13
9.57514e-14
8.97691e-14
8.29861e-14
7.53422e-14
6.67739e-14
5.72148e-14
4.65949e-14
3.48411e-14
2.18769e-14
7.62319e-15
-8.00257e-15
-2.50851e-14
-4.37121e-14
-6.39729e-14
-8.59581e-14
-1.09759e-13
-1.35468e-13
-1.63175e-13
-1.92968e-13
-2.24931e-13
-2.59142e-13
-2.95668e-13
-3.34561e-13
-3.75864e-13
-4.19668e-13
-4.65911e-13
-5.13043e-13
-5.59299e-13
-6.27346e-13
-7.76386e-13
-6.95583e-13
6.10698e-14
6.01259e-14
5.92382e-14
5.85971e-14
5.81064e-14
5.7741e-14
5.74996e-14
5.73789e-14
5.73734e-14
5.74779e-14
5.76874e-14
5.79974e-14
5.84034e-14
5.89009e-14
5.94858e-14
6.01543e-14
6.09028e-14
6.17278e-14
6.26262e-14
6.35948e-14
6.46308e-14
6.57314e-14
6.68941e-14
6.81159e-14
6.93944e-14
7.07268e-14
7.21105e-14
7.35425e-14
7.50201e-14
7.65401e-14
7.80992e-14
7.96942e-14
8.13212e-14
8.29762e-14
8.4655e-14
8.63531e-14
8.80653e-14
8.97864e-14
9.15105e-14
9.32311e-14
9.49415e-14
9.66342e-14
9.83013e-14
9.99341e-14
1.01523e-13
1.03059e-13
1.04529e-13
1.05924e-13
1.07229e-13
1.08432e-13
1.09517e-13
1.1047e-13
1.11273e-13
1.11909e-13
1.12358e-13
1.126e-13
1.12612e-13
1.12372e-13
1.11854e-13
1.11032e-13
1.09876e-13
1.08357e-13
1.06443e-13
1.041e-13
1.0129e-13
9.79765e-14
9.41176e-14
8.96706e-14
8.45897e-14
7.88268e-14
7.23313e-14
6.50498e-14
5.6926e-14
4.79012e-14
3.79135e-14
2.68988e-14
1.47896e-14
1.51634e-15
-1.29934e-14
-2.88143e-14
-4.6023e-14
-6.46982e-14
-8.49198e-14
-1.06769e-13
-1.30327e-13
-1.55674e-13
-1.82891e-13
-2.12054e-13
-2.43237e-13
-2.76507e-13
-3.11922e-13
-3.49525e-13
-3.89353e-13
-4.3149e-13
-4.7587e-13
-5.20952e-13
-5.64977e-13
-6.30507e-13
-7.76451e-13
-6.93479e-13
6.1189e-14
6.03007e-14
5.94652e-14
5.88582e-14
5.83889e-14
5.80343e-14
5.77936e-14
5.76638e-14
5.76402e-14
5.77179e-14
5.78927e-14
5.81603e-14
5.85166e-14
5.89575e-14
5.94791e-14
6.0078e-14
6.07505e-14
6.14934e-14
6.23034e-14
6.31777e-14
6.41132e-14
6.5107e-14
6.61566e-14
6.72589e-14
6.84113e-14
6.96108e-14
7.08547e-14
7.21397e-14
7.34628e-14
7.48207e-14
7.62098e-14
7.76265e-14
7.90669e-14
8.05266e-14
8.20012e-14
8.34857e-14
8.49749e-14
8.64631e-14
8.79442e-14
8.94116e-14
9.08582e-14
9.22762e-14
9.36576e-14
9.49935e-14
9.62743e-14
9.74897e-14
9.86286e-14
9.96795e-14
1.00629e-13
1.01465e-13
1.02171e-13
1.02733e-13
1.03134e-13
1.03356e-13
1.0338e-13
1.03186e-13
1.02752e-13
1.02056e-13
1.01072e-13
9.97765e-14
9.81402e-14
9.61345e-14
9.37282e-14
9.08889e-14
8.75817e-14
8.37701e-14
7.94155e-14
7.4477e-14
6.89115e-14
6.26741e-14
5.57172e-14
4.7991e-14
3.94434e-14
3.00199e-14
1.96637e-14
8.31556e-15
-4.08585e-15
-1.76041e-14
-3.23047e-14
-4.82552e-14
-6.55245e-14
-8.4183e-14
-1.04302e-13
-1.25953e-13
-1.49209e-13
-1.7414e-13
-2.00817e-13
-2.29307e-13
-2.59673e-13
-2.91974e-13
-3.26261e-13
-3.62567e-13
-4.00925e-13
-4.41412e-13
-4.83962e-13
-5.2704e-13
-5.68903e-13
-6.3196e-13
-7.74712e-13
-6.89936e-13
6.12389e-14
6.04045e-14
5.96194e-14
5.90451e-14
5.85969e-14
5.82532e-14
5.80137e-14
5.78757e-14
5.78351e-14
5.78875e-14
5.80292e-14
5.82562e-14
5.85647e-14
5.89511e-14
5.94117e-14
5.99431e-14
6.05419e-14
6.1205e-14
6.19291e-14
6.27114e-14
6.35489e-14
6.44387e-14
6.53778e-14
6.63635e-14
6.73927e-14
6.84625e-14
6.95697e-14
7.07111e-14
7.18834e-14
7.30831e-14
7.43064e-14
7.55494e-14
7.6808e-14
7.80776e-14
7.93534e-14
8.06302e-14
8.19027e-14
8.3165e-14
8.44105e-14
8.56325e-14
8.68237e-14
8.79762e-14
8.90817e-14
9.01311e-14
9.11147e-14
9.20221e-14
9.28423e-14
9.35635e-14
9.41727e-14
9.46565e-14
9.50007e-14
9.51895e-14
9.52066e-14
9.50346e-14
9.46547e-14
9.40474e-14
9.31915e-14
9.20646e-14
9.06433e-14
8.89024e-14
8.68155e-14
8.43546e-14
8.14898e-14
7.81901e-14
7.44224e-14
7.0152e-14
6.53425e-14
5.99553e-14
5.395e-14
4.72845e-14
3.99145e-14
3.17939e-14
2.28743e-14
1.31056e-14
2.43562e-15
-9.18964e-15
-2.18262e-14
-3.55315e-14
-5.03647e-14
-6.63866e-14
-8.36587e-14
-1.02244e-13
-1.22205e-13
-1.43607e-13
-1.66511e-13
-1.90981e-13
-2.17078e-13
-2.4486e-13
-2.74383e-13
-3.05697e-13
-3.38844e-13
-3.73854e-13
-4.10752e-13
-4.49613e-13
-4.90366e-13
-5.31491e-13
-5.71259e-13
-6.31888e-13
-7.71374e-13
-6.85121e-13
6.12264e-14
6.04438e-14
5.97073e-14
5.91651e-14
5.87373e-14
5.84044e-14
5.81664e-14
5.8021e-14
5.79643e-14
5.79928e-14
5.81029e-14
5.82911e-14
5.85539e-14
5.88877e-14
5.92893e-14
5.97554e-14
6.0283e-14
6.08686e-14
6.15093e-14
6.22022e-14
6.29445e-14
6.37328e-14
6.45644e-14
6.54365e-14
6.63457e-14
6.7289e-14
6.82632e-14
6.92647e-14
7.02901e-14
7.13358e-14
7.23977e-14
7.34719e-14
7.45538e-14
7.56386e-14
7.67214e-14
7.7797e-14
7.88594e-14
7.99027e-14
8.09203e-14
8.19051e-14
8.28497e-14
8.3746e-14
8.45856e-14
8.53591e-14
8.60569e-14
8.66686e-14
8.71828e-14
8.7588e-14
8.78712e-14
8.80191e-14
8.80173e-14
8.78506e-14
8.75029e-14
8.69568e-14
8.61943e-14
8.5196e-14
8.39414e-14
8.2409e-14
8.05758e-14
7.84177e-14
7.59094e-14
7.30239e-14
6.97328e-14
6.60065e-14
6.18138e-14
5.71217e-14
5.18959e-14
4.61003e-14
3.96971e-14
3.26471e-14
2.49091e-14
1.64404e-14
7.19675e-15
-2.86813e-15
-1.38017e-14
-2.56532e-14
-3.84732e-14
-5.23137e-14
-6.72278e-14
-8.32696e-14
-1.00494e-13
-1.18957e-13
-1.38714e-13
-1.59821e-13
-1.82333e-13
-2.06305e-13
-2.3179e-13
-2.58839e-13
-2.875e-13
-3.17815e-13
-3.49822e-13
-3.83542e-13
-4.18998e-13
-4.56259e-13
-4.95253e-13
-5.34476e-13
-5.72215e-13
-6.30465e-13
-7.66627e-13
-6.79193e-13
6.11579e-14
6.04252e-14
5.97356e-14
5.92242e-14
5.88163e-14
5.84942e-14
5.8258e-14
5.81058e-14
5.80342e-14
5.80398e-14
5.81199e-14
5.82709e-14
5.84897e-14
5.8773e-14
5.91178e-14
5.9521e-14
5.99795e-14
6.04902e-14
6.10501e-14
6.16564e-14
6.2306e-14
6.29959e-14
6.37231e-14
6.44846e-14
6.52772e-14
6.60976e-14
6.69424e-14
6.78081e-14
6.86909e-14
6.95869e-14
7.04922e-14
7.14025e-14
7.2313e-14
7.32188e-14
7.41148e-14
7.49954e-14
7.58547e-14
7.66865e-14
7.7484e-14
7.824e-14