/*--------------------------------*- C++ -*----------------------------------*\
  =========                 |
  \\      /  F ield         | OpenFOAM: The Open Source CFD Toolbox
   \\    /   O peration     | Website:  https://openfoam.org
    \\  /    A nd           | Version:  11
     \\/     M anipulation  |
\*---------------------------------------------------------------------------*/
FoamFile
{
    format      ascii;
    class       volScalarField;
    location    "1800";
    object      p;
}
// * * * * * * * * * * * * * * * * * * * * * * * * * * * * * * * * * * * * * //

dimensions      [0 2 -2 0 0 0 0];

internalField   nonuniform List<scalar> 
10000
(
1.153e-15
1.11543e-15
1.15166e-15
1.23958e-15
1.3433e-15
1.4547e-15
1.57287e-15
1.69743e-15
1.82842e-15
1.96607e-15
2.11073e-15
2.26285e-15
2.42293e-15
2.59141e-15
2.76895e-15
2.95605e-15
3.15319e-15
3.36101e-15
3.58015e-15
3.81119e-15
4.05471e-15
4.31132e-15
4.58169e-15
4.86652e-15
5.1665e-15
5.48233e-15
5.8147e-15
6.16432e-15
6.53199e-15
6.91844e-15
7.3245e-15
7.75093e-15
8.19858e-15
8.66818e-15
9.16064e-15
9.67682e-15
1.02175e-14
1.07836e-14
1.13759e-14
1.19952e-14
1.26426e-14
1.33187e-14
1.40244e-14
1.47606e-14
1.5528e-14
1.63273e-14
1.71594e-14
1.8025e-14
1.89247e-14
1.9859e-14
2.08285e-14
2.18337e-14
2.2875e-14
2.39525e-14
2.50667e-14
2.62173e-14
2.74045e-14
2.86278e-14
2.98869e-14
3.11811e-14
3.25096e-14
3.38713e-14
3.52648e-14
3.66884e-14
3.81401e-14
3.96173e-14
4.11172e-14
4.26365e-14
4.41713e-14
4.57171e-14
4.72686e-14
4.882e-14
5.03645e-14
5.18944e-14
5.3401e-14
5.48743e-14
5.63032e-14
5.76749e-14
5.89753e-14
6.0188e-14
6.1295e-14
6.22756e-14
6.31067e-14
6.37623e-14
6.42127e-14
6.44249e-14
6.43612e-14
6.39788e-14
6.32296e-14
6.20581e-14
6.0401e-14
5.81845e-14
5.53216e-14
5.17063e-14
4.72074e-14
4.16654e-14
3.48428e-14
2.61048e-14
1.44992e-14
8.69727e-16
2.116e-15
1.97752e-15
1.8909e-15
1.91706e-15
1.99316e-15
2.09454e-15
2.21391e-15
2.34785e-15
2.49424e-15
2.65204e-15
2.82065e-15
3.00011e-15
3.19043e-15
3.39196e-15
3.60509e-15
3.83043e-15
4.06832e-15
4.31942e-15
4.5843e-15
4.86367e-15
5.15823e-15
5.46845e-15
5.79528e-15
6.13934e-15
6.50139e-15
6.88233e-15
7.28296e-15
7.704e-15
8.14635e-15
8.61079e-15
9.09835e-15
9.60983e-15
1.01462e-14
1.07083e-14
1.12971e-14
1.19135e-14
1.25585e-14
1.3233e-14
1.39379e-14
1.46742e-14
1.54427e-14
1.62444e-14
1.70802e-14
1.79509e-14
1.88573e-14
1.98003e-14
2.07804e-14
2.17986e-14
2.28554e-14
2.39511e-14
2.50865e-14
2.62618e-14
2.74772e-14
2.87329e-14
3.00289e-14
3.13649e-14
3.27406e-14
3.41554e-14
3.56085e-14
3.70988e-14
3.86249e-14
4.01853e-14
4.17778e-14
4.34001e-14
4.50492e-14
4.67218e-14
4.84141e-14
5.01214e-14
5.18387e-14
5.35599e-14
5.52783e-14
5.69862e-14
5.86747e-14
6.03342e-14
6.19533e-14
6.35194e-14
6.50182e-14
6.64336e-14
6.77477e-14
6.89401e-14
6.9988e-14
7.08657e-14
7.15441e-14
7.19907e-14
7.21689e-14
7.20373e-14
7.15492e-14
7.06515e-14
6.92839e-14
6.73779e-14
6.48538e-14
6.16199e-14
5.7567e-14
5.25621e-14
4.64444e-14
3.90463e-14
3.01382e-14
1.87444e-14
2.81768e-15
-1.08173e-14
2.52927e-15
2.34245e-15
2.17962e-15
2.13073e-15
2.14262e-15
2.18868e-15
2.25983e-15
2.35065e-15
2.45753e-15
2.57805e-15
2.71106e-15
2.8556e-15
3.0112e-15
3.17783e-15
3.35562e-15
3.54454e-15
3.74488e-15
3.95705e-15
4.18139e-15
4.41834e-15
4.66847e-15
4.93209e-15
5.20983e-15
5.50229e-15
5.80996e-15
6.1335e-15
6.47356e-15
6.83083e-15
7.20588e-15
7.59933e-15
8.012e-15
8.44448e-15
8.89745e-15
9.37178e-15
9.86801e-15
1.03869e-14
1.09292e-14
1.14955e-14
1.20866e-14
1.27032e-14
1.33459e-14
1.40153e-14
1.47123e-14
1.54371e-14
1.61905e-14
1.69729e-14
1.77848e-14
1.86267e-14
1.9499e-14
2.04017e-14
2.13352e-14
2.22995e-14
2.32945e-14
2.43201e-14
2.53762e-14
2.64621e-14
2.75772e-14
2.8721e-14
2.98921e-14
3.10893e-14
3.23113e-14
3.35561e-14
3.48214e-14
3.6105e-14
3.74038e-14
3.87144e-14
4.0033e-14
4.13551e-14
4.26757e-14
4.3989e-14
4.52886e-14
4.65673e-14
4.78166e-14
4.90274e-14
5.01891e-14
5.129e-14
5.2317e-14
5.32553e-14
5.40883e-14
5.47976e-14
5.53623e-14
5.57591e-14
5.5962e-14
5.59416e-14
5.5665e-14
5.50954e-14
5.4191e-14
5.29049e-14
5.11838e-14
4.8967e-14
4.6185e-14
4.2758e-14
3.85922e-14
3.35747e-14
2.75767e-14
2.04961e-14
1.21913e-14
1.53993e-15
-1.37824e-14
-2.20217e-14
2.87069e-15
2.67069e-15
2.49314e-15
2.41531e-15
2.39562e-15
2.41256e-15
2.45781e-15
2.52577e-15
2.61224e-15
2.71454e-15
2.83091e-15
2.96001e-15
3.10111e-15
3.25374e-15
3.41797e-15
3.59352e-15
3.78044e-15
3.97906e-15
4.1896e-15
4.4123e-15
4.64762e-15
4.8959e-15
5.15761e-15
5.43316e-15
5.72315e-15
6.02799e-15
6.34821e-15
6.68446e-15
7.03733e-15
7.40722e-15
7.79491e-15
8.20094e-15
8.62576e-15
9.07011e-15
9.53465e-15
1.00198e-14
1.05264e-14
1.10548e-14
1.16057e-14
1.21796e-14
1.27771e-14
1.33985e-14
1.40446e-14
1.47157e-14
1.54122e-14
1.61343e-14
1.68827e-14
1.76573e-14
1.84584e-14
1.9286e-14
2.01403e-14
2.1021e-14
2.19278e-14
2.28606e-14
2.38187e-14
2.48016e-14
2.58084e-14
2.6838e-14
2.78894e-14
2.89606e-14
3.00504e-14
3.11564e-14
3.22763e-14
3.34073e-14
3.45463e-14
3.56896e-14
3.6833e-14
3.79721e-14
3.91014e-14
4.02149e-14
4.1306e-14
4.23673e-14
4.33901e-14
4.43651e-14
4.52816e-14
4.61277e-14
4.68902e-14
4.75543e-14
4.81035e-14
4.85194e-14
4.87813e-14
4.88662e-14
4.87485e-14
4.83995e-14
4.7787e-14
4.68753e-14
4.56241e-14
4.39884e-14
4.19173e-14
3.93535e-14
3.6232e-14
3.24793e-14
2.80107e-14
2.2726e-14
1.65179e-14
9.32421e-15
1.04189e-15
-9.56721e-15
-2.46575e-14
-3.06745e-14
3.14845e-15
2.95067e-15
2.77671e-15
2.68827e-15
2.65224e-15
2.65224e-15
2.68152e-15
2.73492e-15
2.80825e-15
2.89886e-15
3.00478e-15
3.12449e-15
3.25705e-15
3.40182e-15
3.55857e-15
3.72718e-15
3.90732e-15
4.09924e-15
4.30313e-15
4.51916e-15
4.74759e-15
4.98878e-15
5.24312e-15
5.51107e-15
5.79303e-15
6.08925e-15
6.40035e-15
6.72682e-15
7.0693e-15
7.42811e-15
7.80383e-15
8.19703e-15
8.60813e-15
9.03778e-15
9.48638e-15
9.95449e-15
1.04428e-14
1.09516e-14
1.14814e-14
1.20327e-14
1.26059e-14
1.32015e-14
1.38198e-14
1.44611e-14
1.51257e-14
1.58138e-14
1.65258e-14
1.72616e-14
1.80213e-14
1.88047e-14
1.96118e-14
2.04424e-14
2.12959e-14
2.21717e-14
2.30694e-14
2.39881e-14
2.49265e-14
2.58837e-14
2.68581e-14
2.78479e-14
2.88512e-14
2.98657e-14
3.08886e-14
3.1917e-14
3.29475e-14
3.39761e-14
3.49985e-14
3.60096e-14
3.7004e-14
3.79752e-14
3.89164e-14
3.98196e-14
4.06762e-14
4.14763e-14
4.2209e-14
4.28621e-14
4.34221e-14
4.38739e-14
4.42009e-14
4.43843e-14
4.44036e-14
4.42356e-14
4.38547e-14
4.32324e-14
4.23372e-14
4.11337e-14
3.95827e-14
3.76407e-14
3.52587e-14
3.23825e-14
2.89512e-14
2.48973e-14
2.01446e-14
1.4605e-14
8.18999e-15
8.70392e-16
-7.42354e-15
-1.80075e-14
-3.28769e-14
-3.76503e-14
3.36557e-15
3.17652e-15
3.00935e-15
2.91634e-15
2.86994e-15
2.85765e-15
2.87421e-15
2.91527e-15
2.97695e-15
3.05653e-15
3.15219e-15
3.2623e-15
3.3858e-15
3.52202e-15
3.6704e-15
3.83087e-15
4.00301e-15
4.18686e-15
4.38266e-15
4.5903e-15
4.81014e-15
5.04242e-15
5.28748e-15
5.54574e-15
5.8174e-15
6.10273e-15
6.40237e-15
6.71663e-15
7.04601e-15
7.39099e-15
7.75192e-15
8.1293e-15
8.52354e-15
8.93518e-15
9.3646e-15
9.81217e-15
1.02785e-14
1.07639e-14
1.12688e-14
1.17934e-14
1.23383e-14
1.29035e-14
1.34896e-14
1.40965e-14
1.47246e-14
1.53738e-14
1.60444e-14
1.67362e-14
1.74492e-14
1.81832e-14
1.89376e-14
1.97124e-14
2.05068e-14
2.13201e-14
2.21515e-14
2.29999e-14
2.38642e-14
2.4743e-14
2.56345e-14
2.65369e-14
2.7448e-14
2.83652e-14
2.92856e-14
3.02061e-14
3.1123e-14
3.20321e-14
3.29288e-14
3.3808e-14
3.46638e-14
3.54897e-14
3.62786e-14
3.70225e-14
3.77122e-14
3.83379e-14
3.88885e-14
3.93517e-14
3.97139e-14
3.99601e-14
4.00736e-14
4.00357e-14
3.98262e-14
3.94222e-14
3.87988e-14
3.7928e-14
3.67792e-14
3.53186e-14
3.35087e-14
3.13082e-14
2.86713e-14
2.55478e-14
2.18828e-14
1.76159e-14
1.26809e-14
7.00334e-15
5.13352e-16
-6.78334e-15
-1.49152e-14
-2.53168e-14
-4.0287e-14
-4.32442e-14
3.5386e-15
3.36028e-15
3.20133e-15
3.10724e-15
3.05467e-15
3.03368e-15
3.04042e-15
3.07124e-15
3.12262e-15
3.19224e-15
3.27818e-15
3.37892e-15
3.49349e-15
3.62084e-15
3.76049e-15
3.91223e-15
4.07571e-15
4.2508e-15
4.43752e-15
4.63596e-15
4.84622e-15
5.06862e-15
5.30328e-15
5.55053e-15
5.81064e-15
6.08382e-15
6.37058e-15
6.67117e-15
6.98607e-15
7.31562e-15
7.66019e-15
8.0201e-15
8.39571e-15
8.78759e-15
9.19596e-15
9.62116e-15
1.00636e-14
1.05237e-14
1.10016e-14
1.14975e-14
1.20117e-14
1.25446e-14
1.30962e-14
1.36666e-14
1.42558e-14
1.48638e-14
1.54907e-14
1.61363e-14
1.68002e-14
1.74823e-14
1.8182e-14
1.88986e-14
1.96316e-14
2.03801e-14
2.11431e-14
2.19193e-14
2.27075e-14
2.35061e-14
2.43131e-14
2.51266e-14
2.59442e-14
2.6763e-14
2.75801e-14
2.83922e-14
2.91953e-14
2.99851e-14
3.07569e-14
3.15053e-14
3.22244e-14
3.29075e-14
3.35473e-14
3.41357e-14
3.46635e-14
3.51207e-14
3.54964e-14
3.57782e-14
3.59526e-14
3.60048e-14
3.59182e-14
3.56746e-14
3.52541e-14
3.46347e-14
3.3792e-14
3.26995e-14
3.13276e-14
2.96446e-14
2.7615e-14
2.52006e-14
2.23593e-14
1.90458e-14
1.52113e-14
1.08036e-14
5.76697e-15
3.95545e-17
-6.43086e-15
-1.36036e-14
-2.14609e-14
-3.16018e-14
-4.70418e-14
-4.78253e-14
3.6791e-15
3.5121e-15
3.36201e-15
3.26934e-15
3.21352e-15
3.18679e-15
3.18624e-15
3.20876e-15
3.25151e-15
3.31247e-15
3.38967e-15
3.48172e-15
3.5877e-15
3.70652e-15
3.8376e-15
3.98067e-15
4.1354e-15
4.30157e-15
4.47914e-15
4.66813e-15
4.86859e-15
5.08075e-15
5.30468e-15
5.54061e-15
5.78886e-15
6.04955e-15
6.32304e-15
6.60961e-15
6.90957e-15
7.22336e-15
7.55114e-15
7.8932e-15
8.24987e-15
8.62156e-15
9.00853e-15
9.411e-15
9.82931e-15
1.02637e-14
1.07142e-14
1.11813e-14
1.16647e-14
1.2165e-14
1.2682e-14
1.32157e-14
1.37661e-14
1.43331e-14
1.49164e-14
1.5516e-14
1.61313e-14
1.67619e-14
1.74072e-14
1.80664e-14
1.87389e-14
1.94236e-14
2.01193e-14
2.08247e-14
2.15383e-14
2.22585e-14
2.29831e-14
2.371e-14
2.44366e-14
2.51601e-14
2.58772e-14
2.65845e-14
2.72779e-14
2.79532e-14
2.86051e-14
2.92285e-14
2.98171e-14
3.03644e-14
3.08628e-14
3.13042e-14
3.16795e-14
3.19787e-14
3.2191e-14
3.23041e-14
3.23047e-14
3.21781e-14
3.19084e-14
3.14777e-14
3.08669e-14
3.00547e-14
2.90178e-14
2.77309e-14
2.61663e-14
2.4294e-14
2.20814e-14
1.94932e-14
1.64915e-14
1.3036e-14
9.08404e-15
4.59154e-15
-4.87383e-16
-6.20283e-15
-1.25921e-14
-1.95829e-14
-2.71126e-14
-3.69435e-14
-5.28851e-14
-5.17313e-14
3.79442e-15
3.63809e-15
3.49678e-15
3.4067e-15
3.34969e-15
3.31935e-15
3.31341e-15
3.32938e-15
3.36496e-15
3.4183e-15
3.48765e-15
3.57164e-15
3.66944e-15
3.78007e-15
3.90277e-15
4.03731e-15
4.18327e-15
4.34045e-15
4.50884e-15
4.68822e-15
4.87871e-15
5.08037e-15
5.29333e-15
5.51772e-15
5.75379e-15
6.00167e-15
6.26162e-15
6.53391e-15
6.81872e-15
7.11634e-15
7.42703e-15
7.75096e-15
8.08845e-15
8.43972e-15
8.80503e-15
9.18454e-15
9.57849e-15
9.987e-15
1.04102e-14
1.08481e-14
1.13008e-14
1.17685e-14
1.22509e-14
1.2748e-14
1.32599e-14
1.3786e-14
1.43262e-14
1.48801e-14
1.54472e-14
1.6027e-14
1.66187e-14
1.72215e-14
1.78345e-14
1.84567e-14
1.90865e-14
1.97227e-14
2.03635e-14
2.10072e-14
2.16517e-14
2.22946e-14
2.29331e-14
2.35644e-14
2.41852e-14
2.47916e-14
2.53798e-14
2.59452e-14
2.64827e-14
2.69869e-14
2.74516e-14
2.78701e-14
2.8235e-14
2.85382e-14
2.87705e-14
2.89222e-14
2.89824e-14
2.89393e-14
2.87798e-14
2.84897e-14
2.80534e-14
2.74537e-14
2.66724e-14
2.56889e-14
2.44814e-14
2.3026e-14
2.12968e-14
1.92659e-14
1.69034e-14
1.41774e-14
1.10539e-14
7.49758e-15
3.47172e-15
-1.06025e-15
-6.13521e-15
-1.17929e-14
-1.80573e-14
-2.48285e-14
-3.19968e-14
-4.14322e-14
-5.76404e-14
-5.50253e-14
3.88859e-15
3.74231e-15
3.6092e-15
3.52248e-15
3.46558e-15
3.43296e-15
3.42302e-15
3.4339e-15
3.46347e-15
3.51003e-15
3.57223e-15
3.64884e-15
3.73885e-15
3.84149e-15
3.95619e-15
4.08224e-15
4.21946e-15
4.36763e-15
4.52663e-15
4.69633e-15
4.87664e-15
5.06766e-15
5.26941e-15
5.48204e-15
5.70572e-15
5.94047e-15
6.1866e-15
6.4443e-15
6.71361e-15
6.99486e-15
7.28821e-15
7.59376e-15
7.91179e-15
8.24239e-15
8.58574e-15
8.94208e-15
9.3115e-15
9.69402e-15
1.00896e-14
1.04983e-14
1.09204e-14
1.13554e-14
1.18033e-14
1.2264e-14
1.27374e-14
1.3223e-14
1.37203e-14
1.4229e-14
1.47485e-14
1.52781e-14
1.5817e-14
1.63643e-14
1.69188e-14
1.74795e-14
1.80449e-14
1.86134e-14
1.91833e-14
1.97526e-14
2.03192e-14
2.08805e-14
2.14338e-14
2.19761e-14
2.25039e-14
2.30134e-14
2.35006e-14
2.3961e-14
2.43893e-14
2.478e-14
2.51272e-14
2.54239e-14
2.5663e-14
2.58362e-14
2.59347e-14
2.5949e-14
2.58683e-14
2.5681e-14
2.53746e-14
2.49353e-14
2.43481e-14
2.35966e-14
2.26634e-14
2.15291e-14
2.0173e-14
1.85729e-14
1.67048e-14
1.45431e-14
1.20605e-14
9.22833e-15
6.01659e-15
2.39443e-15
-1.66934e-15
-6.20472e-15
-1.12409e-14
-1.68089e-14
-2.29224e-14
-2.94608e-14
-3.62783e-14
-4.53114e-14
-6.15032e-14
-5.79274e-14
3.96486e-15
3.82769e-15
3.70236e-15
3.61919e-15
3.56321e-15
3.52938e-15
3.51658e-15
3.5232e-15
3.54767e-15
3.58835e-15
3.64404e-15
3.7138e-15
3.79646e-15
3.89143e-15
3.99811e-15
4.11588e-15
4.24446e-15
4.38358e-15
4.5332e-15
4.6931e-15
4.86313e-15
5.04334e-15
5.23369e-15
5.43439e-15
5.64544e-15
5.86693e-15
6.099e-15
6.34187e-15
6.59553e-15
6.86018e-15
7.13585e-15
7.42285e-15
7.7212e-15
8.03099e-15
8.35231e-15
8.6853e-15
9.03001e-15
9.38647e-15
9.7545e-15
1.01341e-14
1.05253e-14
1.09278e-14
1.13415e-14
1.1766e-14
1.22012e-14
1.26465e-14
1.31015e-14
1.35656e-14
1.40381e-14
1.45182e-14
1.50052e-14
1.54979e-14
1.59952e-14
1.64958e-14
1.69982e-14
1.75007e-14
1.80016e-14
1.84987e-14
1.89898e-14
1.94722e-14
1.99432e-14
2.03997e-14
2.08381e-14
2.12547e-14
2.16453e-14
2.20054e-14
2.23298e-14
2.26129e-14
2.28488e-14
2.30307e-14
2.31516e-14
2.32032e-14
2.31771e-14
2.30637e-14
2.28528e-14
2.25332e-14
2.20927e-14
2.1518e-14
2.07949e-14
1.9908e-14
1.88404e-14
1.75742e-14
1.609e-14
1.43672e-14
1.23837e-14
1.01161e-14
7.53982e-15
4.62923e-15
1.35785e-15
-2.30086e-15
-6.37336e-15
-1.08842e-14
-1.58565e-14
-2.13149e-14
-2.72662e-14
-3.35774e-14
-4.00865e-14
-4.88053e-14
-6.49733e-14
-6.07044e-14
4.02527e-15
3.8965e-15
3.77851e-15
3.69911e-15
3.64437e-15
3.61014e-15
3.5952e-15
3.59847e-15
3.61852e-15
3.65404e-15
3.70385e-15
3.76705e-15
3.8428e-15
3.93039e-15
4.02926e-15
4.13886e-15
4.25889e-15
4.38914e-15
4.52923e-15
4.67922e-15
4.83893e-15
5.00822e-15
5.18709e-15
5.37567e-15
5.57397e-15
5.78204e-15
5.99997e-15
6.2278e-15
6.46564e-15
6.71349e-15
6.97147e-15
7.23969e-15
7.51824e-15
7.80713e-15
8.10637e-15
8.41603e-15
8.73601e-15
9.06638e-15
9.40694e-15
9.75756e-15
1.01181e-14
1.04883e-14
1.08679e-14
1.12566e-14
1.16539e-14
1.20595e-14
1.24727e-14
1.28928e-14
1.33191e-14
1.37507e-14
1.41868e-14
1.46261e-14
1.50674e-14
1.55094e-14
1.59505e-14
1.63888e-14
1.68227e-14
1.72498e-14
1.76679e-14
1.80742e-14
1.84659e-14
1.884e-14
1.91928e-14
1.95205e-14
1.98191e-14
2.00837e-14
2.03094e-14
2.04909e-14
2.06218e-14
2.06959e-14
2.0706e-14
2.06443e-14
2.05023e-14
2.02711e-14
1.99405e-14
1.94998e-14
1.89374e-14
1.82406e-14
1.7396e-14
1.63888e-14
1.52034e-14
1.38229e-14
1.22295e-14
1.0404e-14
8.32634e-15
5.97513e-15
3.3284e-15
3.63398e-16
-2.94316e-15
-6.61421e-15
-1.06721e-14
-1.5137e-14
-2.00272e-14
-2.5363e-14
-3.11472e-14
-3.72393e-14
-4.34713e-14
-5.19332e-14
-6.80933e-14
-6.31509e-14
4.07159e-15
3.9507e-15
3.83959e-15
3.76389e-15
3.71087e-15
3.67656e-15
3.66021e-15
3.66068e-15
3.67688e-15
3.70772e-15
3.75215e-15
3.80927e-15
3.8784e-15
3.95893e-15
4.05023e-15
4.15183e-15
4.26339e-15
4.38464e-15
4.51535e-15
4.65549e-15
4.80479e-15
4.96313e-15
5.13045e-15
5.3068e-15
5.49226e-15
5.68683e-15
5.89045e-15
6.10318e-15
6.32507e-15
6.5561e-15
6.7963e-15
7.04565e-15
7.30437e-15
7.57236e-15
7.84952e-15
8.13584e-15
8.43121e-15
8.73557e-15
9.0488e-15
9.37055e-15
9.70065e-15
1.00389e-14
1.03848e-14
1.0738e-14
1.10981e-14
1.14645e-14
1.18365e-14
1.22134e-14
1.25944e-14
1.29786e-14
1.33648e-14
1.37519e-14
1.41387e-14
1.45237e-14
1.49051e-14
1.52813e-14
1.56502e-14
1.60097e-14
1.63574e-14
1.66905e-14
1.70062e-14
1.73012e-14
1.75722e-14
1.78151e-14
1.80259e-14
1.82001e-14
1.83325e-14
1.84179e-14
1.84503e-14
1.84234e-14
1.83302e-14
1.81631e-14
1.7914e-14
1.75741e-14
1.7134e-14
1.65831e-14
1.59105e-14
1.51043e-14
1.41515e-14
1.30385e-14
1.17506e-14
1.02722e-14
8.58673e-15
6.67672e-15
4.52384e-15
2.10882e-15
-5.88073e-16
-3.58697e-15
-6.90817e-15
-1.05715e-14
-1.4596e-14
-1.89982e-14
-2.37928e-14
-2.89973e-14
-3.46115e-14
-4.04897e-14
-4.64605e-14
-5.46775e-14
-7.07753e-14
-6.51677e-14
4.10547e-15
3.99174e-15
3.88701e-15
3.81511e-15
3.76408e-15
3.73005e-15
3.71256e-15
3.71073e-15
3.72362e-15
3.75022e-15
3.78967e-15
3.84106e-15
3.9039e-15
3.97762e-15
4.06151e-15
4.15522e-15
4.25847e-15
4.37089e-15
4.49223e-15
4.62251e-15
4.76139e-15
4.90876e-15
5.0645e-15
5.22863e-15
5.40124e-15
5.58216e-15
5.77138e-15
5.969e-15
6.17493e-15
6.38909e-15
6.61147e-15
6.84209e-15
7.08098e-15
7.32809e-15
7.5832e-15
7.84632e-15
8.11715e-15
8.39576e-15
8.68177e-15
8.97493e-15
9.27499e-15
9.58158e-15
9.89422e-15
1.02125e-14
1.05359e-14
1.08638e-14
1.11954e-14
1.153e-14
1.18666e-14
1.22043e-14
1.2542e-14
1.28783e-14
1.32121e-14
1.35416e-14
1.38653e-14
1.41813e-14
1.44875e-14
1.47818e-14
1.50618e-14
1.53246e-14
1.55673e-14
1.57869e-14
1.59797e-14
1.6142e-14
1.62697e-14
1.63581e-14
1.64026e-14
1.63977e-14
1.63377e-14
1.62164e-14
1.60271e-14
1.57624e-14
1.54146e-14
1.49751e-14
1.4435e-14
1.37843e-14
1.30126e-14
1.21086e-14
1.10603e-14
9.85491e-15
8.47871e-15
6.91729e-15
5.15552e-15
3.17737e-15
9.66214e-16
-1.49526e-15
-4.22465e-15
-7.23978e-15
-1.05584e-14
-1.41976e-14
-1.81736e-14
-2.25001e-14
-2.71893e-14
-3.2256e-14
-3.76986e-14
-4.33674e-14
-4.90876e-14
-5.70634e-14
-7.30569e-14
-6.68361e-14
4.12791e-15
4.02089e-15
3.9224e-15
3.85409e-15
3.80506e-15
3.77159e-15
3.75341e-15
3.74968e-15
3.75954e-15
3.78217e-15
3.81703e-15
3.86308e-15
3.91992e-15
3.98698e-15
4.06368e-15
4.14969e-15
4.24477e-15
4.34842e-15
4.46053e-15
4.58096e-15
4.70946e-15
4.84586e-15
4.99005e-15
5.14199e-15
5.30171e-15
5.46897e-15
5.64386e-15
5.82636e-15
6.01628e-15
6.21363e-15
6.41824e-15
6.63019e-15
6.8494e-15
7.07565e-15
7.30886e-15
7.54892e-15
7.79549e-15
8.04851e-15
8.30759e-15
8.57253e-15
8.84294e-15
9.1184e-15
9.39829e-15
9.6822e-15
9.96959e-15
1.02597e-14
1.05517e-14
1.08449e-14
1.11382e-14
1.14306e-14
1.1721e-14
1.20079e-14
1.22902e-14
1.2566e-14
1.28339e-14
1.30918e-14
1.33376e-14
1.35692e-14
1.37841e-14
1.39795e-14
1.41526e-14
1.43001e-14
1.44186e-14
1.45044e-14
1.45533e-14
1.4561e-14
1.45226e-14
1.4433e-14
1.42867e-14
1.40775e-14
1.3799e-14
1.34443e-14
1.30057e-14
1.24753e-14
1.18444e-14
1.11037e-14
1.02434e-14
9.25272e-15
8.12061e-15
6.83522e-15
5.38373e-15
3.75291e-15
1.92902e-15
-1.02652e-16
-2.35711e-15
-4.84979e-15
-7.59641e-15
-1.06127e-14
-1.39143e-14
-1.7516e-14
-2.14314e-14
-2.56722e-14
-3.02483e-14
-3.51731e-14
-4.04434e-14
-4.59067e-14
-5.13854e-14
-5.91236e-14
-7.49842e-14
-6.82119e-14
4.14012e-15
4.0393e-15
3.94661e-15
3.882e-15
3.83502e-15
3.80237e-15
3.78357e-15
3.77813e-15
3.78531e-15
3.80444e-15
3.83497e-15
3.87596e-15
3.92697e-15
3.98763e-15
4.05741e-15
4.13589e-15
4.2229e-15
4.31797e-15
4.42087e-15
4.53156e-15
4.64974e-15
4.77524e-15
4.90791e-15
5.04775e-15
5.19455e-15
5.34824e-15
5.50879e-15
5.67617e-15
5.85027e-15
6.03079e-15
6.21775e-15
6.41117e-15
6.61076e-15
6.81635e-15
7.02785e-15
7.24508e-15
7.46762e-15
7.69538e-15
7.92801e-15
8.16507e-15
8.40624e-15
8.65105e-15
8.89877e-15
9.14897e-15
9.40104e-15
9.65418e-15
9.9076e-15
1.01604e-14
1.04115e-14
1.06598e-14
1.09042e-14
1.11433e-14
1.13757e-14
1.15996e-14
1.18135e-14
1.20154e-14
1.22032e-14
1.23746e-14
1.25272e-14
1.26582e-14
1.27647e-14
1.28437e-14
1.28917e-14
1.29051e-14
1.28796e-14
1.28112e-14
1.26951e-14
1.25263e-14
1.22994e-14
1.20087e-14
1.16478e-14
1.12102e-14
1.06886e-14
1.00755e-14
9.36252e-15
8.54101e-15
7.60178e-15
6.53492e-15
5.32986e-15
3.97576e-15
2.46089e-15
7.73046e-16
-1.10028e-15
-3.17242e-15
-5.45691e-15
-7.96754e-15
-1.07183e-14
-1.37231e-14
-1.69956e-14
-2.05486e-14
-2.43938e-14
-2.85411e-14
-3.29987e-14
-3.77787e-14
-4.28771e-14
-4.81387e-14
-5.33839e-14
-6.08883e-14
-7.65936e-14
-6.93297e-14
4.14306e-15
4.04795e-15
3.96083e-15
3.89983e-15
3.85499e-15
3.82314e-15
3.80396e-15
3.79713e-15
3.80189e-15
3.81771e-15
3.844e-15
3.88021e-15
3.9257e-15
3.98021e-15
4.04324e-15
4.11441e-15
4.19345e-15
4.28004e-15
4.3739e-15
4.47498e-15
4.58295e-15
4.69756e-15
4.81883e-15
4.94656e-15
5.08062e-15
5.22081e-15
5.36709e-15
5.5195e-15
5.67775e-15
5.84163e-15
6.01113e-15
6.18612e-15
6.36627e-15
6.55147e-15
6.74148e-15
6.93612e-15
7.13505e-15
7.33795e-15
7.5445e-15
7.75415e-15
7.96656e-15
8.18124e-15
8.39749e-15
8.61472e-15
8.83226e-15
9.04935e-15
9.26506e-15
9.47848e-15
9.68852e-15
9.89411e-15
1.0094e-14
1.02867e-14
1.04709e-14
1.06448e-14
1.08068e-14
1.09548e-14
1.10868e-14
1.12005e-14
1.12936e-14
1.13631e-14
1.14064e-14
1.14203e-14
1.14015e-14
1.13463e-14
1.12509e-14
1.1111e-14
1.09221e-14
1.06794e-14
1.03777e-14
1.00115e-14
9.57466e-15
9.06099e-15
8.46376e-15
7.77561e-15
6.98883e-15
6.0952e-15
5.08626e-15
3.95271e-15
2.68477e-15
1.27239e-15
-2.95086e-16
-2.0288e-15
-3.94017e-15
-6.04122e-15
-8.34412e-15
-1.08612e-14
-1.36049e-14
-1.65874e-14
-1.98207e-14
-2.33161e-14
-2.70836e-14
-3.11313e-14
-3.54665e-14
-4.01002e-14
-4.50276e-14
-5.00915e-14
-5.51107e-14
-6.23848e-14
-7.79162e-14
-7.02165e-14
4.13773e-15
4.04804e-15
3.96604e-15
3.90843e-15
3.86566e-15
3.83477e-15
3.81547e-15
3.80741e-15
3.80991e-15
3.82254e-15
3.84494e-15
3.87653e-15
3.9168e-15
3.96529e-15
4.02173e-15
4.08581e-15
4.15709e-15
4.23534e-15
4.32028e-15
4.41181e-15
4.50966e-15
4.6136e-15
4.72349e-15
4.8393e-15
4.96065e-15
5.08744e-15
5.21969e-15
5.35719e-15
5.49978e-15
5.64726e-15
5.79945e-15
5.95614e-15
6.11718e-15
6.28224e-15
6.45106e-15
6.62354e-15
6.79906e-15
6.97756e-15
7.1585e-15
7.34126e-15
7.52554e-15
7.71072e-15
7.89618e-15
8.08118e-15
8.26509e-15
8.44703e-15
8.62603e-15
8.80123e-15
8.97146e-15
9.13558e-15
9.29237e-15
9.44035e-15
9.57795e-15
9.70366e-15
9.81572e-15
9.91215e-15
9.99078e-15
1.00494e-14
1.00856e-14
1.00967e-14
1.00799e-14
1.00321e-14
9.95012e-15
9.83036e-15
9.66904e-15
9.46217e-15
9.20535e-15
8.89395e-15
8.52286e-15
8.08689e-15
7.58035e-15
6.99723e-15
6.3312e-15
5.57536e-15
4.72243e-15
3.76483e-15
2.6946e-15
1.50314e-15
1.81533e-16
-1.27955e-15
-2.8898e-15
-4.65941e-15
-6.59871e-15
-8.71847e-15
-1.10297e-14
-1.35432e-14
-1.62701e-14
-1.92213e-14
-2.24073e-14
-2.58378e-14
-2.95216e-14
-3.34655e-14
-3.76756e-14
-4.21623e-14
-4.692e-14
-5.17904e-14
-5.65909e-14
-6.36388e-14
-7.89803e-14
-7.08956e-14
4.12509e-15
4.04002e-15
3.96286e-15
3.90867e-15
3.86797e-15
3.83808e-15
3.81872e-15
3.80956e-15
3.81004e-15
3.81978e-15
3.83846e-15
3.86555e-15
3.90078e-15
3.94356e-15
3.99357e-15
4.05064e-15
4.11442e-15
4.18449e-15
4.26066e-15
4.34281e-15
4.43065e-15
4.52405e-15
4.62272e-15
4.72666e-15
4.8355e-15
4.94905e-15
5.06742e-15
5.19021e-15
5.31734e-15
5.44864e-15
5.5837e-15
5.7224e-15
5.86455e-15
6.00982e-15
6.15786e-15
6.30846e-15
6.46112e-15
6.61563e-15
6.7714e-15
6.9279e-15
7.08467e-15
7.241e-15
7.39637e-15
7.55005e-15
7.70116e-15
7.84895e-15
7.99235e-15
8.13049e-15
8.26218e-15
8.38617e-15
8.50131e-15
8.6061e-15
8.69899e-15
8.77844e-15
8.8426e-15
8.88951e-15
8.91713e-15
8.92324e-15
8.90531e-15
8.8608e-15
8.78702e-15
8.68095e-15
8.53939e-15
8.35891e-15
8.13584e-15
7.86631e-15
7.54617e-15
7.17091e-15
6.73572e-15
6.2356e-15
5.66519e-15
5.01885e-15
4.29052e-15
3.47386e-15
2.56201e-15
1.54795e-15
4.24302e-16
-8.16924e-16
-2.18384e-15
-3.68501e-15
-5.32927e-15
-7.12579e-15
-9.08403e-15
-1.12136e-14
-1.35242e-14
-1.60256e-14
-1.87278e-14
-2.16402e-14
-2.47719e-14
-2.81318e-14
-3.17272e-14
-3.55641e-14
-3.96476e-14
-4.39874e-14
-4.85776e-14
-5.32588e-14
-5.78477e-14
-6.46734e-14
-7.98113e-14
-7.13878e-14
4.10585e-15
4.02442e-15
3.95185e-15
3.90125e-15
3.86269e-15
3.83387e-15
3.81439e-15
3.80422e-15
3.80291e-15
3.81003e-15
3.82518e-15
3.84807e-15
3.87836e-15
3.91559e-15
3.95938e-15
4.00962e-15
4.06591e-15
4.12807e-15
4.19566e-15
4.26855e-15
4.34656e-15
4.42957e-15
4.51723e-15
4.60944e-15
4.70592e-15
4.80655e-15
4.91115e-15
5.01951e-15
5.13138e-15
5.24663e-15
5.36488e-15
5.48595e-15
5.60953e-15
5.73537e-15
5.86302e-15
5.99218e-15
6.12243e-15
6.25344e-15
6.38461e-15
6.51546e-15
6.64534e-15
6.77363e-15
6.89973e-15
7.02287e-15
7.1421e-15
7.25679e-15
7.36568e-15
7.46791e-15
7.56233e-15
7.64769e-15
7.72271e-15
7.78596e-15
7.83593e-15
7.87089e-15
7.88918e-15
7.88882e-15
7.86779e-15
7.82378e-15
7.75443e-15
7.65728e-15
7.5296e-15
7.36852e-15
7.17086e-15
6.93336e-15
6.65257e-15
6.32463e-15
5.94558e-15
5.51119e-15
5.01687e-15
4.4579e-15
3.82921e-15
3.1255e-15
2.34105e-15
1.46995e-15
5.05896e-16
-5.57691e-16
-1.72759e-15
-3.01113e-15
-4.41569e-15
-5.94916e-15
-7.61952e-15
-9.43504e-15
-1.14042e-14
-1.35357e-14
-1.58381e-14
-1.83202e-14
-2.09907e-14
-2.3858e-14
-2.69302e-14
-3.02149e-14
-3.37186e-14
-3.74462e-14
-4.14023e-14
-4.55961e-14
-5.00212e-14
-5.45177e-14
-5.8902e-14
-6.55097e-14
-8.04322e-14
-7.1712e-14
4.08124e-15
4.00146e-15
3.93365e-15
3.88675e-15
3.85049e-15
3.82271e-15
3.80343e-15
3.79236e-15
3.78925e-15
3.79382e-15
3.80566e-15
3.82461e-15
3.85013e-15
3.88191e-15
3.91971e-15
3.96331e-15
4.01236e-15
4.06666e-15
4.12586e-15
4.18969e-15
4.25811e-15
4.33085e-15
4.40771e-15
4.48839e-15
4.57275e-15
4.66063e-15
4.75171e-15
4.84581e-15
4.94274e-15
5.04228e-15
5.14404e-15
5.24778e-15
5.35318e-15
5.4599e-15
5.56756e-15
5.67584e-15
5.7842e-15
5.89222e-15
5.99939e-15
6.10523e-15
6.20897e-15
6.31003e-15
6.40763e-15
6.50111e-15
6.5895e-15
6.67203e-15
6.7476e-15
6.81521e-15
6.87367e-15
6.92178e-15
6.95824e-15
6.98161e-15
6.99035e-15
6.98281e-15
6.95722e-15
6.91172e-15
6.84432e-15
6.75275e-15
6.6347e-15
6.48767e-15
6.3091e-15
6.09617e-15
5.84591e-15
5.55505e-15
5.22023e-15
4.83795e-15
4.40429e-15
3.91533e-15
3.3666e-15
2.75379e-15
2.07208e-15
1.31648e-15
4.81639e-16
-4.37898e-16
-1.44802e-15
-2.55468e-15
-3.76424e-15
-5.08331e-15
-6.51864e-15
-8.07736e-15
-9.76677e-15
-1.15942e-14
-1.35674e-14
-1.5694e-14
-1.79817e-14
-2.04383e-14
-2.30714e-14
-2.58886e-14
-2.88968e-14
-3.21029e-14
-3.55123e-14
-3.91296e-14
-4.29583e-14
-4.70074e-14
-5.12702e-14
-5.55867e-14
-5.97731e-14
-6.61671e-14
-8.08642e-14
-7.18852e-14
4.05311e-15
3.97111e-15
3.90922e-15
3.86632e-15
3.83217e-15
3.80554e-15
3.78636e-15
3.77454e-15
3.76985e-15
3.7719e-15
3.78055e-15
3.79568e-15
3.81662e-15
3.84312e-15
3.87512e-15
3.91229e-15
3.95426e-15
4.00093e-15
4.05187e-15
4.10693e-15
4.16589e-15
4.22862e-15
4.29487e-15
4.36428e-15
4.43667e-15
4.512e-15
4.58993e-15
4.67007e-15
4.75234e-15
4.83645e-15
4.92205e-15
5.00884e-15
5.09645e-15
5.18449e-15
5.27268e-15
5.36048e-15
5.44746e-15
5.53318e-15
5.61701e-15
5.69844e-15
5.77683e-15
5.85137e-15
5.92137e-15
5.98615e-15
6.04471e-15
6.09619e-15
6.13956e-15
6.17381e-15
6.19768e-15
6.21002e-15
6.20945e-15
6.19455e-15
6.1639e-15
6.11569e-15
6.04825e-15
5.95985e-15
5.84835e-15
5.71161e-15
5.54736e-15
5.35325e-15
5.12681e-15
4.86517e-15
4.56549e-15
4.22476e-15
3.8397e-15
3.40694e-15
2.92279e-15
2.38346e-15
1.78488e-15
1.12296e-15
3.93156e-16
-4.09215e-16
-1.28905e-15
-2.2515e-15
-3.30193e-15
-4.44587e-15
-5.68901e-15
-7.0374e-15
-8.49728e-15
-1.0075e-14
-1.17772e-14
-1.36104e-14
-1.55815e-14
-1.76974e-14
-1.99648e-14
-2.23906e-14
-2.49817e-14
-2.77446e-14
-3.06856e-14
-3.38104e-14
-3.71241e-14
-4.06304e-14
-4.43324e-14
-4.82387e-14
-5.23424e-14
-5.64836e-14
-6.04788e-14
-6.66635e-14
-8.11266e-14
-7.19235e-14
4.01222e-15
3.93802e-15
3.88165e-15
3.84116e-15
3.80861e-15
3.783e-15
3.76396e-15
3.75139e-15
3.74512e-15
3.74492e-15
3.75057e-15
3.76187e-15
3.77833e-15
3.79985e-15
3.82624e-15
3.85704e-15
3.89217e-15
3.93142e-15
3.97431e-15
4.02083e-15
4.07062e-15
4.12351e-15
4.17927e-15
4.23774e-15
4.29854e-15
4.36156e-15
4.42647e-15
4.49304e-15
4.56094e-15
4.62997e-15
4.69982e-15
4.77007e-15
4.8403e-15
4.91021e-15
4.97929e-15
5.0472e-15
5.11343e-15
5.1774e-15
5.23857e-15
5.2964e-15
5.35008e-15
5.39897e-15
5.44231e-15
5.4793e-15
5.50907e-15
5.53065e-15
5.54303e-15
5.54517e-15
5.53578e-15
5.51377e-15
5.47775e-15
5.42629e-15
5.35791e-15
5.27094e-15
5.16371e-15
5.03445e-15
4.88115e-15
4.70165e-15
4.49382e-15
4.25534e-15
3.98373e-15
3.67639e-15
3.33053e-15
2.94325e-15
2.51149e-15
2.03202e-15
1.50127e-15
9.15683e-16
2.71512e-16
-4.35101e-16
-1.2084e-15
-2.05273e-15
-2.97262e-15
-3.97284e-15
-5.05834e-15
-6.23411e-15
-7.50534e-15
-8.87762e-15
-1.03565e-14
-1.19476e-14
-1.3657e-14
-1.54906e-14
-1.74543e-14
-1.95544e-14
-2.17968e-14
-2.41877e-14
-2.67329e-14
-2.94383e-14
-3.23094e-14
-3.53513e-14
-3.85684e-14
-4.19638e-14
-4.55404e-14
-4.93061e-14
-5.32541e-14
-5.72248e-14
-6.10353e-14
-6.70154e-14
-8.12377e-14
-7.18416e-14
3.96123e-15
3.90085e-15
3.84932e-15
3.81127e-15
3.78041e-15
3.75563e-15
3.73661e-15
3.72341e-15
3.71574e-15
3.71343e-15
3.71623e-15
3.72375e-15
3.73597e-15
3.7527e-15
3.77357e-15
3.79825e-15
3.82679e-15
3.85871e-15
3.89378e-15
3.93197e-15
3.9728e-15
4.01611e-15
4.06172e-15
4.10946e-15
4.15888e-15
4.20995e-15
4.2622e-15
4.31548e-15
4.36944e-15
4.4238e-15
4.47826e-15
4.53233e-15
4.58569e-15
4.63785e-15
4.68847e-15
4.73707e-15
4.7831e-15
4.82597e-15
4.86515e-15
4.90007e-15
4.92994e-15
4.95406e-15
4.97162e-15
4.98185e-15
4.98387e-15
4.97666e-15
4.95923e-15
4.93056e-15
4.8893e-15
4.83436e-15
4.76442e-15
4.67807e-15
4.57376e-15
4.44986e-15
4.30478e-15
4.13679e-15
3.94393e-15
3.72401e-15
3.47506e-15
3.19479e-15
2.88087e-15
2.53071e-15
2.14174e-15
1.71119e-15
1.23604e-15
7.13298e-16
1.39614e-16
-4.88316e-16
-1.174e-15
-1.92111e-15
-2.73362e-15
-3.61546e-15
-4.57085e-15
-5.60413e-15
-6.71986e-15
-7.9225e-15
-9.21691e-15
-1.06081e-14
-1.21009e-14
-1.37006e-14
-1.54123e-14
-1.72415e-14
-1.91934e-14
-2.12735e-14
-2.3487e-14
-2.58393e-14
-2.83357e-14
-3.09811e-14
-3.37806e-14
-3.67385e-14
-3.98589e-14
-4.3144e-14
-4.65966e-14
-5.02245e-14
-5.40205e-14
-5.78256e-14
-6.14578e-14
-6.7238e-14
-8.12142e-14
-7.16534e-14
3.90684e-15
3.85819e-15
3.81193e-15
3.77678e-15
3.74778e-15
3.72382e-15
3.70498e-15
3.6912e-15
3.6822e-15
3.67784e-15
3.67791e-15
3.68195e-15
3.6901e-15
3.70207e-15
3.71768e-15
3.73645e-15
3.75854e-15
3.78343e-15
3.81095e-15
3.84094e-15
3.87305e-15
3.90708e-15
3.94282e-15
3.9801e-15
4.0185e-15
4.05786e-15
4.09784e-15
4.13819e-15
4.17854e-15
4.21863e-15
4.25812e-15
4.29649e-15
4.33344e-15
4.36847e-15
4.40116e-15
4.43097e-15
4.45738e-15