/*--------------------------------*- C++ -*----------------------------------*\
  =========                 |
  \\      /  F ield         | OpenFOAM: The Open Source CFD Toolbox
   \\    /   O peration     | Website:  https://openfoam.org
    \\  /    A nd           | Version:  11
     \\/     M anipulation  |
\*---------------------------------------------------------------------------*/
FoamFile
{
    format      ascii;
    class       volVectorField;
    location    "470";
    object      U;
}
// * * * * * * * * * * * * * * * * * * * * * * * * * * * * * * * * * * * * * //

dimensions      [0 1 -1 0 0 0 0];

internalField   nonuniform List<vector> 
10000
(
(0.00499997 -8.59272e-07 0)
(0.00499984 -2.48757e-06 0)
(0.00499967 -4.11238e-06 0)
(0.00499946 -5.77563e-06 0)
(0.00499921 -7.49986e-06 0)
(0.00499892 -9.30034e-06 0)
(0.00499859 -1.11891e-05 0)
(0.00499821 -1.31766e-05 0)
(0.00499779 -1.52719e-05 0)
(0.00499732 -1.74836e-05 0)
(0.0049968 -1.982e-05 0)
(0.00499622 -2.22891e-05 0)
(0.00499558 -2.48989e-05 0)
(0.00499488 -2.76573e-05 0)
(0.00499412 -3.05722e-05 0)
(0.00499328 -3.36518e-05 0)
(0.00499237 -3.6904e-05 0)
(0.00499138 -4.03371e-05 0)
(0.00499031 -4.39595e-05 0)
(0.00498915 -4.77796e-05 0)
(0.0049879 -5.1806e-05 0)
(0.00498655 -5.60475e-05 0)
(0.00498509 -6.05128e-05 0)
(0.00498353 -6.5211e-05 0)
(0.00498185 -7.01511e-05 0)
(0.00498005 -7.53425e-05 0)
(0.00497812 -8.07943e-05 0)
(0.00497605 -8.6516e-05 0)
(0.00497384 -9.25171e-05 0)
(0.00497149 -9.8807e-05 0)
(0.00496898 -0.000105395 0)
(0.0049663 -0.000112292 0)
(0.00496345 -0.000119505 0)
(0.00496042 -0.000127046 0)
(0.0049572 -0.000134922 0)
(0.00495378 -0.000143144 0)
(0.00495016 -0.00015172 0)
(0.00494632 -0.000160659 0)
(0.00494226 -0.000169969 0)
(0.00493796 -0.000179658 0)
(0.00493341 -0.000189734 0)
(0.00492861 -0.000200204 0)
(0.00492354 -0.000211074 0)
(0.0049182 -0.000222351 0)
(0.00491257 -0.000234037 0)
(0.00490664 -0.000246139 0)
(0.00490041 -0.000258657 0)
(0.00489385 -0.000271595 0)
(0.00488696 -0.000284952 0)
(0.00487974 -0.000298726 0)
(0.00487216 -0.000312916 0)
(0.00486422 -0.000327516 0)
(0.0048559 -0.000342518 0)
(0.0048472 -0.000357914 0)
(0.00483811 -0.000373692 0)
(0.00482861 -0.000389836 0)
(0.00481871 -0.00040633 0)
(0.00480838 -0.000423151 0)
(0.00479763 -0.000440276 0)
(0.00478645 -0.000457674 0)
(0.00477483 -0.000475314 0)
(0.00476277 -0.000493158 0)
(0.00475027 -0.000511163 0)
(0.00473732 -0.000529283 0)
(0.00472394 -0.000547466 0)
(0.00471012 -0.000565654 0)
(0.00469588 -0.000583785 0)
(0.00468121 -0.000601792 0)
(0.00466615 -0.0006196 0)
(0.00465069 -0.000637135 0)
(0.00463486 -0.000654313 0)
(0.00461869 -0.00067105 0)
(0.0046022 -0.000687259 0)
(0.00458543 -0.00070285 0)
(0.0045684 -0.000717734 0)
(0.00455117 -0.000731822 0)
(0.00453377 -0.00074503 0)
(0.00451626 -0.000757276 0)
(0.00449869 -0.000768484 0)
(0.00448112 -0.000778589 0)
(0.00446362 -0.000787532 0)
(0.00444625 -0.00079528 0)
(0.0044292 -0.00080184 0)
(0.0044122 -0.000807249 0)
(0.00439521 -0.000811326 0)
(0.00437843 -0.000814081 0)
(0.00436184 -0.000815563 0)
(0.00434562 -0.000815763 0)
(0.00433017 -0.00081476 0)
(0.00431561 -0.000812674 0)
(0.00430196 -0.000809584 0)
(0.00428929 -0.000805638 0)
(0.00427738 -0.000800984 0)
(0.00426631 -0.000795726 0)
(0.00425618 -0.000789987 0)
(0.00424711 -0.000783936 0)
(0.0042392 -0.000777785 0)
(0.00423259 -0.000771799 0)
(0.00422728 -0.000766441 0)
(0.00422347 -0.000762904 0)
(0.00499999 -7.75822e-07 0)
(0.00499987 -2.32736e-06 0)
(0.00499971 -3.90286e-06 0)
(0.0049995 -5.5218e-06 0)
(0.00499924 -7.2021e-06 0)
(0.00499895 -8.9574e-06 0)
(0.00499862 -1.0799e-05 0)
(0.00499824 -1.27366e-05 0)
(0.00499782 -1.47791e-05 0)
(0.00499735 -1.69348e-05 0)
(0.00499683 -1.92118e-05 0)
(0.00499625 -2.16178e-05 0)
(0.00499561 -2.41605e-05 0)
(0.00499491 -2.68477e-05 0)
(0.00499415 -2.9687e-05 0)
(0.00499331 -3.26863e-05 0)
(0.0049924 -3.58535e-05 0)
(0.00499142 -3.91966e-05 0)
(0.00499035 -4.27235e-05 0)
(0.00498919 -4.64426e-05 0)
(0.00498794 -5.03623e-05 0)
(0.00498659 -5.44908e-05 0)
(0.00498513 -5.8837e-05 0)
(0.00498357 -6.34095e-05 0)
(0.00498189 -6.8217e-05 0)
(0.00498009 -7.32687e-05 0)
(0.00497817 -7.85734e-05 0)
(0.00497611 -8.41403e-05 0)
(0.0049739 -8.99787e-05 0)
(0.00497155 -9.60976e-05 0)
(0.00496904 -0.000102506 0)
(0.00496637 -0.000109214 0)
(0.00496352 -0.00011623 0)
(0.0049605 -0.000123563 0)
(0.00495728 -0.000131223 0)
(0.00495387 -0.000139218 0)
(0.00495025 -0.000147557 0)
(0.00494642 -0.000156248 0)
(0.00494236 -0.0001653 0)
(0.00493806 -0.00017472 0)
(0.00493353 -0.000184515 0)
(0.00492873 -0.000194692 0)
(0.00492367 -0.000205258 0)
(0.00491834 -0.000216218 0)
(0.00491272 -0.000227576 0)
(0.0049068 -0.000239336 0)
(0.00490057 -0.000251502 0)
(0.00489403 -0.000264074 0)
(0.00488715 -0.000277053 0)
(0.00487994 -0.000290437 0)
(0.00487237 -0.000304224 0)
(0.00486444 -0.000318409 0)
(0.00485614 -0.000332985 0)
(0.00484745 -0.000347944 0)
(0.00483837 -0.000363273 0)
(0.00482889 -0.000378959 0)
(0.004819 -0.000394984 0)
(0.00480869 -0.000411329 0)
(0.00479796 -0.000427969 0)
(0.0047868 -0.000444877 0)
(0.0047752 -0.000462022 0)
(0.00476316 -0.000479367 0)
(0.00475068 -0.000496873 0)
(0.00473776 -0.000514496 0)
(0.0047244 -0.000532184 0)
(0.0047106 -0.000549885 0)
(0.00469638 -0.000567538 0)
(0.00468174 -0.000585079 0)
(0.0046667 -0.000602439 0)
(0.00465126 -0.000619545 0)
(0.00463546 -0.000636319 0)
(0.00461932 -0.000652682 0)
(0.00460285 -0.000668551 0)
(0.0045861 -0.00068384 0)
(0.0045691 -0.000698466 0)
(0.00455189 -0.000712345 0)
(0.00453451 -0.000725396 0)
(0.00451701 -0.000737543 0)
(0.00449945 -0.000748717 0)
(0.00448187 -0.000758854 0)
(0.00446433 -0.000767904 0)
(0.00444688 -0.000775819 0)
(0.00442957 -0.000782531 0)
(0.00441234 -0.000787946 0)
(0.00439536 -0.000792101 0)
(0.00437874 -0.000795053 0)
(0.00436256 -0.000796885 0)
(0.00434687 -0.000797742 0)
(0.00433173 -0.000797664 0)
(0.00431721 -0.000796613 0)
(0.00430336 -0.000794619 0)
(0.00429036 -0.000791705 0)
(0.00427824 -0.000788038 0)
(0.00426701 -0.000783811 0)
(0.00425674 -0.000779193 0)
(0.0042475 -0.000774371 0)
(0.00423938 -0.000769569 0)
(0.00423245 -0.000765073 0)
(0.00422648 -0.00076133 0)
(0.00422147 -0.000759198 0)
(0.005 -7.08789e-07 0)
(0.0049999 -2.17915e-06 0)
(0.00499975 -3.69864e-06 0)
(0.00499954 -5.27065e-06 0)
(0.00499929 -6.90629e-06 0)
(0.004999 -8.61658e-06 0)
(0.00499867 -1.04115e-05 0)
(0.00499829 -1.23001e-05 0)
(0.00499787 -1.42909e-05 0)
(0.0049974 -1.63918e-05 0)
(0.00499688 -1.86105e-05 0)
(0.0049963 -2.09547e-05 0)
(0.00499566 -2.34318e-05 0)
(0.00499497 -2.60494e-05 0)
(0.0049942 -2.88149e-05 0)
(0.00499337 -3.17359e-05 0)
(0.00499246 -3.48201e-05 0)
(0.00499148 -3.80752e-05 0)
(0.00499041 -4.15091e-05 0)
(0.00498925 -4.51297e-05 0)
(0.00498801 -4.89453e-05 0)
(0.00498666 -5.2964e-05 0)
(0.00498521 -5.71942e-05 0)
(0.00498365 -6.16443e-05 0)
(0.00498198 -6.63229e-05 0)
(0.00498018 -7.12387e-05 0)
(0.00497826 -7.64005e-05 0)
(0.00497621 -8.18171e-05 0)
(0.00497401 -8.74973e-05 0)
(0.00497166 -9.34502e-05 0)
(0.00496916 -9.96847e-05 0)
(0.00496649 -0.00010621 0)
(0.00496366 -0.000113034 0)
(0.00496064 -0.000120167 0)
(0.00495743 -0.000127617 0)
(0.00495403 -0.000135392 0)
(0.00495042 -0.000143502 0)
(0.0049466 -0.000151953 0)
(0.00494255 -0.000160755 0)
(0.00493827 -0.000169914 0)
(0.00493375 -0.000179437 0)
(0.00492897 -0.000189332 0)
(0.00492392 -0.000199604 0)
(0.0049186 -0.000210258 0)
(0.004913 -0.0002213 0)
(0.0049071 -0.000232732 0)
(0.00490089 -0.000244557 0)
(0.00489437 -0.000256776 0)
(0.00488751 -0.000269391 0)
(0.00488032 -0.0002824 0)
(0.00487277 -0.000295799 0)
(0.00486487 -0.000309586 0)
(0.00485659 -0.000323752 0)
(0.00484793 -0.00033829 0)
(0.00483888 -0.000353188 0)
(0.00482943 -0.000368433 0)
(0.00481957 -0.000384009 0)
(0.0048093 -0.000399897 0)
(0.0047986 -0.000416072 0)
(0.00478747 -0.000432511 0)
(0.0047759 -0.000449181 0)
(0.0047639 -0.000466049 0)
(0.00475146 -0.000483078 0)
(0.00473858 -0.000500224 0)
(0.00472527 -0.000517439 0)
(0.00471152 -0.000534673 0)
(0.00469734 -0.000551868 0)
(0.00468275 -0.000568964 0)
(0.00466775 -0.000585894 0)
(0.00465237 -0.00060259 0)
(0.00463662 -0.000618978 0)
(0.00462052 -0.000634981 0)
(0.00460411 -0.000650521 0)
(0.0045874 -0.000665519 0)
(0.00457045 -0.000679894 0)
(0.00455328 -0.000693567 0)
(0.00453594 -0.000706461 0)
(0.00451848 -0.000718504 0)
(0.00450093 -0.000729628 0)
(0.00448336 -0.000739773 0)
(0.00446582 -0.000748884 0)
(0.00444834 -0.000756909 0)
(0.00443099 -0.000763792 0)
(0.00441382 -0.000769516 0)
(0.00439692 -0.000774106 0)
(0.00438038 -0.000777586 0)
(0.00436426 -0.000779989 0)
(0.00434862 -0.000781382 0)
(0.00433351 -0.000781821 0)
(0.00431898 -0.000781356 0)
(0.0043051 -0.000780057 0)
(0.00429196 -0.00077799 0)
(0.00427963 -0.000775261 0)
(0.00426817 -0.00077203 0)
(0.00425762 -0.000768472 0)
(0.00424804 -0.000764779 0)
(0.00423949 -0.000761177 0)
(0.00423196 -0.000757934 0)
(0.00422499 -0.00075541 0)
(0.00421857 -0.00075415 0)
(0.005 -6.62963e-07 0)
(0.00499992 -2.06066e-06 0)
(0.00499978 -3.52337e-06 0)
(0.00499958 -5.04764e-06 0)
(0.00499934 -6.63942e-06 0)
(0.00499905 -8.3068e-06 0)
(0.00499873 -1.00581e-05 0)
(0.00499835 -1.19015e-05 0)
(0.00499793 -1.38447e-05 0)
(0.00499746 -1.58954e-05 0)
(0.00499694 -1.80609e-05 0)
(0.00499636 -2.03487e-05 0)
(0.00499573 -2.2766e-05 0)
(0.00499503 -2.532e-05 0)
(0.00499427 -2.80181e-05 0)
(0.00499344 -3.08676e-05 0)
(0.00499254 -3.3876e-05 0)
(0.00499155 -3.70509e-05 0)
(0.00499049 -4.03999e-05 0)
(0.00498934 -4.39307e-05 0)
(0.00498809 -4.76513e-05 0)
(0.00498675 -5.15697e-05 0)
(0.00498531 -5.5694e-05 0)
(0.00498375 -6.00324e-05 0)
(0.00498209 -6.45933e-05 0)
(0.0049803 -6.93851e-05 0)
(0.00497838 -7.44164e-05 0)
(0.00497633 -7.96956e-05 0)
(0.00497414 -8.52315e-05 0)
(0.00497181 -9.10328e-05 0)
(0.00496931 -9.71082e-05 0)
(0.00496666 -0.000103466 0)
(0.00496383 -0.000110116 0)
(0.00496082 -0.000117065 0)
(0.00495763 -0.000124323 0)
(0.00495424 -0.000131898 0)
(0.00495065 -0.000139798 0)
(0.00494684 -0.000148031 0)
(0.00494281 -0.000156604 0)
(0.00493854 -0.000165525 0)
(0.00493403 -0.0001748 0)
(0.00492927 -0.000184437 0)
(0.00492425 -0.00019444 0)
(0.00491895 -0.000204816 0)
(0.00491337 -0.000215567 0)
(0.00490749 -0.000226699 0)
(0.00490131 -0.000238212 0)
(0.00489481 -0.00025011 0)
(0.00488798 -0.000262392 0)
(0.00488082 -0.000275057 0)
(0.00487331 -0.000288103 0)
(0.00486543 -0.000301525 0)
(0.00485719 -0.000315316 0)
(0.00484857 -0.000329469 0)
(0.00483956 -0.000343974 0)
(0.00483015 -0.000358816 0)
(0.00482033 -0.000373981 0)
(0.0048101 -0.00038945 0)
(0.00479945 -0.000405202 0)
(0.00478837 -0.00042121 0)
(0.00477686 -0.000437446 0)
(0.00476492 -0.000453878 0)
(0.00475253 -0.00047047 0)
(0.00473971 -0.000487179 0)
(0.00472645 -0.000503962 0)
(0.00471277 -0.000520768 0)
(0.00469866 -0.000537544 0)
(0.00468413 -0.000554232 0)
(0.00466921 -0.000570768 0)
(0.00465389 -0.000587087 0)
(0.00463821 -0.00060312 0)
(0.00462219 -0.000618792 0)
(0.00460585 -0.000634031 0)
(0.00458922 -0.000648759 0)
(0.00457233 -0.0006629 0)
(0.00455523 -0.000676378 0)
(0.00453795 -0.000689121 0)
(0.00452055 -0.000701059 0)
(0.00450305 -0.000712126 0)
(0.00448552 -0.000722263 0)
(0.00446801 -0.000731415 0)
(0.00445056 -0.000739533 0)
(0.00443324 -0.000746573 0)
(0.00441612 -0.000752525 0)
(0.00439927 -0.000757408 0)
(0.00438276 -0.000761251 0)
(0.00436666 -0.000764089 0)
(0.00435102 -0.000765978 0)
(0.00433587 -0.000766972 0)
(0.00432129 -0.000767126 0)
(0.00430732 -0.000766508 0)
(0.00429404 -0.000765189 0)
(0.0042815 -0.000763274 0)
(0.00426976 -0.000760905 0)
(0.00425888 -0.000758248 0)
(0.00424886 -0.000755486 0)
(0.00423976 -0.000752826 0)
(0.0042315 -0.000750496 0)
(0.00422349 -0.000748775 0)
(0.00421577 -0.000748043 0)
(0.005 -6.25878e-07 0)
(0.00499993 -1.95691e-06 0)
(0.0049998 -3.36212e-06 0)
(0.00499962 -4.83597e-06 0)
(0.00499939 -6.38138e-06 0)
(0.00499911 -8.00401e-06 0)
(0.00499878 -9.71053e-06 0)
(0.00499841 -1.15079e-05 0)
(0.004998 -1.34033e-05 0)
(0.00499753 -1.54038e-05 0)
(0.00499701 -1.75163e-05 0)
(0.00499644 -1.9748e-05 0)
(0.0049958 -2.21058e-05 0)
(0.00499511 -2.45968e-05 0)
(0.00499435 -2.7228e-05 0)
(0.00499352 -3.00067e-05 0)
(0.00499262 -3.294e-05 0)
(0.00499165 -3.60353e-05 0)
(0.00499058 -3.93001e-05 0)
(0.00498944 -4.27419e-05 0)
(0.0049882 -4.63684e-05 0)
(0.00498686 -5.01874e-05 0)
(0.00498542 -5.42067e-05 0)
(0.00498388 -5.84344e-05 0)
(0.00498221 -6.28786e-05 0)
(0.00498043 -6.75475e-05 0)
(0.00497853 -7.24493e-05 0)
(0.00497648 -7.75925e-05 0)
(0.0049743 -8.29854e-05 0)
(0.00497198 -8.86364e-05 0)
(0.00496949 -9.4554e-05 0)
(0.00496685 -0.000100747 0)
(0.00496404 -0.000107223 0)
(0.00496104 -0.000113991 0)
(0.00495786 -0.000121058 0)
(0.00495449 -0.000128434 0)
(0.00495091 -0.000136126 0)
(0.00494712 -0.000144142 0)
(0.00494311 -0.000152489 0)
(0.00493887 -0.000161174 0)
(0.00493438 -0.000170203 0)
(0.00492964 -0.000179584 0)
(0.00492464 -0.000189321 0)
(0.00491937 -0.000199419 0)
(0.00491382 -0.000209884 0)
(0.00490797 -0.000220718 0)
(0.00490182 -0.000231923 0)
(0.00489535 -0.000243502 0)
(0.00488856 -0.000255454 0)
(0.00488143 -0.000267778 0)
(0.00487396 -0.000280473 0)
(0.00486613 -0.000293533 0)
(0.00485793 -0.000306953 0)
(0.00484935 -0.000320725 0)
(0.00484039 -0.000334839 0)
(0.00483103 -0.000349283 0)
(0.00482127 -0.000364041 0)
(0.00481109 -0.000379095 0)
(0.0048005 -0.000394426 0)
(0.00478948 -0.000410008 0)
(0.00477804 -0.000425814 0)
(0.00476616 -0.000441814 0)
(0.00475385 -0.000457972 0)
(0.0047411 -0.000474249 0)
(0.00472792 -0.000490603 0)
(0.00471431 -0.000506985 0)
(0.00470029 -0.000523346 0)
(0.00468585 -0.000539628 0)
(0.00467101 -0.000555774 0)
(0.00465579 -0.000571719 0)
(0.0046402 -0.000587398 0)
(0.00462426 -0.000602741 0)
(0.00460801 -0.000617678 0)
(0.00459147 -0.000632135 0)
(0.00457468 -0.000646041 0)
(0.00455766 -0.000659323 0)
(0.00454047 -0.000671911 0)
(0.00452314 -0.000683738 0)
(0.00450572 -0.000694741 0)
(0.00448825 -0.000704864 0)
(0.00447079 -0.000714053 0)
(0.0044534 -0.000722266 0)
(0.00443613 -0.00072947 0)
(0.00441906 -0.000735654 0)
(0.00440225 -0.000740832 0)
(0.00438576 -0.00074503 0)
(0.00436965 -0.000748282 0)
(0.00435397 -0.000750638 0)
(0.00433877 -0.00075215 0)
(0.0043241 -0.000752876 0)
(0.00431 -0.000752883 0)
(0.00429654 -0.000752249 0)
(0.00428377 -0.000751074 0)
(0.00427173 -0.000749489 0)
(0.00426046 -0.000747641 0)
(0.00424996 -0.000745696 0)
(0.00424026 -0.00074383 0)
(0.00423125 -0.00074223 0)
(0.00422226 -0.000741119 0)
(0.00421332 -0.000740874 0)
(0.005 -5.93524e-07 0)
(0.00499994 -1.86299e-06 0)
(0.00499982 -3.2116e-06 0)
(0.00499965 -4.63371e-06 0)
(0.00499943 -6.13073e-06 0)
(0.00499916 -7.70664e-06 0)
(0.00499884 -9.36669e-06 0)
(0.00499848 -1.11168e-05 0)
(0.00499806 -1.29634e-05 0)
(0.0049976 -1.49129e-05 0)
(0.00499709 -1.69718e-05 0)
(0.00499652 -1.9147e-05 0)
(0.00499589 -2.1445e-05 0)
(0.0049952 -2.38727e-05 0)
(0.00499444 -2.64368e-05 0)
(0.00499362 -2.91445e-05 0)
(0.00499272 -3.20026e-05 0)
(0.00499175 -3.50183e-05 0)
(0.00499069 -3.81988e-05 0)
(0.00498955 -4.15515e-05 0)
(0.00498832 -4.50838e-05 0)
(0.00498699 -4.88033e-05 0)
(0.00498555 -5.27177e-05 0)
(0.00498401 -5.68346e-05 0)
(0.00498236 -6.11621e-05 0)
(0.00498059 -6.5708e-05 0)
(0.00497869 -7.04804e-05 0)
(0.00497666 -7.54874e-05 0)
(0.00497449 -8.07372e-05 0)
(0.00497217 -8.62379e-05 0)
(0.0049697 -9.19978e-05 0)
(0.00496707 -9.8025e-05 0)
(0.00496427 -0.000104328 0)
(0.0049613 -0.000110914 0)
(0.00495814 -0.000117792 0)
(0.00495478 -0.000124969 0)
(0.00495122 -0.000132453 0)
(0.00494745 -0.000140252 0)
(0.00494346 -0.000148372 0)
(0.00493924 -0.000156821 0)
(0.00493478 -0.000165605 0)
(0.00493007 -0.000174729 0)
(0.0049251 -0.0001842 0)
(0.00491986 -0.000194023 0)
(0.00491433 -0.0002042 0)
(0.00490852 -0.000214736 0)
(0.0049024 -0.000225634 0)
(0.00489598 -0.000236893 0)
(0.00488923 -0.000248516 0)
(0.00488214 -0.000260501 0)
(0.00487471 -0.000272844 0)
(0.00486693 -0.000285544 0)
(0.00485878 -0.000298593 0)
(0.00485026 -0.000311985 0)
(0.00484135 -0.000325709 0)
(0.00483206 -0.000339754 0)
(0.00482236 -0.000354106 0)
(0.00481225 -0.000368747 0)
(0.00480173 -0.000383657 0)
(0.00479078 -0.000398814 0)
(0.00477941 -0.000414192 0)
(0.00476761 -0.00042976 0)
(0.00475538 -0.000445486 0)
(0.00474272 -0.000461332 0)
(0.00472964 -0.000477257 0)
(0.00471612 -0.000493217 0)
(0.00470219 -0.000509162 0)
(0.00468785 -0.000525041 0)
(0.00467312 -0.000540796 0)
(0.004658 -0.000556367 0)
(0.00464252 -0.000571692 0)
(0.00462669 -0.000586705 0)
(0.00461055 -0.000601338 0)
(0.00459412 -0.000615522 0)
(0.00457743 -0.000629189 0)
(0.00456052 -0.00064227 0)
(0.00454342 -0.000654697 0)
(0.00452618 -0.000666407 0)
(0.00450885 -0.000677341 0)
(0.00449146 -0.000687444 0)
(0.00447408 -0.000696667 0)
(0.00445676 -0.000704972 0)
(0.00443955 -0.000712332 0)
(0.00442253 -0.000718738 0)
(0.00440574 -0.000724198 0)
(0.00438926 -0.000728734 0)
(0.00437313 -0.000732379 0)
(0.0043574 -0.000735176 0)
(0.00434212 -0.000737176 0)
(0.00432733 -0.000738437 0)
(0.00431308 -0.000739028 0)
(0.00429942 -0.000739026 0)
(0.00428639 -0.00073853 0)
(0.00427402 -0.000737655 0)
(0.00426233 -0.000736533 0)
(0.00425133 -0.000735305 0)
(0.00424103 -0.000734118 0)
(0.00423128 -0.000733117 0)
(0.00422142 -0.000732456 0)
(0.00421128 -0.000732582 0)
(0.005 -5.64816e-07 0)
(0.00499994 -1.77732e-06 0)
(0.00499984 -3.07128e-06 0)
(0.00499967 -4.44175e-06 0)
(0.00499946 -5.88948e-06 0)
(0.0049992 -7.4174e-06 0)
(0.00499889 -9.02975e-06 0)
(0.00499854 -1.07316e-05 0)
(0.00499813 -1.25285e-05 0)
(0.00499767 -1.44263e-05 0)
(0.00499716 -1.64313e-05 0)
(0.0049966 -1.85496e-05 0)
(0.00499597 -2.07877e-05 0)
(0.00499529 -2.31521e-05 0)
(0.00499454 -2.56493e-05 0)
(0.00499372 -2.82861e-05 0)
(0.00499283 -3.10692e-05 0)
(0.00499186 -3.40056e-05 0)
(0.00499081 -3.71022e-05 0)
(0.00498967 -4.03661e-05 0)
(0.00498845 -4.38047e-05 0)
(0.00498712 -4.74252e-05 0)
(0.0049857 -5.12351e-05 0)
(0.00498417 -5.52418e-05 0)
(0.00498252 -5.94532e-05 0)
(0.00498076 -6.38768e-05 0)
(0.00497887 -6.85205e-05 0)
(0.00497686 -7.33921e-05 0)
(0.0049747 -7.84996e-05 0)
(0.0049724 -8.38509e-05 0)
(0.00496994 -8.94539e-05 0)
(0.00496732 -9.53166e-05 0)
(0.00496454 -0.000101447 0)
(0.00496158 -0.000107853 0)
(0.00495844 -0.000114541 0)
(0.00495511 -0.000121521 0)
(0.00495157 -0.000128799 0)
(0.00494782 -0.000136382 0)
(0.00494386 -0.000144277 0)
(0.00493966 -0.000152491 0)
(0.00493523 -0.000161031 0)
(0.00493055 -0.000169901 0)
(0.00492561 -0.000179108 0)
(0.0049204 -0.000188656 0)
(0.00491492 -0.000198548 0)
(0.00490914 -0.000208789 0)
(0.00490307 -0.00021938 0)
(0.00489668 -0.000230323 0)
(0.00488998 -0.000241619 0)
(0.00488294 -0.000253265 0)
(0.00487557 -0.000265261 0)
(0.00486784 -0.000277602 0)
(0.00485975 -0.000290284 0)
(0.00485129 -0.000303298 0)
(0.00484244 -0.000316635 0)
(0.00483321 -0.000330285 0)
(0.00482359 -0.000344233 0)
(0.00481355 -0.000358464 0)
(0.00480311 -0.000372958 0)
(0.00479225 -0.000387693 0)
(0.00478096 -0.000402645 0)
(0.00476925 -0.000417786 0)
(0.00475712 -0.000433082 0)
(0.00474456 -0.000448501 0)
(0.00473157 -0.000464001 0)
(0.00471816 -0.000479542 0)
(0.00470434 -0.000495075 0)
(0.00469012 -0.000510552 0)
(0.00467549 -0.000525919 0)
(0.00466049 -0.000541118 0)
(0.00464513 -0.00055609 0)
(0.00462943 -0.000570773 0)
(0.00461341 -0.000585102 0)
(0.00459709 -0.000599013 0)
(0.00458052 -0.000612438 0)
(0.00456373 -0.000625314 0)
(0.00454674 -0.000637576 0)
(0.00452961 -0.000649165 0)
(0.00451238 -0.000660022 0)
(0.00449509 -0.000670098 0)
(0.00447779 -0.000679348 0)
(0.00446054 -0.000687736 0)
(0.0044434 -0.000695238 0)
(0.00442642 -0.000701846 0)
(0.00440966 -0.000707565 0)
(0.00439317 -0.000712414 0)
(0.00437701 -0.000716423 0)
(0.00436122 -0.00071963 0)
(0.00434584 -0.000722085 0)
(0.00433092 -0.000723844 0)
(0.0043165 -0.000724974 0)
(0.00430262 -0.000725553 0)
(0.0042893 -0.000725671 0)
(0.00427659 -0.000725432 0)
(0.00426447 -0.000724951 0)
(0.00425296 -0.000724349 0)
(0.00424206 -0.000723743 0)
(0.00423161 -0.000723243 0)
(0.00422097 -0.000722952 0)
(0.00420975 -0.000723282 0)
(0.005 -5.3884e-07 0)
(0.00499995 -1.69839e-06 0)
(0.00499985 -2.94001e-06 0)
(0.0049997 -4.25966e-06 0)
(0.00499949 -5.65796e-06 0)
(0.00499924 -7.13727e-06 0)
(0.00499894 -8.7011e-06 0)
(0.00499859 -1.03538e-05 0)
(0.00499819 -1.21003e-05 0)
(0.00499774 -1.3946e-05 0)
(0.00499724 -1.58966e-05 0)
(0.00499668 -1.79579e-05 0)
(0.00499606 -2.0136e-05 0)
(0.00499538 -2.24371e-05 0)
(0.00499464 -2.48674e-05 0)
(0.00499383 -2.74336e-05 0)
(0.00499294 -3.0142e-05 0)
(0.00499198 -3.29993e-05 0)
(0.00499094 -3.60124e-05 0)
(0.00498981 -3.91881e-05 0)
(0.00498859 -4.25335e-05 0)
(0.00498727 -4.60556e-05 0)
(0.00498586 -4.97616e-05 0)
(0.00498434 -5.36589e-05 0)
(0.0049827 -5.77549e-05 0)
(0.00498095 -6.2057e-05 0)
(0.00497908 -6.65729e-05 0)
(0.00497707 -7.13101e-05 0)
(0.00497493 -7.62763e-05 0)
(0.00497264 -8.14792e-05 0)
(0.0049702 -8.69265e-05 0)
(0.0049676 -9.26259e-05 0)
(0.00496484 -9.8585e-05 0)
(0.0049619 -0.000104811 0)
(0.00495878 -0.000111313 0)
(0.00495546 -0.000118096 0)
(0.00495195 -0.000125169 0)
(0.00494823 -0.000132538 0)
(0.00494429 -0.00014021 0)
(0.00494013 -0.000148192 0)
(0.00493573 -0.000156489 0)
(0.00493108 -0.000165107 0)
(0.00492617 -0.000174052 0)
(0.004921 -0.000183327 0)
(0.00491556 -0.000192937 0)
(0.00490983 -0.000202885 0)
(0.0049038 -0.000213172 0)
(0.00489746 -0.000223802 0)
(0.00489081 -0.000234773 0)
(0.00488382 -0.000246085 0)
(0.0048765 -0.000257736 0)
(0.00486884 -0.000269722 0)
(0.00486081 -0.000282039 0)
(0.00485241 -0.000294679 0)
(0.00484364 -0.000307633 0)
(0.00483449 -0.000320891 0)
(0.00482494 -0.00033444 0)
(0.00481499 -0.000348265 0)
(0.00480463 -0.000362346 0)
(0.00479386 -0.000376664 0)
(0.00478267 -0.000391195 0)
(0.00477106 -0.000405912 0)
(0.00475903 -0.000420784 0)
(0.00474657 -0.000435779 0)
(0.0047337 -0.000450859 0)
(0.00472041 -0.000465983 0)
(0.0047067 -0.000481109 0)
(0.0046926 -0.000496187 0)
(0.0046781 -0.000511168 0)
(0.00466323 -0.000525998 0)
(0.004648 -0.000540619 0)
(0.00463243 -0.000554973 0)
(0.00461653 -0.000568998 0)
(0.00460035 -0.000582633 0)
(0.00458391 -0.000595815 0)
(0.00456724 -0.000608483 0)
(0.00455038 -0.000620576 0)
(0.00453336 -0.000632036 0)
(0.00451624 -0.000642811 0)
(0.00449905 -0.000652851 0)
(0.00448185 -0.000662117 0)
(0.00446468 -0.000670574 0)
(0.0044476 -0.000678202 0)
(0.00443066 -0.000684991 0)
(0.00441392 -0.000690944 0)
(0.00439742 -0.000696078 0)
(0.00438122 -0.000700419 0)
(0.00436536 -0.000704004 0)
(0.00434988 -0.000706877 0)
(0.00433482 -0.000709094 0)
(0.00432021 -0.000710719 0)
(0.00430609 -0.000711824 0)
(0.00429249 -0.000712494 0)
(0.00427941 -0.000712821 0)
(0.00426687 -0.000712905 0)
(0.00425487 -0.000712846 0)
(0.00424339 -0.000712739 0)
(0.00423228 -0.000712662 0)
(0.00422093 -0.000712689 0)
(0.00420873 -0.000713146 0)
(0.005 -5.14914e-07 0)
(0.00499995 -1.62488e-06 0)
(0.00499986 -2.81647e-06 0)
(0.00499971 -4.08653e-06 0)
(0.00499952 -5.43578e-06 0)
(0.00499928 -6.86631e-06 0)
(0.00499899 -8.38117e-06 0)
(0.00499865 -9.98418e-06 0)
(0.00499826 -1.16798e-05 0)
(0.00499781 -1.34729e-05 0)
(0.00499732 -1.53687e-05 0)
(0.00499677 -1.73727e-05 0)
(0.00499615 -1.94906e-05 0)
(0.00499548 -2.17284e-05 0)
(0.00499474 -2.4092e-05 0)
(0.00499394 -2.65876e-05 0)
(0.00499306 -2.92216e-05 0)
(0.00499211 -3.20002e-05 0)
(0.00499107 -3.49302e-05 0)
(0.00498995 -3.80182e-05 0)
(0.00498874 -4.12709e-05 0)
(0.00498743 -4.46951e-05 0)
(0.00498603 -4.8298e-05 0)
(0.00498452 -5.20866e-05 0)
(0.0049829 -5.6068e-05 0)
(0.00498116 -6.02495e-05 0)
(0.00497929 -6.46384e-05 0)
(0.0049773 -6.92422e-05 0)
(0.00497517 -7.40681e-05 0)
(0.0049729 -7.91238e-05 0)
(0.00497048 -8.44165e-05 0)
(0.0049679 -8.99539e-05 0)
(0.00496516 -9.57432e-05 0)
(0.00496224 -0.000101792 0)
(0.00495914 -0.000108107 0)
(0.00495585 -0.000114696 0)
(0.00495236 -0.000121566 0)
(0.00494867 -0.000128723 0)
(0.00494476 -0.000136174 0)
(0.00494063 -0.000143925 0)
(0.00493626 -0.000151981 0)
(0.00493165 -0.00016035 0)
(0.00492679 -0.000169034 0)
(0.00492166 -0.00017804 0)
(0.00491625 -0.000187369 0)
(0.00491057 -0.000197027 0)
(0.00490459 -0.000207014 0)
(0.0048983 -0.000217332 0)
(0.0048917 -0.000227982 0)
(0.00488478 -0.000238963 0)
(0.00487752 -0.000250272 0)
(0.00486991 -0.000261907 0)
(0.00486196 -0.000273862 0)
(0.00485363 -0.000286132 0)
(0.00484494 -0.000298707 0)
(0.00483586 -0.000311578 0)
(0.0048264 -0.000324732 0)
(0.00481653 -0.000338154 0)
(0.00480627 -0.000351827 0)
(0.00479559 -0.000365732 0)
(0.00478451 -0.000379846 0)
(0.004773 -0.000394144 0)
(0.00476108 -0.000408596 0)
(0.00474874 -0.000423171 0)
(0.00473599 -0.000437835 0)
(0.00472282 -0.000452548 0)
(0.00470925 -0.000467269 0)
(0.00469527 -0.000481952 0)
(0.00468091 -0.00049655 0)
(0.00466617 -0.000511012 0)
(0.00465108 -0.000525284 0)
(0.00463565 -0.000539309 0)
(0.0046199 -0.00055303 0)
(0.00460385 -0.000566388 0)
(0.00458755 -0.000579325 0)
(0.00457101 -0.000591781 0)
(0.00455428 -0.000603699 0)
(0.00453739 -0.000615025 0)
(0.00452038 -0.000625709 0)
(0.00450329 -0.000635704 0)
(0.00448618 -0.000644973 0)
(0.0044691 -0.000653485 0)
(0.00445208 -0.000661219 0)
(0.00443518 -0.000668167 0)
(0.00441846 -0.000674329 0)
(0.00440195 -0.000679719 0)
(0.00438571 -0.000684361 0)
(0.00436978 -0.000688288 0)
(0.00435419 -0.000691542 0)
(0.00433897 -0.000694176 0)
(0.00432417 -0.000696249 0)
(0.00430981 -0.000697829 0)
(0.00429591 -0.000698992 0)
(0.00428248 -0.000699821 0)
(0.00426953 -0.000700401 0)
(0.00425703 -0.000700816 0)
(0.00424501 -0.00070114 0)
(0.00423329 -0.000701428 0)
(0.00422129 -0.000701725 0)
(0.00420819 -0.000702184 0)
(0.005 -4.92592e-07 0)
(0.00499995 -1.55585e-06 0)
(0.00499987 -2.69959e-06 0)
(0.00499973 -3.92144e-06 0)
(0.00499954 -5.22236e-06 0)
(0.00499931 -6.60433e-06 0)
(0.00499903 -8.07011e-06 0)
(0.0049987 -9.62316e-06 0)
(0.00499831 -1.12675e-05 0)
(0.00499788 -1.30076e-05 0)
(0.00499739 -1.48484e-05 0)
(0.00499685 -1.67949e-05 0)
(0.00499625 -1.88526e-05 0)
(0.00499558 -2.1027e-05 0)
(0.00499485 -2.33239e-05 0)
(0.00499405 -2.57492e-05 0)
(0.00499318 -2.83089e-05 0)
(0.00499224 -3.10093e-05 0)
(0.00499121 -3.38565e-05 0)
(0.0049901 -3.68572e-05 0)
(0.0049889 -4.00177e-05 0)
(0.0049876 -4.33448e-05 0)
(0.00498621 -4.68452e-05 0)
(0.00498471 -5.05258e-05 0)
(0.0049831 -5.43934e-05 0)
(0.00498137 -5.84552e-05 0)
(0.00497952 -6.27182e-05 0)
(0.00497755 -6.71894e-05 0)
(0.00497543 -7.18763e-05 0)
(0.00497318 -7.67858e-05 0)
(0.00497078 -8.19253e-05 0)
(0.00496822 -8.73019e-05 0)
(0.0049655 -9.29229e-05 0)
(0.0049626 -9.87953e-05 0)
(0.00495953 -0.000104926 0)
(0.00495626 -0.000111322 0)
(0.00495281 -0.00011799 0)
(0.00494914 -0.000124937 0)
(0.00494527 -0.000132169 0)
(0.00494117 -0.000139691 0)
(0.00493684 -0.00014751 0)
(0.00493226 -0.00015563 0)
(0.00492744 -0.000164057 0)
(0.00492235 -0.000172795 0)
(0.00491699 -0.000181848 0)
(0.00491136 -0.000191218 0)
(0.00490543 -0.000200907 0)
(0.0048992 -0.000210918 0)
(0.00489266 -0.000221249 0)
(0.00488579 -0.000231902 0)
(0.0048786 -0.000242873 0)
(0.00487106 -0.00025416 0)
(0.00486318 -0.000265758 0)
(0.00485493 -0.000277662 0)
(0.00484632 -0.000289862 0)
(0.00483733 -0.000302349 0)
(0.00482795 -0.000315112 0)
(0.00481818 -0.000328137 0)
(0.00480801 -0.000341407 0)
(0.00479744 -0.000354903 0)
(0.00478646 -0.000368605 0)
(0.00477507 -0.000382488 0)
(0.00476327 -0.000396524 0)
(0.00475105 -0.000410685 0)
(0.00473842 -0.000424936 0)
(0.00472538 -0.000439241 0)
(0.00471194 -0.000453561 0)
(0.00469811 -0.000467853 0)
(0.00468389 -0.000482071 0)
(0.00466929 -0.000496167 0)
(0.00465434 -0.000510091 0)
(0.00463906 -0.000523788 0)
(0.00462345 -0.000537205 0)
(0.00460755 -0.000550285 0)
(0.00459139 -0.000562973 0)
(0.00457499 -0.000575213 0)
(0.00455839 -0.000586951 0)
(0.00454163 -0.000598136 0)
(0.00452474 -0.00060872 0)
(0.00450777 -0.000618659 0)
(0.00449075 -0.000627918 0)
(0.00447375 -0.000636468 0)
(0.00445679 -0.000644289 0)
(0.00443994 -0.000651371 0)
(0.00442323 -0.000657715 0)
(0.00440671 -0.000663332 0)
(0.00439043 -0.000668243 0)
(0.00437441 -0.000672477 0)
(0.00435871 -0.000676075 0)
(0.00434334 -0.000679084 0)
(0.00432835 -0.000681559 0)
(0.00431375 -0.000683563 0)
(0.00429955 -0.000685165 0)
(0.00428577 -0.000686436 0)
(0.00427241 -0.000687452 0)
(0.00425945 -0.000688281 0)
(0.00424691 -0.000688982 0)
(0.00423463 -0.000689589 0)
(0.00422199 -0.000690119 0)
(0.00420817 -0.000690486 0)
(0.005 -4.71577e-07 0)
(0.00499996 -1.49057e-06 0)
(0.00499987 -2.58848e-06 0)
(0.00499974 -3.76359e-06 0)
(0.00499956 -5.01711e-06 0)
(0.00499934 -6.351e-06 0)
(0.00499907 -7.76788e-06 0)
(0.00499874 -9.27094e-06 0)
(0.00499837 -1.08639e-05 0)
(0.00499794 -1.25509e-05 0)
(0.00499747 -1.43364e-05 0)
(0.00499693 -1.62254e-05 0)
(0.00499633 -1.82227e-05 0)
(0.00499568 -2.03338e-05 0)
(0.00499496 -2.25641e-05 0)
(0.00499417 -2.49192e-05 0)
(0.00499331 -2.74049e-05 0)
(0.00499237 -3.00273e-05 0)
(0.00499135 -3.27922e-05 0)
(0.00499025 -3.57061e-05 0)
(0.00498906 -3.8775e-05 0)
(0.00498778 -4.20056e-05 0)
(0.00498639 -4.54042e-05 0)
(0.00498491 -4.89775e-05 0)
(0.00498331 -5.27322e-05 0)
(0.0049816 -5.66752e-05 0)
(0.00497977 -6.08131e-05 0)
(0.00497781 -6.51531e-05 0)
(0.00497571 -6.97019e-05 0)
(0.00497348 -7.44665e-05 0)
(0.00497109 -7.9454e-05 0)
(0.00496855 -8.46714e-05 0)
(0.00496585 -9.01254e-05 0)
(0.00496298 -9.5823e-05 0)
(0.00495994 -0.000101771 0)
(0.0049567 -0.000107976 0)
(0.00495327 -0.000114445 0)
(0.00494964 -0.000121183 0)
(0.0049458 -0.000128197 0)
(0.00494173 -0.000135493 0)
(0.00493744 -0.000143076 0)
(0.00493291 -0.000150952 0)
(0.00492813 -0.000159124 0)
(0.00492309 -0.000167597 0)
(0.00491778 -0.000176375 0)
(0.00491219 -0.00018546 0)
(0.00490632 -0.000194855 0)
(0.00490014 -0.000204561 0)
(0.00489366 -0.000214578 0)
(0.00488687 -0.000224906 0)
(0.00487974 -0.000235543 0)
(0.00487228 -0.000246486 0)
(0.00486447 -0.000257731 0)
(0.0048563 -0.000269272 0)
(0.00484777 -0.000281101 0)
(0.00483887 -0.00029321 0)
(0.00482959 -0.000305586 0)