/*--------------------------------*- C++ -*----------------------------------*\
  =========                 |
  \\      /  F ield         | OpenFOAM: The Open Source CFD Toolbox
   \\    /   O peration     | Website:  https://openfoam.org
    \\  /    A nd           | Version:  11
     \\/     M anipulation  |
\*---------------------------------------------------------------------------*/
FoamFile
{
    format      ascii;
    class       volScalarField;
    location    "504";
    object      nut;
}
// * * * * * * * * * * * * * * * * * * * * * * * * * * * * * * * * * * * * * //

dimensions      [0 2 -1 0 0 0 0];

internalField   nonuniform List<scalar> 
10000
(
0.000977118
0.000936707
0.00089965
0.000865626
0.000834348
0.000805558
0.000779022
0.000754534
0.000731904
0.000710965
0.000691563
0.000673562
0.000656837
0.000641279
0.000626785
0.000613265
0.000600636
0.000588824
0.000577763
0.000567389
0.000557649
0.000548491
0.00053987
0.000531745
0.000524076
0.000516831
0.000509976
0.000503483
0.000497326
0.000491481
0.000485924
0.000480637
0.000475601
0.000470797
0.000466211
0.000461827
0.000457634
0.000453617
0.000449766
0.00044607
0.000442519
0.000439105
0.000435819
0.000432654
0.000429602
0.000426658
0.000423815
0.000421067
0.000418411
0.000415841
0.000413355
0.000410947
0.000408616
0.000406358
0.000404173
0.000402057
0.000400012
0.000398035
0.000396127
0.000394289
0.000392523
0.000390829
0.000389212
0.000387674
0.00038622
0.000384855
0.000383586
0.000382418
0.000381359
0.00038042
0.000379608
0.000378936
0.000378414
0.000378055
0.000377872
0.000377879
0.000378089
0.000378517
0.000379176
0.000380081
0.000381243
0.000382673
0.00038438
0.000386371
0.000388647
0.000391208
0.000394047
0.000397152
0.000400501
0.000404069
0.000407816
0.000411695
0.000415644
0.000419586
0.000423424
0.000427042
0.000430299
0.000433023
0.000435022
0.000436083
0.000977118
0.000936707
0.00089965
0.000865626
0.000834348
0.000805558
0.000779023
0.000754534
0.000731905
0.000710965
0.000691563
0.000673562
0.000656838
0.000641279
0.000626785
0.000613265
0.000600636
0.000588825
0.000577763
0.00056739
0.000557649
0.000548492
0.000539871
0.000531745
0.000524077
0.000516831
0.000509976
0.000503484
0.000497327
0.000491481
0.000485925
0.000480638
0.000475601
0.000470798
0.000466212
0.000461828
0.000457634
0.000453618
0.000449767
0.000446071
0.00044252
0.000439106
0.00043582
0.000432655
0.000429604
0.000426659
0.000423816
0.000421069
0.000418413
0.000415843
0.000413356
0.000410949
0.000408617
0.00040636
0.000404174
0.000402059
0.000400014
0.000398037
0.000396129
0.000394291
0.000392525
0.000390831
0.000389214
0.000387676
0.000386222
0.000384857
0.000383587
0.000382419
0.000381361
0.000380421
0.000379609
0.000378937
0.000378415
0.000378055
0.000377872
0.000377878
0.000378087
0.000378515
0.000379173
0.000380077
0.000381238
0.000382667
0.000384374
0.000386363
0.000388638
0.000391198
0.000394036
0.000397139
0.000400488
0.000404054
0.000407801
0.000411679
0.000415627
0.000419567
0.000423405
0.000427022
0.000430278
0.000433002
0.000435001
0.000436062
0.000977118
0.000936707
0.00089965
0.000865627
0.000834349
0.000805558
0.000779023
0.000754534
0.000731905
0.000710965
0.000691563
0.000673562
0.000656838
0.000641279
0.000626785
0.000613265
0.000600637
0.000588825
0.000577764
0.00056739
0.00055765
0.000548492
0.000539872
0.000531746
0.000524078
0.000516832
0.000509977
0.000503485
0.000497328
0.000491482
0.000485926
0.000480639
0.000475603
0.000470799
0.000466213
0.00046183
0.000457636
0.000453619
0.000449768
0.000446073
0.000442522
0.000439108
0.000435822
0.000432657
0.000429606
0.000426662
0.000423819
0.000421071
0.000418415
0.000415846
0.000413359
0.000410951
0.00040862
0.000406363
0.000404178
0.000402063
0.000400017
0.00039804
0.000396133
0.000394295
0.000392528
0.000390835
0.000389217
0.000387679
0.000386225
0.00038486
0.00038359
0.000382421
0.000381363
0.000380422
0.00037961
0.000378937
0.000378414
0.000378053
0.000377869
0.000377874
0.000378082
0.000378508
0.000379165
0.000380067
0.000381226
0.000382653
0.000384357
0.000386344
0.000388617
0.000391175
0.00039401
0.000397111
0.000400458
0.000404022
0.000407767
0.000411643
0.000415589
0.000419528
0.000423365
0.000426982
0.000430237
0.000432961
0.00043496
0.000436021
0.000977118
0.000936707
0.00089965
0.000865627
0.000834349
0.000805558
0.000779023
0.000754535
0.000731905
0.000710966
0.000691564
0.000673563
0.000656839
0.00064128
0.000626786
0.000613266
0.000600638
0.000588826
0.000577765
0.000567391
0.000557651
0.000548494
0.000539873
0.000531748
0.000524079
0.000516834
0.000509979
0.000503486
0.00049733
0.000491484
0.000485928
0.000480641
0.000475605
0.000470801
0.000466215
0.000461832
0.000457639
0.000453622
0.000449771
0.000446075
0.000442525
0.000439111
0.000435826
0.000432661
0.000429609
0.000426665
0.000423822
0.000421075
0.000418419
0.00041585
0.000413363
0.000410956
0.000408625
0.000406368
0.000404182
0.000402067
0.000400022
0.000398045
0.000396137
0.0003943
0.000392533
0.000390839
0.000389222
0.000387684
0.000386229
0.000384864
0.000383593
0.000382424
0.000381365
0.000380424
0.000379611
0.000378936
0.000378412
0.00037805
0.000377864
0.000377867
0.000378073
0.000378497
0.000379152
0.000380051
0.000381207
0.000382631
0.000384332
0.000386316
0.000388586
0.00039114
0.000393972
0.000397069
0.000400412
0.000403974
0.000407716
0.00041159
0.000415534
0.000419471
0.000423306
0.000426922
0.000430177
0.000432901
0.000434899
0.00043596
0.000977118
0.000936707
0.000899651
0.000865627
0.000834349
0.000805559
0.000779024
0.000754535
0.000731906
0.000710966
0.000691565
0.000673564
0.00065684
0.000641281
0.000626787
0.000613267
0.000600639
0.000588828
0.000577766
0.000567393
0.000557653
0.000548495
0.000539875
0.000531749
0.000524081
0.000516836
0.000509981
0.000503489
0.000497332
0.000491487
0.000485931
0.000480644
0.000475608
0.000470804
0.000466218
0.000461835
0.000457642
0.000453625
0.000449775
0.000446079
0.000442529
0.000439115
0.00043583
0.000432665
0.000429614
0.00042667
0.000423827
0.00042108
0.000418424
0.000415855
0.000413369
0.000410961
0.000408631
0.000406374
0.000404188
0.000402073
0.000400028
0.000398051
0.000396144
0.000394306
0.000392539
0.000390846
0.000389228
0.00038769
0.000386235
0.000384869
0.000383598
0.000382428
0.000381368
0.000380426
0.000379611
0.000378935
0.00037841
0.000378046
0.000377858
0.000377859
0.000378062
0.000378483
0.000379134
0.00038003
0.000381183
0.000382603
0.000384299
0.000386279
0.000388544
0.000391094
0.000393921
0.000397014
0.000400353
0.000403911
0.000407649
0.00041152
0.000415461
0.000419396
0.000423229
0.000426844
0.000430098
0.000432821
0.00043482
0.00043588
0.000977118
0.000936708
0.000899651
0.000865627
0.000834349
0.000805559
0.000779024
0.000754536
0.000731907
0.000710967
0.000691565
0.000673564
0.000656841
0.000641282
0.000626788
0.000613269
0.00060064
0.000588829
0.000577767
0.000567394
0.000557654
0.000548497
0.000539877
0.000531751
0.000524083
0.000516838
0.000509983
0.000503491
0.000497335
0.000491489
0.000485934
0.000480647
0.000475611
0.000470808
0.000466222
0.000461839
0.000457646
0.00045363
0.000449779
0.000446084
0.000442534
0.00043912
0.000435835
0.00043267
0.000429619
0.000426676
0.000423833
0.000421086
0.000418431
0.000415862
0.000413376
0.000410969
0.000408638
0.000406381
0.000404196
0.000402081
0.000400036
0.000398059
0.000396152
0.000394314
0.000392547
0.000390853
0.000389235
0.000387697
0.000386242
0.000384875
0.000383603
0.000382433
0.000381371
0.000380428
0.000379612
0.000378935
0.000378407
0.000378041
0.000377851
0.000377849
0.000378049
0.000378466
0.000379114
0.000380005
0.000381153
0.000382568
0.00038426
0.000386234
0.000388494
0.000391038
0.00039386
0.000396948
0.000400281
0.000403834
0.000407568
0.000411434
0.000415372
0.000419304
0.000423135
0.000426748
0.000430001
0.000432724
0.000434722
0.000435782
0.000977118
0.000936708
0.000899651
0.000865628
0.00083435
0.00080556
0.000779025
0.000754537
0.000731907
0.000710968
0.000691566
0.000673566
0.000656842
0.000641283
0.00062679
0.00061327
0.000600642
0.000588831
0.000577769
0.000567396
0.000557657
0.000548499
0.000539879
0.000531754
0.000524086
0.000516841
0.000509986
0.000503494
0.000497338
0.000491493
0.000485937
0.000480651
0.000475615
0.000470812
0.000466226
0.000461844
0.000457651
0.000453635
0.000449784
0.000446089
0.000442539
0.000439126
0.000435841
0.000432677
0.000429626
0.000426683
0.00042384
0.000421094
0.000418438
0.00041587
0.000413384
0.000410977
0.000408646
0.00040639
0.000404205
0.00040209
0.000400045
0.000398069
0.000396161
0.000394323
0.000392556
0.000390863
0.000389244
0.000387705
0.00038625
0.000384883
0.00038361
0.000382438
0.000381376
0.000380431
0.000379614
0.000378934
0.000378404
0.000378036
0.000377842
0.000377837
0.000378034
0.000378447
0.00037909
0.000379976
0.000381119
0.000382528
0.000384214
0.000386182
0.000388436
0.000390973
0.000393789
0.00039687
0.000400198
0.000403744
0.000407473
0.000411335
0.000415268
0.000419196
0.000423025
0.000426636
0.000429888
0.00043261
0.000434607
0.000435667
0.000977118
0.000936708
0.000899651
0.000865628
0.00083435
0.00080556
0.000779025
0.000754537
0.000731908
0.000710969
0.000691567
0.000673567
0.000656843
0.000641285
0.000626791
0.000613272
0.000600644
0.000588833
0.000577771
0.000567399
0.000557659
0.000548502
0.000539882
0.000531757
0.000524089
0.000516844
0.00050999
0.000503498
0.000497342
0.000491497
0.000485942
0.000480655
0.000475619
0.000470817
0.000466231
0.000461849
0.000457656
0.00045364
0.00044979
0.000446095
0.000442546
0.000439133
0.000435848
0.000432684
0.000429634
0.00042669
0.000423848
0.000421102
0.000418447
0.000415879
0.000413393
0.000410987
0.000408656
0.0004064
0.000404215
0.000402101
0.000400056
0.00039808
0.000396172
0.000394334
0.000392567
0.000390873
0.000389255
0.000387715
0.000386259
0.000384892
0.000383618
0.000382445
0.000381382
0.000380435
0.000379616
0.000378934
0.000378402
0.00037803
0.000377833
0.000377824
0.000378017
0.000378425
0.000379063
0.000379944
0.000381081
0.000382484
0.000384163
0.000386124
0.00038837
0.0003909
0.000393708
0.000396782
0.000400103
0.000403643
0.000407366
0.000411222
0.00041515
0.000419075
0.0004229
0.000426508
0.000429758
0.000432479
0.000434476
0.000435534
0.000977118
0.000936708
0.000899651
0.000865628
0.000834351
0.000805561
0.000779026
0.000754538
0.000731909
0.00071097
0.000691569
0.000673568
0.000656844
0.000641286
0.000626793
0.000613274
0.000600646
0.000588835
0.000577774
0.000567401
0.000557662
0.000548505
0.000539885
0.00053176
0.000524092
0.000516847
0.000509994
0.000503502
0.000497346
0.000491501
0.000485946
0.00048066
0.000475625
0.000470822
0.000466237
0.000461855
0.000457662
0.000453647
0.000449797
0.000446102
0.000442553
0.000439141
0.000435856
0.000432692
0.000429642
0.000426699
0.000423858
0.000421112
0.000418457
0.000415889
0.000413404
0.000410998
0.000408668
0.000406411
0.000404227
0.000402113
0.000400068
0.000398092
0.000396185
0.000394347
0.00039258
0.000390885
0.000389267
0.000387727
0.00038627
0.000384902
0.000383627
0.000382453
0.000381388
0.00038044
0.000379619
0.000378935
0.000378399
0.000378025
0.000377824
0.000377811
0.000377998
0.000378401
0.000379034
0.000379909
0.000381039
0.000382435
0.000384106
0.000386059
0.000388298
0.00039082
0.00039362
0.000396686
0.000399999
0.000403531
0.000407247
0.000411097
0.00041502
0.00041894
0.000422761
0.000426367
0.000429615
0.000432334
0.000434329
0.000435387
0.000977118
0.000936708
0.000899652
0.000865628
0.000834351
0.000805561
0.000779027
0.000754539
0.00073191
0.000710971
0.00069157
0.000673569
0.000656846
0.000641288
0.000626795
0.000613276
0.000600648
0.000588837
0.000577776
0.000567404
0.000557664
0.000548508
0.000539888
0.000531763
0.000524096
0.000516851
0.000509998
0.000503506
0.00049735
0.000491506
0.000485951
0.000480665
0.00047563
0.000470828
0.000466243
0.000461861
0.000457669
0.000453654
0.000449804
0.00044611
0.000442561
0.000439149
0.000435865
0.000432702
0.000429652
0.000426709
0.000423868
0.000421123
0.000418468
0.0004159
0.000413415
0.00041101
0.00040868
0.000406424
0.00040424
0.000402126
0.000400082
0.000398106
0.000396198
0.000394361
0.000392593
0.000390899
0.00038928
0.00038774
0.000386283
0.000384913
0.000383638
0.000382462
0.000381396
0.000380446
0.000379622
0.000378935
0.000378397
0.000378019
0.000377814
0.000377796
0.000377979
0.000378376
0.000379003
0.000379871
0.000380993
0.000382382
0.000384045
0.00038599
0.000388219
0.000390733
0.000393524
0.000396581
0.000399886
0.00040341
0.000407118
0.000410961
0.000414878
0.000418793
0.000422609
0.000426212
0.000429457
0.000432174
0.000434168
0.000435225
0.000977118
0.000936708
0.000899652
0.000865629
0.000834351
0.000805562
0.000779027
0.00075454
0.000731911
0.000710972
0.000691571
0.000673571
0.000656847
0.00064129
0.000626797
0.000613278
0.00060065
0.00058884
0.000577779
0.000567407
0.000557668
0.000548511
0.000539891
0.000531767
0.0005241
0.000516856
0.000510002
0.000503511
0.000497355
0.000491511
0.000485957
0.000480671
0.000475636
0.000470834
0.00046625
0.000461868
0.000457676
0.000453662
0.000449812
0.000446119
0.00044257
0.000439158
0.000435875
0.000432712
0.000429662
0.00042672
0.000423879
0.000421134
0.00041848
0.000415913
0.000413428
0.000411023
0.000408694
0.000406438
0.000404254
0.000402141
0.000400096
0.000398121
0.000396213
0.000394376
0.000392609
0.000390914
0.000389295
0.000387754
0.000386296
0.000384926
0.000383649
0.000382473
0.000381404
0.000380452
0.000379626
0.000378937
0.000378395
0.000378013
0.000377804
0.000377781
0.000377959
0.00037835
0.00037897
0.000379831
0.000380946
0.000382326
0.000383981
0.000385916
0.000388136
0.00039064
0.000393421
0.000396469
0.000399764
0.00040328
0.00040698
0.000410815
0.000414726
0.000418634
0.000422446
0.000426045
0.000429287
0.000432002
0.000433995
0.000435052
0.000977118
0.000936708
0.000899652
0.000865629
0.000834352
0.000805562
0.000779028
0.00075454
0.000731912
0.000710973
0.000691572
0.000673572
0.000656849
0.000641292
0.000626799
0.00061328
0.000600653
0.000588842
0.000577782
0.00056741
0.000557671
0.000548515
0.000539895
0.000531771
0.000524104
0.00051686
0.000510007
0.000503516
0.000497361
0.000491517
0.000485963
0.000480677
0.000475643
0.000470841
0.000466257
0.000461876
0.000457684
0.00045367
0.000449821
0.000446128
0.00044258
0.000439168
0.000435885
0.000432722
0.000429673
0.000426732
0.000423891
0.000421147
0.000418493
0.000415926
0.000413442
0.000411037
0.000408708
0.000406453
0.00040427
0.000402157
0.000400112
0.000398137
0.00039623
0.000394392
0.000392625
0.00039093
0.000389311
0.00038777
0.000386311
0.00038494
0.000383662
0.000382484
0.000381414
0.00038046
0.000379631
0.000378939
0.000378394
0.000378008
0.000377794
0.000377766
0.000377938
0.000378323
0.000378936
0.000379789
0.000380896
0.000382267
0.000383913
0.000385839
0.000388049
0.000390542
0.000393313
0.000396351
0.000399636
0.000403143
0.000406833
0.000410661
0.000414564
0.000418466
0.000422273
0.000425867
0.000429106
0.000431818
0.00043381
0.000434866
0.000977118
0.000936708
0.000899652
0.000865629
0.000834352
0.000805563
0.000779029
0.000754541
0.000731913
0.000710974
0.000691574
0.000673574
0.000656851
0.000641293
0.000626801
0.000613282
0.000600655
0.000588845
0.000577785
0.000567413
0.000557674
0.000548518
0.000539899
0.000531775
0.000524109
0.000516865
0.000510012
0.000503521
0.000497366
0.000491523
0.000485969
0.000480684
0.00047565
0.000470848
0.000466265
0.000461884
0.000457693
0.000453679
0.00044983
0.000446137
0.00044259
0.000439179
0.000435896
0.000432734
0.000429685
0.000426744
0.000423904
0.00042116
0.000418507
0.000415941
0.000413457
0.000411052
0.000408724
0.000406469
0.000404286
0.000402174
0.00040013
0.000398154
0.000396247
0.00039441
0.000392643
0.000390948
0.000389328
0.000387786
0.000386327
0.000384955
0.000383676
0.000382496
0.000381424
0.000380468
0.000379637
0.000378941
0.000378393
0.000378003
0.000377784
0.000377751
0.000377917
0.000378295
0.0003789
0.000379746
0.000380844
0.000382206
0.000383842
0.000385758
0.000387957
0.00039044
0.000393201
0.000396227
0.000399502
0.000402999
0.00040668
0.000410498
0.000414394
0.000418289
0.00042209
0.00042568
0.000428914
0.000431625
0.000433615
0.000434671
0.000977118
0.000936708
0.000899652
0.000865629
0.000834352
0.000805563
0.000779029
0.000754542
0.000731914
0.000710975
0.000691575
0.000673575
0.000656852
0.000641295
0.000626803
0.000613284
0.000600658
0.000588848
0.000577788
0.000567416
0.000557678
0.000548522
0.000539903
0.00053178
0.000524113
0.00051687
0.000510017
0.000503527
0.000497372
0.000491529
0.000485975
0.000480691
0.000475657
0.000470856
0.000466273
0.000461892
0.000457702
0.000453688
0.00044984
0.000446147
0.0004426
0.00043919
0.000435907
0.000432746
0.000429698
0.000426757
0.000423918
0.000421174
0.000418522
0.000415956
0.000413473
0.000411069
0.000408741
0.000406487
0.000404304
0.000402191
0.000400148
0.000398173
0.000396266
0.000394429
0.000392661
0.000390966
0.000389346
0.000387804
0.000386344
0.000384971
0.000383691
0.00038251
0.000381436
0.000380477
0.000379643
0.000378945
0.000378392
0.000377998
0.000377775
0.000377736
0.000377895
0.000378267
0.000378864
0.000379701
0.000380791
0.000382143
0.000383769
0.000385674
0.000387863
0.000390334
0.000393083
0.000396099
0.000399363
0.000402849
0.00040652
0.000410329
0.000414216
0.000418104
0.000421899
0.000425483
0.000428714
0.000431422
0.000433411
0.000434466
0.000977118
0.000936708
0.000899652
0.00086563
0.000834353
0.000805564
0.00077903
0.000754543
0.000731915
0.000710977
0.000691576
0.000673577
0.000656854
0.000641297
0.000626805
0.000613287
0.00060066
0.000588851
0.000577791
0.00056742
0.000557681
0.000548526
0.000539907
0.000531784
0.000524118
0.000516875
0.000510022
0.000503532
0.000497378
0.000491535
0.000485982
0.000480698
0.000475664
0.000470864
0.000466281
0.000461901
0.000457711
0.000453698
0.00044985
0.000446158
0.000442611
0.000439201
0.000435919
0.000432758
0.000429711
0.000426771
0.000423932
0.000421189
0.000418537
0.000415972
0.000413489
0.000411085
0.000408758
0.000406504
0.000404322
0.00040221
0.000400167
0.000398192
0.000396286
0.000394449
0.000392681
0.000390986
0.000389366
0.000387823
0.000386362
0.000384988
0.000383707
0.000382524
0.000381448
0.000380487
0.000379651
0.000378949
0.000378392
0.000377994
0.000377765
0.000377721
0.000377874
0.000378238
0.000378828
0.000379656
0.000380736
0.000382079
0.000383694
0.000385588
0.000387766
0.000390225
0.000392963
0.000395967
0.000399219
0.000402694
0.000406355
0.000410154
0.000414032
0.000417913
0.000421701
0.000425279
0.000428507
0.000431211
0.000433199
0.000434254
0.000977118
0.000936709
0.000899653
0.00086563
0.000834353
0.000805564
0.00077903
0.000754543
0.000731916
0.000710978
0.000691578
0.000673578
0.000656856
0.000641299
0.000626807
0.000613289
0.000600663
0.000588854
0.000577794
0.000567423
0.000557685
0.00054853
0.000539912
0.000531789
0.000524123
0.00051688
0.000510028
0.000503538
0.000497384
0.000491542
0.000485989
0.000480706
0.000475672
0.000470872
0.00046629
0.00046191
0.00045772
0.000453708
0.000449861
0.000446169
0.000442623
0.000439213
0.000435932
0.000432772
0.000429725
0.000426785
0.000423947
0.000421204
0.000418553
0.000415988
0.000413506
0.000411103
0.000408776
0.000406523
0.000404342
0.00040223
0.000400187
0.000398213
0.000396307
0.000394469
0.000392702
0.000391007
0.000389386
0.000387843
0.000386382
0.000385007
0.000383724
0.00038254
0.000381462
0.000380498
0.000379659
0.000378953
0.000378393
0.00037799
0.000377756
0.000377706
0.000377852
0.000378209
0.000378791
0.000379611
0.000380681
0.000382014
0.000383618
0.000385501
0.000387666
0.000390114
0.00039284
0.000395831
0.000399072
0.000402535
0.000406185
0.000409974
0.000413843
0.000417715
0.000421497
0.000425069
0.000428292
0.000430994
0.00043298
0.000434034
0.000977118
0.000936709
0.000899653
0.00086563
0.000834354
0.000805565
0.000779031
0.000754544
0.000731916
0.000710979
0.000691579
0.00067358
0.000656858
0.000641301
0.000626809
0.000613292
0.000600665
0.000588856
0.000577797
0.000567426
0.000557689
0.000548534
0.000539916
0.000531793
0.000524128
0.000516885
0.000510034
0.000503544
0.000497391
0.000491549
0.000485996
0.000480713
0.00047568
0.000470881
0.000466299
0.00046192
0.00045773
0.000453718
0.000449872
0.00044618
0.000442635
0.000439226
0.000435945
0.000432785
0.000429739
0.0004268
0.000423962
0.00042122
0.00041857
0.000416005
0.000413524
0.000411122
0.000408795
0.000406543
0.000404362
0.00040225
0.000400208
0.000398234
0.000396328
0.000394491
0.000392724
0.000391028
0.000389407
0.000387864
0.000386402
0.000385026
0.000383742
0.000382556
0.000381476
0.00038051
0.000379668
0.000378959
0.000378395
0.000377987
0.000377748
0.000377691
0.000377831
0.000378181
0.000378754
0.000379565
0.000380626
0.000381948
0.000383541
0.000385412
0.000387566
0.000390001
0.000392714
0.000395694
0.000398922
0.000402373
0.000406012
0.000409791
0.00041365
0.000417513
0.000421287
0.000424854
0.000428072
0.000430771
0.000432755
0.000433808
0.000977118
0.000936709
0.000899653
0.00086563
0.000834354
0.000805565
0.000779032
0.000754545
0.000731917
0.00071098
0.00069158
0.000673581
0.000656859
0.000641303
0.000626812
0.000613294
0.000600668
0.000588859
0.0005778
0.00056743
0.000557693
0.000548538
0.00053992
0.000531798
0.000524133
0.000516891
0.00051004
0.000503551
0.000497397
0.000491556
0.000486004
0.000480721
0.000475689
0.000470889
0.000466308
0.000461929
0.00045774
0.000453729
0.000449883
0.000446192
0.000442647
0.000439239
0.000435958
0.000432799
0.000429753
0.000426815
0.000423978
0.000421237
0.000418587
0.000416023
0.000413542
0.000411141
0.000408815
0.000406563
0.000404382
0.000402272
0.00040023
0.000398256
0.00039635
0.000394513
0.000392746
0.000391051
0.000389429
0.000387885
0.000386423
0.000385046
0.00038376
0.000382573
0.000381491
0.000380523
0.000379677
0.000378965
0.000378397
0.000377984
0.00037774
0.000377677
0.00037781
0.000378152
0.000378717
0.000379519
0.00038057
0.000381881
0.000383463
0.000385323
0.000387464
0.000389887
0.000392587
0.000395554
0.00039877
0.000402209
0.000405835
0.000409604
0.000413453
0.000417308
0.000421074
0.000424634
0.000427848
0.000430543
0.000432525
0.000433578
0.000977118
0.000936709
0.000899653
0.000865631
0.000834354
0.000805565
0.000779032
0.000754546
0.000731918
0.000710981
0.000691581
0.000673583
0.000656861
0.000641305
0.000626814
0.000613296
0.000600671
0.000588862
0.000577804
0.000567433
0.000557696
0.000548542
0.000539925
0.000531803
0.000524138
0.000516896
0.000510045
0.000503557
0.000497404
0.000491563
0.000486011
0.000480729
0.000475697
0.000470898
0.000466317
0.000461939
0.000457751
0.000453739
0.000449894
0.000446204
0.000442659
0.000439252
0.000435972
0.000432813
0.000429768
0.000426831
0.000423994
0.000421254
0.000418604
0.000416041
0.000413561
0.00041116
0.000408835
0.000406583
0.000404403
0.000402293
0.000400252
0.000398278
0.000396373
0.000394536
0.000392769
0.000391074
0.000389452
0.000387908
0.000386444
0.000385066
0.00038378
0.000382591
0.000381507
0.000380536
0.000379688
0.000378972
0.000378399
0.000377982
0.000377733
0.000377664
0.00037779
0.000378124
0.000378681
0.000379473
0.000380514
0.000381815
0.000383385
0.000385233
0.000387362
0.000389772
0.000392459
0.000395413
0.000398616
0.000402042
0.000405657
0.000409414
0.000413253
0.000417099
0.000420857
0.000424412
0.00042762
0.000430312
0.000432291
0.000433343
0.000977118
0.000936709
0.000899653
0.000865631
0.000834354
0.000805566
0.000779033
0.000754546
0.000731919
0.000710982
0.000691583
0.000673584
0.000656863
0.000641307
0.000626816
0.000613299
0.000600673
0.000588865
0.000577807
0.000567437
0.0005577
0.000548546
0.000539929
0.000531808
0.000524143
0.000516902
0.000510051
0.000503563
0.000497411
0.00049157
0.000486019
0.000480737
0.000475705
0.000470907
0.000466327
0.000461949
0.000457761
0.00045375
0.000449906
0.000446216
0.000442672
0.000439265
0.000435986
0.000432828
0.000429784
0.000426846
0.000424011
0.000421271
0.000418622
0.00041606
0.00041358
0.00041118
0.000408855
0.000406605
0.000404425
0.000402315
0.000400274
0.000398302
0.000396397
0.00039456
0.000392793
0.000391097
0.000389476
0.000387931
0.000386466
0.000385088
0.0003838
0.000382609
0.000381523
0.00038055
0.000379699
0.000378979
0.000378403
0.000377981
0.000377726
0.000377651
0.00037777
0.000378097
0.000378645
0.000379428
0.000380459
0.000381749
0.000383308
0.000385143
0.00038726
0.000389657
0.000392331
0.000395272
0.000398461
0.000401875
0.000405478
0.000409224
0.000413052
0.000416889
0.000420639
0.000424186
0.00042739
0.000430078
0.000432055
0.000433106
0.000977118
0.000936709
0.000899653
0.000865631
0.000834355
0.000805566
0.000779033
0.000754547
0.00073192
0.000710983
0.000691584
0.000673585
0.000656864
0.000641309
0.000626818
0.000613301
0.000600676
0.000588868
0.00057781
0.00056744
0.000557704
0.00054855
0.000539934
0.000531813
0.000524149
0.000516907
0.000510057
0.000503569
0.000497418
0.000491577
0.000486027
0.000480745
0.000475714
0.000470916
0.000466336
0.000461959
0.000457772
0.000453762
0.000449917
0.000446228
0.000442685
0.000439278
0.000436
0.000432843
0.000429799
0.000426862
0.000424027
0.000421288
0.00041864
0.000416079
0.0004136
0.0004112
0.000408876
0.000406626
0.000404447
0.000402338
0.000400298
0.000398325
0.00039642
0.000394584
0.000392817
0.000391122
0.0003895
0.000387954
0.000386489
0.000385109
0.00038382
0.000382628
0.00038154
0.000380565
0.00037971
0.000378987
0.000378407
0.00037798
0.000377719
0.000377639
0.000377751
0.00037807
0.000378609
0.000379383
0.000380404
0.000381683
0.000383231
0.000385054
0.000387158
0.000389542
0.000392203
0.00039513
0.000398307
0.000401708
0.000405298
0.000409032
0.00041285
0.000416677
0.000420419
0.00042396
0.000427158
0.000429842
0.000431817
0.000432867
0.000977118
0.000936709
0.000899653
0.000865631
0.000834355
0.000805567
0.000779034
0.000754548
0.000731921
0.000710984
0.000691585
0.000673587
0.000656866
0.00064131
0.00062682
0.000613303
0.000600679
0.000588871
0.000577813
0.000567444
0.000557708
0.000548555
0.000539938
0.000531817
0.000524154
0.000516913
0.000510063
0.000503576
0.000497424
0.000491584
0.000486034
0.000480753
0.000475723
0.000470925
0.000466346
0.000461969
0.000457782
0.000453773
0.000449929
0.000446241
0.000442698
0.000439292
0.000436014
0.000432858
0.000429814
0.000426879
0.000424044
0.000421306
0.000418658
0.000416098
0.000413619
0.00041122
0.000408897
0.000406648
0.000404469
0.000402361
0.000400321
0.000398349
0.000396444
0.000394608
0.000392842
0.000391146
0.000389524
0.000387978
0.000386512
0.000385132
0.000383841
0.000382648
0.000381558
0.00038058
0.000379722
0.000378996
0.000378411
0.00037798
0.000377714
0.000377627
0.000377732
0.000378043
0.000378574
0.000379339
0.00038035
0.000381618
0.000383154
0.000384965
0.000387056
0.000389428
0.000392075
0.000394989
0.000398153
0.000401541
0.000405119
0.000408841
0.000412648
0.000416465
0.000420199
0.000423733
0.000426925
0.000429606
0.000431578
0.000432627
0.000977118
0.000936709
0.000899653
0.000865631
0.000834355
0.000805567
0.000779034
0.000754548
0.000731921
0.000710985
0.000691586
0.000673588
0.000656867
0.000641312
0.000626822
0.000613306
0.000600681
0.000588874
0.000577816
0.000567447
0.000557712
0.000548559
0.000539943
0.000531822
0.000524159
0.000516918
0.000510069
0.000503582
0.000497431
0.000491592
0.000486042
0.000480761
0.000475731
0.000470934
0.000466355
0.000461979
0.000457793
0.000453784
0.000449941
0.000446253
0.000442711
0.000439306
0.000436029
0.000432873
0.00042983
0.000426895
0.000424061
0.000421323
0.000418677
0.000416117
0.000413639
0.000411241
0.000408918
0.000406669
0.000404492
0.000402384
0.000400344
0.000398373
0.000396469
0.000394633
0.000392866
0.000391171
0.000389548
0.000388002
0.000386536
0.000385154
0.000383863
0.000382667
0.000381575
0.000380595
0.000379735
0.000379005
0.000378416
0.00037798
0.000377709
0.000377616
0.000377714
0.000378018
0.00037854
0.000379296
0.000380296
0.000381554
0.000383078
0.000384878
0.000386956
0.000389314
0.000391949
0.000394849
0.000397999
0.000401375
0.00040494
0.000408651
0.000412447
0.000416254
0.000419979
0.000423506
0.000426693
0.000429369
0.000431339
0.000432387
0.000977118
0.000936709
0.000899654
0.000865632
0.000834356
0.000805567
0.000779035
0.000754549
0.000731922
0.000710986
0.000691587
0.000673589
0.000656869
0.000641314
0.000626824
0.000613308
0.000600684
0.000588877
0.000577819
0.000567451
0.000557715
0.000548563
0.000539947
0.000531827
0.000524164
0.000516924
0.000510075
0.000503588
0.000497438
0.000491599
0.000486049
0.000480769
0.00047574
0.000470943
0.000466365
0.000461989
0.000457804
0.000453795
0.000449953
0.000446265
0.000442724
0.000439319
0.000436043
0.000432887
0.000429846
0.000426911
0.000424078
0.000421341
0.000418695
0.000416136
0.000413659
0.000411261
0.00040894
0.000406691
0.000404514
0.000402407
0.000400368
0.000398397
0.000396493
0.000394658
0.000392891
0.000391196
0.000389573
0.000388026
0.00038656
0.000385177
0.000383884
0.000382688
0.000381594
0.000380611
0.000379748
0.000379015
0.000378422
0.000377981
0.000377704
0.000377605
0.000377697
0.000377993
0.000378507
0.000379253
0.000380244
0.000381491
0.000383004
0.000384791
0.000386857
0.000389202
0.000391823
0.000394711
0.000397848
0.00040121
0.000404763
0.000408462
0.000412247
0.000416044
0.000419761
0.00042328
0.000426461
0.000429134
0.000431102
0.000432149
0.000977118
0.000936709
0.000899654
0.000865632
0.000834356
0.000805568
0.000779035
0.000754549
0.000731923
0.000710987
0.000691588
0.000673591
0.00065687
0.000641316
0.000626826
0.00061331
0.000600686
0.000588879
0.000577822
0.000567454
0.000557719
0.000548567
0.000539951
0.000531831
0.000524169
0.000516929
0.000510081
0.000503595
0.000497444
0.000491606
0.000486057
0.000480777
0.000475748
0.000470952
0.000466374
0.000461999
0.000457814
0.000453806
0.000449964
0.000446278
0.000442737
0.000439333
0.000436057
0.000432902
0.000429861
0.000426928
0.000424095
0.000421359
0.000418714
0.000416155
0.000413679
0.000411282
0.000408961
0.000406713
0.000404537
0.00040243
0.000400392
0.000398421
0.000396518
0.000394683
0.000392916
0.000391221
0.000389598
0.000388051
0.000386583