/*--------------------------------*- C++ -*----------------------------------*\
  =========                 |
  \\      /  F ield         | OpenFOAM: The Open Source CFD Toolbox
   \\    /   O peration     | Website:  https://openfoam.org
    \\  /    A nd           | Version:  11
     \\/     M anipulation  |
\*---------------------------------------------------------------------------*/
FoamFile
{
    format      ascii;
    class       volScalarField;
    location    "280";
    object      nut;
}
// * * * * * * * * * * * * * * * * * * * * * * * * * * * * * * * * * * * * * //

dimensions      [0 2 -1 0 0 0 0];

internalField   nonuniform List<scalar> 
10000
(
0.000977107
0.000936672
0.000899582
0.000865519
0.000834193
0.000805346
0.000778745
0.000754182
0.000731467
0.000710432
0.000690924
0.000672806
0.000655952
0.000640253
0.000625606
0.000611921
0.000599115
0.000587113
0.00057585
0.000565264
0.0005553
0.000545909
0.000537046
0.000528672
0.000520751
0.000513252
0.000506145
0.000499408
0.000493019
0.000486961
0.000481219
0.000475784
0.000470646
0.000465803
0.000461253
0.000457001
0.000453051
0.000449416
0.000446108
0.000443146
0.000440552
0.000438349
0.000436567
0.000435237
0.000434391
0.000434065
0.000434294
0.000435114
0.000436558
0.000438657
0.000441438
0.000444922
0.000449125
0.000454055
0.00045971
0.000466082
0.000473152
0.000480894
0.000489273
0.000498249
0.000507773
0.000517793
0.000528249
0.00053908
0.000550222
0.000561611
0.000573184
0.000584881
0.000596642
0.000608414
0.000620138
0.000631774
0.000643279
0.000654611
0.000665732
0.000676611
0.000687218
0.000697529
0.000707523
0.000717179
0.000726482
0.000735419
0.000743977
0.000752147
0.000759921
0.000767291
0.000774251
0.000780794
0.000786914
0.000792605
0.00079786
0.000802671
0.000807027
0.000810919
0.000814331
0.000817249
0.00081965
0.00082151
0.000822795
0.000823467
0.000977108
0.000936672
0.000899583
0.000865519
0.000834194
0.000805347
0.000778746
0.000754183
0.000731469
0.000710434
0.000690926
0.000672807
0.000655954
0.000640254
0.000625608
0.000611922
0.000599116
0.000587115
0.000575852
0.000565266
0.000555302
0.000545911
0.000537049
0.000528675
0.000520754
0.000513255
0.000506149
0.000499412
0.000493023
0.000486965
0.000481224
0.000475788
0.000470651
0.000465808
0.000461259
0.000457006
0.000453057
0.000449422
0.000446114
0.000443152
0.000440557
0.000438355
0.000436572
0.000435241
0.000434394
0.000434067
0.000434295
0.000435113
0.000436555
0.000438651
0.00044143
0.000444911
0.000449111
0.000454037
0.000459689
0.000466058
0.000473126
0.000480865
0.000489243
0.000498216
0.000507738
0.000517754
0.000528206
0.000539033
0.000550171
0.000561557
0.000573127
0.000584822
0.000596583
0.000608355
0.000620079
0.000631715
0.000643221
0.000654554
0.000665677
0.000676557
0.000687166
0.000697479
0.000707474
0.000717132
0.000726437
0.000735376
0.000743936
0.000752108
0.000759884
0.000767256
0.000774218
0.000780763
0.000786885
0.000792578
0.000797834
0.000802646
0.000807004
0.000810897
0.000814311
0.00081723
0.000819632
0.000821492
0.000822779
0.000823451
0.000977108
0.000936672
0.000899584
0.000865521
0.000834195
0.000805349
0.000778748
0.000754185
0.000731471
0.000710436
0.000690928
0.00067281
0.000655957
0.000640258
0.000625611
0.000611926
0.00059912
0.000587119
0.000575856
0.00056527
0.000555307
0.000545916
0.000537054
0.00052868
0.00052076
0.00051326
0.000506155
0.000499418
0.00049303
0.000486972
0.000481231
0.000475796
0.000470658
0.000465816
0.000461267
0.000457014
0.000453065
0.000449429
0.000446121
0.000443159
0.000440563
0.000438359
0.000436575
0.000435242
0.000434393
0.000434063
0.000434287
0.000435101
0.000436538
0.000438629
0.000441401
0.000444876
0.000449069
0.000453988
0.000459633
0.000465994
0.000473055
0.000480787
0.000489158
0.000498125
0.00050764
0.00051765
0.000528095
0.000538916
0.000550049
0.000561431
0.000572999
0.000584692
0.000596452
0.000608224
0.000619949
0.000631586
0.000643094
0.000654429
0.000665555
0.000676438
0.000687051
0.000697368
0.000707367
0.00071703
0.000726339
0.000735282
0.000743847
0.000752024
0.000759804
0.000767181
0.000774147
0.000780696
0.000786822
0.000792519
0.00079778
0.000802595
0.000806957
0.000810853
0.00081427
0.000817191
0.000819596
0.000821458
0.000822746
0.000823419
0.000977108
0.000936673
0.000899585
0.000865522
0.000834197
0.000805351
0.000778751
0.000754188
0.000731474
0.00071044
0.000690932
0.000672814
0.000655961
0.000640262
0.000625616
0.000611931
0.000599125
0.000587125
0.000575862
0.000565276
0.000555313
0.000545923
0.000537061
0.000528688
0.000520767
0.000513269
0.000506163
0.000499427
0.000493039
0.000486982
0.000481241
0.000475806
0.000470669
0.000465827
0.000461278
0.000457025
0.000453076
0.00044944
0.000446131
0.000443167
0.00044057
0.000438364
0.000436577
0.000435241
0.000434388
0.000434053
0.000434272
0.00043508
0.00043651
0.000438593
0.000441356
0.000444822
0.000449005
0.000453913
0.000459546
0.000465896
0.000472945
0.000480667
0.000489027
0.000497984
0.000507489
0.000517489
0.000527926
0.000538739
0.000549866
0.000561242
0.000572806
0.000584497
0.000596256
0.000608027
0.000619753
0.000631392
0.000642903
0.000654242
0.000665372
0.000676261
0.000686879
0.000697201
0.000707207
0.000716876
0.000726192
0.000735142
0.000743714
0.000751897
0.000759684
0.000767068
0.00077404
0.000780596
0.000786729
0.000792432
0.000797698
0.000802519
0.000806886
0.000810787
0.000814208
0.000817134
0.000819542
0.000821407
0.000822697
0.000823371
0.000977108
0.000936674
0.000899586
0.000865524
0.0008342
0.000805354
0.000778754
0.000754192
0.000731479
0.000710444
0.000690937
0.000672819
0.000655967
0.000640268
0.000625622
0.000611938
0.000599132
0.000587132
0.00057587
0.000565284
0.000555322
0.000545932
0.00053707
0.000528698
0.000520778
0.00051328
0.000506175
0.000499439
0.000493052
0.000486995
0.000481255
0.00047582
0.000470684
0.000465842
0.000461293
0.00045704
0.00045309
0.000449454
0.000446144
0.000443179
0.000440579
0.000438371
0.000436581
0.00043524
0.000434382
0.000434042
0.000434253
0.000435053
0.000436473
0.000438546
0.000441298
0.000444751
0.000448921
0.000453815
0.000459434
0.000465769
0.000472803
0.00048051
0.000488856
0.000497799
0.000507291
0.000517279
0.000527706
0.000538509
0.000549627
0.000560997
0.000572556
0.000584243
0.000596
0.000607772
0.000619499
0.00063114
0.000642655
0.000653998
0.000665134
0.000676028
0.000686653
0.000696984
0.000706997
0.000716674
0.000725999
0.000734958
0.000743538
0.000751731
0.000759527
0.000766919
0.000773901
0.000780465
0.000786606
0.000792317
0.000797591
0.00080242
0.000806793
0.000810701
0.000814128
0.000817059
0.000819471
0.00082134
0.000822632
0.000823307
0.000977108
0.000936675
0.000899587
0.000865526
0.000834202
0.000805357
0.000778758
0.000754196
0.000731483
0.00071045
0.000690943
0.000672826
0.000655974
0.000640275
0.00062563
0.000611946
0.000599141
0.000587141
0.000575879
0.000565294
0.000555332
0.000545943
0.000537082
0.00052871
0.000520791
0.000513293
0.000506189
0.000499454
0.000493067
0.000487011
0.000481272
0.000475838
0.000470702
0.00046586
0.000461311
0.000457058
0.000453108
0.000449471
0.00044616
0.000443193
0.000440591
0.00043838
0.000436586
0.00043524
0.000434376
0.000434028
0.000434231
0.00043502
0.00043643
0.00043849
0.000441228
0.000444666
0.000448819
0.000453697
0.000459298
0.000465615
0.000472631
0.000480321
0.000488649
0.000497575
0.000507052
0.000517025
0.000527438
0.00053823
0.000549338
0.0005607
0.000572252
0.000583936
0.000595691
0.000607461
0.00061919
0.000630834
0.000642352
0.000653701
0.000664843
0.000675745
0.000686379
0.000696718
0.000706741
0.000716428
0.000725763
0.000734733
0.000743324
0.000751528
0.000759335
0.000766738
0.00077373
0.000780304
0.000786456
0.000792176
0.00079746
0.000802297
0.00080668
0.000810595
0.000814029
0.000816966
0.000819384
0.000821257
0.000822552
0.000823228
0.000977109
0.000936675
0.000899589
0.000865528
0.000834205
0.000805361
0.000778763
0.000754201
0.000731489
0.000710456
0.00069095
0.000672833
0.000655981
0.000640283
0.000625638
0.000611955
0.000599151
0.000587152
0.00057589
0.000565306
0.000555344
0.000545956
0.000537096
0.000528724
0.000520806
0.000513309
0.000506206
0.000499472
0.000493086
0.000487031
0.000481292
0.000475859
0.000470723
0.000465882
0.000461333
0.00045708
0.00045313
0.000449491
0.000446179
0.00044321
0.000440606
0.00043839
0.000436592
0.00043524
0.000434369
0.000434013
0.000434206
0.000434984
0.00043638
0.000438426
0.000441148
0.000444569
0.000448703
0.000453561
0.000459142
0.000465438
0.000472433
0.000480102
0.00048841
0.000497317
0.000506775
0.000516731
0.000527129
0.000537907
0.000549003
0.000560355
0.000571901
0.000583579
0.000595331
0.000607101
0.000618831
0.000630477
0.000642
0.000653355
0.000664504
0.000675415
0.000686058
0.000696407
0.000706441
0.00071614
0.000725487
0.000734469
0.000743073
0.000751289
0.000759109
0.000766524
0.000773529
0.000780116
0.000786279
0.000792011
0.000797306
0.000802154
0.000806546
0.00081047
0.000813913
0.000816857
0.000819282
0.000821159
0.000822457
0.000823134
0.000977109
0.000936676
0.00089959
0.00086553
0.000834208
0.000805364
0.000778767
0.000754206
0.000731495
0.000710462
0.000690957
0.000672841
0.00065599
0.000640293
0.000625648
0.000611965
0.000599162
0.000587163
0.000575903
0.000565319
0.000555358
0.000545971
0.000537111
0.000528741
0.000520824
0.000513328
0.000506226
0.000499493
0.000493108
0.000487053
0.000481315
0.000475883
0.000470748
0.000465907
0.000461359
0.000457106
0.000453155
0.000449516
0.000446202
0.000443231
0.000440623
0.000438404
0.0004366
0.000435242
0.000434363
0.000433997
0.000434179
0.000434944
0.000436326
0.000438355
0.000441059
0.00044446
0.000448574
0.00045341
0.000458968
0.000465241
0.000472212
0.000479857
0.000488142
0.000497027
0.000506464
0.000516401
0.000526781
0.000537544
0.000548627
0.000559968
0.000571506
0.000583178
0.000594926
0.000606695
0.000618425
0.000630075
0.000641603
0.000652964
0.000664121
0.000675041
0.000685694
0.000696055
0.000706101
0.000715813
0.000725174
0.000734169
0.000742788
0.000751018
0.000758852
0.000766282
0.0007733
0.000779901
0.000786078
0.000791823
0.00079713
0.00080199
0.000806393
0.000810328
0.00081378
0.000816732
0.000819163
0.000821046
0.000822348
0.000823026
0.000977109
0.000936677
0.000899592
0.000865532
0.000834211
0.000805368
0.000778771
0.000754212
0.000731501
0.000710469
0.000690964
0.000672849
0.000655999
0.000640302
0.000625659
0.000611977
0.000599174
0.000587176
0.000575917
0.000565334
0.000555374
0.000545987
0.000537129
0.00052876
0.000520844
0.000513349
0.000506248
0.000499516
0.000493132
0.000487079
0.000481342
0.00047591
0.000470776
0.000465936
0.000461388
0.000457135
0.000453184
0.000449543
0.000446228
0.000443254
0.000440643
0.000438419
0.00043661
0.000435245
0.000434357
0.000433981
0.000434151
0.000434902
0.000436268
0.000438279
0.000440964
0.000444343
0.000448434
0.000453245
0.000458778
0.000465025
0.00047197
0.000479589
0.000487849
0.00049671
0.000506124
0.00051604
0.0005264
0.000537146
0.000548214
0.000559544
0.000571071
0.000582737
0.000594481
0.000606247
0.000617979
0.000629631
0.000641163
0.000652531
0.000663697
0.000674627
0.000685291
0.000695665
0.000705724
0.00071545
0.000724826
0.000733836
0.00074247
0.000750716
0.000758566
0.000766012
0.000773046
0.000779662
0.000785854
0.000791614
0.000796934
0.000801808
0.000806223
0.000810169
0.000813631
0.000816592
0.000819031
0.000820919
0.000822224
0.000822904
0.000977109
0.000936678
0.000899593
0.000865535
0.000834214
0.000805372
0.000778776
0.000754217
0.000731507
0.000710476
0.000690972
0.000672858
0.000656009
0.000640313
0.00062567
0.000611989
0.000599187
0.000587191
0.000575932
0.00056535
0.000555391
0.000546006
0.000537149
0.00052878
0.000520866
0.000513372
0.000506272
0.000499541
0.000493159
0.000487107
0.000481371
0.000475941
0.000470808
0.000465968
0.00046142
0.000457168
0.000453216
0.000449574
0.000446257
0.000443281
0.000440666
0.000438437
0.000436622
0.000435249
0.000434352
0.000433965
0.000434122
0.000434858
0.000436207
0.000438199
0.000440862
0.000444218
0.000448284
0.00045307
0.000458575
0.000464794
0.000471711
0.000479302
0.000487534
0.000496368
0.000505758
0.00051565
0.00052599
0.000536717
0.000547769
0.000559085
0.000570602
0.000582259
0.000593998
0.000605763
0.000617494
0.000629149
0.000640687
0.000652062
0.000663236
0.000674176
0.000684853
0.000695239
0.000705313
0.000715054
0.000724446
0.000733473
0.000742124
0.000750387
0.000758254
0.000765716
0.000772767
0.0007794
0.000785608
0.000791384
0.000796719
0.000801607
0.000806036
0.000809994
0.000813467
0.000816438
0.000818884
0.000820778
0.000822087
0.000822769
0.00097711
0.000936678
0.000899594
0.000865537
0.000834216
0.000805375
0.00077878
0.000754223
0.000731513
0.000710484
0.000690981
0.000672867
0.000656019
0.000640324
0.000625682
0.000612002
0.000599201
0.000587206
0.000575948
0.000565368
0.00055541
0.000546026
0.00053717
0.000528803
0.000520889
0.000513397
0.000506299
0.00049957
0.000493189
0.000487138
0.000481404
0.000475974
0.000470842
0.000466003
0.000461456
0.000457203
0.000453251
0.000449609
0.000446289
0.00044331
0.000440692
0.000438458
0.000436636
0.000435255
0.000434349
0.000433949
0.000434093
0.000434813
0.000436143
0.000438115
0.000440755
0.000444087
0.000448127
0.000452884
0.000458361
0.00046455
0.000471437
0.000478998
0.000487201
0.000496007
0.000505369
0.000515237
0.000525554
0.00053626
0.000547295
0.000558596
0.000570101
0.00058175
0.000593484
0.000605245
0.000616977
0.000628634
0.000640176
0.000651558
0.000662742
0.000673693
0.000684382
0.000694783
0.000704872
0.000714629
0.000724037
0.000733082
0.00074175
0.000750031
0.000757917
0.000765397
0.000772467
0.000779117
0.000785342
0.000791135
0.000796487
0.000801389
0.000805832
0.000809804
0.000813289
0.000816269
0.000818724
0.000820625
0.000821938
0.000822622
0.00097711
0.000936679
0.000899596
0.000865538
0.000834219
0.000805379
0.000778785
0.000754228
0.00073152
0.000710491
0.000690989
0.000672876
0.000656029
0.000640336
0.000625695
0.000612016
0.000599216
0.000587222
0.000575965
0.000565386
0.00055543
0.000546047
0.000537192
0.000528827
0.000520915
0.000513425
0.000506328
0.0004996
0.00049322
0.000487171
0.000481438
0.000476011
0.00047088
0.000466042
0.000461495
0.000457242
0.00045329
0.000449646
0.000446325
0.000443343
0.000440721
0.000438482
0.000436653
0.000435264
0.000434346
0.000433935
0.000434063
0.000434767
0.000436078
0.000438028
0.000440645
0.000443951
0.000447963
0.000452691
0.000458137
0.000464295
0.00047115
0.00047868
0.000486852
0.000495627
0.000504962
0.000514803
0.000525095
0.00053578
0.000546796
0.000558082
0.000569574
0.000581213
0.00059294
0.000604698
0.00061643
0.000628089
0.000639636
0.000651025
0.000662218
0.000673181
0.000683883
0.000694298
0.000704402
0.000714176
0.000723602
0.000732665
0.000741352
0.000749653
0.000757557
0.000765057
0.000772145
0.000778815
0.000785058
0.000790869
0.000796238
0.000801156
0.000805614
0.000809599
0.000813097
0.000816088
0.000818552
0.00082046
0.000821778
0.000822463
0.00097711
0.00093668
0.000899597
0.00086554
0.000834222
0.000805382
0.000778789
0.000754233
0.000731526
0.000710498
0.000690997
0.000672886
0.00065604
0.000640347
0.000625708
0.00061203
0.000599232
0.000587239
0.000575983
0.000565406
0.000555451
0.000546069
0.000537216
0.000528853
0.000520942
0.000513454
0.000506358
0.000499632
0.000493255
0.000487207
0.000481476
0.000476049
0.00047092
0.000466083
0.000461537
0.000457284
0.000453331
0.000449686
0.000446364
0.000443379
0.000440752
0.000438508
0.000436672
0.000435274
0.000434346
0.000433921
0.000434035
0.000434721
0.000436012
0.00043794
0.000440532
0.000443811
0.000447794
0.000452492
0.000457906
0.000464031
0.000470853
0.000478349
0.000486489
0.000495233
0.000504538
0.000514351
0.000524618
0.00053528
0.000546276
0.000557545
0.000569024
0.000580652
0.000592372
0.000604126
0.000615857
0.000627517
0.00063907
0.000650466
0.000661668
0.000672642
0.000683357
0.000693787
0.000703908
0.000713699
0.000723144
0.000732226
0.000740932
0.000749253
0.000757177
0.000764698
0.000771806
0.000778495
0.000784758
0.000790586
0.000795973
0.000800909
0.000805383
0.000809382
0.000812893
0.000815895
0.000818368
0.000820284
0.000821606
0.000822294
0.00097711
0.00093668
0.000899598
0.000865542
0.000834224
0.000805386
0.000778793
0.000754238
0.000731532
0.000710506
0.000691006
0.000672895
0.000656051
0.000640359
0.000625721
0.000612045
0.000599248
0.000587256
0.000576002
0.000565426
0.000555473
0.000546093
0.000537242
0.00052888
0.000520971
0.000513484
0.000506391
0.000499667
0.000493291
0.000487245
0.000481516
0.000476091
0.000470962
0.000466126
0.000461581
0.000457329
0.000453375
0.00044973
0.000446405
0.000443417
0.000440786
0.000438536
0.000436693
0.000435286
0.000434347
0.000433909
0.000434007
0.000434675
0.000435945
0.00043785
0.000440417
0.000443668
0.000447622
0.000452288
0.000457669
0.00046376
0.000470548
0.00047801
0.000486116
0.000494827
0.000504101
0.000513885
0.000524125
0.000534763
0.000545738
0.000556989
0.000568453
0.000580071
0.000591783
0.000603533
0.000615262
0.000626924
0.00063848
0.000649884
0.000661095
0.000672081
0.00068281
0.000693255
0.000703392
0.000713201
0.000722664
0.000731766
0.000740493
0.000748834
0.000756779
0.000764321
0.00077145
0.000778159
0.000784442
0.00079029
0.000795695
0.000800648
0.000805139
0.000809153
0.000812677
0.000815691
0.000818174
0.000820097
0.000821425
0.000822115
0.00097711
0.000936681
0.000899599
0.000865544
0.000834227
0.000805389
0.000778798
0.000754244
0.000731538
0.000710513
0.000691014
0.000672905
0.000656061
0.000640372
0.000625735
0.000612059
0.000599264
0.000587274
0.000576022
0.000565447
0.000555495
0.000546117
0.000537268
0.000528908
0.000521001
0.000513516
0.000506425
0.000499703
0.000493329
0.000487285
0.000481557
0.000476134
0.000471007
0.000466172
0.000461628
0.000457376
0.000453422
0.000449776
0.000446449
0.000443458
0.000440823
0.000438567
0.000436716
0.0004353
0.00043435
0.000433898
0.00043398
0.000434629
0.000435879
0.00043776
0.000440301
0.000443524
0.000447447
0.00045208
0.000457427
0.000463484
0.000470236
0.000477663
0.000485734
0.000494412
0.000503653
0.000513407
0.000523619
0.000534233
0.000545186
0.000556418
0.000567867
0.000579473
0.000591176
0.000602921
0.000614648
0.000626311
0.000637872
0.000649282
0.000660503
0.0006715
0.000682243
0.000692703
0.000702858
0.000712685
0.000722167
0.000731289
0.000740037
0.000748399
0.000756366
0.000763928
0.000771078
0.000777809
0.000784112
0.00078998
0.000795405
0.000800376
0.000804883
0.000808913
0.000812451
0.000815477
0.00081797
0.000819901
0.000821234
0.000821927
0.00097711
0.000936681
0.0008996
0.000865545
0.000834229
0.000805392
0.000778802
0.000754248
0.000731544
0.00071052
0.000691022
0.000672914
0.000656072
0.000640384
0.000625748
0.000612074
0.00059928
0.000587292
0.000576041
0.000565469
0.000555519
0.000546142
0.000537295
0.000528937
0.000521032
0.000513549
0.00050646
0.00049974
0.000493368
0.000487327
0.000481601
0.000476179
0.000471054
0.000466221
0.000461677
0.000457426
0.000453471
0.000449824
0.000446495
0.000443501
0.000440862
0.0004386
0.000436742
0.000435316
0.000434354
0.000433889
0.000433955
0.000434585
0.000435813
0.000437671
0.000440184
0.000443378
0.00044727
0.00045187
0.000457183
0.000463204
0.00046992
0.00047731
0.000485346
0.000493989
0.000503197
0.00051292
0.000523104
0.000533691
0.000544622
0.000555834
0.000567267
0.000578861
0.000590555
0.000602294
0.000614019
0.000625683
0.000637248
0.000648664
0.000659895
0.000670903
0.00068166
0.000692135
0.000702307
0.000712153
0.000721654
0.000730797
0.000739565
0.000747949
0.000755938
0.000763522
0.000770694
0.000777446
0.000783771
0.000789659
0.000795103
0.000800093
0.000804617
0.000808663
0.000812215
0.000815254
0.000817757
0.000819696
0.000821035
0.00082173
0.000977111
0.000936682
0.000899601
0.000865547
0.000834231
0.000805395
0.000778805
0.000754253
0.00073155
0.000710527
0.000691031
0.000672924
0.000656083
0.000640396
0.000625762
0.00061209
0.000599297
0.00058731
0.000576061
0.00056549
0.000555542
0.000546168
0.000537323
0.000528967
0.000521064
0.000513583
0.000506496
0.000499779
0.000493409
0.00048737
0.000481646
0.000476226
0.000471103
0.000466271
0.000461728
0.000457477
0.000453523
0.000449874
0.000446543
0.000443547
0.000440903
0.000438635
0.000436769
0.000435334
0.000434361
0.000433881
0.000433931
0.000434542
0.000435748
0.000437581
0.000440068
0.000443233
0.000447092
0.000451659
0.000456937
0.000462921
0.000469601
0.000476954
0.000484953
0.000493561
0.000502735
0.000512427
0.000522581
0.000533142
0.000544049
0.000555241
0.000566658
0.000578238
0.000589923
0.000601655
0.000613378
0.000625042
0.00063661
0.000648034
0.000659273
0.000670293
0.000681063
0.000691554
0.000701743
0.000711607
0.000721129
0.000730291
0.000739082
0.000747487
0.000755498
0.000763105
0.000770299
0.000777073
0.000783419
0.000789328
0.000794792
0.0007998
0.000804342
0.000808404
0.000811971
0.000815022
0.000817536
0.000819483
0.000820828
0.000821526
0.000977111
0.000936682
0.000899602
0.000865548
0.000834233
0.000805398
0.000778809
0.000754258
0.000731556
0.000710534
0.000691038
0.000672933
0.000656093
0.000640408
0.000625775
0.000612105
0.000599314
0.000587329
0.000576082
0.000565513
0.000555567
0.000546194
0.000537351
0.000528997
0.000521097
0.000513618
0.000506534
0.000499818
0.000493451
0.000487414
0.000481692
0.000476275
0.000471153
0.000466322
0.000461781
0.00045753
0.000453576
0.000449926
0.000446594
0.000443594
0.000440946
0.000438672
0.000436799
0.000435354
0.000434369
0.000433875
0.000433908
0.0004345
0.000435685
0.000437493
0.000439953
0.000443087
0.000446915
0.000451448
0.00045669
0.000462638
0.00046928
0.000476596
0.000484558
0.000493131
0.00050227
0.000511929
0.000522054
0.000532587
0.00054347
0.000554642
0.000566041
0.000577607
0.000589282
0.000601008
0.000612728
0.000624392
0.000635963
0.000647393
0.000658641
0.000669672
0.000680456
0.000690962
0.000701168
0.000711051
0.000720592
0.000729776
0.000738588
0.000747015
0.000755048
0.000762678
0.000769894
0.00077669
0.000783058
0.000788988
0.000794472
0.000799499
0.000804059
0.000808138
0.000811719
0.000814783
0.000817308
0.000819263
0.000820614
0.000821315
0.000977111
0.000936683
0.000899603
0.00086555
0.000834235
0.0008054
0.000778812
0.000754262
0.000731561
0.00071054
0.000691046
0.000672942
0.000656104
0.00064042
0.000625789
0.00061212
0.000599331
0.000587347
0.000576102
0.000565535
0.000555591
0.000546221
0.00053738
0.000529028
0.00052113
0.000513654
0.000506572
0.000499859
0.000493494
0.000487459
0.00048174
0.000476324
0.000471204
0.000466375
0.000461835
0.000457585
0.00045363
0.00044998
0.000446646
0.000443643
0.00044099
0.000438711
0.00043683
0.000435376
0.000434378
0.000433871
0.000433887
0.00043446
0.000435622
0.000437406
0.000439838
0.000442943
0.000446739
0.000451238
0.000456444
0.000462355
0.00046896
0.000476238
0.000484163
0.000492699
0.000501804
0.00051143
0.000521524
0.00053203
0.000542888
0.000554039
0.00056542
0.000576972
0.000588636
0.000600355
0.000612072
0.000623735
0.000635309
0.000646745
0.000658001
0.000669044
0.00067984
0.000690362
0.000700585
0.000710487
0.000720048
0.000729252
0.000738085
0.000746535
0.000754591
0.000762243
0.000769482
0.0007763
0.000782689
0.000788641
0.000794145
0.000799192
0.000803769
0.000807864
0.00081146
0.000814538
0.000817073
0.000819037
0.000820394
0.000821098
0.000977111
0.000936683
0.000899604
0.000865551
0.000834237
0.000805403
0.000778816
0.000754266
0.000731567
0.000710547
0.000691054
0.000672951
0.000656114
0.000640431
0.000625802
0.000612135
0.000599347
0.000587366
0.000576123
0.000565557
0.000555615
0.000546247
0.000537409
0.000529059
0.000521164
0.00051369
0.000506611
0.0004999
0.000493538
0.000487505
0.000481788
0.000476375
0.000471257
0.000466429
0.00046189
0.000457641
0.000453686
0.000450035
0.000446699
0.000443693
0.000441036
0.000438751
0.000436863
0.000435399
0.00043439
0.000433868
0.000433868
0.000434421
0.000435562
0.000437321
0.000439726
0.000442801
0.000446564
0.000451029
0.000456199
0.000462074
0.00046864
0.000475881
0.000483768
0.000492268
0.000501337
0.00051093
0.000520994
0.000531472
0.000542305
0.000553434
0.000564797
0.000576335
0.000587987
0.000599699
0.000611412
0.000623074
0.000634651
0.000646092
0.000657357
0.00066841
0.00067922
0.000689757
0.000699997
0.000709916
0.000719497
0.000728722
0.000737577
0.000746049
0.000754127
0.000761802
0.000769064
0.000775904
0.000782315
0.000788288
0.000793812
0.000798878
0.000803474
0.000807586
0.000811197
0.000814287
0.000816834
0.000818806
0.000820168
0.000820876
0.000977111
0.000936684
0.000899604
0.000865552
0.000834239
0.000805405
0.000778819
0.000754271
0.000731572
0.000710553
0.000691061
0.00067296
0.000656124
0.000640443
0.000625815
0.000612149
0.000599364
0.000587384
0.000576143
0.00056558
0.00055564
0.000546274
0.000537438
0.000529091
0.000521198
0.000513727
0.00050665
0.000499942
0.000493582
0.000487552
0.000481837
0.000476426
0.00047131
0.000466484
0.000461946
0.000457698
0.000453743
0.000450091
0.000446753
0.000443745
0.000441084
0.000438793
0.000436897
0.000435423
0.000434403
0.000433867
0.00043385
0.000434384
0.000435503
0.000437237
0.000439615
0.00044266
0.000446392
0.000450822
0.000455957
0.000461794
0.000468324
0.000475526
0.000483376
0.000491839
0.000500873
0.000510433
0.000520465
0.000530915
0.000541723
0.00055283
0.000564175
0.000575697
0.000587339
0.000599042
0.000610752
0.000622412
0.000633991
0.000645437
0.00065671
0.000667774
0.000678596
0.000689148
0.000699405
0.000709343
0.000718943
0.000728189
0.000737065
0.000745559
0.000753659
0.000761356
0.000768641
0.000775504
0.000781936
0.00078793
0.000793475
0.000798561
0.000803175
0.000807303
0.000810929
0.000814032
0.00081659
0.000818571
0.000819939
0.000820649
0.000977111
0.000936684
0.000899605
0.000865553
0.000834241
0.000805408
0.000778822
0.000754275
0.000731577
0.000710559
0.000691068
0.000672968
0.000656134
0.000640454
0.000625828
0.000612164
0.00059938
0.000587402
0.000576163
0.000565602
0.000555665
0.000546301
0.000537467
0.000529123
0.000521232
0.000513764
0.000506689
0.000499984
0.000493627
0.000487599
0.000481887
0.000476478
0.000471364
0.00046654
0.000462003
0.000457755
0.000453801
0.000450148
0.000446808
0.000443797
0.000441132
0.000438835
0.000436932
0.000435449
0.000434417
0.000433868
0.000433834
0.000434349
0.000435447
0.000437156
0.000439507
0.000442523
0.000446222
0.000450619
0.000455718
0.000461519
0.00046801
0.000475175
0.000482988
0.000491414
0.000500413
0.000509939
0.00051994
0.000530362
0.000541144
0.000552229
0.000563555
0.000575062
0.000586692
0.000598388
0.000610092
0.000621752
0.000633332
0.000644783
0.000656063
0.000667137
0.000677972
0.000688539
0.000698811
0.000708767
0.000718387
0.000727653
0.000736551
0.000745066
0.000753189
0.000760909
0.000768215
0.0007751
0.000781555
0.00078757
0.000793135
0.00079824
0.000802872
0.000807016
0.000810657
0.000813774
0.000816342
0.000818332
0.000819706
0.000820419
0.000977111
0.000936684
0.000899606
0.000865555
0.000834242
0.00080541
0.000778825
0.000754278
0.000731581
0.000710565
0.000691075
0.000672976
0.000656144
0.000640465
0.000625841
0.000612178
0.000599396
0.00058742
0.000576183
0.000565624
0.000555689
0.000546328
0.000537496
0.000529154
0.000521266
0.0005138
0.000506728
0.000500026
0.000493671
0.000487646
0.000481936
0.00047653
0.000471418
0.000466595
0.00046206
0.000457813
0.000453859
0.000450206
0.000446864
0.00044385
0.000441181
0.000438879
0.000436968
0.000435476
0.000434432
0.000433869
0.00043382
0.000434316
0.000435392
0.000437078
0.000439402
0.000442388
0.000446056
0.000450419
0.000455483
0.000461247
0.000467702
0.000474829
0.000482604
0.000490994
0.000499958
0.000509451
0.000519421
0.000529814
0.000540571
0.000551633
0.00056294
0.000574432
0.00058605
0.000597737
0.000609437
0.000621094
0.000632677
0.000644132
0.000655419
0.000666503
0.00067735
0.000687931
0.000698219
0.000708193
0.000717832
0.000727118
0.000736036
0.000744573
0.000752718
0.00076046
0.000767789
0.000774696
0.000781172
0.000787208
0.000792793
0.000797917
0.000802567
0.000806728
0.000810383
0.000813513
0.000816092
0.00081809
0.00081947
0.000820186
0.000977111
0.000936685
0.000899606
0.000865556
0.000834244
0.000805412
0.000778828
0.000754282
0.000731586
0.00071057
0.000691082
0.000672984
0.000656153
0.000640476
0.000625853
0.000612193
0.000599412
0.000587438
0.000576203
0.000565646
0.000555713
0.000546354
0.000537525
0.000529185
0.0005213
0.000513837
0.000506768
0.000500068
0.000493716
0.000487693
0.000481986
0.000476582
0.000471472
0.000466651
0.000462117
0.000457871
0.000453917
0.000450263
0.00044692
0.000443904
0.000441231
0.000438923
0.000437005
0.000435504
0.000434449
0.000433873
0.000433807
0.000434285
0.00043534
0.000437002
0.000439299
0.000442257
0.000445894
0.000450224
0.000455253
0.000460981
0.000467398
0.000474489
0.000482227
0.00049058
0.00049951
0.000508969
0.000518909
0.000529273
0.000540005
0.000551045
0.000562333
0.000573809
0.000585414
0.000597093
0.000608788
0.000620443
0.000632026
0.000643485
0.00065478
0.000665873
0.000676732
0.000687326
0.000697631
0.000707621
0.000717279
0.000726584
0.000735523
0.000744082
0.000752248
0.000760012
0.000767363
0.000774291
0.000780789
0.000786845
0.000792451
0.000797593
0.000802261
0.000806438
0.000810109
0.000813251
0.000815841
0.000817848
0.000819233
0.000819952
0.000977111
0.000936685
0.000899607
0.000865557
0.000834245
0.000805414
0.000778831
0.000754286
0.00073159
0.000710576
0.000691089
0.000672992
0.000656162
0.000640487
0.000625865
0.000612206
0.000599428
0.000587456
0.000576223
0.000565668
0.000555737
0.00054638
0.000537553
0.000529217
0.000521334
0.000513873
0.000506807
0.000500109
0.00049376
0.00048774
0.000482036
0.000476634
0.000471526
0.000466707
0.000462174
0.000457929
0.000453975
0.000450321
0.000446977
0.000443957
0.00044128
0.000438967
0.000437042
0.000435532
0.000434467
0.000433877
0.000433796
0.000434256
0.00043529
0.000436928
0.0004392
0.000442129
0.000445736
0.000450033
0.000455028
0.00046072
0.000467101
0.000474155
0.000481857
0.000490175
0.000499069
0.000508496
0.000518405
0.000528741
0.000539447
0.000550465
0.000561734