/*--------------------------------*- C++ -*----------------------------------*\
  =========                 |
  \\      /  F ield         | OpenFOAM: The Open Source CFD Toolbox
   \\    /   O peration     | Website:  https://openfoam.org
    \\  /    A nd           | Version:  11
     \\/     M anipulation  |
\*---------------------------------------------------------------------------*/
FoamFile
{
    format      ascii;
    class       volScalarField;
    location    "280";
    object      omega;
}
// * * * * * * * * * * * * * * * * * * * * * * * * * * * * * * * * * * * * * //

dimensions      [0 0 -1 0 0 0 0];

internalField   nonuniform List<scalar> 
10000
(
0.961695
0.892192
0.829094
0.771736
0.719528
0.671943
0.628514
0.588822
0.552496
0.519205
0.488651
0.46057
0.434725
0.410906
0.388922
0.368603
0.349796
0.332366
0.316189
0.301153
0.28716
0.274119
0.261949
0.250576
0.239934
0.229963
0.220608
0.211819
0.20355
0.19576
0.188412
0.18147
0.174904
0.168683
0.162782
0.157174
0.151839
0.146753
0.141899
0.137258
0.132813
0.128551
0.124456
0.120518
0.116724
0.113066
0.109535
0.106124
0.102828
0.099643
0.0965654
0.0935935
0.0907264
0.0879638
0.085306
0.0827537
0.0803076
0.077968
0.0757356
0.0736105
0.0715923
0.0696802
0.0678726
0.0661673
0.0645614
0.0630517
0.0616346
0.0603062
0.0590627
0.0578999
0.0568138
0.0558
0.0548547
0.0539737
0.0531532
0.0523895
0.051679
0.0510184
0.0504044
0.049834
0.0493045
0.0488132
0.0483578
0.0479359
0.0475456
0.0471851
0.0468525
0.0465466
0.0462658
0.0460091
0.0457756
0.0455644
0.045375
0.045207
0.0450603
0.0449349
0.0448315
0.0447509
0.0446943
0.0446638
0.961695
0.892192
0.829094
0.771737
0.719529
0.671944
0.628515
0.588823
0.552497
0.519206
0.488652
0.460571
0.434726
0.410907
0.388923
0.368604
0.349797
0.332367
0.31619
0.301154
0.287161
0.27412
0.26195
0.250577
0.239936
0.229964
0.220609
0.21182
0.203551
0.195762
0.188413
0.181472
0.174906
0.168685
0.162784
0.157177
0.151841
0.146756
0.141902
0.137261
0.132817
0.128555
0.124461
0.120523
0.11673
0.113072
0.109541
0.106131
0.102836
0.0996508
0.0965737
0.0936022
0.0907355
0.0879732
0.0853157
0.0827636
0.0803177
0.0779784
0.0757463
0.0736214
0.0716033
0.0696911
0.0678831
0.0661773
0.0645709
0.0630606
0.0616429
0.0603141
0.0590701
0.057907
0.0568204
0.0558063
0.0548605
0.0539792
0.0531584
0.0523943
0.0516835
0.0510226
0.0504083
0.0498376
0.0493079
0.0488163
0.0483607
0.0479386
0.0475481
0.0471874
0.0468547
0.0465486
0.0462677
0.0460109
0.0457772
0.0455659
0.0453764
0.0452083
0.0450615
0.0449361
0.0448326
0.0447519
0.0446954
0.0446648
0.961695
0.892192
0.829094
0.771737
0.71953
0.671945
0.628516
0.588824
0.552499
0.519207
0.488653
0.460572
0.434728
0.410909
0.388924
0.368605
0.349799
0.332369
0.316191
0.301156
0.287163
0.274122
0.261952
0.250579
0.239938
0.229967
0.220611
0.211822
0.203553
0.195764
0.188416
0.181475
0.174909
0.168688
0.162787
0.15718
0.151845
0.14676
0.141906
0.137266
0.132823
0.128561
0.124467
0.12053
0.116738
0.113081
0.109551
0.106141
0.102847
0.0996629
0.0965866
0.0936159
0.0907498
0.0879881
0.0853312
0.0827795
0.0803339
0.0779949
0.075763
0.0736382
0.0716201
0.0697077
0.0678994
0.0661931
0.0645861
0.0630751
0.0616568
0.0603273
0.0590826
0.0579188
0.0568316
0.0558168
0.0548705
0.0539885
0.0531671
0.0524025
0.0516912
0.0510297
0.0504149
0.0498439
0.0493137
0.0488217
0.0483657
0.0479433
0.0475525
0.0471914
0.0468585
0.0465521
0.0462709
0.0460139
0.04578
0.0455686
0.0453789
0.0452107
0.0450637
0.0449383
0.0448347
0.044754
0.0446974
0.0446668
0.961695
0.892192
0.829095
0.771738
0.719531
0.671947
0.628518
0.588826
0.552501
0.519209
0.488655
0.460575
0.43473
0.410911
0.388927
0.368608
0.349802
0.332371
0.316194
0.301159
0.287165
0.274125
0.261955
0.250582
0.23994
0.229969
0.220614
0.211825
0.203556
0.195767
0.188419
0.181478
0.174912
0.168692
0.162792
0.157185
0.15185
0.146766
0.141913
0.137273
0.13283
0.128569
0.124477
0.12054
0.116749
0.113093
0.109564
0.106156
0.102862
0.0996795
0.0966042
0.0936346
0.0907695
0.0880086
0.0853524
0.0828013
0.0803561
0.0780175
0.0757858
0.0736611
0.0716429
0.0697302
0.0679215
0.0662146
0.0646068
0.0630951
0.0616759
0.0603455
0.0591
0.0579352
0.0568471
0.0558315
0.0548843
0.0540015
0.0531793
0.052414
0.0517019
0.0510397
0.0504243
0.0498526
0.0493218
0.0488293
0.0483728
0.0479499
0.0475586
0.0471972
0.0468638
0.046557
0.0462756
0.0460182
0.0457841
0.0455724
0.0453825
0.0452141
0.045067
0.0449414
0.0448378
0.044757
0.0447003
0.0446697
0.961695
0.892193
0.829095
0.771739
0.719532
0.671948
0.628519
0.588828
0.552503
0.519212
0.488658
0.460577
0.434733
0.410914
0.38893
0.368611
0.349805
0.332375
0.316197
0.301162
0.287169
0.274128
0.261958
0.250586
0.239944
0.229973
0.220618
0.211829
0.203561
0.195771
0.188424
0.181483
0.174918
0.168698
0.162797
0.157191
0.151857
0.146773
0.141921
0.137282
0.13284
0.12858
0.124488
0.120553
0.116763
0.113108
0.109581
0.106174
0.102882
0.0997006
0.0966266
0.0936582
0.0907943
0.0880345
0.0853792
0.0828289
0.0803842
0.078046
0.0758145
0.0736898
0.0716714
0.0697584
0.0679491
0.0662415
0.0646329
0.0631202
0.0617
0.0603685
0.0591219
0.057956
0.0568668
0.0558501
0.0549019
0.0540181
0.0531949
0.0524285
0.0517156
0.0510525
0.0504362
0.0498637
0.0493322
0.048839
0.0483818
0.0479583
0.0475665
0.0472045
0.0468706
0.0465634
0.0462816
0.0460239
0.0457894
0.0455774
0.0453873
0.0452186
0.0450713
0.0449455
0.0448418
0.0447609
0.0447042
0.0446735
0.961695
0.892193
0.829096
0.77174
0.719533
0.671949
0.628521
0.58883
0.552505
0.519214
0.488661
0.46058
0.434736
0.410917
0.388933
0.368614
0.349808
0.332378
0.316201
0.301166
0.287173
0.274132
0.261962
0.25059
0.239948
0.229978
0.220623
0.211834
0.203566
0.195777
0.188429
0.181489
0.174924
0.168704
0.162804
0.157199
0.151865
0.146782
0.141931
0.137293
0.132852
0.128593
0.124503
0.120569
0.11678
0.113127
0.109601
0.106196
0.102906
0.0997257
0.0966534
0.0936865
0.090824
0.0880654
0.0854111
0.0828616
0.0804176
0.0780798
0.0758485
0.0737238
0.0717052
0.0697917
0.0679817
0.0662733
0.0646637
0.0631499
0.0617285
0.0603958
0.059148
0.0579808
0.0568903
0.0558723
0.0549228
0.0540378
0.0532134
0.052446
0.0517319
0.0510678
0.0504506
0.0498771
0.0493447
0.0488507
0.0483927
0.0479685
0.047576
0.0472134
0.0468789
0.0465712
0.0462888
0.0460307
0.0457958
0.0455834
0.045393
0.0452241
0.0450766
0.0449506
0.0448466
0.0447656
0.0447088
0.0446781
0.961695
0.892193
0.829096
0.77174
0.719534
0.671951
0.628523
0.588832
0.552508
0.519217
0.488664
0.460583
0.43474
0.410921
0.388937
0.368618
0.349812
0.332382
0.316205
0.30117
0.287177
0.274136
0.261967
0.250595
0.239953
0.229983
0.220628
0.211839
0.203571
0.195783
0.188436
0.181496
0.174931
0.168712
0.162813
0.157208
0.151875
0.146793
0.141942
0.137305
0.132866
0.128608
0.124519
0.120587
0.1168
0.113148
0.109624
0.106221
0.102933
0.0997547
0.0966841
0.0937189
0.0908579
0.0881008
0.0854477
0.0828991
0.0804559
0.0781185
0.0758874
0.0737626
0.0717437
0.0698296
0.068019
0.0663096
0.0646989
0.0631839
0.0617612
0.0604271
0.0591778
0.0580092
0.0569173
0.0558978
0.0549469
0.0540605
0.0532348
0.052466
0.0517507
0.0510855
0.0504671
0.0498926
0.0493591
0.0488642
0.0484053
0.0479802
0.047587
0.0472236
0.0468885
0.0465802
0.0462972
0.0460386
0.0458033
0.0455905
0.0453997
0.0452304
0.0450827
0.0449565
0.0448524
0.0447712
0.0447143
0.0446835
0.961695
0.892193
0.829096
0.771741
0.719534
0.671952
0.628524
0.588834
0.55251
0.519219
0.488666
0.460587
0.434743
0.410924
0.388941
0.368622
0.349817
0.332387
0.31621
0.301175
0.287182
0.274141
0.261972
0.2506
0.239959
0.229988
0.220634
0.211845
0.203578
0.19579
0.188443
0.181503
0.174939
0.168721
0.162822
0.157218
0.151886
0.146805
0.141955
0.13732
0.132881
0.128625
0.124538
0.120607
0.116822
0.113173
0.109651
0.106249
0.102963
0.0997871
0.0967185
0.0937552
0.0908959
0.0881402
0.0854884
0.0829409
0.0804984
0.0781615
0.0759306
0.0738057
0.0717864
0.0698718
0.0680603
0.0663499
0.064738
0.0632216
0.0617975
0.0604619
0.059211
0.0580408
0.0569473
0.0559263
0.0549738
0.0540858
0.0532586
0.0524885
0.0517718
0.0511052
0.0504856
0.0499099
0.0493753
0.0488793
0.0484195
0.0479935
0.0475993
0.0472352
0.0468993
0.0465903
0.0463067
0.0460475
0.0458117
0.0455985
0.0454073
0.0452377
0.0450896
0.0449631
0.0448588
0.0447775
0.0447205
0.0446896
0.961695
0.892193
0.829096
0.771741
0.719535
0.671953
0.628525
0.588836
0.552512
0.519222
0.488669
0.46059
0.434746
0.410928
0.388945
0.368626
0.349821
0.332391
0.316214
0.30118
0.287187
0.274147
0.261977
0.250606
0.239965
0.229995
0.22064
0.211852
0.203585
0.195797
0.188451
0.181512
0.174948
0.168731
0.162833
0.15723
0.151899
0.146819
0.14197
0.137336
0.132899
0.128644
0.124559
0.12063
0.116847
0.113199
0.10968
0.106281
0.102996
0.0998226
0.0967562
0.0937948
0.0909374
0.0881833
0.0855329
0.0829865
0.0805448
0.0782084
0.0759777
0.0738527
0.071833
0.0699177
0.0681053
0.0663938
0.0647806
0.0632628
0.0618371
0.0604998
0.0592473
0.0580754
0.0569801
0.0559573
0.0550031
0.0541136
0.0532847
0.052513
0.0517948
0.0511268
0.0505058
0.0499289
0.0493931
0.048896
0.048435
0.048008
0.0476129
0.0472479
0.0469113
0.0466015
0.0463173
0.0460574
0.045821
0.0456073
0.0454157
0.0452457
0.0450973
0.0449705
0.044866
0.0447845
0.0447273
0.0446963
0.961695
0.892193
0.829096
0.771741
0.719535
0.671953
0.628526
0.588837
0.552513
0.519224
0.488672
0.460592
0.43475
0.410931
0.388948
0.36863
0.349825
0.332396
0.316219
0.301185
0.287192
0.274152
0.261983
0.250612
0.239971
0.230001
0.220647
0.21186
0.203593
0.195806
0.18846
0.181521
0.174958
0.168742
0.162845
0.157242
0.151912
0.146833
0.141986
0.137353
0.132918
0.128665
0.124582
0.120655
0.116874
0.113228
0.109711
0.106314
0.103032
0.099861
0.0967968
0.0938375
0.090982
0.0882297
0.0855807
0.0830355
0.0805946
0.0782587
0.0760282
0.0739031
0.071883
0.069967
0.0681536
0.0664408
0.0648263
0.0633069
0.0618796
0.0605406
0.0592862
0.0581125
0.0570153
0.0559908
0.0550348
0.0541434
0.0533129
0.0525395
0.0518197
0.0511502
0.0505277
0.0499494
0.0494123
0.0489139
0.0484518
0.0480238
0.0476277
0.0472617
0.0469242
0.0466136
0.0463287
0.0460682
0.0458312
0.0456169
0.0454248
0.0452544
0.0451056
0.0449786
0.0448738
0.0447921
0.0447348
0.0447037
0.961695
0.892193
0.829096
0.771741
0.719536
0.671954
0.628527
0.588838
0.552515
0.519226
0.488674
0.460595
0.434753
0.410935
0.388952
0.368634
0.34983
0.332401
0.316224
0.30119
0.287198
0.274158
0.261989
0.250618
0.239978
0.230008
0.220655
0.211868
0.203601
0.195814
0.188469
0.181532
0.174969
0.168753
0.162857
0.157256
0.151927
0.146849
0.142004
0.137372
0.132939
0.128688
0.124606
0.120681
0.116902
0.113259
0.109744
0.10635
0.103071
0.0999019
0.09684
0.093883
0.0910295
0.0882789
0.0856315
0.0830874
0.0806474
0.0783121
0.0760818
0.0739565
0.0719359
0.0700192
0.0682047
0.0664907
0.0648747
0.0633537
0.0619246
0.0605838
0.0593275
0.0581518
0.0570528
0.0560263
0.0550683
0.0541751
0.0533428
0.0525676
0.0518462
0.051175
0.050551
0.0499712
0.0494328
0.0489331
0.0484698
0.0480406
0.0476434
0.0472765
0.0469381
0.0466266
0.0463409
0.0460797
0.0458421
0.0456272
0.0454346
0.0452638
0.0451146
0.0449872
0.0448822
0.0448003
0.0447428
0.0447116
0.961695
0.892193
0.829096
0.771741
0.719536
0.671954
0.628528
0.588839
0.552516
0.519227
0.488676
0.460598
0.434756
0.410938
0.388956
0.368638
0.349834
0.332405
0.316229
0.301195
0.287203
0.274164
0.261996
0.250625
0.239985
0.230016
0.220663
0.211876
0.20361
0.195824
0.188479
0.181542
0.174981
0.168766
0.162871
0.15727
0.151943
0.146866
0.142022
0.137392
0.13296
0.128712
0.124632
0.120709
0.116933
0.113292
0.10978
0.106388
0.103111
0.099945
0.0968855
0.0939308
0.0910794
0.0883307
0.0856848
0.083142
0.0807029
0.0783681
0.0761379
0.0740125
0.0719915
0.0700739
0.0682584
0.066543
0.0649255
0.0634028
0.0619719
0.0606291
0.0593709
0.0581932
0.0570921
0.0560636
0.0551037
0.0542085
0.0533743
0.0525973
0.0518741
0.0512012
0.0505756
0.0499943
0.0494544
0.0489534
0.0484888
0.0480584
0.0476601
0.0472921
0.0469527
0.0466404
0.0463539
0.0460919
0.0458536
0.0456382
0.045445
0.0452737
0.0451241
0.0449964
0.0448911
0.0448089
0.0447513
0.04472
0.961695
0.892192
0.829096
0.771741
0.719536
0.671955
0.628528
0.58884
0.552518
0.519229
0.488678
0.4606
0.434758
0.410941
0.388959
0.368642
0.349838
0.33241
0.316234
0.3012
0.287209
0.27417
0.262002
0.250631
0.239992
0.230023
0.220671
0.211885
0.203619
0.195834
0.18849
0.181554
0.174993
0.168779
0.162885
0.157286
0.151959
0.146884
0.142042
0.137414
0.132984
0.128737
0.124659
0.120739
0.116965
0.113327
0.109817
0.106428
0.103154
0.09999
0.096933
0.0939806
0.0911314
0.0883846
0.0857403
0.0831987
0.0807606
0.0784263
0.0761964
0.0740708
0.0720492
0.0701308
0.0683141
0.0665974
0.0649783
0.0634539
0.0620211
0.0606764
0.059416
0.0582363
0.0571331
0.0561025
0.0551405
0.0542433
0.0534071
0.0526282
0.0519032
0.0512286
0.0506013
0.0500184
0.049477
0.0489746
0.0485086
0.048077
0.0476775
0.0473085
0.0469681
0.0466549
0.0463675
0.0461048
0.0458658
0.0456497
0.0454559
0.0452841
0.0451341
0.0450061
0.0449004
0.044818
0.0447603
0.0447289
0.961695
0.892192
0.829096
0.771741
0.719536
0.671955
0.628529
0.588841
0.552519
0.51923
0.48868
0.460602
0.434761
0.410944
0.388962
0.368646
0.349842
0.332414
0.316239
0.301206
0.287215
0.274176
0.262008
0.250638
0.239999
0.230031
0.220679
0.211894
0.203629
0.195844
0.188501
0.181566
0.175006
0.168793
0.1629
0.157302
0.151977
0.146903
0.142062
0.137436
0.133008
0.128763
0.124688
0.12077
0.116998
0.113363
0.109856
0.106469
0.103198
0.100037
0.0969822
0.0940322
0.0911852
0.0884403
0.0857976
0.0832574
0.0808201
0.0784864
0.0762567
0.0741309
0.0721088
0.0701895
0.0683717
0.0666536
0.0650328
0.0635066
0.0620719
0.0607251
0.0594627
0.0582808
0.0571754
0.0561427
0.0551786
0.0542793
0.0534411
0.0526603
0.0519333
0.051257
0.050628
0.0500434
0.0495005
0.0489966
0.0485293
0.0480963
0.0476957
0.0473255
0.0469841
0.0466699
0.0463816
0.0461181
0.0458784
0.0456617
0.0454673
0.045295
0.0451446
0.0450161
0.0449102
0.0448275
0.0447696
0.0447381
0.961695
0.892192
0.829096
0.771741
0.719536
0.671955
0.628529
0.588841
0.552519
0.519232
0.488681
0.460604
0.434763
0.410947
0.388965
0.368649
0.349846
0.332418
0.316244
0.301211
0.28722
0.274182
0.262015
0.250645
0.240007
0.230039
0.220688
0.211903
0.203639
0.195855
0.188512
0.181578
0.175019
0.168807
0.162915
0.157319
0.151995
0.146923
0.142084
0.137459
0.133033
0.12879
0.124717
0.120802
0.117032
0.1134
0.109895
0.106512
0.103243
0.100085
0.0970328
0.0940853
0.0912404
0.0884975
0.0858564
0.0833175
0.0808812
0.0785481
0.0763185
0.0741925
0.0721698
0.0702497
0.0684307
0.0667112
0.0650888
0.0635608
0.062124
0.0607752
0.0595106
0.0583265
0.057219
0.056184
0.0552178
0.0543164
0.0534761
0.0526932
0.0519644
0.0512862
0.0506554
0.0500692
0.0495247
0.0490193
0.0485505
0.0481163
0.0477144
0.0473431
0.0470006
0.0466854
0.0463963
0.0461319
0.0458915
0.0456741
0.0454791
0.0453063
0.0451554
0.0450265
0.0449202
0.0448374
0.0447792
0.0447476
0.961695
0.892192
0.829096
0.771741
0.719536
0.671955
0.628529
0.588842
0.55252
0.519233
0.488683
0.460606
0.434765
0.410949
0.388968
0.368653
0.34985
0.332422
0.316248
0.301216
0.287226
0.274188
0.262021
0.250652
0.240014
0.230047
0.220696
0.211912
0.203649
0.195865
0.188524
0.18159
0.175033
0.168822
0.162931
0.157336
0.152013
0.146943
0.142106
0.137483
0.133059
0.128818
0.124747
0.120834
0.117068
0.113438
0.109936
0.106555
0.103289
0.100134
0.0970845
0.0941394
0.0912968
0.0885559
0.0859165
0.0833789
0.0809435
0.078611
0.0763816
0.0742554
0.0722321
0.0703111
0.0684909
0.06677
0.0651459
0.063616
0.0621773
0.0608263
0.0595596
0.0583732
0.0572634
0.0562263
0.0552578
0.0543542
0.0535119
0.052727
0.0519962
0.051316
0.0506835
0.0500956
0.0495494
0.0490425
0.0485724
0.0481367
0.0477336
0.0473611
0.0470175
0.0467014
0.0464113
0.0461461
0.0459049
0.0456868
0.0454912
0.0453178
0.0451664
0.0450372
0.0449306
0.0448474
0.0447891
0.0447574
0.961695
0.892192
0.829096
0.771741
0.719536
0.671955
0.62853
0.588842
0.552521
0.519233
0.488684
0.460607
0.434767
0.410951
0.388971
0.368656
0.349853
0.332426
0.316252
0.301221
0.287231
0.274194
0.262028
0.250659
0.240022
0.230055
0.220705
0.211922
0.203659
0.195876
0.188536
0.181603
0.175047
0.168837
0.162947
0.157353
0.152033
0.146964
0.142128
0.137507
0.133085
0.128847
0.124778
0.120868
0.117104
0.113477
0.109978
0.1066
0.103337
0.100184
0.0971371
0.0941945
0.0913541
0.0886152
0.0859775
0.0834412
0.0810068
0.0786748
0.0764455
0.0743192
0.0722954
0.0703734
0.0685521
0.0668296
0.0652038
0.063672
0.0622313
0.0608782
0.0596093
0.0584207
0.0573086
0.0562692
0.0552985
0.0543928
0.0535482
0.0527613
0.0520285
0.0513465
0.0507121
0.0501225
0.0495747
0.0490662
0.0485946
0.0481576
0.0477532
0.0473795
0.0470349
0.0467177
0.0464266
0.0461606
0.0459186
0.0456998
0.0455036
0.0453296
0.0451777
0.0450481
0.0449411
0.0448577
0.0447992
0.0447674
0.961695
0.892192
0.829095
0.771741
0.719536
0.671955
0.62853
0.588843
0.552521
0.519234
0.488685
0.460609
0.434769
0.410953
0.388973
0.368659
0.349856
0.33243
0.316257
0.301225
0.287236
0.2742
0.262034
0.250666
0.240029
0.230064
0.220714
0.211931
0.203669
0.195888
0.188548
0.181616
0.175061
0.168852
0.162964
0.157371
0.152052
0.146985
0.142151
0.137532
0.133112
0.128876
0.12481
0.120902
0.117141
0.113516
0.11002
0.106645
0.103384
0.100234
0.0971903
0.0942502
0.091412
0.0886751
0.086039
0.0835041
0.0810706
0.0787392
0.0765101
0.0743836
0.0723592
0.0704363
0.0686138
0.0668898
0.0652624
0.0637287
0.0622859
0.0609307
0.0596596
0.0584687
0.0573544
0.0563126
0.0553397
0.0544318
0.0535851
0.0527961
0.0520613
0.0513773
0.0507411
0.0501497
0.0496003
0.0490902
0.0486172
0.0481788
0.0477731
0.0473982
0.0470524
0.0467342
0.0464422
0.0461753
0.0459325
0.045713
0.0455161
0.0453416
0.0451892
0.0450592
0.0449518
0.0448682
0.0448095
0.0447776
0.961695
0.892192
0.829095
0.77174
0.719536
0.671955
0.62853
0.588843
0.552522
0.519235
0.488686
0.46061
0.43477
0.410955
0.388976
0.368661
0.34986
0.332434
0.316261
0.30123
0.287241
0.274205
0.26204
0.250673
0.240037
0.230072
0.220723
0.211941
0.20368
0.195899
0.18856
0.18163
0.175075
0.168868
0.162981
0.15739
0.152072
0.147006
0.142174
0.137557
0.133139
0.128905
0.124842
0.120936
0.117178
0.113556
0.110062
0.10669
0.103433
0.100285
0.0972439
0.0943062
0.0914703
0.0887354
0.086101
0.0835673
0.0811349
0.078804
0.0765751
0.0744483
0.0724234
0.0704996
0.0686759
0.0669505
0.0653213
0.0637857
0.0623409
0.0609836
0.0597102
0.0585171
0.0574004
0.0563564
0.0553812
0.0544711
0.0536223
0.0528311
0.0520943
0.0514085
0.0507704
0.0501772
0.0496261
0.0491145
0.04864
0.0482002
0.0477932
0.0474171
0.0470702
0.0467509
0.046458
0.0461902
0.0459466
0.0457263
0.0455288
0.0453537
0.0452009
0.0450703
0.0449627
0.0448788
0.0448199
0.0447879
0.961695
0.892192
0.829095
0.77174
0.719536
0.671955
0.62853
0.588843
0.552522
0.519235
0.488687
0.460611
0.434772
0.410957
0.388978
0.368664
0.349863
0.332437
0.316265
0.301234
0.287246
0.274211
0.262046
0.25068
0.240044
0.23008
0.220732
0.21195
0.20369
0.19591
0.188573
0.181643
0.175089
0.168883
0.162998
0.157408
0.152092
0.147028
0.142197
0.137582
0.133167
0.128935
0.124874
0.120971
0.117215
0.113596
0.110105
0.106736
0.103481
0.100336
0.0972976
0.0943623
0.0915287
0.0887957
0.086163
0.0836307
0.0811992
0.0788689
0.0766402
0.0745132
0.0724877
0.070563
0.0687381
0.0670112
0.0653803
0.0638429
0.0623961
0.0610366
0.059761
0.0585656
0.0574467
0.0564004
0.0554229
0.0545106
0.0536596
0.0528664
0.0521275
0.0514397
0.0507998
0.0502049
0.0496521
0.049139
0.0486629
0.0482218
0.0478135
0.0474361
0.0470881
0.0467678
0.0464739
0.0462052
0.0459608
0.0457398
0.0455416
0.0453659
0.0452126
0.0450816
0.0449736
0.0448894
0.0448303
0.0447982
0.961695
0.892192
0.829095
0.77174
0.719535
0.671955
0.62853
0.588843
0.552522
0.519236
0.488687
0.460612
0.434773
0.410959
0.38898
0.368666
0.349866
0.332441
0.316269
0.301239
0.287251
0.274216
0.262052
0.250686
0.240051
0.230088
0.22074
0.21196
0.2037
0.195921
0.188585
0.181656
0.175104
0.168899
0.163014
0.157426
0.152112
0.14705
0.142221
0.137608
0.133194
0.128965
0.124906
0.121006
0.117252
0.113636
0.110148
0.106781
0.103529
0.100387
0.0973512
0.0944184
0.091587
0.088856
0.086225
0.083694
0.0812634
0.0789336
0.0767051
0.0745779
0.0725519
0.0706263
0.0688002
0.0670719
0.0654393
0.0639
0.0624511
0.0610895
0.0598117
0.0586141
0.0574929
0.0564443
0.0554646
0.0545501
0.0536969
0.0529016
0.0521608
0.051471
0.0508293
0.0502326
0.0496782
0.0491634
0.0486859
0.0482433
0.0478338
0.0474552
0.047106
0.0467847
0.0464898
0.0462202
0.045975
0.0457533
0.0455545
0.0453782
0.0452243
0.0450929
0.0449845
0.0449
0.0448407
0.0448085
0.961695
0.892192
0.829095
0.77174
0.719535
0.671955
0.62853
0.588843
0.552523
0.519236
0.488688
0.460613
0.434774
0.410961
0.388982
0.368669
0.349868
0.332444
0.316272
0.301243
0.287256
0.274221
0.262058
0.250693
0.240059
0.230096
0.220749
0.211969
0.203711
0.195933
0.188597
0.181669
0.175118
0.168914
0.163031
0.157445
0.152132
0.147071
0.142244
0.137633
0.133222
0.128995
0.124938
0.12104
0.117289
0.113676
0.11019
0.106826
0.103577
0.100438
0.0974046
0.0944742
0.091645
0.0889159
0.0862865
0.0837568
0.0813272
0.078998
0.0767697
0.0746423
0.0726157
0.0706893
0.068862
0.0671322
0.065498
0.0639569
0.062506
0.0611422
0.0598622
0.0586624
0.0575389
0.0564881
0.0555062
0.0545894
0.0537341
0.0529368
0.0521939
0.0515023
0.0508587
0.0502603
0.0497042
0.0491878
0.0487088
0.0482649
0.047854
0.0474743
0.0471239
0.0468015
0.0465057
0.0462352
0.0459892
0.0457667
0.0455673
0.0453904
0.045236
0.0451041
0.0449954
0.0449106
0.0448512
0.0448188
0.961695
0.892191
0.829095
0.77174
0.719535
0.671955
0.62853
0.588843
0.552523
0.519237
0.488689
0.460614
0.434775
0.410962
0.388984
0.368671
0.349871
0.332447
0.316276
0.301247
0.287261
0.274227
0.262064
0.250699
0.240066
0.230103
0.220757
0.211978
0.203721
0.195944
0.188609
0.181682
0.175132
0.16893
0.163048
0.157463
0.152151
0.147093
0.142268
0.137659
0.133249
0.129024
0.12497
0.121074
0.117326
0.113715
0.110233
0.106871
0.103625
0.100488
0.0974575
0.0945295
0.0917025
0.0889753
0.0863476
0.0838192
0.0813904
0.0790618
0.0768337
0.0747061
0.072679
0.0707517
0.0689233
0.0671921
0.0655562
0.0640132
0.0625604
0.0611946
0.0599124
0.0587103
0.0575846
0.0565316
0.0555475
0.0546285
0.0537711
0.0529717
0.0522269
0.0515333
0.0508879
0.0502878
0.04973
0.0492121
0.0487317
0.0482863
0.0478742
0.0474932
0.0471418
0.0468183
0.0465215
0.0462502
0.0460033
0.0457801
0.04558
0.0454025
0.0452476
0.0451153
0.0450062
0.0449212
0.0448615
0.044829
0.961695
0.892191
0.829095
0.77174
0.719535
0.671955
0.62853
0.588843
0.552523
0.519237
0.488689
0.460615
0.434777
0.410963
0.388986
0.368673
0.349874
0.33245
0.316279
0.301251
0.287265
0.274232
0.262069
0.250705
0.240072
0.230111
0.220766
0.211988
0.203731
0.195955
0.188621
0.181695
0.175147
0.168945
0.163065
0.157481
0.152171
0.147114
0.142291
0.137684
0.133276
0.129053
0.125002
0.121108
0.117363
0.113754
0.110275
0.106916
0.103672
0.100538
0.0975098
0.0945842
0.0917593
0.089034
0.0864078
0.0838807
0.0814529
0.0791249
0.0768969
0.0747692
0.0727415
0.0708134
0.0689838
0.0672512
0.0656138
0.064069
0.0626142
0.0612464
0.059962
0.0587578
0.0576299
0.0565747
0.0555883
0.0546673
0.0538078
0.0530063
0.0522595
0.0515641
0.0509169
0.050315
0.0497556
0.0492362
0.0487543
0.0483076
0.0478941
0.047512
0.0471594
0.046835
0.0465372
0.046265
0.0460173
0.0457934
0.0455926
0.0454146
0.0452591
0.0451264
0.0450169
0.0449316
0.0448717
0.0448392
0.961695
0.892191
0.829095
0.771739
0.719535
0.671954
0.62853
0.588843
0.552523
0.519238
0.48869
0.460615
0.434778
0.410965
0.388987
0.368675
0.349876
0.332453
0.316283
0.301255
0.287269
0.274236
0.262075
0.250711
0.240079
0.230118
0.220774
0.211997
0.203741
0.195965
0.188633
0.181708
0.175161
0.16896
0.163082
0.157499
0.152191
0.147135
0.142314
0.137708
0.133303
0.129082
0.125033
0.121142
0.117399
0.113793
0.110316
0.10696
0.103719
0.100587
0.0975613
0.094638
0.0918152
0.0890918
0.0864672
0.0839413
0.0815144
0.0791869
0.0769591
0.0748313
0.0728031
0.0708742
0.0690435
0.0673096
0.0656705
0.064124
0.0626673
0.0612974
0.060011
0.0588046
0.0576745
0.0566171
0.0556287
0.0547055
0.0538439
0.0530405
0.0522917
0.0515945
0.0509455
0.0503419
0.049781
0.04926
0.0487766
0.0483286
0.0479139
0.0475305
0.0471769
0.0468514
0.0465527
0.0462796
0.0460312
0.0458065
0.0456051
0.0454265
0.0452705
0.0451373
0.0450275
0.0449419
0.0448818
0.0448491
0.961695
0.892191
0.829094
0.771739
0.719535
0.671954
0.62853
0.588843
0.552523
0.519238
0.48869
0.460616
0.434779
0.410966
0.388989
0.368677
0.349878
0.332455
0.316286
0.301258
0.287273
0.274241
0.26208
0.250717
0.240086
0.230126
0.220782
0.212005
0.20375
0.195976
0.188644
0.181721
0.175174
0.168975
0.163098
0.157517
0.15221
0.147156
0.142336
0.137733
0.133329
0.129111
0.125064
0.121175
0.117434
0.113831
0.110356
0.107003
0.103764
0.100635
0.0976118
0.0946908
0.0918701
0.0891485
0.0865254
0.0840007
0.0815748
0.0792478
0.0770203
0.0748922
0.0728636
0.0709339
0.0691021
0.0673668
0.0657262
0.064178
0.0627195
0.0613476
0.0600591
0.0588506
0.0577185
0.0566589
0.0556684
0.0547431
0.0538795
0.0530741
0.0523235
0.0516244
0.0509737
0.0503684
0.0498059
0.0492834
0.0487987
0.0483493
0.0479333
0.0475488
0.0471941
0.0468676
0.046568
0.046294
0.0460448
0.0458194
0.0456174
0.0454382
0.0452817
0.0451481
0.0450379
0.044952
0.0448917
0.044859
0.961695
0.892191
0.829094
0.771739
0.719535
0.671954
0.62853
0.588843
0.552524
0.519238
0.488691
0.460617
0.434779
0.410967
0.38899
0.368679
0.34988
0.332458
0.316289
0.301262
0.287277
0.274246
0.262085
0.250723
0.240092
0.230133
0.22079
0.212014
0.20376
0.195986
0.188655
0.181733
0.175188
0.16899
0.163114
0.157534
0.152229
0.147176
0.142358
0.137757
0.133355
0.129139
0.125094
0.121207
0.117469
0.113868
0.110396
0.107045
0.103809
0.100682
0.0976613
0.0947424
0.0919237
0.0892039
0.0865823
0.0840589
0.0816338
0.0793074
0.07708
0.0749519
0.0729228
0.0709923
0.0691595
0.0674229
0.0657808
0.0642309
0.0627706
0.0613968
0.0601063
0.0588958
0.0577615
0.0566999
0.0557073
0.05478
0.0539144
0.0531071
0.0523546
0.0516537
0.0510013
0.0503944
0.0498303
0.0493064
0.0488203
0.0483696
0.0479524
0.0475668
0.047211
0.0468835
0.046583
0.0463082
0.0460582
0.0458321
0.0456294
0.0454496
0.0452927
0.0451587
0.0450481
0.0449619
0.0449015
0.0448686
0.961695
0.892191
0.829094
0.771739
0.719534
0.671954
0.628529
0.588843
0.552524
0.519238
0.488691
0.460617
0.43478
0.410968
0.388992
0.368681
0.349882
0.33246
0.316292
0.301265
0.287281
0.27425
0.26209
0.250728
0.240098
0.230139
0.220797
0.212022
0.203769
0.195996
0.188666
0.181745
0.175201
0.169004
0.163129
0.157551
0.152247
0.147196
0.14238
0.13778
0.13338
0.129166
0.125123
0.121239
0.117503
0.113904
0.110435
0.107086
0.103853
0.100728
0.0977095
0.0947928
0.0919761
0.089258
0.0866379
0.0841156
0.0816914
0.0793655
0.0771384
0.0750101
0.0729806
0.0710493
0.0692155
0.0674777
0.0658341
0.0642826
0.0628205
0.0614448
0.0601524
0.0589398
0.0578036
0.05674
0.0557453
0.054816
0.0539486
0.0531394
0.0523851
0.0516824
0.0510283
0.0504199
0.0498543
0.0493289
0.0488414
0.0483895
0.0479711
0.0475843
0.0472275
0.0468991
0.0465976
0.046322
0.0460712
0.0458445
0.0456412
0.0454609
0.0453034
0.045169
0.0450581
0.0449716
0.044911
0.0448779
0.961694
0.892191
0.829094
0.771739
0.719534
0.671954
0.628529
0.588843
0.552524
0.519239
0.488691
0.460618
0.434781
0.410969
0.388993
0.368682
0.349884
0.332463
0.316294
0.301268
0.287285
0.274254
0.262095
0.250734
0.240104
0.230146
0.220805
0.21203
0.203778
0.196006
0.188677
0.181757
0.175214
0.169018
0.163144
0.157567
0.152265
0.147216
0.142401
0.137803
0.133405
0.129192
0.125151
0.12127
0.117536
0.11394
0.110472
0.107126
0.103895
0.100773
0.0977564
0.0948417
0.0920269
0.0893105
0.0866919
0.0841708
0.0817474
0.0794221
0.0771951
0.0750667
0.0730367
0.0711048
0.06927
0.067531
0.065886
0.0643329
0.0628691
0.0614916
0.0601973
0.0589828
0.0578446
0.056779
0.0557824
0.0548512
0.0539818
0.0531708
0.0524147
0.0517104
0.0510547
0.0504447
0.0498776
0.0493509
0.048862
0.0484089
0.0479893
0.0476015
0.0472436
0.0469142
0.0466119
0.0463355
0.046084
0.0458566
0.0456526
0.0454718
0.0453139
0.045179
0.0450678
0.0449811
0.0449202
0.0448871
0.961694
0.892191
0.829094
0.771739
0.719534
0.671954
0.628529
0.588843
0.552524
0.519239
0.488692
0.460618
0.434782
0.41097
0.388994
0.368684
0.349886
0.332465
0.316297
0.301271
0.287288
0.274258
0.262099
0.250739
0.24011
0.230152
0.220812
0.212038
0.203786
0.196016
0.188688
0.181768
0.175226
0.169032
0.163159
0.157583
0.152282
0.147234
0.142421
0.137825
0.133429
0.129218
0.125179
0.121299
0.117568
0.113974
0.110509
0.107165
0.103936
0.100816
0.0978018
0.0948892
0.0920762
0.0893614
0.0867442
0.0842242
0.0818016
0.0794768
0.0772501
0.0751215
0.0730912
0.0711586
0.0693228
0.0675827
0.0659364
0.0643817
0.0629162
0.061537
0.0602409
0.0590245
0.0578844
0.0568169
0.0558184
0.0548853
0.0540141
0.0532013
0.0524436
0.0517376
0.0510803
0.0504688
0.0499003
0.0493722
0.0488821
0.0484277
0.048007
0.0476181
0.0472593
0.046929
0.0466258
0.0463486
0.0460964
0.0458683
0.0456638
0.0454824
0.045324
0.0451888
0.0450772
0.0449902
0.0449292
0.0448959
0.961694
0.892191
0.829094
0.771739
0.719534
0.671954
0.628529
0.588843
0.552524
0.519239
0.488692
0.460619
0.434782
0.410971
0.388995
0.368685
0.349888
0.332467
0.3163
0.301274
0.287292
0.274262
0.262104
0.250744
0.240115
0.230159
0.220819
0.212046
0.203795
0.196025
0.188698
0.181779
0.175238
0.169045
0.163173
0.157599
0.152299
0.147253
0.142441
0.137846
0.133452
0.129243
0.125206
0.121328
0.117599
0.114007
0.110544
0.107202
0.103976
0.100858
0.0978456
0.0949349
0.0921237
0.0894106
0.0867947
0.0842758
0.081854
0.0795297
0.0773032
0.0751745
0.0731438
0.0712106
0.0693739
0.0676327
0.065985
0.0644289
0.0629619
0.0615809
0.060283
0.0590648
0.0579229
0.0568535
0.0558532
0.0549184
0.0540454
0.0532309
0.0524715
0.0517639
0.0511051
0.0504921
0.0499222
0.0493928
0.0489015
0.0484459
0.0480241
0.0476342
0.0472744
0.0469432
0.0466392
0.0463613
0.0461084
0.0458797
0.0456746
0.0454927
0.0453338
0.0451982
0.0450863
0.0449991
0.0449378
0.0449045
0.961694
0.892191
0.829094
0.771739
0.719534
0.671954
0.628529
0.588843
0.552524
0.519239
0.488692
0.460619
0.434783
0.410972
0.388997
0.368687
0.34989
0.332469
0.316302
0.301277