/*--------------------------------*- C++ -*----------------------------------*\
  =========                 |
  \\      /  F ield         | OpenFOAM: The Open Source CFD Toolbox
   \\    /   O peration     | Website:  https://openfoam.org
    \\  /    A nd           | Version:  11
     \\/     M anipulation  |
\*---------------------------------------------------------------------------*/
FoamFile
{
    format      ascii;
    class       volScalarField;
    location    "192";
    object      omega;
}
// * * * * * * * * * * * * * * * * * * * * * * * * * * * * * * * * * * * * * //

dimensions      [0 0 -1 0 0 0 0];

internalField   nonuniform List<scalar> 
10000
(
0.9617
0.892202
0.829106
0.771747
0.719532
0.671937
0.628491
0.588777
0.552424
0.519098
0.488503
0.460374
0.434474
0.41059
0.388531
0.368127
0.349225
0.331685
0.315383
0.300208
0.286056
0.272836
0.260465
0.248866
0.237972
0.22772
0.218052
0.208918
0.200272
0.192071
0.184279
0.176864
0.169798
0.163056
0.156619
0.150472
0.144603
0.139002
0.133662
0.128581
0.123753
0.119177
0.114851
0.110771
0.106933
0.103332
0.0999628
0.0968176
0.0938886
0.0911668
0.0886423
0.0863048
0.0841434
0.0821473
0.0803056
0.0786077
0.0770436
0.0756037
0.0742788
0.0730604
0.0719402
0.0709108
0.0699649
0.0690962
0.0682983
0.0675658
0.0668933
0.0662762
0.0657099
0.0651903
0.0647137
0.0642767
0.0638759
0.0635086
0.0631719
0.0628635
0.0625809
0.0623221
0.0620852
0.0618684
0.06167
0.0614886
0.0613227
0.0611712
0.0610329
0.0609068
0.0607918
0.0606873
0.0605924
0.0605065
0.060429
0.0603594
0.0602974
0.0602426
0.060195
0.0601544
0.0601209
0.0600949
0.0600765
0.0600664
0.9617
0.892203
0.829107
0.771748
0.719534
0.671938
0.628492
0.588779
0.552426
0.5191
0.488505
0.460376
0.434476
0.410592
0.388534
0.36813
0.349228
0.331688
0.315386
0.300211
0.286059
0.27284
0.260469
0.248871
0.237977
0.227725
0.218058
0.208924
0.200278
0.192078
0.184287
0.176873
0.169807
0.163067
0.156631
0.150485
0.144617
0.139016
0.133678
0.128597
0.12377
0.119194
0.114868
0.110788
0.10695
0.103349
0.0999798
0.0968346
0.0939054
0.0911832
0.0886581
0.0863198
0.0841574
0.0821602
0.0803175
0.0786188
0.0770539
0.0756133
0.0742878
0.0730688
0.0719481
0.0709181
0.0699717
0.0691025
0.0683042
0.0675713
0.0668984
0.0662809
0.0657142
0.0651944
0.0647175
0.0642801
0.0638792
0.0635116
0.0631747
0.062866
0.0625832
0.0623243
0.0620872
0.0618702
0.0616717
0.0614901
0.0613241
0.0611725
0.0610341
0.0609078
0.0607928
0.0606882
0.0605932
0.0605072
0.0604297
0.06036
0.060298
0.0602432
0.0601955
0.0601548
0.0601214
0.0600953
0.0600769
0.0600668
0.9617
0.892203
0.829108
0.77175
0.719536
0.671941
0.628496
0.588783
0.552429
0.519104
0.488509
0.460381
0.434481
0.410597
0.388539
0.368135
0.349233
0.331693
0.315392
0.300216
0.286065
0.272846
0.260475
0.248878
0.237984
0.227733
0.218067
0.208934
0.200289
0.19209
0.1843
0.176888
0.169823
0.163084
0.15665
0.150506
0.144638
0.139039
0.133702
0.128622
0.123796
0.119221
0.114895
0.110815
0.106977
0.103377
0.100007
0.0968614
0.0939316
0.0912086
0.0886826
0.0863431
0.0841795
0.082181
0.080337
0.078637
0.077071
0.0756292
0.0743027
0.0730826
0.0719609
0.07093
0.0699829
0.0691128
0.0683138
0.0675801
0.0669066
0.0662885
0.0657212
0.0652008
0.0647234
0.0642856
0.0638842
0.0635162
0.0631789
0.0628699
0.0625868
0.0623276
0.0620902
0.0618729
0.0616742
0.0614924
0.0613262
0.0611744
0.0610358
0.0609094
0.0607943
0.0606895
0.0605944
0.0605084
0.0604307
0.060361
0.0602989
0.060244
0.0601963
0.0601556
0.0601221
0.060096
0.0600776
0.0600676
0.9617
0.892204
0.82911
0.771752
0.719539
0.671945
0.6285
0.588787
0.552434
0.519109
0.488515
0.460387
0.434487
0.410603
0.388545
0.368142
0.34924
0.3317
0.315399
0.300224
0.286073
0.272854
0.260484
0.248887
0.237995
0.227744
0.218079
0.208948
0.200304
0.192107
0.184319
0.176907
0.169845
0.163108
0.156676
0.150534
0.144668
0.139071
0.133736
0.128657
0.123832
0.119258
0.114933
0.110853
0.107015
0.103414
0.100044
0.0968979
0.0939672
0.0912431
0.0887157
0.0863747
0.0842095
0.0822093
0.0803637
0.078662
0.0770944
0.0756511
0.0743231
0.0731017
0.0719787
0.0709465
0.0699981
0.069127
0.0683269
0.0675922
0.0669178
0.0662988
0.0657308
0.0652096
0.0647315
0.0642931
0.063891
0.0635225
0.0631847
0.0628752
0.0625917
0.062332
0.0620942
0.0618766
0.0616776
0.0614955
0.061329
0.061177
0.0610382
0.0609116
0.0607962
0.0606913
0.0605961
0.0605099
0.0604321
0.0603623
0.0603001
0.0602452
0.0601974
0.0601568
0.0601232
0.0600971
0.0600787
0.0600686
0.9617
0.892204
0.829111
0.771754
0.719542
0.671948
0.628504
0.588792
0.55244
0.519115
0.488522
0.460394
0.434494
0.410611
0.388553
0.36815
0.349248
0.331709
0.315409
0.300234
0.286084
0.272865
0.260496
0.2489
0.238009
0.227759
0.218095
0.208965
0.200323
0.192128
0.184342
0.176933
0.169873
0.163138
0.156709
0.150569
0.144706
0.139112
0.133778
0.128702
0.123878
0.119305
0.114981
0.110901
0.107063
0.103462
0.100091
0.0969436
0.0940116
0.091286
0.0887569
0.0864141
0.0842469
0.0822448
0.0803971
0.0786935
0.0771239
0.0756787
0.0743489
0.0731257
0.072001
0.0709673
0.0700174
0.0691448
0.0683434
0.0676076
0.066932
0.0663119
0.0657428
0.0652207
0.0647417
0.0643025
0.0638997
0.0635304
0.063192
0.0628818
0.0625977
0.0623376
0.0620993
0.0618813
0.0616818
0.0614994
0.0613326
0.0611802
0.0610411
0.0609143
0.0607987
0.0606936
0.0605982
0.0605119
0.060434
0.0603641
0.0603018
0.0602468
0.060199
0.0601582
0.0601247
0.0600985
0.0600802
0.06007
0.9617
0.892205
0.829112
0.771756
0.719544
0.671952
0.628508
0.588797
0.552446
0.519122
0.488529
0.460401
0.434503
0.41062
0.388562
0.36816
0.349259
0.33172
0.31542
0.300246
0.286096
0.272879
0.26051
0.248915
0.238025
0.227777
0.218114
0.208986
0.200347
0.192153
0.18437
0.176964
0.169907
0.163175
0.156748
0.150612
0.144752
0.13916
0.133829
0.128754
0.123933
0.119361
0.115037
0.110958
0.10712
0.103518
0.100146
0.0969975
0.094064
0.0913366
0.0888055
0.0864605
0.0842911
0.0822866
0.0804366
0.0787307
0.0771588
0.0757114
0.0743794
0.0731542
0.0720276
0.070992
0.0700404
0.0691661
0.0683631
0.0676258
0.0669488
0.0663274
0.0657572
0.0652339
0.0647539
0.0643136
0.0639099
0.0635398
0.0632006
0.0628898
0.062605
0.0623442
0.0621054
0.0618868
0.0616869
0.061504
0.0613368
0.0611841
0.0610446
0.0609175
0.0608017
0.0606964
0.0606007
0.0605142
0.0604362
0.0603661
0.0603037
0.0602487
0.0602008
0.06016
0.0601264
0.0601003
0.0600819
0.0600717
0.9617
0.892205
0.829112
0.771757
0.719546
0.671955
0.628512
0.588802
0.552452
0.519129
0.488536
0.46041
0.434511
0.410629
0.388572
0.368171
0.34927
0.331732
0.315433
0.300259
0.28611
0.272894
0.260527
0.248933
0.238044
0.227798
0.218137
0.209011
0.200373
0.192183
0.184402
0.176999
0.169945
0.163217
0.156794
0.15066
0.144804
0.139215
0.133887
0.128814
0.123995
0.119424
0.115101
0.111023
0.107184
0.103582
0.100209
0.0970588
0.0941236
0.0913941
0.0888607
0.0865133
0.0843413
0.0823342
0.0804816
0.078773
0.0771986
0.0757487
0.0744143
0.0731867
0.0720579
0.0710202
0.0700666
0.0691904
0.0683857
0.0676466
0.0669681
0.0663452
0.0657736
0.065249
0.0647678
0.0643264
0.0639217
0.0635506
0.0632105
0.0628988
0.0626133
0.0623518
0.0621123
0.0618931
0.0616926
0.0615092
0.0613416
0.0611885
0.0610487
0.0609212
0.0608051
0.0606995
0.0606037
0.0605169
0.0604387
0.0603685
0.060306
0.0602509
0.0602029
0.0601621
0.0601285
0.0601023
0.0600839
0.0600736
0.9617
0.892205
0.829113
0.771758
0.719548
0.671957
0.628516
0.588807
0.552457
0.519135
0.488544
0.460418
0.43452
0.410639
0.388583
0.368182
0.349282
0.331745
0.315446
0.300274
0.286126
0.272911
0.260545
0.248952
0.238065
0.227821
0.218162
0.209039
0.200404
0.192216
0.184438
0.177039
0.169988
0.163264
0.156844
0.150715
0.144862
0.139276
0.133951
0.128881
0.124063
0.119495
0.115173
0.111094
0.107256
0.103652
0.100278
0.0971267
0.0941895
0.0914577
0.0889218
0.0865717
0.0843969
0.0823869
0.0805314
0.0788199
0.0772427
0.0757901
0.074453
0.0732229
0.0720916
0.0710515
0.0700957
0.0692175
0.0684107
0.0676698
0.0669895
0.066365
0.0657918
0.0652659
0.0647833
0.0643407
0.0639348
0.0635626
0.0632215
0.0629089
0.0626225
0.0623602
0.06212
0.0619002
0.0616991
0.0615151
0.061347
0.0611934
0.0610532
0.0609253
0.0608089
0.060703
0.0606069
0.06052
0.0604416
0.0603712
0.0603086
0.0602533
0.0602053
0.0601644
0.0601308
0.0601045
0.0600861
0.0600758
0.9617
0.892205
0.829113
0.771758
0.719549
0.671959
0.628519
0.588811
0.552462
0.519141
0.488551
0.460426
0.434529
0.410649
0.388594
0.368193
0.349294
0.331758
0.315461
0.30029
0.286143
0.272929
0.260564
0.248974
0.238088
0.227846
0.21819
0.209069
0.200437
0.192252
0.184478
0.177082
0.170036
0.163315
0.1569
0.150774
0.144925
0.139343
0.134021
0.128954
0.124138
0.119571
0.11525
0.111172
0.107333
0.103729
0.100354
0.0972003
0.0942609
0.0915267
0.088988
0.086635
0.0844572
0.0824441
0.0805855
0.0788709
0.0772906
0.075835
0.0744951
0.0732622
0.0721282
0.0710857
0.0701274
0.0692469
0.068438
0.0676951
0.0670129
0.0663866
0.0658118
0.0652842
0.0648002
0.0643562
0.063949
0.0635757
0.0632335
0.0629199
0.0626325
0.0623694
0.0621284
0.0619079
0.0617061
0.0615215
0.0613528
0.0611987
0.0610581
0.0609298
0.060813
0.0607068
0.0606105
0.0605233
0.0604447
0.0603742
0.0603114
0.0602561
0.0602079
0.060167
0.0601333
0.060107
0.0600885
0.0600783
0.9617
0.892204
0.829113
0.771759
0.71955
0.671961
0.628522
0.588814
0.552467
0.519147
0.488557
0.460433
0.434538
0.410658
0.388605
0.368205
0.349307
0.331772
0.315476
0.300306
0.286161
0.272948
0.260586
0.248997
0.238113
0.227873
0.21822
0.209102
0.200473
0.192292
0.184521
0.177129
0.170087
0.16337
0.156959
0.150838
0.144993
0.139414
0.134096
0.129032
0.124218
0.119653
0.115333
0.111255
0.107416
0.103811
0.100434
0.097279
0.0943373
0.0916004
0.0890588
0.0867027
0.0845216
0.0825053
0.0806433
0.0789255
0.0773419
0.0758832
0.0745402
0.0733043
0.0721675
0.0711223
0.0701615
0.0692785
0.0684673
0.0677223
0.067038
0.0664098
0.0658332
0.0653039
0.0648184
0.0643729
0.0639644
0.0635898
0.0632464
0.0629317
0.0626434
0.0623793
0.0621375
0.0619161
0.0617136
0.0615284
0.0613591
0.0612045
0.0610634
0.0609347
0.0608175
0.060711
0.0606143
0.0605269
0.0604481
0.0603774
0.0603145
0.060259
0.0602108
0.0601697
0.060136
0.0601097
0.0600912
0.0600809
0.9617
0.892204
0.829113
0.771759
0.719551
0.671962
0.628524
0.588817
0.552471
0.519152
0.488563
0.460441
0.434546
0.410668
0.388615
0.368217
0.34932
0.331787
0.315492
0.300323
0.286179
0.272969
0.260608
0.249021
0.23814
0.227902
0.218252
0.209137
0.200511
0.192334
0.184567
0.177179
0.170141
0.163429
0.157022
0.150905
0.145064
0.13949
0.134175
0.129114
0.124303
0.119739
0.11542
0.111343
0.107504
0.103898
0.100519
0.097362
0.0944178
0.0916781
0.0891335
0.0867741
0.0845897
0.0825699
0.0807044
0.0789831
0.0773962
0.0759341
0.0745879
0.0733489
0.0722091
0.071161
0.0701975
0.069312
0.0684984
0.067751
0.0670646
0.0664344
0.0658559
0.0653249
0.0648376
0.0643906
0.0639806
0.0636047
0.0632601
0.0629442
0.0626548
0.0623898
0.062147
0.0619249
0.0617216
0.0615357
0.0613658
0.0612106
0.061069
0.0609399
0.0608223
0.0607154
0.0606184
0.0605307
0.0604517
0.0603808
0.0603177
0.0602621
0.0602138
0.0601727
0.0601388
0.0601125
0.0600939
0.0600836
0.961699
0.892204
0.829112
0.771759
0.719551
0.671963
0.628525
0.58882
0.552474
0.519156
0.488569
0.460448
0.434554
0.410677
0.388626
0.368229
0.349333
0.331801
0.315508
0.300341
0.286199
0.27299
0.260631
0.249046
0.238168
0.227933
0.218285
0.209173
0.200551
0.192378
0.184615
0.177231
0.170198
0.16349
0.157089
0.150976
0.14514
0.139569
0.134258
0.1292
0.124391
0.119829
0.115512
0.111435
0.107595
0.103988
0.100608
0.0974486
0.0945019
0.0917593
0.0892116
0.0868488
0.0846608
0.0826374
0.0807683
0.0790434
0.0774529
0.0759874
0.0746378
0.0733956
0.0722527
0.0712017
0.0702353
0.0693471
0.068531
0.0677812
0.0670926
0.0664602
0.0658797
0.0653468
0.0648578
0.0644092
0.0639977
0.0636204
0.0632744
0.0629574
0.0626669
0.0624008
0.0621571
0.0619341
0.06173
0.0615434
0.0613728
0.0612171
0.0610749
0.0609453
0.0608273
0.06072
0.0606227
0.0605347
0.0604555
0.0603844
0.0603211
0.0602654
0.0602169
0.0601757
0.0601418
0.0601154
0.0600968
0.0600865
0.961699
0.892204
0.829112
0.771759
0.719552
0.671964
0.628527
0.588822
0.552477
0.51916
0.488574
0.460454
0.434562
0.410686
0.388636
0.36824
0.349346
0.331816
0.315524
0.300358
0.286218
0.273011
0.260654
0.249072
0.238196
0.227964
0.21832
0.209211
0.200593
0.192423
0.184665
0.177286
0.170257
0.163554
0.157157
0.151049
0.145217
0.139651
0.134343
0.129289
0.124483
0.119923
0.115606
0.111529
0.107689
0.104081
0.1007
0.0975383
0.094589
0.0918435
0.0892924
0.0869262
0.0847346
0.0827075
0.0808346
0.079106
0.0775118
0.0760427
0.0746896
0.0734441
0.072298
0.0712439
0.0702746
0.0693836
0.0685648
0.0678126
0.0671216
0.0664871
0.0659045
0.0653697
0.0648789
0.0644286
0.0640155
0.0636367
0.0632894
0.0629711
0.0626794
0.0624122
0.0621676
0.0619436
0.0617388
0.0615514
0.0613801
0.0612237
0.061081
0.0609509
0.0608325
0.0607248
0.0606272
0.0605389
0.0604594
0.0603881
0.0603247
0.0602688
0.0602202
0.0601789
0.0601449
0.0601185
0.0600998
0.0600895
0.961699
0.892203
0.829112
0.771758
0.719552
0.671964
0.628528
0.588824
0.55248
0.519164
0.488579
0.46046
0.434569
0.410694
0.388645
0.368251
0.349359
0.33183
0.31554
0.300376
0.286238
0.273033
0.260678
0.249099
0.238226
0.227996
0.218355
0.20925
0.200636
0.19247
0.184717
0.177342
0.170318
0.16362
0.157228
0.151125
0.145298
0.139736
0.134432
0.12938
0.124577
0.120019
0.115703
0.111627
0.107787
0.104177
0.100794
0.0976305
0.0946786
0.0919299
0.0893756
0.0870057
0.0848104
0.0827795
0.0809029
0.0791704
0.0775725
0.0760997
0.0747431
0.0734941
0.0723447
0.0712874
0.0703151
0.0694213
0.0685998
0.067845
0.0671516
0.0665148
0.0659301
0.0653933
0.0649006
0.0644486
0.0640339
0.0636536
0.0633049
0.0629852
0.0626924
0.0624241
0.0621784
0.0619535
0.0617478
0.0615596
0.0613877
0.0612307
0.0610874
0.0609567
0.0608378
0.0607298
0.0606318
0.0605432
0.0604634
0.0603919
0.0603283
0.0602722
0.0602236
0.0601822
0.0601481
0.0601216
0.0601029
0.0600925
0.961699
0.892203
0.829111
0.771758
0.719551
0.671965
0.628529
0.588825
0.552482
0.519167
0.488583
0.460465
0.434576
0.410702
0.388655
0.368262
0.349371
0.331844
0.315555
0.300394
0.286257
0.273055
0.260703
0.249126
0.238255
0.228029
0.218391
0.20929
0.20068
0.192519
0.184769
0.1774
0.17038
0.163688
0.157301
0.151202
0.14538
0.139822
0.134522
0.129473
0.124673
0.120117
0.115802
0.111726
0.107886
0.104276
0.100891
0.0977247
0.09477
0.0920183
0.0894605
0.0870871
0.084888
0.0828532
0.0809727
0.0792364
0.0776346
0.0761581
0.0747978
0.0735453
0.0723926
0.071332
0.0703567
0.0694599
0.0686356
0.0678782
0.0671824
0.0665432
0.0659563
0.0654175
0.0649229
0.0644691
0.0640527
0.0636709
0.0633207
0.0629998
0.0627056
0.0624362
0.0621895
0.0619637
0.0617571
0.0615681
0.0613954
0.0612378
0.0610939
0.0609627
0.0608434
0.0607349
0.0606366
0.0605477
0.0604676
0.0603958
0.060332
0.0602758
0.060227
0.0601855
0.0601513
0.0601247
0.060106
0.0600956
0.961699
0.892203
0.829111
0.771758
0.719551
0.671965
0.628529
0.588827
0.552484
0.51917
0.488587
0.46047
0.434582
0.41071
0.388664
0.368273
0.349383
0.331857
0.315571
0.300411
0.286277
0.273077
0.260727
0.249153
0.238285
0.228063
0.218428
0.209331
0.200725
0.192568
0.184823
0.177458
0.170444
0.163756
0.157374
0.151281
0.145463
0.139909
0.134613
0.129568
0.12477
0.120216
0.115903
0.111827
0.107986
0.104375
0.100989
0.0978203
0.0948629
0.0921081
0.0895469
0.0871698
0.0849669
0.0829282
0.0810437
0.0793035
0.0776978
0.0762175
0.0748536
0.0735975
0.0724413
0.0713775
0.070399
0.0694993
0.0686722
0.0679121
0.0672137
0.0665722
0.0659831
0.0654422
0.0649457
0.06449
0.0640719
0.0636885
0.0633369
0.0630146
0.0627192
0.0624486
0.0622008
0.061974
0.0617665
0.0615768
0.0614033
0.061245
0.0611005
0.0609688
0.060849
0.0607401
0.0606414
0.0605521
0.0604718
0.0603998
0.0603358
0.0602794
0.0602304
0.0601888
0.0601545
0.0601279
0.0601091
0.0600986
0.961699
0.892202
0.82911
0.771757
0.719551
0.671965
0.628529
0.588827
0.552486
0.519173
0.488591
0.460475
0.434588
0.410717
0.388672
0.368283
0.349395
0.331871
0.315586
0.300428
0.286297
0.273099
0.260752
0.24918
0.238316
0.228096
0.218465
0.209372
0.20077
0.192617
0.184877
0.177517
0.170508
0.163825
0.157448
0.15136
0.145547
0.139998
0.134705
0.129664
0.124869
0.120316
0.116004
0.111929
0.108088
0.104476
0.101088
0.097917
0.0949568
0.0921989
0.0896342
0.0872534
0.0850467
0.0830041
0.0811156
0.0793714
0.0777619
0.0762777
0.07491
0.0736504
0.0724907
0.0714236
0.0704419
0.0695392
0.0687093
0.0679465
0.0672456
0.0666017
0.0660103
0.0654673
0.0649688
0.0645113
0.0640915
0.0637064
0.0633533
0.0630296
0.062733
0.0624612
0.0622123
0.0619845
0.0617761
0.0615855
0.0614114
0.0612523
0.0611072
0.060975
0.0608546
0.0607453
0.0606462
0.0605567
0.060476
0.0604038
0.0603396
0.060283
0.0602339
0.0601921
0.0601578
0.0601311
0.0601122
0.0601017
0.961699
0.892202
0.82911
0.771757
0.71955
0.671964
0.62853
0.588828
0.552487
0.519175
0.488594
0.460479
0.434593
0.410724
0.38868
0.368292
0.349406
0.331884
0.315601
0.300445
0.286316
0.27312
0.260776
0.249207
0.238346
0.22813
0.218502
0.209413
0.200815
0.192667
0.184931
0.177576
0.170572
0.163895
0.157523
0.15144
0.145631
0.140087
0.134798
0.12976
0.124967
0.120417
0.116106
0.112032
0.10819
0.104577
0.101187
0.0980142
0.0950513
0.0922902
0.0897221
0.0873376
0.0851271
0.0830805
0.0811881
0.0794399
0.0778264
0.0763384
0.074967
0.0737037
0.0725406
0.0714701
0.0704853
0.0695795
0.0687467
0.0679812
0.0672777
0.0666314
0.0660378
0.0654926
0.0649921
0.0645327
0.0641112
0.0637245
0.0633699
0.0630448
0.0627469
0.0624739
0.062224
0.0619951
0.0617858
0.0615944
0.0614194
0.0612597
0.061114
0.0609812
0.0608604
0.0607506
0.0606511
0.0605612
0.0604803
0.0604078
0.0603434
0.0602866
0.0602373
0.0601955
0.060161
0.0601342
0.0601153
0.0601048
0.961698
0.892202
0.829109
0.771756
0.71955
0.671964
0.62853
0.588829
0.552489
0.519177
0.488597
0.460483
0.434598
0.41073
0.388688
0.368302
0.349417
0.331897
0.315616
0.300462
0.286335
0.273142
0.2608
0.249234
0.238376
0.228163
0.218539
0.209454
0.20086
0.192716
0.184986
0.177635
0.170636
0.163964
0.157597
0.151519
0.145715
0.140175
0.134891
0.129856
0.125066
0.120518
0.116208
0.112134
0.108292
0.104678
0.101287
0.0981116
0.095146
0.0923818
0.0898102
0.0874221
0.0852077
0.0831572
0.0812608
0.0795087
0.0778913
0.0763994
0.0750243
0.0737574
0.0725907
0.0715169
0.0705289
0.0696201
0.0687844
0.0680162
0.0673101
0.0666613
0.0660654
0.0655181
0.0650156
0.0645543
0.0641311
0.0637427
0.0633866
0.0630601
0.0627609
0.0624867
0.0622356
0.0620058
0.0617955
0.0616033
0.0614276
0.0612671
0.0611208
0.0609874
0.0608661
0.0607559
0.060656
0.0605658
0.0604846
0.0604118
0.0603471
0.0602902
0.0602408
0.0601988
0.0601642
0.0601373
0.0601184
0.0601078
0.961698
0.892201
0.829109
0.771756
0.71955
0.671964
0.62853
0.588829
0.55249
0.519179
0.488599
0.460486
0.434603
0.410736
0.388695
0.36831
0.349428
0.331909
0.31563
0.300478
0.286353
0.273163
0.260824
0.249261
0.238406
0.228196
0.218576
0.209494
0.200905
0.192766
0.18504
0.177694
0.1707
0.164033
0.157672
0.151598
0.145799
0.140264
0.134983
0.129952
0.125165
0.120618
0.11631
0.112236
0.108394
0.104779
0.101386
0.0982088
0.0952405
0.0924732
0.0898983
0.0875065
0.0852883
0.0832339
0.0813335
0.0795774
0.0779561
0.0764605
0.0750816
0.073811
0.0726409
0.0715638
0.0705726
0.0696607
0.0688221
0.0680512
0.0673425
0.0666913
0.0660931
0.0655436
0.0650391
0.064576
0.0641509
0.063761
0.0634034
0.0630754
0.0627749
0.0624995
0.0622473
0.0620165
0.0618053
0.0616122
0.0614357
0.0612745
0.0611276
0.0609936
0.0608718
0.0607612
0.0606609
0.0605703
0.0604888
0.0604158
0.0603509
0.0602937
0.0602442
0.060202
0.0601674
0.0601404
0.0601214
0.0601108
0.961698
0.892201
0.829108
0.771755
0.719549
0.671964
0.62853
0.58883
0.552491
0.51918
0.488602
0.46049
0.434607
0.410741
0.388702
0.368319
0.349438
0.331921
0.315644
0.300494
0.286371
0.273183
0.260847
0.249287
0.238435
0.228229
0.218613
0.209535
0.200949
0.192815
0.185093
0.177753
0.170764
0.164102
0.157745
0.151677
0.145883
0.140351
0.135075
0.130047
0.125262
0.120718
0.116411
0.112338
0.108495
0.104879
0.101485
0.0983054
0.0953345
0.0925642
0.0899859
0.0875905
0.0853686
0.0833103
0.081406
0.079646
0.0780208
0.0765213
0.0751387
0.0738646
0.072691
0.0716105
0.0706161
0.0697012
0.0688598
0.0680861
0.0673749
0.0667213
0.0661207
0.0655691
0.0650626
0.0645976
0.0641708
0.0637792
0.0634201
0.0630907
0.0627889
0.0625123
0.062259
0.0620271
0.061815
0.061621
0.0614438
0.0612819
0.0611343
0.0609998
0.0608775
0.0607664
0.0606657
0.0605748
0.060493
0.0604197
0.0603546
0.0602972
0.0602475
0.0602052
0.0601705
0.0601434
0.0601244
0.0601137
0.961698
0.892201
0.829108
0.771755
0.719549
0.671963
0.62853
0.58883
0.552491
0.519182
0.488604
0.460493
0.434611
0.410747
0.388709
0.368327
0.349447
0.331932
0.315657
0.30051
0.286389
0.273203
0.26087
0.249313
0.238464
0.228261
0.218648
0.209574
0.200993
0.192863
0.185146
0.177811
0.170827
0.164169
0.157818
0.151755
0.145965
0.140438
0.135165
0.130141
0.125359
0.120817
0.116511
0.112438
0.108596
0.104979
0.101583
0.0984011
0.0954277
0.0926544
0.0900728
0.0876739
0.0854482
0.0833861
0.0814779
0.079714
0.078085
0.0765818
0.0751955
0.0739178
0.0727408
0.071657
0.0706594
0.0697416
0.0688973
0.0681209
0.0674071
0.066751
0.0661483
0.0655945
0.065086
0.0646191
0.0641906
0.0637974
0.0634367
0.0631059
0.0628028
0.062525
0.0622706
0.0620377
0.0618247
0.0616298
0.0614518
0.0612893
0.061141
0.061006
0.0608831
0.0607716
0.0606705
0.0605792
0.0604971
0.0604236
0.0603582
0.0603007
0.0602508
0.0602084
0.0601735
0.0601464
0.0601272
0.0601166
0.961698
0.8922
0.829108
0.771754
0.719548
0.671963
0.62853
0.58883
0.552492
0.519183
0.488606
0.460496
0.434615
0.410752
0.388715
0.368335
0.349457
0.331943
0.31567
0.300525
0.286406
0.273223
0.260892
0.249338
0.238492
0.228293
0.218683
0.209613
0.201036
0.19291
0.185198
0.177867
0.170888
0.164236
0.15789
0.151831
0.146046
0.140524
0.135255
0.130233
0.125454
0.120914
0.116609
0.112537
0.108695
0.105077
0.101679
0.0984957
0.0955197
0.0927435
0.0901587
0.0877563
0.085527
0.0834611
0.0815491
0.0797814
0.0781486
0.0766416
0.0752517
0.0739705
0.0727901
0.0717031
0.0707024
0.0697815
0.0689344
0.0681553
0.067439
0.0667806
0.0661755
0.0656197
0.0651092
0.0646404
0.0642102
0.0638153
0.0634532
0.063121
0.0628166
0.0625376
0.0622821
0.0620482
0.0618342
0.0616385
0.0614597
0.0612965
0.0611476
0.061012
0.0608887
0.0607767
0.0606752
0.0605836
0.0605011
0.0604273
0.0603617
0.060304
0.060254
0.0602114
0.0601765
0.0601492
0.06013
0.0601193
0.961698
0.8922
0.829107
0.771754
0.719548
0.671963
0.628529
0.58883
0.552493
0.519184
0.488608
0.460498
0.434619
0.410757
0.388721
0.368342
0.349466
0.331954
0.315682
0.300539
0.286423
0.273242
0.260914
0.249362
0.238519
0.228323
0.218718
0.209652
0.201078
0.192957
0.185249
0.177923
0.170949
0.164302
0.15796
0.151906
0.146126
0.140607
0.135342
0.130324
0.125548
0.12101
0.116706
0.112635
0.108792
0.105173
0.101774
0.0985888
0.0956104
0.0928314
0.0902434
0.0878376
0.0856047
0.0835351
0.0816194
0.0798479
0.0782114
0.0767008
0.0753073
0.0740226
0.0728388
0.0717486
0.0707448
0.069821
0.0689711
0.0681894
0.0674706
0.0668098
0.0662025
0.0656446
0.0651321
0.0646615
0.0642295
0.0638331
0.0634694
0.0631359
0.0628302
0.06255
0.0622935
0.0620586
0.0618436
0.0616471
0.0614676
0.0613037
0.0611542
0.061018
0.0608941
0.0607817
0.0606798
0.0605878
0.0605051
0.060431
0.0603652
0.0603073
0.0602571
0.0602144
0.0601793
0.060152
0.0601328
0.060122
0.961698
0.8922
0.829107
0.771753
0.719547
0.671962
0.628529
0.58883
0.552493
0.519185
0.48861
0.460501
0.434622
0.410761
0.388727
0.368349
0.349474
0.331964
0.315695
0.300553
0.286439
0.273261
0.260935
0.249386
0.238546
0.228354
0.218751
0.209689
0.20112
0.193002
0.185299
0.177977
0.171008
0.164366
0.158029
0.15198
0.146204
0.140689
0.135428
0.130413
0.125639
0.121103
0.116801
0.11273
0.108887
0.105268
0.101868
0.0986802
0.0956994
0.0929176
0.0903266
0.0879174
0.085681
0.0836079
0.0816885
0.0799134
0.0782732
0.0767589
0.0753619
0.0740739
0.0728868
0.0717934
0.0707866
0.0698599
0.0690073
0.0682229
0.0675017
0.0668385
0.0662291
0.0656691
0.0651547
0.0646823
0.0642486
0.0638506
0.0634855
0.0631506
0.0628436
0.0625623
0.0623046
0.0620687
0.0618529
0.0616556
0.0614753
0.0613107
0.0611606
0.0610238
0.0608995
0.0607866
0.0606843
0.060592
0.0605089
0.0604346
0.0603686
0.0603105
0.0602601
0.0602172
0.0601821
0.0601547
0.0601354
0.0601246
0.961698
0.892199
0.829106
0.771753
0.719547
0.671962
0.628529
0.588831
0.552494
0.519186
0.488611
0.460503
0.434626
0.410766
0.388733
0.368356
0.349483
0.331974
0.315706
0.300567
0.286455
0.273279
0.260955
0.249409
0.238572
0.228383
0.218784
0.209725
0.20116
0.193046
0.185348
0.178031
0.171066
0.164428
0.158096
0.152051
0.14628
0.140769
0.135512
0.1305
0.125729
0.121195
0.116894
0.112824
0.108981
0.105361
0.101959
0.0987697
0.0957866
0.0930021
0.090408
0.0879957
0.0857559
0.0836792
0.0817563
0.0799775
0.0783338
0.076816
0.0754156
0.0741242
0.0729339
0.0718374
0.0708277
0.0698982
0.0690428
0.0682559
0.0675322
0.0668668
0.0662552
0.0656932
0.0651769
0.0647027
0.0642674
0.0638678
0.0635012
0.063165
0.0628568
0.0625743
0.0623156
0.0620787
0.061862
0.0616639
0.0614828
0.0613175
0.0611668
0.0610295
0.0609047
0.0607914
0.0606887
0.060596
0.0605127
0.0604381
0.0603718
0.0603135
0.0602629
0.06022
0.0601847
0.0601572
0.0601379
0.060127
0.961698
0.892199
0.829106
0.771752
0.719546
0.671961
0.628529
0.588831
0.552494
0.519187
0.488613
0.460506
0.434629
0.41077
0.388738
0.368363
0.34949
0.331983
0.315717
0.30058
0.28647
0.273296
0.260975
0.249431
0.238598
0.228411
0.218816
0.20976
0.201199
0.193089
0.185395
0.178082
0.171122
0.164489
0.158161
0.152121
0.146354
0.140847
0.135593
0.130585
0.125816
0.121284
0.116984
0.112915
0.109072
0.105451
0.102048
0.098857
0.0958717
0.0930846
0.0904876
0.0880721
0.085829
0.083749
0.0818225
0.0800403
0.0783931
0.0768719
0.0754681
0.0741734
0.07298
0.0718805
0.0708678
0.0699356
0.0690776
0.0682882
0.0675621
0.0668945
0.0662808
0.0657168
0.0651986
0.0647227
0.0642857
0.0638846
0.0635166
0.0631791
0.0628697
0.0625861
0.0623263
0.0620885
0.0618709
0.0616719
0.0614902
0.0613242
0.0611729
0.0610351
0.0609098
0.060796
0.060693
0.0606
0.0605163
0.0604415
0.060375
0.0603165
0.0602657
0.0602227
0.0601873
0.0601597
0.0601403
0.0601294
0.961698
0.892199
0.829105
0.771752
0.719546
0.671961
0.628529
0.588831
0.552495
0.519188
0.488614
0.460508
0.434632
0.410774
0.388743
0.368369
0.349498
0.331992
0.315728
0.300592
0.286484
0.273313
0.260994
0.249453
0.238622
0.228438
0.218846
0.209794
0.201236
0.193131
0.185441
0.178132
0.171176
0.164547
0.158224
0.152188
0.146425
0.140923
0.135672
0.130667
0.125901
0.12137
0.117072
0.113003
0.10916
0.105539
0.102134
0.0989419
0.0959544
0.0931649
0.0905651
0.0881466
0.0859003
0.0838169
0.0818871
0.0801015
0.0784509
0.0769264
0.0755193
0.0742215
0.073025
0.0719225
0.0709071
0.0699721
0.0691115
0.0683197
0.0675913
0.0669215
0.0663057
0.0657398
0.0652198
0.0647422
0.0643036
0.0639011
0.0635317
0.0631929
0.0628822
0.0625975
0.0623368
0.062098
0.0618796
0.0616798
0.0614973
0.0613307
0.0611788
0.0610405
0.0609147
0.0608005
0.0606971
0.0606037
0.0605198
0.0604447
0.060378
0.0603193
0.0602684
0.0602252
0.0601897
0.060162
0.0601426
0.0601317
0.961697
0.892199
0.829105
0.771751
0.719545
0.671961
0.628528
0.588831
0.552495
0.519189
0.488616
0.46051
0.434635
0.410777
0.388748
0.368375
0.349505
0.332001
0.315738
0.300604
0.286498
0.273329
0.261012
0.249474
0.238645
0.228465
0.218876
0.209827
0.201273
0.193171
0.185485
0.17818
0.171228
0.164604
0.158285
0.152253
0.146494
0.140996
0.135749
0.130746
0.125982
0.121454
0.117157
0.113089
0.109246
0.105624
0.102218
0.0990242
0.0960347
0.0932428
0.0906403
0.0882189
0.0859695
0.0838829
0.0819498
0.0801609
0.0785071
0.0769793
0.0755691
0.0742682
0.0730688
0.0719634
0.0709452
0.0700076
0.0691446
0.0683503
0.0676197
0.0669478
0.06633
0.0657622
0.0652404
0.0647612
0.064321
0.063917
0.0635463
0.0632062
0.0628944
0.0626087
0.0623469
0.0621072
0.061888
0.0616875
0.0615043
0.061337
0.0611846
0.0610457
0.0609194
0.0608048
0.0607011
0.0606074
0.0605231
0.0604478
0.0603809
0.060322
0.0602709
0.0602276
0.060192
0.0601643
0.0601447
0.0601338
0.961697
0.892199
0.829105
0.771751
0.719545
0.67196
0.628528
0.588831
0.552495
0.51919
0.488617
0.460512
0.434637
0.410781
0.388752
0.36838
0.349512
0.332009
0.315748
0.300616
0.286512
0.273344
0.26103
0.249494
0.238668
0.22849
0.218904
0.209858
0.201308
0.19321
0.185527
0.178227
0.171279
0.164659
0.158344
0.152316
0.146561
0.141066
0.135822
0.130822
0.126061
0.121535
0.117239
0.113171
0.109328
0.105706
0.102299
0.0991038
0.0961124
0.0933181
0.0907131
0.0882889
0.0860365
0.0839468
0.0820106
0.0802185
0.0785615
0.0770306
0.0756174
0.0743135
0.0731112
0.0720031
0.0709822
0.0700421
0.0691766
0.0683801
0.0676473
0.0669733
0.0663536
0.0657839
0.0652604
0.0647796
0.0643379
0.0639325
0.0635605
0.0632192
0.0629063
0.0626195
0.0623567
0.0621162
0.0618961
0.0616948
0.061511
0.0613431
0.0611901
0.0610507
0.060924
0.060809
0.0607049
0.0606109
0.0605264
0.0604508
0.0603836
0.0603246
0.0602734
0.0602299
0.0601942
0.0601664
0.0601468
0.0601358
0.961697
0.892198
0.829104
0.77175
0.719544
0.67196
0.628528
0.588831
0.552496
0.51919
0.488618
0.460514
0.43464
0.410784
0.388756
0.368386
0.349519
0.332017
0.315757
0.300627
0.286524
0.273359
0.261046
0.249513
0.238689
0.228514
0.218931
0.209889
0.201341
0.193247
0.185568
0.178271
0.171327
0.164711
0.1584
0.152377
0.146625
0.141134
0.135893
0.130896
0.126137
0.121612
0.117318
0.113251
0.109408
0.105785
0.102378
0.0991805
0.0961872
0.0933908
0.0907833
0.0883563
0.0861011
0.0840085
0.0820692
0.0802741
0.0786141
0.0770802
0.075664
0.0743573
0.0731522
0.0720414
0.071018
0.0700754
0.0692076
0.0684088
0.0676739
0.0669979
0.0663763
0.0658049
0.0652798
0.0647973
0.0643543
0.0639475
0.0635742
0.0632317
0.0629177
0.0626299
0.0623662
0.0621248
0.0619039
0.061702
0.0615174
0.061349
0.0611954
0.0610556
0.0609284
0.060813
0.0607085
0.0606142
0.0605294
0.0604536
0.0603862
0.060327
0.0602756
0.060232
0.0601962
0.0601684
0.0601487
0.0601377
0.961697
0.892198
0.829104
0.77175
0.719544
0.67196
0.628528
0.588831
0.552496
0.519191
0.488619
0.460515
0.434642
0.410787
0.38876
0.368391