/*--------------------------------*- C++ -*----------------------------------*\
  =========                 |
  \\      /  F ield         | OpenFOAM: The Open Source CFD Toolbox
   \\    /   O peration     | Website:  https://openfoam.org
    \\  /    A nd           | Version:  11
     \\/     M anipulation  |
\*---------------------------------------------------------------------------*/
FoamFile
{
    format      ascii;
    class       volVectorField;
    location    "192";
    object      U;
}
// * * * * * * * * * * * * * * * * * * * * * * * * * * * * * * * * * * * * * //

dimensions      [0 1 -1 0 0 0 0];

internalField   nonuniform List<vector> 
10000
(
(0.00499945 -1.8048e-05 0)
(0.00499706 -5.22292e-05 0)
(0.00499388 -8.60876e-05 0)
(0.00498991 -0.000120353 0)
(0.00498521 -0.000155398 0)
(0.00497976 -0.000191462 0)
(0.00497354 -0.00022872 0)
(0.00496649 -0.000267309 0)
(0.0049586 -0.000307337 0)
(0.0049498 -0.000348897 0)
(0.00494005 -0.000392065 0)
(0.0049293 -0.000436909 0)
(0.00491749 -0.000483482 0)
(0.00490457 -0.000531827 0)
(0.00489048 -0.000581976 0)
(0.00487516 -0.000633949 0)
(0.00485855 -0.000687753 0)
(0.00484058 -0.000743379 0)
(0.00482121 -0.000800802 0)
(0.00480036 -0.000859979 0)
(0.00477798 -0.000920844 0)
(0.00475401 -0.000983311 0)
(0.00472839 -0.00104726 0)
(0.00470108 -0.00111256 0)
(0.00467202 -0.00117903 0)
(0.00464119 -0.00124647 0)
(0.00460855 -0.00131463 0)
(0.00457408 -0.00138323 0)
(0.00453778 -0.00145196 0)
(0.00449966 -0.00152046 0)
(0.00445974 -0.00158835 0)
(0.00441807 -0.00165523 0)
(0.00437471 -0.00172065 0)
(0.00432974 -0.00178417 0)
(0.00428328 -0.00184535 0)
(0.00423545 -0.00190376 0)
(0.00418639 -0.00195898 0)
(0.00413626 -0.00201065 0)
(0.00408523 -0.00205844 0)
(0.00403349 -0.00210211 0)
(0.00398122 -0.00214145 0)
(0.00392862 -0.00217636 0)
(0.00387588 -0.00220677 0)
(0.00382317 -0.00223272 0)
(0.00377097 -0.00225439 0)
(0.00371875 -0.00227202 0)
(0.00366609 -0.00228552 0)
(0.0036134 -0.0022949 0)
(0.00356064 -0.0023005 0)
(0.0035079 -0.00230239 0)
(0.00345614 -0.00230081 0)
(0.00340573 -0.00229616 0)
(0.00335629 -0.00228869 0)
(0.00330782 -0.0022785 0)
(0.00326067 -0.00226579 0)
(0.00321465 -0.002251 0)
(0.00316906 -0.00223428 0)
(0.00312416 -0.00221569 0)
(0.00307998 -0.00219533 0)
(0.00303654 -0.00217333 0)
(0.00299384 -0.0021498 0)
(0.00295191 -0.00212486 0)
(0.00291073 -0.00209861 0)
(0.00287031 -0.00207113 0)
(0.00283066 -0.00204251 0)
(0.00279178 -0.00201284 0)
(0.00275366 -0.00198219 0)
(0.00271631 -0.00195062 0)
(0.00267974 -0.00191821 0)
(0.00264395 -0.00188502 0)
(0.00260894 -0.00185112 0)
(0.00257473 -0.00181658 0)
(0.00254131 -0.00178145 0)
(0.0025087 -0.0017458 0)
(0.00247691 -0.0017097 0)
(0.00244595 -0.00167322 0)
(0.00241583 -0.00163642 0)
(0.00238657 -0.00159939 0)
(0.00235818 -0.00156219 0)
(0.00233067 -0.00152492 0)
(0.00230406 -0.00148765 0)
(0.00227838 -0.00145047 0)
(0.00225362 -0.00141348 0)
(0.00222982 -0.00137678 0)
(0.002207 -0.00134049 0)
(0.00218517 -0.00130471 0)
(0.00216436 -0.00126957 0)
(0.0021446 -0.0012352 0)
(0.00212591 -0.00120174 0)
(0.00210831 -0.00116936 0)
(0.00209185 -0.00113822 0)
(0.00207655 -0.0011085 0)
(0.00206245 -0.00108041 0)
(0.0020496 -0.00105417 0)
(0.00203805 -0.00103005 0)
(0.00202787 -0.00100835 0)
(0.00201915 -0.000989415 0)
(0.00201196 -0.000973654 0)
(0.00200627 -0.000961716 0)
(0.00200233 -0.000954997 0)
(0.00499979 -1.64795e-05 0)
(0.00499758 -4.9223e-05 0)
(0.0049945 -8.21559e-05 0)
(0.00499053 -0.000115588 0)
(0.00498581 -0.000149809 0)
(0.00498034 -0.000185028 0)
(0.0049741 -0.000221405 0)
(0.00496704 -0.000259068 0)
(0.00495913 -0.00029812 0)
(0.00495032 -0.000338651 0)
(0.00494057 -0.000380733 0)
(0.00492981 -0.000424429 0)
(0.004918 -0.000469792 0)
(0.00490507 -0.000516862 0)
(0.00489098 -0.00056567 0)
(0.00487566 -0.000616233 0)
(0.00485906 -0.000668558 0)
(0.0048411 -0.000722634 0)
(0.00482173 -0.000778437 0)
(0.0048009 -0.000835924 0)
(0.00477853 -0.000895033 0)
(0.00475457 -0.000955678 0)
(0.00472898 -0.00101775 0)
(0.00470168 -0.00108111 0)
(0.00467266 -0.00114559 0)
(0.00464185 -0.001211 0)
(0.00460925 -0.00127711 0)
(0.00457482 -0.00134364 0)
(0.00453857 -0.0014103 0)
(0.0045005 -0.00147675 0)
(0.00446064 -0.00154264 0)
(0.00441903 -0.00160757 0)
(0.00437574 -0.00167113 0)
(0.00433085 -0.0017329 0)
(0.00428446 -0.00179245 0)
(0.00423671 -0.00184939 0)
(0.00418773 -0.00190332 0)
(0.00413767 -0.00195388 0)
(0.00408672 -0.00200078 0)
(0.00403503 -0.00204376 0)
(0.00398279 -0.00208262 0)
(0.00393018 -0.00211726 0)
(0.00387736 -0.00214761 0)
(0.00382443 -0.00217368 0)
(0.00377157 -0.00219542 0)
(0.00371858 -0.00221273 0)
(0.00366571 -0.00222582 0)
(0.00361332 -0.00223502 0)
(0.00356146 -0.00224062 0)
(0.00351022 -0.00224312 0)
(0.00345959 -0.00224279 0)
(0.00340961 -0.00223956 0)
(0.00336029 -0.00223349 0)
(0.00331168 -0.00222478 0)
(0.00326394 -0.00221353 0)
(0.00321729 -0.00219979 0)
(0.00317144 -0.00218394 0)
(0.0031264 -0.00216618 0)
(0.00308212 -0.00214667 0)
(0.00303862 -0.00212553 0)
(0.00299587 -0.00210287 0)
(0.00295389 -0.0020788 0)
(0.00291268 -0.00205341 0)
(0.00287223 -0.00202679 0)
(0.00283254 -0.00199904 0)
(0.00279363 -0.00197024 0)
(0.00275548 -0.00194045 0)
(0.00271811 -0.00190975 0)
(0.00268151 -0.00187821 0)
(0.00264569 -0.0018459 0)
(0.00261066 -0.00181289 0)
(0.00257642 -0.00177923 0)
(0.00254298 -0.001745 0)
(0.00251035 -0.00171026 0)
(0.00247854 -0.00167508 0)
(0.00244756 -0.00163953 0)
(0.00241743 -0.00160368 0)
(0.00238815 -0.0015676 0)
(0.00235974 -0.00153138 0)
(0.00233221 -0.00149509 0)
(0.00230558 -0.00145883 0)
(0.00227988 -0.00142268 0)
(0.0022551 -0.00138674 0)
(0.00223129 -0.00135111 0)
(0.00220844 -0.0013159 0)
(0.00218659 -0.00128123 0)
(0.00216576 -0.00124723 0)
(0.00214596 -0.00121403 0)
(0.00212724 -0.00118177 0)
(0.0021096 -0.00115061 0)
(0.00209309 -0.00112073 0)
(0.00207773 -0.00109231 0)
(0.00206356 -0.00106557 0)
(0.00205062 -0.00104073 0)
(0.00203895 -0.00101807 0)
(0.0020286 -0.000997894 0)
(0.00201965 -0.000980567 0)
(0.00201211 -0.000966522 0)
(0.00200566 -0.000956372 0)
(0.00200046 -0.000951128 0)
(0.00499992 -1.52216e-05 0)
(0.00499808 -4.64432e-05 0)
(0.00499522 -7.83226e-05 0)
(0.00499136 -0.000110872 0)
(0.00498669 -0.000144255 0)
(0.00498124 -0.000178632 0)
(0.004975 -0.000214141 0)
(0.00496794 -0.000250895 0)
(0.00496002 -0.000288994 0)
(0.0049512 -0.000328518 0)
(0.00494144 -0.000369541 0)
(0.00493068 -0.00041212 0)
(0.00491886 -0.000456306 0)
(0.00490594 -0.000502138 0)
(0.00489185 -0.000549644 0)
(0.00487654 -0.000598841 0)
(0.00485994 -0.000649733 0)
(0.004842 -0.000702312 0)
(0.00482265 -0.000756553 0)
(0.00480184 -0.000812414 0)
(0.0047795 -0.000869833 0)
(0.00475558 -0.000928728 0)
(0.00473003 -0.000988995 0)
(0.00470279 -0.0010505 0)
(0.00467382 -0.00111309 0)
(0.00464309 -0.00117656 0)
(0.00461056 -0.00124071 0)
(0.00457623 -0.00130527 0)
(0.00454008 -0.00136996 0)
(0.00450213 -0.00143447 0)
(0.0044624 -0.00149845 0)
(0.00442094 -0.00156153 0)
(0.00437781 -0.00162332 0)
(0.00433309 -0.00168343 0)
(0.00428689 -0.00174144 0)
(0.00423933 -0.00179698 0)
(0.00419054 -0.00184966 0)
(0.00414067 -0.00189915 0)
(0.00408989 -0.00194516 0)
(0.00403836 -0.00198743 0)
(0.00398625 -0.00202578 0)
(0.00393373 -0.00206007 0)
(0.00388093 -0.00209023 0)
(0.00382798 -0.00211622 0)
(0.00377502 -0.00213801 0)
(0.00372216 -0.00215567 0)
(0.00366958 -0.00216941 0)
(0.00361742 -0.00217944 0)
(0.00356577 -0.00218594 0)
(0.00351471 -0.00218914 0)
(0.00346423 -0.00218927 0)
(0.00341438 -0.00218646 0)
(0.0033652 -0.00218088 0)
(0.00331675 -0.00217274 0)
(0.00326905 -0.00216223 0)
(0.00322219 -0.0021494 0)
(0.00317615 -0.00213444 0)
(0.00313094 -0.00211754 0)
(0.00308652 -0.00209887 0)
(0.00304289 -0.00207856 0)
(0.00300004 -0.00205673 0)
(0.00295797 -0.00203348 0)
(0.00291666 -0.00200892 0)
(0.00287613 -0.00198314 0)
(0.00283636 -0.00195622 0)
(0.00279737 -0.00192825 0)
(0.00275915 -0.00189929 0)
(0.0027217 -0.00186944 0)
(0.00268503 -0.00183874 0)
(0.00264915 -0.00180728 0)
(0.00261405 -0.00177512 0)
(0.00257975 -0.00174233 0)
(0.00254625 -0.00170898 0)
(0.00251357 -0.00167512 0)
(0.0024817 -0.00164084 0)
(0.00245067 -0.0016062 0)
(0.00242049 -0.00157127 0)
(0.00239116 -0.00153613 0)
(0.0023627 -0.00150087 0)
(0.00233513 -0.00146555 0)
(0.00230845 -0.00143028 0)
(0.0022827 -0.00139513 0)
(0.00225788 -0.00136022 0)
(0.00223401 -0.00132564 0)
(0.00221111 -0.0012915 0)
(0.0021892 -0.00125793 0)
(0.0021683 -0.00122505 0)
(0.00214844 -0.00119299 0)
(0.00212963 -0.0011619 0)
(0.00211191 -0.00113195 0)
(0.00209528 -0.0011033 0)
(0.00207979 -0.00107615 0)
(0.00206546 -0.00105071 0)
(0.00205232 -0.00102722 0)
(0.00204038 -0.00100595 0)
(0.00202968 -0.000987202 0)
(0.00202025 -0.000971337 0)
(0.00201201 -0.000958765 0)
(0.00200443 -0.000950005 0)
(0.0019977 -0.000945736 0)
(0.00499993 -1.43604e-05 0)
(0.00499841 -4.42156e-05 0)
(0.0049958 -7.50256e-05 0)
(0.00499213 -0.000106675 0)
(0.00498758 -0.000139233 0)
(0.0049822 -0.000172805 0)
(0.004976 -0.000207498 0)
(0.00496896 -0.00024341 0)
(0.00496106 -0.000280629 0)
(0.00495225 -0.00031923 0)
(0.00494249 -0.00035928 0)
(0.00493173 -0.000400836 0)
(0.00491992 -0.000443945 0)
(0.004907 -0.000488643 0)
(0.00489292 -0.000534957 0)
(0.00487762 -0.000582904 0)
(0.00486104 -0.000632486 0)
(0.00484312 -0.000683695 0)
(0.0048238 -0.000736505 0)
(0.00480302 -0.000790877 0)
(0.00478073 -0.00084675 0)
(0.00475686 -0.000904045 0)
(0.00473137 -0.00096266 0)
(0.0047042 -0.00102247 0)
(0.00467533 -0.00108332 0)
(0.0046447 -0.00114503 0)
(0.00461229 -0.00120738 0)
(0.0045781 -0.00127015 0)
(0.00454211 -0.00133305 0)
(0.00450434 -0.00139578 0)
(0.00446481 -0.00145802 0)
(0.00442356 -0.00151941 0)
(0.00438067 -0.00157958 0)
(0.0043362 -0.00163816 0)
(0.00429027 -0.00169476 0)
(0.00424298 -0.001749 0)
(0.00419447 -0.00180054 0)
(0.00414488 -0.00184904 0)
(0.00409436 -0.0018942 0)
(0.00404308 -0.0019358 0)
(0.0039912 -0.00197363 0)
(0.00393888 -0.00200756 0)
(0.00388625 -0.0020375 0)
(0.00383345 -0.00206338 0)
(0.00378065 -0.00208522 0)
(0.00372798 -0.00210306 0)
(0.0036756 -0.00211711 0)
(0.00362362 -0.00212754 0)
(0.00357213 -0.00213453 0)
(0.00352118 -0.0021383 0)
(0.00347081 -0.00213904 0)
(0.00342105 -0.00213691 0)
(0.00337195 -0.00213206 0)
(0.00332354 -0.00212469 0)
(0.00327584 -0.00211494 0)
(0.0032289 -0.00210292 0)
(0.00318275 -0.00208878 0)
(0.0031374 -0.00207269 0)
(0.00309285 -0.00205481 0)
(0.00304909 -0.00203529 0)
(0.00300611 -0.00201423 0)
(0.00296391 -0.00199176 0)
(0.00292248 -0.00196797 0)
(0.00288183 -0.00194296 0)
(0.00284196 -0.00191681 0)
(0.00280286 -0.00188961 0)
(0.00276453 -0.00186143 0)
(0.00272698 -0.00183235 0)
(0.00269022 -0.00180244 0)
(0.00265424 -0.00177176 0)
(0.00261905 -0.0017404 0)
(0.00258467 -0.00170841 0)
(0.00255108 -0.00167586 0)
(0.00251832 -0.00164282 0)
(0.00248638 -0.00160936 0)
(0.00245527 -0.00157556 0)
(0.00242501 -0.00154149 0)
(0.00239561 -0.00150721 0)
(0.00236708 -0.00147282 0)
(0.00233943 -0.0014384 0)
(0.00231269 -0.00140403 0)
(0.00228686 -0.00136981 0)
(0.00226197 -0.00133584 0)
(0.00223802 -0.00130222 0)
(0.00221504 -0.00126906 0)
(0.00219304 -0.00123649 0)
(0.00217205 -0.00120462 0)
(0.00215208 -0.0011736 0)
(0.00213315 -0.00114358 0)
(0.00211528 -0.00111471 0)
(0.00209849 -0.00108717 0)
(0.0020828 -0.00106115 0)
(0.00206823 -0.00103686 0)
(0.00205478 -0.00101453 0)
(0.00204247 -0.000994438 0)
(0.00203128 -0.000976866 0)
(0.00202123 -0.000962145 0)
(0.00201215 -0.000950643 0)
(0.00200335 -0.000942813 0)
(0.00199511 -0.000939239 0)
(0.00499994 -1.36625e-05 0)
(0.00499864 -4.22608e-05 0)
(0.00499626 -7.19846e-05 0)
(0.00499279 -0.000102682 0)
(0.0049884 -0.000134364 0)
(0.00498314 -0.000167094 0)
(0.00497702 -0.000200947 0)
(0.00497004 -0.000236002 0)
(0.00496218 -0.000272333 0)
(0.00495339 -0.000310008 0)
(0.00494366 -0.000349087 0)
(0.00493291 -0.000389623 0)
(0.00492112 -0.000431659 0)
(0.00490822 -0.00047523 0)
(0.00489416 -0.00052036 0)
(0.00487888 -0.000567066 0)
(0.00486233 -0.000615348 0)
(0.00484444 -0.000665198 0)
(0.00482516 -0.000716592 0)
(0.00480444 -0.000769488 0)
(0.0047822 -0.000823831 0)
(0.00475841 -0.000879542 0)
(0.004733 -0.000936524 0)
(0.00470594 -0.000994656 0)
(0.00467718 -0.00105379 0)
(0.00464669 -0.00111375 0)
(0.00461444 -0.00117435 0)
(0.00458043 -0.00123534 0)
(0.00454464 -0.00129647 0)
(0.00450709 -0.00135745 0)
(0.00446781 -0.00141797 0)
(0.00442684 -0.0014777 0)
(0.00438424 -0.00153628 0)
(0.00434009 -0.00159336 0)
(0.00429449 -0.00164856 0)
(0.00424754 -0.00170152 0)
(0.00419937 -0.00175191 0)
(0.00415012 -0.00179941 0)
(0.00409995 -0.00184374 0)
(0.004049 -0.00188464 0)
(0.00399742 -0.00192194 0)
(0.00394538 -0.00195549 0)
(0.00389302 -0.00198518 0)
(0.00384048 -0.00201097 0)
(0.00378792 -0.00203286 0)
(0.00373549 -0.00205092 0)
(0.00368332 -0.00206529 0)
(0.00363152 -0.00207612 0)
(0.00358017 -0.0020836 0)
(0.00352933 -0.00208792 0)
(0.00347904 -0.00208925 0)
(0.00342935 -0.00208774 0)
(0.00338028 -0.00208357 0)
(0.00333189 -0.0020769 0)
(0.00328418 -0.00206786 0)
(0.00323719 -0.00205659 0)
(0.00319096 -0.00204323 0)
(0.0031455 -0.00202793 0)
(0.00310083 -0.00201084 0)
(0.00305693 -0.00199209 0)
(0.00301382 -0.00197182 0)
(0.00297149 -0.00195012 0)
(0.00292993 -0.0019271 0)
(0.00288915 -0.00190286 0)
(0.00284914 -0.00187749 0)
(0.00280991 -0.00185106 0)
(0.00277147 -0.00182365 0)
(0.0027338 -0.00179535 0)
(0.00269692 -0.00176622 0)
(0.00266082 -0.00173633 0)
(0.00262553 -0.00170576 0)
(0.00259103 -0.00167457 0)
(0.00255735 -0.00164283 0)
(0.00252448 -0.00161061 0)
(0.00249244 -0.00157798 0)
(0.00246124 -0.00154501 0)
(0.00243088 -0.00151178 0)
(0.00240139 -0.00147837 0)
(0.00237277 -0.00144486 0)
(0.00234503 -0.00141132 0)
(0.0023182 -0.00137786 0)
(0.00229228 -0.00134456 0)
(0.00226728 -0.00131152 0)
(0.00224324 -0.00127885 0)
(0.00222015 -0.00124666 0)
(0.00219803 -0.00121506 0)
(0.00217691 -0.0011842 0)
(0.00215679 -0.0011542 0)
(0.0021377 -0.00112521 0)
(0.00211964 -0.00109739 0)
(0.00210263 -0.00107091 0)
(0.00208668 -0.00104597 0)
(0.0020718 -0.00102277 0)
(0.00205797 -0.00100153 0)
(0.0020452 -0.00098251 0)
(0.00203344 -0.000965975 0)
(0.00202269 -0.000952222 0)
(0.00201273 -0.000941563 0)
(0.00200281 -0.000934357 0)
(0.001993 -0.000931295 0)
(0.00499995 -1.30517e-05 0)
(0.00499881 -4.04848e-05 0)
(0.00499661 -6.91359e-05 0)
(0.00499334 -9.88529e-05 0)
(0.00498912 -0.00012962 0)
(0.004984 -0.000161467 0)
(0.004978 -0.000194446 0)
(0.00497111 -0.000228617 0)
(0.00496331 -0.000264039 0)
(0.00495458 -0.000300771 0)
(0.00494489 -0.000338867 0)
(0.00493419 -0.000378373 0)
(0.00492243 -0.000419329 0)
(0.00490956 -0.000461768 0)
(0.00489553 -0.000505712 0)
(0.0048803 -0.000551173 0)
(0.00486379 -0.000598155 0)
(0.00484595 -0.000646646 0)
(0.00482673 -0.000696624 0)
(0.00480607 -0.000748048 0)
(0.00478392 -0.000800864 0)
(0.00476022 -0.000854997 0)
(0.00473493 -0.000910354 0)
(0.004708 -0.000966817 0)
(0.00467938 -0.00102425 0)
(0.00464906 -0.00108248 0)
(0.00461701 -0.00114132 0)
(0.00458321 -0.00120055 0)
(0.00454767 -0.00125993 0)
(0.00451039 -0.00131918 0)
(0.0044714 -0.001378 0)
(0.00443075 -0.00143609 0)
(0.00438849 -0.00149309 0)
(0.0043447 -0.00154867 0)
(0.00429947 -0.00160247 0)
(0.00425292 -0.00165416 0)
(0.00420515 -0.00170341 0)
(0.0041563 -0.0017499 0)
(0.00410652 -0.00179337 0)
(0.00405595 -0.00183357 0)
(0.00400475 -0.00187032 0)
(0.00395305 -0.00190346 0)
(0.00390102 -0.0019329 0)
(0.0038488 -0.00195858 0)
(0.00379654 -0.00198052 0)
(0.00374438 -0.00199876 0)
(0.00369244 -0.00201343 0)
(0.00364083 -0.00202465 0)
(0.00358963 -0.00203259 0)
(0.0035389 -0.00203743 0)
(0.0034887 -0.00203931 0)
(0.00343906 -0.00203841 0)
(0.00339003 -0.00203487 0)
(0.00334164 -0.00202886 0)
(0.00329392 -0.00202052 0)
(0.00324689 -0.00200997 0)
(0.00320059 -0.00199736 0)
(0.00315504 -0.00198283 0)
(0.00311025 -0.00196651 0)
(0.00306624 -0.00194854 0)
(0.00302299 -0.00192904 0)
(0.00298052 -0.00190812 0)
(0.00293882 -0.00188588 0)
(0.0028979 -0.00186242 0)
(0.00285775 -0.00183782 0)
(0.00281839 -0.00181217 0)
(0.0027798 -0.00178555 0)
(0.002742 -0.00175803 0)
(0.00270498 -0.00172969 0)
(0.00266876 -0.00170059 0)
(0.00263334 -0.00167082 0)
(0.00259872 -0.00164044 0)
(0.00256491 -0.00160951 0)
(0.00253193 -0.00157811 0)
(0.00249978 -0.00154632 0)
(0.00246846 -0.0015142 0)
(0.002438 -0.00148182 0)
(0.00240839 -0.00144928 0)
(0.00237966 -0.00141664 0)
(0.00235182 -0.001384 0)
(0.00232487 -0.00135144 0)
(0.00229883 -0.00131906 0)
(0.00227372 -0.00128695 0)
(0.00224954 -0.00125523 0)
(0.00222632 -0.001224 0)
(0.00220406 -0.00119339 0)
(0.00218277 -0.00116351 0)
(0.00216248 -0.00113452 0)
(0.00214318 -0.00110654 0)
(0.00212489 -0.00107975 0)
(0.00210761 -0.00105431 0)
(0.00209135 -0.0010304 0)
(0.0020761 -0.00100823 0)
(0.00206183 -0.000988012 0)
(0.00204854 -0.000969974 0)
(0.00203616 -0.000954368 0)
(0.00202466 -0.000941453 0)
(0.00201381 -0.000931494 0)
(0.00200287 -0.000924777 0)
(0.00199157 -0.000921898 0)
(0.00499995 -1.25067e-05 0)
(0.00499892 -3.88572e-05 0)
(0.00499688 -6.64689e-05 0)
(0.00499379 -9.52038e-05 0)
(0.00498975 -0.000125034 0)
(0.00498478 -0.000155973 0)
(0.00497891 -0.000188053 0)
(0.00497213 -0.000221316 0)
(0.00496443 -0.000255812 0)
(0.00495578 -0.000291588 0)
(0.00494615 -0.00032869 0)
(0.00493551 -0.000367161 0)
(0.0049238 -0.000407034 0)
(0.00491099 -0.00044834 0)
(0.00489702 -0.000491098 0)
(0.00488184 -0.000535319 0)
(0.00486539 -0.000581005 0)
(0.00484763 -0.000628145 0)
(0.00482849 -0.000676715 0)
(0.00480792 -0.000726678 0)
(0.00478587 -0.00077798 0)
(0.00476229 -0.00083055 0)
(0.00473713 -0.000884298 0)
(0.00471035 -0.000939112 0)
(0.00468192 -0.000994858 0)
(0.0046518 -0.00105138 0)
(0.00461997 -0.0011085 0)
(0.00458642 -0.00116599 0)
(0.00455115 -0.00122364 0)
(0.00451418 -0.00128119 0)
(0.00447552 -0.00133834 0)
(0.00443523 -0.00139479 0)
(0.00439335 -0.00145024 0)
(0.00434997 -0.00150434 0)
(0.00430516 -0.00155677 0)
(0.00425903 -0.0016072 0)
(0.0042117 -0.0016553 0)
(0.0041633 -0.00170079 0)
(0.00411396 -0.00174339 0)
(0.00406382 -0.00178287 0)
(0.00401302 -0.00181904 0)
(0.00396173 -0.00185176 0)
(0.00391008 -0.00188093 0)
(0.00385821 -0.00190649 0)
(0.00380628 -0.00192844 0)
(0.00375441 -0.00194683 0)
(0.00370272 -0.00196175 0)
(0.00365132 -0.00197332 0)
(0.00360028 -0.00198169 0)
(0.00354968 -0.001987 0)
(0.00349957 -0.00198942 0)
(0.00345 -0.00198909 0)
(0.00340101 -0.00198616 0)
(0.00335263 -0.00198079 0)
(0.0033049 -0.00197311 0)
(0.00325784 -0.00196327 0)
(0.00321148 -0.00195138 0)
(0.00316585 -0.00193759 0)
(0.00312096 -0.00192204 0)
(0.00307682 -0.00190483 0)
(0.00303345 -0.0018861 0)
(0.00299084 -0.00186595 0)
(0.002949 -0.00184449 0)
(0.00290793 -0.0018218 0)
(0.00286764 -0.00179798 0)
(0.00282813 -0.00177311 0)
(0.00278939 -0.00174727 0)
(0.00275145 -0.00172054 0)
(0.00271429 -0.00169299 0)
(0.00267793 -0.00166469 0)
(0.00264236 -0.00163572 0)
(0.00260761 -0.00160615 0)
(0.00257367 -0.00157604 0)
(0.00254056 -0.00154547 0)
(0.00250827 -0.00151451 0)
(0.00247683 -0.00148324 0)
(0.00244624 -0.00145172 0)
(0.00241651 -0.00142004 0)
(0.00238765 -0.00138828 0)
(0.00235967 -0.00135653 0)
(0.0023326 -0.00132488 0)
(0.00230642 -0.00129341 0)
(0.00228117 -0.00126223 0)
(0.00225684 -0.00123145 0)
(0.00223345 -0.00120117 0)
(0.00221102 -0.00117152 0)
(0.00218954 -0.00114262 0)
(0.00216904 -0.00111461 0)
(0.0021495 -0.00108762 0)
(0.00213094 -0.00106183 0)
(0.00211336 -0.00103738 0)
(0.00209674 -0.00101446 0)
(0.00208107 -0.000993257 0)
(0.00206633 -0.000973977 0)
(0.00205247 -0.000956834 0)
(0.00203944 -0.000942053 0)
(0.00202719 -0.000929865 0)
(0.00201547 -0.000920492 0)
(0.00200353 -0.000914171 0)
(0.00199094 -0.000911214 0)
(0.00499996 -1.20105e-05 0)
(0.00499901 -3.73489e-05 0)
(0.00499709 -6.39605e-05 0)
(0.00499416 -9.17254e-05 0)
(0.00499028 -0.000120614 0)
(0.00498547 -0.000150629 0)
(0.00497975 -0.000181791 0)
(0.00497309 -0.00021413 0)
(0.0049655 -0.000247683 0)
(0.00495695 -0.000282491 0)
(0.00494741 -0.000318591 0)
(0.00493684 -0.00035602 0)
(0.00492522 -0.000394808 0)
(0.00491248 -0.00043498 0)
(0.00489858 -0.000476554 0)
(0.00488348 -0.00051954 0)
(0.00486711 -0.000563937 0)
(0.00484944 -0.000609734 0)
(0.0048304 -0.000656908 0)
(0.00480994 -0.000705423 0)
(0.00478802 -0.000755226 0)
(0.00476459 -0.00080625 0)
(0.00473959 -0.000858408 0)
(0.00471299 -0.000911594 0)
(0.00468476 -0.00096568 0)
(0.00465487 -0.00102052 0)
(0.00462329 -0.00107593 0)
(0.00459002 -0.00113172 0)
(0.00455506 -0.00118767 0)
(0.00451843 -0.00124354 0)
(0.00448013 -0.00129904 0)
(0.00444023 -0.0013539 0)
(0.00439876 -0.00140781 0)
(0.00435581 -0.00146046 0)
(0.00431146 -0.00151152 0)
(0.00426579 -0.00156069 0)
(0.00421894 -0.00160766 0)
(0.00417101 -0.00165214 0)
(0.00412213 -0.00169387 0)
(0.00407246 -0.00173262 0)
(0.00402212 -0.00176821 0)
(0.00397125 -0.00180049 0)
(0.00392001 -0.00182936 0)
(0.00386853 -0.00185476 0)
(0.00381694 -0.00187669 0)
(0.00376539 -0.00189519 0)
(0.00371397 -0.00191032 0)
(0.00366279 -0.0019222 0)
(0.00361194 -0.00193095 0)
(0.00356149 -0.00193671 0)
(0.00351149 -0.00193962 0)
(0.003462 -0.00193983 0)
(0.00341305 -0.00193749 0)
(0.0033647 -0.00193273 0)
(0.00331696 -0.0019257 0)
(0.00326987 -0.00191653 0)
(0.00322346 -0.00190535 0)
(0.00317776 -0.00189229 0)
(0.00313278 -0.00187747 0)
(0.00308853 -0.00186102 0)
(0.00304504 -0.00184304 0)
(0.0030023 -0.00182366 0)
(0.00296032 -0.00180296 0)
(0.00291911 -0.00178104 0)
(0.00287867 -0.001758 0)
(0.002839 -0.00173391 0)
(0.00280012 -0.00170885 0)
(0.00276202 -0.00168291 0)
(0.00272471 -0.00165615 0)
(0.0026882 -0.00162865 0)
(0.00265249 -0.00160049 0)
(0.00261759 -0.00157173 0)
(0.0025835 -0.00154244 0)
(0.00255025 -0.0015127 0)
(0.00251782 -0.00148258 0)
(0.00248624 -0.00145215 0)
(0.00245551 -0.00142149 0)
(0.00242563 -0.00139068 0)
(0.00239663 -0.0013598 0)
(0.00236851 -0.00132893 0)
(0.00234129 -0.00129818 0)
(0.00231496 -0.00126762 0)
(0.00228954 -0.00123736 0)
(0.00226504 -0.00120751 0)
(0.00224147 -0.00117817 0)
(0.00221884 -0.00114947 0)
(0.00219714 -0.00112152 0)
(0.0021764 -0.00109446 0)
(0.00215659 -0.00106844 0)
(0.00213773 -0.0010436 0)
(0.0021198 -0.0010201 0)
(0.0021028 -0.000998113 0)
(0.00208668 -0.000977819 0)
(0.00207143 -0.000959408 0)
(0.00205699 -0.000943077 0)
(0.0020433 -0.000929032 0)
(0.00203031 -0.000917474 0)
(0.00201775 -0.000908595 0)
(0.00200481 -0.000902595 0)
(0.00199118 -0.000899474 0)
(0.00499996 -1.15501e-05 0)
(0.00499907 -3.59353e-05 0)
(0.00499726 -6.1586e-05 0)
(0.00499447 -8.83998e-05 0)
(0.00499074 -0.000116351 0)
(0.00498608 -0.000145436 0)
(0.0049805 -0.000175668 0)
(0.00497398 -0.00020707 0)
(0.00496651 -0.000239669 0)
(0.00495808 -0.000273497 0)
(0.00494864 -0.000308587 0)
(0.00493818 -0.000344968 0)
(0.00492664 -0.000382667 0)
(0.004914 -0.000421705 0)
(0.0049002 -0.000462098 0)
(0.00488519 -0.000503852 0)
(0.00486893 -0.000546967 0)
(0.00485137 -0.00059143 0)
(0.00483245 -0.00063722 0)
(0.00481213 -0.0006843 0)
(0.00479036 -0.00073262 0)
(0.00476709 -0.000782115 0)
(0.00474227 -0.000832704 0)
(0.00471588 -0.000884283 0)
(0.00468788 -0.000936733 0)
(0.00465824 -0.00098991 0)
(0.00462695 -0.00104365 0)
(0.00459398 -0.00109777 0)
(0.00455936 -0.00115204 0)
(0.00452308 -0.00120625 0)
(0.00448518 -0.00126014 0)
(0.00444569 -0.00131342 0)
(0.00440467 -0.00136582 0)
(0.00436217 -0.00141703 0)
(0.00431829 -0.00146675 0)
(0.00427312 -0.00151467 0)
(0.00422676 -0.00156051 0)
(0.00417933 -0.00160398 0)
(0.00413095 -0.00164484 0)
(0.00408176 -0.00168285 0)
(0.00403189 -0.00171784 0)
(0.00398148 -0.00174966 0)
(0.00393067 -0.0017782 0)
(0.00387959 -0.00180342 0)
(0.00382838 -0.0018253 0)
(0.00377715 -0.00184385 0)
(0.00372603 -0.00185915 0)
(0.0036751 -0.00187129 0)
(0.00362445 -0.00188038 0)
(0.00357416 -0.00188655 0)
(0.00352428 -0.00188992 0)
(0.00347488 -0.00189065 0)
(0.003426 -0.00188886 0)
(0.00337767 -0.00188469 0)
(0.00332994 -0.00187829 0)
(0.00328284 -0.00186977 0)
(0.00323639 -0.00185927 0)
(0.00319063 -0.00184691 0)
(0.00314557 -0.00183281 0)
(0.00310122 -0.00181709 0)
(0.00305761 -0.00179987 0)
(0.00301475 -0.00178123 0)
(0.00297263 -0.0017613 0)
(0.00293128 -0.00174015 0)
(0.00289069 -0.00171787 0)
(0.00285088 -0.00169456 0)
(0.00281184 -0.00167028 0)
(0.00277359 -0.00164513 0)
(0.00273613 -0.00161916 0)
(0.00269946 -0.00159247 0)
(0.0026636 -0.00156511 0)
(0.00262854 -0.00153716 0)
(0.00259431 -0.0015087 0)
(0.0025609 -0.00147979 0)
(0.00252832 -0.0014505 0)
(0.00249658 -0.00142092 0)
(0.0024657 -0.00139112 0)
(0.00243567 -0.00136117 0)
(0.00240652 -0.00133116 0)
(0.00237824 -0.00130118 0)
(0.00235084 -0.00127132 0)
(0.00232435 -0.00124166 0)
(0.00229875 -0.00121232 0)
(0.00227406 -0.00118338 0)
(0.00225029 -0.00115497 0)
(0.00222743 -0.00112719 0)
(0.0022055 -0.00110018 0)
(0.00218448 -0.00107405 0)
(0.00216438 -0.00104896 0)
(0.00214519 -0.00102504 0)
(0.0021269 -0.00100244 0)
(0.00210948 -0.000981338 0)
(0.0020929 -0.000961893 0)
(0.00207712 -0.000944285 0)
(0.00206209 -0.000928695 0)
(0.00204774 -0.000915307 0)
(0.00203402 -0.000904302 0)
(0.00202067 -0.000895843 0)
(0.00200674 -0.000890105 0)
(0.00199225 -0.000886942 0)
(0.00499996 -1.11171e-05 0)
(0.00499912 -3.45982e-05 0)
(0.0049974 -5.93246e-05 0)
(0.00499473 -8.52097e-05 0)
(0.00499113 -0.000112232 0)
(0.00498662 -0.000140389 0)
(0.00498118 -0.000169687 0)
(0.0049748 -0.000200143 0)
(0.00496747 -0.000231779 0)
(0.00495915 -0.000264621 0)
(0.00494984 -0.000298693 0)
(0.00493949 -0.000334022 0)
(0.00492807 -0.00037063 0)
(0.00491554 -0.000408534 0)
(0.00490185 -0.000447747 0)
(0.00488696 -0.000488275 0)
(0.00487083 -0.000530114 0)
(0.00485339 -0.000573253 0)
(0.00483462 -0.00061767 0)
(0.00481445 -0.000663329 0)
(0.00479285 -0.000710182 0)
(0.00476977 -0.000758167 0)
(0.00474516 -0.000807206 0)
(0.004719 -0.000857201 0)
(0.00469125 -0.000908038 0)
(0.00466189 -0.000959582 0)
(0.00463089 -0.00101167 0)
(0.00459826 -0.00106414 0)
(0.00456399 -0.00111677 0)
(0.0045281 -0.00116936 0)
(0.00449061 -0.00122165 0)
(0.00445156 -0.00127338 0)
(0.00441099 -0.00132429 0)
(0.00436898 -0.00137408 0)
(0.00432559 -0.00142247 0)
(0.00428093 -0.00146916 0)
(0.00423508 -0.00151387 0)
(0.00418816 -0.00155633 0)
(0.0041403 -0.0015963 0)
(0.00409161 -0.00163356 0)
(0.00404224 -0.00166794 0)
(0.0039923 -0.00169927 0)
(0.00394193 -0.00172747 0)
(0.00389128 -0.00175247 0)
(0.00384045 -0.00177426 0)
(0.00378957 -0.00179283 0)
(0.00373875 -0.00180826 0)
(0.00368808 -0.00182062 0)
(0.00363765 -0.00183001 0)
(0.00358754 -0.00183654 0)
(0.00353781 -0.00184034 0)
(0.00348852 -0.00184155 0)
(0.00343971 -0.00184028 0)
(0.00339143 -0.00183668 0)
(0.00334372 -0.00183087 0)
(0.00329661 -0.00182298 0)
(0.00325014 -0.00181314 0)
(0.00320432 -0.00180146 0)
(0.00315919 -0.00178807 0)
(0.00311476 -0.00177307 0)
(0.00307105 -0.00175657 0)
(0.00302806 -0.00173868 0)
(0.00298582 -0.00171949 0)
(0.00294433 -0.0016991 0)
(0.0029036 -0.0016776 0)
(0.00286364 -0.00165505 0)
(0.00282445 -0.00163156 0)
(0.00278604 -0.00160719 0)
(0.00274842 -0.00158202 0)
(0.0027116 -0.00155613 0)
(0.00267558 -0.00152957 0)
(0.00264037 -0.00150244 0)
(0.00260597 -0.0014748 0)
(0.0025724 -0.00144671 0)
(0.00253967 -0.00141827 0)
(0.00250777 -0.00138953 0)
(0.00247672 -0.00136058 0)
(0.00244653 -0.0013315 0)
(0.00241721 -0.00130236 0)
(0.00238876 -0.00127326 0)
(0.00236119 -0.00124428 0)
(0.0023345 -0.00121552 0)
(0.00230871 -0.00118708 0)
(0.00228381 -0.00115905 0)
(0.00225981 -0.00113154 0)
(0.00223672 -0.00110468 0)
(0.00221452 -0.00107857 0)
(0.00219323 -0.00105335 0)
(0.00217281 -0.00102915 0)
(0.00215328 -0.00100611 0)
(0.0021346 -0.000984383 0)
(0.00211675 -0.000964114 0)
(0.00209969 -0.000945465 0)
(0.00208338 -0.000928602 0)
(0.00206776 -0.00091369 0)
(0.00205277 -0.000900897 0)
(0.00203836 -0.000890382 0)
(0.00202426 -0.000882289 0)
(0.0020094 -0.000876773 0)
(0.00199412 -0.000873667 0)
(0.00499996 -1.0706e-05 0)
(0.00499916 -3.3324e-05 0)
(0.00499752 -5.71596e-05 0)
(0.00499495 -8.21396e-05 0)
(0.00499148 -0.000108248 0)
(0.0049871 -0.000135481 0)
(0.0049818 -0.000163846 0)
(0.00497555 -0.000193354 0)
(0.00496836 -0.000224023 0)
(0.00496018 -0.000255872 0)
(0.004951 -0.000288924 0)
(0.00494077 -0.000323198 0)
(0.00492948 -0.000358713 0)
(0.00491708 -0.000395484 0)
(0.00490352 -0.000433521 0)
(0.00488877 -0.000472827 0)
(0.00487277 -0.000513399 0)
(0.00485549 -0.000555224 0)
(0.00483688 -0.000598279 0)
(0.00481689 -0.000642531 0)
(0.00479547 -0.000687934 0)
(0.0047726 -0.000734428 0)
(0.00474822 -0.000781937 0)
(0.00472231 -0.000830371 0)
(0.00469483 -0.00087962 0)
(0.00466577 -0.000929554 0)
(0.0046351 -0.000980026 0)
(0.00460282 -0.00103087 0)
(0.00456893 -0.00108188 0)
(0.00453344 -0.00113287 0)
(0.00449638 -0.00118359 0)
(0.00445778 -0.0012338 0)
(0.00441768 -0.00128324 0)
(0.00437616 -0.00133163 0)
(0.00433329 -0.0013787 0)
(0.00428914 -0.00142416 0)
(0.00424382 -0.00146775 0)
(0.00419744 -0.0015092 0)
(0.0041501 -0.00154828 0)
(0.00410193 -0.00158478 0)
(0.00405305 -0.00161852 0)
(0.00400359 -0.00164936 0)
(0.00395369 -0.00167718 0)
(0.00390346 -0.00170193 0)
(0.00385303 -0.00172359 0)
(0.00380251 -0.00174215 0)
(0.003752 -0.00175766 0)
(0.00370161 -0.0017702 0)
(0.00365142 -0.00177984 0)
(0.00360151 -0.00178671 0)
(0.00355194 -0.0017909 0)
(0.00350277 -0.00179255 0)
(0.00345405 -0.00179177 0)
(0.00340584 -0.00178871 0)
(0.00335816 -0.00178347 0)
(0.00331106 -0.00177619 0)
(0.00326457 -0.00176698 0)
(0.00321872 -0.00175596 0)
(0.00317353 -0.00174325 0)
(0.00312902 -0.00172895 0)
(0.00308522 -0.00171317 0)
(0.00304213 -0.00169601 0)
(0.00299977 -0.00167756 0)
(0.00295815 -0.00165793 0)
(0.00291728 -0.00163718 0)
(0.00287717 -0.0016154 0)
(0.00283783 -0.00159269 0)
(0.00279927 -0.0015691 0)
(0.0027615 -0.00154472 0)
(0.00272452 -0.00151962 0)
(0.00268833 -0.00149388 0)
(0.00265296 -0.00146756 0)
(0.0026184 -0.00144073 0)
(0.00258467 -0.00141348 0)
(0.00255177 -0.00138587 0)
(0.0025197 -0.00135798 0)
(0.00248849 -0.00132988 0)
(0.00245812 -0.00130166 0)
(0.00242862 -0.00127339 0)
(0.00239999 -0.00124516 0)
(0.00237222 -0.00121706 0)
(0.00234534 -0.00118919 0)
(0.00231934 -0.00116163 0)
(0.00229422 -0.00113449 0)