/*--------------------------------*- C++ -*----------------------------------*\
  =========                 |
  \\      /  F ield         | OpenFOAM: The Open Source CFD Toolbox
   \\    /   O peration     | Website:  https://openfoam.org
    \\  /    A nd           | Version:  11
     \\/     M anipulation  |
\*---------------------------------------------------------------------------*/
FoamFile
{
    format      ascii;
    class       volScalarField;
    location    "1098";
    object      p;
}
// * * * * * * * * * * * * * * * * * * * * * * * * * * * * * * * * * * * * * //

dimensions      [0 2 -2 0 0 0 0];

internalField   nonuniform List<scalar> 
10000
(
5.61816e-12
5.48431e-12
5.72262e-12
6.18568e-12
6.71186e-12
7.26639e-12
7.8493e-12
8.46146e-12
9.10367e-12
9.77756e-12
1.04852e-11
1.12289e-11
1.2011e-11
1.28341e-11
1.37008e-11
1.46137e-11
1.55756e-11
1.65895e-11
1.76583e-11
1.8785e-11
1.99728e-11
2.12249e-11
2.25448e-11
2.39358e-11
2.54015e-11
2.69457e-11
2.85721e-11
3.02847e-11
3.20874e-11
3.39844e-11
3.59801e-11
3.80787e-11
4.02849e-11
4.26031e-11
4.50381e-11
4.75947e-11
5.02778e-11
5.30923e-11
5.60434e-11
5.91361e-11
6.23756e-11
6.57671e-11
6.93158e-11
7.30268e-11
7.69053e-11
8.09564e-11
8.51851e-11
8.95962e-11
9.41944e-11
9.89842e-11
1.0397e-10
1.09155e-10
1.14544e-10
1.20139e-10
1.25943e-10
1.31957e-10
1.38184e-10
1.44624e-10
1.51275e-10
1.58137e-10
1.65207e-10
1.7248e-10
1.79952e-10
1.87615e-10
1.95459e-10
2.03474e-10
2.11645e-10
2.19955e-10
2.28386e-10
2.36913e-10
2.45511e-10
2.54147e-10
2.62785e-10
2.71384e-10
2.79895e-10
2.88265e-10
2.96432e-10
3.04324e-10
3.11862e-10
3.18955e-10
3.25501e-10
3.31383e-10
3.3647e-10
3.40614e-10
3.43649e-10
3.45386e-10
3.45613e-10
3.44089e-10
3.40542e-10
3.34663e-10
3.26099e-10
3.14443e-10
2.99221e-10
2.79862e-10
2.5567e-10
2.25813e-10
1.89055e-10
1.42094e-10
8.00379e-11
5.91327e-12
1.02524e-11
9.60134e-12
9.26932e-12
9.45333e-12
9.85762e-12
1.03706e-11
1.09655e-11
1.16286e-11
1.23508e-11
1.31277e-11
1.39573e-11
1.48397e-11
1.57757e-11
1.67666e-11
1.78146e-11
1.89221e-11
2.00915e-11
2.13258e-11
2.26281e-11
2.40017e-11
2.54498e-11
2.69763e-11
2.85846e-11
3.02788e-11
3.20628e-11
3.39408e-11
3.59171e-11
3.79962e-11
4.01825e-11
4.24809e-11
4.4896e-11
4.7433e-11
5.00968e-11
5.28926e-11
5.58257e-11
5.89016e-11
6.21256e-11
6.55032e-11
6.90402e-11
7.27421e-11
7.66146e-11
8.06633e-11
8.48939e-11
8.93118e-11
9.39227e-11
9.87318e-11
1.03744e-10
1.08965e-10
1.14399e-10
1.20051e-10
1.25924e-10
1.32023e-10
1.38349e-10
1.44906e-10
1.51696e-10
1.58719e-10
1.65975e-10
1.73464e-10
1.81183e-10
1.89127e-10
1.97294e-10
2.05674e-10
2.1426e-10
2.2304e-10
2.32002e-10
2.41128e-10
2.50399e-10
2.59792e-10
2.69282e-10
2.78836e-10
2.88419e-10
2.9799e-10
3.07502e-10
3.169e-10
3.26124e-10
3.35102e-10
3.43758e-10
3.52e-10
3.59727e-10
3.66827e-10
3.73168e-10
3.78607e-10
3.8298e-10
3.86103e-10
3.87768e-10
3.87742e-10
3.85761e-10
3.81527e-10
3.74703e-10
3.64903e-10
3.51687e-10
3.34547e-10
3.1288e-10
2.85959e-10
2.52904e-10
2.12783e-10
1.64271e-10
1.02096e-10
1.6063e-11
-6.0145e-11
1.2117e-11
1.11113e-11
1.03524e-11
1.01589e-11
1.02482e-11
1.04958e-11
1.08615e-11
1.13215e-11
1.18591e-11
1.24637e-11
1.31292e-11
1.3852e-11
1.46303e-11
1.54634e-11
1.63516e-11
1.72957e-11
1.8297e-11
1.93572e-11
2.04783e-11
2.16625e-11
2.29123e-11
2.42302e-11
2.5619e-11
2.70818e-11
2.86215e-11
3.02413e-11
3.19447e-11
3.3735e-11
3.56158e-11
3.75908e-11
3.96639e-11
4.18387e-11
4.41193e-11
4.65098e-11
4.90141e-11
5.16366e-11
5.43813e-11
5.72524e-11
6.02543e-11
6.33912e-11
6.66673e-11
7.00868e-11
7.36537e-11
7.73722e-11
8.1246e-11
8.5279e-11
8.94747e-11
9.38363e-11
9.83669e-11
1.03069e-10
1.07945e-10
1.12997e-10
1.18226e-10
1.23633e-10
1.29217e-10
1.34978e-10
1.40914e-10
1.47023e-10
1.533e-10
1.59741e-10
1.66338e-10
1.73084e-10
1.79968e-10
1.86978e-10
1.94101e-10
2.01319e-10
2.08612e-10
2.15957e-10
2.23329e-10
2.30696e-10
2.38025e-10
2.45275e-10
2.52402e-10
2.59355e-10
2.66076e-10
2.725e-10
2.78554e-10
2.84155e-10
2.89212e-10
2.93618e-10
2.97258e-10
3e-10
3.01697e-10
3.02184e-10
3.01275e-10
2.98763e-10
2.94413e-10
2.87961e-10
2.79111e-10
2.67522e-10
2.52809e-10
2.34526e-10
2.12151e-10
1.85052e-10
1.52494e-10
1.13828e-10
6.80633e-11
9.07455e-12
-7.31298e-11
-1.25076e-10
1.35437e-11
1.24805e-11
1.16246e-11
1.12722e-11
1.12006e-11
1.13053e-11
1.15475e-11
1.19013e-11
1.23469e-11
1.2871e-11
1.3465e-11
1.41231e-11
1.48419e-11
1.56192e-11
1.64541e-11
1.73465e-11
1.82969e-11
1.93062e-11
2.03757e-11
2.15071e-11
2.27022e-11
2.39631e-11
2.52922e-11
2.66919e-11
2.81649e-11
2.97138e-11
3.13416e-11
3.30512e-11
3.48457e-11
3.67284e-11
3.87025e-11
4.07714e-11
4.29384e-11
4.52071e-11
4.75809e-11
5.00636e-11
5.26585e-11
5.53694e-11
5.81998e-11
6.11532e-11
6.42331e-11
6.7443e-11
7.07862e-11
7.42658e-11
7.78849e-11
8.16464e-11
8.55528e-11
8.96064e-11
9.38092e-11
9.8163e-11
1.02669e-10
1.07327e-10
1.12139e-10
1.17102e-10
1.22217e-10
1.2748e-10
1.3289e-10
1.38441e-10
1.44128e-10
1.49945e-10
1.55884e-10
1.61935e-10
1.68087e-10
1.74325e-10
1.80633e-10
1.86995e-10
1.93387e-10
1.99785e-10
2.06162e-10
2.12486e-10
2.1872e-10
2.24824e-10
2.30751e-10
2.36449e-10
2.41861e-10
2.46919e-10
2.5155e-10
2.5567e-10
2.59189e-10
2.62001e-10
2.63991e-10
2.65029e-10
2.64971e-10
2.63655e-10
2.60901e-10
2.56508e-10
2.50249e-10
2.41872e-10
2.31093e-10
2.17594e-10
2.01012e-10
1.80937e-10
1.56895e-10
1.28323e-10
9.46e-11
5.53207e-11
9.80211e-12
-4.87806e-11
-1.31317e-10
-1.70199e-10
1.46687e-11
1.36707e-11
1.28235e-11
1.24071e-11
1.22504e-11
1.22712e-11
1.2437e-11
1.27233e-11
1.31107e-11
1.3585e-11
1.41363e-11
1.47579e-11
1.5445e-11
1.61948e-11
1.70054e-11
1.7876e-11
1.88063e-11
1.97969e-11
2.08485e-11
2.19624e-11
2.31399e-11
2.43829e-11
2.56933e-11
2.70732e-11
2.85249e-11
3.00509e-11
3.16536e-11
3.33357e-11
3.51001e-11
3.69495e-11
3.88868e-11
4.09152e-11
4.30376e-11
4.52572e-11
4.7577e-11
5.00002e-11
5.25299e-11
5.51693e-11
5.79214e-11
6.07894e-11
6.3776e-11
6.68843e-11
7.01169e-11
7.34764e-11
7.69651e-11
8.05852e-11
8.43386e-11
8.82268e-11
9.2251e-11
9.6412e-11
1.0071e-10
1.05145e-10
1.09716e-10
1.14421e-10
1.19258e-10
1.24224e-10
1.29314e-10
1.34523e-10
1.39846e-10
1.45272e-10
1.50794e-10
1.564e-10
1.62076e-10
1.67808e-10
1.73578e-10
1.79366e-10
1.85148e-10
1.90899e-10
1.96589e-10
2.02184e-10
2.07646e-10
2.12932e-10
2.17994e-10
2.22779e-10
2.27225e-10
2.31265e-10
2.34823e-10
2.37816e-10
2.40149e-10
2.41718e-10
2.42406e-10
2.42083e-10
2.40606e-10
2.37813e-10
2.33529e-10
2.27553e-10
2.19667e-10
2.09627e-10
1.9716e-10
1.81964e-10
1.63702e-10
1.41999e-10
1.16431e-10
8.65081e-11
5.1726e-11
1.19357e-11
-3.31765e-11
-9.13576e-11
-1.77614e-10
-2.01639e-10
1.55126e-11
1.46009e-11
1.37902e-11
1.33472e-11
1.31388e-11
1.31007e-11
1.32074e-11
1.34375e-11
1.3773e-11
1.42003e-11
1.47092e-11
1.52925e-11
1.59449e-11
1.66627e-11
1.74436e-11
1.82861e-11
1.91896e-11
2.0154e-11
2.11796e-11
2.22672e-11
2.3418e-11
2.46333e-11
2.59147e-11
2.72639e-11
2.86829e-11
3.01738e-11
3.17389e-11
3.33804e-11
3.51007e-11
3.69024e-11
3.87881e-11
4.07603e-11
4.28217e-11
4.4975e-11
4.72229e-11
4.95682e-11
5.20135e-11
5.45614e-11
5.72146e-11
5.99755e-11
6.28466e-11
6.58302e-11
6.89283e-11
7.2143e-11
7.54758e-11
7.89284e-11
8.25017e-11
8.61967e-11
9.00137e-11
9.39527e-11
9.8013e-11
1.02194e-10
1.06493e-10
1.10907e-10
1.15435e-10
1.2007e-10
1.24809e-10
1.29643e-10
1.34567e-10
1.3957e-10
1.44642e-10
1.4977e-10
1.54939e-10
1.60134e-10
1.65336e-10
1.70522e-10
1.75669e-10
1.80748e-10
1.8573e-10
1.90577e-10
1.95252e-10
1.99711e-10
2.03903e-10
2.07774e-10
2.11262e-10
2.143e-10
2.16811e-10
2.18711e-10
2.19906e-10
2.20291e-10
2.19753e-10
2.18162e-10
2.15378e-10
2.11245e-10
2.05591e-10
1.98225e-10
1.88938e-10
1.77498e-10
1.63652e-10
1.4712e-10
1.27599e-10
1.04757e-10
7.82335e-11
4.76215e-11
1.25443e-11
-2.68794e-11
-7.05203e-11
-1.26703e-10
-2.1476e-10
-2.25135e-10
1.61667e-11
1.53326e-11
1.45689e-11
1.4122e-11
1.38848e-11
1.38072e-11
1.38696e-11
1.40544e-11
1.43455e-11
1.47304e-11
1.51994e-11
1.57451e-11
1.63621e-11
1.70463e-11
1.7795e-11
1.86063e-11
1.94791e-11
2.0413e-11
2.14078e-11
2.24642e-11
2.35826e-11
2.47643e-11
2.60104e-11
2.73224e-11
2.87019e-11
3.01507e-11
3.16706e-11
3.32636e-11
3.49319e-11
3.66774e-11
3.85026e-11
4.04095e-11
4.24006e-11
4.4478e-11
4.6644e-11
4.8901e-11
5.12512e-11
5.36967e-11
5.62397e-11
5.88821e-11
6.16258e-11
6.44726e-11
6.74239e-11
7.04812e-11
7.36454e-11
7.69174e-11
8.02976e-11
8.37861e-11
8.73826e-11
9.10861e-11
9.48954e-11
9.88084e-11
1.02822e-10
1.06934e-10
1.11139e-10
1.15432e-10
1.19807e-10
1.24256e-10
1.2877e-10
1.3334e-10
1.37953e-10
1.42596e-10
1.47253e-10
1.51907e-10
1.56538e-10
1.61123e-10
1.65636e-10
1.70049e-10
1.7433e-10
1.78443e-10
1.82347e-10
1.85999e-10
1.89347e-10
1.92337e-10
1.94907e-10
1.96989e-10
1.98507e-10
1.99377e-10
1.99508e-10
1.98796e-10
1.9713e-10
1.94386e-10
1.90426e-10
1.85102e-10
1.78248e-10
1.69684e-10
1.59214e-10
1.46623e-10
1.31677e-10
1.14126e-10
9.36992e-11
7.01139e-11
4.30706e-11
1.22414e-11
-2.26399e-11
-6.1248e-11
-1.03127e-10
-1.56979e-10
-2.44646e-10
-2.46844e-10
1.66868e-11
1.59188e-11
1.5204e-11
1.47662e-11
1.45161e-11
1.44139e-11
1.44449e-11
1.45948e-11
1.48497e-11
1.51984e-11
1.56319e-11
1.61431e-11
1.67267e-11
1.73784e-11
1.80953e-11
1.88751e-11
1.97167e-11
2.0619e-11
2.15818e-11
2.26053e-11
2.36897e-11
2.48358e-11
2.60446e-11
2.73171e-11
2.86548e-11
3.00589e-11
3.15311e-11
3.30731e-11
3.46866e-11
3.63734e-11
3.81353e-11
3.99743e-11
4.18922e-11
4.3891e-11
4.59725e-11
4.81386e-11
5.03911e-11
5.27317e-11
5.51621e-11
5.76837e-11
6.02979e-11
6.3006e-11
6.58088e-11
6.87072e-11
7.17016e-11
7.47922e-11
7.79788e-11
8.12608e-11
8.46371e-11
8.81062e-11
9.16659e-11
9.53136e-11
9.90457e-11
1.02858e-10
1.06745e-10
1.10701e-10
1.14719e-10
1.1879e-10
1.22905e-10
1.27053e-10
1.3122e-10
1.35392e-10
1.39554e-10
1.43685e-10
1.47766e-10
1.51773e-10
1.5568e-10
1.59457e-10
1.63071e-10
1.66487e-10
1.69662e-10
1.72553e-10
1.75109e-10
1.77275e-10
1.7899e-10
1.80186e-10
1.80789e-10
1.80716e-10
1.79877e-10
1.78174e-10
1.75496e-10
1.71725e-10
1.6673e-10
1.60369e-10
1.52486e-10
1.42912e-10
1.31464e-10
1.17946e-10
1.02146e-10
8.38409e-11
6.27949e-11
3.87681e-11
1.15152e-11
-1.92273e-11
-5.36456e-11
-9.12813e-11
-1.31516e-10
-1.8359e-10
-2.71408e-10
-2.6809e-10
1.70998e-11
1.63891e-11
1.57207e-11
1.52988e-11
1.50457e-11
1.49289e-11
1.49381e-11
1.50613e-11
1.52869e-11
1.56049e-11
1.60071e-11
1.64869e-11
1.70391e-11
1.76597e-11
1.83455e-11
1.90942e-11
1.99042e-11
2.07744e-11
2.17043e-11
2.26937e-11
2.37427e-11
2.48518e-11
2.60216e-11
2.72529e-11
2.85468e-11
2.99044e-11
3.1327e-11
3.28158e-11
3.43724e-11
3.59983e-11
3.76949e-11
3.94637e-11
4.13064e-11
4.32245e-11
4.52194e-11
4.72927e-11
4.94457e-11
5.16796e-11
5.39958e-11
5.63952e-11
5.88787e-11
6.1447e-11
6.41005e-11
6.68396e-11
6.9664e-11
7.25733e-11
7.55668e-11
7.86433e-11
8.18011e-11
8.50378e-11
8.83508e-11
9.17366e-11
9.51909e-11
9.87088e-11
1.02284e-10
1.05911e-10
1.0958e-10
1.13283e-10
1.17009e-10
1.20747e-10
1.24482e-10
1.282e-10
1.31884e-10
1.35513e-10
1.39067e-10
1.42522e-10
1.4585e-10
1.49022e-10
1.52005e-10
1.54761e-10
1.57251e-10
1.59428e-10
1.61244e-10
1.62644e-10
1.63567e-10
1.63947e-10
1.63711e-10
1.6278e-10
1.61065e-10
1.58471e-10
1.54893e-10
1.50218e-10
1.44321e-10
1.37069e-10
1.28315e-10
1.17903e-10
1.05664e-10
9.14212e-11
7.49834e-11
5.6153e-11
3.47272e-11
1.05037e-11
-1.67179e-11
-4.71512e-11
-8.09256e-11
-1.17493e-10
-1.56147e-10
-2.06653e-10
-2.94464e-10
-2.85897e-10
1.74219e-11
1.67624e-11
1.61372e-11
1.57339e-11
1.54837e-11
1.53594e-11
1.53535e-11
1.54564e-11
1.56581e-11
1.59498e-11
1.63243e-11
1.67755e-11
1.72984e-11
1.78891e-11
1.85445e-11
1.92622e-11
2.00405e-11
2.08782e-11
2.17744e-11
2.27287e-11
2.37411e-11
2.48118e-11
2.5941e-11
2.71294e-11
2.83778e-11
2.9687e-11
3.10579e-11
3.24917e-11
3.39894e-11
3.55523e-11
3.71815e-11
3.88782e-11
4.06436e-11
4.2479e-11
4.43854e-11
4.6364e-11
4.84157e-11
5.05413e-11
5.27418e-11
5.50175e-11
5.73691e-11
5.97967e-11
6.23002e-11
6.48795e-11
6.75337e-11
7.02621e-11
7.30633e-11
7.59354e-11
7.88761e-11
8.18828e-11
8.49518e-11
8.80792e-11
9.12601e-11
9.44888e-11
9.77588e-11
1.01063e-10
1.04392e-10
1.07736e-10
1.11084e-10
1.14424e-10
1.17742e-10
1.21021e-10
1.24244e-10
1.27392e-10
1.30441e-10
1.33368e-10
1.36146e-10
1.38744e-10
1.41129e-10
1.43264e-10
1.45109e-10
1.4662e-10
1.47746e-10
1.48436e-10
1.48628e-10
1.4826e-10
1.47259e-10
1.45549e-10
1.43046e-10
1.39658e-10
1.35286e-10
1.29821e-10
1.23147e-10
1.15138e-10
1.05659e-10
9.45662e-11
8.17058e-11
6.69164e-11
5.00292e-11
3.08706e-11
9.26594e-12
-1.49542e-11
-4.19538e-11
-7.19082e-11
-1.04905e-10
-1.40333e-10
-1.77426e-10
-2.26368e-10
-3.13752e-10
-3.00291e-10
1.76649e-11
1.70526e-11
1.64671e-11
1.60836e-11
1.58401e-11
1.57131e-11
1.56972e-11
1.57845e-11
1.59666e-11
1.62358e-11
1.65856e-11
1.70105e-11
1.75059e-11
1.8068e-11
1.86939e-11
1.9381e-11
2.01276e-11
2.09323e-11
2.17943e-11
2.27128e-11
2.36876e-11
2.47186e-11
2.5806e-11
2.69502e-11
2.81515e-11
2.94107e-11
3.07284e-11
3.21054e-11
3.35426e-11
3.50407e-11
3.66008e-11
3.82237e-11
3.99102e-11
4.16613e-11
4.34777e-11
4.53601e-11
4.73091e-11
4.93253e-11
5.14089e-11
5.35603e-11
5.57793e-11
5.80657e-11
6.04191e-11
6.28386e-11
6.53233e-11
6.78716e-11
7.04816e-11
7.31511e-11
7.58772e-11
7.86566e-11
8.14853e-11
8.43585e-11
8.7271e-11
9.02164e-11
9.31877e-11
9.61768e-11
9.91744e-11
1.0217e-10
1.05153e-10
1.08108e-10
1.11023e-10
1.1388e-10
1.16662e-10
1.19347e-10
1.21915e-10
1.2434e-10
1.26595e-10
1.2865e-10
1.30471e-10
1.32023e-10
1.33266e-10
1.34155e-10
1.34642e-10
1.34676e-10
1.34198e-10
1.33146e-10
1.31452e-10
1.29042e-10
1.25836e-10
1.21746e-10
1.16678e-10
1.10531e-10
1.03195e-10
9.45545e-11
8.44843e-11
7.28525e-11
5.95202e-11
4.43424e-11
2.71696e-11
7.85004e-12
-1.37661e-11
-3.78208e-11
-6.44486e-11
-9.37953e-11
-1.25919e-10
-1.60159e-10
-1.95708e-10
-2.43081e-10
-3.29742e-10
-3.11926e-10
1.78381e-11
1.72701e-11
1.67215e-11
1.63581e-11
1.61236e-11
1.59972e-11
1.59749e-11
1.60504e-11
1.62164e-11
1.64662e-11
1.6794e-11
1.71947e-11
1.76642e-11
1.81989e-11
1.8796e-11
1.94529e-11
2.0168e-11
2.09397e-11
2.17669e-11
2.2649e-11
2.35854e-11
2.45759e-11
2.56205e-11
2.67192e-11
2.78723e-11
2.90803e-11
3.03434e-11
3.16623e-11
3.30375e-11
3.44696e-11
3.59592e-11
3.7507e-11
3.91134e-11
4.0779e-11
4.25042e-11
4.42895e-11
4.6135e-11
4.8041e-11
5.00073e-11
5.20338e-11
5.41201e-11
5.62656e-11
5.84692e-11
6.07299e-11
6.30461e-11
6.54158e-11
6.78367e-11
7.03061e-11
7.28205e-11
7.53763e-11
7.79688e-11
8.05929e-11
8.32428e-11
8.59116e-11
8.85918e-11
9.12748e-11
9.39509e-11
9.66094e-11
9.9238e-11
1.01823e-10
1.04351e-10
1.06803e-10
1.09162e-10
1.11407e-10
1.13517e-10
1.15465e-10
1.17226e-10
1.18769e-10
1.20062e-10
1.21068e-10
1.21749e-10
1.22062e-10
1.21959e-10
1.2139e-10
1.203e-10
1.18629e-10
1.1631e-10
1.13275e-10
1.09445e-10
1.0474e-10
9.907e-11
9.23409e-11
8.44512e-11
7.52932e-11
6.47527e-11
5.27097e-11
3.90389e-11
2.36108e-11
6.29333e-12
-1.30456e-11
-3.45347e-11
-5.82929e-11
-8.44311e-11
-1.13072e-10
-1.44253e-10
-1.77276e-10
-2.11303e-10
-2.57109e-10
-3.42825e-10
-3.21195e-10
1.79506e-11
1.74226e-11
1.69086e-11
1.65656e-11
1.63416e-11
1.62181e-11
1.61923e-11
1.62589e-11
1.64115e-11
1.66443e-11
1.69523e-11
1.73307e-11
1.77758e-11
1.82843e-11
1.88533e-11
1.94806e-11
2.01643e-11
2.09029e-11
2.16952e-11
2.25404e-11
2.34379e-11
2.43872e-11
2.53881e-11
2.64405e-11
2.75445e-11
2.87001e-11
2.99076e-11
3.11673e-11
3.24795e-11
3.38446e-11
3.52627e-11
3.67344e-11
3.82597e-11
3.9839e-11
4.14724e-11
4.316e-11
4.49016e-11
4.6697e-11
4.8546e-11
5.04478e-11
5.24018e-11
5.44069e-11
5.64617e-11
5.85648e-11
6.07141e-11
6.29073e-11
6.51417e-11
6.74139e-11
6.97203e-11
7.20566e-11
7.44179e-11
7.67985e-11
7.91922e-11
8.15917e-11
8.3989e-11
8.63753e-11
8.87403e-11
9.10731e-11
9.3361e-11
9.55904e-11
9.77461e-11
9.98113e-11
1.01767e-10
1.03594e-10
1.05269e-10
1.06767e-10
1.08063e-10
1.09125e-10
1.09923e-10
1.10421e-10
1.10581e-10
1.10361e-10
1.09716e-10
1.08597e-10
1.06951e-10
1.04721e-10
1.01844e-10
9.82529e-11
9.38765e-11
8.86372e-11
8.24526e-11
7.52344e-11
6.6889e-11
5.73176e-11
4.6416e-11
3.40757e-11
2.0184e-11
4.62572e-12
-1.27154e-11
-3.19545e-11
-5.32019e-11
-7.65577e-11
-1.02114e-10
-1.29975e-10
-1.60162e-10
-1.91952e-10
-2.24483e-10
-2.68723e-10
-3.53304e-10
-3.28359e-10
1.80089e-11
1.7517e-11
1.7036e-11
1.67131e-11
1.65006e-11
1.63818e-11
1.63544e-11
1.64143e-11
1.65558e-11
1.67737e-11
1.70636e-11
1.74214e-11
1.78434e-11
1.83266e-11
1.88684e-11
1.94665e-11
2.01191e-11
2.08247e-11
2.1582e-11
2.23901e-11
2.32483e-11
2.41558e-11
2.51125e-11
2.61179e-11
2.71719e-11
2.82745e-11
2.94256e-11
3.06254e-11
3.18738e-11
3.3171e-11
3.4517e-11
3.59118e-11
3.73556e-11
3.88481e-11
4.03893e-11
4.19789e-11
4.36165e-11
4.53016e-11
4.70334e-11
4.88111e-11
5.06336e-11
5.24994e-11
5.44069e-11
5.63541e-11
5.83387e-11
6.03579e-11
6.24087e-11
6.44874e-11
6.65899e-11
6.87115e-11
7.08469e-11
7.29901e-11
7.51345e-11
7.72725e-11
7.93958e-11
8.1495e-11
8.35599e-11
8.5579e-11
8.75397e-11
8.9428e-11
9.12285e-11
9.29245e-11
9.44975e-11
9.5927e-11
9.7191e-11
9.82653e-11
9.91232e-11
9.97362e-11
1.00073e-10
1.00099e-10
9.97769e-11
9.90674e-11
9.79268e-11
9.63079e-11
9.41602e-11
9.14288e-11
8.80552e-11
8.39761e-11
7.91241e-11
7.34271e-11
6.68083e-11
5.91864e-11
5.04752e-11
4.05846e-11
2.94198e-11
1.68831e-11
2.87376e-12
-1.27105e-11
-2.99721e-11
-4.90111e-11
-6.99224e-11
-9.27903e-11
-1.17691e-10
-1.44717e-10
-1.73874e-10
-2.04422e-10
-2.35483e-10
-2.78162e-10
-3.61439e-10
-3.33626e-10
1.8018e-11
1.75596e-11
1.71098e-11
1.68069e-11
1.66065e-11
1.64934e-11
1.64661e-11
1.65209e-11
1.6653e-11
1.68578e-11
1.71313e-11
1.74697e-11
1.78698e-11
1.83286e-11
1.88439e-11
1.94134e-11
2.00352e-11
2.0708e-11
2.14303e-11
2.22011e-11
2.30197e-11
2.38852e-11
2.47971e-11
2.57551e-11
2.67587e-11
2.78077e-11
2.89019e-11
3.00411e-11
3.12252e-11
3.24541e-11
3.37275e-11
3.50452e-11
3.64071e-11
3.78127e-11
3.92617e-11
4.07535e-11
4.22873e-11
4.38625e-11
4.54779e-11
4.71324e-11
4.88246e-11
5.05526e-11
5.23145e-11
5.4108e-11
5.59304e-11
5.77787e-11
5.96494e-11
6.15385e-11
6.34416e-11
6.53537e-11
6.72691e-11
6.91815e-11
7.1084e-11
7.29687e-11
7.48271e-11
7.66495e-11
7.84255e-11
8.01434e-11
8.17905e-11
8.33527e-11
8.48148e-11
8.61597e-11
8.73693e-11
8.84234e-11
8.93002e-11
8.99758e-11
9.04245e-11
9.06181e-11
9.05261e-11
9.01156e-11
8.93508e-11
8.81933e-11
8.66014e-11
8.45304e-11
8.19321e-11
7.87549e-11
7.49435e-11
7.04388e-11
6.51778e-11
5.90934e-11
5.21149e-11
4.41673e-11
3.51719e-11
2.50467e-11
1.37061e-11
1.0623e-12
-1.29747e-11
-2.84953e-11
-4.55895e-11
-6.43446e-11
-8.4842e-11
-1.07153e-10
-1.31342e-10
-1.57489e-10
-1.85591e-10
-2.14897e-10
-2.44517e-10
-2.8564e-10
-3.67458e-10
-3.37181e-10
1.79823e-11
1.75556e-11
1.71359e-11
1.68525e-11
1.66645e-11
1.6558e-11
1.65318e-11
1.65829e-11
1.6707e-11
1.69001e-11
1.71584e-11
1.74786e-11
1.78578e-11
1.82932e-11
1.87826e-11
1.9324e-11
1.99154e-11
2.05555e-11
2.1243e-11
2.19766e-11
2.27554e-11
2.35787e-11
2.44457e-11
2.53559e-11
2.63087e-11
2.73038e-11
2.83408e-11
2.94192e-11
3.05387e-11
3.1699e-11
3.28997e-11
3.41403e-11
3.54203e-11
3.67392e-11
3.80962e-11
3.94905e-11
4.09213e-11
4.23874e-11
4.38874e-11
4.542e-11
4.69833e-11
4.85754e-11
5.01939e-11
5.18363e-11
5.34995e-11
5.51803e-11
5.68748e-11
5.85787e-11
6.02874e-11
6.19955e-11
6.36971e-11
6.53857e-11
6.7054e-11
6.8694e-11
7.02969e-11
7.1853e-11
7.33516e-11
7.4781e-11
7.61284e-11
7.73798e-11
7.85199e-11
7.9532e-11
8.0398e-11
8.10981e-11
8.1611e-11
8.19134e-11
8.19801e-11
8.17839e-11
8.12954e-11
8.04829e-11
7.93121e-11
7.77462e-11
7.57458e-11
7.32682e-11
7.02682e-11
6.66971e-11
6.25031e-11
5.76312e-11
5.20228e-11
4.56161e-11
3.83459e-11
3.01437e-11
2.09377e-11
1.06538e-11
-7.85162e-13
-1.34578e-11
-2.74441e-11
-4.28241e-11
-5.96766e-11
-7.80777e-11
-9.80976e-11
-1.19797e-10
-1.43229e-10
-1.68466e-10
-1.95497e-10
-2.23565e-10
-2.51772e-10
-2.91345e-10
-3.71565e-10
-3.39187e-10
1.79061e-11
1.75098e-11
1.7119e-11
1.68548e-11
1.66794e-11
1.65799e-11
1.65557e-11
1.66042e-11
1.67215e-11
1.69039e-11
1.71481e-11
1.74512e-11
1.78104e-11
1.82231e-11
1.86874e-11
1.92011e-11
1.97626e-11
2.03704e-11
2.10231e-11
2.17195e-11
2.24587e-11
2.32397e-11
2.40617e-11
2.4924e-11
2.5826e-11
2.67671e-11
2.77466e-11
2.87642e-11
2.98191e-11
3.09109e-11
3.20389e-11
3.32025e-11
3.4401e-11
3.56335e-11
3.68991e-11
3.81968e-11
3.95254e-11
4.08835e-11
4.22696e-11
4.36818e-11
4.51182e-11
4.65766e-11
4.80542e-11
4.95484e-11
5.10557e-11
5.25726e-11
5.40951e-11
5.56186e-11
5.71381e-11
5.86482e-11
6.01425e-11
6.16145e-11
6.30567e-11
6.44609e-11
6.58181e-11
6.71186e-11
6.83515e-11
6.95052e-11
7.0567e-11
7.15227e-11
7.23575e-11
7.30547e-11
7.35967e-11
7.39641e-11
7.4136e-11
7.40898e-11
7.38013e-11
7.32441e-11
7.239e-11
7.12086e-11
6.96674e-11
6.77312e-11
6.53627e-11
6.25219e-11
5.9166e-11
5.52497e-11
5.07247e-11
4.55398e-11
3.96411e-11
3.29717e-11
2.54718e-11
1.70792e-11
7.72883e-12
-2.64633e-12
-1.41153e-11
-2.67483e-11
-4.06162e-11
-5.57897e-11
-7.23379e-11
-9.0327e-11
-1.09818e-10
-1.30861e-10
-1.53502e-10
-1.77806e-10
-2.03758e-10
-2.30594e-10
-2.57417e-10
-2.95449e-10
-3.73943e-10
-3.3979e-10
1.77934e-11
1.74266e-11
1.70638e-11
1.68184e-11
1.66555e-11
1.65635e-11
1.6542e-11
1.65886e-11
1.66999e-11
1.68726e-11
1.71037e-11
1.73905e-11
1.77305e-11
1.81213e-11
1.8561e-11
1.90477e-11
1.95797e-11
2.01555e-11
2.07737e-11
2.14332e-11
2.21329e-11
2.28717e-11
2.36488e-11
2.44633e-11
2.53145e-11
2.62016e-11
2.71238e-11
2.80806e-11
2.90711e-11
3.00946e-11
3.11503e-11
3.22374e-11
3.33548e-11
3.45017e-11
3.56768e-11
3.68788e-11
3.81064e-11
3.9358e-11
4.06316e-11
4.19255e-11
4.32372e-11
4.45643e-11
4.5904e-11
4.72531e-11
4.86081e-11
4.99653e-11
5.13202e-11
5.26683e-11
5.40043e-11
5.53224e-11
5.66164e-11
5.78793e-11
5.91036e-11
6.0281e-11
6.14025e-11
6.24581e-11
6.34372e-11
6.43281e-11
6.51182e-11
6.57936e-11
6.63394e-11
6.67397e-11
6.69769e-11
6.70323e-11
6.68856e-11
6.65151e-11
6.58972e-11
6.50068e-11
6.38168e-11
6.22984e-11
6.04206e-11
5.81503e-11
5.54522e-11
5.22888e-11
4.86202e-11
4.44042e-11
3.95959e-11
3.41483e-11
2.80116e-11
2.11338e-11
1.34607e-11
4.93549e-12
-4.50022e-12
-1.49067e-11
-2.63456e-11
-3.88794e-11
-5.25708e-11
-6.74819e-11
-8.36734e-11
-1.01203e-10
-1.20122e-10
-1.40475e-10
-1.62301e-10
-1.85657e-10
-2.10524e-10
-2.36139e-10
-2.61608e-10
-2.98105e-10
-3.74761e-10
-3.39126e-10
1.7648e-11
1.73099e-11
1.69744e-11
1.67475e-11
1.65971e-11
1.65128e-11
1.64943e-11
1.65397e-11
1.66458e-11
1.68096e-11
1.70284e-11
1.72997e-11
1.76212e-11
1.79907e-11
1.84065e-11
1.88666e-11
1.93696e-11
1.99138e-11
2.04979e-11
2.11208e-11
2.17812e-11
2.2478e-11
2.32104e-11
2.39773e-11
2.47779e-11
2.56113e-11
2.64765e-11
2.73728e-11
2.82993e-11
2.9255e-11
3.0239e-11
3.12501e-11
3.22874e-11
3.33495e-11
3.44351e-11
3.55428e-11
3.66709e-11
3.78175e-11
3.89808e-11
4.01584e-11
4.13478e-11
4.25465e-11
4.37512e-11
4.49588e-11
4.61654e-11
4.73671e-11
4.85594e-11
4.97374e-11
5.08956e-11
5.20283e-11
5.31289e-11
5.41905e-11
5.52053e-11
5.61651e-11
5.70608e-11
5.78826e-11
5.86197e-11
5.92606e-11
5.97929e-11
6.0203e-11
6.04763e-11
6.05971e-11
6.05485e-11
6.03122e-11
5.98687e-11
5.91971e-11
5.82749e-11
5.7078e-11
5.55807e-11
5.37556e-11
5.15735e-11
4.90032e-11
4.60118e-11
4.25641e-11
3.8623e-11
3.41495e-11
2.91022e-11
2.34379e-11
1.71111e-11
1.00744e-11
2.27866e-12
-6.3272e-12
-1.57957e-11
-2.61808e-11
-3.75373e-11
-4.99204e-11
-6.33856e-11
-7.79872e-11
-9.37784e-11
-1.10809e-10
-1.29124e-10
-1.48761e-10
-1.69752e-10
-1.9215e-10
-2.15933e-10
-2.40342e-10
-2.64485e-10
-2.99458e-10
-3.74172e-10
-3.37321e-10
1.74735e-11
1.71638e-11
1.68549e-11
1.66459e-11
1.6508e-11
1.64315e-11
1.64165e-11
1.64611e-11
1.65625e-11
1.6718e-11
1.69252e-11
1.71816e-11
1.74853e-11
1.78343e-11
1.82267e-11
1.86608e-11
1.91352e-11
1.96483e-11
2.01987e-11
2.07853e-11
2.14068e-11
2.20621e-11
2.27501e-11
2.34698e-11
2.42201e-11
2.50002e-11
2.58089e-11
2.66452e-11
2.75082e-11
2.83968e-11
2.93098e-11
3.02459e-11
3.1204e-11
3.21825e-11
3.318e-11
3.41948e-11
3.5225e-11
3.62687e-11
3.73237e-11
3.83875e-11
3.94574e-11
4.05306e-11
4.16038e-11
4.26736e-11
4.3736e-11
4.47867e-11
4.58213e-11
4.68346e-11
4.78212e-11
4.87749e-11
4.96894e-11
5.05575e-11
5.13714e-11
5.2123e-11
5.2803e-11
5.34018e-11
5.39087e-11
5.43125e-11
5.46008e-11
5.47604e-11
5.47771e-11
5.46356e-11
5.43196e-11
5.38114e-11
5.30923e-11
5.21422e-11
5.09396e-11
4.94618e-11
4.76843e-11
4.55814e-11
4.31255e-11
4.02876e-11
3.70368e-11
3.33405e-11
2.91644e-11
2.44725e-11
1.92268e-11
1.33879e-11
6.9145e-12
-2.36393e-13
-8.10914e-12
-1.67495e-11
-2.62045e-11
-3.6522e-11
-4.77505e-11
-5.99388e-11
-7.31356e-11
-8.73884e-11
-1.02744e-10
-1.19244e-10
-1.3693e-10
-1.55831e-10
-1.75974e-10
-1.97411e-10
-2.20114e-10
-2.43331e-10
-2.66178e-10
-2.99637e-10
-3.72322e-10
-3.34494e-10
1.72734e-11
1.6992e-11
1.67091e-11
1.65177e-11
1.63919e-11
1.63233e-11
1.63119e-11
1.63562e-11
1.64534e-11
1.66011e-11
1.67972e-11
1.70394e-11
1.73259e-11
1.76548e-11
1.80244e-11
1.84331e-11
1.88795e-11
1.9362e-11
1.98792e-11
2.043e-11
2.10131e-11
2.16272e-11
2.22713e-11
2.29443e-11
2.36449e-11
2.43722e-11
2.51249e-11
2.5902e-11
2.67023e-11
2.75246e-11
2.83675e-11
2.92297e-11
3.01098e-11
3.10061e-11
3.1917e-11
3.28406e-11
3.37749e-11
3.47178e-11
3.56669e-11
3.66195e-11
3.75729e-11
3.85239e-11
3.94691e-11
4.0405e-11
4.13274e-11
4.2232e-11
4.31141e-11
4.39685e-11
4.47895e-11
4.55711e-11
4.63067e-11
4.69892e-11
4.76109e-11
4.81635e-11
4.86379e-11
4.90246e-11
4.93132e-11
4.94924e-11
4.95504e-11
4.94741e-11
4.92498e-11
4.88628e-11
4.82972e-11
4.75362e-11
4.65618e-11
4.53548e-11
4.3895e-11
4.21606e-11
4.01288e-11
3.77753e-11
3.50745e-11
3.19991e-11
2.85206e-11
2.46089e-11
2.02324e-11
1.53581e-11
9.95134e-12
3.97629e-12
-2.60442e-12
-9.82942e-12
-1.77385e-11
-2.63725e-11
-3.57731e-11
-4.59828e-11
-5.70442e-11
-6.90002e-11
-8.18932e-11
-9.57648e-11
-1.10655e-10
-1.26601e-10
-1.43637e-10
-1.61789e-10
-1.81079e-10
-2.01554e-10
-2.23185e-10
-2.45227e-10
-2.66807e-10
-2.98766e-10
-3.69345e-10
-3.30755e-10
1.70518e-11
1.67986e-11
1.65408e-11
1.63663e-11
1.62524e-11
1.61915e-11
1.6184e-11
1.62281e-11
1.63215e-11
1.64619e-11
1.66473e-11
1.68759e-11
1.71457e-11
1.74552e-11
1.78026e-11
1.81865e-11
1.86053e-11
1.90578e-11
1.95424e-11
2.00579e-11
2.06031e-11
2.11767e-11
2.17775e-11
2.24042e-11
2.30558e-11
2.3731e-11
2.44286e-11
2.51473e-11
2.58858e-11
2.66427e-11
2.74168e-11
2.82063e-11
2.90098e-11
2.98254e-11
3.06514e-11
3.14858e-11
3.23264e-11
3.31708e-11
3.40165e-11
3.48608e-11
3.57007e-11
3.6533e-11
3.73541e-11
3.81602e-11
3.89471e-11
3.97105e-11
4.04454e-11
4.11466e-11
4.18084e-11
4.24247e-11
4.29889e-11
4.34939e-11
4.39319e-11
4.42948e-11
4.45738e-11
4.47592e-11
4.48409e-11
4.4808e-11
4.46489e-11
4.4351e-11
4.3901e-11
4.32847e-11
4.24869e-11
4.14915e-11
4.02813e-11
3.88382e-11
3.7143e-11
3.51752e-11
3.29135e-11
3.03352e-11
2.74163e-11
2.41317e-11
2.04551e-11
1.63587e-11
1.18137e-11
6.7899e-12
1.25601e-12
-4.82044e-12
-1.1473e-11
-1.87362e-11
-2.66456e-11
-3.52372e-11
-4.4548e-11
-5.46151e-11
-6.5476e-11
-7.71681e-11
-8.97281e-11
-1.03192e-10
-1.17595e-10
-1.32968e-10
-1.49341e-10
-1.66735e-10
-1.85169e-10
-2.04686e-10
-2.25255e-10
-2.46142e-10
-2.66484e-10
-2.96959e-10
-3.65368e-10
-3.2621e-10
1.68157e-11
1.65877e-11
1.63534e-11
1.61949e-11
1.60925e-11
1.60394e-11
1.60357e-11
1.60798e-11
1.61697e-11
1.63032e-11
1.64785e-11
1.66939e-11
1.69476e-11
1.72382e-11
1.7564e-11
1.79236e-11
1.83156e-11
1.87386e-11
1.91912e-11
1.96721e-11
2.018e-11
2.07136e-11
2.12718e-11
2.18531e-11
2.24564e-11
2.30804e-11
2.37237e-11
2.43849e-11
2.50627e-11
2.57556e-11
2.6462e-11
2.71803e-11
2.79088e-11
2.86455e-11
2.93885e-11
3.01357e-11
3.08848e-11
3.16333e-11
3.23785e-11
3.31175e-11
3.38472e-11
3.45643e-11
3.52652e-11
3.59458e-11
3.66019e-11
3.72291e-11
3.78223e-11
3.83763e-11
3.88853e-11
3.93432e-11
3.97434e-11
4.00788e-11
4.03419e-11
4.05244e-11
4.06177e-11
4.06125e-11
4.04988e-11
4.0266e-11
3.99028e-11
3.93971e-11
3.87362e-11
3.79063e-11
3.6893e-11
3.56809e-11
3.42538e-11
3.25943e-11
3.06844e-11
2.85051e-11
2.60364e-11
2.32573e-11
2.01456e-11
1.66782e-11
1.28307e-11
8.57799e-12
3.89365e-12
-1.24956e-12
-6.87988e-12
-1.30264e-11
-1.97192e-11
-2.69888e-11
-3.48666e-11
-4.33845e-11
-5.25747e-11
-6.24697e-11
-7.3102e-11
-8.45038e-11
-9.6707e-11
-1.09743e-10
-1.2364e-10
-1.38427e-10
-1.54128e-10
-1.7076e-10
-1.8834e-10
-2.06906e-10
-2.26428e-10
-2.4618e-10
-2.65316e-10
-2.94324e-10
-3.60512e-10
-3.20959e-10
1.6568e-11
1.63619e-11
1.6149e-11
1.60058e-11
1.5915e-11
1.58696e-11
1.58698e-11
1.59143e-11
1.60009e-11
1.61279e-11
1.62935e-11
1.64962e-11
1.67344e-11
1.70066e-11
1.73114e-11
1.76474e-11
1.80131e-11
1.84072e-11
1.88284e-11
1.92754e-11
1.97468e-11
2.02412e-11
2.07575e-11
2.12943e-11
2.18502e-11
2.24239e-11
2.30139e-11
2.36188e-11
2.42372e-11
2.48673e-11
2.55075e-11
2.61562e-11
2.68113e-11
2.7471e-11
2.81332e-11
2.87955e-11
2.94555e-11
3.01107e-11
3.07583e-11
3.13952e-11
3.20182e-11
3.26239e-11
3.32086e-11
3.37681e-11
3.42983e-11
3.47944e-11
3.52514e-11
3.56642e-11
3.60268e-11
3.63332e-11
3.65769e-11
3.67508e-11
3.68474e-11
3.68587e-11
3.67762e-11
3.65908e-11
3.62928e-11
3.5872e-11
3.53175e-11
3.46175e-11
3.37599e-11
3.27317e-11
3.15189e-11
3.01071e-11
2.84807e-11
2.66235e-11
2.45187e-11
2.21484e-11
1.94944e-11
1.6537e-11
1.32559e-11
9.62993e-12
5.63683e-12
1.25365e-12
-3.54336e-12
-8.77877e-12
-1.44778e-11
-2.06665e-11
-2.73712e-11
-3.46192e-11
-4.24377e-11
-5.08547e-11
-5.98981e-11
-6.9596e-11
-7.99762e-11
-9.10665e-11
-1.02894e-10
-1.15485e-10
-1.28865e-10
-1.43057e-10
-1.58081e-10
-1.73952e-10
-1.90683e-10
-2.08309e-10
-2.26798e-10
-2.4544e-10
-2.63399e-10
-2.90961e-10
-3.5489e-10
-3.15098e-10
1.63074e-11
1.61201e-11
1.59283e-11
1.58013e-11
1.57222e-11
1.56848e-11
1.56893e-11
1.57342e-11
1.58179e-11
1.59387e-11
1.60951e-11
1.62855e-11
1.65087e-11
1.67631e-11
1.70475e-11
1.73604e-11
1.77005e-11
1.80665e-11
1.8457e-11
1.88708e-11
1.93064e-11
1.97625e-11
2.02378e-11
2.0731e-11
2.12405e-11
2.1765e-11
2.23029e-11
2.28527e-11
2.34129e-11
2.39817e-11
2.45574e-11
2.51381e-11
2.57219e-11
2.63066e-11
2.689e-11
2.74698e-11
2.80435e-11
2.86082e-11
2.91612e-11
2.96993e-11
3.02193e-11
3.07175e-11