/*--------------------------------*- C++ -*----------------------------------*\
  =========                 |
  \\      /  F ield         | OpenFOAM: The Open Source CFD Toolbox
   \\    /   O peration     | Website:  https://openfoam.org
    \\  /    A nd           | Version:  11
     \\/     M anipulation  |
\*---------------------------------------------------------------------------*/
FoamFile
{
    format      ascii;
    class       volScalarField;
    location    "1340";
    object      p;
}
// * * * * * * * * * * * * * * * * * * * * * * * * * * * * * * * * * * * * * //

dimensions      [0 2 -2 0 0 0 0];

internalField   nonuniform List<scalar> 
10000
(
3.2817e-13
3.19547e-13
3.30211e-13
3.54076e-13
3.81946e-13
4.11705e-13
4.43154e-13
4.76221e-13
5.1088e-13
5.47175e-13
5.85191e-13
6.25028e-13
6.66794e-13
7.10606e-13
7.56581e-13
8.04839e-13
8.55505e-13
9.08703e-13
9.64563e-13
1.02321e-12
1.08479e-12
1.14943e-12
1.21726e-12
1.28844e-12
1.36311e-12
1.4414e-12
1.52348e-12
1.60949e-12
1.69959e-12
1.79394e-12
1.8927e-12
1.99602e-12
2.10407e-12
2.21702e-12
2.33503e-12
2.45828e-12
2.58691e-12
2.72111e-12
2.86104e-12
3.00686e-12
3.15874e-12
3.31684e-12
3.48131e-12
3.6523e-12
3.82996e-12
4.01443e-12
4.20584e-12
4.4043e-12
4.60992e-12
4.82281e-12
5.04303e-12
5.27065e-12
5.50572e-12
5.74824e-12
5.99821e-12
6.2556e-12
6.52034e-12
6.79232e-12
7.07139e-12
7.35737e-12
7.65e-12
7.94899e-12
8.25398e-12
8.56452e-12
8.88011e-12
9.20015e-12
9.52393e-12
9.85065e-12
1.01794e-11
1.05091e-11
1.08385e-11
1.11663e-11
1.14909e-11
1.18105e-11
1.21233e-11
1.24268e-11
1.27186e-11
1.29959e-11
1.32554e-11
1.34935e-11
1.37063e-11
1.38892e-11
1.4037e-11
1.41438e-11
1.42032e-11
1.42074e-11
1.41474e-11
1.4012e-11
1.37829e-11
1.34383e-11
1.30348e-11
1.25684e-11
1.19571e-11
1.12005e-11
1.02937e-11
9.11095e-12
7.52903e-12
5.53127e-12
3.03051e-12
2.08517e-13
6.25678e-13
5.91278e-13
5.69524e-13
5.77053e-13
5.97615e-13
6.24657e-13
6.56405e-13
6.91929e-13
7.30636e-13
7.72216e-13
8.16533e-13
8.63546e-13
9.13273e-13
9.65766e-13
1.0211e-12
1.07938e-12
1.14071e-12
1.20522e-12
1.27302e-12
1.34425e-12
1.41906e-12
1.4976e-12
1.58e-12
1.66644e-12
1.75706e-12
1.85204e-12
1.95154e-12
2.05573e-12
2.16478e-12
2.27888e-12
2.39819e-12
2.5229e-12
2.65319e-12
2.78924e-12
2.93125e-12
3.07938e-12
3.23383e-12
3.39478e-12
3.5624e-12
3.73688e-12
3.91839e-12
4.10709e-12
4.30315e-12
4.50673e-12
4.71797e-12
4.93701e-12
5.16397e-12
5.39897e-12
5.6421e-12
5.89343e-12
6.15302e-12
6.42091e-12
6.6971e-12
6.98156e-12
7.27424e-12
7.57505e-12
7.88384e-12
8.20044e-12
8.5246e-12
8.85603e-12
9.19436e-12
9.53918e-12
9.88995e-12
1.02461e-11
1.06069e-11
1.09715e-11
1.13391e-11
1.17085e-11
1.20785e-11
1.24478e-11
1.28147e-11
1.31776e-11
1.35344e-11
1.38828e-11
1.42203e-11
1.45441e-11
1.4851e-11
1.51374e-11
1.53993e-11
1.56322e-11
1.58311e-11
1.59902e-11
1.61033e-11
1.61633e-11
1.61619e-11
1.60903e-11
1.59381e-11
1.56936e-11
1.53423e-11
1.48754e-11
1.43268e-11
1.36271e-11
1.26894e-11
1.15167e-11
1.01273e-11
8.52819e-12
6.63372e-12
4.13747e-12
7.02761e-13
-2.30707e-12
7.77003e-13
7.28061e-13
6.8491e-13
6.72126e-13
6.75442e-13
6.87748e-13
7.06662e-13
7.30762e-13
7.5905e-13
7.90905e-13
8.25955e-13
8.63976e-13
9.04844e-13
9.48499e-13
9.94927e-13
1.04415e-12
1.0962e-12
1.15115e-12
1.20907e-12
1.27005e-12
1.33417e-12
1.40156e-12
1.47231e-12
1.54654e-12
1.62438e-12
1.70594e-12
1.79135e-12
1.88074e-12
1.97425e-12
2.07201e-12
2.17417e-12
2.28085e-12
2.39219e-12
2.50835e-12
2.62945e-12
2.75563e-12
2.88704e-12
3.02381e-12
3.16606e-12
3.31394e-12
3.46756e-12
3.62704e-12
3.79249e-12
3.96403e-12
4.14173e-12
4.3257e-12
4.51599e-12
4.71267e-12
4.91579e-12
5.12536e-12
5.34139e-12
5.56387e-12
5.79274e-12
6.02794e-12
6.26936e-12
6.51687e-12
6.77028e-12
7.02936e-12
7.29386e-12
7.56343e-12
7.8377e-12
8.11621e-12
8.39844e-12
8.68377e-12
8.9715e-12
9.26084e-12
9.55088e-12
9.84058e-12
1.01288e-11
1.04141e-11
1.06952e-11
1.09703e-11
1.12376e-11
1.14949e-11
1.17399e-11
1.197e-11
1.21823e-11
1.23735e-11
1.25399e-11
1.26775e-11
1.27818e-11
1.28476e-11
1.28693e-11
1.28407e-11
1.27547e-11
1.26037e-11
1.23793e-11
1.20725e-11
1.16739e-11
1.11772e-11
1.0589e-11
9.88776e-12
9.01583e-12
7.94449e-12
6.64905e-12
5.08368e-12
3.19136e-12
7.45056e-13
-2.56043e-12
-4.72048e-12
9.09152e-13
8.55634e-13
8.08142e-13
7.87403e-13
7.82152e-13
7.86616e-13
7.9861e-13
8.1665e-13
8.39616e-13
8.66753e-13
8.97563e-13
9.31719e-13
9.69005e-13
1.00929e-12
1.0525e-12
1.0986e-12
1.14758e-12
1.19949e-12
1.25435e-12
1.31222e-12
1.37318e-12
1.43729e-12
1.50466e-12
1.57538e-12
1.64953e-12
1.72723e-12
1.80859e-12
1.89371e-12
1.98271e-12
2.07571e-12
2.17282e-12
2.27416e-12
2.37985e-12
2.49e-12
2.60474e-12
2.72419e-12
2.84844e-12
2.97763e-12
3.11185e-12
3.2512e-12
3.39579e-12
3.54571e-12
3.70103e-12
3.86184e-12
4.0282e-12
4.20017e-12
4.37777e-12
4.56105e-12
4.74999e-12
4.94461e-12
5.14486e-12
5.35068e-12
5.562e-12
5.7787e-12
6.00064e-12
6.22764e-12
6.45947e-12
6.69587e-12
6.93652e-12
7.18105e-12
7.42903e-12
7.67995e-12
7.93325e-12
8.18827e-12
8.44426e-12
8.70038e-12
8.95567e-12
9.20905e-12
9.45931e-12
9.70509e-12
9.94487e-12
1.01769e-11
1.03994e-11
1.06101e-11
1.08067e-11
1.09866e-11
1.11468e-11
1.12841e-11
1.13947e-11
1.14748e-11
1.15199e-11
1.15249e-11
1.14844e-11
1.13923e-11
1.12419e-11
1.10259e-11
1.07364e-11
1.03648e-11
9.90211e-12
9.33961e-12
8.67056e-12
7.87822e-12
6.92935e-12
5.79542e-12
4.44825e-12
2.85978e-12
9.99057e-13
-1.38751e-12
-4.73968e-12
-6.29359e-12
1.02453e-12
9.71478e-13
9.24704e-13
9.00919e-13
8.91169e-13
8.91039e-13
8.98745e-13
9.12926e-13
9.32488e-13
9.56648e-13
9.84857e-13
1.01673e-12
1.05201e-12
1.0905e-12
1.13209e-12
1.17672e-12
1.22435e-12
1.27497e-12
1.32861e-12
1.3853e-12
1.44508e-12
1.50803e-12
1.5742e-12
1.64369e-12
1.71657e-12
1.79293e-12
1.87286e-12
1.95647e-12
2.04386e-12
2.13511e-12
2.23035e-12
2.32966e-12
2.43316e-12
2.54095e-12
2.65313e-12
2.76979e-12
2.89104e-12
3.01697e-12
3.14767e-12
3.28322e-12
3.4237e-12
3.56917e-12
3.71971e-12
3.87536e-12
4.03616e-12
4.20215e-12
4.37332e-12
4.54969e-12
4.73123e-12
4.9179e-12
5.10963e-12
5.30635e-12
5.50792e-12
5.7142e-12
5.92502e-12
6.14015e-12
6.35932e-12
6.58223e-12
6.80852e-12
7.03777e-12
7.2695e-12
7.50317e-12
7.73814e-12
7.97371e-12
8.20908e-12
8.44334e-12
8.67549e-12
8.90439e-12
9.12876e-12
9.34718e-12
9.55807e-12
9.75967e-12
9.94999e-12
1.01269e-11
1.02879e-11
1.04303e-11
1.05511e-11
1.06471e-11
1.07146e-11
1.07495e-11
1.07473e-11
1.07031e-11
1.06115e-11
1.04663e-11
1.02612e-11
9.98877e-12
9.64127e-12
9.2102e-12
8.68632e-12
8.05974e-12
7.31966e-12
6.45001e-12
5.42787e-12
4.23002e-12
2.83436e-12
1.23134e-12
-5.89328e-13
-2.91548e-12
-6.37301e-12
-7.35033e-12
1.1235e-12
1.0729e-12
1.02786e-12
1.00268e-12
9.90073e-13
9.86632e-13
9.90968e-13
1.00191e-12
1.01845e-12
1.03983e-12
1.06551e-12
1.09508e-12
1.12823e-12
1.16476e-12
1.20452e-12
1.24741e-12
1.29337e-12
1.34238e-12
1.39444e-12
1.44955e-12
1.50775e-12
1.56908e-12
1.6336e-12
1.70137e-12
1.77246e-12
1.84694e-12
1.92489e-12
2.0064e-12
2.09155e-12
2.18043e-12
2.27312e-12
2.36971e-12
2.4703e-12
2.57497e-12
2.6838e-12
2.79689e-12
2.91429e-12
3.0361e-12
3.16238e-12
3.2932e-12
3.42861e-12
3.56867e-12
3.7134e-12
3.86285e-12
4.01702e-12
4.17593e-12
4.33955e-12
4.50786e-12
4.68081e-12
4.85834e-12
5.04034e-12
5.22669e-12
5.41726e-12
5.61185e-12
5.81026e-12
6.01222e-12
6.21744e-12
6.42556e-12
6.6362e-12
6.8489e-12
7.06312e-12
7.27829e-12
7.49374e-12
7.70871e-12
7.92237e-12
8.13376e-12
8.34183e-12
8.54539e-12
8.74314e-12
8.93362e-12
9.11518e-12
9.28604e-12
9.44418e-12
9.58739e-12
9.71323e-12
9.81897e-12
9.90162e-12
9.95789e-12
9.98411e-12
9.97627e-12
9.92994e-12
9.84027e-12
9.70192e-12
9.50902e-12
9.25519e-12
8.93344e-12
8.53616e-12
8.05507e-12
7.48115e-12
6.80446e-12
6.01384e-12
5.09511e-12
4.03079e-12
2.80245e-12
1.39369e-12
-1.92929e-13
-1.95102e-12
-4.18442e-12
-7.63432e-12
-8.20155e-12
1.2108e-12
1.16316e-12
1.12025e-12
1.09469e-12
1.08036e-12
1.0746e-12
1.07634e-12
1.08462e-12
1.09855e-12
1.11744e-12
1.14076e-12
1.16809e-12
1.19914e-12
1.23366e-12
1.27151e-12
1.31255e-12
1.3567e-12
1.40393e-12
1.45421e-12
1.50753e-12
1.56392e-12
1.62339e-12
1.68599e-12
1.75177e-12
1.82078e-12
1.89308e-12
1.96873e-12
2.04781e-12
2.13039e-12
2.21653e-12
2.30631e-12
2.39981e-12
2.4971e-12
2.59825e-12
2.70333e-12
2.8124e-12
2.92553e-12
3.04277e-12
3.16418e-12
3.28981e-12
3.41968e-12
3.55382e-12
3.69227e-12
3.83501e-12
3.98205e-12
4.13337e-12
4.28893e-12
4.44867e-12
4.61253e-12
4.7804e-12
4.95216e-12
5.12766e-12
5.30674e-12
5.48916e-12
5.6747e-12
5.86306e-12
6.05391e-12
6.24686e-12
6.4415e-12
6.63732e-12
6.83378e-12
7.03024e-12
7.22601e-12
7.4203e-12
7.61223e-12
7.80083e-12
7.98501e-12
8.16354e-12
8.3351e-12
8.49819e-12
8.65117e-12
8.7922e-12
8.91928e-12
9.03018e-12
9.12245e-12
9.1934e-12
9.24004e-12
9.25911e-12
9.24703e-12
9.19984e-12
9.11324e-12
8.98248e-12
8.80239e-12
8.56734e-12
8.27118e-12
7.90721e-12
7.46818e-12
6.9462e-12
6.33268e-12
5.61825e-12
4.79249e-12
3.84337e-12
2.75724e-12
1.51953e-12
1.18323e-13
-1.43622e-12
-3.12788e-12
-5.2765e-12
-8.69991e-12
-9.01337e-12
1.28975e-12
1.24502e-12
1.20435e-12
1.17905e-12
1.16383e-12
1.15652e-12
1.15636e-12
1.16254e-12
1.17431e-12
1.19105e-12
1.21227e-12
1.23757e-12
1.26665e-12
1.29927e-12
1.33525e-12
1.37447e-12
1.41683e-12
1.46227e-12
1.51074e-12
1.56225e-12
1.61677e-12
1.67434e-12
1.73496e-12
1.79869e-12
1.86555e-12
1.93559e-12
2.00888e-12
2.08545e-12
2.16538e-12
2.24871e-12
2.33551e-12
2.42584e-12
2.51975e-12
2.61731e-12
2.71856e-12
2.82356e-12
2.93235e-12
3.04498e-12
3.16147e-12
3.28186e-12
3.40615e-12
3.53437e-12
3.66651e-12
3.80256e-12
3.94249e-12
4.08625e-12
4.23379e-12
4.38504e-12
4.53988e-12
4.69821e-12
4.85987e-12
5.02469e-12
5.19247e-12
5.36297e-12
5.53591e-12
5.71097e-12
5.88781e-12
6.06601e-12
6.2451e-12
6.42458e-12
6.60385e-12
6.78227e-12
6.9591e-12
7.13353e-12
7.30466e-12
7.47149e-12
7.6329e-12
7.78766e-12
7.93441e-12
8.07165e-12
8.19772e-12
8.3108e-12
8.40887e-12
8.48971e-12
8.55092e-12
8.5898e-12
8.60345e-12
8.58865e-12
8.54189e-12
8.45935e-12
8.33684e-12
8.16978e-12
7.95323e-12
7.68177e-12
7.34956e-12
6.95026e-12
6.47704e-12
5.9225e-12
5.27868e-12
4.53697e-12
3.68806e-12
2.72185e-12
1.62752e-12
3.93557e-13
-9.88577e-13
-2.50375e-12
-4.13071e-12
-6.20803e-12
-9.61566e-12
-9.71435e-12
1.36207e-12
1.32005e-12
1.28155e-12
1.25685e-12
1.24125e-12
1.23297e-12
1.23142e-12
1.23596e-12
1.24595e-12
1.26085e-12
1.28021e-12
1.30367e-12
1.33092e-12
1.36173e-12
1.39593e-12
1.43337e-12
1.47395e-12
1.51761e-12
1.56428e-12
1.61394e-12
1.66658e-12
1.72219e-12
1.7808e-12
1.84242e-12
1.90709e-12
1.97483e-12
2.04569e-12
2.1197e-12
2.19692e-12
2.27739e-12
2.36115e-12
2.44826e-12
2.53875e-12
2.63267e-12
2.73006e-12
2.83095e-12
2.93537e-12
3.04335e-12
3.1549e-12
3.27004e-12
3.38877e-12
3.51107e-12
3.63693e-12
3.76631e-12
3.89918e-12
4.03546e-12
4.17507e-12
4.31792e-12
4.46389e-12
4.61283e-12
4.76457e-12
4.91892e-12
5.07565e-12
5.23449e-12
5.39515e-12
5.55729e-12
5.72053e-12
5.88442e-12
6.04849e-12
6.21219e-12
6.37492e-12
6.536e-12
6.69468e-12
6.85013e-12
7.00143e-12
7.14755e-12
7.28737e-12
7.41964e-12
7.54301e-12
7.65597e-12
7.75685e-12
7.84386e-12
7.91498e-12
7.96805e-12
8.00066e-12
8.0102e-12
7.99382e-12
7.9484e-12
7.87052e-12
7.7565e-12
7.6023e-12
7.40355e-12
7.15553e-12
6.85312e-12
6.49079e-12
6.06262e-12
5.56222e-12
4.98278e-12
4.31703e-12
3.55723e-12
2.69525e-12
1.72263e-12
6.30728e-13
-5.8965e-13
-1.94452e-12
-3.41531e-12
-4.97766e-12
-6.9854e-12
-1.03619e-11
-1.02611e-11
1.42884e-12
1.38927e-12
1.35278e-12
1.32885e-12
1.31321e-12
1.30433e-12
1.30177e-12
1.30502e-12
1.31355e-12
1.32687e-12
1.34458e-12
1.36635e-12
1.3919e-12
1.421e-12
1.45348e-12
1.48919e-12
1.52802e-12
1.56989e-12
1.61475e-12
1.66255e-12
1.71328e-12
1.76691e-12
1.82346e-12
1.88294e-12
1.94536e-12
2.01074e-12
2.07912e-12
2.15052e-12
2.22498e-12
2.30253e-12
2.3832e-12
2.46703e-12
2.55405e-12
2.64428e-12
2.73776e-12
2.8345e-12
2.93452e-12
3.03782e-12
3.14442e-12
3.2543e-12
3.36745e-12
3.48385e-12
3.60345e-12
3.7262e-12
3.85205e-12
3.98091e-12
4.11268e-12
4.24724e-12
4.38445e-12
4.52415e-12
4.66615e-12
4.81024e-12
4.95615e-12
5.10361e-12
5.25231e-12
5.40187e-12
5.5519e-12
5.70194e-12
5.85149e-12
5.99998e-12
6.14679e-12
6.29123e-12
6.43253e-12
6.56984e-12
6.70224e-12
6.8287e-12
6.94807e-12
7.05913e-12
7.1605e-12
7.25069e-12
7.32807e-12
7.39083e-12
7.43701e-12
7.46448e-12
7.4709e-12
7.45372e-12
7.41016e-12
7.33722e-12
7.23161e-12
7.08979e-12
6.90791e-12
6.68182e-12
6.40705e-12
6.07878e-12
5.69186e-12
5.24076e-12
4.71963e-12
4.12222e-12
3.44199e-12
2.67209e-12
1.80548e-12
8.35124e-13
-2.45968e-13
-1.4452e-12
-2.76676e-12
-4.18963e-12
-5.68738e-12
-7.62519e-12
-1.09573e-11
-1.0681e-11
1.49079e-12
1.45341e-12
1.41878e-12
1.3957e-12
1.38021e-12
1.37099e-12
1.36771e-12
1.36996e-12
1.37726e-12
1.38922e-12
1.40546e-12
1.4257e-12
1.44967e-12
1.47715e-12
1.50797e-12
1.54198e-12
1.57909e-12
1.6192e-12
1.66224e-12
1.70818e-12
1.75697e-12
1.8086e-12
1.86307e-12
1.92036e-12
1.9805e-12
2.04349e-12
2.10934e-12
2.17809e-12
2.24974e-12
2.32433e-12
2.40187e-12
2.48238e-12
2.56589e-12
2.6524e-12
2.74194e-12
2.83451e-12
2.93011e-12
3.02873e-12
3.13037e-12
3.235e-12
3.34259e-12
3.4531e-12
3.56648e-12
3.68267e-12
3.80157e-12
3.92309e-12
4.04712e-12
4.17351e-12
4.30212e-12
4.43276e-12
4.56522e-12
4.69926e-12
4.83462e-12
4.97101e-12
5.10807e-12
5.24543e-12
5.38268e-12
5.51933e-12
5.65488e-12
5.78874e-12
5.92028e-12
6.0488e-12
6.17351e-12
6.29356e-12
6.40803e-12
6.51587e-12
6.61596e-12
6.70706e-12
6.78782e-12
6.85677e-12
6.91228e-12
6.95261e-12
6.97583e-12
6.97986e-12
6.96242e-12
6.92105e-12
6.85309e-12
6.75562e-12
6.62553e-12
6.45942e-12
6.25366e-12
6.00433e-12
5.70722e-12
5.35785e-12
4.95142e-12
4.48286e-12
3.94679e-12
3.33759e-12
2.64941e-12
1.87624e-12
1.01201e-12
5.08764e-14
-1.01284e-12
-2.1852e-12
-3.46903e-12
-4.84165e-12
-6.27519e-12
-8.14297e-12
-1.1421e-11
-1.09941e-11
1.54845e-12
1.51305e-12
1.48012e-12
1.4579e-12
1.4427e-12
1.43333e-12
1.42953e-12
1.43098e-12
1.43726e-12
1.44803e-12
1.46297e-12
1.48181e-12
1.5043e-12
1.53024e-12
1.55947e-12
1.59185e-12
1.62726e-12
1.66563e-12
1.70687e-12
1.75093e-12
1.79779e-12
1.8474e-12
1.89976e-12
1.95485e-12
2.01268e-12
2.07324e-12
2.13655e-12
2.2026e-12
2.27142e-12
2.34302e-12
2.4174e-12
2.49458e-12
2.57455e-12
2.65733e-12
2.74292e-12
2.83131e-12
2.92249e-12
3.01643e-12
3.11313e-12
3.21253e-12
3.3146e-12
3.41929e-12
3.52651e-12
3.63619e-12
3.74824e-12
3.86254e-12
3.97895e-12
4.09733e-12
4.21751e-12
4.33928e-12
4.46242e-12
4.58668e-12
4.71178e-12
4.8374e-12
4.96319e-12
5.08876e-12
5.21367e-12
5.33744e-12
5.45954e-12
5.57938e-12
5.69632e-12
5.80964e-12
5.91857e-12
6.02226e-12
6.11976e-12
6.21005e-12
6.29201e-12
6.36443e-12
6.42597e-12
6.47517e-12
6.51047e-12
6.53015e-12
6.53234e-12
6.51502e-12
6.476e-12
6.41291e-12
6.32319e-12
6.20408e-12
6.05259e-12
5.86553e-12
5.63947e-12
5.37074e-12
5.0554e-12
4.6893e-12
4.26803e-12
3.78693e-12
3.24114e-12
2.62561e-12
1.93514e-12
1.16447e-12
3.08429e-13
-6.37885e-13
-1.6791e-12
-2.82022e-12
-4.06313e-12
-5.38396e-12
-6.75393e-12
-8.55168e-12
-1.17672e-11
-1.12124e-11
1.60222e-12
1.56861e-12
1.53726e-12
1.5159e-12
1.50105e-12
1.49165e-12
1.4875e-12
1.4883e-12
1.49373e-12
1.50346e-12
1.51723e-12
1.53477e-12
1.55588e-12
1.58037e-12
1.60807e-12
1.63886e-12
1.67262e-12
1.70926e-12
1.74872e-12
1.79092e-12
1.83584e-12
1.88343e-12
1.93367e-12
1.98655e-12
2.04205e-12
2.10017e-12
2.16091e-12
2.22426e-12
2.29023e-12
2.35882e-12
2.43003e-12
2.50385e-12
2.58029e-12
2.65934e-12
2.74098e-12
2.8252e-12
2.91197e-12
3.00127e-12
3.09305e-12
3.18727e-12
3.28388e-12
3.38279e-12
3.48394e-12
3.58721e-12
3.69252e-12
3.79972e-12
3.90867e-12
4.0192e-12
4.13114e-12
4.24426e-12
4.35833e-12
4.47308e-12
4.58822e-12
4.70343e-12
4.81832e-12
4.93252e-12
5.04556e-12
5.15696e-12
5.26617e-12
5.37262e-12
5.47564e-12
5.57452e-12
5.66849e-12
5.75669e-12
5.83821e-12
5.91201e-12
5.97701e-12
6.032e-12
6.07567e-12
6.10663e-12
6.12331e-12
6.12408e-12
6.10712e-12
6.07048e-12
6.01207e-12
5.92962e-12
5.8207e-12
5.68267e-12
5.51272e-12
5.30785e-12
5.06484e-12
4.78026e-12
4.45048e-12
4.07167e-12
3.63978e-12
3.15058e-12
2.59969e-12
1.98259e-12
1.2947e-12
5.31441e-13
-3.11628e-13
-1.2386e-12
-2.25326e-12
-3.35984e-12
-4.55947e-12
-5.82754e-12
-7.13471e-12
-8.8624e-12
-1.20077e-11
-1.13453e-11
1.65241e-12
1.62043e-12
1.59056e-12
1.57003e-12
1.55559e-12
1.54625e-12
1.54184e-12
1.54213e-12
1.54683e-12
1.55565e-12
1.56835e-12
1.58471e-12
1.60453e-12
1.62763e-12
1.65387e-12
1.68312e-12
1.71526e-12
1.75021e-12
1.78789e-12
1.82825e-12
1.87124e-12
1.9168e-12
1.96493e-12
2.01559e-12
2.06876e-12
2.12443e-12
2.18259e-12
2.24323e-12
2.30635e-12
2.37193e-12
2.43996e-12
2.51044e-12
2.58335e-12
2.65867e-12
2.73638e-12
2.81645e-12
2.89885e-12
2.98353e-12
3.07045e-12
3.15955e-12
3.25075e-12
3.34398e-12
3.43914e-12
3.53613e-12
3.63481e-12
3.73506e-12
3.83671e-12
3.93959e-12
4.04349e-12
4.14819e-12
4.25345e-12
4.35899e-12
4.4645e-12
4.56964e-12
4.67404e-12
4.7773e-12
4.87895e-12
4.9785e-12
5.07541e-12
5.16909e-12
5.25888e-12
5.34407e-12
5.4239e-12
5.49752e-12
5.56401e-12
5.62239e-12
5.67156e-12
5.71036e-12
5.73752e-12
5.75166e-12
5.75131e-12
5.73485e-12
5.70055e-12
5.64656e-12
5.57086e-12
5.47131e-12
5.34558e-12
5.19121e-12
5.00556e-12
4.7858e-12
4.52895e-12
4.23182e-12
3.89108e-12
3.5032e-12
3.0645e-12
2.57116e-12
2.01925e-12
1.40474e-12
7.23604e-13
-2.81377e-14
-8.54282e-13
-1.75825e-12
-2.74318e-12
-3.81267e-12
-4.9673e-12
-6.18204e-12
-7.42728e-12
-9.08489e-12
-1.21529e-11
-1.1401e-11
1.69928e-12
1.66882e-12
1.64031e-12
1.6206e-12
1.60659e-12
1.59736e-12
1.59279e-12
1.59266e-12
1.59672e-12
1.60473e-12
1.61647e-12
1.63173e-12
1.65034e-12
1.67212e-12
1.69695e-12
1.7247e-12
1.75527e-12
1.78856e-12
1.8245e-12
1.86303e-12
1.9041e-12
1.94765e-12
1.99367e-12
2.04211e-12
2.09295e-12
2.14617e-12
2.20176e-12
2.2597e-12
2.31996e-12
2.38253e-12
2.4474e-12
2.51455e-12
2.58394e-12
2.65556e-12
2.72936e-12
2.80532e-12
2.88339e-12
2.96351e-12
3.04563e-12
3.12967e-12
3.21556e-12
3.3032e-12
3.39249e-12
3.4833e-12
3.57551e-12
3.66897e-12
3.7635e-12
3.85891e-12
3.955e-12
4.05154e-12
4.14826e-12
4.24489e-12
4.3411e-12
4.43655e-12
4.53087e-12
4.62363e-12
4.71438e-12
4.80262e-12
4.88781e-12
4.96935e-12
5.0466e-12
5.11886e-12
5.18537e-12
5.24529e-12
5.29772e-12
5.3417e-12
5.37617e-12
5.4e-12
5.41195e-12
5.41069e-12
5.3948e-12
5.36274e-12
5.31286e-12
5.24338e-12
5.1524e-12
5.03787e-12
4.89763e-12
4.72934e-12
4.53055e-12
4.29863e-12
4.03081e-12
3.72416e-12
3.37561e-12
2.98195e-12
2.53986e-12
2.04589e-12
1.49652e-12
8.88195e-13
2.17377e-13
-5.19389e-13
-1.32535e-12
-2.20338e-12
-3.15607e-12
-4.18651e-12
-5.29491e-12
-6.45603e-12
-7.64026e-12
-9.22776e-12
-1.22119e-11
-1.13867e-11
1.74305e-12
1.71399e-12
1.68678e-12
1.66786e-12
1.65429e-12
1.64522e-12
1.64053e-12
1.64006e-12
1.64357e-12
1.65086e-12
1.66171e-12
1.67595e-12
1.69341e-12
1.71394e-12
1.73742e-12
1.76372e-12
1.79275e-12
1.82442e-12
1.85864e-12
1.89536e-12
1.93453e-12
1.97609e-12
2.02001e-12
2.06624e-12
2.11477e-12
2.16556e-12
2.21858e-12
2.27382e-12
2.33124e-12
2.39083e-12
2.45255e-12
2.51638e-12
2.58229e-12
2.65024e-12
2.72018e-12
2.79207e-12
2.86586e-12
2.94149e-12
3.01888e-12
3.09795e-12
3.17861e-12
3.26077e-12
3.34431e-12
3.42909e-12
3.51498e-12
3.60181e-12
3.68941e-12
3.77758e-12
3.8661e-12
3.95473e-12
4.0432e-12
4.13123e-12
4.21849e-12
4.30463e-12
4.38927e-12
4.47199e-12
4.55233e-12
4.6298e-12
4.70385e-12
4.7739e-12
4.83931e-12
4.89938e-12
4.95337e-12
5.00046e-12
5.03979e-12
5.07039e-12
5.09126e-12
5.10128e-12
5.09929e-12
5.08399e-12
5.05403e-12
5.00793e-12
4.94413e-12
4.86094e-12
4.75656e-12
4.62908e-12
4.47646e-12
4.29653e-12
4.08698e-12
3.84541e-12
3.56925e-12
3.25583e-12
2.90234e-12
2.50587e-12
2.06342e-12
1.5719e-12
1.02819e-12
4.29145e-13
-2.28332e-13
-9.47233e-13
-1.73034e-12
-2.58006e-12
-3.49853e-12
-4.48847e-12
-5.54975e-12
-6.65719e-12
-7.78134e-12
-9.29871e-12
-1.2193e-11
-1.13089e-11
1.7839e-12
1.75618e-12
1.73018e-12
1.71202e-12
1.6989e-12
1.69001e-12
1.68526e-12
1.68451e-12
1.68754e-12
1.69416e-12
1.70419e-12
1.71748e-12
1.73386e-12
1.7532e-12
1.77537e-12
1.80027e-12
1.8278e-12
1.85788e-12
1.89042e-12
1.92536e-12
1.96265e-12
2.00224e-12
2.04408e-12
2.08813e-12
2.13435e-12
2.18272e-12
2.2332e-12
2.28576e-12
2.34037e-12
2.39699e-12
2.4556e-12
2.51615e-12
2.57861e-12
2.64293e-12
2.70906e-12
2.77695e-12
2.84652e-12
2.91772e-12
2.99046e-12
3.06466e-12
3.14021e-12
3.21701e-12
3.29492e-12
3.37382e-12
3.45355e-12
3.53395e-12
3.61482e-12
3.69596e-12
3.77715e-12
3.85815e-12
3.93867e-12
4.01842e-12
4.09708e-12
4.1743e-12
4.24969e-12
4.32282e-12
4.39326e-12
4.46049e-12
4.52399e-12
4.58318e-12
4.63742e-12
4.68604e-12
4.72831e-12
4.76344e-12
4.79057e-12
4.80879e-12
4.81712e-12
4.81449e-12
4.79977e-12
4.77174e-12
4.7291e-12
4.67046e-12
4.59432e-12
4.4991e-12
4.38312e-12
4.24457e-12
4.08156e-12
3.89208e-12
3.67399e-12
3.42508e-12
3.14299e-12
2.82529e-12
2.46943e-12
2.07279e-12
1.63267e-12
1.14631e-12
6.1096e-13
2.38436e-14
-6.17739e-13
-1.31638e-12
-2.07444e-12
-2.89395e-12
-3.77669e-12
-4.72503e-12
-5.73861e-12
-6.79246e-12
-7.85748e-12
-9.30473e-12
-1.21035e-11
-1.11736e-11
1.82202e-12
1.79554e-12
1.77071e-12
1.75328e-12
1.74061e-12
1.73192e-12
1.72714e-12
1.72615e-12
1.72875e-12
1.73477e-12
1.74404e-12
1.75643e-12
1.77179e-12
1.78998e-12
1.81091e-12
1.83445e-12
1.86053e-12
1.88905e-12
1.91994e-12
1.95313e-12
1.98858e-12
2.02621e-12
2.066e-12
2.10788e-12
2.15183e-12
2.19781e-12
2.24577e-12
2.29568e-12
2.3475e-12
2.4012e-12
2.45672e-12
2.51404e-12
2.5731e-12
2.63384e-12
2.69622e-12
2.76016e-12
2.82561e-12
2.89246e-12
2.96065e-12
3.03008e-12
3.10063e-12
3.17219e-12
3.24463e-12
3.31781e-12
3.39155e-12
3.4657e-12
3.54006e-12
3.61441e-12
3.68852e-12
3.76216e-12
3.83503e-12
3.90684e-12
3.97726e-12
4.04594e-12
4.1125e-12
4.17651e-12
4.23753e-12
4.29507e-12
4.3486e-12
4.39755e-12
4.4413e-12
4.4792e-12
4.51053e-12
4.53453e-12
4.55037e-12
4.55717e-12
4.55398e-12
4.53979e-12
4.51352e-12
4.47401e-12
4.42003e-12
4.35025e-12
4.26327e-12
4.15762e-12
4.0317e-12
3.88385e-12
3.71231e-12
3.51521e-12
3.29061e-12
3.03647e-12
2.75063e-12
2.4309e-12
2.07498e-12
1.68051e-12
1.24507e-12
7.66243e-13
2.41571e-13
-3.31362e-13
-9.54908e-13
-1.6313e-12
-2.36256e-12
-3.15036e-12
-3.9962e-12
-4.90216e-12
-5.8677e-12
-6.86818e-12
-7.87502e-12
-9.25222e-12
-1.19505e-11
-1.09865e-11
1.85756e-12
1.83227e-12
1.80853e-12
1.79182e-12
1.77958e-12
1.77111e-12
1.76633e-12
1.76513e-12
1.76735e-12
1.77281e-12
1.78138e-12
1.79293e-12
1.80731e-12
1.82441e-12
1.84413e-12
1.86636e-12
1.89102e-12
1.91802e-12
1.9473e-12
1.97878e-12
2.01241e-12
2.04813e-12
2.08589e-12
2.12565e-12
2.16735e-12
2.21096e-12
2.25644e-12
2.30373e-12
2.35281e-12
2.40362e-12
2.45611e-12
2.51024e-12
2.56595e-12
2.62318e-12
2.68187e-12
2.74195e-12
2.80334e-12
2.86595e-12
2.92969e-12
2.99446e-12
3.06014e-12
3.1266e-12
3.19372e-12
3.26133e-12
3.32928e-12
3.39738e-12
3.46544e-12
3.53324e-12
3.60054e-12
3.66709e-12
3.73262e-12
3.79682e-12
3.85937e-12
3.91991e-12
3.97806e-12
4.03341e-12
4.08551e-12
4.13388e-12
4.17801e-12
4.21734e-12
4.25127e-12
4.27915e-12
4.3003e-12
4.31398e-12
4.3194e-12
4.3157e-12
4.30199e-12
4.27731e-12
4.24061e-12
4.1908e-12
4.12673e-12
4.04715e-12
3.95074e-12
3.83613e-12
3.70184e-12
3.54633e-12
3.36797e-12
3.16504e-12
2.93578e-12
2.67831e-12
2.39071e-12
2.07096e-12
1.71702e-12
1.32679e-12
8.98108e-13
4.2884e-13
-8.3164e-14
-6.40013e-13
-1.24374e-12
-1.89627e-12
-2.5993e-12
-3.35425e-12
-4.16233e-12
-5.02538e-12
-5.94272e-12
-6.89019e-12
-7.8398e-12
-9.14708e-12
-1.17404e-11
-1.07528e-11
1.89065e-12
1.86649e-12
1.84381e-12
1.82778e-12
1.81598e-12
1.80773e-12
1.80297e-12
1.8016e-12
1.80346e-12
1.80842e-12
1.81633e-12
1.82707e-12
1.84052e-12
1.85658e-12
1.87514e-12
1.8961e-12
1.91938e-12
1.94491e-12
1.97261e-12
2.00242e-12
2.03426e-12
2.0681e-12
2.10387e-12
2.14153e-12
2.18103e-12
2.22231e-12
2.26534e-12
2.31007e-12
2.35644e-12
2.40441e-12
2.45392e-12
2.50492e-12
2.55735e-12
2.61114e-12
2.66622e-12
2.72252e-12
2.77994e-12
2.8384e-12
2.89781e-12
2.95804e-12
3.01897e-12
3.08049e-12
3.14244e-12
3.20467e-12
3.26701e-12
3.32927e-12
3.39126e-12
3.45274e-12
3.5135e-12
3.57326e-12
3.63176e-12
3.68869e-12
3.74372e-12
3.79651e-12
3.84668e-12
3.89381e-12
3.93749e-12
3.97722e-12
4.01251e-12
4.04282e-12
4.06757e-12
4.08613e-12
4.09784e-12
4.10198e-12
4.09782e-12
4.08452e-12
4.06124e-12
4.02705e-12
3.98099e-12
3.92202e-12
3.84905e-12
3.76092e-12
3.65641e-12
3.53422e-12
3.39301e-12
3.23134e-12
3.04773e-12
2.84061e-12
2.60836e-12
2.34931e-12
2.06169e-12
1.74373e-12
1.39358e-12
1.00939e-12
5.89258e-13
1.31301e-13
-3.66352e-13
-9.05528e-13
-1.48798e-12
-2.11534e-12
-2.78905e-12
-3.51027e-12
-4.27998e-12
-5.09982e-12
-5.96899e-12
-6.86389e-12
-7.75727e-12
-8.99484e-12
-1.14793e-11
-1.04775e-11
1.92143e-12
1.89835e-12
1.87669e-12
1.86132e-12
1.84995e-12
1.84192e-12
1.83719e-12
1.83567e-12
1.83722e-12
1.8417e-12
1.84899e-12
1.85897e-12
1.87154e-12
1.88659e-12
1.90403e-12
1.92377e-12
1.94572e-12
1.96981e-12
1.99597e-12
2.02414e-12
2.05425e-12
2.08624e-12
2.12007e-12
2.15567e-12
2.193e-12
2.232e-12
2.27263e-12
2.31483e-12
2.35855e-12
2.40373e-12
2.45032e-12
2.49826e-12
2.54748e-12
2.5979e-12
2.64945e-12
2.70206e-12
2.75562e-12
2.81004e-12
2.86522e-12
2.92105e-12
2.97738e-12
3.0341e-12
3.09106e-12
3.14808e-12
3.205e-12
3.26164e-12
3.31778e-12
3.37321e-12
3.42768e-12
3.48094e-12
3.53272e-12
3.58271e-12
3.6306e-12
3.67602e-12
3.71862e-12
3.758e-12
3.79372e-12
3.82533e-12
3.85234e-12
3.87422e-12
3.89041e-12
3.90031e-12
3.90329e-12
3.89867e-12
3.88572e-12
3.86368e-12
3.83172e-12
3.789e-12
3.73458e-12
3.66751e-12
3.58676e-12
3.49125e-12
3.37986e-12
3.25138e-12
3.10458e-12
2.93815e-12
2.75072e-12
2.54089e-12
2.30718e-12
2.04808e-12
1.76203e-12
1.44744e-12
1.10267e-12
7.26092e-13
3.16045e-13
-1.29116e-13
-6.11007e-13
-1.1312e-12
-1.69119e-12
-2.29236e-12
-2.93591e-12
-3.62278e-12
-4.35376e-12
-5.13027e-12
-5.95144e-12
-6.79433e-12
-7.63248e-12
-8.80068e-12
-1.1173e-11
-1.01654e-11
1.95002e-12
1.92797e-12
1.90729e-12
1.89257e-12
1.88161e-12
1.87381e-12
1.86913e-12
1.86748e-12
1.86873e-12
1.87276e-12
1.87947e-12
1.88874e-12
1.90046e-12
1.91455e-12
1.93091e-12
1.94946e-12
1.97013e-12
1.99282e-12
2.01749e-12
2.04406e-12
2.07247e-12
2.10266e-12
2.13458e-12
2.16817e-12
2.20337e-12
2.24014e-12
2.27842e-12
2.31815e-12
2.35928e-12
2.40174e-12
2.44548e-12
2.49042e-12
2.5365e-12
2.58363e-12
2.63175e-12
2.68076e-12
2.73056e-12
2.78106e-12
2.83215e-12
2.8837e-12
2.93558e-12
2.98766e-12
3.03979e-12
3.09179e-12
3.1435e-12
3.19472e-12
3.24525e-12
3.29487e-12
3.34334e-12
3.39039e-12
3.43576e-12
3.47915e-12
3.52024e-12
3.5587e-12
3.59415e-12
3.6262e-12
3.65445e-12
3.67843e-12
3.69769e-12
3.71171e-12
3.71996e-12
3.72185e-12
3.71679e-12
3.70412e-12
3.68316e-12
3.65318e-12
3.61341e-12
3.56304e-12
3.50122e-12
3.42705e-12
3.33956e-12
3.23777e-12
3.12063e-12
2.98705e-12
2.83589e-12
2.66596e-12
2.47602e-12
2.26481e-12
2.031e-12
1.77324e-12
1.49015e-12
1.18031e-12
8.42309e-13
4.74695e-13
7.60388e-14
-3.55079e-13
-8.20046e-13
-1.3202e-12
-1.8568e-12
-2.431e-12
-3.0438e-12
-3.69592e-12
-4.38798e-12
-5.12124e-12
-5.89473e-12
-6.68624e-12
-7.47021e-12
-8.56949e-12
-1.08269e-11
-9.82115e-12
1.97654e-12
1.95549e-12
1.93574e-12
1.92164e-12
1.91109e-12
1.90351e-12
1.89889e-12
1.89712e-12
1.89811e-12
1.90173e-12
1.90788e-12
1.91646e-12
1.92738e-12
1.94055e-12
1.95588e-12
1.97328e-12
1.9927e-12
2.01404e-12
2.03726e-12
2.06227e-12
2.08903e-12
2.11746e-12
2.14752e-12
2.17915e-12
2.21228e-12
2.24687e-12
2.28285e-12
2.32017e-12
2.35877e-12
2.39857e-12
2.43952e-12
2.48155e-12
2.52457e-12
2.56851e-12
2.61329e-12
2.65881e-12
2.70497e-12
2.75166e-12
2.79878e-12
2.84619e-12
2.89378e-12
2.94138e-12
2.98885e-12
3.03603e-12
3.08273e-12
3.12876e-12
3.17391e-12
3.21797e-12
3.2607e-12
3.30183e-12
3.34111e-12
3.37823e-12
3.41289e-12
3.44475e-12
3.47345e-12
3.49861e-12
3.51984e-12
3.5367e-12
3.54873e-12
3.55544e-12
3.55633e-12
3.55083e-12
3.53838e-12
3.51836e-12
3.49012e-12
3.45297e-12
3.4062e-12
3.34905e-12
3.28071e-12
3.20036e-12
3.10711e-12
3.00005e-12
2.87822e-12
2.74062e-12
2.58621e-12
2.41393e-12
2.22267e-12
2.01127e-12
1.77857e-12
1.52338e-12
1.24446e-12
9.40598e-13
6.10536e-13
2.53036e-13
-1.33133e-13
-5.49182e-13
-9.96286e-13
-1.47557e-12
-1.98807e-12
-2.53475e-12
-3.11639e-12
-3.73357e-12
-4.38672e-12
-5.07694e-12
-5.8032e-12
-6.54407e-12
-7.27496e-12
-8.30589e-12
-1.04462e-11
-9.44903e-12
2.0011e-12
1.981e-12
1.96215e-12
1.94865e-12
1.9385e-12
1.93115e-12
1.92659e-12
1.92473e-12
1.92546e-12
1.92869e-12
1.93432e-12
1.94225e-12
1.9524e-12
1.96468e-12
1.97902e-12
1.99532e-12
2.01353e-12
2.03357e-12
2.05537e-12
2.07888e-12
2.10403e-12
2.13076e-12
2.15901e-12
2.18872e-12
2.21984e-12
2.2523e-12
2.28605e-12
2.32102e-12
2.35715e-12
2.39437e-12
2.43261e-12
2.4718e-12
2.51186e-12
2.5527e-12
2.59423e-12
2.63636e-12
2.67899e-12
2.72201e-12
2.7653e-12
2.80872e-12
2.85216e-12
2.89545e-12
2.93845e-12
2.98099e-12
3.02288e-12
3.06394e-12
3.10396e-12
3.14271e-12
3.17997e-12
3.21548e-12
3.24897e-12
3.28015e-12
3.30872e-12
3.33436e-12
3.35671e-12
3.37541e-12
3.39007e-12
3.40027e-12
3.40558e-12
3.40552e-12
3.3996e-12
3.38732e-12
3.3681e-12
3.34139e-12
3.30656e-12
3.26297e-12
3.20996e-12
3.14682e-12
3.0728e-12
2.98714e-12
2.88903e-12
2.77762e-12
2.65206e-12
2.51143e-12
2.3548e-12
2.18121e-12
1.98966e-12
1.77915e-12
1.54864e-12
1.29707e-12
1.0234e-12
7.26535e-13
4.05423e-13
5.8998e-14
-3.13782e-13
-7.13935e-13
-1.14244e-12
-1.60022e-12
-2.08812e-12
-2.60692e-12
-3.15722e-12
-3.73942e-12
-4.35383e-12
-5.00137e-12
-5.68096e-12
-6.37204e-12
-7.05098e-12
-8.01429e-12
-1.0036e-11
-9.05328e-12
2.02379e-12
2.00462e-12
1.98664e-12
1.97372e-12
1.96396e-12
1.95683e-12
1.95233e-12
1.95039e-12
1.95089e-12
1.95376e-12
1.95889e-12
1.9662e-12
1.97562e-12
1.98705e-12
2.00042e-12
2.01567e-12
2.03271e-12
2.05149e-12
2.07193e-12
2.09398e-12
2.11757e-12
2.14264e-12
2.16913e-12
2.19699e-12
2.22615e-12
2.25655e-12
2.28812e-12
2.32081e-12
2.35455e-12
2.38926e-12
2.42488e-12
2.46131e-12
2.4985e-12
2.53633e-12
2.57473e-12
2.61359e-12
2.65282e-12
2.69228e-12
2.73187e-12
2.77146e-12
2.8109e-12
2.85006e-12
2.88877e-12
2.92686e-12
2.96416e-12
3.00046e-12
3.03558e-12
3.06928e-12