/*--------------------------------*- C++ -*----------------------------------*\
  =========                 |
  \\      /  F ield         | OpenFOAM: The Open Source CFD Toolbox
   \\    /   O peration     | Website:  https://openfoam.org
    \\  /    A nd           | Version:  11
     \\/     M anipulation  |
\*---------------------------------------------------------------------------*/
FoamFile
{
    format      ascii;
    class       volScalarField;
    location    "452";
    object      nut;
}
// * * * * * * * * * * * * * * * * * * * * * * * * * * * * * * * * * * * * * //

dimensions      [0 2 -1 0 0 0 0];

internalField   nonuniform List<scalar> 
10000
(
0.000977117
0.000936704
0.000899645
0.000865618
0.000834336
0.000805541
0.000779
0.000754506
0.000731869
0.000710922
0.000691511
0.0006735
0.000656766
0.000641195
0.000626689
0.000613155
0.000600512
0.000588684
0.000577605
0.000567213
0.000557453
0.000548274
0.000539631
0.000531481
0.000523787
0.000516514
0.000509631
0.000503108
0.000496919
0.00049104
0.000485449
0.000480126
0.000475051
0.000470207
0.00046558
0.000461155
0.000456917
0.000452856
0.00044896
0.000445218
0.000441622
0.000438162
0.000434832
0.000431624
0.000428532
0.00042555
0.000422673
0.000419898
0.000417221
0.000414639
0.00041215
0.000409752
0.000407447
0.000405233
0.000403112
0.000401087
0.00039916
0.000397336
0.000395619
0.000394017
0.000392536
0.000391186
0.000389976
0.000388919
0.000388025
0.00038731
0.000386788
0.000386476
0.000386389
0.000386547
0.000386967
0.000387667
0.000388666
0.000389982
0.00039163
0.000393626
0.000395983
0.00039871
0.000401814
0.000405298
0.000409159
0.000413391
0.000417982
0.000422914
0.000428162
0.000433695
0.000439474
0.000445453
0.000451579
0.00045779
0.000464017
0.000470181
0.000476194
0.000481956
0.000487353
0.000492257
0.000496522
0.000499984
0.000502463
0.000503765
0.000977117
0.000936704
0.000899645
0.000865618
0.000834336
0.000805541
0.000779
0.000754506
0.000731869
0.000710922
0.000691511
0.000673501
0.000656766
0.000641196
0.000626689
0.000613156
0.000600512
0.000588685
0.000577606
0.000567214
0.000557454
0.000548275
0.000539631
0.000531482
0.000523788
0.000516515
0.000509632
0.000503109
0.00049692
0.000491041
0.00048545
0.000480126
0.000475052
0.000470208
0.000465581
0.000461156
0.000456918
0.000452857
0.000448961
0.000445219
0.000441623
0.000438164
0.000434834
0.000431626
0.000428533
0.000425551
0.000422675
0.0004199
0.000417223
0.00041464
0.000412152
0.000409755
0.000407449
0.000405235
0.000403115
0.000401089
0.000399162
0.000397338
0.000395621
0.000394019
0.000392538
0.000391188
0.000389978
0.00038892
0.000388027
0.000387311
0.000386789
0.000386476
0.000386389
0.000386546
0.000386965
0.000387664
0.000388662
0.000389976
0.000391623
0.000393618
0.000395973
0.000398699
0.000401801
0.000405284
0.000409144
0.000413375
0.000417964
0.000422894
0.000428141
0.000433671
0.000439449
0.000445426
0.00045155
0.00045776
0.000463985
0.000470148
0.000476161
0.000481923
0.000487321
0.000492226
0.000496491
0.000499953
0.000502433
0.000503734
0.000977117
0.000936704
0.000899645
0.000865618
0.000834336
0.000805541
0.000779001
0.000754506
0.00073187
0.000710922
0.000691512
0.000673501
0.000656767
0.000641197
0.00062669
0.000613156
0.000600513
0.000588686
0.000577607
0.000567215
0.000557455
0.000548276
0.000539633
0.000531483
0.000523789
0.000516516
0.000509633
0.00050311
0.000496921
0.000491043
0.000485452
0.000480128
0.000475053
0.00047021
0.000465583
0.000461158
0.00045692
0.000452859
0.000448963
0.000445222
0.000441626
0.000438166
0.000434836
0.000431628
0.000428536
0.000425554
0.000422678
0.000419903
0.000417226
0.000414644
0.000412155
0.000409758
0.000407453
0.000405239
0.000403118
0.000401093
0.000399166
0.000397341
0.000395624
0.000394022
0.000392541
0.00039119
0.00038998
0.000388921
0.000388027
0.00038731
0.000386787
0.000386472
0.000386384
0.000386539
0.000386956
0.000387653
0.000388649
0.000389961
0.000391605
0.000393597
0.000395949
0.000398671
0.000401771
0.000405249
0.000409106
0.000413334
0.00041792
0.000422847
0.00042809
0.000433618
0.000439392
0.000445367
0.000451488
0.000457695
0.00046392
0.000470083
0.000476096
0.000481858
0.000487257
0.000492162
0.000496428
0.000499892
0.000502372
0.000503674
0.000977117
0.000936705
0.000899645
0.000865618
0.000834337
0.000805542
0.000779001
0.000754507
0.00073187
0.000710923
0.000691513
0.000673502
0.000656768
0.000641198
0.000626691
0.000613157
0.000600514
0.000588687
0.000577608
0.000567216
0.000557456
0.000548277
0.000539634
0.000531485
0.000523791
0.000516518
0.000509635
0.000503112
0.000496924
0.000491045
0.000485454
0.000480131
0.000475056
0.000470213
0.000465586
0.000461161
0.000456924
0.000452863
0.000448967
0.000445225
0.000441629
0.00043817
0.00043484
0.000431632
0.00042854
0.000425559
0.000422683
0.000419908
0.000417231
0.000414649
0.00041216
0.000409763
0.000407457
0.000405244
0.000403123
0.000401098
0.00039917
0.000397346
0.000395628
0.000394025
0.000392544
0.000391192
0.000389981
0.000388921
0.000388026
0.000387308
0.000386783
0.000386466
0.000386376
0.000386528
0.000386943
0.000387637
0.000388629
0.000389937
0.000391577
0.000393565
0.000395912
0.000398629
0.000401724
0.000405197
0.000409049
0.000413272
0.000417853
0.000422775
0.000428014
0.000433537
0.000439307
0.000445278
0.000451396
0.000457601
0.000463824
0.000469987
0.000475999
0.000481762
0.000487162
0.000492069
0.000496337
0.000499802
0.000502283
0.000503586
0.000977117
0.000936705
0.000899645
0.000865619
0.000834337
0.000805542
0.000779002
0.000754508
0.000731871
0.000710924
0.000691514
0.000673503
0.000656769
0.000641199
0.000626693
0.000613159
0.000600516
0.000588689
0.00057761
0.000567218
0.000557458
0.00054828
0.000539636
0.000531487
0.000523793
0.000516521
0.000509638
0.000503115
0.000496927
0.000491048
0.000485457
0.000480134
0.000475059
0.000470217
0.00046559
0.000461165
0.000456928
0.000452867
0.000448971
0.00044523
0.000441634
0.000438175
0.000434846
0.000431638
0.000428546
0.000425565
0.000422689
0.000419914
0.000417237
0.000414655
0.000412166
0.00040977
0.000407464
0.00040525
0.00040313
0.000401104
0.000399176
0.000397351
0.000395634
0.00039403
0.000392548
0.000391195
0.000389983
0.000388922
0.000388025
0.000387305
0.000386778
0.000386459
0.000386365
0.000386514
0.000386925
0.000387615
0.000388603
0.000389906
0.00039154
0.000393522
0.000395864
0.000398575
0.000401662
0.000405129
0.000408974
0.00041319
0.000417765
0.000422681
0.000427914
0.000433431
0.000439196
0.000445162
0.000451277
0.00045748
0.000463701
0.000469862
0.000475875
0.000481638
0.000487039
0.000491948
0.000496217
0.000499684
0.000502167
0.00050347
0.000977117
0.000936705
0.000899646
0.000865619
0.000834338
0.000805543
0.000779003
0.000754508
0.000731872
0.000710925
0.000691515
0.000673505
0.00065677
0.0006412
0.000626694
0.000613161
0.000600518
0.000588691
0.000577612
0.00056722
0.000557461
0.000548282
0.000539639
0.00053149
0.000523796
0.000516524
0.000509641
0.000503118
0.00049693
0.000491052
0.000485461
0.000480138
0.000475064
0.000470221
0.000465595
0.00046117
0.000456933
0.000452872
0.000448977
0.000445236
0.00044164
0.000438182
0.000434852
0.000431645
0.000428553
0.000425572
0.000422696
0.000419921
0.000417245
0.000414663
0.000412174
0.000409778
0.000407472
0.000405259
0.000403138
0.000401112
0.000399184
0.000397359
0.00039564
0.000394036
0.000392553
0.000391199
0.000389986
0.000388923
0.000388024
0.000387302
0.000386772
0.00038645
0.000386352
0.000386498
0.000386904
0.000387589
0.000388571
0.000389868
0.000391496
0.000393471
0.000395805
0.000398508
0.000401588
0.000405047
0.000408884
0.000413091
0.000417658
0.000422567
0.000427792
0.000433303
0.000439061
0.000445022
0.000451133
0.000457332
0.000463551
0.000469711
0.000475723
0.000481487
0.00048689
0.0004918
0.000496071
0.00049954
0.000502024
0.000503328
0.000977117
0.000936705
0.000899646
0.000865619
0.000834338
0.000805543
0.000779004
0.000754509
0.000731874
0.000710927
0.000691517
0.000673506
0.000656772
0.000641202
0.000626696
0.000613163
0.00060052
0.000588693
0.000577614
0.000567223
0.000557463
0.000548285
0.000539642
0.000531493
0.0005238
0.000516527
0.000509645
0.000503122
0.000496934
0.000491056
0.000485466
0.000480143
0.000475069
0.000470227
0.0004656
0.000461175
0.000456939
0.000452879
0.000448983
0.000445243
0.000441647
0.000438189
0.00043486
0.000431653
0.000428561
0.00042558
0.000422705
0.00041993
0.000417254
0.000414673
0.000412184
0.000409788
0.000407482
0.000405268
0.000403147
0.000401121
0.000399193
0.000397367
0.000395649
0.000394043
0.000392559
0.000391204
0.000389989
0.000388924
0.000388023
0.000387298
0.000386765
0.000386439
0.000386338
0.000386479
0.000386879
0.000387559
0.000388534
0.000389824
0.000391445
0.000393411
0.000395737
0.000398431
0.000401502
0.000404951
0.000408778
0.000412977
0.000417534
0.000422434
0.00042765
0.000433153
0.000438905
0.000444859
0.000450965
0.00045716
0.000463377
0.000469535
0.000475547
0.000481311
0.000486715
0.000491627
0.0004959
0.000499371
0.000501857
0.000503161
0.000977117
0.000936705
0.000899646
0.00086562
0.000834339
0.000805544
0.000779004
0.000754511
0.000731875
0.000710928
0.000691518
0.000673508
0.000656774
0.000641204
0.000626698
0.000613165
0.000600522
0.000588696
0.000577617
0.000567226
0.000557467
0.000548288
0.000539646
0.000531497
0.000523804
0.000516532
0.000509649
0.000503127
0.000496939
0.000491061
0.000485471
0.000480148
0.000475075
0.000470233
0.000465607
0.000461182
0.000456946
0.000452886
0.000448991
0.000445251
0.000441656
0.000438198
0.000434869
0.000431662
0.000428571
0.00042559
0.000422715
0.000419941
0.000417265
0.000414684
0.000412195
0.000409799
0.000407494
0.00040528
0.000403159
0.000401132
0.000399204
0.000397378
0.000395658
0.000394052
0.000392566
0.00039121
0.000389993
0.000388926
0.000388022
0.000387295
0.000386758
0.000386428
0.000386322
0.000386458
0.000386852
0.000387525
0.000388493
0.000389775
0.000391388
0.000393345
0.000395661
0.000398345
0.000401405
0.000404844
0.00040866
0.000412847
0.000417395
0.000422284
0.000427491
0.000432985
0.000438728
0.000444676
0.000450776
0.000456967
0.00046318
0.000469336
0.000475347
0.000481112
0.000486517
0.000491431
0.000495706
0.000499179
0.000501666
0.000502971
0.000977117
0.000936705
0.000899647
0.00086562
0.000834339
0.000805545
0.000779005
0.000754512
0.000731876
0.000710929
0.00069152
0.00067351
0.000656776
0.000641206
0.000626701
0.000613168
0.000600525
0.000588699
0.00057762
0.000567229
0.00055747
0.000548292
0.00053965
0.000531501
0.000523808
0.000516536
0.000509654
0.000503132
0.000496945
0.000491067
0.000485477
0.000480155
0.000475081
0.000470239
0.000465614
0.00046119
0.000456954
0.000452894
0.000448999
0.00044526
0.000441665
0.000438207
0.000434879
0.000431672
0.000428582
0.000425601
0.000422727
0.000419953
0.000417277
0.000414696
0.000412208
0.000409812
0.000407507
0.000405293
0.000403172
0.000401145
0.000399216
0.000397389
0.000395669
0.000394062
0.000392575
0.000391217
0.000389998
0.000388929
0.000388022
0.000387291
0.000386751
0.000386416
0.000386305
0.000386435
0.000386823
0.000387488
0.000388449
0.000389722
0.000391325
0.000393272
0.000395577
0.00039825
0.000401298
0.000404725
0.00040853
0.000412705
0.000417241
0.000422119
0.000427315
0.000432799
0.000438534
0.000444474
0.000450567
0.000456753
0.000462963
0.000469117
0.000475126
0.000480891
0.000486297
0.000491212
0.00049549
0.000498965
0.000501454
0.000502759
0.000977117
0.000936706
0.000899647
0.000865621
0.00083434
0.000805546
0.000779006
0.000754513
0.000731877
0.000710931
0.000691522
0.000673512
0.000656778
0.000641209
0.000626703
0.000613171
0.000600528
0.000588702
0.000577624
0.000567233
0.000557474
0.000548296
0.000539654
0.000531506
0.000523813
0.000516541
0.000509659
0.000503138
0.00049695
0.000491073
0.000485484
0.000480162
0.000475088
0.000470247
0.000465622
0.000461198
0.000456962
0.000452903
0.000449009
0.000445269
0.000441675
0.000438218
0.00043489
0.000431684
0.000428594
0.000425614
0.000422739
0.000419966
0.000417291
0.00041471
0.000412222
0.000409826
0.000407521
0.000405307
0.000403186
0.000401159
0.00039923
0.000397403
0.000395681
0.000394073
0.000392585
0.000391226
0.000390004
0.000388933
0.000388023
0.000387288
0.000386743
0.000386404
0.000386288
0.000386411
0.000386792
0.00038745
0.000388401
0.000389665
0.000391258
0.000393194
0.000395487
0.000398148
0.000401184
0.000404598
0.000408389
0.000412552
0.000417074
0.00042194
0.000427125
0.000432598
0.000438323
0.000444255
0.000450341
0.000456521
0.000462726
0.000468878
0.000474886
0.000480651
0.000486057
0.000490974
0.000495254
0.00049873
0.000501221
0.000502528
0.000977117
0.000936706
0.000899647
0.000865621
0.00083434
0.000805547
0.000779007
0.000754514
0.000731879
0.000710933
0.000691523
0.000673514
0.00065678
0.000641211
0.000626706
0.000613173
0.000600531
0.000588705
0.000577627
0.000567237
0.000557478
0.000548301
0.000539659
0.00053151
0.000523818
0.000516547
0.000509665
0.000503144
0.000496957
0.00049108
0.000485491
0.000480169
0.000475096
0.000470255
0.00046563
0.000461207
0.000456972
0.000452913
0.000449019
0.00044528
0.000441687
0.00043823
0.000434902
0.000431697
0.000428607
0.000425628
0.000422753
0.000419981
0.000417305
0.000414725
0.000412238
0.000409842
0.000407537
0.000405323
0.000403202
0.000401175
0.000399245
0.000397417
0.000395695
0.000394086
0.000392596
0.000391235
0.000390012
0.000388937
0.000388024
0.000387286
0.000386736
0.000386392
0.00038627
0.000386386
0.00038676
0.000387409
0.000388351
0.000389605
0.000391186
0.000393111
0.000395392
0.00039804
0.000401062
0.000404462
0.000408239
0.000412388
0.000416897
0.000421749
0.000426922
0.000432384
0.000438098
0.000444021
0.000450099
0.000456273
0.000462473
0.000468621
0.000474628
0.000480392
0.000485799
0.000490717
0.000494999
0.000498477
0.00050097
0.000502277
0.000977117
0.000936706
0.000899647
0.000865622
0.000834341
0.000805547
0.000779008
0.000754515
0.00073188
0.000710934
0.000691525
0.000673516
0.000656783
0.000641214
0.000626709
0.000613176
0.000600535
0.000588709
0.000577631
0.000567241
0.000557482
0.000548305
0.000539664
0.000531516
0.000523824
0.000516553
0.000509671
0.00050315
0.000496964
0.000491087
0.000485498
0.000480177
0.000475105
0.000470264
0.00046564
0.000461217
0.000456982
0.000452924
0.00044903
0.000445292
0.000441699
0.000438243
0.000434915
0.00043171
0.000428621
0.000425642
0.000422769
0.000419996
0.000417322
0.000414742
0.000412255
0.000409859
0.000407554
0.000405341
0.000403219
0.000401192
0.000399262
0.000397433
0.000395711
0.0003941
0.000392609
0.000391246
0.00039002
0.000388943
0.000388026
0.000387284
0.00038673
0.00038638
0.000386251
0.000386361
0.000386726
0.000387366
0.000388299
0.000389542
0.000391112
0.000393024
0.000395292
0.000397926
0.000400934
0.000404319
0.000408082
0.000412216
0.00041671
0.000421549
0.000426707
0.000432157
0.00043786
0.000443773
0.000449843
0.00045601
0.000462205
0.000468349
0.000474353
0.000480117
0.000485524
0.000490444
0.000494727
0.000498208
0.000500702
0.00050201
0.000977117
0.000936706
0.000899648
0.000865622
0.000834342
0.000805548
0.000779009
0.000754516
0.000731881
0.000710936
0.000691527
0.000673518
0.000656785
0.000641216
0.000626712
0.00061318
0.000600538
0.000588712
0.000577635
0.000567245
0.000557487
0.00054831
0.000539669
0.000531521
0.000523829
0.000516559
0.000509678
0.000503157
0.000496971
0.000491095
0.000485506
0.000480186
0.000475114
0.000470274
0.000465649
0.000461227
0.000456993
0.000452935
0.000449042
0.000445304
0.000441712
0.000438256
0.000434929
0.000431725
0.000428636
0.000425658
0.000422785
0.000420013
0.000417339
0.000414759
0.000412273
0.000409877
0.000407573
0.000405359
0.000403238
0.000401211
0.00039928
0.000397451
0.000395727
0.000394115
0.000392623
0.000391257
0.000390029
0.000388949
0.000388029
0.000387282
0.000386723
0.000386368
0.000386233
0.000386335
0.000386692
0.000387323
0.000388245
0.000389477
0.000391035
0.000392934
0.000395188
0.000397807
0.0004008
0.00040417
0.000407917
0.000412036
0.000416515
0.000421339
0.000426484
0.00043192
0.000437611
0.000443514
0.000449574
0.000455734
0.000461923
0.000468063
0.000474065
0.000479827
0.000485234
0.000490155
0.00049444
0.000497922
0.000500418
0.000501728
0.000977117
0.000936706
0.000899648
0.000865622
0.000834342
0.000805549
0.00077901
0.000754517
0.000731883
0.000710937
0.000691529
0.00067352
0.000656787
0.000641219
0.000626715
0.000613183
0.000600541
0.000588716
0.000577639
0.000567249
0.000557492
0.000548315
0.000539674
0.000531527
0.000523836
0.000516565
0.000509685
0.000503165
0.000496979
0.000491103
0.000485515
0.000480195
0.000475123
0.000470283
0.00046566
0.000461238
0.000457004
0.000452947
0.000449055
0.000445318
0.000441726
0.00043827
0.000434944
0.000431741
0.000428653
0.000425675
0.000422802
0.000420031
0.000417357
0.000414778
0.000412292
0.000409897
0.000407593
0.000405379
0.000403258
0.00040123
0.0003993
0.00039747
0.000395745
0.000394132
0.000392638
0.00039127
0.00039004
0.000388957
0.000388033
0.000387282
0.000386718
0.000386356
0.000386214
0.000386309
0.000386657
0.000387279
0.00038819
0.00038941
0.000390956
0.000392841
0.000395081
0.000397685
0.000400663
0.000404017
0.000407747
0.00041185
0.000416313
0.000421121
0.000426251
0.000431674
0.000437353
0.000443244
0.000449295
0.000455447
0.000461629
0.000467765
0.000473763
0.000479524
0.000484931
0.000489852
0.000494139
0.000497623
0.000500121
0.000501431
0.000977117
0.000936706
0.000899648
0.000865623
0.000834343
0.000805549
0.000779011
0.000754519
0.000731884
0.000710939
0.000691531
0.000673522
0.00065679
0.000641222
0.000626718
0.000613186
0.000600545
0.00058872
0.000577643
0.000567254
0.000557496
0.00054832
0.00053968
0.000531533
0.000523842
0.000516572
0.000509692
0.000503172
0.000496987
0.000491111
0.000485524
0.000480204
0.000475133
0.000470294
0.000465671
0.000461249
0.000457017
0.00045296
0.000449068
0.000445331
0.00044174
0.000438285
0.00043496
0.000431757
0.00042867
0.000425692
0.000422821
0.00042005
0.000417377
0.000414798
0.000412312
0.000409918
0.000407614
0.0004054
0.000403279
0.000401251
0.00039932
0.00039749
0.000395764
0.00039415
0.000392654
0.000391285
0.000390051
0.000388965
0.000388037
0.000387282
0.000386713
0.000386345
0.000386196
0.000386283
0.000386622
0.000387234
0.000388135
0.000389343
0.000390875
0.000392747
0.000394971
0.00039756
0.000400521
0.000403859
0.000407573
0.000411659
0.000416105
0.000420898
0.000426012
0.000431421
0.000437087
0.000442966
0.000449007
0.00045515
0.000461326
0.000467456
0.000473451
0.00047921
0.000484616
0.000489538
0.000493826
0.000497312
0.000499812
0.000501123
0.000977117
0.000936706
0.000899648
0.000865623
0.000834343
0.00080555
0.000779012
0.00075452
0.000731886
0.000710941
0.000691533
0.000673524
0.000656792
0.000641224
0.00062672
0.000613189
0.000600549
0.000588724
0.000577648
0.000567259
0.000557501
0.000548326
0.000539685
0.000531539
0.000523848
0.000516579
0.000509699
0.00050318
0.000496995
0.00049112
0.000485533
0.000480214
0.000475143
0.000470305
0.000465682
0.000461261
0.000457029
0.000452973
0.000449082
0.000445346
0.000441755
0.000438301
0.000434977
0.000431774
0.000428687
0.000425711
0.00042284
0.000420069
0.000417397
0.000414819
0.000412334
0.000409939
0.000407636
0.000405423
0.000403301
0.000401273
0.000399342
0.000397511
0.000395784
0.000394169
0.000392671
0.0003913
0.000390064
0.000388974
0.000388043
0.000387283
0.000386708
0.000386335
0.000386179
0.000386257
0.000386588
0.000387189
0.000388078
0.000389274
0.000390793
0.00039265
0.00039486
0.000397433
0.000400378
0.000403698
0.000407395
0.000411463
0.000415893
0.000420669
0.000425768
0.000431162
0.000436814
0.00044268
0.000448711
0.000454845
0.000461013
0.000467138
0.000473129
0.000478886
0.000484291
0.000489214
0.000493503
0.000496991
0.000499492
0.000500804
0.000977117
0.000936706
0.000899649
0.000865623
0.000834344
0.000805551
0.000779013
0.000754521
0.000731887
0.000710942
0.000691534
0.000673526
0.000656794
0.000641227
0.000626723
0.000613193
0.000600552
0.000588728
0.000577652
0.000567263
0.000557506
0.000548331
0.000539691
0.000531545
0.000523855
0.000516586
0.000509707
0.000503188
0.000497003
0.000491129
0.000485543
0.000480224
0.000475154
0.000470316
0.000465694
0.000461274
0.000457042
0.000452987
0.000449096
0.000445361
0.000441771
0.000438317
0.000434994
0.000431792
0.000428706
0.00042573
0.000422859
0.00042009
0.000417418
0.000414841
0.000412356
0.000409962
0.000407659
0.000405446
0.000403325
0.000401297
0.000399365
0.000397533
0.000395806
0.000394189
0.00039269
0.000391316
0.000390077
0.000388985
0.000388049
0.000387285
0.000386705
0.000386325
0.000386161
0.000386232
0.000386553
0.000387144
0.000388022
0.000389205
0.000390711
0.000392554
0.000394748
0.000397305
0.000400232
0.000403535
0.000407215
0.000411265
0.000415678
0.000420436
0.000425519
0.000430897
0.000436535
0.000442389
0.000448409
0.000454533
0.000460694
0.000466813
0.0004728
0.000478554
0.000483958
0.000488881
0.000493171
0.00049666
0.000499163
0.000500476
0.000977117
0.000936707
0.000899649
0.000865624
0.000834344
0.000805551
0.000779014
0.000754522
0.000731888
0.000710944
0.000691536
0.000673528
0.000656797
0.00064123
0.000626726
0.000613196
0.000600556
0.000588732
0.000577656
0.000567268
0.000557512
0.000548337
0.000539697
0.000531551
0.000523862
0.000516593
0.000509714
0.000503196
0.000497012
0.000491138
0.000485552
0.000480234
0.000475165
0.000470327
0.000465706
0.000461286
0.000457055
0.000453
0.000449111
0.000445376
0.000441787
0.000438334
0.000435011
0.00043181
0.000428725
0.00042575
0.00042288
0.000420111
0.00041744
0.000414863
0.000412379
0.000409985
0.000407682
0.00040547
0.000403349
0.000401321
0.000399388
0.000397556
0.000395828
0.00039421
0.000392709
0.000391333
0.000390092
0.000388996
0.000388057
0.000387287
0.000386702
0.000386316
0.000386145
0.000386207
0.000386519
0.000387099
0.000387966
0.000389136
0.000390628
0.000392456
0.000394635
0.000397175
0.000400086
0.000403371
0.000407032
0.000411065
0.00041546
0.000420201
0.000425267
0.00043063
0.000436253
0.000442094
0.000448102
0.000454216
0.000460369
0.000466482
0.000472464
0.000478215
0.000483618
0.00048854
0.000492831
0.000496322
0.000498826
0.000500141
0.000977117
0.000936707
0.000899649
0.000865624
0.000834345
0.000805552
0.000779014
0.000754523
0.000731889
0.000710945
0.000691538
0.00067353
0.000656799
0.000641232
0.000626729
0.000613199
0.000600559
0.000588736
0.000577661
0.000567273
0.000557517
0.000548342
0.000539703
0.000531558
0.000523869
0.0005166
0.000509722
0.000503204
0.000497021
0.000491147
0.000485562
0.000480244
0.000475176
0.000470339
0.000465718
0.000461299
0.000457069
0.000453015
0.000449126
0.000445392
0.000441803
0.000438352
0.000435029
0.000431829
0.000428744
0.00042577
0.000422901
0.000420133
0.000417462
0.000414886
0.000412402
0.00041001
0.000407707
0.000405495
0.000403374
0.000401345
0.000399413
0.00039758
0.000395851
0.000394231
0.000392729
0.000391351
0.000390107
0.000389008
0.000388065
0.000387291
0.0003867
0.000386307
0.000386129
0.000386182
0.000386485
0.000387055
0.00038791
0.000389068
0.000390546
0.000392359
0.000394522
0.000397045
0.000399939
0.000403206
0.000406849
0.000410864
0.00041524
0.000419964
0.000425013
0.00043036
0.000435968
0.000441796
0.000447792
0.000453896
0.00046004
0.000466146
0.000472124
0.000477871
0.000483273
0.000488195
0.000492486
0.000495978
0.000498484
0.000499799
0.000977117
0.000936707
0.000899649
0.000865624
0.000834345
0.000805553
0.000779015
0.000754524
0.00073189
0.000710946
0.000691539
0.000673532
0.000656801
0.000641235
0.000626732
0.000613202
0.000600563
0.00058874
0.000577665
0.000567277
0.000557522
0.000548348
0.000539709
0.000531564
0.000523875
0.000516608
0.00050973
0.000503213
0.00049703
0.000491157
0.000485572
0.000480255
0.000475187
0.000470351
0.000465731
0.000461312
0.000457083
0.000453029
0.000449141
0.000445408
0.00044182
0.000438369
0.000435047
0.000431848
0.000428764
0.000425791
0.000422922
0.000420155
0.000417485
0.00041491
0.000412427
0.000410034
0.000407732
0.00040552
0.000403399
0.000401371
0.000399438
0.000397604
0.000395875
0.000394254
0.00039275
0.00039137
0.000390123
0.000389021
0.000388074
0.000387295
0.000386698
0.000386299
0.000386114
0.000386159
0.000386452
0.000387011
0.000387855
0.000389
0.000390464
0.000392262
0.000394409
0.000396916
0.000399792
0.000403041
0.000406666
0.000410662
0.000415021
0.000419726
0.000424758
0.000430089
0.000435682
0.000441496
0.000447479
0.000453573
0.000459709
0.000465807
0.00047178
0.000477524
0.000482923
0.000487845
0.000492137
0.000495629
0.000498137
0.000499453
0.000977117
0.000936707
0.000899649
0.000865625
0.000834345
0.000805553
0.000779016
0.000754525
0.000731892
0.000710948
0.000691541
0.000673534
0.000656803
0.000641237
0.000626735
0.000613205
0.000600566
0.000588744
0.000577669
0.000567282
0.000557527
0.000548353
0.000539715
0.000531571
0.000523882
0.000516615
0.000509738
0.000503221
0.000497039
0.000491166
0.000485582
0.000480266
0.000475198
0.000470363
0.000465743
0.000461326
0.000457097
0.000453044
0.000449157
0.000445424
0.000441837
0.000438387
0.000435066
0.000431867
0.000428784
0.000425812
0.000422944
0.000420178
0.000417509
0.000414934
0.000412451
0.00041006
0.000407758
0.000405546
0.000403425
0.000401397
0.000399464
0.00039763
0.000395899
0.000394277
0.000392771
0.000391389
0.00039014
0.000389034
0.000388083
0.0003873
0.000386698
0.000386292
0.0003861
0.000386136
0.00038642
0.000386969
0.000387801
0.000388933
0.000390383
0.000392166
0.000394297
0.000396787
0.000399646
0.000402877
0.000406484
0.000410461
0.000414801
0.000419489
0.000424503
0.000429817
0.000435395
0.000441195
0.000447166
0.000453249
0.000459376
0.000465467
0.000471434
0.000477175
0.000482572
0.000487492
0.000491784
0.000495278
0.000497786
0.000499104
0.000977118
0.000936707
0.000899649
0.000865625
0.000834346
0.000805554
0.000779017
0.000754525
0.000731893
0.000710949
0.000691543
0.000673536
0.000656806
0.00064124
0.000626738
0.000613209
0.00060057
0.000588747
0.000577673
0.000567287
0.000557532
0.000548358
0.000539721
0.000531577
0.000523889
0.000516623
0.000509746
0.000503229
0.000497048
0.000491176
0.000485592
0.000480276
0.00047521
0.000470375
0.000465756
0.000461339
0.000457111
0.000453059
0.000449172
0.00044544
0.000441854
0.000438405
0.000435085
0.000431887
0.000428805
0.000425833
0.000422966
0.000420201
0.000417532
0.000414958
0.000412476
0.000410085
0.000407784
0.000405572
0.000403452
0.000401423
0.00039949
0.000397655
0.000395924
0.000394301
0.000392794
0.000391409
0.000390158
0.000389049
0.000388094
0.000387306
0.000386698
0.000386286
0.000386086
0.000386115
0.000386389
0.000386927
0.000387747
0.000388867
0.000390303
0.000392071
0.000394186
0.00039666
0.000399501
0.000402714
0.000406302
0.000410261
0.000414583
0.000419252
0.00042425
0.000429547
0.000435109
0.000440895
0.000446853
0.000452925
0.000459043
0.000465127
0.000471088
0.000476824
0.000482219
0.000487138
0.00049143
0.000494925
0.000497434
0.000498753
0.000977118
0.000936707
0.00089965
0.000865625
0.000834346
0.000805554
0.000779017
0.000754526
0.000731894
0.00071095
0.000691544
0.000673538
0.000656808
0.000641242
0.00062674
0.000613212
0.000600573
0.000588751
0.000577677
0.000567291
0.000557537
0.000548364
0.000539727
0.000531583
0.000523896
0.00051663
0.000509753
0.000503238
0.000497057
0.000491185
0.000485602
0.000480287
0.000475221
0.000470387
0.000465769
0.000461353
0.000457125
0.000453074
0.000449188
0.000445457
0.000441872
0.000438423
0.000435104
0.000431907
0.000428826
0.000425855
0.000422989
0.000420224
0.000417556
0.000414983
0.000412502
0.000410111
0.00040781
0.000405599
0.000403479
0.00040145
0.000399517
0.000397682
0.000395949
0.000394325
0.000392816
0.00039143
0.000390176
0.000389063
0.000388105
0.000387312
0.000386699
0.000386281
0.000386074
0.000386094
0.000386359
0.000386887
0.000387695
0.000388802
0.000390224
0.000391978
0.000394077
0.000396534
0.000399357
0.000402553
0.000406123
0.000410063
0.000414366
0.000419018
0.000423998
0.000429278
0.000434825
0.000440597
0.000446542
0.000452603
0.00045871
0.000464787
0.000470742
0.000476474
0.000481866
0.000486784
0.000491076
0.000494572
0.000497082
0.000498401
0.000977118
0.000936707
0.00089965
0.000865625
0.000834347
0.000805555
0.000779018
0.000754527
0.000731895
0.000710952
0.000691546
0.00067354
0.00065681
0.000641244
0.000626743
0.000613215
0.000600577
0.000588755
0.000577681
0.000567296
0.000557542
0.000548369
0.000539732
0.00053159
0.000523903
0.000516637
0.000509761
0.000503246
0.000497065
0.000491195
0.000485613
0.000480298
0.000475232
0.000470399
0.000465781
0.000461366
0.000457139
0.000453089
0.000449204
0.000445474
0.000441889
0.000438441
0.000435123
0.000431927
0.000428846
0.000425876
0.000423011
0.000420247
0.00041758
0.000415008
0.000412527
0.000410137
0.000407837
0.000405626
0.000403506
0.000401477
0.000399544
0.000397708
0.000395975
0.00039435
0.000392839
0.000391451
0.000390194
0.000389079
0.000388116
0.000387319
0.000386701
0.000386277
0.000386062
0.000386074
0.00038633
0.000386847
0.000387644
0.000388739
0.000390148
0.000391887
0.00039397
0.00039641
0.000399216
0.000402394
0.000405946
0.000409868
0.000414153
0.000418786
0.000423748
0.000429012
0.000434544
0.000440301
0.000446233
0.000452283
0.000458381
0.000464449
0.000470398
0.000476126
0.000481515
0.000486432
0.000490723
0.000494219
0.000496731
0.00049805
0.000977118
0.000936707
0.00089965
0.000865626
0.000834347
0.000805555
0.000779018
0.000754528
0.000731896
0.000710953
0.000691547
0.000673541
0.000656812
0.000641247
0.000626746
0.000613217
0.00060058
0.000588758
0.000577685
0.0005673
0.000557546
0.000548374
0.000539738
0.000531596
0.000523909
0.000516644
0.000509769
0.000503254
0.000497074
0.000491204
0.000485623
0.000480308
0.000475244
0.000470411
0.000465794
0.000461379
0.000457153
0.000453104
0.000449219
0.00044549
0.000441906
0.00043846
0.000435142
0.000431947
0.000428867
0.000425898
0.000423034
0.00042027
0.000417604
0.000415032
0.000412553
0.000410163
0.000407863
0.000405653
0.000403533
0.000401505
0.000399571
0.000397735
0.000396001
0.000394374
0.000392862
0.000391472
0.000390213
0.000389095
0.000388128
0.000387327