/*--------------------------------*- C++ -*----------------------------------*\
  =========                 |
  \\      /  F ield         | OpenFOAM: The Open Source CFD Toolbox
   \\    /   O peration     | Website:  https://openfoam.org
    \\  /    A nd           | Version:  11
     \\/     M anipulation  |
\*---------------------------------------------------------------------------*/
FoamFile
{
    format      ascii;
    class       volVectorField;
    location    "1114";
    object      U;
}
// * * * * * * * * * * * * * * * * * * * * * * * * * * * * * * * * * * * * * //

dimensions      [0 1 -1 0 0 0 0];

internalField   nonuniform List<vector> 
10000
(
(0.005 -1.98713e-10 0)
(0.005 -5.50988e-10 0)
(0.005 -8.84927e-10 0)
(0.005 -1.21096e-09 0)
(0.005 -1.5355e-09 0)
(0.005 -1.86302e-09 0)
(0.005 -2.19662e-09 0)
(0.005 -2.53863e-09 0)
(0.005 -2.89091e-09 0)
(0.005 -3.255e-09 0)
(0.005 -3.63227e-09 0)
(0.005 -4.02394e-09 0)
(0.005 -4.43119e-09 0)
(0.005 -4.85512e-09 0)
(0.005 -5.29683e-09 0)
(0.005 -5.75739e-09 0)
(0.005 -6.2379e-09 0)
(0.005 -6.73946e-09 0)
(0.005 -7.2632e-09 0)
(0.005 -7.81028e-09 0)
(0.005 -8.38191e-09 0)
(0.005 -8.97935e-09 0)
(0.00499999 -9.60389e-09 0)
(0.00499999 -1.02569e-08 0)
(0.00499999 -1.09399e-08 0)
(0.00499999 -1.16543e-08 0)
(0.00499999 -1.24018e-08 0)
(0.00499999 -1.3184e-08 0)
(0.00499999 -1.40027e-08 0)
(0.00499999 -1.48599e-08 0)
(0.00499999 -1.57576e-08 0)
(0.00499999 -1.66979e-08 0)
(0.00499999 -1.76831e-08 0)
(0.00499999 -1.87156e-08 0)
(0.00499998 -1.9798e-08 0)
(0.00499998 -2.09331e-08 0)
(0.00499998 -2.21237e-08 0)
(0.00499998 -2.3373e-08 0)
(0.00499998 -2.46843e-08 0)
(0.00499998 -2.60611e-08 0)
(0.00499998 -2.75073e-08 0)
(0.00499997 -2.90267e-08 0)
(0.00499997 -3.06236e-08 0)
(0.00499997 -3.23026e-08 0)
(0.00499997 -3.40685e-08 0)
(0.00499997 -3.59265e-08 0)
(0.00499996 -3.78818e-08 0)
(0.00499996 -3.99405e-08 0)
(0.00499996 -4.21085e-08 0)
(0.00499995 -4.43925e-08 0)
(0.00499995 -4.67993e-08 0)
(0.00499995 -4.93362e-08 0)
(0.00499994 -5.20111e-08 0)
(0.00499994 -5.4832e-08 0)
(0.00499994 -5.78078e-08 0)
(0.00499993 -6.09475e-08 0)
(0.00499993 -6.42608e-08 0)
(0.00499992 -6.77578e-08 0)
(0.00499992 -7.14493e-08 0)
(0.00499991 -7.53465e-08 0)
(0.00499991 -7.94612e-08 0)
(0.0049999 -8.38057e-08 0)
(0.0049999 -8.83928e-08 0)
(0.00499989 -9.32361e-08 0)
(0.00499989 -9.83494e-08 0)
(0.00499988 -1.03747e-07 0)
(0.00499987 -1.09445e-07 0)
(0.00499987 -1.15457e-07 0)
(0.00499986 -1.21799e-07 0)
(0.00499985 -1.28489e-07 0)
(0.00499984 -1.35541e-07 0)
(0.00499983 -1.42972e-07 0)
(0.00499982 -1.50799e-07 0)
(0.00499982 -1.59037e-07 0)
(0.00499981 -1.67702e-07 0)
(0.0049998 -1.76808e-07 0)
(0.00499979 -1.86368e-07 0)
(0.00499978 -1.96394e-07 0)
(0.00499976 -2.06896e-07 0)
(0.00499975 -2.17878e-07 0)
(0.00499974 -2.29345e-07 0)
(0.00499973 -2.41292e-07 0)
(0.00499972 -2.53711e-07 0)
(0.00499971 -2.66586e-07 0)
(0.00499969 -2.79891e-07 0)
(0.00499968 -2.93587e-07 0)
(0.00499967 -3.07624e-07 0)
(0.00499966 -3.21931e-07 0)
(0.00499964 -3.3642e-07 0)
(0.00499963 -3.50974e-07 0)
(0.00499962 -3.6545e-07 0)
(0.00499961 -3.79669e-07 0)
(0.0049996 -3.93415e-07 0)
(0.00499959 -4.06427e-07 0)
(0.00499957 -4.18397e-07 0)
(0.00499957 -4.28974e-07 0)
(0.00499956 -4.37766e-07 0)
(0.00499955 -4.44362e-07 0)
(0.00499954 -4.48491e-07 0)
(0.00499954 -4.50493e-07 0)
(0.005 -1.69472e-10 0)
(0.005 -4.95905e-10 0)
(0.005 -8.12991e-10 0)
(0.005 -1.12358e-09 0)
(0.005 -1.43289e-09 0)
(0.005 -1.74479e-09 0)
(0.005 -2.06209e-09 0)
(0.005 -2.3869e-09 0)
(0.005 -2.72095e-09 0)
(0.005 -3.06567e-09 0)
(0.005 -3.42232e-09 0)
(0.005 -3.79203e-09 0)
(0.005 -4.17587e-09 0)
(0.005 -4.57485e-09 0)
(0.005 -4.98997e-09 0)
(0.005 -5.42221e-09 0)
(0.005 -5.87254e-09 0)
(0.005 -6.34198e-09 0)
(0.005 -6.83152e-09 0)
(0.005 -7.34223e-09 0)
(0.005 -7.87518e-09 0)
(0.005 -8.4315e-09 0)
(0.00499999 -9.01237e-09 0)
(0.00499999 -9.61902e-09 0)
(0.00499999 -1.02528e-08 0)
(0.00499999 -1.0915e-08 0)
(0.00499999 -1.16071e-08 0)
(0.00499999 -1.23306e-08 0)
(0.00499999 -1.30873e-08 0)
(0.00499999 -1.38787e-08 0)
(0.00499999 -1.47068e-08 0)
(0.00499999 -1.55735e-08 0)
(0.00499999 -1.64809e-08 0)
(0.00499999 -1.74313e-08 0)
(0.00499998 -1.84269e-08 0)
(0.00499998 -1.94705e-08 0)
(0.00499998 -2.05645e-08 0)
(0.00499998 -2.17121e-08 0)
(0.00499998 -2.29162e-08 0)
(0.00499998 -2.41801e-08 0)
(0.00499998 -2.55074e-08 0)
(0.00499997 -2.69019e-08 0)
(0.00499997 -2.83675e-08 0)
(0.00499997 -2.99086e-08 0)
(0.00499997 -3.15297e-08 0)
(0.00499997 -3.32357e-08 0)
(0.00499996 -3.50318e-08 0)
(0.00499996 -3.69235e-08 0)
(0.00499996 -3.89168e-08 0)
(0.00499995 -4.1018e-08 0)
(0.00499995 -4.32336e-08 0)
(0.00499995 -4.55709e-08 0)
(0.00499994 -4.80374e-08 0)
(0.00499994 -5.0641e-08 0)
(0.00499994 -5.33903e-08 0)
(0.00499993 -5.62943e-08 0)
(0.00499993 -5.93624e-08 0)
(0.00499992 -6.26047e-08 0)
(0.00499992 -6.60319e-08 0)
(0.00499991 -6.96551e-08 0)
(0.00499991 -7.34861e-08 0)
(0.0049999 -7.75372e-08 0)
(0.0049999 -8.18215e-08 0)
(0.00499989 -8.63526e-08 0)
(0.00499989 -9.11446e-08 0)
(0.00499988 -9.62123e-08 0)
(0.00499987 -1.01571e-07 0)
(0.00499987 -1.07237e-07 0)
(0.00499986 -1.13226e-07 0)
(0.00499985 -1.19555e-07 0)
(0.00499984 -1.26242e-07 0)
(0.00499983 -1.33304e-07 0)
(0.00499983 -1.40758e-07 0)
(0.00499982 -1.48622e-07 0)
(0.00499981 -1.56913e-07 0)
(0.0049998 -1.65647e-07 0)
(0.00499979 -1.74841e-07 0)
(0.00499978 -1.84508e-07 0)
(0.00499977 -1.9466e-07 0)
(0.00499975 -2.05309e-07 0)
(0.00499974 -2.16459e-07 0)
(0.00499973 -2.28114e-07 0)
(0.00499972 -2.40269e-07 0)
(0.00499971 -2.52914e-07 0)
(0.0049997 -2.66029e-07 0)
(0.00499968 -2.79585e-07 0)
(0.00499967 -2.93539e-07 0)
(0.00499966 -3.07829e-07 0)
(0.00499965 -3.22377e-07 0)
(0.00499963 -3.37081e-07 0)
(0.00499962 -3.51809e-07 0)
(0.00499961 -3.66397e-07 0)
(0.0049996 -3.80647e-07 0)
(0.00499959 -3.94315e-07 0)
(0.00499958 -4.07114e-07 0)
(0.00499957 -4.18716e-07 0)
(0.00499956 -4.2875e-07 0)
(0.00499955 -4.36824e-07 0)
(0.00499954 -4.42618e-07 0)
(0.00499954 -4.4623e-07 0)
(0.005 -1.46017e-10 0)
(0.005 -4.44663e-10 0)
(0.005 -7.42236e-10 0)
(0.005 -1.03652e-09 0)
(0.005 -1.33039e-09 0)
(0.005 -1.62678e-09 0)
(0.005 -1.92802e-09 0)
(0.005 -2.23598e-09 0)
(0.005 -2.55219e-09 0)
(0.005 -2.87798e-09 0)
(0.005 -3.21449e-09 0)
(0.005 -3.56277e-09 0)
(0.005 -3.92377e-09 0)
(0.005 -4.29844e-09 0)
(0.005 -4.68765e-09 0)
(0.005 -5.0923e-09 0)
(0.005 -5.51327e-09 0)
(0.005 -5.95145e-09 0)
(0.005 -6.40774e-09 0)
(0.005 -6.88308e-09 0)
(0.005 -7.37844e-09 0)
(0.005 -7.89483e-09 0)
(0.00499999 -8.43329e-09 0)
(0.00499999 -8.99493e-09 0)
(0.00499999 -9.58092e-09 0)
(0.00499999 -1.01925e-08 0)
(0.00499999 -1.08309e-08 0)
(0.00499999 -1.14976e-08 0)
(0.00499999 -1.21941e-08 0)
(0.00499999 -1.29218e-08 0)
(0.00499999 -1.36825e-08 0)
(0.00499999 -1.4478e-08 0)
(0.00499999 -1.53101e-08 0)
(0.00499999 -1.61809e-08 0)
(0.00499998 -1.70927e-08 0)
(0.00499998 -1.80477e-08 0)
(0.00499998 -1.90484e-08 0)
(0.00499998 -2.00976e-08 0)
(0.00499998 -2.1198e-08 0)
(0.00499998 -2.23529e-08 0)
(0.00499998 -2.35654e-08 0)
(0.00499997 -2.48392e-08 0)
(0.00499997 -2.6178e-08 0)
(0.00499997 -2.75859e-08 0)
(0.00499997 -2.90671e-08 0)
(0.00499997 -3.06265e-08 0)
(0.00499996 -3.22689e-08 0)
(0.00499996 -3.39996e-08 0)
(0.00499996 -3.58244e-08 0)
(0.00499995 -3.77492e-08 0)
(0.00499995 -3.97806e-08 0)
(0.00499995 -4.19253e-08 0)
(0.00499995 -4.41909e-08 0)
(0.00499994 -4.65851e-08 0)
(0.00499994 -4.91161e-08 0)
(0.00499993 -5.1793e-08 0)
(0.00499993 -5.46249e-08 0)
(0.00499993 -5.76219e-08 0)
(0.00499992 -6.07945e-08 0)
(0.00499992 -6.41538e-08 0)
(0.00499991 -6.77117e-08 0)
(0.00499991 -7.14804e-08 0)
(0.0049999 -7.54733e-08 0)
(0.00499989 -7.97038e-08 0)
(0.00499989 -8.41866e-08 0)
(0.00499988 -8.89367e-08 0)
(0.00499987 -9.39698e-08 0)
(0.00499987 -9.93024e-08 0)
(0.00499986 -1.04951e-07 0)
(0.00499985 -1.10935e-07 0)
(0.00499984 -1.1727e-07 0)
(0.00499984 -1.23976e-07 0)
(0.00499983 -1.31071e-07 0)
(0.00499982 -1.38575e-07 0)
(0.00499981 -1.46506e-07 0)
(0.0049998 -1.54883e-07 0)
(0.00499979 -1.63724e-07 0)
(0.00499978 -1.73045e-07 0)
(0.00499977 -1.82863e-07 0)
(0.00499976 -1.93189e-07 0)
(0.00499975 -2.04035e-07 0)
(0.00499973 -2.15407e-07 0)
(0.00499972 -2.27306e-07 0)
(0.00499971 -2.39728e-07 0)
(0.0049997 -2.52659e-07 0)
(0.00499969 -2.66076e-07 0)
(0.00499967 -2.79944e-07 0)
(0.00499966 -2.94213e-07 0)
(0.00499965 -3.08811e-07 0)
(0.00499964 -3.23649e-07 0)
(0.00499962 -3.38606e-07 0)
(0.00499961 -3.53533e-07 0)
(0.0049996 -3.68244e-07 0)
(0.00499959 -3.8251e-07 0)
(0.00499958 -3.96057e-07 0)
(0.00499957 -4.08566e-07 0)
(0.00499956 -4.19661e-07 0)
(0.00499955 -4.28912e-07 0)
(0.00499954 -4.3587e-07 0)
(0.00499954 -4.40411e-07 0)
(0.005 -1.29853e-10 0)
(0.005 -4.03605e-10 0)
(0.005 -6.81608e-10 0)
(0.005 -9.59432e-10 0)
(0.005 -1.23823e-09 0)
(0.005 -1.51991e-09 0)
(0.005 -1.80622e-09 0)
(0.005 -2.09868e-09 0)
(0.005 -2.39863e-09 0)
(0.005 -2.7072e-09 0)
(0.005 -3.02543e-09 0)
(0.005 -3.35427e-09 0)
(0.005 -3.69459e-09 0)
(0.005 -4.04722e-09 0)
(0.005 -4.41297e-09 0)
(0.005 -4.79263e-09 0)
(0.005 -5.18699e-09 0)
(0.005 -5.59685e-09 0)
(0.005 -6.02302e-09 0)
(0.005 -6.46633e-09 0)
(0.005 -6.92764e-09 0)
(0.005 -7.40785e-09 0)
(0.00499999 -7.9079e-09 0)
(0.00499999 -8.42877e-09 0)
(0.00499999 -8.97149e-09 0)
(0.00499999 -9.53718e-09 0)
(0.00499999 -1.0127e-08 0)
(0.00499999 -1.07422e-08 0)
(0.00499999 -1.13841e-08 0)
(0.00499999 -1.20541e-08 0)
(0.00499999 -1.27538e-08 0)
(0.00499999 -1.34848e-08 0)
(0.00499999 -1.42487e-08 0)
(0.00499999 -1.50476e-08 0)
(0.00499999 -1.58833e-08 0)
(0.00499998 -1.67581e-08 0)
(0.00499998 -1.76743e-08 0)
(0.00499998 -1.86344e-08 0)
(0.00499998 -1.9641e-08 0)
(0.00499998 -2.06971e-08 0)
(0.00499998 -2.18057e-08 0)
(0.00499997 -2.29702e-08 0)
(0.00499997 -2.41942e-08 0)
(0.00499997 -2.54815e-08 0)
(0.00499997 -2.68362e-08 0)
(0.00499997 -2.82628e-08 0)
(0.00499996 -2.9766e-08 0)
(0.00499996 -3.13509e-08 0)
(0.00499996 -3.30231e-08 0)
(0.00499996 -3.47883e-08 0)
(0.00499995 -3.66528e-08 0)
(0.00499995 -3.86233e-08 0)
(0.00499995 -4.0707e-08 0)
(0.00499994 -4.29115e-08 0)
(0.00499994 -4.52449e-08 0)
(0.00499993 -4.77161e-08 0)
(0.00499993 -5.03341e-08 0)
(0.00499993 -5.31089e-08 0)
(0.00499992 -5.6051e-08 0)
(0.00499992 -5.91713e-08 0)
(0.00499991 -6.24818e-08 0)
(0.00499991 -6.59948e-08 0)
(0.0049999 -6.97235e-08 0)
(0.00499989 -7.36819e-08 0)
(0.00499989 -7.78845e-08 0)
(0.00499988 -8.23467e-08 0)
(0.00499988 -8.70846e-08 0)
(0.00499987 -9.21151e-08 0)
(0.00499986 -9.74558e-08 0)
(0.00499985 -1.03125e-07 0)
(0.00499985 -1.09141e-07 0)
(0.00499984 -1.15524e-07 0)
(0.00499983 -1.22294e-07 0)
(0.00499982 -1.29471e-07 0)
(0.00499981 -1.37075e-07 0)
(0.0049998 -1.45127e-07 0)
(0.00499979 -1.53646e-07 0)
(0.00499978 -1.62652e-07 0)
(0.00499977 -1.72163e-07 0)
(0.00499976 -1.82195e-07 0)
(0.00499975 -1.92761e-07 0)
(0.00499974 -2.03873e-07 0)
(0.00499973 -2.15535e-07 0)
(0.00499971 -2.27748e-07 0)
(0.0049997 -2.40504e-07 0)
(0.00499969 -2.53787e-07 0)
(0.00499968 -2.67567e-07 0)
(0.00499967 -2.81801e-07 0)
(0.00499965 -2.96429e-07 0)
(0.00499964 -3.11367e-07 0)
(0.00499963 -3.26506e-07 0)
(0.00499962 -3.41706e-07 0)
(0.0049996 -3.5679e-07 0)
(0.00499959 -3.71537e-07 0)
(0.00499958 -3.85679e-07 0)
(0.00499957 -3.9889e-07 0)
(0.00499956 -4.10776e-07 0)
(0.00499955 -4.20851e-07 0)
(0.00499955 -4.28552e-07 0)
(0.00499954 -4.33094e-07 0)
(0.005 -1.16998e-10 0)
(0.005 -3.6783e-10 0)
(0.005 -6.26039e-10 0)
(0.005 -8.86581e-10 0)
(0.005 -1.14955e-09 0)
(0.005 -1.416e-09 0)
(0.005 -1.68709e-09 0)
(0.005 -1.96396e-09 0)
(0.005 -2.24766e-09 0)
(0.005 -2.53916e-09 0)
(0.005 -2.83933e-09 0)
(0.005 -3.14901e-09 0)
(0.005 -3.46896e-09 0)
(0.005 -3.79992e-09 0)
(0.005 -4.14261e-09 0)
(0.005 -4.49772e-09 0)
(0.005 -4.86595e-09 0)
(0.005 -5.24801e-09 0)
(0.005 -5.6446e-09 0)
(0.005 -6.05647e-09 0)
(0.005 -6.48435e-09 0)
(0.005 -6.92905e-09 0)
(0.005 -7.39139e-09 0)
(0.00499999 -7.87223e-09 0)
(0.00499999 -8.3725e-09 0)
(0.00499999 -8.89318e-09 0)
(0.00499999 -9.43529e-09 0)
(0.00499999 -9.99995e-09 0)
(0.00499999 -1.05883e-08 0)
(0.00499999 -1.12018e-08 0)
(0.00499999 -1.18416e-08 0)
(0.00499999 -1.25092e-08 0)
(0.00499999 -1.32063e-08 0)
(0.00499999 -1.39345e-08 0)
(0.00499999 -1.46957e-08 0)
(0.00499998 -1.54918e-08 0)
(0.00499998 -1.63251e-08 0)
(0.00499998 -1.71978e-08 0)
(0.00499998 -1.81123e-08 0)
(0.00499998 -1.90715e-08 0)
(0.00499998 -2.00782e-08 0)
(0.00499997 -2.11355e-08 0)
(0.00499997 -2.22469e-08 0)
(0.00499997 -2.34159e-08 0)
(0.00499997 -2.46464e-08 0)
(0.00499997 -2.59428e-08 0)
(0.00499996 -2.73095e-08 0)
(0.00499996 -2.87515e-08 0)
(0.00499996 -3.02739e-08 0)
(0.00499996 -3.18826e-08 0)
(0.00499995 -3.35834e-08 0)
(0.00499995 -3.5383e-08 0)
(0.00499995 -3.72882e-08 0)
(0.00499994 -3.93067e-08 0)
(0.00499994 -4.14463e-08 0)
(0.00499994 -4.37157e-08 0)
(0.00499993 -4.61239e-08 0)
(0.00499993 -4.86807e-08 0)
(0.00499992 -5.13965e-08 0)
(0.00499992 -5.42824e-08 0)
(0.00499991 -5.73501e-08 0)
(0.00499991 -6.06121e-08 0)
(0.0049999 -6.40816e-08 0)
(0.0049999 -6.77727e-08 0)
(0.00499989 -7.17001e-08 0)
(0.00499988 -7.58796e-08 0)
(0.00499988 -8.03275e-08 0)
(0.00499987 -8.50612e-08 0)
(0.00499986 -9.00987e-08 0)
(0.00499986 -9.5459e-08 0)
(0.00499985 -1.01162e-07 0)
(0.00499984 -1.07227e-07 0)
(0.00499983 -1.13676e-07 0)
(0.00499982 -1.20531e-07 0)
(0.00499981 -1.27812e-07 0)
(0.0049998 -1.35543e-07 0)
(0.00499979 -1.43745e-07 0)
(0.00499978 -1.52439e-07 0)
(0.00499977 -1.61645e-07 0)
(0.00499976 -1.71384e-07 0)
(0.00499975 -1.81671e-07 0)
(0.00499974 -1.92521e-07 0)
(0.00499973 -2.03944e-07 0)
(0.00499972 -2.15945e-07 0)
(0.00499971 -2.2852e-07 0)
(0.00499969 -2.41659e-07 0)
(0.00499968 -2.55339e-07 0)
(0.00499967 -2.69523e-07 0)
(0.00499966 -2.84159e-07 0)
(0.00499965 -2.9917e-07 0)
(0.00499963 -3.14455e-07 0)
(0.00499962 -3.29882e-07 0)
(0.00499961 -3.45279e-07 0)
(0.0049996 -3.6043e-07 0)
(0.00499959 -3.75065e-07 0)
(0.00499958 -3.88847e-07 0)
(0.00499957 -4.01351e-07 0)
(0.00499956 -4.12033e-07 0)
(0.00499955 -4.20199e-07 0)
(0.00499954 -4.24693e-07 0)
(0.005 -1.05952e-10 0)
(0.005 -3.35534e-10 0)
(0.005 -5.74325e-10 0)
(0.005 -8.17239e-10 0)
(0.005 -1.0638e-09 0)
(0.005 -1.31447e-09 0)
(0.005 -1.56991e-09 0)
(0.005 -1.83088e-09 0)
(0.005 -2.09816e-09 0)
(0.005 -2.37249e-09 0)
(0.005 -2.6546e-09 0)
(0.005 -2.94518e-09 0)
(0.005 -3.24487e-09 0)
(0.005 -3.55432e-09 0)
(0.005 -3.87414e-09 0)
(0.005 -4.20492e-09 0)
(0.005 -4.54728e-09 0)
(0.005 -4.90182e-09 0)
(0.005 -5.26915e-09 0)
(0.005 -5.64991e-09 0)
(0.005 -6.04474e-09 0)
(0.005 -6.45433e-09 0)
(0.005 -6.87939e-09 0)
(0.00499999 -7.32068e-09 0)
(0.00499999 -7.77899e-09 0)
(0.00499999 -8.25518e-09 0)
(0.00499999 -8.75016e-09 0)
(0.00499999 -9.2649e-09 0)
(0.00499999 -9.80044e-09 0)
(0.00499999 -1.03579e-08 0)
(0.00499999 -1.09386e-08 0)
(0.00499999 -1.15437e-08 0)
(0.00499999 -1.21747e-08 0)
(0.00499999 -1.28332e-08 0)
(0.00499999 -1.35208e-08 0)
(0.00499998 -1.42393e-08 0)
(0.00499998 -1.49907e-08 0)
(0.00499998 -1.57771e-08 0)
(0.00499998 -1.66009e-08 0)
(0.00499998 -1.74645e-08 0)
(0.00499998 -1.83706e-08 0)
(0.00499998 -1.93221e-08 0)
(0.00499997 -2.03223e-08 0)
(0.00499997 -2.13746e-08 0)
(0.00499997 -2.24827e-08 0)
(0.00499997 -2.36506e-08 0)
(0.00499996 -2.48827e-08 0)
(0.00499996 -2.61836e-08 0)
(0.00499996 -2.75584e-08 0)
(0.00499996 -2.90125e-08 0)
(0.00499995 -3.05519e-08 0)
(0.00499995 -3.21828e-08 0)
(0.00499995 -3.39121e-08 0)
(0.00499994 -3.5747e-08 0)
(0.00499994 -3.76954e-08 0)
(0.00499994 -3.97657e-08 0)
(0.00499993 -4.19669e-08 0)
(0.00499993 -4.43087e-08 0)
(0.00499992 -4.68013e-08 0)
(0.00499992 -4.94558e-08 0)
(0.00499991 -5.22838e-08 0)
(0.00499991 -5.5298e-08 0)
(0.0049999 -5.85116e-08 0)
(0.0049999 -6.19388e-08 0)
(0.00499989 -6.55946e-08 0)
(0.00499989 -6.94948e-08 0)
(0.00499988 -7.36562e-08 0)
(0.00499987 -7.80965e-08 0)
(0.00499987 -8.28344e-08 0)
(0.00499986 -8.78892e-08 0)
(0.00499985 -9.32815e-08 0)
(0.00499984 -9.90324e-08 0)
(0.00499984 -1.05164e-07 0)
(0.00499983 -1.11699e-07 0)
(0.00499982 -1.1866e-07 0)
(0.00499981 -1.26072e-07 0)
(0.0049998 -1.33957e-07 0)
(0.00499979 -1.4234e-07 0)
(0.00499978 -1.51242e-07 0)
(0.00499977 -1.60687e-07 0)
(0.00499976 -1.70694e-07 0)
(0.00499975 -1.8128e-07 0)
(0.00499974 -1.92459e-07 0)
(0.00499972 -2.04239e-07 0)
(0.00499971 -2.16625e-07 0)
(0.0049997 -2.29608e-07 0)
(0.00499969 -2.43173e-07 0)
(0.00499968 -2.57288e-07 0)
(0.00499966 -2.71907e-07 0)
(0.00499965 -2.8696e-07 0)
(0.00499964 -3.02353e-07 0)
(0.00499963 -3.17957e-07 0)
(0.00499962 -3.33606e-07 0)
(0.0049996 -3.49083e-07 0)
(0.00499959 -3.64112e-07 0)
(0.00499958 -3.78342e-07 0)
(0.00499957 -3.91318e-07 0)
(0.00499956 -4.02441e-07 0)
(0.00499955 -4.10899e-07 0)
(0.00499954 -4.1569e-07 0)
(0.005 -9.62213e-11 0)
(0.005 -3.06254e-10 0)
(0.005 -5.26406e-10 0)
(0.005 -7.51835e-10 0)
(0.005 -9.81811e-10 0)
(0.005 -1.21642e-09 0)
(0.005 -1.45595e-09 0)
(0.005 -1.70084e-09 0)
(0.005 -1.9516e-09 0)
(0.005 -2.20877e-09 0)
(0.005 -2.4729e-09 0)
(0.005 -2.74453e-09 0)
(0.005 -3.0242e-09 0)
(0.005 -3.31242e-09 0)
(0.005 -3.6097e-09 0)
(0.005 -3.91656e-09 0)
(0.005 -4.23348e-09 0)
(0.005 -4.56098e-09 0)
(0.005 -4.89958e-09 0)
(0.005 -5.24981e-09 0)
(0.005 -5.61221e-09 0)
(0.005 -5.98737e-09 0)
(0.005 -6.37589e-09 0)
(0.00499999 -6.7784e-09 0)
(0.00499999 -7.19559e-09 0)
(0.00499999 -7.62819e-09 0)
(0.00499999 -8.07699e-09 0)
(0.00499999 -8.54282e-09 0)
(0.00499999 -9.0266e-09 0)
(0.00499999 -9.52933e-09 0)
(0.00499999 -1.00521e-08 0)
(0.00499999 -1.0596e-08 0)
(0.00499999 -1.11624e-08 0)
(0.00499999 -1.17526e-08 0)
(0.00499999 -1.23681e-08 0)
(0.00499998 -1.30107e-08 0)
(0.00499998 -1.3682e-08 0)
(0.00499998 -1.4384e-08 0)
(0.00499998 -1.51189e-08 0)
(0.00499998 -1.58889e-08 0)
(0.00499998 -1.66967e-08 0)
(0.00499998 -1.75448e-08 0)
(0.00499997 -1.84363e-08 0)
(0.00499997 -1.93745e-08 0)
(0.00499997 -2.03628e-08 0)
(0.00499997 -2.1405e-08 0)
(0.00499997 -2.25054e-08 0)
(0.00499996 -2.36684e-08 0)
(0.00499996 -2.48988e-08 0)
(0.00499996 -2.62019e-08 0)
(0.00499996 -2.75835e-08 0)
(0.00499995 -2.90495e-08 0)
(0.00499995 -3.06067e-08 0)
(0.00499995 -3.22621e-08 0)
(0.00499994 -3.40236e-08 0)
(0.00499994 -3.58992e-08 0)
(0.00499993 -3.78979e-08 0)
(0.00499993 -4.00293e-08 0)
(0.00499993 -4.23036e-08 0)
(0.00499992 -4.47317e-08 0)
(0.00499992 -4.73253e-08 0)
(0.00499991 -5.0097e-08 0)
(0.00499991 -5.30602e-08 0)
(0.0049999 -5.62291e-08 0)
(0.0049999 -5.96188e-08 0)
(0.00499989 -6.32454e-08 0)
(0.00499988 -6.71261e-08 0)
(0.00499988 -7.12789e-08 0)
(0.00499987 -7.57229e-08 0)
(0.00499986 -8.04781e-08 0)
(0.00499985 -8.55656e-08 0)
(0.00499985 -9.10074e-08 0)
(0.00499984 -9.68266e-08 0)
(0.00499983 -1.03047e-07 0)
(0.00499982 -1.09693e-07 0)
(0.00499981 -1.16789e-07 0)
(0.0049998 -1.24362e-07 0)
(0.00499979 -1.32436e-07 0)
(0.00499978 -1.41037e-07 0)
(0.00499977 -1.50188e-07 0)
(0.00499976 -1.59913e-07 0)
(0.00499975 -1.70233e-07 0)
(0.00499974 -1.81164e-07 0)
(0.00499973 -1.92719e-07 0)
(0.00499972 -2.04905e-07 0)
(0.00499971 -2.1772e-07 0)
(0.00499969 -2.31153e-07 0)
(0.00499968 -2.45178e-07 0)
(0.00499967 -2.59752e-07 0)
(0.00499966 -2.74813e-07 0)
(0.00499965 -2.90269e-07 0)
(0.00499963 -3.05997e-07 0)
(0.00499962 -3.21831e-07 0)
(0.00499961 -3.37552e-07 0)
(0.0049996 -3.52878e-07 0)
(0.00499959 -3.6744e-07 0)
(0.00499958 -3.80762e-07 0)
(0.00499957 -3.92214e-07 0)
(0.00499956 -4.00983e-07 0)
(0.00499954 -4.06139e-07 0)
(0.005 -8.74699e-11 0)
(0.005 -2.79496e-10 0)
(0.005 -4.81932e-10 0)
(0.005 -6.903e-10 0)
(0.005 -9.03802e-10 0)
(0.005 -1.1223e-09 0)
(0.005 -1.34582e-09 0)
(0.005 -1.57456e-09 0)
(0.005 -1.80878e-09 0)
(0.005 -2.04885e-09 0)
(0.005 -2.29513e-09 0)
(0.005 -2.54802e-09 0)
(0.005 -2.80793e-09 0)
(0.005 -3.07525e-09 0)
(0.005 -3.3504e-09 0)
(0.005 -3.63377e-09 0)
(0.005 -3.92577e-09 0)
(0.005 -4.2268e-09 0)
(0.005 -4.5373e-09 0)
(0.005 -4.85768e-09 0)
(0.005 -5.18839e-09 0)
(0.005 -5.52992e-09 0)
(0.005 -5.88275e-09 0)
(0.00499999 -6.24741e-09 0)
(0.00499999 -6.62448e-09 0)
(0.00499999 -7.01456e-09 0)
(0.00499999 -7.41831e-09 0)
(0.00499999 -7.83645e-09 0)
(0.00499999 -8.26977e-09 0)
(0.00499999 -8.71911e-09 0)
(0.00499999 -9.18541e-09 0)
(0.00499999 -9.6697e-09 0)
(0.00499999 -1.01731e-08 0)
(0.00499999 -1.06968e-08 0)
(0.00499999 -1.12422e-08 0)
(0.00499999 -1.18107e-08 0)
(0.00499998 -1.2404e-08 0)
(0.00499998 -1.30239e-08 0)
(0.00499998 -1.36722e-08 0)
(0.00499998 -1.43512e-08 0)
(0.00499998 -1.50632e-08 0)
(0.00499998 -1.58106e-08 0)
(0.00499997 -1.65963e-08 0)
(0.00499997 -1.74234e-08 0)
(0.00499997 -1.82951e-08 0)
(0.00499997 -1.92151e-08 0)
(0.00499997 -2.01874e-08 0)
(0.00499996 -2.12161e-08 0)
(0.00499996 -2.23061e-08 0)
(0.00499996 -2.34622e-08 0)
(0.00499996 -2.46901e-08 0)
(0.00499995 -2.59957e-08 0)
(0.00499995 -2.73854e-08 0)
(0.00499995 -2.88662e-08 0)
(0.00499994 -3.04456e-08 0)
(0.00499994 -3.21318e-08 0)
(0.00499994 -3.39335e-08 0)
(0.00499993 -3.58601e-08 0)
(0.00499993 -3.79217e-08 0)
(0.00499992 -4.01294e-08 0)
(0.00499992 -4.24947e-08 0)
(0.00499991 -4.50302e-08 0)
(0.00499991 -4.77493e-08 0)
(0.0049999 -5.06664e-08 0)
(0.0049999 -5.37968e-08 0)
(0.00499989 -5.71567e-08 0)
(0.00499989 -6.07635e-08 0)
(0.00499988 -6.46356e-08 0)
(0.00499987 -6.87925e-08 0)
(0.00499987 -7.32548e-08 0)
(0.00499986 -7.80442e-08 0)
(0.00499985 -8.31835e-08 0)
(0.00499984 -8.86966e-08 0)
(0.00499983 -9.46082e-08 0)
(0.00499983 -1.00944e-07 0)
(0.00499982 -1.0773e-07 0)
(0.00499981 -1.14995e-07 0)
(0.0049998 -1.22764e-07 0)
(0.00499979 -1.31065e-07 0)
(0.00499978 -1.39924e-07 0)
(0.00499977 -1.49368e-07 0)
(0.00499976 -1.59419e-07 0)
(0.00499975 -1.70097e-07 0)
(0.00499974 -1.81419e-07 0)
(0.00499973 -1.93396e-07 0)
(0.00499971 -2.0603e-07 0)
(0.0049997 -2.19312e-07 0)
(0.00499969 -2.33223e-07 0)
(0.00499968 -2.47724e-07 0)
(0.00499967 -2.62756e-07 0)
(0.00499965 -2.78231e-07 0)
(0.00499964 -2.94028e-07 0)
(0.00499963 -3.0998e-07 0)
(0.00499962 -3.25867e-07 0)
(0.00499961 -3.41399e-07 0)
(0.0049996 -3.56195e-07 0)
(0.00499958 -3.6976e-07 0)
(0.00499957 -3.81447e-07 0)
(0.00499956 -3.90431e-07 0)
(0.00499955 -3.95761e-07 0)
(0.005 -7.94746e-11 0)
(0.005 -2.54824e-10 0)
(0.005 -4.40498e-10 0)
(0.005 -6.32388e-10 0)
(0.005 -8.29721e-10 0)
(0.005 -1.03225e-09 0)
(0.005 -1.23982e-09 0)
(0.005 -1.45244e-09 0)
(0.005 -1.6702e-09 0)
(0.005 -1.89326e-09 0)
(0.005 -2.12186e-09 0)
(0.005 -2.35624e-09 0)
(0.005 -2.59669e-09 0)
(0.005 -2.84348e-09 0)
(0.005 -3.09692e-09 0)
(0.005 -3.3573e-09 0)
(0.005 -3.62492e-09 0)
(0.005 -3.90011e-09 0)
(0.005 -4.18317e-09 0)
(0.005 -4.47444e-09 0)
(0.005 -4.77428e-09 0)
(0.005 -5.08304e-09 0)
(0.005 -5.40113e-09 0)
(0.00499999 -5.72895e-09 0)
(0.00499999 -6.06698e-09 0)
(0.00499999 -6.4157e-09 0)
(0.00499999 -6.77565e-09 0)
(0.00499999 -7.14743e-09 0)
(0.00499999 -7.5317e-09 0)
(0.00499999 -7.92918e-09 0)
(0.00499999 -8.34065e-09 0)
(0.00499999 -8.76701e-09 0)
(0.00499999 -9.20922e-09 0)
(0.00499999 -9.66837e-09 0)
(0.00499999 -1.01456e-08 0)
(0.00499999 -1.06424e-08 0)
(0.00499998 -1.116e-08 0)
(0.00499998 -1.17001e-08 0)
(0.00499998 -1.22645e-08 0)
(0.00499998 -1.28551e-08 0)
(0.00499998 -1.34741e-08 0)
(0.00499998 -1.41239e-08 0)
(0.00499998 -1.4807e-08 0)
(0.00499997 -1.55263e-08 0)
(0.00499997 -1.6285e-08 0)
(0.00499997 -1.70865e-08 0)
(0.00499997 -1.79344e-08 0)
(0.00499997 -1.8833e-08 0)
(0.00499996 -1.97867e-08 0)
(0.00499996 -2.08004e-08 0)
(0.00499996 -2.18793e-08 0)
(0.00499995 -2.30293e-08 0)
(0.00499995 -2.42566e-08 0)
(0.00499995 -2.5568e-08 0)
(0.00499995 -2.69709e-08 0)
(0.00499994 -2.84733e-08 0)
(0.00499994 -3.00837e-08 0)
(0.00499993 -3.18116e-08 0)
(0.00499993 -3.3667e-08 0)
(0.00499993 -3.56607e-08 0)
(0.00499992 -3.78044e-08 0)
(0.00499992 -4.01105e-08 0)
(0.00499991 -4.25926e-08 0)
(0.00499991 -4.5265e-08 0)
(0.0049999 -4.81432e-08 0)
(0.0049999 -5.12437e-08 0)
(0.00499989 -5.4584e-08 0)
(0.00499988 -5.81829e-08 0)
(0.00499988 -6.20602e-08 0)
(0.00499987 -6.6237e-08 0)
(0.00499986 -7.07355e-08 0)
(0.00499986 -7.55793e-08 0)
(0.00499985 -8.0793e-08 0)
(0.00499984 -8.64023e-08 0)
(0.00499983 -9.2434e-08 0)
(0.00499982 -9.89157e-08 0)
(0.00499981 -1.05876e-07 0)
(0.00499981 -1.13343e-07 0)
(0.0049998 -1.21347e-07 0)
(0.00499979 -1.29916e-07 0)
(0.00499978 -1.39077e-07 0)
(0.00499977 -1.48857e-07 0)
(0.00499976 -1.59278e-07 0)
(0.00499974 -1.7036e-07 0)
(0.00499973 -1.82117e-07 0)
(0.00499972 -1.94554e-07 0)
(0.00499971 -2.07668e-07 0)
(0.0049997 -2.21441e-07 0)
(0.00499969 -2.35839e-07 0)
(0.00499968 -2.50805e-07 0)
(0.00499966 -2.66254e-07 0)
(0.00499965 -2.82066e-07 0)
(0.00499964 -2.98075e-07 0)
(0.00499963 -3.14056e-07 0)
(0.00499962 -3.29714e-07 0)
(0.0049996 -3.44659e-07 0)
(0.00499959 -3.58384e-07 0)
(0.00499958 -3.7023e-07 0)
(0.00499957 -3.79363e-07 0)
(0.00499956 -3.848e-07 0)
(0.005 -7.20966e-11 0)
(0.005 -2.31925e-10 0)
(0.005 -4.01767e-10 0)
(0.005 -5.77848e-10 0)
(0.005 -7.59459e-10 0)
(0.005 -9.463e-10 0)
(0.005 -1.13812e-09 0)
(0.005 -1.33479e-09 0)
(0.005 -1.53623e-09 0)
(0.005 -1.74248e-09 0)
(0.005 -1.95362e-09 0)
(0.005 -2.16978e-09 0)
(0.005 -2.3911e-09 0)
(0.005 -2.61776e-09 0)
(0.005 -2.84996e-09 0)
(0.005 -3.08787e-09 0)
(0.005 -3.33172e-09 0)
(0.005 -3.58171e-09 0)
(0.005 -3.83808e-09 0)
(0.005 -4.10104e-09 0)
(0.005 -4.37086e-09 0)
(0.005 -4.64781e-09 0)
(0.005 -4.93216e-09 0)
(0.005 -5.22425e-09 0)
(0.00499999 -5.52441e-09 0)
(0.00499999 -5.83303e-09 0)
(0.00499999 -6.15053e-09 0)
(0.00499999 -6.4774e-09 0)
(0.00499999 -6.81416e-09 0)
(0.00499999 -7.16141e-09 0)
(0.00499999 -7.5198e-09 0)
(0.00499999 -7.89009e-09 0)
(0.00499999 -8.27311e-09 0)
(0.00499999 -8.66979e-09 0)
(0.00499999 -9.08117e-09 0)
(0.00499999 -9.50842e-09 0)
(0.00499998 -9.95282e-09 0)
(0.00499998 -1.04158e-08 0)
(0.00499998 -1.08991e-08 0)
(0.00499998 -1.14043e-08 0)
(0.00499998 -1.19335e-08 0)
(0.00499998 -1.24889e-08 0)
(0.00499998 -1.30728e-08 0)
(0.00499997 -1.36881e-08 0)
(0.00499997 -1.43375e-08 0)
(0.00499997 -1.50244e-08 0)
(0.00499997 -1.57523e-08 0)
(0.00499997 -1.65252e-08 0)
(0.00499996 -1.73472e-08 0)
(0.00499996 -1.82232e-08 0)
(0.00499996 -1.91582e-08 0)
(0.00499996 -2.01578e-08 0)
(0.00499995 -2.12282e-08 0)
(0.00499995 -2.23759e-08 0)
(0.00499995 -2.36082e-08 0)
(0.00499994 -2.49329e-08 0)
(0.00499994 -2.63586e-08 0)
(0.00499994 -2.78943e-08 0)
(0.00499993 -2.95502e-08 0)
(0.00499993 -3.13369e-08 0)
(0.00499992 -3.32661e-08 0)
(0.00499992 -3.53502e-08 0)
(0.00499991 -3.76028e-08 0)
(0.00499991 -4.00383e-08 0)
(0.0049999 -4.26722e-08 0)
(0.0049999 -4.55211e-08 0)
(0.00499989 -4.86029e-08 0)
(0.00499989 -5.19365e-08 0)
(0.00499988 -5.55421e-08 0)
(0.00499987 -5.94413e-08 0)
(0.00499987 -6.36567e-08 0)
(0.00499986 -6.82125e-08 0)
(0.00499985 -7.3134e-08 0)
(0.00499985 -7.84478e-08 0)
(0.00499984 -8.41816e-08 0)
(0.00499983 -9.03643e-08 0)
(0.00499982 -9.70254e-08 0)
(0.00499981 -1.04195e-07 0)
(0.0049998 -1.11904e-07 0)
(0.00499979 -1.20183e-07 0)
(0.00499978 -1.29062e-07 0)
(0.00499977 -1.38568e-07 0)
(0.00499976 -1.48727e-07 0)
(0.00499975 -1.59561e-07 0)
(0.00499974 -1.71087e-07 0)
(0.00499973 -1.83314e-07 0)
(0.00499972 -1.96239e-07 0)
(0.00499971 -2.0985e-07 0)
(0.0049997 -2.24115e-07 0)
(0.00499968 -2.38979e-07 0)
(0.00499967 -2.54359e-07 0)
(0.00499966 -2.70136e-07 0)
(0.00499965 -2.86142e-07 0)
(0.00499964 -3.02153e-07 0)
(0.00499963 -3.17866e-07 0)
(0.00499961 -3.32886e-07 0)
(0.0049996 -3.46698e-07 0)
(0.00499959 -3.58636e-07 0)
(0.00499958 -3.67858e-07 0)
(0.00499956 -3.73353e-07 0)
(0.005 -6.52428e-11 0)
(0.005 -2.10574e-10 0)
(0.005 -3.65473e-10 0)
(0.005 -5.26452e-10 0)
(0.005 -6.9288e-10 0)
(0.005 -8.64444e-10 0)
(0.005 -1.04083e-09 0)
(0.005 -1.2218e-09 0)
(0.005 -1.40719e-09 0)
(0.005 -1.59689e-09 0)
(0.005 -1.79087e-09 0)
(0.005 -1.98914e-09 0)
(0.005 -2.19173e-09 0)
(0.005 -2.39871e-09 0)
(0.005 -2.61017e-09 0)
(0.005 -2.8262e-09 0)
(0.005 -3.04692e-09 0)
(0.005 -3.27243e-09 0)
(0.005 -3.50287e-09 0)
(0.005 -3.73838e-09 0)
(0.005 -3.97912e-09 0)
(0.005 -4.22525e-09 0)
(0.005 -4.47697e-09 0)
(0.005 -4.73448e-09 0)
(0.00499999 -4.99804e-09 0)
(0.00499999 -5.26791e-09 0)
(0.00499999 -5.54442e-09 0)
(0.00499999 -5.82792e-09 0)
(0.00499999 -6.11883e-09 0)
(0.00499999 -6.41761e-09 0)
(0.00499999 -6.7248e-09 0)
(0.00499999 -7.04103e-09 0)
(0.00499999 -7.36697e-09 0)
(0.00499999 -7.70344e-09 0)
(0.00499999 -8.05131e-09 0)
(0.00499999 -8.41162e-09 0)
(0.00499999 -8.78551e-09 0)
(0.00499998 -9.17426e-09 0)
(0.00499998 -9.57932e-09 0)
(0.00499998 -1.00023e-08 0)
(0.00499998 -1.0445e-08 0)
(0.00499998 -1.09095e-08 0)
(0.00499998 -1.13981e-08 0)
(0.00499998 -1.19131e-08 0)
(0.00499997 -1.24574e-08 0)
(0.00499997 -1.3034e-08 0)
(0.00499997 -1.36464e-08 0)
(0.00499997 -1.42982e-08 0)
(0.00499997 -1.49936e-08 0)
(0.00499996 -1.5737e-08 0)
(0.00499996 -1.65335e-08 0)
(0.00499996 -1.73884e-08 0)
(0.00499995 -1.83076e-08 0)
(0.00499995 -1.92978e-08 0)
(0.00499995 -2.03658e-08 0)
(0.00499995 -2.15194e-08 0)
(0.00499994 -2.27671e-08 0)
(0.00499994 -2.41177e-08 0)
(0.00499993 -2.55814e-08 0)
(0.00499993 -2.71686e-08 0)
(0.00499993 -2.88909e-08 0)
(0.00499992 -3.07609e-08 0)
(0.00499992 -3.2792e-08 0)
(0.00499991 -3.49987e-08 0)
(0.00499991 -3.73966e-08 0)
(0.0049999 -4.00024e-08 0)
(0.0049999 -4.28341e-08 0)
(0.00499989 -4.59109e-08 0)
(0.00499989 -4.92533e-08 0)
(0.00499988 -5.28832e-08 0)
(0.00499987 -5.68236e-08 0)
(0.00499987 -6.10994e-08 0)
(0.00499986 -6.57363e-08 0)
(0.00499985 -7.07618e-08 0)
(0.00499984 -7.62044e-08 0)
(0.00499984 -8.20938e-08 0)
(0.00499983 -8.84609e-08 0)
(0.00499982 -9.53372e-08 0)
(0.00499981 -1.02755e-07 0)
(0.0049998 -1.10745e-07 0)
(0.00499979 -1.1934e-07 0)
(0.00499978 -1.2857e-07 0)
(0.00499977 -1.38462e-07 0)
(0.00499976 -1.49041e-07 0)
(0.00499975 -1.60325e-07 0)
(0.00499974 -1.72326e-07 0)
(0.00499973 -1.85045e-07 0)
(0.00499972 -1.9847e-07 0)
(0.00499971 -2.12572e-07 0)
(0.00499969 -2.27299e-07 0)
(0.00499968 -2.4257e-07 0)
(0.00499967 -2.58264e-07 0)
(0.00499966 -2.74214e-07 0)
(0.00499965 -2.90194e-07 0)
(0.00499964 -3.05899e-07 0)
(0.00499962 -3.2093e-07 0)
(0.00499961 -3.34766e-07 0)
(0.0049996 -3.46737e-07 0)